{
	 "smiles": "CN(C)S(=O)(=O)C1=C(N)N=CC(Br)=C1", 
	 "Tm": 447.15, 
	 "num_atms": 24, 
	 "gaussian": { 
		 "optdone": 1, 
		 "sigma_profile": "yes", 
		 "theory": "DFT", 
		 "functional": "B3LYP", 
		 "basiset": "6-31G**", 
		 "properties": { 
			 "R2extent": 6086.6779, 
			 "electric_dipole_moment_norm": 3.43620486147, 
			 "electric_quadrupole_moment_norm": 9.97677458551, 
			 "total_energy": -3556.99589702, 
			 "HOMO_LUMO_gap": 0.17389, 
			 "cosmo_polarized_energy": -12.99, 
			 "cosmo_cavitation_energy": 30.84, 
			 "cosmo_dispersion_energy": -23.0, 
			 "cosmo_repulsion_energy": 1.77, 
			 "cosmo_total_nonelectrostatic_energy": 9.6, 
			 "SMD_solvation_energy": 1.66 
		},
		"coords": [
			{
				"x": 0.5738335068,
				"y": -2.6074916511,
				"z": -0.3797704315,
				"element": "C" 
			},
			{
				"x": 0.4944419921,
				"y": -1.1748488691,
				"z": -0.0521876188,
				"element": "N" 
			},
			{
				"x": 1.7785475486,
				"y": -0.5946793512,
				"z": 0.3616882333,
				"element": "C" 
			},
			{
				"x": -0.8093287308,
				"y": -0.7530917579,
				"z": 0.9525705474,
				"element": "S" 
			},
			{
				"x": -0.4293836861,
				"y": -0.7787329832,
				"z": 2.3707627014,
				"element": "O" 
			},
			{
				"x": -1.9517252179,
				"y": -1.5566252098,
				"z": 0.4811251558,
				"element": "O" 
			},
			{
				"x": -1.0891733939,
				"y": 0.9491055918,
				"z": 0.4934072249,
				"element": "C" 
			},
			{
				"x": -1.7198350657,
				"y": 1.3073904515,
				"z": -0.7316555679,
				"element": "C" 
			},
			{
				"x": -2.1539628709,
				"y": 0.391396821,
				"z": -1.6374248824,
				"element": "N" 
			},
			{
				"x": -1.8942563509,
				"y": 2.6042270779,
				"z": -1.0560177254,
				"element": "N" 
			},
			{
				"x": -1.4922185814,
				"y": 3.5495691273,
				"z": -0.210877476,
				"element": "C" 
			},
			{
				"x": -0.9053857516,
				"y": 3.2742634093,
				"z": 1.0261574445,
				"element": "C" 
			},
			{
				"x": -0.3951723241,
				"y": 4.6952840651,
				"z": 2.1871404851,
				"element": "Br" 
			},
			{
				"x": -0.7030777117,
				"y": 1.946151751,
				"z": 1.3848788134,
				"element": "C" 
			},
			{
				"x": 0.9540710377,
				"y": -3.2121084457,
				"z": 0.455582811,
				"element": "H" 
			},
			{
				"x": -0.4116817297,
				"y": -2.9721003747,
				"z": -0.6659564896,
				"element": "H" 
			},
			{
				"x": 1.2532273135,
				"y": -2.7131521239,
				"z": -1.2301352307,
				"element": "H" 
			},
			{
				"x": 2.1706986873,
				"y": -1.0468024312,
				"z": 1.2819793747,
				"element": "H" 
			},
			{
				"x": 1.6732274825,
				"y": 0.4819619019,
				"z": 0.509894004,
				"element": "H" 
			},
			{
				"x": 2.4927051144,
				"y": -0.7531194571,
				"z": -0.450696576,
				"element": "H" 
			},
			{
				"x": -2.3397557735,
				"y": -0.5486150909,
				"z": -1.3122103509,
				"element": "H" 
			},
			{
				"x": -2.7195852473,
				"y": 0.764705613,
				"z": -2.3850325355,
				"element": "H" 
			},
			{
				"x": -1.6509357329,
				"y": 4.5791989359,
				"z": -0.5227459061,
				"element": "H" 
			},
			{
				"x": -0.2592745146,
				"y": 1.671613,
				"z": 2.3350239953,
				"element": "H" 
			}
		],
		 "valence_orbital": [ 
			{
				"type": "occ",
				"energy": -0.30042,
				"method": "rhf"
			},
			{
				"type": "occ",
				"energy": -0.29819,
				"method": "rhf"
			},
			{
				"type": "occ",
				"energy": -0.27667,
				"method": "rhf"
			},
			{
				"type": "occ",
				"energy": -0.26183,
				"method": "rhf"
			},
			{
				"type": "occ",
				"energy": -0.22869,
				"method": "rhf"
			},
			{
				"type": "unocc",
				"energy": -0.0548,
				"method": "rhf"
			},
			{
				"type": "unocc",
				"energy": -0.02169,
				"method": "rhf"
			},
			{
				"type": "unocc",
				"energy": -0.00205,
				"method": "rhf"
			},
			{
				"type": "unocc",
				"energy": 0.06087,
				"method": "rhf"
			},
			{
				"type": "unocc",
				"energy": 0.06321,
				"method": "rhf"
			}
		],
		"cosmo_sigma_profile": { 
			"-0.025": 0.0,
			"-0.024": 0.0,
			"-0.023": 0.0,
			"-0.022": 0.0,
			"-0.021": 0.0,
			"-0.02": 0.0,
			"-0.019": 0.0,
			"-0.018": 0.0,
			"-0.017": 0.0,
			"-0.016": 0.0,
			"-0.015": 0.0,
			"-0.014": 0.766198547405,
			"-0.013": 1.02109970727,
			"-0.012": 0.867105932622,
			"-0.011": 1.53362220053,
			"-0.01": 2.34362456019,
			"-0.009": 1.39681001817,
			"-0.008": 3.36295101905,
			"-0.007": 4.80236539878,
			"-0.006": 11.5032064308,
			"-0.005": 16.2991557761,
			"-0.004": 19.4427377011,
			"-0.003": 23.2309916292,
			"-0.002": 26.3090920295,
			"-0.001": 19.871610996,
			"0.0": 16.7679353036,
			"0.001": 13.3905564765,
			"0.002": 12.0761128551,
			"0.003": 12.739348514,
			"0.004": 15.7102015075,
			"0.005": 6.46984632207,
			"0.006": 5.68655042524,
			"0.007": 5.36710475795,
			"0.008": 5.26946863922,
			"0.009": 5.81508701386,
			"0.01": 7.08612764608,
			"0.011": 6.93818711013,
			"0.012": 1.94708846802,
			"0.013": 0.700082798033,
			"0.014": 0.0468036989533,
			"0.015": 0.0,
			"0.016": 0.0,
			"0.017": 0.0,
			"0.018": 0.0,
			"0.019": 0.0,
			"0.02": 0.0,
			"0.021": 0.0,
			"0.022": 0.0,
			"0.023": 0.0,
			"0.024": 0.0,
			"0.025": 0.0
		}
	}
}
