{
	 "smiles": "NC1=C(Cl)C=C(F)C=C1Br", 
	 "Tm": 329.15, 
	 "num_atms": 14, 
	 "gaussian": { 
		 "optdone": 1, 
		 "sigma_profile": "yes", 
		 "theory": "DFT", 
		 "functional": "B3LYP", 
		 "basiset": "6-31G**", 
		 "properties": { 
			 "R2extent": 3133.9888, 
			 "electric_dipole_moment_norm": 1.56726269336, 
			 "electric_quadrupole_moment_norm": 5.02469486835, 
			 "total_energy": -3417.23206749, 
			 "HOMO_LUMO_gap": 0.18677, 
			 "cosmo_polarized_energy": -5.62, 
			 "cosmo_cavitation_energy": 22.54, 
			 "cosmo_dispersion_energy": -17.46, 
			 "cosmo_repulsion_energy": 1.39, 
			 "cosmo_total_nonelectrostatic_energy": 6.46, 
			 "SMD_solvation_energy": 2.94 
		},
		"coords": [
			{
				"x": -1.3979189444,
				"y": 1.0176282919,
				"z": 1.3179373926,
				"element": "N" 
			},
			{
				"x": -0.3415845705,
				"y": 0.2596209933,
				"z": 0.8588503805,
				"element": "C" 
			},
			{
				"x": -0.0073580357,
				"y": 0.1969253817,
				"z": -0.5121269357,
				"element": "C" 
			},
			{
				"x": -1.0263931368,
				"y": 1.0512633958,
				"z": -1.6647353627,
				"element": "Cl" 
			},
			{
				"x": 1.0874256819,
				"y": -0.5129773231,
				"z": -0.9934622844,
				"element": "C" 
			},
			{
				"x": 1.8868343634,
				"y": -1.1928639902,
				"z": -0.0848645759,
				"element": "C" 
			},
			{
				"x": 2.9535545474,
				"y": -1.88513941,
				"z": -0.5353058515,
				"element": "F" 
			},
			{
				"x": 1.6117992629,
				"y": -1.1801041737,
				"z": 1.2754079567,
				"element": "C" 
			},
			{
				"x": 0.5084761316,
				"y": -0.4616576505,
				"z": 1.7239953563,
				"element": "C" 
			},
			{
				"x": 0.130286746,
				"y": -0.4606152824,
				"z": 3.5999377836,
				"element": "Br" 
			},
			{
				"x": -1.73642244,
				"y": 0.7866028745,
				"z": 2.2407172553,
				"element": "H" 
			},
			{
				"x": -2.1142951976,
				"y": 1.23660111,
				"z": 0.6416038112,
				"element": "H" 
			},
			{
				"x": 1.3137092425,
				"y": -0.5383728163,
				"z": -2.0521403013,
				"element": "H" 
			},
			{
				"x": 2.2449863491,
				"y": -1.7224114012,
				"z": 1.9660853755,
				"element": "H" 
			}
		],
		 "valence_orbital": [ 
			{
				"type": "occ",
				"energy": -0.32532,
				"method": "rhf"
			},
			{
				"type": "occ",
				"energy": -0.31063,
				"method": "rhf"
			},
			{
				"type": "occ",
				"energy": -0.30385,
				"method": "rhf"
			},
			{
				"type": "occ",
				"energy": -0.25565,
				"method": "rhf"
			},
			{
				"type": "occ",
				"energy": -0.21629,
				"method": "rhf"
			},
			{
				"type": "unocc",
				"energy": -0.02952,
				"method": "rhf"
			},
			{
				"type": "unocc",
				"energy": -0.01755,
				"method": "rhf"
			},
			{
				"type": "unocc",
				"energy": 0.00047,
				"method": "rhf"
			},
			{
				"type": "unocc",
				"energy": 0.03554,
				"method": "rhf"
			},
			{
				"type": "unocc",
				"energy": 0.0882,
				"method": "rhf"
			}
		],
		"cosmo_sigma_profile": { 
			"-0.025": 0.0,
			"-0.024": 0.0,
			"-0.023": 0.0,
			"-0.022": 0.0,
			"-0.021": 0.0,
			"-0.02": 0.0,
			"-0.019": 0.0,
			"-0.018": 0.0,
			"-0.017": 0.0,
			"-0.016": 0.0,
			"-0.015": 0.0,
			"-0.014": 0.0,
			"-0.013": 0.28256670048,
			"-0.012": 1.35248027027,
			"-0.011": 1.63173151339,
			"-0.01": 2.35909260399,
			"-0.009": 3.05568974907,
			"-0.008": 4.00963508609,
			"-0.007": 4.83511832424,
			"-0.006": 5.20875781093,
			"-0.005": 5.95445882513,
			"-0.004": 6.23077752276,
			"-0.003": 8.97658034645,
			"-0.002": 8.10125147658,
			"-0.001": 11.975799404,
			"0.0": 17.1840616097,
			"0.001": 27.1300852845,
			"0.002": 27.1383542049,
			"0.003": 18.5995841092,
			"0.004": 23.9753368282,
			"0.005": 4.4314164577,
			"0.006": 0.700679479365,
			"0.007": 0.800540125759,
			"0.008": 0.529960861725,
			"0.009": 0.791182710189,
			"0.01": 0.586412889105,
			"0.011": 0.522418050338,
			"0.012": 0.305030257827,
			"0.013": 0.0,
			"0.014": 0.0,
			"0.015": 0.0,
			"0.016": 0.0,
			"0.017": 0.0,
			"0.018": 0.0,
			"0.019": 0.0,
			"0.02": 0.0,
			"0.021": 0.0,
			"0.022": 0.0,
			"0.023": 0.0,
			"0.024": 0.0,
			"0.025": 0.0
		}
	}
}
