{
	 "smiles": "NC1=NC(=O)C2=C(NC(=S)N2)N1", 
	 "Tm": 573.15, 
	 "num_atms": 17, 
	 "gaussian": { 
		 "optdone": 1, 
		 "sigma_profile": "yes", 
		 "theory": "DFT", 
		 "functional": "B3LYP", 
		 "basiset": "6-31G**", 
		 "properties": { 
			 "R2extent": 3113.0558, 
			 "electric_dipole_moment_norm": 8.77838907545, 
			 "electric_quadrupole_moment_norm": 34.73433071, 
			 "total_energy": -940.734462271, 
			 "HOMO_LUMO_gap": 0.16585, 
			 "cosmo_polarized_energy": -39.99, 
			 "cosmo_cavitation_energy": 24.16, 
			 "cosmo_dispersion_energy": -18.9, 
			 "cosmo_repulsion_energy": 1.48, 
			 "cosmo_total_nonelectrostatic_energy": 6.73, 
			 "SMD_solvation_energy": 1.98 
		},
		"coords": [
			{
				"x": 1.8044491213,
				"y": 0.1295185338,
				"z": -4.403954669,
				"element": "N" 
			},
			{
				"x": 1.525000842,
				"y": 0.0298833178,
				"z": -3.055495706,
				"element": "C" 
			},
			{
				"x": 2.1316510333,
				"y": 0.7857981326,
				"z": -2.1971621464,
				"element": "N" 
			},
			{
				"x": 1.9557738659,
				"y": 0.6367628844,
				"z": -0.8049215263,
				"element": "C" 
			},
			{
				"x": 2.5532399481,
				"y": 1.3168881717,
				"z": 0.0168219905,
				"element": "O" 
			},
			{
				"x": 0.9849091167,
				"y": -0.3867418693,
				"z": -0.4543974038,
				"element": "C" 
			},
			{
				"x": 0.363862404,
				"y": -1.149994291,
				"z": -1.3965241026,
				"element": "C" 
			},
			{
				"x": -0.4777506656,
				"y": -2.0265059028,
				"z": -0.7566968034,
				"element": "N" 
			},
			{
				"x": -0.4024143737,
				"y": -1.8387283197,
				"z": 0.6278559048,
				"element": "C" 
			},
			{
				"x": -1.2489087122,
				"y": -2.6897360669,
				"z": 1.782858175,
				"element": "S" 
			},
			{
				"x": 0.5021458759,
				"y": -0.8241015993,
				"z": 0.7753124462,
				"element": "N" 
			},
			{
				"x": 0.590577906,
				"y": -0.9602660575,
				"z": -2.7394305922,
				"element": "N" 
			},
			{
				"x": 2.4070396115,
				"y": 0.9181375995,
				"z": -4.6008062853,
				"element": "H" 
			},
			{
				"x": 1.0208036537,
				"y": 0.0527474117,
				"z": -5.0397309561,
				"element": "H" 
			},
			{
				"x": -1.0926207918,
				"y": -2.7205466758,
				"z": -1.1535751801,
				"element": "H" 
			},
			{
				"x": 0.7765225409,
				"y": -0.4519292248,
				"z": 1.6721601636,
				"element": "H" 
			},
			{
				"x": 0.3881186241,
				"y": -1.6864860444,
				"z": -3.4124133088,
				"element": "H" 
			}
		],
		 "valence_orbital": [ 
			{
				"type": "occ",
				"energy": -0.28245,
				"method": "rhf"
			},
			{
				"type": "occ",
				"energy": -0.26547,
				"method": "rhf"
			},
			{
				"type": "occ",
				"energy": -0.25141,
				"method": "rhf"
			},
			{
				"type": "occ",
				"energy": -0.21627,
				"method": "rhf"
			},
			{
				"type": "occ",
				"energy": -0.20029,
				"method": "rhf"
			},
			{
				"type": "unocc",
				"energy": -0.03444,
				"method": "rhf"
			},
			{
				"type": "unocc",
				"energy": -0.0079,
				"method": "rhf"
			},
			{
				"type": "unocc",
				"energy": 0.00032,
				"method": "rhf"
			},
			{
				"type": "unocc",
				"energy": 0.02809,
				"method": "rhf"
			},
			{
				"type": "unocc",
				"energy": 0.05285,
				"method": "rhf"
			}
		],
		"cosmo_sigma_profile": { 
			"-0.025": 0.0,
			"-0.024": 0.0,
			"-0.023": 0.0,
			"-0.022": 0.0,
			"-0.021": 0.0914272048758,
			"-0.02": 1.04153202679,
			"-0.019": 1.59698557127,
			"-0.018": 3.82557305936,
			"-0.017": 3.5493693921,
			"-0.016": 3.39251072321,
			"-0.015": 4.59254035838,
			"-0.014": 5.01642950391,
			"-0.013": 4.3525623971,
			"-0.012": 4.20976461539,
			"-0.011": 4.22663199525,
			"-0.01": 3.85467259163,
			"-0.009": 3.6405020991,
			"-0.008": 3.34763107616,
			"-0.007": 4.28958635839,
			"-0.006": 3.56557840036,
			"-0.005": 4.08675640592,
			"-0.004": 6.52037619625,
			"-0.003": 9.63390623349,
			"-0.002": 10.9220236413,
			"-0.001": 11.5853962449,
			"0.0": 7.14338775493,
			"0.001": 4.82574092869,
			"0.002": 4.85883758626,
			"0.003": 4.72512213221,
			"0.004": 5.15846326673,
			"0.005": 5.28557434872,
			"0.006": 5.3405035766,
			"0.007": 5.50199407612,
			"0.008": 6.28372595512,
			"0.009": 6.39962696451,
			"0.01": 9.17244004424,
			"0.011": 10.3142148582,
			"0.012": 6.76729491208,
			"0.013": 5.13046891877,
			"0.014": 5.82591992393,
			"0.015": 3.00695626792,
			"0.016": 2.68423282323,
			"0.017": 0.21178478862,
			"0.018": 0.0,
			"0.019": 0.0,
			"0.02": 0.0,
			"0.021": 0.0,
			"0.022": 0.0,
			"0.023": 0.0,
			"0.024": 0.0,
			"0.025": 0.0
		}
	}
}
