{
	 "smiles": "COC1=CC(=N/O)C2(C)CCC1C2(C)C", 
	 "Tm": 458.15, 
	 "num_atms": 34, 
	 "gaussian": { 
		 "optdone": 1, 
		 "sigma_profile": "yes", 
		 "theory": "DFT", 
		 "functional": "B3LYP", 
		 "basiset": "6-31G**", 
		 "properties": { 
			 "R2extent": 3349.4032, 
			 "electric_dipole_moment_norm": 3.10134980452, 
			 "electric_quadrupole_moment_norm": 12.2268141799, 
			 "total_energy": -673.852578626, 
			 "HOMO_LUMO_gap": 0.18312, 
			 "cosmo_polarized_energy": -11.6, 
			 "cosmo_cavitation_energy": 32.66, 
			 "cosmo_dispersion_energy": -23.17, 
			 "cosmo_repulsion_energy": 1.79, 
			 "cosmo_total_nonelectrostatic_energy": 11.29, 
			 "SMD_solvation_energy": 6.27 
		},
		"coords": [
			{
				"x": -4.1834315291,
				"y": 0.4018299966,
				"z": -1.5601805748,
				"element": "C" 
			},
			{
				"x": -2.9898452442,
				"y": 0.1229404879,
				"z": -2.2803192837,
				"element": "O" 
			},
			{
				"x": -1.7892046462,
				"y": 0.0637221411,
				"z": -1.6379564076,
				"element": "C" 
			},
			{
				"x": -0.6759501009,
				"y": -0.0507960463,
				"z": -2.395824081,
				"element": "C" 
			},
			{
				"x": 0.6257265681,
				"y": -0.1666187124,
				"z": -1.7592588542,
				"element": "C" 
			},
			{
				"x": 1.7572175919,
				"y": -0.2098072596,
				"z": -2.3802363691,
				"element": "N" 
			},
			{
				"x": 1.5887386818,
				"y": -0.1370332197,
				"z": -3.7847569687,
				"element": "O" 
			},
			{
				"x": 0.6682819363,
				"y": -0.2951317807,
				"z": -0.2303653972,
				"element": "C" 
			},
			{
				"x": 2.0894418172,
				"y": -0.1318013497,
				"z": 0.3155071276,
				"element": "C" 
			},
			{
				"x": 0.0519610112,
				"y": -1.6897860161,
				"z": 0.1442480944,
				"element": "C" 
			},
			{
				"x": -1.4818374123,
				"y": -1.4781250417,
				"z": 0.2804868873,
				"element": "C" 
			},
			{
				"x": -1.6972313705,
				"y": 0.0107213984,
				"z": -0.1282560933,
				"element": "C" 
			},
			{
				"x": -0.3907941019,
				"y": 0.7083218205,
				"z": 0.364362241,
				"element": "C" 
			},
			{
				"x": -0.2342944934,
				"y": 2.1630060132,
				"z": -0.1113604734,
				"element": "C" 
			},
			{
				"x": -0.3666846809,
				"y": 0.7325522656,
				"z": 1.9083918099,
				"element": "C" 
			},
			{
				"x": -4.9795763932,
				"y": 0.40687108,
				"z": -2.3066938572,
				"element": "H" 
			},
			{
				"x": -4.406754127,
				"y": -0.3667196691,
				"z": -0.8108126628,
				"element": "H" 
			},
			{
				"x": -4.1506055241,
				"y": 1.3836119756,
				"z": -1.0721574083,
				"element": "H" 
			},
			{
				"x": -0.7407335811,
				"y": -0.0441591751,
				"z": -3.4758172793,
				"element": "H" 
			},
			{
				"x": 2.5031065979,
				"y": -0.1832184487,
				"z": -4.0905230451,
				"element": "H" 
			},
			{
				"x": 2.4999668121,
				"y": 0.8543521133,
				"z": 0.0803213872,
				"element": "H" 
			},
			{
				"x": 2.1046007748,
				"y": -0.2683346371,
				"z": 1.400627658,
				"element": "H" 
			},
			{
				"x": 2.7580263303,
				"y": -0.8693082673,
				"z": -0.133704056,
				"element": "H" 
			},
			{
				"x": 0.3044925894,
				"y": -2.4381379363,
				"z": -0.6110532486,
				"element": "H" 
			},
			{
				"x": 0.4788961535,
				"y": -2.0397597557,
				"z": 1.089519641,
				"element": "H" 
			},
			{
				"x": -2.0567329322,
				"y": -2.1562955392,
				"z": -0.355937863,
				"element": "H" 
			},
			{
				"x": -1.817612317,
				"y": -1.6427479373,
				"z": 1.3092493933,
				"element": "H" 
			},
			{
				"x": -2.5810283395,
				"y": 0.4464765891,
				"z": 0.3446219184,
				"element": "H" 
			},
			{
				"x": -0.287510261,
				"y": 2.2645960421,
				"z": -1.1956665148,
				"element": "H" 
			},
			{
				"x": 0.7274029373,
				"y": 2.5693791954,
				"z": 0.2189414984,
				"element": "H" 
			},
			{
				"x": -1.0181974023,
				"y": 2.7919081969,
				"z": 0.3274246588,
				"element": "H" 
			},
			{
				"x": -0.3639737567,
				"y": -0.2612354737,
				"z": 2.3622740261,
				"element": "H" 
			},
			{
				"x": 0.5171584759,
				"y": 1.2631018975,
				"z": 2.2741055928,
				"element": "H" 
			},
			{
				"x": -1.2455200645,
				"y": 1.2678250526,
				"z": 2.286598504,
				"element": "H" 
			}
		],
		 "valence_orbital": [ 
			{
				"type": "occ",
				"energy": -0.30164,
				"method": "rhf"
			},
			{
				"type": "occ",
				"energy": -0.2978,
				"method": "rhf"
			},
			{
				"type": "occ",
				"energy": -0.25753,
				"method": "rhf"
			},
			{
				"type": "occ",
				"energy": -0.25048,
				"method": "rhf"
			},
			{
				"type": "occ",
				"energy": -0.19313,
				"method": "rhf"
			},
			{
				"type": "unocc",
				"energy": -0.01001,
				"method": "rhf"
			},
			{
				"type": "unocc",
				"energy": 0.0709,
				"method": "rhf"
			},
			{
				"type": "unocc",
				"energy": 0.08054,
				"method": "rhf"
			},
			{
				"type": "unocc",
				"energy": 0.09444,
				"method": "rhf"
			},
			{
				"type": "unocc",
				"energy": 0.0961,
				"method": "rhf"
			}
		],
		"cosmo_sigma_profile": { 
			"-0.025": 0.0,
			"-0.024": 0.0,
			"-0.023": 0.0,
			"-0.022": 0.0,
			"-0.021": 0.0,
			"-0.02": 0.0,
			"-0.019": 0.0,
			"-0.018": 0.0,
			"-0.017": 0.100922558627,
			"-0.016": 0.666970871755,
			"-0.015": 0.850041705111,
			"-0.014": 1.3513688371,
			"-0.013": 0.648752197369,
			"-0.012": 0.192707842578,
			"-0.011": 0.531448702075,
			"-0.01": 0.818616659898,
			"-0.009": 0.653431132243,
			"-0.008": 0.580600923541,
			"-0.007": 0.571450987325,
			"-0.006": 5.39795848066,
			"-0.005": 12.6654323143,
			"-0.004": 16.5991189144,
			"-0.003": 30.3262142317,
			"-0.002": 33.2876826373,
			"-0.001": 26.6944537293,
			"0.0": 27.3976337204,
			"0.001": 25.9697221357,
			"0.002": 12.9035338601,
			"0.003": 6.57810538358,
			"0.004": 6.64576983253,
			"0.005": 7.14931161995,
			"0.006": 5.68297864512,
			"0.007": 4.63335685449,
			"0.008": 6.38849680722,
			"0.009": 6.95160115612,
			"0.01": 4.63695357129,
			"0.011": 2.83182910243,
			"0.012": 2.04662426578,
			"0.013": 0.866491861531,
			"0.014": 0.126522955517,
			"0.015": 0.0,
			"0.016": 0.0,
			"0.017": 0.0,
			"0.018": 0.0,
			"0.019": 0.0,
			"0.02": 0.0,
			"0.021": 0.0,
			"0.022": 0.0,
			"0.023": 0.0,
			"0.024": 0.0,
			"0.025": 0.0
		}
	}
}
