{
	 "smiles": "NC1=CC2=C(OCOC2)C=C1", 
	 "Tm": 342.15, 
	 "num_atms": 20, 
	 "gaussian": { 
		 "optdone": 1, 
		 "sigma_profile": "yes", 
		 "theory": "DFT", 
		 "functional": "B3LYP", 
		 "basiset": "6-31G**", 
		 "properties": { 
			 "R2extent": 2601.5944, 
			 "electric_dipole_moment_norm": 3.10970364665, 
			 "electric_quadrupole_moment_norm": 9.85246674037, 
			 "total_energy": -515.45410651, 
			 "HOMO_LUMO_gap": 0.18539, 
			 "cosmo_polarized_energy": -11.46, 
			 "cosmo_cavitation_energy": 22.94, 
			 "cosmo_dispersion_energy": -17.77, 
			 "cosmo_repulsion_energy": 1.42, 
			 "cosmo_total_nonelectrostatic_energy": 6.59, 
			 "SMD_solvation_energy": 4.1 
		},
		"coords": [
			{
				"x": -2.6890567163,
				"y": -1.2602636554,
				"z": -0.0357724063,
				"element": "N" 
			},
			{
				"x": -1.3485156932,
				"y": -1.0283071384,
				"z": 0.3098050412,
				"element": "C" 
			},
			{
				"x": -0.4453785787,
				"y": -2.0911426659,
				"z": 0.4445435895,
				"element": "C" 
			},
			{
				"x": 0.874006308,
				"y": -1.8773363493,
				"z": 0.8517472129,
				"element": "C" 
			},
			{
				"x": 1.3057865027,
				"y": -0.5727087739,
				"z": 1.117357994,
				"element": "C" 
			},
			{
				"x": 2.6010934838,
				"y": -0.3084201805,
				"z": 1.5084972732,
				"element": "O" 
			},
			{
				"x": 3.4890482616,
				"y": -1.3769589944,
				"z": 1.2239510424,
				"element": "C" 
			},
			{
				"x": 3.027474391,
				"y": -2.6013650561,
				"z": 1.7164003372,
				"element": "O" 
			},
			{
				"x": 1.8495375326,
				"y": -3.021180925,
				"z": 1.0282827085,
				"element": "C" 
			},
			{
				"x": 0.416136583,
				"y": 0.4967439103,
				"z": 0.9977985776,
				"element": "C" 
			},
			{
				"x": -0.8969939839,
				"y": 0.2717659973,
				"z": 0.6011510239,
				"element": "C" 
			},
			{
				"x": -2.8400440594,
				"y": -2.0996931426,
				"z": -0.5795324681,
				"element": "H" 
			},
			{
				"x": -3.1500948552,
				"y": -0.4675191413,
				"z": -0.4626418406,
				"element": "H" 
			},
			{
				"x": -0.7827556529,
				"y": -3.1069887424,
				"z": 0.2449216287,
				"element": "H" 
			},
			{
				"x": 4.4247273076,
				"y": -1.1465878701,
				"z": 1.7347718532,
				"element": "H" 
			},
			{
				"x": 3.644796435,
				"y": -1.4309545878,
				"z": 0.1319839471,
				"element": "H" 
			},
			{
				"x": 2.1192455987,
				"y": -3.4609492025,
				"z": 0.0528903989,
				"element": "H" 
			},
			{
				"x": 1.4126685146,
				"y": -3.8170930046,
				"z": 1.6393460754,
				"element": "H" 
			},
			{
				"x": 0.7705587128,
				"y": 1.4991600256,
				"z": 1.2154085315,
				"element": "H" 
			},
			{
				"x": -1.584140092,
				"y": 1.1097994971,
				"z": 0.5153894799,
				"element": "H" 
			}
		],
		 "valence_orbital": [ 
			{
				"type": "occ",
				"energy": -0.31313,
				"method": "rhf"
			},
			{
				"type": "occ",
				"energy": -0.27897,
				"method": "rhf"
			},
			{
				"type": "occ",
				"energy": -0.26875,
				"method": "rhf"
			},
			{
				"type": "occ",
				"energy": -0.24178,
				"method": "rhf"
			},
			{
				"type": "occ",
				"energy": -0.18801,
				"method": "rhf"
			},
			{
				"type": "unocc",
				"energy": -0.00262,
				"method": "rhf"
			},
			{
				"type": "unocc",
				"energy": 0.02703,
				"method": "rhf"
			},
			{
				"type": "unocc",
				"energy": 0.08096,
				"method": "rhf"
			},
			{
				"type": "unocc",
				"energy": 0.10384,
				"method": "rhf"
			},
			{
				"type": "unocc",
				"energy": 0.11275,
				"method": "rhf"
			}
		],
		"cosmo_sigma_profile": { 
			"-0.025": 0.0,
			"-0.024": 0.0,
			"-0.023": 0.0,
			"-0.022": 0.0,
			"-0.021": 0.0,
			"-0.02": 0.0,
			"-0.019": 0.0,
			"-0.018": 0.0,
			"-0.017": 0.0,
			"-0.016": 0.0,
			"-0.015": 0.0,
			"-0.014": 0.0,
			"-0.013": 0.0087644212512,
			"-0.012": 1.87973426191,
			"-0.011": 2.66039594249,
			"-0.01": 2.5004764746,
			"-0.009": 4.18391330881,
			"-0.008": 2.73067839382,
			"-0.007": 5.12484980955,
			"-0.006": 11.9315384226,
			"-0.005": 18.8600774507,
			"-0.004": 15.9723687,
			"-0.003": 11.5560477464,
			"-0.002": 8.39771399833,
			"-0.001": 8.06610301912,
			"0.0": 6.81618182263,
			"0.001": 5.99734269267,
			"0.002": 7.23973255536,
			"0.003": 8.37901014636,
			"0.004": 9.86492488701,
			"0.005": 10.7126680549,
			"0.006": 13.0908086045,
			"0.007": 6.4654984759,
			"0.008": 4.00965063094,
			"0.009": 3.20737229954,
			"0.01": 3.56956146635,
			"0.011": 3.87827505589,
			"0.012": 2.17650195129,
			"0.013": 0.69603803288,
			"0.014": 0.740614585484,
			"0.015": 0.453435736616,
			"0.016": 0.2304148612,
			"0.017": 0.0,
			"0.018": 0.0,
			"0.019": 0.0,
			"0.02": 0.0,
			"0.021": 0.0,
			"0.022": 0.0,
			"0.023": 0.0,
			"0.024": 0.0,
			"0.025": 0.0
		}
	}
}
