{
	 "smiles": "BrCC1CN(C(=O)O1)C1=CC=CC=C1", 
	 "Tm": 376.15, 
	 "num_atms": 24, 
	 "gaussian": { 
		 "optdone": 1, 
		 "sigma_profile": "yes", 
		 "theory": "DFT", 
		 "functional": "B3LYP", 
		 "basiset": "6-31G**", 
		 "properties": { 
			 "R2extent": 4596.2025, 
			 "electric_dipole_moment_norm": 4.96617036055, 
			 "electric_quadrupole_moment_norm": 15.2336231715, 
			 "total_energy": -3163.71255985, 
			 "HOMO_LUMO_gap": 0.20916, 
			 "cosmo_polarized_energy": -15.66, 
			 "cosmo_cavitation_energy": 29.64, 
			 "cosmo_dispersion_energy": -22.13, 
			 "cosmo_repulsion_energy": 1.74, 
			 "cosmo_total_nonelectrostatic_energy": 9.24, 
			 "SMD_solvation_energy": 4.39 
		},
		"coords": [
			{
				"x": -0.0557391419,
				"y": -2.3111862365,
				"z": -2.6423679161,
				"element": "Br" 
			},
			{
				"x": -0.4669742665,
				"y": -0.4234034813,
				"z": -3.0342968798,
				"element": "C" 
			},
			{
				"x": -0.8249296238,
				"y": 0.3870944435,
				"z": -1.8005085831,
				"element": "C" 
			},
			{
				"x": 0.2077645261,
				"y": 0.3865879567,
				"z": -0.655692228,
				"element": "C" 
			},
			{
				"x": -0.6338534788,
				"y": 0.1691409008,
				"z": 0.5120740825,
				"element": "N" 
			},
			{
				"x": -1.9251754246,
				"y": -0.1785871375,
				"z": 0.1474017836,
				"element": "C" 
			},
			{
				"x": -2.8564761047,
				"y": -0.4953099492,
				"z": 0.845883474,
				"element": "O" 
			},
			{
				"x": -2.034503909,
				"y": -0.1014490004,
				"z": -1.2181712463,
				"element": "O" 
			},
			{
				"x": -0.110385398,
				"y": 0.1651177419,
				"z": 1.8283361694,
				"element": "C" 
			},
			{
				"x": -0.9369884718,
				"y": 0.0086754016,
				"z": 2.9553070414,
				"element": "C" 
			},
			{
				"x": -0.3753059488,
				"y": 0.0278836965,
				"z": 4.2296656856,
				"element": "C" 
			},
			{
				"x": 0.9975214173,
				"y": 0.2032756462,
				"z": 4.4150129193,
				"element": "C" 
			},
			{
				"x": 1.8142943451,
				"y": 0.3592626364,
				"z": 3.2971037315,
				"element": "C" 
			},
			{
				"x": 1.27114321,
				"y": 0.3411227047,
				"z": 2.0122821366,
				"element": "C" 
			},
			{
				"x": 0.4152616531,
				"y": -0.0103858799,
				"z": -3.5251023722,
				"element": "H" 
			},
			{
				"x": -1.3032498901,
				"y": -0.4409178798,
				"z": -3.7317781366,
				"element": "H" 
			},
			{
				"x": -1.0124694417,
				"y": 1.4137576629,
				"z": -2.1478125528,
				"element": "H" 
			},
			{
				"x": 0.740299487,
				"y": 1.3409503985,
				"z": -0.5914831442,
				"element": "H" 
			},
			{
				"x": 0.941056668,
				"y": -0.420525707,
				"z": -0.7717742604,
				"element": "H" 
			},
			{
				"x": -1.9995366626,
				"y": -0.1342865412,
				"z": 2.8217685129,
				"element": "H" 
			},
			{
				"x": -1.0277509261,
				"y": -0.0960006607,
				"z": 5.0893787622,
				"element": "H" 
			},
			{
				"x": 1.4222076864,
				"y": 0.2170836556,
				"z": 5.4140009003,
				"element": "H" 
			},
			{
				"x": 2.8855169332,
				"y": 0.4949637796,
				"z": 3.4154641929,
				"element": "H" 
			},
			{
				"x": 1.9326727622,
				"y": 0.4586358486,
				"z": 1.1619079273,
				"element": "H" 
			}
		],
		 "valence_orbital": [ 
			{
				"type": "occ",
				"energy": -0.29009,
				"method": "rhf"
			},
			{
				"type": "occ",
				"energy": -0.28596,
				"method": "rhf"
			},
			{
				"type": "occ",
				"energy": -0.28013,
				"method": "rhf"
			},
			{
				"type": "occ",
				"energy": -0.2521,
				"method": "rhf"
			},
			{
				"type": "occ",
				"energy": -0.22173,
				"method": "rhf"
			},
			{
				"type": "unocc",
				"energy": -0.01257,
				"method": "rhf"
			},
			{
				"type": "unocc",
				"energy": -0.00565,
				"method": "rhf"
			},
			{
				"type": "unocc",
				"energy": -0.00277,
				"method": "rhf"
			},
			{
				"type": "unocc",
				"energy": 0.05083,
				"method": "rhf"
			},
			{
				"type": "unocc",
				"energy": 0.06963,
				"method": "rhf"
			}
		],
		"cosmo_sigma_profile": { 
			"-0.025": 0.0,
			"-0.024": 0.0,
			"-0.023": 0.0,
			"-0.022": 0.0,
			"-0.021": 0.0,
			"-0.02": 0.0,
			"-0.019": 0.0,
			"-0.018": 0.0,
			"-0.017": 0.0,
			"-0.016": 0.0,
			"-0.015": 0.0,
			"-0.014": 0.0,
			"-0.013": 0.0,
			"-0.012": 0.0,
			"-0.011": 0.0,
			"-0.01": 0.36565002797,
			"-0.009": 6.58821879124,
			"-0.008": 13.1410694626,
			"-0.007": 12.2218926558,
			"-0.006": 14.0751708129,
			"-0.005": 14.7932981308,
			"-0.004": 12.4998971851,
			"-0.003": 14.2179754569,
			"-0.002": 11.8551274029,
			"-0.001": 14.3660380828,
			"0.0": 13.2337746135,
			"0.001": 13.2128849393,
			"0.002": 13.0762747313,
			"0.003": 15.3822679444,
			"0.004": 16.9146110627,
			"0.005": 19.9274152547,
			"0.006": 12.5249406664,
			"0.007": 2.74298291491,
			"0.008": 3.21126472734,
			"0.009": 3.88418308009,
			"0.01": 2.71591742032,
			"0.011": 3.83882772632,
			"0.012": 3.53340244143,
			"0.013": 1.45617710436,
			"0.014": 0.0,
			"0.015": 0.0,
			"0.016": 0.0,
			"0.017": 0.0,
			"0.018": 0.0,
			"0.019": 0.0,
			"0.02": 0.0,
			"0.021": 0.0,
			"0.022": 0.0,
			"0.023": 0.0,
			"0.024": 0.0,
			"0.025": 0.0
		}
	}
}
