{
	 "smiles": "ClC1=CC(=CC=C1)C(=O)N1CCNCC1", 
	 "Tm": 370.15, 
	 "num_atms": 28, 
	 "gaussian": { 
		 "optdone": 1, 
		 "sigma_profile": "yes", 
		 "theory": "DFT", 
		 "functional": "B3LYP", 
		 "basiset": "6-31G**", 
		 "properties": { 
			 "R2extent": 4683.5105, 
			 "electric_dipole_moment_norm": 2.58615680499, 
			 "electric_quadrupole_moment_norm": 14.4504477315, 
			 "total_energy": -1071.92128918, 
			 "HOMO_LUMO_gap": 0.18653, 
			 "cosmo_polarized_energy": -13.01, 
			 "cosmo_cavitation_energy": 32.08, 
			 "cosmo_dispersion_energy": -23.46, 
			 "cosmo_repulsion_energy": 1.85, 
			 "cosmo_total_nonelectrostatic_energy": 10.47, 
			 "SMD_solvation_energy": 2.1 
		},
		"coords": [
			{
				"x": -3.1846501433,
				"y": -2.5695829912,
				"z": 0.5482265758,
				"element": "Cl" 
			},
			{
				"x": -1.4671285332,
				"y": -2.7444754405,
				"z": 0.2072811411,
				"element": "C" 
			},
			{
				"x": -0.7053340586,
				"y": -1.604035217,
				"z": -0.0420476873,
				"element": "C" 
			},
			{
				"x": 0.660124382,
				"y": -1.7381342933,
				"z": -0.3251984604,
				"element": "C" 
			},
			{
				"x": 1.2332530437,
				"y": -3.0159021344,
				"z": -0.3750201258,
				"element": "C" 
			},
			{
				"x": 0.4602845006,
				"y": -4.1426052625,
				"z": -0.1059737711,
				"element": "C" 
			},
			{
				"x": -0.8994508851,
				"y": -4.0172200368,
				"z": 0.1885176513,
				"element": "C" 
			},
			{
				"x": 1.5329459769,
				"y": -0.5682502006,
				"z": -0.704621516,
				"element": "C" 
			},
			{
				"x": 2.3420668933,
				"y": -0.6864402538,
				"z": -1.6243265251,
				"element": "O" 
			},
			{
				"x": 1.3850210921,
				"y": 0.622298995,
				"z": -0.0376301718,
				"element": "N" 
			},
			{
				"x": 2.2034243844,
				"y": 1.7447789499,
				"z": -0.527923809,
				"element": "C" 
			},
			{
				"x": 1.7678361275,
				"y": 3.0323715824,
				"z": 0.1742173846,
				"element": "C" 
			},
			{
				"x": 1.8631682751,
				"y": 2.9740052142,
				"z": 1.6411829803,
				"element": "N" 
			},
			{
				"x": 1.6985606543,
				"y": 1.6203085601,
				"z": 2.1905204645,
				"element": "C" 
			},
			{
				"x": 0.7807512383,
				"y": 0.7882873398,
				"z": 1.2932755335,
				"element": "C" 
			},
			{
				"x": -1.1808286677,
				"y": -0.6301279265,
				"z": -0.038510656,
				"element": "H" 
			},
			{
				"x": 2.2812322834,
				"y": -3.105805199,
				"z": -0.6387606015,
				"element": "H" 
			},
			{
				"x": 0.9110919297,
				"y": -5.1301190606,
				"z": -0.1330847716,
				"element": "H" 
			},
			{
				"x": -1.5117657171,
				"y": -4.8889182227,
				"z": 0.3909559262,
				"element": "H" 
			},
			{
				"x": 3.268825879,
				"y": 1.5424002824,
				"z": -0.350177664,
				"element": "H" 
			},
			{
				"x": 2.0766140777,
				"y": 1.8198709276,
				"z": -1.6116210831,
				"element": "H" 
			},
			{
				"x": 2.3759864805,
				"y": 3.8666747418,
				"z": -0.1876650026,
				"element": "H" 
			},
			{
				"x": 0.7321238216,
				"y": 3.2576425569,
				"z": -0.1147346178,
				"element": "H" 
			},
			{
				"x": 2.7506398932,
				"y": 3.3578793612,
				"z": 1.9464480307,
				"element": "H" 
			},
			{
				"x": 1.2524275028,
				"y": 1.6802935441,
				"z": 3.1916051509,
				"element": "H" 
			},
			{
				"x": 2.652768854,
				"y": 1.0773518042,
				"z": 2.2945435808,
				"element": "H" 
			},
			{
				"x": 0.6229311784,
				"y": -0.1920609516,
				"z": 1.7433263129,
				"element": "H" 
			},
			{
				"x": -0.1982204634,
				"y": 1.281713331,
				"z": 1.2218957306,
				"element": "H" 
			}
		],
		 "valence_orbital": [ 
			{
				"type": "occ",
				"energy": -0.27038,
				"method": "rhf"
			},
			{
				"type": "occ",
				"energy": -0.25755,
				"method": "rhf"
			},
			{
				"type": "occ",
				"energy": -0.24514,
				"method": "rhf"
			},
			{
				"type": "occ",
				"energy": -0.23865,
				"method": "rhf"
			},
			{
				"type": "occ",
				"energy": -0.22491,
				"method": "rhf"
			},
			{
				"type": "unocc",
				"energy": -0.03838,
				"method": "rhf"
			},
			{
				"type": "unocc",
				"energy": -0.01812,
				"method": "rhf"
			},
			{
				"type": "unocc",
				"energy": 0.02488,
				"method": "rhf"
			},
			{
				"type": "unocc",
				"energy": 0.04621,
				"method": "rhf"
			},
			{
				"type": "unocc",
				"energy": 0.06762,
				"method": "rhf"
			}
		],
		"cosmo_sigma_profile": { 
			"-0.025": 0.0,
			"-0.024": 0.0,
			"-0.023": 0.0,
			"-0.022": 0.0,
			"-0.021": 0.0,
			"-0.02": 0.0,
			"-0.019": 0.0,
			"-0.018": 0.0,
			"-0.017": 0.0,
			"-0.016": 0.0,
			"-0.015": 0.0,
			"-0.014": 0.0,
			"-0.013": 0.0,
			"-0.012": 0.0,
			"-0.011": 0.136472360994,
			"-0.01": 1.3276278226,
			"-0.009": 1.32434338965,
			"-0.008": 2.61337057651,
			"-0.007": 6.82226452009,
			"-0.006": 10.3817978484,
			"-0.005": 17.5678053662,
			"-0.004": 25.4944634782,
			"-0.003": 31.5381988464,
			"-0.002": 23.6669239666,
			"-0.001": 17.1914072251,
			"0.0": 15.5240520301,
			"0.001": 17.5818200382,
			"0.002": 17.2105823987,
			"0.003": 18.0531718901,
			"0.004": 13.6251379984,
			"0.005": 8.33516960448,
			"0.006": 2.37114249028,
			"0.007": 2.23992691772,
			"0.008": 2.61240080971,
			"0.009": 1.85155199851,
			"0.01": 1.07164715123,
			"0.011": 2.97617972708,
			"0.012": 2.4002522589,
			"0.013": 4.08450077923,
			"0.014": 4.96428578921,
			"0.015": 1.09421709454,
			"0.016": 0.0806410368096,
			"0.017": 0.736851523396,
			"0.018": 0.562789264665,
			"0.019": 0.0,
			"0.02": 0.0,
			"0.021": 0.0,
			"0.022": 0.0,
			"0.023": 0.0,
			"0.024": 0.0,
			"0.025": 0.0
		}
	}
}
