{
	 "smiles": "ClC1=CC(Cl)=C(C(Cl)=C1)C1=C(Cl)C=CC=C1Cl", 
	 "Tm": 358.15, 
	 "num_atms": 22, 
	 "gaussian": { 
		 "optdone": 1, 
		 "sigma_profile": "yes", 
		 "theory": "DFT", 
		 "functional": "B3LYP", 
		 "basiset": "6-31G**", 
		 "properties": { 
			 "R2extent": 6483.3551, 
			 "electric_dipole_moment_norm": 1.91606132731, 
			 "electric_quadrupole_moment_norm": 11.5019377267, 
			 "total_energy": -2761.24811505, 
			 "HOMO_LUMO_gap": 0.21635, 
			 "cosmo_polarized_energy": -6.12, 
			 "cosmo_cavitation_energy": 35.78, 
			 "cosmo_dispersion_energy": -24.54, 
			 "cosmo_repulsion_energy": 1.92, 
			 "cosmo_total_nonelectrostatic_energy": 13.16, 
			 "SMD_solvation_energy": 4.69 
		},
		"coords": [
			{
				"x": 0.7685759094,
				"y": 3.2771686352,
				"z": -2.4967689249,
				"element": "Cl" 
			},
			{
				"x": 0.1690934524,
				"y": 2.1164079563,
				"z": -1.3310859095,
				"element": "C" 
			},
			{
				"x": -1.202265186,
				"y": 2.0162656629,
				"z": -1.1137494155,
				"element": "C" 
			},
			{
				"x": -1.6608193216,
				"y": 1.0868305292,
				"z": -0.1824206635,
				"element": "C" 
			},
			{
				"x": -3.3897140531,
				"y": 0.9785863225,
				"z": 0.0739597931,
				"element": "Cl" 
			},
			{
				"x": -0.7941650816,
				"y": 0.2511852593,
				"z": 0.5419363498,
				"element": "C" 
			},
			{
				"x": 0.5789037734,
				"y": 0.3961615026,
				"z": 0.2816303517,
				"element": "C" 
			},
			{
				"x": 1.7364070944,
				"y": -0.6021071071,
				"z": 1.1361200346,
				"element": "Cl" 
			},
			{
				"x": 1.0743923424,
				"y": 1.3140909702,
				"z": -0.6421600551,
				"element": "C" 
			},
			{
				"x": -1.3048620012,
				"y": -0.7376922854,
				"z": 1.5348155212,
				"element": "C" 
			},
			{
				"x": -1.6325875183,
				"y": -2.0528304834,
				"z": 1.1633299489,
				"element": "C" 
			},
			{
				"x": -1.44103887,
				"y": -2.5570704569,
				"z": -0.5057408074,
				"element": "Cl" 
			},
			{
				"x": -2.1106752814,
				"y": -2.9854846799,
				"z": 2.0818031264,
				"element": "C" 
			},
			{
				"x": -2.2711831882,
				"y": -2.6085114984,
				"z": 3.4130328819,
				"element": "C" 
			},
			{
				"x": -1.9582582923,
				"y": -1.3150065804,
				"z": 3.8241034051,
				"element": "C" 
			},
			{
				"x": -1.4818742157,
				"y": -0.3997791073,
				"z": 2.8873974047,
				"element": "C" 
			},
			{
				"x": -1.0964660588,
				"y": 1.2213801144,
				"z": 3.435134491,
				"element": "Cl" 
			},
			{
				"x": -1.8999128848,
				"y": 2.643701947,
				"z": -1.6533762366,
				"element": "H" 
			},
			{
				"x": 2.1393284385,
				"y": 1.3978356872,
				"z": -0.8167601667,
				"element": "H" 
			},
			{
				"x": -2.3509144056,
				"y": -3.9888929556,
				"z": 1.7504254681,
				"element": "H" 
			},
			{
				"x": -2.642965283,
				"y": -3.3282324682,
				"z": 4.1356157982,
				"element": "H" 
			},
			{
				"x": -2.0789993689,
				"y": -1.0104069642,
				"z": 4.8570576045,
				"element": "H" 
			}
		],
		 "valence_orbital": [ 
			{
				"type": "occ",
				"energy": -0.31552,
				"method": "rhf"
			},
			{
				"type": "occ",
				"energy": -0.2688,
				"method": "rhf"
			},
			{
				"type": "occ",
				"energy": -0.26338,
				"method": "rhf"
			},
			{
				"type": "occ",
				"energy": -0.26242,
				"method": "rhf"
			},
			{
				"type": "occ",
				"energy": -0.25674,
				"method": "rhf"
			},
			{
				"type": "unocc",
				"energy": -0.04039,
				"method": "rhf"
			},
			{
				"type": "unocc",
				"energy": -0.03824,
				"method": "rhf"
			},
			{
				"type": "unocc",
				"energy": -0.03507,
				"method": "rhf"
			},
			{
				"type": "unocc",
				"energy": -0.02875,
				"method": "rhf"
			},
			{
				"type": "unocc",
				"energy": -0.01798,
				"method": "rhf"
			}
		],
		"cosmo_sigma_profile": { 
			"-0.025": 0.0,
			"-0.024": 0.0,
			"-0.023": 0.0,
			"-0.022": 0.0,
			"-0.021": 0.0,
			"-0.02": 0.0,
			"-0.019": 0.0,
			"-0.018": 0.0,
			"-0.017": 0.0,
			"-0.016": 0.0,
			"-0.015": 0.0,
			"-0.014": 0.0,
			"-0.013": 0.0,
			"-0.012": 0.0,
			"-0.011": 0.0,
			"-0.01": 0.131991555119,
			"-0.009": 2.20883861738,
			"-0.008": 6.92021609477,
			"-0.007": 10.4442813268,
			"-0.006": 8.46215590467,
			"-0.005": 9.08488057775,
			"-0.004": 7.7327216422,
			"-0.003": 15.2831818463,
			"-0.002": 16.8852961525,
			"-0.001": 24.0597077154,
			"0.0": 35.2204254094,
			"0.001": 41.8584444739,
			"0.002": 50.2357445312,
			"0.003": 46.4454121502,
			"0.004": 23.9296147832,
			"0.005": 0.829288108154,
			"0.006": 0.0,
			"0.007": 0.0,
			"0.008": 0.0,
			"0.009": 0.0,
			"0.01": 0.0,
			"0.011": 0.0,
			"0.012": 0.0,
			"0.013": 0.0,
			"0.014": 0.0,
			"0.015": 0.0,
			"0.016": 0.0,
			"0.017": 0.0,
			"0.018": 0.0,
			"0.019": 0.0,
			"0.02": 0.0,
			"0.021": 0.0,
			"0.022": 0.0,
			"0.023": 0.0,
			"0.024": 0.0,
			"0.025": 0.0
		}
	}
}
