{
	 "smiles": "CC1N(CCNC1=O)C(=O)C1=CC=CC=C1", 
	 "Tm": 420.15, 
	 "num_atms": 30, 
	 "gaussian": { 
		 "optdone": 1, 
		 "sigma_profile": "yes", 
		 "theory": "DFT", 
		 "functional": "B3LYP", 
		 "basiset": "6-31G**", 
		 "properties": { 
			 "R2extent": 4168.3524, 
			 "electric_dipole_moment_norm": 6.20367834273, 
			 "electric_quadrupole_moment_norm": 8.34208309057, 
			 "total_energy": -725.687247245, 
			 "HOMO_LUMO_gap": 0.20719, 
			 "cosmo_polarized_energy": -19.55, 
			 "cosmo_cavitation_energy": 32.42, 
			 "cosmo_dispersion_energy": -23.32, 
			 "cosmo_repulsion_energy": 1.82, 
			 "cosmo_total_nonelectrostatic_energy": 10.91, 
			 "SMD_solvation_energy": 5.34 
		},
		"coords": [
			{
				"x": 0.3032973529,
				"y": 0.9845055797,
				"z": -2.8074459177,
				"element": "C" 
			},
			{
				"x": -0.3419931297,
				"y": 1.2824247503,
				"z": -1.4372930049,
				"element": "C" 
			},
			{
				"x": 0.253740964,
				"y": 0.4807846955,
				"z": -0.3407996315,
				"element": "N" 
			},
			{
				"x": 1.1490101053,
				"y": 1.1240838133,
				"z": 0.6228879092,
				"element": "C" 
			},
			{
				"x": 1.8400398958,
				"y": 2.3287346099,
				"z": -0.0097954522,
				"element": "C" 
			},
			{
				"x": 0.8257341466,
				"y": 3.2354622975,
				"z": -0.5201301489,
				"element": "N" 
			},
			{
				"x": -0.2765193946,
				"y": 2.7947221812,
				"z": -1.1970481674,
				"element": "C" 
			},
			{
				"x": -1.1222558259,
				"y": 3.5487466737,
				"z": -1.6552835767,
				"element": "O" 
			},
			{
				"x": -0.0943890351,
				"y": -0.851585983,
				"z": -0.3029956628,
				"element": "C" 
			},
			{
				"x": -0.7717590278,
				"y": -1.3594162195,
				"z": -1.1957419616,
				"element": "O" 
			},
			{
				"x": 0.374442314,
				"y": -1.705615227,
				"z": 0.8480980305,
				"element": "C" 
			},
			{
				"x": 0.1773751492,
				"y": -1.36179659,
				"z": 2.1924378554,
				"element": "C" 
			},
			{
				"x": 0.5391165112,
				"y": -2.2488588962,
				"z": 3.2078169345,
				"element": "C" 
			},
			{
				"x": 1.1117278716,
				"y": -3.4811959786,
				"z": 2.8901204018,
				"element": "C" 
			},
			{
				"x": 1.300367175,
				"y": -3.835264333,
				"z": 1.5514989094,
				"element": "C" 
			},
			{
				"x": 0.9184461169,
				"y": -2.9602651593,
				"z": 0.5369949198,
				"element": "C" 
			},
			{
				"x": -0.1968034156,
				"y": 1.5799733438,
				"z": -3.57621902,
				"element": "H" 
			},
			{
				"x": 1.368815403,
				"y": 1.2365957706,
				"z": -2.8121283872,
				"element": "H" 
			},
			{
				"x": 0.1834808214,
				"y": -0.0736743093,
				"z": -3.0402358834,
				"element": "H" 
			},
			{
				"x": -1.400694063,
				"y": 1.022883853,
				"z": -1.4972665391,
				"element": "H" 
			},
			{
				"x": 1.8941301558,
				"y": 0.402904209,
				"z": 0.965157055,
				"element": "H" 
			},
			{
				"x": 0.5962079316,
				"y": 1.4818879021,
				"z": 1.5025189278,
				"element": "H" 
			},
			{
				"x": 2.5337356947,
				"y": 2.0042874963,
				"z": -0.7984717536,
				"element": "H" 
			},
			{
				"x": 2.4268318126,
				"y": 2.8456285972,
				"z": 0.7543347094,
				"element": "H" 
			},
			{
				"x": 0.934236867,
				"y": 4.237682093,
				"z": -0.4483802972,
				"element": "H" 
			},
			{
				"x": -0.2846248077,
				"y": -0.4139248635,
				"z": 2.4505278417,
				"element": "H" 
			},
			{
				"x": 0.368277262,
				"y": -1.9781631999,
				"z": 4.2457872465,
				"element": "H" 
			},
			{
				"x": 1.3998740845,
				"y": -4.1675106615,
				"z": 3.6811870634,
				"element": "H" 
			},
			{
				"x": 1.7338487731,
				"y": -4.7986168447,
				"z": 1.298981263,
				"element": "H" 
			},
			{
				"x": 1.0257022911,
				"y": -3.2397196007,
				"z": -0.5060136631,
				"element": "H" 
			}
		],
		 "valence_orbital": [ 
			{
				"type": "occ",
				"energy": -0.26261,
				"method": "rhf"
			},
			{
				"type": "occ",
				"energy": -0.25863,
				"method": "rhf"
			},
			{
				"type": "occ",
				"energy": -0.25556,
				"method": "rhf"
			},
			{
				"type": "occ",
				"energy": -0.24312,
				"method": "rhf"
			},
			{
				"type": "occ",
				"energy": -0.23768,
				"method": "rhf"
			},
			{
				"type": "unocc",
				"energy": -0.03049,
				"method": "rhf"
			},
			{
				"type": "unocc",
				"energy": -0.01077,
				"method": "rhf"
			},
			{
				"type": "unocc",
				"energy": 0.02164,
				"method": "rhf"
			},
			{
				"type": "unocc",
				"energy": 0.04059,
				"method": "rhf"
			},
			{
				"type": "unocc",
				"energy": 0.06737,
				"method": "rhf"
			}
		],
		"cosmo_sigma_profile": { 
			"-0.025": 0.0,
			"-0.024": 0.0,
			"-0.023": 0.0,
			"-0.022": 0.0,
			"-0.021": 0.0,
			"-0.02": 0.0,
			"-0.019": 0.0,
			"-0.018": 0.0,
			"-0.017": 0.0,
			"-0.016": 0.0,
			"-0.015": 0.248093294821,
			"-0.014": 1.23724826956,
			"-0.013": 0.986795847984,
			"-0.012": 1.15622731082,
			"-0.011": 1.33304458987,
			"-0.01": 0.887473680156,
			"-0.009": 1.05169606087,
			"-0.008": 1.58396224166,
			"-0.007": 6.6253786538,
			"-0.006": 17.0354613857,
			"-0.005": 24.8453504818,
			"-0.004": 25.0198892863,
			"-0.003": 21.4449415395,
			"-0.002": 20.6661721747,
			"-0.001": 17.1058769616,
			"0.0": 17.8871413386,
			"0.001": 15.8881569145,
			"0.002": 10.2744398511,
			"0.003": 10.573344054,
			"0.004": 12.2995100075,
			"0.005": 10.3134782913,
			"0.006": 2.89433038576,
			"0.007": 2.83504170877,
			"0.008": 2.55794538196,
			"0.009": 3.43323070403,
			"0.01": 2.75189923194,
			"0.011": 2.19204541207,
			"0.012": 3.91616499296,
			"0.013": 7.31061637647,
			"0.014": 8.20824756323,
			"0.015": 1.5151370296,
			"0.016": 0.0,
			"0.017": 0.0,
			"0.018": 0.0,
			"0.019": 0.0,
			"0.02": 0.0,
			"0.021": 0.0,
			"0.022": 0.0,
			"0.023": 0.0,
			"0.024": 0.0,
			"0.025": 0.0
		}
	}
}
