{
	 "smiles": "ClCCC(=O)NC1=CC=C(Br)C=C1", 
	 "Tm": 400.15, 
	 "num_atms": 22, 
	 "gaussian": { 
		 "optdone": 1, 
		 "sigma_profile": "yes", 
		 "theory": "DFT", 
		 "functional": "B3LYP", 
		 "basiset": "6-31G**", 
		 "properties": { 
			 "R2extent": 6970.693, 
			 "electric_dipole_moment_norm": 2.57090101132, 
			 "electric_quadrupole_moment_norm": 22.1365535077, 
			 "total_energy": -3509.97289685, 
			 "HOMO_LUMO_gap": 0.20262, 
			 "cosmo_polarized_energy": -14.26, 
			 "cosmo_cavitation_energy": 30.49, 
			 "cosmo_dispersion_energy": -22.29, 
			 "cosmo_repulsion_energy": 1.8, 
			 "cosmo_total_nonelectrostatic_energy": 10.0, 
			 "SMD_solvation_energy": 4.2 
		},
		"coords": [
			{
				"x": 0.505044882,
				"y": 3.0509712224,
				"z": 1.8885333786,
				"element": "Cl" 
			},
			{
				"x": 1.2593316389,
				"y": 1.8762202411,
				"z": 3.0534095051,
				"element": "C" 
			},
			{
				"x": 1.1302858304,
				"y": 0.4417098463,
				"z": 2.5607868207,
				"element": "C" 
			},
			{
				"x": 2.1090860795,
				"y": 0.161834338,
				"z": 1.4211532526,
				"element": "C" 
			},
			{
				"x": 3.1966170045,
				"y": 0.7168980846,
				"z": 1.3647026246,
				"element": "O" 
			},
			{
				"x": 1.743948263,
				"y": -0.7357676697,
				"z": 0.4370376109,
				"element": "N" 
			},
			{
				"x": 0.5740928767,
				"y": -1.5127854195,
				"z": 0.2681048265,
				"element": "C" 
			},
			{
				"x": 0.0213359246,
				"y": -2.2652331415,
				"z": 1.3136494307,
				"element": "C" 
			},
			{
				"x": -1.121511993,
				"y": -3.0360362552,
				"z": 1.103894633,
				"element": "C" 
			},
			{
				"x": -1.6958192805,
				"y": -3.0842883127,
				"z": -0.1645353394,
				"element": "C" 
			},
			{
				"x": -3.250133474,
				"y": -4.1532275853,
				"z": -0.4573913932,
				"element": "Br" 
			},
			{
				"x": -1.1422814668,
				"y": -2.3668813213,
				"z": -1.2245683359,
				"element": "C" 
			},
			{
				"x": -0.0162589583,
				"y": -1.5785456801,
				"z": -1.0025092095,
				"element": "C" 
			},
			{
				"x": 0.7440884127,
				"y": 2.0169676083,
				"z": 4.0034919378,
				"element": "H" 
			},
			{
				"x": 2.3080713775,
				"y": 2.1566601051,
				"z": 3.1405027785,
				"element": "H" 
			},
			{
				"x": 1.3961188182,
				"y": -0.2211024013,
				"z": 3.3963783694,
				"element": "H" 
			},
			{
				"x": 0.098097067,
				"y": 0.2160663502,
				"z": 2.2853870446,
				"element": "H" 
			},
			{
				"x": 2.4163748286,
				"y": -0.7490365131,
				"z": -0.3208623244,
				"element": "H" 
			},
			{
				"x": 0.4957758732,
				"y": -2.2711206586,
				"z": 2.2885945349,
				"element": "H" 
			},
			{
				"x": -1.5471250404,
				"y": -3.6120951585,
				"z": 1.9175130522,
				"element": "H" 
			},
			{
				"x": -1.593148053,
				"y": -2.412132167,
				"z": -2.2092232153,
				"element": "H" 
			},
			{
				"x": 0.4043093891,
				"y": -0.9976755121,
				"z": -1.8182499824,
				"element": "H" 
			}
		],
		 "valence_orbital": [ 
			{
				"type": "occ",
				"energy": -0.29314,
				"method": "rhf"
			},
			{
				"type": "occ",
				"energy": -0.2882,
				"method": "rhf"
			},
			{
				"type": "occ",
				"energy": -0.27936,
				"method": "rhf"
			},
			{
				"type": "occ",
				"energy": -0.26784,
				"method": "rhf"
			},
			{
				"type": "occ",
				"energy": -0.23659,
				"method": "rhf"
			},
			{
				"type": "unocc",
				"energy": -0.03397,
				"method": "rhf"
			},
			{
				"type": "unocc",
				"energy": -0.03018,
				"method": "rhf"
			},
			{
				"type": "unocc",
				"energy": -0.00214,
				"method": "rhf"
			},
			{
				"type": "unocc",
				"energy": 0.01389,
				"method": "rhf"
			},
			{
				"type": "unocc",
				"energy": 0.02775,
				"method": "rhf"
			}
		],
		"cosmo_sigma_profile": { 
			"-0.025": 0.0,
			"-0.024": 0.0,
			"-0.023": 0.0,
			"-0.022": 0.0,
			"-0.021": 0.0,
			"-0.02": 0.0,
			"-0.019": 0.0,
			"-0.018": 0.0,
			"-0.017": 0.0,
			"-0.016": 0.0,
			"-0.015": 0.262608861973,
			"-0.014": 0.891628318136,
			"-0.013": 1.340386961,
			"-0.012": 1.0818639674,
			"-0.011": 1.28201878781,
			"-0.01": 1.2881500032,
			"-0.009": 2.24844272079,
			"-0.008": 7.05296101214,
			"-0.007": 14.426366561,
			"-0.006": 14.3061884922,
			"-0.005": 14.0478577479,
			"-0.004": 15.5363477952,
			"-0.003": 13.1181110159,
			"-0.002": 11.1712001864,
			"-0.001": 11.1064103358,
			"0.0": 14.2212142619,
			"0.001": 18.9423909519,
			"0.002": 21.1344362899,
			"0.003": 23.0781355565,
			"0.004": 17.4933829039,
			"0.005": 12.9177205465,
			"0.006": 10.7135413313,
			"0.007": 6.52841796244,
			"0.008": 0.985418501816,
			"0.009": 1.71778290471,
			"0.01": 1.04013273974,
			"0.011": 2.17528152676,
			"0.012": 3.00736937157,
			"0.013": 4.70375423697,
			"0.014": 0.647106316288,
			"0.015": 0.0,
			"0.016": 0.0,
			"0.017": 0.0,
			"0.018": 0.0,
			"0.019": 0.0,
			"0.02": 0.0,
			"0.021": 0.0,
			"0.022": 0.0,
			"0.023": 0.0,
			"0.024": 0.0,
			"0.025": 0.0
		}
	}
}
