{
	 "smiles": "NNC(=N)C1=NC=CC(Cl)=C1", 
	 "Tm": 522.15, 
	 "num_atms": 18, 
	 "gaussian": { 
		 "optdone": 1, 
		 "sigma_profile": "yes", 
		 "theory": "DFT", 
		 "functional": "B3LYP", 
		 "basiset": "6-31G**", 
		 "properties": { 
			 "R2extent": 2912.2625, 
			 "electric_dipole_moment_norm": 4.12553417753, 
			 "electric_quadrupole_moment_norm": 12.3260057079, 
			 "total_energy": -912.01776346, 
			 "HOMO_LUMO_gap": 0.17987, 
			 "cosmo_polarized_energy": -12.76, 
			 "cosmo_cavitation_energy": 24.34, 
			 "cosmo_dispersion_energy": -18.49, 
			 "cosmo_repulsion_energy": 1.52, 
			 "cosmo_total_nonelectrostatic_energy": 7.37, 
			 "SMD_solvation_energy": 2.91 
		},
		"coords": [
			{
				"x": 3.5599187005,
				"y": 2.2021001593,
				"z": -1.1535671534,
				"element": "N" 
			},
			{
				"x": 2.3057734613,
				"y": 1.7229956306,
				"z": -0.7558687558,
				"element": "N" 
			},
			{
				"x": 2.2272605221,
				"y": 0.977131495,
				"z": 0.4036162998,
				"element": "C" 
			},
			{
				"x": 3.1345205824,
				"y": 0.8160092924,
				"z": 1.29347048,
				"element": "N" 
			},
			{
				"x": 0.8893842612,
				"y": 0.3257677439,
				"z": 0.5928707396,
				"element": "C" 
			},
			{
				"x": 0.0051291704,
				"y": 0.4327937995,
				"z": -0.4114576395,
				"element": "N" 
			},
			{
				"x": -1.1881790709,
				"y": -0.1517659953,
				"z": -0.2569232417,
				"element": "C" 
			},
			{
				"x": -1.5604754725,
				"y": -0.8617958486,
				"z": 0.8826363562,
				"element": "C" 
			},
			{
				"x": -0.6229358398,
				"y": -0.960719781,
				"z": 1.9122034318,
				"element": "C" 
			},
			{
				"x": -1.0257283748,
				"y": -1.8402226556,
				"z": 3.3720115849,
				"element": "Cl" 
			},
			{
				"x": 0.6239151592,
				"y": -0.3648302498,
				"z": 1.7811632234,
				"element": "C" 
			},
			{
				"x": 3.4854364905,
				"y": 3.1827839117,
				"z": -1.4066263739,
				"element": "H" 
			},
			{
				"x": 3.9126340242,
				"y": 1.6812137038,
				"z": -1.9542353652,
				"element": "H" 
			},
			{
				"x": 1.5597585131,
				"y": 1.5777444428,
				"z": -1.4276229253,
				"element": "H" 
			},
			{
				"x": 3.9769902234,
				"y": 1.31837907,
				"z": 0.9993683335,
				"element": "H" 
			},
			{
				"x": -1.8868221758,
				"y": -0.0508235981,
				"z": -1.0848754196,
				"element": "H" 
			},
			{
				"x": -2.5392021872,
				"y": -1.3193823397,
				"z": 0.9653975319,
				"element": "H" 
			},
			{
				"x": 1.3872220125,
				"y": -0.4135787812,
				"z": 2.5472388931,
				"element": "H" 
			}
		],
		 "valence_orbital": [ 
			{
				"type": "occ",
				"energy": -0.27681,
				"method": "rhf"
			},
			{
				"type": "occ",
				"energy": -0.27129,
				"method": "rhf"
			},
			{
				"type": "occ",
				"energy": -0.26833,
				"method": "rhf"
			},
			{
				"type": "occ",
				"energy": -0.25655,
				"method": "rhf"
			},
			{
				"type": "occ",
				"energy": -0.22738,
				"method": "rhf"
			},
			{
				"type": "unocc",
				"energy": -0.04751,
				"method": "rhf"
			},
			{
				"type": "unocc",
				"energy": -0.03109,
				"method": "rhf"
			},
			{
				"type": "unocc",
				"energy": 0.02351,
				"method": "rhf"
			},
			{
				"type": "unocc",
				"energy": 0.06225,
				"method": "rhf"
			},
			{
				"type": "unocc",
				"energy": 0.07141,
				"method": "rhf"
			}
		],
		"cosmo_sigma_profile": { 
			"-0.025": 0.0,
			"-0.024": 0.0,
			"-0.023": 0.0,
			"-0.022": 0.0,
			"-0.021": 0.0,
			"-0.02": 0.0,
			"-0.019": 0.0,
			"-0.018": 0.0,
			"-0.017": 0.0,
			"-0.016": 0.0,
			"-0.015": 0.0,
			"-0.014": 0.0,
			"-0.013": 0.0224325801121,
			"-0.012": 1.9709572901,
			"-0.011": 3.8515507117,
			"-0.01": 4.82434732569,
			"-0.009": 4.52373607423,
			"-0.008": 6.46298875966,
			"-0.007": 8.30229478087,
			"-0.006": 6.73655656038,
			"-0.005": 6.59734294177,
			"-0.004": 7.08341609751,
			"-0.003": 6.47015491971,
			"-0.002": 8.36034362252,
			"-0.001": 15.2100761797,
			"0.0": 25.1325419003,
			"0.001": 18.4001931824,
			"0.002": 11.0137062679,
			"0.003": 14.9273673871,
			"0.004": 15.5399087376,
			"0.005": 5.04103914867,
			"0.006": 5.01909266641,
			"0.007": 4.54945256029,
			"0.008": 3.63803047499,
			"0.009": 2.16611970477,
			"0.01": 2.78506010887,
			"0.011": 1.65811286972,
			"0.012": 0.982872608739,
			"0.013": 0.777920407117,
			"0.014": 1.6370301232,
			"0.015": 1.36299217069,
			"0.016": 1.19872145387,
			"0.017": 0.250958455394,
			"0.018": 0.0,
			"0.019": 0.0,
			"0.02": 0.0,
			"0.021": 0.0,
			"0.022": 0.0,
			"0.023": 0.0,
			"0.024": 0.0,
			"0.025": 0.0
		}
	}
}
