{
	 "smiles": "ClCC1=CC2=C(OCCCO2)C(Cl)=C1", 
	 "Tm": 334.15, 
	 "num_atms": 24, 
	 "gaussian": { 
		 "optdone": 1, 
		 "sigma_profile": "yes", 
		 "theory": "DFT", 
		 "functional": "B3LYP", 
		 "basiset": "6-31G**", 
		 "properties": { 
			 "R2extent": 4143.0694, 
			 "electric_dipole_moment_norm": 3.82318770007, 
			 "electric_quadrupole_moment_norm": 14.5800939074, 
			 "total_energy": -1457.90409713, 
			 "HOMO_LUMO_gap": 0.1976, 
			 "cosmo_polarized_energy": -9.96, 
			 "cosmo_cavitation_energy": 30.37, 
			 "cosmo_dispersion_energy": -22.64, 
			 "cosmo_repulsion_energy": 1.81, 
			 "cosmo_total_nonelectrostatic_energy": 9.55, 
			 "SMD_solvation_energy": 4.61 
		},
		"coords": [
			{
				"x": 3.4324300612,
				"y": 2.1767466171,
				"z": 1.7185289867,
				"element": "Cl" 
			},
			{
				"x": 2.7608022909,
				"y": 1.7933492888,
				"z": 0.0487443889,
				"element": "C" 
			},
			{
				"x": 1.5411945161,
				"y": 0.9254210455,
				"z": 0.1024343166,
				"element": "C" 
			},
			{
				"x": 0.2708377963,
				"y": 1.4938649848,
				"z": 0.2243530353,
				"element": "C" 
			},
			{
				"x": -0.8728293227,
				"y": 0.6987360462,
				"z": 0.2818818801,
				"element": "C" 
			},
			{
				"x": -0.7650516839,
				"y": -0.7079410675,
				"z": 0.1892257416,
				"element": "C" 
			},
			{
				"x": -1.8336339439,
				"y": -1.5559187607,
				"z": 0.2095916858,
				"element": "O" 
			},
			{
				"x": -3.0248972582,
				"y": -1.1162011193,
				"z": -0.4655893767,
				"element": "C" 
			},
			{
				"x": -3.9114055678,
				"y": -0.2739743475,
				"z": 0.4517620194,
				"element": "C" 
			},
			{
				"x": -3.0654458317,
				"y": 0.730265458,
				"z": 1.2364255262,
				"element": "C" 
			},
			{
				"x": -2.0749096146,
				"y": 1.351744832,
				"z": 0.4008768292,
				"element": "O" 
			},
			{
				"x": 0.5215264579,
				"y": -1.2634573246,
				"z": 0.0908475962,
				"element": "C" 
			},
			{
				"x": 0.6872574873,
				"y": -3.0036420031,
				"z": -0.0141330106,
				"element": "Cl" 
			},
			{
				"x": 1.6618816238,
				"y": -0.4672078444,
				"z": 0.0532013013,
				"element": "C" 
			},
			{
				"x": 2.5518889688,
				"y": 2.7625526494,
				"z": -0.4037735752,
				"element": "H" 
			},
			{
				"x": 3.5802250342,
				"y": 1.3128480103,
				"z": -0.4854848307,
				"element": "H" 
			},
			{
				"x": 0.1415310073,
				"y": 2.5689234146,
				"z": 0.299020704,
				"element": "H" 
			},
			{
				"x": -2.7453630367,
				"y": -0.5510681571,
				"z": -1.3611557719,
				"element": "H" 
			},
			{
				"x": -3.5338679315,
				"y": -2.0299429361,
				"z": -0.7823347339,
				"element": "H" 
			},
			{
				"x": -4.451917248,
				"y": -0.9099953784,
				"z": 1.1622243831,
				"element": "H" 
			},
			{
				"x": -4.6590660809,
				"y": 0.2413648588,
				"z": -0.1624104879,
				"element": "H" 
			},
			{
				"x": -3.6788670422,
				"y": 1.5475787018,
				"z": 1.624713168,
				"element": "H" 
			},
			{
				"x": -2.5712077912,
				"y": 0.2423159048,
				"z": 2.0836693991,
				"element": "H" 
			},
			{
				"x": 2.635887109,
				"y": -0.9377628735,
				"z": -0.0246191743,
				"element": "H" 
			}
		],
		 "valence_orbital": [ 
			{
				"type": "occ",
				"energy": -0.30453,
				"method": "rhf"
			},
			{
				"type": "occ",
				"energy": -0.29226,
				"method": "rhf"
			},
			{
				"type": "occ",
				"energy": -0.29126,
				"method": "rhf"
			},
			{
				"type": "occ",
				"energy": -0.24027,
				"method": "rhf"
			},
			{
				"type": "occ",
				"energy": -0.22705,
				"method": "rhf"
			},
			{
				"type": "unocc",
				"energy": -0.02945,
				"method": "rhf"
			},
			{
				"type": "unocc",
				"energy": -0.01219,
				"method": "rhf"
			},
			{
				"type": "unocc",
				"energy": 0.02594,
				"method": "rhf"
			},
			{
				"type": "unocc",
				"energy": 0.04318,
				"method": "rhf"
			},
			{
				"type": "unocc",
				"energy": 0.07415,
				"method": "rhf"
			}
		],
		"cosmo_sigma_profile": { 
			"-0.025": 0.0,
			"-0.024": 0.0,
			"-0.023": 0.0,
			"-0.022": 0.0,
			"-0.021": 0.0,
			"-0.02": 0.0,
			"-0.019": 0.0,
			"-0.018": 0.0,
			"-0.017": 0.0,
			"-0.016": 0.0,
			"-0.015": 0.0,
			"-0.014": 0.0,
			"-0.013": 0.0,
			"-0.012": 0.0,
			"-0.011": 0.0,
			"-0.01": 0.0,
			"-0.009": 0.0228748386348,
			"-0.008": 5.22370724591,
			"-0.007": 8.58920738054,
			"-0.006": 11.9744634977,
			"-0.005": 21.4841459215,
			"-0.004": 26.8755402633,
			"-0.003": 17.2240338773,
			"-0.002": 13.0435284668,
			"-0.001": 12.1331943088,
			"0.0": 12.1247056813,
			"0.001": 16.309934186,
			"0.002": 20.4698167958,
			"0.003": 17.7908166916,
			"0.004": 15.7965039727,
			"0.005": 14.7890720368,
			"0.006": 12.0765037482,
			"0.007": 10.2797581017,
			"0.008": 2.88446903466,
			"0.009": 2.42022242621,
			"0.01": 2.89788468068,
			"0.011": 0.982223358925,
			"0.012": 0.0,
			"0.013": 0.0,
			"0.014": 0.0,
			"0.015": 0.0,
			"0.016": 0.0,
			"0.017": 0.0,
			"0.018": 0.0,
			"0.019": 0.0,
			"0.02": 0.0,
			"0.021": 0.0,
			"0.022": 0.0,
			"0.023": 0.0,
			"0.024": 0.0,
			"0.025": 0.0
		}
	}
}
