{
	 "smiles": "OC(=O)C1=NSN=C1", 
	 "Tm": 441.15, 
	 "num_atms": 10, 
	 "gaussian": { 
		 "optdone": 1, 
		 "sigma_profile": "yes", 
		 "theory": "DFT", 
		 "functional": "B3LYP", 
		 "basiset": "6-31G**", 
		 "properties": { 
			 "R2extent": 1809.4308, 
			 "electric_dipole_moment_norm": 3.83160162595, 
			 "electric_quadrupole_moment_norm": 6.51099040009, 
			 "total_energy": -773.628197448, 
			 "HOMO_LUMO_gap": 0.19786, 
			 "cosmo_polarized_energy": -16.46, 
			 "cosmo_cavitation_energy": 17.21, 
			 "cosmo_dispersion_energy": -13.54, 
			 "cosmo_repulsion_energy": 1.07, 
			 "cosmo_total_nonelectrostatic_energy": 4.74, 
			 "SMD_solvation_energy": 1.55 
		},
		"coords": [
			{
				"x": -0.1891751428,
				"y": -0.8554413681,
				"z": -0.1565023951,
				"element": "O" 
			},
			{
				"x": 0.2738028874,
				"y": -0.1394777299,
				"z": 0.9036410694,
				"element": "C" 
			},
			{
				"x": 0.4760768978,
				"y": -0.661057516,
				"z": 1.9664249302,
				"element": "O" 
			},
			{
				"x": 0.5366312862,
				"y": 1.3129537427,
				"z": 0.6161208363,
				"element": "C" 
			},
			{
				"x": 0.469114897,
				"y": 2.2038446135,
				"z": 1.5918003074,
				"element": "N" 
			},
			{
				"x": 0.848979734,
				"y": 3.6682137641,
				"z": 0.9362313507,
				"element": "S" 
			},
			{
				"x": 1.123224058,
				"y": 3.1762254202,
				"z": -0.6262232769,
				"element": "N" 
			},
			{
				"x": 0.9142144383,
				"y": 1.8755818441,
				"z": -0.6497223115,
				"element": "C" 
			},
			{
				"x": -0.4568324479,
				"y": -0.2712990469,
				"z": -0.8800437181,
				"element": "H" 
			},
			{
				"x": 1.065263392,
				"y": 1.3281562763,
				"z": -1.5753267925,
				"element": "H" 
			}
		],
		 "valence_orbital": [ 
			{
				"type": "occ",
				"energy": -0.3453,
				"method": "rhf"
			},
			{
				"type": "occ",
				"energy": -0.33381,
				"method": "rhf"
			},
			{
				"type": "occ",
				"energy": -0.32362,
				"method": "rhf"
			},
			{
				"type": "occ",
				"energy": -0.30353,
				"method": "rhf"
			},
			{
				"type": "occ",
				"energy": -0.2895,
				"method": "rhf"
			},
			{
				"type": "unocc",
				"energy": -0.09164,
				"method": "rhf"
			},
			{
				"type": "unocc",
				"energy": -0.03855,
				"method": "rhf"
			},
			{
				"type": "unocc",
				"energy": -0.01663,
				"method": "rhf"
			},
			{
				"type": "unocc",
				"energy": 0.04335,
				"method": "rhf"
			},
			{
				"type": "unocc",
				"energy": 0.0547,
				"method": "rhf"
			}
		],
		"cosmo_sigma_profile": { 
			"-0.025": 0.0,
			"-0.024": 0.0,
			"-0.023": 0.0,
			"-0.022": 0.0,
			"-0.021": 0.0,
			"-0.02": 0.571568686029,
			"-0.019": 1.36654342129,
			"-0.018": 0.894066543464,
			"-0.017": 1.6134050949,
			"-0.016": 1.130822766,
			"-0.015": 0.914829558983,
			"-0.014": 1.42128752732,
			"-0.013": 1.31030796458,
			"-0.012": 1.50676424267,
			"-0.011": 2.3571657745,
			"-0.01": 2.39861165118,
			"-0.009": 1.37278145185,
			"-0.008": 3.02692216716,
			"-0.007": 2.52792784337,
			"-0.006": 4.08322865925,
			"-0.005": 8.65356245239,
			"-0.004": 8.63545227085,
			"-0.003": 9.26027327942,
			"-0.002": 13.7065433388,
			"-0.001": 9.43361440571,
			"0.0": 4.18880789582,
			"0.001": 4.12720774847,
			"0.002": 4.37894858636,
			"0.003": 4.11099754399,
			"0.004": 4.60950443883,
			"0.005": 3.55230749299,
			"0.006": 3.55327648018,
			"0.007": 4.98321796286,
			"0.008": 5.43527603264,
			"0.009": 7.55960281683,
			"0.01": 7.21083201965,
			"0.011": 8.53826665144,
			"0.012": 3.25062683093,
			"0.013": 0.0488349942865,
			"0.014": 0.0,
			"0.015": 0.0,
			"0.016": 0.0,
			"0.017": 0.0,
			"0.018": 0.0,
			"0.019": 0.0,
			"0.02": 0.0,
			"0.021": 0.0,
			"0.022": 0.0,
			"0.023": 0.0,
			"0.024": 0.0,
			"0.025": 0.0
		}
	}
}
