{
	 "smiles": "NS(=O)(=O)C1=CC=C(SC2=CC=CS2)S1", 
	 "Tm": 379.15, 
	 "num_atms": 22, 
	 "gaussian": { 
		 "optdone": 1, 
		 "sigma_profile": "yes", 
		 "theory": "DFT", 
		 "functional": "B3LYP", 
		 "basiset": "6-31G**", 
		 "properties": { 
			 "R2extent": 5978.7467, 
			 "electric_dipole_moment_norm": 2.04903986784, 
			 "electric_quadrupole_moment_norm": 29.0056106323, 
			 "total_energy": -2106.90306375, 
			 "HOMO_LUMO_gap": 0.18214, 
			 "cosmo_polarized_energy": -16.32, 
			 "cosmo_cavitation_energy": 33.69, 
			 "cosmo_dispersion_energy": -25.71, 
			 "cosmo_repulsion_energy": 1.86, 
			 "cosmo_total_nonelectrostatic_energy": 9.84, 
			 "SMD_solvation_energy": 4.61 
		},
		"coords": [
			{
				"x": 1.8626201603,
				"y": -3.7798513583,
				"z": -0.628504606,
				"element": "N" 
			},
			{
				"x": 2.1110710142,
				"y": -2.7105531754,
				"z": 0.6567272482,
				"element": "S" 
			},
			{
				"x": 1.9974026504,
				"y": -3.4218035839,
				"z": 1.9328266083,
				"element": "O" 
			},
			{
				"x": 3.3083640928,
				"y": -1.9505762806,
				"z": 0.2982606536,
				"element": "O" 
			},
			{
				"x": 0.6892799941,
				"y": -1.6573814482,
				"z": 0.5544345059,
				"element": "C" 
			},
			{
				"x": -0.2376296527,
				"y": -1.5185811237,
				"z": 1.5569092803,
				"element": "C" 
			},
			{
				"x": -1.2186666302,
				"y": -0.5372871535,
				"z": 1.2490850695,
				"element": "C" 
			},
			{
				"x": -1.020357943,
				"y": 0.0553452495,
				"z": 0.0232972953,
				"element": "C" 
			},
			{
				"x": -2.0975114581,
				"y": 1.2426963656,
				"z": -0.7429458818,
				"element": "S" 
			},
			{
				"x": -1.12287873,
				"y": 2.7235359374,
				"z": -0.7655731537,
				"element": "C" 
			},
			{
				"x": -0.9913017292,
				"y": 3.6577369322,
				"z": 0.2339861676,
				"element": "C" 
			},
			{
				"x": -0.1686195975,
				"y": 4.7586904366,
				"z": -0.1385253531,
				"element": "C" 
			},
			{
				"x": 0.3092330035,
				"y": 4.6541482377,
				"z": -1.4189039322,
				"element": "C" 
			},
			{
				"x": -0.2348304489,
				"y": 3.2078389846,
				"z": -2.1935464139,
				"element": "S" 
			},
			{
				"x": 0.379863408,
				"y": -0.6021149747,
				"z": -0.7911697452,
				"element": "S" 
			},
			{
				"x": 2.7582829104,
				"y": -3.9606439385,
				"z": -1.0753431425,
				"element": "H" 
			},
			{
				"x": 1.4277888698,
				"y": -4.6400171409,
				"z": -0.3039986869,
				"element": "H" 
			},
			{
				"x": -0.1915433199,
				"y": -2.090248114,
				"z": 2.4754576561,
				"element": "H" 
			},
			{
				"x": -2.0382090546,
				"y": -0.2671857149,
				"z": 1.9041319605,
				"element": "H" 
			},
			{
				"x": -1.470580258,
				"y": 3.5517759308,
				"z": 1.2001262259,
				"element": "H" 
			},
			{
				"x": 0.0554684772,
				"y": 5.5938006515,
				"z": 0.5151560334,
				"element": "H" 
			},
			{
				"x": 0.9457542414,
				"y": 5.3478752806,
				"z": -1.9513877894,
				"element": "H" 
			}
		],
		 "valence_orbital": [ 
			{
				"type": "occ",
				"energy": -0.275,
				"method": "rhf"
			},
			{
				"type": "occ",
				"energy": -0.2701,
				"method": "rhf"
			},
			{
				"type": "occ",
				"energy": -0.26374,
				"method": "rhf"
			},
			{
				"type": "occ",
				"energy": -0.2522,
				"method": "rhf"
			},
			{
				"type": "occ",
				"energy": -0.24154,
				"method": "rhf"
			},
			{
				"type": "unocc",
				"energy": -0.0594,
				"method": "rhf"
			},
			{
				"type": "unocc",
				"energy": -0.0374,
				"method": "rhf"
			},
			{
				"type": "unocc",
				"energy": 0.00358,
				"method": "rhf"
			},
			{
				"type": "unocc",
				"energy": 0.01682,
				"method": "rhf"
			},
			{
				"type": "unocc",
				"energy": 0.02808,
				"method": "rhf"
			}
		],
		"cosmo_sigma_profile": { 
			"-0.025": 0.0,
			"-0.024": 0.0,
			"-0.023": 0.0,
			"-0.022": 0.0,
			"-0.021": 0.0,
			"-0.02": 0.0,
			"-0.019": 0.0,
			"-0.018": 0.0,
			"-0.017": 0.0,
			"-0.016": 0.109934391781,
			"-0.015": 2.20713502275,
			"-0.014": 2.3779935412,
			"-0.013": 3.1885984072,
			"-0.012": 2.22737828122,
			"-0.011": 2.35981782143,
			"-0.01": 1.46938165523,
			"-0.009": 3.74212462989,
			"-0.008": 8.11415966202,
			"-0.007": 10.7851379505,
			"-0.006": 10.1644764507,
			"-0.005": 9.5145417452,
			"-0.004": 10.5911981137,
			"-0.003": 10.3682227652,
			"-0.002": 14.3455910051,
			"-0.001": 20.8022984656,
			"0.0": 25.9163413249,
			"0.001": 28.6738767023,
			"0.002": 28.1803051393,
			"0.003": 24.3367666435,
			"0.004": 14.3607129051,
			"0.005": 6.45722916459,
			"0.006": 4.84700141087,
			"0.007": 4.30174718955,
			"0.008": 4.08951737054,
			"0.009": 3.95246166334,
			"0.01": 10.4049991899,
			"0.011": 8.43965011113,
			"0.012": 0.716226168269,
			"0.013": 0.0,
			"0.014": 0.0,
			"0.015": 0.0,
			"0.016": 0.0,
			"0.017": 0.0,
			"0.018": 0.0,
			"0.019": 0.0,
			"0.02": 0.0,
			"0.021": 0.0,
			"0.022": 0.0,
			"0.023": 0.0,
			"0.024": 0.0,
			"0.025": 0.0
		}
	}
}
