{
	 "smiles": "CC1(C)CC2=C(SC(=C2)C(O)=O)C2=C1C=CC=C2", 
	 "Tm": 483.15, 
	 "num_atms": 32, 
	 "gaussian": { 
		 "optdone": 1, 
		 "sigma_profile": "yes", 
		 "theory": "DFT", 
		 "functional": "B3LYP", 
		 "basiset": "6-31G**", 
		 "properties": { 
			 "R2extent": 5847.852, 
			 "electric_dipole_moment_norm": 6.25854244134, 
			 "electric_quadrupole_moment_norm": 28.6324822687, 
			 "total_energy": -1128.69171881, 
			 "HOMO_LUMO_gap": 0.14937, 
			 "cosmo_polarized_energy": -16.54, 
			 "cosmo_cavitation_energy": 35.47, 
			 "cosmo_dispersion_energy": -25.9, 
			 "cosmo_repulsion_energy": 1.92, 
			 "cosmo_total_nonelectrostatic_energy": 11.49, 
			 "SMD_solvation_energy": 6.48 
		},
		"coords": [
			{
				"x": 0.545314399,
				"y": 2.4452095092,
				"z": 0.653196112,
				"element": "C" 
			},
			{
				"x": 0.8638577662,
				"y": 0.971322188,
				"z": 1.0086960686,
				"element": "C" 
			},
			{
				"x": 1.8925446281,
				"y": 0.9488904277,
				"z": 2.1548690129,
				"element": "C" 
			},
			{
				"x": -0.4233743471,
				"y": 0.2657006807,
				"z": 1.5136937887,
				"element": "C" 
			},
			{
				"x": -1.415354061,
				"y": 0.0315982841,
				"z": 0.4084775775,
				"element": "C" 
			},
			{
				"x": -0.9563039909,
				"y": -0.2344724926,
				"z": -0.8683936902,
				"element": "C" 
			},
			{
				"x": -2.262099031,
				"y": -0.5255048176,
				"z": -1.9787405745,
				"element": "S" 
			},
			{
				"x": -3.4397364209,
				"y": -0.2902836266,
				"z": -0.7140980111,
				"element": "C" 
			},
			{
				"x": -2.8288810577,
				"y": -0.0052191528,
				"z": 0.4909894436,
				"element": "C" 
			},
			{
				"x": -4.8643993003,
				"y": -0.4280846185,
				"z": -1.0696801068,
				"element": "C" 
			},
			{
				"x": -5.7691043932,
				"y": -0.1209304609,
				"z": -0.0999508462,
				"element": "O" 
			},
			{
				"x": -5.2440929407,
				"y": -0.7953219194,
				"z": -2.1594341112,
				"element": "O" 
			},
			{
				"x": 0.4645290705,
				"y": -0.272929164,
				"z": -1.1994638061,
				"element": "C" 
			},
			{
				"x": 1.3822294671,
				"y": 0.2706121483,
				"z": -0.2611993273,
				"element": "C" 
			},
			{
				"x": 2.7442138402,
				"y": 0.2201540672,
				"z": -0.5723244604,
				"element": "C" 
			},
			{
				"x": 3.2042638468,
				"y": -0.3451026803,
				"z": -1.7640114872,
				"element": "C" 
			},
			{
				"x": 2.2967475506,
				"y": -0.875313933,
				"z": -2.6804208071,
				"element": "C" 
			},
			{
				"x": 0.9357329509,
				"y": -0.8405164849,
				"z": -2.3940326688,
				"element": "C" 
			},
			{
				"x": -0.2207996327,
				"y": 2.515708359,
				"z": -0.1238814477,
				"element": "H" 
			},
			{
				"x": 1.4425229795,
				"y": 2.9546505939,
				"z": 0.2887258763,
				"element": "H" 
			},
			{
				"x": 0.1842964157,
				"y": 2.9825549132,
				"z": 1.5381300078,
				"element": "H" 
			},
			{
				"x": 2.7755246887,
				"y": 1.5533962333,
				"z": 1.9283743952,
				"element": "H" 
			},
			{
				"x": 1.443675325,
				"y": 1.3659029563,
				"z": 3.06277093,
				"element": "H" 
			},
			{
				"x": 2.2239994438,
				"y": -0.070350094,
				"z": 2.3782042343,
				"element": "H" 
			},
			{
				"x": -0.8696226647,
				"y": 0.8654005476,
				"z": 2.3156468136,
				"element": "H" 
			},
			{
				"x": -0.1480116542,
				"y": -0.6997952007,
				"z": 1.9638410987,
				"element": "H" 
			},
			{
				"x": -3.3631584627,
				"y": 0.1585710105,
				"z": 1.4232490879,
				"element": "H" 
			},
			{
				"x": -5.3256745691,
				"y": 0.2358947603,
				"z": 0.6814912825,
				"element": "H" 
			},
			{
				"x": 3.4693857039,
				"y": 0.6286853961,
				"z": 0.1230136804,
				"element": "H" 
			},
			{
				"x": 4.2701093893,
				"y": -0.371281121,
				"z": -1.9710836554,
				"element": "H" 
			},
			{
				"x": 2.6453654637,
				"y": -1.3200032411,
				"z": -3.6075727763,
				"element": "H" 
			},
			{
				"x": 0.226699597,
				"y": -1.270843068,
				"z": -3.0960816337,
				"element": "H" 
			}
		],
		 "valence_orbital": [ 
			{
				"type": "occ",
				"energy": -0.28793,
				"method": "rhf"
			},
			{
				"type": "occ",
				"energy": -0.27309,
				"method": "rhf"
			},
			{
				"type": "occ",
				"energy": -0.26207,
				"method": "rhf"
			},
			{
				"type": "occ",
				"energy": -0.25486,
				"method": "rhf"
			},
			{
				"type": "occ",
				"energy": -0.21905,
				"method": "rhf"
			},
			{
				"type": "unocc",
				"energy": -0.06968,
				"method": "rhf"
			},
			{
				"type": "unocc",
				"energy": -0.01347,
				"method": "rhf"
			},
			{
				"type": "unocc",
				"energy": -0.00806,
				"method": "rhf"
			},
			{
				"type": "unocc",
				"energy": 0.02339,
				"method": "rhf"
			},
			{
				"type": "unocc",
				"energy": 0.04751,
				"method": "rhf"
			}
		],
		"cosmo_sigma_profile": { 
			"-0.025": 0.0,
			"-0.024": 0.0,
			"-0.023": 0.0,
			"-0.022": 0.0,
			"-0.021": 0.0,
			"-0.02": 0.0148397901941,
			"-0.019": 0.641126500348,
			"-0.018": 0.732148677264,
			"-0.017": 1.36422243766,
			"-0.016": 0.967951082948,
			"-0.015": 1.04776142342,
			"-0.014": 0.758507752558,
			"-0.013": 0.876754544032,
			"-0.012": 1.14836341316,
			"-0.011": 1.47404297485,
			"-0.01": 1.18972127202,
			"-0.009": 1.5776471629,
			"-0.008": 1.3938180414,
			"-0.007": 2.20659842982,
			"-0.006": 7.6980793243,
			"-0.005": 12.2349896331,
			"-0.004": 20.791368022,
			"-0.003": 27.7917648231,
			"-0.002": 23.994900303,
			"-0.001": 25.6019586203,
			"0.0": 25.5438599285,
			"0.001": 28.116419884,
			"0.002": 24.7561298278,
			"0.003": 17.4477898589,
			"0.004": 12.7023513876,
			"0.005": 10.9638376882,
			"0.006": 4.13851150037,
			"0.007": 3.13399203042,
			"0.008": 2.19832518962,
			"0.009": 3.71915613983,
			"0.01": 4.67142136135,
			"0.011": 4.91313512701,
			"0.012": 5.47005720292,
			"0.013": 1.9106805131,
			"0.014": 0.184310375814,
			"0.015": 0.0,
			"0.016": 0.0,
			"0.017": 0.0,
			"0.018": 0.0,
			"0.019": 0.0,
			"0.02": 0.0,
			"0.021": 0.0,
			"0.022": 0.0,
			"0.023": 0.0,
			"0.024": 0.0,
			"0.025": 0.0
		}
	}
}
