{
	 "smiles": "C1=CC=C(C=C1)C1=C2C=CC=CC2=NC1=C1N=C2C=CC=CC2=C1C1=CC=CC=C1", 
	 "Tm": 500.15, 
	 "num_atms": 48, 
	 "gaussian": { 
		 "optdone": 1, 
		 "sigma_profile": "yes", 
		 "theory": "DFT", 
		 "functional": "B3LYP", 
		 "basiset": "6-31G**", 
		 "properties": { 
			 "R2extent": 13060.5359, 
			 "electric_dipole_moment_norm": 0.00202484567313, 
			 "electric_quadrupole_moment_norm": 18.458763843, 
			 "total_energy": -1187.26803157, 
			 "HOMO_LUMO_gap": 0.05214, 
			 "cosmo_polarized_energy": -14.04, 
			 "cosmo_cavitation_energy": 51.83, 
			 "cosmo_dispersion_energy": -35.55, 
			 "cosmo_repulsion_energy": 2.63, 
			 "cosmo_total_nonelectrostatic_energy": 18.9, 
			 "SMD_solvation_energy": 5.96 
		},
		"coords": [
			{
				"x": -0.4812493965,
				"y": -4.8004285019,
				"z": -1.9862485914,
				"element": "C" 
			},
			{
				"x": 0.4894063912,
				"y": -3.9418790818,
				"z": -2.5053325382,
				"element": "C" 
			},
			{
				"x": 0.8503898023,
				"y": -2.7926157916,
				"z": -1.8049202353,
				"element": "C" 
			},
			{
				"x": 0.2350702013,
				"y": -2.4668341479,
				"z": -0.5788771979,
				"element": "C" 
			},
			{
				"x": -0.7532258627,
				"y": -3.3364548117,
				"z": -0.0769553434,
				"element": "C" 
			},
			{
				"x": -1.0962428364,
				"y": -4.4935277594,
				"z": -0.7688000439,
				"element": "C" 
			},
			{
				"x": 0.7010458542,
				"y": -1.2977553931,
				"z": 0.1717336834,
				"element": "C" 
			},
			{
				"x": 2.0286002143,
				"y": -0.9797884722,
				"z": 0.4067331903,
				"element": "C" 
			},
			{
				"x": 3.2700769601,
				"y": -1.6315803271,
				"z": 0.1104321117,
				"element": "C" 
			},
			{
				"x": 4.4307004448,
				"y": -1.0593258844,
				"z": 0.5507256576,
				"element": "C" 
			},
			{
				"x": 4.4178250033,
				"y": 0.1681666224,
				"z": 1.3063267173,
				"element": "C" 
			},
			{
				"x": 3.2542009267,
				"y": 0.816701539,
				"z": 1.6340895967,
				"element": "C" 
			},
			{
				"x": 2.0231631291,
				"y": 0.255244897,
				"z": 1.1939775558,
				"element": "C" 
			},
			{
				"x": 0.7936088627,
				"y": 0.7194356963,
				"z": 1.4245008569,
				"element": "N" 
			},
			{
				"x": -0.0557176218,
				"y": -0.1653280783,
				"z": 0.8214245905,
				"element": "C" 
			},
			{
				"x": -1.4326403282,
				"y": 0.0580533737,
				"z": 0.7618884718,
				"element": "C" 
			},
			{
				"x": -2.2819800378,
				"y": -0.8265031503,
				"z": 0.1587055838,
				"element": "N" 
			},
			{
				"x": -3.5115706933,
				"y": -0.3624326824,
				"z": 0.3894945599,
				"element": "C" 
			},
			{
				"x": -4.7425927698,
				"y": -0.923843662,
				"z": -0.0506337764,
				"element": "C" 
			},
			{
				"x": -5.906234391,
				"y": -0.2754456751,
				"z": 0.277412209,
				"element": "C" 
			},
			{
				"x": -5.9191099451,
				"y": 0.9518609875,
				"z": 1.0332788193,
				"element": "C" 
			},
			{
				"x": -4.7584636442,
				"y": 1.5240800842,
				"z": 1.4735661777,
				"element": "C" 
			},
			{
				"x": -3.516972867,
				"y": 0.8724129816,
				"z": 1.1770022099,
				"element": "C" 
			},
			{
				"x": -2.1894212475,
				"y": 1.1904464488,
				"z": 1.4119173767,
				"element": "C" 
			},
			{
				"x": -1.7235293053,
				"y": 2.3594555615,
				"z": 2.1626646077,
				"element": "C" 
			},
			{
				"x": -2.3388379313,
				"y": 2.6850053072,
				"z": 3.3887727621,
				"element": "C" 
			},
			{
				"x": -1.9779883716,
				"y": 3.8342536883,
				"z": 4.0892842256,
				"element": "C" 
			},
			{
				"x": -1.0074940265,
				"y": 4.6929999944,
				"z": 3.5702310216,
				"element": "C" 
			},
			{
				"x": -0.3924995502,
				"y": 4.3863181367,
				"z": 2.3527233548,
				"element": "C" 
			},
			{
				"x": -0.7353610594,
				"y": 3.2292594553,
				"z": 1.6607819004,
				"element": "C" 
			},
			{
				"x": -0.7609093814,
				"y": -5.6996810625,
				"z": -2.5277630391,
				"element": "H" 
			},
			{
				"x": 0.9627824319,
				"y": -4.1636861689,
				"z": -3.4575668362,
				"element": "H" 
			},
			{
				"x": 1.5911716749,
				"y": -2.116430245,
				"z": -2.2201164239,
				"element": "H" 
			},
			{
				"x": -1.2399081389,
				"y": -3.098636054,
				"z": 0.8599464165,
				"element": "H" 
			},
			{
				"x": -1.8507372559,
				"y": -5.1588206581,
				"z": -0.358734324,
				"element": "H" 
			},
			{
				"x": 3.2792192833,
				"y": -2.5652740102,
				"z": -0.4425041484,
				"element": "H" 
			},
			{
				"x": 5.3856936318,
				"y": -1.5330987309,
				"z": 0.3452005897,
				"element": "H" 
			},
			{
				"x": 5.3692221622,
				"y": 0.5791451451,
				"z": 1.6337929758,
				"element": "H" 
			},
			{
				"x": 3.2488369343,
				"y": 1.7323888301,
				"z": 2.215898764,
				"element": "H" 
			},
			{
				"x": -4.7372690875,
				"y": -1.8393907833,
				"z": -0.6326608758,
				"element": "H" 
			},
			{
				"x": -6.8576315502,
				"y": -0.6864137711,
				"z": -0.0500686877,
				"element": "H" 
			},
			{
				"x": -6.874107904,
				"y": 1.4255403687,
				"z": 1.2389917511,
				"element": "H" 
			},
			{
				"x": -4.7675781619,
				"y": 2.4576801972,
				"z": 2.0266565433,
				"element": "H" 
			},
			{
				"x": -3.0794731296,
				"y": 2.0086592699,
				"z": 3.8039626231,
				"element": "H" 
			},
			{
				"x": -2.4513263314,
				"y": 4.0558825262,
				"z": 5.0415780909,
				"element": "H" 
			},
			{
				"x": -0.7279492749,
				"y": 5.5922417328,
				"z": 4.1118240591,
				"element": "H" 
			},
			{
				"x": 0.3618696182,
				"y": 5.0517750214,
				"z": 1.9426965042,
				"element": "H" 
			},
			{
				"x": -0.2486614253,
				"y": 2.9915670379,
				"z": 0.7238665033,
				"element": "H" 
			}
		],
		 "valence_orbital": [ 
			{
				"type": "occ",
				"energy": -0.245,
				"method": "rhf"
			},
			{
				"type": "occ",
				"energy": -0.23909,
				"method": "rhf"
			},
			{
				"type": "occ",
				"energy": -0.23111,
				"method": "rhf"
			},
			{
				"type": "occ",
				"energy": -0.2032,
				"method": "rhf"
			},
			{
				"type": "occ",
				"energy": -0.18984,
				"method": "rhf"
			},
			{
				"type": "unocc",
				"energy": -0.1377,
				"method": "rhf"
			},
			{
				"type": "unocc",
				"energy": -0.04434,
				"method": "rhf"
			},
			{
				"type": "unocc",
				"energy": -0.00585,
				"method": "rhf"
			},
			{
				"type": "unocc",
				"energy": -0.00551,
				"method": "rhf"
			},
			{
				"type": "unocc",
				"energy": 0.00264,
				"method": "rhf"
			}
		],
		"cosmo_sigma_profile": { 
			"-0.025": 0.0,
			"-0.024": 0.0,
			"-0.023": 0.0,
			"-0.022": 0.0,
			"-0.021": 0.0,
			"-0.02": 0.0,
			"-0.019": 0.0,
			"-0.018": 0.0,
			"-0.017": 0.0,
			"-0.016": 0.0,
			"-0.015": 0.0,
			"-0.014": 0.0,
			"-0.013": 0.0,
			"-0.012": 0.0,
			"-0.011": 0.0,
			"-0.01": 0.0,
			"-0.009": 0.0,
			"-0.008": 0.0,
			"-0.007": 3.98170768391,
			"-0.006": 25.5452977652,
			"-0.005": 34.0028501084,
			"-0.004": 41.5742893579,
			"-0.003": 32.3481777762,
			"-0.002": 27.0331006551,
			"-0.001": 24.8053739508,
			"0.0": 31.4626966822,
			"0.001": 38.9153610252,
			"0.002": 42.0646126963,
			"0.003": 40.5474106849,
			"0.004": 30.9490502109,
			"0.005": 18.6644839736,
			"0.006": 6.46380583344,
			"0.007": 5.12976085094,
			"0.008": 3.30407893589,
			"0.009": 1.57357317277,
			"0.01": 1.98017213326,
			"0.011": 2.70633268794,
			"0.012": 1.87326726582,
			"0.013": 1.70381091127,
			"0.014": 1.42258421572,
			"0.015": 0.449698790401,
			"0.016": 0.0,
			"0.017": 0.0,
			"0.018": 0.0,
			"0.019": 0.0,
			"0.02": 0.0,
			"0.021": 0.0,
			"0.022": 0.0,
			"0.023": 0.0,
			"0.024": 0.0,
			"0.025": 0.0
		}
	}
}
