{
	 "smiles": "COC(=O)C1=C(Cl)C=CC(=C1N)[N+]([O-])=O", 
	 "Tm": 363.15, 
	 "num_atms": 22, 
	 "gaussian": { 
		 "optdone": 1, 
		 "sigma_profile": "yes", 
		 "theory": "DFT", 
		 "functional": "B3LYP", 
		 "basiset": "6-31G**", 
		 "properties": { 
			 "R2extent": 4323.9688, 
			 "electric_dipole_moment_norm": 3.93454850015, 
			 "electric_quadrupole_moment_norm": 10.3687271842, 
			 "total_energy": -1179.57324652, 
			 "HOMO_LUMO_gap": 0.13988, 
			 "cosmo_polarized_energy": -9.88, 
			 "cosmo_cavitation_energy": 28.44, 
			 "cosmo_dispersion_energy": -21.44, 
			 "cosmo_repulsion_energy": 1.66, 
			 "cosmo_total_nonelectrostatic_energy": 8.65, 
			 "SMD_solvation_energy": 7.95 
		},
		"coords": [
			{
				"x": 0.5809035375,
				"y": -4.0903669663,
				"z": -2.3631781934,
				"element": "C" 
			},
			{
				"x": -0.271811179,
				"y": -3.0182765209,
				"z": -1.9221088845,
				"element": "O" 
			},
			{
				"x": 0.3422845971,
				"y": -2.005339416,
				"z": -1.3002597503,
				"element": "C" 
			},
			{
				"x": 1.561228522,
				"y": -1.9695330008,
				"z": -1.1746292855,
				"element": "O" 
			},
			{
				"x": -0.5812951951,
				"y": -0.9229331224,
				"z": -0.8523517247,
				"element": "C" 
			},
			{
				"x": -1.9300573698,
				"y": -1.1241895705,
				"z": -0.5176061393,
				"element": "C" 
			},
			{
				"x": -2.6530093619,
				"y": -2.714386089,
				"z": -0.3937589929,
				"element": "Cl" 
			},
			{
				"x": -2.7889230122,
				"y": -0.0662876406,
				"z": -0.195297466,
				"element": "C" 
			},
			{
				"x": -2.3000185707,
				"y": 1.224266044,
				"z": -0.2070802733,
				"element": "C" 
			},
			{
				"x": -0.9590395961,
				"y": 1.4825049834,
				"z": -0.4918582771,
				"element": "C" 
			},
			{
				"x": -0.0423650177,
				"y": 0.4217175947,
				"z": -0.7861667289,
				"element": "C" 
			},
			{
				"x": 1.259564997,
				"y": 0.6494778274,
				"z": -1.0151353146,
				"element": "N" 
			},
			{
				"x": -0.5485732479,
				"y": 2.8739032453,
				"z": -0.4417075789,
				"element": "N" 
			},
			{
				"x": -1.4012904156,
				"y": 3.7235495125,
				"z": -0.1811396893,
				"element": "O" 
			},
			{
				"x": 0.6411380859,
				"y": 3.1681894669,
				"z": -0.6637921746,
				"element": "O" 
			},
			{
				"x": -0.0885435149,
				"y": -4.8222537312,
				"z": -2.8133464554,
				"element": "H" 
			},
			{
				"x": 1.3047567934,
				"y": -3.7254461691,
				"z": -3.095460867,
				"element": "H" 
			},
			{
				"x": 1.1186120713,
				"y": -4.5258321555,
				"z": -1.5179860453,
				"element": "H" 
			},
			{
				"x": -3.8200767794,
				"y": -0.2700384841,
				"z": 0.0622189426,
				"element": "H" 
			},
			{
				"x": -2.9397710119,
				"y": 2.0662141796,
				"z": 0.0239957612,
				"element": "H" 
			},
			{
				"x": 1.5774469313,
				"y": 1.6078830781,
				"z": -0.9611363935,
				"element": "H" 
			},
			{
				"x": 1.8735387368,
				"y": -0.1525230655,
				"z": -1.0925144694,
				"element": "H" 
			}
		],
		 "valence_orbital": [ 
			{
				"type": "occ",
				"energy": -0.30921,
				"method": "rhf"
			},
			{
				"type": "occ",
				"energy": -0.29916,
				"method": "rhf"
			},
			{
				"type": "occ",
				"energy": -0.29124,
				"method": "rhf"
			},
			{
				"type": "occ",
				"energy": -0.27784,
				"method": "rhf"
			},
			{
				"type": "occ",
				"energy": -0.23547,
				"method": "rhf"
			},
			{
				"type": "unocc",
				"energy": -0.09559,
				"method": "rhf"
			},
			{
				"type": "unocc",
				"energy": -0.05299,
				"method": "rhf"
			},
			{
				"type": "unocc",
				"energy": -0.00884,
				"method": "rhf"
			},
			{
				"type": "unocc",
				"energy": 0.01132,
				"method": "rhf"
			},
			{
				"type": "unocc",
				"energy": 0.03162,
				"method": "rhf"
			}
		],
		"cosmo_sigma_profile": { 
			"-0.025": 0.0,
			"-0.024": 0.0,
			"-0.023": 0.0,
			"-0.022": 0.0,
			"-0.021": 0.0,
			"-0.02": 0.0,
			"-0.019": 0.0,
			"-0.018": 0.0,
			"-0.017": 0.0,
			"-0.016": 0.0,
			"-0.015": 0.0,
			"-0.014": 0.0,
			"-0.013": 0.0,
			"-0.012": 0.0,
			"-0.011": 0.266345684274,
			"-0.01": 1.34537057529,
			"-0.009": 1.86938427325,
			"-0.008": 3.87978118048,
			"-0.007": 6.17164544066,
			"-0.006": 11.4997045712,
			"-0.005": 14.502283776,
			"-0.004": 17.080734124,
			"-0.003": 19.1858362891,
			"-0.002": 19.0608149355,
			"-0.001": 22.6025888212,
			"0.0": 20.3016786416,
			"0.001": 16.5212762976,
			"0.002": 13.0180463256,
			"0.003": 12.8637951449,
			"0.004": 8.22229685752,
			"0.005": 6.97362068713,
			"0.006": 6.34162065603,
			"0.007": 6.74348049073,
			"0.008": 7.88798839959,
			"0.009": 5.94352530953,
			"0.01": 5.96051434437,
			"0.011": 2.24249445417,
			"0.012": 0.0212608301278,
			"0.013": 0.0,
			"0.014": 0.0,
			"0.015": 0.0,
			"0.016": 0.0,
			"0.017": 0.0,
			"0.018": 0.0,
			"0.019": 0.0,
			"0.02": 0.0,
			"0.021": 0.0,
			"0.022": 0.0,
			"0.023": 0.0,
			"0.024": 0.0,
			"0.025": 0.0
		}
	}
}
