{
	 "smiles": "OC(=O)C1=CC(=C(S1)C(F)(F)F)C1=CC=CC=C1", 
	 "Tm": 404.15, 
	 "num_atms": 25, 
	 "gaussian": { 
		 "optdone": 1, 
		 "sigma_profile": "yes", 
		 "theory": "DFT", 
		 "functional": "B3LYP", 
		 "basiset": "6-31G**", 
		 "properties": { 
			 "R2extent": 5639.5812, 
			 "electric_dipole_moment_norm": 5.3177281888, 
			 "electric_quadrupole_moment_norm": 19.2784928612, 
			 "total_energy": -1309.65152473, 
			 "HOMO_LUMO_gap": 0.16757, 
			 "cosmo_polarized_energy": -15.42, 
			 "cosmo_cavitation_energy": 32.77, 
			 "cosmo_dispersion_energy": -23.65, 
			 "cosmo_repulsion_energy": 1.72, 
			 "cosmo_total_nonelectrostatic_energy": 10.85, 
			 "SMD_solvation_energy": 7.43 
		},
		"coords": [
			{
				"x": -1.5074010615,
				"y": -4.485604055,
				"z": 2.6263473794,
				"element": "O" 
			},
			{
				"x": -1.6727288964,
				"y": -3.2034632114,
				"z": 3.0376239613,
				"element": "C" 
			},
			{
				"x": -2.1442433471,
				"y": -2.9611966287,
				"z": 4.1242239658,
				"element": "O" 
			},
			{
				"x": -1.2451745727,
				"y": -2.1415303082,
				"z": 2.0951995716,
				"element": "C" 
			},
			{
				"x": -0.5420322006,
				"y": -2.2162197636,
				"z": 0.9159544861,
				"element": "C" 
			},
			{
				"x": -0.317885496,
				"y": -0.9513690406,
				"z": 0.2903211658,
				"element": "C" 
			},
			{
				"x": -0.8675466068,
				"y": 0.0664899998,
				"z": 1.0540935689,
				"element": "C" 
			},
			{
				"x": -1.6362652704,
				"y": -0.5026979858,
				"z": 2.4992411644,
				"element": "S" 
			},
			{
				"x": -0.8606435873,
				"y": 1.5422124933,
				"z": 0.7867368947,
				"element": "C" 
			},
			{
				"x": 0.3332904215,
				"y": 1.9716071936,
				"z": 0.341660785,
				"element": "F" 
			},
			{
				"x": -1.1586233402,
				"y": 2.2329115134,
				"z": 1.9089261398,
				"element": "F" 
			},
			{
				"x": -1.7842651741,
				"y": 1.8955909952,
				"z": -0.1428614141,
				"element": "F" 
			},
			{
				"x": 0.4186292107,
				"y": -0.8269449038,
				"z": -0.9910004177,
				"element": "C" 
			},
			{
				"x": 1.5895791862,
				"y": -1.5784835784,
				"z": -1.1887117498,
				"element": "C" 
			},
			{
				"x": 2.2852408282,
				"y": -1.5090396165,
				"z": -2.3945057072,
				"element": "C" 
			},
			{
				"x": 1.819856675,
				"y": -0.6906748147,
				"z": -3.4252960383,
				"element": "C" 
			},
			{
				"x": 0.6559860172,
				"y": 0.0575963525,
				"z": -3.2403414515,
				"element": "C" 
			},
			{
				"x": -0.0417353477,
				"y": -0.0090061084,
				"z": -2.0354029069,
				"element": "C" 
			},
			{
				"x": -1.2254907023,
				"y": -4.5203198137,
				"z": 1.7019419283,
				"element": "H" 
			},
			{
				"x": -0.1806934761,
				"y": -3.1392487417,
				"z": 0.4736439976,
				"element": "H" 
			},
			{
				"x": 1.9695565689,
				"y": -2.2009879037,
				"z": -0.3834972914,
				"element": "H" 
			},
			{
				"x": 3.1934345771,
				"y": -2.0899602668,
				"z": -2.5259297367,
				"element": "H" 
			},
			{
				"x": 2.3604029457,
				"y": -0.636522402,
				"z": -4.36561796,
				"element": "H" 
			},
			{
				"x": 0.2841236483,
				"y": 0.6924812416,
				"z": -4.0391410033,
				"element": "H" 
			},
			{
				"x": -0.9511709995,
				"y": 0.5661793534,
				"z": -1.9071093317,
				"element": "H" 
			}
		],
		 "valence_orbital": [ 
			{
				"type": "occ",
				"energy": -0.29558,
				"method": "rhf"
			},
			{
				"type": "occ",
				"energy": -0.29014,
				"method": "rhf"
			},
			{
				"type": "occ",
				"energy": -0.27856,
				"method": "rhf"
			},
			{
				"type": "occ",
				"energy": -0.26644,
				"method": "rhf"
			},
			{
				"type": "occ",
				"energy": -0.24849,
				"method": "rhf"
			},
			{
				"type": "unocc",
				"energy": -0.08092,
				"method": "rhf"
			},
			{
				"type": "unocc",
				"energy": -0.03584,
				"method": "rhf"
			},
			{
				"type": "unocc",
				"energy": -0.01813,
				"method": "rhf"
			},
			{
				"type": "unocc",
				"energy": 0.00644,
				"method": "rhf"
			},
			{
				"type": "unocc",
				"energy": 0.02436,
				"method": "rhf"
			}
		],
		"cosmo_sigma_profile": { 
			"-0.025": 0.0,
			"-0.024": 0.0,
			"-0.023": 0.0,
			"-0.022": 0.0,
			"-0.021": 0.0,
			"-0.02": 0.574206005813,
			"-0.019": 1.05729550609,
			"-0.018": 1.39306619434,
			"-0.017": 0.681975363633,
			"-0.016": 0.43313355438,
			"-0.015": 1.2751095141,
			"-0.014": 1.28875419129,
			"-0.013": 1.26202409506,
			"-0.012": 0.981394571612,
			"-0.011": 1.38271803975,
			"-0.01": 1.37338445841,
			"-0.009": 1.09230641777,
			"-0.008": 1.82650279022,
			"-0.007": 3.59896064015,
			"-0.006": 10.0383964676,
			"-0.005": 13.1075307195,
			"-0.004": 15.2907524759,
			"-0.003": 14.5498284871,
			"-0.002": 15.594401056,
			"-0.001": 20.6690820241,
			"0.0": 28.3824748822,
			"0.001": 27.1890207882,
			"0.002": 35.3403805093,
			"0.003": 18.7538547416,
			"0.004": 13.2006352091,
			"0.005": 10.3882524226,
			"0.006": 2.50435150306,
			"0.007": 2.08811296954,
			"0.008": 3.50081670153,
			"0.009": 4.25150412754,
			"0.01": 5.09262606453,
			"0.011": 5.11861602048,
			"0.012": 2.51386842639,
			"0.013": 0.364956009963,
			"0.014": 0.0,
			"0.015": 0.0,
			"0.016": 0.0,
			"0.017": 0.0,
			"0.018": 0.0,
			"0.019": 0.0,
			"0.02": 0.0,
			"0.021": 0.0,
			"0.022": 0.0,
			"0.023": 0.0,
			"0.024": 0.0,
			"0.025": 0.0
		}
	}
}
