{
	 "smiles": "OC(=O)C1=CN(N=C1)C1=C(F)C=CC=C1", 
	 "Tm": 434.15, 
	 "num_atms": 22, 
	 "gaussian": { 
		 "optdone": 1, 
		 "sigma_profile": "yes", 
		 "theory": "DFT", 
		 "functional": "B3LYP", 
		 "basiset": "6-31G**", 
		 "properties": { 
			 "R2extent": 4065.752, 
			 "electric_dipole_moment_norm": 6.39719796786, 
			 "electric_quadrupole_moment_norm": 18.5574747293, 
			 "total_energy": -745.048376679, 
			 "HOMO_LUMO_gap": 0.1914, 
			 "cosmo_polarized_energy": -16.75, 
			 "cosmo_cavitation_energy": 27.74, 
			 "cosmo_dispersion_energy": -20.52, 
			 "cosmo_repulsion_energy": 1.55, 
			 "cosmo_total_nonelectrostatic_energy": 8.77, 
			 "SMD_solvation_energy": 6.1 
		},
		"coords": [
			{
				"x": -2.6234876636,
				"y": 4.1158799577,
				"z": -0.82906556,
				"element": "O" 
			},
			{
				"x": -2.8422330232,
				"y": 3.4644420025,
				"z": 0.3474132753,
				"element": "C" 
			},
			{
				"x": -3.681089656,
				"y": 3.8747586169,
				"z": 1.1155864085,
				"element": "O" 
			},
			{
				"x": -2.0234707719,
				"y": 2.2670472115,
				"z": 0.6203302938,
				"element": "C" 
			},
			{
				"x": -1.0299195269,
				"y": 1.6496496779,
				"z": -0.1221879427,
				"element": "C" 
			},
			{
				"x": -0.6028935247,
				"y": 0.5738096036,
				"z": 0.6003084355,
				"element": "N" 
			},
			{
				"x": -1.2784402222,
				"y": 0.4640801192,
				"z": 1.7854656461,
				"element": "N" 
			},
			{
				"x": -2.1255925888,
				"y": 1.4760648642,
				"z": 1.794483318,
				"element": "C" 
			},
			{
				"x": 0.3954353608,
				"y": -0.3896311266,
				"z": 0.2952984811,
				"element": "C" 
			},
			{
				"x": 1.1416219543,
				"y": -0.3630101064,
				"z": -0.8895707535,
				"element": "C" 
			},
			{
				"x": 0.9300281135,
				"y": 0.6112317448,
				"z": -1.8114865879,
				"element": "F" 
			},
			{
				"x": 2.1130155897,
				"y": -1.3135964024,
				"z": -1.1695417481,
				"element": "C" 
			},
			{
				"x": 2.3628410306,
				"y": -2.3310485782,
				"z": -0.2510304927,
				"element": "C" 
			},
			{
				"x": 1.6314974388,
				"y": -2.3784327403,
				"z": 0.9375727843,
				"element": "C" 
			},
			{
				"x": 0.6593099925,
				"y": -1.4203630101,
				"z": 1.2091631582,
				"element": "C" 
			},
			{
				"x": -1.9296782594,
				"y": 3.6807797438,
				"z": -1.3424734735,
				"element": "H" 
			},
			{
				"x": -0.596529676,
				"y": 1.874736229,
				"z": -1.0816659352,
				"element": "H" 
			},
			{
				"x": -2.7947345054,
				"y": 1.6316313783,
				"z": 2.62891746,
				"element": "H" 
			},
			{
				"x": 2.6548084622,
				"y": -1.2350020947,
				"z": -2.1057249371,
				"element": "H" 
			},
			{
				"x": 3.1212386561,
				"y": -3.0770552622,
				"z": -0.4646845311,
				"element": "H" 
			},
			{
				"x": 1.8159961026,
				"y": -3.165457021,
				"z": 1.6615108641,
				"element": "H" 
			},
			{
				"x": 0.0844767169,
				"y": -1.4438148077,
				"z": 2.125681837,
				"element": "H" 
			}
		],
		 "valence_orbital": [ 
			{
				"type": "occ",
				"energy": -0.30847,
				"method": "rhf"
			},
			{
				"type": "occ",
				"energy": -0.27833,
				"method": "rhf"
			},
			{
				"type": "occ",
				"energy": -0.2734,
				"method": "rhf"
			},
			{
				"type": "occ",
				"energy": -0.27042,
				"method": "rhf"
			},
			{
				"type": "occ",
				"energy": -0.24552,
				"method": "rhf"
			},
			{
				"type": "unocc",
				"energy": -0.05412,
				"method": "rhf"
			},
			{
				"type": "unocc",
				"energy": -0.02586,
				"method": "rhf"
			},
			{
				"type": "unocc",
				"energy": -0.01158,
				"method": "rhf"
			},
			{
				"type": "unocc",
				"energy": 0.01862,
				"method": "rhf"
			},
			{
				"type": "unocc",
				"energy": 0.04914,
				"method": "rhf"
			}
		],
		"cosmo_sigma_profile": { 
			"-0.025": 0.0,
			"-0.024": 0.0,
			"-0.023": 0.0,
			"-0.022": 0.0,
			"-0.021": 0.0,
			"-0.02": 0.316251609952,
			"-0.019": 1.21767362159,
			"-0.018": 1.5417866367,
			"-0.017": 0.602795496969,
			"-0.016": 0.827688174191,
			"-0.015": 0.798052300861,
			"-0.014": 0.958769045688,
			"-0.013": 1.31099412849,
			"-0.012": 1.43676868964,
			"-0.011": 0.98437475506,
			"-0.01": 0.697664738091,
			"-0.009": 1.58142791204,
			"-0.008": 3.72568735813,
			"-0.007": 7.90929691113,
			"-0.006": 10.2073181581,
			"-0.005": 11.8528084922,
			"-0.004": 11.9702129948,
			"-0.003": 12.6853438386,
			"-0.002": 12.6112722029,
			"-0.001": 16.8014033118,
			"0.0": 19.8906253376,
			"0.001": 20.1156901241,
			"0.002": 17.6258473219,
			"0.003": 18.4642923477,
			"0.004": 8.78361848932,
			"0.005": 4.03504607163,
			"0.006": 2.93578755723,
			"0.007": 4.28126416529,
			"0.008": 4.95489360432,
			"0.009": 3.7872520971,
			"0.01": 6.0572978944,
			"0.011": 5.71919635182,
			"0.012": 5.40285859187,
			"0.013": 1.99266012152,
			"0.014": 0.146936293254,
			"0.015": 0.0,
			"0.016": 0.0,
			"0.017": 0.0,
			"0.018": 0.0,
			"0.019": 0.0,
			"0.02": 0.0,
			"0.021": 0.0,
			"0.022": 0.0,
			"0.023": 0.0,
			"0.024": 0.0,
			"0.025": 0.0
		}
	}
}
