{
	 "smiles": "CC(=O)C1=CC(CCl)=C(O)C=C1", 
	 "Tm": 443.15, 
	 "num_atms": 21, 
	 "gaussian": { 
		 "optdone": 1, 
		 "sigma_profile": "yes", 
		 "theory": "DFT", 
		 "functional": "B3LYP", 
		 "basiset": "6-31G**", 
		 "properties": { 
			 "R2extent": 3397.3885, 
			 "electric_dipole_moment_norm": 2.57040519957, 
			 "electric_quadrupole_moment_norm": 21.6789463386, 
			 "total_energy": -959.029892129, 
			 "HOMO_LUMO_gap": 0.18788, 
			 "cosmo_polarized_energy": -15.55, 
			 "cosmo_cavitation_energy": 27.12, 
			 "cosmo_dispersion_energy": -19.55, 
			 "cosmo_repulsion_energy": 1.58, 
			 "cosmo_total_nonelectrostatic_energy": 9.14, 
			 "SMD_solvation_energy": 5.34 
		},
		"coords": [
			{
				"x": 2.3945223259,
				"y": 1.1501624222,
				"z": -1.8486646733,
				"element": "C" 
			},
			{
				"x": 1.1950239792,
				"y": 1.914416002,
				"z": -1.3124520876,
				"element": "C" 
			},
			{
				"x": 0.8404003071,
				"y": 2.9607636464,
				"z": -1.8369044707,
				"element": "O" 
			},
			{
				"x": 0.4579800769,
				"y": 1.3668760129,
				"z": -0.1329939279,
				"element": "C" 
			},
			{
				"x": 0.8081804568,
				"y": 0.1691440894,
				"z": 0.5048672232,
				"element": "C" 
			},
			{
				"x": 0.0981980922,
				"y": -0.3174695682,
				"z": 1.6038023296,
				"element": "C" 
			},
			{
				"x": 0.4851559102,
				"y": -1.598083595,
				"z": 2.2719218708,
				"element": "C" 
			},
			{
				"x": 1.6297792875,
				"y": -1.3337665347,
				"z": 3.6884090732,
				"element": "Cl" 
			},
			{
				"x": -0.9975580399,
				"y": 0.4309517874,
				"z": 2.0771824021,
				"element": "C" 
			},
			{
				"x": -1.6738723924,
				"y": -0.0647250068,
				"z": 3.1463608402,
				"element": "O" 
			},
			{
				"x": -1.3630431975,
				"y": 1.6296036657,
				"z": 1.4495547569,
				"element": "C" 
			},
			{
				"x": -0.6409181083,
				"y": 2.0899122472,
				"z": 0.3588039356,
				"element": "C" 
			},
			{
				"x": 2.1094365568,
				"y": 0.1415404306,
				"z": -2.1681033757,
				"element": "H" 
			},
			{
				"x": 3.1689801331,
				"y": 1.0435748161,
				"z": -1.0810061328,
				"element": "H" 
			},
			{
				"x": 2.8022283102,
				"y": 1.6959006415,
				"z": -2.6998698435,
				"element": "H" 
			},
			{
				"x": 1.6552596069,
				"y": -0.4099034333,
				"z": 0.1490951361,
				"element": "H" 
			},
			{
				"x": -0.3746077564,
				"y": -2.114889795,
				"z": 2.6942240282,
				"element": "H" 
			},
			{
				"x": 1.0198805056,
				"y": -2.2592160944,
				"z": 1.5905572842,
				"element": "H" 
			},
			{
				"x": -2.393384353,
				"y": 0.5355433662,
				"z": 3.3822817469,
				"element": "H" 
			},
			{
				"x": -2.2142693389,
				"y": 2.1945772703,
				"z": 1.8237840546,
				"element": "H" 
			},
			{
				"x": -0.9087723623,
				"y": 3.0155876294,
				"z": -0.1393501703,
				"element": "H" 
			}
		],
		 "valence_orbital": [ 
			{
				"type": "occ",
				"energy": -0.29559,
				"method": "rhf"
			},
			{
				"type": "occ",
				"energy": -0.29143,
				"method": "rhf"
			},
			{
				"type": "occ",
				"energy": -0.26867,
				"method": "rhf"
			},
			{
				"type": "occ",
				"energy": -0.24855,
				"method": "rhf"
			},
			{
				"type": "occ",
				"energy": -0.24098,
				"method": "rhf"
			},
			{
				"type": "unocc",
				"energy": -0.0531,
				"method": "rhf"
			},
			{
				"type": "unocc",
				"energy": -0.03454,
				"method": "rhf"
			},
			{
				"type": "unocc",
				"energy": 0.02285,
				"method": "rhf"
			},
			{
				"type": "unocc",
				"energy": 0.0503,
				"method": "rhf"
			},
			{
				"type": "unocc",
				"energy": 0.05792,
				"method": "rhf"
			}
		],
		"cosmo_sigma_profile": { 
			"-0.025": 0.0,
			"-0.024": 0.0,
			"-0.023": 0.0,
			"-0.022": 0.0,
			"-0.021": 0.0,
			"-0.02": 0.0,
			"-0.019": 0.255737125578,
			"-0.018": 1.19297747591,
			"-0.017": 1.38372869913,
			"-0.016": 0.985864494986,
			"-0.015": 1.15565868097,
			"-0.014": 1.2576203651,
			"-0.013": 0.913866237735,
			"-0.012": 0.619561681654,
			"-0.011": 1.2798295271,
			"-0.01": 1.01674443022,
			"-0.009": 1.05712277707,
			"-0.008": 4.08379985685,
			"-0.007": 8.4071754148,
			"-0.006": 13.246016931,
			"-0.005": 13.6828706385,
			"-0.004": 13.202976734,
			"-0.003": 11.4680961377,
			"-0.002": 11.8020515584,
			"-0.001": 13.1836715165,
			"0.0": 13.1354017593,
			"0.001": 12.3662605791,
			"0.002": 14.909397442,
			"0.003": 17.7390371758,
			"0.004": 9.28070307836,
			"0.005": 8.20718097309,
			"0.006": 12.4708693253,
			"0.007": 12.444593968,
			"0.008": 3.57109212921,
			"0.009": 2.07799897412,
			"0.01": 2.12669187912,
			"0.011": 2.42442379629,
			"0.012": 4.1160672422,
			"0.013": 2.22603813235,
			"0.014": 0.465067219513,
			"0.015": 0.0,
			"0.016": 0.0,
			"0.017": 0.0,
			"0.018": 0.0,
			"0.019": 0.0,
			"0.02": 0.0,
			"0.021": 0.0,
			"0.022": 0.0,
			"0.023": 0.0,
			"0.024": 0.0,
			"0.025": 0.0
		}
	}
}
