{
	 "smiles": "CC1(C)C2CCC1(C)C(=O)OC2C(O)C1=CC=CC=C1", 
	 "Tm": 429.15, 
	 "num_atms": 42, 
	 "gaussian": { 
		 "optdone": 1, 
		 "sigma_profile": "yes", 
		 "theory": "DFT", 
		 "functional": "B3LYP", 
		 "basiset": "6-31G**", 
		 "properties": { 
			 "R2extent": 6180.5824, 
			 "electric_dipole_moment_norm": 3.65521036467, 
			 "electric_quadrupole_moment_norm": 13.753903318, 
			 "total_energy": -886.751365835, 
			 "HOMO_LUMO_gap": 0.23872, 
			 "cosmo_polarized_energy": -13.24, 
			 "cosmo_cavitation_energy": 39.98, 
			 "cosmo_dispersion_energy": -27.99, 
			 "cosmo_repulsion_energy": 2.09, 
			 "cosmo_total_nonelectrostatic_energy": 14.09, 
			 "SMD_solvation_energy": 7.02 
		},
		"coords": [
			{
				"x": -1.4741296557,
				"y": 1.5347617932,
				"z": 2.7608239307,
				"element": "C" 
			},
			{
				"x": -1.3111837256,
				"y": 0.5609161031,
				"z": 1.5758650723,
				"element": "C" 
			},
			{
				"x": -2.4598889485,
				"y": 0.8414857758,
				"z": 0.5884024103,
				"element": "C" 
			},
			{
				"x": 0.1202339238,
				"y": 0.6794367506,
				"z": 0.9694695929,
				"element": "C" 
			},
			{
				"x": 1.03654709,
				"y": 0.0536159378,
				"z": 2.0515099865,
				"element": "C" 
			},
			{
				"x": 0.1546629532,
				"y": -1.0225657156,
				"z": 2.7391217144,
				"element": "C" 
			},
			{
				"x": -1.240406582,
				"y": -0.935124936,
				"z": 2.038298616,
				"element": "C" 
			},
			{
				"x": -2.3861695837,
				"y": -1.4239898329,
				"z": 2.9266209414,
				"element": "C" 
			},
			{
				"x": -1.150394996,
				"y": -1.8404089944,
				"z": 0.8001187024,
				"element": "C" 
			},
			{
				"x": -1.6592976783,
				"y": -2.9316902672,
				"z": 0.7168366251,
				"element": "O" 
			},
			{
				"x": -0.3761099583,
				"y": -1.4191050554,
				"z": -0.2511046675,
				"element": "O" 
			},
			{
				"x": 0.1614808359,
				"y": -0.0725185887,
				"z": -0.364495162,
				"element": "C" 
			},
			{
				"x": 1.5611502053,
				"y": -0.2203062567,
				"z": -1.0217884829,
				"element": "C" 
			},
			{
				"x": 2.2940274433,
				"y": -1.2977598573,
				"z": -0.4459789249,
				"element": "O" 
			},
			{
				"x": 1.5053292605,
				"y": -0.3284976054,
				"z": -2.5417832797,
				"element": "C" 
			},
			{
				"x": 2.3341594977,
				"y": 0.4866757152,
				"z": -3.3216634576,
				"element": "C" 
			},
			{
				"x": 2.3335784928,
				"y": 0.3880431157,
				"z": -4.7142188605,
				"element": "C" 
			},
			{
				"x": 1.5001919697,
				"y": -0.5347917376,
				"z": -5.3468420626,
				"element": "C" 
			},
			{
				"x": 0.6696051906,
				"y": -1.354576943,
				"z": -4.5791971403,
				"element": "C" 
			},
			{
				"x": 0.6702289205,
				"y": -1.2537491401,
				"z": -3.1878633131,
				"element": "C" 
			},
			{
				"x": -2.4642859432,
				"y": 1.4392022266,
				"z": 3.21602845,
				"element": "H" 
			},
			{
				"x": -0.7311797567,
				"y": 1.385557165,
				"z": 3.5477678305,
				"element": "H" 
			},
			{
				"x": -1.3766066448,
				"y": 2.5669559419,
				"z": 2.4059772698,
				"element": "H" 
			},
			{
				"x": -2.3769932123,
				"y": 1.853389809,
				"z": 0.1757317658,
				"element": "H" 
			},
			{
				"x": -3.4244432283,
				"y": 0.7802007116,
				"z": 1.1022273783,
				"element": "H" 
			},
			{
				"x": -2.4967975143,
				"y": 0.1406547976,
				"z": -0.2500174379,
				"element": "H" 
			},
			{
				"x": 0.385605282,
				"y": 1.7226154671,
				"z": 0.7569637127,
				"element": "H" 
			},
			{
				"x": 1.9396679061,
				"y": -0.3745430456,
				"z": 1.6165868567,
				"element": "H" 
			},
			{
				"x": 1.3454906145,
				"y": 0.8195377296,
				"z": 2.7682538221,
				"element": "H" 
			},
			{
				"x": 0.0306383491,
				"y": -0.8234420429,
				"z": 3.8080782083,
				"element": "H" 
			},
			{
				"x": 0.5781896477,
				"y": -2.0283926997,
				"z": 2.6583348676,
				"element": "H" 
			},
			{
				"x": -2.247933024,
				"y": -2.4774290336,
				"z": 3.1785178998,
				"element": "H" 
			},
			{
				"x": -3.3532578667,
				"y": -1.3375948992,
				"z": 2.4225067886,
				"element": "H" 
			},
			{
				"x": -2.4246740217,
				"y": -0.8472022041,
				"z": 3.8546099862,
				"element": "H" 
			},
			{
				"x": -0.480742281,
				"y": 0.4528672541,
				"z": -1.0791238848,
				"element": "H" 
			},
			{
				"x": 2.1307319388,
				"y": 0.6822006396,
				"z": -0.7714673512,
				"element": "H" 
			},
			{
				"x": 1.7187370684,
				"y": -2.0755293006,
				"z": -0.4993863219,
				"element": "H" 
			},
			{
				"x": 2.989935755,
				"y": 1.2038528522,
				"z": -2.8333247457,
				"element": "H" 
			},
			{
				"x": 2.9834089802,
				"y": 1.0301653057,
				"z": -5.3021976727,
				"element": "H" 
			},
			{
				"x": 1.4966076955,
				"y": -0.6150526378,
				"z": -6.4301640079,
				"element": "H" 
			},
			{
				"x": 0.0168225758,
				"y": -2.0744626991,
				"z": -5.0650136454,
				"element": "H" 
			},
			{
				"x": 0.0155630247,
				"y": -1.8909015987,
				"z": -2.6011220098,
				"element": "H" 
			}
		],
		 "valence_orbital": [ 
			{
				"type": "occ",
				"energy": -0.29186,
				"method": "rhf"
			},
			{
				"type": "occ",
				"energy": -0.27127,
				"method": "rhf"
			},
			{
				"type": "occ",
				"energy": -0.26022,
				"method": "rhf"
			},
			{
				"type": "occ",
				"energy": -0.24986,
				"method": "rhf"
			},
			{
				"type": "occ",
				"energy": -0.24464,
				"method": "rhf"
			},
			{
				"type": "unocc",
				"energy": -0.00592,
				"method": "rhf"
			},
			{
				"type": "unocc",
				"energy": -0.00162,
				"method": "rhf"
			},
			{
				"type": "unocc",
				"energy": 0.00903,
				"method": "rhf"
			},
			{
				"type": "unocc",
				"energy": 0.0582,
				"method": "rhf"
			},
			{
				"type": "unocc",
				"energy": 0.08524,
				"method": "rhf"
			}
		],
		"cosmo_sigma_profile": { 
			"-0.025": 0.0,
			"-0.024": 0.0,
			"-0.023": 0.0,
			"-0.022": 0.0,
			"-0.021": 0.0,
			"-0.02": 0.0,
			"-0.019": 0.0,
			"-0.018": 0.0,
			"-0.017": 0.0,
			"-0.016": 0.0,
			"-0.015": 0.0,
			"-0.014": 0.0132727002612,
			"-0.013": 0.286563272443,
			"-0.012": 0.656871382412,
			"-0.011": 0.704210901,
			"-0.01": 0.437333607691,
			"-0.009": 0.567494230265,
			"-0.008": 0.0904834588516,
			"-0.007": 1.56774621822,
			"-0.006": 10.0613232694,
			"-0.005": 17.3523536658,
			"-0.004": 28.7837688913,
			"-0.003": 47.3025572156,
			"-0.002": 35.0294209334,
			"-0.001": 29.649006655,
			"0.0": 29.989844018,
			"0.001": 27.175965065,
			"0.002": 11.4362301056,
			"0.003": 9.19197920373,
			"0.004": 11.3899005293,
			"0.005": 11.2623709417,
			"0.006": 10.3272680824,
			"0.007": 3.20274064375,
			"0.008": 2.95053460832,
			"0.009": 2.93590000224,
			"0.01": 3.82245523594,
			"0.011": 3.67723126535,
			"0.012": 7.11155685916,
			"0.013": 3.83433872721,
			"0.014": 1.12645362071,
			"0.015": 0.0,
			"0.016": 0.0,
			"0.017": 0.0,
			"0.018": 0.0,
			"0.019": 0.0,
			"0.02": 0.0,
			"0.021": 0.0,
			"0.022": 0.0,
			"0.023": 0.0,
			"0.024": 0.0,
			"0.025": 0.0
		}
	}
}
