{
	 "smiles": "OC(=O)CCOC1=CC2=C(C=CC=C2)C=C1", 
	 "Tm": 340.15, 
	 "num_atms": 28, 
	 "gaussian": { 
		 "optdone": 1, 
		 "sigma_profile": "yes", 
		 "theory": "DFT", 
		 "functional": "B3LYP", 
		 "basiset": "6-31G**", 
		 "properties": { 
			 "R2extent": 5058.1914, 
			 "electric_dipole_moment_norm": 5.23531874579, 
			 "electric_quadrupole_moment_norm": 25.9941903444, 
			 "total_energy": -728.301712818, 
			 "HOMO_LUMO_gap": 0.17488, 
			 "cosmo_polarized_energy": -15.68, 
			 "cosmo_cavitation_energy": 31.79, 
			 "cosmo_dispersion_energy": -23.12, 
			 "cosmo_repulsion_energy": 1.78, 
			 "cosmo_total_nonelectrostatic_energy": 10.45, 
			 "SMD_solvation_energy": 6.38 
		},
		"coords": [
			{
				"x": -1.6271333217,
				"y": -3.8359148951,
				"z": 1.6409632142,
				"element": "O" 
			},
			{
				"x": -0.5037756294,
				"y": -3.5794413641,
				"z": 2.3461912238,
				"element": "C" 
			},
			{
				"x": -0.3286934159,
				"y": -4.057205997,
				"z": 3.4401590325,
				"element": "O" 
			},
			{
				"x": 0.5008747734,
				"y": -2.6299022849,
				"z": 1.6865534919,
				"element": "C" 
			},
			{
				"x": 0.6441024202,
				"y": -2.7894209234,
				"z": 0.1696949208,
				"element": "C" 
			},
			{
				"x": -0.5771188037,
				"y": -2.4808683216,
				"z": -0.5233079481,
				"element": "O" 
			},
			{
				"x": -0.8810778284,
				"y": -1.1690167021,
				"z": -0.8302957398,
				"element": "C" 
			},
			{
				"x": -0.1008913642,
				"y": -0.076052238,
				"z": -0.5207846982,
				"element": "C" 
			},
			{
				"x": -0.5168682183,
				"y": 1.2297267978,
				"z": -0.9075828623,
				"element": "C" 
			},
			{
				"x": -1.7509228459,
				"y": 1.3976527674,
				"z": -1.6133836253,
				"element": "C" 
			},
			{
				"x": -2.15922324,
				"y": 2.7027791601,
				"z": -1.9926354225,
				"element": "C" 
			},
			{
				"x": -1.3842016472,
				"y": 3.8004722695,
				"z": -1.6891360135,
				"element": "C" 
			},
			{
				"x": -0.1641723205,
				"y": 3.6357223926,
				"z": -0.9905467336,
				"element": "C" 
			},
			{
				"x": 0.2591116457,
				"y": 2.3813316301,
				"z": -0.6088262469,
				"element": "C" 
			},
			{
				"x": -2.5249898579,
				"y": 0.240991102,
				"z": -1.9081217232,
				"element": "C" 
			},
			{
				"x": -2.1066571936,
				"y": -1.0095591666,
				"z": -1.5303845707,
				"element": "C" 
			},
			{
				"x": -1.5927175597,
				"y": -3.3760829235,
				"z": 0.7805087716,
				"element": "H" 
			},
			{
				"x": 0.1963910403,
				"y": -1.6027386016,
				"z": 1.9225553285,
				"element": "H" 
			},
			{
				"x": 1.4652474807,
				"y": -2.7990532426,
				"z": 2.1719889075,
				"element": "H" 
			},
			{
				"x": 1.462125722,
				"y": -2.1754441012,
				"z": -0.2189085832,
				"element": "H" 
			},
			{
				"x": 0.8537092993,
				"y": -3.8298405171,
				"z": -0.0929370244,
				"element": "H" 
			},
			{
				"x": 0.8335782214,
				"y": -0.1754275195,
				"z": 0.0195677433,
				"element": "H" 
			},
			{
				"x": -3.0975659942,
				"y": 2.8216314834,
				"z": -2.5283818918,
				"element": "H" 
			},
			{
				"x": -1.7060332758,
				"y": 4.794800705,
				"z": -1.9838225995,
				"element": "H" 
			},
			{
				"x": 0.4408660315,
				"y": 4.5064277985,
				"z": -0.7547976098,
				"element": "H" 
			},
			{
				"x": 1.1964848934,
				"y": 2.258239193,
				"z": -0.0722756926,
				"element": "H" 
			},
			{
				"x": -3.462318041,
				"y": 0.3586038574,
				"z": -2.4451911521,
				"element": "H" 
			},
			{
				"x": -2.6886309706,
				"y": -1.8962103583,
				"z": -1.7601624966,
				"element": "H" 
			}
		],
		 "valence_orbital": [ 
			{
				"type": "occ",
				"energy": -0.30465,
				"method": "rhf"
			},
			{
				"type": "occ",
				"energy": -0.29263,
				"method": "rhf"
			},
			{
				"type": "occ",
				"energy": -0.26249,
				"method": "rhf"
			},
			{
				"type": "occ",
				"energy": -0.24371,
				"method": "rhf"
			},
			{
				"type": "occ",
				"energy": -0.22257,
				"method": "rhf"
			},
			{
				"type": "unocc",
				"energy": -0.04769,
				"method": "rhf"
			},
			{
				"type": "unocc",
				"energy": -0.01596,
				"method": "rhf"
			},
			{
				"type": "unocc",
				"energy": 0.01509,
				"method": "rhf"
			},
			{
				"type": "unocc",
				"energy": 0.02099,
				"method": "rhf"
			},
			{
				"type": "unocc",
				"energy": 0.0751,
				"method": "rhf"
			}
		],
		"cosmo_sigma_profile": { 
			"-0.025": 0.0,
			"-0.024": 0.0,
			"-0.023": 0.0,
			"-0.022": 0.0,
			"-0.021": 0.0,
			"-0.02": 0.0,
			"-0.019": 0.0,
			"-0.018": 0.0,
			"-0.017": 0.0,
			"-0.016": 0.0,
			"-0.015": 0.0,
			"-0.014": 0.0,
			"-0.013": 0.0,
			"-0.012": 0.0,
			"-0.011": 0.0,
			"-0.01": 0.0286414986246,
			"-0.009": 1.54674011192,
			"-0.008": 6.69751916784,
			"-0.007": 13.9050660834,
			"-0.006": 24.9731560157,
			"-0.005": 23.4809500693,
			"-0.004": 18.9501893454,
			"-0.003": 16.247081814,
			"-0.002": 12.7911587256,
			"-0.001": 10.4438965302,
			"0.0": 10.030280228,
			"0.001": 11.484329928,
			"0.002": 12.9688575058,
			"0.003": 17.5726629926,
			"0.004": 24.8880643654,
			"0.005": 13.8350701931,
			"0.006": 6.15374661492,
			"0.007": 1.9766468026,
			"0.008": 3.23501155956,
			"0.009": 2.80237806869,
			"0.01": 3.77911170567,
			"0.011": 5.81165741349,
			"0.012": 6.34594843959,
			"0.013": 3.48395017561,
			"0.014": 0.352842906962,
			"0.015": 0.0,
			"0.016": 0.0,
			"0.017": 0.0,
			"0.018": 0.0,
			"0.019": 0.0,
			"0.02": 0.0,
			"0.021": 0.0,
			"0.022": 0.0,
			"0.023": 0.0,
			"0.024": 0.0,
			"0.025": 0.0
		}
	}
}
