{
	 "smiles": "COC1=C(F)C=C(C=C1)C(=O)CCl", 
	 "Tm": 363.15, 
	 "num_atms": 21, 
	 "gaussian": { 
		 "optdone": 1, 
		 "sigma_profile": "yes", 
		 "theory": "DFT", 
		 "functional": "B3LYP", 
		 "basiset": "6-31G**", 
		 "properties": { 
			 "R2extent": 4413.7832, 
			 "electric_dipole_moment_norm": 3.48806040372, 
			 "electric_quadrupole_moment_norm": 15.4345674364, 
			 "total_energy": -1058.23290834, 
			 "HOMO_LUMO_gap": 0.16729, 
			 "cosmo_polarized_energy": -9.27, 
			 "cosmo_cavitation_energy": 27.58, 
			 "cosmo_dispersion_energy": -20.17, 
			 "cosmo_repulsion_energy": 1.58, 
			 "cosmo_total_nonelectrostatic_energy": 8.99, 
			 "SMD_solvation_energy": 6.26 
		},
		"coords": [
			{
				"x": 3.5651484232,
				"y": 1.3837779862,
				"z": 0.3120620235,
				"element": "C" 
			},
			{
				"x": 2.2329919201,
				"y": 1.2368613982,
				"z": 0.8175364834,
				"element": "O" 
			},
			{
				"x": 1.1788157818,
				"y": 1.013847585,
				"z": 0.0021424792,
				"element": "C" 
			},
			{
				"x": 1.2100469371,
				"y": 0.8023732322,
				"z": -1.3906070547,
				"element": "C" 
			},
			{
				"x": 2.392553392,
				"y": 0.8079521447,
				"z": -2.0556409102,
				"element": "F" 
			},
			{
				"x": 0.0559970759,
				"y": 0.5797583295,
				"z": -2.1153223187,
				"element": "C" 
			},
			{
				"x": -1.194399423,
				"y": 0.5560822099,
				"z": -1.4787271997,
				"element": "C" 
			},
			{
				"x": -1.2430015012,
				"y": 0.7631032351,
				"z": -0.0894643828,
				"element": "C" 
			},
			{
				"x": -0.0783742184,
				"y": 0.9865889622,
				"z": 0.6300091119,
				"element": "C" 
			},
			{
				"x": -2.3876859928,
				"y": 0.2832123926,
				"z": -2.3184088246,
				"element": "C" 
			},
			{
				"x": -2.2990970079,
				"y": 0.0552202515,
				"z": -3.5156072381,
				"element": "O" 
			},
			{
				"x": -3.7779540115,
				"y": 0.23896547,
				"z": -1.6750495807,
				"element": "C" 
			},
			{
				"x": -4.3396803419,
				"y": 1.8859206664,
				"z": -1.154152894,
				"element": "Cl" 
			},
			{
				"x": 3.6340539716,
				"y": 2.211163454,
				"z": -0.399027635,
				"element": "H" 
			},
			{
				"x": 4.1748513192,
				"y": 1.6019048609,
				"z": 1.1897601638,
				"element": "H" 
			},
			{
				"x": 3.9176259497,
				"y": 0.4653620845,
				"z": -0.1634931273,
				"element": "H" 
			},
			{
				"x": 0.1181700166,
				"y": 0.4166479058,
				"z": -3.1854367887,
				"element": "H" 
			},
			{
				"x": -2.1907735223,
				"y": 0.7694108955,
				"z": 0.436561934,
				"element": "H" 
			},
			{
				"x": -0.1021869384,
				"y": 1.1524365432,
				"z": 1.7017101797,
				"element": "H" 
			},
			{
				"x": -3.805322249,
				"y": -0.4011640438,
				"z": -0.7912206475,
				"element": "H" 
			},
			{
				"x": -4.4815795807,
				"y": -0.1179255636,
				"z": -2.4245237733,
				"element": "H" 
			}
		],
		 "valence_orbital": [ 
			{
				"type": "occ",
				"energy": -0.31663,
				"method": "rhf"
			},
			{
				"type": "occ",
				"energy": -0.30545,
				"method": "rhf"
			},
			{
				"type": "occ",
				"energy": -0.26502,
				"method": "rhf"
			},
			{
				"type": "occ",
				"energy": -0.26047,
				"method": "rhf"
			},
			{
				"type": "occ",
				"energy": -0.23736,
				"method": "rhf"
			},
			{
				"type": "unocc",
				"energy": -0.07007,
				"method": "rhf"
			},
			{
				"type": "unocc",
				"energy": -0.01491,
				"method": "rhf"
			},
			{
				"type": "unocc",
				"energy": 0.00451,
				"method": "rhf"
			},
			{
				"type": "unocc",
				"energy": 0.05441,
				"method": "rhf"
			},
			{
				"type": "unocc",
				"energy": 0.06875,
				"method": "rhf"
			}
		],
		"cosmo_sigma_profile": { 
			"-0.025": 0.0,
			"-0.024": 0.0,
			"-0.023": 0.0,
			"-0.022": 0.0,
			"-0.021": 0.0,
			"-0.02": 0.0,
			"-0.019": 0.0,
			"-0.018": 0.0,
			"-0.017": 0.0,
			"-0.016": 0.0,
			"-0.015": 0.0,
			"-0.014": 0.0,
			"-0.013": 0.0,
			"-0.012": 0.0,
			"-0.011": 0.0,
			"-0.01": 0.263188891625,
			"-0.009": 3.05307833046,
			"-0.008": 5.03089879702,
			"-0.007": 7.37257298354,
			"-0.006": 13.5024598108,
			"-0.005": 15.7000495435,
			"-0.004": 15.2060181148,
			"-0.003": 13.7274527606,
			"-0.002": 11.5371927314,
			"-0.001": 13.0048742434,
			"0.0": 18.0925711559,
			"0.001": 21.0659681622,
			"0.002": 19.3466792694,
			"0.003": 17.3941214906,
			"0.004": 14.7173812661,
			"0.005": 11.5040921896,
			"0.006": 5.7382911448,
			"0.007": 2.21811600502,
			"0.008": 3.33980860773,
			"0.009": 3.32842340945,
			"0.01": 1.9859134607,
			"0.011": 4.20200442848,
			"0.012": 1.38394356847,
			"0.013": 0.0184546004752,
			"0.014": 0.0,
			"0.015": 0.0,
			"0.016": 0.0,
			"0.017": 0.0,
			"0.018": 0.0,
			"0.019": 0.0,
			"0.02": 0.0,
			"0.021": 0.0,
			"0.022": 0.0,
			"0.023": 0.0,
			"0.024": 0.0,
			"0.025": 0.0
		}
	}
}
