{
	 "smiles": "CC(C)CCCC(C)C1CCC2(C)C3=CCC4C(C)C(O)CCC4(C)C3=CCC12C", 
	 "Tm": 396.15, 
	 "num_atms": 78, 
	 "gaussian": { 
		 "optdone": 1, 
		 "sigma_profile": "yes", 
		 "theory": "DFT", 
		 "functional": "B3LYP", 
		 "basiset": "6-31G**", 
		 "properties": { 
			 "R2extent": 19529.3017, 
			 "electric_dipole_moment_norm": 1.44948714724, 
			 "electric_quadrupole_moment_norm": 15.4384169856, 
			 "total_energy": -1209.23311447, 
			 "HOMO_LUMO_gap": 0.19359, 
			 "cosmo_polarized_energy": -7.23, 
			 "cosmo_cavitation_energy": 64.43, 
			 "cosmo_dispersion_energy": -42.81, 
			 "cosmo_repulsion_energy": 3.16, 
			 "cosmo_total_nonelectrostatic_energy": 24.77, 
			 "SMD_solvation_energy": 9.34 
		},
		"coords": [
			{
				"x": -1.7055510798,
				"y": 2.8408511559,
				"z": -6.6765518263,
				"element": "C" 
			},
			{
				"x": -1.7585684325,
				"y": 1.8532831368,
				"z": -5.5011258143,
				"element": "C" 
			},
			{
				"x": -2.333194267,
				"y": 2.5368546313,
				"z": -4.2514560391,
				"element": "C" 
			},
			{
				"x": -0.3713987998,
				"y": 1.2166229758,
				"z": -5.2702573511,
				"element": "C" 
			},
			{
				"x": -0.3207024976,
				"y": 0.102291968,
				"z": -4.1985473663,
				"element": "C" 
			},
			{
				"x": 0.0495526111,
				"y": 0.5461705662,
				"z": -2.7580258823,
				"element": "C" 
			},
			{
				"x": 1.5206720175,
				"y": 0.2762355359,
				"z": -2.3693651072,
				"element": "C" 
			},
			{
				"x": 2.4858647632,
				"y": 1.0396591783,
				"z": -3.2980667309,
				"element": "C" 
			},
			{
				"x": 1.9284553135,
				"y": 0.5455241424,
				"z": -0.8894872864,
				"element": "C" 
			},
			{
				"x": 1.6675072899,
				"y": 1.987779773,
				"z": -0.3416313363,
				"element": "C" 
			},
			{
				"x": 1.2754076307,
				"y": 1.8318133082,
				"z": 1.1498799929,
				"element": "C" 
			},
			{
				"x": 0.5233907772,
				"y": 0.4865386807,
				"z": 1.1821091525,
				"element": "C" 
			},
			{
				"x": -0.9024766235,
				"y": 0.7414599985,
				"z": 0.6164215513,
				"element": "C" 
			},
			{
				"x": 0.333494104,
				"y": -0.2330347102,
				"z": 2.50619909,
				"element": "C" 
			},
			{
				"x": 0.5353291576,
				"y": 0.3309307384,
				"z": 3.707299646,
				"element": "C" 
			},
			{
				"x": 0.339770938,
				"y": -0.4181004199,
				"z": 4.9907086692,
				"element": "C" 
			},
			{
				"x": -0.7945397625,
				"y": -1.4629094673,
				"z": 4.8887317572,
				"element": "C" 
			},
			{
				"x": -0.8697062179,
				"y": -2.3738908905,
				"z": 6.1387151794,
				"element": "C" 
			},
			{
				"x": -1.1936536737,
				"y": -1.61605807,
				"z": 7.4332527064,
				"element": "C" 
			},
			{
				"x": 0.3851152904,
				"y": -3.2801304642,
				"z": 6.2922949079,
				"element": "C" 
			},
			{
				"x": 1.4697977599,
				"y": -2.6583159506,
				"z": 6.9882251622,
				"element": "O" 
			},
			{
				"x": 0.9356744586,
				"y": -3.7052971672,
				"z": 4.9229757287,
				"element": "C" 
			},
			{
				"x": -0.1710829914,
				"y": -3.7472685685,
				"z": 3.8675086877,
				"element": "C" 
			},
			{
				"x": -0.8000918409,
				"y": -2.3441020586,
				"z": 3.5770526302,
				"element": "C" 
			},
			{
				"x": -2.281527803,
				"y": -2.5601480188,
				"z": 3.1722201267,
				"element": "C" 
			},
			{
				"x": -0.1036107037,
				"y": -1.6440546058,
				"z": 2.3819573857,
				"element": "C" 
			},
			{
				"x": 0.0436854255,
				"y": -2.2863410266,
				"z": 1.200849347,
				"element": "C" 
			},
			{
				"x": 0.6692772096,
				"y": -1.7071013845,
				"z": -0.0522085322,
				"element": "C" 
			},
			{
				"x": 1.4351276881,
				"y": -0.4128261634,
				"z": 0.267837131,
				"element": "C" 
			},
			{
				"x": 2.7246217296,
				"y": -0.8408056936,
				"z": 1.0266937103,
				"element": "C" 
			},
			{
				"x": -1.3416339415,
				"y": 2.3578346923,
				"z": -7.5901763553,
				"element": "H" 
			},
			{
				"x": -1.0332048478,
				"y": 3.678705791,
				"z": -6.4538773266,
				"element": "H" 
			},
			{
				"x": -2.6952172643,
				"y": 3.2595405564,
				"z": -6.8898940155,
				"element": "H" 
			},
			{
				"x": -2.445372608,
				"y": 1.0388957649,
				"z": -5.779243797,
				"element": "H" 
			},
			{
				"x": -2.4550186813,
				"y": 1.8378273225,
				"z": -3.4185938023,
				"element": "H" 
			},
			{
				"x": -3.3167883469,
				"y": 2.9707315476,
				"z": -4.4636327996,
				"element": "H" 
			},
			{
				"x": -1.6800743213,
				"y": 3.3510097187,
				"z": -3.913122882,
				"element": "H" 
			},
			{
				"x": -0.0379223895,
				"y": 0.8023555275,
				"z": -6.2308629874,
				"element": "H" 
			},
			{
				"x": 0.3470671908,
				"y": 2.0094467659,
				"z": -5.0217893949,
				"element": "H" 
			},
			{
				"x": 0.3902893768,
				"y": -0.6702818635,
				"z": -4.5178375454,
				"element": "H" 
			},
			{
				"x": -1.2968870027,
				"y": -0.3995293126,
				"z": -4.1807939159,
				"element": "H" 
			},
			{
				"x": -0.1719215925,
				"y": 1.6132710196,
				"z": -2.6379173016,
				"element": "H" 
			},
			{
				"x": -0.6035710405,
				"y": 0.023287807,
				"z": -2.0556782457,
				"element": "H" 
			},
			{
				"x": 1.6966282372,
				"y": -0.7972826866,
				"z": -2.5397817061,
				"element": "H" 
			},
			{
				"x": 2.3207821354,
				"y": 0.7917995211,
				"z": -4.3504425939,
				"element": "H" 
			},
			{
				"x": 2.3639860939,
				"y": 2.124106327,
				"z": -3.1906810435,
				"element": "H" 
			},
			{
				"x": 3.52901226,
				"y": 0.8001209889,
				"z": -3.0643361376,
				"element": "H" 
			},
			{
				"x": 3.0161096797,
				"y": 0.4166300024,
				"z": -0.9169133376,
				"element": "H" 
			},
			{
				"x": 2.5433605698,
				"y": 2.6324807786,
				"z": -0.4640665325,
				"element": "H" 
			},
			{
				"x": 0.8537155467,
				"y": 2.4734071566,
				"z": -0.8892040247,
				"element": "H" 
			},
			{
				"x": 0.6634518699,
				"y": 2.6684423939,
				"z": 1.5042672775,
				"element": "H" 
			},
			{
				"x": 2.1677961569,
				"y": 1.7987696409,
				"z": 1.7830109516,
				"element": "H" 
			},
			{
				"x": -0.8898983904,
				"y": 1.2667587448,
				"z": -0.3388481055,
				"element": "H" 
			},
			{
				"x": -1.4750190301,
				"y": -0.1798251434,
				"z": 0.4923356897,
				"element": "H" 
			},
			{
				"x": -1.4466440244,
				"y": 1.3689934446,
				"z": 1.330297843,
				"element": "H" 
			},
			{
				"x": 0.8773382376,
				"y": 1.3617746391,
				"z": 3.7671368878,
				"element": "H" 
			},
			{
				"x": 0.0898270137,
				"y": 0.2896945861,
				"z": 5.7903771519,
				"element": "H" 
			},
			{
				"x": 1.2792607468,
				"y": -0.8843213705,
				"z": 5.3107423343,
				"element": "H" 
			},
			{
				"x": -1.723409232,
				"y": -0.8768712503,
				"z": 4.8600684548,
				"element": "H" 
			},
			{
				"x": -1.7070775344,
				"y": -3.0651333551,
				"z": 5.970948291,
				"element": "H" 
			},
			{
				"x": -1.3363370643,
				"y": -2.3105696536,
				"z": 8.270944361,
				"element": "H" 
			},
			{
				"x": -0.4010791394,
				"y": -0.9140773798,
				"z": 7.7094647053,
				"element": "H" 
			},
			{
				"x": -2.1196184207,
				"y": -1.0414083987,
				"z": 7.3276658434,
				"element": "H" 
			},
			{
				"x": 0.0698732618,
				"y": -4.1776716144,
				"z": 6.8510872034,
				"element": "H" 
			},
			{
				"x": 1.192938694,
				"y": -2.5026172024,
				"z": 7.8998360411,
				"element": "H" 
			},
			{
				"x": 1.4356690496,
				"y": -4.6762168489,
				"z": 5.0056105531,
				"element": "H" 
			},
			{
				"x": 1.7076083046,
				"y": -2.986638364,
				"z": 4.6265281162,
				"element": "H" 
			},
			{
				"x": 0.2158976062,
				"y": -4.1787153214,
				"z": 2.941799324,
				"element": "H" 
			},
			{
				"x": -0.9598251712,
				"y": -4.4311398498,
				"z": 4.2088276814,
				"element": "H" 
			},
			{
				"x": -2.7413558033,
				"y": -1.6181756489,
				"z": 2.856132403,
				"element": "H" 
			},
			{
				"x": -2.365152521,
				"y": -3.2694135375,
				"z": 2.342895762,
				"element": "H" 
			},
			{
				"x": -2.865329264,
				"y": -2.9581052617,
				"z": 4.0109654834,
				"element": "H" 
			},
			{
				"x": -0.3116817937,
				"y": -3.3108696321,
				"z": 1.1056975598,
				"element": "H" 
			},
			{
				"x": -0.1189794042,
				"y": -1.5431860935,
				"z": -0.7989242573,
				"element": "H" 
			},
			{
				"x": 1.3387598026,
				"y": -2.4558614667,
				"z": -0.4988985712,
				"element": "H" 
			},
			{
				"x": 2.5147466484,
				"y": -1.4752956924,
				"z": 1.8888774451,
				"element": "H" 
			},
			{
				"x": 3.3046821929,
				"y": 0.0184173448,
				"z": 1.3739389233,
				"element": "H" 
			},
			{
				"x": 3.3650786828,
				"y": -1.4080262645,
				"z": 0.341351102,
				"element": "H" 
			}
		],
		 "valence_orbital": [ 
			{
				"type": "occ",
				"energy": -0.27658,
				"method": "rhf"
			},
			{
				"type": "occ",
				"energy": -0.26892,
				"method": "rhf"
			},
			{
				"type": "occ",
				"energy": -0.26043,
				"method": "rhf"
			},
			{
				"type": "occ",
				"energy": -0.24884,
				"method": "rhf"
			},
			{
				"type": "occ",
				"energy": -0.20057,
				"method": "rhf"
			},
			{
				"type": "unocc",
				"energy": -0.00698,
				"method": "rhf"
			},
			{
				"type": "unocc",
				"energy": 0.06691,
				"method": "rhf"
			},
			{
				"type": "unocc",
				"energy": 0.07744,
				"method": "rhf"
			},
			{
				"type": "unocc",
				"energy": 0.08003,
				"method": "rhf"
			},
			{
				"type": "unocc",
				"energy": 0.0871,
				"method": "rhf"
			}
		],
		"cosmo_sigma_profile": { 
			"-0.025": 0.0,
			"-0.024": 0.0,
			"-0.023": 0.0,
			"-0.022": 0.0,
			"-0.021": 0.0,
			"-0.02": 0.0,
			"-0.019": 0.0,
			"-0.018": 0.0,
			"-0.017": 0.0,
			"-0.016": 0.0,
			"-0.015": 0.0,
			"-0.014": 0.434348049466,
			"-0.013": 0.865872638729,
			"-0.012": 0.806975564327,
			"-0.011": 0.898055192364,
			"-0.01": 0.909683810298,
			"-0.009": 0.927250500834,
			"-0.008": 0.870089081176,
			"-0.007": 1.48169666783,
			"-0.006": 1.1568059584,
			"-0.005": 1.59544054959,
			"-0.004": 3.30527384854,
			"-0.003": 26.4126363176,
			"-0.002": 67.2437866644,
			"-0.001": 106.992858504,
			"0.0": 105.389950494,
			"0.001": 75.1715779376,
			"0.002": 55.0638076619,
			"0.003": 15.6040967448,
			"0.004": 8.44100988059,
			"0.005": 5.01704655674,
			"0.006": 2.7294088418,
			"0.007": 1.60507680415,
			"0.008": 1.41665282446,
			"0.009": 1.374569674,
			"0.01": 1.02856978728,
			"0.011": 1.12113853175,
			"0.012": 1.2374932591,
			"0.013": 1.15687669594,
			"0.014": 1.30736141681,
			"0.015": 0.483806102919,
			"0.016": 0.0,
			"0.017": 0.0,
			"0.018": 0.0,
			"0.019": 0.0,
			"0.02": 0.0,
			"0.021": 0.0,
			"0.022": 0.0,
			"0.023": 0.0,
			"0.024": 0.0,
			"0.025": 0.0
		}
	}
}
