{
	 "smiles": "NC1=C(C=CC=C1)N1CCC2=C(C1)C=CC=C2", 
	 "Tm": 388.15, 
	 "num_atms": 33, 
	 "gaussian": { 
		 "optdone": 1, 
		 "sigma_profile": "yes", 
		 "theory": "DFT", 
		 "functional": "B3LYP", 
		 "basiset": "6-31G**", 
		 "properties": { 
			 "R2extent": 4826.6289, 
			 "electric_dipole_moment_norm": 1.05443084648, 
			 "electric_quadrupole_moment_norm": 6.03499102816, 
			 "total_energy": -690.747873902, 
			 "HOMO_LUMO_gap": 0.18775, 
			 "cosmo_polarized_energy": -8.97, 
			 "cosmo_cavitation_energy": 34.48, 
			 "cosmo_dispersion_energy": -25.08, 
			 "cosmo_repulsion_energy": 1.91, 
			 "cosmo_total_nonelectrostatic_energy": 11.31, 
			 "SMD_solvation_energy": 4.44 
		},
		"coords": [
			{
				"x": 2.131043153,
				"y": 0.836772501,
				"z": 2.281377154,
				"element": "N" 
			},
			{
				"x": 1.0523336064,
				"y": 0.1297782478,
				"z": 2.8212250894,
				"element": "C" 
			},
			{
				"x": -0.0740114611,
				"y": -0.1368866446,
				"z": 1.9999355896,
				"element": "C" 
			},
			{
				"x": -1.152979786,
				"y": -0.844966793,
				"z": 2.5367828364,
				"element": "C" 
			},
			{
				"x": -1.1471285168,
				"y": -1.2773780554,
				"z": 3.8661131957,
				"element": "C" 
			},
			{
				"x": -0.0507140335,
				"y": -0.9890241128,
				"z": 4.676297642,
				"element": "C" 
			},
			{
				"x": 1.0405798857,
				"y": -0.2929654409,
				"z": 4.1561811497,
				"element": "C" 
			},
			{
				"x": -0.0085678676,
				"y": 0.3143081172,
				"z": 0.6438895741,
				"element": "N" 
			},
			{
				"x": -0.2304526095,
				"y": 1.7608836238,
				"z": 0.4669128604,
				"element": "C" 
			},
			{
				"x": 0.3684547192,
				"y": 2.2116826171,
				"z": -0.8661326383,
				"element": "C" 
			},
			{
				"x": -0.0142501628,
				"y": 1.2950776964,
				"z": -2.0103144148,
				"element": "C" 
			},
			{
				"x": -0.5303020168,
				"y": 0.0162103469,
				"z": -1.7501134328,
				"element": "C" 
			},
			{
				"x": -0.7804115628,
				"y": -0.4525871161,
				"z": -0.3288512272,
				"element": "C" 
			},
			{
				"x": -0.8606381901,
				"y": -0.8252503526,
				"z": -2.8202993074,
				"element": "C" 
			},
			{
				"x": -0.6825199183,
				"y": -0.413139377,
				"z": -4.138693326,
				"element": "C" 
			},
			{
				"x": -0.1680756336,
				"y": 0.859276831,
				"z": -4.4005863277,
				"element": "C" 
			},
			{
				"x": 0.1609928419,
				"y": 1.7005926749,
				"z": -3.3405485151,
				"element": "C" 
			},
			{
				"x": 2.2116615429,
				"y": 0.6861844318,
				"z": 1.2805857518,
				"element": "H" 
			},
			{
				"x": 3.0071860984,
				"y": 0.6865306406,
				"z": 2.7644675424,
				"element": "H" 
			},
			{
				"x": -2.0127084796,
				"y": -1.063620415,
				"z": 1.9118869999,
				"element": "H" 
			},
			{
				"x": -1.9962534257,
				"y": -1.8271681431,
				"z": 4.2604099032,
				"element": "H" 
			},
			{
				"x": -0.0330616228,
				"y": -1.3153801912,
				"z": 5.7122883682,
				"element": "H" 
			},
			{
				"x": 1.905248634,
				"y": -0.085842703,
				"z": 4.7826801454,
				"element": "H" 
			},
			{
				"x": 0.2467266536,
				"y": 2.2918771319,
				"z": 1.2927456272,
				"element": "H" 
			},
			{
				"x": -1.31038745,
				"y": 1.9924508802,
				"z": 0.5007371167,
				"element": "H" 
			},
			{
				"x": 1.4631048332,
				"y": 2.2375464962,
				"z": -0.7726928836,
				"element": "H" 
			},
			{
				"x": 0.0538558123,
				"y": 3.2397198147,
				"z": -1.0841828363,
				"element": "H" 
			},
			{
				"x": -1.8691951848,
				"y": -0.3835725561,
				"z": -0.1354860403,
				"element": "H" 
			},
			{
				"x": -0.5125942107,
				"y": -1.510070671,
				"z": -0.2293922254,
				"element": "H" 
			},
			{
				"x": -1.2603446538,
				"y": -1.8158073605,
				"z": -2.6134427816,
				"element": "H" 
			},
			{
				"x": -0.9402827193,
				"y": -1.079837603,
				"z": -4.9566317542,
				"element": "H" 
			},
			{
				"x": -0.0260156322,
				"y": 1.1928971584,
				"z": -5.4246071181,
				"element": "H" 
			},
			{
				"x": 0.5599073572,
				"y": 2.6925083254,
				"z": -3.5418417172,
				"element": "H" 
			}
		],
		 "valence_orbital": [ 
			{
				"type": "occ",
				"energy": -0.25775,
				"method": "rhf"
			},
			{
				"type": "occ",
				"energy": -0.24067,
				"method": "rhf"
			},
			{
				"type": "occ",
				"energy": -0.23412,
				"method": "rhf"
			},
			{
				"type": "occ",
				"energy": -0.21678,
				"method": "rhf"
			},
			{
				"type": "occ",
				"energy": -0.18887,
				"method": "rhf"
			},
			{
				"type": "unocc",
				"energy": -0.00112,
				"method": "rhf"
			},
			{
				"type": "unocc",
				"energy": 0.00434,
				"method": "rhf"
			},
			{
				"type": "unocc",
				"energy": 0.01252,
				"method": "rhf"
			},
			{
				"type": "unocc",
				"energy": 0.02421,
				"method": "rhf"
			},
			{
				"type": "unocc",
				"energy": 0.08655,
				"method": "rhf"
			}
		],
		"cosmo_sigma_profile": { 
			"-0.025": 0.0,
			"-0.024": 0.0,
			"-0.023": 0.0,
			"-0.022": 0.0,
			"-0.021": 0.0,
			"-0.02": 0.0,
			"-0.019": 0.0,
			"-0.018": 0.0,
			"-0.017": 0.0,
			"-0.016": 0.0,
			"-0.015": 0.0,
			"-0.014": 0.0,
			"-0.013": 0.0,
			"-0.012": 0.699558588411,
			"-0.011": 1.49458949521,
			"-0.01": 1.27412758482,
			"-0.009": 1.80842112586,
			"-0.008": 2.5758266454,
			"-0.007": 2.9601300107,
			"-0.006": 3.73446703474,
			"-0.005": 17.7427703935,
			"-0.004": 24.1903995829,
			"-0.003": 33.3601792568,
			"-0.002": 31.215121677,
			"-0.001": 24.1938496068,
			"0.0": 16.8600771484,
			"0.001": 14.4618324055,
			"0.002": 13.4618025515,
			"0.003": 13.8133213642,
			"0.004": 15.5623991148,
			"0.005": 15.6115805726,
			"0.006": 17.4603030948,
			"0.007": 12.603943613,
			"0.008": 4.2777615312,
			"0.009": 0.686834534566,
			"0.01": 0.458207717223,
			"0.011": 0.423783779704,
			"0.012": 0.562860417039,
			"0.013": 0.776046787793,
			"0.014": 0.185191782591,
			"0.015": 0.0,
			"0.016": 0.0,
			"0.017": 0.0,
			"0.018": 0.0,
			"0.019": 0.0,
			"0.02": 0.0,
			"0.021": 0.0,
			"0.022": 0.0,
			"0.023": 0.0,
			"0.024": 0.0,
			"0.025": 0.0
		}
	}
}
