{
	 "smiles": "CC(C)CC(=O)C=CC1=CC=CC=C1", 
	 "Tm": 316.15, 
	 "num_atms": 30, 
	 "gaussian": { 
		 "optdone": 1, 
		 "sigma_profile": "yes", 
		 "theory": "DFT", 
		 "functional": "B3LYP", 
		 "basiset": "6-31G**", 
		 "properties": { 
			 "R2extent": 4576.4066, 
			 "electric_dipole_moment_norm": 3.79265668101, 
			 "electric_quadrupole_moment_norm": 11.1391276422, 
			 "total_energy": -580.248104279, 
			 "HOMO_LUMO_gap": 0.16425, 
			 "cosmo_polarized_energy": -9.81, 
			 "cosmo_cavitation_energy": 32.91, 
			 "cosmo_dispersion_energy": -23.08, 
			 "cosmo_repulsion_energy": 1.82, 
			 "cosmo_total_nonelectrostatic_energy": 11.65, 
			 "SMD_solvation_energy": 6.05 
		},
		"coords": [
			{
				"x": 1.1783178988,
				"y": -0.0416673367,
				"z": 3.8896824822,
				"element": "C" 
			},
			{
				"x": 0.641473371,
				"y": 0.7446501242,
				"z": 2.6853308798,
				"element": "C" 
			},
			{
				"x": -0.8519980934,
				"y": 0.4665011198,
				"z": 2.4565090819,
				"element": "C" 
			},
			{
				"x": 1.4847417923,
				"y": 0.5155985645,
				"z": 1.39863454,
				"element": "C" 
			},
			{
				"x": 1.4146054539,
				"y": -0.9084277996,
				"z": 0.8547196259,
				"element": "C" 
			},
			{
				"x": 1.9643482176,
				"y": -1.8242661403,
				"z": 1.4612832288,
				"element": "O" 
			},
			{
				"x": 0.6887689264,
				"y": -1.2266538134,
				"z": -0.3953538572,
				"element": "C" 
			},
			{
				"x": 0.0345437744,
				"y": -0.3577216581,
				"z": -1.1931355569,
				"element": "C" 
			},
			{
				"x": -0.6884622954,
				"y": -0.6624906321,
				"z": -2.4311357079,
				"element": "C" 
			},
			{
				"x": -0.8019765841,
				"y": -1.96366979,
				"z": -2.9592836696,
				"element": "C" 
			},
			{
				"x": -1.5002101529,
				"y": -2.1922790647,
				"z": -4.1401233319,
				"element": "C" 
			},
			{
				"x": -2.1027304415,
				"y": -1.1303327569,
				"z": -4.8230392097,
				"element": "C" 
			},
			{
				"x": -2.0008367583,
				"y": 0.1647863386,
				"z": -4.3137122943,
				"element": "C" 
			},
			{
				"x": -1.3010381231,
				"y": 0.3936751105,
				"z": -3.1307050659,
				"element": "C" 
			},
			{
				"x": 2.2251072238,
				"y": 0.2092223975,
				"z": 4.0912945779,
				"element": "H" 
			},
			{
				"x": 1.129172966,
				"y": -1.1195816727,
				"z": 3.7160670106,
				"element": "H" 
			},
			{
				"x": 0.5958606564,
				"y": 0.1927936353,
				"z": 4.7877035579,
				"element": "H" 
			},
			{
				"x": 0.7469194667,
				"y": 1.8146318076,
				"z": 2.9140925376,
				"element": "H" 
			},
			{
				"x": -1.4340321082,
				"y": 0.7310522599,
				"z": 3.3456126553,
				"element": "H" 
			},
			{
				"x": -1.0339079582,
				"y": -0.5936678217,
				"z": 2.2475989792,
				"element": "H" 
			},
			{
				"x": -1.2486673613,
				"y": 1.0450094886,
				"z": 1.6146485653,
				"element": "H" 
			},
			{
				"x": 2.5385742059,
				"y": 0.7037808302,
				"z": 1.6329007514,
				"element": "H" 
			},
			{
				"x": 1.18596455,
				"y": 1.2484146941,
				"z": 0.6433050293,
				"element": "H" 
			},
			{
				"x": 0.7310011579,
				"y": -2.2863694168,
				"z": -0.6356245357,
				"element": "H" 
			},
			{
				"x": 0.0220284336,
				"y": 0.6944971258,
				"z": -0.9168510778,
				"element": "H" 
			},
			{
				"x": -0.3417722684,
				"y": -2.799627544,
				"z": -2.4425005946,
				"element": "H" 
			},
			{
				"x": -1.5768726114,
				"y": -3.20239476,
				"z": -4.5318976573,
				"element": "H" 
			},
			{
				"x": -2.647110727,
				"y": -1.3139535136,
				"z": -5.7446743117,
				"element": "H" 
			},
			{
				"x": -2.4654247309,
				"y": 0.9956017708,
				"z": -4.8366202327,
				"element": "H" 
			},
			{
				"x": -1.2234878806,
				"y": 1.4039884531,
				"z": -2.7367263999,
				"element": "H" 
			}
		],
		 "valence_orbital": [ 
			{
				"type": "occ",
				"energy": -0.32232,
				"method": "rhf"
			},
			{
				"type": "occ",
				"energy": -0.30631,
				"method": "rhf"
			},
			{
				"type": "occ",
				"energy": -0.26276,
				"method": "rhf"
			},
			{
				"type": "occ",
				"energy": -0.23624,
				"method": "rhf"
			},
			{
				"type": "occ",
				"energy": -0.23581,
				"method": "rhf"
			},
			{
				"type": "unocc",
				"energy": -0.07156,
				"method": "rhf"
			},
			{
				"type": "unocc",
				"energy": -0.01188,
				"method": "rhf"
			},
			{
				"type": "unocc",
				"energy": 0.00939,
				"method": "rhf"
			},
			{
				"type": "unocc",
				"energy": 0.06611,
				"method": "rhf"
			},
			{
				"type": "unocc",
				"energy": 0.08386,
				"method": "rhf"
			}
		],
		"cosmo_sigma_profile": { 
			"-0.025": 0.0,
			"-0.024": 0.0,
			"-0.023": 0.0,
			"-0.022": 0.0,
			"-0.021": 0.0,
			"-0.02": 0.0,
			"-0.019": 0.0,
			"-0.018": 0.0,
			"-0.017": 0.0,
			"-0.016": 0.0,
			"-0.015": 0.0,
			"-0.014": 0.0,
			"-0.013": 0.0,
			"-0.012": 0.0,
			"-0.011": 0.0,
			"-0.01": 0.0,
			"-0.009": 0.0,
			"-0.008": 1.43406596428,
			"-0.007": 6.46564515625,
			"-0.006": 12.3563273985,
			"-0.005": 13.9971413568,
			"-0.004": 16.7095386386,
			"-0.003": 21.0187775028,
			"-0.002": 28.7852448584,
			"-0.001": 28.2055120584,
			"0.0": 24.5241735167,
			"0.001": 26.6082555555,
			"0.002": 23.0929931665,
			"0.003": 15.410669033,
			"0.004": 13.6308956029,
			"0.005": 8.43375444505,
			"0.006": 1.67769844398,
			"0.007": 1.99583815299,
			"0.008": 1.00268506971,
			"0.009": 1.5556059204,
			"0.01": 2.19051913603,
			"0.011": 2.20409422916,
			"0.012": 2.7330760433,
			"0.013": 3.92223108662,
			"0.014": 1.67572523911,
			"0.015": 0.0299328471815,
			"0.016": 0.0,
			"0.017": 0.0,
			"0.018": 0.0,
			"0.019": 0.0,
			"0.02": 0.0,
			"0.021": 0.0,
			"0.022": 0.0,
			"0.023": 0.0,
			"0.024": 0.0,
			"0.025": 0.0
		}
	}
}
