{
	 "smiles": "O=C1CSC(=S)N1C1=CN=CC=C1", 
	 "Tm": 433.15, 
	 "num_atms": 19, 
	 "gaussian": { 
		 "optdone": 1, 
		 "sigma_profile": "yes", 
		 "theory": "DFT", 
		 "functional": "B3LYP", 
		 "basiset": "6-31G**", 
		 "properties": { 
			 "R2extent": 4892.9732, 
			 "electric_dipole_moment_norm": 3.12555231279, 
			 "electric_quadrupole_moment_norm": 20.5595145553, 
			 "total_energy": -1289.5666044, 
			 "HOMO_LUMO_gap": 0.16048, 
			 "cosmo_polarized_energy": -15.36, 
			 "cosmo_cavitation_energy": 27.37, 
			 "cosmo_dispersion_energy": -20.3, 
			 "cosmo_repulsion_energy": 1.53, 
			 "cosmo_total_nonelectrostatic_energy": 8.6, 
			 "SMD_solvation_energy": 2.85 
		},
		"coords": [
			{
				"x": -0.4924899199,
				"y": -2.4327423092,
				"z": 0.5242701731,
				"element": "O" 
			},
			{
				"x": -0.8285125435,
				"y": -2.0696520387,
				"z": 1.6270478462,
				"element": "C" 
			},
			{
				"x": -0.8220716392,
				"y": -2.9470108311,
				"z": 2.8706855915,
				"element": "C" 
			},
			{
				"x": -1.3747087986,
				"y": -1.9085011651,
				"z": 4.2678227694,
				"element": "S" 
			},
			{
				"x": -1.5957192203,
				"y": -0.475949935,
				"z": 3.2504532853,
				"element": "C" 
			},
			{
				"x": -2.0965385493,
				"y": 0.9698266728,
				"z": 3.8441286969,
				"element": "S" 
			},
			{
				"x": -1.2788342861,
				"y": -0.7692588514,
				"z": 1.9270195542,
				"element": "N" 
			},
			{
				"x": -1.3861274545,
				"y": 0.2037267705,
				"z": 0.8745087615,
				"element": "C" 
			},
			{
				"x": -2.6410422183,
				"y": 0.5433866473,
				"z": 0.3641499025,
				"element": "C" 
			},
			{
				"x": -2.8073474379,
				"y": 1.4204952377,
				"z": -0.6273589923,
				"element": "N" 
			},
			{
				"x": -1.7082085237,
				"y": 1.9846652083,
				"z": -1.1447614258,
				"element": "C" 
			},
			{
				"x": -0.4136025227,
				"y": 1.7036693114,
				"z": -0.7058816083,
				"element": "C" 
			},
			{
				"x": -0.2460155653,
				"y": 0.78896384,
				"z": 0.3310880313,
				"element": "C" 
			},
			{
				"x": -1.4953003788,
				"y": -3.7938505784,
				"z": 2.7148411,
				"element": "H" 
			},
			{
				"x": 0.1872683634,
				"y": -3.3316193538,
				"z": 3.0361902153,
				"element": "H" 
			},
			{
				"x": -3.5377188145,
				"y": 0.0884487656,
				"z": 0.7793180329,
				"element": "H" 
			},
			{
				"x": -1.8713263809,
				"y": 2.6952683976,
				"z": -1.9525634614,
				"element": "H" 
			},
			{
				"x": 0.4410678059,
				"y": 2.1887986855,
				"z": -1.1656370529,
				"element": "H" 
			},
			{
				"x": 0.7379280841,
				"y": 0.5340355261,
				"z": 0.7106785805,
				"element": "H" 
			}
		],
		 "valence_orbital": [ 
			{
				"type": "occ",
				"energy": -0.29324,
				"method": "rhf"
			},
			{
				"type": "occ",
				"energy": -0.27708,
				"method": "rhf"
			},
			{
				"type": "occ",
				"energy": -0.26553,
				"method": "rhf"
			},
			{
				"type": "occ",
				"energy": -0.25224,
				"method": "rhf"
			},
			{
				"type": "occ",
				"energy": -0.23536,
				"method": "rhf"
			},
			{
				"type": "unocc",
				"energy": -0.07488,
				"method": "rhf"
			},
			{
				"type": "unocc",
				"energy": -0.04177,
				"method": "rhf"
			},
			{
				"type": "unocc",
				"energy": -0.03235,
				"method": "rhf"
			},
			{
				"type": "unocc",
				"energy": -0.00802,
				"method": "rhf"
			},
			{
				"type": "unocc",
				"energy": -0.00093,
				"method": "rhf"
			}
		],
		"cosmo_sigma_profile": { 
			"-0.025": 0.0,
			"-0.024": 0.0,
			"-0.023": 0.0,
			"-0.022": 0.0,
			"-0.021": 0.0,
			"-0.02": 0.0,
			"-0.019": 0.0,
			"-0.018": 0.0,
			"-0.017": 0.0,
			"-0.016": 0.0,
			"-0.015": 0.0,
			"-0.014": 0.0,
			"-0.013": 0.0,
			"-0.012": 0.0,
			"-0.011": 0.053744261541,
			"-0.01": 4.91933735209,
			"-0.009": 7.8229342968,
			"-0.008": 12.6748348827,
			"-0.007": 16.8617872676,
			"-0.006": 13.893248936,
			"-0.005": 9.88173563215,
			"-0.004": 9.68652411991,
			"-0.003": 6.63558158858,
			"-0.002": 7.60749717443,
			"-0.001": 8.96748319743,
			"0.0": 11.5939039596,
			"0.001": 19.0517584905,
			"0.002": 17.0907894927,
			"0.003": 13.6381850176,
			"0.004": 12.6624165405,
			"0.005": 10.0970953114,
			"0.006": 10.5868225961,
			"0.007": 6.8543824276,
			"0.008": 6.95695745603,
			"0.009": 4.73402824588,
			"0.01": 5.95364307551,
			"0.011": 3.13885187976,
			"0.012": 1.09614090189,
			"0.013": 0.789179199598,
			"0.014": 1.00218935659,
			"0.015": 0.84445087697,
			"0.016": 0.340778167476,
			"0.017": 0.0,
			"0.018": 0.0,
			"0.019": 0.0,
			"0.02": 0.0,
			"0.021": 0.0,
			"0.022": 0.0,
			"0.023": 0.0,
			"0.024": 0.0,
			"0.025": 0.0
		}
	}
}
