{
	 "smiles": "CC(Cl)C1=NC(O)=CC(C)=N1", 
	 "Tm": 406.15, 
	 "num_atms": 20, 
	 "gaussian": { 
		 "optdone": 1, 
		 "sigma_profile": "yes", 
		 "theory": "DFT", 
		 "functional": "B3LYP", 
		 "basiset": "6-31G**", 
		 "properties": { 
			 "R2extent": 2769.0384, 
			 "electric_dipole_moment_norm": 2.7409238023, 
			 "electric_quadrupole_moment_norm": 11.3860265523, 
			 "total_energy": -917.115510901, 
			 "HOMO_LUMO_gap": 0.22185, 
			 "cosmo_polarized_energy": -10.09, 
			 "cosmo_cavitation_energy": 25.79, 
			 "cosmo_dispersion_energy": -18.82, 
			 "cosmo_repulsion_energy": 1.56, 
			 "cosmo_total_nonelectrostatic_energy": 8.54, 
			 "SMD_solvation_energy": 2.29 
		},
		"coords": [
			{
				"x": 1.7989014354,
				"y": -2.209424793,
				"z": -0.0943038384,
				"element": "C" 
			},
			{
				"x": 0.6501325647,
				"y": -2.0965666544,
				"z": -1.0823230718,
				"element": "C" 
			},
			{
				"x": 1.2856447263,
				"y": -2.3250697203,
				"z": -2.7988397387,
				"element": "Cl" 
			},
			{
				"x": -0.0915802832,
				"y": -0.7763699197,
				"z": -1.0334130084,
				"element": "C" 
			},
			{
				"x": -1.4179467024,
				"y": -0.8451026728,
				"z": -1.230152583,
				"element": "N" 
			},
			{
				"x": -2.072150131,
				"y": 0.3141451314,
				"z": -1.2075553281,
				"element": "C" 
			},
			{
				"x": -3.4013829124,
				"y": 0.2857888071,
				"z": -1.4015157615,
				"element": "O" 
			},
			{
				"x": -1.4345301591,
				"y": 1.5413251296,
				"z": -0.9883806749,
				"element": "C" 
			},
			{
				"x": -0.0599104342,
				"y": 1.4949021395,
				"z": -0.7848514384,
				"element": "C" 
			},
			{
				"x": 0.7536834316,
				"y": 2.7345437113,
				"z": -0.5324639906,
				"element": "C" 
			},
			{
				"x": 0.6164717099,
				"y": 0.3260096054,
				"z": -0.8049920566,
				"element": "N" 
			},
			{
				"x": 1.4056282195,
				"y": -2.1371485659,
				"z": 0.9262451596,
				"element": "H" 
			},
			{
				"x": 2.5125825299,
				"y": -1.3983674837,
				"z": -0.2445018404,
				"element": "H" 
			},
			{
				"x": 2.3057595727,
				"y": -3.1705613641,
				"z": -0.20513268,
				"element": "H" 
			},
			{
				"x": -0.0763568346,
				"y": -2.8997973309,
				"z": -0.9611367947,
				"element": "H" 
			},
			{
				"x": -3.6361906465,
				"y": -0.6458676975,
				"z": -1.5448090325,
				"element": "H" 
			},
			{
				"x": -1.9971232239,
				"y": 2.4668274127,
				"z": -0.9776773201,
				"element": "H" 
			},
			{
				"x": 0.1329284268,
				"y": 3.6332144575,
				"z": -0.5137393196,
				"element": "H" 
			},
			{
				"x": 1.51573236,
				"y": 2.8447404993,
				"z": -1.3106699274,
				"element": "H" 
			},
			{
				"x": 1.2831063503,
				"y": 2.6467793086,
				"z": 0.4216132456,
				"element": "H" 
			}
		],
		 "valence_orbital": [ 
			{
				"type": "occ",
				"energy": -0.29744,
				"method": "rhf"
			},
			{
				"type": "occ",
				"energy": -0.28984,
				"method": "rhf"
			},
			{
				"type": "occ",
				"energy": -0.28626,
				"method": "rhf"
			},
			{
				"type": "occ",
				"energy": -0.26391,
				"method": "rhf"
			},
			{
				"type": "occ",
				"energy": -0.26346,
				"method": "rhf"
			},
			{
				"type": "unocc",
				"energy": -0.04161,
				"method": "rhf"
			},
			{
				"type": "unocc",
				"energy": -0.02719,
				"method": "rhf"
			},
			{
				"type": "unocc",
				"energy": 0.04299,
				"method": "rhf"
			},
			{
				"type": "unocc",
				"energy": 0.07846,
				"method": "rhf"
			},
			{
				"type": "unocc",
				"energy": 0.10365,
				"method": "rhf"
			}
		],
		"cosmo_sigma_profile": { 
			"-0.025": 0.0,
			"-0.024": 0.0,
			"-0.023": 0.0,
			"-0.022": 0.0,
			"-0.021": 0.0,
			"-0.02": 0.0,
			"-0.019": 0.0,
			"-0.018": 0.293129530543,
			"-0.017": 0.86725141949,
			"-0.016": 0.805141092288,
			"-0.015": 0.723617636387,
			"-0.014": 0.857881009256,
			"-0.013": 0.676016316733,
			"-0.012": 0.401601277732,
			"-0.011": 0.919809866312,
			"-0.01": 0.747735787296,
			"-0.009": 0.411827272799,
			"-0.008": 1.30980307429,
			"-0.007": 5.20774310339,
			"-0.006": 6.8619587036,
			"-0.005": 13.2968633734,
			"-0.004": 13.5034534215,
			"-0.003": 14.2681684475,
			"-0.002": 17.8380775132,
			"-0.001": 24.9318883174,
			"0.0": 19.7341634022,
			"0.001": 11.7335172094,
			"0.002": 9.14580152468,
			"0.003": 7.25461275017,
			"0.004": 8.9144849075,
			"0.005": 10.6768790393,
			"0.006": 14.0425031601,
			"0.007": 8.5406855547,
			"0.008": 3.28078138671,
			"0.009": 4.45704884314,
			"0.01": 3.01137621523,
			"0.011": 0.771270921706,
			"0.012": 0.901290370887,
			"0.013": 0.0325621602173,
			"0.014": 0.0,
			"0.015": 0.0,
			"0.016": 0.0,
			"0.017": 0.0,
			"0.018": 0.0,
			"0.019": 0.0,
			"0.02": 0.0,
			"0.021": 0.0,
			"0.022": 0.0,
			"0.023": 0.0,
			"0.024": 0.0,
			"0.025": 0.0
		}
	}
}
