{
	 "smiles": "OS(=O)(=O)C1CCCNC1", 
	 "Tm": 578.15, 
	 "num_atms": 21, 
	 "gaussian": { 
		 "optdone": 1, 
		 "sigma_profile": "yes", 
		 "theory": "DFT", 
		 "functional": "B3LYP", 
		 "basiset": "6-31G**", 
		 "properties": { 
			 "R2extent": 2509.8149, 
			 "electric_dipole_moment_norm": 3.88954344236, 
			 "electric_quadrupole_moment_norm": 15.5908274877, 
			 "total_energy": -875.709171832, 
			 "HOMO_LUMO_gap": 0.26251, 
			 "cosmo_polarized_energy": -15.96, 
			 "cosmo_cavitation_energy": 23.9, 
			 "cosmo_dispersion_energy": -18.57, 
			 "cosmo_repulsion_energy": 1.46, 
			 "cosmo_total_nonelectrostatic_energy": 6.79, 
			 "SMD_solvation_energy": 0.03 
		},
		"coords": [
			{
				"x": 3.4273835106,
				"y": -1.1856489451,
				"z": -0.9921300311,
				"element": "O" 
			},
			{
				"x": 1.9327824634,
				"y": -1.7711675364,
				"z": -1.3865558569,
				"element": "S" 
			},
			{
				"x": 1.7925805198,
				"y": -3.0948388059,
				"z": -0.7912385518,
				"element": "O" 
			},
			{
				"x": 1.7825863308,
				"y": -1.5742603486,
				"z": -2.8313761256,
				"element": "O" 
			},
			{
				"x": 0.8762577641,
				"y": -0.610742365,
				"z": -0.4728419062,
				"element": "C" 
			},
			{
				"x": 0.9949107911,
				"y": 0.8219396705,
				"z": -1.0098087731,
				"element": "C" 
			},
			{
				"x": 0.0784131297,
				"y": 1.7545237749,
				"z": -0.1987722566,
				"element": "C" 
			},
			{
				"x": 0.3536212248,
				"y": 1.6177069537,
				"z": 1.3083696846,
				"element": "C" 
			},
			{
				"x": 0.2842761483,
				"y": 0.2390256815,
				"z": 1.8011144471,
				"element": "N" 
			},
			{
				"x": 1.1388533772,
				"y": -0.6764017426,
				"z": 1.0520482085,
				"element": "C" 
			},
			{
				"x": 3.8953415158,
				"y": -1.0567900785,
				"z": -1.8342304448,
				"element": "H" 
			},
			{
				"x": -0.124973468,
				"y": -1.010089361,
				"z": -0.6834431617,
				"element": "H" 
			},
			{
				"x": 2.0363620807,
				"y": 1.1513395294,
				"z": -0.90746238,
				"element": "H" 
			},
			{
				"x": 0.7459225338,
				"y": 0.8482944712,
				"z": -2.074387312,
				"element": "H" 
			},
			{
				"x": 0.2249288836,
				"y": 2.7918350284,
				"z": -0.5226608546,
				"element": "H" 
			},
			{
				"x": -0.9724561409,
				"y": 1.5050845418,
				"z": -0.4015174657,
				"element": "H" 
			},
			{
				"x": -0.3484914462,
				"y": 2.2265785439,
				"z": 1.8874599216,
				"element": "H" 
			},
			{
				"x": 1.3606812502,
				"y": 1.9979688303,
				"z": 1.529687556,
				"element": "H" 
			},
			{
				"x": -0.6788613373,
				"y": -0.0889436174,
				"z": 1.7761961273,
				"element": "H" 
			},
			{
				"x": 2.1848984671,
				"y": -0.4075215085,
				"z": 1.242318663,
				"element": "H" 
			},
			{
				"x": 0.9893824014,
				"y": -1.6953927167,
				"z": 1.4165305119,
				"element": "H" 
			}
		],
		 "valence_orbital": [ 
			{
				"type": "occ",
				"energy": -0.34499,
				"method": "rhf"
			},
			{
				"type": "occ",
				"energy": -0.32361,
				"method": "rhf"
			},
			{
				"type": "occ",
				"energy": -0.31281,
				"method": "rhf"
			},
			{
				"type": "occ",
				"energy": -0.30309,
				"method": "rhf"
			},
			{
				"type": "occ",
				"energy": -0.23269,
				"method": "rhf"
			},
			{
				"type": "unocc",
				"energy": 0.02982,
				"method": "rhf"
			},
			{
				"type": "unocc",
				"energy": 0.05861,
				"method": "rhf"
			},
			{
				"type": "unocc",
				"energy": 0.07178,
				"method": "rhf"
			},
			{
				"type": "unocc",
				"energy": 0.08587,
				"method": "rhf"
			},
			{
				"type": "unocc",
				"energy": 0.09167,
				"method": "rhf"
			}
		],
		"cosmo_sigma_profile": { 
			"-0.025": 0.0,
			"-0.024": 0.0,
			"-0.023": 0.0,
			"-0.022": 0.0,
			"-0.021": 0.0,
			"-0.02": 0.0802552507511,
			"-0.019": 1.04894811573,
			"-0.018": 0.948444364289,
			"-0.017": 0.78583662134,
			"-0.016": 0.465089090465,
			"-0.015": 0.812401579555,
			"-0.014": 1.12299451138,
			"-0.013": 0.624028293462,
			"-0.012": 0.669527745962,
			"-0.011": 1.09395111565,
			"-0.01": 2.45639406321,
			"-0.009": 4.05546346889,
			"-0.008": 5.47986962578,
			"-0.007": 4.68453937348,
			"-0.006": 4.19714860295,
			"-0.005": 5.95255197748,
			"-0.004": 16.7584075261,
			"-0.003": 20.5908520882,
			"-0.002": 19.5307851644,
			"-0.001": 15.9393328835,
			"0.0": 9.62306030171,
			"0.001": 6.51941453174,
			"0.002": 4.25819227215,
			"0.003": 5.13593060777,
			"0.004": 4.0902994159,
			"0.005": 3.58818292422,
			"0.006": 4.01874793713,
			"0.007": 4.6592162542,
			"0.008": 6.40334402543,
			"0.009": 6.61351362581,
			"0.01": 11.0599608548,
			"0.011": 8.25863224188,
			"0.012": 1.23107339061,
			"0.013": 0.833782423636,
			"0.014": 0.347221754347,
			"0.015": 0.356472881112,
			"0.016": 0.357041425153,
			"0.017": 0.896982969569,
			"0.018": 0.0812907101967,
			"0.019": 0.0,
			"0.02": 0.0,
			"0.021": 0.0,
			"0.022": 0.0,
			"0.023": 0.0,
			"0.024": 0.0,
			"0.025": 0.0
		}
	}
}
