{
	 "smiles": "COC1=C(CN=[N+]=[N-])C=C(C=C1)[N+]([O-])=O", 
	 "Tm": 307.15, 
	 "num_atms": 23, 
	 "gaussian": { 
		 "optdone": 1, 
		 "sigma_profile": "yes", 
		 "theory": "DFT", 
		 "functional": "B3LYP", 
		 "basiset": "6-31G**", 
		 "properties": { 
			 "R2extent": 3753.6484, 
			 "electric_dipole_moment_norm": 5.10225667426, 
			 "electric_quadrupole_moment_norm": 22.3465829222, 
			 "total_energy": -754.167193784, 
			 "HOMO_LUMO_gap": 0.16604, 
			 "cosmo_polarized_energy": -13.13, 
			 "cosmo_cavitation_energy": 29.47, 
			 "cosmo_dispersion_energy": -20.47, 
			 "cosmo_repulsion_energy": 1.6, 
			 "cosmo_total_nonelectrostatic_energy": 10.6, 
			 "SMD_solvation_energy": 4.72 
		},
		"coords": [
			{
				"x": -2.7894418274,
				"y": 1.1879990827,
				"z": 0.6169829925,
				"element": "C" 
			},
			{
				"x": -1.8273071778,
				"y": 0.4802082955,
				"z": -0.1614133735,
				"element": "O" 
			},
			{
				"x": -0.5618223647,
				"y": 0.3483447674,
				"z": 0.3029969647,
				"element": "C" 
			},
			{
				"x": 0.3295928838,
				"y": -0.3185767162,
				"z": -0.5715271575,
				"element": "C" 
			},
			{
				"x": -0.1594103359,
				"y": -0.8184235231,
				"z": -1.9129082013,
				"element": "C" 
			},
			{
				"x": -0.3870640642,
				"y": 0.2845990558,
				"z": -2.8853083561,
				"element": "N" 
			},
			{
				"x": -1.5544806909,
				"y": 0.6597588526,
				"z": -3.0247936941,
				"element": "N" 
			},
			{
				"x": -2.5857062064,
				"y": 1.0937736822,
				"z": -3.2567373367,
				"element": "N" 
			},
			{
				"x": 1.6465273569,
				"y": -0.4987405897,
				"z": -0.1727500125,
				"element": "C" 
			},
			{
				"x": 2.0701158203,
				"y": -0.0278610887,
				"z": 1.0728101481,
				"element": "C" 
			},
			{
				"x": 1.198532163,
				"y": 0.6279590648,
				"z": 1.9357849062,
				"element": "C" 
			},
			{
				"x": -0.1258771459,
				"y": 0.8165952802,
				"z": 1.5499954213,
				"element": "C" 
			},
			{
				"x": 3.461459352,
				"y": -0.2310542259,
				"z": 1.4778886886,
				"element": "N" 
			},
			{
				"x": 3.8068286067,
				"y": 0.2012245588,
				"z": 2.5788084219,
				"element": "O" 
			},
			{
				"x": 4.2049646555,
				"y": -0.8239100318,
				"z": 0.6944635582,
				"element": "O" 
			},
			{
				"x": -2.4640574587,
				"y": 2.2168073331,
				"z": 0.8078439724,
				"element": "H" 
			},
			{
				"x": -2.9817676342,
				"y": 0.6799364919,
				"z": 1.5690070977,
				"element": "H" 
			},
			{
				"x": -3.6999022098,
				"y": 1.2009541807,
				"z": 0.0181343994,
				"element": "H" 
			},
			{
				"x": 0.6066261963,
				"y": -1.4553341561,
				"z": -2.3602095076,
				"element": "H" 
			},
			{
				"x": -1.0715271292,
				"y": -1.4127656027,
				"z": -1.7908662873,
				"element": "H" 
			},
			{
				"x": 2.3598530119,
				"y": -1.0013891112,
				"z": -0.8152456949,
				"element": "H" 
			},
			{
				"x": 1.5623444183,
				"y": 0.9798799447,
				"z": 2.8930003521,
				"element": "H" 
			},
			{
				"x": -0.8075802196,
				"y": 1.3241144551,
				"z": 2.2209426984,
				"element": "H" 
			}
		],
		 "valence_orbital": [ 
			{
				"type": "occ",
				"energy": -0.30532,
				"method": "rhf"
			},
			{
				"type": "occ",
				"energy": -0.28793,
				"method": "rhf"
			},
			{
				"type": "occ",
				"energy": -0.28291,
				"method": "rhf"
			},
			{
				"type": "occ",
				"energy": -0.26265,
				"method": "rhf"
			},
			{
				"type": "occ",
				"energy": -0.25145,
				"method": "rhf"
			},
			{
				"type": "unocc",
				"energy": -0.08541,
				"method": "rhf"
			},
			{
				"type": "unocc",
				"energy": -0.0423,
				"method": "rhf"
			},
			{
				"type": "unocc",
				"energy": -0.02406,
				"method": "rhf"
			},
			{
				"type": "unocc",
				"energy": 0.00328,
				"method": "rhf"
			},
			{
				"type": "unocc",
				"energy": 0.01641,
				"method": "rhf"
			}
		],
		"cosmo_sigma_profile": { 
			"-0.025": 0.0,
			"-0.024": 0.0,
			"-0.023": 0.0,
			"-0.022": 0.0,
			"-0.021": 0.0,
			"-0.02": 0.0,
			"-0.019": 0.0,
			"-0.018": 0.0,
			"-0.017": 0.0,
			"-0.016": 0.0,
			"-0.015": 0.0,
			"-0.014": 0.0,
			"-0.013": 0.0,
			"-0.012": 0.0,
			"-0.011": 0.0,
			"-0.01": 0.0,
			"-0.009": 0.760470114593,
			"-0.008": 5.84745665453,
			"-0.007": 12.8693910576,
			"-0.006": 17.6766435345,
			"-0.005": 15.9947563792,
			"-0.004": 17.9059706447,
			"-0.003": 15.2896852104,
			"-0.002": 13.9176951542,
			"-0.001": 17.3767287832,
			"0.0": 18.6587662735,
			"0.001": 18.9120256791,
			"0.002": 14.4332924601,
			"0.003": 7.97462829569,
			"0.004": 7.57701146938,
			"0.005": 6.60279007265,
			"0.006": 7.68638229785,
			"0.007": 9.42072601592,
			"0.008": 14.2997238868,
			"0.009": 6.53005873036,
			"0.01": 5.20459399007,
			"0.011": 1.60141659565,
			"0.012": 0.0,
			"0.013": 0.0,
			"0.014": 0.0,
			"0.015": 0.0,
			"0.016": 0.0,
			"0.017": 0.0,
			"0.018": 0.0,
			"0.019": 0.0,
			"0.02": 0.0,
			"0.021": 0.0,
			"0.022": 0.0,
			"0.023": 0.0,
			"0.024": 0.0,
			"0.025": 0.0
		}
	}
}
