{
	 "smiles": "NC(=O)COC1=CC=C(C=C1)C(O)=O", 
	 "Tm": 547.15, 
	 "num_atms": 23, 
	 "gaussian": { 
		 "optdone": 1, 
		 "sigma_profile": "yes", 
		 "theory": "DFT", 
		 "functional": "B3LYP", 
		 "basiset": "6-31G**", 
		 "properties": { 
			 "R2extent": 4237.7957, 
			 "electric_dipole_moment_norm": 4.28261072361, 
			 "electric_quadrupole_moment_norm": 34.3941347971, 
			 "total_energy": -704.042126523, 
			 "HOMO_LUMO_gap": 0.19734, 
			 "cosmo_polarized_energy": -23.12, 
			 "cosmo_cavitation_energy": 28.2, 
			 "cosmo_dispersion_energy": -20.47, 
			 "cosmo_repulsion_energy": 1.63, 
			 "cosmo_total_nonelectrostatic_energy": 9.36, 
			 "SMD_solvation_energy": 7.01 
		},
		"coords": [
			{
				"x": 2.4048456645,
				"y": -0.7858382118,
				"z": -0.6069341268,
				"element": "N" 
			},
			{
				"x": 2.7081141815,
				"y": 0.5378525096,
				"z": -0.6460608774,
				"element": "C" 
			},
			{
				"x": 3.3230464949,
				"y": 1.0840403786,
				"z": -1.5491386645,
				"element": "O" 
			},
			{
				"x": 2.2700942136,
				"y": 1.3301138564,
				"z": 0.5937380367,
				"element": "C" 
			},
			{
				"x": 1.155785693,
				"y": 0.7702936874,
				"z": 1.2862055902,
				"element": "O" 
			},
			{
				"x": -0.1004338918,
				"y": 0.9836269256,
				"z": 0.785437871,
				"element": "C" 
			},
			{
				"x": -1.1562520501,
				"y": 0.543660803,
				"z": 1.5997053344,
				"element": "C" 
			},
			{
				"x": -2.4669624495,
				"y": 0.7098532072,
				"z": 1.184065385,
				"element": "C" 
			},
			{
				"x": -2.7583588227,
				"y": 1.3017746565,
				"z": -0.0567524583,
				"element": "C" 
			},
			{
				"x": -1.6966008564,
				"y": 1.7465415029,
				"z": -0.8525969566,
				"element": "C" 
			},
			{
				"x": -0.3705641496,
				"y": 1.5926774978,
				"z": -0.446187095,
				"element": "C" 
			},
			{
				"x": -4.1976370797,
				"y": 1.4541564208,
				"z": -0.4329303894,
				"element": "C" 
			},
			{
				"x": -4.472072616,
				"y": 1.6831379034,
				"z": -1.7468679645,
				"element": "O" 
			},
			{
				"x": -5.1033847752,
				"y": 1.3816374243,
				"z": 0.3650782374,
				"element": "O" 
			},
			{
				"x": 2.6577614306,
				"y": -1.3638337895,
				"z": -1.3935663768,
				"element": "H" 
			},
			{
				"x": 1.8496853177,
				"y": -1.1694243401,
				"z": 0.1415849207,
				"element": "H" 
			},
			{
				"x": 3.0925336303,
				"y": 1.3211229279,
				"z": 1.3152555309,
				"element": "H" 
			},
			{
				"x": 2.0891637811,
				"y": 2.3661655549,
				"z": 0.2946806544,
				"element": "H" 
			},
			{
				"x": -0.9198523238,
				"y": 0.0863394851,
				"z": 2.5547914726,
				"element": "H" 
			},
			{
				"x": -3.293928831,
				"y": 0.3896301211,
				"z": 1.8084408459,
				"element": "H" 
			},
			{
				"x": -1.8809484606,
				"y": 2.2561117072,
				"z": -1.7954729785,
				"element": "H" 
			},
			{
				"x": 0.4268811237,
				"y": 1.9419096888,
				"z": -1.0911542531,
				"element": "H" 
			},
			{
				"x": -3.6798152245,
				"y": 1.5463500828,
				"z": -2.2838217386,
				"element": "H" 
			}
		],
		 "valence_orbital": [ 
			{
				"type": "occ",
				"energy": -0.28488,
				"method": "rhf"
			},
			{
				"type": "occ",
				"energy": -0.27797,
				"method": "rhf"
			},
			{
				"type": "occ",
				"energy": -0.27375,
				"method": "rhf"
			},
			{
				"type": "occ",
				"energy": -0.26808,
				"method": "rhf"
			},
			{
				"type": "occ",
				"energy": -0.24503,
				"method": "rhf"
			},
			{
				"type": "unocc",
				"energy": -0.04769,
				"method": "rhf"
			},
			{
				"type": "unocc",
				"energy": -0.02827,
				"method": "rhf"
			},
			{
				"type": "unocc",
				"energy": 0.00879,
				"method": "rhf"
			},
			{
				"type": "unocc",
				"energy": 0.04947,
				"method": "rhf"
			},
			{
				"type": "unocc",
				"energy": 0.05774,
				"method": "rhf"
			}
		],
		"cosmo_sigma_profile": { 
			"-0.025": 0.0,
			"-0.024": 0.0,
			"-0.023": 0.0,
			"-0.022": 0.0,
			"-0.021": 0.0,
			"-0.02": 0.0,
			"-0.019": 0.2788084267,
			"-0.018": 0.79332968057,
			"-0.017": 1.01485478386,
			"-0.016": 1.04631713975,
			"-0.015": 1.04774252627,
			"-0.014": 2.05543150229,
			"-0.013": 3.40528200493,
			"-0.012": 2.89660383456,
			"-0.011": 3.33008707826,
			"-0.01": 3.79878918413,
			"-0.009": 3.46702313145,
			"-0.008": 6.65857761711,
			"-0.007": 11.0693087988,
			"-0.006": 12.4452364154,
			"-0.005": 12.6600480872,
			"-0.004": 11.3577709707,
			"-0.003": 9.34714331378,
			"-0.002": 9.90607365142,
			"-0.001": 11.291420081,
			"0.0": 11.5532186082,
			"0.001": 12.7653528125,
			"0.002": 16.0124398685,
			"0.003": 16.6577906128,
			"0.004": 5.88493646433,
			"0.005": 4.95478477966,
			"0.006": 4.66191338094,
			"0.007": 3.84601741244,
			"0.008": 4.22791546581,
			"0.009": 4.57499970251,
			"0.01": 5.32592019131,
			"0.011": 6.87501094165,
			"0.012": 7.85697818031,
			"0.013": 6.92378246609,
			"0.014": 4.29379288128,
			"0.015": 0.32288978638,
			"0.016": 0.0,
			"0.017": 0.0,
			"0.018": 0.0,
			"0.019": 0.0,
			"0.02": 0.0,
			"0.021": 0.0,
			"0.022": 0.0,
			"0.023": 0.0,
			"0.024": 0.0,
			"0.025": 0.0
		}
	}
}
