{
	 "smiles": "CC(C)(OC1=CC=CC=C1)C(O)=O", 
	 "Tm": 371.65, 
	 "num_atms": 25, 
	 "gaussian": { 
		 "optdone": 1, 
		 "sigma_profile": "yes", 
		 "theory": "DFT", 
		 "functional": "B3LYP", 
		 "basiset": "6-31G**", 
		 "properties": { 
			 "R2extent": 2834.9134, 
			 "electric_dipole_moment_norm": 4.24252125039, 
			 "electric_quadrupole_moment_norm": 12.3120887956, 
			 "total_energy": -613.973849912, 
			 "HOMO_LUMO_gap": 0.2211, 
			 "cosmo_polarized_energy": -11.45, 
			 "cosmo_cavitation_energy": 27.87, 
			 "cosmo_dispersion_energy": -20.03, 
			 "cosmo_repulsion_energy": 1.58, 
			 "cosmo_total_nonelectrostatic_energy": 9.42, 
			 "SMD_solvation_energy": 6.36 
		},
		"coords": [
			{
				"x": -0.6868253769,
				"y": 0.8537290037,
				"z": 2.0085809113,
				"element": "C" 
			},
			{
				"x": 0.2157539709,
				"y": -0.3339355312,
				"z": 1.6456870421,
				"element": "C" 
			},
			{
				"x": 1.6564296609,
				"y": -0.1904820651,
				"z": 2.1562607737,
				"element": "C" 
			},
			{
				"x": 0.1651781834,
				"y": -0.6476813242,
				"z": 0.230795357,
				"element": "O" 
			},
			{
				"x": 0.5876986985,
				"y": 0.1562229328,
				"z": -0.8039845907,
				"element": "C" 
			},
			{
				"x": 0.4164402387,
				"y": -0.4071845551,
				"z": -2.0769706648,
				"element": "C" 
			},
			{
				"x": 0.8004195222,
				"y": 0.2966498098,
				"z": -3.2135993496,
				"element": "C" 
			},
			{
				"x": 1.3608405241,
				"y": 1.5722123138,
				"z": -3.1012363287,
				"element": "C" 
			},
			{
				"x": 1.5290822932,
				"y": 2.1274936431,
				"z": -1.8352300646,
				"element": "C" 
			},
			{
				"x": 1.1479801705,
				"y": 1.432134454,
				"z": -0.6830702662,
				"element": "C" 
			},
			{
				"x": -0.3888844619,
				"y": -1.5937179946,
				"z": 2.3314080829,
				"element": "C" 
			},
			{
				"x": -0.7778642742,
				"y": -2.5825480934,
				"z": 1.5153849856,
				"element": "O" 
			},
			{
				"x": -0.4942434121,
				"y": -1.6600125647,
				"z": 3.5328128155,
				"element": "O" 
			},
			{
				"x": -0.798022715,
				"y": 0.885205934,
				"z": 3.0942680917,
				"element": "H" 
			},
			{
				"x": -1.677104221,
				"y": 0.7254916263,
				"z": 1.5621794833,
				"element": "H" 
			},
			{
				"x": -0.2757466006,
				"y": 1.8057810694,
				"z": 1.6700459852,
				"element": "H" 
			},
			{
				"x": 2.2649115223,
				"y": -1.0310866651,
				"z": 1.8105766281,
				"element": "H" 
			},
			{
				"x": 1.6397248019,
				"y": -0.2011096134,
				"z": 3.247902364,
				"element": "H" 
			},
			{
				"x": 2.1247248549,
				"y": 0.7360361612,
				"z": 1.8213140678,
				"element": "H" 
			},
			{
				"x": -0.0196680326,
				"y": -1.3981769476,
				"z": -2.1546777397,
				"element": "H" 
			},
			{
				"x": 0.6602927108,
				"y": -0.1552441086,
				"z": -4.191268072,
				"element": "H" 
			},
			{
				"x": 1.6606297784,
				"y": 2.1220935935,
				"z": -3.9875830765,
				"element": "H" 
			},
			{
				"x": 1.9629199219,
				"y": 3.1175699173,
				"z": -1.7280564882,
				"element": "H" 
			},
			{
				"x": 1.2937654757,
				"y": 1.8946452751,
				"z": 0.282466034,
				"element": "H" 
			},
			{
				"x": -0.588133234,
				"y": -2.2856862711,
				"z": 0.6053940185,
				"element": "H" 
			}
		],
		 "valence_orbital": [ 
			{
				"type": "occ",
				"energy": -0.33401,
				"method": "rhf"
			},
			{
				"type": "occ",
				"energy": -0.3102,
				"method": "rhf"
			},
			{
				"type": "occ",
				"energy": -0.26855,
				"method": "rhf"
			},
			{
				"type": "occ",
				"energy": -0.26211,
				"method": "rhf"
			},
			{
				"type": "occ",
				"energy": -0.23445,
				"method": "rhf"
			},
			{
				"type": "unocc",
				"energy": -0.01335,
				"method": "rhf"
			},
			{
				"type": "unocc",
				"energy": -0.00253,
				"method": "rhf"
			},
			{
				"type": "unocc",
				"energy": 0.01237,
				"method": "rhf"
			},
			{
				"type": "unocc",
				"energy": 0.06628,
				"method": "rhf"
			},
			{
				"type": "unocc",
				"energy": 0.07989,
				"method": "rhf"
			}
		],
		"cosmo_sigma_profile": { 
			"-0.025": 0.0,
			"-0.024": 0.0,
			"-0.023": 0.0,
			"-0.022": 0.0,
			"-0.021": 0.0,
			"-0.02": 0.0,
			"-0.019": 0.0,
			"-0.018": 0.0,
			"-0.017": 0.0,
			"-0.016": 0.0,
			"-0.015": 0.0,
			"-0.014": 0.0399351889058,
			"-0.013": 0.443307983108,
			"-0.012": 0.5210947285,
			"-0.011": 0.932518993493,
			"-0.01": 0.728260267101,
			"-0.009": 1.41808623036,
			"-0.008": 2.99345571294,
			"-0.007": 4.04635373432,
			"-0.006": 12.0166446595,
			"-0.005": 18.3957582784,
			"-0.004": 18.2147061392,
			"-0.003": 20.9164164672,
			"-0.002": 19.2066947191,
			"-0.001": 21.4619372115,
			"0.0": 13.1320035967,
			"0.001": 9.55724781254,
			"0.002": 10.8834502189,
			"0.003": 12.264537666,
			"0.004": 10.554161248,
			"0.005": 12.3806452146,
			"0.006": 7.18648012328,
			"0.007": 2.22998020062,
			"0.008": 3.12882477932,
			"0.009": 3.55731169686,
			"0.01": 5.05114290843,
			"0.011": 3.74427485305,
			"0.012": 4.49767175205,
			"0.013": 1.43182630359,
			"0.014": 0.0151664915978,
			"0.015": 0.0,
			"0.016": 0.0,
			"0.017": 0.0,
			"0.018": 0.0,
			"0.019": 0.0,
			"0.02": 0.0,
			"0.021": 0.0,
			"0.022": 0.0,
			"0.023": 0.0,
			"0.024": 0.0,
			"0.025": 0.0
		}
	}
}
