{
	 "smiles": "CCCCCCC1=NC2=C(C(S)=N1)C(=O)N(C)C(=O)N2CCC", 
	 "Tm": 446.15, 
	 "num_atms": 47, 
	 "gaussian": { 
		 "optdone": 1, 
		 "sigma_profile": "yes", 
		 "theory": "DFT", 
		 "functional": "B3LYP", 
		 "basiset": "6-31G**", 
		 "properties": { 
			 "R2extent": 8896.1573, 
			 "electric_dipole_moment_norm": 2.2887747399, 
			 "electric_quadrupole_moment_norm": 8.83307864733, 
			 "total_energy": -1391.90166934, 
			 "HOMO_LUMO_gap": 0.18024, 
			 "cosmo_polarized_energy": -10.84, 
			 "cosmo_cavitation_energy": 49.29, 
			 "cosmo_dispersion_energy": -32.56, 
			 "cosmo_repulsion_energy": 2.5, 
			 "cosmo_total_nonelectrostatic_energy": 19.23, 
			 "SMD_solvation_energy": 6.35 
		},
		"coords": [
			{
				"x": 0.6538649113,
				"y": -2.8204416812,
				"z": -2.3949977612,
				"element": "C" 
			},
			{
				"x": -0.1956896516,
				"y": -1.6480058396,
				"z": -2.8974091391,
				"element": "C" 
			},
			{
				"x": -1.6207433659,
				"y": -1.6567590879,
				"z": -2.3264571054,
				"element": "C" 
			},
			{
				"x": -2.5344441291,
				"y": -0.539127225,
				"z": -2.8580883578,
				"element": "C" 
			},
			{
				"x": -2.1453548588,
				"y": 0.9090097705,
				"z": -2.5089155156,
				"element": "C" 
			},
			{
				"x": -2.2484122165,
				"y": 1.2805905329,
				"z": -1.0121961247,
				"element": "C" 
			},
			{
				"x": -1.084416416,
				"y": 0.8558387282,
				"z": -0.1502811038,
				"element": "C" 
			},
			{
				"x": 0.1278052632,
				"y": 1.3015659404,
				"z": -0.5069640646,
				"element": "N" 
			},
			{
				"x": 1.1521044402,
				"y": 0.9545884369,
				"z": 0.2783028032,
				"element": "C" 
			},
			{
				"x": 0.9989137489,
				"y": 0.1607343774,
				"z": 1.4398102628,
				"element": "C" 
			},
			{
				"x": -0.3329497774,
				"y": -0.2499912071,
				"z": 1.7145179162,
				"element": "C" 
			},
			{
				"x": -0.8376706427,
				"y": -1.2402897933,
				"z": 3.076276807,
				"element": "S" 
			},
			{
				"x": -1.3535402204,
				"y": 0.1003616776,
				"z": 0.9200807685,
				"element": "N" 
			},
			{
				"x": 2.1690877946,
				"y": -0.1680761794,
				"z": 2.255984482,
				"element": "C" 
			},
			{
				"x": 2.1464992696,
				"y": -0.8542230118,
				"z": 3.2814734367,
				"element": "O" 
			},
			{
				"x": 3.3807021256,
				"y": 0.3613029265,
				"z": 1.8032007828,
				"element": "N" 
			},
			{
				"x": 4.6067150038,
				"y": 0.0958865632,
				"z": 2.5689919374,
				"element": "C" 
			},
			{
				"x": 3.5465428662,
				"y": 1.1550657331,
				"z": 0.6653422948,
				"element": "C" 
			},
			{
				"x": 4.6427338052,
				"y": 1.5923979865,
				"z": 0.3556367333,
				"element": "O" 
			},
			{
				"x": 2.4034527071,
				"y": 1.4103657641,
				"z": -0.0911577449,
				"element": "N" 
			},
			{
				"x": 2.5783338727,
				"y": 2.2505422368,
				"z": -1.2962379394,
				"element": "C" 
			},
			{
				"x": 2.4193797219,
				"y": 3.7449738048,
				"z": -1.0013693841,
				"element": "C" 
			},
			{
				"x": 2.6211733453,
				"y": 4.5914733065,
				"z": -2.2618735489,
				"element": "C" 
			},
			{
				"x": 0.2026927623,
				"y": -3.7818760846,
				"z": -2.665686655,
				"element": "H" 
			},
			{
				"x": 0.7501041977,
				"y": -2.8005883858,
				"z": -1.3032399595,
				"element": "H" 
			},
			{
				"x": 1.6634144486,
				"y": -2.7963036809,
				"z": -2.818769871,
				"element": "H" 
			},
			{
				"x": -0.2475947659,
				"y": -1.6771256113,
				"z": -3.9948162508,
				"element": "H" 
			},
			{
				"x": 0.3030112239,
				"y": -0.7049761061,
				"z": -2.6413905315,
				"element": "H" 
			},
			{
				"x": -2.0876958265,
				"y": -2.6211216913,
				"z": -2.5696349623,
				"element": "H" 
			},
			{
				"x": -1.5798552979,
				"y": -1.6187640478,
				"z": -1.2303378768,
				"element": "H" 
			},
			{
				"x": -2.5848832072,
				"y": -0.620484126,
				"z": -3.9528747622,
				"element": "H" 
			},
			{
				"x": -3.5559459785,
				"y": -0.7184971882,
				"z": -2.4963961617,
				"element": "H" 
			},
			{
				"x": -2.8190576111,
				"y": 1.5771430301,
				"z": -3.0585146704,
				"element": "H" 
			},
			{
				"x": -1.1346543078,
				"y": 1.1405534522,
				"z": -2.8622250729,
				"element": "H" 
			},
			{
				"x": -3.1625669054,
				"y": 0.8739081204,
				"z": -0.5714529656,
				"element": "H" 
			},
			{
				"x": -2.3053070856,
				"y": 2.3743472991,
				"z": -0.9358268108,
				"element": "H" 
			},
			{
				"x": 0.416094096,
				"y": -1.3627345185,
				"z": 3.5859652486,
				"element": "H" 
			},
			{
				"x": 5.0326561521,
				"y": 1.0372241679,
				"z": 2.921496521,
				"element": "H" 
			},
			{
				"x": 4.3390372524,
				"y": -0.5413513054,
				"z": 3.4073013347,
				"element": "H" 
			},
			{
				"x": 5.3402256261,
				"y": -0.395898106,
				"z": 1.9277883483,
				"element": "H" 
			},
			{
				"x": 3.5798605916,
				"y": 2.0410504443,
				"z": -1.6730566443,
				"element": "H" 
			},
			{
				"x": 1.8379012045,
				"y": 1.9218005575,
				"z": -2.0247119691,
				"element": "H" 
			},
			{
				"x": 1.4203387722,
				"y": 3.9209295927,
				"z": -0.5868456438,
				"element": "H" 
			},
			{
				"x": 3.1487598122,
				"y": 4.0332262809,
				"z": -0.2360356958,
				"element": "H" 
			},
			{
				"x": 3.6216353818,
				"y": 4.4450637249,
				"z": -2.6838593703,
				"element": "H" 
			},
			{
				"x": 1.8903850785,
				"y": 4.3336621157,
				"z": -3.0366531414,
				"element": "H" 
			},
			{
				"x": 2.5074567888,
				"y": 5.6567283057,
				"z": -2.039992873,
				"element": "H" 
			}
		],
		 "valence_orbital": [ 
			{
				"type": "occ",
				"energy": -0.28837,
				"method": "rhf"
			},
			{
				"type": "occ",
				"energy": -0.27843,
				"method": "rhf"
			},
			{
				"type": "occ",
				"energy": -0.26475,
				"method": "rhf"
			},
			{
				"type": "occ",
				"energy": -0.26085,
				"method": "rhf"
			},
			{
				"type": "occ",
				"energy": -0.25006,
				"method": "rhf"
			},
			{
				"type": "unocc",
				"energy": -0.06982,
				"method": "rhf"
			},
			{
				"type": "unocc",
				"energy": -0.04288,
				"method": "rhf"
			},
			{
				"type": "unocc",
				"energy": 0.00184,
				"method": "rhf"
			},
			{
				"type": "unocc",
				"energy": 0.03242,
				"method": "rhf"
			},
			{
				"type": "unocc",
				"energy": 0.048,
				"method": "rhf"
			}
		],
		"cosmo_sigma_profile": { 
			"-0.025": 0.0,
			"-0.024": 0.0,
			"-0.023": 0.0,
			"-0.022": 0.0,
			"-0.021": 0.0,
			"-0.02": 0.0,
			"-0.019": 0.0,
			"-0.018": 0.0,
			"-0.017": 0.0,
			"-0.016": 0.0,
			"-0.015": 0.0,
			"-0.014": 0.0,
			"-0.013": 0.0,
			"-0.012": 0.0,
			"-0.011": 0.0,
			"-0.01": 0.0,
			"-0.009": 0.109130316286,
			"-0.008": 1.42498780521,
			"-0.007": 2.42615891909,
			"-0.006": 6.50247823046,
			"-0.005": 12.5818172183,
			"-0.004": 22.9549864019,
			"-0.003": 44.9139071291,
			"-0.002": 56.8835054039,
			"-0.001": 56.6385973327,
			"0.0": 52.3298723422,
			"0.001": 41.4316337672,
			"0.002": 20.5385513561,
			"0.003": 12.3771931707,
			"0.004": 10.9777950668,
			"0.005": 10.4235933575,
			"0.006": 8.38122663039,
			"0.007": 5.94337556105,
			"0.008": 4.78571641362,
			"0.009": 4.54936231815,
			"0.01": 4.53130657969,
			"0.011": 3.3891490153,
			"0.012": 4.63394719564,
			"0.013": 0.539059155994,
			"0.014": 0.0320126435008,
			"0.015": 0.0,
			"0.016": 0.0,
			"0.017": 0.0,
			"0.018": 0.0,
			"0.019": 0.0,
			"0.02": 0.0,
			"0.021": 0.0,
			"0.022": 0.0,
			"0.023": 0.0,
			"0.024": 0.0,
			"0.025": 0.0
		}
	}
}
