{
	 "smiles": "OC(C1=CC=CC=C1)C1=CN=CC=C1", 
	 "Tm": 333.15, 
	 "num_atms": 25, 
	 "gaussian": { 
		 "optdone": 1, 
		 "sigma_profile": "yes", 
		 "theory": "DFT", 
		 "functional": "B3LYP", 
		 "basiset": "6-31G**", 
		 "properties": { 
			 "R2extent": 3285.4624, 
			 "electric_dipole_moment_norm": 3.86158651593, 
			 "electric_quadrupole_moment_norm": 11.4119307924, 
			 "total_energy": -593.867048117, 
			 "HOMO_LUMO_gap": 0.22145, 
			 "cosmo_polarized_energy": -11.56, 
			 "cosmo_cavitation_energy": 28.87, 
			 "cosmo_dispersion_energy": -20.66, 
			 "cosmo_repulsion_energy": 1.63, 
			 "cosmo_total_nonelectrostatic_energy": 9.84, 
			 "SMD_solvation_energy": 3.49 
		},
		"coords": [
			{
				"x": -0.2943771791,
				"y": 0.9521258911,
				"z": 2.3577578428,
				"element": "O" 
			},
			{
				"x": -0.0220193186,
				"y": 0.3454753277,
				"z": 1.0977036512,
				"element": "C" 
			},
			{
				"x": -1.3083496408,
				"y": -0.0236073471,
				"z": 0.3684405878,
				"element": "C" 
			},
			{
				"x": -1.4944426486,
				"y": -1.3069191593,
				"z": -0.1550913126,
				"element": "C" 
			},
			{
				"x": -2.6764285924,
				"y": -1.6380782168,
				"z": -0.8236063062,
				"element": "C" 
			},
			{
				"x": -3.6868901728,
				"y": -0.6873261474,
				"z": -0.9643606103,
				"element": "C" 
			},
			{
				"x": -3.5120167905,
				"y": 0.5953134015,
				"z": -0.4347871001,
				"element": "C" 
			},
			{
				"x": -2.3307806029,
				"y": 0.9257011294,
				"z": 0.2258780457,
				"element": "C" 
			},
			{
				"x": 0.8483223586,
				"y": 1.3064427552,
				"z": 0.2977196259,
				"element": "C" 
			},
			{
				"x": 1.2744481082,
				"y": 2.5308567084,
				"z": 0.825659038,
				"element": "C" 
			},
			{
				"x": 2.0519857974,
				"y": 3.4008751698,
				"z": 0.1641569292,
				"element": "N" 
			},
			{
				"x": 2.4428391245,
				"y": 3.066874099,
				"z": -1.0696187999,
				"element": "C" 
			},
			{
				"x": 2.0815662189,
				"y": 1.8698739692,
				"z": -1.691759187,
				"element": "C" 
			},
			{
				"x": 1.2703574496,
				"y": 0.9795303186,
				"z": -0.9952780868,
				"element": "C" 
			},
			{
				"x": -0.9332805133,
				"y": 0.3914408397,
				"z": 2.8157179553,
				"element": "H" 
			},
			{
				"x": 0.5569746308,
				"y": -0.5822183775,
				"z": 1.245607551,
				"element": "H" 
			},
			{
				"x": -0.7134654437,
				"y": -2.0545099231,
				"z": -0.0345091943,
				"element": "H" 
			},
			{
				"x": -2.8083009234,
				"y": -2.6387144592,
				"z": -1.2254102938,
				"element": "H" 
			},
			{
				"x": -4.6080685318,
				"y": -0.9428013514,
				"z": -1.4801225016,
				"element": "H" 
			},
			{
				"x": -4.2979089979,
				"y": 1.3379911357,
				"z": -0.5399075408,
				"element": "H" 
			},
			{
				"x": -2.1910006602,
				"y": 1.919628085,
				"z": 0.6406521983,
				"element": "H" 
			},
			{
				"x": 0.9719562201,
				"y": 2.8164157512,
				"z": 1.8278166267,
				"element": "H" 
			},
			{
				"x": 3.0738958503,
				"y": 3.7880317482,
				"z": -1.5869375724,
				"element": "H" 
			},
			{
				"x": 2.4251333231,
				"y": 1.6461317196,
				"z": -2.6970812109,
				"element": "H" 
			},
			{
				"x": 0.9591509344,
				"y": 0.0438669321,
				"z": -1.4529403351,
				"element": "H" 
			}
		],
		 "valence_orbital": [ 
			{
				"type": "occ",
				"energy": -0.27249,
				"method": "rhf"
			},
			{
				"type": "occ",
				"energy": -0.25826,
				"method": "rhf"
			},
			{
				"type": "occ",
				"energy": -0.25467,
				"method": "rhf"
			},
			{
				"type": "occ",
				"energy": -0.24698,
				"method": "rhf"
			},
			{
				"type": "occ",
				"energy": -0.24116,
				"method": "rhf"
			},
			{
				"type": "unocc",
				"energy": -0.01971,
				"method": "rhf"
			},
			{
				"type": "unocc",
				"energy": -0.0161,
				"method": "rhf"
			},
			{
				"type": "unocc",
				"energy": -0.01063,
				"method": "rhf"
			},
			{
				"type": "unocc",
				"energy": 0.00269,
				"method": "rhf"
			},
			{
				"type": "unocc",
				"energy": 0.08289,
				"method": "rhf"
			}
		],
		"cosmo_sigma_profile": { 
			"-0.025": 0.0,
			"-0.024": 0.0,
			"-0.023": 0.0,
			"-0.022": 0.0,
			"-0.021": 0.0,
			"-0.02": 0.0,
			"-0.019": 0.0,
			"-0.018": 0.0,
			"-0.017": 0.0,
			"-0.016": 0.5261476894,
			"-0.015": 0.757681368823,
			"-0.014": 1.16753450547,
			"-0.013": 0.687804793479,
			"-0.012": 0.969082532838,
			"-0.011": 0.647491621734,
			"-0.01": 0.624495174057,
			"-0.009": 0.598552118681,
			"-0.008": 0.661071823294,
			"-0.007": 2.86274513319,
			"-0.006": 14.6358041619,
			"-0.005": 21.5460338384,
			"-0.004": 20.5922776734,
			"-0.003": 15.8329749118,
			"-0.002": 14.8788463806,
			"-0.001": 13.4200413653,
			"0.0": 13.004274184,
			"0.001": 14.8606093237,
			"0.002": 19.2223771143,
			"0.003": 20.6050211593,
			"0.004": 14.360290748,
			"0.005": 12.4596306812,
			"0.006": 7.14484201532,
			"0.007": 2.99940605102,
			"0.008": 2.68593891746,
			"0.009": 2.65552194783,
			"0.01": 2.06261678042,
			"0.011": 2.43049252328,
			"0.012": 1.23891817187,
			"0.013": 1.27897906919,
			"0.014": 0.710421191832,
			"0.015": 1.12090760374,
			"0.016": 0.676864870841,
			"0.017": 0.583123804232,
			"0.018": 0.0,
			"0.019": 0.0,
			"0.02": 0.0,
			"0.021": 0.0,
			"0.022": 0.0,
			"0.023": 0.0,
			"0.024": 0.0,
			"0.025": 0.0
		}
	}
}
