{
	 "smiles": "ClCN1N=C(OC1=S)C1=CC2=CC=CC=C2O1", 
	 "Tm": 573.15, 
	 "num_atms": 24, 
	 "gaussian": { 
		 "optdone": 1, 
		 "sigma_profile": "yes", 
		 "theory": "DFT", 
		 "functional": "B3LYP", 
		 "basiset": "6-31G**", 
		 "properties": { 
			 "R2extent": 9426.4304, 
			 "electric_dipole_moment_norm": 4.970681235, 
			 "electric_quadrupole_moment_norm": 22.4967230627, 
			 "total_energy": -1541.68699668, 
			 "HOMO_LUMO_gap": 0.15048, 
			 "cosmo_polarized_energy": -12.2, 
			 "cosmo_cavitation_energy": 33.82, 
			 "cosmo_dispersion_energy": -25.22, 
			 "cosmo_repulsion_energy": 1.91, 
			 "cosmo_total_nonelectrostatic_energy": 10.52, 
			 "SMD_solvation_energy": 4.25 
		},
		"coords": [
			{
				"x": -2.6449045251,
				"y": 2.2511280347,
				"z": -4.6383356451,
				"element": "Cl" 
			},
			{
				"x": -1.7834437584,
				"y": 0.6495515006,
				"z": -4.7667953001,
				"element": "C" 
			},
			{
				"x": -2.0333566598,
				"y": -0.2028897084,
				"z": -3.6542812261,
				"element": "N" 
			},
			{
				"x": -1.3433270866,
				"y": -0.0292639855,
				"z": -2.4707159139,
				"element": "N" 
			},
			{
				"x": -1.8939890333,
				"y": -0.8917930261,
				"z": -1.6777558349,
				"element": "C" 
			},
			{
				"x": -2.9043245452,
				"y": -1.608997931,
				"z": -2.2618236385,
				"element": "O" 
			},
			{
				"x": -3.0164006542,
				"y": -1.1558133751,
				"z": -3.5595327667,
				"element": "C" 
			},
			{
				"x": -4.0923057013,
				"y": -1.709449362,
				"z": -4.6658301493,
				"element": "S" 
			},
			{
				"x": -1.5773921049,
				"y": -1.1791405814,
				"z": -0.3061271756,
				"element": "C" 
			},
			{
				"x": -2.1314655344,
				"y": -2.0740933099,
				"z": 0.5650567015,
				"element": "C" 
			},
			{
				"x": -1.4123648442,
				"y": -1.9171615795,
				"z": 1.7975851269,
				"element": "C" 
			},
			{
				"x": -1.46510823,
				"y": -2.5084556383,
				"z": 3.0719777618,
				"element": "C" 
			},
			{
				"x": -0.5672943778,
				"y": -2.0689866427,
				"z": 4.0369577435,
				"element": "C" 
			},
			{
				"x": 0.3755210815,
				"y": -1.0580410507,
				"z": 3.7572122018,
				"element": "C" 
			},
			{
				"x": 0.4487566951,
				"y": -0.4559853417,
				"z": 2.5030847896,
				"element": "C" 
			},
			{
				"x": -0.4574533962,
				"y": -0.9092052093,
				"z": 1.5515892499,
				"element": "C" 
			},
			{
				"x": -0.5580629294,
				"y": -0.4576312421,
				"z": 0.2641178088,
				"element": "O" 
			},
			{
				"x": -2.1534296579,
				"y": 0.1590046163,
				"z": -5.6646360769,
				"element": "H" 
			},
			{
				"x": -0.7197018264,
				"y": 0.869330511,
				"z": -4.8162418908,
				"element": "H" 
			},
			{
				"x": -2.9450784308,
				"y": -2.7499918445,
				"z": 0.3458901973,
				"element": "H" 
			},
			{
				"x": -2.1882987786,
				"y": -3.2867486991,
				"z": 3.2944488459,
				"element": "H" 
			},
			{
				"x": -0.5887807587,
				"y": -2.5102470831,
				"z": 5.0285949073,
				"element": "H" 
			},
			{
				"x": 1.0604262539,
				"y": -0.7409229021,
				"z": 4.5375259489,
				"element": "H" 
			},
			{
				"x": 1.1674788028,
				"y": 0.3225038498,
				"z": 2.2735343345,
				"element": "H" 
			}
		],
		 "valence_orbital": [ 
			{
				"type": "occ",
				"energy": -0.30847,
				"method": "rhf"
			},
			{
				"type": "occ",
				"energy": -0.26098,
				"method": "rhf"
			},
			{
				"type": "occ",
				"energy": -0.25252,
				"method": "rhf"
			},
			{
				"type": "occ",
				"energy": -0.23923,
				"method": "rhf"
			},
			{
				"type": "occ",
				"energy": -0.22771,
				"method": "rhf"
			},
			{
				"type": "unocc",
				"energy": -0.07723,
				"method": "rhf"
			},
			{
				"type": "unocc",
				"energy": -0.04653,
				"method": "rhf"
			},
			{
				"type": "unocc",
				"energy": -0.01113,
				"method": "rhf"
			},
			{
				"type": "unocc",
				"energy": 0.00263,
				"method": "rhf"
			},
			{
				"type": "unocc",
				"energy": 0.02713,
				"method": "rhf"
			}
		],
		"cosmo_sigma_profile": { 
			"-0.025": 0.0,
			"-0.024": 0.0,
			"-0.023": 0.0,
			"-0.022": 0.0,
			"-0.021": 0.0,
			"-0.02": 0.0,
			"-0.019": 0.0,
			"-0.018": 0.0,
			"-0.017": 0.0,
			"-0.016": 0.0,
			"-0.015": 0.0,
			"-0.014": 0.0,
			"-0.013": 0.0,
			"-0.012": 0.0,
			"-0.011": 1.00591304052,
			"-0.01": 2.69191342476,
			"-0.009": 4.98148759534,
			"-0.008": 7.29063002626,
			"-0.007": 11.8672437184,
			"-0.006": 16.3203358327,
			"-0.005": 15.70724012,
			"-0.004": 15.3297673175,
			"-0.003": 14.9552669139,
			"-0.002": 14.9058133289,
			"-0.001": 17.1036506148,
			"0.0": 18.1189645823,
			"0.001": 21.5599216821,
			"0.002": 20.5029719714,
			"0.003": 22.1291217017,
			"0.004": 21.5512096286,
			"0.005": 19.9981378375,
			"0.006": 12.0633417622,
			"0.007": 10.7038549689,
			"0.008": 5.04998703306,
			"0.009": 3.3880070112,
			"0.01": 1.18740326189,
			"0.011": 0.432630384829,
			"0.012": 0.0,
			"0.013": 0.0,
			"0.014": 0.0,
			"0.015": 0.0,
			"0.016": 0.0,
			"0.017": 0.0,
			"0.018": 0.0,
			"0.019": 0.0,
			"0.02": 0.0,
			"0.021": 0.0,
			"0.022": 0.0,
			"0.023": 0.0,
			"0.024": 0.0,
			"0.025": 0.0
		}
	}
}
