{
	 "smiles": "O=C1OCC2=CC=CC=C12", 
	 "Tm": 347.65, 
	 "num_atms": 16, 
	 "gaussian": { 
		 "optdone": 1, 
		 "sigma_profile": "yes", 
		 "theory": "DFT", 
		 "functional": "B3LYP", 
		 "basiset": "6-31G**", 
		 "properties": { 
			 "R2extent": 1372.0056, 
			 "electric_dipole_moment_norm": 5.01695494399, 
			 "electric_quadrupole_moment_norm": 9.41653101625, 
			 "total_energy": -458.922861566, 
			 "HOMO_LUMO_gap": 0.21691, 
			 "cosmo_polarized_energy": -11.08, 
			 "cosmo_cavitation_energy": 20.22, 
			 "cosmo_dispersion_energy": -15.35, 
			 "cosmo_repulsion_energy": 1.24, 
			 "cosmo_total_nonelectrostatic_energy": 6.11, 
			 "SMD_solvation_energy": 4.47 
		},
		"coords": [
			{
				"x": 2.391927074,
				"y": 1.0066619578,
				"z": 0.3120777314,
				"element": "O" 
			},
			{
				"x": 1.2599968441,
				"y": 0.9077117322,
				"z": 0.7131499713,
				"element": "C" 
			},
			{
				"x": 0.8929167003,
				"y": 1.2569618957,
				"z": 1.9952504779,
				"element": "O" 
			},
			{
				"x": -0.5128802632,
				"y": 1.0415075721,
				"z": 2.2094137591,
				"element": "C" 
			},
			{
				"x": -1.0321000763,
				"y": 0.5039286684,
				"z": 0.9011618537,
				"element": "C" 
			},
			{
				"x": -2.3066912206,
				"y": 0.1123983488,
				"z": 0.5001938236,
				"element": "C" 
			},
			{
				"x": -2.4653582556,
				"y": -0.3519267069,
				"z": -0.8092213041,
				"element": "C" 
			},
			{
				"x": -1.3791747021,
				"y": -0.4234346619,
				"z": -1.6955072089,
				"element": "C" 
			},
			{
				"x": -0.1051415948,
				"y": -0.0297642647,
				"z": -1.287723613,
				"element": "C" 
			},
			{
				"x": 0.0410219173,
				"y": 0.4310952117,
				"z": 0.0192333904,
				"element": "C" 
			},
			{
				"x": -0.6351206937,
				"y": 0.3382825775,
				"z": 3.0416439989,
				"element": "H" 
			},
			{
				"x": -0.972406838,
				"y": 1.9952334792,
				"z": 2.4945960671,
				"element": "H" 
			},
			{
				"x": -3.1567885196,
				"y": 0.1622357516,
				"z": 1.1748530204,
				"element": "H" 
			},
			{
				"x": -3.4491559197,
				"y": -0.6637889344,
				"z": -1.1481059643,
				"element": "H" 
			},
			{
				"x": -1.5370564997,
				"y": -0.7888731791,
				"z": -2.7056583527,
				"element": "H" 
			},
			{
				"x": 0.7515120476,
				"y": -0.075029448,
				"z": -1.9527576508,
				"element": "H" 
			}
		],
		 "valence_orbital": [ 
			{
				"type": "occ",
				"energy": -0.35734,
				"method": "rhf"
			},
			{
				"type": "occ",
				"energy": -0.29802,
				"method": "rhf"
			},
			{
				"type": "occ",
				"energy": -0.27235,
				"method": "rhf"
			},
			{
				"type": "occ",
				"energy": -0.26954,
				"method": "rhf"
			},
			{
				"type": "occ",
				"energy": -0.26663,
				"method": "rhf"
			},
			{
				"type": "unocc",
				"energy": -0.04972,
				"method": "rhf"
			},
			{
				"type": "unocc",
				"energy": -0.02392,
				"method": "rhf"
			},
			{
				"type": "unocc",
				"energy": 0.05376,
				"method": "rhf"
			},
			{
				"type": "unocc",
				"energy": 0.08565,
				"method": "rhf"
			},
			{
				"type": "unocc",
				"energy": 0.10688,
				"method": "rhf"
			}
		],
		"cosmo_sigma_profile": { 
			"-0.025": 0.0,
			"-0.024": 0.0,
			"-0.023": 0.0,
			"-0.022": 0.0,
			"-0.021": 0.0,
			"-0.02": 0.0,
			"-0.019": 0.0,
			"-0.018": 0.0,
			"-0.017": 0.0,
			"-0.016": 0.0,
			"-0.015": 0.0,
			"-0.014": 0.0,
			"-0.013": 0.0,
			"-0.012": 0.0,
			"-0.011": 0.0,
			"-0.01": 0.0,
			"-0.009": 0.0,
			"-0.008": 2.17610296012,
			"-0.007": 12.631736606,
			"-0.006": 15.7555111895,
			"-0.005": 15.2256251315,
			"-0.004": 11.1529153228,
			"-0.003": 9.07414055577,
			"-0.002": 8.84718336915,
			"-0.001": 9.17805165313,
			"0.0": 9.33896350734,
			"0.001": 10.272098539,
			"0.002": 10.666613905,
			"0.003": 13.139256567,
			"0.004": 5.83531229096,
			"0.005": 1.91410024057,
			"0.006": 2.28032051994,
			"0.007": 2.1921034821,
			"0.008": 2.55171013925,
			"0.009": 3.64279865827,
			"0.01": 5.04853848171,
			"0.011": 4.19939351167,
			"0.012": 5.75589358446,
			"0.013": 1.68132451366,
			"0.014": 0.0327245999968,
			"0.015": 0.0,
			"0.016": 0.0,
			"0.017": 0.0,
			"0.018": 0.0,
			"0.019": 0.0,
			"0.02": 0.0,
			"0.021": 0.0,
			"0.022": 0.0,
			"0.023": 0.0,
			"0.024": 0.0,
			"0.025": 0.0
		}
	}
}
