{
	 "smiles": "CCOC(=O)C1=C(N)C2=C(C)C=C(C)N=C2S1", 
	 "Tm": 431.15, 
	 "num_atms": 31, 
	 "gaussian": { 
		 "optdone": 1, 
		 "sigma_profile": "yes", 
		 "theory": "DFT", 
		 "functional": "B3LYP", 
		 "basiset": "6-31G**", 
		 "properties": { 
			 "R2extent": 5732.806, 
			 "electric_dipole_moment_norm": 3.01656562667, 
			 "electric_quadrupole_moment_norm": 18.8620038257, 
			 "total_energy": -1123.89678937, 
			 "HOMO_LUMO_gap": 0.14541, 
			 "cosmo_polarized_energy": -13.43, 
			 "cosmo_cavitation_energy": 35.69, 
			 "cosmo_dispersion_energy": -26.72, 
			 "cosmo_repulsion_energy": 2.04, 
			 "cosmo_total_nonelectrostatic_energy": 11.01, 
			 "SMD_solvation_energy": 4.89 
		},
		"coords": [
			{
				"x": -0.4436652016,
				"y": 5.6055740651,
				"z": 1.4843930469,
				"element": "C" 
			},
			{
				"x": -1.3501685611,
				"y": 4.3900098562,
				"z": 1.4394422903,
				"element": "C" 
			},
			{
				"x": -0.5858967805,
				"y": 3.3023722538,
				"z": 0.8760381464,
				"element": "O" 
			},
			{
				"x": -1.2248878555,
				"y": 2.115063994,
				"z": 0.77014184,
				"element": "C" 
			},
			{
				"x": -2.3918216338,
				"y": 1.953801363,
				"z": 1.1280453675,
				"element": "O" 
			},
			{
				"x": -0.392705941,
				"y": 1.0815741242,
				"z": 0.1892699661,
				"element": "C" 
			},
			{
				"x": -0.8239526759,
				"y": -0.2173222873,
				"z": -0.0542348073,
				"element": "C" 
			},
			{
				"x": -2.058151561,
				"y": -0.6814032516,
				"z": 0.3265993504,
				"element": "N" 
			},
			{
				"x": 0.203265202,
				"y": -1.0173270526,
				"z": -0.6940553104,
				"element": "C" 
			},
			{
				"x": 0.2232192159,
				"y": -2.3758951407,
				"z": -1.0926259107,
				"element": "C" 
			},
			{
				"x": -0.9453357785,
				"y": -3.3120382933,
				"z": -0.9014796501,
				"element": "C" 
			},
			{
				"x": 1.3973560343,
				"y": -2.8389052236,
				"z": -1.6771245068,
				"element": "C" 
			},
			{
				"x": 2.512283391,
				"y": -1.995391461,
				"z": -1.862910472,
				"element": "C" 
			},
			{
				"x": 3.7654091881,
				"y": -2.5036210107,
				"z": -2.5294555565,
				"element": "C" 
			},
			{
				"x": 2.5089367237,
				"y": -0.7163993663,
				"z": -1.4754693056,
				"element": "N" 
			},
			{
				"x": 1.3865531754,
				"y": -0.2666585852,
				"z": -0.9137865745,
				"element": "C" 
			},
			{
				"x": 1.2669657678,
				"y": 1.3828627882,
				"z": -0.3354714507,
				"element": "S" 
			},
			{
				"x": 0.435529607,
				"y": 5.4140602664,
				"z": 2.1060963899,
				"element": "H" 
			},
			{
				"x": -0.1028234427,
				"y": 5.876045905,
				"z": 0.4809602101,
				"element": "H" 
			},
			{
				"x": -0.9860915577,
				"y": 6.4574899109,
				"z": 1.9062876398,
				"element": "H" 
			},
			{
				"x": -1.6990088364,
				"y": 4.0995018134,
				"z": 2.4355641787,
				"element": "H" 
			},
			{
				"x": -2.2354776168,
				"y": 4.5604556848,
				"z": 0.8182724409,
				"element": "H" 
			},
			{
				"x": -2.6825036975,
				"y": 0.0522777651,
				"z": 0.6516306578,
				"element": "H" 
			},
			{
				"x": -2.4734980329,
				"y": -1.4169281313,
				"z": -0.221073788,
				"element": "H" 
			},
			{
				"x": -0.6628609959,
				"y": -4.3374431939,
				"z": -1.1515785232,
				"element": "H" 
			},
			{
				"x": -1.7866422286,
				"y": -3.0418164245,
				"z": -1.5529700677,
				"element": "H" 
			},
			{
				"x": -1.3045852347,
				"y": -3.2998728654,
				"z": 0.1322415728,
				"element": "H" 
			},
			{
				"x": 1.462212792,
				"y": -3.8759350638,
				"z": -1.9941312562,
				"element": "H" 
			},
			{
				"x": 3.9765036941,
				"y": -3.5411756799,
				"z": -2.2529953553,
				"element": "H" 
			},
			{
				"x": 3.663247696,
				"y": -2.4692660813,
				"z": -3.6213976336,
				"element": "H" 
			},
			{
				"x": 4.6138951448,
				"y": -1.8748906778,
				"z": -2.2537229291,
				"element": "H" 
			}
		],
		 "valence_orbital": [ 
			{
				"type": "occ",
				"energy": -0.27969,
				"method": "rhf"
			},
			{
				"type": "occ",
				"energy": -0.27218,
				"method": "rhf"
			},
			{
				"type": "occ",
				"energy": -0.25904,
				"method": "rhf"
			},
			{
				"type": "occ",
				"energy": -0.23909,
				"method": "rhf"
			},
			{
				"type": "occ",
				"energy": -0.19748,
				"method": "rhf"
			},
			{
				"type": "unocc",
				"energy": -0.05207,
				"method": "rhf"
			},
			{
				"type": "unocc",
				"energy": -0.01559,
				"method": "rhf"
			},
			{
				"type": "unocc",
				"energy": 0.019,
				"method": "rhf"
			},
			{
				"type": "unocc",
				"energy": 0.03285,
				"method": "rhf"
			},
			{
				"type": "unocc",
				"energy": 0.07741,
				"method": "rhf"
			}
		],
		"cosmo_sigma_profile": { 
			"-0.025": 0.0,
			"-0.024": 0.0,
			"-0.023": 0.0,
			"-0.022": 0.0,
			"-0.021": 0.0,
			"-0.02": 0.0,
			"-0.019": 0.0,
			"-0.018": 0.0,
			"-0.017": 0.0,
			"-0.016": 0.0,
			"-0.015": 0.0,
			"-0.014": 0.0,
			"-0.013": 0.624418143776,
			"-0.012": 1.51576957261,
			"-0.011": 1.6943918821,
			"-0.01": 2.0275724528,
			"-0.009": 1.9365823266,
			"-0.008": 2.10643792722,
			"-0.007": 3.34459461845,
			"-0.006": 6.84046375837,
			"-0.005": 17.3589809911,
			"-0.004": 23.6262407836,
			"-0.003": 25.156986453,
			"-0.002": 26.5224643791,
			"-0.001": 26.3800359914,
			"0.0": 25.9817135497,
			"0.001": 26.0413439631,
			"0.002": 20.7333795644,
			"0.003": 17.5630012535,
			"0.004": 13.0586648723,
			"0.005": 11.6530255924,
			"0.006": 8.54687199088,
			"0.007": 4.82783382739,
			"0.008": 3.38412523665,
			"0.009": 2.90200088946,
			"0.01": 2.92518587508,
			"0.011": 2.91186064764,
			"0.012": 2.88089893476,
			"0.013": 1.57770887575,
			"0.014": 0.769180028258,
			"0.015": 0.165881967557,
			"0.016": 0.0,
			"0.017": 0.0,
			"0.018": 0.0,
			"0.019": 0.0,
			"0.02": 0.0,
			"0.021": 0.0,
			"0.022": 0.0,
			"0.023": 0.0,
			"0.024": 0.0,
			"0.025": 0.0
		}
	}
}
