{
	 "smiles": "ClC1=CC(=CC(Cl)=C1)C(=O)CC#N", 
	 "Tm": 413.15, 
	 "num_atms": 18, 
	 "gaussian": { 
		 "optdone": 1, 
		 "sigma_profile": "yes", 
		 "theory": "DFT", 
		 "functional": "B3LYP", 
		 "basiset": "6-31G**", 
		 "properties": { 
			 "R2extent": 3634.8979, 
			 "electric_dipole_moment_norm": 2.8823237535, 
			 "electric_quadrupole_moment_norm": 13.9860802354, 
			 "total_energy": -1396.30500865, 
			 "HOMO_LUMO_gap": 0.1764, 
			 "cosmo_polarized_energy": -12.65, 
			 "cosmo_cavitation_energy": 28.02, 
			 "cosmo_dispersion_energy": -19.66, 
			 "cosmo_repulsion_energy": 1.58, 
			 "cosmo_total_nonelectrostatic_energy": 9.93, 
			 "SMD_solvation_energy": 6.11 
		},
		"coords": [
			{
				"x": -0.7018201039,
				"y": 3.847468334,
				"z": 0.7438982849,
				"element": "Cl" 
			},
			{
				"x": -0.6693712757,
				"y": 2.1422556603,
				"z": 0.3454187592,
				"element": "C" 
			},
			{
				"x": 0.5417391385,
				"y": 1.5262940787,
				"z": 0.0574260045,
				"element": "C" 
			},
			{
				"x": 0.5574867453,
				"y": 0.15980144,
				"z": -0.2612885421,
				"element": "C" 
			},
			{
				"x": -0.6367008268,
				"y": -0.5735876243,
				"z": -0.2870122696,
				"element": "C" 
			},
			{
				"x": -1.8348628683,
				"y": 0.0737403806,
				"z": 0.0098246479,
				"element": "C" 
			},
			{
				"x": -3.3319212716,
				"y": -0.8343179869,
				"z": -0.0151719828,
				"element": "Cl" 
			},
			{
				"x": -1.8715930191,
				"y": 1.4306216269,
				"z": 0.3280045763,
				"element": "C" 
			},
			{
				"x": 1.8918117667,
				"y": -0.4558203548,
				"z": -0.5430820191,
				"element": "C" 
			},
			{
				"x": 2.9203487639,
				"y": 0.1871004579,
				"z": -0.4689193209,
				"element": "O" 
			},
			{
				"x": 1.9808217747,
				"y": -1.9606961711,
				"z": -0.8949478685,
				"element": "C" 
			},
			{
				"x": 1.3128390093,
				"y": -2.3152254142,
				"z": -2.1468041444,
				"element": "C" 
			},
			{
				"x": 0.7795223845,
				"y": -2.5841573998,
				"z": -3.1420270232,
				"element": "N" 
			},
			{
				"x": 1.4747848748,
				"y": 2.0761742374,
				"z": 0.0746160598,
				"element": "H" 
			},
			{
				"x": -0.6563002982,
				"y": -1.6251365212,
				"z": -0.5443252203,
				"element": "H" 
			},
			{
				"x": -2.810109086,
				"y": 1.9212560425,
				"z": 0.555217222,
				"element": "H" 
			},
			{
				"x": 1.5540927103,
				"y": -2.5589916624,
				"z": -0.0803747898,
				"element": "H" 
			},
			{
				"x": 3.0452315817,
				"y": -2.1974791235,
				"z": -0.968552374,
				"element": "H" 
			}
		],
		 "valence_orbital": [ 
			{
				"type": "occ",
				"energy": -0.33873,
				"method": "rhf"
			},
			{
				"type": "occ",
				"energy": -0.33118,
				"method": "rhf"
			},
			{
				"type": "occ",
				"energy": -0.28809,
				"method": "rhf"
			},
			{
				"type": "occ",
				"energy": -0.28585,
				"method": "rhf"
			},
			{
				"type": "occ",
				"energy": -0.27191,
				"method": "rhf"
			},
			{
				"type": "unocc",
				"energy": -0.09551,
				"method": "rhf"
			},
			{
				"type": "unocc",
				"energy": -0.04503,
				"method": "rhf"
			},
			{
				"type": "unocc",
				"energy": -0.00857,
				"method": "rhf"
			},
			{
				"type": "unocc",
				"energy": -0.00431,
				"method": "rhf"
			},
			{
				"type": "unocc",
				"energy": 0.01778,
				"method": "rhf"
			}
		],
		"cosmo_sigma_profile": { 
			"-0.025": 0.0,
			"-0.024": 0.0,
			"-0.023": 0.0,
			"-0.022": 0.0,
			"-0.021": 0.0,
			"-0.02": 0.0,
			"-0.019": 0.0,
			"-0.018": 0.0,
			"-0.017": 0.0,
			"-0.016": 0.0,
			"-0.015": 0.0,
			"-0.014": 0.0,
			"-0.013": 0.0753575886908,
			"-0.012": 0.991572092847,
			"-0.011": 3.90134808315,
			"-0.01": 4.76479032621,
			"-0.009": 5.59175331656,
			"-0.008": 6.26991165891,
			"-0.007": 8.44201133289,
			"-0.006": 7.89098800229,
			"-0.005": 8.47479530011,
			"-0.004": 7.80380269762,
			"-0.003": 11.0218512764,
			"-0.002": 14.959384361,
			"-0.001": 24.8592575428,
			"0.0": 28.2894826652,
			"0.001": 12.5135233691,
			"0.002": 13.5894030696,
			"0.003": 20.0109784355,
			"0.004": 16.5072037654,
			"0.005": 4.14969544058,
			"0.006": 3.04799616168,
			"0.007": 4.59986236472,
			"0.008": 5.0801278313,
			"0.009": 5.82388372829,
			"0.01": 6.37513513824,
			"0.011": 3.22061695631,
			"0.012": 2.33638166139,
			"0.013": 0.748133967226,
			"0.014": 0.0,
			"0.015": 0.0,
			"0.016": 0.0,
			"0.017": 0.0,
			"0.018": 0.0,
			"0.019": 0.0,
			"0.02": 0.0,
			"0.021": 0.0,
			"0.022": 0.0,
			"0.023": 0.0,
			"0.024": 0.0,
			"0.025": 0.0
		}
	}
}
