{
	 "smiles": "CC(C)C1=C(N=NN1C1=CC=C(C)C=C1)C(O)=O", 
	 "Tm": 450.15, 
	 "num_atms": 33, 
	 "gaussian": { 
		 "optdone": 1, 
		 "sigma_profile": "yes", 
		 "theory": "DFT", 
		 "functional": "B3LYP", 
		 "basiset": "6-31G**", 
		 "properties": { 
			 "R2extent": 6650.8708, 
			 "electric_dipole_moment_norm": 7.02393772253, 
			 "electric_quadrupole_moment_norm": 18.7097540729, 
			 "total_energy": -819.125263754, 
			 "HOMO_LUMO_gap": 0.21537, 
			 "cosmo_polarized_energy": -14.47, 
			 "cosmo_cavitation_energy": 36.41, 
			 "cosmo_dispersion_energy": -25.46, 
			 "cosmo_repulsion_energy": 1.97, 
			 "cosmo_total_nonelectrostatic_energy": 12.92, 
			 "SMD_solvation_energy": 6.25 
		},
		"coords": [
			{
				"x": -0.4665974797,
				"y": -2.9721132193,
				"z": 1.6980697899,
				"element": "C" 
			},
			{
				"x": -0.5737877244,
				"y": -1.4351924518,
				"z": 1.7604644733,
				"element": "C" 
			},
			{
				"x": -0.2918836016,
				"y": -0.9101081135,
				"z": 3.1830569656,
				"element": "C" 
			},
			{
				"x": -1.9161145674,
				"y": -0.9587592712,
				"z": 1.2659011676,
				"element": "C" 
			},
			{
				"x": -3.211708134,
				"y": -1.1147209554,
				"z": 1.7503344812,
				"element": "C" 
			},
			{
				"x": -4.0712287327,
				"y": -0.4112623689,
				"z": 0.95579409,
				"element": "N" 
			},
			{
				"x": -3.4177387489,
				"y": 0.1699474241,
				"z": 0.0039677342,
				"element": "N" 
			},
			{
				"x": -2.0980155303,
				"y": -0.1569861341,
				"z": 0.173630021,
				"element": "N" 
			},
			{
				"x": -1.1450656014,
				"y": 0.3633451399,
				"z": -0.7577469958,
				"element": "C" 
			},
			{
				"x": -0.2864698978,
				"y": -0.4929695592,
				"z": -1.4500109672,
				"element": "C" 
			},
			{
				"x": 0.6233054158,
				"y": 0.0399716891,
				"z": -2.3615921996,
				"element": "C" 
			},
			{
				"x": 0.6781135908,
				"y": 1.4173086728,
				"z": -2.6141585499,
				"element": "C" 
			},
			{
				"x": 1.6398463354,
				"y": 1.9820916201,
				"z": -3.631819332,
				"element": "C" 
			},
			{
				"x": -0.2064531842,
				"y": 2.2531834711,
				"z": -1.9176618367,
				"element": "C" 
			},
			{
				"x": -1.1121203584,
				"y": 1.7391467539,
				"z": -0.9931591163,
				"element": "C" 
			},
			{
				"x": -3.7592345467,
				"y": -1.8683489246,
				"z": 2.9013583996,
				"element": "C" 
			},
			{
				"x": -5.0950357807,
				"y": -1.7506819381,
				"z": 3.0315938733,
				"element": "O" 
			},
			{
				"x": -3.1004182419,
				"y": -2.5381057503,
				"z": 3.6703714575,
				"element": "O" 
			},
			{
				"x": -1.2036055172,
				"y": -3.4297793164,
				"z": 2.361758985,
				"element": "H" 
			},
			{
				"x": 0.5320997287,
				"y": -3.2861145216,
				"z": 2.0178750384,
				"element": "H" 
			},
			{
				"x": -0.6307448267,
				"y": -3.3469933123,
				"z": 0.6821861791,
				"element": "H" 
			},
			{
				"x": 0.1821267669,
				"y": -1.0108462959,
				"z": 1.0915760177,
				"element": "H" 
			},
			{
				"x": -0.3354689402,
				"y": 0.1829624604,
				"z": 3.2188175194,
				"element": "H" 
			},
			{
				"x": -1.0166695895,
				"y": -1.3167251496,
				"z": 3.8913548434,
				"element": "H" 
			},
			{
				"x": 0.7107201233,
				"y": -1.2194958388,
				"z": 3.4954633181,
				"element": "H" 
			},
			{
				"x": -0.3398694525,
				"y": -1.5645431391,
				"z": -1.2882574782,
				"element": "H" 
			},
			{
				"x": 1.293286455,
				"y": -0.629647306,
				"z": -2.8940030778,
				"element": "H" 
			},
			{
				"x": 1.9434795939,
				"y": 3.0005481817,
				"z": -3.3729279854,
				"element": "H" 
			},
			{
				"x": 1.179274732,
				"y": 2.0222648251,
				"z": -4.626676066,
				"element": "H" 
			},
			{
				"x": 2.541522109,
				"y": 1.3685462699,
				"z": -3.7148339814,
				"element": "H" 
			},
			{
				"x": -0.182812308,
				"y": 3.3247434424,
				"z": -2.0965568768,
				"element": "H" 
			},
			{
				"x": -1.79382572,
				"y": 2.3890389139,
				"z": -0.4558956861,
				"element": "H" 
			},
			{
				"x": -5.4181063665,
				"y": -1.1757052982,
				"z": 2.3114257946,
				"element": "H" 
			}
		],
		 "valence_orbital": [ 
			{
				"type": "occ",
				"energy": -0.29106,
				"method": "rhf"
			},
			{
				"type": "occ",
				"energy": -0.27532,
				"method": "rhf"
			},
			{
				"type": "occ",
				"energy": -0.26997,
				"method": "rhf"
			},
			{
				"type": "occ",
				"energy": -0.26837,
				"method": "rhf"
			},
			{
				"type": "occ",
				"energy": -0.25782,
				"method": "rhf"
			},
			{
				"type": "unocc",
				"energy": -0.04245,
				"method": "rhf"
			},
			{
				"type": "unocc",
				"energy": -0.02923,
				"method": "rhf"
			},
			{
				"type": "unocc",
				"energy": -0.02472,
				"method": "rhf"
			},
			{
				"type": "unocc",
				"energy": -0.0054,
				"method": "rhf"
			},
			{
				"type": "unocc",
				"energy": 0.06883,
				"method": "rhf"
			}
		],
		"cosmo_sigma_profile": { 
			"-0.025": 0.0,
			"-0.024": 0.0,
			"-0.023": 0.0,
			"-0.022": 0.0,
			"-0.021": 0.0,
			"-0.02": 0.0,
			"-0.019": 0.0,
			"-0.018": 0.0,
			"-0.017": 0.0,
			"-0.016": 0.0,
			"-0.015": 0.0,
			"-0.014": 0.563457983795,
			"-0.013": 0.377002665732,
			"-0.012": 0.551095247803,
			"-0.011": 0.540301582685,
			"-0.01": 0.828414464072,
			"-0.009": 0.603125286866,
			"-0.008": 0.788181673456,
			"-0.007": 4.3530904062,
			"-0.006": 12.6918251654,
			"-0.005": 17.4613582422,
			"-0.004": 27.8134238049,
			"-0.003": 29.6163122457,
			"-0.002": 26.248317814,
			"-0.001": 31.0668006252,
			"0.0": 29.4404514418,
			"0.001": 22.1586650761,
			"0.002": 12.4071589591,
			"0.003": 14.4219519133,
			"0.004": 12.0795373141,
			"0.005": 5.16294115875,
			"0.006": 5.88293495187,
			"0.007": 4.23895404138,
			"0.008": 5.99293735792,
			"0.009": 7.00764568931,
			"0.01": 7.07299899401,
			"0.011": 4.36272473157,
			"0.012": 3.78716139956,
			"0.013": 1.71179463712,
			"0.014": 0.00978778199974,
			"0.015": 0.0,
			"0.016": 0.0,
			"0.017": 0.0,
			"0.018": 0.0,
			"0.019": 0.0,
			"0.02": 0.0,
			"0.021": 0.0,
			"0.022": 0.0,
			"0.023": 0.0,
			"0.024": 0.0,
			"0.025": 0.0
		}
	}
}
