{
	 "smiles": "CCCCN(C1=CC=CC=C1)S(=O)(=O)C1=CC(=CC=C1)C(O)=O", 
	 "Tm": 435.15, 
	 "num_atms": 42, 
	 "gaussian": { 
		 "optdone": 1, 
		 "sigma_profile": "yes", 
		 "theory": "DFT", 
		 "functional": "B3LYP", 
		 "basiset": "6-31G**", 
		 "properties": { 
			 "R2extent": 8172.3131, 
			 "electric_dipole_moment_norm": 4.9281599345, 
			 "electric_quadrupole_moment_norm": 26.7129827818, 
			 "total_energy": -1413.03607121, 
			 "HOMO_LUMO_gap": 0.18617, 
			 "cosmo_polarized_energy": -22.47, 
			 "cosmo_cavitation_energy": 47.13, 
			 "cosmo_dispersion_energy": -30.29, 
			 "cosmo_repulsion_energy": 2.31, 
			 "cosmo_total_nonelectrostatic_energy": 19.15, 
			 "SMD_solvation_energy": 8.16 
		},
		"coords": [
			{
				"x": -3.8193345712,
				"y": -0.3575938085,
				"z": -1.6999601394,
				"element": "C" 
			},
			{
				"x": -2.395667918,
				"y": -0.9179679002,
				"z": -1.6239888138,
				"element": "C" 
			},
			{
				"x": -2.204618913,
				"y": -1.9032933872,
				"z": -0.4649281286,
				"element": "C" 
			},
			{
				"x": -0.8023509014,
				"y": -2.5136283465,
				"z": -0.3774794634,
				"element": "C" 
			},
			{
				"x": 0.2283325235,
				"y": -1.4922482372,
				"z": -0.0473703931,
				"element": "N" 
			},
			{
				"x": 0.2392199937,
				"y": -1.004366991,
				"z": 1.3123265318,
				"element": "C" 
			},
			{
				"x": 0.6533260409,
				"y": -1.8169526152,
				"z": 2.3764666354,
				"element": "C" 
			},
			{
				"x": 0.6183527375,
				"y": -1.3235859865,
				"z": 3.6800071776,
				"element": "C" 
			},
			{
				"x": 0.1708640152,
				"y": -0.0233516543,
				"z": 3.928854905,
				"element": "C" 
			},
			{
				"x": -0.239069998,
				"y": 0.7870534363,
				"z": 2.8691566409,
				"element": "C" 
			},
			{
				"x": -0.2034984063,
				"y": 0.2989199964,
				"z": 1.5615935495,
				"element": "C" 
			},
			{
				"x": 1.7529484474,
				"y": -1.6814610659,
				"z": -0.780850005,
				"element": "S" 
			},
			{
				"x": 1.5069919344,
				"y": -2.2866205328,
				"z": -2.0935482958,
				"element": "O" 
			},
			{
				"x": 2.7362594625,
				"y": -2.2772297659,
				"z": 0.1341846592,
				"element": "O" 
			},
			{
				"x": 2.2446536758,
				"y": 0.0330806904,
				"z": -1.0275419244,
				"element": "C" 
			},
			{
				"x": 1.5527526311,
				"y": 0.8106865443,
				"z": -1.9524663634,
				"element": "C" 
			},
			{
				"x": 1.9628053261,
				"y": 2.1279638065,
				"z": -2.1817082649,
				"element": "C" 
			},
			{
				"x": 3.0509600073,
				"y": 2.6486739902,
				"z": -1.4636144878,
				"element": "C" 
			},
			{
				"x": 3.7327913934,
				"y": 1.8580789217,
				"z": -0.5397699993,
				"element": "C" 
			},
			{
				"x": 3.3364792968,
				"y": 0.5375868703,
				"z": -0.3203451683,
				"element": "C" 
			},
			{
				"x": 1.1679561234,
				"y": 2.9374242656,
				"z": -3.1654893531,
				"element": "C" 
			},
			{
				"x": 1.7956295367,
				"y": 4.0030114222,
				"z": -3.728398959,
				"element": "O" 
			},
			{
				"x": 0.023645546,
				"y": 2.6822650386,
				"z": -3.4550662909,
				"element": "O" 
			},
			{
				"x": -4.0858235808,
				"y": 0.1754536835,
				"z": -0.7799273584,
				"element": "H" 
			},
			{
				"x": -4.5553956676,
				"y": -1.1573926264,
				"z": -1.8420407864,
				"element": "H" 
			},
			{
				"x": -3.9247846353,
				"y": 0.344625896,
				"z": -2.5327144633,
				"element": "H" 
			},
			{
				"x": -1.6826419448,
				"y": -0.0913765047,
				"z": -1.5221156802,
				"element": "H" 
			},
			{
				"x": -2.146023535,
				"y": -1.4199291858,
				"z": -2.568312067,
				"element": "H" 
			},
			{
				"x": -2.9098978683,
				"y": -2.7387370662,
				"z": -0.5737282351,
				"element": "H" 
			},
			{
				"x": -2.4559823809,
				"y": -1.4166465378,
				"z": 0.4863097797,
				"element": "H" 
			},
			{
				"x": -0.5245054487,
				"y": -2.9515024369,
				"z": -1.3379806089,
				"element": "H" 
			},
			{
				"x": -0.7844418313,
				"y": -3.3127208648,
				"z": 0.3754320482,
				"element": "H" 
			},
			{
				"x": 1.0171874785,
				"y": -2.8183228229,
				"z": 2.1736602721,
				"element": "H" 
			},
			{
				"x": 0.9440125937,
				"y": -1.9540182768,
				"z": 4.502207414,
				"element": "H" 
			},
			{
				"x": 0.1433026852,
				"y": 0.3561945992,
				"z": 4.9461770462,
				"element": "H" 
			},
			{
				"x": -0.5876029247,
				"y": 1.7982437914,
				"z": 3.0575483866,
				"element": "H" 
			},
			{
				"x": -0.5176627052,
				"y": 0.9167682066,
				"z": 0.7268044468,
				"element": "H" 
			},
			{
				"x": 0.7065277431,
				"y": 0.414252648,
				"z": -2.501724734,
				"element": "H" 
			},
			{
				"x": 3.3508570988,
				"y": 3.6857159994,
				"z": -1.592568398,
				"element": "H" 
			},
			{
				"x": 4.5685872512,
				"y": 2.271245768,
				"z": 0.0158729515,
				"element": "H" 
			},
			{
				"x": 3.8542434147,
				"y": -0.101082378,
				"z": 0.3863370907,
				"element": "H" 
			},
			{
				"x": 2.7440162734,
				"y": 3.973783417,
				"z": -3.5405011538,
				"element": "H" 
			}
		],
		 "valence_orbital": [ 
			{
				"type": "occ",
				"energy": -0.29067,
				"method": "rhf"
			},
			{
				"type": "occ",
				"energy": -0.27814,
				"method": "rhf"
			},
			{
				"type": "occ",
				"energy": -0.262,
				"method": "rhf"
			},
			{
				"type": "occ",
				"energy": -0.25894,
				"method": "rhf"
			},
			{
				"type": "occ",
				"energy": -0.25253,
				"method": "rhf"
			},
			{
				"type": "unocc",
				"energy": -0.06636,
				"method": "rhf"
			},
			{
				"type": "unocc",
				"energy": -0.05143,
				"method": "rhf"
			},
			{
				"type": "unocc",
				"energy": -0.02227,
				"method": "rhf"
			},
			{
				"type": "unocc",
				"energy": -0.01305,
				"method": "rhf"
			},
			{
				"type": "unocc",
				"energy": 0.02589,
				"method": "rhf"
			}
		],
		"cosmo_sigma_profile": { 
			"-0.025": 0.0,
			"-0.024": 0.0,
			"-0.023": 0.0,
			"-0.022": 0.0,
			"-0.021": 0.0,
			"-0.02": 0.071980292937,
			"-0.019": 0.752557600992,
			"-0.018": 0.848169431001,
			"-0.017": 0.987741188807,
			"-0.016": 1.24331501191,
			"-0.015": 0.857800247303,
			"-0.014": 0.997568407529,
			"-0.013": 1.23318709294,
			"-0.012": 1.27213524017,
			"-0.011": 1.42726002376,
			"-0.01": 1.33316204752,
			"-0.009": 1.68451301313,
			"-0.008": 4.3676530598,
			"-0.007": 7.5413089404,
			"-0.006": 14.9163857905,
			"-0.005": 18.4574140418,
			"-0.004": 22.4911071389,
			"-0.003": 31.157671489,
			"-0.002": 37.3942139192,
			"-0.001": 38.2186977606,
			"0.0": 40.4772659531,
			"0.001": 35.6654787755,
			"0.002": 19.1881478735,
			"0.003": 13.439400465,
			"0.004": 13.1000802825,
			"0.005": 10.3227483684,
			"0.006": 4.76315227851,
			"0.007": 5.06241370161,
			"0.008": 7.26880743115,
			"0.009": 7.95415425516,
			"0.01": 12.1145028094,
			"0.011": 11.70292556,
			"0.012": 4.84762001592,
			"0.013": 0.668075401185,
			"0.014": 0.0,
			"0.015": 0.0,
			"0.016": 0.0,
			"0.017": 0.0,
			"0.018": 0.0,
			"0.019": 0.0,
			"0.02": 0.0,
			"0.021": 0.0,
			"0.022": 0.0,
			"0.023": 0.0,
			"0.024": 0.0,
			"0.0": 0.0
		}
	}
}
