{
	 "smiles": "ClS(=O)(=O)CC1=CC(=CC=C1)C#N", 
	 "Tm": 374.15, 
	 "num_atms": 19, 
	 "gaussian": { 
		 "optdone": 1, 
		 "sigma_profile": "yes", 
		 "theory": "DFT", 
		 "functional": "B3LYP", 
		 "basiset": "6-31G**", 
		 "properties": { 
			 "R2extent": 4163.056, 
			 "electric_dipole_moment_norm": 4.23689155632, 
			 "electric_quadrupole_moment_norm": 28.3780063822, 
			 "total_energy": -1371.96512011, 
			 "HOMO_LUMO_gap": 0.1873, 
			 "cosmo_polarized_energy": -17.09, 
			 "cosmo_cavitation_energy": 28.3, 
			 "cosmo_dispersion_energy": -20.07, 
			 "cosmo_repulsion_energy": 1.55, 
			 "cosmo_total_nonelectrostatic_energy": 9.78, 
			 "SMD_solvation_energy": 4.8 
		},
		"coords": [
			{
				"x": 1.9116862389,
				"y": 2.8949986933,
				"z": -0.2794318368,
				"element": "Cl" 
			},
			{
				"x": -0.1110655903,
				"y": 3.4201783567,
				"z": 0.116951243,
				"element": "S" 
			},
			{
				"x": -0.11213158,
				"y": 4.2802343098,
				"z": 1.2935611726,
				"element": "O" 
			},
			{
				"x": -0.7046359811,
				"y": 3.8436916964,
				"z": -1.1454633933,
				"element": "O" 
			},
			{
				"x": -0.8022354141,
				"y": 1.7854645975,
				"z": 0.6119267597,
				"element": "C" 
			},
			{
				"x": -0.8131514494,
				"y": 0.7510301348,
				"z": -0.4723681769,
				"element": "C" 
			},
			{
				"x": 0.0934465269,
				"y": -0.3112107164,
				"z": -0.4317300362,
				"element": "C" 
			},
			{
				"x": 0.0754881981,
				"y": -1.2915843803,
				"z": -1.4356595887,
				"element": "C" 
			},
			{
				"x": -0.8478879382,
				"y": -1.2021701602,
				"z": -2.4898289293,
				"element": "C" 
			},
			{
				"x": -1.7450225784,
				"y": -0.1372462673,
				"z": -2.5303301718,
				"element": "C" 
			},
			{
				"x": -1.7319313182,
				"y": 0.8330324846,
				"z": -1.5298268232,
				"element": "C" 
			},
			{
				"x": 1.000217494,
				"y": -2.3870610999,
				"z": -1.3793701653,
				"element": "C" 
			},
			{
				"x": 1.7468140455,
				"y": -3.2774410793,
				"z": -1.3326468515,
				"element": "N" 
			},
			{
				"x": -1.80873351,
				"y": 2.070380482,
				"z": 0.9364128212,
				"element": "H" 
			},
			{
				"x": -0.2204317433,
				"y": 1.4927631624,
				"z": 1.4875850348,
				"element": "H" 
			},
			{
				"x": 0.8146997532,
				"y": -0.3878633191,
				"z": 0.3752816503,
				"element": "H" 
			},
			{
				"x": -0.8548925676,
				"y": -1.9634912306,
				"z": -3.2623185895,
				"element": "H" 
			},
			{
				"x": -2.4584486079,
				"y": -0.0638334221,
				"z": -3.3446116055,
				"element": "H" 
			},
			{
				"x": -2.4276839782,
				"y": 1.6648277576,
				"z": -1.5733325136,
				"element": "H" 
			}
		],
		 "valence_orbital": [ 
			{
				"type": "occ",
				"energy": -0.3445,
				"method": "rhf"
			},
			{
				"type": "occ",
				"energy": -0.34151,
				"method": "rhf"
			},
			{
				"type": "occ",
				"energy": -0.32492,
				"method": "rhf"
			},
			{
				"type": "occ",
				"energy": -0.29276,
				"method": "rhf"
			},
			{
				"type": "occ",
				"energy": -0.28348,
				"method": "rhf"
			},
			{
				"type": "unocc",
				"energy": -0.09618,
				"method": "rhf"
			},
			{
				"type": "unocc",
				"energy": -0.07044,
				"method": "rhf"
			},
			{
				"type": "unocc",
				"energy": -0.04946,
				"method": "rhf"
			},
			{
				"type": "unocc",
				"energy": 0.02233,
				"method": "rhf"
			},
			{
				"type": "unocc",
				"energy": 0.03175,
				"method": "rhf"
			}
		],
		"cosmo_sigma_profile": { 
			"-0.025": 0.0,
			"-0.024": 0.0,
			"-0.023": 0.0,
			"-0.022": 0.0,
			"-0.021": 0.0,
			"-0.02": 0.0,
			"-0.019": 0.0,
			"-0.018": 0.0,
			"-0.017": 0.0,
			"-0.016": 0.0,
			"-0.015": 0.0,
			"-0.014": 0.0,
			"-0.013": 0.490223676966,
			"-0.012": 1.67250923295,
			"-0.011": 4.84896877679,
			"-0.01": 5.25137990865,
			"-0.009": 5.7136503685,
			"-0.008": 9.74643795661,
			"-0.007": 12.6298170761,
			"-0.006": 10.177530147,
			"-0.005": 8.39958710912,
			"-0.004": 7.47789576183,
			"-0.003": 9.67719441863,
			"-0.002": 11.871705241,
			"-0.001": 14.0434269215,
			"0.0": 18.3212089747,
			"0.001": 19.295775599,
			"0.002": 14.7473161768,
			"0.003": 15.487611634,
			"0.004": 8.33061292789,
			"0.005": 6.99945452309,
			"0.006": 5.23067401863,
			"0.007": 7.92521168743,
			"0.008": 14.3018962822,
			"0.009": 8.91853976743,
			"0.01": 3.1176800794,
			"0.011": 2.76244903398,
			"0.012": 2.26147897605,
			"0.013": 1.0858851136,
			"0.014": 0.0,
			"0.015": 0.0,
			"0.016": 0.0,
			"0.017": 0.0,
			"0.018": 0.0,
			"0.019": 0.0,
			"0.02": 0.0,
			"0.021": 0.0,
			"0.022": 0.0,
			"0.023": 0.0,
			"0.024": 0.0,
			"0.025": 0.0
		}
	}
}
