{
	 "smiles": "COC1=C(OC)C=C(C=C1)S(=O)(=O)CCC(O)=O", 
	 "Tm": 413.15, 
	 "num_atms": 32, 
	 "gaussian": { 
		 "optdone": 1, 
		 "sigma_profile": "yes", 
		 "theory": "DFT", 
		 "functional": "B3LYP", 
		 "basiset": "6-31G**", 
		 "properties": { 
			 "R2extent": 6031.6507, 
			 "electric_dipole_moment_norm": 4.10205002042, 
			 "electric_quadrupole_moment_norm": 21.3291709515, 
			 "total_energy": -1277.06016576, 
			 "HOMO_LUMO_gap": 0.19654, 
			 "cosmo_polarized_energy": -20.74, 
			 "cosmo_cavitation_energy": 36.65, 
			 "cosmo_dispersion_energy": -25.45, 
			 "cosmo_repulsion_energy": 1.93, 
			 "cosmo_total_nonelectrostatic_energy": 13.13, 
			 "SMD_solvation_energy": 7.95 
		},
		"coords": [
			{
				"x": 1.1769844091,
				"y": 4.4032777591,
				"z": -0.581445957,
				"element": "C" 
			},
			{
				"x": 1.0405078045,
				"y": 3.1703289183,
				"z": -1.3002920339,
				"element": "O" 
			},
			{
				"x": 0.8485728218,
				"y": 2.0358800905,
				"z": -0.5639990994,
				"element": "C" 
			},
			{
				"x": 1.8180156854,
				"y": 1.5584692277,
				"z": 0.3547400757,
				"element": "C" 
			},
			{
				"x": 2.9456160558,
				"y": 2.3056721045,
				"z": 0.4925976555,
				"element": "O" 
			},
			{
				"x": 3.9966918168,
				"y": 1.7876439863,
				"z": 1.3089362716,
				"element": "C" 
			},
			{
				"x": 1.5770545475,
				"y": 0.3669512125,
				"z": 1.0419642252,
				"element": "C" 
			},
			{
				"x": 0.4093156432,
				"y": -0.3558702906,
				"z": 0.7783905372,
				"element": "C" 
			},
			{
				"x": -0.5440360038,
				"y": 0.0897885792,
				"z": -0.1332574622,
				"element": "C" 
			},
			{
				"x": -0.3130196661,
				"y": 1.2973019472,
				"z": -0.7922227943,
				"element": "C" 
			},
			{
				"x": 0.1507547149,
				"y": -1.9114183318,
				"z": 1.6343909227,
				"element": "S" 
			},
			{
				"x": 0.9595623172,
				"y": -1.894473602,
				"z": 2.8671091567,
				"element": "O" 
			},
			{
				"x": -1.2965961775,
				"y": -2.1761119506,
				"z": 1.6716733619,
				"element": "O" 
			},
			{
				"x": 0.8608928364,
				"y": -3.201480638,
				"z": 0.5456344277,
				"element": "C" 
			},
			{
				"x": 2.3903778237,
				"y": -3.2577277411,
				"z": 0.5314922857,
				"element": "C" 
			},
			{
				"x": 3.0875066436,
				"y": -2.2182426467,
				"z": -0.3248565165,
				"element": "C" 
			},
			{
				"x": 2.5000249575,
				"y": -2.0793730016,
				"z": -1.5350025779,
				"element": "O" 
			},
			{
				"x": 4.0797001659,
				"y": -1.6019633694,
				"z": -0.0021095272,
				"element": "O" 
			},
			{
				"x": 0.2944951402,
				"y": 4.5845605673,
				"z": 0.0445228937,
				"element": "H" 
			},
			{
				"x": 2.0761247434,
				"y": 4.410772412,
				"z": 0.0384864128,
				"element": "H" 
			},
			{
				"x": 1.2445616805,
				"y": 5.1834471491,
				"z": -1.3416406422,
				"element": "H" 
			},
			{
				"x": 4.3163344468,
				"y": 0.799946809,
				"z": 0.9597509596,
				"element": "H" 
			},
			{
				"x": 4.8190976312,
				"y": 2.4977261663,
				"z": 1.2150657324,
				"element": "H" 
			},
			{
				"x": 3.6914784058,
				"y": 1.7261555295,
				"z": 2.3606759251,
				"element": "H" 
			},
			{
				"x": 2.2806923995,
				"y": -0.0136527489,
				"z": 1.7703526166,
				"element": "H" 
			},
			{
				"x": -1.4533324287,
				"y": -0.4770236108,
				"z": -0.2972070107,
				"element": "H" 
			},
			{
				"x": -1.0292625251,
				"y": 1.6945300166,
				"z": -1.5038991832,
				"element": "H" 
			},
			{
				"x": 0.4467146499,
				"y": -4.1179506966,
				"z": 0.9759799446,
				"element": "H" 
			},
			{
				"x": 0.4332715684,
				"y": -3.0595090228,
				"z": -0.4486310371,
				"element": "H" 
			},
			{
				"x": 2.6853149011,
				"y": -4.2365732736,
				"z": 0.131630242,
				"element": "H" 
			},
			{
				"x": 2.7887716744,
				"y": -3.1813261138,
				"z": 1.5446665571,
				"element": "H" 
			},
			{
				"x": 3.0053113168,
				"y": -1.400255437,
				"z": -2.0129963622,
				"element": "H" 
			}
		],
		 "valence_orbital": [ 
			{
				"type": "occ",
				"energy": -0.2907,
				"method": "rhf"
			},
			{
				"type": "occ",
				"energy": -0.28997,
				"method": "rhf"
			},
			{
				"type": "occ",
				"energy": -0.2828,
				"method": "rhf"
			},
			{
				"type": "occ",
				"energy": -0.25888,
				"method": "rhf"
			},
			{
				"type": "occ",
				"energy": -0.23118,
				"method": "rhf"
			},
			{
				"type": "unocc",
				"energy": -0.03464,
				"method": "rhf"
			},
			{
				"type": "unocc",
				"energy": -0.0166,
				"method": "rhf"
			},
			{
				"type": "unocc",
				"energy": -0.00255,
				"method": "rhf"
			},
			{
				"type": "unocc",
				"energy": 0.05882,
				"method": "rhf"
			},
			{
				"type": "unocc",
				"energy": 0.06338,
				"method": "rhf"
			}
		],
		"cosmo_sigma_profile": { 
			"-0.025": 0.0,
			"-0.024": 0.0,
			"-0.023": 0.0,
			"-0.022": 0.0,
			"-0.021": 0.0,
			"-0.02": 0.0,
			"-0.019": 0.176869247746,
			"-0.018": 0.887620058576,
			"-0.017": 1.04442262784,
			"-0.016": 0.655568252468,
			"-0.015": 0.614466459301,
			"-0.014": 0.800024535386,
			"-0.013": 0.409490117801,
			"-0.012": 0.548384250627,
			"-0.011": 0.689926876171,
			"-0.01": 0.779095451797,
			"-0.009": 3.02006785854,
			"-0.008": 8.73764095336,
			"-0.007": 11.5639526368,
			"-0.006": 16.6503772986,
			"-0.005": 22.0222525113,
			"-0.004": 22.6859948258,
			"-0.003": 25.2027260626,
			"-0.002": 17.7140337227,
			"-0.001": 15.1950035717,
			"0.0": 17.6437678943,
			"0.001": 16.2872556875,
			"0.002": 18.6212487339,
			"0.003": 14.632849472,
			"0.004": 8.94797237492,
			"0.005": 7.44090408607,
			"0.006": 5.82659591193,
			"0.007": 6.29458858901,
			"0.008": 8.66440137335,
			"0.009": 6.63579203751,
			"0.01": 8.10596111578,
			"0.011": 12.1673391477,
			"0.012": 8.76332220231,
			"0.013": 0.698401627595,
			"0.014": 0.0,
			"0.015": 0.0,
			"0.016": 0.0,
			"0.017": 0.0,
			"0.018": 0.0,
			"0.019": 0.0,
			"0.02": 0.0,
			"0.021": 0.0,
			"0.022": 0.0,
			"0.023": 0.0,
			"0.024": 0.0,
			"0.025": 0.0
		}
	}
}
