{
	 "smiles": "COC1=CC(C=CC(O)=O)=C(OC)C=C1", 
	 "Tm": 421.15, 
	 "num_atms": 27, 
	 "gaussian": { 
		 "optdone": 1, 
		 "sigma_profile": "yes", 
		 "theory": "DFT", 
		 "functional": "B3LYP", 
		 "basiset": "6-31G**", 
		 "properties": { 
			 "R2extent": 3980.2763, 
			 "electric_dipole_moment_norm": 4.15071728018, 
			 "electric_quadrupole_moment_norm": 13.6419369812, 
			 "total_energy": -727.261463572, 
			 "HOMO_LUMO_gap": 0.1525, 
			 "cosmo_polarized_energy": -14.86, 
			 "cosmo_cavitation_energy": 31.34, 
			 "cosmo_dispersion_energy": -22.09, 
			 "cosmo_repulsion_energy": 1.74, 
			 "cosmo_total_nonelectrostatic_energy": 10.99, 
			 "SMD_solvation_energy": 8.09 
		},
		"coords": [
			{
				"x": 0.5260894696,
				"y": -1.6804344645,
				"z": 3.6414206146,
				"element": "C" 
			},
			{
				"x": 1.2152698363,
				"y": -0.983020761,
				"z": 2.6190390001,
				"element": "O" 
			},
			{
				"x": 0.5230359241,
				"y": -0.6681774857,
				"z": 1.4807454423,
				"element": "C" 
			},
			{
				"x": 1.2472549323,
				"y": 0.0152618117,
				"z": 0.4969261579,
				"element": "C" 
			},
			{
				"x": 0.6618496122,
				"y": 0.4235245188,
				"z": -0.70346307,
				"element": "C" 
			},
			{
				"x": 1.5147113806,
				"y": 1.1161171463,
				"z": -1.6872057389,
				"element": "C" 
			},
			{
				"x": 1.2562877963,
				"y": 2.1625015145,
				"z": -2.4910531969,
				"element": "C" 
			},
			{
				"x": 0.0389938009,
				"y": 3.0003789205,
				"z": -2.5661272883,
				"element": "C" 
			},
			{
				"x": -0.6229050376,
				"y": 3.1292309035,
				"z": -1.3905266397,
				"element": "O" 
			},
			{
				"x": -0.3103739211,
				"y": 3.5888422166,
				"z": -3.5714390621,
				"element": "O" 
			},
			{
				"x": -0.6922369125,
				"y": 0.0767239041,
				"z": -0.9478384157,
				"element": "C" 
			},
			{
				"x": -1.2018378869,
				"y": 0.4188409337,
				"z": -2.1672927957,
				"element": "O" 
			},
			{
				"x": -2.5444469706,
				"y": 0.077470303,
				"z": -2.4622846317,
				"element": "C" 
			},
			{
				"x": -1.4089005492,
				"y": -0.6165569924,
				"z": 0.0264669422,
				"element": "C" 
			},
			{
				"x": -0.8146997354,
				"y": -0.9816866224,
				"z": 1.2413194427,
				"element": "C" 
			},
			{
				"x": 0.1673592944,
				"y": -2.6595349556,
				"z": 3.2962392678,
				"element": "H" 
			},
			{
				"x": 1.2470869202,
				"y": -1.8282554987,
				"z": 4.4471336872,
				"element": "H" 
			},
			{
				"x": -0.3267309817,
				"y": -1.103639093,
				"z": 4.0238922578,
				"element": "H" 
			},
			{
				"x": 2.2897366399,
				"y": 0.2445945555,
				"z": 0.6958496244,
				"element": "H" 
			},
			{
				"x": 2.5174095992,
				"y": 0.6958486374,
				"z": -1.7681517372,
				"element": "H" 
			},
			{
				"x": 2.0116216895,
				"y": 2.4651301043,
				"z": -3.2102232948,
				"element": "H" 
			},
			{
				"x": -1.3832273828,
				"y": 3.7014812137,
				"z": -1.5862467797,
				"element": "H" 
			},
			{
				"x": -3.2472769971,
				"y": 0.5584292485,
				"z": -1.7690843085,
				"element": "H" 
			},
			{
				"x": -2.7029120536,
				"y": -1.0086931915,
				"z": -2.4347215099,
				"element": "H" 
			},
			{
				"x": -2.7306598633,
				"y": 0.4424153881,
				"z": -3.4734053384,
				"element": "H" 
			},
			{
				"x": -2.443290275,
				"y": -0.88888683,
				"z": -0.1446677238,
				"element": "H" 
			},
			{
				"x": -1.4077083289,
				"y": -1.5157054252,
				"z": 1.9741990943,
				"element": "H" 
			}
		],
		 "valence_orbital": [ 
			{
				"type": "occ",
				"energy": -0.29549,
				"method": "rhf"
			},
			{
				"type": "occ",
				"energy": -0.28407,
				"method": "rhf"
			},
			{
				"type": "occ",
				"energy": -0.26473,
				"method": "rhf"
			},
			{
				"type": "occ",
				"energy": -0.23689,
				"method": "rhf"
			},
			{
				"type": "occ",
				"energy": -0.20105,
				"method": "rhf"
			},
			{
				"type": "unocc",
				"energy": -0.04855,
				"method": "rhf"
			},
			{
				"type": "unocc",
				"energy": 0.00578,
				"method": "rhf"
			},
			{
				"type": "unocc",
				"energy": 0.02802,
				"method": "rhf"
			},
			{
				"type": "unocc",
				"energy": 0.07531,
				"method": "rhf"
			},
			{
				"type": "unocc",
				"energy": 0.08758,
				"method": "rhf"
			}
		],
		"cosmo_sigma_profile": { 
			"-0.025": 0.0,
			"-0.024": 0.0,
			"-0.023": 0.0,
			"-0.022": 0.0,
			"-0.021": 0.0,
			"-0.02": 0.0,
			"-0.019": 0.0,
			"-0.018": 0.208057847741,
			"-0.017": 0.906031829332,
			"-0.016": 0.771096685441,
			"-0.015": 0.803832751672,
			"-0.014": 0.781576710382,
			"-0.013": 0.474793325125,
			"-0.012": 0.743848096454,
			"-0.011": 0.806358407261,
			"-0.01": 0.652196823618,
			"-0.009": 0.380779661978,
			"-0.008": 0.814813591268,
			"-0.007": 4.77729137511,
			"-0.006": 17.9025715219,
			"-0.005": 27.6503857395,
			"-0.004": 21.49041851,
			"-0.003": 24.1611320776,
			"-0.002": 15.9520194812,
			"-0.001": 11.4538317451,
			"0.0": 9.91163552006,
			"0.001": 11.6335389084,
			"0.002": 12.2513146823,
			"0.003": 13.998424276,
			"0.004": 16.1714633857,
			"0.005": 12.493864911,
			"0.006": 8.27322529639,
			"0.007": 5.98813458653,
			"0.008": 4.92671787965,
			"0.009": 6.06653984899,
			"0.01": 4.69773874168,
			"0.011": 3.37956578014,
			"0.012": 5.52309012135,
			"0.013": 2.42113479999,
			"0.014": 0.112651665125,
			"0.015": 0.0,
			"0.016": 0.0,
			"0.017": 0.0,
			"0.018": 0.0,
			"0.019": 0.0,
			"0.02": 0.0,
			"0.021": 0.0,
			"0.022": 0.0,
			"0.023": 0.0,
			"0.024": 0.0,
			"0.025": 0.0
		}
	}
}
