{
	 "smiles": "CC1=NC2=C(C=NN2C(C)=C1)C(N)=NO", 
	 "Tm": 501.15, 
	 "num_atms": 26, 
	 "gaussian": { 
		 "optdone": 1, 
		 "sigma_profile": "yes", 
		 "theory": "DFT", 
		 "functional": "B3LYP", 
		 "basiset": "6-31G**", 
		 "properties": { 
			 "R2extent": 4288.1346, 
			 "electric_dipole_moment_norm": 4.51256083616, 
			 "electric_quadrupole_moment_norm": 14.6865168345, 
			 "total_energy": -698.516695379, 
			 "HOMO_LUMO_gap": 0.13423, 
			 "cosmo_polarized_energy": -15.45, 
			 "cosmo_cavitation_energy": 30.14, 
			 "cosmo_dispersion_energy": -22.36, 
			 "cosmo_repulsion_energy": 1.76, 
			 "cosmo_total_nonelectrostatic_energy": 9.54, 
			 "SMD_solvation_energy": 3.7 
		},
		"coords": [
			{
				"x": 1.1821561205,
				"y": 3.1658576978,
				"z": -3.0604115643,
				"element": "C" 
			},
			{
				"x": 0.0926291209,
				"y": 2.2417241713,
				"z": -2.585480793,
				"element": "C" 
			},
			{
				"x": 0.4335233588,
				"y": 1.2354667141,
				"z": -1.7985691901,
				"element": "N" 
			},
			{
				"x": -0.5502292445,
				"y": 0.4099505749,
				"z": -1.3755997623,
				"element": "C" 
			},
			{
				"x": -0.5479613099,
				"y": -0.7255246383,
				"z": -0.5588808118,
				"element": "C" 
			},
			{
				"x": -1.8995231341,
				"y": -1.1257201574,
				"z": -0.5206288565,
				"element": "C" 
			},
			{
				"x": -2.7147037872,
				"y": -0.340602629,
				"z": -1.232922193,
				"element": "N" 
			},
			{
				"x": -1.8867541339,
				"y": 0.5978156619,
				"z": -1.7547809914,
				"element": "N" 
			},
			{
				"x": -2.264791689,
				"y": 1.6310449862,
				"z": -2.5663320531,
				"element": "C" 
			},
			{
				"x": -3.7134997563,
				"y": 1.7466114187,
				"z": -2.9109417422,
				"element": "C" 
			},
			{
				"x": -1.2601031895,
				"y": 2.4674012568,
				"z": -2.9881212544,
				"element": "C" 
			},
			{
				"x": 0.6037976263,
				"y": -1.3533819028,
				"z": 0.0903985707,
				"element": "C" 
			},
			{
				"x": 1.7990049971,
				"y": -0.6822017818,
				"z": 0.0660005986,
				"element": "N" 
			},
			{
				"x": 0.4033412684,
				"y": -2.4952294343,
				"z": 0.6744130738,
				"element": "N" 
			},
			{
				"x": 1.6341722617,
				"y": -2.9440014777,
				"z": 1.2451914414,
				"element": "O" 
			},
			{
				"x": 0.9907807439,
				"y": 4.1957775625,
				"z": -2.7376586697,
				"element": "H" 
			},
			{
				"x": 1.2386428197,
				"y": 3.1762456627,
				"z": -4.1550601827,
				"element": "H" 
			},
			{
				"x": 2.1443495526,
				"y": 2.8440157201,
				"z": -2.659999163,
				"element": "H" 
			},
			{
				"x": -2.3044495248,
				"y": -1.9728452945,
				"z": 0.0146741288,
				"element": "H" 
			},
			{
				"x": -4.3141759309,
				"y": 1.8489126256,
				"z": -2.0015343463,
				"element": "H" 
			},
			{
				"x": -3.884268825,
				"y": 2.6068141859,
				"z": -3.5601318037,
				"element": "H" 
			},
			{
				"x": -4.0598842666,
				"y": 0.8361833096,
				"z": -3.4103891642,
				"element": "H" 
			},
			{
				"x": -1.5032188165,
				"y": 3.3034462303,
				"z": -3.6336259596,
				"element": "H" 
			},
			{
				"x": 2.6088913391,
				"y": -1.2278669931,
				"z": 0.3165433212,
				"element": "H" 
			},
			{
				"x": 1.9027205745,
				"y": 0.0584709141,
				"z": -0.6144566157,
				"element": "H" 
			},
			{
				"x": 1.3827538247,
				"y": -3.8071643835,
				"z": 1.5935039827,
				"element": "H" 
			}
		],
		 "valence_orbital": [ 
			{
				"type": "occ",
				"energy": -0.27353,
				"method": "rhf"
			},
			{
				"type": "occ",
				"energy": -0.25979,
				"method": "rhf"
			},
			{
				"type": "occ",
				"energy": -0.25729,
				"method": "rhf"
			},
			{
				"type": "occ",
				"energy": -0.22955,
				"method": "rhf"
			},
			{
				"type": "occ",
				"energy": -0.18485,
				"method": "rhf"
			},
			{
				"type": "unocc",
				"energy": -0.05062,
				"method": "rhf"
			},
			{
				"type": "unocc",
				"energy": -0.01517,
				"method": "rhf"
			},
			{
				"type": "unocc",
				"energy": 0.02492,
				"method": "rhf"
			},
			{
				"type": "unocc",
				"energy": 0.08547,
				"method": "rhf"
			},
			{
				"type": "unocc",
				"energy": 0.09308,
				"method": "rhf"
			}
		],
		"cosmo_sigma_profile": { 
			"-0.025": 0.0,
			"-0.024": 0.0,
			"-0.023": 0.0,
			"-0.022": 0.0,
			"-0.021": 0.0,
			"-0.02": 0.0,
			"-0.019": 0.0,
			"-0.018": 0.0,
			"-0.017": 0.15047193685,
			"-0.016": 0.779255830849,
			"-0.015": 0.83869561675,
			"-0.014": 1.1630955692,
			"-0.013": 0.67112624606,
			"-0.012": 0.820733390954,
			"-0.011": 0.959945924217,
			"-0.01": 1.49748206114,
			"-0.009": 1.28555153549,
			"-0.008": 4.34276805127,
			"-0.007": 7.41682456238,
			"-0.006": 11.3163481546,
			"-0.005": 16.0874959777,
			"-0.004": 16.6740093664,
			"-0.003": 19.8093256775,
			"-0.002": 22.4518729123,
			"-0.001": 20.6256953487,
			"0.0": 15.4564549061,
			"0.001": 13.242653855,
			"0.002": 13.2430334178,
			"0.003": 11.7101773359,
			"0.004": 10.0567286094,
			"0.005": 6.87439568286,
			"0.006": 6.4920091342,
			"0.007": 7.09942522466,
			"0.008": 6.29489478063,
			"0.009": 7.02234217649,
			"0.01": 4.27873920325,
			"0.011": 4.85741290524,
			"0.012": 3.00977334201,
			"0.013": 1.69252359575,
			"0.014": 1.40495280643,
			"0.015": 0.0,
			"0.016": 0.0,
			"0.017": 0.0,
			"0.018": 0.0,
			"0.019": 0.0,
			"0.02": 0.0,
			"0.021": 0.0,
			"0.022": 0.0,
			"0.023": 0.0,
			"0.024": 0.0,
			"0.025": 0.0
		}
	}
}
