{
	 "smiles": "C(C1=CC=CC=C1)C1=CC2=C(C=CC=C2)C=N1", 
	 "Tm": 337.15, 
	 "num_atms": 30, 
	 "gaussian": { 
		 "optdone": 1, 
		 "sigma_profile": "yes", 
		 "theory": "DFT", 
		 "functional": "B3LYP", 
		 "basiset": "6-31G**", 
		 "properties": { 
			 "R2extent": 5115.8966, 
			 "electric_dipole_moment_norm": 2.28188290892, 
			 "electric_quadrupole_moment_norm": 7.33644127217, 
			 "total_energy": -672.304422161, 
			 "HOMO_LUMO_gap": 0.17259, 
			 "cosmo_polarized_energy": -8.5, 
			 "cosmo_cavitation_energy": 33.84, 
			 "cosmo_dispersion_energy": -24.41, 
			 "cosmo_repulsion_energy": 1.86, 
			 "cosmo_total_nonelectrostatic_energy": 11.29, 
			 "SMD_solvation_energy": 4.24 
		},
		"coords": [
			{
				"x": -1.563218335,
				"y": 0.7960186587,
				"z": -0.2348505877,
				"element": "C" 
			},
			{
				"x": -1.2348926911,
				"y": 1.4674146981,
				"z": 1.0914480538,
				"element": "C" 
			},
			{
				"x": -1.7598751098,
				"y": 0.9734329832,
				"z": 2.2912933284,
				"element": "C" 
			},
			{
				"x": -1.4578466382,
				"y": 1.5836527169,
				"z": 3.5108748898,
				"element": "C" 
			},
			{
				"x": -0.6211899879,
				"y": 2.6992979714,
				"z": 3.5455202467,
				"element": "C" 
			},
			{
				"x": -0.0901395415,
				"y": 3.1990204168,
				"z": 2.353612779,
				"element": "C" 
			},
			{
				"x": -0.3944708196,
				"y": 2.5893371717,
				"z": 1.1368326707,
				"element": "C" 
			},
			{
				"x": -0.3762829168,
				"y": 0.0857888876,
				"z": -0.8582507542,
				"element": "C" 
			},
			{
				"x": -0.2137972051,
				"y": -1.281439685,
				"z": -0.7727269353,
				"element": "C" 
			},
			{
				"x": 0.9204941847,
				"y": -1.9031919249,
				"z": -1.3539572257,
				"element": "C" 
			},
			{
				"x": 1.8641790714,
				"y": -1.0611689214,
				"z": -2.0161056112,
				"element": "C" 
			},
			{
				"x": 3.0161310159,
				"y": -1.6301463906,
				"z": -2.6171946358,
				"element": "C" 
			},
			{
				"x": 3.2260711166,
				"y": -2.989759035,
				"z": -2.5619771878,
				"element": "C" 
			},
			{
				"x": 2.2907250669,
				"y": -3.8290554256,
				"z": -1.9044923106,
				"element": "C" 
			},
			{
				"x": 1.1634015058,
				"y": -3.3024482247,
				"z": -1.3138780847,
				"element": "C" 
			},
			{
				"x": 1.5875134534,
				"y": 0.3329040638,
				"z": -2.0388609369,
				"element": "C" 
			},
			{
				"x": 0.5275434248,
				"y": 0.8910091247,
				"z": -1.4955653222,
				"element": "N" 
			},
			{
				"x": -2.3788317342,
				"y": 0.0812337806,
				"z": -0.086527003,
				"element": "H" 
			},
			{
				"x": -1.9131349572,
				"y": 1.5501123799,
				"z": -0.9487106049,
				"element": "H" 
			},
			{
				"x": -2.4153562678,
				"y": 0.1057011719,
				"z": 2.2715699821,
				"element": "H" 
			},
			{
				"x": -1.8779334063,
				"y": 1.1873715869,
				"z": 4.4313510807,
				"element": "H" 
			},
			{
				"x": -0.3858825437,
				"y": 3.17737227,
				"z": 4.4922467654,
				"element": "H" 
			},
			{
				"x": 0.5616829527,
				"y": 4.0683332563,
				"z": 2.3716359194,
				"element": "H" 
			},
			{
				"x": 0.0272658088,
				"y": 2.9695037641,
				"z": 0.2113967536,
				"element": "H" 
			},
			{
				"x": -0.9536297761,
				"y": -1.8898795055,
				"z": -0.2594179217,
				"element": "H" 
			},
			{
				"x": 3.7266397103,
				"y": -0.9779973676,
				"z": -3.1188231934,
				"element": "H" 
			},
			{
				"x": 4.1079442911,
				"y": -3.4266854384,
				"z": -3.0208547747,
				"element": "H" 
			},
			{
				"x": 2.4698247001,
				"y": -4.8999392672,
				"z": -1.8688331204,
				"element": "H" 
			},
			{
				"x": 0.4490215462,
				"y": -3.9486964442,
				"z": -0.8109064339,
				"element": "H" 
			},
			{
				"x": 2.2892440817,
				"y": 1.0007027274,
				"z": -2.5411498256,
				"element": "H" 
			}
		],
		 "valence_orbital": [ 
			{
				"type": "occ",
				"energy": -0.26062,
				"method": "rhf"
			},
			{
				"type": "occ",
				"energy": -0.25392,
				"method": "rhf"
			},
			{
				"type": "occ",
				"energy": -0.24036,
				"method": "rhf"
			},
			{
				"type": "occ",
				"energy": -0.23452,
				"method": "rhf"
			},
			{
				"type": "occ",
				"energy": -0.22345,
				"method": "rhf"
			},
			{
				"type": "unocc",
				"energy": -0.05086,
				"method": "rhf"
			},
			{
				"type": "unocc",
				"energy": -0.02275,
				"method": "rhf"
			},
			{
				"type": "unocc",
				"energy": 0.00732,
				"method": "rhf"
			},
			{
				"type": "unocc",
				"energy": 0.00988,
				"method": "rhf"
			},
			{
				"type": "unocc",
				"energy": 0.02576,
				"method": "rhf"
			}
		],
		"cosmo_sigma_profile": { 
			"-0.025": 0.0,
			"-0.024": 0.0,
			"-0.023": 0.0,
			"-0.022": 0.0,
			"-0.021": 0.0,
			"-0.02": 0.0,
			"-0.019": 0.0,
			"-0.018": 0.0,
			"-0.017": 0.0,
			"-0.016": 0.0,
			"-0.015": 0.0,
			"-0.014": 0.0,
			"-0.013": 0.0,
			"-0.012": 0.0,
			"-0.011": 0.0,
			"-0.01": 0.0,
			"-0.009": 0.0,
			"-0.008": 0.0,
			"-0.007": 2.86721955231,
			"-0.006": 17.0429769799,
			"-0.005": 24.5487682248,
			"-0.004": 24.0963586702,
			"-0.003": 22.0587564967,
			"-0.002": 18.4464118682,
			"-0.001": 19.3171777745,
			"0.0": 15.6374617775,
			"0.001": 18.9950460854,
			"0.002": 25.0361743212,
			"0.003": 26.8693428794,
			"0.004": 20.432325747,
			"0.005": 14.3055746391,
			"0.006": 11.1404387278,
			"0.007": 4.62566802649,
			"0.008": 1.38674731785,
			"0.009": 0.968094246074,
			"0.01": 0.663253064317,
			"0.011": 0.946943889731,
			"0.012": 0.36860238165,
			"0.013": 0.824792853033,
			"0.014": 0.412022342811,
			"0.015": 0.263792235952,
			"0.016": 0.0,
			"0.017": 0.0,
			"0.018": 0.0,
			"0.019": 0.0,
			"0.02": 0.0,
			"0.021": 0.0,
			"0.022": 0.0,
			"0.023": 0.0,
			"0.024": 0.0,
			"0.025": 0.0
		}
	}
}
