{
	 "smiles": "NS(=O)(=O)C1=CN(N=C1)C1=CC(=CC=C1)C(F)(F)F", 
	 "Tm": 436.15, 
	 "num_atms": 27, 
	 "gaussian": { 
		 "optdone": 1, 
		 "sigma_profile": "yes", 
		 "theory": "DFT", 
		 "functional": "B3LYP", 
		 "basiset": "6-31G**", 
		 "properties": { 
			 "R2extent": 8764.4974, 
			 "electric_dipole_moment_norm": 4.2509412393, 
			 "electric_quadrupole_moment_norm": 36.7817387572, 
			 "total_energy": -1398.20492238, 
			 "HOMO_LUMO_gap": 0.19819, 
			 "cosmo_polarized_energy": -22.26, 
			 "cosmo_cavitation_energy": 35.55, 
			 "cosmo_dispersion_energy": -25.7, 
			 "cosmo_repulsion_energy": 1.86, 
			 "cosmo_total_nonelectrostatic_energy": 11.72, 
			 "SMD_solvation_energy": 6.53 
		},
		"coords": [
			{
				"x": 0.0660089356,
				"y": 3.5213529193,
				"z": 4.389838365,
				"element": "N" 
			},
			{
				"x": -1.3668934308,
				"y": 2.9211542576,
				"z": 3.7573723648,
				"element": "S" 
			},
			{
				"x": -2.2767403486,
				"y": 4.0612444347,
				"z": 3.7031583262,
				"element": "O" 
			},
			{
				"x": -1.6484934112,
				"y": 1.6959446452,
				"z": 4.5024242737,
				"element": "O" 
			},
			{
				"x": -1.0438382951,
				"y": 2.4292055592,
				"z": 2.0905526728,
				"element": "C" 
			},
			{
				"x": -0.8203816092,
				"y": 1.1358611197,
				"z": 1.6605482743,
				"element": "C" 
			},
			{
				"x": -0.6253887837,
				"y": 1.2088508586,
				"z": 0.3161694915,
				"element": "N" 
			},
			{
				"x": -0.7077608425,
				"y": 2.4889349049,
				"z": -0.1454231041,
				"element": "N" 
			},
			{
				"x": -0.965495327,
				"y": 3.2283656489,
				"z": 0.9226362134,
				"element": "C" 
			},
			{
				"x": -0.3598409184,
				"y": 0.1450457724,
				"z": -0.5900459583,
				"element": "C" 
			},
			{
				"x": 0.2444880222,
				"y": 0.4341274332,
				"z": -1.815860705,
				"element": "C" 
			},
			{
				"x": 0.5099800166,
				"y": -0.6064217641,
				"z": -2.7038187717,
				"element": "C" 
			},
			{
				"x": 0.1854623597,
				"y": -1.9267949995,
				"z": -2.3797125851,
				"element": "C" 
			},
			{
				"x": -0.4217620483,
				"y": -2.1991625513,
				"z": -1.1556083135,
				"element": "C" 
			},
			{
				"x": -0.7043373668,
				"y": -1.1691430369,
				"z": -0.2594207522,
				"element": "C" 
			},
			{
				"x": 1.2165035018,
				"y": -0.3111236999,
				"z": -4.0025640048,
				"element": "C" 
			},
			{
				"x": 0.8200287937,
				"y": -1.1487995748,
				"z": -4.9851170211,
				"element": "F" 
			},
			{
				"x": 0.9930414201,
				"y": 0.9506886766,
				"z": -4.4235193496,
				"element": "F" 
			},
			{
				"x": 2.5555698298,
				"y": -0.457372858,
				"z": -3.8771720311,
				"element": "F" 
			},
			{
				"x": 0.3624408926,
				"y": 4.3888900001,
				"z": 3.9548817872,
				"element": "H" 
			},
			{
				"x": 0.8018908675,
				"y": 2.8253281313,
				"z": 4.4502912987,
				"element": "H" 
			},
			{
				"x": -0.7879122963,
				"y": 0.213911745,
				"z": 2.2185095027,
				"element": "H" 
			},
			{
				"x": -1.1074241498,
				"y": 4.296008524,
				"z": 0.828656413,
				"element": "H" 
			},
			{
				"x": 0.484933752,
				"y": 1.4594314003,
				"z": -2.0643405771,
				"element": "H" 
			},
			{
				"x": 0.3926889395,
				"y": -2.7247314533,
				"z": -3.0837664616,
				"element": "H" 
			},
			{
				"x": -0.6944208887,
				"y": -3.2179545755,
				"z": -0.8999185621,
				"element": "H" 
			},
			{
				"x": -1.2104476146,
				"y": -1.3895415175,
				"z": 0.6740492141,
				"element": "H" 
			}
		],
		 "valence_orbital": [ 
			{
				"type": "occ",
				"energy": -0.31216,
				"method": "rhf"
			},
			{
				"type": "occ",
				"energy": -0.30429,
				"method": "rhf"
			},
			{
				"type": "occ",
				"energy": -0.28908,
				"method": "rhf"
			},
			{
				"type": "occ",
				"energy": -0.28177,
				"method": "rhf"
			},
			{
				"type": "occ",
				"energy": -0.2572,
				"method": "rhf"
			},
			{
				"type": "unocc",
				"energy": -0.05901,
				"method": "rhf"
			},
			{
				"type": "unocc",
				"energy": -0.04369,
				"method": "rhf"
			},
			{
				"type": "unocc",
				"energy": -0.00142,
				"method": "rhf"
			},
			{
				"type": "unocc",
				"energy": 0.00745,
				"method": "rhf"
			},
			{
				"type": "unocc",
				"energy": 0.05066,
				"method": "rhf"
			}
		],
		"cosmo_sigma_profile": { 
			"-0.025": 0.0,
			"-0.024": 0.0,
			"-0.023": 0.0,
			"-0.022": 0.0,
			"-0.021": 0.0,
			"-0.02": 0.0,
			"-0.019": 0.0,
			"-0.018": 0.0,
			"-0.017": 0.0,
			"-0.016": 0.292816024799,
			"-0.015": 2.65919023579,
			"-0.014": 3.01936559957,
			"-0.013": 2.94524406616,
			"-0.012": 3.68719973511,
			"-0.011": 4.04061919959,
			"-0.01": 4.95278826371,
			"-0.009": 5.38540419544,
			"-0.008": 6.53036666408,
			"-0.007": 10.4873345597,
			"-0.006": 11.1450038917,
			"-0.005": 10.068001314,
			"-0.004": 10.2260484431,
			"-0.003": 10.8753752672,
			"-0.002": 14.6315088358,
			"-0.001": 17.4685796178,
			"0.0": 20.594138746,
			"0.001": 26.1026119791,
			"0.002": 32.6532036095,
			"0.003": 29.9873328765,
			"0.004": 6.16844557211,
			"0.005": 4.75647922961,
			"0.006": 4.94650947787,
			"0.007": 5.55649370945,
			"0.008": 5.95330877844,
			"0.009": 4.86800274886,
			"0.01": 9.4617228252,
			"0.011": 12.5187281625,
			"0.012": 3.93385773254,
			"0.013": 0.0540239836727,
			"0.014": 0.0,
			"0.015": 0.0,
			"0.016": 0.0,
			"0.017": 0.0,
			"0.018": 0.0,
			"0.019": 0.0,
			"0.02": 0.0,
			"0.021": 0.0,
			"0.022": 0.0,
			"0.023": 0.0,
			"0.024": 0.0,
			"0.025": 0.0
		}
	}
}
