{
	 "smiles": "CC1=CC(C(=O)CCl)=C(C)N1C1=CC=C(C=C1)C(C)(C)C", 
	 "Tm": 376.15, 
	 "num_atms": 43, 
	 "gaussian": { 
		 "optdone": 1, 
		 "sigma_profile": "yes", 
		 "theory": "DFT", 
		 "functional": "B3LYP", 
		 "basiset": "6-31G**", 
		 "properties": { 
			 "R2extent": 11815.2001, 
			 "electric_dipole_moment_norm": 9.10208262487, 
			 "electric_quadrupole_moment_norm": 47.1795217544, 
			 "total_energy": -1289.36027766, 
			 "HOMO_LUMO_gap": 0.18085, 
			 "cosmo_polarized_energy": -16.5, 
			 "cosmo_cavitation_energy": 46.31, 
			 "cosmo_dispersion_energy": -31.37, 
			 "cosmo_repulsion_energy": 2.43, 
			 "cosmo_total_nonelectrostatic_energy": 17.37, 
			 "SMD_solvation_energy": 8.29 
		},
		"coords": [
			{
				"x": 2.0126726605,
				"y": -2.001491499,
				"z": -1.7578853367,
				"element": "C" 
			},
			{
				"x": 2.6131125023,
				"y": -1.2258700985,
				"z": -0.6298350728,
				"element": "C" 
			},
			{
				"x": 3.8939200977,
				"y": -1.1942674724,
				"z": -0.1521549384,
				"element": "C" 
			},
			{
				"x": 3.9453768307,
				"y": -0.27591649,
				"z": 0.9454515266,
				"element": "C" 
			},
			{
				"x": 5.1991035251,
				"y": -0.0230050861,
				"z": 1.6721330445,
				"element": "C" 
			},
			{
				"x": 6.2367956391,
				"y": -0.5870975693,
				"z": 1.3664252387,
				"element": "O" 
			},
			{
				"x": 5.1526655636,
				"y": 0.9815364773,
				"z": 2.8344129811,
				"element": "C" 
			},
			{
				"x": 6.7414157857,
				"y": 1.2212651871,
				"z": 3.6309742706,
				"element": "Cl" 
			},
			{
				"x": 2.6581975874,
				"y": 0.2446268334,
				"z": 1.1144164363,
				"element": "C" 
			},
			{
				"x": 2.0900808644,
				"y": 1.2324850368,
				"z": 2.0889536432,
				"element": "C" 
			},
			{
				"x": 1.858917081,
				"y": -0.3413042757,
				"z": 0.1506211404,
				"element": "N" 
			},
			{
				"x": 0.4606938155,
				"y": -0.0932764224,
				"z": -0.0468472047,
				"element": "C" 
			},
			{
				"x": -0.4923738136,
				"y": -0.9161052741,
				"z": 0.5526115432,
				"element": "C" 
			},
			{
				"x": -1.8531612223,
				"y": -0.6827122164,
				"z": 0.3414267579,
				"element": "C" 
			},
			{
				"x": -2.2997620815,
				"y": 0.3714684698,
				"z": -0.4677974536,
				"element": "C" 
			},
			{
				"x": -1.3194730615,
				"y": 1.1874123479,
				"z": -1.0606003045,
				"element": "C" 
			},
			{
				"x": 0.0398171548,
				"y": 0.9637458752,
				"z": -0.8597594872,
				"element": "C" 
			},
			{
				"x": -3.7912363276,
				"y": 0.6570146036,
				"z": -0.7211182306,
				"element": "C" 
			},
			{
				"x": -4.1321468089,
				"y": 2.0820158796,
				"z": -0.2230147444,
				"element": "C" 
			},
			{
				"x": -4.7100412546,
				"y": -0.340681025,
				"z": 0.0091998062,
				"element": "C" 
			},
			{
				"x": -4.081306004,
				"y": 0.5601678667,
				"z": -2.2381584092,
				"element": "C" 
			},
			{
				"x": 2.7886690262,
				"y": -2.6104172184,
				"z": -2.2271002025,
				"element": "H" 
			},
			{
				"x": 1.583605981,
				"y": -1.3496274576,
				"z": -2.5281132641,
				"element": "H" 
			},
			{
				"x": 1.2132832071,
				"y": -2.6733325152,
				"z": -1.4236695589,
				"element": "H" 
			},
			{
				"x": 4.7383247751,
				"y": -1.7554396823,
				"z": -0.5237719639,
				"element": "H" 
			},
			{
				"x": 4.452590929,
				"y": 0.6400062252,
				"z": 3.6005078426,
				"element": "H" 
			},
			{
				"x": 4.8156087207,
				"y": 1.9577342734,
				"z": 2.4783945306,
				"element": "H" 
			},
			{
				"x": 2.2237488329,
				"y": 0.905567804,
				"z": 3.1258865232,
				"element": "H" 
			},
			{
				"x": 1.0194424203,
				"y": 1.3669210012,
				"z": 1.9251301939,
				"element": "H" 
			},
			{
				"x": 2.5612364455,
				"y": 2.2175969741,
				"z": 1.9961439347,
				"element": "H" 
			},
			{
				"x": -0.166731284,
				"y": -1.7366511353,
				"z": 1.1848009517,
				"element": "H" 
			},
			{
				"x": -2.5664211862,
				"y": -1.3411148951,
				"z": 0.8229433163,
				"element": "H" 
			},
			{
				"x": -1.6181379684,
				"y": 2.015917978,
				"z": -1.6954474451,
				"element": "H" 
			},
			{
				"x": 0.7810242534,
				"y": 1.6031587171,
				"z": -1.3295749047,
				"element": "H" 
			},
			{
				"x": -3.5425727285,
				"y": 2.8468097531,
				"z": -0.737195428,
				"element": "H" 
			},
			{
				"x": -3.9418512498,
				"y": 2.1785780724,
				"z": 0.8509222979,
				"element": "H" 
			},
			{
				"x": -5.1902970331,
				"y": 2.3028952712,
				"z": -0.4012089159,
				"element": "H" 
			},
			{
				"x": -5.7563240228,
				"y": -0.0977471658,
				"z": -0.2011027574,
				"element": "H" 
			},
			{
				"x": -4.5392721818,
				"y": -1.3706824431,
				"z": -0.3208231618,
				"element": "H" 
			},
			{
				"x": -4.5756162754,
				"y": -0.300899453,
				"z": 1.0951928622,
				"element": "H" 
			},
			{
				"x": -3.490667557,
				"y": 1.2786798695,
				"z": -2.8141425709,
				"element": "H" 
			},
			{
				"x": -3.8536098773,
				"y": -0.4410586264,
				"z": -2.6182581854,
				"element": "H" 
			},
			{
				"x": -5.1391017608,
				"y": 0.7657935042,
				"z": -2.4356693012,
				"element": "H" 
			}
		],
		 "valence_orbital": [ 
			{
				"type": "occ",
				"energy": -0.27121,
				"method": "rhf"
			},
			{
				"type": "occ",
				"energy": -0.262,
				"method": "rhf"
			},
			{
				"type": "occ",
				"energy": -0.2428,
				"method": "rhf"
			},
			{
				"type": "occ",
				"energy": -0.23956,
				"method": "rhf"
			},
			{
				"type": "occ",
				"energy": -0.20933,
				"method": "rhf"
			},
			{
				"type": "unocc",
				"energy": -0.02848,
				"method": "rhf"
			},
			{
				"type": "unocc",
				"energy": -0.02414,
				"method": "rhf"
			},
			{
				"type": "unocc",
				"energy": -0.02005,
				"method": "rhf"
			},
			{
				"type": "unocc",
				"energy": 0.03794,
				"method": "rhf"
			},
			{
				"type": "unocc",
				"energy": 0.03877,
				"method": "rhf"
			}
		],
		"cosmo_sigma_profile": { 
			"-0.025": 0.0,
			"-0.024": 0.0,
			"-0.023": 0.0,
			"-0.022": 0.0,
			"-0.021": 0.0,
			"-0.02": 0.0,
			"-0.019": 0.0,
			"-0.018": 0.0,
			"-0.017": 0.0,
			"-0.016": 0.0,
			"-0.015": 0.0,
			"-0.014": 0.0,
			"-0.013": 0.0,
			"-0.012": 0.0,
			"-0.011": 0.0,
			"-0.01": 0.0,
			"-0.009": 2.66198023683,
			"-0.008": 5.76538061066,
			"-0.007": 5.98319975035,
			"-0.006": 11.4336412983,
			"-0.005": 17.6201912708,
			"-0.004": 23.2142646284,
			"-0.003": 36.6035464524,
			"-0.002": 44.6307171413,
			"-0.001": 43.3716658984,
			"0.0": 35.2370709556,
			"0.001": 34.8052353978,
			"0.002": 19.8338161484,
			"0.003": 14.7372757396,
			"0.004": 16.9124798227,
			"0.005": 13.6210410037,
			"0.006": 14.0633802979,
			"0.007": 6.26842106158,
			"0.008": 2.71234966364,
			"0.009": 1.85366468129,
			"0.01": 2.4291932027,
			"0.011": 3.12284339387,
			"0.012": 4.27388925262,
			"0.013": 3.43980913274,
			"0.014": 1.71989661596,
			"0.015": 0.241569945564,
			"0.016": 0.0,
			"0.017": 0.0,
			"0.018": 0.0,
			"0.019": 0.0,
			"0.02": 0.0,
			"0.021": 0.0,
			"0.022": 0.0,
			"0.023": 0.0,
			"0.024": 0.0,
			"0.025": 0.0
		}
	}
}
