{
	 "smiles": "OC(=O)C1=CNN=C1", 
	 "Tm": 555.15, 
	 "num_atms": 12, 
	 "gaussian": { 
		 "optdone": 1, 
		 "sigma_profile": "yes", 
		 "theory": "DFT", 
		 "functional": "B3LYP", 
		 "basiset": "6-31G**", 
		 "properties": { 
			 "R2extent": 1539.3203, 
			 "electric_dipole_moment_norm": 3.6835396075, 
			 "electric_quadrupole_moment_norm": 20.9816504072, 
			 "total_energy": -414.766961173, 
			 "HOMO_LUMO_gap": 0.24065, 
			 "cosmo_polarized_energy": -18.96, 
			 "cosmo_cavitation_energy": 17.04, 
			 "cosmo_dispersion_energy": -12.89, 
			 "cosmo_repulsion_energy": 1.08, 
			 "cosmo_total_nonelectrostatic_energy": 5.23, 
			 "SMD_solvation_energy": 3.79 
		},
		"coords": [
			{
				"x": -0.2398780621,
				"y": 3.1700235525,
				"z": -0.9520869265,
				"element": "O" 
			},
			{
				"x": -0.3821160249,
				"y": 2.6356657014,
				"z": 0.2917349807,
				"element": "C" 
			},
			{
				"x": -1.229247263,
				"y": 3.0650264646,
				"z": 1.0409717294,
				"element": "O" 
			},
			{
				"x": 0.5353465545,
				"y": 1.5357902033,
				"z": 0.6502392285,
				"element": "C" 
			},
			{
				"x": 0.5138625781,
				"y": 0.8902605206,
				"z": 1.8788347023,
				"element": "C" 
			},
			{
				"x": 1.4853020995,
				"y": -0.0430741623,
				"z": 1.8321474604,
				"element": "N" 
			},
			{
				"x": 2.1575420504,
				"y": -0.0680093457,
				"z": 0.6557784642,
				"element": "N" 
			},
			{
				"x": 1.5825381465,
				"y": 0.8890903435,
				"z": -0.062373374,
				"element": "C" 
			},
			{
				"x": 0.4721166967,
				"y": 2.7297774825,
				"z": -1.4359384523,
				"element": "H" 
			},
			{
				"x": -0.120080765,
				"y": 1.0496763516,
				"z": 2.7378729922,
				"element": "H" 
			},
			{
				"x": 1.7489131692,
				"y": -0.6955878512,
				"z": 2.5551637746,
				"element": "H" 
			},
			{
				"x": 1.94640082,
				"y": 1.074660739,
				"z": -1.0659445797,
				"element": "H" 
			}
		],
		 "valence_orbital": [ 
			{
				"type": "occ",
				"energy": -0.31981,
				"method": "rhf"
			},
			{
				"type": "occ",
				"energy": -0.3159,
				"method": "rhf"
			},
			{
				"type": "occ",
				"energy": -0.28737,
				"method": "rhf"
			},
			{
				"type": "occ",
				"energy": -0.2706,
				"method": "rhf"
			},
			{
				"type": "occ",
				"energy": -0.26931,
				"method": "rhf"
			},
			{
				"type": "unocc",
				"energy": -0.02866,
				"method": "rhf"
			},
			{
				"type": "unocc",
				"energy": 0.00108,
				"method": "rhf"
			},
			{
				"type": "unocc",
				"energy": 0.05028,
				"method": "rhf"
			},
			{
				"type": "unocc",
				"energy": 0.0668,
				"method": "rhf"
			},
			{
				"type": "unocc",
				"energy": 0.11595,
				"method": "rhf"
			}
		],
		"cosmo_sigma_profile": { 
			"-0.025": 0.0,
			"-0.024": 0.0,
			"-0.023": 0.0,
			"-0.022": 0.0,
			"-0.021": 0.0,
			"-0.02": 0.0,
			"-0.019": 0.286516637587,
			"-0.018": 1.5301305416,
			"-0.017": 3.57629983983,
			"-0.016": 2.19221303805,
			"-0.015": 1.93817217202,
			"-0.014": 2.37878562951,
			"-0.013": 1.74004242977,
			"-0.012": 2.48293542055,
			"-0.011": 3.04561852235,
			"-0.01": 3.69850048234,
			"-0.009": 4.04114007573,
			"-0.008": 3.24975743371,
			"-0.007": 4.01296296559,
			"-0.006": 3.04732063171,
			"-0.005": 2.86132685941,
			"-0.004": 3.56390223688,
			"-0.003": 5.3435172898,
			"-0.002": 4.14404162197,
			"-0.001": 6.3008858552,
			"0.0": 6.65035285984,
			"0.001": 9.19736428681,
			"0.002": 8.72305799634,
			"0.003": 5.5824343108,
			"0.004": 3.29160111957,
			"0.005": 2.96144023269,
			"0.006": 4.65658396826,
			"0.007": 3.78092320313,
			"0.008": 3.13680397795,
			"0.009": 5.38279041791,
			"0.01": 4.7241614208,
			"0.011": 6.30965030234,
			"0.012": 7.0435481277,
			"0.013": 3.88136912758,
			"0.014": 1.21067817223,
			"0.015": 0.701076473749,
			"0.016": 0.010028638717,
			"0.017": 0.0,
			"0.018": 0.0,
			"0.019": 0.0,
			"0.02": 0.0,
			"0.021": 0.0,
			"0.022": 0.0,
			"0.023": 0.0,
			"0.024": 0.0,
			"0.025": 0.0
		}
	}
}
