{
	 "smiles": "CC(C)(C)OC(=O)NC(CC1=CC=NC=C1)C(O)=O", 
	 "Tm": 500.15, 
	 "num_atms": 37, 
	 "gaussian": { 
		 "optdone": 1, 
		 "sigma_profile": "yes", 
		 "theory": "DFT", 
		 "functional": "B3LYP", 
		 "basiset": "6-31G**", 
		 "properties": { 
			 "R2extent": 5988.4696, 
			 "electric_dipole_moment_norm": 1.4848972254, 
			 "electric_quadrupole_moment_norm": 21.5261506296, 
			 "total_energy": -916.67567295, 
			 "HOMO_LUMO_gap": 0.22699, 
			 "cosmo_polarized_energy": -20.67, 
			 "cosmo_cavitation_energy": 39.93, 
			 "cosmo_dispersion_energy": -25.96, 
			 "cosmo_repulsion_energy": 1.99, 
			 "cosmo_total_nonelectrostatic_energy": 15.96, 
			 "SMD_solvation_energy": 6.98 
		},
		"coords": [
			{
				"x": 1.2558582931,
				"y": 2.9607670491,
				"z": 0.5993233551,
				"element": "C" 
			},
			{
				"x": -0.2634019304,
				"y": 2.8295557015,
				"z": 0.4837795911,
				"element": "C" 
			},
			{
				"x": -0.8419370398,
				"y": 3.9071833545,
				"z": -0.4368133696,
				"element": "C" 
			},
			{
				"x": -0.9270985633,
				"y": 2.8190656325,
				"z": 1.863028562,
				"element": "C" 
			},
			{
				"x": -0.4199758832,
				"y": 1.5009207831,
				"z": -0.1576117501,
				"element": "O" 
			},
			{
				"x": -1.6291273469,
				"y": 1.009308546,
				"z": -0.4735210584,
				"element": "C" 
			},
			{
				"x": -2.7144045706,
				"y": 1.4982741664,
				"z": -0.2230835159,
				"element": "O" 
			},
			{
				"x": -1.4934979598,
				"y": -0.1700451418,
				"z": -1.2084734094,
				"element": "N" 
			},
			{
				"x": -0.3145545022,
				"y": -1.0436106073,
				"z": -1.133371958,
				"element": "C" 
			},
			{
				"x": 0.0306218831,
				"y": -1.5738010334,
				"z": 0.2752112543,
				"element": "C" 
			},
			{
				"x": -1.0256744267,
				"y": -2.5106491885,
				"z": 0.8133102737,
				"element": "C" 
			},
			{
				"x": -2.1675309514,
				"y": -2.0412028039,
				"z": 1.4755494903,
				"element": "C" 
			},
			{
				"x": -3.1264315447,
				"y": -2.9552624427,
				"z": 1.9153885113,
				"element": "C" 
			},
			{
				"x": -3.0289836481,
				"y": -4.279792352,
				"z": 1.7469911221,
				"element": "N" 
			},
			{
				"x": -1.9346475379,
				"y": -4.7262467993,
				"z": 1.1172044169,
				"element": "C" 
			},
			{
				"x": -0.9211979344,
				"y": -3.8962592755,
				"z": 0.63808973,
				"element": "C" 
			},
			{
				"x": 0.9075214522,
				"y": -0.3915081988,
				"z": -1.8160020898,
				"element": "C" 
			},
			{
				"x": 0.6058852236,
				"y": 0.4346028974,
				"z": -2.8353808984,
				"element": "O" 
			},
			{
				"x": 2.0461131879,
				"y": -0.6609658083,
				"z": -1.5244032323,
				"element": "O" 
			},
			{
				"x": 1.5113472587,
				"y": 3.9227629428,
				"z": 1.0531314731,
				"element": "H" 
			},
			{
				"x": 1.7255633517,
				"y": 2.9032349151,
				"z": -0.3861912315,
				"element": "H" 
			},
			{
				"x": 1.6692055567,
				"y": 2.1632809814,
				"z": 1.2231623347,
				"element": "H" 
			},
			{
				"x": -0.6282067103,
				"y": 4.8954590776,
				"z": -0.0179569801,
				"element": "H" 
			},
			{
				"x": -1.9221853041,
				"y": 3.7988612071,
				"z": -0.5415649409,
				"element": "H" 
			},
			{
				"x": -0.377301634,
				"y": 3.8513381442,
				"z": -1.4261209926,
				"element": "H" 
			},
			{
				"x": -0.7164649544,
				"y": 3.7642664273,
				"z": 2.3733067239,
				"element": "H" 
			},
			{
				"x": -0.521903683,
				"y": 2.0084635947,
				"z": 2.477053366,
				"element": "H" 
			},
			{
				"x": -2.0076172554,
				"y": 2.6985694582,
				"z": 1.7802312357,
				"element": "H" 
			},
			{
				"x": -2.3856284605,
				"y": -0.6425877113,
				"z": -1.2821527269,
				"element": "H" 
			},
			{
				"x": -0.5587848731,
				"y": -1.9052139462,
				"z": -1.7692892339,
				"element": "H" 
			},
			{
				"x": 0.1720939018,
				"y": -0.7191344213,
				"z": 0.9423471236,
				"element": "H" 
			},
			{
				"x": 0.9945943479,
				"y": -2.0823380431,
				"z": 0.1970930552,
				"element": "H" 
			},
			{
				"x": -2.3143445391,
				"y": -0.9795857281,
				"z": 1.6540458897,
				"element": "H" 
			},
			{
				"x": -4.0175326208,
				"y": -2.6018930106,
				"z": 2.4317008051,
				"element": "H" 
			},
			{
				"x": -1.8609757147,
				"y": -5.8052710526,
				"z": 0.9910308748,
				"element": "H" 
			},
			{
				"x": -0.0556034877,
				"y": -4.3269022038,
				"z": 0.1414235087,
				"element": "H" 
			},
			{
				"x": -0.3611913801,
				"y": 0.5498548895,
				"z": -2.8430653099,
				"element": "H" 
			}
		],
		 "valence_orbital": [ 
			{
				"type": "occ",
				"energy": -0.28815,
				"method": "rhf"
			},
			{
				"type": "occ",
				"energy": -0.28586,
				"method": "rhf"
			},
			{
				"type": "occ",
				"energy": -0.26938,
				"method": "rhf"
			},
			{
				"type": "occ",
				"energy": -0.26547,
				"method": "rhf"
			},
			{
				"type": "occ",
				"energy": -0.25782,
				"method": "rhf"
			},
			{
				"type": "unocc",
				"energy": -0.03083,
				"method": "rhf"
			},
			{
				"type": "unocc",
				"energy": -0.01848,
				"method": "rhf"
			},
			{
				"type": "unocc",
				"energy": 0.00196,
				"method": "rhf"
			},
			{
				"type": "unocc",
				"energy": 0.02087,
				"method": "rhf"
			},
			{
				"type": "unocc",
				"energy": 0.05853,
				"method": "rhf"
			}
		],
		"cosmo_sigma_profile": { 
			"-0.025": 0.0,
			"-0.024": 0.0,
			"-0.023": 0.0,
			"-0.022": 0.0,
			"-0.021": 0.0,
			"-0.02": 0.0,
			"-0.019": 0.0,
			"-0.018": 0.0,
			"-0.017": 0.0,
			"-0.016": 0.00217115010414,
			"-0.015": 0.696663483053,
			"-0.014": 1.18028589346,
			"-0.013": 1.5958284229,
			"-0.012": 2.13102942794,
			"-0.011": 2.4581883673,
			"-0.01": 3.40716157988,
			"-0.009": 5.05992382731,
			"-0.008": 3.92037530413,
			"-0.007": 5.62412834863,
			"-0.006": 13.1540350447,
			"-0.005": 17.1084436312,
			"-0.004": 26.7376328002,
			"-0.003": 26.6714833454,
			"-0.002": 27.8744489869,
			"-0.001": 27.2237279561,
			"0.0": 31.3179430181,
			"0.001": 20.1077916195,
			"0.002": 15.9639499059,
			"0.003": 14.6259560145,
			"0.004": 7.53651094905,
			"0.005": 7.54801638352,
			"0.006": 4.94605983522,
			"0.007": 5.18884366221,
			"0.008": 5.75256175565,
			"0.009": 5.59815529728,
			"0.01": 7.76280789292,
			"0.011": 7.62307407982,
			"0.012": 8.3089291977,
			"0.013": 3.74240621363,
			"0.014": 0.961886586466,
			"0.015": 0.625811950755,
			"0.016": 1.05648982584,
			"0.017": 0.429857827711,
			"0.018": 0.0,
			"0.019": 0.0,
			"0.02": 0.0,
			"0.021": 0.0,
			"0.022": 0.0,
			"0.023": 0.0,
			"0.024": 0.0,
			"0.025": 0.0
		}
	}
}
