{
	 "smiles": "OC1=C(C=CC2=C1C=CC=C2)N=O", 
	 "Tm": 430.15, 
	 "num_atms": 20, 
	 "gaussian": { 
		 "optdone": 1, 
		 "sigma_profile": "yes", 
		 "theory": "DFT", 
		 "functional": "B3LYP", 
		 "basiset": "6-31G**", 
		 "properties": { 
			 "R2extent": 3049.0158, 
			 "electric_dipole_moment_norm": 6.02977532417, 
			 "electric_quadrupole_moment_norm": 25.5349293606, 
			 "total_energy": -590.399020262, 
			 "HOMO_LUMO_gap": 0.11379, 
			 "cosmo_polarized_energy": -15.39, 
			 "cosmo_cavitation_energy": 24.53, 
			 "cosmo_dispersion_energy": -18.47, 
			 "cosmo_repulsion_energy": 1.42, 
			 "cosmo_total_nonelectrostatic_energy": 7.48, 
			 "SMD_solvation_energy": 4.56 
		},
		"coords": [
			{
				"x": -2.6619018716,
				"y": -0.5246175029,
				"z": 1.7758440572,
				"element": "O" 
			},
			{
				"x": -2.1277324928,
				"y": -0.4173958888,
				"z": 0.5420119117,
				"element": "C" 
			},
			{
				"x": -2.9242997638,
				"y": 0.1025923923,
				"z": -0.4816481999,
				"element": "C" 
			},
			{
				"x": -2.4103422283,
				"y": 0.2363109404,
				"z": -1.7998486581,
				"element": "C" 
			},
			{
				"x": -1.1309856617,
				"y": -0.1391827392,
				"z": -2.0945866885,
				"element": "C" 
			},
			{
				"x": -0.2841722614,
				"y": -0.6750042421,
				"z": -1.0774036996,
				"element": "C" 
			},
			{
				"x": -0.7778289683,
				"y": -0.8200869012,
				"z": 0.2604130188,
				"element": "C" 
			},
			{
				"x": 0.0845406237,
				"y": -1.3547781059,
				"z": 1.2528787402,
				"element": "C" 
			},
			{
				"x": 1.3751669828,
				"y": -1.7318736305,
				"z": 0.9486955817,
				"element": "C" 
			},
			{
				"x": 1.8609041435,
				"y": -1.5890661787,
				"z": -0.3696765593,
				"element": "C" 
			},
			{
				"x": 1.0475171292,
				"y": -1.0725595146,
				"z": -1.3557439551,
				"element": "C" 
			},
			{
				"x": -4.2563445984,
				"y": 0.4839491467,
				"z": -0.1356126494,
				"element": "N" 
			},
			{
				"x": -4.9134208387,
				"y": 0.934139873,
				"z": -1.0705377887,
				"element": "O" 
			},
			{
				"x": -2.0150894579,
				"y": -0.8978012694,
				"z": 2.387244465,
				"element": "H" 
			},
			{
				"x": -3.0834055897,
				"y": 0.6470029737,
				"z": -2.5443300977,
				"element": "H" 
			},
			{
				"x": -0.7369124117,
				"y": -0.0375764223,
				"z": -3.1016273012,
				"element": "H" 
			},
			{
				"x": -0.2534425967,
				"y": -1.4794643347,
				"z": 2.2797257886,
				"element": "H" 
			},
			{
				"x": 2.0185051955,
				"y": -2.138590248,
				"z": 1.7225667155,
				"element": "H" 
			},
			{
				"x": 2.8783208371,
				"y": -1.8877564909,
				"z": -0.6037489058,
				"element": "H" 
			},
			{
				"x": 1.4189238292,
				"y": -0.9614418569,
				"z": -2.3707157754,
				"element": "H" 
			}
		],
		 "valence_orbital": [ 
			{
				"type": "occ",
				"energy": -0.33285,
				"method": "rhf"
			},
			{
				"type": "occ",
				"energy": -0.28831,
				"method": "rhf"
			},
			{
				"type": "occ",
				"energy": -0.26355,
				"method": "rhf"
			},
			{
				"type": "occ",
				"energy": -0.22459,
				"method": "rhf"
			},
			{
				"type": "occ",
				"energy": -0.20341,
				"method": "rhf"
			},
			{
				"type": "unocc",
				"energy": -0.08962,
				"method": "rhf"
			},
			{
				"type": "unocc",
				"energy": -0.04827,
				"method": "rhf"
			},
			{
				"type": "unocc",
				"energy": -0.00571,
				"method": "rhf"
			},
			{
				"type": "unocc",
				"energy": 0.02242,
				"method": "rhf"
			},
			{
				"type": "unocc",
				"energy": 0.04128,
				"method": "rhf"
			}
		],
		"cosmo_sigma_profile": { 
			"-0.025": 0.0,
			"-0.024": 0.0,
			"-0.023": 0.0,
			"-0.022": 0.0,
			"-0.021": 0.0,
			"-0.02": 0.0575582518566,
			"-0.019": 0.822166248779,
			"-0.018": 0.966318098284,
			"-0.017": 1.14543079043,
			"-0.016": 1.06759049189,
			"-0.015": 0.629672116701,
			"-0.014": 1.0385206161,
			"-0.013": 1.09704074811,
			"-0.012": 1.1123466926,
			"-0.011": 0.707051708167,
			"-0.01": 1.29646009483,
			"-0.009": 1.18103605427,
			"-0.008": 1.29363151554,
			"-0.007": 7.98654584488,
			"-0.006": 12.1843388182,
			"-0.005": 10.6808812289,
			"-0.004": 10.8226783917,
			"-0.003": 8.51983007614,
			"-0.002": 9.31147191248,
			"-0.001": 10.4819313666,
			"0.0": 17.1613535115,
			"0.001": 18.5599626085,
			"0.002": 19.1076566251,
			"0.003": 18.7102214591,
			"0.004": 8.31371930505,
			"0.005": 2.64886919314,
			"0.006": 3.98166765417,
			"0.007": 3.65779893296,
			"0.008": 4.38475432119,
			"0.009": 6.33333108568,
			"0.01": 4.22441120073,
			"0.011": 3.08292614754,
			"0.012": 3.00514025142,
			"0.013": 1.45909716353,
			"0.014": 0.739715987067,
			"0.015": 0.0,
			"0.016": 0.0,
			"0.017": 0.0,
			"0.018": 0.0,
			"0.019": 0.0,
			"0.02": 0.0,
			"0.021": 0.0,
			"0.022": 0.0,
			"0.023": 0.0,
			"0.024": 0.0,
			"0.025": 0.0
		}
	}
}
