{
	 "smiles": "CC1=NC=CN1C1=NC=C(N)C=C1", 
	 "Tm": 434.15, 
	 "num_atms": 23, 
	 "gaussian": { 
		 "optdone": 1, 
		 "sigma_profile": "yes", 
		 "theory": "DFT", 
		 "functional": "B3LYP", 
		 "basiset": "6-31G**", 
		 "properties": { 
			 "R2extent": 3010.8736, 
			 "electric_dipole_moment_norm": 6.3745411278, 
			 "electric_quadrupole_moment_norm": 10.6063250525, 
			 "total_energy": -567.987610231, 
			 "HOMO_LUMO_gap": 0.17255, 
			 "cosmo_polarized_energy": -16.8, 
			 "cosmo_cavitation_energy": 26.92, 
			 "cosmo_dispersion_energy": -19.93, 
			 "cosmo_repulsion_energy": 1.56, 
			 "cosmo_total_nonelectrostatic_energy": 8.56, 
			 "SMD_solvation_energy": 2.38 
		},
		"coords": [
			{
				"x": -2.2701238761,
				"y": -0.7749520957,
				"z": 2.5668742224,
				"element": "C" 
			},
			{
				"x": -2.8512816906,
				"y": 0.0886808077,
				"z": 1.4921884547,
				"element": "C" 
			},
			{
				"x": -4.1093088252,
				"y": 0.4750176746,
				"z": 1.4704575473,
				"element": "N" 
			},
			{
				"x": -4.2642304972,
				"y": 1.2047401271,
				"z": 0.310291482,
				"element": "C" 
			},
			{
				"x": -3.0929069304,
				"y": 1.2557424973,
				"z": -0.3891489086,
				"element": "C" 
			},
			{
				"x": -2.1690375759,
				"y": 0.548133635,
				"z": 0.3719072553,
				"element": "N" 
			},
			{
				"x": -0.8225598341,
				"y": 0.3308686834,
				"z": -0.0244279583,
				"element": "C" 
			},
			{
				"x": -0.6115532931,
				"y": 0.2425959699,
				"z": -1.339797114,
				"element": "N" 
			},
			{
				"x": 0.6311313716,
				"y": 0.0545813624,
				"z": -1.7779851398,
				"element": "C" 
			},
			{
				"x": 1.7510486952,
				"y": -0.077628222,
				"z": -0.9372521263,
				"element": "C" 
			},
			{
				"x": 3.031378667,
				"y": -0.2380500319,
				"z": -1.4576231276,
				"element": "N" 
			},
			{
				"x": 1.5139156898,
				"y": 0.035058484,
				"z": 0.4412384794,
				"element": "C" 
			},
			{
				"x": 0.2224762907,
				"y": 0.2539981833,
				"z": 0.9045122809,
				"element": "C" 
			},
			{
				"x": -1.6769442454,
				"y": -0.2066243456,
				"z": 3.2941445582,
				"element": "H" 
			},
			{
				"x": -1.6331896201,
				"y": -1.5687569726,
				"z": 2.1638693544,
				"element": "H" 
			},
			{
				"x": -3.1027409344,
				"y": -1.2296838749,
				"z": 3.1059255762,
				"element": "H" 
			},
			{
				"x": -5.2148736381,
				"y": 1.6472830056,
				"z": 0.0464453852,
				"element": "H" 
			},
			{
				"x": -2.8084032404,
				"y": 1.6992583822,
				"z": -1.3285879137,
				"element": "H" 
			},
			{
				"x": 0.7574905925,
				"y": -0.0003176859,
				"z": -2.8593733052,
				"element": "H" 
			},
			{
				"x": 3.0751687823,
				"y": -0.6075548431,
				"z": -2.3972952597,
				"element": "H" 
			},
			{
				"x": 3.7023348084,
				"y": -0.6783790779,
				"z": -0.8437899878,
				"element": "H" 
			},
			{
				"x": 2.3406410298,
				"y": -0.0255176549,
				"z": 1.1442725941,
				"element": "H" 
			},
			{
				"x": 0.0392682736,
				"y": 0.3832059921,
				"z": 1.9632536507,
				"element": "H" 
			}
		],
		 "valence_orbital": [ 
			{
				"type": "occ",
				"energy": -0.27319,
				"method": "rhf"
			},
			{
				"type": "occ",
				"energy": -0.27197,
				"method": "rhf"
			},
			{
				"type": "occ",
				"energy": -0.25054,
				"method": "rhf"
			},
			{
				"type": "occ",
				"energy": -0.21701,
				"method": "rhf"
			},
			{
				"type": "occ",
				"energy": -0.20512,
				"method": "rhf"
			},
			{
				"type": "unocc",
				"energy": -0.03257,
				"method": "rhf"
			},
			{
				"type": "unocc",
				"energy": -0.01264,
				"method": "rhf"
			},
			{
				"type": "unocc",
				"energy": 0.04985,
				"method": "rhf"
			},
			{
				"type": "unocc",
				"energy": 0.06556,
				"method": "rhf"
			},
			{
				"type": "unocc",
				"energy": 0.08437,
				"method": "rhf"
			}
		],
		"cosmo_sigma_profile": { 
			"-0.025": 0.0,
			"-0.024": 0.0,
			"-0.023": 0.0,
			"-0.022": 0.0,
			"-0.021": 0.0,
			"-0.02": 0.0,
			"-0.019": 0.0,
			"-0.018": 0.0,
			"-0.017": 0.0,
			"-0.016": 0.0,
			"-0.015": 0.0,
			"-0.014": 0.0391441678153,
			"-0.013": 2.00502315173,
			"-0.012": 3.42148237792,
			"-0.011": 3.43401167541,
			"-0.01": 3.03952372122,
			"-0.009": 3.59474854959,
			"-0.008": 3.79795316758,
			"-0.007": 9.15329298759,
			"-0.006": 11.1009463925,
			"-0.005": 11.3139325186,
			"-0.004": 12.238143122,
			"-0.003": 14.9284630967,
			"-0.002": 13.1734123023,
			"-0.001": 15.1461112915,
			"0.0": 12.2828348179,
			"0.001": 12.6943471505,
			"0.002": 16.5311970871,
			"0.003": 13.099502989,
			"0.004": 8.9638570249,
			"0.005": 7.71483069168,
			"0.006": 9.00722586422,
			"0.007": 4.5325673278,
			"0.008": 4.48399671564,
			"0.009": 3.16717368923,
			"0.01": 2.75813240506,
			"0.011": 2.51779716786,
			"0.012": 2.80204568336,
			"0.013": 2.39415293849,
			"0.014": 1.50000881367,
			"0.015": 0.872417502078,
			"0.016": 1.20398190126,
			"0.017": 0.938753798946,
			"0.018": 0.748659657865,
			"0.019": 0.277433645121,
			"0.02": 0.0,
			"0.021": 0.0,
			"0.022": 0.0,
			"0.023": 0.0,
			"0.024": 0.0,
			"0.025": 0.0
		}
	}
}
