{
	 "smiles": "COC1=CC=C(OC)C(=C1)N=C=S", 
	 "Tm": 309.15, 
	 "num_atms": 22, 
	 "gaussian": { 
		 "optdone": 1, 
		 "sigma_profile": "yes", 
		 "theory": "DFT", 
		 "functional": "B3LYP", 
		 "basiset": "6-31G**", 
		 "properties": { 
			 "R2extent": 4969.9993, 
			 "electric_dipole_moment_norm": 5.4604033047, 
			 "electric_quadrupole_moment_norm": 18.9304542946, 
			 "total_energy": -951.735602621, 
			 "HOMO_LUMO_gap": 0.16988, 
			 "cosmo_polarized_energy": -8.74, 
			 "cosmo_cavitation_energy": 29.1, 
			 "cosmo_dispersion_energy": -21.42, 
			 "cosmo_repulsion_energy": 1.67, 
			 "cosmo_total_nonelectrostatic_energy": 9.34, 
			 "SMD_solvation_energy": 6.61 
		},
		"coords": [
			{
				"x": 2.1498250232,
				"y": 1.3095415213,
				"z": 1.6940856565,
				"element": "C" 
			},
			{
				"x": 1.8309143537,
				"y": -0.0467090076,
				"z": 1.4319680998,
				"element": "O" 
			},
			{
				"x": 0.6775079362,
				"y": -0.3143028333,
				"z": 0.7497704359,
				"element": "C" 
			},
			{
				"x": -0.2209732297,
				"y": 0.6480404837,
				"z": 0.2848562704,
				"element": "C" 
			},
			{
				"x": -1.3767144584,
				"y": 0.2559111616,
				"z": -0.4057976706,
				"element": "C" 
			},
			{
				"x": -1.6514156967,
				"y": -1.0879226826,
				"z": -0.6410527836,
				"element": "C" 
			},
			{
				"x": -2.7389176225,
				"y": -1.575251537,
				"z": -1.2976101152,
				"element": "O" 
			},
			{
				"x": -3.692817132,
				"y": -0.6503372827,
				"z": -1.7963544596,
				"element": "C" 
			},
			{
				"x": -0.7332215448,
				"y": -2.0604694538,
				"z": -0.1652728824,
				"element": "C" 
			},
			{
				"x": 0.4140343297,
				"y": -1.6708612012,
				"z": 0.5202739461,
				"element": "C" 
			},
			{
				"x": -0.9772094776,
				"y": -3.402649749,
				"z": -0.3822166097,
				"element": "N" 
			},
			{
				"x": -1.6953486985,
				"y": -4.2451547019,
				"z": -0.8453113606,
				"element": "C" 
			},
			{
				"x": -2.5397639818,
				"y": -5.4676308035,
				"z": -1.4033554427,
				"element": "S" 
			},
			{
				"x": 1.3827937699,
				"y": 1.7949599526,
				"z": 2.3119561094,
				"element": "H" 
			},
			{
				"x": 3.0942245672,
				"y": 1.2975438283,
				"z": 2.2402404486,
				"element": "H" 
			},
			{
				"x": 2.277660616,
				"y": 1.8832013706,
				"z": 0.7665592929,
				"element": "H" 
			},
			{
				"x": -0.0440396017,
				"y": 1.7041442179,
				"z": 0.4470311824,
				"element": "H" 
			},
			{
				"x": -2.0588627137,
				"y": 1.0210009498,
				"z": -0.7570031714,
				"element": "H" 
			},
			{
				"x": -4.140935914,
				"y": -0.0597666527,
				"z": -0.9870376608,
				"element": "H" 
			},
			{
				"x": -4.4666798734,
				"y": -1.2488705219,
				"z": -2.27802955,
				"element": "H" 
			},
			{
				"x": -3.2463131216,
				"y": 0.0286173137,
				"z": -2.5340523573,
				"element": "H" 
			},
			{
				"x": 1.1086524704,
				"y": -2.4209343725,
				"z": 0.8794526218,
				"element": "H" 
			}
		],
		 "valence_orbital": [ 
			{
				"type": "occ",
				"energy": -0.30273,
				"method": "rhf"
			},
			{
				"type": "occ",
				"energy": -0.28403,
				"method": "rhf"
			},
			{
				"type": "occ",
				"energy": -0.25279,
				"method": "rhf"
			},
			{
				"type": "occ",
				"energy": -0.23175,
				"method": "rhf"
			},
			{
				"type": "occ",
				"energy": -0.20638,
				"method": "rhf"
			},
			{
				"type": "unocc",
				"energy": -0.0365,
				"method": "rhf"
			},
			{
				"type": "unocc",
				"energy": -0.01154,
				"method": "rhf"
			},
			{
				"type": "unocc",
				"energy": 0.00639,
				"method": "rhf"
			},
			{
				"type": "unocc",
				"energy": 0.05498,
				"method": "rhf"
			},
			{
				"type": "unocc",
				"energy": 0.08064,
				"method": "rhf"
			}
		],
		"cosmo_sigma_profile": { 
			"-0.025": 0.0,
			"-0.024": 0.0,
			"-0.023": 0.0,
			"-0.022": 0.0,
			"-0.021": 0.0,
			"-0.02": 0.0,
			"-0.019": 0.0,
			"-0.018": 0.0,
			"-0.017": 0.0,
			"-0.016": 0.0,
			"-0.015": 0.0,
			"-0.014": 0.0,
			"-0.013": 0.0,
			"-0.012": 0.0,
			"-0.011": 0.0,
			"-0.01": 0.0,
			"-0.009": 0.0,
			"-0.008": 0.185637617344,
			"-0.007": 5.50290484707,
			"-0.006": 14.9602408885,
			"-0.005": 21.9181098562,
			"-0.004": 19.4169902799,
			"-0.003": 19.0198472588,
			"-0.002": 10.1903748154,
			"-0.001": 10.8727457861,
			"0.0": 19.1021015061,
			"0.001": 19.6758821943,
			"0.002": 21.3154012266,
			"0.003": 22.8382243409,
			"0.004": 15.8963999428,
			"0.005": 18.7924209749,
			"0.006": 10.0387269627,
			"0.007": 2.06176961665,
			"0.008": 1.23355079018,
			"0.009": 1.4312373416,
			"0.01": 1.64483107149,
			"0.011": 0.217491393457,
			"0.012": 0.0,
			"0.013": 0.0,
			"0.014": 0.0,
			"0.015": 0.0,
			"0.016": 0.0,
			"0.017": 0.0,
			"0.018": 0.0,
			"0.019": 0.0,
			"0.02": 0.0,
			"0.021": 0.0,
			"0.022": 0.0,
			"0.023": 0.0,
			"0.024": 0.0,
			"0.025": 0.0
		}
	}
}
