{
	 "smiles": "ClC1=CC=CC=C1C#N", 
	 "Tm": 318.75, 
	 "num_atms": 13, 
	 "gaussian": { 
		 "optdone": 1, 
		 "sigma_profile": "yes", 
		 "theory": "DFT", 
		 "functional": "B3LYP", 
		 "basiset": "6-31G**", 
		 "properties": { 
			 "R2extent": 1792.3468, 
			 "electric_dipole_moment_norm": 5.19564898256, 
			 "electric_quadrupole_moment_norm": 7.91012720378, 
			 "total_energy": -784.078650554, 
			 "HOMO_LUMO_gap": 0.20431, 
			 "cosmo_polarized_energy": -8.9, 
			 "cosmo_cavitation_energy": 20.24, 
			 "cosmo_dispersion_energy": -14.59, 
			 "cosmo_repulsion_energy": 1.2, 
			 "cosmo_total_nonelectrostatic_energy": 6.84, 
			 "SMD_solvation_energy": 4.59 
		},
		"coords": [
			{
				"x": -3.4376017849,
				"y": -0.9564503663,
				"z": -0.1016526239,
				"element": "Cl" 
			},
			{
				"x": -1.8308838995,
				"y": -0.3847284405,
				"z": -0.4740722855,
				"element": "C" 
			},
			{
				"x": -1.5160093104,
				"y": -0.0459839818,
				"z": -1.7886732214,
				"element": "C" 
			},
			{
				"x": -0.2352873733,
				"y": 0.4120124459,
				"z": -2.0975339364,
				"element": "C" 
			},
			{
				"x": 0.7339953554,
				"y": 0.533702313,
				"z": -1.099234854,
				"element": "C" 
			},
			{
				"x": 0.421045999,
				"y": 0.1959812828,
				"z": 0.2129361183,
				"element": "C" 
			},
			{
				"x": -0.8652200385,
				"y": -0.267871769,
				"z": 0.5442929174,
				"element": "C" 
			},
			{
				"x": -1.158732499,
				"y": -0.6082489595,
				"z": 1.9042760315,
				"element": "C" 
			},
			{
				"x": -1.3554156175,
				"y": -0.8735409026,
				"z": 3.0192544123,
				"element": "N" 
			},
			{
				"x": -2.2732935056,
				"y": -0.1429214016,
				"z": -2.5583580483,
				"element": "H" 
			},
			{
				"x": 0.0023606837,
				"y": 0.6739383934,
				"z": -3.1239657021,
				"element": "H" 
			},
			{
				"x": 1.7295214607,
				"y": 0.8902471663,
				"z": -1.3421524158,
				"element": "H" 
			},
			{
				"x": 1.16092053,
				"y": 0.2840642199,
				"z": 1.0011836077,
				"element": "H" 
			}
		],
		 "valence_orbital": [ 
			{
				"type": "occ",
				"energy": -0.35151,
				"method": "rhf"
			},
			{
				"type": "occ",
				"energy": -0.33934,
				"method": "rhf"
			},
			{
				"type": "occ",
				"energy": -0.32627,
				"method": "rhf"
			},
			{
				"type": "occ",
				"energy": -0.28052,
				"method": "rhf"
			},
			{
				"type": "occ",
				"energy": -0.26761,
				"method": "rhf"
			},
			{
				"type": "unocc",
				"energy": -0.0633,
				"method": "rhf"
			},
			{
				"type": "unocc",
				"energy": -0.0365,
				"method": "rhf"
			},
			{
				"type": "unocc",
				"energy": 0.01225,
				"method": "rhf"
			},
			{
				"type": "unocc",
				"energy": 0.03059,
				"method": "rhf"
			},
			{
				"type": "unocc",
				"energy": 0.06733,
				"method": "rhf"
			}
		],
		"cosmo_sigma_profile": { 
			"-0.025": 0.0,
			"-0.024": 0.0,
			"-0.023": 0.0,
			"-0.022": 0.0,
			"-0.021": 0.0,
			"-0.02": 0.0,
			"-0.019": 0.0,
			"-0.018": 0.0,
			"-0.017": 0.0,
			"-0.016": 0.0,
			"-0.015": 0.0,
			"-0.014": 0.0,
			"-0.013": 0.0,
			"-0.012": 0.0,
			"-0.011": 0.0,
			"-0.01": 0.0,
			"-0.009": 0.753805536099,
			"-0.008": 6.62529891413,
			"-0.007": 10.0222678647,
			"-0.006": 9.76096967389,
			"-0.005": 7.07419520243,
			"-0.004": 6.11173546792,
			"-0.003": 9.53102650303,
			"-0.002": 12.2144390301,
			"-0.001": 13.8095998579,
			"0.0": 16.7612508619,
			"0.001": 16.8230641334,
			"0.002": 15.13833691,
			"0.003": 11.1857609831,
			"0.004": 6.52071344941,
			"0.005": 2.98462314701,
			"0.006": 2.62321542641,
			"0.007": 3.48997868203,
			"0.008": 3.2427521859,
			"0.009": 3.49033383842,
			"0.01": 2.74228451889,
			"0.011": 2.69269341926,
			"0.012": 2.40378073712,
			"0.013": 0.653459753888,
			"0.014": 0.0,
			"0.015": 0.0,
			"0.016": 0.0,
			"0.017": 0.0,
			"0.018": 0.0,
			"0.019": 0.0,
			"0.02": 0.0,
			"0.021": 0.0,
			"0.022": 0.0,
			"0.023": 0.0,
			"0.024": 0.0,
			"0.025": 0.0
		}
	}
}
