{
	 "smiles": "OC(=O)C1=CC=C(C=C1)N1N=NC2=C1C=CC=C2", 
	 "Tm": 582.15, 
	 "num_atms": 27, 
	 "gaussian": { 
		 "optdone": 1, 
		 "sigma_profile": "yes", 
		 "theory": "DFT", 
		 "functional": "B3LYP", 
		 "basiset": "6-31G**", 
		 "properties": { 
			 "R2extent": 6336.2882, 
			 "electric_dipole_moment_norm": 4.03749401609, 
			 "electric_quadrupole_moment_norm": 32.3145406591, 
			 "total_energy": -815.483143315, 
			 "HOMO_LUMO_gap": 0.17012, 
			 "cosmo_polarized_energy": -19.71, 
			 "cosmo_cavitation_energy": 32.31, 
			 "cosmo_dispersion_energy": -23.91, 
			 "cosmo_repulsion_energy": 1.79, 
			 "cosmo_total_nonelectrostatic_energy": 10.19, 
			 "SMD_solvation_energy": 4.89 
		},
		"coords": [
			{
				"x": -0.8743875019,
				"y": -5.1843242895,
				"z": 3.5896786732,
				"element": "O" 
			},
			{
				"x": -0.8555856355,
				"y": -3.8666161678,
				"z": 3.9231312148,
				"element": "C" 
			},
			{
				"x": -1.0987548586,
				"y": -3.5275823878,
				"z": 5.0575070993,
				"element": "O" 
			},
			{
				"x": -0.5275341159,
				"y": -2.8935584623,
				"z": 2.8310042444,
				"element": "C" 
			},
			{
				"x": -0.8620200904,
				"y": -1.5492256876,
				"z": 3.0393533066,
				"element": "C" 
			},
			{
				"x": -0.5826418164,
				"y": -0.5885748666,
				"z": 2.0747791194,
				"element": "C" 
			},
			{
				"x": 0.0387560645,
				"y": -0.9684686843,
				"z": 0.8774156642,
				"element": "C" 
			},
			{
				"x": 0.4065439161,
				"y": -2.3033444501,
				"z": 0.666353396,
				"element": "C" 
			},
			{
				"x": 0.1279485176,
				"y": -3.2524250237,
				"z": 1.6436950824,
				"element": "C" 
			},
			{
				"x": 0.3269880354,
				"y": -0.008969274,
				"z": -0.1193460338,
				"element": "N" 
			},
			{
				"x": 1.4475649006,
				"y": -0.1697280073,
				"z": -0.9139164683,
				"element": "N" 
			},
			{
				"x": 1.5269413046,
				"y": 0.8106225395,
				"z": -1.7399940579,
				"element": "N" 
			},
			{
				"x": 0.4583578219,
				"y": 1.6600095423,
				"z": -1.5297418174,
				"element": "C" 
			},
			{
				"x": -0.3332120533,
				"y": 1.1436907887,
				"z": -0.4836166665,
				"element": "C" 
			},
			{
				"x": -1.5210671387,
				"y": 1.7741346289,
				"z": -0.0810779928,
				"element": "C" 
			},
			{
				"x": -1.8585979183,
				"y": 2.9446900611,
				"z": -0.7472871101,
				"element": "C" 
			},
			{
				"x": -1.0572482092,
				"y": 3.4805256586,
				"z": -1.7826719074,
				"element": "C" 
			},
			{
				"x": 0.1050362936,
				"y": 2.8458009924,
				"z": -2.1907808127,
				"element": "C" 
			},
			{
				"x": -0.8253433557,
				"y": -5.2918001773,
				"z": 2.6300031891,
				"element": "H" 
			},
			{
				"x": -1.3305530239,
				"y": -1.2740120592,
				"z": 3.977810619,
				"element": "H" 
			},
			{
				"x": -0.8143415355,
				"y": 0.4532217404,
				"z": 2.26209655,
				"element": "H" 
			},
			{
				"x": 0.914552354,
				"y": -2.5750852074,
				"z": -0.2507097485,
				"element": "H" 
			},
			{
				"x": 0.4569533901,
				"y": -4.2746613399,
				"z": 1.4739208873,
				"element": "H" 
			},
			{
				"x": -2.1580165501,
				"y": 1.3688793346,
				"z": 0.6958703479,
				"element": "H" 
			},
			{
				"x": -2.77031653,
				"y": 3.4634366313,
				"z": -0.4664886329,
				"element": "H" 
			},
			{
				"x": -1.3684152743,
				"y": 4.4006177044,
				"z": -2.2671177316,
				"element": "H" 
			},
			{
				"x": 0.7244930095,
				"y": 3.2329464626,
				"z": -2.9924704138,
				"element": "H" 
			}
		],
		 "valence_orbital": [ 
			{
				"type": "occ",
				"energy": -0.28572,
				"method": "rhf"
			},
			{
				"type": "occ",
				"energy": -0.27889,
				"method": "rhf"
			},
			{
				"type": "occ",
				"energy": -0.27598,
				"method": "rhf"
			},
			{
				"type": "occ",
				"energy": -0.26494,
				"method": "rhf"
			},
			{
				"type": "occ",
				"energy": -0.24216,
				"method": "rhf"
			},
			{
				"type": "unocc",
				"energy": -0.07204,
				"method": "rhf"
			},
			{
				"type": "unocc",
				"energy": -0.04999,
				"method": "rhf"
			},
			{
				"type": "unocc",
				"energy": -0.03584,
				"method": "rhf"
			},
			{
				"type": "unocc",
				"energy": -0.00305,
				"method": "rhf"
			},
			{
				"type": "unocc",
				"energy": 0.01863,
				"method": "rhf"
			}
		],
		"cosmo_sigma_profile": { 
			"-0.025": 0.0,
			"-0.024": 0.0,
			"-0.023": 0.0,
			"-0.022": 0.0,
			"-0.021": 0.0,
			"-0.02": 0.00264042536054,
			"-0.019": 0.503692529703,
			"-0.018": 0.975174555957,
			"-0.017": 1.22708002299,
			"-0.016": 1.12863107613,
			"-0.015": 0.705141144871,
			"-0.014": 0.405372412515,
			"-0.013": 1.49205457774,
			"-0.012": 1.29767389078,
			"-0.011": 1.23043716184,
			"-0.01": 1.06648946659,
			"-0.009": 2.24226441808,
			"-0.008": 5.29076200875,
			"-0.007": 12.5586003432,
			"-0.006": 15.7840742611,
			"-0.005": 15.851946979,
			"-0.004": 14.549775927,
			"-0.003": 15.015539849,
			"-0.002": 16.6880756056,
			"-0.001": 16.3179812815,
			"0.0": 15.5238235843,
			"0.001": 23.6653253243,
			"0.002": 24.6760596138,
			"0.003": 13.6971508297,
			"0.004": 8.53959227525,
			"0.005": 4.93791768679,
			"0.006": 4.51288119061,
			"0.007": 4.67323875283,
			"0.008": 4.74026520486,
			"0.009": 6.96403789506,
			"0.01": 7.9728439521,
			"0.011": 7.4240854797,
			"0.012": 5.84393740177,
			"0.013": 2.29593773117,
			"0.014": 1.07692166874,
			"0.015": 0.351538257403,
			"0.016": 0.0,
			"0.017": 0.0,
			"0.018": 0.0,
			"0.019": 0.0,
			"0.02": 0.0,
			"0.021": 0.0,
			"0.022": 0.0,
			"0.023": 0.0,
			"0.024": 0.0,
			"0.025": 0.0
		}
	}
}
