{
	 "smiles": "CC(C)(C)[Si](Cl)(Cl)C(C)(C)C", 
	 "Tm": 258.15, 
	 "num_atms": 29, 
	 "gaussian": { 
		 "optdone": 1, 
		 "sigma_profile": "yes", 
		 "theory": "DFT", 
		 "functional": "B3LYP", 
		 "basiset": "6-31G**", 
		 "properties": { 
			 "R2extent": 3144.499, 
			 "electric_dipole_moment_norm": 2.95282306277, 
			 "electric_quadrupole_moment_norm": 7.30083061302, 
			 "total_energy": -1525.7205643, 
			 "HOMO_LUMO_gap": 0.29846, 
			 "cosmo_polarized_energy": -4.31, 
			 "cosmo_cavitation_energy": 32.21, 
			 "cosmo_dispersion_energy": -20.78, 
			 "cosmo_repulsion_energy": 1.69, 
			 "cosmo_total_nonelectrostatic_energy": 13.12, 
			 "SMD_solvation_energy": 5.25 
		},
		"coords": [
			{
				"x": -1.7662079867,
				"y": -1.4323293419,
				"z": 1.7031083728,
				"element": "C" 
			},
			{
				"x": -1.2643375617,
				"y": -0.0303295807,
				"z": 1.290291002,
				"element": "C" 
			},
			{
				"x": 0.1164763299,
				"y": 0.2303912274,
				"z": 1.9336168385,
				"element": "C" 
			},
			{
				"x": -2.2615769265,
				"y": 1.0287392151,
				"z": 1.8167135725,
				"element": "C" 
			},
			{
				"x": -1.1625306468,
				"y": 0.1173602347,
				"z": -0.623944383,
				"element": "Si" 
			},
			{
				"x": -3.1248062515,
				"y": -0.0631316383,
				"z": -1.3573121412,
				"element": "Cl" 
			},
			{
				"x": -0.5382654076,
				"y": 2.0801836072,
				"z": -1.0462903748,
				"element": "Cl" 
			},
			{
				"x": -0.0676696326,
				"y": -1.058179822,
				"z": -1.680130689,
				"element": "C" 
			},
			{
				"x": 1.4130161223,
				"y": -0.9582848843,
				"z": -1.2493472336,
				"element": "C" 
			},
			{
				"x": -0.5444838893,
				"y": -2.5218005625,
				"z": -1.5418901733,
				"element": "C" 
			},
			{
				"x": -0.1816482359,
				"y": -0.6406078442,
				"z": -3.1653586333,
				"element": "C" 
			},
			{
				"x": -1.9006876037,
				"y": -1.4635007974,
				"z": 2.7919742645,
				"element": "H" 
			},
			{
				"x": -1.0543072708,
				"y": -2.2217217282,
				"z": 1.4435269815,
				"element": "H" 
			},
			{
				"x": -2.7300131179,
				"y": -1.6774396182,
				"z": 1.2461103886,
				"element": "H" 
			},
			{
				"x": 0.8544671522,
				"y": -0.5302386063,
				"z": 1.6620721512,
				"element": "H" 
			},
			{
				"x": 0.0162597291,
				"y": 0.2089141288,
				"z": 3.0263964556,
				"element": "H" 
			},
			{
				"x": 0.5199025165,
				"y": 1.2097914479,
				"z": 1.6593093971,
				"element": "H" 
			},
			{
				"x": -2.3174871797,
				"y": 0.9559319647,
				"z": 2.910463778,
				"element": "H" 
			},
			{
				"x": -3.2695170882,
				"y": 0.8761443454,
				"z": 1.4208963696,
				"element": "H" 
			},
			{
				"x": -1.9485171626,
				"y": 2.0466225098,
				"z": 1.5669713079,
				"element": "H" 
			},
			{
				"x": 2.0284497859,
				"y": -1.5696406995,
				"z": -1.9217728669,
				"element": "H" 
			},
			{
				"x": 1.7901415031,
				"y": 0.0678356032,
				"z": -1.3011006072,
				"element": "H" 
			},
			{
				"x": 1.5767451975,
				"y": -1.3317067956,
				"z": -0.2339210352,
				"element": "H" 
			},
			{
				"x": -0.4186202831,
				"y": -2.9082254364,
				"z": -0.526131595,
				"element": "H" 
			},
			{
				"x": -1.5949316482,
				"y": -2.6409122258,
				"z": -1.8240216178,
				"element": "H" 
			},
			{
				"x": 0.0504539096,
				"y": -3.1604042656,
				"z": -2.2074073861,
				"element": "H" 
			},
			{
				"x": 0.4349312259,
				"y": -1.3134909876,
				"z": -3.775106254,
				"element": "H" 
			},
			{
				"x": 0.1733008097,
				"y": 0.3800292718,
				"z": -3.3333844641,
				"element": "H" 
			},
			{
				"x": -1.2098363891,
				"y": -0.7079987214,
				"z": -3.5324314253,
				"element": "H" 
			}
		],
		 "valence_orbital": [ 
			{
				"type": "occ",
				"energy": -0.33255,
				"method": "rhf"
			},
			{
				"type": "occ",
				"energy": -0.31596,
				"method": "rhf"
			},
			{
				"type": "occ",
				"energy": -0.30884,
				"method": "rhf"
			},
			{
				"type": "occ",
				"energy": -0.30883,
				"method": "rhf"
			},
			{
				"type": "occ",
				"energy": -0.27399,
				"method": "rhf"
			},
			{
				"type": "unocc",
				"energy": 0.02447,
				"method": "rhf"
			},
			{
				"type": "unocc",
				"energy": 0.03233,
				"method": "rhf"
			},
			{
				"type": "unocc",
				"energy": 0.0479,
				"method": "rhf"
			},
			{
				"type": "unocc",
				"energy": 0.07607,
				"method": "rhf"
			},
			{
				"type": "unocc",
				"energy": 0.09907,
				"method": "rhf"
			}
		],
		"cosmo_sigma_profile": { 
			"-0.025": 0.0,
			"-0.024": 0.0,
			"-0.023": 0.0,
			"-0.022": 0.0,
			"-0.021": 0.0,
			"-0.02": 0.0,
			"-0.019": 0.0,
			"-0.018": 0.0,
			"-0.017": 0.0,
			"-0.016": 0.0,
			"-0.015": 0.0,
			"-0.014": 0.0,
			"-0.013": 0.0,
			"-0.012": 0.0,
			"-0.011": 0.0,
			"-0.01": 0.0,
			"-0.009": 0.0,
			"-0.008": 0.0,
			"-0.007": 0.687154342263,
			"-0.006": 1.79624967812,
			"-0.005": 4.3043265897,
			"-0.004": 5.69294314956,
			"-0.003": 25.5053012987,
			"-0.002": 30.7236810064,
			"-0.001": 42.969277546,
			"0.0": 46.4026890965,
			"0.001": 37.0177677637,
			"0.002": 11.6025364002,
			"0.003": 11.4910262494,
			"0.004": 18.0466366205,
			"0.005": 12.1947894999,
			"0.006": 2.61384208299,
			"0.007": 0.0,
			"0.008": 0.0,
			"0.009": 0.0,
			"0.01": 0.0,
			"0.011": 0.0,
			"0.012": 0.0,
			"0.013": 0.0,
			"0.014": 0.0,
			"0.015": 0.0,
			"0.016": 0.0,
			"0.017": 0.0,
			"0.018": 0.0,
			"0.019": 0.0,
			"0.02": 0.0,
			"0.021": 0.0,
			"0.022": 0.0,
			"0.023": 0.0,
			"0.024": 0.0,
			"0.025": 0.0
		}
	}
}
