{
	 "smiles": "COC1=CC(=CC(OC)=C1)N1CCC(N)C1=O", 
	 "Tm": 362.15, 
	 "num_atms": 33, 
	 "gaussian": { 
		 "optdone": 1, 
		 "sigma_profile": "yes", 
		 "theory": "DFT", 
		 "functional": "B3LYP", 
		 "basiset": "6-31G**", 
		 "properties": { 
			 "R2extent": 5199.8256, 
			 "electric_dipole_moment_norm": 3.90495742999, 
			 "electric_quadrupole_moment_norm": 11.739520014, 
			 "total_energy": -802.084845409, 
			 "HOMO_LUMO_gap": 0.1953, 
			 "cosmo_polarized_energy": -15.94, 
			 "cosmo_cavitation_energy": 35.24, 
			 "cosmo_dispersion_energy": -25.71, 
			 "cosmo_repulsion_energy": 2.0, 
			 "cosmo_total_nonelectrostatic_energy": 11.53, 
			 "SMD_solvation_energy": 6.27 
		},
		"coords": [
			{
				"x": -1.1499897725,
				"y": -3.6814115488,
				"z": 0.4264643166,
				"element": "C" 
			},
			{
				"x": -0.4978621322,
				"y": -3.2432933529,
				"z": -0.7521253943,
				"element": "O" 
			},
			{
				"x": -0.2386432906,
				"y": -1.9092447172,
				"z": -0.9003152419,
				"element": "C" 
			},
			{
				"x": -0.5764884861,
				"y": -0.9416169098,
				"z": 0.055469734,
				"element": "C" 
			},
			{
				"x": -0.2640946364,
				"y": 0.4053756136,
				"z": -0.1950064775,
				"element": "C" 
			},
			{
				"x": 0.3803034089,
				"y": 0.7820771649,
				"z": -1.3826723536,
				"element": "C" 
			},
			{
				"x": 0.7088980957,
				"y": -0.2091843771,
				"z": -2.3147317963,
				"element": "C" 
			},
			{
				"x": 1.3370281338,
				"y": 0.0521607074,
				"z": -3.496889274,
				"element": "O" 
			},
			{
				"x": 1.6846011157,
				"y": 1.3971217105,
				"z": -3.7929473708,
				"element": "C" 
			},
			{
				"x": 0.4015078914,
				"y": -1.5521675566,
				"z": -2.085626824,
				"element": "C" 
			},
			{
				"x": -0.6215292054,
				"y": 1.3776845367,
				"z": 0.7744014782,
				"element": "N" 
			},
			{
				"x": -1.4749939825,
				"y": 1.0436577016,
				"z": 1.9259610322,
				"element": "C" 
			},
			{
				"x": -1.8628507104,
				"y": 2.4121201796,
				"z": 2.507002981,
				"element": "C" 
			},
			{
				"x": -0.6661895081,
				"y": 3.2999320266,
				"z": 2.1502655715,
				"element": "C" 
			},
			{
				"x": -0.9720418239,
				"y": 4.7068261854,
				"z": 1.9458912245,
				"element": "N" 
			},
			{
				"x": -0.1669136474,
				"y": 2.679981072,
				"z": 0.8398194848,
				"element": "C" 
			},
			{
				"x": 0.527757254,
				"y": 3.2764308335,
				"z": 0.0287586607,
				"element": "O" 
			},
			{
				"x": -2.1448375047,
				"y": -3.2291975441,
				"z": 0.5344770229,
				"element": "H" 
			},
			{
				"x": -0.5584847654,
				"y": -3.4633101429,
				"z": 1.3256498688,
				"element": "H" 
			},
			{
				"x": -1.2591705901,
				"y": -4.7626219356,
				"z": 0.3262690302,
				"element": "H" 
			},
			{
				"x": -1.0544045787,
				"y": -1.2323671825,
				"z": 0.9786644677,
				"element": "H" 
			},
			{
				"x": 0.6165259386,
				"y": 1.8206802381,
				"z": -1.5447037708,
				"element": "H" 
			},
			{
				"x": 0.7981527659,
				"y": 2.0405895246,
				"z": -3.8549870832,
				"element": "H" 
			},
			{
				"x": 2.1788467787,
				"y": 1.3704383847,
				"z": -4.7655190649,
				"element": "H" 
			},
			{
				"x": 2.3732855656,
				"y": 1.8118519902,
				"z": -3.0466878235,
				"element": "H" 
			},
			{
				"x": 0.6591935111,
				"y": -2.3073660875,
				"z": -2.818081346,
				"element": "H" 
			},
			{
				"x": -2.3433073963,
				"y": 0.4673180957,
				"z": 1.5953064843,
				"element": "H" 
			},
			{
				"x": -0.9191504057,
				"y": 0.4328180106,
				"z": 2.6508778307,
				"element": "H" 
			},
			{
				"x": -2.7436870061,
				"y": 2.8112460929,
				"z": 1.9953624908,
				"element": "H" 
			},
			{
				"x": -2.0764006549,
				"y": 2.3606198545,
				"z": 3.5777753135,
				"element": "H" 
			},
			{
				"x": 0.1450780492,
				"y": 3.1258407753,
				"z": 2.8833296791,
				"element": "H" 
			},
			{
				"x": -0.8471842509,
				"y": 5.2316727369,
				"z": 2.8059824499,
				"element": "H" 
			},
			{
				"x": -0.30635416,
				"y": 5.0717379197,
				"z": 1.2657646995,
				"element": "H" 
			}
		],
		 "valence_orbital": [ 
			{
				"type": "occ",
				"energy": -0.26084,
				"method": "rhf"
			},
			{
				"type": "occ",
				"energy": -0.2556,
				"method": "rhf"
			},
			{
				"type": "occ",
				"energy": -0.23997,
				"method": "rhf"
			},
			{
				"type": "occ",
				"energy": -0.21213,
				"method": "rhf"
			},
			{
				"type": "occ",
				"energy": -0.20566,
				"method": "rhf"
			},
			{
				"type": "unocc",
				"energy": -0.01036,
				"method": "rhf"
			},
			{
				"type": "unocc",
				"energy": 0.02631,
				"method": "rhf"
			},
			{
				"type": "unocc",
				"energy": 0.04398,
				"method": "rhf"
			},
			{
				"type": "unocc",
				"energy": 0.08124,
				"method": "rhf"
			},
			{
				"type": "unocc",
				"energy": 0.09069,
				"method": "rhf"
			}
		],
		"cosmo_sigma_profile": { 
			"-0.025": 0.0,
			"-0.024": 0.0,
			"-0.023": 0.0,
			"-0.022": 0.0,
			"-0.021": 0.0,
			"-0.02": 0.0,
			"-0.019": 0.0,
			"-0.018": 0.0,
			"-0.017": 0.0,
			"-0.016": 0.0,
			"-0.015": 0.0,
			"-0.014": 0.0,
			"-0.013": 0.0,
			"-0.012": 0.0,
			"-0.011": 0.330006197322,
			"-0.01": 1.30719052071,
			"-0.009": 1.60419409733,
			"-0.008": 1.76638133956,
			"-0.007": 3.99753485719,
			"-0.006": 15.6777494509,
			"-0.005": 31.8258646361,
			"-0.004": 34.830235526,
			"-0.003": 33.3068704013,
			"-0.002": 18.320499149,
			"-0.001": 14.1051778334,
			"0.0": 10.5913388443,
			"0.001": 10.135221312,
			"0.002": 11.0383394243,
			"0.003": 11.5367848961,
			"0.004": 16.6046670595,
			"0.005": 19.9506163068,
			"0.006": 6.81979215877,
			"0.007": 6.28024504858,
			"0.008": 4.63739599158,
			"0.009": 4.97426702294,
			"0.01": 5.06103317738,
			"0.011": 4.68784224296,
			"0.012": 3.74817959366,
			"0.013": 1.60043214478,
			"0.014": 0.902361503235,
			"0.015": 0.282645135294,
			"0.016": 0.392169327176,
			"0.017": 0.568301761232,
			"0.018": 0.658142397546,
			"0.019": 0.0499843680464,
			"0.02": 0.0,
			"0.021": 0.0,
			"0.022": 0.0,
			"0.023": 0.0,
			"0.024": 0.0,
			"0.025": 0.0
		}
	}
}
