{
	 "smiles": "ClC1=NC2=C(C=CC=C2Br)C=C1", 
	 "Tm": 386.15, 
	 "num_atms": 17, 
	 "gaussian": { 
		 "optdone": 1, 
		 "sigma_profile": "yes", 
		 "theory": "DFT", 
		 "functional": "B3LYP", 
		 "basiset": "6-31G**", 
		 "properties": { 
			 "R2extent": 4455.3129, 
			 "electric_dipole_moment_norm": 4.6117759757, 
			 "electric_quadrupole_moment_norm": 9.80053678887, 
			 "total_energy": -3432.32491636, 
			 "HOMO_LUMO_gap": 0.16663, 
			 "cosmo_polarized_energy": -9.24, 
			 "cosmo_cavitation_energy": 25.55, 
			 "cosmo_dispersion_energy": -19.59, 
			 "cosmo_repulsion_energy": 1.55, 
			 "cosmo_total_nonelectrostatic_energy": 7.51, 
			 "SMD_solvation_energy": 1.65 
		},
		"coords": [
			{
				"x": 0.8149969369,
				"y": -0.502803911,
				"z": -4.7454987532,
				"element": "Cl" 
			},
			{
				"x": 0.719352132,
				"y": -0.1334675963,
				"z": -3.0235003307,
				"element": "C" 
			},
			{
				"x": -0.4226943207,
				"y": -0.3258905484,
				"z": -2.435883155,
				"element": "N" 
			},
			{
				"x": -0.5183529032,
				"y": -0.0470152195,
				"z": -1.1066006581,
				"element": "C" 
			},
			{
				"x": 0.5959065991,
				"y": 0.4464150446,
				"z": -0.3532006188,
				"element": "C" 
			},
			{
				"x": 0.4536550807,
				"y": 0.7240666667,
				"z": 1.0288821475,
				"element": "C" 
			},
			{
				"x": -0.7564711232,
				"y": 0.5204103116,
				"z": 1.6522341748,
				"element": "C" 
			},
			{
				"x": -1.8663301874,
				"y": 0.0340334453,
				"z": 0.9238490673,
				"element": "C" 
			},
			{
				"x": -1.7529234286,
				"y": -0.2434161422,
				"z": -0.421295759,
				"element": "C" 
			},
			{
				"x": -3.2641471833,
				"y": -0.8957509377,
				"z": -1.3697538753,
				"element": "Br" 
			},
			{
				"x": 1.8171778539,
				"y": 0.6353326272,
				"z": -1.0548173509,
				"element": "C" 
			},
			{
				"x": 1.89656833,
				"y": 0.34953966,
				"z": -2.3940101632,
				"element": "C" 
			},
			{
				"x": 1.3101436807,
				"y": 1.097614739,
				"z": 1.5830635087,
				"element": "H" 
			},
			{
				"x": -0.8722849296,
				"y": 0.7311276854,
				"z": 2.710814312,
				"element": "H" 
			},
			{
				"x": -2.8151908259,
				"y": -0.1230509312,
				"z": 1.4239552098,
				"element": "H" 
			},
			{
				"x": 2.6852786454,
				"y": 1.0082924833,
				"z": -0.5178451422,
				"element": "H" 
			},
			{
				"x": 2.8091156432,
				"y": 0.4805626232,
				"z": -2.9623926138,
				"element": "H" 
			}
		],
		 "valence_orbital": [ 
			{
				"type": "occ",
				"energy": -0.29527,
				"method": "rhf"
			},
			{
				"type": "occ",
				"energy": -0.29147,
				"method": "rhf"
			},
			{
				"type": "occ",
				"energy": -0.27154,
				"method": "rhf"
			},
			{
				"type": "occ",
				"energy": -0.26254,
				"method": "rhf"
			},
			{
				"type": "occ",
				"energy": -0.23798,
				"method": "rhf"
			},
			{
				"type": "unocc",
				"energy": -0.07135,
				"method": "rhf"
			},
			{
				"type": "unocc",
				"energy": -0.03668,
				"method": "rhf"
			},
			{
				"type": "unocc",
				"energy": 0.00154,
				"method": "rhf"
			},
			{
				"type": "unocc",
				"energy": 0.0087,
				"method": "rhf"
			},
			{
				"type": "unocc",
				"energy": 0.03151,
				"method": "rhf"
			}
		],
		"cosmo_sigma_profile": { 
			"-0.025": 0.0,
			"-0.024": 0.0,
			"-0.023": 0.0,
			"-0.022": 0.0,
			"-0.021": 0.0,
			"-0.02": 0.0,
			"-0.019": 0.0,
			"-0.018": 0.0,
			"-0.017": 0.0,
			"-0.016": 0.0,
			"-0.015": 0.0,
			"-0.014": 0.0,
			"-0.013": 0.0,
			"-0.012": 0.0,
			"-0.011": 0.0,
			"-0.01": 0.0,
			"-0.009": 1.59141406691,
			"-0.008": 6.96470948224,
			"-0.007": 10.2275885179,
			"-0.006": 10.9382751785,
			"-0.005": 8.48754062031,
			"-0.004": 8.76106795785,
			"-0.003": 8.21875813971,
			"-0.002": 12.6731989519,
			"-0.001": 18.4150681583,
			"0.0": 23.65977163,
			"0.001": 23.9651451533,
			"0.002": 20.230796666,
			"0.003": 16.1026350179,
			"0.004": 18.3649765864,
			"0.005": 9.75415639197,
			"0.006": 2.98972434623,
			"0.007": 2.67190476914,
			"0.008": 1.85589809274,
			"0.009": 1.86153424371,
			"0.01": 1.07792390287,
			"0.011": 1.58493600311,
			"0.012": 1.02720522524,
			"0.013": 0.725337010751,
			"0.014": 0.0,
			"0.015": 0.0,
			"0.016": 0.0,
			"0.017": 0.0,
			"0.018": 0.0,
			"0.019": 0.0,
			"0.02": 0.0,
			"0.021": 0.0,
			"0.022": 0.0,
			"0.023": 0.0,
			"0.024": 0.0,
			"0.025": 0.0
		}
	}
}
