{
	 "smiles": "OC(=O)C1=CC2=C(C=C1)C(=O)NC(S)=N2", 
	 "Tm": 653.15, 
	 "num_atms": 21, 
	 "gaussian": { 
		 "optdone": 1, 
		 "sigma_profile": "yes", 
		 "theory": "DFT", 
		 "functional": "B3LYP", 
		 "basiset": "6-31G**", 
		 "properties": { 
			 "R2extent": 4904.1244, 
			 "electric_dipole_moment_norm": 5.15698622647, 
			 "electric_quadrupole_moment_norm": 18.3958394484, 
			 "total_energy": -1079.96795329, 
			 "HOMO_LUMO_gap": 0.1664, 
			 "cosmo_polarized_energy": -21.11, 
			 "cosmo_cavitation_energy": 28.45, 
			 "cosmo_dispersion_energy": -21.72, 
			 "cosmo_repulsion_energy": 1.63, 
			 "cosmo_total_nonelectrostatic_energy": 8.36, 
			 "SMD_solvation_energy": 4.72 
		},
		"coords": [
			{
				"x": -3.2505914549,
				"y": 2.6563581558,
				"z": 0.3490768089,
				"element": "O" 
			},
			{
				"x": -2.2730786058,
				"y": 2.3100551301,
				"z": -0.527135678,
				"element": "C" 
			},
			{
				"x": -2.0493388439,
				"y": 2.9989829091,
				"z": -1.4934659891,
				"element": "O" 
			},
			{
				"x": -1.5083495387,
				"y": 1.0501738746,
				"z": -0.2271819838,
				"element": "C" 
			},
			{
				"x": -1.4268799151,
				"y": 0.5143377086,
				"z": 1.0552943982,
				"element": "C" 
			},
			{
				"x": -0.6842880164,
				"y": -0.657162308,
				"z": 1.2946372528,
				"element": "C" 
			},
			{
				"x": -0.0264659661,
				"y": -1.2763661453,
				"z": 0.2066086512,
				"element": "C" 
			},
			{
				"x": -0.1021406658,
				"y": -0.7238018587,
				"z": -1.0814025218,
				"element": "C" 
			},
			{
				"x": -0.8278164182,
				"y": 0.4344906856,
				"z": -1.2979997894,
				"element": "C" 
			},
			{
				"x": 0.7470955932,
				"y": -2.5024803046,
				"z": 0.4411830206,
				"element": "C" 
			},
			{
				"x": 1.3620110308,
				"y": -3.1496855863,
				"z": -0.3898301952,
				"element": "O" 
			},
			{
				"x": 0.7274927396,
				"y": -2.9055668974,
				"z": 1.7900718379,
				"element": "N" 
			},
			{
				"x": 0.0582700767,
				"y": -2.2280758252,
				"z": 2.7811727227,
				"element": "C" 
			},
			{
				"x": 0.2002396679,
				"y": -2.9529082699,
				"z": 4.4016033152,
				"element": "S" 
			},
			{
				"x": -0.6286412206,
				"y": -1.1513118102,
				"z": 2.5919216701,
				"element": "N" 
			},
			{
				"x": -3.4113055193,
				"y": 1.9368072808,
				"z": 0.9753087538,
				"element": "H" 
			},
			{
				"x": -1.8902898686,
				"y": 0.9876749731,
				"z": 1.9161724277,
				"element": "H" 
			},
			{
				"x": 0.4222769178,
				"y": -1.2251199441,
				"z": -1.8880394307,
				"element": "H" 
			},
			{
				"x": -0.8906278985,
				"y": 0.8897669046,
				"z": -2.279703042,
				"element": "H" 
			},
			{
				"x": 1.2542321774,
				"y": -3.7474324782,
				"z": 1.9934098051,
				"element": "H" 
			},
			{
				"x": -0.5530042713,
				"y": -2.0012361945,
				"z": 4.9816979657,
				"element": "H" 
			}
		],
		 "valence_orbital": [ 
			{
				"type": "occ",
				"energy": -0.29744,
				"method": "rhf"
			},
			{
				"type": "occ",
				"energy": -0.28728,
				"method": "rhf"
			},
			{
				"type": "occ",
				"energy": -0.28511,
				"method": "rhf"
			},
			{
				"type": "occ",
				"energy": -0.27897,
				"method": "rhf"
			},
			{
				"type": "occ",
				"energy": -0.24613,
				"method": "rhf"
			},
			{
				"type": "unocc",
				"energy": -0.07973,
				"method": "rhf"
			},
			{
				"type": "unocc",
				"energy": -0.0558,
				"method": "rhf"
			},
			{
				"type": "unocc",
				"energy": -0.02334,
				"method": "rhf"
			},
			{
				"type": "unocc",
				"energy": 0.00119,
				"method": "rhf"
			},
			{
				"type": "unocc",
				"energy": 0.0094,
				"method": "rhf"
			}
		],
		"cosmo_sigma_profile": { 
			"-0.025": 0.0,
			"-0.024": 0.0,
			"-0.023": 0.0,
			"-0.022": 0.0,
			"-0.021": 0.0,
			"-0.02": 0.0,
			"-0.019": 0.492276609024,
			"-0.018": 1.50232189816,
			"-0.017": 1.64733744005,
			"-0.016": 2.03762555695,
			"-0.015": 2.08278579322,
			"-0.014": 1.50906711117,
			"-0.013": 3.28502644154,
			"-0.012": 3.62646056123,
			"-0.011": 2.87694791036,
			"-0.01": 2.65378722878,
			"-0.009": 3.80022934313,
			"-0.008": 3.9713610279,
			"-0.007": 4.8934225076,
			"-0.006": 8.3486605993,
			"-0.005": 10.560053474,
			"-0.004": 11.2126695079,
			"-0.003": 13.0331335385,
			"-0.002": 12.7034439534,
			"-0.001": 14.220775234,
			"0.0": 19.2186704982,
			"0.001": 20.5724635736,
			"0.002": 14.7479083394,
			"0.003": 8.08966830146,
			"0.004": 7.21472118779,
			"0.005": 7.20933592239,
			"0.006": 7.28895149035,
			"0.007": 4.43196720236,
			"0.008": 5.14452227907,
			"0.009": 6.25963412033,
			"0.01": 7.6353418161,
			"0.011": 8.97855328567,
			"0.012": 8.81129064245,
			"0.013": 1.69732163449,
			"0.014": 0.0,
			"0.015": 0.0,
			"0.016": 0.0,
			"0.017": 0.0,
			"0.018": 0.0,
			"0.019": 0.0,
			"0.02": 0.0,
			"0.021": 0.0,
			"0.022": 0.0,
			"0.023": 0.0,
			"0.024": 0.0,
			"0.025": 0.0
		}
	}
}
