{
	 "smiles": "C[C@@H](O)[C@H](C)O", 
	 "Tm": 306.95, 
	 "num_atms": 16, 
	 "gaussian": { 
		 "optdone": 1, 
		 "sigma_profile": "yes", 
		 "theory": "DFT", 
		 "functional": "B3LYP", 
		 "basiset": "6-31G**", 
		 "properties": { 
			 "R2extent": 818.3413, 
			 "electric_dipole_moment_norm": 2.37631360725, 
			 "electric_quadrupole_moment_norm": 4.61975858352, 
			 "total_energy": -308.896049872, 
			 "HOMO_LUMO_gap": 0.32093, 
			 "cosmo_polarized_energy": -8.28, 
			 "cosmo_cavitation_energy": 17.9, 
			 "cosmo_dispersion_energy": -13.43, 
			 "cosmo_repulsion_energy": 1.17, 
			 "cosmo_total_nonelectrostatic_energy": 5.64, 
			 "SMD_solvation_energy": 3.28 
		},
		"coords": [
			{
				"x": -1.6508365637,
				"y": 0.9565592787,
				"z": -0.8123762408,
				"element": "C" 
			},
			{
				"x": -1.2097619398,
				"y": 0.9906997117,
				"z": 0.6438985901,
				"element": "C" 
			},
			{
				"x": -1.8747481526,
				"y": -0.0624078609,
				"z": 1.3293006282,
				"element": "O" 
			},
			{
				"x": 0.3118156862,
				"y": 0.8660246876,
				"z": 0.8455786262,
				"element": "C" 
			},
			{
				"x": 0.9105240707,
				"y": -0.4203047448,
				"z": 0.2811236637,
				"element": "C" 
			},
			{
				"x": 0.4709558735,
				"y": 0.9238144242,
				"z": 2.2717131484,
				"element": "O" 
			},
			{
				"x": -1.4250779723,
				"y": -0.0122012619,
				"z": -1.2671434156,
				"element": "H" 
			},
			{
				"x": -1.1558030438,
				"y": 1.7434263365,
				"z": -1.3911059529,
				"element": "H" 
			},
			{
				"x": -2.7312439556,
				"y": 1.1116013983,
				"z": -0.8745014574,
				"element": "H" 
			},
			{
				"x": -1.4962476219,
				"y": 1.9623100767,
				"z": 1.0811573779,
				"element": "H" 
			},
			{
				"x": -1.4795302883,
				"y": -0.0758862633,
				"z": 2.2142937433,
				"element": "H" 
			},
			{
				"x": 0.7979934124,
				"y": 1.739093251,
				"z": 0.3802778005,
				"element": "H" 
			},
			{
				"x": 0.3616727627,
				"y": -1.2866360645,
				"z": 0.659439044,
				"element": "H" 
			},
			{
				"x": 1.9646472439,
				"y": -0.5153974633,
				"z": 0.5690819438,
				"element": "H" 
			},
			{
				"x": 0.8716301201,
				"y": -0.4327306576,
				"z": -0.812114343,
				"element": "H" 
			},
			{
				"x": 1.3739103685,
				"y": 0.6615351515,
				"z": 2.4892768435,
				"element": "H" 
			}
		],
		 "valence_orbital": [ 
			{
				"type": "occ",
				"energy": -0.36079,
				"method": "rhf"
			},
			{
				"type": "occ",
				"energy": -0.33679,
				"method": "rhf"
			},
			{
				"type": "occ",
				"energy": -0.31462,
				"method": "rhf"
			},
			{
				"type": "occ",
				"energy": -0.27754,
				"method": "rhf"
			},
			{
				"type": "occ",
				"energy": -0.25484,
				"method": "rhf"
			},
			{
				"type": "unocc",
				"energy": 0.06609,
				"method": "rhf"
			},
			{
				"type": "unocc",
				"energy": 0.10351,
				"method": "rhf"
			},
			{
				"type": "unocc",
				"energy": 0.1257,
				"method": "rhf"
			},
			{
				"type": "unocc",
				"energy": 0.1359,
				"method": "rhf"
			},
			{
				"type": "unocc",
				"energy": 0.14172,
				"method": "rhf"
			}
		],
		"cosmo_sigma_profile": { 
			"-0.025": 0.0,
			"-0.024": 0.0,
			"-0.023": 0.0,
			"-0.022": 0.0,
			"-0.021": 0.0,
			"-0.02": 0.0,
			"-0.019": 0.0,
			"-0.018": 0.0,
			"-0.017": 0.0,
			"-0.016": 0.0574658515694,
			"-0.015": 0.881648005012,
			"-0.014": 0.948807638065,
			"-0.013": 1.04645994622,
			"-0.012": 0.738067097042,
			"-0.011": 1.49914617279,
			"-0.01": 1.70305642397,
			"-0.009": 1.19136381933,
			"-0.008": 1.30406178133,
			"-0.007": 1.44057887741,
			"-0.006": 2.38139410855,
			"-0.005": 2.32225704694,
			"-0.004": 6.52322998177,
			"-0.003": 18.5200831653,
			"-0.002": 17.0066698377,
			"-0.001": 16.6149875631,
			"0.0": 16.5778108193,
			"0.001": 12.3253834205,
			"0.002": 4.72543052369,
			"0.003": 2.68599660639,
			"0.004": 3.31878604318,
			"0.005": 2.76198341462,
			"0.006": 2.49617310225,
			"0.007": 1.82142591741,
			"0.008": 2.15768219058,
			"0.009": 2.90489486343,
			"0.01": 1.6981775747,
			"0.011": 1.37629434441,
			"0.012": 2.63953754813,
			"0.013": 2.33742213326,
			"0.014": 2.29305343738,
			"0.015": 1.23237942662,
			"0.016": 0.0,
			"0.017": 0.0,
			"0.018": 0.0,
			"0.019": 0.0,
			"0.02": 0.0,
			"0.021": 0.0,
			"0.022": 0.0,
			"0.023": 0.0,
			"0.024": 0.0,
			"0.025": 0.0
		}
	}
}
