{
	 "smiles": "CCCCNC(=O)OCC(C)(CCC)COC(N)=O", 
	 "Tm": 323.15, 
	 "num_atms": 45, 
	 "gaussian": { 
		 "optdone": 1, 
		 "sigma_profile": "yes", 
		 "theory": "DFT", 
		 "functional": "B3LYP", 
		 "basiset": "6-31G**", 
		 "properties": { 
			 "R2extent": 6616.44, 
			 "electric_dipole_moment_norm": 0.941820795056, 
			 "electric_quadrupole_moment_norm": 16.9317516941, 
			 "total_energy": -921.522823113, 
			 "HOMO_LUMO_gap": 0.29071, 
			 "cosmo_polarized_energy": -17.57, 
			 "cosmo_cavitation_energy": 46.0, 
			 "cosmo_dispersion_energy": -29.6, 
			 "cosmo_repulsion_energy": 2.37, 
			 "cosmo_total_nonelectrostatic_energy": 18.77, 
			 "SMD_solvation_energy": 9.01 
		},
		"coords": [
			{
				"x": 0.2082835174,
				"y": -5.1138848053,
				"z": -1.2082772976,
				"element": "C" 
			},
			{
				"x": 0.7821192448,
				"y": -3.6940409043,
				"z": -1.1151531493,
				"element": "C" 
			},
			{
				"x": 0.5746683967,
				"y": -3.0023667851,
				"z": 0.2421487223,
				"element": "C" 
			},
			{
				"x": -0.8951586902,
				"y": -2.6793298123,
				"z": 0.5516928382,
				"element": "C" 
			},
			{
				"x": -1.0941253102,
				"y": -2.015512143,
				"z": 1.8373331723,
				"element": "N" 
			},
			{
				"x": -1.0117159531,
				"y": -0.6764387134,
				"z": 2.0865669922,
				"element": "C" 
			},
			{
				"x": -1.0024475573,
				"y": -0.1832439221,
				"z": 3.2020446285,
				"element": "O" 
			},
			{
				"x": -0.9728816245,
				"y": 0.0508566501,
				"z": 0.9338781239,
				"element": "O" 
			},
			{
				"x": -0.9393613483,
				"y": 1.4780402561,
				"z": 1.1185419631,
				"element": "C" 
			},
			{
				"x": -0.6384743308,
				"y": 2.1579145319,
				"z": -0.2256551954,
				"element": "C" 
			},
			{
				"x": -0.5500495429,
				"y": 3.6739376156,
				"z": 0.0345627378,
				"element": "C" 
			},
			{
				"x": -1.7071511551,
				"y": 1.7994422823,
				"z": -1.296126593,
				"element": "C" 
			},
			{
				"x": -3.1431731816,
				"y": 2.3313925493,
				"z": -1.0803585714,
				"element": "C" 
			},
			{
				"x": -3.4503018745,
				"y": 3.666958677,
				"z": -1.7714491748,
				"element": "C" 
			},
			{
				"x": 0.7076979268,
				"y": 1.6485901897,
				"z": -0.7747926378,
				"element": "C" 
			},
			{
				"x": 1.7588449632,
				"y": 1.8999818563,
				"z": 0.1790979107,
				"element": "O" 
			},
			{
				"x": 2.6799945051,
				"y": 0.9145798999,
				"z": 0.3560591568,
				"element": "C" 
			},
			{
				"x": 3.6187740004,
				"y": 1.3184688974,
				"z": 1.262550831,
				"element": "N" 
			},
			{
				"x": 2.6906836887,
				"y": -0.1543784025,
				"z": -0.2264488553,
				"element": "O" 
			},
			{
				"x": 0.6298309254,
				"y": -5.7609170862,
				"z": -0.4298959814,
				"element": "H" 
			},
			{
				"x": 0.4394549785,
				"y": -5.5691912817,
				"z": -2.1769803517,
				"element": "H" 
			},
			{
				"x": -0.8811741152,
				"y": -5.1292223633,
				"z": -1.0953151089,
				"element": "H" 
			},
			{
				"x": 1.8585750487,
				"y": -3.7287569189,
				"z": -1.3201239226,
				"element": "H" 
			},
			{
				"x": 0.3481940409,
				"y": -3.0693483851,
				"z": -1.9081518681,
				"element": "H" 
			},
			{
				"x": 0.9765313707,
				"y": -3.6397925203,
				"z": 1.0430769678,
				"element": "H" 
			},
			{
				"x": 1.1493506934,
				"y": -2.0702685436,
				"z": 0.2598503181,
				"element": "H" 
			},
			{
				"x": -1.5007942585,
				"y": -3.5921297962,
				"z": 0.562763723,
				"element": "H" 
			},
			{
				"x": -1.3093488055,
				"y": -2.0323169886,
				"z": -0.2253173593,
				"element": "H" 
			},
			{
				"x": -1.0199596812,
				"y": -2.5690379189,
				"z": 2.6782966019,
				"element": "H" 
			},
			{
				"x": -1.9018788335,
				"y": 1.8094527595,
				"z": 1.5217876022,
				"element": "H" 
			},
			{
				"x": -0.1727617719,
				"y": 1.7251930501,
				"z": 1.8560256007,
				"element": "H" 
			},
			{
				"x": -0.3760289846,
				"y": 4.2173414144,
				"z": -0.9000010715,
				"element": "H" 
			},
			{
				"x": -1.4695956335,
				"y": 4.0612081617,
				"z": 0.4835012435,
				"element": "H" 
			},
			{
				"x": 0.2773325028,
				"y": 3.9010489089,
				"z": 0.712734635,
				"element": "H" 
			},
			{
				"x": -1.3478175979,
				"y": 2.1493574886,
				"z": -2.2740545109,
				"element": "H" 
			},
			{
				"x": -1.7403630828,
				"y": 0.7068846269,
				"z": -1.3596827826,
				"element": "H" 
			},
			{
				"x": -3.8456202216,
				"y": 1.5815147749,
				"z": -1.4631457805,
				"element": "H" 
			},
			{
				"x": -3.3639468537,
				"y": 2.4122469798,
				"z": -0.0088324071,
				"element": "H" 
			},
			{
				"x": -2.818391692,
				"y": 4.4806128549,
				"z": -1.4044664433,
				"element": "H" 
			},
			{
				"x": -4.4932044468,
				"y": 3.9600959317,
				"z": -1.6100597913,
				"element": "H" 
			},
			{
				"x": -3.2925366658,
				"y": 3.5903187308,
				"z": -2.853445729,
				"element": "H" 
			},
			{
				"x": 0.6743818362,
				"y": 0.5794732295,
				"z": -0.9856786836,
				"element": "H" 
			},
			{
				"x": 0.962070802,
				"y": 2.1840462832,
				"z": -1.6970930759,
				"element": "H" 
			},
			{
				"x": 4.234982573,
				"y": 0.6045050701,
				"z": 1.6151610811,
				"element": "H" 
			},
			{
				"x": 3.4253921982,
				"y": 2.1174136204,
				"z": 1.845331492,
				"element": "H" 
			}
		],
		 "valence_orbital": [ 
			{
				"type": "occ",
				"energy": -0.28563,
				"method": "rhf"
			},
			{
				"type": "occ",
				"energy": -0.27782,
				"method": "rhf"
			},
			{
				"type": "occ",
				"energy": -0.27226,
				"method": "rhf"
			},
			{
				"type": "occ",
				"energy": -0.26025,
				"method": "rhf"
			},
			{
				"type": "occ",
				"energy": -0.24119,
				"method": "rhf"
			},
			{
				"type": "unocc",
				"energy": 0.04952,
				"method": "rhf"
			},
			{
				"type": "unocc",
				"energy": 0.06231,
				"method": "rhf"
			},
			{
				"type": "unocc",
				"energy": 0.0717,
				"method": "rhf"
			},
			{
				"type": "unocc",
				"energy": 0.08133,
				"method": "rhf"
			},
			{
				"type": "unocc",
				"energy": 0.08661,
				"method": "rhf"
			}
		],
		"cosmo_sigma_profile": { 
			"-0.025": 0.0,
			"-0.024": 0.0,
			"-0.023": 0.0,
			"-0.022": 0.0,
			"-0.021": 0.0,
			"-0.02": 0.0,
			"-0.019": 0.0,
			"-0.018": 0.0,
			"-0.017": 0.0,
			"-0.016": 0.0,
			"-0.015": 0.117200071921,
			"-0.014": 2.46868638931,
			"-0.013": 3.10952160389,
			"-0.012": 3.37677279247,
			"-0.011": 3.0201180078,
			"-0.01": 3.86135254484,
			"-0.009": 1.85475418879,
			"-0.008": 2.30712032211,
			"-0.007": 3.10467135199,
			"-0.006": 2.64558499603,
			"-0.005": 8.86193522142,
			"-0.004": 15.9413568949,
			"-0.003": 27.9530892101,
			"-0.002": 50.3440888675,
			"-0.001": 47.5329072098,
			"0.0": 46.2866192643,
			"0.001": 41.5650928168,
			"0.002": 22.1342330484,
			"0.003": 10.6682318629,
			"0.004": 11.5266166673,
			"0.005": 8.28860780778,
			"0.006": 4.33816836631,
			"0.007": 5.11684886686,
			"0.008": 4.57253285822,
			"0.009": 3.08994104916,
			"0.01": 1.85272581062,
			"0.011": 4.04932052313,
			"0.012": 3.20453055002,
			"0.013": 6.6039994173,
			"0.014": 5.82689635726,
			"0.015": 0.158382011721,
			"0.016": 0.0,
			"0.017": 0.0,
			"0.018": 0.0,
			"0.019": 0.0,
			"0.02": 0.0,
			"0.021": 0.0,
			"0.022": 0.0,
			"0.023": 0.0,
			"0.024": 0.0,
			"0.025": 0.0
		}
	}
}
