{
	 "smiles": "ClC(=O)C1=CSC2=C1C=C(Br)C=C2", 
	 "Tm": 399.15, 
	 "num_atms": 17, 
	 "gaussian": { 
		 "optdone": 1, 
		 "sigma_profile": "yes", 
		 "theory": "DFT", 
		 "functional": "B3LYP", 
		 "basiset": "6-31G**", 
		 "properties": { 
			 "R2extent": 6607.1777, 
			 "electric_dipole_moment_norm": 3.99424108812, 
			 "electric_quadrupole_moment_norm": 5.28354832381, 
			 "total_energy": -3850.37846368, 
			 "HOMO_LUMO_gap": 0.1631, 
			 "cosmo_polarized_energy": -7.31, 
			 "cosmo_cavitation_energy": 27.54, 
			 "cosmo_dispersion_energy": -21.36, 
			 "cosmo_repulsion_energy": 1.62, 
			 "cosmo_total_nonelectrostatic_energy": 7.8, 
			 "SMD_solvation_energy": 3.77 
		},
		"coords": [
			{
				"x": 3.210774796,
				"y": 2.4425933743,
				"z": -1.4695072046,
				"element": "Cl" 
			},
			{
				"x": 1.9844926401,
				"y": 1.2910159441,
				"z": -2.1688991445,
				"element": "C" 
			},
			{
				"x": 2.1677341782,
				"y": 0.8777492405,
				"z": -3.2773361286,
				"element": "O" 
			},
			{
				"x": 0.8370525221,
				"y": 0.9440464953,
				"z": -1.3102214594,
				"element": "C" 
			},
			{
				"x": -0.0717586773,
				"y": 0.074222811,
				"z": -1.8660367105,
				"element": "C" 
			},
			{
				"x": -1.3975688578,
				"y": -0.311736464,
				"z": -0.8430113102,
				"element": "S" 
			},
			{
				"x": -0.7589523145,
				"y": 0.7222995181,
				"z": 0.4257792912,
				"element": "C" 
			},
			{
				"x": 0.4578492519,
				"y": 1.3437325019,
				"z": 0.0419709717,
				"element": "C" 
			},
			{
				"x": 1.0787995574,
				"y": 2.2021906002,
				"z": 0.9712655006,
				"element": "C" 
			},
			{
				"x": 0.4831324876,
				"y": 2.4022437256,
				"z": 2.2071360717,
				"element": "C" 
			},
			{
				"x": 1.3295607155,
				"y": 3.5669387951,
				"z": 3.4631186953,
				"element": "Br" 
			},
			{
				"x": -0.7202966384,
				"y": 1.7819701087,
				"z": 2.5747398322,
				"element": "C" 
			},
			{
				"x": -1.3484919211,
				"y": 0.9329144304,
				"z": 1.6750644921,
				"element": "C" 
			},
			{
				"x": 0.0035478326,
				"y": -0.3527306152,
				"z": -2.8565174344,
				"element": "H" 
			},
			{
				"x": 2.0056832747,
				"y": 2.7006048937,
				"z": 0.7312309403,
				"element": "H" 
			},
			{
				"x": -1.1506797868,
				"y": 1.9669297433,
				"z": 3.5517227926,
				"element": "H" 
			},
			{
				"x": -2.28007906,
				"y": 0.4437148971,
				"z": 1.9411008044,
				"element": "H" 
			}
		],
		 "valence_orbital": [ 
			{
				"type": "occ",
				"energy": -0.30602,
				"method": "rhf"
			},
			{
				"type": "occ",
				"energy": -0.29955,
				"method": "rhf"
			},
			{
				"type": "occ",
				"energy": -0.29521,
				"method": "rhf"
			},
			{
				"type": "occ",
				"energy": -0.25677,
				"method": "rhf"
			},
			{
				"type": "occ",
				"energy": -0.2466,
				"method": "rhf"
			},
			{
				"type": "unocc",
				"energy": -0.0835,
				"method": "rhf"
			},
			{
				"type": "unocc",
				"energy": -0.03826,
				"method": "rhf"
			},
			{
				"type": "unocc",
				"energy": -0.03002,
				"method": "rhf"
			},
			{
				"type": "unocc",
				"energy": -0.01576,
				"method": "rhf"
			},
			{
				"type": "unocc",
				"energy": 0.00351,
				"method": "rhf"
			}
		],
		"cosmo_sigma_profile": { 
			"-0.025": 0.0,
			"-0.024": 0.0,
			"-0.023": 0.0,
			"-0.022": 0.0,
			"-0.021": 0.0,
			"-0.02": 0.0,
			"-0.019": 0.0,
			"-0.018": 0.0,
			"-0.017": 0.0,
			"-0.016": 0.0,
			"-0.015": 0.0,
			"-0.014": 0.0,
			"-0.013": 0.0,
			"-0.012": 0.0,
			"-0.011": 0.777717241236,
			"-0.01": 1.94834864652,
			"-0.009": 2.88009624944,
			"-0.008": 4.88477957229,
			"-0.007": 6.05014626865,
			"-0.006": 5.68145575972,
			"-0.005": 6.50381440477,
			"-0.004": 12.1032690316,
			"-0.003": 12.8037732517,
			"-0.002": 16.9546590078,
			"-0.001": 27.147493956,
			"0.0": 23.8070680072,
			"0.001": 26.5466405377,
			"0.002": 28.0549662208,
			"0.003": 14.4103583052,
			"0.004": 18.8814494198,
			"0.005": 8.22959102093,
			"0.006": 3.31950325428,
			"0.007": 1.68898011361,
			"0.008": 3.74836293146,
			"0.009": 3.65403298028,
			"0.01": 0.916526156973,
			"0.011": 0.0,
			"0.012": 0.0,
			"0.013": 0.0,
			"0.014": 0.0,
			"0.015": 0.0,
			"0.016": 0.0,
			"0.017": 0.0,
			"0.018": 0.0,
			"0.019": 0.0,
			"0.02": 0.0,
			"0.021": 0.0,
			"0.022": 0.0,
			"0.023": 0.0,
			"0.024": 0.0,
			"0.025": 0.0
		}
	}
}
