{
	 "smiles": "CCOC1=C(NC2=CC=C(C=C2)C(O)=O)C(=O)C1=O", 
	 "Tm": 573.15, 
	 "num_atms": 30, 
	 "gaussian": { 
		 "optdone": 1, 
		 "sigma_profile": "yes", 
		 "theory": "DFT", 
		 "functional": "B3LYP", 
		 "basiset": "6-31G**", 
		 "properties": { 
			 "R2extent": 7600.328, 
			 "electric_dipole_moment_norm": 1.18669432458, 
			 "electric_quadrupole_moment_norm": 51.909170426, 
			 "total_energy": -932.845144674, 
			 "HOMO_LUMO_gap": 0.1578, 
			 "cosmo_polarized_energy": -26.6, 
			 "cosmo_cavitation_energy": 36.64, 
			 "cosmo_dispersion_energy": -25.72, 
			 "cosmo_repulsion_energy": 1.98, 
			 "cosmo_total_nonelectrostatic_energy": 12.91, 
			 "SMD_solvation_energy": 9.14 
		},
		"coords": [
			{
				"x": -0.7597413258,
				"y": -4.1317681488,
				"z": 1.0261245497,
				"element": "C" 
			},
			{
				"x": -0.8387107501,
				"y": -2.9262505793,
				"z": 1.9383433052,
				"element": "C" 
			},
			{
				"x": -0.2118410822,
				"y": -1.8095384739,
				"z": 1.2331322228,
				"element": "O" 
			},
			{
				"x": -0.2229394432,
				"y": -0.6371795721,
				"z": 1.8503347739,
				"element": "C" 
			},
			{
				"x": 0.2828294101,
				"y": 0.6143099365,
				"z": 1.5122106229,
				"element": "C" 
			},
			{
				"x": 0.9569801733,
				"y": 1.2909360779,
				"z": 0.5582672285,
				"element": "N" 
			},
			{
				"x": 1.4930263523,
				"y": 0.8887921881,
				"z": -0.6712894513,
				"element": "C" 
			},
			{
				"x": 2.158671715,
				"y": 1.8581684589,
				"z": -1.4401938956,
				"element": "C" 
			},
			{
				"x": 2.7035801223,
				"y": 1.5205326848,
				"z": -2.6721874721,
				"element": "C" 
			},
			{
				"x": 2.600027545,
				"y": 0.2122330584,
				"z": -3.1673562955,
				"element": "C" 
			},
			{
				"x": 1.9541180033,
				"y": -0.7514017066,
				"z": -2.379699296,
				"element": "C" 
			},
			{
				"x": 1.3959065598,
				"y": -0.4276353397,
				"z": -1.1502991499,
				"element": "C" 
			},
			{
				"x": 3.1768448515,
				"y": -0.2283892725,
				"z": -4.4746769531,
				"element": "C" 
			},
			{
				"x": 3.4650008938,
				"y": 0.7455719883,
				"z": -5.3813667421,
				"element": "O" 
			},
			{
				"x": 3.3907643386,
				"y": -1.3865969645,
				"z": -4.748398307,
				"element": "O" 
			},
			{
				"x": -0.2150938496,
				"y": 1.2256268853,
				"z": 2.7751102581,
				"element": "C" 
			},
			{
				"x": -0.1482781781,
				"y": 2.351591471,
				"z": 3.2137512081,
				"element": "O" 
			},
			{
				"x": -0.7804513049,
				"y": -0.1623745898,
				"z": 3.155418903,
				"element": "C" 
			},
			{
				"x": -1.3936603807,
				"y": -0.6701756776,
				"z": 4.0665589353,
				"element": "O" 
			},
			{
				"x": -1.2161973278,
				"y": -4.994139443,
				"z": 1.520955695,
				"element": "H" 
			},
			{
				"x": -1.2942239133,
				"y": -3.949783063,
				"z": 0.08957074,
				"element": "H" 
			},
			{
				"x": 0.2797158929,
				"y": -4.3794417512,
				"z": 0.7933511381,
				"element": "H" 
			},
			{
				"x": -1.8700631044,
				"y": -2.6526827123,
				"z": 2.1751626924,
				"element": "H" 
			},
			{
				"x": -0.3016281606,
				"y": -3.0850155776,
				"z": 2.8777244752,
				"element": "H" 
			},
			{
				"x": 1.0875538812,
				"y": 2.2677275441,
				"z": 0.8029129052,
				"element": "H" 
			},
			{
				"x": 2.2555575404,
				"y": 2.8732467225,
				"z": -1.0640847168,
				"element": "H" 
			},
			{
				"x": 3.2449363558,
				"y": 2.2865160147,
				"z": -3.221975785,
				"element": "H" 
			},
			{
				"x": 1.8982730841,
				"y": -1.7667581055,
				"z": -2.7570713524,
				"element": "H" 
			},
			{
				"x": 0.8933060623,
				"y": -1.1891698907,
				"z": -0.5670909968,
				"element": "H" 
			},
			{
				"x": 3.082336039,
				"y": 1.5885478376,
				"z": -5.1026392396,
				"element": "H" 
			}
		],
		 "valence_orbital": [ 
			{
				"type": "occ",
				"energy": -0.28562,
				"method": "rhf"
			},
			{
				"type": "occ",
				"energy": -0.2845,
				"method": "rhf"
			},
			{
				"type": "occ",
				"energy": -0.27515,
				"method": "rhf"
			},
			{
				"type": "occ",
				"energy": -0.24056,
				"method": "rhf"
			},
			{
				"type": "occ",
				"energy": -0.22839,
				"method": "rhf"
			},
			{
				"type": "unocc",
				"energy": -0.07059,
				"method": "rhf"
			},
			{
				"type": "unocc",
				"energy": -0.04776,
				"method": "rhf"
			},
			{
				"type": "unocc",
				"energy": -0.03405,
				"method": "rhf"
			},
			{
				"type": "unocc",
				"energy": -0.02757,
				"method": "rhf"
			},
			{
				"type": "unocc",
				"energy": 0.04606,
				"method": "rhf"
			}
		],
		"cosmo_sigma_profile": { 
			"-0.025": 0.0,
			"-0.024": 0.0,
			"-0.023": 0.0,
			"-0.022": 0.0,
			"-0.021": 0.0,
			"-0.02": 0.0,
			"-0.019": 0.286959416496,
			"-0.018": 0.80196015494,
			"-0.017": 0.989932702292,
			"-0.016": 2.08588684464,
			"-0.015": 1.93298132233,
			"-0.014": 1.17922004283,
			"-0.013": 2.44212658967,
			"-0.012": 3.21752582011,
			"-0.011": 2.12109965122,
			"-0.01": 2.21092742933,
			"-0.009": 2.8970111098,
			"-0.008": 4.11872800619,
			"-0.007": 6.24034725482,
			"-0.006": 12.9183255831,
			"-0.005": 20.8194485198,
			"-0.004": 25.1721853164,
			"-0.003": 24.5301659878,
			"-0.002": 19.456645674,
			"-0.001": 21.3341908807,
			"0.0": 19.049350478,
			"0.001": 16.1428465528,
			"0.002": 18.1287104059,
			"0.003": 13.4196787408,
			"0.004": 4.86179504124,
			"0.005": 6.15666789368,
			"0.006": 5.03522269359,
			"0.007": 4.6568452713,
			"0.008": 6.46872339957,
			"0.009": 7.0623383506,
			"0.01": 9.46372573496,
			"0.011": 14.9791651793,
			"0.012": 10.606727287,
			"0.013": 2.78274600621,
			"0.014": 0.207424955733,
			"0.015": 0.0,
			"0.016": 0.0,
			"0.017": 0.0,
			"0.018": 0.0,
			"0.019": 0.0,
			"0.02": 0.0,
			"0.021": 0.0,
			"0.022": 0.0,
			"0.023": 0.0,
			"0.024": 0.0,
			"0.025": 0.0
		}
	}
}
