{
	 "smiles": "SC1=NN=C(N1C1CC1)C1=CN=CC=C1", 
	 "Tm": 290.15, 
	 "num_atms": 25, 
	 "gaussian": { 
		 "optdone": 1, 
		 "sigma_profile": "yes", 
		 "theory": "DFT", 
		 "functional": "B3LYP", 
		 "basiset": "6-31G**", 
		 "properties": { 
			 "R2extent": 4538.4435, 
			 "electric_dipole_moment_norm": 6.24993583567, 
			 "electric_quadrupole_moment_norm": 8.03015706509, 
			 "total_energy": -1004.21701008, 
			 "HOMO_LUMO_gap": 0.18103, 
			 "cosmo_polarized_energy": -18.34, 
			 "cosmo_cavitation_energy": 30.38, 
			 "cosmo_dispersion_energy": -22.28, 
			 "cosmo_repulsion_energy": 1.69, 
			 "cosmo_total_nonelectrostatic_energy": 9.79, 
			 "SMD_solvation_energy": 0.85 
		},
		"coords": [
			{
				"x": 0.5742568195,
				"y": -5.0530462434,
				"z": 0.066600332,
				"element": "S" 
			},
			{
				"x": -0.1985143387,
				"y": -3.4844223937,
				"z": 0.3165421246,
				"element": "C" 
			},
			{
				"x": -1.4724564238,
				"y": -3.2924689932,
				"z": 0.5671695113,
				"element": "N" 
			},
			{
				"x": -1.6609112327,
				"y": -1.9325052212,
				"z": 0.6602619957,
				"element": "N" 
			},
			{
				"x": -0.5035186246,
				"y": -1.3369918517,
				"z": 0.4618745925,
				"element": "C" 
			},
			{
				"x": 0.4849900668,
				"y": -2.2928284547,
				"z": 0.2486661019,
				"element": "N" 
			},
			{
				"x": 1.9002294769,
				"y": -2.1310796753,
				"z": 0.0276080175,
				"element": "C" 
			},
			{
				"x": 2.7137266561,
				"y": -1.3141596097,
				"z": 0.9996062015,
				"element": "C" 
			},
			{
				"x": 2.8715948558,
				"y": -2.8084999111,
				"z": 0.9695163556,
				"element": "C" 
			},
			{
				"x": -0.3327952394,
				"y": 0.1197418982,
				"z": 0.4722954647,
				"element": "C" 
			},
			{
				"x": -1.1696044805,
				"y": 0.8868555681,
				"z": 1.3063699104,
				"element": "C" 
			},
			{
				"x": -1.1378190266,
				"y": 2.2186483795,
				"z": 1.3731077661,
				"element": "N" 
			},
			{
				"x": -0.2523498414,
				"y": 2.8578123395,
				"z": 0.5961467561,
				"element": "C" 
			},
			{
				"x": 0.6198099867,
				"y": 2.2017933236,
				"z": -0.272217861,
				"element": "C" 
			},
			{
				"x": 0.5761630905,
				"y": 0.8113038483,
				"z": -0.339874451,
				"element": "C" 
			},
			{
				"x": -0.5947566495,
				"y": -5.7102077341,
				"z": 0.1912528408,
				"element": "H" 
			},
			{
				"x": 2.1765415404,
				"y": -2.0889782127,
				"z": -1.0235232879,
				"element": "H" 
			},
			{
				"x": 2.1901232634,
				"y": -0.8811612252,
				"z": 1.8447399101,
				"element": "H" 
			},
			{
				"x": 3.500345157,
				"y": -0.6901439953,
				"z": 0.5881042677,
				"element": "H" 
			},
			{
				"x": 2.4552449672,
				"y": -3.3747071106,
				"z": 1.7955605613,
				"element": "H" 
			},
			{
				"x": 3.7661412132,
				"y": -3.2385782239,
				"z": 0.531324948,
				"element": "H" 
			},
			{
				"x": -1.8933829412,
				"y": 0.3775688687,
				"z": 1.9373780811,
				"element": "H" 
			},
			{
				"x": -0.2438524561,
				"y": 3.9437121818,
				"z": 0.6704392814,
				"element": "H" 
			},
			{
				"x": 1.3092370343,
				"y": 2.7681333131,
				"z": -0.8904281193,
				"element": "H" 
			},
			{
				"x": 1.2245571268,
				"y": 0.2776091352,
				"z": -1.0261213012,
				"element": "H" 
			}
		],
		 "valence_orbital": [ 
			{
				"type": "occ",
				"energy": -0.29264,
				"method": "rhf"
			},
			{
				"type": "occ",
				"energy": -0.27375,
				"method": "rhf"
			},
			{
				"type": "occ",
				"energy": -0.26088,
				"method": "rhf"
			},
			{
				"type": "occ",
				"energy": -0.25381,
				"method": "rhf"
			},
			{
				"type": "occ",
				"energy": -0.22518,
				"method": "rhf"
			},
			{
				"type": "unocc",
				"energy": -0.04415,
				"method": "rhf"
			},
			{
				"type": "unocc",
				"energy": -0.02688,
				"method": "rhf"
			},
			{
				"type": "unocc",
				"energy": 0.00629,
				"method": "rhf"
			},
			{
				"type": "unocc",
				"energy": 0.0226,
				"method": "rhf"
			},
			{
				"type": "unocc",
				"energy": 0.04745,
				"method": "rhf"
			}
		],
		"cosmo_sigma_profile": { 
			"-0.025": 0.0,
			"-0.024": 0.0,
			"-0.023": 0.0,
			"-0.022": 0.0,
			"-0.021": 0.0,
			"-0.02": 0.0,
			"-0.019": 0.0,
			"-0.018": 0.0,
			"-0.017": 0.0,
			"-0.016": 0.0,
			"-0.015": 0.0,
			"-0.014": 0.0,
			"-0.013": 0.00520229953361,
			"-0.012": 0.896999111656,
			"-0.011": 1.74468914639,
			"-0.01": 1.52217531531,
			"-0.009": 0.946590470981,
			"-0.008": 5.63837180483,
			"-0.007": 11.4533397861,
			"-0.006": 20.7324275249,
			"-0.005": 20.0107744267,
			"-0.004": 15.7095146606,
			"-0.003": 14.8917682764,
			"-0.002": 15.9303911226,
			"-0.001": 16.802689819,
			"0.0": 16.5961430645,
			"0.001": 21.4818993476,
			"0.002": 19.6580783972,
			"0.003": 9.57245725581,
			"0.004": 7.57296812448,
			"0.005": 6.4896150362,
			"0.006": 5.23807933597,
			"0.007": 3.56953018526,
			"0.008": 3.34962453416,
			"0.009": 2.69707049904,
			"0.01": 3.33238200288,
			"0.011": 2.99061677925,
			"0.012": 2.50211582818,
			"0.013": 5.41901785133,
			"0.014": 3.47056856439,
			"0.015": 3.28330756848,
			"0.016": 1.89864241221,
			"0.017": 0.224460831094,
			"0.018": 0.0,
			"0.019": 0.0,
			"0.02": 0.0,
			"0.021": 0.0,
			"0.022": 0.0,
			"0.023": 0.0,
			"0.024": 0.0,
			"0.025": 0.0
		}
	}
}
