{
	 "smiles": "COC1=CC=C(C=C1OC)C1=C(C)C(=O)C2=C(O1)C(C)=C(OC)C=C2OC", 
	 "Tm": 490.5, 
	 "num_atms": 49, 
	 "gaussian": { 
		 "optdone": 1, 
		 "sigma_profile": "yes", 
		 "theory": "DFT", 
		 "functional": "B3LYP", 
		 "basiset": "6-31G**", 
		 "properties": { 
			 "R2extent": 13389.1174, 
			 "electric_dipole_moment_norm": 5.34369273911, 
			 "electric_quadrupole_moment_norm": 17.1979417062, 
			 "total_energy": -1264.78699051, 
			 "HOMO_LUMO_gap": 0.16072, 
			 "cosmo_polarized_energy": -16.97, 
			 "cosmo_cavitation_energy": 51.5, 
			 "cosmo_dispersion_energy": -35.61, 
			 "cosmo_repulsion_energy": 2.69, 
			 "cosmo_total_nonelectrostatic_energy": 18.57, 
			 "SMD_solvation_energy": 12.34 
		},
		"coords": [
			{
				"x": 0.8583368264,
				"y": -6.0006780013,
				"z": 0.9022836377,
				"element": "C" 
			},
			{
				"x": -0.3526397961,
				"y": -5.3649739654,
				"z": 0.4807178971,
				"element": "O" 
			},
			{
				"x": -0.2751375011,
				"y": -4.0304697521,
				"z": 0.1843647072,
				"element": "C" 
			},
			{
				"x": -0.5571917413,
				"y": -3.6191878049,
				"z": -1.1150232249,
				"element": "C" 
			},
			{
				"x": -0.5618349146,
				"y": -2.2678813711,
				"z": -1.4623413794,
				"element": "C" 
			},
			{
				"x": -0.2704638588,
				"y": -1.2972417276,
				"z": -0.4974747876,
				"element": "C" 
			},
			{
				"x": 0.0287176018,
				"y": -1.7069752917,
				"z": 0.8170214895,
				"element": "C" 
			},
			{
				"x": 0.0147864079,
				"y": -3.0551001216,
				"z": 1.1693557371,
				"element": "C" 
			},
			{
				"x": 0.2503983181,
				"y": -3.5256984484,
				"z": 2.429160839,
				"element": "O" 
			},
			{
				"x": 0.5079463025,
				"y": -2.5847224462,
				"z": 3.460966177,
				"element": "C" 
			},
			{
				"x": -0.2333427979,
				"y": 0.1439911494,
				"z": -0.827076706,
				"element": "C" 
			},
			{
				"x": -1.076527261,
				"y": 0.8418952006,
				"z": -1.634335412,
				"element": "C" 
			},
			{
				"x": -2.2825791791,
				"y": 0.2528841222,
				"z": -2.3170021998,
				"element": "C" 
			},
			{
				"x": -0.8690345229,
				"y": 2.2886629729,
				"z": -1.847060465,
				"element": "C" 
			},
			{
				"x": -1.6427804969,
				"y": 2.9241818974,
				"z": -2.5709377108,
				"element": "O" 
			},
			{
				"x": 0.2765004542,
				"y": 2.8969248965,
				"z": -1.1430605283,
				"element": "C" 
			},
			{
				"x": 1.0872438647,
				"y": 2.0785019564,
				"z": -0.3261541803,
				"element": "C" 
			},
			{
				"x": 0.800140825,
				"y": 0.7507288437,
				"z": -0.1638269254,
				"element": "O" 
			},
			{
				"x": 2.2295501347,
				"y": 2.5182387845,
				"z": 0.3550825412,
				"element": "C" 
			},
			{
				"x": 3.0670683974,
				"y": 1.6021761111,
				"z": 1.210157998,
				"element": "C" 
			},
			{
				"x": 2.5714394408,
				"y": 3.869254661,
				"z": 0.1967903355,
				"element": "C" 
			},
			{
				"x": 3.6828591108,
				"y": 4.2728815762,
				"z": 0.87278557,
				"element": "O" 
			},
			{
				"x": 4.1237167665,
				"y": 5.615847713,
				"z": 0.7239439205,
				"element": "C" 
			},
			{
				"x": 1.8031583445,
				"y": 4.7238815562,
				"z": -0.605711847,
				"element": "C" 
			},
			{
				"x": 0.6726368957,
				"y": 4.2548282346,
				"z": -1.2678615686,
				"element": "C" 
			},
			{
				"x": 0.0362554011,
				"y": 5.1574471839,
				"z": -2.0720255913,
				"element": "O" 
			},
			{
				"x": -1.2191344717,
				"y": 5.6643005731,
				"z": -1.6059161894,
				"element": "C" 
			},
			{
				"x": 1.6373598836,
				"y": -5.9004351278,
				"z": 0.1355738065,
				"element": "H" 
			},
			{
				"x": 1.2206634894,
				"y": -5.5910322195,
				"z": 1.8486627415,
				"element": "H" 
			},
			{
				"x": 0.6139484037,
				"y": -7.057141386,
				"z": 1.0289197446,
				"element": "H" 
			},
			{
				"x": -0.7719336951,
				"y": -4.3862979135,
				"z": -1.8518580864,
				"element": "H" 
			},
			{
				"x": -0.7551772938,
				"y": -1.9784928435,
				"z": -2.4880857007,
				"element": "H" 
			},
			{
				"x": 0.2561018183,
				"y": -0.9510445166,
				"z": 1.557037783,
				"element": "H" 
			},
			{
				"x": -0.335871995,
				"y": -1.8969411295,
				"z": 3.5974328951,
				"element": "H" 
			},
			{
				"x": 0.6466008085,
				"y": -3.1692697859,
				"z": 4.3715173141,
				"element": "H" 
			},
			{
				"x": 1.4169957341,
				"y": -2.0029627126,
				"z": 3.2619830942,
				"element": "H" 
			},
			{
				"x": -2.0734038881,
				"y": 0.0081659438,
				"z": -3.3656740212,
				"element": "H" 
			},
			{
				"x": -3.0756102349,
				"y": 1.0039932116,
				"z": -2.3331213942,
				"element": "H" 
			},
			{
				"x": -2.6388372729,
				"y": -0.6503885503,
				"z": -1.8193901974,
				"element": "H" 
			},
			{
				"x": 2.8398765708,
				"y": 1.7325040183,
				"z": 2.2757261242,
				"element": "H" 
			},
			{
				"x": 4.1288244138,
				"y": 1.8270007752,
				"z": 1.0829009664,
				"element": "H" 
			},
			{
				"x": 2.8916904176,
				"y": 0.55707057,
				"z": 0.9527961567,
				"element": "H" 
			},
			{
				"x": 5.0277101776,
				"y": 5.7013730787,
				"z": 1.3285698348,
				"element": "H" 
			},
			{
				"x": 4.3624453706,
				"y": 5.8486884236,
				"z": -0.3207812664,
				"element": "H" 
			},
			{
				"x": 3.3752176932,
				"y": 6.3289574662,
				"z": 1.0903163269,
				"element": "H" 
			},
			{
				"x": 2.0611197268,
				"y": 5.765442162,
				"z": -0.7445813064,
				"element": "H" 
			},
			{
				"x": -1.9719493988,
				"y": 4.8747398138,
				"z": -1.5737389924,
				"element": "H" 
			},
			{
				"x": -1.1015863511,
				"y": 6.1337590953,
				"z": -0.620111429,
				"element": "H" 
			},
			{
				"x": -1.5207729289,
				"y": 6.4219131242,
				"z": -2.3318165278,
				"element": "H" 
			}
		],
		 "valence_orbital": [ 
			{
				"type": "occ",
				"energy": -0.24226,
				"method": "rhf"
			},
			{
				"type": "occ",
				"energy": -0.22913,
				"method": "rhf"
			},
			{
				"type": "occ",
				"energy": -0.22798,
				"method": "rhf"
			},
			{
				"type": "occ",
				"energy": -0.22042,
				"method": "rhf"
			},
			{
				"type": "occ",
				"energy": -0.21053,
				"method": "rhf"
			},
			{
				"type": "unocc",
				"energy": -0.04981,
				"method": "rhf"
			},
			{
				"type": "unocc",
				"energy": -0.01566,
				"method": "rhf"
			},
			{
				"type": "unocc",
				"energy": 0.00078,
				"method": "rhf"
			},
			{
				"type": "unocc",
				"energy": 0.00584,
				"method": "rhf"
			},
			{
				"type": "unocc",
				"energy": 0.02939,
				"method": "rhf"
			}
		],
		"cosmo_sigma_profile": { 
			"-0.025": 0.0,
			"-0.024": 0.0,
			"-0.023": 0.0,
			"-0.022": 0.0,
			"-0.021": 0.0,
			"-0.02": 0.0,
			"-0.019": 0.0,
			"-0.018": 0.0,
			"-0.017": 0.0,
			"-0.016": 0.0,
			"-0.015": 0.0,
			"-0.014": 0.0,
			"-0.013": 0.0,
			"-0.012": 0.0,
			"-0.011": 0.0,
			"-0.01": 0.0,
			"-0.009": 0.0,
			"-0.008": 0.0,
			"-0.007": 2.66930368142,
			"-0.006": 19.34943553,
			"-0.005": 30.4104722138,
			"-0.004": 36.6903057495,
			"-0.003": 41.9526266797,
			"-0.002": 41.9284825736,
			"-0.001": 36.4263860188,
			"0.0": 41.1323506819,
			"0.001": 37.8376791938,
			"0.002": 30.5037561821,
			"0.003": 21.8206350143,
			"0.004": 16.0161249888,
			"0.005": 8.79343999576,
			"0.006": 6.85690771539,
			"0.007": 5.48188583638,
			"0.008": 5.50014038294,
			"0.009": 5.01861865461,
			"0.01": 5.92898553229,
			"0.011": 4.14119319222,
			"0.012": 3.40878396829,
			"0.013": 3.47786775626,
			"0.014": 3.05062449171,
			"0.015": 0.566812174852,
			"0.016": 4.1050581058e-05,
			"0.017": 0.0,
			"0.018": 0.0,
			"0.019": 0.0,
			"0.02": 0.0,
			"0.021": 0.0,
			"0.022": 0.0,
			"0.023": 0.0,
			"0.024": 0.0,
			"0.025": 0.0
		}
	}
}
