{
	 "smiles": "COC1=C(C=CC=C1)C(C)O", 
	 "Tm": 311.15, 
	 "num_atms": 23, 
	 "gaussian": { 
		 "optdone": 1, 
		 "sigma_profile": "yes", 
		 "theory": "DFT", 
		 "functional": "B3LYP", 
		 "basiset": "6-31G**", 
		 "properties": { 
			 "R2extent": 2739.5999, 
			 "electric_dipole_moment_norm": 2.70675033573, 
			 "electric_quadrupole_moment_norm": 2.53914402309, 
			 "total_energy": -500.62422655, 
			 "HOMO_LUMO_gap": 0.21781, 
			 "cosmo_polarized_energy": -8.47, 
			 "cosmo_cavitation_energy": 25.65, 
			 "cosmo_dispersion_energy": -18.63, 
			 "cosmo_repulsion_energy": 1.51, 
			 "cosmo_total_nonelectrostatic_energy": 8.53, 
			 "SMD_solvation_energy": 5.27 
		},
		"coords": [
			{
				"x": -1.8253428882,
				"y": -1.0625581334,
				"z": 0.9869117133,
				"element": "C" 
			},
			{
				"x": -0.9277287968,
				"y": -0.0455069867,
				"z": 0.5737927766,
				"element": "O" 
			},
			{
				"x": -0.3589266249,
				"y": 0.7535447107,
				"z": 1.5318219334,
				"element": "C" 
			},
			{
				"x": 0.496275226,
				"y": 1.7663310266,
				"z": 1.0482771192,
				"element": "C" 
			},
			{
				"x": 1.1191112352,
				"y": 2.6053149069,
				"z": 1.9717473759,
				"element": "C" 
			},
			{
				"x": 0.9059357884,
				"y": 2.4643316375,
				"z": 3.3465754974,
				"element": "C" 
			},
			{
				"x": 0.0528619124,
				"y": 1.4658477889,
				"z": 3.8064349943,
				"element": "C" 
			},
			{
				"x": -0.5834175691,
				"y": 0.6072397764,
				"z": 2.9039999431,
				"element": "C" 
			},
			{
				"x": 0.7378664876,
				"y": 1.9255630363,
				"z": -0.4480055549,
				"element": "C" 
			},
			{
				"x": 1.7954019757,
				"y": 0.9511921119,
				"z": -0.9682557235,
				"element": "C" 
			},
			{
				"x": 1.2028176688,
				"y": 3.235468018,
				"z": -0.7753756014,
				"element": "O" 
			},
			{
				"x": -1.3325286593,
				"y": -1.7996763249,
				"z": 1.633798611,
				"element": "H" 
			},
			{
				"x": -2.6934631356,
				"y": -0.6473242706,
				"z": 1.5149287787,
				"element": "H" 
			},
			{
				"x": -2.1629997739,
				"y": -1.5562074177,
				"z": 0.0741532917,
				"element": "H" 
			},
			{
				"x": 1.7778294253,
				"y": 3.3798208606,
				"z": 1.5914454398,
				"element": "H" 
			},
			{
				"x": 1.402114439,
				"y": 3.1299789804,
				"z": 4.0463440796,
				"element": "H" 
			},
			{
				"x": -0.1266638795,
				"y": 1.3436563359,
				"z": 4.8708848333,
				"element": "H" 
			},
			{
				"x": -1.2442962265,
				"y": -0.1658329334,
				"z": 3.2779240734,
				"element": "H" 
			},
			{
				"x": -0.2070596467,
				"y": 1.719062352,
				"z": -0.9714327016,
				"element": "H" 
			},
			{
				"x": 1.4808738114,
				"y": -0.0796953231,
				"z": -0.7885347014,
				"element": "H" 
			},
			{
				"x": 2.7487299071,
				"y": 1.1255516635,
				"z": -0.4604598118,
				"element": "H" 
			},
			{
				"x": 1.9406327133,
				"y": 1.0976222718,
				"z": -2.0426636466,
				"element": "H" 
			},
			{
				"x": 0.5271766102,
				"y": 3.8639759124,
				"z": -0.4877127197,
				"element": "H" 
			}
		],
		 "valence_orbital": [ 
			{
				"type": "occ",
				"energy": -0.31741,
				"method": "rhf"
			},
			{
				"type": "occ",
				"energy": -0.31569,
				"method": "rhf"
			},
			{
				"type": "occ",
				"energy": -0.26673,
				"method": "rhf"
			},
			{
				"type": "occ",
				"energy": -0.24113,
				"method": "rhf"
			},
			{
				"type": "occ",
				"energy": -0.21597,
				"method": "rhf"
			},
			{
				"type": "unocc",
				"energy": 0.00184,
				"method": "rhf"
			},
			{
				"type": "unocc",
				"energy": 0.01399,
				"method": "rhf"
			},
			{
				"type": "unocc",
				"energy": 0.08929,
				"method": "rhf"
			},
			{
				"type": "unocc",
				"energy": 0.09414,
				"method": "rhf"
			},
			{
				"type": "unocc",
				"energy": 0.10422,
				"method": "rhf"
			}
		],
		"cosmo_sigma_profile": { 
			"-0.025": 0.0,
			"-0.024": 0.0,
			"-0.023": 0.0,
			"-0.022": 0.0,
			"-0.021": 0.0,
			"-0.02": 0.0,
			"-0.019": 0.0,
			"-0.018": 0.0,
			"-0.017": 0.0,
			"-0.016": 0.0,
			"-0.015": 0.597107192713,
			"-0.014": 0.906150709613,
			"-0.013": 0.75864865403,
			"-0.012": 0.762806860075,
			"-0.011": 1.33662029652,
			"-0.01": 0.420582544662,
			"-0.009": 0.856680225538,
			"-0.008": 0.980374592741,
			"-0.007": 1.19912131321,
			"-0.006": 5.81819260483,
			"-0.005": 15.9005554962,
			"-0.004": 15.9225087464,
			"-0.003": 22.7442296539,
			"-0.002": 17.3255721712,
			"-0.001": 14.8279854396,
			"0.0": 14.5532778332,
			"0.001": 16.0671314338,
			"0.002": 11.6814549695,
			"0.003": 12.5352358028,
			"0.004": 10.8959222046,
			"0.005": 10.7560389534,
			"0.006": 10.0769412459,
			"0.007": 5.34874265294,
			"0.008": 1.3855929921,
			"0.009": 1.05487920367,
			"0.01": 1.34655209102,
			"0.011": 1.22411213319,
			"0.012": 1.18757289948,
			"0.013": 1.37893863192,
			"0.014": 1.89056724785,
			"0.015": 0.128621109359,
			"0.016": 0.0,
			"0.017": 0.0,
			"0.018": 0.0,
			"0.019": 0.0,
			"0.02": 0.0,
			"0.021": 0.0,
			"0.022": 0.0,
			"0.023": 0.0,
			"0.024": 0.0,
			"0.025": 0.0
		}
	}
}
