{
	 "smiles": "CC1=CC2=C(OCC(=O)N2)N=C1", 
	 "Tm": 533.15, 
	 "num_atms": 20, 
	 "gaussian": { 
		 "optdone": 1, 
		 "sigma_profile": "yes", 
		 "theory": "DFT", 
		 "functional": "B3LYP", 
		 "basiset": "6-31G**", 
		 "properties": { 
			 "R2extent": 2668.5271, 
			 "electric_dipole_moment_norm": 3.72724575122, 
			 "electric_quadrupole_moment_norm": 15.1998877871, 
			 "total_energy": -569.631752572, 
			 "HOMO_LUMO_gap": 0.19099, 
			 "cosmo_polarized_energy": -15.31, 
			 "cosmo_cavitation_energy": 24.06, 
			 "cosmo_dispersion_energy": -18.3, 
			 "cosmo_repulsion_energy": 1.45, 
			 "cosmo_total_nonelectrostatic_energy": 7.21, 
			 "SMD_solvation_energy": 3.56 
		},
		"coords": [
			{
				"x": 3.1961690095,
				"y": 2.1715305097,
				"z": -1.5140654731,
				"element": "C" 
			},
			{
				"x": 2.1050277802,
				"y": 1.4432298001,
				"z": -0.7702786555,
				"element": "C" 
			},
			{
				"x": 2.3307845698,
				"y": 0.8768875864,
				"z": 0.4938565514,
				"element": "C" 
			},
			{
				"x": 1.2990075067,
				"y": 0.2116795998,
				"z": 1.1433597407,
				"element": "C" 
			},
			{
				"x": 0.0428967679,
				"y": 0.1521136705,
				"z": 0.5032530557,
				"element": "C" 
			},
			{
				"x": -0.9880986632,
				"y": -0.5231524634,
				"z": 1.0913601009,
				"element": "O" 
			},
			{
				"x": -0.9710591236,
				"y": -0.5718278388,
				"z": 2.5189603804,
				"element": "C" 
			},
			{
				"x": 0.3932732972,
				"y": -0.8769042812,
				"z": 3.1328925845,
				"element": "C" 
			},
			{
				"x": 0.5212373162,
				"y": -1.4174331834,
				"z": 4.2172446874,
				"element": "O" 
			},
			{
				"x": 1.4521443778,
				"y": -0.4320714543,
				"z": 2.3799858353,
				"element": "N" 
			},
			{
				"x": -0.1882647164,
				"y": 0.6730650228,
				"z": -0.6839744485,
				"element": "N" 
			},
			{
				"x": 0.8241974655,
				"y": 1.2981120651,
				"z": -1.3057047829,
				"element": "C" 
			},
			{
				"x": 2.843713941,
				"y": 2.5149484831,
				"z": -2.4903442286,
				"element": "H" 
			},
			{
				"x": 4.0672764997,
				"y": 1.5278582365,
				"z": -1.6814134674,
				"element": "H" 
			},
			{
				"x": 3.5442883127,
				"y": 3.049867553,
				"z": -0.9583269607,
				"element": "H" 
			},
			{
				"x": 3.3104974968,
				"y": 0.9428783383,
				"z": 0.9624811046,
				"element": "H" 
			},
			{
				"x": -1.3286899297,
				"y": 0.3816687352,
				"z": 2.9373223769,
				"element": "H" 
			},
			{
				"x": -1.663429957,
				"y": -1.3590052252,
				"z": 2.8170814999,
				"element": "H" 
			},
			{
				"x": 2.3736878722,
				"y": -0.5557707945,
				"z": 2.7803085328,
				"element": "H" 
			},
			{
				"x": 0.5958401767,
				"y": 1.70712564,
				"z": -2.2881984338,
				"element": "H" 
			}
		],
		 "valence_orbital": [ 
			{
				"type": "occ",
				"energy": -0.33161,
				"method": "rhf"
			},
			{
				"type": "occ",
				"energy": -0.2736,
				"method": "rhf"
			},
			{
				"type": "occ",
				"energy": -0.26894,
				"method": "rhf"
			},
			{
				"type": "occ",
				"energy": -0.26243,
				"method": "rhf"
			},
			{
				"type": "occ",
				"energy": -0.2233,
				"method": "rhf"
			},
			{
				"type": "unocc",
				"energy": -0.03231,
				"method": "rhf"
			},
			{
				"type": "unocc",
				"energy": -0.01651,
				"method": "rhf"
			},
			{
				"type": "unocc",
				"energy": 0.02283,
				"method": "rhf"
			},
			{
				"type": "unocc",
				"energy": 0.07284,
				"method": "rhf"
			},
			{
				"type": "unocc",
				"energy": 0.093,
				"method": "rhf"
			}
		],
		"cosmo_sigma_profile": { 
			"-0.025": 0.0,
			"-0.024": 0.0,
			"-0.023": 0.0,
			"-0.022": 0.0,
			"-0.021": 0.0,
			"-0.02": 0.0,
			"-0.019": 0.0,
			"-0.018": 0.0,
			"-0.017": 0.0,
			"-0.016": 0.60806340476,
			"-0.015": 1.36583379049,
			"-0.014": 1.59052125239,
			"-0.013": 1.03994230041,
			"-0.012": 1.37563978233,
			"-0.011": 1.24940856503,
			"-0.01": 0.826730036959,
			"-0.009": 1.83873703228,
			"-0.008": 7.04397499898,
			"-0.007": 6.96757425319,
			"-0.006": 8.32624750094,
			"-0.005": 12.1702988242,
			"-0.004": 14.2018024209,
			"-0.003": 13.6968026562,
			"-0.002": 13.5053754681,
			"-0.001": 15.6222439732,
			"0.0": 16.7815905701,
			"0.001": 11.0575415226,
			"0.002": 10.5610686383,
			"0.003": 7.39385917641,
			"0.004": 3.74518118327,
			"0.005": 4.08386914119,
			"0.006": 3.24542141994,
			"0.007": 2.85292137289,
			"0.008": 3.78232130058,
			"0.009": 2.66159734008,
			"0.01": 4.55262402668,
			"0.011": 4.16074688349,
			"0.012": 6.89603499383,
			"0.013": 5.29628630371,
			"0.014": 1.55693024849,
			"0.015": 1.05631716329,
			"0.016": 0.63914096022,
			"0.017": 0.0160514394634,
			"0.018": 0.0,
			"0.019": 0.0,
			"0.02": 0.0,
			"0.021": 0.0,
			"0.022": 0.0,
			"0.023": 0.0,
			"0.024": 0.0,
			"0.025": 0.0
		}
	}
}
