{
	 "smiles": "[O-][N+](=O)C1=CC=CC(C=CC(=O)C2=CC=C(F)C=C2)=C1", 
	 "Tm": 439.15, 
	 "num_atms": 30, 
	 "gaussian": { 
		 "optdone": 1, 
		 "sigma_profile": "yes", 
		 "theory": "DFT", 
		 "functional": "B3LYP", 
		 "basiset": "6-31G**", 
		 "properties": { 
			 "R2extent": 9016.4369, 
			 "electric_dipole_moment_norm": 2.26728380667, 
			 "electric_quadrupole_moment_norm": 29.4628766155, 
			 "total_energy": -957.765441546, 
			 "HOMO_LUMO_gap": 0.15204, 
			 "cosmo_polarized_energy": -14.9, 
			 "cosmo_cavitation_energy": 37.25, 
			 "cosmo_dispersion_energy": -26.28, 
			 "cosmo_repulsion_energy": 1.97, 
			 "cosmo_total_nonelectrostatic_energy": 12.93, 
			 "SMD_solvation_energy": 9.6 
		},
		"coords": [
			{
				"x": 4.8408187096,
				"y": -1.7852427456,
				"z": 1.2535979079,
				"element": "O" 
			},
			{
				"x": 3.7814313216,
				"y": -1.4631630734,
				"z": 0.7186694934,
				"element": "N" 
			},
			{
				"x": 3.5694189583,
				"y": -1.4861792121,
				"z": -0.4927245636,
				"element": "O" 
			},
			{
				"x": 2.6833635368,
				"y": -1.0169894633,
				"z": 1.5959071501,
				"element": "C" 
			},
			{
				"x": 2.8910104929,
				"y": -0.9863445368,
				"z": 2.9719800255,
				"element": "C" 
			},
			{
				"x": 1.8385674475,
				"y": -0.5624736065,
				"z": 3.784788232,
				"element": "C" 
			},
			{
				"x": 0.6207393412,
				"y": -0.1832506191,
				"z": 3.2268254164,
				"element": "C" 
			},
			{
				"x": 0.4160060004,
				"y": -0.2156441537,
				"z": 1.8323935577,
				"element": "C" 
			},
			{
				"x": -0.8480732333,
				"y": 0.1679066158,
				"z": 1.1909430678,
				"element": "C" 
			},
			{
				"x": -1.9578585044,
				"y": 0.6250915269,
				"z": 1.8021452318,
				"element": "C" 
			},
			{
				"x": -3.1764083937,
				"y": 1.1345823777,
				"z": 1.1182952116,
				"element": "C" 
			},
			{
				"x": -3.8376719115,
				"y": 2.0021221516,
				"z": 1.6823443674,
				"element": "O" 
			},
			{
				"x": -3.5846908541,
				"y": 0.630367553,
				"z": -0.2312682673,
				"element": "C" 
			},
			{
				"x": -4.3626943082,
				"y": 1.4813808807,
				"z": -1.0351196127,
				"element": "C" 
			},
			{
				"x": -4.8125118118,
				"y": 1.0700324099,
				"z": -2.2838894524,
				"element": "C" 
			},
			{
				"x": -4.4976940192,
				"y": -0.2173651087,
				"z": -2.7139533848,
				"element": "C" 
			},
			{
				"x": -4.9343502761,
				"y": -0.6251512505,
				"z": -3.9194305999,
				"element": "F" 
			},
			{
				"x": -3.7544740293,
				"y": -1.0973552995,
				"z": -1.9349225189,
				"element": "C" 
			},
			{
				"x": -3.2963305703,
				"y": -0.6647203218,
				"z": -0.6914434397,
				"element": "C" 
			},
			{
				"x": 1.475589433,
				"y": -0.6423911672,
				"z": 1.0169646706,
				"element": "C" 
			},
			{
				"x": 3.8489509185,
				"y": -1.2870327697,
				"z": 3.376733441,
				"element": "H" 
			},
			{
				"x": 1.9724876901,
				"y": -0.5284876827,
				"z": 4.8612233887,
				"element": "H" 
			},
			{
				"x": -0.1805009559,
				"y": 0.1425195332,
				"z": 3.8817628989,
				"element": "H" 
			},
			{
				"x": -0.8498594888,
				"y": 0.0845724692,
				"z": 0.106560392,
				"element": "H" 
			},
			{
				"x": -1.9839636272,
				"y": 0.7905686763,
				"z": 2.8762197962,
				"element": "H" 
			},
			{
				"x": -4.6052777591,
				"y": 2.4683513597,
				"z": -0.6562949581,
				"element": "H" 
			},
			{
				"x": -5.4019668591,
				"y": 1.71844574,
				"z": -2.9229393587,
				"element": "H" 
			},
			{
				"x": -3.552561379,
				"y": -2.0978835158,
				"z": -2.3012039012,
				"element": "H" 
			},
			{
				"x": -2.7385580595,
				"y": -1.3518950665,
				"z": -0.0648973852,
				"element": "H" 
			},
			{
				"x": 1.3729621905,
				"y": -0.685971701,
				"z": -0.0608668066,
				"element": "H" 
			}
		],
		 "valence_orbital": [ 
			{
				"type": "occ",
				"energy": -0.29303,
				"method": "rhf"
			},
			{
				"type": "occ",
				"energy": -0.27639,
				"method": "rhf"
			},
			{
				"type": "occ",
				"energy": -0.26676,
				"method": "rhf"
			},
			{
				"type": "occ",
				"energy": -0.25991,
				"method": "rhf"
			},
			{
				"type": "occ",
				"energy": -0.25275,
				"method": "rhf"
			},
			{
				"type": "unocc",
				"energy": -0.10071,
				"method": "rhf"
			},
			{
				"type": "unocc",
				"energy": -0.08603,
				"method": "rhf"
			},
			{
				"type": "unocc",
				"energy": -0.04069,
				"method": "rhf"
			},
			{
				"type": "unocc",
				"energy": -0.02602,
				"method": "rhf"
			},
			{
				"type": "unocc",
				"energy": -0.01949,
				"method": "rhf"
			}
		],
		"cosmo_sigma_profile": { 
			"-0.025": 0.0,
			"-0.024": 0.0,
			"-0.023": 0.0,
			"-0.022": 0.0,
			"-0.021": 0.0,
			"-0.02": 0.0,
			"-0.019": 0.0,
			"-0.018": 0.0,
			"-0.017": 0.0,
			"-0.016": 0.0,
			"-0.015": 0.0,
			"-0.014": 0.0,
			"-0.013": 0.0,
			"-0.012": 0.0,
			"-0.011": 0.0,
			"-0.01": 0.50216923546,
			"-0.009": 3.38336063091,
			"-0.008": 7.88795941376,
			"-0.007": 14.8700769497,
			"-0.006": 18.6039257914,
			"-0.005": 17.2398789537,
			"-0.004": 15.5674513415,
			"-0.003": 16.7263882745,
			"-0.002": 21.4869615834,
			"-0.001": 23.2558922657,
			"0.0": 31.0166996294,
			"0.001": 30.1666152338,
			"0.002": 23.039878457,
			"0.003": 15.1098365948,
			"0.004": 13.0632769416,
			"0.005": 5.19239648175,
			"0.006": 6.10210210842,
			"0.007": 9.86412709491,
			"0.008": 8.09242791318,
			"0.009": 6.37261526955,
			"0.01": 3.8450857057,
			"0.011": 2.81012579441,
			"0.012": 4.30236802393,
			"0.013": 2.02067739308,
			"0.014": 0.137320286416,
			"0.015": 0.0,
			"0.016": 0.0,
			"0.017": 0.0,
			"0.018": 0.0,
			"0.019": 0.0,
			"0.02": 0.0,
			"0.021": 0.0,
			"0.022": 0.0,
			"0.023": 0.0,
			"0.024": 0.0,
			"0.025": 0.0
		}
	}
}
