{
	 "smiles": "NC1=CC(Cl)=C(OC2=CC=NC=C2)C=C1", 
	 "Tm": 403.15, 
	 "num_atms": 24, 
	 "gaussian": { 
		 "optdone": 1, 
		 "sigma_profile": "yes", 
		 "theory": "DFT", 
		 "functional": "B3LYP", 
		 "basiset": "6-31G**", 
		 "properties": { 
			 "R2extent": 4342.3512, 
			 "electric_dipole_moment_norm": 5.70373517881, 
			 "electric_quadrupole_moment_norm": 12.3675507535, 
			 "total_energy": -1069.49840244, 
			 "HOMO_LUMO_gap": 0.19502, 
			 "cosmo_polarized_energy": -13.73, 
			 "cosmo_cavitation_energy": 30.83, 
			 "cosmo_dispersion_energy": -22.05, 
			 "cosmo_repulsion_energy": 1.74, 
			 "cosmo_total_nonelectrostatic_energy": 10.52, 
			 "SMD_solvation_energy": 3.77 
		},
		"coords": [
			{
				"x": 0.3176309885,
				"y": -3.8669746495,
				"z": -2.9822575539,
				"element": "N" 
			},
			{
				"x": -0.1566496694,
				"y": -2.7332992648,
				"z": -2.3277233091,
				"element": "C" 
			},
			{
				"x": -0.267157039,
				"y": -1.5102191118,
				"z": -3.0102678484,
				"element": "C" 
			},
			{
				"x": -0.6855588795,
				"y": -0.3643017256,
				"z": -2.3387040615,
				"element": "C" 
			},
			{
				"x": -0.8219350674,
				"y": 1.1407003677,
				"z": -3.2213894236,
				"element": "Cl" 
			},
			{
				"x": -1.0063443596,
				"y": -0.4062582627,
				"z": -0.9772785996,
				"element": "C" 
			},
			{
				"x": -1.5104497401,
				"y": 0.7082967475,
				"z": -0.3283559367,
				"element": "O" 
			},
			{
				"x": -0.6642622771,
				"y": 1.5258020683,
				"z": 0.3760505363,
				"element": "C" 
			},
			{
				"x": -1.2523858947,
				"y": 2.6093454129,
				"z": 1.0349290296,
				"element": "C" 
			},
			{
				"x": -0.4269280636,
				"y": 3.458805578,
				"z": 1.7641384963,
				"element": "C" 
			},
			{
				"x": 0.9014146005,
				"y": 3.3086359829,
				"z": 1.8788055292,
				"element": "N" 
			},
			{
				"x": 1.4379030899,
				"y": 2.2653676015,
				"z": 1.2362447661,
				"element": "C" 
			},
			{
				"x": 0.7163847405,
				"y": 1.3441799687,
				"z": 0.4748550752,
				"element": "C" 
			},
			{
				"x": -0.9022303632,
				"y": -1.6229707884,
				"z": -0.3018387439,
				"element": "C" 
			},
			{
				"x": -0.4822059365,
				"y": -2.7730896936,
				"z": -0.9596709857,
				"element": "C" 
			},
			{
				"x": 0.0560616845,
				"y": -4.7505002187,
				"z": -2.5680936042,
				"element": "H" 
			},
			{
				"x": 0.2132168063,
				"y": -3.8695208326,
				"z": -3.9870885234,
				"element": "H" 
			},
			{
				"x": -0.0239022468,
				"y": -1.4467100415,
				"z": -4.0658176929,
				"element": "H" 
			},
			{
				"x": -2.3227246632,
				"y": 2.7697547013,
				"z": 0.9681247727,
				"element": "H" 
			},
			{
				"x": -0.8597111301,
				"y": 4.3099993109,
				"z": 2.2870396393,
				"element": "H" 
			},
			{
				"x": 2.5165894198,
				"y": 2.1484295745,
				"z": 1.3292402266,
				"element": "H" 
			},
			{
				"x": 1.2165188525,
				"y": 0.5208213653,
				"z": -0.0206863907,
				"element": "H" 
			},
			{
				"x": -1.1663115415,
				"y": -1.6538053757,
				"z": 0.7504129504,
				"element": "H" 
			},
			{
				"x": -0.4046633109,
				"y": -3.7093887145,
				"z": -0.414268348,
				"element": "H" 
			}
		],
		 "valence_orbital": [ 
			{
				"type": "occ",
				"energy": -0.25837,
				"method": "rhf"
			},
			{
				"type": "occ",
				"energy": -0.25627,
				"method": "rhf"
			},
			{
				"type": "occ",
				"energy": -0.24822,
				"method": "rhf"
			},
			{
				"type": "occ",
				"energy": -0.24758,
				"method": "rhf"
			},
			{
				"type": "occ",
				"energy": -0.21765,
				"method": "rhf"
			},
			{
				"type": "unocc",
				"energy": -0.02263,
				"method": "rhf"
			},
			{
				"type": "unocc",
				"energy": -0.0047,
				"method": "rhf"
			},
			{
				"type": "unocc",
				"energy": -0.00362,
				"method": "rhf"
			},
			{
				"type": "unocc",
				"energy": -0.00145,
				"method": "rhf"
			},
			{
				"type": "unocc",
				"energy": 0.02515,
				"method": "rhf"
			}
		],
		"cosmo_sigma_profile": { 
			"-0.025": 0.0,
			"-0.024": 0.0,
			"-0.023": 0.0,
			"-0.022": 0.0,
			"-0.021": 0.0,
			"-0.02": 0.0,
			"-0.019": 0.0,
			"-0.018": 0.0,
			"-0.017": 0.0,
			"-0.016": 0.0,
			"-0.015": 0.0,
			"-0.014": 0.0356605258977,
			"-0.013": 1.95712375843,
			"-0.012": 2.58962871524,
			"-0.011": 3.50390403312,
			"-0.01": 3.50849525165,
			"-0.009": 2.86398663677,
			"-0.008": 4.43924450172,
			"-0.007": 9.2636580599,
			"-0.006": 14.3216773531,
			"-0.005": 13.2774060207,
			"-0.004": 10.915892776,
			"-0.003": 12.1693639177,
			"-0.002": 13.7015587168,
			"-0.001": 11.346184445,
			"0.0": 16.0534385001,
			"0.001": 18.9085039509,
			"0.002": 27.837682507,
			"0.003": 28.7458806632,
			"0.004": 20.3259542387,
			"0.005": 9.62457670957,
			"0.006": 4.08413228605,
			"0.007": 4.16547790698,
			"0.008": 3.47427854904,
			"0.009": 2.78204585818,
			"0.01": 1.42085442882,
			"0.011": 1.44145812694,
			"0.012": 1.224337092,
			"0.013": 1.85813277989,
			"0.014": 1.14766027876,
			"0.015": 1.06567406731,
			"0.016": 0.69575151357,
			"0.017": 0.672257226434,
			"0.018": 0.0652595205789,
			"0.019": 0.0,
			"0.02": 0.0,
			"0.021": 0.0,
			"0.022": 0.0,
			"0.023": 0.0,
			"0.024": 0.0,
			"0.025": 0.0
		}
	}
}
