{
	 "smiles": "CCOC(=O)CNC1=CC(Cl)=CC(Cl)=C1", 
	 "Tm": 373.15, 
	 "num_atms": 26, 
	 "gaussian": { 
		 "optdone": 1, 
		 "sigma_profile": "yes", 
		 "theory": "DFT", 
		 "functional": "B3LYP", 
		 "basiset": "6-31G**", 
		 "properties": { 
			 "R2extent": 6340.3636, 
			 "electric_dipole_moment_norm": 4.49121843045, 
			 "electric_quadrupole_moment_norm": 7.52305411585, 
			 "total_energy": -1513.2919382, 
			 "HOMO_LUMO_gap": 0.19876, 
			 "cosmo_polarized_energy": -11.95, 
			 "cosmo_cavitation_energy": 34.32, 
			 "cosmo_dispersion_energy": -24.41, 
			 "cosmo_repulsion_energy": 1.98, 
			 "cosmo_total_nonelectrostatic_energy": 11.89, 
			 "SMD_solvation_energy": 5.3 
		},
		"coords": [
			{
				"x": -0.0774710102,
				"y": 2.4922167644,
				"z": -4.6540763353,
				"element": "C" 
			},
			{
				"x": 0.9820291073,
				"y": 2.0361773951,
				"z": -3.6633819829,
				"element": "C" 
			},
			{
				"x": 0.4542215125,
				"y": 1.9929534108,
				"z": -2.3105782423,
				"element": "O" 
			},
			{
				"x": -0.1874865101,
				"y": 0.8666161451,
				"z": -1.9479977812,
				"element": "C" 
			},
			{
				"x": -0.3384560475,
				"y": -0.1094816294,
				"z": -2.6483157677,
				"element": "O" 
			},
			{
				"x": -0.7501405562,
				"y": 1.0009308857,
				"z": -0.5282273235,
				"element": "C" 
			},
			{
				"x": -1.0514415828,
				"y": -0.2600990295,
				"z": 0.1043669125,
				"element": "N" 
			},
			{
				"x": -0.0436294007,
				"y": -1.124954491,
				"z": 0.5298925118,
				"element": "C" 
			},
			{
				"x": -0.390278318,
				"y": -2.4498804831,
				"z": 0.8601907936,
				"element": "C" 
			},
			{
				"x": 0.5812378615,
				"y": -3.3146312478,
				"z": 1.3422572134,
				"element": "C" 
			},
			{
				"x": 0.1244772373,
				"y": -4.9636037487,
				"z": 1.7454232715,
				"element": "Cl" 
			},
			{
				"x": 1.9098155352,
				"y": -2.9250126427,
				"z": 1.5227184483,
				"element": "C" 
			},
			{
				"x": 2.2278769907,
				"y": -1.6124576966,
				"z": 1.1873838673,
				"element": "C" 
			},
			{
				"x": 3.889652486,
				"y": -1.07077683,
				"z": 1.3844740177,
				"element": "Cl" 
			},
			{
				"x": 1.289417325,
				"y": -0.709507864,
				"z": 0.6928299562,
				"element": "C" 
			},
			{
				"x": -0.8899867131,
				"y": 1.763653961,
				"z": -4.712673774,
				"element": "H" 
			},
			{
				"x": -0.4899110592,
				"y": 3.4636703435,
				"z": -4.3660986479,
				"element": "H" 
			},
			{
				"x": 0.365788009,
				"y": 2.5896444773,
				"z": -5.650543317,
				"element": "H" 
			},
			{
				"x": 1.8116430642,
				"y": 2.7441473028,
				"z": -3.6057033394,
				"element": "H" 
			},
			{
				"x": 1.3651831459,
				"y": 1.0457125872,
				"z": -3.9189193922,
				"element": "H" 
			},
			{
				"x": -1.6752193527,
				"y": 1.5851274851,
				"z": -0.600486566,
				"element": "H" 
			},
			{
				"x": -0.0700230055,
				"y": 1.5952790674,
				"z": 0.0864273357,
				"element": "H" 
			},
			{
				"x": -1.8295200182,
				"y": -0.7427632436,
				"z": -0.3248072127,
				"element": "H" 
			},
			{
				"x": -1.4131477019,
				"y": -2.7916355909,
				"z": 0.744701469,
				"element": "H" 
			},
			{
				"x": 2.6553270583,
				"y": -3.6114927419,
				"z": 1.9007644936,
				"element": "H" 
			},
			{
				"x": 1.6075419431,
				"y": 0.2921674136,
				"z": 0.4359793915,
				"element": "H" 
			}
		],
		 "valence_orbital": [ 
			{
				"type": "occ",
				"energy": -0.30991,
				"method": "rhf"
			},
			{
				"type": "occ",
				"energy": -0.29343,
				"method": "rhf"
			},
			{
				"type": "occ",
				"energy": -0.28251,
				"method": "rhf"
			},
			{
				"type": "occ",
				"energy": -0.24629,
				"method": "rhf"
			},
			{
				"type": "occ",
				"energy": -0.21841,
				"method": "rhf"
			},
			{
				"type": "unocc",
				"energy": -0.01965,
				"method": "rhf"
			},
			{
				"type": "unocc",
				"energy": -0.00407,
				"method": "rhf"
			},
			{
				"type": "unocc",
				"energy": 0.00138,
				"method": "rhf"
			},
			{
				"type": "unocc",
				"energy": 0.01103,
				"method": "rhf"
			},
			{
				"type": "unocc",
				"energy": 0.05228,
				"method": "rhf"
			}
		],
		"cosmo_sigma_profile": { 
			"-0.025": 0.0,
			"-0.024": 0.0,
			"-0.023": 0.0,
			"-0.022": 0.0,
			"-0.021": 0.0,
			"-0.02": 0.0,
			"-0.019": 0.0,
			"-0.018": 0.0,
			"-0.017": 0.0,
			"-0.016": 0.0,
			"-0.015": 0.0,
			"-0.014": 0.450731548799,
			"-0.013": 1.48452158723,
			"-0.012": 1.49371737926,
			"-0.011": 1.32196706683,
			"-0.01": 1.33223614983,
			"-0.009": 3.78411330165,
			"-0.008": 7.24880765028,
			"-0.007": 8.44283658308,
			"-0.006": 7.60048081804,
			"-0.005": 12.5365630907,
			"-0.004": 18.1242354691,
			"-0.003": 19.0318969725,
			"-0.002": 19.972491278,
			"-0.001": 18.1656221204,
			"0.0": 20.652353839,
			"0.001": 21.0934514972,
			"0.002": 24.6650920694,
			"0.003": 31.1948230587,
			"0.004": 23.960737171,
			"0.005": 13.7675242314,
			"0.006": 3.76518082559,
			"0.007": 2.70116037509,
			"0.008": 3.24465059905,
			"0.009": 2.49164776249,
			"0.01": 2.37620596233,
			"0.011": 3.13762128481,
			"0.012": 3.03337524013,
			"0.013": 0.0241633281992,
			"0.014": 0.0,
			"0.015": 0.0,
			"0.016": 0.0,
			"0.017": 0.0,
			"0.018": 0.0,
			"0.019": 0.0,
			"0.02": 0.0,
			"0.021": 0.0,
			"0.022": 0.0,
			"0.023": 0.0,
			"0.024": 0.0,
			"0.025": 0.0
		}
	}
}
