{
	 "smiles": "CCCOC1=CC2=C(CC(CO2)C(O)=O)C=C1", 
	 "Tm": 413.15, 
	 "num_atms": 33, 
	 "gaussian": { 
		 "optdone": 1, 
		 "sigma_profile": "yes", 
		 "theory": "DFT", 
		 "functional": "B3LYP", 
		 "basiset": "6-31G**", 
		 "properties": { 
			 "R2extent": 6473.2879, 
			 "electric_dipole_moment_norm": 3.02214798281, 
			 "electric_quadrupole_moment_norm": 12.6253960968, 
			 "total_energy": -805.933704285, 
			 "HOMO_LUMO_gap": 0.20375, 
			 "cosmo_polarized_energy": -14.42, 
			 "cosmo_cavitation_energy": 35.65, 
			 "cosmo_dispersion_energy": -25.83, 
			 "cosmo_repulsion_energy": 2.04, 
			 "cosmo_total_nonelectrostatic_energy": 11.86, 
			 "SMD_solvation_energy": 7.18 
		},
		"coords": [
			{
				"x": 3.6009080092,
				"y": -2.7951583408,
				"z": -0.3047528398,
				"element": "C" 
			},
			{
				"x": 2.5650923025,
				"y": -2.8962226113,
				"z": -1.4283493681,
				"element": "C" 
			},
			{
				"x": 1.2018524576,
				"y": -2.3310222805,
				"z": -1.0490778364,
				"element": "C" 
			},
			{
				"x": 1.3606209155,
				"y": -0.9372526072,
				"z": -0.7917263917,
				"element": "O" 
			},
			{
				"x": 0.2708687786,
				"y": -0.2086539853,
				"z": -0.4108422626,
				"element": "C" 
			},
			{
				"x": 0.5057273376,
				"y": 1.1478425251,
				"z": -0.1700531498,
				"element": "C" 
			},
			{
				"x": -0.5422389857,
				"y": 1.9800333873,
				"z": 0.220028785,
				"element": "C" 
			},
			{
				"x": -1.8478489537,
				"y": 1.4811952052,
				"z": 0.3861486204,
				"element": "C" 
			},
			{
				"x": -2.9737397362,
				"y": 2.3953837267,
				"z": 0.8216789476,
				"element": "C" 
			},
			{
				"x": -2.4232798066,
				"y": 3.6841040671,
				"z": 1.4539807585,
				"element": "C" 
			},
			{
				"x": -1.2836540817,
				"y": 4.2223326301,
				"z": 0.5839274982,
				"element": "C" 
			},
			{
				"x": -0.2113967947,
				"y": 3.2885736317,
				"z": 0.4629969055,
				"element": "O" 
			},
			{
				"x": -1.9552648182,
				"y": 3.5634676088,
				"z": 2.9026247218,
				"element": "C" 
			},
			{
				"x": -2.5293855883,
				"y": 2.5339679164,
				"z": 3.5659944528,
				"element": "O" 
			},
			{
				"x": -1.1897521957,
				"y": 4.3342184001,
				"z": 3.4383480226,
				"element": "O" 
			},
			{
				"x": -2.0510037356,
				"y": 0.1221934434,
				"z": 0.1398689403,
				"element": "C" 
			},
			{
				"x": -1.0219179007,
				"y": -0.7313395991,
				"z": -0.2586473798,
				"element": "C" 
			},
			{
				"x": 4.5661397829,
				"y": -3.2018463454,
				"z": -0.6220840713,
				"element": "H" 
			},
			{
				"x": 3.277880023,
				"y": -3.3535109593,
				"z": 0.5815357807,
				"element": "H" 
			},
			{
				"x": 3.7499100389,
				"y": -1.7536234888,
				"z": -0.008360905,
				"element": "H" 
			},
			{
				"x": 2.9233210803,
				"y": -2.3683871399,
				"z": -2.3202225663,
				"element": "H" 
			},
			{
				"x": 2.4208597771,
				"y": -3.9445904563,
				"z": -1.7189855794,
				"element": "H" 
			},
			{
				"x": 0.8103975052,
				"y": -2.8355065524,
				"z": -0.1528752224,
				"element": "H" 
			},
			{
				"x": 0.4795433974,
				"y": -2.4814582461,
				"z": -1.8641666624,
				"element": "H" 
			},
			{
				"x": 1.5035912074,
				"y": 1.5549344021,
				"z": -0.2852746762,
				"element": "H" 
			},
			{
				"x": -3.5875163046,
				"y": 2.6800794986,
				"z": -0.0439022258,
				"element": "H" 
			},
			{
				"x": -3.6375054509,
				"y": 1.8779700884,
				"z": 1.5189024338,
				"element": "H" 
			},
			{
				"x": -3.2143264801,
				"y": 4.4465890548,
				"z": 1.4763987662,
				"element": "H" 
			},
			{
				"x": -0.8428781999,
				"y": 5.1150995499,
				"z": 1.0282779792,
				"element": "H" 
			},
			{
				"x": -1.6740386206,
				"y": 4.4669278201,
				"z": -0.4138882588,
				"element": "H" 
			},
			{
				"x": -2.1808390518,
				"y": 2.5739734164,
				"z": 4.4727637792,
				"element": "H" 
			},
			{
				"x": -3.050542996,
				"y": -0.2869095123,
				"z": 0.2699374981,
				"element": "H" 
			},
			{
				"x": -1.231582912,
				"y": -1.7785042474,
				"z": -0.4365044941,
				"element": "H" 
			}
		],
		 "valence_orbital": [ 
			{
				"type": "occ",
				"energy": -0.30707,
				"method": "rhf"
			},
			{
				"type": "occ",
				"energy": -0.29243,
				"method": "rhf"
			},
			{
				"type": "occ",
				"energy": -0.27559,
				"method": "rhf"
			},
			{
				"type": "occ",
				"energy": -0.22005,
				"method": "rhf"
			},
			{
				"type": "occ",
				"energy": -0.20609,
				"method": "rhf"
			},
			{
				"type": "unocc",
				"energy": -0.00234,
				"method": "rhf"
			},
			{
				"type": "unocc",
				"energy": 0.01262,
				"method": "rhf"
			},
			{
				"type": "unocc",
				"energy": 0.02435,
				"method": "rhf"
			},
			{
				"type": "unocc",
				"energy": 0.07421,
				"method": "rhf"
			},
			{
				"type": "unocc",
				"energy": 0.09542,
				"method": "rhf"
			}
		],
		"cosmo_sigma_profile": { 
			"-0.025": 0.0,
			"-0.024": 0.0,
			"-0.023": 0.0,
			"-0.022": 0.0,
			"-0.021": 0.0,
			"-0.02": 0.0,
			"-0.019": 0.0125139092284,
			"-0.018": 0.876983688693,
			"-0.017": 0.963030685641,
			"-0.016": 0.969135205726,
			"-0.015": 0.320513717864,
			"-0.014": 0.543761695031,
			"-0.013": 0.836777354416,
			"-0.012": 1.16175044664,
			"-0.011": 0.780430422089,
			"-0.01": 0.387677994109,
			"-0.009": 0.663558551985,
			"-0.008": 2.14755618282,
			"-0.007": 4.85008768812,
			"-0.006": 10.44375797,
			"-0.005": 18.8670603645,
			"-0.004": 23.9401084857,
			"-0.003": 28.0233104033,
			"-0.002": 25.4738850198,
			"-0.001": 22.6129427117,
			"0.0": 21.0743021009,
			"0.001": 18.2130780625,
			"0.002": 11.7158544271,
			"0.003": 11.3834399286,
			"0.004": 13.9971915198,
			"0.005": 17.6211421593,
			"0.006": 13.0659638529,
			"0.007": 7.53526873139,
			"0.008": 4.18172969583,
			"0.009": 4.45083838782,
			"0.01": 4.44585693729,
			"0.011": 4.65326683778,
			"0.012": 3.63583644614,
			"0.013": 0.066304936303,
			"0.014": 0.0,
			"0.015": 0.0,
			"0.016": 0.0,
			"0.017": 0.0,
			"0.018": 0.0,
			"0.019": 0.0,
			"0.02": 0.0,
			"0.021": 0.0,
			"0.022": 0.0,
			"0.023": 0.0,
			"0.024": 0.0,
			"0.025": 0.0
		}
	}
}
