{
	 "smiles": "OC(=O)C1CCC(CC1)N1C=CC=C1", 
	 "Tm": 417.15, 
	 "num_atms": 29, 
	 "gaussian": { 
		 "optdone": 1, 
		 "sigma_profile": "yes", 
		 "theory": "DFT", 
		 "functional": "B3LYP", 
		 "basiset": "6-31G**", 
		 "properties": { 
			 "R2extent": 3673.8784, 
			 "electric_dipole_moment_norm": 2.98280182882, 
			 "electric_quadrupole_moment_norm": 21.2499802466, 
			 "total_energy": -633.407765465, 
			 "HOMO_LUMO_gap": 0.20442, 
			 "cosmo_polarized_energy": -17.25, 
			 "cosmo_cavitation_energy": 30.49, 
			 "cosmo_dispersion_energy": -21.85, 
			 "cosmo_repulsion_energy": 1.7, 
			 "cosmo_total_nonelectrostatic_energy": 10.34, 
			 "SMD_solvation_energy": 6.19 
		},
		"coords": [
			{
				"x": -0.8167645574,
				"y": -1.5130559257,
				"z": -4.5177591375,
				"element": "O" 
			},
			{
				"x": -0.4580894145,
				"y": -1.8556048638,
				"z": -3.2501426344,
				"element": "C" 
			},
			{
				"x": 0.2868150461,
				"y": -2.7887589467,
				"z": -3.0737023217,
				"element": "O" 
			},
			{
				"x": -1.0042918392,
				"y": -0.9490356196,
				"z": -2.1435551706,
				"element": "C" 
			},
			{
				"x": -0.135743082,
				"y": 0.3458417458,
				"z": -2.0747732327,
				"element": "C" 
			},
			{
				"x": 1.0905190062,
				"y": 0.1357952336,
				"z": -1.1793950375,
				"element": "C" 
			},
			{
				"x": 0.7007375718,
				"y": -0.1834298487,
				"z": 0.2951956224,
				"element": "C" 
			},
			{
				"x": -0.7354192418,
				"y": -0.7426891707,
				"z": 0.389760074,
				"element": "C" 
			},
			{
				"x": -1.0272074676,
				"y": -1.6866318297,
				"z": -0.7827592971,
				"element": "C" 
			},
			{
				"x": 0.8936978016,
				"y": 0.9580411514,
				"z": 1.1923348549,
				"element": "N" 
			},
			{
				"x": 0.1838707905,
				"y": 2.1413312043,
				"z": 1.18664045,
				"element": "C" 
			},
			{
				"x": 0.7301717461,
				"y": 2.9824086123,
				"z": 2.1336599114,
				"element": "C" 
			},
			{
				"x": 1.8161009536,
				"y": 2.2902826989,
				"z": 2.7381756679,
				"element": "C" 
			},
			{
				"x": 1.8939006812,
				"y": 1.0529231932,
				"z": 2.135368283,
				"element": "C" 
			},
			{
				"x": -1.4309684255,
				"y": -0.7655015383,
				"z": -4.4998746532,
				"element": "H" 
			},
			{
				"x": -2.0268259833,
				"y": -0.6571248761,
				"z": -2.4207947454,
				"element": "H" 
			},
			{
				"x": -0.7495489087,
				"y": 1.1649722755,
				"z": -1.6840467751,
				"element": "H" 
			},
			{
				"x": 0.1749263017,
				"y": 0.6509102431,
				"z": -3.0804911806,
				"element": "H" 
			},
			{
				"x": 1.6763377649,
				"y": -0.6982853934,
				"z": -1.5815828088,
				"element": "H" 
			},
			{
				"x": 1.7369633122,
				"y": 1.0176391156,
				"z": -1.1973810015,
				"element": "H" 
			},
			{
				"x": 1.3866295485,
				"y": -0.952500214,
				"z": 0.6632793276,
				"element": "H" 
			},
			{
				"x": -0.8608390861,
				"y": -1.2612646518,
				"z": 1.3454538133,
				"element": "H" 
			},
			{
				"x": -1.4551068243,
				"y": 0.0842017708,
				"z": 0.3952258151,
				"element": "H" 
			},
			{
				"x": -1.9948365357,
				"y": -2.1792243352,
				"z": -0.6439804982,
				"element": "H" 
			},
			{
				"x": -0.2752215283,
				"y": -2.4820264883,
				"z": -0.8154187352,
				"element": "H" 
			},
			{
				"x": -0.6512125637,
				"y": 2.2913287299,
				"z": 0.5190560144,
				"element": "H" 
			},
			{
				"x": 0.3816557584,
				"y": 3.9787442875,
				"z": 2.3684352774,
				"element": "H" 
			},
			{
				"x": 2.4614909012,
				"y": 2.6519967724,
				"z": 3.5264220825,
				"element": "H" 
			},
			{
				"x": 2.5734582742,
				"y": 0.2283166675,
				"z": 2.2965500355,
				"element": "H" 
			}
		],
		 "valence_orbital": [ 
			{
				"type": "occ",
				"energy": -0.32063,
				"method": "rhf"
			},
			{
				"type": "occ",
				"energy": -0.31808,
				"method": "rhf"
			},
			{
				"type": "occ",
				"energy": -0.27416,
				"method": "rhf"
			},
			{
				"type": "occ",
				"energy": -0.22572,
				"method": "rhf"
			},
			{
				"type": "occ",
				"energy": -0.20274,
				"method": "rhf"
			},
			{
				"type": "unocc",
				"energy": 0.00168,
				"method": "rhf"
			},
			{
				"type": "unocc",
				"energy": 0.04307,
				"method": "rhf"
			},
			{
				"type": "unocc",
				"energy": 0.04615,
				"method": "rhf"
			},
			{
				"type": "unocc",
				"energy": 0.07356,
				"method": "rhf"
			},
			{
				"type": "unocc",
				"energy": 0.07973,
				"method": "rhf"
			}
		],
		"cosmo_sigma_profile": { 
			"-0.025": 0.0,
			"-0.024": 0.0,
			"-0.023": 0.0,
			"-0.022": 0.0,
			"-0.021": 0.0,
			"-0.02": 0.0,
			"-0.019": 0.265926226839,
			"-0.018": 0.950767505787,
			"-0.017": 1.1093760086,
			"-0.016": 1.00543352639,
			"-0.015": 0.927047691541,
			"-0.014": 0.850903238494,
			"-0.013": 0.762038264819,
			"-0.012": 1.21732681872,
			"-0.011": 1.77992353672,
			"-0.01": 1.15259425914,
			"-0.009": 0.930765256312,
			"-0.008": 2.36323014569,
			"-0.007": 4.43490671498,
			"-0.006": 9.34065971054,
			"-0.005": 13.3245352399,
			"-0.004": 22.3064834172,
			"-0.003": 24.1886882178,
			"-0.002": 22.3104814906,
			"-0.001": 23.4800479211,
			"0.0": 17.0274318197,
			"0.001": 10.0167372834,
			"0.002": 9.4521580558,
			"0.003": 6.59739759381,
			"0.004": 7.21907499768,
			"0.005": 7.09970477206,
			"0.006": 6.69180682503,
			"0.007": 7.88866767134,
			"0.008": 7.35822206267,
			"0.009": 8.35236100076,
			"0.01": 5.73163644643,
			"0.011": 5.46308808149,
			"0.012": 5.20765294928,
			"0.013": 1.82804418344,
			"0.014": 0.112188747907,
			"0.015": 0.0,
			"0.016": 0.0,
			"0.017": 0.0,
			"0.018": 0.0,
			"0.019": 0.0,
			"0.02": 0.0,
			"0.021": 0.0,
			"0.022": 0.0,
			"0.023": 0.0,
			"0.024": 0.0,
			"0.025": 0.0
		}
	}
}
