{
	 "smiles": "COC(=O)C1=CC(OC)=CC(OC)=C1", 
	 "Tm": 315.65, 
	 "num_atms": 26, 
	 "gaussian": { 
		 "optdone": 1, 
		 "sigma_profile": "yes", 
		 "theory": "DFT", 
		 "functional": "B3LYP", 
		 "basiset": "6-31G**", 
		 "properties": { 
			 "R2extent": 3661.9175, 
			 "electric_dipole_moment_norm": 3.11501338199, 
			 "electric_quadrupole_moment_norm": 13.5014561252, 
			 "total_energy": -689.17844648, 
			 "HOMO_LUMO_gap": 0.1772, 
			 "cosmo_polarized_energy": -10.94, 
			 "cosmo_cavitation_energy": 30.33, 
			 "cosmo_dispersion_energy": -22.12, 
			 "cosmo_repulsion_energy": 1.75, 
			 "cosmo_total_nonelectrostatic_energy": 9.96, 
			 "SMD_solvation_energy": 8.39 
		},
		"coords": [
			{
				"x": -1.8685544258,
				"y": -0.632839094,
				"z": 3.4723459677,
				"element": "C" 
			},
			{
				"x": -1.3291343507,
				"y": -0.7183519177,
				"z": 2.1456562608,
				"element": "O" 
			},
			{
				"x": -0.1743178571,
				"y": -0.0362336919,
				"z": 1.9507027309,
				"element": "C" 
			},
			{
				"x": 0.3686584109,
				"y": 0.6023516459,
				"z": 2.8307277621,
				"element": "O" 
			},
			{
				"x": 0.3353996464,
				"y": -0.1638761833,
				"z": 0.5538048414,
				"element": "C" 
			},
			{
				"x": 1.5183260565,
				"y": 0.4997311258,
				"z": 0.2455896091,
				"element": "C" 
			},
			{
				"x": 2.0391591591,
				"y": 0.4111107041,
				"z": -1.0542839548,
				"element": "C" 
			},
			{
				"x": 3.2006222769,
				"y": 1.0906116802,
				"z": -1.2717363655,
				"element": "O" 
			},
			{
				"x": 3.7772854957,
				"y": 1.0398715093,
				"z": -2.5670969287,
				"element": "C" 
			},
			{
				"x": 1.3741577161,
				"y": -0.3363707118,
				"z": -2.0256332176,
				"element": "C" 
			},
			{
				"x": 0.1795498591,
				"y": -1.001237231,
				"z": -1.698210671,
				"element": "C" 
			},
			{
				"x": -0.3840286756,
				"y": -1.7014041363,
				"z": -2.7256230708,
				"element": "O" 
			},
			{
				"x": -1.5936379349,
				"y": -2.4001231436,
				"z": -2.4744940027,
				"element": "C" 
			},
			{
				"x": -0.3508271858,
				"y": -0.9230744603,
				"z": -0.4114801072,
				"element": "C" 
			},
			{
				"x": -2.7821650546,
				"y": -1.227479367,
				"z": 3.4583233116,
				"element": "H" 
			},
			{
				"x": -2.0902054795,
				"y": 0.4053151686,
				"z": 3.7327931242,
				"element": "H" 
			},
			{
				"x": -1.1612108632,
				"y": -1.0330890812,
				"z": 4.2032302965,
				"element": "H" 
			},
			{
				"x": 2.0335229222,
				"y": 1.0798314216,
				"z": 1.0011708674,
				"element": "H" 
			},
			{
				"x": 3.1055974891,
				"y": 1.4611043976,
				"z": -3.3262109178,
				"element": "H" 
			},
			{
				"x": 4.0413587124,
				"y": 0.0135144848,
				"z": -2.852956853,
				"element": "H" 
			},
			{
				"x": 4.6848503105,
				"y": 1.6431730487,
				"z": -2.5161957284,
				"element": "H" 
			},
			{
				"x": 1.742033008,
				"y": -0.430205617,
				"z": -3.039393073,
				"element": "H" 
			},
			{
				"x": -1.4648924538,
				"y": -3.1663224084,
				"z": -1.6994185885,
				"element": "H" 
			},
			{
				"x": -2.3993651697,
				"y": -1.7187053644,
				"z": -2.1730761972,
				"element": "H" 
			},
			{
				"x": -1.8634432619,
				"y": -2.8821718058,
				"z": -3.4154166958,
				"element": "H" 
			},
			{
				"x": -1.2671383504,
				"y": -1.4257309733,
				"z": -0.1380183996,
				"element": "H" 
			}
		],
		 "valence_orbital": [ 
			{
				"type": "occ",
				"energy": -0.30013,
				"method": "rhf"
			},
			{
				"type": "occ",
				"energy": -0.29688,
				"method": "rhf"
			},
			{
				"type": "occ",
				"energy": -0.2685,
				"method": "rhf"
			},
			{
				"type": "occ",
				"energy": -0.23585,
				"method": "rhf"
			},
			{
				"type": "occ",
				"energy": -0.21533,
				"method": "rhf"
			},
			{
				"type": "unocc",
				"energy": -0.03813,
				"method": "rhf"
			},
			{
				"type": "unocc",
				"energy": 0.01698,
				"method": "rhf"
			},
			{
				"type": "unocc",
				"energy": 0.06972,
				"method": "rhf"
			},
			{
				"type": "unocc",
				"energy": 0.09485,
				"method": "rhf"
			},
			{
				"type": "unocc",
				"energy": 0.10345,
				"method": "rhf"
			}
		],
		"cosmo_sigma_profile": { 
			"-0.025": 0.0,
			"-0.024": 0.0,
			"-0.023": 0.0,
			"-0.022": 0.0,
			"-0.021": 0.0,
			"-0.02": 0.0,
			"-0.019": 0.0,
			"-0.018": 0.0,
			"-0.017": 0.0,
			"-0.016": 0.0,
			"-0.015": 0.0,
			"-0.014": 0.0,
			"-0.013": 0.0,
			"-0.012": 0.0,
			"-0.011": 0.0,
			"-0.01": 0.0,
			"-0.009": 0.0,
			"-0.008": 0.00771230849883,
			"-0.007": 2.00020950933,
			"-0.006": 16.8444851236,
			"-0.005": 25.8695208182,
			"-0.004": 26.7704321161,
			"-0.003": 27.8077078504,
			"-0.002": 15.3159660852,
			"-0.001": 11.8438531305,
			"0.0": 11.3646545046,
			"0.001": 11.0335774186,
			"0.002": 16.3893278167,
			"0.003": 23.6272015203,
			"0.004": 13.9767162266,
			"0.005": 6.95499647016,
			"0.006": 6.44312510941,
			"0.007": 3.73388750658,
			"0.008": 3.76516457336,
			"0.009": 5.39494967618,
			"0.01": 4.04079126451,
			"0.011": 3.15134760749,
			"0.012": 4.24390476731,
			"0.013": 0.112751308308,
			"0.014": 0.0,
			"0.015": 0.0,
			"0.016": 0.0,
			"0.017": 0.0,
			"0.018": 0.0,
			"0.019": 0.0,
			"0.02": 0.0,
			"0.021": 0.0,
			"0.022": 0.0,
			"0.023": 0.0,
			"0.024": 0.0,
			"0.025": 0.0
		}
	}
}
