{
	 "smiles": "CCOC(=O)C(=CNC1=C(OC)C=CC(OC)=C1)C#N", 
	 "Tm": 405.15, 
	 "num_atms": 36, 
	 "gaussian": { 
		 "optdone": 1, 
		 "sigma_profile": "yes", 
		 "theory": "DFT", 
		 "functional": "B3LYP", 
		 "basiset": "6-31G**", 
		 "properties": { 
			 "R2extent": 7878.6113, 
			 "electric_dipole_moment_norm": 10.3224676105, 
			 "electric_quadrupole_moment_norm": 47.61962415, 
			 "total_energy": -953.496542845, 
			 "HOMO_LUMO_gap": 0.15724, 
			 "cosmo_polarized_energy": -22.04, 
			 "cosmo_cavitation_energy": 41.79, 
			 "cosmo_dispersion_energy": -28.38, 
			 "cosmo_repulsion_energy": 2.2, 
			 "cosmo_total_nonelectrostatic_energy": 15.6, 
			 "SMD_solvation_energy": 11.15 
		},
		"coords": [
			{
				"x": 1.4599582894,
				"y": -0.1938757057,
				"z": 4.0293205761,
				"element": "C" 
			},
			{
				"x": 1.2911062486,
				"y": 1.313321814,
				"z": 3.9969380174,
				"element": "C" 
			},
			{
				"x": 0.6427633883,
				"y": 1.6578075944,
				"z": 2.7488042468,
				"element": "O" 
			},
			{
				"x": 0.4060262875,
				"y": 2.9987613814,
				"z": 2.5603801661,
				"element": "C" 
			},
			{
				"x": 0.7173628967,
				"y": 3.8308204727,
				"z": 3.3862324098,
				"element": "O" 
			},
			{
				"x": -0.2505773366,
				"y": 3.280569906,
				"z": 1.2738052775,
				"element": "C" 
			},
			{
				"x": -0.6157206302,
				"y": 2.370657297,
				"z": 0.2998760531,
				"element": "C" 
			},
			{
				"x": -0.4327071847,
				"y": 1.0354854673,
				"z": 0.3453069743,
				"element": "N" 
			},
			{
				"x": -0.7989484048,
				"y": 0.0400541253,
				"z": -0.5814530083,
				"element": "C" 
			},
			{
				"x": -1.1505741567,
				"y": 0.2880431371,
				"z": -1.9333282332,
				"element": "C" 
			},
			{
				"x": -1.141265835,
				"y": 1.5917622001,
				"z": -2.3553337321,
				"element": "O" 
			},
			{
				"x": -1.4181296425,
				"y": 1.8664985739,
				"z": -3.7217162819,
				"element": "C" 
			},
			{
				"x": -1.4714979107,
				"y": -0.7924565825,
				"z": -2.7517193742,
				"element": "C" 
			},
			{
				"x": -1.4452815958,
				"y": -2.1106220325,
				"z": -2.2815225704,
				"element": "C" 
			},
			{
				"x": -1.0894126254,
				"y": -2.3552865954,
				"z": -0.9552524314,
				"element": "C" 
			},
			{
				"x": -1.0218426906,
				"y": -3.5880375838,
				"z": -0.372020897,
				"element": "O" 
			},
			{
				"x": -1.3429759754,
				"y": -4.7180393958,
				"z": -1.1676648579,
				"element": "C" 
			},
			{
				"x": -0.774254054,
				"y": -1.277203621,
				"z": -0.1209790856,
				"element": "C" 
			},
			{
				"x": -0.5410056873,
				"y": 4.6535999338,
				"z": 1.0075499989,
				"element": "C" 
			},
			{
				"x": -0.7945801712,
				"y": 5.7613901443,
				"z": 0.7531474529,
				"element": "N" 
			},
			{
				"x": 0.4912062131,
				"y": -0.7010948959,
				"z": 3.9815480949,
				"element": "H" 
			},
			{
				"x": 2.0785151251,
				"y": -0.5404088992,
				"z": 3.1956652646,
				"element": "H" 
			},
			{
				"x": 1.9508374371,
				"y": -0.4901697702,
				"z": 4.9613848576,
				"element": "H" 
			},
			{
				"x": 2.2507059981,
				"y": 1.8358998768,
				"z": 4.0481098817,
				"element": "H" 
			},
			{
				"x": 0.6737868206,
				"y": 1.6764401379,
				"z": 4.8236119659,
				"element": "H" 
			},
			{
				"x": -1.0916066411,
				"y": 2.7446700981,
				"z": -0.5950299829,
				"element": "H" 
			},
			{
				"x": -0.008823517,
				"y": 0.6991725119,
				"z": 1.2050559741,
				"element": "H" 
			},
			{
				"x": -0.7002434849,
				"y": 1.3662388212,
				"z": -4.3832604601,
				"element": "H" 
			},
			{
				"x": -1.3222560524,
				"y": 2.9470034663,
				"z": -3.8338943043,
				"element": "H" 
			},
			{
				"x": -2.4364533936,
				"y": 1.5629255394,
				"z": -3.9945264985,
				"element": "H" 
			},
			{
				"x": -1.744276061,
				"y": -0.6187803671,
				"z": -3.7853299128,
				"element": "H" 
			},
			{
				"x": -1.7007038231,
				"y": -2.9164011078,
				"z": -2.9580145884,
				"element": "H" 
			},
			{
				"x": -2.3768019786,
				"y": -4.6744999389,
				"z": -1.5341922628,
				"element": "H" 
			},
			{
				"x": -0.6629044834,
				"y": -4.8170987424,
				"z": -2.0237038317,
				"element": "H" 
			},
			{
				"x": -1.2295459179,
				"y": -5.5867825117,
				"z": -0.5176362144,
				"element": "H" 
			},
			{
				"x": -0.5115794508,
				"y": -1.487064749,
				"z": 0.9113413162,
				"element": "H" 
			}
		],
		 "valence_orbital": [ 
			{
				"type": "occ",
				"energy": -0.30282,
				"method": "rhf"
			},
			{
				"type": "occ",
				"energy": -0.27362,
				"method": "rhf"
			},
			{
				"type": "occ",
				"energy": -0.27295,
				"method": "rhf"
			},
			{
				"type": "occ",
				"energy": -0.2281,
				"method": "rhf"
			},
			{
				"type": "occ",
				"energy": -0.20672,
				"method": "rhf"
			},
			{
				"type": "unocc",
				"energy": -0.04948,
				"method": "rhf"
			},
			{
				"type": "unocc",
				"energy": -0.0099,
				"method": "rhf"
			},
			{
				"type": "unocc",
				"energy": 0.01495,
				"method": "rhf"
			},
			{
				"type": "unocc",
				"energy": 0.04321,
				"method": "rhf"
			},
			{
				"type": "unocc",
				"energy": 0.05355,
				"method": "rhf"
			}
		],
		"cosmo_sigma_profile": { 
			"-0.025": 0.0,
			"-0.024": 0.0,
			"-0.023": 0.0,
			"-0.022": 0.0,
			"-0.021": 0.0,
			"-0.02": 0.0,
			"-0.019": 0.0,
			"-0.018": 0.0,
			"-0.017": 0.0,
			"-0.016": 0.0,
			"-0.015": 0.0,
			"-0.014": 0.0,
			"-0.013": 0.0,
			"-0.012": 0.0,
			"-0.011": 0.0851260653311,
			"-0.01": 0.948268532255,
			"-0.009": 1.36040253393,
			"-0.008": 1.46587446686,
			"-0.007": 5.95254263033,
			"-0.006": 19.2181727667,
			"-0.005": 31.6697327881,
			"-0.004": 36.8317518852,
			"-0.003": 35.8884362661,
			"-0.002": 29.7025777677,
			"-0.001": 26.0197797964,
			"0.0": 22.7993221869,
			"0.001": 18.3255007219,
			"0.002": 14.0213201033,
			"0.003": 15.2836604391,
			"0.004": 13.9800406818,
			"0.005": 8.31308365631,
			"0.006": 5.30393853356,
			"0.007": 5.70771374962,
			"0.008": 6.38394128623,
			"0.009": 6.68896271367,
			"0.01": 7.95558358595,
			"0.011": 6.42700265922,
			"0.012": 8.10457676824,
			"0.013": 3.17203431708,
			"0.014": 1.66380510138,
			"0.015": 0.040167811983,
			"0.016": 0.0,
			"0.017": 0.0,
			"0.018": 0.0,
			"0.019": 0.0,
			"0.02": 0.0,
			"0.021": 0.0,
			"0.022": 0.0,
			"0.023": 0.0,
			"0.024": 0.0,
			"0.025": 0.0
		}
	}
}
