{
	 "smiles": "NC1=CC(F)=C(OCC2=NC=CC=C2)C=C1", 
	 "Tm": 341.15, 
	 "num_atms": 27, 
	 "gaussian": { 
		 "optdone": 1, 
		 "sigma_profile": "yes", 
		 "theory": "DFT", 
		 "functional": "B3LYP", 
		 "basiset": "6-31G**", 
		 "properties": { 
			 "R2extent": 3824.7515, 
			 "electric_dipole_moment_norm": 3.32935915305, 
			 "electric_quadrupole_moment_norm": 13.2978417708, 
			 "total_energy": -748.44657718, 
			 "HOMO_LUMO_gap": 0.16686, 
			 "cosmo_polarized_energy": -14.02, 
			 "cosmo_cavitation_energy": 31.44, 
			 "cosmo_dispersion_energy": -22.34, 
			 "cosmo_repulsion_energy": 1.74, 
			 "cosmo_total_nonelectrostatic_energy": 10.84, 
			 "SMD_solvation_energy": 4.42 
		},
		"coords": [
			{
				"x": -2.550182957,
				"y": -0.7846740643,
				"z": 3.7292661993,
				"element": "N" 
			},
			{
				"x": -1.4876449946,
				"y": -0.9754180062,
				"z": 2.8379578076,
				"element": "C" 
			},
			{
				"x": -1.7261517466,
				"y": -1.380932005,
				"z": 1.5164478984,
				"element": "C" 
			},
			{
				"x": -0.6659884426,
				"y": -1.5195810837,
				"z": 0.6320292233,
				"element": "C" 
			},
			{
				"x": -0.9517513654,
				"y": -1.9279223226,
				"z": -0.6347221792,
				"element": "F" 
			},
			{
				"x": 0.6586772468,
				"y": -1.2442046771,
				"z": 0.9876568695,
				"element": "C" 
			},
			{
				"x": 1.752709664,
				"y": -1.4283279737,
				"z": 0.1809039207,
				"element": "O" 
			},
			{
				"x": 1.7213124702,
				"y": -0.9579680449,
				"z": -1.1825093202,
				"element": "C" 
			},
			{
				"x": 1.4706248939,
				"y": 0.529856021,
				"z": -1.294207196,
				"element": "C" 
			},
			{
				"x": 2.5311646233,
				"y": 1.3290161308,
				"z": -1.0869028018,
				"element": "N" 
			},
			{
				"x": 2.3400736482,
				"y": 2.6495396703,
				"z": -1.1597551658,
				"element": "C" 
			},
			{
				"x": 1.1055861816,
				"y": 3.2407929957,
				"z": -1.4401710003,
				"element": "C" 
			},
			{
				"x": 0.0098826793,
				"y": 2.4081297624,
				"z": -1.6561247904,
				"element": "C" 
			},
			{
				"x": 0.1943279459,
				"y": 1.0279200576,
				"z": -1.5817696193,
				"element": "C" 
			},
			{
				"x": 0.879089809,
				"y": -0.8304101141,
				"z": 2.305869318,
				"element": "C" 
			},
			{
				"x": -0.1624563271,
				"y": -0.7053567435,
				"z": 3.2196793428,
				"element": "C" 
			},
			{
				"x": -2.2930920669,
				"y": -0.8482205787,
				"z": 4.7051141836,
				"element": "H" 
			},
			{
				"x": -3.3727660567,
				"y": -1.3383477072,
				"z": 3.5310986319,
				"element": "H" 
			},
			{
				"x": -2.7284726278,
				"y": -1.6012327248,
				"z": 1.1623254964,
				"element": "H" 
			},
			{
				"x": 2.7225540996,
				"y": -1.1790597886,
				"z": -1.5556777251,
				"element": "H" 
			},
			{
				"x": 0.9830842312,
				"y": -1.5200129065,
				"z": -1.7596766125,
				"element": "H" 
			},
			{
				"x": 3.2191320808,
				"y": 3.2697533621,
				"z": -0.9905835961,
				"element": "H" 
			},
			{
				"x": 1.0135307562,
				"y": 4.3213136673,
				"z": -1.4894489794,
				"element": "H" 
			},
			{
				"x": -0.9692075856,
				"y": 2.8232072457,
				"z": -1.8779518601,
				"element": "H" 
			},
			{
				"x": -0.6300935472,
				"y": 0.3400625,
				"z": -1.7381046387,
				"element": "H" 
			},
			{
				"x": 1.9019381112,
				"y": -0.6158917052,
				"z": 2.597639277,
				"element": "H" 
			},
			{
				"x": 0.0492192764,
				"y": -0.3821309666,
				"z": 4.2353173164,
				"element": "H" 
			}
		],
		 "valence_orbital": [ 
			{
				"type": "occ",
				"energy": -0.27303,
				"method": "rhf"
			},
			{
				"type": "occ",
				"energy": -0.25857,
				"method": "rhf"
			},
			{
				"type": "occ",
				"energy": -0.25038,
				"method": "rhf"
			},
			{
				"type": "occ",
				"energy": -0.24361,
				"method": "rhf"
			},
			{
				"type": "occ",
				"energy": -0.19267,
				"method": "rhf"
			},
			{
				"type": "unocc",
				"energy": -0.02581,
				"method": "rhf"
			},
			{
				"type": "unocc",
				"energy": -0.01296,
				"method": "rhf"
			},
			{
				"type": "unocc",
				"energy": 0.00371,
				"method": "rhf"
			},
			{
				"type": "unocc",
				"energy": 0.02304,
				"method": "rhf"
			},
			{
				"type": "unocc",
				"energy": 0.07686,
				"method": "rhf"
			}
		],
		"cosmo_sigma_profile": { 
			"-0.025": 0.0,
			"-0.024": 0.0,
			"-0.023": 0.0,
			"-0.022": 0.0,
			"-0.021": 0.0,
			"-0.02": 0.0,
			"-0.019": 0.0,
			"-0.018": 0.0,
			"-0.017": 0.0,
			"-0.016": 0.0,
			"-0.015": 0.0,
			"-0.014": 0.0,
			"-0.013": 0.661720483921,
			"-0.012": 2.52002756594,
			"-0.011": 2.86848775395,
			"-0.01": 3.2252408561,
			"-0.009": 3.02632680903,
			"-0.008": 3.528035781,
			"-0.007": 8.17071796428,
			"-0.006": 14.3446106954,
			"-0.005": 17.6454434764,
			"-0.004": 18.2298347773,
			"-0.003": 15.8223854494,
			"-0.002": 12.4397859169,
			"-0.001": 13.4782157532,
			"0.0": 13.5095103822,
			"0.001": 14.9190093328,
			"0.002": 23.0747367565,
			"0.003": 22.3380842842,
			"0.004": 18.4164278909,
			"0.005": 13.3435903005,
			"0.006": 5.68505081102,
			"0.007": 3.55361223735,
			"0.008": 4.10596285648,
			"0.009": 3.62449046092,
			"0.01": 3.16549672792,
			"0.011": 3.12691141323,
			"0.012": 2.09923692199,
			"0.013": 1.14941439412,
			"0.014": 1.31210199003,
			"0.015": 1.40880891791,
			"0.016": 0.446249282329,
			"0.017": 0.0265868997479,
			"0.018": 0.0,
			"0.019": 0.0,
			"0.02": 0.0,
			"0.021": 0.0,
			"0.022": 0.0,
			"0.023": 0.0,
			"0.024": 0.0,
			"0.025": 0.0
		}
	}
}
