{
	 "smiles": "CC1=CC(Br)=C(NC(=O)CCl)C=C1", 
	 "Tm": 443.15, 
	 "num_atms": 22, 
	 "gaussian": { 
		 "optdone": 1, 
		 "sigma_profile": "yes", 
		 "theory": "DFT", 
		 "functional": "B3LYP", 
		 "basiset": "6-31G**", 
		 "properties": { 
			 "R2extent": 4759.2277, 
			 "electric_dipole_moment_norm": 6.05296830489, 
			 "electric_quadrupole_moment_norm": 17.8247862456, 
			 "total_energy": -3509.96799157, 
			 "HOMO_LUMO_gap": 0.20236, 
			 "cosmo_polarized_energy": -13.91, 
			 "cosmo_cavitation_energy": 30.13, 
			 "cosmo_dispersion_energy": -22.2, 
			 "cosmo_repulsion_energy": 1.79, 
			 "cosmo_total_nonelectrostatic_energy": 9.72, 
			 "SMD_solvation_energy": 4.48 
		},
		"coords": [
			{
				"x": 3.3845774042,
				"y": -2.5938008912,
				"z": -0.7610745486,
				"element": "C" 
			},
			{
				"x": 2.224428354,
				"y": -1.8225289811,
				"z": -0.179168125,
				"element": "C" 
			},
			{
				"x": 1.7802807341,
				"y": -0.6360959042,
				"z": -0.7739019576,
				"element": "C" 
			},
			{
				"x": 0.6833262854,
				"y": 0.0527203562,
				"z": -0.2648439734,
				"element": "C" 
			},
			{
				"x": 0.1361954268,
				"y": 1.6676180375,
				"z": -1.13172517,
				"element": "Br" 
			},
			{
				"x": -0.0104681652,
				"y": -0.402526077,
				"z": 0.8709423712,
				"element": "C" 
			},
			{
				"x": -1.0947697223,
				"y": 0.3294985099,
				"z": 1.3910144073,
				"element": "N" 
			},
			{
				"x": -2.3455569274,
				"y": -0.0728166569,
				"z": 1.8346965827,
				"element": "C" 
			},
			{
				"x": -3.161685503,
				"y": 0.7531892652,
				"z": 2.1931578824,
				"element": "O" 
			},
			{
				"x": -2.6187872884,
				"y": -1.5810710987,
				"z": 1.8490012667,
				"element": "C" 
			},
			{
				"x": -4.3738066604,
				"y": -1.9373352503,
				"z": 1.7660445929,
				"element": "Cl" 
			},
			{
				"x": 0.4702914382,
				"y": -1.5679469736,
				"z": 1.4877883912,
				"element": "C" 
			},
			{
				"x": 1.5501169391,
				"y": -2.2714566117,
				"z": 0.9627809881,
				"element": "C" 
			},
			{
				"x": 3.0352346471,
				"y": -3.3715854086,
				"z": -1.451286661,
				"element": "H" 
			},
			{
				"x": 3.9642571191,
				"y": -3.0910301304,
				"z": 0.0223778775,
				"element": "H" 
			},
			{
				"x": 4.0602555809,
				"y": -1.9404936102,
				"z": -1.3200963249,
				"element": "H" 
			},
			{
				"x": 2.2864955315,
				"y": -0.2439277355,
				"z": -1.6495584993,
				"element": "H" 
			},
			{
				"x": -1.0555286311,
				"y": 1.3360446043,
				"z": 1.2716491806,
				"element": "H" 
			},
			{
				"x": -2.2513310629,
				"y": -2.0135604399,
				"z": 2.7823847677,
				"element": "H" 
			},
			{
				"x": -2.1337203177,
				"y": -2.0885534607,
				"z": 1.0151469721,
				"element": "H" 
			},
			{
				"x": 0.0087942807,
				"y": -1.9062706573,
				"z": 2.4087204587,
				"element": "H" 
			},
			{
				"x": 1.8886005375,
				"y": -3.1722708858,
				"z": 1.4672495205,
				"element": "H" 
			}
		],
		 "valence_orbital": [ 
			{
				"type": "occ",
				"energy": -0.30036,
				"method": "rhf"
			},
			{
				"type": "occ",
				"energy": -0.29732,
				"method": "rhf"
			},
			{
				"type": "occ",
				"energy": -0.27061,
				"method": "rhf"
			},
			{
				"type": "occ",
				"energy": -0.2637,
				"method": "rhf"
			},
			{
				"type": "occ",
				"energy": -0.23784,
				"method": "rhf"
			},
			{
				"type": "unocc",
				"energy": -0.03548,
				"method": "rhf"
			},
			{
				"type": "unocc",
				"energy": -0.03068,
				"method": "rhf"
			},
			{
				"type": "unocc",
				"energy": -0.00822,
				"method": "rhf"
			},
			{
				"type": "unocc",
				"energy": 0.00625,
				"method": "rhf"
			},
			{
				"type": "unocc",
				"energy": 0.03433,
				"method": "rhf"
			}
		],
		"cosmo_sigma_profile": { 
			"-0.025": 0.0,
			"-0.024": 0.0,
			"-0.023": 0.0,
			"-0.022": 0.0,
			"-0.021": 0.0,
			"-0.02": 0.0,
			"-0.019": 0.0,
			"-0.018": 0.0,
			"-0.017": 0.0,
			"-0.016": 0.0,
			"-0.015": 0.0,
			"-0.014": 0.0,
			"-0.013": 0.0860787764338,
			"-0.012": 0.444108568744,
			"-0.011": 2.6473383576,
			"-0.01": 3.71044188044,
			"-0.009": 3.38943110783,
			"-0.008": 4.81942417547,
			"-0.007": 7.00045431771,
			"-0.006": 11.0091580748,
			"-0.005": 13.9465577411,
			"-0.004": 16.9082668667,
			"-0.003": 14.7009633082,
			"-0.002": 16.6585518368,
			"-0.001": 19.4075487583,
			"0.0": 21.1214548798,
			"0.001": 17.5702540403,
			"0.002": 19.7164997556,
			"0.003": 20.8539202412,
			"0.004": 15.7955237496,
			"0.005": 8.0852166118,
			"0.006": 7.27356433513,
			"0.007": 2.11574104519,
			"0.008": 1.85720782225,
			"0.009": 1.8660263574,
			"0.01": 2.16805252511,
			"0.011": 2.78149588592,
			"0.012": 4.98045255588,
			"0.013": 3.92946057341,
			"0.014": 0.740988498172,
			"0.015": 0.0,
			"0.016": 0.0,
			"0.017": 0.0,
			"0.018": 0.0,
			"0.019": 0.0,
			"0.02": 0.0,
			"0.021": 0.0,
			"0.022": 0.0,
			"0.023": 0.0,
			"0.024": 0.0,
			"0.025": 0.0
		}
	}
}
