{
	 "smiles": "CCCC1=CC(C(O)=O)=C(N)C=C1", 
	 "Tm": 390.15, 
	 "num_atms": 26, 
	 "gaussian": { 
		 "optdone": 1, 
		 "sigma_profile": "yes", 
		 "theory": "DFT", 
		 "functional": "B3LYP", 
		 "basiset": "6-31G**", 
		 "properties": { 
			 "R2extent": 3620.0212, 
			 "electric_dipole_moment_norm": 3.8654247645, 
			 "electric_quadrupole_moment_norm": 21.7389575435, 
			 "total_energy": -594.131815038, 
			 "HOMO_LUMO_gap": 0.16216, 
			 "cosmo_polarized_energy": -13.65, 
			 "cosmo_cavitation_energy": 28.84, 
			 "cosmo_dispersion_energy": -20.93, 
			 "cosmo_repulsion_energy": 1.68, 
			 "cosmo_total_nonelectrostatic_energy": 9.59, 
			 "SMD_solvation_energy": 5.59 
		},
		"coords": [
			{
				"x": -1.3972719423,
				"y": 3.5012000359,
				"z": -0.6158585355,
				"element": "C" 
			},
			{
				"x": -1.041388817,
				"y": 3.1689433341,
				"z": 0.8358297686,
				"element": "C" 
			},
			{
				"x": 0.4103260111,
				"y": 2.6766836789,
				"z": 1.0274465289,
				"element": "C" 
			},
			{
				"x": 0.7138276622,
				"y": 1.3511388829,
				"z": 0.3615764915,
				"element": "C" 
			},
			{
				"x": 1.4628252125,
				"y": 1.2621346447,
				"z": -0.8054287821,
				"element": "C" 
			},
			{
				"x": 1.7366474749,
				"y": 0.0419602915,
				"z": -1.4575369067,
				"element": "C" 
			},
			{
				"x": 2.543127577,
				"y": -0.002109532,
				"z": -2.7014064528,
				"element": "C" 
			},
			{
				"x": 3.3055369979,
				"y": 1.0850342428,
				"z": -2.9936146654,
				"element": "O" 
			},
			{
				"x": 2.5682278673,
				"y": -0.9448490802,
				"z": -3.4758858515,
				"element": "O" 
			},
			{
				"x": 1.1935489406,
				"y": -1.1626472503,
				"z": -0.9241979219,
				"element": "C" 
			},
			{
				"x": 1.4160458065,
				"y": -2.3789602697,
				"z": -1.5058893383,
				"element": "N" 
			},
			{
				"x": 0.4482483575,
				"y": -1.0724803962,
				"z": 0.2749273418,
				"element": "C" 
			},
			{
				"x": 0.2213679177,
				"y": 0.1427456325,
				"z": 0.8937605974,
				"element": "C" 
			},
			{
				"x": -0.7517753968,
				"y": 4.2956418556,
				"z": -1.0089561145,
				"element": "H" 
			},
			{
				"x": -2.433183768,
				"y": 3.8452723896,
				"z": -0.6992090951,
				"element": "H" 
			},
			{
				"x": -1.2815572545,
				"y": 2.6277310495,
				"z": -1.2652689817,
				"element": "H" 
			},
			{
				"x": -1.1908206386,
				"y": 4.0573533934,
				"z": 1.4626460169,
				"element": "H" 
			},
			{
				"x": -1.7312473118,
				"y": 2.4051319592,
				"z": 1.2178171896,
				"element": "H" 
			},
			{
				"x": 1.0985644622,
				"y": 3.4420168766,
				"z": 0.646158892,
				"element": "H" 
			},
			{
				"x": 0.611129362,
				"y": 2.5937871041,
				"z": 2.103554178,
				"element": "H" 
			},
			{
				"x": 1.8137209734,
				"y": 2.1919614189,
				"z": -1.249861154,
				"element": "H" 
			},
			{
				"x": 3.3438276969,
				"y": 1.6759642624,
				"z": -2.2295395732,
				"element": "H" 
			},
			{
				"x": 0.8591619907,
				"y": -3.1606498924,
				"z": -1.2009102713,
				"element": "H" 
			},
			{
				"x": 1.7622328164,
				"y": -2.3671775422,
				"z": -2.4578966457,
				"element": "H" 
			},
			{
				"x": 0.0503290253,
				"y": -1.9861953603,
				"z": 0.7093912137,
				"element": "H" 
			},
			{
				"x": -0.3590510231,
				"y": 0.1640682708,
				"z": 1.8135520713,
				"element": "H" 
			}
		],
		 "valence_orbital": [ 
			{
				"type": "occ",
				"energy": -0.31179,
				"method": "rhf"
			},
			{
				"type": "occ",
				"energy": -0.30701,
				"method": "rhf"
			},
			{
				"type": "occ",
				"energy": -0.27172,
				"method": "rhf"
			},
			{
				"type": "occ",
				"energy": -0.26121,
				"method": "rhf"
			},
			{
				"type": "occ",
				"energy": -0.2051,
				"method": "rhf"
			},
			{
				"type": "unocc",
				"energy": -0.04294,
				"method": "rhf"
			},
			{
				"type": "unocc",
				"energy": 0.00433,
				"method": "rhf"
			},
			{
				"type": "unocc",
				"energy": 0.05089,
				"method": "rhf"
			},
			{
				"type": "unocc",
				"energy": 0.06991,
				"method": "rhf"
			},
			{
				"type": "unocc",
				"energy": 0.09112,
				"method": "rhf"
			}
		],
		"cosmo_sigma_profile": { 
			"-0.025": 0.0,
			"-0.024": 0.0,
			"-0.023": 0.0,
			"-0.022": 0.0,
			"-0.021": 0.0,
			"-0.02": 0.0,
			"-0.019": 0.0,
			"-0.018": 0.526280498203,
			"-0.017": 0.754765643139,
			"-0.016": 0.964474735012,
			"-0.015": 0.693824975957,
			"-0.014": 1.19822289438,
			"-0.013": 1.63926047055,
			"-0.012": 2.29054835704,
			"-0.011": 2.90138471953,
			"-0.01": 2.43126092497,
			"-0.009": 2.30741743424,
			"-0.008": 3.14659738491,
			"-0.007": 4.14262488393,
			"-0.006": 5.902210026,
			"-0.005": 6.43360841188,
			"-0.004": 10.0850856581,
			"-0.003": 14.7239395791,
			"-0.002": 19.99146345,
			"-0.001": 21.9043380768,
			"0.0": 24.1223431937,
			"0.001": 23.1685653616,
			"0.002": 16.540303571,
			"0.003": 11.5181764568,
			"0.004": 11.9431332237,
			"0.005": 9.01576421051,
			"0.006": 3.62859292953,
			"0.007": 3.2259099937,
			"0.008": 3.47434690641,
			"0.009": 2.96852856852,
			"0.01": 4.97514726932,
			"0.011": 4.35954030443,
			"0.012": 3.19998462464,
			"0.013": 2.22607973598,
			"0.014": 0.557503281375,
			"0.015": 0.0,
			"0.016": 0.0,
			"0.017": 0.0,
			"0.018": 0.0,
			"0.019": 0.0,
			"0.02": 0.0,
			"0.021": 0.0,
			"0.022": 0.0,
			"0.023": 0.0,
			"0.024": 0.0,
			"0.025": 0.0
		}
	}
}
