{
	 "smiles": "BrC1=CN=C(I)C=C1", 
	 "Tm": 388.15, 
	 "num_atms": 11, 
	 "gaussian": { 
		 "optdone": 1, 
		 "sigma_profile": "no", 
		 "theory": "DFT", 
		 "functional": "B3LYP", 
		 "basiset": "6-31G**", 
		 "properties": { 
			 "R2extent": 2454.1697, 
			 "electric_dipole_moment_norm": 2.24529627666, 
			 "electric_quadrupole_moment_norm": 5.09402102371, 
			 "total_energy": -2829.87007064, 
			 "HOMO_LUMO_gap": 0.19817, 
			 "cosmo_polarized_energy": -104004.42, 
			 "cosmo_cavitation_energy": 21.16, 
			 "cosmo_dispersion_energy": -17.75, 
			 "cosmo_repulsion_energy": 1.43, 
			 "cosmo_total_nonelectrostatic_energy": 4.84, 
			 "SMD_solvation_energy": 0.21 
		},
		"coords": [
			{
				"x": -2.2987471025,
				"y": -1.7121869554,
				"z": -2.1239360205,
				"element": "Br" 
			},
			{
				"x": -1.180251928,
				"y": -1.11042447,
				"z": -0.7077037552,
				"element": "C" 
			},
			{
				"x": -1.7420801653,
				"y": -0.4882401764,
				"z": 0.4063505857,
				"element": "C" 
			},
			{
				"x": -0.9949608023,
				"y": -0.0482992348,
				"z": 1.4267294628,
				"element": "N" 
			},
			{
				"x": 0.3132842642,
				"y": -0.2152131311,
				"z": 1.3631252657,
				"element": "C" 
			},
			{
				"x": 1.4678949089,
				"y": 0.5002284921,
				"z": 3.0096492482,
				"element": "I" 
			},
			{
				"x": 0.9768405904,
				"y": -0.8256444895,
				"z": 0.2931871846,
				"element": "C" 
			},
			{
				"x": 0.2020965896,
				"y": -1.2840411106,
				"z": -0.7692077964,
				"element": "C" 
			},
			{
				"x": -2.8153569859,
				"y": -0.3397277122,
				"z": 0.4813146473,
				"element": "H" 
			},
			{
				"x": 2.0542737314,
				"y": -0.9386840174,
				"z": 0.2891556251,
				"element": "H" 
			},
			{
				"x": 0.6627068994,
				"y": -1.7650671946,
				"z": -1.6250644474,
				"element": "H" 
			}
		],
		 "valence_orbital": [ 
			{
				"type": "occ",
				"energy": -0.30928,
				"method": "rhf"
			},
			{
				"type": "occ",
				"energy": -0.29004,
				"method": "rhf"
			},
			{
				"type": "occ",
				"energy": -0.28433,
				"method": "rhf"
			},
			{
				"type": "occ",
				"energy": -0.26923,
				"method": "rhf"
			},
			{
				"type": "occ",
				"energy": -0.25101,
				"method": "rhf"
			},
			{
				"type": "unocc",
				"energy": -0.05284,
				"method": "rhf"
			},
			{
				"type": "unocc",
				"energy": -0.04589,
				"method": "rhf"
			},
			{
				"type": "unocc",
				"energy": -0.04301,
				"method": "rhf"
			},
			{
				"type": "unocc",
				"energy": -0.00949,
				"method": "rhf"
			},
			{
				"type": "unocc",
				"energy": 0.04558,
				"method": "rhf"
			}
		],
		"cosmo_sigma_profile": { 
			"0.0": 0.0,
			"0.0": 0.0,
			"0.0": 0.0,
			"0.0": 0.0,
			"0.0": 0.0,
			"0.0": 0.0,
			"0.0": 0.0,
			"0.0": 0.0,
			"0.0": 0.0,
			"0.0": 0.0,
			"0.0": 0.0,
			"0.0": 0.0,
			"0.0": 0.0,
			"0.0": 0.0,
			"0.0": 0.0,
			"0.0": 0.0,
			"0.0": 0.0,
			"0.0": 0.0,
			"0.0": 0.0,
			"0.0": 0.0,
			"0.0": 0.0,
			"0.0": 0.0,
			"0.0": 0.0,
			"0.0": 0.0,
			"0.0": 0.0,
			"0.0": 0.0,
			"0.0": 0.0,
			"0.0": 0.0,
			"0.0": 0.0,
			"0.0": 0.0,
			"0.0": 0.0,
			"0.0": 0.0,
			"0.0": 0.0,
			"0.0": 0.0,
			"0.0": 0.0,
			"0.0": 0.0,
			"0.0": 0.0,
			"0.0": 0.0,
			"0.0": 0.0,
			"0.0": 0.0,
			"0.0": 0.0,
			"0.0": 0.0,
			"0.0": 0.0,
			"0.0": 0.0,
			"0.0": 0.0,
			"0.0": 0.0,
			"0.0": 0.0,
			"0.0": 0.0,
			"0.0": 0.0,
			"0.0": 0.0,
			"0.0": 0.0
		}
	}
}
