{
	 "smiles": "NC1=CC(=CC=C1)N1CCS(=O)(=O)CC1", 
	 "Tm": 425.15, 
	 "num_atms": 29, 
	 "gaussian": { 
		 "optdone": 1, 
		 "sigma_profile": "yes", 
		 "theory": "DFT", 
		 "functional": "B3LYP", 
		 "basiset": "6-31G**", 
		 "properties": { 
			 "R2extent": 4790.7672, 
			 "electric_dipole_moment_norm": 5.71121382107, 
			 "electric_quadrupole_moment_norm": 21.569570756, 
			 "total_energy": -1047.57519201, 
			 "HOMO_LUMO_gap": 0.20272, 
			 "cosmo_polarized_energy": -20.98, 
			 "cosmo_cavitation_energy": 32.01, 
			 "cosmo_dispersion_energy": -24.15, 
			 "cosmo_repulsion_energy": 1.83, 
			 "cosmo_total_nonelectrostatic_energy": 9.69, 
			 "SMD_solvation_energy": 3.08 
		},
		"coords": [
			{
				"x": 3.2126628096,
				"y": 1.988732888,
				"z": 2.8843810284,
				"element": "N" 
			},
			{
				"x": 2.673916849,
				"y": 0.8514317271,
				"z": 2.2814247427,
				"element": "C" 
			},
			{
				"x": 1.7629747204,
				"y": 0.9851869733,
				"z": 1.2172205715,
				"element": "C" 
			},
			{
				"x": 1.2497282617,
				"y": -0.139743598,
				"z": 0.5605087619,
				"element": "C" 
			},
			{
				"x": 1.6658097805,
				"y": -1.4204391561,
				"z": 0.9688595364,
				"element": "C" 
			},
			{
				"x": 2.5815142076,
				"y": -1.5480808794,
				"z": 2.0086298165,
				"element": "C" 
			},
			{
				"x": 3.0860104304,
				"y": -0.43133691,
				"z": 2.6726525027,
				"element": "C" 
			},
			{
				"x": 0.2972642389,
				"y": -0.0344429023,
				"z": -0.4938672308,
				"element": "N" 
			},
			{
				"x": -0.4305638267,
				"y": 1.225233818,
				"z": -0.6249923545,
				"element": "C" 
			},
			{
				"x": -1.7811326119,
				"y": 1.0158852484,
				"z": -1.3225888806,
				"element": "C" 
			},
			{
				"x": -1.5606979208,
				"y": 0.3582314918,
				"z": -2.9978982603,
				"element": "S" 
			},
			{
				"x": -0.7699297852,
				"y": 1.3391012738,
				"z": -3.7638503274,
				"element": "O" 
			},
			{
				"x": -2.8517945557,
				"y": -0.1288204261,
				"z": -3.5060702926,
				"element": "O" 
			},
			{
				"x": -0.481714814,
				"y": -1.0517124309,
				"z": -2.6266126595,
				"element": "C" 
			},
			{
				"x": 0.715573146,
				"y": -0.5999549972,
				"z": -1.784596677,
				"element": "C" 
			},
			{
				"x": 2.6399713133,
				"y": 2.8197865139,
				"z": 2.8355354546,
				"element": "H" 
			},
			{
				"x": 3.5949774887,
				"y": 1.8456461291,
				"z": 3.8086639847,
				"element": "H" 
			},
			{
				"x": 1.4905064896,
				"y": 1.9844232149,
				"z": 0.8929824511,
				"element": "H" 
			},
			{
				"x": 1.2419116303,
				"y": -2.3016930929,
				"z": 0.4988693823,
				"element": "H" 
			},
			{
				"x": 2.8921084543,
				"y": -2.5398051353,
				"z": 2.3259308314,
				"element": "H" 
			},
			{
				"x": 3.7938218252,
				"y": -0.547724064,
				"z": 3.4888587711,
				"element": "H" 
			},
			{
				"x": 0.139603923,
				"y": 1.9924221602,
				"z": -1.1751189486,
				"element": "H" 
			},
			{
				"x": -0.6331531963,
				"y": 1.6131146362,
				"z": 0.3763709993,
				"element": "H" 
			},
			{
				"x": -2.3206209462,
				"y": 1.9590318637,
				"z": -1.4467856368,
				"element": "H" 
			},
			{
				"x": -2.4077570559,
				"y": 0.3036906634,
				"z": -0.7800503838,
				"element": "H" 
			},
			{
				"x": -1.0910544719,
				"y": -1.7943379656,
				"z": -2.105351901,
				"element": "H" 
			},
			{
				"x": -0.1681673134,
				"y": -1.4465108685,
				"z": -3.5970807339,
				"element": "H" 
			},
			{
				"x": 1.3067488742,
				"y": 0.1264340505,
				"z": -2.3660986187,
				"element": "H" 
			},
			{
				"x": 1.3548820551,
				"y": -1.4639502261,
				"z": -1.5978259294,
				"element": "H" 
			}
		],
		 "valence_orbital": [ 
			{
				"type": "occ",
				"energy": -0.29168,
				"method": "rhf"
			},
			{
				"type": "occ",
				"energy": -0.27834,
				"method": "rhf"
			},
			{
				"type": "occ",
				"energy": -0.27293,
				"method": "rhf"
			},
			{
				"type": "occ",
				"energy": -0.22239,
				"method": "rhf"
			},
			{
				"type": "occ",
				"energy": -0.20094,
				"method": "rhf"
			},
			{
				"type": "unocc",
				"energy": 0.00178,
				"method": "rhf"
			},
			{
				"type": "unocc",
				"energy": 0.01024,
				"method": "rhf"
			},
			{
				"type": "unocc",
				"energy": 0.06673,
				"method": "rhf"
			},
			{
				"type": "unocc",
				"energy": 0.07149,
				"method": "rhf"
			},
			{
				"type": "unocc",
				"energy": 0.07522,
				"method": "rhf"
			}
		],
		"cosmo_sigma_profile": { 
			"-0.025": 0.0,
			"-0.024": 0.0,
			"-0.023": 0.0,
			"-0.022": 0.0,
			"-0.021": 0.0,
			"-0.02": 0.0,
			"-0.019": 0.0,
			"-0.018": 0.0,
			"-0.017": 0.0,
			"-0.016": 0.0,
			"-0.015": 0.0,
			"-0.014": 0.0,
			"-0.013": 0.175539789717,
			"-0.012": 1.88335005937,
			"-0.011": 3.21348520803,
			"-0.01": 2.55364199911,
			"-0.009": 6.61038192813,
			"-0.008": 10.3384030047,
			"-0.007": 11.7548905254,
			"-0.006": 19.4951718268,
			"-0.005": 21.7480979159,
			"-0.004": 24.0225481376,
			"-0.003": 15.9449341743,
			"-0.002": 11.0083872631,
			"-0.001": 8.95214075542,
			"0.0": 9.65433610283,
			"0.001": 8.30921310653,
			"0.002": 6.93334410587,
			"0.003": 8.38567777989,
			"0.004": 9.45979878952,
			"0.005": 8.98492711535,
			"0.006": 11.6717104385,
			"0.007": 10.8633922954,
			"0.008": 5.00646229122,
			"0.009": 4.76208179602,
			"0.01": 4.81371519233,
			"0.011": 9.62450964181,
			"0.012": 11.5135553656,
			"0.013": 3.41586046912,
			"0.014": 0.56951822982,
			"0.015": 0.233483761629,
			"0.016": 0.0,
			"0.017": 0.0,
			"0.018": 0.0,
			"0.019": 0.0,
			"0.02": 0.0,
			"0.021": 0.0,
			"0.022": 0.0,
			"0.023": 0.0,
			"0.024": 0.0,
			"0.025": 0.0
		}
	}
}
