{
	 "smiles": "OC(=O)C1=CC=C(C=C1)C1=CN=CN=C1", 
	 "Tm": 589.15, 
	 "num_atms": 23, 
	 "gaussian": { 
		 "optdone": 1, 
		 "sigma_profile": "yes", 
		 "theory": "DFT", 
		 "functional": "B3LYP", 
		 "basiset": "6-31G**", 
		 "properties": { 
			 "R2extent": 4502.7599, 
			 "electric_dipole_moment_norm": 1.85141743267, 
			 "electric_quadrupole_moment_norm": 10.941200154, 
			 "total_energy": -683.956178052, 
			 "HOMO_LUMO_gap": 0.18043, 
			 "cosmo_polarized_energy": -13.66, 
			 "cosmo_cavitation_energy": 28.55, 
			 "cosmo_dispersion_energy": -20.99, 
			 "cosmo_repulsion_energy": 1.6, 
			 "cosmo_total_nonelectrostatic_energy": 9.16, 
			 "SMD_solvation_energy": 3.15 
		},
		"coords": [
			{
				"x": -3.6632238521,
				"y": 2.7571963601,
				"z": -1.5920555932,
				"element": "O" 
			},
			{
				"x": -2.743187705,
				"y": 3.183996998,
				"z": -0.6913777917,
				"element": "C" 
			},
			{
				"x": -2.8496001139,
				"y": 4.2466521021,
				"z": -0.1117673247,
				"element": "O" 
			},
			{
				"x": -1.6231418649,
				"y": 2.2242261927,
				"z": -0.5043843571,
				"element": "C" 
			},
			{
				"x": -1.550343042,
				"y": 1.0101499215,
				"z": -1.2004118067,
				"element": "C" 
			},
			{
				"x": -0.4783020587,
				"y": 0.1490939009,
				"z": -0.9886806616,
				"element": "C" 
			},
			{
				"x": 0.5409172036,
				"y": 0.4765403938,
				"z": -0.0770683525,
				"element": "C" 
			},
			{
				"x": 0.4556018927,
				"y": 1.6972891632,
				"z": 0.6169807378,
				"element": "C" 
			},
			{
				"x": -0.6117708523,
				"y": 2.5612750765,
				"z": 0.4048056162,
				"element": "C" 
			},
			{
				"x": 1.6776842374,
				"y": -0.4423111474,
				"z": 0.1469976768,
				"element": "C" 
			},
			{
				"x": 1.5278578282,
				"y": -1.8373311157,
				"z": 0.1728572114,
				"element": "C" 
			},
			{
				"x": 2.5469631188,
				"y": -2.6776307613,
				"z": 0.3693899502,
				"element": "N" 
			},
			{
				"x": 3.7452460406,
				"y": -2.1133016177,
				"z": 0.5545554093,
				"element": "C" 
			},
			{
				"x": 4.0230295711,
				"y": -0.8051088388,
				"z": 0.5583504651,
				"element": "N" 
			},
			{
				"x": 2.9890593522,
				"y": 0.0140485272,
				"z": 0.3503834165,
				"element": "C" 
			},
			{
				"x": -4.3379627743,
				"y": 3.4547475212,
				"z": -1.6317758315,
				"element": "H" 
			},
			{
				"x": -2.3277636987,
				"y": 0.7508912883,
				"z": -1.9098875268,
				"element": "H" 
			},
			{
				"x": -0.4165089484,
				"y": -0.7758418357,
				"z": -1.5538623462,
				"element": "H" 
			},
			{
				"x": 1.2183933727,
				"y": 1.956367315,
				"z": 1.3448098629,
				"element": "H" 
			},
			{
				"x": -0.6871706903,
				"y": 3.5012365549,
				"z": 0.9408479786,
				"element": "H" 
			},
			{
				"x": 0.5444702703,
				"y": -2.2885141238,
				"z": 0.049089972,
				"element": "H" 
			},
			{
				"x": 4.5817350594,
				"y": -2.789291265,
				"z": 0.7192401848,
				"element": "H" 
			},
			{
				"x": 3.2122176536,
				"y": 1.07961939,
				"z": 0.3248631106,
				"element": "H" 
			}
		],
		 "valence_orbital": [ 
			{
				"type": "occ",
				"energy": -0.30824,
				"method": "rhf"
			},
			{
				"type": "occ",
				"energy": -0.28428,
				"method": "rhf"
			},
			{
				"type": "occ",
				"energy": -0.27381,
				"method": "rhf"
			},
			{
				"type": "occ",
				"energy": -0.2618,
				"method": "rhf"
			},
			{
				"type": "occ",
				"energy": -0.25272,
				"method": "rhf"
			},
			{
				"type": "unocc",
				"energy": -0.07229,
				"method": "rhf"
			},
			{
				"type": "unocc",
				"energy": -0.04909,
				"method": "rhf"
			},
			{
				"type": "unocc",
				"energy": -0.02366,
				"method": "rhf"
			},
			{
				"type": "unocc",
				"energy": -0.02292,
				"method": "rhf"
			},
			{
				"type": "unocc",
				"energy": 0.04913,
				"method": "rhf"
			}
		],
		"cosmo_sigma_profile": { 
			"-0.025": 0.0,
			"-0.024": 0.0,
			"-0.023": 0.0,
			"-0.022": 0.0,
			"-0.021": 0.0,
			"-0.02": 0.0,
			"-0.019": 0.145858230094,
			"-0.018": 0.760160812044,
			"-0.017": 0.788908603066,
			"-0.016": 1.07372632149,
			"-0.015": 0.686343668085,
			"-0.014": 0.704321169777,
			"-0.013": 0.301142397908,
			"-0.012": 0.785845021409,
			"-0.011": 1.21467134543,
			"-0.01": 0.359590706299,
			"-0.009": 0.466532569069,
			"-0.008": 5.73376171633,
			"-0.007": 13.0887775845,
			"-0.006": 12.969453499,
			"-0.005": 12.4679673007,
			"-0.004": 10.4221207941,
			"-0.003": 11.9288222859,
			"-0.002": 18.3693421148,
			"-0.001": 22.8316184861,
			"0.0": 16.8004653653,
			"0.001": 16.4034492652,
			"0.002": 17.5402379494,
			"0.003": 16.1549682263,
			"0.004": 4.51442892657,
			"0.005": 5.6266610488,
			"0.006": 5.59555458679,
			"0.007": 5.22473160467,
			"0.008": 3.57279255093,
			"0.009": 3.93014609104,
			"0.01": 3.20769961812,
			"0.011": 6.21654763165,
			"0.012": 5.34221282033,
			"0.013": 1.5716523376,
			"0.014": 2.06252008724,
			"0.015": 1.20938636261,
			"0.016": 0.083506608337,
			"0.017": 0.0,
			"0.018": 0.0,
			"0.019": 0.0,
			"0.02": 0.0,
			"0.021": 0.0,
			"0.022": 0.0,
			"0.023": 0.0,
			"0.024": 0.0,
			"0.025": 0.0
		}
	}
}
