{
	 "smiles": "CC(=O)NC1=CC(N)=C(C=CC2=CC=CC=C2)C=C1C=CC1=CC=CC=C1", 
	 "Tm": 491.15, 
	 "num_atms": 49, 
	 "gaussian": { 
		 "optdone": 1, 
		 "sigma_profile": "yes", 
		 "theory": "DFT", 
		 "functional": "B3LYP", 
		 "basiset": "6-31G**", 
		 "properties": { 
			 "R2extent": 15495.8661, 
			 "electric_dipole_moment_norm": 4.77366342969, 
			 "electric_quadrupole_moment_norm": 22.1702086792, 
			 "total_energy": -1112.54282324, 
			 "HOMO_LUMO_gap": 0.13631, 
			 "cosmo_polarized_energy": -18.25, 
			 "cosmo_cavitation_energy": 52.66, 
			 "cosmo_dispersion_energy": -36.03, 
			 "cosmo_repulsion_energy": 2.71, 
			 "cosmo_total_nonelectrostatic_energy": 19.34, 
			 "SMD_solvation_energy": 9.24 
		},
		"coords": [
			{
				"x": -4.7104682497,
				"y": -0.0207561535,
				"z": 0.5098260349,
				"element": "C" 
			},
			{
				"x": -3.9221812394,
				"y": -0.5192122711,
				"z": -0.687199797,
				"element": "C" 
			},
			{
				"x": -4.4729750506,
				"y": -1.0073466954,
				"z": -1.6646056611,
				"element": "O" 
			},
			{
				"x": -2.5425413839,
				"y": -0.3935583894,
				"z": -0.6784538572,
				"element": "N" 
			},
			{
				"x": -1.6524482046,
				"y": 0.1562073654,
				"z": 0.2675878955,
				"element": "C" 
			},
			{
				"x": -1.7605086944,
				"y": -0.1855172089,
				"z": 1.6143778277,
				"element": "C" 
			},
			{
				"x": -0.8675008317,
				"y": 0.2928740198,
				"z": 2.5887507031,
				"element": "C" 
			},
			{
				"x": -1.1060201634,
				"y": 0.0161662144,
				"z": 3.9215332166,
				"element": "N" 
			},
			{
				"x": 0.2361859258,
				"y": 1.0838759188,
				"z": 2.1700816777,
				"element": "C" 
			},
			{
				"x": 1.2359944345,
				"y": 1.6622968965,
				"z": 3.0952014042,
				"element": "C" 
			},
			{
				"x": 1.9841322261,
				"y": 1.0998013193,
				"z": 4.0695699828,
				"element": "C" 
			},
			{
				"x": 2.1372986683,
				"y": -0.3043973961,
				"z": 4.4862108716,
				"element": "C" 
			},
			{
				"x": 1.8453623635,
				"y": -1.4019537627,
				"z": 3.6516447803,
				"element": "C" 
			},
			{
				"x": 2.0450639108,
				"y": -2.7074210101,
				"z": 4.0952883881,
				"element": "C" 
			},
			{
				"x": 2.5372310657,
				"y": -2.9529062405,
				"z": 5.3799005765,
				"element": "C" 
			},
			{
				"x": 2.8409376874,
				"y": -1.8772751413,
				"z": 6.2169335624,
				"element": "C" 
			},
			{
				"x": 2.6500292961,
				"y": -0.571193473,
				"z": 5.7712205265,
				"element": "C" 
			},
			{
				"x": 0.321434082,
				"y": 1.410349552,
				"z": 0.8131852231,
				"element": "C" 
			},
			{
				"x": -0.5905211894,
				"y": 0.9946027302,
				"z": -0.1707488758,
				"element": "C" 
			},
			{
				"x": -0.3542335694,
				"y": 1.4467038394,
				"z": -1.5443662333,
				"element": "C" 
			},
			{
				"x": -1.2071184866,
				"y": 1.5497609889,
				"z": -2.5900782741,
				"element": "C" 
			},
			{
				"x": -0.8688326774,
				"y": 2.0443684465,
				"z": -3.9302109493,
				"element": "C" 
			},
			{
				"x": 0.4518901069,
				"y": 2.2465867569,
				"z": -4.3780494724,
				"element": "C" 
			},
			{
				"x": 0.7074858114,
				"y": 2.7318376248,
				"z": -5.657098359,
				"element": "C" 
			},
			{
				"x": -0.3459247273,
				"y": 3.0208948579,
				"z": -6.5299593167,
				"element": "C" 
			},
			{
				"x": -1.6602145423,
				"y": 2.8133492934,
				"z": -6.1087431643,
				"element": "C" 
			},
			{
				"x": -1.9159532457,
				"y": 2.3285603311,
				"z": -4.8276767475,
				"element": "C" 
			},
			{
				"x": -5.7020966128,
				"y": 0.2561589379,
				"z": 0.1496186921,
				"element": "H" 
			},
			{
				"x": -4.2394024197,
				"y": 0.825650756,
				"z": 1.0134165025,
				"element": "H" 
			},
			{
				"x": -4.8355817323,
				"y": -0.8261867871,
				"z": 1.241495527,
				"element": "H" 
			},
			{
				"x": -2.1430004729,
				"y": -0.6252585631,
				"z": -1.5813267647,
				"element": "H" 
			},
			{
				"x": -2.5513213942,
				"y": -0.8611007021,
				"z": 1.9228381799,
				"element": "H" 
			},
			{
				"x": -1.7111180974,
				"y": -0.7677064587,
				"z": 4.1163185929,
				"element": "H" 
			},
			{
				"x": -0.3222329386,
				"y": 0.0874962431,
				"z": 4.5518151604,
				"element": "H" 
			},
			{
				"x": 1.3985635298,
				"y": 2.7300600307,
				"z": 2.946842622,
				"element": "H" 
			},
			{
				"x": 2.6009660306,
				"y": 1.7908876263,
				"z": 4.6430540653,
				"element": "H" 
			},
			{
				"x": 1.4817331832,
				"y": -1.2257374055,
				"z": 2.6453915308,
				"element": "H" 
			},
			{
				"x": 1.8224497288,
				"y": -3.5379757039,
				"z": 3.4312156822,
				"element": "H" 
			},
			{
				"x": 2.690903468,
				"y": -3.9724646912,
				"z": 5.7212322589,
				"element": "H" 
			},
			{
				"x": 3.2324721792,
				"y": -2.0553007356,
				"z": 7.214450252,
				"element": "H" 
			},
			{
				"x": 2.8982081862,
				"y": 0.2624727468,
				"z": 6.4235925658,
				"element": "H" 
			},
			{
				"x": 1.1514760089,
				"y": 2.0392377676,
				"z": 0.4990816505,
				"element": "H" 
			},
			{
				"x": 0.6663529098,
				"y": 1.7939307977,
				"z": -1.7017027823,
				"element": "H" 
			},
			{
				"x": -2.2559977803,
				"y": 1.3010129933,
				"z": -2.4579997593,
				"element": "H" 
			},
			{
				"x": 1.2873283719,
				"y": 2.0074752994,
				"z": -3.7270331397,
				"element": "H" 
			},
			{
				"x": 1.7348341521,
				"y": 2.8775382993,
				"z": -5.9795977115,
				"element": "H" 
			},
			{
				"x": -0.1421168096,
				"y": 3.3953490488,
				"z": -7.5288656094,
				"element": "H" 
			},
			{
				"x": -2.4883155122,
				"y": 3.0267810565,
				"z": -6.7787843577,
				"element": "H" 
			},
			{
				"x": -2.9424073015,
				"y": 2.1681810306,
				"z": -4.5073751213,
				"element": "H" 
			}
		],
		 "valence_orbital": [ 
			{
				"type": "occ",
				"energy": -0.24632,
				"method": "rhf"
			},
			{
				"type": "occ",
				"energy": -0.24453,
				"method": "rhf"
			},
			{
				"type": "occ",
				"energy": -0.23515,
				"method": "rhf"
			},
			{
				"type": "occ",
				"energy": -0.21821,
				"method": "rhf"
			},
			{
				"type": "occ",
				"energy": -0.187,
				"method": "rhf"
			},
			{
				"type": "unocc",
				"energy": -0.05069,
				"method": "rhf"
			},
			{
				"type": "unocc",
				"energy": -0.04251,
				"method": "rhf"
			},
			{
				"type": "unocc",
				"energy": -0.01047,
				"method": "rhf"
			},
			{
				"type": "unocc",
				"energy": -0.00498,
				"method": "rhf"
			},
			{
				"type": "unocc",
				"energy": 0.00412,
				"method": "rhf"
			}
		],
		"cosmo_sigma_profile": { 
			"-0.025": 0.0,
			"-0.024": 0.0,
			"-0.023": 0.0,
			"-0.022": 0.0,
			"-0.021": 0.0,
			"-0.02": 0.0,
			"-0.019": 0.0,
			"-0.018": 0.0,
			"-0.017": 0.0,
			"-0.016": 0.0,
			"-0.015": 0.0,
			"-0.014": 0.0297156434849,
			"-0.013": 1.11409808294,
			"-0.012": 1.58305981106,
			"-0.011": 1.74695108491,
			"-0.01": 2.26912475939,
			"-0.009": 2.71468323171,
			"-0.008": 3.62905884066,
			"-0.007": 6.79892375074,
			"-0.006": 20.2135090987,
			"-0.005": 36.6418123042,
			"-0.004": 34.9094357525,
			"-0.003": 39.401670847,
			"-0.002": 29.2714438684,
			"-0.001": 30.1677105951,
			"0.0": 23.8593636397,
			"0.001": 23.9071797429,
			"0.002": 25.97984335,
			"0.003": 32.2124015067,
			"0.004": 35.1878971335,
			"0.005": 29.2432645515,
			"0.006": 16.1620413492,
			"0.007": 2.55093459597,
			"0.008": 2.49983770966,
			"0.009": 1.11303442459,
			"0.01": 1.75986404938,
			"0.011": 2.51550314556,
			"0.012": 2.79117874269,
			"0.013": 4.59986055254,
			"0.014": 4.62241537797,
			"0.015": 0.883225044409,
			"0.016": 0.0,
			"0.017": 0.0,
			"0.018": 0.0,
			"0.019": 0.0,
			"0.02": 0.0,
			"0.021": 0.0,
			"0.022": 0.0,
			"0.023": 0.0,
			"0.024": 0.0,
			"0.025": 0.0
		}
	}
}
