{
	 "smiles": "CC1(C)CC(C(=O)OC2=CC=C(C=C2)[N+]([O-])=O)C(C)(C)N1O", 
	 "Tm": 351.65, 
	 "num_atms": 42, 
	 "gaussian": { 
		 "optdone": 1, 
		 "sigma_profile": "yes", 
		 "theory": "DFT", 
		 "functional": "B3LYP", 
		 "basiset": "6-31G**", 
		 "properties": { 
			 "R2extent": 11794.1008, 
			 "electric_dipole_moment_norm": 5.63950317759, 
			 "electric_quadrupole_moment_norm": 39.0197224588, 
			 "total_energy": -1069.13522303, 
			 "HOMO_LUMO_gap": 0.1355, 
			 "cosmo_polarized_energy": -14.27, 
			 "cosmo_cavitation_energy": 44.17, 
			 "cosmo_dispersion_energy": -29.99, 
			 "cosmo_repulsion_energy": 2.25, 
			 "cosmo_total_nonelectrostatic_energy": 16.44, 
			 "SMD_solvation_energy": 10.44 
		},
		"coords": [
			{
				"x": -0.3245662939,
				"y": 1.9947434131,
				"z": -2.8890258064,
				"element": "C" 
			},
			{
				"x": 0.2577318645,
				"y": 0.5695892165,
				"z": -2.7867006577,
				"element": "C" 
			},
			{
				"x": 1.0376773428,
				"y": 0.2409102759,
				"z": -4.0654163944,
				"element": "C" 
			},
			{
				"x": 1.0958625409,
				"y": 0.3751204004,
				"z": -1.5124132781,
				"element": "C" 
			},
			{
				"x": 0.0514839517,
				"y": 0.130209015,
				"z": -0.4087168473,
				"element": "C" 
			},
			{
				"x": 0.6110724243,
				"y": -0.6437264552,
				"z": 0.7637447915,
				"element": "C" 
			},
			{
				"x": 1.5840343576,
				"y": -1.3563207281,
				"z": 0.7576483343,
				"element": "O" 
			},
			{
				"x": -0.1709807405,
				"y": -0.4175151233,
				"z": 1.8780649273,
				"element": "O" 
			},
			{
				"x": 0.0618539481,
				"y": -1.0174568873,
				"z": 3.1055130829,
				"element": "C" 
			},
			{
				"x": 0.6049385803,
				"y": -2.2972338196,
				"z": 3.2704330504,
				"element": "C" 
			},
			{
				"x": 0.7267959395,
				"y": -2.8151317858,
				"z": 4.5570292184,
				"element": "C" 
			},
			{
				"x": 0.3065833998,
				"y": -2.0560702218,
				"z": 5.6471826221,
				"element": "C" 
			},
			{
				"x": -0.2400614006,
				"y": -0.7828172417,
				"z": 5.489198998,
				"element": "C" 
			},
			{
				"x": -0.3613212192,
				"y": -0.2643417913,
				"z": 4.2067541429,
				"element": "C" 
			},
			{
				"x": 0.4391518766,
				"y": -2.6122003344,
				"z": 6.9995430843,
				"element": "N" 
			},
			{
				"x": 0.054801264,
				"y": -1.9188684217,
				"z": 7.9416819881,
				"element": "O" 
			},
			{
				"x": 0.9253877149,
				"y": -3.7376012284,
				"z": 7.1100401648,
				"element": "O" 
			},
			{
				"x": -1.1602409222,
				"y": -0.5863939569,
				"z": -1.1291312607,
				"element": "C" 
			},
			{
				"x": -2.4849516465,
				"y": 0.1194504736,
				"z": -0.7951212473,
				"element": "C" 
			},
			{
				"x": -1.2838068099,
				"y": -2.0838474466,
				"z": -0.7973087006,
				"element": "C" 
			},
			{
				"x": -0.7535419801,
				"y": -0.4928251523,
				"z": -2.5670984978,
				"element": "N" 
			},
			{
				"x": -1.8923583124,
				"y": -0.3113023934,
				"z": -3.4167299562,
				"element": "O" 
			},
			{
				"x": -1.0942215822,
				"y": 2.0309100926,
				"z": -3.6632865928,
				"element": "H" 
			},
			{
				"x": 0.4660646001,
				"y": 2.7042339024,
				"z": -3.1544242848,
				"element": "H" 
			},
			{
				"x": -0.7720224784,
				"y": 2.3347658652,
				"z": -1.9510211009,
				"element": "H" 
			},
			{
				"x": 1.8663221881,
				"y": 0.9414312944,
				"z": -4.2117538272,
				"element": "H" 
			},
			{
				"x": 0.3806723664,
				"y": 0.3110411154,
				"z": -4.9385441076,
				"element": "H" 
			},
			{
				"x": 1.4406536052,
				"y": -0.7748198707,
				"z": -4.0167531919,
				"element": "H" 
			},
			{
				"x": 1.7311492161,
				"y": 1.2387630827,
				"z": -1.296083353,
				"element": "H" 
			},
			{
				"x": 1.740812682,
				"y": -0.5024201081,
				"z": -1.6079517028,
				"element": "H" 
			},
			{
				"x": -0.3156169599,
				"y": 1.0807400678,
				"z": -0.0126757634,
				"element": "H" 
			},
			{
				"x": 0.9372652122,
				"y": -2.8685398186,
				"z": 2.4163886317,
				"element": "H" 
			},
			{
				"x": 1.1423596336,
				"y": -3.8005753882,
				"z": 4.7258699007,
				"element": "H" 
			},
			{
				"x": -0.5571491048,
				"y": -0.2249346826,
				"z": 6.3610405441,
				"element": "H" 
			},
			{
				"x": -0.7836759919,
				"y": 0.7199754482,
				"z": 4.0377629032,
				"element": "H" 
			},
			{
				"x": -2.6657583721,
				"y": 0.0567965721,
				"z": 0.2827094011,
				"element": "H" 
			},
			{
				"x": -2.4699319872,
				"y": 1.1740539604,
				"z": -1.0801741102,
				"element": "H" 
			},
			{
				"x": -3.3179996018,
				"y": -0.3549553727,
				"z": -1.3173153585,
				"element": "H" 
			},
			{
				"x": -1.605710408,
				"y": -2.2451451376,
				"z": 0.2370969951,
				"element": "H" 
			},
			{
				"x": -2.0351686606,
				"y": -2.532973628,
				"z": -1.4542913854,
				"element": "H" 
			},
			{
				"x": -0.3367469497,
				"y": -2.6038412707,
				"z": -0.9622074314,
				"element": "H" 
			},
			{
				"x": -1.8756432864,
				"y": -1.1054759307,
				"z": -3.9671579245,
				"element": "H" 
			}
		],
		 "valence_orbital": [ 
			{
				"type": "occ",
				"energy": -0.28962,
				"method": "rhf"
			},
			{
				"type": "occ",
				"energy": -0.28799,
				"method": "rhf"
			},
			{
				"type": "occ",
				"energy": -0.28099,
				"method": "rhf"
			},
			{
				"type": "occ",
				"energy": -0.26874,
				"method": "rhf"
			},
			{
				"type": "occ",
				"energy": -0.22432,
				"method": "rhf"
			},
			{
				"type": "unocc",
				"energy": -0.08882,
				"method": "rhf"
			},
			{
				"type": "unocc",
				"energy": -0.03148,
				"method": "rhf"
			},
			{
				"type": "unocc",
				"energy": -0.02483,
				"method": "rhf"
			},
			{
				"type": "unocc",
				"energy": 0.01273,
				"method": "rhf"
			},
			{
				"type": "unocc",
				"energy": 0.05993,
				"method": "rhf"
			}
		],
		"cosmo_sigma_profile": { 
			"-0.025": 0.0,
			"-0.024": 0.0,
			"-0.023": 0.0,
			"-0.022": 0.0,
			"-0.021": 0.0,
			"-0.02": 0.0,
			"-0.019": 0.0,
			"-0.018": 0.0,
			"-0.017": 0.0,
			"-0.016": 0.237283111063,
			"-0.015": 1.01335474653,
			"-0.014": 0.682039980512,
			"-0.013": 0.660199604852,
			"-0.012": 0.872339335007,
			"-0.011": 0.466644953573,
			"-0.01": 0.853105180728,
			"-0.009": 0.782619551282,
			"-0.008": 3.96328607906,
			"-0.007": 7.36876672172,
			"-0.006": 11.135300319,
			"-0.005": 13.7465075032,
			"-0.004": 17.9499146858,
			"-0.003": 31.0079573504,
			"-0.002": 38.3219442965,
			"-0.001": 39.1234997668,
			"0.0": 44.9140054583,
			"0.001": 42.7746912258,
			"0.002": 17.6283940671,
			"0.003": 8.58827370631,
			"0.004": 7.93382853056,
			"0.005": 6.97365665231,
			"0.006": 7.00989814264,
			"0.007": 12.1058678761,
			"0.008": 11.9200758643,
			"0.009": 7.92456920975,
			"0.01": 7.27223534955,
			"0.011": 2.73699812005,
			"0.012": 0.639624164238,
			"0.013": 0.0,
			"0.014": 0.0,
			"0.015": 0.0,
			"0.016": 0.0,
			"0.017": 0.0,
			"0.018": 0.0,
			"0.019": 0.0,
			"0.02": 0.0,
			"0.021": 0.0,
			"0.022": 0.0,
			"0.023": 0.0,
			"0.024": 0.0,
			"0.025": 0.0
		}
	}
}
