{
	 "smiles": "CN1CCN(CC1)C(=O)C1CCC2=C(N1)C=CC=C2", 
	 "Tm": 387.15, 
	 "num_atms": 40, 
	 "gaussian": { 
		 "optdone": 1, 
		 "sigma_profile": "yes", 
		 "theory": "DFT", 
		 "functional": "B3LYP", 
		 "basiset": "6-31G**", 
		 "properties": { 
			 "R2extent": 7483.0443, 
			 "electric_dipole_moment_norm": 4.5230607303, 
			 "electric_quadrupole_moment_norm": 7.7984211261, 
			 "total_energy": -823.747547641, 
			 "HOMO_LUMO_gap": 0.19554, 
			 "cosmo_polarized_energy": -12.88, 
			 "cosmo_cavitation_energy": 39.41, 
			 "cosmo_dispersion_energy": -28.79, 
			 "cosmo_repulsion_energy": 2.19, 
			 "cosmo_total_nonelectrostatic_energy": 12.81, 
			 "SMD_solvation_energy": 2.24 
		},
		"coords": [
			{
				"x": -1.5204880076,
				"y": 2.9621314543,
				"z": 5.4366380006,
				"element": "C" 
			},
			{
				"x": -0.5857442541,
				"y": 2.2274368445,
				"z": 4.5962008875,
				"element": "N" 
			},
			{
				"x": -0.7706739111,
				"y": 0.7803760255,
				"z": 4.7054862868,
				"element": "C" 
			},
			{
				"x": 0.2964130236,
				"y": 0.040793375,
				"z": 3.8992300265,
				"element": "C" 
			},
			{
				"x": 0.290427554,
				"y": 0.4916689606,
				"z": 2.5049653659,
				"element": "N" 
			},
			{
				"x": 0.4093228447,
				"y": 1.9409805452,
				"z": 2.3633336674,
				"element": "C" 
			},
			{
				"x": -0.6619669232,
				"y": 2.6480846957,
				"z": 3.2008450425,
				"element": "C" 
			},
			{
				"x": 0.1821070892,
				"y": -0.4328062067,
				"z": 1.5023195246,
				"element": "C" 
			},
			{
				"x": 0.0426655202,
				"y": -1.6337723474,
				"z": 1.7382785446,
				"element": "O" 
			},
			{
				"x": 0.2602118916,
				"y": 0.0508739309,
				"z": 0.0405920226,
				"element": "C" 
			},
			{
				"x": 1.7073626126,
				"y": 0.3997344321,
				"z": -0.3736266825,
				"element": "C" 
			},
			{
				"x": 1.7280144426,
				"y": 0.7575541486,
				"z": -1.8657522895,
				"element": "C" 
			},
			{
				"x": 1.1039413924,
				"y": -0.345196329,
				"z": -2.6945888638,
				"element": "C" 
			},
			{
				"x": 0.1556851703,
				"y": -1.20365728,
				"z": -2.09757367,
				"element": "C" 
			},
			{
				"x": -0.2940858609,
				"y": -1.0019891712,
				"z": -0.7921896032,
				"element": "N" 
			},
			{
				"x": -0.3636912233,
				"y": -2.2777805822,
				"z": -2.8450179969,
				"element": "C" 
			},
			{
				"x": 0.0327249916,
				"y": -2.4842396444,
				"z": -4.1613069984,
				"element": "C" 
			},
			{
				"x": 0.9539699668,
				"y": -1.6236268608,
				"z": -4.766140055,
				"element": "C" 
			},
			{
				"x": 1.4819650585,
				"y": -0.5700308768,
				"z": -4.0217679567,
				"element": "C" 
			},
			{
				"x": -1.3130095439,
				"y": 4.0351084918,
				"z": 5.3704277699,
				"element": "H" 
			},
			{
				"x": -1.3950943174,
				"y": 2.6567588344,
				"z": 6.4803326473,
				"element": "H" 
			},
			{
				"x": -2.5794568976,
				"y": 2.8007382678,
				"z": 5.1584580424,
				"element": "H" 
			},
			{
				"x": -1.7741353453,
				"y": 0.4671523813,
				"z": 4.3551075995,
				"element": "H" 
			},
			{
				"x": -0.6859625429,
				"y": 0.4940003043,
				"z": 5.759916076,
				"element": "H" 
			},
			{
				"x": 1.2844490214,
				"y": 0.2432233828,
				"z": 4.3345177957,
				"element": "H" 
			},
			{
				"x": 0.1206128381,
				"y": -1.0342192251,
				"z": 3.9011867028,
				"element": "H" 
			},
			{
				"x": 1.4021841059,
				"y": 2.2585110925,
				"z": 2.7114126944,
				"element": "H" 
			},
			{
				"x": 0.3065590759,
				"y": 2.2346411841,
				"z": 1.3199387903,
				"element": "H" 
			},
			{
				"x": -1.6577126193,
				"y": 2.4405488621,
				"z": 2.759057192,
				"element": "H" 
			},
			{
				"x": -0.4971864626,
				"y": 3.730507767,
				"z": 3.1477082266,
				"element": "H" 
			},
			{
				"x": -0.3538823885,
				"y": 0.9569306704,
				"z": -0.0738482201,
				"element": "H" 
			},
			{
				"x": 2.3435226366,
				"y": -0.4730277994,
				"z": -0.1858279228,
				"element": "H" 
			},
			{
				"x": 2.0971701766,
				"y": 1.2273174344,
				"z": 0.2270185817,
				"element": "H" 
			},
			{
				"x": 2.758004789,
				"y": 0.9343418958,
				"z": -2.1958087556,
				"element": "H" 
			},
			{
				"x": 1.1918690252,
				"y": 1.707196608,
				"z": -2.0133908659,
				"element": "H" 
			},
			{
				"x": -0.4731254151,
				"y": -1.8420968552,
				"z": -0.2510899797,
				"element": "H" 
			},
			{
				"x": -1.0906036719,
				"y": -2.9384691056,
				"z": -2.3791837086,
				"element": "H" 
			},
			{
				"x": -0.3829059207,
				"y": -3.319129465,
				"z": -4.7191017352,
				"element": "H" 
			},
			{
				"x": 1.2633840217,
				"y": -1.778888563,
				"z": -5.7950917273,
				"element": "H" 
			},
			{
				"x": 2.2207580569,
				"y": 0.0909187229,
				"z": -4.4710644568,
				"element": "H" 
			}
		],
		 "valence_orbital": [ 
			{
				"type": "occ",
				"energy": -0.25887,
				"method": "rhf"
			},
			{
				"type": "occ",
				"energy": -0.24856,
				"method": "rhf"
			},
			{
				"type": "occ",
				"energy": -0.22818,
				"method": "rhf"
			},
			{
				"type": "occ",
				"energy": -0.22671,
				"method": "rhf"
			},
			{
				"type": "occ",
				"energy": -0.18226,
				"method": "rhf"
			},
			{
				"type": "unocc",
				"energy": 0.01328,
				"method": "rhf"
			},
			{
				"type": "unocc",
				"energy": 0.01524,
				"method": "rhf"
			},
			{
				"type": "unocc",
				"energy": 0.03104,
				"method": "rhf"
			},
			{
				"type": "unocc",
				"energy": 0.07604,
				"method": "rhf"
			},
			{
				"type": "unocc",
				"energy": 0.08727,
				"method": "rhf"
			}
		],
		"cosmo_sigma_profile": { 
			"-0.025": 0.0,
			"-0.024": 0.0,
			"-0.023": 0.0,
			"-0.022": 0.0,
			"-0.021": 0.0,
			"-0.02": 0.0,
			"-0.019": 0.0,
			"-0.018": 0.0,
			"-0.017": 0.0,
			"-0.016": 0.0,
			"-0.015": 0.0,
			"-0.014": 0.0,
			"-0.013": 0.0,
			"-0.012": 0.0,
			"-0.011": 0.0,
			"-0.01": 0.0,
			"-0.009": 0.0774883523008,
			"-0.008": 1.66154570231,
			"-0.007": 3.94359627683,
			"-0.006": 5.64261038639,
			"-0.005": 15.3115839588,
			"-0.004": 37.8821878856,
			"-0.003": 36.6477409359,
			"-0.002": 43.8999838874,
			"-0.001": 38.909214346,
			"0.0": 27.8675568993,
			"0.001": 12.2447258203,
			"0.002": 9.70223870889,
			"0.003": 10.433893081,
			"0.004": 9.15493757596,
			"0.005": 9.90285284666,
			"0.006": 10.3089179781,
			"0.007": 10.6323957341,
			"0.008": 7.25123954256,
			"0.009": 2.51185215148,
			"0.01": 3.08689655007,
			"0.011": 1.75393556359,
			"0.012": 3.45460568577,
			"0.013": 4.07436240953,
			"0.014": 1.10830252378,
			"0.015": 0.535637968381,
			"0.016": 0.0948611259294,
			"0.017": 0.0,
			"0.018": 0.0,
			"0.019": 0.0,
			"0.02": 0.0,
			"0.021": 0.0,
			"0.022": 0.0,
			"0.023": 0.0,
			"0.024": 0.0,
			"0.025": 0.0
		}
	}
}
