{
	 "smiles": "CCOC(=O)C1=C(C)C2=C(O1)C(Cl)=CC=C2", 
	 "Tm": 337.15, 
	 "num_atms": 27, 
	 "gaussian": { 
		 "optdone": 1, 
		 "sigma_profile": "yes", 
		 "theory": "DFT", 
		 "functional": "B3LYP", 
		 "basiset": "6-31G**", 
		 "properties": { 
			 "R2extent": 5305.6452, 
			 "electric_dipole_moment_norm": 1.34623571859, 
			 "electric_quadrupole_moment_norm": 15.3422131845, 
			 "total_energy": -1149.783855, 
			 "HOMO_LUMO_gap": 0.17193, 
			 "cosmo_polarized_energy": -8.79, 
			 "cosmo_cavitation_energy": 33.33, 
			 "cosmo_dispersion_energy": -24.16, 
			 "cosmo_repulsion_energy": 1.91, 
			 "cosmo_total_nonelectrostatic_energy": 11.08, 
			 "SMD_solvation_energy": 6.83 
		},
		"coords": [
			{
				"x": 2.5657912784,
				"y": 2.833784786,
				"z": -1.1714080787,
				"element": "C" 
			},
			{
				"x": 2.4990775383,
				"y": 1.524900571,
				"z": -1.9437591715,
				"element": "C" 
			},
			{
				"x": 1.3333704523,
				"y": 0.7516822428,
				"z": -1.5674622637,
				"element": "O" 
			},
			{
				"x": 1.464292401,
				"y": -0.0396562095,
				"z": -0.4875021705,
				"element": "C" 
			},
			{
				"x": 2.4833855965,
				"y": -0.1472375979,
				"z": 0.1738868041,
				"element": "O" 
			},
			{
				"x": 0.2255644275,
				"y": -0.7762484807,
				"z": -0.1904824571,
				"element": "C" 
			},
			{
				"x": -0.0524604877,
				"y": -1.6742828735,
				"z": 0.8075349444,
				"element": "C" 
			},
			{
				"x": 0.8455263109,
				"y": -2.1681391105,
				"z": 1.8975688625,
				"element": "C" 
			},
			{
				"x": -1.4266960214,
				"y": -2.0651968305,
				"z": 0.5956223909,
				"element": "C" 
			},
			{
				"x": -1.8559881453,
				"y": -1.3476064084,
				"z": -0.5367022732,
				"element": "C" 
			},
			{
				"x": -0.8624973036,
				"y": -0.564657327,
				"z": -1.0196354576,
				"element": "O" 
			},
			{
				"x": -3.1475226827,
				"y": -1.4683217262,
				"z": -1.0481601617,
				"element": "C" 
			},
			{
				"x": -3.6407686425,
				"y": -0.5599332338,
				"z": -2.4552860689,
				"element": "Cl" 
			},
			{
				"x": -4.0196926709,
				"y": -2.3348446593,
				"z": -0.3969489496,
				"element": "C" 
			},
			{
				"x": -3.6029303947,
				"y": -3.0591788289,
				"z": 0.737300792,
				"element": "C" 
			},
			{
				"x": -2.3154224428,
				"y": -2.9371553327,
				"z": 1.2452880854,
				"element": "C" 
			},
			{
				"x": 3.4077590863,
				"y": 3.4337351804,
				"z": -1.5325598397,
				"element": "H" 
			},
			{
				"x": 1.6475969459,
				"y": 3.4125072316,
				"z": -1.3069859526,
				"element": "H" 
			},
			{
				"x": 2.7124423813,
				"y": 2.6445437768,
				"z": -0.1052530904,
				"element": "H" 
			},
			{
				"x": 2.3705969551,
				"y": 1.6965667377,
				"z": -3.0147388152,
				"element": "H" 
			},
			{
				"x": 3.3932937729,
				"y": 0.9201437432,
				"z": -1.7756329048,
				"element": "H" 
			},
			{
				"x": 0.4162569695,
				"y": -1.942436356,
				"z": 2.8808725458,
				"element": "H" 
			},
			{
				"x": 0.9586888317,
				"y": -3.2570797133,
				"z": 1.8383189053,
				"element": "H" 
			},
			{
				"x": 1.829792561,
				"y": -1.7070822075,
				"z": 1.8273043349,
				"element": "H" 
			},
			{
				"x": -5.0298712039,
				"y": -2.4466099642,
				"z": -0.7752263067,
				"element": "H" 
			},
			{
				"x": -4.3127033876,
				"y": -3.7253509502,
				"z": 1.2176850819,
				"element": "H" 
			},
			{
				"x": -2.0052821256,
				"y": -3.5001464596,
				"z": 2.1197612149,
				"element": "H" 
			}
		],
		 "valence_orbital": [ 
			{
				"type": "occ",
				"energy": -0.30117,
				"method": "rhf"
			},
			{
				"type": "occ",
				"energy": -0.28471,
				"method": "rhf"
			},
			{
				"type": "occ",
				"energy": -0.27961,
				"method": "rhf"
			},
			{
				"type": "occ",
				"energy": -0.24908,
				"method": "rhf"
			},
			{
				"type": "occ",
				"energy": -0.23182,
				"method": "rhf"
			},
			{
				"type": "unocc",
				"energy": -0.05989,
				"method": "rhf"
			},
			{
				"type": "unocc",
				"energy": -0.00476,
				"method": "rhf"
			},
			{
				"type": "unocc",
				"energy": 0.01098,
				"method": "rhf"
			},
			{
				"type": "unocc",
				"energy": 0.02739,
				"method": "rhf"
			},
			{
				"type": "unocc",
				"energy": 0.09621,
				"method": "rhf"
			}
		],
		"cosmo_sigma_profile": { 
			"-0.025": 0.0,
			"-0.024": 0.0,
			"-0.023": 0.0,
			"-0.022": 0.0,
			"-0.021": 0.0,
			"-0.02": 0.0,
			"-0.019": 0.0,
			"-0.018": 0.0,
			"-0.017": 0.0,
			"-0.016": 0.0,
			"-0.015": 0.0,
			"-0.014": 0.0,
			"-0.013": 0.0,
			"-0.012": 0.0,
			"-0.011": 0.0,
			"-0.01": 0.0,
			"-0.009": 0.0,
			"-0.008": 0.729645344044,
			"-0.007": 4.2880531145,
			"-0.006": 9.55697771688,
			"-0.005": 16.4767903204,
			"-0.004": 22.3543805956,
			"-0.003": 23.7684785178,
			"-0.002": 23.625567801,
			"-0.001": 29.83709898,
			"0.0": 31.0983428932,
			"0.001": 22.961821736,
			"0.002": 19.2118552847,
			"0.003": 18.3764029453,
			"0.004": 16.390697735,
			"0.005": 6.70563609028,
			"0.006": 5.05134566124,
			"0.007": 2.92926984831,
			"0.008": 2.87300115801,
			"0.009": 3.90701021266,
			"0.01": 3.37327647948,
			"0.011": 3.50591992634,
			"0.012": 1.43575908323,
			"0.013": 0.0,
			"0.014": 0.0,
			"0.015": 0.0,
			"0.016": 0.0,
			"0.017": 0.0,
			"0.018": 0.0,
			"0.019": 0.0,
			"0.02": 0.0,
			"0.021": 0.0,
			"0.022": 0.0,
			"0.023": 0.0,
			"0.024": 0.0,
			"0.025": 0.0
		}
	}
}
