{
	 "smiles": "CN(C)C1=CC(Cl)=C(C=C1)C(N)=N", 
	 "Tm": 422.15, 
	 "num_atms": 25, 
	 "gaussian": { 
		 "optdone": 1, 
		 "sigma_profile": "yes", 
		 "theory": "DFT", 
		 "functional": "B3LYP", 
		 "basiset": "6-31G**", 
		 "properties": { 
			 "R2extent": 3645.7607, 
			 "electric_dipole_moment_norm": 5.49749172441, 
			 "electric_quadrupole_moment_norm": 14.9089589888, 
			 "total_energy": -974.627188085, 
			 "HOMO_LUMO_gap": 0.1887, 
			 "cosmo_polarized_energy": -13.37, 
			 "cosmo_cavitation_energy": 29.53, 
			 "cosmo_dispersion_energy": -21.63, 
			 "cosmo_repulsion_energy": 1.72, 
			 "cosmo_total_nonelectrostatic_energy": 9.61, 
			 "SMD_solvation_energy": 3.39 
		},
		"coords": [
			{
				"x": -1.6975104815,
				"y": -1.4987258647,
				"z": 2.386010572,
				"element": "C" 
			},
			{
				"x": -0.7436310806,
				"y": -0.4062242662,
				"z": 2.2910572341,
				"element": "N" 
			},
			{
				"x": -0.2856277776,
				"y": 0.2347645254,
				"z": 3.5129728205,
				"element": "C" 
			},
			{
				"x": -0.5303186559,
				"y": 0.2144598591,
				"z": 1.0737076983,
				"element": "C" 
			},
			{
				"x": -1.1108524089,
				"y": -0.2853850006,
				"z": -0.1131655762,
				"element": "C" 
			},
			{
				"x": -0.8607711828,
				"y": 0.3273132364,
				"z": -1.3363928825,
				"element": "C" 
			},
			{
				"x": -1.6726534387,
				"y": -0.3781070552,
				"z": -2.7440467503,
				"element": "Cl" 
			},
			{
				"x": -0.0529509071,
				"y": 1.464634534,
				"z": -1.4693834697,
				"element": "C" 
			},
			{
				"x": 0.4957507664,
				"y": 1.9612700265,
				"z": -0.2746194494,
				"element": "C" 
			},
			{
				"x": 0.27725717,
				"y": 1.3704692191,
				"z": 0.9603209735,
				"element": "C" 
			},
			{
				"x": 0.2309123401,
				"y": 2.2039404048,
				"z": -2.7445043254,
				"element": "C" 
			},
			{
				"x": 0.7964824493,
				"y": 1.4648465257,
				"z": -3.7655733967,
				"element": "N" 
			},
			{
				"x": 0.0766234104,
				"y": 3.4710574854,
				"z": -2.8954568494,
				"element": "N" 
			},
			{
				"x": -1.4168331634,
				"y": -2.3266243892,
				"z": 1.7243975694,
				"element": "H" 
			},
			{
				"x": -1.701790456,
				"y": -1.8819013737,
				"z": 3.407172261,
				"element": "H" 
			},
			{
				"x": -2.7232095991,
				"y": -1.1919675459,
				"z": 2.1306705403,
				"element": "H" 
			},
			{
				"x": -0.5264362885,
				"y": -0.4046370162,
				"z": 4.3631245067,
				"element": "H" 
			},
			{
				"x": -0.7542384507,
				"y": 1.2164173198,
				"z": 3.6788822321,
				"element": "H" 
			},
			{
				"x": 0.8016174719,
				"y": 0.3753905859,
				"z": 3.5037707797,
				"element": "H" 
			},
			{
				"x": -1.7666121776,
				"y": -1.1445340215,
				"z": -0.0952413062,
				"element": "H" 
			},
			{
				"x": 1.1284041159,
				"y": 2.8419842188,
				"z": -0.3338426491,
				"element": "H" 
			},
			{
				"x": 0.739500151,
				"y": 1.8083285117,
				"z": 1.835682814,
				"element": "H" 
			},
			{
				"x": 0.588677426,
				"y": 0.4787428991,
				"z": -3.798930889,
				"element": "H" 
			},
			{
				"x": 0.784562883,
				"y": 1.9343619218,
				"z": -4.6613759841,
				"element": "H" 
			},
			{
				"x": -0.3151521157,
				"y": 3.8780252597,
				"z": -2.0469364736,
				"element": "H" 
			}
		],
		 "valence_orbital": [ 
			{
				"type": "occ",
				"energy": -0.29286,
				"method": "rhf"
			},
			{
				"type": "occ",
				"energy": -0.25055,
				"method": "rhf"
			},
			{
				"type": "occ",
				"energy": -0.24715,
				"method": "rhf"
			},
			{
				"type": "occ",
				"energy": -0.22333,
				"method": "rhf"
			},
			{
				"type": "occ",
				"energy": -0.2014,
				"method": "rhf"
			},
			{
				"type": "unocc",
				"energy": -0.0127,
				"method": "rhf"
			},
			{
				"type": "unocc",
				"energy": -0.00923,
				"method": "rhf"
			},
			{
				"type": "unocc",
				"energy": 0.02628,
				"method": "rhf"
			},
			{
				"type": "unocc",
				"energy": 0.0585,
				"method": "rhf"
			},
			{
				"type": "unocc",
				"energy": 0.07941,
				"method": "rhf"
			}
		],
		"cosmo_sigma_profile": { 
			"-0.025": 0.0,
			"-0.024": 0.0,
			"-0.023": 0.0,
			"-0.022": 0.0,
			"-0.021": 0.0,
			"-0.02": 0.0,
			"-0.019": 0.0,
			"-0.018": 0.0,
			"-0.017": 0.0,
			"-0.016": 0.0,
			"-0.015": 0.0,
			"-0.014": 0.0,
			"-0.013": 0.128706200049,
			"-0.012": 0.867523117221,
			"-0.011": 1.60040894929,
			"-0.01": 1.78555391925,
			"-0.009": 2.4466435417,
			"-0.008": 3.26051400119,
			"-0.007": 5.6836354291,
			"-0.006": 12.2852122555,
			"-0.005": 15.9869021217,
			"-0.004": 20.4594614545,
			"-0.003": 18.95640428,
			"-0.002": 24.0175897002,
			"-0.001": 16.2048696258,
			"0.0": 13.2651861442,
			"0.001": 12.0811112764,
			"0.002": 14.9595810681,
			"0.003": 16.6781300328,
			"0.004": 21.9258754584,
			"0.005": 10.8940882213,
			"0.006": 1.83223032031,
			"0.007": 2.07543194554,
			"0.008": 1.87975752701,
			"0.009": 2.24409697435,
			"0.01": 2.41701539756,
			"0.011": 2.19187162533,
			"0.012": 1.8104409202,
			"0.013": 1.19479662891,
			"0.014": 1.39250274227,
			"0.015": 1.24595827124,
			"0.016": 1.16521051976,
			"0.017": 0.630784772911,
			"0.018": 1.46392685062,
			"0.019": 0.616501579146,
			"0.02": 0.0128129380161,
			"0.021": 0.0,
			"0.022": 0.0,
			"0.023": 0.0,
			"0.024": 0.0,
			"0.025": 0.0
		}
	}
}
