{
	 "smiles": "NC(=O)CC1=CSC(N)=N1", 
	 "Tm": 435.15, 
	 "num_atms": 17, 
	 "gaussian": { 
		 "optdone": 1, 
		 "sigma_profile": "yes", 
		 "theory": "DFT", 
		 "functional": "B3LYP", 
		 "basiset": "6-31G**", 
		 "properties": { 
			 "R2extent": 3250.5389, 
			 "electric_dipole_moment_norm": 5.21410620816, 
			 "electric_quadrupole_moment_norm": 8.79370880914, 
			 "total_energy": -832.433066036, 
			 "HOMO_LUMO_gap": 0.20239, 
			 "cosmo_polarized_energy": -16.72, 
			 "cosmo_cavitation_energy": 22.98, 
			 "cosmo_dispersion_energy": -17.68, 
			 "cosmo_repulsion_energy": 1.43, 
			 "cosmo_total_nonelectrostatic_energy": 6.72, 
			 "SMD_solvation_energy": 3.8 
		},
		"coords": [
			{
				"x": 0.4354365599,
				"y": 0.9060218866,
				"z": -1.8692216205,
				"element": "N" 
			},
			{
				"x": -0.8370617689,
				"y": 0.420687105,
				"z": -1.8978093191,
				"element": "C" 
			},
			{
				"x": -1.1464452096,
				"y": -0.6405073632,
				"z": -2.4196644787,
				"element": "O" 
			},
			{
				"x": -1.8984530778,
				"y": 1.3549655792,
				"z": -1.2844546759,
				"element": "C" 
			},
			{
				"x": -1.568686164,
				"y": 1.9355160113,
				"z": 0.0641258679,
				"element": "C" 
			},
			{
				"x": -2.2919444098,
				"y": 1.7417560669,
				"z": 1.2004989326,
				"element": "C" 
			},
			{
				"x": -1.578741714,
				"y": 2.6234470546,
				"z": 2.5344319215,
				"element": "S" 
			},
			{
				"x": -0.3193379456,
				"y": 3.1721307675,
				"z": 1.426802199,
				"element": "C" 
			},
			{
				"x": 0.6597133109,
				"y": 4.0439182989,
				"z": 1.8381914668,
				"element": "N" 
			},
			{
				"x": -0.4462186081,
				"y": 2.7442995539,
				"z": 0.2013604113,
				"element": "N" 
			},
			{
				"x": 1.1711161211,
				"y": 0.3019639275,
				"z": -2.2030660503,
				"element": "H" 
			},
			{
				"x": 0.6517573429,
				"y": 1.7126802875,
				"z": -1.2955362952,
				"element": "H" 
			},
			{
				"x": -2.8227556643,
				"y": 0.7784251597,
				"z": -1.2356188922,
				"element": "H" 
			},
			{
				"x": -2.0545943756,
				"y": 2.1767293999,
				"z": -1.9967074986,
				"element": "H" 
			},
			{
				"x": -3.1828793901,
				"y": 1.1483745006,
				"z": 1.3426616902,
				"element": "H" 
			},
			{
				"x": 1.416513517,
				"y": 4.1472352627,
				"z": 1.1756829539,
				"element": "H" 
			},
			{
				"x": 0.954081476,
				"y": 3.9902565014,
				"z": 2.8023233873,
				"element": "H" 
			}
		],
		 "valence_orbital": [ 
			{
				"type": "occ",
				"energy": -0.29071,
				"method": "rhf"
			},
			{
				"type": "occ",
				"energy": -0.28557,
				"method": "rhf"
			},
			{
				"type": "occ",
				"energy": -0.25286,
				"method": "rhf"
			},
			{
				"type": "occ",
				"energy": -0.23972,
				"method": "rhf"
			},
			{
				"type": "occ",
				"energy": -0.21497,
				"method": "rhf"
			},
			{
				"type": "unocc",
				"energy": -0.01258,
				"method": "rhf"
			},
			{
				"type": "unocc",
				"energy": 0.00296,
				"method": "rhf"
			},
			{
				"type": "unocc",
				"energy": 0.0348,
				"method": "rhf"
			},
			{
				"type": "unocc",
				"energy": 0.0562,
				"method": "rhf"
			},
			{
				"type": "unocc",
				"energy": 0.06161,
				"method": "rhf"
			}
		],
		"cosmo_sigma_profile": { 
			"-0.025": 0.0,
			"-0.024": 0.0,
			"-0.023": 0.0,
			"-0.022": 0.0,
			"-0.021": 0.0,
			"-0.02": 0.0,
			"-0.019": 0.0,
			"-0.018": 0.0,
			"-0.017": 0.0,
			"-0.016": 0.0,
			"-0.015": 0.640042741753,
			"-0.014": 2.23104315722,
			"-0.013": 4.12965612605,
			"-0.012": 3.38898585322,
			"-0.011": 3.6079533476,
			"-0.01": 3.43514649031,
			"-0.009": 3.12522970159,
			"-0.008": 6.25976807065,
			"-0.007": 5.83073802195,
			"-0.006": 8.58014812385,
			"-0.005": 7.35563574977,
			"-0.004": 7.36674278435,
			"-0.003": 8.96821351394,
			"-0.002": 9.55247669379,
			"-0.001": 8.48468373835,
			"0.0": 9.92081914187,
			"0.001": 11.8905883061,
			"0.002": 15.3699256769,
			"0.003": 13.7953603056,
			"0.004": 12.6906615559,
			"0.005": 7.36814942079,
			"0.006": 3.16438868859,
			"0.007": 3.50480547165,
			"0.008": 2.33728277322,
			"0.009": 2.76674776236,
			"0.01": 2.71569846139,
			"0.011": 2.42682611268,
			"0.012": 2.26262126781,
			"0.013": 3.07844350686,
			"0.014": 6.14382301884,
			"0.015": 2.10483422691,
			"0.016": 0.0,
			"0.017": 0.0,
			"0.018": 0.0,
			"0.019": 0.0,
			"0.02": 0.0,
			"0.021": 0.0,
			"0.022": 0.0,
			"0.023": 0.0,
			"0.024": 0.0,
			"0.025": 0.0
		}
	}
}
