{
	 "smiles": "ClC(Cl)(Cl)C(=O)C(Cl)(Cl)Cl", 
	 "Tm": 271.15, 
	 "num_atms": 10, 
	 "gaussian": { 
		 "optdone": 1, 
		 "sigma_profile": "yes", 
		 "theory": "DFT", 
		 "functional": "B3LYP", 
		 "basiset": "6-31G**", 
		 "properties": { 
			 "R2extent": 3961.3417, 
			 "electric_dipole_moment_norm": 1.02394577005, 
			 "electric_quadrupole_moment_norm": 2.7565889066, 
			 "total_energy": -2950.62172272, 
			 "HOMO_LUMO_gap": 0.19828, 
			 "cosmo_polarized_energy": -3.36, 
			 "cosmo_cavitation_energy": 24.79, 
			 "cosmo_dispersion_energy": -18.39, 
			 "cosmo_repulsion_energy": 1.48, 
			 "cosmo_total_nonelectrostatic_energy": 7.88, 
			 "SMD_solvation_energy": 3.07 
		},
		"coords": [
			{
				"x": -3.2176294604,
				"y": 1.9052887181,
				"z": 0.4516616993,
				"element": "Cl" 
			},
			{
				"x": -2.504684721,
				"y": 0.5402928274,
				"z": -0.4547175507,
				"element": "C" 
			},
			{
				"x": -3.3391588758,
				"y": 0.3979101385,
				"z": -2.0278379043,
				"element": "Cl" 
			},
			{
				"x": -2.7045424237,
				"y": -1.0009571588,
				"z": 0.4657609436,
				"element": "Cl" 
			},
			{
				"x": -0.9544216377,
				"y": 0.6687286502,
				"z": -0.7235437223,
				"element": "C" 
			},
			{
				"x": -0.5081881485,
				"y": 0.2529156186,
				"z": -1.7518931833,
				"element": "O" 
			},
			{
				"x": 0.0248247132,
				"y": 1.329294026,
				"z": 0.3237782666,
				"element": "C" 
			},
			{
				"x": -0.3979026436,
				"y": 1.0238068459,
				"z": 2.032850135,
				"element": "Cl" 
			},
			{
				"x": -0.0200906059,
				"y": 3.0999966013,
				"z": -0.0299833453,
				"element": "Cl" 
			},
			{
				"x": 1.6732938034,
				"y": 0.7108237328,
				"z": 0.0211246615,
				"element": "Cl" 
			}
		],
		 "valence_orbital": [ 
			{
				"type": "occ",
				"energy": -0.33698,
				"method": "rhf"
			},
			{
				"type": "occ",
				"energy": -0.33396,
				"method": "rhf"
			},
			{
				"type": "occ",
				"energy": -0.3277,
				"method": "rhf"
			},
			{
				"type": "occ",
				"energy": -0.3217,
				"method": "rhf"
			},
			{
				"type": "occ",
				"energy": -0.30523,
				"method": "rhf"
			},
			{
				"type": "unocc",
				"energy": -0.10695,
				"method": "rhf"
			},
			{
				"type": "unocc",
				"energy": -0.06669,
				"method": "rhf"
			},
			{
				"type": "unocc",
				"energy": -0.05508,
				"method": "rhf"
			},
			{
				"type": "unocc",
				"energy": -0.02907,
				"method": "rhf"
			},
			{
				"type": "unocc",
				"energy": -0.0213,
				"method": "rhf"
			}
		],
		"cosmo_sigma_profile": { 
			"-0.025": 0.0,
			"-0.024": 0.0,
			"-0.023": 0.0,
			"-0.022": 0.0,
			"-0.021": 0.0,
			"-0.02": 0.0,
			"-0.019": 0.0,
			"-0.018": 0.0,
			"-0.017": 0.0,
			"-0.016": 0.0,
			"-0.015": 0.0,
			"-0.014": 0.0,
			"-0.013": 0.0,
			"-0.012": 0.0,
			"-0.011": 0.0,
			"-0.01": 0.0246240182747,
			"-0.009": 0.646366827322,
			"-0.008": 1.2268393548,
			"-0.007": 1.293073103,
			"-0.006": 3.10392701737,
			"-0.005": 8.89061884508,
			"-0.004": 11.7630145308,
			"-0.003": 14.7369304102,
			"-0.002": 15.1660801722,
			"-0.001": 18.9080891783,
			"0.0": 26.4750855371,
			"0.001": 45.3708859313,
			"0.002": 45.0048020259,
			"0.003": 4.09411851946,
			"0.004": 3.88516584138,
			"0.005": 2.73049102038,
			"0.006": 4.0343250533,
			"0.007": 4.02364417735,
			"0.008": 0.311468314518,
			"0.009": 0.0,
			"0.01": 0.0,
			"0.011": 0.0,
			"0.012": 0.0,
			"0.013": 0.0,
			"0.014": 0.0,
			"0.015": 0.0,
			"0.016": 0.0,
			"0.017": 0.0,
			"0.018": 0.0,
			"0.019": 0.0,
			"0.02": 0.0,
			"0.021": 0.0,
			"0.022": 0.0,
			"0.023": 0.0,
			"0.024": 0.0,
			"0.025": 0.0
		}
	}
}
