{
	 "smiles": "NC1=CN=C(C=C1)C#N", 
	 "Tm": 423.15, 
	 "num_atms": 14, 
	 "gaussian": { 
		 "optdone": 1, 
		 "sigma_profile": "yes", 
		 "theory": "DFT", 
		 "functional": "B3LYP", 
		 "basiset": "6-31G**", 
		 "properties": { 
			 "R2extent": 1462.7478, 
			 "electric_dipole_moment_norm": 7.85332519765, 
			 "electric_quadrupole_moment_norm": 5.83238670529, 
			 "total_energy": -395.883040122, 
			 "HOMO_LUMO_gap": 0.18586, 
			 "cosmo_polarized_energy": -17.62, 
			 "cosmo_cavitation_energy": 19.71, 
			 "cosmo_dispersion_energy": -14.21, 
			 "cosmo_repulsion_energy": 1.17, 
			 "cosmo_total_nonelectrostatic_energy": 6.67, 
			 "SMD_solvation_energy": 3.53 
		},
		"coords": [
			{
				"x": -2.257523025,
				"y": 2.2771196352,
				"z": -1.708646743,
				"element": "N" 
			},
			{
				"x": -1.4179533992,
				"y": 1.2462194961,
				"z": -1.3438476047,
				"element": "C" 
			},
			{
				"x": -0.0361378945,
				"y": 1.4739497945,
				"z": -1.1432465779,
				"element": "C" 
			},
			{
				"x": 0.837646482,
				"y": 0.5266280552,
				"z": -0.8361283405,
				"element": "N" 
			},
			{
				"x": 0.3840894922,
				"y": -0.7342508496,
				"z": -0.7066815334,
				"element": "C" 
			},
			{
				"x": -0.965389339,
				"y": -1.0738347385,
				"z": -0.8828114691,
				"element": "C" 
			},
			{
				"x": -1.8736076318,
				"y": -0.0751672688,
				"z": -1.2035500618,
				"element": "C" 
			},
			{
				"x": 1.3455669774,
				"y": -1.7511505032,
				"z": -0.3704374932,
				"element": "C" 
			},
			{
				"x": 2.0941416443,
				"y": -2.5988077218,
				"z": -0.0986461511,
				"element": "N" 
			},
			{
				"x": -1.9357795059,
				"y": 3.2181436454,
				"z": -1.5362389402,
				"element": "H" 
			},
			{
				"x": -3.247233443,
				"y": 2.1479927282,
				"z": -1.5603333185,
				"element": "H" 
			},
			{
				"x": 0.3597481893,
				"y": 2.484790225,
				"z": -1.2429254026,
				"element": "H" 
			},
			{
				"x": -1.2874405028,
				"y": -2.1030730817,
				"z": -0.7663162773,
				"element": "H" 
			},
			{
				"x": -2.9244280439,
				"y": -0.3110594159,
				"z": -1.3479900865,
				"element": "H" 
			}
		],
		 "valence_orbital": [ 
			{
				"type": "occ",
				"energy": -0.3246,
				"method": "rhf"
			},
			{
				"type": "occ",
				"energy": -0.32438,
				"method": "rhf"
			},
			{
				"type": "occ",
				"energy": -0.29768,
				"method": "rhf"
			},
			{
				"type": "occ",
				"energy": -0.27546,
				"method": "rhf"
			},
			{
				"type": "occ",
				"energy": -0.23216,
				"method": "rhf"
			},
			{
				"type": "unocc",
				"energy": -0.0463,
				"method": "rhf"
			},
			{
				"type": "unocc",
				"energy": -0.03396,
				"method": "rhf"
			},
			{
				"type": "unocc",
				"energy": 0.04367,
				"method": "rhf"
			},
			{
				"type": "unocc",
				"energy": 0.05364,
				"method": "rhf"
			},
			{
				"type": "unocc",
				"energy": 0.08584,
				"method": "rhf"
			}
		],
		"cosmo_sigma_profile": { 
			"-0.025": 0.0,
			"-0.024": 0.0,
			"-0.023": 0.0,
			"-0.022": 0.0,
			"-0.021": 0.0,
			"-0.02": 0.0,
			"-0.019": 0.0,
			"-0.018": 0.0,
			"-0.017": 0.0,
			"-0.016": 0.0,
			"-0.015": 0.100096283507,
			"-0.014": 2.27066771873,
			"-0.013": 3.56784261786,
			"-0.012": 3.17790048001,
			"-0.011": 3.12076347173,
			"-0.01": 3.69721619965,
			"-0.009": 3.44486228444,
			"-0.008": 6.88696528022,
			"-0.007": 5.82412348513,
			"-0.006": 7.05110906558,
			"-0.005": 5.61200992629,
			"-0.004": 4.97921444701,
			"-0.003": 5.69106876113,
			"-0.002": 5.87306213121,
			"-0.001": 7.57570014352,
			"0.0": 13.906517857,
			"0.001": 13.3915453979,
			"0.002": 9.22212017752,
			"0.003": 5.99005685597,
			"0.004": 6.38252348819,
			"0.005": 4.82733392233,
			"0.006": 5.14234285432,
			"0.007": 4.62482493434,
			"0.008": 5.50687558249,
			"0.009": 4.79500189178,
			"0.01": 5.02395224674,
			"0.011": 4.33522982818,
			"0.012": 2.82305054162,
			"0.013": 2.94657873474,
			"0.014": 1.13128894786,
			"0.015": 0.18653224398,
			"0.016": 0.0,
			"0.017": 0.0,
			"0.018": 0.0,
			"0.019": 0.0,
			"0.02": 0.0,
			"0.021": 0.0,
			"0.022": 0.0,
			"0.023": 0.0,
			"0.024": 0.0,
			"0.025": 0.0
		}
	}
}
