{
	 "smiles": "CCN(CC)S(=O)(=O)CC(O)=O", 
	 "Tm": 333.15, 
	 "num_atms": 25, 
	 "gaussian": { 
		 "optdone": 1, 
		 "sigma_profile": "yes", 
		 "theory": "DFT", 
		 "functional": "B3LYP", 
		 "basiset": "6-31G**", 
		 "properties": { 
			 "R2extent": 2921.3064, 
			 "electric_dipole_moment_norm": 3.97439847273, 
			 "electric_quadrupole_moment_norm": 11.6685142872, 
			 "total_energy": -990.249649397, 
			 "HOMO_LUMO_gap": 0.23643, 
			 "cosmo_polarized_energy": -19.31, 
			 "cosmo_cavitation_energy": 29.39, 
			 "cosmo_dispersion_energy": -20.74, 
			 "cosmo_repulsion_energy": 1.63, 
			 "cosmo_total_nonelectrostatic_energy": 10.28, 
			 "SMD_solvation_energy": 5.8 
		},
		"coords": [
			{
				"x": 0.4761094593,
				"y": 0.4367087765,
				"z": 2.4450720662,
				"element": "C" 
			},
			{
				"x": 0.3348141641,
				"y": -0.6573889727,
				"z": 1.38408193,
				"element": "C" 
			},
			{
				"x": -0.7984027517,
				"y": -0.483084268,
				"z": 0.4589006826,
				"element": "N" 
			},
			{
				"x": -2.1385339583,
				"y": -1.0033435469,
				"z": 0.7842059627,
				"element": "C" 
			},
			{
				"x": -3.0374227563,
				"y": -0.0339513595,
				"z": 1.5553913371,
				"element": "C" 
			},
			{
				"x": -0.5666027979,
				"y": 0.3658505643,
				"z": -0.9495989985,
				"element": "S" 
			},
			{
				"x": -1.8798477948,
				"y": 0.7964102829,
				"z": -1.4296914367,
				"element": "O" 
			},
			{
				"x": 0.5381602003,
				"y": 1.3058554122,
				"z": -0.7462673726,
				"element": "O" 
			},
			{
				"x": 0.0630016846,
				"y": -0.9126361286,
				"z": -2.1136026432,
				"element": "C" 
			},
			{
				"x": 0.7262264948,
				"y": -0.3142479036,
				"z": -3.3379787758,
				"element": "C" 
			},
			{
				"x": -0.1532209716,
				"y": 0.3623360255,
				"z": -4.1021471462,
				"element": "O" 
			},
			{
				"x": 1.8980801054,
				"y": -0.4390448761,
				"z": -3.6056095808,
				"element": "O" 
			},
			{
				"x": 0.6018434239,
				"y": 1.4097188944,
				"z": 1.9652423885,
				"element": "H" 
			},
			{
				"x": -0.3970257133,
				"y": 0.4781451468,
				"z": 3.1020074164,
				"element": "H" 
			},
			{
				"x": 1.3566001704,
				"y": 0.2390392892,
				"z": 3.0664187798,
				"element": "H" 
			},
			{
				"x": 1.2559549268,
				"y": -0.7046460256,
				"z": 0.7949636685,
				"element": "H" 
			},
			{
				"x": 0.209428658,
				"y": -1.6400747305,
				"z": 1.8543599766,
				"element": "H" 
			},
			{
				"x": -1.9830105745,
				"y": -1.9259675203,
				"z": 1.3558852467,
				"element": "H" 
			},
			{
				"x": -2.6337627494,
				"y": -1.2863656236,
				"z": -0.1486737651,
				"element": "H" 
			},
			{
				"x": -4.0121526358,
				"y": -0.4993822232,
				"z": 1.7394755824,
				"element": "H" 
			},
			{
				"x": -2.6055380731,
				"y": 0.2381749385,
				"z": 2.5223006792,
				"element": "H" 
			},
			{
				"x": -3.1943912353,
				"y": 0.8763788534,
				"z": 0.9725528243,
				"element": "H" 
			},
			{
				"x": 0.8049014408,
				"y": -1.5052481854,
				"z": -1.5788808615,
				"element": "H" 
			},
			{
				"x": -0.797321887,
				"y": -1.5255443685,
				"z": -2.3921182467,
				"element": "H" 
			},
			{
				"x": 0.3543131706,
				"y": 0.7431075486,
				"z": -4.8387897138,
				"element": "H" 
			}
		],
		 "valence_orbital": [ 
			{
				"type": "occ",
				"energy": -0.31857,
				"method": "rhf"
			},
			{
				"type": "occ",
				"energy": -0.30663,
				"method": "rhf"
			},
			{
				"type": "occ",
				"energy": -0.30257,
				"method": "rhf"
			},
			{
				"type": "occ",
				"energy": -0.28795,
				"method": "rhf"
			},
			{
				"type": "occ",
				"energy": -0.25501,
				"method": "rhf"
			},
			{
				"type": "unocc",
				"energy": -0.01858,
				"method": "rhf"
			},
			{
				"type": "unocc",
				"energy": 0.06,
				"method": "rhf"
			},
			{
				"type": "unocc",
				"energy": 0.06977,
				"method": "rhf"
			},
			{
				"type": "unocc",
				"energy": 0.07621,
				"method": "rhf"
			},
			{
				"type": "unocc",
				"energy": 0.08274,
				"method": "rhf"
			}
		],
		"cosmo_sigma_profile": { 
			"-0.025": 0.0,
			"-0.024": 0.0,
			"-0.023": 0.0,
			"-0.022": 0.0,
			"-0.021": 0.0,
			"-0.02": 0.00572916374769,
			"-0.019": 0.702236395076,
			"-0.018": 1.24699585353,
			"-0.017": 1.04560496257,
			"-0.016": 0.21227842326,
			"-0.015": 0.688932734031,
			"-0.014": 0.865278687922,
			"-0.013": 0.784290593868,
			"-0.012": 0.439039895554,
			"-0.011": 1.16053999375,
			"-0.01": 2.56212526326,
			"-0.009": 5.30068707745,
			"-0.008": 4.86423898018,
			"-0.007": 6.00605621184,
			"-0.006": 9.70130973763,
			"-0.005": 13.3341542784,
			"-0.004": 17.2010962627,
			"-0.003": 21.6629335227,
			"-0.002": 18.5023989468,
			"-0.001": 15.3263068123,
			"0.0": 17.5944369638,
			"0.001": 15.9858227604,
			"0.002": 7.11719524471,
			"0.003": 5.45324344679,
			"0.004": 4.79808226051,
			"0.005": 6.06625196745,
			"0.006": 5.31423702536,
			"0.007": 5.28826789266,
			"0.008": 6.98988028291,
			"0.009": 6.05298744772,
			"0.01": 12.1979181485,
			"0.011": 12.7583029936,
			"0.012": 2.74824790211,
			"0.013": 0.0,
			"0.014": 0.0,
			"0.015": 0.0,
			"0.016": 0.0,
			"0.017": 0.0,
			"0.018": 0.0,
			"0.019": 0.0,
			"0.02": 0.0,
			"0.021": 0.0,
			"0.022": 0.0,
			"0.023": 0.0,
			"0.024": 0.0,
			"0.025": 0.0
		}
	}
}
