{
	 "smiles": "CSCCC(N1C(=O)C2CCCCC2C1=O)C(O)=O", 
	 "Tm": 542.15, 
	 "num_atms": 38, 
	 "gaussian": { 
		 "optdone": 1, 
		 "sigma_profile": "yes", 
		 "theory": "DFT", 
		 "functional": "B3LYP", 
		 "basiset": "6-31G**", 
		 "properties": { 
			 "R2extent": 6074.3423, 
			 "electric_dipole_moment_norm": 6.58250985035, 
			 "electric_quadrupole_moment_norm": 16.0469820001, 
			 "total_energy": -1260.72571044, 
			 "HOMO_LUMO_gap": 0.1715, 
			 "cosmo_polarized_energy": -19.67, 
			 "cosmo_cavitation_energy": 40.09, 
			 "cosmo_dispersion_energy": -27.4, 
			 "cosmo_repulsion_energy": 2.07, 
			 "cosmo_total_nonelectrostatic_energy": 14.77, 
			 "SMD_solvation_energy": 7.53 
		},
		"coords": [
			{
				"x": 0.3863292099,
				"y": -4.7787715709,
				"z": -1.6329213399,
				"element": "C" 
			},
			{
				"x": -1.1548789251,
				"y": -4.4584162623,
				"z": -0.7029548622,
				"element": "S" 
			},
			{
				"x": -1.0680437763,
				"y": -2.6364839073,
				"z": -0.5098011588,
				"element": "C" 
			},
			{
				"x": -1.2295730225,
				"y": -1.8586581424,
				"z": -1.8182299273,
				"element": "C" 
			},
			{
				"x": -1.2863142928,
				"y": -0.3399510905,
				"z": -1.6232793869,
				"element": "C" 
			},
			{
				"x": -0.08184994,
				"y": 0.2675687315,
				"z": -1.0031935544,
				"element": "N" 
			},
			{
				"x": 1.2544444026,
				"y": -0.1774438221,
				"z": -1.0860449629,
				"element": "C" 
			},
			{
				"x": 1.6321955641,
				"y": -1.1715811125,
				"z": -1.6654324694,
				"element": "O" 
			},
			{
				"x": 2.1331103736,
				"y": 0.8112704577,
				"z": -0.3172200564,
				"element": "C" 
			},
			{
				"x": 3.052274039,
				"y": 0.1069201307,
				"z": 0.694975064,
				"element": "C" 
			},
			{
				"x": 2.2804527633,
				"y": -0.5544085043,
				"z": 1.854848721,
				"element": "C" 
			},
			{
				"x": 1.0806941091,
				"y": 0.2936894786,
				"z": 2.3666795771,
				"element": "C" 
			},
			{
				"x": 1.118981085,
				"y": 1.7449322609,
				"z": 1.8680528071,
				"element": "C" 
			},
			{
				"x": 1.1482086294,
				"y": 1.8171830743,
				"z": 0.3234699498,
				"element": "C" 
			},
			{
				"x": -0.1969344517,
				"y": 1.4432991021,
				"z": -0.2737839377,
				"element": "C" 
			},
			{
				"x": -1.2472598989,
				"y": 2.0653381588,
				"z": -0.1589645391,
				"element": "O" 
			},
			{
				"x": -1.6020198744,
				"y": 0.3928206848,
				"z": -2.9540072381,
				"element": "C" 
			},
			{
				"x": -1.9495599468,
				"y": 1.6847545107,
				"z": -2.8169133821,
				"element": "O" 
			},
			{
				"x": -1.5517999961,
				"y": -0.1449488299,
				"z": -4.0317142315,
				"element": "O" 
			},
			{
				"x": 0.3383737205,
				"y": -4.383475787,
				"z": -2.6494789729,
				"element": "H" 
			},
			{
				"x": 0.4975537354,
				"y": -5.8642292146,
				"z": -1.681555886,
				"element": "H" 
			},
			{
				"x": 1.250250922,
				"y": -4.3541189405,
				"z": -1.1156279984,
				"element": "H" 
			},
			{
				"x": -1.8789232483,
				"y": -2.3972561836,
				"z": 0.1877036401,
				"element": "H" 
			},
			{
				"x": -0.1236072963,
				"y": -2.3920788059,
				"z": -0.0145377551,
				"element": "H" 
			},
			{
				"x": -0.4360654019,
				"y": -2.1051132295,
				"z": -2.5218604408,
				"element": "H" 
			},
			{
				"x": -2.1745648812,
				"y": -2.1402076368,
				"z": -2.2922464166,
				"element": "H" 
			},
			{
				"x": -2.0971455607,
				"y": -0.0950921313,
				"z": -0.9254416291,
				"element": "H" 
			},
			{
				"x": 2.7541855335,
				"y": 1.306374316,
				"z": -1.0732525519,
				"element": "H" 
			},
			{
				"x": 3.7496099648,
				"y": 0.8560157264,
				"z": 1.087092374,
				"element": "H" 
			},
			{
				"x": 3.6550312945,
				"y": -0.6383212152,
				"z": 0.1677669394,
				"element": "H" 
			},
			{
				"x": 1.9201749274,
				"y": -1.5382943854,
				"z": 1.534646833,
				"element": "H" 
			},
			{
				"x": 2.9842284792,
				"y": -0.7454968393,
				"z": 2.671621563,
				"element": "H" 
			},
			{
				"x": 0.1378870345,
				"y": -0.1642661407,
				"z": 2.042249297,
				"element": "H" 
			},
			{
				"x": 1.0501355015,
				"y": 0.2862201689,
				"z": 3.4607098387,
				"element": "H" 
			},
			{
				"x": 2.0095960937,
				"y": 2.2544097733,
				"z": 2.2535367825,
				"element": "H" 
			},
			{
				"x": 0.2516277934,
				"y": 2.3050824289,
				"z": 2.2315105117,
				"element": "H" 
			},
			{
				"x": 1.3547159166,
				"y": 2.8486111835,
				"z": 0.019855193,
				"element": "H" 
			},
			{
				"x": -1.9505205802,
				"y": 1.9441235652,
				"z": -1.870556394,
				"element": "H" 
			}
		],
		 "valence_orbital": [ 
			{
				"type": "occ",
				"energy": -0.30715,
				"method": "rhf"
			},
			{
				"type": "occ",
				"energy": -0.30233,
				"method": "rhf"
			},
			{
				"type": "occ",
				"energy": -0.27963,
				"method": "rhf"
			},
			{
				"type": "occ",
				"energy": -0.2681,
				"method": "rhf"
			},
			{
				"type": "occ",
				"energy": -0.21955,
				"method": "rhf"
			},
			{
				"type": "unocc",
				"energy": -0.04805,
				"method": "rhf"
			},
			{
				"type": "unocc",
				"energy": -0.0123,
				"method": "rhf"
			},
			{
				"type": "unocc",
				"energy": 0.00748,
				"method": "rhf"
			},
			{
				"type": "unocc",
				"energy": 0.03817,
				"method": "rhf"
			},
			{
				"type": "unocc",
				"energy": 0.05437,
				"method": "rhf"
			}
		],
		"cosmo_sigma_profile": { 
			"-0.025": 0.0,
			"-0.024": 0.0,
			"-0.023": 0.0,
			"-0.022": 0.0,
			"-0.021": 0.0,
			"-0.02": 0.0,
			"-0.019": 0.0,
			"-0.018": 0.0,
			"-0.017": 0.0,
			"-0.016": 0.0,
			"-0.015": 0.0,
			"-0.014": 0.0,
			"-0.013": 0.0,
			"-0.012": 0.000622798741597,
			"-0.011": 0.403230841602,
			"-0.01": 1.3431362429,
			"-0.009": 3.33720685228,
			"-0.008": 6.72876414353,
			"-0.007": 11.4607880059,
			"-0.006": 16.32417267,
			"-0.005": 19.7394243273,
			"-0.004": 30.4016556646,
			"-0.003": 30.8820102032,
			"-0.002": 32.0370279796,
			"-0.001": 32.4503699441,
			"0.0": 20.368648106,
			"0.001": 12.3279231549,
			"0.002": 9.22949560617,
			"0.003": 9.22235682361,
			"0.004": 9.7448088414,
			"0.005": 8.10011347845,
			"0.006": 7.87890795841,
			"0.007": 8.30026372307,
			"0.008": 8.52813764872,
			"0.009": 9.07563667367,
			"0.01": 10.7161918267,
			"0.011": 10.7604905978,
			"0.012": 5.19154255812,
			"0.013": 0.458614847409,
			"0.014": 0.0,
			"0.015": 0.0,
			"0.016": 0.0,
			"0.017": 0.0,
			"0.018": 0.0,
			"0.019": 0.0,
			"0.02": 0.0,
			"0.021": 0.0,
			"0.022": 0.0,
			"0.023": 0.0,
			"0.024": 0.0,
			"0.025": 0.0
		}
	}
}
