{
	 "smiles": "CC1=CC=C(C=C1)C(=O)NC1=CC(CN)=CC=C1", 
	 "Tm": 405.15, 
	 "num_atms": 34, 
	 "gaussian": { 
		 "optdone": 1, 
		 "sigma_profile": "yes", 
		 "theory": "DFT", 
		 "functional": "B3LYP", 
		 "basiset": "6-31G**", 
		 "properties": { 
			 "R2extent": 7587.9989, 
			 "electric_dipole_moment_norm": 3.89710370532, 
			 "electric_quadrupole_moment_norm": 19.7977624746, 
			 "total_energy": -765.99419966, 
			 "HOMO_LUMO_gap": 0.1734, 
			 "cosmo_polarized_energy": -15.59, 
			 "cosmo_cavitation_energy": 37.71, 
			 "cosmo_dispersion_energy": -27.5, 
			 "cosmo_repulsion_energy": 2.13, 
			 "cosmo_total_nonelectrostatic_energy": 12.34, 
			 "SMD_solvation_energy": 5.88 
		},
		"coords": [
			{
				"x": 4.4395015601,
				"y": -4.3783630906,
				"z": 0.8415942785,
				"element": "C" 
			},
			{
				"x": 3.1873247273,
				"y": -3.5597318683,
				"z": 1.0443779614,
				"element": "C" 
			},
			{
				"x": 2.5225546545,
				"y": -2.972980754,
				"z": -0.0395603054,
				"element": "C" 
			},
			{
				"x": 1.383474807,
				"y": -2.1914565268,
				"z": 0.1510371615,
				"element": "C" 
			},
			{
				"x": 0.8750317389,
				"y": -1.9765445529,
				"z": 1.4393113365,
				"element": "C" 
			},
			{
				"x": 1.5215918368,
				"y": -2.5834885402,
				"z": 2.5251428239,
				"element": "C" 
			},
			{
				"x": 2.6614684764,
				"y": -3.3551556072,
				"z": 2.3293917548,
				"element": "C" 
			},
			{
				"x": -0.3543807699,
				"y": -1.1638819685,
				"z": 1.7378502528,
				"element": "C" 
			},
			{
				"x": -0.9982111938,
				"y": -1.338090587,
				"z": 2.7682709361,
				"element": "O" 
			},
			{
				"x": -0.6729500898,
				"y": -0.2199263137,
				"z": 0.7858047137,
				"element": "N" 
			},
			{
				"x": -1.7609709564,
				"y": 0.678049282,
				"z": 0.7532054596,
				"element": "C" 
			},
			{
				"x": -1.8055181585,
				"y": 1.5784948147,
				"z": -0.3222033619,
				"element": "C" 
			},
			{
				"x": -2.8469356103,
				"y": 2.498118749,
				"z": -0.4493550301,
				"element": "C" 
			},
			{
				"x": -2.8595456436,
				"y": 3.4916065041,
				"z": -1.5970612351,
				"element": "C" 
			},
			{
				"x": -2.2543077933,
				"y": 2.9349540452,
				"z": -2.8117291893,
				"element": "N" 
			},
			{
				"x": -3.8629068349,
				"y": 2.5090236001,
				"z": 0.5139275282,
				"element": "C" 
			},
			{
				"x": -3.8163678455,
				"y": 1.6176723393,
				"z": 1.5853625402,
				"element": "C" 
			},
			{
				"x": -2.7769230772,
				"y": 0.6978849192,
				"z": 1.7216072652,
				"element": "C" 
			},
			{
				"x": 4.5213638761,
				"y": -4.7385990983,
				"z": -0.187788458,
				"element": "H" 
			},
			{
				"x": 5.3371468567,
				"y": -3.7841712007,
				"z": 1.0539285712,
				"element": "H" 
			},
			{
				"x": 4.4623662855,
				"y": -5.2458117242,
				"z": 1.5087006888,
				"element": "H" 
			},
			{
				"x": 2.8937729937,
				"y": -3.1384047598,
				"z": -1.0477542223,
				"element": "H" 
			},
			{
				"x": 0.8746968406,
				"y": -1.7901416117,
				"z": -0.7216833345,
				"element": "H" 
			},
			{
				"x": 1.1054449447,
				"y": -2.4383357978,
				"z": 3.5163014816,
				"element": "H" 
			},
			{
				"x": 3.1520210401,
				"y": -3.8121171115,
				"z": 3.185416838,
				"element": "H" 
			},
			{
				"x": 0.0026404297,
				"y": -0.0868068643,
				"z": 0.0480672085,
				"element": "H" 
			},
			{
				"x": -1.0313141081,
				"y": 1.5667073631,
				"z": -1.0853834341,
				"element": "H" 
			},
			{
				"x": -2.2641230793,
				"y": 4.3710795827,
				"z": -1.3145835667,
				"element": "H" 
			},
			{
				"x": -3.892759337,
				"y": 3.8551327434,
				"z": -1.7317058831,
				"element": "H" 
			},
			{
				"x": -2.8457999315,
				"y": 2.1940433691,
				"z": -3.1812354384,
				"element": "H" 
			},
			{
				"x": -2.1981418626,
				"y": 3.6516471219,
				"z": -3.5303566676,
				"element": "H" 
			},
			{
				"x": -4.6870651151,
				"y": 3.2121459513,
				"z": 0.4229134943,
				"element": "H" 
			},
			{
				"x": -4.6070440507,
				"y": 1.6299119749,
				"z": 2.3305410291,
				"element": "H" 
			},
			{
				"x": -2.7379356104,
				"y": 0.0068356178,
				"z": 2.5509468027,
				"element": "H" 
			}
		],
		 "valence_orbital": [ 
			{
				"type": "occ",
				"energy": -0.25416,
				"method": "rhf"
			},
			{
				"type": "occ",
				"energy": -0.24684,
				"method": "rhf"
			},
			{
				"type": "occ",
				"energy": -0.24253,
				"method": "rhf"
			},
			{
				"type": "occ",
				"energy": -0.23263,
				"method": "rhf"
			},
			{
				"type": "occ",
				"energy": -0.21104,
				"method": "rhf"
			},
			{
				"type": "unocc",
				"energy": -0.03764,
				"method": "rhf"
			},
			{
				"type": "unocc",
				"energy": -0.00843,
				"method": "rhf"
			},
			{
				"type": "unocc",
				"energy": 0.00518,
				"method": "rhf"
			},
			{
				"type": "unocc",
				"energy": 0.01357,
				"method": "rhf"
			},
			{
				"type": "unocc",
				"energy": 0.06669,
				"method": "rhf"
			}
		],
		"cosmo_sigma_profile": { 
			"-0.025": 0.0,
			"-0.024": 0.0,
			"-0.023": 0.0,
			"-0.022": 0.0,
			"-0.021": 0.0,
			"-0.02": 0.0,
			"-0.019": 0.0,
			"-0.018": 0.0,
			"-0.017": 0.0,
			"-0.016": 0.0,
			"-0.015": 0.118645858086,
			"-0.014": 1.02970383594,
			"-0.013": 1.4776750368,
			"-0.012": 1.1342714147,
			"-0.011": 1.57748684262,
			"-0.01": 3.31473685112,
			"-0.009": 3.79026618431,
			"-0.008": 4.40495699388,
			"-0.007": 5.15292881425,
			"-0.006": 7.86374429444,
			"-0.005": 16.8786475113,
			"-0.004": 26.3570261395,
			"-0.003": 26.5047258005,
			"-0.002": 25.0189517076,
			"-0.001": 25.5300985371,
			"0.0": 20.2228899036,
			"0.001": 17.9201414681,
			"0.002": 17.3295396276,
			"0.003": 20.5114223999,
			"0.004": 22.5572184523,
			"0.005": 18.1627764483,
			"0.006": 9.81043242361,
			"0.007": 3.60789540566,
			"0.008": 2.34981419112,
			"0.009": 2.73665388254,
			"0.01": 2.08586610027,
			"0.011": 2.48666553909,
			"0.012": 3.33699036988,
			"0.013": 3.55884762677,
			"0.014": 1.12464940217,
			"0.015": 0.466494369026,
			"0.016": 0.580813566962,
			"0.017": 0.275943548012,
			"0.018": 0.0,
			"0.019": 0.0,
			"0.02": 0.0,
			"0.021": 0.0,
			"0.022": 0.0,
			"0.023": 0.0,
			"0.024": 0.0,
			"0.025": 0.0
		}
	}
}
