{
	 "smiles": "OCC1C(O)CC2OC(=O)CC12", 
	 "Tm": 389.15, 
	 "num_atms": 24, 
	 "gaussian": { 
		 "optdone": 1, 
		 "sigma_profile": "yes", 
		 "theory": "DFT", 
		 "functional": "B3LYP", 
		 "basiset": "6-31G**", 
		 "properties": { 
			 "R2extent": 2019.2073, 
			 "electric_dipole_moment_norm": 2.51713006815, 
			 "electric_quadrupole_moment_norm": 19.3759423182, 
			 "total_energy": -612.969812681, 
			 "HOMO_LUMO_gap": 0.25895, 
			 "cosmo_polarized_energy": -17.76, 
			 "cosmo_cavitation_energy": 24.75, 
			 "cosmo_dispersion_energy": -18.96, 
			 "cosmo_repulsion_energy": 1.52, 
			 "cosmo_total_nonelectrostatic_energy": 7.31, 
			 "SMD_solvation_energy": 4.56 
		},
		"coords": [
			{
				"x": 2.8085735305,
				"y": 1.3864749573,
				"z": 0.2531634568,
				"element": "O" 
			},
			{
				"x": 1.3854816408,
				"y": 1.2335611882,
				"z": 0.3693111081,
				"element": "C" 
			},
			{
				"x": 0.834234543,
				"y": 1.0319611292,
				"z": -1.0470780109,
				"element": "C" 
			},
			{
				"x": 1.2775388021,
				"y": -0.3213760361,
				"z": -1.6725348237,
				"element": "C" 
			},
			{
				"x": 2.6380747458,
				"y": -0.6640540559,
				"z": -1.5500719373,
				"element": "O" 
			},
			{
				"x": 0.3161898474,
				"y": -1.3559858177,
				"z": -1.0329428776,
				"element": "C" 
			},
			{
				"x": -1.0003060948,
				"y": -0.5957838096,
				"z": -0.8208052529,
				"element": "C" 
			},
			{
				"x": -1.4156037878,
				"y": -0.6303054994,
				"z": 0.5689077402,
				"element": "O" 
			},
			{
				"x": -1.771776592,
				"y": 0.6067375425,
				"z": 1.0219880857,
				"element": "C" 
			},
			{
				"x": -2.1723314695,
				"y": 0.7941375617,
				"z": 2.141271943,
				"element": "O" 
			},
			{
				"x": -1.5766355494,
				"y": 1.6309765994,
				"z": -0.0946521708,
				"element": "C" 
			},
			{
				"x": -0.7104082888,
				"y": 0.9050857613,
				"z": -1.1250843899,
				"element": "C" 
			},
			{
				"x": 3.1891857102,
				"y": 1.4070508262,
				"z": 1.1403706995,
				"element": "H" 
			},
			{
				"x": 1.1406654554,
				"y": 0.3813843406,
				"z": 1.0174298356,
				"element": "H" 
			},
			{
				"x": 0.9528984928,
				"y": 2.1334736923,
				"z": 0.8261472829,
				"element": "H" 
			},
			{
				"x": 1.1903445027,
				"y": 1.8746883332,
				"z": -1.6502026479,
				"element": "H" 
			},
			{
				"x": 1.0482550721,
				"y": -0.2666033389,
				"z": -2.7482650199,
				"element": "H" 
			},
			{
				"x": 3.0302457155,
				"y": -0.0688870881,
				"z": -0.8890393421,
				"element": "H" 
			},
			{
				"x": 0.7109685294,
				"y": -1.6825547126,
				"z": -0.0662398091,
				"element": "H" 
			},
			{
				"x": 0.2014458091,
				"y": -2.2473616105,
				"z": -1.6543911653,
				"element": "H" 
			},
			{
				"x": -1.8315698385,
				"y": -0.9923311794,
				"z": -1.4128254496,
				"element": "H" 
			},
			{
				"x": -2.5657887563,
				"y": 1.8674377103,
				"z": -0.5043089131,
				"element": "H" 
			},
			{
				"x": -1.1699278001,
				"y": 2.5599213898,
				"z": 0.3091596698,
				"element": "H" 
			},
			{
				"x": -1.0149542194,
				"y": 1.1436521164,
				"z": -2.1480080112,
				"element": "H" 
			}
		],
		 "valence_orbital": [ 
			{
				"type": "occ",
				"energy": -0.31721,
				"method": "rhf"
			},
			{
				"type": "occ",
				"energy": -0.29982,
				"method": "rhf"
			},
			{
				"type": "occ",
				"energy": -0.2852,
				"method": "rhf"
			},
			{
				"type": "occ",
				"energy": -0.27005,
				"method": "rhf"
			},
			{
				"type": "occ",
				"energy": -0.2526,
				"method": "rhf"
			},
			{
				"type": "unocc",
				"energy": 0.00635,
				"method": "rhf"
			},
			{
				"type": "unocc",
				"energy": 0.04816,
				"method": "rhf"
			},
			{
				"type": "unocc",
				"energy": 0.05692,
				"method": "rhf"
			},
			{
				"type": "unocc",
				"energy": 0.09057,
				"method": "rhf"
			},
			{
				"type": "unocc",
				"energy": 0.09139,
				"method": "rhf"
			}
		],
		"cosmo_sigma_profile": { 
			"-0.025": 0.0,
			"-0.024": 0.0,
			"-0.023": 0.0,
			"-0.022": 0.0,
			"-0.021": 0.0,
			"-0.02": 0.0,
			"-0.019": 0.0,
			"-0.018": 0.0,
			"-0.017": 0.50924348046,
			"-0.016": 1.18845621135,
			"-0.015": 1.1129417119,
			"-0.014": 1.10621271863,
			"-0.013": 0.537889545878,
			"-0.012": 0.90729753431,
			"-0.011": 1.14312847236,
			"-0.01": 0.922808334856,
			"-0.009": 0.970770247612,
			"-0.008": 1.71300476711,
			"-0.007": 8.07035482826,
			"-0.006": 14.2714743492,
			"-0.005": 20.750740609,
			"-0.004": 22.8607992107,
			"-0.003": 19.5380509458,
			"-0.002": 12.3620295684,
			"-0.001": 7.12009835721,
			"0.0": 6.75681803641,
			"0.001": 5.79169923103,
			"0.002": 4.91467209545,
			"0.003": 3.99923487944,
			"0.004": 5.38721058034,
			"0.005": 4.00674735818,
			"0.006": 3.58362018492,
			"0.007": 4.18264557215,
			"0.008": 4.26005372966,
			"0.009": 4.68820633283,
			"0.01": 6.81505716803,
			"0.011": 6.76483964746,
			"0.012": 7.15398303597,
			"0.013": 4.67999170687,
			"0.014": 2.13113520679,
			"0.015": 1.78327356308,
			"0.016": 0.311688573433,
			"0.017": 0.0,
			"0.018": 0.0,
			"0.019": 0.0,
			"0.02": 0.0,
			"0.021": 0.0,
			"0.022": 0.0,
			"0.023": 0.0,
			"0.024": 0.0,
			"0.025": 0.0
		}
	}
}
