{
	 "smiles": "OC(=O)C=CC1=CC=C(Cl)C=C1", 
	 "Tm": 521.15, 
	 "num_atms": 19, 
	 "gaussian": { 
		 "optdone": 1, 
		 "sigma_profile": "yes", 
		 "theory": "DFT", 
		 "functional": "B3LYP", 
		 "basiset": "6-31G**", 
		 "properties": { 
			 "R2extent": 4313.3104, 
			 "electric_dipole_moment_norm": 1.81091345459, 
			 "electric_quadrupole_moment_norm": 17.7008804233, 
			 "total_energy": -957.820303742, 
			 "HOMO_LUMO_gap": 0.16469, 
			 "cosmo_polarized_energy": -10.95, 
			 "cosmo_cavitation_energy": 26.33, 
			 "cosmo_dispersion_energy": -19.39, 
			 "cosmo_repulsion_energy": 1.55, 
			 "cosmo_total_nonelectrostatic_energy": 8.49, 
			 "SMD_solvation_energy": 5.63 
		},
		"coords": [
			{
				"x": -3.0951518311,
				"y": 2.3382038309,
				"z": 3.5757073881,
				"element": "O" 
			},
			{
				"x": -2.1902696618,
				"y": 1.5308974832,
				"z": 4.1932251448,
				"element": "C" 
			},
			{
				"x": -2.2012078226,
				"y": 1.3512341293,
				"z": 5.3962953837,
				"element": "O" 
			},
			{
				"x": -1.2189559783,
				"y": 0.9114424297,
				"z": 3.2765562222,
				"element": "C" 
			},
			{
				"x": -1.2102026542,
				"y": 1.1135172034,
				"z": 1.94528854,
				"element": "C" 
			},
			{
				"x": -0.283836768,
				"y": 0.5390234482,
				"z": 0.9686661813,
				"element": "C" 
			},
			{
				"x": 0.7636359328,
				"y": -0.335862839,
				"z": 1.3168028872,
				"element": "C" 
			},
			{
				"x": 1.6175175532,
				"y": -0.8554886981,
				"z": 0.3517048891,
				"element": "C" 
			},
			{
				"x": 1.4326735747,
				"y": -0.502851843,
				"z": -0.9882515373,
				"element": "C" 
			},
			{
				"x": 2.5094026246,
				"y": -1.1576407495,
				"z": -2.2077553835,
				"element": "Cl" 
			},
			{
				"x": 0.4062463591,
				"y": 0.3605276852,
				"z": -1.3679091538,
				"element": "C" 
			},
			{
				"x": -0.4408237677,
				"y": 0.8726153667,
				"z": -0.3886006381,
				"element": "C" 
			},
			{
				"x": -3.6664384067,
				"y": 2.6762762029,
				"z": 4.2841349445,
				"element": "H" 
			},
			{
				"x": -0.5032150198,
				"y": 0.2700239422,
				"z": 3.7794334682,
				"element": "H" 
			},
			{
				"x": -1.9700877301,
				"y": 1.774675757,
				"z": 1.5347776802,
				"element": "H" 
			},
			{
				"x": 0.9165729437,
				"y": -0.6162414111,
				"z": 2.353850352,
				"element": "H" 
			},
			{
				"x": 2.4214458653,
				"y": -1.528386751,
				"z": 0.6284856184,
				"element": "H" 
			},
			{
				"x": 0.2745142287,
				"y": 0.6254899052,
				"z": -2.4109566545,
				"element": "H" 
			},
			{
				"x": -1.2421194416,
				"y": 1.5459449079,
				"z": -0.6805553325,
				"element": "H" 
			}
		],
		 "valence_orbital": [ 
			{
				"type": "occ",
				"energy": -0.31836,
				"method": "rhf"
			},
			{
				"type": "occ",
				"energy": -0.30256,
				"method": "rhf"
			},
			{
				"type": "occ",
				"energy": -0.27722,
				"method": "rhf"
			},
			{
				"type": "occ",
				"energy": -0.27444,
				"method": "rhf"
			},
			{
				"type": "occ",
				"energy": -0.24095,
				"method": "rhf"
			},
			{
				"type": "unocc",
				"energy": -0.07626,
				"method": "rhf"
			},
			{
				"type": "unocc",
				"energy": -0.02562,
				"method": "rhf"
			},
			{
				"type": "unocc",
				"energy": 0.00787,
				"method": "rhf"
			},
			{
				"type": "unocc",
				"energy": 0.02075,
				"method": "rhf"
			},
			{
				"type": "unocc",
				"energy": 0.07765,
				"method": "rhf"
			}
		],
		"cosmo_sigma_profile": { 
			"-0.025": 0.0,
			"-0.024": 0.0,
			"-0.023": 0.0,
			"-0.022": 0.0,
			"-0.021": 0.0,
			"-0.02": 0.0,
			"-0.019": 0.0,
			"-0.018": 0.34487942406,
			"-0.017": 1.10186864297,
			"-0.016": 0.627940987488,
			"-0.015": 0.917947531048,
			"-0.014": 0.795117378585,
			"-0.013": 0.806112190114,
			"-0.012": 0.575723895205,
			"-0.011": 0.966029987791,
			"-0.01": 0.596120561742,
			"-0.009": 1.87484995618,
			"-0.008": 5.66897090775,
			"-0.007": 10.5304268061,
			"-0.006": 10.9459792542,
			"-0.005": 8.78260473437,
			"-0.004": 7.99302652611,
			"-0.003": 8.69662998309,
			"-0.002": 10.7651681259,
			"-0.001": 13.9544378958,
			"0.0": 18.3413478788,
			"0.001": 22.4797387408,
			"0.002": 26.1109819263,
			"0.003": 20.5203173467,
			"0.004": 12.9117066745,
			"0.005": 5.13857427086,
			"0.006": 2.70772733244,
			"0.007": 2.96619019127,
			"0.008": 3.04645058868,
			"0.009": 1.13206222023,
			"0.01": 1.52769791659,
			"0.011": 3.13202794932,
			"0.012": 5.44631349133,
			"0.013": 2.06816907954,
			"0.014": 0.131590887231,
			"0.015": 0.0,
			"0.016": 0.0,
			"0.017": 0.0,
			"0.018": 0.0,
			"0.019": 0.0,
			"0.02": 0.0,
			"0.021": 0.0,
			"0.022": 0.0,
			"0.023": 0.0,
			"0.024": 0.0,
			"0.025": 0.0
		}
	}
}
