{
	 "smiles": "OC1=CC=C(C=C1)N1C=CC=C1", 
	 "Tm": 395.15, 
	 "num_atms": 21, 
	 "gaussian": { 
		 "optdone": 1, 
		 "sigma_profile": "yes", 
		 "theory": "DFT", 
		 "functional": "B3LYP", 
		 "basiset": "6-31G**", 
		 "properties": { 
			 "R2extent": 3121.4639, 
			 "electric_dipole_moment_norm": 1.98055617189, 
			 "electric_quadrupole_moment_norm": 15.5535181727, 
			 "total_energy": -516.439872438, 
			 "HOMO_LUMO_gap": 0.18997, 
			 "cosmo_polarized_energy": -11.01, 
			 "cosmo_cavitation_energy": 24.73, 
			 "cosmo_dispersion_energy": -18.67, 
			 "cosmo_repulsion_energy": 1.44, 
			 "cosmo_total_nonelectrostatic_energy": 7.49, 
			 "SMD_solvation_energy": 5.27 
		},
		"coords": [
			{
				"x": -1.4636692893,
				"y": 5.10867191,
				"z": 1.8198354587,
				"element": "O" 
			},
			{
				"x": -0.9933303926,
				"y": 3.9210077606,
				"z": 1.3325072292,
				"element": "C" 
			},
			{
				"x": -1.1192121021,
				"y": 2.7890048376,
				"z": 2.1425244002,
				"element": "C" 
			},
			{
				"x": -0.6593859911,
				"y": 1.5536008717,
				"z": 1.70082906,
				"element": "C" 
			},
			{
				"x": -0.0606774839,
				"y": 1.4107984393,
				"z": 0.43877664,
				"element": "C" 
			},
			{
				"x": 0.0607097114,
				"y": 2.5515587785,
				"z": -0.3653947877,
				"element": "C" 
			},
			{
				"x": -0.3995034534,
				"y": 3.7911319311,
				"z": 0.0752151142,
				"element": "C" 
			},
			{
				"x": 0.4081513789,
				"y": 0.1458745912,
				"z": -0.0092962189,
				"element": "N" 
			},
			{
				"x": 1.0131531289,
				"y": -0.1156997854,
				"z": -1.2297044322,
				"element": "C" 
			},
			{
				"x": 1.3232775404,
				"y": -1.4521948214,
				"z": -1.2919537543,
				"element": "C" 
			},
			{
				"x": 0.8966050646,
				"y": -2.0437481668,
				"z": -0.067861948,
				"element": "C" 
			},
			{
				"x": 0.3418326803,
				"y": -1.0464738628,
				"z": 0.6962889037,
				"element": "C" 
			},
			{
				"x": -1.3146969069,
				"y": 5.8017992522,
				"z": 1.1639674784,
				"element": "H" 
			},
			{
				"x": -1.5804552711,
				"y": 2.8896852075,
				"z": 3.1192301176,
				"element": "H" 
			},
			{
				"x": -0.7742256063,
				"y": 0.6991319651,
				"z": 2.356127631,
				"element": "H" 
			},
			{
				"x": 0.5151788554,
				"y": 2.49164787,
				"z": -1.3464395258,
				"element": "H" 
			},
			{
				"x": -0.2919960109,
				"y": 4.6599072513,
				"z": -0.5707233107,
				"element": "H" 
			},
			{
				"x": 1.1766521326,
				"y": 0.6617420272,
				"z": -1.9569078028,
				"element": "H" 
			},
			{
				"x": 1.8028912435,
				"y": -1.9478673604,
				"z": -2.1243144004,
				"element": "H" 
			},
			{
				"x": 0.9852188281,
				"y": -3.0814788887,
				"z": 0.2215550894,
				"element": "H" 
			},
			{
				"x": -0.0914180566,
				"y": -1.0961998077,
				"z": 1.6810390584,
				"element": "H" 
			}
		],
		 "valence_orbital": [ 
			{
				"type": "occ",
				"energy": -0.33781,
				"method": "rhf"
			},
			{
				"type": "occ",
				"energy": -0.26367,
				"method": "rhf"
			},
			{
				"type": "occ",
				"energy": -0.25994,
				"method": "rhf"
			},
			{
				"type": "occ",
				"energy": -0.20788,
				"method": "rhf"
			},
			{
				"type": "occ",
				"energy": -0.20048,
				"method": "rhf"
			},
			{
				"type": "unocc",
				"energy": -0.01051,
				"method": "rhf"
			},
			{
				"type": "unocc",
				"energy": -0.00618,
				"method": "rhf"
			},
			{
				"type": "unocc",
				"energy": 0.06345,
				"method": "rhf"
			},
			{
				"type": "unocc",
				"energy": 0.06642,
				"method": "rhf"
			},
			{
				"type": "unocc",
				"energy": 0.08248,
				"method": "rhf"
			}
		],
		"cosmo_sigma_profile": { 
			"-0.025": 0.0,
			"-0.024": 0.0,
			"-0.023": 0.0,
			"-0.022": 0.0,
			"-0.021": 0.0,
			"-0.02": 0.0,
			"-0.019": 0.0,
			"-0.018": 0.178768561038,
			"-0.017": 1.08375049727,
			"-0.016": 0.973020601235,
			"-0.015": 1.31719904009,
			"-0.014": 1.19412167336,
			"-0.013": 0.987095715193,
			"-0.012": 0.723427225848,
			"-0.011": 1.43913516699,
			"-0.01": 1.41910699962,
			"-0.009": 3.89151600546,
			"-0.008": 4.96205609012,
			"-0.007": 6.26010246637,
			"-0.006": 8.17760962786,
			"-0.005": 11.873018048,
			"-0.004": 10.852671164,
			"-0.003": 10.2757870794,
			"-0.002": 10.0298726913,
			"-0.001": 10.0728974767,
			"0.0": 11.2467835531,
			"0.001": 10.4928262379,
			"0.002": 13.5505512786,
			"0.003": 16.2471966586,
			"0.004": 17.2529661038,
			"0.005": 16.8214183361,
			"0.006": 6.74113939874,
			"0.007": 6.80544162066,
			"0.008": 6.8330937111,
			"0.009": 2.81397347082,
			"0.01": 1.28671979704,
			"0.011": 1.97472199033,
			"0.012": 0.81864831512,
			"0.013": 0.0,
			"0.014": 0.0,
			"0.015": 0.0,
			"0.016": 0.0,
			"0.017": 0.0,
			"0.018": 0.0,
			"0.019": 0.0,
			"0.02": 0.0,
			"0.021": 0.0,
			"0.022": 0.0,
			"0.023": 0.0,
			"0.024": 0.0,
			"0.025": 0.0
		}
	}
}
