{
	 "smiles": "CC1=C(C)C=C(NC2CS(=O)(=O)C=C2)C=C1", 
	 "Tm": 451.15, 
	 "num_atms": 31, 
	 "gaussian": { 
		 "optdone": 1, 
		 "sigma_profile": "yes", 
		 "theory": "DFT", 
		 "functional": "B3LYP", 
		 "basiset": "6-31G**", 
		 "properties": { 
			 "R2extent": 5942.1596, 
			 "electric_dipole_moment_norm": 4.52911132343, 
			 "electric_quadrupole_moment_norm": 28.3757078084, 
			 "total_energy": -1069.62395097, 
			 "HOMO_LUMO_gap": 0.16427, 
			 "cosmo_polarized_energy": -18.39, 
			 "cosmo_cavitation_energy": 35.07, 
			 "cosmo_dispersion_energy": -25.59, 
			 "cosmo_repulsion_energy": 1.94, 
			 "cosmo_total_nonelectrostatic_energy": 11.43, 
			 "SMD_solvation_energy": 4.39 
		},
		"coords": [
			{
				"x": 3.0772898824,
				"y": -2.7146411922,
				"z": 1.9373018506,
				"element": "C" 
			},
			{
				"x": 1.9771538815,
				"y": -1.9379892871,
				"z": 1.2544754731,
				"element": "C" 
			},
			{
				"x": 1.2304658725,
				"y": -0.9584671994,
				"z": 1.9490513786,
				"element": "C" 
			},
			{
				"x": 1.5150713904,
				"y": -0.6604291046,
				"z": 3.402097858,
				"element": "C" 
			},
			{
				"x": 0.2231458736,
				"y": -0.2625065457,
				"z": 1.2840482207,
				"element": "C" 
			},
			{
				"x": -0.0825807514,
				"y": -0.4981365216,
				"z": -0.0686622963,
				"element": "C" 
			},
			{
				"x": -1.1463992204,
				"y": 0.2143176025,
				"z": -0.6496565291,
				"element": "N" 
			},
			{
				"x": -1.3108535869,
				"y": 0.3001548082,
				"z": -2.088601025,
				"element": "C" 
			},
			{
				"x": -0.2710683562,
				"y": 1.1825531705,
				"z": -2.8303218626,
				"element": "C" 
			},
			{
				"x": -1.0571187232,
				"y": 2.8240291421,
				"z": -3.0021715425,
				"element": "S" 
			},
			{
				"x": -0.7599601759,
				"y": 3.6471375867,
				"z": -1.817196391,
				"element": "O" 
			},
			{
				"x": -0.8524918016,
				"y": 3.3738440469,
				"z": -4.3494254189,
				"element": "O" 
			},
			{
				"x": -2.7060722649,
				"y": 2.1471681077,
				"z": -2.8343116657,
				"element": "C" 
			},
			{
				"x": -2.681878483,
				"y": 0.8984629336,
				"z": -2.3763123281,
				"element": "C" 
			},
			{
				"x": 0.665135473,
				"y": -1.4627553951,
				"z": -0.7559883571,
				"element": "C" 
			},
			{
				"x": 1.6708386346,
				"y": -2.16473871,
				"z": -0.0877015064,
				"element": "C" 
			},
			{
				"x": 3.8689125399,
				"y": -2.0566878642,
				"z": 2.3173301003,
				"element": "H" 
			},
			{
				"x": 3.541532977,
				"y": -3.424835703,
				"z": 1.2475479084,
				"element": "H" 
			},
			{
				"x": 2.7038314727,
				"y": -3.2845800997,
				"z": 2.7973181588,
				"element": "H" 
			},
			{
				"x": 2.5480165635,
				"y": -0.3224184362,
				"z": 3.5488792122,
				"element": "H" 
			},
			{
				"x": 0.8514150705,
				"y": 0.1186237179,
				"z": 3.7859935988,
				"element": "H" 
			},
			{
				"x": 1.3842594923,
				"y": -1.5509367871,
				"z": 4.028759081,
				"element": "H" 
			},
			{
				"x": -0.3512381418,
				"y": 0.4848839067,
				"z": 1.8279891981,
				"element": "H" 
			},
			{
				"x": -1.3390294872,
				"y": 1.0933319508,
				"z": -0.1837108918,
				"element": "H" 
			},
			{
				"x": -1.2731028802,
				"y": -0.7150129743,
				"z": -2.4961557173,
				"element": "H" 
			},
			{
				"x": -0.0764352235,
				"y": 0.8294191565,
				"z": -3.84557542,
				"element": "H" 
			},
			{
				"x": 0.6647091519,
				"y": 1.2947005994,
				"z": -2.2819657885,
				"element": "H" 
			},
			{
				"x": -3.5612039366,
				"y": 2.7740004077,
				"z": -3.0549492711,
				"element": "H" 
			},
			{
				"x": -3.5715441104,
				"y": 0.3205255979,
				"z": -2.1461321367,
				"element": "H" 
			},
			{
				"x": 0.4794683618,
				"y": -1.6790043915,
				"z": -1.8025327327,
				"element": "H" 
			},
			{
				"x": 2.2389305056,
				"y": -2.9102125235,
				"z": -0.6392211581,
				"element": "H" 
			}
		],
		 "valence_orbital": [ 
			{
				"type": "occ",
				"energy": -0.2982,
				"method": "rhf"
			},
			{
				"type": "occ",
				"energy": -0.28732,
				"method": "rhf"
			},
			{
				"type": "occ",
				"energy": -0.28113,
				"method": "rhf"
			},
			{
				"type": "occ",
				"energy": -0.24318,
				"method": "rhf"
			},
			{
				"type": "occ",
				"energy": -0.20327,
				"method": "rhf"
			},
			{
				"type": "unocc",
				"energy": -0.039,
				"method": "rhf"
			},
			{
				"type": "unocc",
				"energy": 0.0002,
				"method": "rhf"
			},
			{
				"type": "unocc",
				"energy": 0.01124,
				"method": "rhf"
			},
			{
				"type": "unocc",
				"energy": 0.05112,
				"method": "rhf"
			},
			{
				"type": "unocc",
				"energy": 0.07206,
				"method": "rhf"
			}
		],
		"cosmo_sigma_profile": { 
			"-0.025": 0.0,
			"-0.024": 0.0,
			"-0.023": 0.0,
			"-0.022": 0.0,
			"-0.021": 0.0,
			"-0.02": 0.0,
			"-0.019": 0.0,
			"-0.018": 0.0,
			"-0.017": 0.0,
			"-0.016": 0.0,
			"-0.015": 0.0,
			"-0.014": 0.0,
			"-0.013": 0.0,
			"-0.012": 0.160095690012,
			"-0.011": 1.1404481165,
			"-0.01": 3.47114884826,
			"-0.009": 5.69584762073,
			"-0.008": 12.6100251998,
			"-0.007": 12.1177598755,
			"-0.006": 11.0109257221,
			"-0.005": 13.2982297301,
			"-0.004": 21.0806764282,
			"-0.003": 25.9658641897,
			"-0.002": 19.8787209136,
			"-0.001": 19.6887126702,
			"0.0": 22.0771082241,
			"0.001": 18.8938460616,
			"0.002": 10.6045447153,
			"0.003": 8.45786929092,
			"0.004": 8.21725706017,
			"0.005": 9.20771043831,
			"0.006": 10.1264395944,
			"0.007": 8.7451108661,
			"0.008": 3.49313322195,
			"0.009": 4.54365511077,
			"0.01": 5.11789060618,
			"0.011": 11.1732654577,
			"0.012": 9.44469887202,
			"0.013": 1.03782492067,
			"0.014": 0.0,
			"0.015": 0.0,
			"0.016": 0.0,
			"0.017": 0.0,
			"0.018": 0.0,
			"0.019": 0.0,
			"0.02": 0.0,
			"0.021": 0.0,
			"0.022": 0.0,
			"0.023": 0.0,
			"0.024": 0.0,
			"0.025": 0.0
		}
	}
}
