{
	 "smiles": "OC(=O)CSC1=NN=C(NC2CCCCC2)S1", 
	 "Tm": 431.15, 
	 "num_atms": 32, 
	 "gaussian": { 
		 "optdone": 1, 
		 "sigma_profile": "yes", 
		 "theory": "DFT", 
		 "functional": "B3LYP", 
		 "basiset": "6-31G**", 
		 "properties": { 
			 "R2extent": 7936.1483, 
			 "electric_dipole_moment_norm": 3.23874371478, 
			 "electric_quadrupole_moment_norm": 20.6872773682, 
			 "total_energy": -1501.17535432, 
			 "HOMO_LUMO_gap": 0.19301, 
			 "cosmo_polarized_energy": -18.86, 
			 "cosmo_cavitation_energy": 38.0, 
			 "cosmo_dispersion_energy": -28.13, 
			 "cosmo_repulsion_energy": 2.15, 
			 "cosmo_total_nonelectrostatic_energy": 12.02, 
			 "SMD_solvation_energy": 3.73 
		},
		"coords": [
			{
				"x": 4.403692975,
				"y": -0.536568538,
				"z": 3.6793529218,
				"element": "O" 
			},
			{
				"x": 3.5892616426,
				"y": 0.4740581459,
				"z": 3.2966098853,
				"element": "C" 
			},
			{
				"x": 2.8008372486,
				"y": 1.0100693948,
				"z": 4.0351386226,
				"element": "O" 
			},
			{
				"x": 3.8762324871,
				"y": 0.8318142267,
				"z": 1.8434614488,
				"element": "C" 
			},
			{
				"x": 2.6104041513,
				"y": 1.8765810622,
				"z": 1.0596744597,
				"element": "S" 
			},
			{
				"x": 1.3406032168,
				"y": 0.6616719016,
				"z": 0.8934617897,
				"element": "C" 
			},
			{
				"x": 1.4446414204,
				"y": -0.5793137153,
				"z": 1.2481537023,
				"element": "N" 
			},
			{
				"x": 0.3223640319,
				"y": -1.326558787,
				"z": 0.983824727,
				"element": "N" 
			},
			{
				"x": -0.638605467,
				"y": -0.6232805703,
				"z": 0.444416485,
				"element": "C" 
			},
			{
				"x": -1.8813840301,
				"y": -1.126566647,
				"z": 0.1825587031,
				"element": "N" 
			},
			{
				"x": -2.7771800784,
				"y": -0.5978687717,
				"z": -0.8496626596,
				"element": "C" 
			},
			{
				"x": -2.3343975159,
				"y": -0.9597667028,
				"z": -2.2812354433,
				"element": "C" 
			},
			{
				"x": -3.3210968861,
				"y": -0.4207394696,
				"z": -3.3293117143,
				"element": "C" 
			},
			{
				"x": -4.7526195444,
				"y": -0.9052912092,
				"z": -3.0546233588,
				"element": "C" 
			},
			{
				"x": -5.1960544814,
				"y": -0.5526879303,
				"z": -1.6266871907,
				"element": "C" 
			},
			{
				"x": -4.2084379304,
				"y": -1.083366248,
				"z": -0.5756829392,
				"element": "C" 
			},
			{
				"x": -0.2237981457,
				"y": 1.0828362343,
				"z": 0.1792706606,
				"element": "S" 
			},
			{
				"x": 4.1902054766,
				"y": -0.7182077229,
				"z": 4.6100337874,
				"element": "H" 
			},
			{
				"x": 4.0138238473,
				"y": -0.0833969792,
				"z": 1.2662436668,
				"element": "H" 
			},
			{
				"x": 4.8042895432,
				"y": 1.4110815556,
				"z": 1.8005176948,
				"element": "H" 
			},
			{
				"x": -1.9129697153,
				"y": -2.1305816202,
				"z": 0.3227837485,
				"element": "H" 
			},
			{
				"x": -2.7679498651,
				"y": 0.4962179957,
				"z": -0.7457258199,
				"element": "H" 
			},
			{
				"x": -2.2751498321,
				"y": -2.0548525214,
				"z": -2.3585997878,
				"element": "H" 
			},
			{
				"x": -1.3249685761,
				"y": -0.5748937993,
				"z": -2.465278463,
				"element": "H" 
			},
			{
				"x": -2.9997236375,
				"y": -0.7219780097,
				"z": -4.3328371,
				"element": "H" 
			},
			{
				"x": -3.3004386298,
				"y": 0.6782264877,
				"z": -3.3145097943,
				"element": "H" 
			},
			{
				"x": -4.7976024125,
				"y": -1.99529318,
				"z": -3.1893037549,
				"element": "H" 
			},
			{
				"x": -5.4470637107,
				"y": -0.4721924203,
				"z": -3.7838102786,
				"element": "H" 
			},
			{
				"x": -6.1973890035,
				"y": -0.950546566,
				"z": -1.4266668278,
				"element": "H" 
			},
			{
				"x": -5.2716866729,
				"y": 0.5394960412,
				"z": -1.5298453231,
				"element": "H" 
			},
			{
				"x": -4.5085131824,
				"y": -0.7806426132,
				"z": 0.4331845589,
				"element": "H" 
			},
			{
				"x": -4.2155267236,
				"y": -2.1837590242,
				"z": -0.593306407,
				"element": "H" 
			}
		],
		 "valence_orbital": [ 
			{
				"type": "occ",
				"energy": -0.29207,
				"method": "rhf"
			},
			{
				"type": "occ",
				"energy": -0.27733,
				"method": "rhf"
			},
			{
				"type": "occ",
				"energy": -0.25996,
				"method": "rhf"
			},
			{
				"type": "occ",
				"energy": -0.25826,
				"method": "rhf"
			},
			{
				"type": "occ",
				"energy": -0.20649,
				"method": "rhf"
			},
			{
				"type": "unocc",
				"energy": -0.01348,
				"method": "rhf"
			},
			{
				"type": "unocc",
				"energy": -0.00581,
				"method": "rhf"
			},
			{
				"type": "unocc",
				"energy": 0.00717,
				"method": "rhf"
			},
			{
				"type": "unocc",
				"energy": 0.02362,
				"method": "rhf"
			},
			{
				"type": "unocc",
				"energy": 0.04501,
				"method": "rhf"
			}
		],
		"cosmo_sigma_profile": { 
			"-0.025": 0.0,
			"-0.024": 0.0,
			"-0.023": 0.0,
			"-0.022": 0.0,
			"-0.021": 0.0,
			"-0.02": 0.0,
			"-0.019": 0.390210471045,
			"-0.018": 0.793490595615,
			"-0.017": 1.14482318798,
			"-0.016": 0.638518984158,
			"-0.015": 0.990351919277,
			"-0.014": 0.665519938585,
			"-0.013": 1.16103488112,
			"-0.012": 1.50103151153,
			"-0.011": 2.48311709796,
			"-0.01": 4.68301755052,
			"-0.009": 4.14461711438,
			"-0.008": 4.26647690359,
			"-0.007": 5.72241340417,
			"-0.006": 6.34910606134,
			"-0.005": 9.72186755206,
			"-0.004": 11.3664089507,
			"-0.003": 23.3060951438,
			"-0.002": 36.3108172469,
			"-0.001": 36.4507970051,
			"0.0": 38.6692733262,
			"0.001": 24.553201236,
			"0.002": 12.5554142393,
			"0.003": 9.72571267634,
			"0.004": 8.40587236419,
			"0.005": 7.7220307501,
			"0.006": 6.99126241057,
			"0.007": 7.85725527942,
			"0.008": 5.64184158863,
			"0.009": 5.47758150147,
			"0.01": 5.21498431802,
			"0.011": 6.81183666801,
			"0.012": 5.96011967521,
			"0.013": 1.9934635027,
			"0.014": 1.6014423839,
			"0.015": 0.812045026566,
			"0.016": 0.0407895156537,
			"0.017": 0.0,
			"0.018": 0.0,
			"0.019": 0.0,
			"0.02": 0.0,
			"0.021": 0.0,
			"0.022": 0.0,
			"0.023": 0.0,
			"0.024": 0.0,
			"0.025": 0.0
		}
	}
}
