{
	 "smiles": "CC1(C)OC(=O)CC1C(O)=O", 
	 "Tm": 448.15, 
	 "num_atms": 21, 
	 "gaussian": { 
		 "optdone": 1, 
		 "sigma_profile": "yes", 
		 "theory": "DFT", 
		 "functional": "B3LYP", 
		 "basiset": "6-31G**", 
		 "properties": { 
			 "R2extent": 1729.4745, 
			 "electric_dipole_moment_norm": 5.48056644335, 
			 "electric_quadrupole_moment_norm": 6.9927167453, 
			 "total_energy": -573.70071808, 
			 "HOMO_LUMO_gap": 0.25209, 
			 "cosmo_polarized_energy": -16.69, 
			 "cosmo_cavitation_energy": 24.17, 
			 "cosmo_dispersion_energy": -17.2, 
			 "cosmo_repulsion_energy": 1.39, 
			 "cosmo_total_nonelectrostatic_energy": 8.36, 
			 "SMD_solvation_energy": 6.3 
		},
		"coords": [
			{
				"x": -0.8544713544,
				"y": 2.3873489237,
				"z": -1.574413451,
				"element": "C" 
			},
			{
				"x": -0.2217238828,
				"y": 1.6495268922,
				"z": -0.3901426645,
				"element": "C" 
			},
			{
				"x": 0.6158833475,
				"y": 2.5920861533,
				"z": 0.469969926,
				"element": "C" 
			},
			{
				"x": -1.2954393958,
				"y": 1.1541347559,
				"z": 0.4521404522,
				"element": "O" 
			},
			{
				"x": -1.5600915561,
				"y": -0.1662290741,
				"z": 0.2418596013,
				"element": "C" 
			},
			{
				"x": -2.4630304939,
				"y": -0.7409714511,
				"z": 0.7883768207,
				"element": "O" 
			},
			{
				"x": -0.5668052,
				"y": -0.7267183166,
				"z": -0.7684447797,
				"element": "C" 
			},
			{
				"x": 0.5189590138,
				"y": 0.348062628,
				"z": -0.8889422427,
				"element": "C" 
			},
			{
				"x": 1.7244567905,
				"y": 0.0029161004,
				"z": -0.0335744691,
				"element": "C" 
			},
			{
				"x": 2.8565032075,
				"y": 0.5674759088,
				"z": -0.5173456094,
				"element": "O" 
			},
			{
				"x": 1.7081816509,
				"y": -0.6787561569,
				"z": 0.9672688224,
				"element": "O" 
			},
			{
				"x": -1.4516041309,
				"y": 1.7095277187,
				"z": -2.1924304521,
				"element": "H" 
			},
			{
				"x": -1.5120527391,
				"y": 3.1806164256,
				"z": -1.2089548406,
				"element": "H" 
			},
			{
				"x": -0.0809256266,
				"y": 2.8373856973,
				"z": -2.2045822916,
				"element": "H" 
			},
			{
				"x": 0.0075821746,
				"y": 3.4459802302,
				"z": 0.7796478155,
				"element": "H" 
			},
			{
				"x": 0.9682539531,
				"y": 2.0827606803,
				"z": 1.3705294662,
				"element": "H" 
			},
			{
				"x": 1.4789774311,
				"y": 2.9614175599,
				"z": -0.0903364352,
				"element": "H" 
			},
			{
				"x": -1.0908786055,
				"y": -0.8918557827,
				"z": -1.7150657755,
				"element": "H" 
			},
			{
				"x": -0.1936551731,
				"y": -1.6881367938,
				"z": -0.4139711898,
				"element": "H" 
			},
			{
				"x": 0.8659408886,
				"y": 0.5030361273,
				"z": -1.912663363,
				"element": "H" 
			},
			{
				"x": 3.5691397007,
				"y": 0.3223917736,
				"z": 0.0976746597,
				"element": "H" 
			}
		],
		 "valence_orbital": [ 
			{
				"type": "occ",
				"energy": -0.34847,
				"method": "rhf"
			},
			{
				"type": "occ",
				"energy": -0.33271,
				"method": "rhf"
			},
			{
				"type": "occ",
				"energy": -0.29723,
				"method": "rhf"
			},
			{
				"type": "occ",
				"energy": -0.28732,
				"method": "rhf"
			},
			{
				"type": "occ",
				"energy": -0.26561,
				"method": "rhf"
			},
			{
				"type": "unocc",
				"energy": -0.01352,
				"method": "rhf"
			},
			{
				"type": "unocc",
				"energy": 0.01613,
				"method": "rhf"
			},
			{
				"type": "unocc",
				"energy": 0.0604,
				"method": "rhf"
			},
			{
				"type": "unocc",
				"energy": 0.07336,
				"method": "rhf"
			},
			{
				"type": "unocc",
				"energy": 0.10206,
				"method": "rhf"
			}
		],
		"cosmo_sigma_profile": { 
			"-0.025": 0.0,
			"-0.024": 0.0,
			"-0.023": 0.0,
			"-0.022": 0.0,
			"-0.021": 0.0,
			"-0.02": 0.0,
			"-0.019": 0.138458181848,
			"-0.018": 0.831556313409,
			"-0.017": 0.996366438991,
			"-0.016": 1.06818524318,
			"-0.015": 0.426493451585,
			"-0.014": 1.0157282012,
			"-0.013": 0.803322952989,
			"-0.012": 0.37941425878,
			"-0.011": 0.719256633478,
			"-0.01": 0.903741283763,
			"-0.009": 0.363110795421,
			"-0.008": 3.47639578903,
			"-0.007": 8.05472004589,
			"-0.006": 10.8084369245,
			"-0.005": 14.671020413,
			"-0.004": 17.0694499672,
			"-0.003": 15.3995863652,
			"-0.002": 13.8470363976,
			"-0.001": 17.3398199516,
			"0.0": 10.5444582646,
			"0.001": 7.51609499553,
			"0.002": 5.63169548586,
			"0.003": 4.61489396055,
			"0.004": 4.41309266915,
			"0.005": 4.63604196964,
			"0.006": 4.71239153986,
			"0.007": 4.61717774502,
			"0.008": 3.81417084637,
			"0.009": 6.41995113099,
			"0.01": 5.95078761341,
			"0.011": 9.48840779131,
			"0.012": 6.80742140004,
			"0.013": 1.60952444904,
			"0.014": 0.0,
			"0.015": 0.0,
			"0.016": 0.0,
			"0.017": 0.0,
			"0.018": 0.0,
			"0.019": 0.0,
			"0.02": 0.0,
			"0.021": 0.0,
			"0.022": 0.0,
			"0.023": 0.0,
			"0.024": 0.0,
			"0.025": 0.0
		}
	}
}
