{
	 "smiles": "COC1=CC=C2C=CC(=O)OC2=C1CC=C(C)C", 
	 "Tm": 356.65, 
	 "num_atms": 34, 
	 "gaussian": { 
		 "optdone": 1, 
		 "sigma_profile": "yes", 
		 "theory": "DFT", 
		 "functional": "B3LYP", 
		 "basiset": "6-31G**", 
		 "properties": { 
			 "R2extent": 5318.945, 
			 "electric_dipole_moment_norm": 5.9962181448, 
			 "electric_quadrupole_moment_norm": 16.1148866639, 
			 "total_energy": -806.900045054, 
			 "HOMO_LUMO_gap": 0.15983, 
			 "cosmo_polarized_energy": -13.22, 
			 "cosmo_cavitation_energy": 37.3, 
			 "cosmo_dispersion_energy": -25.82, 
			 "cosmo_repulsion_energy": 1.99, 
			 "cosmo_total_nonelectrostatic_energy": 13.47, 
			 "SMD_solvation_energy": 8.26 
		},
		"coords": [
			{
				"x": -2.9223715915,
				"y": 2.7900275543,
				"z": -0.5072936652,
				"element": "C" 
			},
			{
				"x": -1.7723591761,
				"y": 1.9670490076,
				"z": -0.6426494521,
				"element": "O" 
			},
			{
				"x": -0.8576353254,
				"y": 1.9382782097,
				"z": 0.3665516879,
				"element": "C" 
			},
			{
				"x": -0.9996488746,
				"y": 2.6697197837,
				"z": 1.5608080536,
				"element": "C" 
			},
			{
				"x": -0.023166426,
				"y": 2.5780692763,
				"z": 2.541171004,
				"element": "C" 
			},
			{
				"x": 1.1068138558,
				"y": 1.7673333811,
				"z": 2.3577519805,
				"element": "C" 
			},
			{
				"x": 2.160536093,
				"y": 1.6198713691,
				"z": 3.3246070938,
				"element": "C" 
			},
			{
				"x": 3.2243774149,
				"y": 0.8181067105,
				"z": 3.0832891153,
				"element": "C" 
			},
			{
				"x": 3.3442519092,
				"y": 0.0733778054,
				"z": 1.8372918996,
				"element": "C" 
			},
			{
				"x": 4.2462780534,
				"y": -0.6686744059,
				"z": 1.5240032588,
				"element": "O" 
			},
			{
				"x": 2.3029642266,
				"y": 0.2440340139,
				"z": 0.9207141451,
				"element": "O" 
			},
			{
				"x": 1.2197323209,
				"y": 1.0469838354,
				"z": 1.1482857324,
				"element": "C" 
			},
			{
				"x": 0.2613177623,
				"y": 1.1157434087,
				"z": 0.1338769268,
				"element": "C" 
			},
			{
				"x": 0.4056132299,
				"y": 0.3192913984,
				"z": -1.150328758,
				"element": "C" 
			},
			{
				"x": -0.3638696195,
				"y": -0.9836441846,
				"z": -1.1136837322,
				"element": "C" 
			},
			{
				"x": 0.130875241,
				"y": -2.2308196286,
				"z": -1.1043718637,
				"element": "C" 
			},
			{
				"x": -0.8007834321,
				"y": -3.4203935184,
				"z": -1.0953721432,
				"element": "C" 
			},
			{
				"x": 1.5983444067,
				"y": -2.5850202724,
				"z": -1.1113117925,
				"element": "C" 
			},
			{
				"x": -3.4918070195,
				"y": 2.6598956135,
				"z": -1.4284443197,
				"element": "H" 
			},
			{
				"x": -3.5402016765,
				"y": 2.4828937574,
				"z": 0.3455092154,
				"element": "H" 
			},
			{
				"x": -2.651463645,
				"y": 3.8471854303,
				"z": -0.3960034569,
				"element": "H" 
			},
			{
				"x": -1.8646870927,
				"y": 3.2999160018,
				"z": 1.7237246878,
				"element": "H" 
			},
			{
				"x": -0.1287145091,
				"y": 3.1388461026,
				"z": 3.4656438275,
				"element": "H" 
			},
			{
				"x": 2.0861392442,
				"y": 2.1686033596,
				"z": 4.2606932029,
				"element": "H" 
			},
			{
				"x": 4.0330625576,
				"y": 0.6860182522,
				"z": 3.7916128593,
				"element": "H" 
			},
			{
				"x": 1.464677288,
				"y": 0.143721207,
				"z": -1.3403897764,
				"element": "H" 
			},
			{
				"x": 0.0208159217,
				"y": 0.9311881023,
				"z": -1.9739489912,
				"element": "H" 
			},
			{
				"x": -1.446638531,
				"y": -0.8636945898,
				"z": -1.0937405003,
				"element": "H" 
			},
			{
				"x": -1.8520196725,
				"y": -3.1190590729,
				"z": -1.1118426617,
				"element": "H" 
			},
			{
				"x": -0.6193504525,
				"y": -4.0689639801,
				"z": -1.9630340184,
				"element": "H" 
			},
			{
				"x": -0.6367486858,
				"y": -4.042603299,
				"z": -0.2054395737,
				"element": "H" 
			},
			{
				"x": 2.2563937725,
				"y": -1.7324629189,
				"z": -0.9415642588,
				"element": "H" 
			},
			{
				"x": 1.8131412878,
				"y": -3.3204707078,
				"z": -0.3258552562,
				"element": "H" 
			},
			{
				"x": 1.8789311442,
				"y": -3.058847002,
				"z": -2.0618604707,
				"element": "H" 
			}
		],
		 "valence_orbital": [ 
			{
				"type": "occ",
				"energy": -0.29134,
				"method": "rhf"
			},
			{
				"type": "occ",
				"energy": -0.26803,
				"method": "rhf"
			},
			{
				"type": "occ",
				"energy": -0.24049,
				"method": "rhf"
			},
			{
				"type": "occ",
				"energy": -0.22378,
				"method": "rhf"
			},
			{
				"type": "occ",
				"energy": -0.21873,
				"method": "rhf"
			},
			{
				"type": "unocc",
				"energy": -0.0589,
				"method": "rhf"
			},
			{
				"type": "unocc",
				"energy": -0.00822,
				"method": "rhf"
			},
			{
				"type": "unocc",
				"energy": 0.01194,
				"method": "rhf"
			},
			{
				"type": "unocc",
				"energy": 0.04246,
				"method": "rhf"
			},
			{
				"type": "unocc",
				"energy": 0.08145,
				"method": "rhf"
			}
		],
		"cosmo_sigma_profile": { 
			"-0.025": 0.0,
			"-0.024": 0.0,
			"-0.023": 0.0,
			"-0.022": 0.0,
			"-0.021": 0.0,
			"-0.02": 0.0,
			"-0.019": 0.0,
			"-0.018": 0.0,
			"-0.017": 0.0,
			"-0.016": 0.0,
			"-0.015": 0.0,
			"-0.014": 0.0,
			"-0.013": 0.0,
			"-0.012": 0.0,
			"-0.011": 0.0,
			"-0.01": 0.0,
			"-0.009": 0.157782781133,
			"-0.008": 4.01816973502,
			"-0.007": 8.47657906544,
			"-0.006": 15.0758135247,
			"-0.005": 14.959924303,
			"-0.004": 18.1361783636,
			"-0.003": 27.6118039804,
			"-0.002": 26.0161910583,
			"-0.001": 26.9018945813,
			"0.0": 29.8538793851,
			"0.001": 32.5563819222,
			"0.002": 24.7915193018,
			"0.003": 16.4400515089,
			"0.004": 13.4810634731,
			"0.005": 9.53465791475,
			"0.006": 6.74085138245,
			"0.007": 4.11795952747,
			"0.008": 1.78089396745,
			"0.009": 1.42846963912,
			"0.01": 2.4089117636,
			"0.011": 2.59596278402,
			"0.012": 5.79721284363,
			"0.013": 3.20530936885,
			"0.014": 0.033398145746,
			"0.015": 0.0,
			"0.016": 0.0,
			"0.017": 0.0,
			"0.018": 0.0,
			"0.019": 0.0,
			"0.02": 0.0,
			"0.021": 0.0,
			"0.022": 0.0,
			"0.023": 0.0,
			"0.024": 0.0,
			"0.025": 0.0
		}
	}
}
