{
	 "smiles": "CC1=C(C(=O)NN)C(=NO1)C1=C(Cl)C=CC=C1Cl", 
	 "Tm": 424.15, 
	 "num_atms": 27, 
	 "gaussian": { 
		 "optdone": 1, 
		 "sigma_profile": "yes", 
		 "theory": "DFT", 
		 "functional": "B3LYP", 
		 "basiset": "6-31G**", 
		 "properties": { 
			 "R2extent": 5482.2881, 
			 "electric_dipole_moment_norm": 2.92426116481, 
			 "electric_quadrupole_moment_norm": 18.0487719552, 
			 "total_energy": -1659.61608116, 
			 "HOMO_LUMO_gap": 0.21452, 
			 "cosmo_polarized_energy": -15.32, 
			 "cosmo_cavitation_energy": 35.76, 
			 "cosmo_dispersion_energy": -24.33, 
			 "cosmo_repulsion_energy": 1.91, 
			 "cosmo_total_nonelectrostatic_energy": 13.35, 
			 "SMD_solvation_energy": 6.41 
		},
		"coords": [
			{
				"x": -3.759498452,
				"y": 0.8574650971,
				"z": 0.8784313148,
				"element": "C" 
			},
			{
				"x": -2.5701203348,
				"y": -0.0332223473,
				"z": 0.937247825,
				"element": "C" 
			},
			{
				"x": -1.5010154289,
				"y": -0.2493517115,
				"z": 0.0988454817,
				"element": "C" 
			},
			{
				"x": -1.2848052346,
				"y": 0.4478420006,
				"z": -1.1941411602,
				"element": "C" 
			},
			{
				"x": -2.0556545604,
				"y": 1.3091638242,
				"z": -1.6203051868,
				"element": "O" 
			},
			{
				"x": -0.172504053,
				"y": 0.0897478123,
				"z": -1.9025684332,
				"element": "N" 
			},
			{
				"x": 0.0972312089,
				"y": 0.6359404291,
				"z": -3.1706005677,
				"element": "N" 
			},
			{
				"x": -0.7371207053,
				"y": -1.2510772283,
				"z": 0.7931192579,
				"element": "C" 
			},
			{
				"x": -1.296307959,
				"y": -1.5955396643,
				"z": 1.9290851779,
				"element": "N" 
			},
			{
				"x": -2.4574704596,
				"y": -0.8232232837,
				"z": 2.0183396811,
				"element": "O" 
			},
			{
				"x": 0.5386716347,
				"y": -1.915070746,
				"z": 0.4140258153,
				"element": "C" 
			},
			{
				"x": 0.5531759888,
				"y": -3.1270467553,
				"z": -0.301716691,
				"element": "C" 
			},
			{
				"x": -0.9567875134,
				"y": -3.8582013068,
				"z": -0.8058440285,
				"element": "Cl" 
			},
			{
				"x": 1.7433183819,
				"y": -3.7719215107,
				"z": -0.6367481527,
				"element": "C" 
			},
			{
				"x": 2.9565245107,
				"y": -3.2055239378,
				"z": -0.2519691761,
				"element": "C" 
			},
			{
				"x": 2.9862941507,
				"y": -2.0058807546,
				"z": 0.4560547715,
				"element": "C" 
			},
			{
				"x": 1.7859455594,
				"y": -1.3758968215,
				"z": 0.7811382012,
				"element": "C" 
			},
			{
				"x": 1.8536104103,
				"y": 0.1335219265,
				"z": 1.6660523759,
				"element": "Cl" 
			},
			{
				"x": -3.7709026255,
				"y": 1.5315326386,
				"z": 1.7415367071,
				"element": "H" 
			},
			{
				"x": -4.6795110442,
				"y": 0.2641411199,
				"z": 0.9099260348,
				"element": "H" 
			},
			{
				"x": -3.7223280043,
				"y": 1.4368291296,
				"z": -0.0427555407,
				"element": "H" 
			},
			{
				"x": 0.4163711859,
				"y": -0.68223992,
				"z": -1.6309641492,
				"element": "H" 
			},
			{
				"x": -0.7711827074,
				"y": 0.59805591,
				"z": -3.7053274526,
				"element": "H" 
			},
			{
				"x": 0.2838294442,
				"y": 1.6303708888,
				"z": -3.0405154655,
				"element": "H" 
			},
			{
				"x": 1.710385403,
				"y": -4.7042142536,
				"z": -1.1881465608,
				"element": "H" 
			},
			{
				"x": 3.8870896079,
				"y": -3.7021481132,
				"z": -0.5080419786,
				"element": "H" 
			},
			{
				"x": 3.9253615961,
				"y": -1.5578524222,
				"z": 0.7589418993,
				"element": "H" 
			}
		],
		 "valence_orbital": [ 
			{
				"type": "occ",
				"energy": -0.27602,
				"method": "rhf"
			},
			{
				"type": "occ",
				"energy": -0.26548,
				"method": "rhf"
			},
			{
				"type": "occ",
				"energy": -0.26425,
				"method": "rhf"
			},
			{
				"type": "occ",
				"energy": -0.26338,
				"method": "rhf"
			},
			{
				"type": "occ",
				"energy": -0.26115,
				"method": "rhf"
			},
			{
				"type": "unocc",
				"energy": -0.04663,
				"method": "rhf"
			},
			{
				"type": "unocc",
				"energy": -0.03971,
				"method": "rhf"
			},
			{
				"type": "unocc",
				"energy": -0.02919,
				"method": "rhf"
			},
			{
				"type": "unocc",
				"energy": -0.00928,
				"method": "rhf"
			},
			{
				"type": "unocc",
				"energy": -0.00418,
				"method": "rhf"
			}
		],
		"cosmo_sigma_profile": { 
			"-0.025": 0.0,
			"-0.024": 0.0,
			"-0.023": 0.0,
			"-0.022": 0.0,
			"-0.021": 0.0,
			"-0.02": 0.0,
			"-0.019": 0.0,
			"-0.018": 0.0,
			"-0.017": 0.0,
			"-0.016": 0.0,
			"-0.015": 0.0,
			"-0.014": 0.0,
			"-0.013": 0.0,
			"-0.012": 0.416594141645,
			"-0.011": 1.94871688301,
			"-0.01": 3.79981269726,
			"-0.009": 4.0888645319,
			"-0.008": 8.75307433263,
			"-0.007": 12.0326786932,
			"-0.006": 14.3999374234,
			"-0.005": 12.548430383,
			"-0.004": 12.607931793,
			"-0.003": 17.4997052361,
			"-0.002": 22.2926383388,
			"-0.001": 24.5914653603,
			"0.0": 28.7977803506,
			"0.001": 25.1800512367,
			"0.002": 22.7630264813,
			"0.003": 21.2282102774,
			"0.004": 14.8336058688,
			"0.005": 5.54717022281,
			"0.006": 5.6875023616,
			"0.007": 7.44157367639,
			"0.008": 3.39466707045,
			"0.009": 3.3061672261,
			"0.01": 3.39400544329,
			"0.011": 3.73349860615,
			"0.012": 4.07603563288,
			"0.013": 3.8066341957,
			"0.014": 1.6132949408,
			"0.015": 0.466419348605,
			"0.016": 0.546127137802,
			"0.017": 0.0873614961859,
			"0.018": 0.0,
			"0.019": 0.0,
			"0.02": 0.0,
			"0.021": 0.0,
			"0.022": 0.0,
			"0.023": 0.0,
			"0.024": 0.0,
			"0.025": 0.0
		}
	}
}
