{
	 "smiles": "CCCOC1=C(C=O)C2=C(C=CC=C2)C=C1", 
	 "Tm": 339.65, 
	 "num_atms": 30, 
	 "gaussian": { 
		 "optdone": 1, 
		 "sigma_profile": "yes", 
		 "theory": "DFT", 
		 "functional": "B3LYP", 
		 "basiset": "6-31G**", 
		 "properties": { 
			 "R2extent": 4538.6303, 
			 "electric_dipole_moment_norm": 4.85189555329, 
			 "electric_quadrupole_moment_norm": 16.7191333143, 
			 "total_energy": -692.375767971, 
			 "HOMO_LUMO_gap": 0.14719, 
			 "cosmo_polarized_energy": -10.55, 
			 "cosmo_cavitation_energy": 33.07, 
			 "cosmo_dispersion_energy": -23.93, 
			 "cosmo_repulsion_energy": 1.84, 
			 "cosmo_total_nonelectrostatic_energy": 10.97, 
			 "SMD_solvation_energy": 6.49 
		},
		"coords": [
			{
				"x": -4.0231121375,
				"y": -2.8481745298,
				"z": -1.2744957642,
				"element": "C" 
			},
			{
				"x": -4.2046367452,
				"y": -1.5926466009,
				"z": -0.4164091341,
				"element": "C" 
			},
			{
				"x": -2.9639370073,
				"y": -1.2130777762,
				"z": 0.3815392914,
				"element": "C" 
			},
			{
				"x": -1.9308887475,
				"y": -0.8748041597,
				"z": -0.5502619862,
				"element": "O" 
			},
			{
				"x": -0.6997310656,
				"y": -0.5037248785,
				"z": -0.1086903021,
				"element": "C" 
			},
			{
				"x": 0.2608435064,
				"y": -0.1660377855,
				"z": -1.0797085695,
				"element": "C" 
			},
			{
				"x": -0.1516555075,
				"y": -0.2299625492,
				"z": -2.4965166535,
				"element": "C" 
			},
			{
				"x": 0.545759836,
				"y": 0.0141170416,
				"z": -3.4726248589,
				"element": "O" 
			},
			{
				"x": 1.581380677,
				"y": 0.2266655047,
				"z": -0.6537665099,
				"element": "C" 
			},
			{
				"x": 1.8805840027,
				"y": 0.2673180277,
				"z": 0.748635139,
				"element": "C" 
			},
			{
				"x": 3.1736254205,
				"y": 0.6518470175,
				"z": 1.1915373958,
				"element": "C" 
			},
			{
				"x": 4.1545123551,
				"y": 0.9895772917,
				"z": 0.2885673755,
				"element": "C" 
			},
			{
				"x": 3.8661969928,
				"y": 0.9517577148,
				"z": -1.0946164602,
				"element": "C" 
			},
			{
				"x": 2.6205163511,
				"y": 0.5828147535,
				"z": -1.5590768527,
				"element": "C" 
			},
			{
				"x": 0.8692320916,
				"y": -0.0802839335,
				"z": 1.6782480191,
				"element": "C" 
			},
			{
				"x": -0.3882135609,
				"y": -0.4566170119,
				"z": 1.2734814804,
				"element": "C" 
			},
			{
				"x": -3.2151358281,
				"y": -2.715105213,
				"z": -1.9987931763,
				"element": "H" 
			},
			{
				"x": -3.7785872148,
				"y": -3.7184111177,
				"z": -0.6546612559,
				"element": "H" 
			},
			{
				"x": -4.9386935159,
				"y": -3.0789893196,
				"z": -1.8272106282,
				"element": "H" 
			},
			{
				"x": -4.4879032079,
				"y": -0.7401554507,
				"z": -1.0448837501,
				"element": "H" 
			},
			{
				"x": -5.0218559782,
				"y": -1.7396204061,
				"z": 0.3009444294,
				"element": "H" 
			},
			{
				"x": -2.637244545,
				"y": -2.0536159655,
				"z": 1.0098148905,
				"element": "H" 
			},
			{
				"x": -3.169417584,
				"y": -0.3538436704,
				"z": 1.0338091677,
				"element": "H" 
			},
			{
				"x": -1.2037995665,
				"y": -0.5298178676,
				"z": -2.6438850357,
				"element": "H" 
			},
			{
				"x": 3.3712235151,
				"y": 0.6734177755,
				"z": 2.2604043207,
				"element": "H" 
			},
			{
				"x": 5.1421675522,
				"y": 1.2829562673,
				"z": 0.6317912337,
				"element": "H" 
			},
			{
				"x": 4.6404927953,
				"y": 1.2183009021,
				"z": -1.8088041532,
				"element": "H" 
			},
			{
				"x": 2.4111011674,
				"y": 0.5568072268,
				"z": -2.6188557601,
				"element": "H" 
			},
			{
				"x": 1.1023934033,
				"y": -0.0463168927,
				"z": 2.7396713766,
				"element": "H" 
			},
			{
				"x": -1.1346174543,
				"y": -0.7155743949,
				"z": 2.013116731,
				"element": "H" 
			}
		],
		 "valence_orbital": [ 
			{
				"type": "occ",
				"energy": -0.30908,
				"method": "rhf"
			},
			{
				"type": "occ",
				"energy": -0.2769,
				"method": "rhf"
			},
			{
				"type": "occ",
				"energy": -0.23859,
				"method": "rhf"
			},
			{
				"type": "occ",
				"energy": -0.23271,
				"method": "rhf"
			},
			{
				"type": "occ",
				"energy": -0.21328,
				"method": "rhf"
			},
			{
				"type": "unocc",
				"energy": -0.06609,
				"method": "rhf"
			},
			{
				"type": "unocc",
				"energy": -0.00644,
				"method": "rhf"
			},
			{
				"type": "unocc",
				"energy": -0.00166,
				"method": "rhf"
			},
			{
				"type": "unocc",
				"energy": 0.05575,
				"method": "rhf"
			},
			{
				"type": "unocc",
				"energy": 0.08169,
				"method": "rhf"
			}
		],
		"cosmo_sigma_profile": { 
			"-0.025": 0.0,
			"-0.024": 0.0,
			"-0.023": 0.0,
			"-0.022": 0.0,
			"-0.021": 0.0,
			"-0.02": 0.0,
			"-0.019": 0.0,
			"-0.018": 0.0,
			"-0.017": 0.0,
			"-0.016": 0.0,
			"-0.015": 0.0,
			"-0.014": 0.0,
			"-0.013": 0.0,
			"-0.012": 0.0,
			"-0.011": 0.0,
			"-0.01": 0.0,
			"-0.009": 0.0,
			"-0.008": 0.552834863261,
			"-0.007": 6.53218990312,
			"-0.006": 11.7111615958,
			"-0.005": 16.3293233176,
			"-0.004": 20.8733508316,
			"-0.003": 24.8379958901,
			"-0.002": 21.3948087618,
			"-0.001": 23.9890316496,
			"0.0": 22.269806315,
			"0.001": 24.7775713417,
			"0.002": 22.8643021069,
			"0.003": 22.1954439945,
			"0.004": 16.3209181453,
			"0.005": 11.3044885445,
			"0.006": 2.04616334654,
			"0.007": 2.10827923038,
			"0.008": 1.71825743912,
			"0.009": 1.3808611809,
			"0.01": 2.23422836273,
			"0.011": 2.86584882717,
			"0.012": 2.28085853648,
			"0.013": 1.97674273308,
			"0.014": 0.56062039686,
			"0.015": 0.0,
			"0.016": 0.0,
			"0.017": 0.0,
			"0.018": 0.0,
			"0.019": 0.0,
			"0.02": 0.0,
			"0.021": 0.0,
			"0.022": 0.0,
			"0.023": 0.0,
			"0.024": 0.0,
			"0.025": 0.0
		}
	}
}
