{
	 "smiles": "CN1C=C(C=N1)C(=O)C1=CC(F)=CC=C1", 
	 "Tm": 377.15, 
	 "num_atms": 24, 
	 "gaussian": { 
		 "optdone": 1, 
		 "sigma_profile": "yes", 
		 "theory": "DFT", 
		 "functional": "B3LYP", 
		 "basiset": "6-31G**", 
		 "properties": { 
			 "R2extent": 4094.1054, 
			 "electric_dipole_moment_norm": 4.13378332886, 
			 "electric_quadrupole_moment_norm": 13.0677636262, 
			 "total_energy": -709.133651929, 
			 "HOMO_LUMO_gap": 0.18481, 
			 "cosmo_polarized_energy": -13.76, 
			 "cosmo_cavitation_energy": 29.59, 
			 "cosmo_dispersion_energy": -21.17, 
			 "cosmo_repulsion_energy": 1.62, 
			 "cosmo_total_nonelectrostatic_energy": 10.04, 
			 "SMD_solvation_energy": 5.59 
		},
		"coords": [
			{
				"x": 0.5679522645,
				"y": 2.1146348974,
				"z": 3.4446490312,
				"element": "C" 
			},
			{
				"x": -0.1263160152,
				"y": 1.2458427888,
				"z": 2.511386891,
				"element": "N" 
			},
			{
				"x": 0.3845995134,
				"y": 0.5716999638,
				"z": 1.4578566202,
				"element": "C" 
			},
			{
				"x": -0.6739022357,
				"y": -0.1117464271,
				"z": 0.8610578855,
				"element": "C" 
			},
			{
				"x": -1.7956877193,
				"y": 0.2436448175,
				"z": 1.6586594623,
				"element": "C" 
			},
			{
				"x": -1.4641066261,
				"y": 1.0504514401,
				"z": 2.6562727224,
				"element": "N" 
			},
			{
				"x": -0.7370138125,
				"y": -0.9376103476,
				"z": -0.3559131819,
				"element": "C" 
			},
			{
				"x": -1.8183053673,
				"y": -1.1627982368,
				"z": -0.8928897355,
				"element": "O" 
			},
			{
				"x": 0.5231429513,
				"y": -1.4932958836,
				"z": -0.9618393701,
				"element": "C" 
			},
			{
				"x": 1.6490055042,
				"y": -1.8266293427,
				"z": -0.1955810991,
				"element": "C" 
			},
			{
				"x": 2.7568468553,
				"y": -2.3741151383,
				"z": -0.8312554491,
				"element": "C" 
			},
			{
				"x": 3.8335219162,
				"y": -2.7050252377,
				"z": -0.0863210641,
				"element": "F" 
			},
			{
				"x": 2.7923147078,
				"y": -2.5959057842,
				"z": -2.2026426352,
				"element": "C" 
			},
			{
				"x": 1.6628185079,
				"y": -2.2690680883,
				"z": -2.9578664417,
				"element": "C" 
			},
			{
				"x": 0.5330425734,
				"y": -1.7333161144,
				"z": -2.3443890939,
				"element": "C" 
			},
			{
				"x": 0.462578988,
				"y": 1.7288398845,
				"z": 4.4615924487,
				"element": "H" 
			},
			{
				"x": 1.6250674339,
				"y": 2.1509633257,
				"z": 3.177235042,
				"element": "H" 
			},
			{
				"x": 0.1458871002,
				"y": 3.1217092575,
				"z": 3.4014457689,
				"element": "H" 
			},
			{
				"x": 1.4283362625,
				"y": 0.6469670082,
				"z": 1.1924123613,
				"element": "H" 
			},
			{
				"x": -2.8183709754,
				"y": -0.078806336,
				"z": 1.5235025479,
				"element": "H" 
			},
			{
				"x": 1.6632658935,
				"y": -1.7062213078,
				"z": 0.8811333067,
				"element": "H" 
			},
			{
				"x": 3.6820194294,
				"y": -3.0216539705,
				"z": -2.653939684,
				"element": "H" 
			},
			{
				"x": 1.6688885427,
				"y": -2.4406158325,
				"z": -4.0300172375,
				"element": "H" 
			},
			{
				"x": -0.3572856929,
				"y": -1.4944453362,
				"z": -2.9151490961,
				"element": "H" 
			}
		],
		 "valence_orbital": [ 
			{
				"type": "occ",
				"energy": -0.26842,
				"method": "rhf"
			},
			{
				"type": "occ",
				"energy": -0.26704,
				"method": "rhf"
			},
			{
				"type": "occ",
				"energy": -0.25827,
				"method": "rhf"
			},
			{
				"type": "occ",
				"energy": -0.25387,
				"method": "rhf"
			},
			{
				"type": "occ",
				"energy": -0.24462,
				"method": "rhf"
			},
			{
				"type": "unocc",
				"energy": -0.05981,
				"method": "rhf"
			},
			{
				"type": "unocc",
				"energy": -0.01314,
				"method": "rhf"
			},
			{
				"type": "unocc",
				"energy": -0.00095,
				"method": "rhf"
			},
			{
				"type": "unocc",
				"energy": 0.01824,
				"method": "rhf"
			},
			{
				"type": "unocc",
				"energy": 0.08185,
				"method": "rhf"
			}
		],
		"cosmo_sigma_profile": { 
			"-0.025": 0.0,
			"-0.024": 0.0,
			"-0.023": 0.0,
			"-0.022": 0.0,
			"-0.021": 0.0,
			"-0.02": 0.0,
			"-0.019": 0.0,
			"-0.018": 0.0,
			"-0.017": 0.0,
			"-0.016": 0.0,
			"-0.015": 0.0,
			"-0.014": 0.0,
			"-0.013": 0.0,
			"-0.012": 0.0,
			"-0.011": 0.195986607843,
			"-0.01": 2.29157887968,
			"-0.009": 2.63317477765,
			"-0.008": 5.43951103583,
			"-0.007": 11.0184748482,
			"-0.006": 14.7463438155,
			"-0.005": 17.2600726284,
			"-0.004": 16.7490570382,
			"-0.003": 17.4252280675,
			"-0.002": 12.3560780456,
			"-0.001": 13.0665060421,
			"0.0": 17.047048198,
			"0.001": 18.7555531304,
			"0.002": 18.4446073586,
			"0.003": 18.7674918206,
			"0.004": 16.0146093436,
			"0.005": 6.3211288613,
			"0.006": 3.60322851578,
			"0.007": 3.27378668384,
			"0.008": 2.68520477222,
			"0.009": 2.75792365181,
			"0.01": 3.58084419711,
			"0.011": 3.60641842554,
			"0.012": 5.25444585045,
			"0.013": 2.9946817355,
			"0.014": 0.854206041547,
			"0.015": 0.773787385608,
			"0.016": 0.00998957356007,
			"0.017": 0.0,
			"0.018": 0.0,
			"0.019": 0.0,
			"0.02": 0.0,
			"0.021": 0.0,
			"0.022": 0.0,
			"0.023": 0.0,
			"0.024": 0.0,
			"0.025": 0.0
		}
	}
}
