{
	 "smiles": "CC1=CN=C(NC(=O)C2CCCNC2)C=C1", 
	 "Tm": 418.15, 
	 "num_atms": 33, 
	 "gaussian": { 
		 "optdone": 1, 
		 "sigma_profile": "yes", 
		 "theory": "DFT", 
		 "functional": "B3LYP", 
		 "basiset": "6-31G**", 
		 "properties": { 
			 "R2extent": 4587.3096, 
			 "electric_dipole_moment_norm": 5.67302086811, 
			 "electric_quadrupole_moment_norm": 11.5701050734, 
			 "total_energy": -707.001931927, 
			 "HOMO_LUMO_gap": 0.18206, 
			 "cosmo_polarized_energy": -14.44, 
			 "cosmo_cavitation_energy": 33.86, 
			 "cosmo_dispersion_energy": -24.67, 
			 "cosmo_repulsion_energy": 1.93, 
			 "cosmo_total_nonelectrostatic_energy": 11.12, 
			 "SMD_solvation_energy": 2.22 
		},
		"coords": [
			{
				"x": 4.1904265627,
				"y": -0.8846903261,
				"z": 0.6268484129,
				"element": "C" 
			},
			{
				"x": 2.6982416607,
				"y": -0.6850211527,
				"z": 0.7036832076,
				"element": "C" 
			},
			{
				"x": 1.8854597279,
				"y": -1.4908132838,
				"z": 1.5062292716,
				"element": "C" 
			},
			{
				"x": 0.5591392055,
				"y": -1.3761040098,
				"z": 1.6032061683,
				"element": "N" 
			},
			{
				"x": -0.0587494639,
				"y": -0.4208233149,
				"z": 0.8917425849,
				"element": "C" 
			},
			{
				"x": -1.4430911933,
				"y": -0.402424464,
				"z": 1.1249734317,
				"element": "N" 
			},
			{
				"x": -2.6143897083,
				"y": 0.0559471189,
				"z": 0.5222837775,
				"element": "C" 
			},
			{
				"x": -3.6627684165,
				"y": -0.1647188665,
				"z": 1.1150480713,
				"element": "O" 
			},
			{
				"x": -2.6440834676,
				"y": 0.7764221748,
				"z": -0.8231883756,
				"element": "C" 
			},
			{
				"x": -2.1836016481,
				"y": 2.2655176069,
				"z": -0.7500093903,
				"element": "C" 
			},
			{
				"x": -1.6472600836,
				"y": 2.7473287482,
				"z": -2.1129585779,
				"element": "C" 
			},
			{
				"x": -2.4572189332,
				"y": 2.1122808818,
				"z": -3.2511747333,
				"element": "C" 
			},
			{
				"x": -2.4042482231,
				"y": 0.6368398213,
				"z": -3.2551184863,
				"element": "N" 
			},
			{
				"x": -1.9868538572,
				"y": 0.0142516909,
				"z": -1.9890954445,
				"element": "C" 
			},
			{
				"x": 0.6588274333,
				"y": 0.473930022,
				"z": 0.0808828183,
				"element": "C" 
			},
			{
				"x": 2.0376871209,
				"y": 0.3217830779,
				"z": -0.0106333801,
				"element": "C" 
			},
			{
				"x": 4.5216448529,
				"y": -1.6561990268,
				"z": 1.3276905558,
				"element": "H" 
			},
			{
				"x": 4.5038223089,
				"y": -1.1937411659,
				"z": -0.377377753,
				"element": "H" 
			},
			{
				"x": 4.732755939,
				"y": 0.0372820575,
				"z": 0.8648958313,
				"element": "H" 
			},
			{
				"x": 2.3332940511,
				"y": -2.2794042499,
				"z": 2.1106462042,
				"element": "H" 
			},
			{
				"x": -1.6754451428,
				"y": -0.9778446244,
				"z": 1.9283662811,
				"element": "H" 
			},
			{
				"x": -3.7136043644,
				"y": 0.7797150707,
				"z": -1.0487140729,
				"element": "H" 
			},
			{
				"x": -1.4343534756,
				"y": 2.4203017245,
				"z": 0.0331463058,
				"element": "H" 
			},
			{
				"x": -3.0470276111,
				"y": 2.8719302958,
				"z": -0.4570221032,
				"element": "H" 
			},
			{
				"x": -0.5897645612,
				"y": 2.4749343893,
				"z": -2.2304501726,
				"element": "H" 
			},
			{
				"x": -1.6954444849,
				"y": 3.8406184441,
				"z": -2.1725220539,
				"element": "H" 
			},
			{
				"x": -3.5039880472,
				"y": 2.4385779254,
				"z": -3.1569313509,
				"element": "H" 
			},
			{
				"x": -2.110868341,
				"y": 2.4795546992,
				"z": -4.2230926432,
				"element": "H" 
			},
			{
				"x": -1.7955149316,
				"y": 0.3147117739,
				"z": -3.9989804988,
				"element": "H" 
			},
			{
				"x": -2.3357861958,
				"y": -1.0257406282,
				"z": -1.9829736404,
				"element": "H" 
			},
			{
				"x": -0.894820357,
				"y": -0.0209322476,
				"z": -1.8655237664,
				"element": "H" 
			},
			{
				"x": 0.1697529941,
				"y": 1.2791076554,
				"z": -0.4452045132,
				"element": "H" 
			},
			{
				"x": 2.6060306502,
				"y": 1.0075221822,
				"z": -0.6347719657,
				"element": "H" 
			}
		],
		 "valence_orbital": [ 
			{
				"type": "occ",
				"energy": -0.28845,
				"method": "rhf"
			},
			{
				"type": "occ",
				"energy": -0.26889,
				"method": "rhf"
			},
			{
				"type": "occ",
				"energy": -0.24835,
				"method": "rhf"
			},
			{
				"type": "occ",
				"energy": -0.2266,
				"method": "rhf"
			},
			{
				"type": "occ",
				"energy": -0.21279,
				"method": "rhf"
			},
			{
				"type": "unocc",
				"energy": -0.03073,
				"method": "rhf"
			},
			{
				"type": "unocc",
				"energy": -0.02079,
				"method": "rhf"
			},
			{
				"type": "unocc",
				"energy": 0.0342,
				"method": "rhf"
			},
			{
				"type": "unocc",
				"energy": 0.06775,
				"method": "rhf"
			},
			{
				"type": "unocc",
				"energy": 0.09202,
				"method": "rhf"
			}
		],
		"cosmo_sigma_profile": { 
			"-0.025": 0.0,
			"-0.024": 0.0,
			"-0.023": 0.0,
			"-0.022": 0.0,
			"-0.021": 0.0,
			"-0.02": 0.0,
			"-0.019": 0.0,
			"-0.018": 0.0,
			"-0.017": 0.0,
			"-0.016": 0.0,
			"-0.015": 0.0,
			"-0.014": 0.0,
			"-0.013": 0.0,
			"-0.012": 0.269017540919,
			"-0.011": 0.526832540437,
			"-0.01": 1.50710004143,
			"-0.009": 2.28495291661,
			"-0.008": 2.03413975806,
			"-0.007": 2.81695525247,
			"-0.006": 9.37893401745,
			"-0.005": 14.2417654001,
			"-0.004": 25.2673154616,
			"-0.003": 29.51082646,
			"-0.002": 34.1941579779,
			"-0.001": 33.1650581637,
			"0.0": 24.3374940423,
			"0.001": 14.9220653887,
			"0.002": 15.8383106506,
			"0.003": 12.1630668431,
			"0.004": 4.44771186357,
			"0.005": 3.92535645175,
			"0.006": 3.25273918789,
			"0.007": 3.16800558129,
			"0.008": 2.95071668187,
			"0.009": 2.41566696794,
			"0.01": 3.10280254722,
			"0.011": 2.88208570917,
			"0.012": 4.67783300744,
			"0.013": 7.18254949396,
			"0.014": 3.08692772444,
			"0.015": 0.548383782982,
			"0.016": 0.126334326304,
			"0.017": 0.627165096228,
			"0.018": 0.656792936512,
			"0.019": 0.0579856649572,
			"0.02": 0.0,
			"0.021": 0.0,
			"0.022": 0.0,
			"0.023": 0.0,
			"0.024": 0.0,
			"0.025": 0.0
		}
	}
}
