{
	 "smiles": "COC1=CC=C(OC)C(=C1)C#N", 
	 "Tm": 355.15, 
	 "num_atms": 21, 
	 "gaussian": { 
		 "optdone": 1, 
		 "sigma_profile": "yes", 
		 "theory": "DFT", 
		 "functional": "B3LYP", 
		 "basiset": "6-31G**", 
		 "properties": { 
			 "R2extent": 3147.5081, 
			 "electric_dipole_moment_norm": 6.76957679253, 
			 "electric_quadrupole_moment_norm": 24.878009131, 
			 "total_energy": -553.536004125, 
			 "HOMO_LUMO_gap": 0.17237, 
			 "cosmo_polarized_energy": -13.32, 
			 "cosmo_cavitation_energy": 26.14, 
			 "cosmo_dispersion_energy": -18.7, 
			 "cosmo_repulsion_energy": 1.5, 
			 "cosmo_total_nonelectrostatic_energy": 8.93, 
			 "SMD_solvation_energy": 7.46 
		},
		"coords": [
			{
				"x": -1.2651484392,
				"y": 1.3626704437,
				"z": 1.7771084527,
				"element": "C" 
			},
			{
				"x": -1.4542097869,
				"y": 0.8869048859,
				"z": 0.4543681939,
				"element": "O" 
			},
			{
				"x": -0.636253595,
				"y": -0.1104804683,
				"z": 0.0066678901,
				"element": "C" 
			},
			{
				"x": 0.3838709121,
				"y": -0.7091824958,
				"z": 0.7509792318,
				"element": "C" 
			},
			{
				"x": 1.1666413535,
				"y": -1.7276254329,
				"z": 0.1937566128,
				"element": "C" 
			},
			{
				"x": 0.9456530242,
				"y": -2.1648109013,
				"z": -1.1118307172,
				"element": "C" 
			},
			{
				"x": 1.6468313131,
				"y": -3.1423803157,
				"z": -1.7420403191,
				"element": "O" 
			},
			{
				"x": 2.6948336611,
				"y": -3.7866059635,
				"z": -1.0330028826,
				"element": "C" 
			},
			{
				"x": -0.0886977085,
				"y": -1.5571979229,
				"z": -1.8658388373,
				"element": "C" 
			},
			{
				"x": -0.8665021816,
				"y": -0.5416036346,
				"z": -1.3046926272,
				"element": "C" 
			},
			{
				"x": -0.3404321371,
				"y": -1.9841106265,
				"z": -3.209634104,
				"element": "C" 
			},
			{
				"x": -0.5666951382,
				"y": -2.3110914893,
				"z": -4.3027467391,
				"element": "N" 
			},
			{
				"x": -2.011674116,
				"y": 2.1440111952,
				"z": 1.925663786,
				"element": "H" 
			},
			{
				"x": -0.2635130549,
				"y": 1.7908126168,
				"z": 1.9150280765,
				"element": "H" 
			},
			{
				"x": -1.4215865005,
				"y": 0.5693428178,
				"z": 2.5199219276,
				"element": "H" 
			},
			{
				"x": 0.5861807069,
				"y": -0.3969137773,
				"z": 1.7685311909,
				"element": "H" 
			},
			{
				"x": 1.949603051,
				"y": -2.1719174588,
				"z": 0.7960214471,
				"element": "H" 
			},
			{
				"x": 2.3198576639,
				"y": -4.2981631864,
				"z": -0.1374179364,
				"element": "H" 
			},
			{
				"x": 3.1109134687,
				"y": -4.5229653396,
				"z": -1.7211588701,
				"element": "H" 
			},
			{
				"x": 3.4800839784,
				"y": -3.0770749706,
				"z": -0.7426170217,
				"element": "H" 
			},
			{
				"x": -1.6576564753,
				"y": -0.0773179759,
				"z": -1.8821667548,
				"element": "H" 
			}
		],
		 "valence_orbital": [ 
			{
				"type": "occ",
				"energy": -0.33641,
				"method": "rhf"
			},
			{
				"type": "occ",
				"energy": -0.31951,
				"method": "rhf"
			},
			{
				"type": "occ",
				"energy": -0.30314,
				"method": "rhf"
			},
			{
				"type": "occ",
				"energy": -0.26288,
				"method": "rhf"
			},
			{
				"type": "occ",
				"energy": -0.21699,
				"method": "rhf"
			},
			{
				"type": "unocc",
				"energy": -0.04462,
				"method": "rhf"
			},
			{
				"type": "unocc",
				"energy": 0.00226,
				"method": "rhf"
			},
			{
				"type": "unocc",
				"energy": 0.04523,
				"method": "rhf"
			},
			{
				"type": "unocc",
				"energy": 0.07812,
				"method": "rhf"
			},
			{
				"type": "unocc",
				"energy": 0.09013,
				"method": "rhf"
			}
		],
		"cosmo_sigma_profile": { 
			"-0.025": 0.0,
			"-0.024": 0.0,
			"-0.023": 0.0,
			"-0.022": 0.0,
			"-0.021": 0.0,
			"-0.02": 0.0,
			"-0.019": 0.0,
			"-0.018": 0.0,
			"-0.017": 0.0,
			"-0.016": 0.0,
			"-0.015": 0.0,
			"-0.014": 0.0,
			"-0.013": 0.0,
			"-0.012": 0.0,
			"-0.011": 0.0,
			"-0.01": 0.0,
			"-0.009": 0.0106789344823,
			"-0.008": 1.84233155551,
			"-0.007": 8.72859546957,
			"-0.006": 18.2421613933,
			"-0.005": 21.0552728061,
			"-0.004": 19.8340323301,
			"-0.003": 17.6103219929,
			"-0.002": 9.87042347316,
			"-0.001": 10.2056207164,
			"0.0": 13.4647287059,
			"0.001": 13.0339768061,
			"0.002": 16.748362559,
			"0.003": 11.0936522506,
			"0.004": 6.00434355784,
			"0.005": 4.73061486114,
			"0.006": 5.95257566466,
			"0.007": 5.43767571192,
			"0.008": 7.46103692351,
			"0.009": 6.19783745667,
			"0.01": 4.50447132171,
			"0.011": 2.89681069583,
			"0.012": 2.46941503313,
			"0.013": 1.89985411146,
			"0.014": 0.142163787961,
			"0.015": 0.0,
			"0.016": 0.0,
			"0.017": 0.0,
			"0.018": 0.0,
			"0.019": 0.0,
			"0.02": 0.0,
			"0.021": 0.0,
			"0.022": 0.0,
			"0.023": 0.0,
			"0.024": 0.0,
			"0.025": 0.0
		}
	}
}
