{
	 "smiles": "CC(=O)NC1=CN=C(N)C=C1", 
	 "Tm": 440.15, 
	 "num_atms": 20, 
	 "gaussian": { 
		 "optdone": 1, 
		 "sigma_profile": "yes", 
		 "theory": "DFT", 
		 "functional": "B3LYP", 
		 "basiset": "6-31G**", 
		 "properties": { 
			 "R2extent": 2671.1831, 
			 "electric_dipole_moment_norm": 4.85079537499, 
			 "electric_quadrupole_moment_norm": 7.59306652414, 
			 "total_energy": -511.666327685, 
			 "HOMO_LUMO_gap": 0.18699, 
			 "cosmo_polarized_energy": -16.41, 
			 "cosmo_cavitation_energy": 24.5, 
			 "cosmo_dispersion_energy": -17.81, 
			 "cosmo_repulsion_energy": 1.46, 
			 "cosmo_total_nonelectrostatic_energy": 8.15, 
			 "SMD_solvation_energy": 3.86 
		},
		"coords": [
			{
				"x": 1.8539141579,
				"y": -0.4487150615,
				"z": -1.7370723878,
				"element": "C" 
			},
			{
				"x": 1.5119100261,
				"y": 0.7862021108,
				"z": -2.5532081034,
				"element": "C" 
			},
			{
				"x": 1.9465516815,
				"y": 0.9673417776,
				"z": -3.6813353053,
				"element": "O" 
			},
			{
				"x": 0.6787627635,
				"y": 1.7218845054,
				"z": -1.9687434919,
				"element": "N" 
			},
			{
				"x": 0.0670874591,
				"y": 1.6971676077,
				"z": -0.6868345106,
				"element": "C" 
			},
			{
				"x": -1.3252578996,
				"y": 1.7045359806,
				"z": -0.564333458,
				"element": "C" 
			},
			{
				"x": -1.9781437121,
				"y": 1.7207937548,
				"z": 0.6000168688,
				"element": "N" 
			},
			{
				"x": -1.25487846,
				"y": 1.7166519842,
				"z": 1.7311828706,
				"element": "C" 
			},
			{
				"x": -1.968009645,
				"y": 1.7725001991,
				"z": 2.9117012435,
				"element": "N" 
			},
			{
				"x": 0.1564674181,
				"y": 1.7067277032,
				"z": 1.7226582168,
				"element": "C" 
			},
			{
				"x": 0.8120483856,
				"y": 1.7109170028,
				"z": 0.5026954697,
				"element": "C" 
			},
			{
				"x": 2.2005178204,
				"y": -1.2158307279,
				"z": -2.429754883,
				"element": "H" 
			},
			{
				"x": 2.6654447442,
				"y": -0.2305362868,
				"z": -1.0347351159,
				"element": "H" 
			},
			{
				"x": 1.0032020941,
				"y": -0.8185054577,
				"z": -1.1592901184,
				"element": "H" 
			},
			{
				"x": 0.4472664075,
				"y": 2.4820398354,
				"z": -2.5968167192,
				"element": "H" 
			},
			{
				"x": -1.9412589885,
				"y": 1.6983845904,
				"z": -1.4630501851,
				"element": "H" 
			},
			{
				"x": -2.9503246306,
				"y": 1.5584431857,
				"z": 2.8136633126,
				"element": "H" 
			},
			{
				"x": -1.5291318812,
				"y": 1.407926513,
				"z": 3.7433065638,
				"element": "H" 
			},
			{
				"x": 0.7134976671,
				"y": 1.7222605516,
				"z": 2.6546394618,
				"element": "H" 
			},
			{
				"x": 1.8967345917,
				"y": 1.7353102316,
				"z": 0.461210271,
				"element": "H" 
			}
		],
		 "valence_orbital": [ 
			{
				"type": "occ",
				"energy": -0.29084,
				"method": "rhf"
			},
			{
				"type": "occ",
				"energy": -0.27696,
				"method": "rhf"
			},
			{
				"type": "occ",
				"energy": -0.25634,
				"method": "rhf"
			},
			{
				"type": "occ",
				"energy": -0.24432,
				"method": "rhf"
			},
			{
				"type": "occ",
				"energy": -0.21405,
				"method": "rhf"
			},
			{
				"type": "unocc",
				"energy": -0.02706,
				"method": "rhf"
			},
			{
				"type": "unocc",
				"energy": -0.00682,
				"method": "rhf"
			},
			{
				"type": "unocc",
				"energy": 0.03504,
				"method": "rhf"
			},
			{
				"type": "unocc",
				"energy": 0.07768,
				"method": "rhf"
			},
			{
				"type": "unocc",
				"energy": 0.09097,
				"method": "rhf"
			}
		],
		"cosmo_sigma_profile": { 
			"-0.025": 0.0,
			"-0.024": 0.0,
			"-0.023": 0.0,
			"-0.022": 0.0,
			"-0.021": 0.0,
			"-0.02": 0.0,
			"-0.019": 0.0,
			"-0.018": 0.0,
			"-0.017": 0.0,
			"-0.016": 0.0,
			"-0.015": 0.0,
			"-0.014": 0.590316177669,
			"-0.013": 2.90396470623,
			"-0.012": 2.74364556292,
			"-0.011": 3.65619230143,
			"-0.01": 3.30400020313,
			"-0.009": 3.72110294906,
			"-0.008": 3.94950134791,
			"-0.007": 7.98966413734,
			"-0.006": 10.4806505713,
			"-0.005": 11.9189064999,
			"-0.004": 10.4847210625,
			"-0.003": 11.6421588659,
			"-0.002": 13.1402708918,
			"-0.001": 15.3851891719,
			"0.0": 11.1715239597,
			"0.001": 10.5115807751,
			"0.002": 11.7241543696,
			"0.003": 10.8609323054,
			"0.004": 6.16164671716,
			"0.005": 4.78834839941,
			"0.006": 3.98960552026,
			"0.007": 3.06399315774,
			"0.008": 3.79822509164,
			"0.009": 3.19363659928,
			"0.01": 2.54885473306,
			"0.011": 2.67481292206,
			"0.012": 3.78374561152,
			"0.013": 5.09798416964,
			"0.014": 6.04199908053,
			"0.015": 2.25722145154,
			"0.016": 0.380242289466,
			"0.017": 0.0,
			"0.018": 0.0,
			"0.019": 0.0,
			"0.02": 0.0,
			"0.021": 0.0,
			"0.022": 0.0,
			"0.023": 0.0,
			"0.024": 0.0,
			"0.025": 0.0
		}
	}
}
