{
	 "smiles": "NC(=S)CN1C(=O)C2=C(C=CC=C2)C1=O", 
	 "Tm": 447.15, 
	 "num_atms": 23, 
	 "gaussian": { 
		 "optdone": 1, 
		 "sigma_profile": "yes", 
		 "theory": "DFT", 
		 "functional": "B3LYP", 
		 "basiset": "6-31G**", 
		 "properties": { 
			 "R2extent": 4808.7951, 
			 "electric_dipole_moment_norm": 6.90363463836, 
			 "electric_quadrupole_moment_norm": 26.7638487019, 
			 "total_energy": -1044.06298165, 
			 "HOMO_LUMO_gap": 0.1088, 
			 "cosmo_polarized_energy": -18.29, 
			 "cosmo_cavitation_energy": 29.79, 
			 "cosmo_dispersion_energy": -21.91, 
			 "cosmo_repulsion_energy": 1.65, 
			 "cosmo_total_nonelectrostatic_energy": 9.53, 
			 "SMD_solvation_energy": 4.97 
		},
		"coords": [
			{
				"x": 0.0416937218,
				"y": 3.5697664271,
				"z": 1.0167876644,
				"element": "N" 
			},
			{
				"x": -0.2322790985,
				"y": 3.1716232658,
				"z": 2.2689101739,
				"element": "C" 
			},
			{
				"x": 0.2733166281,
				"y": 3.9706510652,
				"z": 3.6343995672,
				"element": "S" 
			},
			{
				"x": -1.1159520863,
				"y": 1.9213442005,
				"z": 2.3492182344,
				"element": "C" 
			},
			{
				"x": -0.5468232239,
				"y": 0.7315080636,
				"z": 1.7181409509,
				"element": "N" 
			},
			{
				"x": -0.1101194752,
				"y": -0.3953961951,
				"z": 2.4619274369,
				"element": "C" 
			},
			{
				"x": -0.1016355055,
				"y": -0.4721325964,
				"z": 3.6698104243,
				"element": "O" 
			},
			{
				"x": 0.2819349837,
				"y": -1.4139520274,
				"z": 1.4452595914,
				"element": "C" 
			},
			{
				"x": 0.0341349271,
				"y": -0.8854480417,
				"z": 0.1763109764,
				"element": "C" 
			},
			{
				"x": 0.2925017707,
				"y": -1.6117025932,
				"z": -0.9773274967,
				"element": "C" 
			},
			{
				"x": 0.8130332565,
				"y": -2.9032850832,
				"z": -0.8200822711,
				"element": "C" 
			},
			{
				"x": 1.0613724785,
				"y": -3.4335545706,
				"z": 0.4525797245,
				"element": "C" 
			},
			{
				"x": 0.7967512797,
				"y": -2.6909882561,
				"z": 1.6115632234,
				"element": "C" 
			},
			{
				"x": -0.5042810223,
				"y": 0.492323278,
				"z": 0.3437434415,
				"element": "C" 
			},
			{
				"x": -0.8420242034,
				"y": 1.2883129222,
				"z": -0.5219871149,
				"element": "O" 
			},
			{
				"x": -0.3051351106,
				"y": 3.0506223101,
				"z": 0.2139775255,
				"element": "H" 
			},
			{
				"x": 0.6114097569,
				"y": 4.3929407852,
				"z": 0.8850214242,
				"element": "H" 
			},
			{
				"x": -1.2781400654,
				"y": 1.6728170367,
				"z": 3.396140372,
				"element": "H" 
			},
			{
				"x": -2.0786579002,
				"y": 2.137854455,
				"z": 1.8701466691,
				"element": "H" 
			},
			{
				"x": 0.0959198444,
				"y": -1.1913986303,
				"z": -1.9581829115,
				"element": "H" 
			},
			{
				"x": 1.0280914049,
				"y": -3.5046781101,
				"z": -1.6981124108,
				"element": "H" 
			},
			{
				"x": 1.4655856095,
				"y": -4.4374349455,
				"z": 0.54052878,
				"element": "H" 
			},
			{
				"x": 0.9847020296,
				"y": -3.0919927595,
				"z": 2.6021260251,
				"element": "H" 
			}
		],
		 "valence_orbital": [ 
			{
				"type": "occ",
				"energy": -0.28972,
				"method": "rhf"
			},
			{
				"type": "occ",
				"energy": -0.28561,
				"method": "rhf"
			},
			{
				"type": "occ",
				"energy": -0.28219,
				"method": "rhf"
			},
			{
				"type": "occ",
				"energy": -0.23057,
				"method": "rhf"
			},
			{
				"type": "occ",
				"energy": -0.20601,
				"method": "rhf"
			},
			{
				"type": "unocc",
				"energy": -0.09721,
				"method": "rhf"
			},
			{
				"type": "unocc",
				"energy": -0.05382,
				"method": "rhf"
			},
			{
				"type": "unocc",
				"energy": -0.03375,
				"method": "rhf"
			},
			{
				"type": "unocc",
				"energy": 0.01487,
				"method": "rhf"
			},
			{
				"type": "unocc",
				"energy": 0.05545,
				"method": "rhf"
			}
		],
		"cosmo_sigma_profile": { 
			"-0.025": 0.0,
			"-0.024": 0.0,
			"-0.023": 0.0,
			"-0.022": 0.0,
			"-0.021": 0.0,
			"-0.02": 0.0,
			"-0.019": 0.0,
			"-0.018": 0.0,
			"-0.017": 0.0,
			"-0.016": 0.0198948202621,
			"-0.015": 0.970090675665,
			"-0.014": 1.12279747405,
			"-0.013": 1.15122804267,
			"-0.012": 1.28989091361,
			"-0.011": 1.56340613195,
			"-0.01": 1.46853115562,
			"-0.009": 1.89541111325,
			"-0.008": 6.87561511299,
			"-0.007": 13.7330899213,
			"-0.006": 17.9286329665,
			"-0.005": 17.866601235,
			"-0.004": 14.5189725399,
			"-0.003": 13.01274991,
			"-0.002": 13.3678694148,
			"-0.001": 15.4316462189,
			"0.0": 14.0560901108,
			"0.001": 18.5328148199,
			"0.002": 14.2237176282,
			"0.003": 7.05321103031,
			"0.004": 7.20993744433,
			"0.005": 5.65925184248,
			"0.006": 5.95963083787,
			"0.007": 7.43956141786,
			"0.008": 10.0006580137,
			"0.009": 10.2329858642,
			"0.01": 10.0370346516,
			"0.011": 8.1571248779,
			"0.012": 1.55216553996,
			"0.013": 0.00522536224356,
			"0.014": 0.0,
			"0.015": 0.0,
			"0.016": 0.0,
			"0.017": 0.0,
			"0.018": 0.0,
			"0.019": 0.0,
			"0.02": 0.0,
			"0.021": 0.0,
			"0.022": 0.0,
			"0.023": 0.0,
			"0.024": 0.0,
			"0.025": 0.0
		}
	}
}
