{
	 "smiles": "BrC1=C2C(=O)OC(=O)C2=C(Br)C(Br)=C1Br", 
	 "Tm": 548.15, 
	 "num_atms": 15, 
	 "gaussian": { 
		 "optdone": 1, 
		 "sigma_profile": "yes", 
		 "theory": "DFT", 
		 "functional": "B3LYP", 
		 "basiset": "6-31G**", 
		 "properties": { 
			 "R2extent": 7999.5046, 
			 "electric_dipole_moment_norm": 3.91760005743, 
			 "electric_quadrupole_moment_norm": 7.94491239977, 
			 "total_energy": -10816.1211328, 
			 "HOMO_LUMO_gap": 0.15855, 
			 "cosmo_polarized_energy": -9.8, 
			 "cosmo_cavitation_energy": 29.62, 
			 "cosmo_dispersion_energy": -23.4, 
			 "cosmo_repulsion_energy": 1.78, 
			 "cosmo_total_nonelectrostatic_energy": 8.0, 
			 "SMD_solvation_energy": 2.92 
		},
		"coords": [
			{
				"x": 1.6293568858,
				"y": -2.1321919117,
				"z": 0.4403702089,
				"element": "Br" 
			},
			{
				"x": 0.5517538312,
				"y": -0.588469826,
				"z": 0.3527660902,
				"element": "C" 
			},
			{
				"x": -0.7444537035,
				"y": -0.6663805363,
				"z": -0.1429732139,
				"element": "C" 
			},
			{
				"x": -1.5179513503,
				"y": -1.8291696432,
				"z": -0.664236322,
				"element": "C" 
			},
			{
				"x": -1.2175847136,
				"y": -2.9810315648,
				"z": -0.7862630374,
				"element": "O" 
			},
			{
				"x": -2.7729986042,
				"y": -1.3495803996,
				"z": -1.0324135815,
				"element": "O" 
			},
			{
				"x": -2.8726038018,
				"y": 0.0190876948,
				"z": -0.7924830141,
				"element": "C" 
			},
			{
				"x": -3.8685431143,
				"y": 0.6356934957,
				"z": -1.0370119712,
				"element": "O" 
			},
			{
				"x": -1.5669847161,
				"y": 0.4559786735,
				"z": -0.2210295774,
				"element": "C" 
			},
			{
				"x": -1.1324345747,
				"y": 1.70974963,
				"z": 0.1927441724,
				"element": "C" 
			},
			{
				"x": -2.278562541,
				"y": 3.2006785535,
				"z": 0.0685968858,
				"element": "Br" 
			},
			{
				"x": 0.18011937,
				"y": 1.8129016595,
				"z": 0.6996458874,
				"element": "C" 
			},
			{
				"x": 0.8185284355,
				"y": 3.4949590462,
				"z": 1.2748550882,
				"element": "Br" 
			},
			{
				"x": 1.014446293,
				"y": 0.6743058809,
				"z": 0.7790484626,
				"element": "C" 
			},
			{
				"x": 2.7686123041,
				"y": 0.8331692473,
				"z": 1.4611839219,
				"element": "Br" 
			}
		],
		 "valence_orbital": [ 
			{
				"type": "occ",
				"energy": -0.30692,
				"method": "rhf"
			},
			{
				"type": "occ",
				"energy": -0.30291,
				"method": "rhf"
			},
			{
				"type": "occ",
				"energy": -0.28657,
				"method": "rhf"
			},
			{
				"type": "occ",
				"energy": -0.28217,
				"method": "rhf"
			},
			{
				"type": "occ",
				"energy": -0.27587,
				"method": "rhf"
			},
			{
				"type": "unocc",
				"energy": -0.11732,
				"method": "rhf"
			},
			{
				"type": "unocc",
				"energy": -0.08813,
				"method": "rhf"
			},
			{
				"type": "unocc",
				"energy": -0.07379,
				"method": "rhf"
			},
			{
				"type": "unocc",
				"energy": -0.02516,
				"method": "rhf"
			},
			{
				"type": "unocc",
				"energy": -0.01504,
				"method": "rhf"
			}
		],
		"cosmo_sigma_profile": { 
			"-0.025": 0.0,
			"-0.024": 0.0,
			"-0.023": 0.0,
			"-0.022": 0.0,
			"-0.021": 0.0,
			"-0.02": 0.0,
			"-0.019": 0.0,
			"-0.018": 0.0,
			"-0.017": 0.0,
			"-0.016": 0.0,
			"-0.015": 0.0,
			"-0.014": 0.0,
			"-0.013": 0.0,
			"-0.012": 0.123645610844,
			"-0.011": 0.973809021531,
			"-0.01": 1.83341433101,
			"-0.009": 1.67910720191,
			"-0.008": 3.08673690311,
			"-0.007": 7.43981877638,
			"-0.006": 12.3321887633,
			"-0.005": 14.8387718997,
			"-0.004": 23.0858952604,
			"-0.003": 16.5983414863,
			"-0.002": 14.9128327632,
			"-0.001": 16.5993095623,
			"0.0": 15.892748327,
			"0.001": 22.568535031,
			"0.002": 37.1765103036,
			"0.003": 19.0341205861,
			"0.004": 4.85315765897,
			"0.005": 7.45362650298,
			"0.006": 7.148565053,
			"0.007": 6.23329107239,
			"0.008": 8.25366995772,
			"0.009": 9.64909472156,
			"0.01": 1.48002194265,
			"0.011": 0.0,
			"0.012": 0.0,
			"0.013": 0.0,
			"0.014": 0.0,
			"0.015": 0.0,
			"0.016": 0.0,
			"0.017": 0.0,
			"0.018": 0.0,
			"0.019": 0.0,
			"0.02": 0.0,
			"0.021": 0.0,
			"0.022": 0.0,
			"0.023": 0.0,
			"0.024": 0.0,
			"0.025": 0.0
		}
	}
}
