{
	 "smiles": "O=C(NCCC1=CC=CC=C1)N1C=CN=C1", 
	 "Tm": 377.15, 
	 "num_atms": 29, 
	 "gaussian": { 
		 "optdone": 1, 
		 "sigma_profile": "yes", 
		 "theory": "DFT", 
		 "functional": "B3LYP", 
		 "basiset": "6-31G**", 
		 "properties": { 
			 "R2extent": 5489.7201, 
			 "electric_dipole_moment_norm": 5.43095895492, 
			 "electric_quadrupole_moment_norm": 7.1387913753, 
			 "total_energy": -704.595674374, 
			 "HOMO_LUMO_gap": 0.21655, 
			 "cosmo_polarized_energy": -15.75, 
			 "cosmo_cavitation_energy": 33.34, 
			 "cosmo_dispersion_energy": -23.35, 
			 "cosmo_repulsion_energy": 1.81, 
			 "cosmo_total_nonelectrostatic_energy": 11.8, 
			 "SMD_solvation_energy": 5.15 
		},
		"coords": [
			{
				"x": -1.3435514175,
				"y": -2.0571133169,
				"z": -0.9103191604,
				"element": "O" 
			},
			{
				"x": -0.5597575784,
				"y": -1.2438351422,
				"z": -0.4554454371,
				"element": "C" 
			},
			{
				"x": -0.9310176019,
				"y": -0.1944859643,
				"z": 0.3447235111,
				"element": "N" 
			},
			{
				"x": -0.3476342762,
				"y": 1.1502030156,
				"z": 0.3879501919,
				"element": "C" 
			},
			{
				"x": -0.316283126,
				"y": 1.7204894713,
				"z": 1.8189032721,
				"element": "C" 
			},
			{
				"x": -1.6944936362,
				"y": 1.8680631777,
				"z": 2.4305268755,
				"element": "C" 
			},
			{
				"x": -2.2460661624,
				"y": 0.8498657352,
				"z": 3.2211296457,
				"element": "C" 
			},
			{
				"x": -3.533686541,
				"y": 0.9711301463,
				"z": 3.7482577602,
				"element": "C" 
			},
			{
				"x": -4.2903590092,
				"y": 2.1155370692,
				"z": 3.4930605238,
				"element": "C" 
			},
			{
				"x": -3.7516588934,
				"y": 3.1381337816,
				"z": 2.7089957838,
				"element": "C" 
			},
			{
				"x": -2.4656111463,
				"y": 3.013316064,
				"z": 2.1832042298,
				"element": "C" 
			},
			{
				"x": 0.8393384805,
				"y": -1.3777451857,
				"z": -0.7058767906,
				"element": "N" 
			},
			{
				"x": 1.9369372676,
				"y": -1.0424778157,
				"z": 0.086622378,
				"element": "C" 
			},
			{
				"x": 3.0297403027,
				"y": -1.4923468914,
				"z": -0.6000504592,
				"element": "C" 
			},
			{
				"x": 2.6557448693,
				"y": -2.0934451586,
				"z": -1.7889890478,
				"element": "N" 
			},
			{
				"x": 1.3495601485,
				"y": -2.0250593609,
				"z": -1.8142054231,
				"element": "C" 
			},
			{
				"x": -1.9284039511,
				"y": -0.227168847,
				"z": 0.5205839501,
				"element": "H" 
			},
			{
				"x": -0.9324019834,
				"y": 1.8201264984,
				"z": -0.2569766823,
				"element": "H" 
			},
			{
				"x": 0.661913466,
				"y": 1.1097337654,
				"z": -0.0215673736,
				"element": "H" 
			},
			{
				"x": 0.3045874781,
				"y": 1.0705843558,
				"z": 2.4458893548,
				"element": "H" 
			},
			{
				"x": 0.1788704075,
				"y": 2.6977704448,
				"z": 1.7756221567,
				"element": "H" 
			},
			{
				"x": -1.6594412904,
				"y": -0.0413002843,
				"z": 3.4291709701,
				"element": "H" 
			},
			{
				"x": -3.9423141455,
				"y": 0.1728560196,
				"z": 4.3612579063,
				"element": "H" 
			},
			{
				"x": -5.2903609908,
				"y": 2.2126606574,
				"z": 3.905425318,
				"element": "H" 
			},
			{
				"x": -4.3311410114,
				"y": 4.0353581208,
				"z": 2.5107823456,
				"element": "H" 
			},
			{
				"x": -2.0509323979,
				"y": 3.8173580218,
				"z": 1.579182102,
				"element": "H" 
			},
			{
				"x": 1.8265237508,
				"y": -0.5848093483,
				"z": 1.0559068583,
				"element": "H" 
			},
			{
				"x": 4.0681141211,
				"y": -1.4275211584,
				"z": -0.3052810098,
				"element": "H" 
			},
			{
				"x": 0.694184867,
				"y": -2.4034778714,
				"z": -2.5846837498,
				"element": "H" 
			}
		],
		 "valence_orbital": [ 
			{
				"type": "occ",
				"energy": -0.27001,
				"method": "rhf"
			},
			{
				"type": "occ",
				"energy": -0.26969,
				"method": "rhf"
			},
			{
				"type": "occ",
				"energy": -0.26146,
				"method": "rhf"
			},
			{
				"type": "occ",
				"energy": -0.25401,
				"method": "rhf"
			},
			{
				"type": "occ",
				"energy": -0.23668,
				"method": "rhf"
			},
			{
				"type": "unocc",
				"energy": -0.02013,
				"method": "rhf"
			},
			{
				"type": "unocc",
				"energy": -0.01486,
				"method": "rhf"
			},
			{
				"type": "unocc",
				"energy": -0.01261,
				"method": "rhf"
			},
			{
				"type": "unocc",
				"energy": 0.05212,
				"method": "rhf"
			},
			{
				"type": "unocc",
				"energy": 0.06156,
				"method": "rhf"
			}
		],
		"cosmo_sigma_profile": { 
			"-0.025": 0.0,
			"-0.024": 0.0,
			"-0.023": 0.0,
			"-0.022": 0.0,
			"-0.021": 0.0,
			"-0.02": 0.0,
			"-0.019": 0.0,
			"-0.018": 0.0,
			"-0.017": 0.0,
			"-0.016": 0.0,
			"-0.015": 0.0,
			"-0.014": 0.0,
			"-0.013": 0.125550528176,
			"-0.012": 0.573725671557,
			"-0.011": 0.599319400532,
			"-0.01": 0.872963714056,
			"-0.009": 2.20232269998,
			"-0.008": 4.37977020403,
			"-0.007": 6.39162640512,
			"-0.006": 10.0221875926,
			"-0.005": 27.4478911717,
			"-0.004": 33.5082931246,
			"-0.003": 24.6872870741,
			"-0.002": 17.5035494025,
			"-0.001": 17.3836271099,
			"0.0": 13.7224157971,
			"0.001": 14.5657991269,
			"0.002": 12.8283774742,
			"0.003": 14.2460122554,
			"0.004": 13.5043637268,
			"0.005": 12.0771263864,
			"0.006": 10.1281785732,
			"0.007": 2.74079025862,
			"0.008": 3.48140212781,
			"0.009": 2.83103437513,
			"0.01": 2.70397946811,
			"0.011": 3.4024852276,
			"0.012": 6.68175957075,
			"0.013": 3.11675150921,
			"0.014": 1.01307932506,
			"0.015": 1.27927942934,
			"0.016": 0.752444638525,
			"0.017": 1.01553966547,
			"0.018": 0.037292638661,
			"0.019": 0.0,
			"0.02": 0.0,
			"0.021": 0.0,
			"0.022": 0.0,
			"0.023": 0.0,
			"0.024": 0.0,
			"0.025": 0.0
		}
	}
}
