{
	 "smiles": "COC1=C(OC)C(OC(C)=O)=CC(=C1)C(O)=O", 
	 "Tm": 424.15, 
	 "num_atms": 29, 
	 "gaussian": { 
		 "optdone": 1, 
		 "sigma_profile": "yes", 
		 "theory": "DFT", 
		 "functional": "B3LYP", 
		 "basiset": "6-31G**", 
		 "properties": { 
			 "R2extent": 4781.4187, 
			 "electric_dipole_moment_norm": 5.09909712302, 
			 "electric_quadrupole_moment_norm": 17.6719513733, 
			 "total_energy": -877.729472114, 
			 "HOMO_LUMO_gap": 0.18852, 
			 "cosmo_polarized_energy": -18.44, 
			 "cosmo_cavitation_energy": 34.4, 
			 "cosmo_dispersion_energy": -23.9, 
			 "cosmo_repulsion_energy": 1.89, 
			 "cosmo_total_nonelectrostatic_energy": 12.38, 
			 "SMD_solvation_energy": 10.07 
		},
		"coords": [
			{
				"x": 1.9307180079,
				"y": 1.8516070443,
				"z": -2.2592974016,
				"element": "C" 
			},
			{
				"x": 0.5942441684,
				"y": 1.4132798389,
				"z": -2.0414392254,
				"element": "O" 
			},
			{
				"x": 0.3584109335,
				"y": 0.5807336169,
				"z": -0.9915976539,
				"element": "C" 
			},
			{
				"x": -0.9836791582,
				"y": 0.1503383625,
				"z": -0.8485202462,
				"element": "C" 
			},
			{
				"x": -1.9491897754,
				"y": 0.5020352498,
				"z": -1.7439335274,
				"element": "O" 
			},
			{
				"x": -2.3700707213,
				"y": 1.8719706041,
				"z": -1.711980073,
				"element": "C" 
			},
			{
				"x": -1.3081210658,
				"y": -0.7065431632,
				"z": 0.208678122,
				"element": "C" 
			},
			{
				"x": -2.6562250008,
				"y": -1.0086370056,
				"z": 0.3510804671,
				"element": "O" 
			},
			{
				"x": -3.062038396,
				"y": -2.3059217911,
				"z": 0.5491624977,
				"element": "C" 
			},
			{
				"x": -4.5673373618,
				"y": -2.3601359834,
				"z": 0.5896342993,
				"element": "C" 
			},
			{
				"x": -2.3104373008,
				"y": -3.2415792405,
				"z": 0.6685105105,
				"element": "O" 
			},
			{
				"x": -0.3381425083,
				"y": -1.1643243278,
				"z": 1.1007905418,
				"element": "C" 
			},
			{
				"x": 0.9842525477,
				"y": -0.7496639848,
				"z": 0.9338956557,
				"element": "C" 
			},
			{
				"x": 1.3289924562,
				"y": 0.1352666985,
				"z": -0.0976000188,
				"element": "C" 
			},
			{
				"x": 2.0847823127,
				"y": -1.1986717333,
				"z": 1.8457435898,
				"element": "C" 
			},
			{
				"x": 1.8698844967,
				"y": -2.3490918767,
				"z": 2.5365025881,
				"element": "O" 
			},
			{
				"x": 3.1242471102,
				"y": -0.5948707882,
				"z": 1.9807162428,
				"element": "O" 
			},
			{
				"x": 1.8948886494,
				"y": 2.4856112037,
				"z": -3.1458891163,
				"element": "H" 
			},
			{
				"x": 2.6031902417,
				"y": 1.0054475406,
				"z": -2.4438026257,
				"element": "H" 
			},
			{
				"x": 2.3074224514,
				"y": 2.4334785546,
				"z": -1.4094479965,
				"element": "H" 
			},
			{
				"x": -3.1429717874,
				"y": 1.9655001724,
				"z": -2.4768332973,
				"element": "H" 
			},
			{
				"x": -2.7959123599,
				"y": 2.123855622,
				"z": -0.7332626864,
				"element": "H" 
			},
			{
				"x": -1.5420048447,
				"y": 2.5477618063,
				"z": -1.9423418529,
				"element": "H" 
			},
			{
				"x": -4.9734758006,
				"y": -2.0369293017,
				"z": -0.3734986275,
				"element": "H" 
			},
			{
				"x": -4.8871649779,
				"y": -3.3787419932,
				"z": 0.8056879354,
				"element": "H" 
			},
			{
				"x": -4.9488850504,
				"y": -1.6741189459,
				"z": 1.351187339,
				"element": "H" 
			},
			{
				"x": -0.6408596895,
				"y": -1.7992736332,
				"z": 1.9233857495,
				"element": "H" 
			},
			{
				"x": 2.3632793289,
				"y": 0.4447173463,
				"z": -0.1728670798,
				"element": "H" 
			},
			{
				"x": 1.091403094,
				"y": -2.8065998923,
				"z": 2.1875358901,
				"element": "H" 
			}
		],
		 "valence_orbital": [ 
			{
				"type": "occ",
				"energy": -0.28917,
				"method": "rhf"
			},
			{
				"type": "occ",
				"energy": -0.28801,
				"method": "rhf"
			},
			{
				"type": "occ",
				"energy": -0.27104,
				"method": "rhf"
			},
			{
				"type": "occ",
				"energy": -0.24897,
				"method": "rhf"
			},
			{
				"type": "occ",
				"energy": -0.2347,
				"method": "rhf"
			},
			{
				"type": "unocc",
				"energy": -0.04618,
				"method": "rhf"
			},
			{
				"type": "unocc",
				"energy": -0.01989,
				"method": "rhf"
			},
			{
				"type": "unocc",
				"energy": 0.00686,
				"method": "rhf"
			},
			{
				"type": "unocc",
				"energy": 0.05394,
				"method": "rhf"
			},
			{
				"type": "unocc",
				"energy": 0.06293,
				"method": "rhf"
			}
		],
		"cosmo_sigma_profile": { 
			"-0.025": 0.0,
			"-0.024": 0.0,
			"-0.023": 0.0,
			"-0.022": 0.0,
			"-0.021": 0.0,
			"-0.02": 0.0,
			"-0.019": 0.0,
			"-0.018": 0.246880180058,
			"-0.017": 0.625047267309,
			"-0.016": 0.685445666876,
			"-0.015": 1.58265861525,
			"-0.014": 1.105339816,
			"-0.013": 0.818575423071,
			"-0.012": 1.14854346131,
			"-0.011": 0.854528002477,
			"-0.01": 1.32537427084,
			"-0.009": 1.43816253035,
			"-0.008": 0.780949122026,
			"-0.007": 7.00302626669,
			"-0.006": 20.6965015384,
			"-0.005": 21.7943410284,
			"-0.004": 24.7415703799,
			"-0.003": 28.6973401458,
			"-0.002": 20.8707395117,
			"-0.001": 14.5610266447,
			"0.0": 14.4702851433,
			"0.001": 16.6112933122,
			"0.002": 14.3925764859,
			"0.003": 8.81424051656,
			"0.004": 6.95057872754,
			"0.005": 8.38732137454,
			"0.006": 5.37869137557,
			"0.007": 6.45533012663,
			"0.008": 7.67090439824,
			"0.009": 7.57314688997,
			"0.01": 11.2148964327,
			"0.011": 9.57335049524,
			"0.012": 5.66279918306,
			"0.013": 1.48532801808,
			"0.014": 0.0308799082883,
			"0.015": 0.0,
			"0.016": 0.0,
			"0.017": 0.0,
			"0.018": 0.0,
			"0.019": 0.0,
			"0.02": 0.0,
			"0.021": 0.0,
			"0.022": 0.0,
			"0.023": 0.0,
			"0.024": 0.0,
			"0.025": 0.0
		}
	}
}
