{
	 "smiles": "CC1=CNC(=O)N1C1=CC=C(Cl)C=C1", 
	 "Tm": 459.15, 
	 "num_atms": 23, 
	 "gaussian": { 
		 "optdone": 1, 
		 "sigma_profile": "yes", 
		 "theory": "DFT", 
		 "functional": "B3LYP", 
		 "basiset": "6-31G**", 
		 "properties": { 
			 "R2extent": 4561.1371, 
			 "electric_dipole_moment_norm": 4.91373928796, 
			 "electric_quadrupole_moment_norm": 6.77838836229, 
			 "total_energy": -1031.42284592, 
			 "HOMO_LUMO_gap": 0.17646, 
			 "cosmo_polarized_energy": -14.23, 
			 "cosmo_cavitation_energy": 28.86, 
			 "cosmo_dispersion_energy": -21.2, 
			 "cosmo_repulsion_energy": 1.67, 
			 "cosmo_total_nonelectrostatic_energy": 9.34, 
			 "SMD_solvation_energy": 5.73 
		},
		"coords": [
			{
				"x": -0.7114565259,
				"y": -1.7075286079,
				"z": -0.9429204088,
				"element": "C" 
			},
			{
				"x": 0.3985681308,
				"y": -1.1946240884,
				"z": -0.0868720179,
				"element": "C" 
			},
			{
				"x": 1.3090891494,
				"y": -1.8955603785,
				"z": 0.6263633668,
				"element": "C" 
			},
			{
				"x": 2.2053845471,
				"y": -0.9917815795,
				"z": 1.1955922452,
				"element": "N" 
			},
			{
				"x": 1.9005638673,
				"y": 0.3078548209,
				"z": 0.836756665,
				"element": "C" 
			},
			{
				"x": 2.4923063702,
				"y": 1.3344484132,
				"z": 1.1373068207,
				"element": "O" 
			},
			{
				"x": 0.7424255796,
				"y": 0.1723401407,
				"z": 0.0413171608,
				"element": "N" 
			},
			{
				"x": 0.0633022039,
				"y": 1.2914516518,
				"z": -0.5067294227,
				"element": "C" 
			},
			{
				"x": -1.3281031991,
				"y": 1.4067073743,
				"z": -0.4021827601,
				"element": "C" 
			},
			{
				"x": -1.9909178102,
				"y": 2.5004894367,
				"z": -0.9570869877,
				"element": "C" 
			},
			{
				"x": -1.2510034399,
				"y": 3.4956185999,
				"z": -1.5924499611,
				"element": "C" 
			},
			{
				"x": -2.0802779424,
				"y": 4.8813068059,
				"z": -2.2871086484,
				"element": "Cl" 
			},
			{
				"x": 0.1388216029,
				"y": 3.4115040881,
				"z": -1.6765063373,
				"element": "C" 
			},
			{
				"x": 0.7938141482,
				"y": 2.3068590217,
				"z": -1.1384776214,
				"element": "C" 
			},
			{
				"x": -1.7062483444,
				"y": -1.4917043775,
				"z": -0.5381485925,
				"element": "H" 
			},
			{
				"x": -0.6716590152,
				"y": -1.2796524018,
				"z": -1.9506991873,
				"element": "H" 
			},
			{
				"x": -0.620071472,
				"y": -2.7930339613,
				"z": -1.0325926244,
				"element": "H" 
			},
			{
				"x": 1.4046923592,
				"y": -2.9619591709,
				"z": 0.753640709,
				"element": "H" 
			},
			{
				"x": 3.0072219066,
				"y": -1.2055139525,
				"z": 1.7648590956,
				"element": "H" 
			},
			{
				"x": -1.896027164,
				"y": 0.6534960845,
				"z": 0.1317081321,
				"element": "H" 
			},
			{
				"x": -3.0689455672,
				"y": 2.5870598786,
				"z": -0.8802680561,
				"element": "H" 
			},
			{
				"x": 0.7026577175,
				"y": 4.1988945276,
				"z": -2.1640174335,
				"element": "H" 
			},
			{
				"x": 1.8730628976,
				"y": 2.2355276743,
				"z": -1.1879841358,
				"element": "H" 
			}
		],
		 "valence_orbital": [ 
			{
				"type": "occ",
				"energy": -0.30362,
				"method": "rhf"
			},
			{
				"type": "occ",
				"energy": -0.26869,
				"method": "rhf"
			},
			{
				"type": "occ",
				"energy": -0.25711,
				"method": "rhf"
			},
			{
				"type": "occ",
				"energy": -0.24297,
				"method": "rhf"
			},
			{
				"type": "occ",
				"energy": -0.19577,
				"method": "rhf"
			},
			{
				"type": "unocc",
				"energy": -0.01931,
				"method": "rhf"
			},
			{
				"type": "unocc",
				"energy": -0.0151,
				"method": "rhf"
			},
			{
				"type": "unocc",
				"energy": 0.03006,
				"method": "rhf"
			},
			{
				"type": "unocc",
				"energy": 0.03755,
				"method": "rhf"
			},
			{
				"type": "unocc",
				"energy": 0.06852,
				"method": "rhf"
			}
		],
		"cosmo_sigma_profile": { 
			"-0.025": 0.0,
			"-0.024": 0.0,
			"-0.023": 0.0,
			"-0.022": 0.0,
			"-0.021": 0.0,
			"-0.02": 0.0,
			"-0.019": 0.0,
			"-0.018": 0.0,
			"-0.017": 0.0,
			"-0.016": 0.717080750414,
			"-0.015": 1.59940795786,
			"-0.014": 1.07474508804,
			"-0.013": 0.734376650543,
			"-0.012": 1.21478138554,
			"-0.011": 0.691603251342,
			"-0.01": 1.36291692157,
			"-0.009": 1.76457998989,
			"-0.008": 5.10484021118,
			"-0.007": 8.80541722399,
			"-0.006": 11.3507971461,
			"-0.005": 13.6422225564,
			"-0.004": 11.1481842304,
			"-0.003": 13.9750039138,
			"-0.002": 14.5080408582,
			"-0.001": 17.6619876333,
			"0.0": 19.3389266701,
			"0.001": 18.3987561922,
			"0.002": 20.4527893664,
			"0.003": 23.225849717,
			"0.004": 15.9021102111,
			"0.005": 9.06543401493,
			"0.006": 2.62479980873,
			"0.007": 1.30463985526,
			"0.008": 1.14976749377,
			"0.009": 0.938244868469,
			"0.01": 1.79490000825,
			"0.011": 1.52866361176,
			"0.012": 1.99856340143,
			"0.013": 1.72587665487,
			"0.014": 5.95957944676,
			"0.015": 2.42937582875,
			"0.016": 0.0131794776478,
			"0.017": 0.0,
			"0.018": 0.0,
			"0.019": 0.0,
			"0.02": 0.0,
			"0.021": 0.0,
			"0.022": 0.0,
			"0.023": 0.0,
			"0.024": 0.0,
			"0.025": 0.0
		}
	}
}
