{
	 "smiles": "COC(=O)CNC1=C(C=NC=C1)[N+]([O-])=O", 
	 "Tm": 378.15, 
	 "num_atms": 24, 
	 "gaussian": { 
		 "optdone": 1, 
		 "sigma_profile": "yes", 
		 "theory": "DFT", 
		 "functional": "B3LYP", 
		 "basiset": "6-31G**", 
		 "properties": { 
			 "R2extent": 4490.4058, 
			 "electric_dipole_moment_norm": 3.77147004098, 
			 "electric_quadrupole_moment_norm": 23.4347086967, 
			 "total_energy": -775.326103792, 
			 "HOMO_LUMO_gap": 0.15159, 
			 "cosmo_polarized_energy": -15.7, 
			 "cosmo_cavitation_energy": 29.37, 
			 "cosmo_dispersion_energy": -20.9, 
			 "cosmo_repulsion_energy": 1.66, 
			 "cosmo_total_nonelectrostatic_energy": 10.12, 
			 "SMD_solvation_energy": 6.71 
		},
		"coords": [
			{
				"x": -0.5006737543,
				"y": 1.4488267822,
				"z": 1.7216039028,
				"element": "C" 
			},
			{
				"x": 0.4022837744,
				"y": 0.8249820401,
				"z": 0.7878470928,
				"element": "O" 
			},
			{
				"x": 0.4344303601,
				"y": 1.3743222507,
				"z": -0.4356823317,
				"element": "C" 
			},
			{
				"x": -0.217118135,
				"y": 2.3346597993,
				"z": -0.7814008946,
				"element": "O" 
			},
			{
				"x": 1.4407158906,
				"y": 0.6712174365,
				"z": -1.3556414773,
				"element": "C" 
			},
			{
				"x": 1.6426934429,
				"y": -0.7370768626,
				"z": -1.1182150276,
				"element": "N" 
			},
			{
				"x": 0.7211334408,
				"y": -1.6918320597,
				"z": -1.3874506079,
				"element": "C" 
			},
			{
				"x": 0.9147793219,
				"y": -3.0748371322,
				"z": -1.0925182919,
				"element": "C" 
			},
			{
				"x": -0.0777962872,
				"y": -4.0096629064,
				"z": -1.4242022739,
				"element": "C" 
			},
			{
				"x": -1.2283616533,
				"y": -3.7041369551,
				"z": -2.010124516,
				"element": "N" 
			},
			{
				"x": -1.4198541888,
				"y": -2.3971326208,
				"z": -2.2853573123,
				"element": "C" 
			},
			{
				"x": -0.5187187413,
				"y": -1.3878318276,
				"z": -2.0057090395,
				"element": "C" 
			},
			{
				"x": 2.1098295333,
				"y": -3.5768252613,
				"z": -0.4471592947,
				"element": "N" 
			},
			{
				"x": 2.2071234036,
				"y": -4.7853275291,
				"z": -0.2444995593,
				"element": "O" 
			},
			{
				"x": 2.9977210008,
				"y": -2.7652810436,
				"z": -0.1180677656,
				"element": "O" 
			},
			{
				"x": -0.4093621324,
				"y": 0.8760685005,
				"z": 2.6435798027,
				"element": "H" 
			},
			{
				"x": -1.5247261374,
				"y": 1.4113180537,
				"z": 1.3432903264,
				"element": "H" 
			},
			{
				"x": -0.2196627563,
				"y": 2.4919118191,
				"z": 1.8845571964,
				"element": "H" 
			},
			{
				"x": 2.4045656399,
				"y": 1.1729019402,
				"z": -1.2220699318,
				"element": "H" 
			},
			{
				"x": 1.1226812598,
				"y": 0.8703792795,
				"z": -2.3833510841,
				"element": "H" 
			},
			{
				"x": 2.4513732748,
				"y": -1.0605148229,
				"z": -0.5999972827,
				"element": "H" 
			},
			{
				"x": 0.1053724828,
				"y": -5.0523614836,
				"z": -1.1851307162,
				"element": "H" 
			},
			{
				"x": -2.3663756639,
				"y": -2.1476157189,
				"z": -2.7610354941,
				"element": "H" 
			},
			{
				"x": -0.7702533759,
				"y": -0.3642516778,
				"z": -2.2560654199,
				"element": "H" 
			}
		],
		 "valence_orbital": [ 
			{
				"type": "occ",
				"energy": -0.29997,
				"method": "rhf"
			},
			{
				"type": "occ",
				"energy": -0.2946,
				"method": "rhf"
			},
			{
				"type": "occ",
				"energy": -0.28734,
				"method": "rhf"
			},
			{
				"type": "occ",
				"energy": -0.26948,
				"method": "rhf"
			},
			{
				"type": "occ",
				"energy": -0.24504,
				"method": "rhf"
			},
			{
				"type": "unocc",
				"energy": -0.09345,
				"method": "rhf"
			},
			{
				"type": "unocc",
				"energy": -0.02482,
				"method": "rhf"
			},
			{
				"type": "unocc",
				"energy": -0.01511,
				"method": "rhf"
			},
			{
				"type": "unocc",
				"energy": -0.00183,
				"method": "rhf"
			},
			{
				"type": "unocc",
				"energy": 0.07445,
				"method": "rhf"
			}
		],
		"cosmo_sigma_profile": { 
			"-0.025": 0.0,
			"-0.024": 0.0,
			"-0.023": 0.0,
			"-0.022": 0.0,
			"-0.021": 0.0,
			"-0.02": 0.0,
			"-0.019": 0.0,
			"-0.018": 0.0,
			"-0.017": 0.0,
			"-0.016": 0.0,
			"-0.015": 0.0,
			"-0.014": 0.0169753532681,
			"-0.013": 0.485606686204,
			"-0.012": 0.944866286173,
			"-0.011": 0.950491306928,
			"-0.01": 2.52482363185,
			"-0.009": 3.66727984967,
			"-0.008": 5.99409180294,
			"-0.007": 10.2148289301,
			"-0.006": 16.951391763,
			"-0.005": 16.6898729815,
			"-0.004": 18.549574292,
			"-0.003": 18.6572614992,
			"-0.002": 16.472402841,
			"-0.001": 15.3373569275,
			"0.0": 14.4836876976,
			"0.001": 13.6140163411,
			"0.002": 8.32891856694,
			"0.003": 6.96588759077,
			"0.004": 6.86929229257,
			"0.005": 6.38329594541,
			"0.006": 6.68309047794,
			"0.007": 9.05831440642,
			"0.008": 9.02115053476,
			"0.009": 6.49861945287,
			"0.01": 6.06578040547,
			"0.011": 5.83544172919,
			"0.012": 4.11259378554,
			"0.013": 0.824900286658,
			"0.014": 1.00599386236,
			"0.015": 0.86901223984,
			"0.016": 0.655730560781,
			"0.017": 0.0422569514301,
			"0.018": 0.0,
			"0.019": 0.0,
			"0.02": 0.0,
			"0.021": 0.0,
			"0.022": 0.0,
			"0.023": 0.0,
			"0.024": 0.0,
			"0.025": 0.0
		}
	}
}
