{
	 "smiles": "FC1=C(F)C(F)=C(Br)C(F)=C1F", 
	 "Tm": 242.15, 
	 "num_atms": 12, 
	 "gaussian": { 
		 "optdone": 1, 
		 "sigma_profile": "yes", 
		 "theory": "DFT", 
		 "functional": "B3LYP", 
		 "basiset": "6-31G**", 
		 "properties": { 
			 "R2extent": 4226.9747, 
			 "electric_dipole_moment_norm": 0.251740203384, 
			 "electric_quadrupole_moment_norm": 3.92230830762, 
			 "total_energy": -3299.16723274, 
			 "HOMO_LUMO_gap": 0.22467, 
			 "cosmo_polarized_energy": -2.55, 
			 "cosmo_cavitation_energy": 22.16, 
			 "cosmo_dispersion_energy": -16.08, 
			 "cosmo_repulsion_energy": 1.18, 
			 "cosmo_total_nonelectrostatic_energy": 7.25, 
			 "SMD_solvation_energy": 5.26 
		},
		"coords": [
			{
				"x": 1.9370765833,
				"y": 0.2666429911,
				"z": -0.019907257,
				"element": "F" 
			},
			{
				"x": 0.6621608873,
				"y": 0.6426991047,
				"z": 0.0933999865,
				"element": "C" 
			},
			{
				"x": -0.073557605,
				"y": 0.2819260294,
				"z": 1.2200938183,
				"element": "C" 
			},
			{
				"x": 0.4989755485,
				"y": -0.4408842138,
				"z": 2.186749688,
				"element": "F" 
			},
			{
				"x": -1.4049903618,
				"y": 0.6763382942,
				"z": 1.3352850201,
				"element": "C" 
			},
			{
				"x": -2.0857960967,
				"y": 0.3168766543,
				"z": 2.4249612256,
				"element": "F" 
			},
			{
				"x": -2.0122790725,
				"y": 1.4315595634,
				"z": 0.3310666645,
				"element": "C" 
			},
			{
				"x": -3.8138495876,
				"y": 1.9629721751,
				"z": 0.4911893929,
				"element": "Br" 
			},
			{
				"x": -1.266365427,
				"y": 1.7876272553,
				"z": -0.7934051049,
				"element": "C" 
			},
			{
				"x": -1.812373629,
				"y": 2.5089750324,
				"z": -1.774031673,
				"element": "F" 
			},
			{
				"x": 0.0654758466,
				"y": 1.3964849953,
				"z": -0.9148879892,
				"element": "C" 
			},
			{
				"x": 0.7713229138,
				"y": 1.7422821187,
				"z": -1.9951137717,
				"element": "F" 
			}
		],
		 "valence_orbital": [ 
			{
				"type": "occ",
				"energy": -0.38145,
				"method": "rhf"
			},
			{
				"type": "occ",
				"energy": -0.32948,
				"method": "rhf"
			},
			{
				"type": "occ",
				"energy": -0.31285,
				"method": "rhf"
			},
			{
				"type": "occ",
				"energy": -0.26831,
				"method": "rhf"
			},
			{
				"type": "occ",
				"energy": -0.26472,
				"method": "rhf"
			},
			{
				"type": "unocc",
				"energy": -0.04005,
				"method": "rhf"
			},
			{
				"type": "unocc",
				"energy": -0.03914,
				"method": "rhf"
			},
			{
				"type": "unocc",
				"energy": -0.029,
				"method": "rhf"
			},
			{
				"type": "unocc",
				"energy": 0.03762,
				"method": "rhf"
			},
			{
				"type": "unocc",
				"energy": 0.09343,
				"method": "rhf"
			}
		],
		"cosmo_sigma_profile": { 
			"-0.025": 0.0,
			"-0.024": 0.0,
			"-0.023": 0.0,
			"-0.022": 0.0,
			"-0.021": 0.0,
			"-0.02": 0.0,
			"-0.019": 0.0,
			"-0.018": 0.0,
			"-0.017": 0.0,
			"-0.016": 0.0,
			"-0.015": 0.0,
			"-0.014": 0.0,
			"-0.013": 0.0,
			"-0.012": 0.0,
			"-0.011": 0.0,
			"-0.01": 0.0,
			"-0.009": 0.0,
			"-0.008": 0.0,
			"-0.007": 0.756860244827,
			"-0.006": 2.62460070453,
			"-0.005": 6.47174223322,
			"-0.004": 20.0116033425,
			"-0.003": 16.0573951093,
			"-0.002": 11.7085395241,
			"-0.001": 12.9376561583,
			"0.0": 11.0404775335,
			"0.001": 18.0098085752,
			"0.002": 54.5916176486,
			"0.003": 28.1852729328,
			"0.004": 1.58944786104,
			"0.005": 0.0,
			"0.006": 0.0,
			"0.007": 0.0,
			"0.008": 0.0,
			"0.009": 0.0,
			"0.01": 0.0,
			"0.011": 0.0,
			"0.012": 0.0,
			"0.013": 0.0,
			"0.014": 0.0,
			"0.015": 0.0,
			"0.016": 0.0,
			"0.017": 0.0,
			"0.018": 0.0,
			"0.019": 0.0,
			"0.02": 0.0,
			"0.021": 0.0,
			"0.022": 0.0,
			"0.023": 0.0,
			"0.024": 0.0,
			"0.025": 0.0
		}
	}
}
