{
	 "smiles": "FC1=CC=CC(F)=C1C(=O)NC(=O)NC1=C(F)C(Cl)=C(F)C(Cl)=C1", 
	 "Tm": 498.15, 
	 "num_atms": 30, 
	 "gaussian": { 
		 "optdone": 1, 
		 "sigma_profile": "yes", 
		 "theory": "DFT", 
		 "functional": "B3LYP", 
		 "basiset": "6-31G**", 
		 "properties": { 
			 "R2extent": 16009.2067, 
			 "electric_dipole_moment_norm": 7.85509767412, 
			 "electric_quadrupole_moment_norm": 14.288062061, 
			 "total_energy": -2116.80762489, 
			 "HOMO_LUMO_gap": 0.1561, 
			 "cosmo_polarized_energy": -12.33, 
			 "cosmo_cavitation_energy": 41.79, 
			 "cosmo_dispersion_energy": -30.14, 
			 "cosmo_repulsion_energy": 2.17, 
			 "cosmo_total_nonelectrostatic_energy": 13.82, 
			 "SMD_solvation_energy": 9.18 
		},
		"coords": [
			{
				"x": -1.5094746119,
				"y": 2.9983574868,
				"z": -1.4830013204,
				"element": "F" 
			},
			{
				"x": -2.2315327659,
				"y": 2.8345490367,
				"z": -0.3477630587,
				"element": "C" 
			},
			{
				"x": -3.4542172793,
				"y": 3.4833974659,
				"z": -0.2750339074,
				"element": "C" 
			},
			{
				"x": -4.222399864,
				"y": 3.3270401757,
				"z": 0.878305497,
				"element": "C" 
			},
			{
				"x": -3.7664593099,
				"y": 2.5331987097,
				"z": 1.9282694918,
				"element": "C" 
			},
			{
				"x": -2.5302563036,
				"y": 1.9065225789,
				"z": 1.819314044,
				"element": "C" 
			},
			{
				"x": -2.1370860319,
				"y": 1.1358670677,
				"z": 2.8363381416,
				"element": "F" 
			},
			{
				"x": -1.7101180736,
				"y": 2.0321615178,
				"z": 0.6803418284,
				"element": "C" 
			},
			{
				"x": -0.3635188087,
				"y": 1.3688231453,
				"z": 0.6483478882,
				"element": "C" 
			},
			{
				"x": 0.2537807022,
				"y": 1.1283279923,
				"z": 1.6820583837,
				"element": "O" 
			},
			{
				"x": 0.1156632492,
				"y": 1.0273616244,
				"z": -0.5998837892,
				"element": "N" 
			},
			{
				"x": 1.3413374819,
				"y": 0.4030531621,
				"z": -0.9522250086,
				"element": "C" 
			},
			{
				"x": 1.5838802544,
				"y": 0.2263402891,
				"z": -2.136262088,
				"element": "O" 
			},
			{
				"x": 2.1304104702,
				"y": 0.0542206652,
				"z": 0.1055321756,
				"element": "N" 
			},
			{
				"x": 3.3773670382,
				"y": -0.5790299511,
				"z": 0.0298314717,
				"element": "C" 
			},
			{
				"x": 4.0185417835,
				"y": -0.8396762505,
				"z": 1.2501081139,
				"element": "C" 
			},
			{
				"x": 3.4007073744,
				"y": -0.4681836118,
				"z": 2.3856145431,
				"element": "F" 
			},
			{
				"x": 5.2595070123,
				"y": -1.4640095985,
				"z": 1.3138620356,
				"element": "C" 
			},
			{
				"x": 6.016069961,
				"y": -1.767058146,
				"z": 2.8437085943,
				"element": "Cl" 
			},
			{
				"x": 5.8861754107,
				"y": -1.842910305,
				"z": 0.12309706,
				"element": "C" 
			},
			{
				"x": 7.0777619809,
				"y": -2.4430750505,
				"z": 0.1695650791,
				"element": "F" 
			},
			{
				"x": 5.2625191599,
				"y": -1.5909466404,
				"z": -1.0975087485,
				"element": "C" 
			},
			{
				"x": 6.0654170485,
				"y": -2.073320817,
				"z": -2.5693448618,
				"element": "Cl" 
			},
			{
				"x": 4.0182450504,
				"y": -0.9645453602,
				"z": -1.1546951034,
				"element": "C" 
			},
			{
				"x": -3.779479654,
				"y": 4.0929437566,
				"z": -1.1097897396,
				"element": "H" 
			},
			{
				"x": -5.1837635589,
				"y": 3.8241035414,
				"z": 0.9561112131,
				"element": "H" 
			},
			{
				"x": -4.3466619107,
				"y": 2.3850418474,
				"z": 2.8315074611,
				"element": "H" 
			},
			{
				"x": -0.4065166332,
				"y": 1.3043389273,
				"z": -1.4200217052,
				"element": "H" 
			},
			{
				"x": 1.7647162568,
				"y": 0.2935859166,
				"z": 1.030071806,
				"element": "H" 
			},
			{
				"x": 3.541984571,
				"y": -0.7725791761,
				"z": -2.1048554975,
				"element": "H" 
			}
		],
		 "valence_orbital": [ 
			{
				"type": "occ",
				"energy": -0.29072,
				"method": "rhf"
			},
			{
				"type": "occ",
				"energy": -0.28832,
				"method": "rhf"
			},
			{
				"type": "occ",
				"energy": -0.27741,
				"method": "rhf"
			},
			{
				"type": "occ",
				"energy": -0.25505,
				"method": "rhf"
			},
			{
				"type": "occ",
				"energy": -0.23361,
				"method": "rhf"
			},
			{
				"type": "unocc",
				"energy": -0.07751,
				"method": "rhf"
			},
			{
				"type": "unocc",
				"energy": -0.0319,
				"method": "rhf"
			},
			{
				"type": "unocc",
				"energy": -0.0307,
				"method": "rhf"
			},
			{
				"type": "unocc",
				"energy": -0.02297,
				"method": "rhf"
			},
			{
				"type": "unocc",
				"energy": -0.00745,
				"method": "rhf"
			}
		],
		"cosmo_sigma_profile": { 
			"-0.025": 0.0,
			"-0.024": 0.0,
			"-0.023": 0.0,
			"-0.022": 0.0,
			"-0.021": 0.0,
			"-0.02": 0.0,
			"-0.019": 0.0,
			"-0.018": 0.0,
			"-0.017": 0.0,
			"-0.016": 0.0,
			"-0.015": 0.0,
			"-0.014": 0.0,
			"-0.013": 0.357522113468,
			"-0.012": 0.877169149668,
			"-0.011": 0.751438287636,
			"-0.01": 0.965217514938,
			"-0.009": 1.43511760852,
			"-0.008": 6.93498241652,
			"-0.007": 7.5944985704,
			"-0.006": 9.11089319516,
			"-0.005": 12.0591591492,
			"-0.004": 17.9813202822,
			"-0.003": 25.7664675568,
			"-0.002": 39.0810414399,
			"-0.001": 37.6607289254,
			"0.0": 33.0378012401,
			"0.001": 28.4746492236,
			"0.002": 34.3250832622,
			"0.003": 42.1171984936,
			"0.004": 17.699631534,
			"0.005": 4.28122233632,
			"0.006": 2.56738274897,
			"0.007": 2.70728818393,
			"0.008": 3.34934201294,
			"0.009": 3.96347780031,
			"0.01": 3.59516736235,
			"0.011": 4.55203958953,
			"0.012": 2.62255270782,
			"0.013": 0.110854936521,
			"0.014": 0.0,
			"0.015": 0.0,
			"0.016": 0.0,
			"0.017": 0.0,
			"0.018": 0.0,
			"0.019": 0.0,
			"0.02": 0.0,
			"0.021": 0.0,
			"0.022": 0.0,
			"0.023": 0.0,
			"0.024": 0.0,
			"0.025": 0.0
		}
	}
}
