{
	 "smiles": "NC1=NN=C(O1)C1=CC(=CC=C1)[N+]([O-])=O", 
	 "Tm": 530.15, 
	 "num_atms": 21, 
	 "gaussian": { 
		 "optdone": 1, 
		 "sigma_profile": "yes", 
		 "theory": "DFT", 
		 "functional": "B3LYP", 
		 "basiset": "6-31G**", 
		 "properties": { 
			 "R2extent": 4070.259, 
			 "electric_dipole_moment_norm": 2.62431765989, 
			 "electric_quadrupole_moment_norm": 36.964233703, 
			 "total_energy": -753.0203201, 
			 "HOMO_LUMO_gap": 0.13997, 
			 "cosmo_polarized_energy": -18.39, 
			 "cosmo_cavitation_energy": 27.64, 
			 "cosmo_dispersion_energy": -20.49, 
			 "cosmo_repulsion_energy": 1.6, 
			 "cosmo_total_nonelectrostatic_energy": 8.75, 
			 "SMD_solvation_energy": 5.59 
		},
		"coords": [
			{
				"x": 0.6711795305,
				"y": 2.9501634153,
				"z": 4.031667912,
				"element": "N" 
			},
			{
				"x": 1.1878782659,
				"y": 2.4944206853,
				"z": 2.8563773058,
				"element": "C" 
			},
			{
				"x": 2.3969456095,
				"y": 2.6389038344,
				"z": 2.3901283177,
				"element": "N" 
			},
			{
				"x": 2.374556006,
				"y": 2.0634528685,
				"z": 1.1206088349,
				"element": "N" 
			},
			{
				"x": 1.1774816889,
				"y": 1.6108624104,
				"z": 0.9212568597,
				"element": "C" 
			},
			{
				"x": 0.3502852708,
				"y": 1.8550015609,
				"z": 2.0009848761,
				"element": "O" 
			},
			{
				"x": 0.6443304959,
				"y": 0.9133536751,
				"z": -0.2400791811,
				"element": "C" 
			},
			{
				"x": -0.6891053701,
				"y": 0.4889819628,
				"z": -0.2780408547,
				"element": "C" 
			},
			{
				"x": -1.1446769807,
				"y": -0.1742734434,
				"z": -1.4129309621,
				"element": "C" 
			},
			{
				"x": -0.3274740385,
				"y": -0.4305072729,
				"z": -2.5112027649,
				"element": "C" 
			},
			{
				"x": 0.9998135042,
				"y": -0.0016109301,
				"z": -2.4612077375,
				"element": "C" 
			},
			{
				"x": 1.486600618,
				"y": 0.6636385965,
				"z": -1.3395048744,
				"element": "C" 
			},
			{
				"x": -2.5486478925,
				"y": -0.6222442794,
				"z": -1.4499554729,
				"element": "N" 
			},
			{
				"x": -3.2482167977,
				"y": -0.3876191499,
				"z": -0.4654953288,
				"element": "O" 
			},
			{
				"x": -2.9337261123,
				"y": -1.2037078397,
				"z": -2.46297737,
				"element": "O" 
			},
			{
				"x": -0.1028800218,
				"y": 2.4273128226,
				"z": 4.4154998704,
				"element": "H" 
			},
			{
				"x": 1.3691739345,
				"y": 3.2385685802,
				"z": 4.7022876464,
				"element": "H" 
			},
			{
				"x": -1.366087952,
				"y": 0.6644740238,
				"z": 0.547421271,
				"element": "H" 
			},
			{
				"x": -0.733532198,
				"y": -0.9503582628,
				"z": -3.3695029475,
				"element": "H" 
			},
			{
				"x": 1.657068252,
				"y": -0.1889647396,
				"z": -3.3040765028,
				"element": "H" 
			},
			{
				"x": 2.5170341873,
				"y": 0.9992514819,
				"z": -1.2941588975,
				"element": "H" 
			}
		],
		 "valence_orbital": [ 
			{
				"type": "occ",
				"energy": -0.29982,
				"method": "rhf"
			},
			{
				"type": "occ",
				"energy": -0.29605,
				"method": "rhf"
			},
			{
				"type": "occ",
				"energy": -0.28846,
				"method": "rhf"
			},
			{
				"type": "occ",
				"energy": -0.28246,
				"method": "rhf"
			},
			{
				"type": "occ",
				"energy": -0.23465,
				"method": "rhf"
			},
			{
				"type": "unocc",
				"energy": -0.09468,
				"method": "rhf"
			},
			{
				"type": "unocc",
				"energy": -0.06064,
				"method": "rhf"
			},
			{
				"type": "unocc",
				"energy": -0.01193,
				"method": "rhf"
			},
			{
				"type": "unocc",
				"energy": 0.0259,
				"method": "rhf"
			},
			{
				"type": "unocc",
				"energy": 0.05317,
				"method": "rhf"
			}
		],
		"cosmo_sigma_profile": { 
			"-0.025": 0.0,
			"-0.024": 0.0,
			"-0.023": 0.0,
			"-0.022": 0.0,
			"-0.021": 0.0,
			"-0.02": 0.0,
			"-0.019": 0.0,
			"-0.018": 0.0,
			"-0.017": 0.0,
			"-0.016": 0.633394223953,
			"-0.015": 2.70930560131,
			"-0.014": 2.83386040377,
			"-0.013": 2.16390924916,
			"-0.012": 2.38614829098,
			"-0.011": 2.33911785806,
			"-0.01": 1.86442813874,
			"-0.009": 2.33821229687,
			"-0.008": 4.73018816944,
			"-0.007": 8.1688197978,
			"-0.006": 9.91635697793,
			"-0.005": 9.42986408765,
			"-0.004": 12.032275081,
			"-0.003": 15.3752735892,
			"-0.002": 16.6246890725,
			"-0.001": 19.1903780849,
			"0.0": 20.0485259445,
			"0.001": 13.9800733443,
			"0.002": 8.70180991047,
			"0.003": 6.28106703648,
			"0.004": 4.46852789061,
			"0.005": 5.7983703181,
			"0.006": 6.78363336989,
			"0.007": 11.2853791968,
			"0.008": 8.35217997494,
			"0.009": 7.05934347803,
			"0.01": 4.34508972856,
			"0.011": 2.92016525833,
			"0.012": 3.0095930631,
			"0.013": 3.22728202551,
			"0.014": 2.06049520009,
			"0.015": 1.10380505634,
			"0.016": 0.683929306729,
			"0.017": 0.0,
			"0.018": 0.0,
			"0.019": 0.0,
			"0.02": 0.0,
			"0.021": 0.0,
			"0.022": 0.0,
			"0.023": 0.0,
			"0.024": 0.0,
			"0.025": 0.0
		}
	}
}
