{
	 "smiles": "OCC1(O)C2OC3(O)OC1C1C(O)NC(=N)NC1(C2O)[C@@H]3O", 
	 "Tm": 498.15, 
	 "num_atms": 39, 
	 "gaussian": { 
		 "optdone": 1, 
		 "sigma_profile": "yes", 
		 "theory": "DFT", 
		 "functional": "B3LYP", 
		 "basiset": "6-31G**", 
		 "properties": { 
			 "R2extent": 5203.8114, 
			 "electric_dipole_moment_norm": 2.96500591062, 
			 "electric_quadrupole_moment_norm": 17.4562105281, 
			 "total_energy": -1195.41437696, 
			 "HOMO_LUMO_gap": 0.27154, 
			 "cosmo_polarized_energy": -32.66, 
			 "cosmo_cavitation_energy": 36.66, 
			 "cosmo_dispersion_energy": -27.28, 
			 "cosmo_repulsion_energy": 2.05, 
			 "cosmo_total_nonelectrostatic_energy": 11.42, 
			 "SMD_solvation_energy": 4.03 
		},
		"coords": [
			{
				"x": -0.1351738148,
				"y": 4.1617732779,
				"z": 0.5989196181,
				"element": "O" 
			},
			{
				"x": 0.4573716835,
				"y": 3.0253966812,
				"z": 1.2437391959,
				"element": "C" 
			},
			{
				"x": 0.7355540606,
				"y": 2.0189732028,
				"z": 0.1185901533,
				"element": "C" 
			},
			{
				"x": 1.5497553709,
				"y": 2.6818080959,
				"z": -0.8370293364,
				"element": "O" 
			},
			{
				"x": 1.5227115567,
				"y": 0.7677306657,
				"z": 0.5665128842,
				"element": "C" 
			},
			{
				"x": 1.8447626762,
				"y": 0.0108082386,
				"z": -0.6109121046,
				"element": "O" 
			},
			{
				"x": 0.692170837,
				"y": -0.4179082322,
				"z": -1.3210535321,
				"element": "C" 
			},
			{
				"x": 1.1302212678,
				"y": -1.0617887807,
				"z": -2.4538013172,
				"element": "O" 
			},
			{
				"x": -0.1222672268,
				"y": 0.6738293297,
				"z": -1.6925943319,
				"element": "O" 
			},
			{
				"x": -0.5463636061,
				"y": 1.4611791722,
				"z": -0.569680089,
				"element": "C" 
			},
			{
				"x": -1.3680917219,
				"y": 0.6274670418,
				"z": 0.4361246245,
				"element": "C" 
			},
			{
				"x": -2.8194997608,
				"y": 0.3110477345,
				"z": 0.0687974707,
				"element": "C" 
			},
			{
				"x": -2.8720420636,
				"y": -0.3252708491,
				"z": -1.2022117433,
				"element": "O" 
			},
			{
				"x": -3.3701271703,
				"y": -0.471438302,
				"z": 1.1543678908,
				"element": "N" 
			},
			{
				"x": -2.7155848743,
				"y": -1.5878068521,
				"z": 1.6732323063,
				"element": "C" 
			},
			{
				"x": -3.4227532649,
				"y": -2.5416545638,
				"z": 2.1568520034,
				"element": "N" 
			},
			{
				"x": -1.3144430839,
				"y": -1.4914563841,
				"z": 1.7166942842,
				"element": "N" 
			},
			{
				"x": -0.5578917926,
				"y": -0.6351847545,
				"z": 0.7929512244,
				"element": "C" 
			},
			{
				"x": 0.7467741665,
				"y": -0.1756745312,
				"z": 1.5083948321,
				"element": "C" 
			},
			{
				"x": 0.4679153251,
				"y": 0.4682184389,
				"z": 2.7391647583,
				"element": "O" 
			},
			{
				"x": -0.1439876018,
				"y": -1.3950892072,
				"z": -0.4845843642,
				"element": "C" 
			},
			{
				"x": 0.5907557531,
				"y": -2.5443165841,
				"z": -0.0908059711,
				"element": "O" 
			},
			{
				"x": -0.1089231853,
				"y": 4.9083141594,
				"z": 1.2085900496,
				"element": "H" 
			},
			{
				"x": -0.1856306807,
				"y": 2.6274320806,
				"z": 2.0305568378,
				"element": "H" 
			},
			{
				"x": 1.4222716996,
				"y": 3.2898827024,
				"z": 1.698000326,
				"element": "H" 
			},
			{
				"x": 1.1623677363,
				"y": 3.5671330748,
				"z": -0.9229164419,
				"element": "H" 
			},
			{
				"x": 2.4782702171,
				"y": 1.059743316,
				"z": 1.0097523721,
				"element": "H" 
			},
			{
				"x": 1.7550096545,
				"y": -0.4622506715,
				"z": -2.8900590054,
				"element": "H" 
			},
			{
				"x": -1.141642388,
				"y": 2.2774386956,
				"z": -0.9858556848,
				"element": "H" 
			},
			{
				"x": -1.4564693143,
				"y": 1.205896794,
				"z": 1.3592351892,
				"element": "H" 
			},
			{
				"x": -3.3921600346,
				"y": 1.2494711302,
				"z": 0.0314837983,
				"element": "H" 
			},
			{
				"x": -3.7933599772,
				"y": -0.5482868233,
				"z": -1.3909115734,
				"element": "H" 
			},
			{
				"x": -4.3722646049,
				"y": -0.6160477516,
				"z": 1.1581630361,
				"element": "H" 
			},
			{
				"x": -2.8366265999,
				"y": -3.2524439497,
				"z": 2.5946404784,
				"element": "H" 
			},
			{
				"x": -0.881675997,
				"y": -2.4069844495,
				"z": 1.7906127663,
				"element": "H" 
			},
			{
				"x": 1.3770431227,
				"y": -1.0599252328,
				"z": 1.6649606004,
				"element": "H" 
			},
			{
				"x": -0.2018128112,
				"y": -0.0869785222,
				"z": 3.1713711732,
				"element": "H" 
			},
			{
				"x": -1.0284357465,
				"y": -1.6657763768,
				"z": -1.0685298562,
				"element": "H" 
			},
			{
				"x": 1.0891721936,
				"y": -2.8357610137,
				"z": -0.8670625221,
				"element": "H" 
			}
		],
		 "valence_orbital": [ 
			{
				"type": "occ",
				"energy": -0.26583,
				"method": "rhf"
			},
			{
				"type": "occ",
				"energy": -0.25758,
				"method": "rhf"
			},
			{
				"type": "occ",
				"energy": -0.25062,
				"method": "rhf"
			},
			{
				"type": "occ",
				"energy": -0.24821,
				"method": "rhf"
			},
			{
				"type": "occ",
				"energy": -0.22537,
				"method": "rhf"
			},
			{
				"type": "unocc",
				"energy": 0.04617,
				"method": "rhf"
			},
			{
				"type": "unocc",
				"energy": 0.05096,
				"method": "rhf"
			},
			{
				"type": "unocc",
				"energy": 0.05899,
				"method": "rhf"
			},
			{
				"type": "unocc",
				"energy": 0.07618,
				"method": "rhf"
			},
			{
				"type": "unocc",
				"energy": 0.08136,
				"method": "rhf"
			}
		],
		"cosmo_sigma_profile": { 
			"-0.025": 0.0,
			"-0.024": 0.0,
			"-0.023": 0.0,
			"-0.022": 0.0,
			"-0.021": 0.0,
			"-0.02": 0.0,
			"-0.019": 0.0,
			"-0.018": 0.0409304831496,
			"-0.017": 1.42816956348,
			"-0.016": 3.59594873492,
			"-0.015": 2.76646659862,
			"-0.014": 4.39827687965,
			"-0.013": 4.72355396897,
			"-0.012": 6.00352067626,
			"-0.011": 5.16536745296,
			"-0.01": 6.53741873761,
			"-0.009": 6.72392242676,
			"-0.008": 5.82431341999,
			"-0.007": 8.9991138478,
			"-0.006": 18.0917455736,
			"-0.005": 15.3439182362,
			"-0.004": 14.3735997118,
			"-0.003": 14.6164599478,
			"-0.002": 12.7696546803,
			"-0.001": 12.8891187637,
			"0.0": 11.4498431532,
			"0.001": 9.26040305116,
			"0.002": 10.0780691685,
			"0.003": 9.62346193722,
			"0.004": 10.4199165421,
			"0.005": 9.76682704285,
			"0.006": 9.3666055701,
			"0.007": 10.2406830859,
			"0.008": 8.63576336104,
			"0.009": 10.2671732291,
			"0.01": 8.43813524782,
			"0.011": 8.80383602949,
			"0.012": 5.64959191967,
			"0.013": 4.99580550666,
			"0.014": 4.60243076734,
			"0.015": 2.84385292699,
			"0.016": 1.39373326195,
			"0.017": 1.26285281605,
			"0.018": 1.22104632457,
			"0.019": 0.576014297788,
			"0.02": 0.0,
			"0.021": 0.0,
			"0.022": 0.0,
			"0.023": 0.0,
			"0.024": 0.0,
			"0.025": 0.0
		}
	}
}
