{
	 "smiles": "N(C1=NC2=C(N1)C=CC=C2)C1=NC=CC=C1", 
	 "Tm": 531.15, 
	 "num_atms": 26, 
	 "gaussian": { 
		 "optdone": 1, 
		 "sigma_profile": "yes", 
		 "theory": "DFT", 
		 "functional": "B3LYP", 
		 "basiset": "6-31G**", 
		 "properties": { 
			 "R2extent": 4639.668, 
			 "electric_dipole_moment_norm": 4.18616551393, 
			 "electric_quadrupole_moment_norm": 8.58598599929, 
			 "total_energy": -682.327320793, 
			 "HOMO_LUMO_gap": 0.16603, 
			 "cosmo_polarized_energy": -15.51, 
			 "cosmo_cavitation_energy": 30.43, 
			 "cosmo_dispersion_energy": -22.99, 
			 "cosmo_repulsion_energy": 1.76, 
			 "cosmo_total_nonelectrostatic_energy": 9.2, 
			 "SMD_solvation_energy": 1.51 
		},
		"coords": [
			{
				"x": -0.9133306373,
				"y": 0.6770522512,
				"z": 1.0622078535,
				"element": "N" 
			},
			{
				"x": 0.0928685698,
				"y": 0.5606588786,
				"z": 0.1292096152,
				"element": "C" 
			},
			{
				"x": 0.7746786094,
				"y": 1.5902749122,
				"z": -0.3127164453,
				"element": "N" 
			},
			{
				"x": 1.7342901752,
				"y": 1.0405344121,
				"z": -1.1544437218,
				"element": "C" 
			},
			{
				"x": 1.5982934156,
				"y": -0.3671990918,
				"z": -1.2141608968,
				"element": "C" 
			},
			{
				"x": 0.5128653588,
				"y": -0.6518301393,
				"z": -0.3865528345,
				"element": "N" 
			},
			{
				"x": 2.4270657752,
				"y": -1.1740155839,
				"z": -1.988177655,
				"element": "C" 
			},
			{
				"x": 3.4272498531,
				"y": -0.5287433909,
				"z": -2.7186815288,
				"element": "C" 
			},
			{
				"x": 3.5765624905,
				"y": 0.8687934944,
				"z": -2.676026158,
				"element": "C" 
			},
			{
				"x": 2.7375790654,
				"y": 1.6677392368,
				"z": -1.9003262919,
				"element": "C" 
			},
			{
				"x": -1.9366220018,
				"y": -0.1975362075,
				"z": 1.4080073201,
				"element": "C" 
			},
			{
				"x": -2.5548296425,
				"y": 0.1270197148,
				"z": 2.5552800094,
				"element": "N" 
			},
			{
				"x": -3.5550548397,
				"y": -0.6539654229,
				"z": 2.9710441127,
				"element": "C" 
			},
			{
				"x": -3.9893546452,
				"y": -1.7926047244,
				"z": 2.2931196077,
				"element": "C" 
			},
			{
				"x": -3.3575283065,
				"y": -2.1043280991,
				"z": 1.0881920545,
				"element": "C" 
			},
			{
				"x": -2.3222175248,
				"y": -1.3011553775,
				"z": 0.6218872064,
				"element": "C" 
			},
			{
				"x": -0.9061931248,
				"y": 1.5444564572,
				"z": 1.5822153099,
				"element": "H" 
			},
			{
				"x": 0.260628115,
				"y": -1.5578673824,
				"z": -0.0244028598,
				"element": "H" 
			},
			{
				"x": 2.3101131769,
				"y": -2.2531801956,
				"z": -2.02345288,
				"element": "H" 
			},
			{
				"x": 4.1011513497,
				"y": -1.1195553574,
				"z": -3.3317606293,
				"element": "H" 
			},
			{
				"x": 4.3641940744,
				"y": 1.3339777645,
				"z": -3.2615391779,
				"element": "H" 
			},
			{
				"x": 2.850655663,
				"y": 2.746372494,
				"z": -1.8653344817,
				"element": "H" 
			},
			{
				"x": -4.0330906121,
				"y": -0.3498255268,
				"z": 3.900690456,
				"element": "H" 
			},
			{
				"x": -4.7998366444,
				"y": -2.3969636354,
				"z": 2.6849536811,
				"element": "H" 
			},
			{
				"x": -3.6789739797,
				"y": -2.9597531278,
				"z": 0.5007189342,
				"element": "H" 
			},
			{
				"x": -1.867563733,
				"y": -1.4896563529,
				"z": -0.3430505996,
				"element": "H" 
			}
		],
		 "valence_orbital": [ 
			{
				"type": "occ",
				"energy": -0.27458,
				"method": "rhf"
			},
			{
				"type": "occ",
				"energy": -0.2706,
				"method": "rhf"
			},
			{
				"type": "occ",
				"energy": -0.25137,
				"method": "rhf"
			},
			{
				"type": "occ",
				"energy": -0.22477,
				"method": "rhf"
			},
			{
				"type": "occ",
				"energy": -0.19887,
				"method": "rhf"
			},
			{
				"type": "unocc",
				"energy": -0.03284,
				"method": "rhf"
			},
			{
				"type": "unocc",
				"energy": -0.02324,
				"method": "rhf"
			},
			{
				"type": "unocc",
				"energy": 0.00894,
				"method": "rhf"
			},
			{
				"type": "unocc",
				"energy": 0.02546,
				"method": "rhf"
			},
			{
				"type": "unocc",
				"energy": 0.06606,
				"method": "rhf"
			}
		],
		"cosmo_sigma_profile": { 
			"-0.025": 0.0,
			"-0.024": 0.0,
			"-0.023": 0.0,
			"-0.022": 0.0,
			"-0.021": 0.0,
			"-0.02": 0.0,
			"-0.019": 0.0,
			"-0.018": 0.0,
			"-0.017": 0.0,
			"-0.016": 0.389666651158,
			"-0.015": 1.23717454561,
			"-0.014": 1.55534564661,
			"-0.013": 1.9535498162,
			"-0.012": 1.95488458285,
			"-0.011": 2.32613891252,
			"-0.01": 2.26036993168,
			"-0.009": 2.18137672438,
			"-0.008": 2.67337176082,
			"-0.007": 6.39796915413,
			"-0.006": 12.7302735019,
			"-0.005": 18.196235606,
			"-0.004": 16.1212909127,
			"-0.003": 15.8499447114,
			"-0.002": 13.9172133701,
			"-0.001": 12.7750887702,
			"0.0": 15.4823556683,
			"0.001": 16.8330891238,
			"0.002": 19.0352599774,
			"0.003": 20.497879288,
			"0.004": 13.7223583009,
			"0.005": 12.155637729,
			"0.006": 10.7394991075,
			"0.007": 6.32943206916,
			"0.008": 2.90561658885,
			"0.009": 2.71083717062,
			"0.01": 1.48306054229,
			"0.011": 1.89110406649,
			"0.012": 2.38125101102,
			"0.013": 1.81819189778,
			"0.014": 1.66623081679,
			"0.015": 0.63564038209,
			"0.016": 1.37903283553,
			"0.017": 0.782256576505,
			"0.018": 0.0628399516483,
			"0.019": 0.0,
			"0.02": 0.0,
			"0.021": 0.0,
			"0.022": 0.0,
			"0.023": 0.0,
			"0.024": 0.0,
			"0.025": 0.0
		}
	}
}
