{
	 "smiles": "COC(=O)C1=CC2=C(C=CC=C2)C=N1", 
	 "Tm": 361.65, 
	 "num_atms": 23, 
	 "gaussian": { 
		 "optdone": 1, 
		 "sigma_profile": "yes", 
		 "theory": "DFT", 
		 "functional": "B3LYP", 
		 "basiset": "6-31G**", 
		 "properties": { 
			 "R2extent": 3331.98, 
			 "electric_dipole_moment_norm": 2.60122472885, 
			 "electric_quadrupole_moment_norm": 11.5994242021, 
			 "total_energy": -629.806491902, 
			 "HOMO_LUMO_gap": 0.17235, 
			 "cosmo_polarized_energy": -11.78, 
			 "cosmo_cavitation_energy": 27.81, 
			 "cosmo_dispersion_energy": -20.63, 
			 "cosmo_repulsion_energy": 1.6, 
			 "cosmo_total_nonelectrostatic_energy": 8.77, 
			 "SMD_solvation_energy": 4.97 
		},
		"coords": [
			{
				"x": -1.641519112,
				"y": -3.3398968621,
				"z": -2.8631333674,
				"element": "C" 
			},
			{
				"x": -0.8064543079,
				"y": -2.6289033855,
				"z": -1.937692826,
				"element": "O" 
			},
			{
				"x": -1.2753830491,
				"y": -1.4291633276,
				"z": -1.5579609573,
				"element": "C" 
			},
			{
				"x": -2.3260741241,
				"y": -0.9580473208,
				"z": -1.9542987673,
				"element": "O" 
			},
			{
				"x": -0.3704549731,
				"y": -0.7237953206,
				"z": -0.5916571675,
				"element": "C" 
			},
			{
				"x": -0.7600289312,
				"y": 0.520071478,
				"z": -0.1377992539,
				"element": "C" 
			},
			{
				"x": 0.0665566452,
				"y": 1.2185730004,
				"z": 0.7752560441,
				"element": "C" 
			},
			{
				"x": 1.2790957533,
				"y": 0.5821376115,
				"z": 1.1810963917,
				"element": "C" 
			},
			{
				"x": 2.14298436,
				"y": 1.2377667142,
				"z": 2.0935838394,
				"element": "C" 
			},
			{
				"x": 1.8135432174,
				"y": 2.4818407412,
				"z": 2.5853190991,
				"element": "C" 
			},
			{
				"x": 0.6103930756,
				"y": 3.1159363739,
				"z": 2.1840358213,
				"element": "C" 
			},
			{
				"x": -0.2471212926,
				"y": 2.5013196029,
				"z": 1.2986466276,
				"element": "C" 
			},
			{
				"x": 1.5613692808,
				"y": -0.7035802569,
				"z": 0.636198869,
				"element": "C" 
			},
			{
				"x": 0.7850087281,
				"y": -1.3403918298,
				"z": -0.2106333077,
				"element": "N" 
			},
			{
				"x": -1.7719994712,
				"y": -2.7668662362,
				"z": -3.7849356582,
				"element": "H" 
			},
			{
				"x": -2.6259684366,
				"y": -3.5304988845,
				"z": -2.4276554223,
				"element": "H" 
			},
			{
				"x": -1.1230942344,
				"y": -4.2771902702,
				"z": -3.064283035,
				"element": "H" 
			},
			{
				"x": -1.6950648457,
				"y": 0.9436876808,
				"z": -0.4884175411,
				"element": "H" 
			},
			{
				"x": 3.0636455392,
				"y": 0.7463478291,
				"z": 2.3971482873,
				"element": "H" 
			},
			{
				"x": 2.4749430986,
				"y": 2.9848012673,
				"z": 3.2844899182,
				"element": "H" 
			},
			{
				"x": 0.3670661618,
				"y": 4.096751588,
				"z": 2.582027997,
				"element": "H" 
			},
			{
				"x": -1.1691644798,
				"y": 2.986226836,
				"z": 0.9905320848,
				"element": "H" 
			},
			{
				"x": 2.481921398,
				"y": -1.2088270291,
				"z": 0.931932324,
				"element": "H" 
			}
		],
		 "valence_orbital": [ 
			{
				"type": "occ",
				"energy": -0.29428,
				"method": "rhf"
			},
			{
				"type": "occ",
				"energy": -0.27813,
				"method": "rhf"
			},
			{
				"type": "occ",
				"energy": -0.27063,
				"method": "rhf"
			},
			{
				"type": "occ",
				"energy": -0.25345,
				"method": "rhf"
			},
			{
				"type": "occ",
				"energy": -0.23622,
				"method": "rhf"
			},
			{
				"type": "unocc",
				"energy": -0.06387,
				"method": "rhf"
			},
			{
				"type": "unocc",
				"energy": -0.04631,
				"method": "rhf"
			},
			{
				"type": "unocc",
				"energy": 0.01183,
				"method": "rhf"
			},
			{
				"type": "unocc",
				"energy": 0.03672,
				"method": "rhf"
			},
			{
				"type": "unocc",
				"energy": 0.08921,
				"method": "rhf"
			}
		],
		"cosmo_sigma_profile": { 
			"-0.025": 0.0,
			"-0.024": 0.0,
			"-0.023": 0.0,
			"-0.022": 0.0,
			"-0.021": 0.0,
			"-0.02": 0.0,
			"-0.019": 0.0,
			"-0.018": 0.0,
			"-0.017": 0.0,
			"-0.016": 0.0,
			"-0.015": 0.0,
			"-0.014": 0.0,
			"-0.013": 0.0,
			"-0.012": 0.0,
			"-0.011": 0.0,
			"-0.01": 0.0,
			"-0.009": 0.0,
			"-0.008": 0.926700236744,
			"-0.007": 11.7157473379,
			"-0.006": 16.5933793961,
			"-0.005": 18.8909977344,
			"-0.004": 17.6885157522,
			"-0.003": 18.4165985685,
			"-0.002": 13.1072110816,
			"-0.001": 12.7928626569,
			"0.0": 19.7022698348,
			"0.001": 23.0050309403,
			"0.002": 16.6141208456,
			"0.003": 14.0504386475,
			"0.004": 6.32358844071,
			"0.005": 4.28868840425,
			"0.006": 2.48674780175,
			"0.007": 3.34537353209,
			"0.008": 2.35819547709,
			"0.009": 3.34150116931,
			"0.01": 2.83570572993,
			"0.011": 4.21517256079,
			"0.012": 5.49962104964,
			"0.013": 1.09814323186,
			"0.014": 1.22475414341,
			"0.015": 0.960311200188,
			"0.016": 1.11887664818,
			"0.017": 0.705226120992,
			"0.018": 0.0414846893,
			"0.019": 0.0,
			"0.02": 0.0,
			"0.021": 0.0,
			"0.022": 0.0,
			"0.023": 0.0,
			"0.024": 0.0,
			"0.025": 0.0
		}
	}
}
