{
	 "smiles": "CN1C=C(C(=N1)[N+]([O-])=O)S(Cl)(=O)=O", 
	 "Tm": 344.15, 
	 "num_atms": 17, 
	 "gaussian": { 
		 "optdone": 1, 
		 "sigma_profile": "yes", 
		 "theory": "DFT", 
		 "functional": "B3LYP", 
		 "basiset": "6-31G**", 
		 "properties": { 
			 "R2extent": 4894.594, 
			 "electric_dipole_moment_norm": 8.42727832221, 
			 "electric_quadrupole_moment_norm": 17.005071844, 
			 "total_energy": -1478.14554501, 
			 "HOMO_LUMO_gap": 0.20262, 
			 "cosmo_polarized_energy": -19.45, 
			 "cosmo_cavitation_energy": 26.27, 
			 "cosmo_dispersion_energy": -19.69, 
			 "cosmo_repulsion_energy": 1.52, 
			 "cosmo_total_nonelectrostatic_energy": 8.1, 
			 "SMD_solvation_energy": 5.16 
		},
		"coords": [
			{
				"x": 0.1310653558,
				"y": 2.6275042636,
				"z": -0.6259207042,
				"element": "C" 
			},
			{
				"x": 0.9341601845,
				"y": 1.6066559459,
				"z": 0.0382057365,
				"element": "N" 
			},
			{
				"x": 0.7618173543,
				"y": 0.2620376475,
				"z": -0.0007210724,
				"element": "C" 
			},
			{
				"x": 1.7655537508,
				"y": -0.2850658238,
				"z": 0.7802532012,
				"element": "C" 
			},
			{
				"x": 2.4857521454,
				"y": 0.8448399697,
				"z": 1.2399938621,
				"element": "C" 
			},
			{
				"x": 1.979443919,
				"y": 1.980602076,
				"z": 0.789097289,
				"element": "N" 
			},
			{
				"x": 3.6521157498,
				"y": 0.8560240209,
				"z": 2.1050487701,
				"element": "N" 
			},
			{
				"x": 4.0459116912,
				"y": -0.2525791187,
				"z": 2.4699042661,
				"element": "O" 
			},
			{
				"x": 4.1425068848,
				"y": 1.936696481,
				"z": 2.3983051023,
				"element": "O" 
			},
			{
				"x": 2.0773760794,
				"y": -2.0032440984,
				"z": 1.1253577251,
				"element": "S" 
			},
			{
				"x": 0.4702968859,
				"y": -2.866576508,
				"z": -0.0091678823,
				"element": "Cl" 
			},
			{
				"x": 3.2974152723,
				"y": -2.4293387748,
				"z": 0.4640772015,
				"element": "O" 
			},
			{
				"x": 1.7761248943,
				"y": -2.2936377806,
				"z": 2.5153877815,
				"element": "O" 
			},
			{
				"x": -0.6664144609,
				"y": 2.1358499133,
				"z": -1.1832473825,
				"element": "H" 
			},
			{
				"x": -0.2977466269,
				"y": 3.2967754876,
				"z": 0.1221188059,
				"element": "H" 
			},
			{
				"x": 0.7618573759,
				"y": 3.1998028959,
				"z": -1.3085423455,
				"element": "H" 
			},
			{
				"x": -0.0319364558,
				"y": -0.2082465971,
				"z": -0.5586503544,
				"element": "H" 
			}
		],
		 "valence_orbital": [ 
			{
				"type": "occ",
				"energy": -0.32634,
				"method": "rhf"
			},
			{
				"type": "occ",
				"energy": -0.3227,
				"method": "rhf"
			},
			{
				"type": "occ",
				"energy": -0.32101,
				"method": "rhf"
			},
			{
				"type": "occ",
				"energy": -0.3115,
				"method": "rhf"
			},
			{
				"type": "occ",
				"energy": -0.30948,
				"method": "rhf"
			},
			{
				"type": "unocc",
				"energy": -0.10686,
				"method": "rhf"
			},
			{
				"type": "unocc",
				"energy": -0.09569,
				"method": "rhf"
			},
			{
				"type": "unocc",
				"energy": -0.04464,
				"method": "rhf"
			},
			{
				"type": "unocc",
				"energy": 0.01244,
				"method": "rhf"
			},
			{
				"type": "unocc",
				"energy": 0.01877,
				"method": "rhf"
			}
		],
		"cosmo_sigma_profile": { 
			"-0.025": 0.0,
			"-0.024": 0.0,
			"-0.023": 0.0,
			"-0.022": 0.0,
			"-0.021": 0.0,
			"-0.02": 0.0,
			"-0.019": 0.0,
			"-0.018": 0.0,
			"-0.017": 0.0,
			"-0.016": 0.0,
			"-0.015": 0.0,
			"-0.014": 0.23199018828,
			"-0.013": 1.53676890647,
			"-0.012": 2.194636132,
			"-0.011": 1.15152980353,
			"-0.01": 2.6607181261,
			"-0.009": 4.21099330261,
			"-0.008": 9.08701046914,
			"-0.007": 10.6891919628,
			"-0.006": 14.2884419029,
			"-0.005": 19.0041671815,
			"-0.004": 12.1096941286,
			"-0.003": 8.74135207788,
			"-0.002": 7.73808778133,
			"-0.001": 7.67737497868,
			"0.0": 8.56559786023,
			"0.001": 8.41229381854,
			"0.002": 10.1809534704,
			"0.003": 13.8300775218,
			"0.004": 7.46024955958,
			"0.005": 7.71479178426,
			"0.006": 13.8809024576,
			"0.007": 22.0373247611,
			"0.008": 14.4354058864,
			"0.009": 2.86971896134,
			"0.01": 1.34863845408,
			"0.011": 1.49969925297,
			"0.012": 0.332810980877,
			"0.013": 0.0,
			"0.014": 0.0,
			"0.015": 0.0,
			"0.016": 0.0,
			"0.017": 0.0,
			"0.018": 0.0,
			"0.019": 0.0,
			"0.02": 0.0,
			"0.021": 0.0,
			"0.022": 0.0,
			"0.023": 0.0,
			"0.024": 0.0,
			"0.025": 0.0
		}
	}
}
