{
	 "smiles": "BrC1=C(Br)C=C(S1)C=O", 
	 "Tm": 353.15, 
	 "num_atms": 11, 
	 "gaussian": { 
		 "optdone": 1, 
		 "sigma_profile": "yes", 
		 "theory": "DFT", 
		 "functional": "B3LYP", 
		 "basiset": "6-31G**", 
		 "properties": { 
			 "R2extent": 6292.571, 
			 "electric_dipole_moment_norm": 1.98697435565, 
			 "electric_quadrupole_moment_norm": 4.98648457132, 
			 "total_energy": -5807.91650582, 
			 "HOMO_LUMO_gap": 0.1639, 
			 "cosmo_polarized_energy": -6.55, 
			 "cosmo_cavitation_energy": 22.6, 
			 "cosmo_dispersion_energy": -17.77, 
			 "cosmo_repulsion_energy": 1.41, 
			 "cosmo_total_nonelectrostatic_energy": 6.24, 
			 "SMD_solvation_energy": 2.53 
		},
		"coords": [
			{
				"x": -0.2479583035,
				"y": 4.0313180533,
				"z": 0.8424010382,
				"element": "Br" 
			},
			{
				"x": 0.6491758473,
				"y": 2.4755280852,
				"z": 0.3120757702,
				"element": "C" 
			},
			{
				"x": 1.7804953952,
				"y": 2.3803555721,
				"z": -0.4694930601,
				"element": "C" 
			},
			{
				"x": 2.6955831869,
				"y": 3.8618669666,
				"z": -1.1960143385,
				"element": "Br" 
			},
			{
				"x": 2.195243114,
				"y": 1.0414026247,
				"z": -0.6769456769,
				"element": "C" 
			},
			{
				"x": 1.3776764377,
				"y": 0.1280646073,
				"z": -0.0525443341,
				"element": "C" 
			},
			{
				"x": 0.0730126553,
				"y": 0.9178271992,
				"z": 0.8075481312,
				"element": "S" 
			},
			{
				"x": 1.5215133527,
				"y": -1.3322576458,
				"z": -0.0639222949,
				"element": "C" 
			},
			{
				"x": 2.4181786839,
				"y": -1.9067693197,
				"z": -0.6525890728,
				"element": "O" 
			},
			{
				"x": 3.0593678952,
				"y": 0.751092447,
				"z": -1.2607303332,
				"element": "H" 
			},
			{
				"x": 0.7508117351,
				"y": -1.8926285899,
				"z": 0.5068141711,
				"element": "H" 
			}
		],
		 "valence_orbital": [ 
			{
				"type": "occ",
				"energy": -0.32136,
				"method": "rhf"
			},
			{
				"type": "occ",
				"energy": -0.30277,
				"method": "rhf"
			},
			{
				"type": "occ",
				"energy": -0.27531,
				"method": "rhf"
			},
			{
				"type": "occ",
				"energy": -0.27282,
				"method": "rhf"
			},
			{
				"type": "occ",
				"energy": -0.2518,
				"method": "rhf"
			},
			{
				"type": "unocc",
				"energy": -0.0879,
				"method": "rhf"
			},
			{
				"type": "unocc",
				"energy": -0.03116,
				"method": "rhf"
			},
			{
				"type": "unocc",
				"energy": -0.02243,
				"method": "rhf"
			},
			{
				"type": "unocc",
				"energy": -0.00838,
				"method": "rhf"
			},
			{
				"type": "unocc",
				"energy": 0.01642,
				"method": "rhf"
			}
		],
		"cosmo_sigma_profile": { 
			"-0.025": 0.0,
			"-0.024": 0.0,
			"-0.023": 0.0,
			"-0.022": 0.0,
			"-0.021": 0.0,
			"-0.02": 0.0,
			"-0.019": 0.0,
			"-0.018": 0.0,
			"-0.017": 0.0,
			"-0.016": 0.0,
			"-0.015": 0.0,
			"-0.014": 0.0,
			"-0.013": 0.0,
			"-0.012": 0.0,
			"-0.011": 0.0,
			"-0.01": 0.792797749445,
			"-0.009": 3.15373122331,
			"-0.008": 3.95995115317,
			"-0.007": 5.86863206392,
			"-0.006": 6.25496918715,
			"-0.005": 6.83661997803,
			"-0.004": 8.39013654803,
			"-0.003": 9.82258265159,
			"-0.002": 16.2104580511,
			"-0.001": 25.0897949486,
			"0.0": 25.5404165912,
			"0.001": 20.0325355628,
			"0.002": 17.4330774175,
			"0.003": 17.0496969405,
			"0.004": 7.30034988686,
			"0.005": 1.31031401346,
			"0.006": 1.45389612603,
			"0.007": 1.34449416502,
			"0.008": 2.06361057112,
			"0.009": 2.0450795937,
			"0.01": 3.42967399878,
			"0.011": 4.44851545747,
			"0.012": 1.59081729426,
			"0.013": 0.142253912904,
			"0.014": 0.0,
			"0.015": 0.0,
			"0.016": 0.0,
			"0.017": 0.0,
			"0.018": 0.0,
			"0.019": 0.0,
			"0.02": 0.0,
			"0.021": 0.0,
			"0.022": 0.0,
			"0.023": 0.0,
			"0.024": 0.0,
			"0.025": 0.0
		}
	}
}
