{
	 "smiles": "NC1=CC=CC=C1C(O)=O", 
	 "Tm": 419.15, 
	 "num_atms": 17, 
	 "gaussian": { 
		 "optdone": 1, 
		 "sigma_profile": "yes", 
		 "theory": "DFT", 
		 "functional": "B3LYP", 
		 "basiset": "6-31G**", 
		 "properties": { 
			 "R2extent": 1965.3623, 
			 "electric_dipole_moment_norm": 3.16160275019, 
			 "electric_quadrupole_moment_norm": 12.7874153616, 
			 "total_energy": -476.187163982, 
			 "HOMO_LUMO_gap": 0.16875, 
			 "cosmo_polarized_energy": -11.76, 
			 "cosmo_cavitation_energy": 20.92, 
			 "cosmo_dispersion_energy": -16.04, 
			 "cosmo_repulsion_energy": 1.3, 
			 "cosmo_total_nonelectrostatic_energy": 6.18, 
			 "SMD_solvation_energy": 4.68 
		},
		"coords": [
			{
				"x": 1.236786563,
				"y": 2.4161363764,
				"z": 1.0148064658,
				"element": "N" 
			},
			{
				"x": 0.39624781,
				"y": 1.3745656809,
				"z": 0.7089471478,
				"element": "C" 
			},
			{
				"x": 0.6432002555,
				"y": 0.1120901536,
				"z": 1.2987799593,
				"element": "C" 
			},
			{
				"x": -0.1911016731,
				"y": -0.9692999861,
				"z": 1.074372672,
				"element": "C" 
			},
			{
				"x": -1.318406001,
				"y": -0.8457051523,
				"z": 0.2485502652,
				"element": "C" 
			},
			{
				"x": -1.5760637529,
				"y": 0.379153008,
				"z": -0.3413529084,
				"element": "C" 
			},
			{
				"x": -0.7430012654,
				"y": 1.4983556762,
				"z": -0.1381236293,
				"element": "C" 
			},
			{
				"x": -1.1480226271,
				"y": 2.7219880015,
				"z": -0.8594311805,
				"element": "C" 
			},
			{
				"x": -0.2993817015,
				"y": 3.7887198286,
				"z": -0.7077195633,
				"element": "O" 
			},
			{
				"x": -2.1391279362,
				"y": 2.8337840527,
				"z": -1.5564764314,
				"element": "O" 
			},
			{
				"x": 1.1812615082,
				"y": 3.2565171679,
				"z": 0.4618006484,
				"element": "H" 
			},
			{
				"x": 2.129413756,
				"y": 2.188135262,
				"z": 1.4219069299,
				"element": "H" 
			},
			{
				"x": 1.5088288035,
				"y": 0.0055766898,
				"z": 1.9480460775,
				"element": "H" 
			},
			{
				"x": 0.0363080717,
				"y": -1.92090766,
				"z": 1.5474394364,
				"element": "H" 
			},
			{
				"x": -1.9736913787,
				"y": -1.6923563333,
				"z": 0.0737795544,
				"element": "H" 
			},
			{
				"x": -2.4336649498,
				"y": 0.5178813396,
				"z": -0.9906775837,
				"element": "H" 
			},
			{
				"x": -0.6935854823,
				"y": 4.5016658945,
				"z": -1.2367478599,
				"element": "H" 
			}
		],
		 "valence_orbital": [ 
			{
				"type": "occ",
				"energy": -0.32289,
				"method": "rhf"
			},
			{
				"type": "occ",
				"energy": -0.30966,
				"method": "rhf"
			},
			{
				"type": "occ",
				"energy": -0.27366,
				"method": "rhf"
			},
			{
				"type": "occ",
				"energy": -0.25352,
				"method": "rhf"
			},
			{
				"type": "occ",
				"energy": -0.20663,
				"method": "rhf"
			},
			{
				"type": "unocc",
				"energy": -0.03788,
				"method": "rhf"
			},
			{
				"type": "unocc",
				"energy": 0.01219,
				"method": "rhf"
			},
			{
				"type": "unocc",
				"energy": 0.06349,
				"method": "rhf"
			},
			{
				"type": "unocc",
				"energy": 0.07461,
				"method": "rhf"
			},
			{
				"type": "unocc",
				"energy": 0.0944,
				"method": "rhf"
			}
		],
		"cosmo_sigma_profile": { 
			"-0.025": 0.0,
			"-0.024": 0.0,
			"-0.023": 0.0,
			"-0.022": 0.0,
			"-0.021": 0.0,
			"-0.02": 0.0,
			"-0.019": 0.0,
			"-0.018": 0.546782135618,
			"-0.017": 0.760584190214,
			"-0.016": 0.988057155297,
			"-0.015": 0.813620680935,
			"-0.014": 0.635814592184,
			"-0.013": 2.0385912046,
			"-0.012": 1.78034136738,
			"-0.011": 2.23596333677,
			"-0.01": 3.33519421592,
			"-0.009": 2.58900859644,
			"-0.008": 2.56763626644,
			"-0.007": 3.44925796377,
			"-0.006": 5.40834616623,
			"-0.005": 8.7522917161,
			"-0.004": 9.51988031042,
			"-0.003": 8.78972854241,
			"-0.002": 9.22887597372,
			"-0.001": 9.9652421618,
			"0.0": 10.4179267862,
			"0.001": 9.68718815648,
			"0.002": 10.9805953619,
			"0.003": 13.3677951883,
			"0.004": 13.224334301,
			"0.005": 12.560502867,
			"0.006": 5.61834422659,
			"0.007": 2.26415247258,
			"0.008": 1.67412219041,
			"0.009": 2.17826546465,
			"0.01": 2.28765122345,
			"0.011": 2.65667751987,
			"0.012": 5.55591662002,
			"0.013": 0.953288423368,
			"0.014": 0.0,
			"0.015": 0.0,
			"0.016": 0.0,
			"0.017": 0.0,
			"0.018": 0.0,
			"0.019": 0.0,
			"0.02": 0.0,
			"0.021": 0.0,
			"0.022": 0.0,
			"0.023": 0.0,
			"0.024": 0.0,
			"0.025": 0.0
		}
	}
}
