{
	 "smiles": "NS(=O)(=O)CCN1C(=O)C2=C(C=CC=C2)C1=O", 
	 "Tm": 483.15, 
	 "num_atms": 27, 
	 "gaussian": { 
		 "optdone": 1, 
		 "sigma_profile": "yes", 
		 "theory": "DFT", 
		 "functional": "B3LYP", 
		 "basiset": "6-31G**", 
		 "properties": { 
			 "R2extent": 5670.923, 
			 "electric_dipole_moment_norm": 8.89205677276, 
			 "electric_quadrupole_moment_norm": 21.9225836158, 
			 "total_energy": -1195.64554615, 
			 "HOMO_LUMO_gap": 0.17961, 
			 "cosmo_polarized_energy": -23.75, 
			 "cosmo_cavitation_energy": 32.83, 
			 "cosmo_dispersion_energy": -24.07, 
			 "cosmo_repulsion_energy": 1.78, 
			 "cosmo_total_nonelectrostatic_energy": 10.54, 
			 "SMD_solvation_energy": 5.8 
		},
		"coords": [
			{
				"x": 0.8480178503,
				"y": -3.2926446661,
				"z": 1.6522233019,
				"element": "N" 
			},
			{
				"x": 0.0694923382,
				"y": -4.2500919332,
				"z": 0.5359807127,
				"element": "S" 
			},
			{
				"x": -1.1597881998,
				"y": -4.7267084784,
				"z": 1.1719472126,
				"element": "O" 
			},
			{
				"x": 1.077965043,
				"y": -5.1578656965,
				"z": -0.0115114273,
				"element": "O" 
			},
			{
				"x": -0.467905862,
				"y": -3.1974470713,
				"z": -0.8592892496,
				"element": "C" 
			},
			{
				"x": -1.5788330474,
				"y": -2.1884854819,
				"z": -0.5176941373,
				"element": "C" 
			},
			{
				"x": -1.1231340229,
				"y": -0.8151307676,
				"z": -0.3354560083,
				"element": "N" 
			},
			{
				"x": -1.1219026777,
				"y": 0.125035827,
				"z": -1.393557857,
				"element": "C" 
			},
			{
				"x": -1.4085588687,
				"y": -0.1316259732,
				"z": -2.5436615509,
				"element": "O" 
			},
			{
				"x": -0.721666861,
				"y": 1.4227837047,
				"z": -0.7796651925,
				"element": "C" 
			},
			{
				"x": -0.5285065101,
				"y": 1.2155210815,
				"z": 0.5882991897,
				"element": "C" 
			},
			{
				"x": -0.1533851135,
				"y": 2.2489269611,
				"z": 1.4344275139,
				"element": "C" 
			},
			{
				"x": 0.024003307,
				"y": 3.5157905483,
				"z": 0.8616948093,
				"element": "C" 
			},
			{
				"x": -0.1694539304,
				"y": 3.7237352838,
				"z": -0.5100572149,
				"element": "C" 
			},
			{
				"x": -0.5477470241,
				"y": 2.6722754607,
				"z": -1.3562980054,
				"element": "C" 
			},
			{
				"x": -0.7860197023,
				"y": -0.221957044,
				"z": 0.8851291375,
				"element": "C" 
			},
			{
				"x": -0.7157113607,
				"y": -0.7966026668,
				"z": 1.9599677372,
				"element": "O" 
			},
			{
				"x": 1.7732709895,
				"y": -3.005902682,
				"z": 1.3527653966,
				"element": "H" 
			},
			{
				"x": 0.2697999709,
				"y": -2.5400584936,
				"z": 2.0279557115,
				"element": "H" 
			},
			{
				"x": 0.4161275837,
				"y": -2.7177916866,
				"z": -1.2858729524,
				"element": "H" 
			},
			{
				"x": -0.8322419354,
				"y": -3.9293665661,
				"z": -1.5853206591,
				"element": "H" 
			},
			{
				"x": -2.2901649297,
				"y": -2.159773991,
				"z": -1.3458462596,
				"element": "H" 
			},
			{
				"x": -2.1136201621,
				"y": -2.5022191198,
				"z": 0.3827483436,
				"element": "H" 
			},
			{
				"x": -0.0077161199,
				"y": 2.0772577623,
				"z": 2.495899534,
				"element": "H" 
			},
			{
				"x": 0.3156286381,
				"y": 4.3515621429,
				"z": 1.4903550717,
				"element": "H" 
			},
			{
				"x": -0.0240318636,
				"y": 4.7173680019,
				"z": -0.9227994472,
				"element": "H" 
			},
			{
				"x": -0.7011175294,
				"y": 2.8229155439,
				"z": -2.4198637107,
				"element": "H" 
			}
		],
		 "valence_orbital": [ 
			{
				"type": "occ",
				"energy": -0.29587,
				"method": "rhf"
			},
			{
				"type": "occ",
				"energy": -0.29491,
				"method": "rhf"
			},
			{
				"type": "occ",
				"energy": -0.29379,
				"method": "rhf"
			},
			{
				"type": "occ",
				"energy": -0.28966,
				"method": "rhf"
			},
			{
				"type": "occ",
				"energy": -0.28302,
				"method": "rhf"
			},
			{
				"type": "unocc",
				"energy": -0.10341,
				"method": "rhf"
			},
			{
				"type": "unocc",
				"energy": -0.05894,
				"method": "rhf"
			},
			{
				"type": "unocc",
				"energy": 0.00899,
				"method": "rhf"
			},
			{
				"type": "unocc",
				"energy": 0.04757,
				"method": "rhf"
			},
			{
				"type": "unocc",
				"energy": 0.06376,
				"method": "rhf"
			}
		],
		"cosmo_sigma_profile": { 
			"-0.025": 0.0,
			"-0.024": 0.0,
			"-0.023": 0.0,
			"-0.022": 0.0,
			"-0.021": 0.0,
			"-0.02": 0.0,
			"-0.019": 0.0,
			"-0.018": 0.0,
			"-0.017": 0.0,
			"-0.016": 0.0767561855063,
			"-0.015": 1.20569727176,
			"-0.014": 1.48459494851,
			"-0.013": 1.07114207702,
			"-0.012": 1.50211106649,
			"-0.011": 1.74181289599,
			"-0.01": 1.36800002918,
			"-0.009": 4.45133880577,
			"-0.008": 10.1570511532,
			"-0.007": 17.0175652463,
			"-0.006": 20.3487113249,
			"-0.005": 20.3863393773,
			"-0.004": 14.9740959594,
			"-0.003": 14.8641145647,
			"-0.002": 12.5900034161,
			"-0.001": 14.3499524303,
			"0.0": 15.2441249712,
			"0.001": 16.4431728221,
			"0.002": 14.5408673425,
			"0.003": 5.17965335501,
			"0.004": 5.45503241775,
			"0.005": 4.97524242208,
			"0.006": 5.25058642828,
			"0.007": 6.3250227235,
			"0.008": 7.28908196907,
			"0.009": 7.99981959822,
			"0.01": 10.4625436205,
			"0.011": 16.140397556,
			"0.012": 9.21555076056,
			"0.013": 0.5654146397,
			"0.014": 0.0,
			"0.015": 0.0,
			"0.016": 0.0,
			"0.017": 0.0,
			"0.018": 0.0,
			"0.019": 0.0,
			"0.02": 0.0,
			"0.021": 0.0,
			"0.022": 0.0,
			"0.023": 0.0,
			"0.024": 0.0,
			"0.025": 0.0
		}
	}
}
