{
	 "smiles": "CN(C(C)=O)C(C)=O", 
	 "Tm": 248.15, 
	 "num_atms": 17, 
	 "gaussian": { 
		 "optdone": 1, 
		 "sigma_profile": "yes", 
		 "theory": "DFT", 
		 "functional": "B3LYP", 
		 "basiset": "6-31G**", 
		 "properties": { 
			 "R2extent": 1179.4213, 
			 "electric_dipole_moment_norm": 2.73635882333, 
			 "electric_quadrupole_moment_norm": 11.8816441573, 
			 "total_energy": -401.172982751, 
			 "HOMO_LUMO_gap": 0.22658, 
			 "cosmo_polarized_energy": -11.28, 
			 "cosmo_cavitation_energy": 20.05, 
			 "cosmo_dispersion_energy": -14.79, 
			 "cosmo_repulsion_energy": 1.22, 
			 "cosmo_total_nonelectrostatic_energy": 6.48, 
			 "SMD_solvation_energy": 5.4 
		},
		"coords": [
			{
				"x": -1.3327898235,
				"y": -0.511169419,
				"z": -0.839280631,
				"element": "C" 
			},
			{
				"x": -0.093315207,
				"y": -0.7093999528,
				"z": -0.061811554,
				"element": "N" 
			},
			{
				"x": 0.6417069595,
				"y": -1.8485935144,
				"z": -0.4505223582,
				"element": "C" 
			},
			{
				"x": 1.78873567,
				"y": -2.3827198791,
				"z": 0.3894789802,
				"element": "C" 
			},
			{
				"x": 0.2935761864,
				"y": -2.4522601989,
				"z": -1.4519954115,
				"element": "O" 
			},
			{
				"x": 0.1873701951,
				"y": 0.2583056966,
				"z": 0.9290330642,
				"element": "C" 
			},
			{
				"x": 1.5602654474,
				"y": 0.3322225264,
				"z": 1.5745188983,
				"element": "C" 
			},
			{
				"x": -0.6591004204,
				"y": 1.0828697396,
				"z": 1.2311855498,
				"element": "O" 
			},
			{
				"x": -1.8662380091,
				"y": 0.3295081225,
				"z": -0.4062709956,
				"element": "H" 
			},
			{
				"x": -1.0865541782,
				"y": -0.3176978763,
				"z": -1.8852398163,
				"element": "H" 
			},
			{
				"x": -1.9430412619,
				"y": -1.4148795893,
				"z": -0.7964934873,
				"element": "H" 
			},
			{
				"x": 1.9984546065,
				"y": -3.3823371417,
				"z": 0.00960591,
				"element": "H" 
			},
			{
				"x": 1.5369902004,
				"y": -2.4442089493,
				"z": 1.4504133557,
				"element": "H" 
			},
			{
				"x": 2.6939594233,
				"y": -1.7799722004,
				"z": 0.285661395,
				"element": "H" 
			},
			{
				"x": 1.5968276912,
				"y": 1.2886129642,
				"z": 2.0952966351,
				"element": "H" 
			},
			{
				"x": 2.369265634,
				"y": 0.2864443385,
				"z": 0.8425078902,
				"element": "H" 
			},
			{
				"x": 1.7144868864,
				"y": -0.4629246667,
				"z": 2.3076125752,
				"element": "H" 
			}
		],
		 "valence_orbital": [ 
			{
				"type": "occ",
				"energy": -0.37329,
				"method": "rhf"
			},
			{
				"type": "occ",
				"energy": -0.36195,
				"method": "rhf"
			},
			{
				"type": "occ",
				"energy": -0.28409,
				"method": "rhf"
			},
			{
				"type": "occ",
				"energy": -0.27069,
				"method": "rhf"
			},
			{
				"type": "occ",
				"energy": -0.25578,
				"method": "rhf"
			},
			{
				"type": "unocc",
				"energy": -0.0292,
				"method": "rhf"
			},
			{
				"type": "unocc",
				"energy": 0.02782,
				"method": "rhf"
			},
			{
				"type": "unocc",
				"energy": 0.07349,
				"method": "rhf"
			},
			{
				"type": "unocc",
				"energy": 0.11565,
				"method": "rhf"
			},
			{
				"type": "unocc",
				"energy": 0.12058,
				"method": "rhf"
			}
		],
		"cosmo_sigma_profile": { 
			"-0.025": 0.0,
			"-0.024": 0.0,
			"-0.023": 0.0,
			"-0.022": 0.0,
			"-0.021": 0.0,
			"-0.02": 0.0,
			"-0.019": 0.0,
			"-0.018": 0.0,
			"-0.017": 0.0,
			"-0.016": 0.0,
			"-0.015": 0.0,
			"-0.014": 0.0,
			"-0.013": 0.0,
			"-0.012": 0.0,
			"-0.011": 0.0,
			"-0.01": 0.0606188129493,
			"-0.009": 2.62027930078,
			"-0.008": 4.90752219663,
			"-0.007": 6.12385567168,
			"-0.006": 6.83523905103,
			"-0.005": 11.9157876399,
			"-0.004": 15.6468033144,
			"-0.003": 17.3147603037,
			"-0.002": 21.9507416562,
			"-0.001": 14.4077475217,
			"0.0": 6.74377109575,
			"0.001": 3.78241991811,
			"0.002": 3.16270248027,
			"0.003": 3.28866052612,
			"0.004": 3.21121002211,
			"0.005": 3.16580071067,
			"0.006": 3.02090562705,
			"0.007": 3.35707341109,
			"0.008": 2.35852042145,
			"0.009": 2.59337423991,
			"0.01": 4.36380057955,
			"0.011": 4.77719577709,
			"0.012": 8.3788604508,
			"0.013": 3.66593141278,
			"0.014": 0.174917540302,
			"0.015": 0.0,
			"0.016": 0.0,
			"0.017": 0.0,
			"0.018": 0.0,
			"0.019": 0.0,
			"0.02": 0.0,
			"0.021": 0.0,
			"0.022": 0.0,
			"0.023": 0.0,
			"0.024": 0.0,
			"0.025": 0.0
		}
	}
}
