{
	 "smiles": "BrC1=CC(=CC=N1)C1=CN=C(Br)C=C1", 
	 "Tm": 464.15, 
	 "num_atms": 20, 
	 "gaussian": { 
		 "optdone": 1, 
		 "sigma_profile": "yes", 
		 "theory": "DFT", 
		 "functional": "B3LYP", 
		 "basiset": "6-31G**", 
		 "properties": { 
			 "R2extent": 8609.8074, 
			 "electric_dipole_moment_norm": 1.30472226546, 
			 "electric_quadrupole_moment_norm": 19.0224651841, 
			 "total_energy": -5636.98462159, 
			 "HOMO_LUMO_gap": 0.18644, 
			 "cosmo_polarized_energy": -11.17, 
			 "cosmo_cavitation_energy": 29.98, 
			 "cosmo_dispersion_energy": -22.91, 
			 "cosmo_repulsion_energy": 1.8, 
			 "cosmo_total_nonelectrostatic_energy": 8.86, 
			 "SMD_solvation_energy": -0.23 
		},
		"coords": [
			{
				"x": -2.8266682135,
				"y": -1.9163103732,
				"z": -3.2413455313,
				"element": "Br" 
			},
			{
				"x": -2.3848127648,
				"y": -0.9432066945,
				"z": -1.6437118643,
				"element": "C" 
			},
			{
				"x": -1.0356399314,
				"y": -0.7856280982,
				"z": -1.3248974199,
				"element": "C" 
			},
			{
				"x": -0.7118493445,
				"y": -0.0767107384,
				"z": -0.1604442609,
				"element": "C" 
			},
			{
				"x": -1.7762915483,
				"y": 0.4303021036,
				"z": 0.6049863036,
				"element": "C" 
			},
			{
				"x": -3.0810207309,
				"y": 0.2104132246,
				"z": 0.1768181114,
				"element": "C" 
			},
			{
				"x": -3.3931700047,
				"y": -0.4710529989,
				"z": -0.9366079994,
				"element": "N" 
			},
			{
				"x": 0.6985675028,
				"y": 0.1273404289,
				"z": 0.2413880681,
				"element": "C" 
			},
			{
				"x": 1.1181057583,
				"y": 1.3259202635,
				"z": 0.8371141201,
				"element": "C" 
			},
			{
				"x": 2.3757727277,
				"y": 1.56857271,
				"z": 1.2240913548,
				"element": "N" 
			},
			{
				"x": 3.2688121037,
				"y": 0.6175057373,
				"z": 1.0267684573,
				"element": "C" 
			},
			{
				"x": 5.0637931323,
				"y": 0.9758963552,
				"z": 1.5986350329,
				"element": "Br" 
			},
			{
				"x": 2.9913074565,
				"y": -0.6187265568,
				"z": 0.4360228231,
				"element": "C" 
			},
			{
				"x": 1.6810941431,
				"y": -0.8570005161,
				"z": 0.0411839788,
				"element": "C" 
			},
			{
				"x": -0.2689594147,
				"y": -1.1823638473,
				"z": -1.9788699777,
				"element": "H" 
			},
			{
				"x": -1.5919796679,
				"y": 0.9637717578,
				"z": 1.5311390115,
				"element": "H" 
			},
			{
				"x": -3.9223780885,
				"y": 0.5888858165,
				"z": 0.7526342332,
				"element": "H" 
			},
			{
				"x": 0.4126144567,
				"y": 2.1392990413,
				"z": 0.9904998394,
				"element": "H" 
			},
			{
				"x": 3.7704624165,
				"y": -1.3593013254,
				"z": 0.3045065953,
				"element": "H" 
			},
			{
				"x": 1.4159400116,
				"y": -1.8133062899,
				"z": -0.3997108761,
				"element": "H" 
			}
		],
		 "valence_orbital": [ 
			{
				"type": "occ",
				"energy": -0.29351,
				"method": "rhf"
			},
			{
				"type": "occ",
				"energy": -0.28411,
				"method": "rhf"
			},
			{
				"type": "occ",
				"energy": -0.2802,
				"method": "rhf"
			},
			{
				"type": "occ",
				"energy": -0.26343,
				"method": "rhf"
			},
			{
				"type": "occ",
				"energy": -0.2589,
				"method": "rhf"
			},
			{
				"type": "unocc",
				"energy": -0.07246,
				"method": "rhf"
			},
			{
				"type": "unocc",
				"energy": -0.05117,
				"method": "rhf"
			},
			{
				"type": "unocc",
				"energy": -0.03642,
				"method": "rhf"
			},
			{
				"type": "unocc",
				"energy": -0.01341,
				"method": "rhf"
			},
			{
				"type": "unocc",
				"energy": 0.00066,
				"method": "rhf"
			}
		],
		"cosmo_sigma_profile": { 
			"-0.025": 0.0,
			"-0.024": 0.0,
			"-0.023": 0.0,
			"-0.022": 0.0,
			"-0.021": 0.0,
			"-0.02": 0.0,
			"-0.019": 0.0,
			"-0.018": 0.0,
			"-0.017": 0.0,
			"-0.016": 0.0,
			"-0.015": 0.0,
			"-0.014": 0.0,
			"-0.013": 0.0,
			"-0.012": 0.0,
			"-0.011": 0.0,
			"-0.01": 0.0,
			"-0.009": 3.51004723426,
			"-0.008": 10.8413735625,
			"-0.007": 11.9537084697,
			"-0.006": 10.2834639886,
			"-0.005": 9.00078892235,
			"-0.004": 11.4195815421,
			"-0.003": 11.8810251985,
			"-0.002": 15.4163797262,
			"-0.001": 27.452971271,
			"0.0": 33.4761273517,
			"0.001": 18.9532651643,
			"0.002": 12.6947229634,
			"0.003": 16.1252052769,
			"0.004": 22.5686371996,
			"0.005": 11.4498936664,
			"0.006": 4.80307647431,
			"0.007": 3.48091007654,
			"0.008": 2.52513370986,
			"0.009": 2.33944589322,
			"0.01": 2.1349155085,
			"0.011": 2.29318696728,
			"0.012": 1.92546031702,
			"0.013": 1.48179304722,
			"0.014": 1.21782990099,
			"0.015": 0.0388988444289,
			"0.016": 0.0,
			"0.017": 0.0,
			"0.018": 0.0,
			"0.019": 0.0,
			"0.02": 0.0,
			"0.021": 0.0,
			"0.022": 0.0,
			"0.023": 0.0,
			"0.024": 0.0,
			"0.025": 0.0
		}
	}
}
