{
	 "smiles": "NC1=CC=C(CNC(=O)C2=CC=C(C=C2)C(F)(F)F)C=C1", 
	 "Tm": 437.15, 
	 "num_atms": 34, 
	 "gaussian": { 
		 "optdone": 1, 
		 "sigma_profile": "yes", 
		 "theory": "DFT", 
		 "functional": "B3LYP", 
		 "basiset": "6-31G**", 
		 "properties": { 
			 "R2extent": 11131.8114, 
			 "electric_dipole_moment_norm": 4.58088215958, 
			 "electric_quadrupole_moment_norm": 15.283213062, 
			 "total_energy": -1063.71230283, 
			 "HOMO_LUMO_gap": 0.15031, 
			 "cosmo_polarized_energy": -17.19, 
			 "cosmo_cavitation_energy": 40.37, 
			 "cosmo_dispersion_energy": -28.36, 
			 "cosmo_repulsion_energy": 2.11, 
			 "cosmo_total_nonelectrostatic_energy": 14.11, 
			 "SMD_solvation_energy": 7.65 
		},
		"coords": [
			{
				"x": -1.6565919778,
				"y": -3.5541965513,
				"z": -4.2735531149,
				"element": "N" 
			},
			{
				"x": -1.6897348452,
				"y": -3.0306698539,
				"z": -2.9802342434,
				"element": "C" 
			},
			{
				"x": -2.766720168,
				"y": -2.2392539267,
				"z": -2.5494314132,
				"element": "C" 
			},
			{
				"x": -2.7618447427,
				"y": -1.6743329882,
				"z": -1.2754863186,
				"element": "C" 
			},
			{
				"x": -1.6974324071,
				"y": -1.8771371213,
				"z": -0.3912035164,
				"element": "C" 
			},
			{
				"x": -1.6880418089,
				"y": -1.2506899935,
				"z": 0.9874878919,
				"element": "C" 
			},
			{
				"x": -0.7361912557,
				"y": -0.1437840371,
				"z": 1.1286749481,
				"element": "N" 
			},
			{
				"x": 0.5156248099,
				"y": -0.3378563491,
				"z": 1.6456968273,
				"element": "C" 
			},
			{
				"x": 0.8944761418,
				"y": -1.4184972789,
				"z": 2.0937476895,
				"element": "O" 
			},
			{
				"x": 1.4231890395,
				"y": 0.8654397867,
				"z": 1.6503789477,
				"element": "C" 
			},
			{
				"x": 2.8004465139,
				"y": 0.6290514081,
				"z": 1.7485993257,
				"element": "C" 
			},
			{
				"x": 3.7003619294,
				"y": 1.6895174927,
				"z": 1.7604782318,
				"element": "C" 
			},
			{
				"x": 3.2275819163,
				"y": 3.0037380146,
				"z": 1.6894135455,
				"element": "C" 
			},
			{
				"x": 1.8551824819,
				"y": 3.252283018,
				"z": 1.6145999977,
				"element": "C" 
			},
			{
				"x": 0.9579301263,
				"y": 2.1863870355,
				"z": 1.5964225465,
				"element": "C" 
			},
			{
				"x": 4.2017134787,
				"y": 4.1508854258,
				"z": 1.6458507244,
				"element": "C" 
			},
			{
				"x": 5.3326570492,
				"y": 3.8769380232,
				"z": 2.3317082282,
				"element": "F" 
			},
			{
				"x": 4.5719917021,
				"y": 4.4380974037,
				"z": 0.3759856171,
				"element": "F" 
			},
			{
				"x": 3.6730794642,
				"y": 5.2809704882,
				"z": 2.1653539946,
				"element": "F" 
			},
			{
				"x": -0.6247568315,
				"y": -2.6722917978,
				"z": -0.8240906396,
				"element": "C" 
			},
			{
				"x": -0.6165259557,
				"y": -3.2383605444,
				"z": -2.0932205977,
				"element": "C" 
			},
			{
				"x": -2.5586459916,
				"y": -3.6758301725,
				"z": -4.7128204925,
				"element": "H" 
			},
			{
				"x": -1.0662058265,
				"y": -4.3656052819,
				"z": -4.3941680501,
				"element": "H" 
			},
			{
				"x": -3.6067154496,
				"y": -2.0659326274,
				"z": -3.2178904091,
				"element": "H" 
			},
			{
				"x": -3.6113007678,
				"y": -1.0698340808,
				"z": -0.9637173185,
				"element": "H" 
			},
			{
				"x": -2.6865136328,
				"y": -0.8744839455,
				"z": 1.2359706757,
				"element": "H" 
			},
			{
				"x": -1.4034574913,
				"y": -1.9820707394,
				"z": 1.7469019606,
				"element": "H" 
			},
			{
				"x": -0.8828876541,
				"y": 0.663757291,
				"z": 0.5403842547,
				"element": "H" 
			},
			{
				"x": 3.1409423657,
				"y": -0.3978443588,
				"z": 1.8217463362,
				"element": "H" 
			},
			{
				"x": 4.7662771134,
				"y": 1.5033622401,
				"z": 1.8355665064,
				"element": "H" 
			},
			{
				"x": 1.4923155019,
				"y": 4.2739267247,
				"z": 1.588207514,
				"element": "H" 
			},
			{
				"x": -0.1075651931,
				"y": 2.394289719,
				"z": 1.5775979378,
				"element": "H" 
			},
			{
				"x": 0.2090069,
				"y": -2.8476891642,
				"z": -0.1496585243,
				"element": "H" 
			},
			{
				"x": 0.225155465,
				"y": -3.8509832585,
				"z": -2.407899063,
				"element": "H" 
			}
		],
		 "valence_orbital": [ 
			{
				"type": "occ",
				"energy": -0.27138,
				"method": "rhf"
			},
			{
				"type": "occ",
				"energy": -0.26198,
				"method": "rhf"
			},
			{
				"type": "occ",
				"energy": -0.25149,
				"method": "rhf"
			},
			{
				"type": "occ",
				"energy": -0.24783,
				"method": "rhf"
			},
			{
				"type": "occ",
				"energy": -0.20265,
				"method": "rhf"
			},
			{
				"type": "unocc",
				"energy": -0.05234,
				"method": "rhf"
			},
			{
				"type": "unocc",
				"energy": -0.02176,
				"method": "rhf"
			},
			{
				"type": "unocc",
				"energy": -0.0001,
				"method": "rhf"
			},
			{
				"type": "unocc",
				"energy": 0.01037,
				"method": "rhf"
			},
			{
				"type": "unocc",
				"energy": 0.0461,
				"method": "rhf"
			}
		],
		"cosmo_sigma_profile": { 
			"-0.025": 0.0,
			"-0.024": 0.0,
			"-0.023": 0.0,
			"-0.022": 0.0,
			"-0.021": 0.0,
			"-0.02": 0.0,
			"-0.019": 0.0,
			"-0.018": 0.0,
			"-0.017": 0.0,
			"-0.016": 0.0,
			"-0.015": 0.0248597946157,
			"-0.014": 0.855447467409,
			"-0.013": 1.48948865944,
			"-0.012": 3.28195650881,
			"-0.011": 4.06447373529,
			"-0.01": 3.89846788798,
			"-0.009": 5.46590799453,
			"-0.008": 5.62691634599,
			"-0.007": 8.07438714389,
			"-0.006": 12.8502644991,
			"-0.005": 18.9161451393,
			"-0.004": 16.8336524469,
			"-0.003": 18.002028643,
			"-0.002": 17.4270520942,
			"-0.001": 19.472603348,
			"0.0": 22.4780594569,
			"0.001": 26.1816110602,
			"0.002": 39.9662584743,
			"0.003": 38.3571455898,
			"0.004": 11.2397004384,
			"0.005": 9.38074114094,
			"0.006": 11.4394535777,
			"0.007": 8.06858278421,
			"0.008": 3.00557678912,
			"0.009": 2.30049863684,
			"0.01": 1.97689827002,
			"0.011": 2.12133417872,
			"0.012": 2.36209302206,
			"0.013": 4.17238776217,
			"0.014": 2.62409846109,
			"0.015": 0.211234853242,
			"0.016": 0.0,
			"0.017": 0.0,
			"0.018": 0.0,
			"0.019": 0.0,
			"0.02": 0.0,
			"0.021": 0.0,
			"0.022": 0.0,
			"0.023": 0.0,
			"0.024": 0.0,
			"0.025": 0.0
		}
	}
}
