{
	 "smiles": "CC1=CN=C(N)C(C)=N1", 
	 "Tm": 369.15, 
	 "num_atms": 18, 
	 "gaussian": { 
		 "optdone": 1, 
		 "sigma_profile": "yes", 
		 "theory": "DFT", 
		 "functional": "B3LYP", 
		 "basiset": "6-31G**", 
		 "properties": { 
			 "R2extent": 1551.4919, 
			 "electric_dipole_moment_norm": 1.81067741467, 
			 "electric_quadrupole_moment_norm": 11.3199198659, 
			 "total_energy": -398.312704204, 
			 "HOMO_LUMO_gap": 0.19843, 
			 "cosmo_polarized_energy": -12.59, 
			 "cosmo_cavitation_energy": 21.6, 
			 "cosmo_dispersion_energy": -16.03, 
			 "cosmo_repulsion_energy": 1.33, 
			 "cosmo_total_nonelectrostatic_energy": 6.9, 
			 "SMD_solvation_energy": 1.01 
		},
		"coords": [
			{
				"x": -2.7120096849,
				"y": -1.8111296786,
				"z": 1.8120344646,
				"element": "C" 
			},
			{
				"x": -1.3939257698,
				"y": -1.4390293744,
				"z": 1.1827403226,
				"element": "C" 
			},
			{
				"x": -0.2973739892,
				"y": -1.0209169102,
				"z": 1.9469373834,
				"element": "C" 
			},
			{
				"x": 0.8741402241,
				"y": -0.6890565816,
				"z": 1.4017469571,
				"element": "N" 
			},
			{
				"x": 0.9761376115,
				"y": -0.7681927051,
				"z": 0.0731460977,
				"element": "C" 
			},
			{
				"x": 2.2435015824,
				"y": -0.4070152057,
				"z": -0.4908907916,
				"element": "N" 
			},
			{
				"x": -0.1189054122,
				"y": -1.1877859875,
				"z": -0.7144126215,
				"element": "C" 
			},
			{
				"x": -0.0268171586,
				"y": -1.2847336284,
				"z": -2.2159141741,
				"element": "C" 
			},
			{
				"x": -1.2898854376,
				"y": -1.5180162689,
				"z": -0.15189758,
				"element": "N" 
			},
			{
				"x": -2.5967769086,
				"y": -2.6442753528,
				"z": 2.514509757,
				"element": "H" 
			},
			{
				"x": -3.1364285779,
				"y": -0.971198253,
				"z": 2.3735177555,
				"element": "H" 
			},
			{
				"x": -3.4187445914,
				"y": -2.1046432091,
				"z": 1.034209062,
				"element": "H" 
			},
			{
				"x": -0.3700878642,
				"y": -0.9528963439,
				"z": 3.0317598201,
				"element": "H" 
			},
			{
				"x": 2.6346264669,
				"y": -1.1840844977,
				"z": -1.0189101242,
				"element": "H" 
			},
			{
				"x": 2.1361141827,
				"y": 0.3614295648,
				"z": -1.149354903,
				"element": "H" 
			},
			{
				"x": -0.9832599311,
				"y": -1.6270925625,
				"z": -2.6136030133,
				"element": "H" 
			},
			{
				"x": 0.7553056771,
				"y": -1.9869052269,
				"z": -2.5289339781,
				"element": "H" 
			},
			{
				"x": 0.2158895807,
				"y": -0.3163577785,
				"z": -2.6698844342,
				"element": "H" 
			}
		],
		 "valence_orbital": [ 
			{
				"type": "occ",
				"energy": -0.31263,
				"method": "rhf"
			},
			{
				"type": "occ",
				"energy": -0.29755,
				"method": "rhf"
			},
			{
				"type": "occ",
				"energy": -0.26399,
				"method": "rhf"
			},
			{
				"type": "occ",
				"energy": -0.24916,
				"method": "rhf"
			},
			{
				"type": "occ",
				"energy": -0.23365,
				"method": "rhf"
			},
			{
				"type": "unocc",
				"energy": -0.03522,
				"method": "rhf"
			},
			{
				"type": "unocc",
				"energy": -0.01596,
				"method": "rhf"
			},
			{
				"type": "unocc",
				"energy": 0.06864,
				"method": "rhf"
			},
			{
				"type": "unocc",
				"energy": 0.11707,
				"method": "rhf"
			},
			{
				"type": "unocc",
				"energy": 0.11837,
				"method": "rhf"
			}
		],
		"cosmo_sigma_profile": { 
			"-0.025": 0.0,
			"-0.024": 0.0,
			"-0.023": 0.0,
			"-0.022": 0.0,
			"-0.021": 0.0,
			"-0.02": 0.0,
			"-0.019": 0.0,
			"-0.018": 0.0,
			"-0.017": 0.0,
			"-0.016": 0.0,
			"-0.015": 0.0,
			"-0.014": 0.0,
			"-0.013": 0.0,
			"-0.012": 0.0981036702406,
			"-0.011": 2.82253923859,
			"-0.01": 2.65418396727,
			"-0.009": 3.90919821895,
			"-0.008": 4.21818425566,
			"-0.007": 4.50589219673,
			"-0.006": 6.20420244381,
			"-0.005": 10.1027089162,
			"-0.004": 14.472089441,
			"-0.003": 13.6352517622,
			"-0.002": 14.2146353903,
			"-0.001": 19.0172590315,
			"0.0": 18.5607882203,
			"0.001": 9.40590528491,
			"0.002": 5.99381396252,
			"0.003": 4.47682423904,
			"0.004": 4.16482385112,
			"0.005": 4.21534412455,
			"0.006": 2.63043016424,
			"0.007": 3.01215628388,
			"0.008": 2.06325516998,
			"0.009": 2.39768687328,
			"0.01": 2.73720991402,
			"0.011": 2.36665827627,
			"0.012": 1.70019136204,
			"0.013": 1.45430183907,
			"0.014": 2.89231331122,
			"0.015": 1.01394339833,
			"0.016": 1.23827489841,
			"0.017": 1.81851839842,
			"0.018": 1.25565837892,
			"0.019": 0.894031378807,
			"0.02": 0.309660273273,
			"0.021": 0.0,
			"0.022": 0.0,
			"0.023": 0.0,
			"0.024": 0.0,
			"0.025": 0.0
		}
	}
}
