{
	 "smiles": "CC1=CC=C(C=C1F)C#N", 
	 "Tm": 320.15, 
	 "num_atms": 16, 
	 "gaussian": { 
		 "optdone": 1, 
		 "sigma_profile": "yes", 
		 "theory": "DFT", 
		 "functional": "B3LYP", 
		 "basiset": "6-31G**", 
		 "properties": { 
			 "R2extent": 2227.5142, 
			 "electric_dipole_moment_norm": 4.56761054053, 
			 "electric_quadrupole_moment_norm": 11.7341394094, 
			 "total_energy": -463.0438862, 
			 "HOMO_LUMO_gap": 0.20468, 
			 "cosmo_polarized_energy": -8.16, 
			 "cosmo_cavitation_energy": 21.77, 
			 "cosmo_dispersion_energy": -15.27, 
			 "cosmo_repulsion_energy": 1.22, 
			 "cosmo_total_nonelectrostatic_energy": 7.72, 
			 "SMD_solvation_energy": 5.74 
		},
		"coords": [
			{
				"x": -2.6486293397,
				"y": -1.501531097,
				"z": 0.7028353043,
				"element": "C" 
			},
			{
				"x": -1.822841693,
				"y": -0.4561698844,
				"z": 0.0018100307,
				"element": "C" 
			},
			{
				"x": -0.6780285801,
				"y": 0.1173548491,
				"z": 0.5680026188,
				"element": "C" 
			},
			{
				"x": 0.0669002414,
				"y": 1.0834593482,
				"z": -0.1050169878,
				"element": "C" 
			},
			{
				"x": -0.3301080788,
				"y": 1.5013617103,
				"z": -1.3848064202,
				"element": "C" 
			},
			{
				"x": -1.4746458751,
				"y": 0.9445372983,
				"z": -1.9799176872,
				"element": "C" 
			},
			{
				"x": -2.1847266314,
				"y": -0.012501792,
				"z": -1.2748898783,
				"element": "C" 
			},
			{
				"x": -3.2848547469,
				"y": -0.5488562988,
				"z": -1.8449768729,
				"element": "F" 
			},
			{
				"x": 0.4279903826,
				"y": 2.4948346214,
				"z": -2.0878253126,
				"element": "C" 
			},
			{
				"x": 1.0451751159,
				"y": 3.3010207579,
				"z": -2.6555288612,
				"element": "N" 
			},
			{
				"x": -2.2319326837,
				"y": -1.7348592367,
				"z": 1.6851362739,
				"element": "H" 
			},
			{
				"x": -2.6930139302,
				"y": -2.4266062572,
				"z": 0.1182509315,
				"element": "H" 
			},
			{
				"x": -3.6815443124,
				"y": -1.1633227365,
				"z": 0.8376512476,
				"element": "H" 
			},
			{
				"x": -0.3667980886,
				"y": -0.2027870622,
				"z": 1.5581718939,
				"element": "H" 
			},
			{
				"x": 0.9506439872,
				"y": 1.515338125,
				"z": 0.3511249501,
				"element": "H" 
			},
			{
				"x": -1.8048857674,
				"y": 1.2477276546,
				"z": -2.9664212306,
				"element": "H" 
			}
		],
		 "valence_orbital": [ 
			{
				"type": "occ",
				"energy": -0.35802,
				"method": "rhf"
			},
			{
				"type": "occ",
				"energy": -0.34073,
				"method": "rhf"
			},
			{
				"type": "occ",
				"energy": -0.33377,
				"method": "rhf"
			},
			{
				"type": "occ",
				"energy": -0.27509,
				"method": "rhf"
			},
			{
				"type": "occ",
				"energy": -0.26004,
				"method": "rhf"
			},
			{
				"type": "unocc",
				"energy": -0.05536,
				"method": "rhf"
			},
			{
				"type": "unocc",
				"energy": -0.02361,
				"method": "rhf"
			},
			{
				"type": "unocc",
				"energy": 0.03365,
				"method": "rhf"
			},
			{
				"type": "unocc",
				"energy": 0.07442,
				"method": "rhf"
			},
			{
				"type": "unocc",
				"energy": 0.07556,
				"method": "rhf"
			}
		],
		"cosmo_sigma_profile": { 
			"-0.025": 0.0,
			"-0.024": 0.0,
			"-0.023": 0.0,
			"-0.022": 0.0,
			"-0.021": 0.0,
			"-0.02": 0.0,
			"-0.019": 0.0,
			"-0.018": 0.0,
			"-0.017": 0.0,
			"-0.016": 0.0,
			"-0.015": 0.0,
			"-0.014": 0.0,
			"-0.013": 0.0,
			"-0.012": 0.0,
			"-0.011": 0.0,
			"-0.01": 0.0187305324205,
			"-0.009": 1.3882756706,
			"-0.008": 3.35019790571,
			"-0.007": 6.27430672804,
			"-0.006": 9.428943121,
			"-0.005": 10.0679532206,
			"-0.004": 11.0118567544,
			"-0.003": 12.2500218831,
			"-0.002": 13.8158503358,
			"-0.001": 21.5048488656,
			"0.0": 17.2785489075,
			"0.001": 15.839614872,
			"0.002": 11.317733437,
			"0.003": 7.24722141408,
			"0.004": 10.2676755414,
			"0.005": 2.59346637569,
			"0.006": 2.09839560208,
			"0.007": 3.3823698017,
			"0.008": 3.14516507156,
			"0.009": 3.84541919254,
			"0.01": 2.9331416064,
			"0.011": 2.81179789994,
			"0.012": 2.28372787969,
			"0.013": 1.46998740812,
			"0.014": 0.0552838159026,
			"0.015": 0.0,
			"0.016": 0.0,
			"0.017": 0.0,
			"0.018": 0.0,
			"0.019": 0.0,
			"0.02": 0.0,
			"0.021": 0.0,
			"0.022": 0.0,
			"0.023": 0.0,
			"0.024": 0.0,
			"0.025": 0.0
		}
	}
}
