{
	 "smiles": "NC(=O)C1=C(F)C=C(F)C(N)=C1", 
	 "Tm": 443.15, 
	 "num_atms": 18, 
	 "gaussian": { 
		 "optdone": 1, 
		 "sigma_profile": "yes", 
		 "theory": "DFT", 
		 "functional": "B3LYP", 
		 "basiset": "6-31G**", 
		 "properties": { 
			 "R2extent": 2276.3016, 
			 "electric_dipole_moment_norm": 5.6669385721, 
			 "electric_quadrupole_moment_norm": 9.26204616972, 
			 "total_energy": -654.768185747, 
			 "HOMO_LUMO_gap": 0.17953, 
			 "cosmo_polarized_energy": -18.19, 
			 "cosmo_cavitation_energy": 23.75, 
			 "cosmo_dispersion_energy": -17.32, 
			 "cosmo_repulsion_energy": 1.36, 
			 "cosmo_total_nonelectrostatic_energy": 7.79, 
			 "SMD_solvation_energy": 5.78 
		},
		"coords": [
			{
				"x": -0.9780159748,
				"y": -1.0246109156,
				"z": 2.2008999365,
				"element": "N" 
			},
			{
				"x": -0.0480180532,
				"y": -1.2130985992,
				"z": 1.1989481154,
				"element": "C" 
			},
			{
				"x": 0.7570925109,
				"y": -2.1298692875,
				"z": 1.2245862671,
				"element": "O" 
			},
			{
				"x": -0.1514660767,
				"y": -0.2384124578,
				"z": 0.0591161477,
				"element": "C" 
			},
			{
				"x": 0.9926172799,
				"y": 0.1871164753,
				"z": -0.622957631,
				"element": "C" 
			},
			{
				"x": 2.2135640604,
				"y": -0.2104375828,
				"z": -0.2289023711,
				"element": "F" 
			},
			{
				"x": 0.909933841,
				"y": 1.0670520096,
				"z": -1.6981053173,
				"element": "C" 
			},
			{
				"x": -0.3401944834,
				"y": 1.5039002471,
				"z": -2.0979722325,
				"element": "C" 
			},
			{
				"x": -0.445737531,
				"y": 2.3648675378,
				"z": -3.1387678294,
				"element": "F" 
			},
			{
				"x": -1.5286425829,
				"y": 1.105374242,
				"z": -1.4674403587,
				"element": "C" 
			},
			{
				"x": -2.7582209813,
				"y": 1.5228323372,
				"z": -1.9733271584,
				"element": "N" 
			},
			{
				"x": -1.4000294287,
				"y": 0.2332296062,
				"z": -0.3805915634,
				"element": "C" 
			},
			{
				"x": -1.3750681429,
				"y": -0.1093278317,
				"z": 2.3492478963,
				"element": "H" 
			},
			{
				"x": -0.849246905,
				"y": -1.6047452769,
				"z": 3.0181984324,
				"element": "H" 
			},
			{
				"x": 1.8041584547,
				"y": 1.4074695845,
				"z": -2.2060100307,
				"element": "H" 
			},
			{
				"x": -3.5094537785,
				"y": 1.568436262,
				"z": -1.2996652121,
				"element": "H" 
			},
			{
				"x": -2.7069501803,
				"y": 2.3468368044,
				"z": -2.5560719878,
				"element": "H" 
			},
			{
				"x": -2.2985220281,
				"y": -0.1250131548,
				"z": 0.1131148973,
				"element": "H" 
			}
		],
		 "valence_orbital": [ 
			{
				"type": "occ",
				"energy": -0.31339,
				"method": "rhf"
			},
			{
				"type": "occ",
				"energy": -0.27318,
				"method": "rhf"
			},
			{
				"type": "occ",
				"energy": -0.26476,
				"method": "rhf"
			},
			{
				"type": "occ",
				"energy": -0.24829,
				"method": "rhf"
			},
			{
				"type": "occ",
				"energy": -0.21282,
				"method": "rhf"
			},
			{
				"type": "unocc",
				"energy": -0.03329,
				"method": "rhf"
			},
			{
				"type": "unocc",
				"energy": -0.00185,
				"method": "rhf"
			},
			{
				"type": "unocc",
				"energy": 0.05097,
				"method": "rhf"
			},
			{
				"type": "unocc",
				"energy": 0.06889,
				"method": "rhf"
			},
			{
				"type": "unocc",
				"energy": 0.08065,
				"method": "rhf"
			}
		],
		"cosmo_sigma_profile": { 
			"-0.025": 0.0,
			"-0.024": 0.0,
			"-0.023": 0.0,
			"-0.022": 0.0,
			"-0.021": 0.0,
			"-0.02": 0.0,
			"-0.019": 0.0,
			"-0.018": 0.0,
			"-0.017": 0.0,
			"-0.016": 0.0,
			"-0.015": 0.0,
			"-0.014": 1.26943900066,
			"-0.013": 3.47101240521,
			"-0.012": 5.28208231503,
			"-0.011": 4.5997534726,
			"-0.01": 4.87696739967,
			"-0.009": 5.28542277323,
			"-0.008": 7.328749657,
			"-0.007": 6.41207713506,
			"-0.006": 5.60406592744,
			"-0.005": 4.89654815978,
			"-0.004": 6.75726489168,
			"-0.003": 5.73616869413,
			"-0.002": 5.84632672914,
			"-0.001": 9.31940241379,
			"0.0": 13.6517813185,
			"0.001": 18.3658109065,
			"0.002": 15.7265592656,
			"0.003": 13.1431352945,
			"0.004": 16.1589274147,
			"0.005": 5.00863761962,
			"0.006": 3.56000851749,
			"0.007": 3.2980338204,
			"0.008": 2.98608799842,
			"0.009": 2.42491632134,
			"0.01": 2.87284396874,
			"0.011": 2.05548700424,
			"0.012": 3.25772121441,
			"0.013": 6.56976458814,
			"0.014": 3.58276944478,
			"0.015": 0.152830885093,
			"0.016": 0.0,
			"0.017": 0.0,
			"0.018": 0.0,
			"0.019": 0.0,
			"0.02": 0.0,
			"0.021": 0.0,
			"0.022": 0.0,
			"0.023": 0.0,
			"0.024": 0.0,
			"0.025": 0.0
		}
	}
}
