{
	 "smiles": "[O-][N+](=O)C1=CC(=C(Cl)C=C1Cl)[N+]([O-])=O", 
	 "Tm": 374.15, 
	 "num_atms": 16, 
	 "gaussian": { 
		 "optdone": 1, 
		 "sigma_profile": "yes", 
		 "theory": "DFT", 
		 "functional": "B3LYP", 
		 "basiset": "6-31G**", 
		 "properties": { 
			 "R2extent": 4299.2039, 
			 "electric_dipole_moment_norm": 3.36486877307, 
			 "electric_quadrupole_moment_norm": 15.1980842398, 
			 "total_energy": -1560.39075258, 
			 "HOMO_LUMO_gap": 0.17741, 
			 "cosmo_polarized_energy": -11.48, 
			 "cosmo_cavitation_energy": 26.3, 
			 "cosmo_dispersion_energy": -19.43, 
			 "cosmo_repulsion_energy": 1.53, 
			 "cosmo_total_nonelectrostatic_energy": 8.4, 
			 "SMD_solvation_energy": 8.53 
		},
		"coords": [
			{
				"x": -3.3609940354,
				"y": 0.6065716192,
				"z": -2.661647053,
				"element": "O" 
			},
			{
				"x": -2.9720779684,
				"y": 0.7628280188,
				"z": -1.5105816414,
				"element": "N" 
			},
			{
				"x": -3.3308040913,
				"y": 1.6570316599,
				"z": -0.7474248927,
				"element": "O" 
			},
			{
				"x": -1.9580848929,
				"y": -0.1757853201,
				"z": -0.9917522443,
				"element": "C" 
			},
			{
				"x": -1.09208143,
				"y": 0.3268376096,
				"z": -0.0287030448,
				"element": "C" 
			},
			{
				"x": -0.064952549,
				"y": -0.4571707643,
				"z": 0.4816899608,
				"element": "C" 
			},
			{
				"x": 0.0751331975,
				"y": -1.7918798829,
				"z": 0.0649790887,
				"element": "C" 
			},
			{
				"x": 1.2621525698,
				"y": -2.8852345075,
				"z": 0.6957293234,
				"element": "Cl" 
			},
			{
				"x": -0.8281634304,
				"y": -2.3011843351,
				"z": -0.8697009308,
				"element": "C" 
			},
			{
				"x": -1.8354013683,
				"y": -1.5078692029,
				"z": -1.4220157631,
				"element": "C" 
			},
			{
				"x": -2.9096701037,
				"y": -2.2648299322,
				"z": -2.5512836348,
				"element": "Cl" 
			},
			{
				"x": 0.8342417197,
				"y": 0.197183225,
				"z": 1.4521184236,
				"element": "N" 
			},
			{
				"x": 1.9949784277,
				"y": -0.1902547426,
				"z": 1.5086398236,
				"element": "O" 
			},
			{
				"x": 0.3500051221,
				"y": 1.1110042123,
				"z": 2.1163084397,
				"element": "O" 
			},
			{
				"x": -1.2177024214,
				"y": 1.3414309578,
				"z": 0.3264705757,
				"element": "H" 
			},
			{
				"x": -0.7478787461,
				"y": -3.3381786151,
				"z": -1.1709264304,
				"element": "H" 
			}
		],
		 "valence_orbital": [ 
			{
				"type": "occ",
				"energy": -0.33079,
				"method": "rhf"
			},
			{
				"type": "occ",
				"energy": -0.31984,
				"method": "rhf"
			},
			{
				"type": "occ",
				"energy": -0.31587,
				"method": "rhf"
			},
			{
				"type": "occ",
				"energy": -0.30279,
				"method": "rhf"
			},
			{
				"type": "occ",
				"energy": -0.29926,
				"method": "rhf"
			},
			{
				"type": "unocc",
				"energy": -0.12185,
				"method": "rhf"
			},
			{
				"type": "unocc",
				"energy": -0.10984,
				"method": "rhf"
			},
			{
				"type": "unocc",
				"energy": -0.05985,
				"method": "rhf"
			},
			{
				"type": "unocc",
				"energy": -0.03521,
				"method": "rhf"
			},
			{
				"type": "unocc",
				"energy": -0.02861,
				"method": "rhf"
			}
		],
		"cosmo_sigma_profile": { 
			"-0.025": 0.0,
			"-0.024": 0.0,
			"-0.023": 0.0,
			"-0.022": 0.0,
			"-0.021": 0.0,
			"-0.02": 0.0,
			"-0.019": 0.0,
			"-0.018": 0.0,
			"-0.017": 0.0,
			"-0.016": 0.0,
			"-0.015": 0.0,
			"-0.014": 0.0,
			"-0.013": 0.0,
			"-0.012": 0.0,
			"-0.011": 0.291251931767,
			"-0.01": 2.83623138665,
			"-0.009": 5.46196525003,
			"-0.008": 6.69596979784,
			"-0.007": 6.22252575558,
			"-0.006": 8.39709891052,
			"-0.005": 14.2472677503,
			"-0.004": 19.3378824097,
			"-0.003": 17.5611198439,
			"-0.002": 10.8069000701,
			"-0.001": 12.2028202568,
			"0.0": 12.1062437512,
			"0.001": 15.4441950003,
			"0.002": 16.1165175524,
			"0.003": 7.50638101283,
			"0.004": 7.74214428189,
			"0.005": 7.97932407372,
			"0.006": 17.005084575,
			"0.007": 17.9633419282,
			"0.008": 7.96829358331,
			"0.009": 3.30307652916,
			"0.01": 0.013414468793,
			"0.011": 0.0,
			"0.012": 0.0,
			"0.013": 0.0,
			"0.014": 0.0,
			"0.015": 0.0,
			"0.016": 0.0,
			"0.017": 0.0,
			"0.018": 0.0,
			"0.019": 0.0,
			"0.02": 0.0,
			"0.021": 0.0,
			"0.022": 0.0,
			"0.023": 0.0,
			"0.024": 0.0,
			"0.025": 0.0
		}
	}
}
