{
	 "smiles": "CC=C1CCC2C3CCC4CC(CCC4(C)C3CCC12C)OC(C)=O", 
	 "Tm": 392.15, 
	 "num_atms": 61, 
	 "gaussian": { 
		 "optdone": 1, 
		 "sigma_profile": "yes", 
		 "theory": "DFT", 
		 "functional": "B3LYP", 
		 "basiset": "6-31G**", 
		 "properties": { 
			 "R2extent": 11475.1402, 
			 "electric_dipole_moment_norm": 1.87412182368, 
			 "electric_quadrupole_moment_norm": 11.1486738543, 
			 "total_energy": -1048.60817351, 
			 "HOMO_LUMO_gap": 0.24414, 
			 "cosmo_polarized_energy": -7.86, 
			 "cosmo_cavitation_energy": 52.34, 
			 "cosmo_dispersion_energy": -36.06, 
			 "cosmo_repulsion_energy": 2.71, 
			 "cosmo_total_nonelectrostatic_energy": 18.99, 
			 "SMD_solvation_energy": 8.52 
		},
		"coords": [
			{
				"x": 0.915343305,
				"y": 3.7574792492,
				"z": 4.2050255593,
				"element": "C" 
			},
			{
				"x": -0.0673055357,
				"y": 3.7500588029,
				"z": 3.0671211444,
				"element": "C" 
			},
			{
				"x": 0.1404526342,
				"y": 3.3020344385,
				"z": 1.8237375566,
				"element": "C" 
			},
			{
				"x": 1.4127613636,
				"y": 2.6745605419,
				"z": 1.2898094324,
				"element": "C" 
			},
			{
				"x": 0.9110878747,
				"y": 1.7425139005,
				"z": 0.1773444266,
				"element": "C" 
			},
			{
				"x": -0.233373569,
				"y": 2.5468559994,
				"z": -0.4797683036,
				"element": "C" 
			},
			{
				"x": -1.2344286902,
				"y": 1.8110924143,
				"z": -1.4128616562,
				"element": "C" 
			},
			{
				"x": -0.4974614612,
				"y": 1.0977511105,
				"z": -2.5793451257,
				"element": "C" 
			},
			{
				"x": -0.0835165401,
				"y": -0.3774572807,
				"z": -2.3350532654,
				"element": "C" 
			},
			{
				"x": -0.8387009736,
				"y": -1.0425795864,
				"z": -1.1725906967,
				"element": "C" 
			},
			{
				"x": -0.7045191448,
				"y": -2.5724209814,
				"z": -1.1618089826,
				"element": "C" 
			},
			{
				"x": -1.1696654148,
				"y": -3.1582396999,
				"z": 0.187708921,
				"element": "C" 
			},
			{
				"x": -2.1892426288,
				"y": -2.2552477757,
				"z": 0.8983284657,
				"element": "C" 
			},
			{
				"x": -3.0913534626,
				"y": -1.5213995427,
				"z": -0.1020204899,
				"element": "C" 
			},
			{
				"x": -2.321759511,
				"y": -0.5852359293,
				"z": -1.0963498187,
				"element": "C" 
			},
			{
				"x": -3.0574262423,
				"y": -0.7328577815,
				"z": -2.4522082262,
				"element": "C" 
			},
			{
				"x": -2.3360993937,
				"y": 0.9311060005,
				"z": -0.6822485242,
				"element": "C" 
			},
			{
				"x": -2.3214384203,
				"y": 1.2157846893,
				"z": 0.8361691661,
				"element": "C" 
			},
			{
				"x": -2.2617496114,
				"y": 2.7251630331,
				"z": 1.0943089526,
				"element": "C" 
			},
			{
				"x": -0.9039013849,
				"y": 3.3593196507,
				"z": 0.6883702704,
				"element": "C" 
			},
			{
				"x": -1.1387509906,
				"y": 4.825799957,
				"z": 0.2678849828,
				"element": "C" 
			},
			{
				"x": -1.8248915778,
				"y": -4.4439490606,
				"z": -0.0273124354,
				"element": "O" 
			},
			{
				"x": -1.020743676,
				"y": -5.5202191943,
				"z": -0.1754738584,
				"element": "C" 
			},
			{
				"x": -1.8388874981,
				"y": -6.7765810062,
				"z": -0.3710641369,
				"element": "C" 
			},
			{
				"x": 0.1909528017,
				"y": -5.4737053669,
				"z": -0.1485608204,
				"element": "O" 
			},
			{
				"x": 1.1405662853,
				"y": 4.784229473,
				"z": 4.5230023024,
				"element": "H" 
			},
			{
				"x": 0.5066148819,
				"y": 3.243862061,
				"z": 5.0848390465,
				"element": "H" 
			},
			{
				"x": 1.8627743611,
				"y": 3.2788157959,
				"z": 3.9452463152,
				"element": "H" 
			},
			{
				"x": -1.0447096802,
				"y": 4.1735171551,
				"z": 3.3036109692,
				"element": "H" 
			},
			{
				"x": 2.0006621035,
				"y": 2.1567349009,
				"z": 2.0530714793,
				"element": "H" 
			},
			{
				"x": 2.063706974,
				"y": 3.4501317193,
				"z": 0.8581990928,
				"element": "H" 
			},
			{
				"x": 1.6943718841,
				"y": 1.4689864656,
				"z": -0.5368354014,
				"element": "H" 
			},
			{
				"x": 0.5467821299,
				"y": 0.8158342814,
				"z": 0.6293051049,
				"element": "H" 
			},
			{
				"x": 0.2644648146,
				"y": 3.2827559428,
				"z": -1.1283963012,
				"element": "H" 
			},
			{
				"x": -1.7895812574,
				"y": 2.6307667488,
				"z": -1.8867349476,
				"element": "H" 
			},
			{
				"x": -1.1380004636,
				"y": 1.1403603731,
				"z": -3.4652747673,
				"element": "H" 
			},
			{
				"x": 0.3865069088,
				"y": 1.690448812,
				"z": -2.8431493333,
				"element": "H" 
			},
			{
				"x": 0.9916619298,
				"y": -0.4487177526,
				"z": -2.133571256,
				"element": "H" 
			},
			{
				"x": -0.251625904,
				"y": -0.9505431415,
				"z": -3.2556172786,
				"element": "H" 
			},
			{
				"x": -0.3658334636,
				"y": -0.6876489601,
				"z": -0.2488823648,
				"element": "H" 
			},
			{
				"x": -1.3212992685,
				"y": -3.0057879267,
				"z": -1.9586255058,
				"element": "H" 
			},
			{
				"x": 0.3260275256,
				"y": -2.8811862802,
				"z": -1.3625349199,
				"element": "H" 
			},
			{
				"x": -0.3077799958,
				"y": -3.3451301442,
				"z": 0.8337075093,
				"element": "H" 
			},
			{
				"x": -1.6460411815,
				"y": -1.541635624,
				"z": 1.5263536902,
				"element": "H" 
			},
			{
				"x": -2.786609774,
				"y": -2.872931654,
				"z": 1.5771417874,
				"element": "H" 
			},
			{
				"x": -3.6127540764,
				"y": -2.2887506522,
				"z": -0.6865839286,
				"element": "H" 
			},
			{
				"x": -3.8788863767,
				"y": -0.9685818307,
				"z": 0.4201656649,
				"element": "H" 
			},
			{
				"x": -4.1286555182,
				"y": -0.5516860968,
				"z": -2.3060712384,
				"element": "H" 
			},
			{
				"x": -2.7151948959,
				"y": -0.0331911116,
				"z": -3.2159843586,
				"element": "H" 
			},
			{
				"x": -2.9537890434,
				"y": -1.7455290149,
				"z": -2.8566299761,
				"element": "H" 
			},
			{
				"x": -3.3067995057,
				"y": 1.3176138903,
				"z": -1.025077008,
				"element": "H" 
			},
			{
				"x": -1.4776171893,
				"y": 0.7275528084,
				"z": 1.3369731073,
				"element": "H" 
			},
			{
				"x": -3.2268965411,
				"y": 0.81013978,
				"z": 1.2982893224,
				"element": "H" 
			},
			{
				"x": -2.4663510723,
				"y": 2.9409849987,
				"z": 2.1478543237,
				"element": "H" 
			},
			{
				"x": -3.0699820951,
				"y": 3.202674808,
				"z": 0.5222627541,
				"element": "H" 
			},
			{
				"x": -1.651035327,
				"y": 5.3834328473,
				"z": 1.0595484879,
				"element": "H" 
			},
			{
				"x": -1.7599870216,
				"y": 4.879801731,
				"z": -0.6347641302,
				"element": "H" 
			},
			{
				"x": -0.1927711879,
				"y": 5.3366227468,
				"z": 0.0591690988,
				"element": "H" 
			},
			{
				"x": -2.5050050974,
				"y": -6.9287702169,
				"z": 0.4833028998,
				"element": "H" 
			},
			{
				"x": -2.4684890922,
				"y": -6.6792258323,
				"z": -1.2605524915,
				"element": "H" 
			},
			{
				"x": -1.1715270219,
				"y": -7.6308776831,
				"z": -0.4802002865,
				"element": "H" 
			}
		],
		 "valence_orbital": [ 
			{
				"type": "occ",
				"energy": -0.27603,
				"method": "rhf"
			},
			{
				"type": "occ",
				"energy": -0.27281,
				"method": "rhf"
			},
			{
				"type": "occ",
				"energy": -0.26827,
				"method": "rhf"
			},
			{
				"type": "occ",
				"energy": -0.26185,
				"method": "rhf"
			},
			{
				"type": "occ",
				"energy": -0.22464,
				"method": "rhf"
			},
			{
				"type": "unocc",
				"energy": 0.0195,
				"method": "rhf"
			},
			{
				"type": "unocc",
				"energy": 0.02538,
				"method": "rhf"
			},
			{
				"type": "unocc",
				"energy": 0.06696,
				"method": "rhf"
			},
			{
				"type": "unocc",
				"energy": 0.07463,
				"method": "rhf"
			},
			{
				"type": "unocc",
				"energy": 0.08971,
				"method": "rhf"
			}
		],
		"cosmo_sigma_profile": { 
			"-0.025": 0.0,
			"-0.024": 0.0,
			"-0.023": 0.0,
			"-0.022": 0.0,
			"-0.021": 0.0,
			"-0.02": 0.0,
			"-0.019": 0.0,
			"-0.018": 0.0,
			"-0.017": 0.0,
			"-0.016": 0.0,
			"-0.015": 0.0,
			"-0.014": 0.0,
			"-0.013": 0.0,
			"-0.012": 0.0,
			"-0.011": 0.0,
			"-0.01": 0.0,
			"-0.009": 0.0,
			"-0.008": 0.0,
			"-0.007": 0.298893322172,
			"-0.006": 4.17329701917,
			"-0.005": 7.50316562916,
			"-0.004": 13.9350357558,
			"-0.003": 31.6661353986,
			"-0.002": 58.0946962339,
			"-0.001": 87.141155535,
			"0.0": 72.28692464,
			"0.001": 51.8814728583,
			"0.002": 27.430466739,
			"0.003": 9.39087985541,
			"0.004": 7.7979355346,
			"0.005": 5.09707282759,
			"0.006": 5.65923047002,
			"0.007": 3.84601556765,
			"0.008": 2.90924694581,
			"0.009": 2.40930785681,
			"0.01": 1.21428386256,
			"0.011": 2.39227698847,
			"0.012": 4.25625484915,
			"0.013": 2.38082121719,
			"0.014": 0.189956203534,
			"0.015": 0.0,
			"0.016": 0.0,
			"0.017": 0.0,
			"0.018": 0.0,
			"0.019": 0.0,
			"0.02": 0.0,
			"0.021": 0.0,
			"0.022": 0.0,
			"0.023": 0.0,
			"0.024": 0.0,
			"0.025": 0.0
		}
	}
}
