{
	 "smiles": "N#CC1CNCCN1CC1=CC=CC=C1", 
	 "Tm": 372.15, 
	 "num_atms": 30, 
	 "gaussian": { 
		 "optdone": 1, 
		 "sigma_profile": "yes", 
		 "theory": "DFT", 
		 "functional": "B3LYP", 
		 "basiset": "6-31G**", 
		 "properties": { 
			 "R2extent": 4764.951, 
			 "electric_dipole_moment_norm": 4.49447292349, 
			 "electric_quadrupole_moment_norm": 21.3990561196, 
			 "total_energy": -630.524380627, 
			 "HOMO_LUMO_gap": 0.21593, 
			 "cosmo_polarized_energy": -12.76, 
			 "cosmo_cavitation_energy": 32.39, 
			 "cosmo_dispersion_energy": -22.41, 
			 "cosmo_repulsion_energy": 1.77, 
			 "cosmo_total_nonelectrostatic_energy": 11.75, 
			 "SMD_solvation_energy": 3.91 
		},
		"coords": [
			{
				"x": 3.5501221703,
				"y": -3.1462885143,
				"z": 0.78722161,
				"element": "N" 
			},
			{
				"x": 2.7907750161,
				"y": -2.2692554422,
				"z": 0.7436143199,
				"element": "C" 
			},
			{
				"x": 1.8523814494,
				"y": -1.1275828591,
				"z": 0.6690293805,
				"element": "C" 
			},
			{
				"x": 2.6167563894,
				"y": 0.1649739676,
				"z": 0.2403251565,
				"element": "C" 
			},
			{
				"x": 1.6341744551,
				"y": 1.0674452622,
				"z": -0.3430099663,
				"element": "N" 
			},
			{
				"x": 1.1589808806,
				"y": 0.5917671365,
				"z": -1.6489120766,
				"element": "C" 
			},
			{
				"x": 0.9841496707,
				"y": -0.9491984319,
				"z": -1.5796439752,
				"element": "C" 
			},
			{
				"x": 0.7268986029,
				"y": -1.4438577057,
				"z": -0.2289845709,
				"element": "N" 
			},
			{
				"x": -0.5896568476,
				"y": -1.0812099578,
				"z": 0.3140471318,
				"element": "C" 
			},
			{
				"x": -0.9840683512,
				"y": -1.9234947802,
				"z": 1.513803394,
				"element": "C" 
			},
			{
				"x": -0.7427576318,
				"y": -3.3044745746,
				"z": 1.535991967,
				"element": "C" 
			},
			{
				"x": -1.1470479206,
				"y": -4.0764565369,
				"z": 2.6245285814,
				"element": "C" 
			},
			{
				"x": -1.8013352036,
				"y": -3.4808290698,
				"z": 3.7063010932,
				"element": "C" 
			},
			{
				"x": -2.043126134,
				"y": -2.1068422774,
				"z": 3.6947205929,
				"element": "C" 
			},
			{
				"x": -1.6315425055,
				"y": -1.3343167367,
				"z": 2.6062518033,
				"element": "C" 
			},
			{
				"x": 1.4456421702,
				"y": -0.9802523489,
				"z": 1.6741520567,
				"element": "H" 
			},
			{
				"x": 3.441161333,
				"y": -0.1002049281,
				"z": -0.4452357268,
				"element": "H" 
			},
			{
				"x": 3.0686598383,
				"y": 0.6297254369,
				"z": 1.1211524974,
				"element": "H" 
			},
			{
				"x": 2.0011716746,
				"y": 2.0105841539,
				"z": -0.4109416464,
				"element": "H" 
			},
			{
				"x": 0.2044346252,
				"y": 1.0840454711,
				"z": -1.8682983526,
				"element": "H" 
			},
			{
				"x": 1.8483842755,
				"y": 0.8318330066,
				"z": -2.4780810421,
				"element": "H" 
			},
			{
				"x": 1.8932329732,
				"y": -1.4432460002,
				"z": -1.9416091919,
				"element": "H" 
			},
			{
				"x": 0.1719122117,
				"y": -1.272077546,
				"z": -2.2377211469,
				"element": "H" 
			},
			{
				"x": -1.3105991874,
				"y": -1.2544076631,
				"z": -0.4963606071,
				"element": "H" 
			},
			{
				"x": -0.655775549,
				"y": -0.0141335456,
				"z": 0.5765322828,
				"element": "H" 
			},
			{
				"x": -0.2227756195,
				"y": -3.7610619739,
				"z": 0.6994815661,
				"element": "H" 
			},
			{
				"x": -0.9492685395,
				"y": -5.1447069542,
				"z": 2.6300858261,
				"element": "H" 
			},
			{
				"x": -2.114402558,
				"y": -4.0834413989,
				"z": 4.5541949406,
				"element": "H" 
			},
			{
				"x": -2.5440581913,
				"y": -1.633545591,
				"z": 4.5346641729,
				"element": "H" 
			},
			{
				"x": -1.8155234972,
				"y": -0.2622895984,
				"z": 2.6038999297,
				"element": "H" 
			}
		],
		 "valence_orbital": [ 
			{
				"type": "occ",
				"energy": -0.31551,
				"method": "rhf"
			},
			{
				"type": "occ",
				"energy": -0.24765,
				"method": "rhf"
			},
			{
				"type": "occ",
				"energy": -0.24454,
				"method": "rhf"
			},
			{
				"type": "occ",
				"energy": -0.23828,
				"method": "rhf"
			},
			{
				"type": "occ",
				"energy": -0.22083,
				"method": "rhf"
			},
			{
				"type": "unocc",
				"energy": -0.0049,
				"method": "rhf"
			},
			{
				"type": "unocc",
				"energy": 0.00049,
				"method": "rhf"
			},
			{
				"type": "unocc",
				"energy": 0.03321,
				"method": "rhf"
			},
			{
				"type": "unocc",
				"energy": 0.0458,
				"method": "rhf"
			},
			{
				"type": "unocc",
				"energy": 0.0686,
				"method": "rhf"
			}
		],
		"cosmo_sigma_profile": { 
			"-0.025": 0.0,
			"-0.024": 0.0,
			"-0.023": 0.0,
			"-0.022": 0.0,
			"-0.021": 0.0,
			"-0.02": 0.0,
			"-0.019": 0.0,
			"-0.018": 0.0,
			"-0.017": 0.0,
			"-0.016": 0.0,
			"-0.015": 0.0,
			"-0.014": 0.0,
			"-0.013": 0.0,
			"-0.012": 0.0217086061923,
			"-0.011": 0.944418817645,
			"-0.01": 1.46412654724,
			"-0.009": 1.12393810196,
			"-0.008": 2.37678567029,
			"-0.007": 3.49636901101,
			"-0.006": 8.80094088657,
			"-0.005": 21.6606278079,
			"-0.004": 23.8140158687,
			"-0.003": 32.9698591415,
			"-0.002": 29.3097614664,
			"-0.001": 21.0781043726,
			"0.0": 11.8488495376,
			"0.001": 11.4090507454,
			"0.002": 10.4896176056,
			"0.003": 11.4432332263,
			"0.004": 12.210359813,
			"0.005": 11.2669809611,
			"0.006": 11.8539637908,
			"0.007": 5.12479401761,
			"0.008": 4.4232418971,
			"0.009": 4.92792995422,
			"0.01": 3.75421647448,
			"0.011": 3.40231869885,
			"0.012": 3.14248161648,
			"0.013": 2.71528790769,
			"0.014": 0.426180584936,
			"0.015": 0.0,
			"0.016": 0.0,
			"0.017": 0.0,
			"0.018": 0.0,
			"0.019": 0.0,
			"0.02": 0.0,
			"0.021": 0.0,
			"0.022": 0.0,
			"0.023": 0.0,
			"0.024": 0.0,
			"0.025": 0.0
		}
	}
}
