{
	 "smiles": "NC1=NN=C(O1)C1=CC2=C(CCCC2)S1", 
	 "Tm": 540.15, 
	 "num_atms": 26, 
	 "gaussian": { 
		 "optdone": 1, 
		 "sigma_profile": "yes", 
		 "theory": "DFT", 
		 "functional": "B3LYP", 
		 "basiset": "6-31G**", 
		 "properties": { 
			 "R2extent": 4700.358, 
			 "electric_dipole_moment_norm": 3.66657484037, 
			 "electric_quadrupole_moment_norm": 21.0263911782, 
			 "total_energy": -1025.33890014, 
			 "HOMO_LUMO_gap": 0.1602, 
			 "cosmo_polarized_energy": -15.81, 
			 "cosmo_cavitation_energy": 30.98, 
			 "cosmo_dispersion_energy": -23.78, 
			 "cosmo_repulsion_energy": 1.83, 
			 "cosmo_total_nonelectrostatic_energy": 9.03, 
			 "SMD_solvation_energy": 2.49 
		},
		"coords": [
			{
				"x": -0.0266912974,
				"y": -4.0088644426,
				"z": 2.6511171592,
				"element": "N" 
			},
			{
				"x": -0.1550743703,
				"y": -3.2979765971,
				"z": 1.4889506297,
				"element": "C" 
			},
			{
				"x": -0.1923073575,
				"y": -3.739242869,
				"z": 0.2665945474,
				"element": "N" 
			},
			{
				"x": -0.2381000581,
				"y": -2.5993013544,
				"z": -0.543712571,
				"element": "N" 
			},
			{
				"x": -0.2395039361,
				"y": -1.5707440109,
				"z": 0.2476041735,
				"element": "C" 
			},
			{
				"x": -0.1836427815,
				"y": -1.9426497667,
				"z": 1.578863815,
				"element": "O" 
			},
			{
				"x": -0.2953638947,
				"y": -0.1686503018,
				"z": -0.0799783718,
				"element": "C" 
			},
			{
				"x": -0.3685713038,
				"y": 0.3818172921,
				"z": -1.3376145956,
				"element": "C" 
			},
			{
				"x": -0.4096536927,
				"y": 1.8071200834,
				"z": -1.327655216,
				"element": "C" 
			},
			{
				"x": -0.3640052347,
				"y": 2.3294469219,
				"z": -0.0557944199,
				"element": "C" 
			},
			{
				"x": -0.4056436534,
				"y": 3.7936310715,
				"z": 0.2874260756,
				"element": "C" 
			},
			{
				"x": -0.1035840949,
				"y": 4.6391601543,
				"z": -0.9648498197,
				"element": "C" 
			},
			{
				"x": -0.8845008537,
				"y": 4.129992714,
				"z": -2.185706671,
				"element": "C" 
			},
			{
				"x": -0.4796671875,
				"y": 2.6911728065,
				"z": -2.5511602235,
				"element": "C" 
			},
			{
				"x": -0.2729257807,
				"y": 1.0746988967,
				"z": 1.1517530293,
				"element": "S" 
			},
			{
				"x": -0.4719029255,
				"y": -3.6005916912,
				"z": 3.4615671175,
				"element": "H" 
			},
			{
				"x": -0.2099486334,
				"y": -4.9956135539,
				"z": 2.5319164838,
				"element": "H" 
			},
			{
				"x": -0.392965596,
				"y": -0.2280509414,
				"z": -2.2335846497,
				"element": "H" 
			},
			{
				"x": -1.3991458278,
				"y": 4.0559634814,
				"z": 0.6794660926,
				"element": "H" 
			},
			{
				"x": 0.3085763806,
				"y": 4.0286843577,
				"z": 1.0857549043,
				"element": "H" 
			},
			{
				"x": -0.3461250655,
				"y": 5.6884181795,
				"z": -0.7638412848,
				"element": "H" 
			},
			{
				"x": 0.9721368833,
				"y": 4.5965717722,
				"z": -1.1792464181,
				"element": "H" 
			},
			{
				"x": -0.7216667535,
				"y": 4.790903146,
				"z": -3.0440769773,
				"element": "H" 
			},
			{
				"x": -1.9593758852,
				"y": 4.1604263859,
				"z": -1.962958684,
				"element": "H" 
			},
			{
				"x": -1.1846234683,
				"y": 2.2708018841,
				"z": -3.2785161827,
				"element": "H" 
			},
			{
				"x": 0.5001763884,
				"y": 2.6989763817,
				"z": -3.0501179428,
				"element": "H" 
			}
		],
		 "valence_orbital": [ 
			{
				"type": "occ",
				"energy": -0.30975,
				"method": "rhf"
			},
			{
				"type": "occ",
				"energy": -0.2662,
				"method": "rhf"
			},
			{
				"type": "occ",
				"energy": -0.26033,
				"method": "rhf"
			},
			{
				"type": "occ",
				"energy": -0.24561,
				"method": "rhf"
			},
			{
				"type": "occ",
				"energy": -0.20223,
				"method": "rhf"
			},
			{
				"type": "unocc",
				"energy": -0.04203,
				"method": "rhf"
			},
			{
				"type": "unocc",
				"energy": 0.02353,
				"method": "rhf"
			},
			{
				"type": "unocc",
				"energy": 0.03572,
				"method": "rhf"
			},
			{
				"type": "unocc",
				"energy": 0.04835,
				"method": "rhf"
			},
			{
				"type": "unocc",
				"energy": 0.06717,
				"method": "rhf"
			}
		],
		"cosmo_sigma_profile": { 
			"-0.025": 0.0,
			"-0.024": 0.0,
			"-0.023": 0.0,
			"-0.022": 0.0,
			"-0.021": 0.0,
			"-0.02": 0.0,
			"-0.019": 0.0,
			"-0.018": 0.0,
			"-0.017": 0.0,
			"-0.016": 0.134531246799,
			"-0.015": 2.3003169837,
			"-0.014": 2.77942732936,
			"-0.013": 2.4452279246,
			"-0.012": 2.14626649429,
			"-0.011": 2.40167017774,
			"-0.01": 2.36633463838,
			"-0.009": 1.63683749807,
			"-0.008": 1.32756537897,
			"-0.007": 2.83184275998,
			"-0.006": 3.31048279998,
			"-0.005": 5.25960793013,
			"-0.004": 13.6239012659,
			"-0.003": 25.3802103951,
			"-0.002": 31.5650151764,
			"-0.001": 29.1404581352,
			"0.0": 20.9691067495,
			"0.001": 14.4099014764,
			"0.002": 17.9238895949,
			"0.003": 18.0346273325,
			"0.004": 14.5265512553,
			"0.005": 4.1525387734,
			"0.006": 3.82462339796,
			"0.007": 1.55575409842,
			"0.008": 1.91790109421,
			"0.009": 2.93125119358,
			"0.01": 3.20009154134,
			"0.011": 2.39798761895,
			"0.012": 3.07715254919,
			"0.013": 3.63655923092,
			"0.014": 2.77541235406,
			"0.015": 2.55252257611,
			"0.016": 0.836912880449,
			"0.017": 0.0522086311394,
			"0.018": 0.0,
			"0.019": 0.0,
			"0.02": 0.0,
			"0.021": 0.0,
			"0.022": 0.0,
			"0.023": 0.0,
			"0.024": 0.0,
			"0.025": 0.0
		}
	}
}
