{
	 "smiles": "CCN(CC)S(=O)(=O)C1=CC(C(O)=O)=C(Cl)C=C1", 
	 "Tm": 396.15, 
	 "num_atms": 32, 
	 "gaussian": { 
		 "optdone": 1, 
		 "sigma_profile": "yes", 
		 "theory": "DFT", 
		 "functional": "B3LYP", 
		 "basiset": "6-31G**", 
		 "properties": { 
			 "R2extent": 6657.5252, 
			 "electric_dipole_moment_norm": 5.2797019556, 
			 "electric_quadrupole_moment_norm": 27.597775814, 
			 "total_energy": -1641.57214142, 
			 "HOMO_LUMO_gap": 0.1806, 
			 "cosmo_polarized_energy": -19.27, 
			 "cosmo_cavitation_energy": 38.02, 
			 "cosmo_dispersion_energy": -26.87, 
			 "cosmo_repulsion_energy": 2.03, 
			 "cosmo_total_nonelectrostatic_energy": 13.18, 
			 "SMD_solvation_energy": 6.32 
		},
		"coords": [
			{
				"x": -0.3062693562,
				"y": -4.3514065333,
				"z": -0.0171036042,
				"element": "C" 
			},
			{
				"x": -0.406329067,
				"y": -2.8663648156,
				"z": -0.3669414596,
				"element": "C" 
			},
			{
				"x": 0.922819392,
				"y": -2.2481605096,
				"z": -0.5327780522,
				"element": "N" 
			},
			{
				"x": 1.7750966377,
				"y": -2.0928988734,
				"z": 0.6666088482,
				"element": "C" 
			},
			{
				"x": 3.0243289282,
				"y": -2.9722870701,
				"z": 0.6315369042,
				"element": "C" 
			},
			{
				"x": 1.1531452895,
				"y": -1.1601938386,
				"z": -1.7789533728,
				"element": "S" 
			},
			{
				"x": 2.5967989483,
				"y": -0.9292801535,
				"z": -1.8737595371,
				"element": "O" 
			},
			{
				"x": 0.3562718546,
				"y": -1.6226116802,
				"z": -2.9150912345,
				"element": "O" 
			},
			{
				"x": 0.4377799276,
				"y": 0.4096749358,
				"z": -1.2389883814,
				"element": "C" 
			},
			{
				"x": -0.9393708552,
				"y": 0.5948231666,
				"z": -1.2864304094,
				"element": "C" 
			},
			{
				"x": -1.5330794632,
				"y": 1.791556372,
				"z": -0.8531270298,
				"element": "C" 
			},
			{
				"x": -3.0490228859,
				"y": 1.804634459,
				"z": -0.9634809955,
				"element": "C" 
			},
			{
				"x": -3.7093660435,
				"y": 2.9700741491,
				"z": -0.870119315,
				"element": "O" 
			},
			{
				"x": -3.656667162,
				"y": 0.7766881692,
				"z": -1.1564681195,
				"element": "O" 
			},
			{
				"x": -0.6708262124,
				"y": 2.7935048061,
				"z": -0.371032583,
				"element": "C" 
			},
			{
				"x": -1.2604640048,
				"y": 4.3491611448,
				"z": 0.2298908121,
				"element": "Cl" 
			},
			{
				"x": 0.7129011198,
				"y": 2.6164022872,
				"z": -0.3271140317,
				"element": "C" 
			},
			{
				"x": 1.275343006,
				"y": 1.4213227232,
				"z": -0.7649021148,
				"element": "C" 
			},
			{
				"x": 0.2121535252,
				"y": -4.515698297,
				"z": 0.9327281408,
				"element": "H" 
			},
			{
				"x": -1.3116973568,
				"y": -4.7740657551,
				"z": 0.0774043847,
				"element": "H" 
			},
			{
				"x": 0.2282071271,
				"y": -4.8946514729,
				"z": -0.8009692088,
				"element": "H" 
			},
			{
				"x": -0.9371982274,
				"y": -2.7569613634,
				"z": -1.3134920472,
				"element": "H" 
			},
			{
				"x": -0.9767911552,
				"y": -2.330021245,
				"z": 0.4064293417,
				"element": "H" 
			},
			{
				"x": 2.0625970392,
				"y": -1.0420602107,
				"z": 0.7866594812,
				"element": "H" 
			},
			{
				"x": 1.1511517486,
				"y": -2.3395536827,
				"z": 1.5324830229,
				"element": "H" 
			},
			{
				"x": 3.6061522114,
				"y": -2.8367064461,
				"z": 1.5500564807,
				"element": "H" 
			},
			{
				"x": 3.6491612256,
				"y": -2.7027698177,
				"z": -0.222285869,
				"element": "H" 
			},
			{
				"x": 2.7576958398,
				"y": -4.0294291085,
				"z": 0.5456507895,
				"element": "H" 
			},
			{
				"x": -1.5978738362,
				"y": -0.1742353338,
				"z": -1.6726196295,
				"element": "H" 
			},
			{
				"x": -3.1092435863,
				"y": 3.7147645944,
				"z": -0.7036402088,
				"element": "H" 
			},
			{
				"x": 1.34133276,
				"y": 3.4172779735,
				"z": 0.0455675403,
				"element": "H" 
			},
			{
				"x": 2.3498626317,
				"y": 1.2767714263,
				"z": -0.7624185424,
				"element": "H" 
			}
		],
		 "valence_orbital": [ 
			{
				"type": "occ",
				"energy": -0.30906,
				"method": "rhf"
			},
			{
				"type": "occ",
				"energy": -0.29809,
				"method": "rhf"
			},
			{
				"type": "occ",
				"energy": -0.29116,
				"method": "rhf"
			},
			{
				"type": "occ",
				"energy": -0.28693,
				"method": "rhf"
			},
			{
				"type": "occ",
				"energy": -0.25857,
				"method": "rhf"
			},
			{
				"type": "unocc",
				"energy": -0.07797,
				"method": "rhf"
			},
			{
				"type": "unocc",
				"energy": -0.05828,
				"method": "rhf"
			},
			{
				"type": "unocc",
				"energy": -0.01323,
				"method": "rhf"
			},
			{
				"type": "unocc",
				"energy": 0.02138,
				"method": "rhf"
			},
			{
				"type": "unocc",
				"energy": 0.05319,
				"method": "rhf"
			}
		],
		"cosmo_sigma_profile": { 
			"-0.025": 0.0,
			"-0.024": 0.0,
			"-0.023": 0.0,
			"-0.022": 0.0,
			"-0.021": 0.0,
			"-0.02": 0.0,
			"-0.019": 0.0,
			"-0.018": 0.0,
			"-0.017": 0.0,
			"-0.016": 0.0,
			"-0.015": 0.0,
			"-0.014": 0.120571186327,
			"-0.013": 0.679699776997,
			"-0.012": 1.58510155008,
			"-0.011": 1.17574262623,
			"-0.01": 1.32346337363,
			"-0.009": 3.02949882568,
			"-0.008": 4.86594325685,
			"-0.007": 5.59654980232,
			"-0.006": 10.9146566037,
			"-0.005": 16.7097137995,
			"-0.004": 29.129852815,
			"-0.003": 34.0228139345,
			"-0.002": 30.9416692654,
			"-0.001": 31.2754757629,
			"0.0": 28.6297973918,
			"0.001": 18.4276406338,
			"0.002": 11.3557061181,
			"0.003": 6.33920578337,
			"0.004": 7.59158261348,
			"0.005": 6.43846740698,
			"0.006": 5.80255413902,
			"0.007": 6.36673527875,
			"0.008": 6.65859982913,
			"0.009": 7.19078622276,
			"0.01": 11.5152317887,
			"0.011": 11.5350252395,
			"0.012": 4.2209614492,
			"0.013": 0.471344511251,
			"0.014": 0.0,
			"0.015": 0.0,
			"0.016": 0.0,
			"0.017": 0.0,
			"0.018": 0.0,
			"0.019": 0.0,
			"0.02": 0.0,
			"0.021": 0.0,
			"0.022": 0.0,
			"0.023": 0.0,
			"0.024": 0.0,
			"0.0": 0.0
		}
	}
}
