{
	 "smiles": "COC1=C(NCCCC(O)=O)C=C(C)C=C1", 
	 "Tm": 373.15, 
	 "num_atms": 33, 
	 "gaussian": { 
		 "optdone": 1, 
		 "sigma_profile": "yes", 
		 "theory": "DFT", 
		 "functional": "B3LYP", 
		 "basiset": "6-31G**", 
		 "properties": { 
			 "R2extent": 5873.3326, 
			 "electric_dipole_moment_norm": 1.69697759856, 
			 "electric_quadrupole_moment_norm": 14.5378954237, 
			 "total_energy": -747.957559976, 
			 "HOMO_LUMO_gap": 0.19622, 
			 "cosmo_polarized_energy": -14.22, 
			 "cosmo_cavitation_energy": 36.62, 
			 "cosmo_dispersion_energy": -25.56, 
			 "cosmo_repulsion_energy": 2.06, 
			 "cosmo_total_nonelectrostatic_energy": 13.12, 
			 "SMD_solvation_energy": 7.2 
		},
		"coords": [
			{
				"x": 3.3016059304,
				"y": -2.4461803948,
				"z": 0.1629027706,
				"element": "C" 
			},
			{
				"x": 2.341422295,
				"y": -2.5084887302,
				"z": 1.2202711205,
				"element": "O" 
			},
			{
				"x": 1.7523778767,
				"y": -1.2852072873,
				"z": 1.5171230289,
				"element": "C" 
			},
			{
				"x": 0.4806421591,
				"y": -1.0127620834,
				"z": 0.9572197098,
				"element": "C" 
			},
			{
				"x": -0.0722634523,
				"y": -1.9655935939,
				"z": 0.1123995844,
				"element": "N" 
			},
			{
				"x": -1.478531797,
				"y": -1.9745871344,
				"z": -0.2544013181,
				"element": "C" 
			},
			{
				"x": -1.7721957462,
				"y": -1.1776445874,
				"z": -1.5349196794,
				"element": "C" 
			},
			{
				"x": -3.258185281,
				"y": -1.1971567188,
				"z": -1.8930805661,
				"element": "C" 
			},
			{
				"x": -3.5792544558,
				"y": -0.4030730446,
				"z": -3.1405022908,
				"element": "C" 
			},
			{
				"x": -4.896530472,
				"y": -0.4865401753,
				"z": -3.4548223779,
				"element": "O" 
			},
			{
				"x": -2.7930960061,
				"y": 0.2399169683,
				"z": -3.8001043802,
				"element": "O" 
			},
			{
				"x": -0.1346172205,
				"y": 0.2038239348,
				"z": 1.2864480483,
				"element": "C" 
			},
			{
				"x": 0.4810258602,
				"y": 1.1301296266,
				"z": 2.1424855294,
				"element": "C" 
			},
			{
				"x": -0.2161376402,
				"y": 2.4323861452,
				"z": 2.4649014839,
				"element": "C" 
			},
			{
				"x": 1.7323532456,
				"y": 0.8298999931,
				"z": 2.685531946,
				"element": "C" 
			},
			{
				"x": 2.3622156277,
				"y": -0.3794378911,
				"z": 2.370161569,
				"element": "C" 
			},
			{
				"x": 4.1371281448,
				"y": -1.785080497,
				"z": 0.4242202123,
				"element": "H" 
			},
			{
				"x": 2.8457482504,
				"y": -2.0900641567,
				"z": -0.7696914312,
				"element": "H" 
			},
			{
				"x": 3.6781917221,
				"y": -3.4619556406,
				"z": 0.0198792737,
				"element": "H" 
			},
			{
				"x": 0.3716301644,
				"y": -2.8670139781,
				"z": 0.2170824568,
				"element": "H" 
			},
			{
				"x": -1.7761945311,
				"y": -3.0189383517,
				"z": -0.4054221367,
				"element": "H" 
			},
			{
				"x": -2.0975176022,
				"y": -1.5941034975,
				"z": 0.573744789,
				"element": "H" 
			},
			{
				"x": -1.183610737,
				"y": -1.5928443971,
				"z": -2.3594304704,
				"element": "H" 
			},
			{
				"x": -1.4363988856,
				"y": -0.1425641979,
				"z": -1.4181997744,
				"element": "H" 
			},
			{
				"x": -3.623726151,
				"y": -2.2209098565,
				"z": -2.0470276881,
				"element": "H" 
			},
			{
				"x": -3.8725139074,
				"y": -0.7907586574,
				"z": -1.0783090657,
				"element": "H" 
			},
			{
				"x": -5.0156853956,
				"y": 0.0503446911,
				"z": -4.256262298,
				"element": "H" 
			},
			{
				"x": -1.1064104817,
				"y": 0.444699809,
				"z": 0.8665066696,
				"element": "H" 
			},
			{
				"x": -0.3860403951,
				"y": 3.030094953,
				"z": 1.561468535,
				"element": "H" 
			},
			{
				"x": -1.1967243318,
				"y": 2.2597979362,
				"z": 2.9239946905,
				"element": "H" 
			},
			{
				"x": 0.3735993416,
				"y": 3.0382516918,
				"z": 3.158275922,
				"element": "H" 
			},
			{
				"x": 2.217910131,
				"y": 1.5346475521,
				"z": 3.3542779811,
				"element": "H" 
			},
			{
				"x": 3.3283837406,
				"y": -0.6343884293,
				"z": 2.796278156,
				"element": "H" 
			}
		],
		 "valence_orbital": [ 
			{
				"type": "occ",
				"energy": -0.28469,
				"method": "rhf"
			},
			{
				"type": "occ",
				"energy": -0.27684,
				"method": "rhf"
			},
			{
				"type": "occ",
				"energy": -0.2694,
				"method": "rhf"
			},
			{
				"type": "occ",
				"energy": -0.22641,
				"method": "rhf"
			},
			{
				"type": "occ",
				"energy": -0.18727,
				"method": "rhf"
			},
			{
				"type": "unocc",
				"energy": 0.00895,
				"method": "rhf"
			},
			{
				"type": "unocc",
				"energy": 0.00979,
				"method": "rhf"
			},
			{
				"type": "unocc",
				"energy": 0.0273,
				"method": "rhf"
			},
			{
				"type": "unocc",
				"energy": 0.07619,
				"method": "rhf"
			},
			{
				"type": "unocc",
				"energy": 0.0814,
				"method": "rhf"
			}
		],
		"cosmo_sigma_profile": { 
			"-0.025": 0.0,
			"-0.024": 0.0,
			"-0.023": 0.0,
			"-0.022": 0.0,
			"-0.021": 0.0,
			"-0.02": 0.0,
			"-0.019": 0.0,
			"-0.018": 0.50975458097,
			"-0.017": 1.06065862515,
			"-0.016": 0.6292426037,
			"-0.015": 0.798527391265,
			"-0.014": 0.730695755413,
			"-0.013": 0.697880191717,
			"-0.012": 0.917922456429,
			"-0.011": 0.546596040655,
			"-0.01": 1.95908661631,
			"-0.009": 1.01752062081,
			"-0.008": 1.47159994739,
			"-0.007": 1.97386321393,
			"-0.006": 8.01281263955,
			"-0.005": 18.6893368985,
			"-0.004": 27.4381742619,
			"-0.003": 34.4173438248,
			"-0.002": 31.7911886489,
			"-0.001": 24.5223277173,
			"0.0": 20.8631379718,
			"0.001": 15.5374000071,
			"0.002": 11.2847682722,
			"0.003": 11.7150485666,
			"0.004": 10.3963663201,
			"0.005": 11.8908758464,
			"0.006": 11.731503152,
			"0.007": 11.5001562801,
			"0.008": 4.90664328008,
			"0.009": 4.92415723065,
			"0.01": 3.58350252844,
			"0.011": 4.71328536017,
			"0.012": 5.67222434425,
			"0.013": 1.25507005755,
			"0.014": 0.0,
			"0.015": 0.0,
			"0.016": 0.0,
			"0.017": 0.0,
			"0.018": 0.0,
			"0.019": 0.0,
			"0.02": 0.0,
			"0.021": 0.0,
			"0.022": 0.0,
			"0.023": 0.0,
			"0.024": 0.0,
			"0.025": 0.0
		}
	}
}
