{
	 "smiles": "CCCC=O", 
	 "Tm": 175.65, 
	 "num_atms": 13, 
	 "gaussian": { 
		 "optdone": 1, 
		 "sigma_profile": "yes", 
		 "theory": "DFT", 
		 "functional": "B3LYP", 
		 "basiset": "6-31G**", 
		 "properties": { 
			 "R2extent": 650.5191, 
			 "electric_dipole_moment_norm": 2.75916579241, 
			 "electric_quadrupole_moment_norm": 7.49060184631, 
			 "total_energy": -232.463671041, 
			 "HOMO_LUMO_gap": 0.22715, 
			 "cosmo_polarized_energy": -5.86, 
			 "cosmo_cavitation_energy": 16.04, 
			 "cosmo_dispersion_energy": -11.66, 
			 "cosmo_repulsion_energy": 1.06, 
			 "cosmo_total_nonelectrostatic_energy": 5.44, 
			 "SMD_solvation_energy": 3.87 
		},
		"coords": [
			{
				"x": -0.1664601154,
				"y": -1.188842192,
				"z": 0.9311993768,
				"element": "C" 
			},
			{
				"x": 0.1358729731,
				"y": 0.3105687635,
				"z": 0.8369387154,
				"element": "C" 
			},
			{
				"x": 0.6403790898,
				"y": 0.7427221104,
				"z": -0.5536742375,
				"element": "C" 
			},
			{
				"x": 2.0065806353,
				"y": 0.1780407487,
				"z": -0.8732073327,
				"element": "C" 
			},
			{
				"x": 2.2926665282,
				"y": -0.4317639351,
				"z": -1.8794619706,
				"element": "O" 
			},
			{
				"x": -0.9364358236,
				"y": -1.4810869529,
				"z": 0.2088863761,
				"element": "H" 
			},
			{
				"x": -0.5248812986,
				"y": -1.4565549752,
				"z": 1.9300730453,
				"element": "H" 
			},
			{
				"x": 0.7230973613,
				"y": -1.7937667037,
				"z": 0.7234403672,
				"element": "H" 
			},
			{
				"x": -0.7651046098,
				"y": 0.8863848055,
				"z": 1.0768235778,
				"element": "H" 
			},
			{
				"x": 0.8832168106,
				"y": 0.5875967983,
				"z": 1.5928284952,
				"element": "H" 
			},
			{
				"x": -0.0527345996,
				"y": 0.4465230193,
				"z": -1.3476634096,
				"element": "H" 
			},
			{
				"x": 0.734132579,
				"y": 1.8387450767,
				"z": -0.5780100389,
				"element": "H" 
			},
			{
				"x": 2.7763704696,
				"y": 0.3697334365,
				"z": -0.0868729646,
				"element": "H" 
			}
		],
		 "valence_orbital": [ 
			{
				"type": "occ",
				"energy": -0.38409,
				"method": "rhf"
			},
			{
				"type": "occ",
				"energy": -0.35631,
				"method": "rhf"
			},
			{
				"type": "occ",
				"energy": -0.34687,
				"method": "rhf"
			},
			{
				"type": "occ",
				"energy": -0.34251,
				"method": "rhf"
			},
			{
				"type": "occ",
				"energy": -0.24958,
				"method": "rhf"
			},
			{
				"type": "unocc",
				"energy": -0.02243,
				"method": "rhf"
			},
			{
				"type": "unocc",
				"energy": 0.09325,
				"method": "rhf"
			},
			{
				"type": "unocc",
				"energy": 0.11862,
				"method": "rhf"
			},
			{
				"type": "unocc",
				"energy": 0.13165,
				"method": "rhf"
			},
			{
				"type": "unocc",
				"energy": 0.1467,
				"method": "rhf"
			}
		],
		"cosmo_sigma_profile": { 
			"-0.025": 0.0,
			"-0.024": 0.0,
			"-0.023": 0.0,
			"-0.022": 0.0,
			"-0.021": 0.0,
			"-0.02": 0.0,
			"-0.019": 0.0,
			"-0.018": 0.0,
			"-0.017": 0.0,
			"-0.016": 0.0,
			"-0.015": 0.0,
			"-0.014": 0.0,
			"-0.013": 0.0,
			"-0.012": 0.0,
			"-0.011": 0.0,
			"-0.01": 0.0,
			"-0.009": 0.0,
			"-0.008": 0.0,
			"-0.007": 0.0455303566816,
			"-0.006": 5.40574794985,
			"-0.005": 9.13521152769,
			"-0.004": 10.6353469396,
			"-0.003": 16.7835322556,
			"-0.002": 16.6832614598,
			"-0.001": 17.4373449776,
			"0.0": 13.6453756532,
			"0.001": 8.85507535759,
			"0.002": 3.01998439254,
			"0.003": 1.57150147609,
			"0.004": 1.5502483796,
			"0.005": 1.24072913399,
			"0.006": 1.71509656761,
			"0.007": 1.12360883779,
			"0.008": 2.23968581031,
			"0.009": 1.79711431034,
			"0.01": 2.50334431444,
			"0.011": 4.59678439203,
			"0.012": 3.7302034309,
			"0.013": 1.27784885676,
			"0.014": 0.0,
			"0.015": 0.0,
			"0.016": 0.0,
			"0.017": 0.0,
			"0.018": 0.0,
			"0.019": 0.0,
			"0.02": 0.0,
			"0.021": 0.0,
			"0.022": 0.0,
			"0.023": 0.0,
			"0.024": 0.0,
			"0.025": 0.0
		}
	}
}
