{
	 "smiles": "CCCCC1=CC=C(C=C1)S(N)(=O)=O", 
	 "Tm": 367.15, 
	 "num_atms": 29, 
	 "gaussian": { 
		 "optdone": 1, 
		 "sigma_profile": "yes", 
		 "theory": "DFT", 
		 "functional": "B3LYP", 
		 "basiset": "6-31G**", 
		 "properties": { 
			 "R2extent": 6050.6216, 
			 "electric_dipole_moment_norm": 4.1801508645, 
			 "electric_quadrupole_moment_norm": 28.3834749247, 
			 "total_energy": -993.437845173, 
			 "HOMO_LUMO_gap": 0.22, 
			 "cosmo_polarized_energy": -14.59, 
			 "cosmo_cavitation_energy": 32.89, 
			 "cosmo_dispersion_energy": -23.67, 
			 "cosmo_repulsion_energy": 1.86, 
			 "cosmo_total_nonelectrostatic_energy": 11.08, 
			 "SMD_solvation_energy": 4.87 
		},
		"coords": [
			{
				"x": 1.7465941074,
				"y": 1.6565188124,
				"z": -1.5766808868,
				"element": "C" 
			},
			{
				"x": 2.2635790436,
				"y": 1.8485206834,
				"z": -0.1454207597,
				"element": "C" 
			},
			{
				"x": 1.2043490808,
				"y": 2.2243251082,
				"z": 0.9063717477,
				"element": "C" 
			},
			{
				"x": 0.2592969898,
				"y": 1.0893504095,
				"z": 1.3660374054,
				"element": "C" 
			},
			{
				"x": -0.811242334,
				"y": 0.6589655487,
				"z": 0.3834044264,
				"element": "C" 
			},
			{
				"x": -0.8590000618,
				"y": -0.6526769249,
				"z": -0.1078120931,
				"element": "C" 
			},
			{
				"x": -1.8553910727,
				"y": -1.058163232,
				"z": -0.9961119032,
				"element": "C" 
			},
			{
				"x": -2.8194212442,
				"y": -0.1351655762,
				"z": -1.3979951362,
				"element": "C" 
			},
			{
				"x": -2.8102435378,
				"y": 1.1742474889,
				"z": -0.9112892828,
				"element": "C" 
			},
			{
				"x": -1.8083875422,
				"y": 1.5598519291,
				"z": -0.0261700665,
				"element": "C" 
			},
			{
				"x": -4.1031992421,
				"y": -0.6414626094,
				"z": -2.5367851122,
				"element": "S" 
			},
			{
				"x": -3.5148789387,
				"y": -0.1332370042,
				"z": -4.0467644849,
				"element": "N" 
			},
			{
				"x": -5.2939290568,
				"y": 0.1728863422,
				"z": -2.2741977183,
				"element": "O" 
			},
			{
				"x": -4.1429219957,
				"y": -2.107841498,
				"z": -2.537832052,
				"element": "O" 
			},
			{
				"x": 1.216913294,
				"y": 2.5500997624,
				"z": -1.9263229668,
				"element": "H" 
			},
			{
				"x": 1.0564928894,
				"y": 0.8132857441,
				"z": -1.6583037117,
				"element": "H" 
			},
			{
				"x": 2.5781313661,
				"y": 1.4741856219,
				"z": -2.2658366854,
				"element": "H" 
			},
			{
				"x": 2.787003536,
				"y": 0.9398714128,
				"z": 0.1835458238,
				"element": "H" 
			},
			{
				"x": 3.0222771263,
				"y": 2.6417490026,
				"z": -0.1535087351,
				"element": "H" 
			},
			{
				"x": 1.7258876647,
				"y": 2.5863388062,
				"z": 1.8012293446,
				"element": "H" 
			},
			{
				"x": 0.6103141953,
				"y": 3.0729070753,
				"z": 0.5411821232,
				"element": "H" 
			},
			{
				"x": -0.2404519039,
				"y": 1.4230915801,
				"z": 2.2852853262,
				"element": "H" 
			},
			{
				"x": 0.8617178287,
				"y": 0.2175420087,
				"z": 1.6485125213,
				"element": "H" 
			},
			{
				"x": -0.1084222318,
				"y": -1.370091747,
				"z": 0.2130652018,
				"element": "H" 
			},
			{
				"x": -1.899749538,
				"y": -2.0783385719,
				"z": -1.3612352461,
				"element": "H" 
			},
			{
				"x": -3.5892385202,
				"y": 1.86778005,
				"z": -1.2088576652,
				"element": "H" 
			},
			{
				"x": -1.8066011976,
				"y": 2.5748600269,
				"z": 0.3622455882,
				"element": "H" 
			},
			{
				"x": -3.2624413459,
				"y": -0.9452094998,
				"z": -4.6044158519,
				"element": "H" 
			},
			{
				"x": -4.2384373588,
				"y": 0.4150092499,
				"z": -4.5051391508,
				"element": "H" 
			}
		],
		 "valence_orbital": [ 
			{
				"type": "occ",
				"energy": -0.31221,
				"method": "rhf"
			},
			{
				"type": "occ",
				"energy": -0.30169,
				"method": "rhf"
			},
			{
				"type": "occ",
				"energy": -0.29315,
				"method": "rhf"
			},
			{
				"type": "occ",
				"energy": -0.26646,
				"method": "rhf"
			},
			{
				"type": "occ",
				"energy": -0.25383,
				"method": "rhf"
			},
			{
				"type": "unocc",
				"energy": -0.03383,
				"method": "rhf"
			},
			{
				"type": "unocc",
				"energy": -0.01807,
				"method": "rhf"
			},
			{
				"type": "unocc",
				"energy": 0.05651,
				"method": "rhf"
			},
			{
				"type": "unocc",
				"energy": 0.07771,
				"method": "rhf"
			},
			{
				"type": "unocc",
				"energy": 0.08868,
				"method": "rhf"
			}
		],
		"cosmo_sigma_profile": { 
			"-0.025": 0.0,
			"-0.024": 0.0,
			"-0.023": 0.0,
			"-0.022": 0.0,
			"-0.021": 0.0,
			"-0.02": 0.0,
			"-0.019": 0.0,
			"-0.018": 0.0,
			"-0.017": 0.0,
			"-0.016": 0.0,
			"-0.015": 0.684024762311,
			"-0.014": 2.34394714386,
			"-0.013": 2.56984065875,
			"-0.012": 2.51252402104,
			"-0.011": 2.52044141579,
			"-0.01": 1.88440040637,
			"-0.009": 1.25872164045,
			"-0.008": 1.82051090587,
			"-0.007": 3.24413817101,
			"-0.006": 9.0689922492,
			"-0.005": 12.3753471466,
			"-0.004": 12.60013765,
			"-0.003": 18.2934134757,
			"-0.002": 25.2831962537,
			"-0.001": 27.3789567869,
			"0.0": 30.4838026366,
			"0.001": 24.3601529827,
			"0.002": 18.4788600087,
			"0.003": 14.0530505086,
			"0.004": 6.99835062503,
			"0.005": 3.75282191934,
			"0.006": 3.54986984938,
			"0.007": 3.22092139791,
			"0.008": 2.83997741558,
			"0.009": 4.3123134666,
			"0.01": 7.49199223627,
			"0.011": 9.67308170679,
			"0.012": 5.15325902236,
			"0.013": 0.173854635581,
			"0.014": 0.0,
			"0.015": 0.0,
			"0.016": 0.0,
			"0.017": 0.0,
			"0.018": 0.0,
			"0.019": 0.0,
			"0.02": 0.0,
			"0.021": 0.0,
			"0.022": 0.0,
			"0.023": 0.0,
			"0.024": 0.0,
			"0.025": 0.0
		}
	}
}
