{
	 "smiles": "O=S(=O)(NCC1CCCO1)C1=CC=C(C=C1)C#N", 
	 "Tm": 397.15, 
	 "num_atms": 32, 
	 "gaussian": { 
		 "optdone": 1, 
		 "sigma_profile": "yes", 
		 "theory": "DFT", 
		 "functional": "B3LYP", 
		 "basiset": "6-31G**", 
		 "properties": { 
			 "R2extent": 7221.0326, 
			 "electric_dipole_moment_norm": 5.03781817258, 
			 "electric_quadrupole_moment_norm": 16.5011237987, 
			 "total_energy": -1198.97642574, 
			 "HOMO_LUMO_gap": 0.17682, 
			 "cosmo_polarized_energy": -19.8, 
			 "cosmo_cavitation_energy": 38.09, 
			 "cosmo_dispersion_energy": -26.36, 
			 "cosmo_repulsion_energy": 2.03, 
			 "cosmo_total_nonelectrostatic_energy": 13.77, 
			 "SMD_solvation_energy": 6.3 
		},
		"coords": [
			{
				"x": -1.7499007631,
				"y": -0.85885166,
				"z": 3.336875378,
				"element": "O" 
			},
			{
				"x": -2.2165694088,
				"y": -1.0192279531,
				"z": 1.9567974391,
				"element": "S" 
			},
			{
				"x": -3.590599198,
				"y": -1.4122423979,
				"z": 1.6327076189,
				"element": "O" 
			},
			{
				"x": -1.129088841,
				"y": -2.09241051,
				"z": 1.2540120474,
				"element": "N" 
			},
			{
				"x": -1.54237935,
				"y": -2.9962153378,
				"z": 0.1680671944,
				"element": "C" 
			},
			{
				"x": -0.853963581,
				"y": -2.6527674327,
				"z": -1.1597359133,
				"element": "C" 
			},
			{
				"x": 0.6591687698,
				"y": -2.962789009,
				"z": -1.1981174782,
				"element": "C" 
			},
			{
				"x": 0.71699239,
				"y": -4.3165568305,
				"z": -1.9255329863,
				"element": "C" 
			},
			{
				"x": -0.4606792303,
				"y": -4.1844646811,
				"z": -2.8920962247,
				"element": "C" 
			},
			{
				"x": -1.4646200746,
				"y": -3.4713165751,
				"z": -2.1668817961,
				"element": "O" 
			},
			{
				"x": -1.9082396498,
				"y": 0.5299805326,
				"z": 1.0927720011,
				"element": "C" 
			},
			{
				"x": -0.8507683841,
				"y": 1.3417474698,
				"z": 1.509794413,
				"element": "C" 
			},
			{
				"x": -0.6071423942,
				"y": 2.5366470775,
				"z": 0.8417023948,
				"element": "C" 
			},
			{
				"x": -1.4245262959,
				"y": 2.9134826867,
				"z": -0.2389870112,
				"element": "C" 
			},
			{
				"x": -2.4930372005,
				"y": 2.0938475868,
				"z": -0.6386542279,
				"element": "C" 
			},
			{
				"x": -2.7381419404,
				"y": 0.8987729151,
				"z": 0.0328951941,
				"element": "C" 
			},
			{
				"x": -1.1694795287,
				"y": 4.1440640512,
				"z": -0.9313055527,
				"element": "C" 
			},
			{
				"x": -0.9597384401,
				"y": 5.1399946542,
				"z": -1.4939638215,
				"element": "N" 
			},
			{
				"x": -0.5724233319,
				"y": -2.500394198,
				"z": 1.9968157119,
				"element": "H" 
			},
			{
				"x": -1.3048530744,
				"y": -4.0265654868,
				"z": 0.4542713697,
				"element": "H" 
			},
			{
				"x": -2.6265415224,
				"y": -2.9451851754,
				"z": 0.0372991805,
				"element": "H" 
			},
			{
				"x": -1.0434352201,
				"y": -1.5941875289,
				"z": -1.3857699559,
				"element": "H" 
			},
			{
				"x": 1.1877188752,
				"y": -2.1988019403,
				"z": -1.7773677464,
				"element": "H" 
			},
			{
				"x": 1.1062182894,
				"y": -2.9811308871,
				"z": -0.2000715305,
				"element": "H" 
			},
			{
				"x": 1.6706224461,
				"y": -4.4951559582,
				"z": -2.4298324299,
				"element": "H" 
			},
			{
				"x": 0.5420935565,
				"y": -5.1439094939,
				"z": -1.2287304181,
				"element": "H" 
			},
			{
				"x": -0.1668189061,
				"y": -3.6231292467,
				"z": -3.7933709238,
				"element": "H" 
			},
			{
				"x": -0.8881567872,
				"y": -5.1406114155,
				"z": -3.2087945234,
				"element": "H" 
			},
			{
				"x": -0.2418775175,
				"y": 1.0449405087,
				"z": 2.356438266,
				"element": "H" 
			},
			{
				"x": 0.2063901331,
				"y": 3.1838216534,
				"z": 1.1508760418,
				"element": "H" 
			},
			{
				"x": -3.1260960854,
				"y": 2.3996654906,
				"z": -1.4644374008,
				"element": "H" 
			},
			{
				"x": -3.5715277347,
				"y": 0.2636490912,
				"z": -0.2454743101,
				"element": "H" 
			}
		],
		 "valence_orbital": [ 
			{
				"type": "occ",
				"energy": -0.31469,
				"method": "rhf"
			},
			{
				"type": "occ",
				"energy": -0.3001,
				"method": "rhf"
			},
			{
				"type": "occ",
				"energy": -0.29372,
				"method": "rhf"
			},
			{
				"type": "occ",
				"energy": -0.27653,
				"method": "rhf"
			},
			{
				"type": "occ",
				"energy": -0.25535,
				"method": "rhf"
			},
			{
				"type": "unocc",
				"energy": -0.07853,
				"method": "rhf"
			},
			{
				"type": "unocc",
				"energy": -0.04301,
				"method": "rhf"
			},
			{
				"type": "unocc",
				"energy": 0.02406,
				"method": "rhf"
			},
			{
				"type": "unocc",
				"energy": 0.03625,
				"method": "rhf"
			},
			{
				"type": "unocc",
				"energy": 0.04407,
				"method": "rhf"
			}
		],
		"cosmo_sigma_profile": { 
			"-0.025": 0.0,
			"-0.024": 0.0,
			"-0.023": 0.0,
			"-0.022": 0.0,
			"-0.021": 0.0,
			"-0.02": 0.0,
			"-0.019": 0.0,
			"-0.018": 0.0,
			"-0.017": 0.0,
			"-0.016": 0.0,
			"-0.015": 0.459473684798,
			"-0.014": 1.05764549698,
			"-0.013": 0.96823978633,
			"-0.012": 1.20931138069,
			"-0.011": 1.01943810618,
			"-0.01": 1.33257755877,
			"-0.009": 4.81870832654,
			"-0.008": 9.03540859927,
			"-0.007": 11.5177785404,
			"-0.006": 9.66083746095,
			"-0.005": 12.9324148024,
			"-0.004": 19.7498606757,
			"-0.003": 33.936024603,
			"-0.002": 35.8925730022,
			"-0.001": 26.1059145163,
			"0.0": 29.7466215592,
			"0.001": 13.8069406035,
			"0.002": 8.40672073983,
			"0.003": 7.44821286852,
			"0.004": 6.89581704916,
			"0.005": 6.73276337186,
			"0.006": 6.58950937181,
			"0.007": 8.04124972327,
			"0.008": 7.18919224738,
			"0.009": 8.50115686497,
			"0.01": 11.9116361006,
			"0.011": 10.9999550469,
			"0.012": 4.02329198157,
			"0.013": 2.21204186028,
			"0.014": 0.767439330564,
			"0.015": 0.00708885808606,
			"0.016": 0.0,
			"0.017": 0.0,
			"0.018": 0.0,
			"0.019": 0.0,
			"0.02": 0.0,
			"0.021": 0.0,
			"0.022": 0.0,
			"0.023": 0.0,
			"0.024": 0.0,
			"0.025": 0.0
		}
	}
}
