{
	 "smiles": "NC(C(O)=O)C1=CC=CC=C1", 
	 "Tm": 575.15, 
	 "num_atms": 20, 
	 "gaussian": { 
		 "optdone": 1, 
		 "sigma_profile": "yes", 
		 "theory": "DFT", 
		 "functional": "B3LYP", 
		 "basiset": "6-31G**", 
		 "properties": { 
			 "R2extent": 2815.6119, 
			 "electric_dipole_moment_norm": 5.33902779259, 
			 "electric_quadrupole_moment_norm": 17.8046878849, 
			 "total_energy": -515.483614383, 
			 "HOMO_LUMO_gap": 0.23245, 
			 "cosmo_polarized_energy": -16.25, 
			 "cosmo_cavitation_energy": 23.87, 
			 "cosmo_dispersion_energy": -17.44, 
			 "cosmo_repulsion_energy": 1.43, 
			 "cosmo_total_nonelectrostatic_energy": 7.86, 
			 "SMD_solvation_energy": 4.82 
		},
		"coords": [
			{
				"x": 0.5593676949,
				"y": 0.2566364195,
				"z": -1.1064160631,
				"element": "N" 
			},
			{
				"x": 1.0910696781,
				"y": -0.9332809541,
				"z": -0.3962401438,
				"element": "C" 
			},
			{
				"x": 1.8928621895,
				"y": -1.787303226,
				"z": -1.4126983682,
				"element": "C" 
			},
			{
				"x": 2.2404156231,
				"y": -1.1022233535,
				"z": -2.5117263049,
				"element": "O" 
			},
			{
				"x": 2.2137217484,
				"y": -2.9339492647,
				"z": -1.213199751,
				"element": "O" 
			},
			{
				"x": 0.0504158901,
				"y": -1.717755875,
				"z": 0.3799823568,
				"element": "C" 
			},
			{
				"x": -0.7778731902,
				"y": -2.6550330649,
				"z": -0.2533637522,
				"element": "C" 
			},
			{
				"x": -1.7919124717,
				"y": -3.2976582475,
				"z": 0.4561448569,
				"element": "C" 
			},
			{
				"x": -1.9911861121,
				"y": -3.0161863251,
				"z": 1.8095744921,
				"element": "C" 
			},
			{
				"x": -1.1667901109,
				"y": -2.0912401228,
				"z": 2.4514147359,
				"element": "C" 
			},
			{
				"x": -0.1540767517,
				"y": -1.4478071142,
				"z": 1.7386078887,
				"element": "C" 
			},
			{
				"x": 0.4590159126,
				"y": 1.0422259715,
				"z": -0.4700722721,
				"element": "H" 
			},
			{
				"x": -0.3716247835,
				"y": 0.0524312966,
				"z": -1.4647331976,
				"element": "H" 
			},
			{
				"x": 1.8466670811,
				"y": -0.5642448185,
				"z": 0.3085296424,
				"element": "H" 
			},
			{
				"x": 1.8032849162,
				"y": -0.2224832215,
				"z": -2.4059155846,
				"element": "H" 
			},
			{
				"x": -0.6118177794,
				"y": -2.9054663968,
				"z": -1.2971174051,
				"element": "H" 
			},
			{
				"x": -2.4204206354,
				"y": -4.0272471146,
				"z": -0.0462903738,
				"element": "H" 
			},
			{
				"x": -2.7780493268,
				"y": -3.521688236,
				"z": 2.3617804255,
				"element": "H" 
			},
			{
				"x": -1.3073552549,
				"y": -1.8736666198,
				"z": 3.5063105838,
				"element": "H" 
			},
			{
				"x": 0.4886856827,
				"y": -0.7311597326,
				"z": 2.2453282344,
				"element": "H" 
			}
		],
		 "valence_orbital": [ 
			{
				"type": "occ",
				"energy": -0.30215,
				"method": "rhf"
			},
			{
				"type": "occ",
				"energy": -0.30032,
				"method": "rhf"
			},
			{
				"type": "occ",
				"energy": -0.26022,
				"method": "rhf"
			},
			{
				"type": "occ",
				"energy": -0.25663,
				"method": "rhf"
			},
			{
				"type": "occ",
				"energy": -0.24669,
				"method": "rhf"
			},
			{
				"type": "unocc",
				"energy": -0.01424,
				"method": "rhf"
			},
			{
				"type": "unocc",
				"energy": -0.01015,
				"method": "rhf"
			},
			{
				"type": "unocc",
				"energy": 0.01352,
				"method": "rhf"
			},
			{
				"type": "unocc",
				"energy": 0.0707,
				"method": "rhf"
			},
			{
				"type": "unocc",
				"energy": 0.08928,
				"method": "rhf"
			}
		],
		"cosmo_sigma_profile": { 
			"-0.025": 0.0,
			"-0.024": 0.0,
			"-0.023": 0.0,
			"-0.022": 0.0,
			"-0.021": 0.0,
			"-0.02": 0.0,
			"-0.019": 0.0,
			"-0.018": 0.0,
			"-0.017": 0.0,
			"-0.016": 0.0,
			"-0.015": 0.0,
			"-0.014": 0.0,
			"-0.013": 0.00248645319299,
			"-0.012": 1.34976427153,
			"-0.011": 2.77124652057,
			"-0.01": 3.75739408973,
			"-0.009": 5.2437942029,
			"-0.008": 8.1972943488,
			"-0.007": 6.23355831919,
			"-0.006": 11.9074053596,
			"-0.005": 14.4086920259,
			"-0.004": 14.4656288623,
			"-0.003": 11.8994628128,
			"-0.002": 9.22011299789,
			"-0.001": 9.02511090026,
			"0.0": 7.11656758178,
			"0.001": 8.17408759642,
			"0.002": 7.98572186301,
			"0.003": 9.38723174344,
			"0.004": 8.74983684424,
			"0.005": 10.9783928124,
			"0.006": 8.58354108613,
			"0.007": 2.90873571911,
			"0.008": 2.79427974477,
			"0.009": 3.66576691579,
			"0.01": 4.66422903013,
			"0.011": 5.56288022492,
			"0.012": 5.5758517356,
			"0.013": 3.8738692884,
			"0.014": 0.659262724227,
			"0.015": 0.0,
			"0.016": 0.0,
			"0.017": 0.0,
			"0.018": 0.0,
			"0.019": 0.0,
			"0.02": 0.0,
			"0.021": 0.0,
			"0.022": 0.0,
			"0.023": 0.0,
			"0.024": 0.0,
			"0.025": 0.0
		}
	}
}
