{
	 "smiles": "OC(=O)CCCN1C(=O)OC2=C1C=CC=C2", 
	 "Tm": 415.15, 
	 "num_atms": 27, 
	 "gaussian": { 
		 "optdone": 1, 
		 "sigma_profile": "yes", 
		 "theory": "DFT", 
		 "functional": "B3LYP", 
		 "basiset": "6-31G**", 
		 "properties": { 
			 "R2extent": 5035.6505, 
			 "electric_dipole_moment_norm": 7.78127685281, 
			 "electric_quadrupole_moment_norm": 21.2758556049, 
			 "total_energy": -781.478554537, 
			 "HOMO_LUMO_gap": 0.20517, 
			 "cosmo_polarized_energy": -24.52, 
			 "cosmo_cavitation_energy": 31.85, 
			 "cosmo_dispersion_energy": -22.63, 
			 "cosmo_repulsion_energy": 1.76, 
			 "cosmo_total_nonelectrostatic_energy": 10.98, 
			 "SMD_solvation_energy": 7.38 
		},
		"coords": [
			{
				"x": 1.7248518478,
				"y": -4.8489944944,
				"z": -0.949253365,
				"element": "O" 
			},
			{
				"x": 1.4419931875,
				"y": -3.8055696516,
				"z": -0.124190786,
				"element": "C" 
			},
			{
				"x": 1.2608647544,
				"y": -3.998479777,
				"z": 1.0514863333,
				"element": "O" 
			},
			{
				"x": 1.3805908678,
				"y": -2.4401962169,
				"z": -0.8020331567,
				"element": "C" 
			},
			{
				"x": 1.0857972329,
				"y": -1.2806952016,
				"z": 0.1549168011,
				"element": "C" 
			},
			{
				"x": -0.3229381657,
				"y": -1.339699295,
				"z": 0.7692583278,
				"element": "C" 
			},
			{
				"x": -0.679706275,
				"y": -0.1085083991,
				"z": 1.4581654404,
				"element": "N" 
			},
			{
				"x": -0.6133511732,
				"y": 0.0320488704,
				"z": 2.8378635964,
				"element": "C" 
			},
			{
				"x": -0.2969133121,
				"y": -0.7827541327,
				"z": 3.666125782,
				"element": "O" 
			},
			{
				"x": -0.9953749841,
				"y": 1.3378898191,
				"z": 3.1370975089,
				"element": "O" 
			},
			{
				"x": -1.2841473061,
				"y": 1.9781983469,
				"z": 1.9539827689,
				"element": "C" 
			},
			{
				"x": -1.0900512206,
				"y": 1.0945641721,
				"z": 0.8861973235,
				"element": "C" 
			},
			{
				"x": -1.3227505538,
				"y": 1.4974485969,
				"z": -0.4234147516,
				"element": "C" 
			},
			{
				"x": -1.7536311071,
				"y": 2.8182285404,
				"z": -0.6190255314,
				"element": "C" 
			},
			{
				"x": -1.9415902387,
				"y": 3.6923712239,
				"z": 0.4554673688,
				"element": "C" 
			},
			{
				"x": -1.7075454337,
				"y": 3.2805562134,
				"z": 1.7771482818,
				"element": "C" 
			},
			{
				"x": 1.854664487,
				"y": -4.538316405,
				"z": -1.8565873953,
				"element": "H" 
			},
			{
				"x": 2.3407730307,
				"y": -2.2699185357,
				"z": -1.3074588142,
				"element": "H" 
			},
			{
				"x": 0.6239566465,
				"y": -2.4868399221,
				"z": -1.5991875963,
				"element": "H" 
			},
			{
				"x": 1.2011033093,
				"y": -0.3408770538,
				"z": -0.396600184,
				"element": "H" 
			},
			{
				"x": 1.821975282,
				"y": -1.276226584,
				"z": 0.9644964986,
				"element": "H" 
			},
			{
				"x": -1.0770281638,
				"y": -1.5233654058,
				"z": -0.0067185481,
				"element": "H" 
			},
			{
				"x": -0.3783053501,
				"y": -2.1470193669,
				"z": 1.5004159716,
				"element": "H" 
			},
			{
				"x": -1.1812891778,
				"y": 0.8236401048,
				"z": -1.2618281855,
				"element": "H" 
			},
			{
				"x": -1.9444355032,
				"y": 3.1657965851,
				"z": -1.6296066866,
				"element": "H" 
			},
			{
				"x": -2.2751956008,
				"y": 4.7079933204,
				"z": 0.2684912894,
				"element": "H" 
			},
			{
				"x": -1.8512170801,
				"y": 3.9439246481,
				"z": 2.6224917081,
				"element": "H" 
			}
		],
		 "valence_orbital": [ 
			{
				"type": "occ",
				"energy": -0.31165,
				"method": "rhf"
			},
			{
				"type": "occ",
				"energy": -0.28649,
				"method": "rhf"
			},
			{
				"type": "occ",
				"energy": -0.28188,
				"method": "rhf"
			},
			{
				"type": "occ",
				"energy": -0.25457,
				"method": "rhf"
			},
			{
				"type": "occ",
				"energy": -0.22089,
				"method": "rhf"
			},
			{
				"type": "unocc",
				"energy": -0.01572,
				"method": "rhf"
			},
			{
				"type": "unocc",
				"energy": -0.00171,
				"method": "rhf"
			},
			{
				"type": "unocc",
				"energy": 0.00053,
				"method": "rhf"
			},
			{
				"type": "unocc",
				"energy": 0.04192,
				"method": "rhf"
			},
			{
				"type": "unocc",
				"energy": 0.04774,
				"method": "rhf"
			}
		],
		"cosmo_sigma_profile": { 
			"-0.025": 0.0,
			"-0.024": 0.0,
			"-0.023": 0.0,
			"-0.022": 0.0,
			"-0.021": 0.0,
			"-0.02": 0.0410681917271,
			"-0.019": 0.98394839425,
			"-0.018": 0.766806910919,
			"-0.017": 1.17488914926,
			"-0.016": 1.16016769559,
			"-0.015": 0.816334448197,
			"-0.014": 0.682156977043,
			"-0.013": 1.13607926179,
			"-0.012": 1.6684968564,
			"-0.011": 1.6731802807,
			"-0.01": 0.965383991474,
			"-0.009": 1.29924622464,
			"-0.008": 3.58482014635,
			"-0.007": 14.1051501203,
			"-0.006": 15.7710997248,
			"-0.005": 16.0207654906,
			"-0.004": 21.5293606792,
			"-0.003": 19.4484752536,
			"-0.002": 17.9151383643,
			"-0.001": 13.164437008,
			"0.0": 9.24917558462,
			"0.001": 13.674462504,
			"0.002": 10.5531491366,
			"0.003": 11.5518538175,
			"0.004": 12.5444497029,
			"0.005": 11.5109302989,
			"0.006": 4.8484421702,
			"0.007": 6.03769356755,
			"0.008": 6.15794279336,
			"0.009": 5.59512182146,
			"0.01": 6.62434748372,
			"0.011": 9.08811523671,
			"0.012": 9.58055474735,
			"0.013": 2.34350493539,
			"0.014": 0.0235567795495,
			"0.015": 0.0,
			"0.016": 0.0,
			"0.017": 0.0,
			"0.018": 0.0,
			"0.019": 0.0,
			"0.02": 0.0,
			"0.021": 0.0,
			"0.022": 0.0,
			"0.023": 0.0,
			"0.024": 0.0,
			"0.025": 0.0
		}
	}
}
