{
	 "smiles": "COC1=C(OC)C=C(C(C2=CC=C(C)O2)C2=CC=C(C)O2)C(NC(=S)N(C)C)=C1", 
	 "Tm": 436.15, 
	 "num_atms": 55, 
	 "gaussian": { 
		 "optdone": 1, 
		 "sigma_profile": "yes", 
		 "theory": "DFT", 
		 "functional": "B3LYP", 
		 "basiset": "6-31G**", 
		 "properties": { 
			 "R2extent": 13499.111, 
			 "electric_dipole_moment_norm": 5.1897987803, 
			 "electric_quadrupole_moment_norm": 16.9626923562, 
			 "total_energy": -1662.54018629, 
			 "HOMO_LUMO_gap": 0.17144, 
			 "cosmo_polarized_energy": -18.55, 
			 "cosmo_cavitation_energy": 59.02, 
			 "cosmo_dispersion_energy": -37.47, 
			 "cosmo_repulsion_energy": 2.88, 
			 "cosmo_total_nonelectrostatic_energy": 24.42, 
			 "SMD_solvation_energy": 11.87 
		},
		"coords": [
			{
				"x": -2.2690434138,
				"y": 3.4886482024,
				"z": 0.5019938103,
				"element": "C" 
			},
			{
				"x": -1.0642747999,
				"y": 3.2550382465,
				"z": -0.2397262482,
				"element": "O" 
			},
			{
				"x": -0.776314185,
				"y": 1.9292412778,
				"z": -0.4732422283,
				"element": "C" 
			},
			{
				"x": -1.5601187422,
				"y": 1.1382992148,
				"z": -1.3323150688,
				"element": "C" 
			},
			{
				"x": -2.6882092212,
				"y": 1.6385044131,
				"z": -1.9479325561,
				"element": "O" 
			},
			{
				"x": -2.4286545279,
				"y": 2.5992297743,
				"z": -2.9772960824,
				"element": "C" 
			},
			{
				"x": -1.2117846325,
				"y": -0.1942418608,
				"z": -1.5380074622,
				"element": "C" 
			},
			{
				"x": -0.0841004257,
				"y": -0.7660223363,
				"z": -0.9395711659,
				"element": "C" 
			},
			{
				"x": 0.3007018796,
				"y": -2.2355169121,
				"z": -1.195176093,
				"element": "C" 
			},
			{
				"x": -0.3130938654,
				"y": -3.1548516015,
				"z": -0.1677550212,
				"element": "C" 
			},
			{
				"x": -1.2589272703,
				"y": -4.1330096418,
				"z": -0.1680848425,
				"element": "C" 
			},
			{
				"x": -1.3682171711,
				"y": -4.5969756932,
				"z": 1.1877021363,
				"element": "C" 
			},
			{
				"x": -0.4867530064,
				"y": -3.8734706414,
				"z": 1.9314922677,
				"element": "C" 
			},
			{
				"x": -0.1069124928,
				"y": -3.8543271686,
				"z": 3.3697783478,
				"element": "C" 
			},
			{
				"x": 0.1677314533,
				"y": -2.9854737674,
				"z": 1.1103800476,
				"element": "O" 
			},
			{
				"x": 0.071167381,
				"y": -2.704365313,
				"z": -2.6008078125,
				"element": "C" 
			},
			{
				"x": 0.9362890099,
				"y": -2.9718182456,
				"z": -3.6186371787,
				"element": "C" 
			},
			{
				"x": 0.1410767608,
				"y": -3.3755541835,
				"z": -4.7421807985,
				"element": "C" 
			},
			{
				"x": -1.1595397684,
				"y": -3.330965416,
				"z": -4.3387696907,
				"element": "C" 
			},
			{
				"x": -2.4580504692,
				"y": -3.6272448559,
				"z": -5.0027981355,
				"element": "C" 
			},
			{
				"x": -1.2165262907,
				"y": -2.9213722258,
				"z": -3.0289878253,
				"element": "O" 
			},
			{
				"x": 0.6993947286,
				"y": 0.0356273216,
				"z": -0.0837456823,
				"element": "C" 
			},
			{
				"x": 1.8130487143,
				"y": -0.5503519926,
				"z": 0.5897502745,
				"element": "N" 
			},
			{
				"x": 2.876110794,
				"y": 0.1236954583,
				"z": 1.1710653591,
				"element": "C" 
			},
			{
				"x": 3.4221298686,
				"y": -0.3524167749,
				"z": 2.6943895682,
				"element": "S" 
			},
			{
				"x": 3.4473453008,
				"y": 1.1200633304,
				"z": 0.4398092499,
				"element": "N" 
			},
			{
				"x": 4.4565168562,
				"y": 1.989773569,
				"z": 1.0346476855,
				"element": "C" 
			},
			{
				"x": 3.337264183,
				"y": 1.2109110992,
				"z": -1.0156475969,
				"element": "C" 
			},
			{
				"x": 0.3377550493,
				"y": 1.3698307832,
				"z": 0.1462071215,
				"element": "C" 
			},
			{
				"x": -2.3624501276,
				"y": 4.5723251579,
				"z": 0.5974636025,
				"element": "H" 
			},
			{
				"x": -2.1996085286,
				"y": 3.0417192017,
				"z": 1.5014101295,
				"element": "H" 
			},
			{
				"x": -3.1423252956,
				"y": 3.0845978105,
				"z": -0.0186654687,
				"element": "H" 
			},
			{
				"x": -3.4028570811,
				"y": 2.9039207032,
				"z": -3.3655987705,
				"element": "H" 
			},
			{
				"x": -1.8404334322,
				"y": 2.150749131,
				"z": -3.7881104383,
				"element": "H" 
			},
			{
				"x": -1.8986546526,
				"y": 3.4727569211,
				"z": -2.5840525599,
				"element": "H" 
			},
			{
				"x": -1.8376482476,
				"y": -0.7851884848,
				"z": -2.1962902109,
				"element": "H" 
			},
			{
				"x": 1.3879806963,
				"y": -2.2942482361,
				"z": -1.0576170456,
				"element": "H" 
			},
			{
				"x": -1.81417267,
				"y": -4.476680899,
				"z": -1.0267991871,
				"element": "H" 
			},
			{
				"x": -2.022262355,
				"y": -5.3735909529,
				"z": 1.5582793399,
				"element": "H" 
			},
			{
				"x": 0.958401048,
				"y": -4.0717556946,
				"z": 3.5067891214,
				"element": "H" 
			},
			{
				"x": -0.2988307897,
				"y": -2.8752353051,
				"z": 3.8233349967,
				"element": "H" 
			},
			{
				"x": -0.6847536998,
				"y": -4.6048121862,
				"z": 3.9141801254,
				"element": "H" 
			},
			{
				"x": 2.013547251,
				"y": -2.8953976619,
				"z": -3.5736460379,
				"element": "H" 
			},
			{
				"x": 0.4929326294,
				"y": -3.6657383483,
				"z": -5.7220121957,
				"element": "H" 
			},
			{
				"x": -3.1147098926,
				"y": -2.7495253932,
				"z": -5.0144965402,
				"element": "H" 
			},
			{
				"x": -2.9979004541,
				"y": -4.4334802288,
				"z": -4.4925117198,
				"element": "H" 
			},
			{
				"x": -2.2823014015,
				"y": -3.9359370792,
				"z": -6.0358825836,
				"element": "H" 
			},
			{
				"x": 1.5694659535,
				"y": -1.3771570022,
				"z": 1.1268521657,
				"element": "H" 
			},
			{
				"x": 4.2460034935,
				"y": 2.1302157152,
				"z": 2.0938227563,
				"element": "H" 
			},
			{
				"x": 5.4616721123,
				"y": 1.5591487653,
				"z": 0.9405717588,
				"element": "H" 
			},
			{
				"x": 4.4314115322,
				"y": 2.9545276346,
				"z": 0.5186501782,
				"element": "H" 
			},
			{
				"x": 4.3395490604,
				"y": 1.3498498283,
				"z": -1.4350489216,
				"element": "H" 
			},
			{
				"x": 2.9171159589,
				"y": 0.2928831661,
				"z": -1.4227299222,
				"element": "H" 
			},
			{
				"x": 2.7067350798,
				"y": 2.0526037356,
				"z": -1.3246925061,
				"element": "H" 
			},
			{
				"x": 0.9119821159,
				"y": 1.9882656414,
				"z": 0.826665554,
				"element": "H" 
			}
		],
		 "valence_orbital": [ 
			{
				"type": "occ",
				"energy": -0.21961,
				"method": "rhf"
			},
			{
				"type": "occ",
				"energy": -0.21694,
				"method": "rhf"
			},
			{
				"type": "occ",
				"energy": -0.21035,
				"method": "rhf"
			},
			{
				"type": "occ",
				"energy": -0.2045,
				"method": "rhf"
			},
			{
				"type": "occ",
				"energy": -0.19085,
				"method": "rhf"
			},
			{
				"type": "unocc",
				"energy": -0.01941,
				"method": "rhf"
			},
			{
				"type": "unocc",
				"energy": -0.00635,
				"method": "rhf"
			},
			{
				"type": "unocc",
				"energy": 0.00771,
				"method": "rhf"
			},
			{
				"type": "unocc",
				"energy": 0.01661,
				"method": "rhf"
			},
			{
				"type": "unocc",
				"energy": 0.02712,
				"method": "rhf"
			}
		],
		"cosmo_sigma_profile": { 
			"-0.025": 0.0,
			"-0.024": 0.0,
			"-0.023": 0.0,
			"-0.022": 0.0,
			"-0.021": 0.0,
			"-0.02": 0.0,
			"-0.019": 0.0,
			"-0.018": 0.0,
			"-0.017": 0.0,
			"-0.016": 0.0,
			"-0.015": 0.0,
			"-0.014": 0.0,
			"-0.013": 0.0,
			"-0.012": 0.0,
			"-0.011": 0.0,
			"-0.01": 0.0,
			"-0.009": 0.0,
			"-0.008": 0.0,
			"-0.007": 1.96328557455,
			"-0.006": 15.6701471774,
			"-0.005": 39.0443389826,
			"-0.004": 48.0904915128,
			"-0.003": 56.0184658781,
			"-0.002": 52.5001702284,
			"-0.001": 45.0426198164,
			"0.0": 35.8882946379,
			"0.001": 27.4504199917,
			"0.002": 26.4031698142,
			"0.003": 28.1986599861,
			"0.004": 22.4993505025,
			"0.005": 16.3186332408,
			"0.006": 14.0763209283,
			"0.007": 6.89692258662,
			"0.008": 7.01516090852,
			"0.009": 6.55662463452,
			"0.01": 7.58623452805,
			"0.011": 8.59425536599,
			"0.012": 4.33318170675,
			"0.013": 0.50423958876,
			"0.014": 0.0,
			"0.015": 0.0,
			"0.016": 0.0,
			"0.017": 0.0,
			"0.018": 0.0,
			"0.019": 0.0,
			"0.02": 0.0,
			"0.021": 0.0,
			"0.022": 0.0,
			"0.023": 0.0,
			"0.024": 0.0,
			"0.025": 0.0
		}
	}
}
