{
	 "smiles": "OC1=NC(Cl)=CC=C1", 
	 "Tm": 403.15, 
	 "num_atms": 12, 
	 "gaussian": { 
		 "optdone": 1, 
		 "sigma_profile": "yes", 
		 "theory": "DFT", 
		 "functional": "B3LYP", 
		 "basiset": "6-31G**", 
		 "properties": { 
			 "R2extent": 2408.6517, 
			 "electric_dipole_moment_norm": 4.75518512994, 
			 "electric_quadrupole_moment_norm": 19.7657527739, 
			 "total_energy": -783.105452757, 
			 "HOMO_LUMO_gap": 0.21011, 
			 "cosmo_polarized_energy": -13.14, 
			 "cosmo_cavitation_energy": 18.33, 
			 "cosmo_dispersion_energy": -14.12, 
			 "cosmo_repulsion_energy": 1.18, 
			 "cosmo_total_nonelectrostatic_energy": 5.39, 
			 "SMD_solvation_energy": 1.96 
		},
		"coords": [
			{
				"x": -3.5392655564,
				"y": -0.490114519,
				"z": 2.7313268345,
				"element": "O" 
			},
			{
				"x": -2.3613817195,
				"y": -0.4584172877,
				"z": 2.063590696,
				"element": "C" 
			},
			{
				"x": -1.3663318589,
				"y": -1.0933652834,
				"z": 2.6803597674,
				"element": "N" 
			},
			{
				"x": -0.1878044309,
				"y": -1.1033772628,
				"z": 2.086838582,
				"element": "C" 
			},
			{
				"x": 1.1051581579,
				"y": -1.9534504192,
				"z": 2.9329264012,
				"element": "Cl" 
			},
			{
				"x": 0.102554022,
				"y": -0.501555577,
				"z": 0.8623085167,
				"element": "C" 
			},
			{
				"x": -0.9521525836,
				"y": 0.1586503846,
				"z": 0.2314763972,
				"element": "C" 
			},
			{
				"x": -2.208745449,
				"y": 0.1898658058,
				"z": 0.8277138982,
				"element": "C" 
			},
			{
				"x": -4.2070394898,
				"y": -0.0111147199,
				"z": 2.2233450076,
				"element": "H" 
			},
			{
				"x": 1.0950832812,
				"y": -0.5499589284,
				"z": 0.4337271164,
				"element": "H" 
			},
			{
				"x": -0.7924797455,
				"y": 0.6481257201,
				"z": -0.7247251226,
				"element": "H" 
			},
			{
				"x": -3.0435946274,
				"y": 0.6980120868,
				"z": 0.3542119055,
				"element": "H" 
			}
		],
		 "valence_orbital": [ 
			{
				"type": "occ",
				"energy": -0.32712,
				"method": "rhf"
			},
			{
				"type": "occ",
				"energy": -0.31194,
				"method": "rhf"
			},
			{
				"type": "occ",
				"energy": -0.29069,
				"method": "rhf"
			},
			{
				"type": "occ",
				"energy": -0.28276,
				"method": "rhf"
			},
			{
				"type": "occ",
				"energy": -0.24431,
				"method": "rhf"
			},
			{
				"type": "unocc",
				"energy": -0.0342,
				"method": "rhf"
			},
			{
				"type": "unocc",
				"energy": -0.01255,
				"method": "rhf"
			},
			{
				"type": "unocc",
				"energy": 0.03521,
				"method": "rhf"
			},
			{
				"type": "unocc",
				"energy": 0.05605,
				"method": "rhf"
			},
			{
				"type": "unocc",
				"energy": 0.10015,
				"method": "rhf"
			}
		],
		"cosmo_sigma_profile": { 
			"-0.025": 0.0,
			"-0.024": 0.0,
			"-0.023": 0.0,
			"-0.022": 0.0,
			"-0.021": 0.0,
			"-0.02": 0.0,
			"-0.019": 0.84051313975,
			"-0.018": 1.1702447682,
			"-0.017": 1.30680957405,
			"-0.016": 1.11546839104,
			"-0.015": 0.720038541556,
			"-0.014": 0.796111853014,
			"-0.013": 0.877197925238,
			"-0.012": 1.22803684216,
			"-0.011": 1.44249053905,
			"-0.01": 1.04143073608,
			"-0.009": 1.21442638012,
			"-0.008": 4.41663637286,
			"-0.007": 6.54849862957,
			"-0.006": 6.85143810829,
			"-0.005": 5.60122052597,
			"-0.004": 4.96055938351,
			"-0.003": 3.62239713136,
			"-0.002": 5.49307743611,
			"-0.001": 8.58334202546,
			"0.0": 14.4639855246,
			"0.001": 14.2383455348,
			"0.002": 13.8169825186,
			"0.003": 8.62038592215,
			"0.004": 10.2668324403,
			"0.005": 7.86422308924,
			"0.006": 3.86466249568,
			"0.007": 2.18926985468,
			"0.008": 2.47962170931,
			"0.009": 3.08990143829,
			"0.01": 2.53066789637,
			"0.011": 3.10503388014,
			"0.012": 2.71493078196,
			"0.013": 1.29713925344,
			"0.014": 0.976270050152,
			"0.015": 0.204145059922,
			"0.016": 0.0,
			"0.017": 0.0,
			"0.018": 0.0,
			"0.019": 0.0,
			"0.02": 0.0,
			"0.021": 0.0,
			"0.022": 0.0,
			"0.023": 0.0,
			"0.024": 0.0,
			"0.025": 0.0
		}
	}
}
