{
	 "smiles": "BrC1=CC=C2CC(=O)CCC2=C1", 
	 "Tm": 346.15, 
	 "num_atms": 21, 
	 "gaussian": { 
		 "optdone": 1, 
		 "sigma_profile": "yes", 
		 "theory": "DFT", 
		 "functional": "B3LYP", 
		 "basiset": "6-31G**", 
		 "properties": { 
			 "R2extent": 4915.6559, 
			 "electric_dipole_moment_norm": 1.2219355384, 
			 "electric_quadrupole_moment_norm": 17.2014635947, 
			 "total_energy": -3033.12539016, 
			 "HOMO_LUMO_gap": 0.20886, 
			 "cosmo_polarized_energy": -9.28, 
			 "cosmo_cavitation_energy": 26.46, 
			 "cosmo_dispersion_energy": -20.03, 
			 "cosmo_repulsion_energy": 1.6, 
			 "cosmo_total_nonelectrostatic_energy": 8.03, 
			 "SMD_solvation_energy": 3.36 
		},
		"coords": [
			{
				"x": 0.9042231817,
				"y": -4.4535512894,
				"z": 2.1827416572,
				"element": "Br" 
			},
			{
				"x": 0.793969509,
				"y": -2.6242638751,
				"z": 1.6346377599,
				"element": "C" 
			},
			{
				"x": 0.9337731796,
				"y": -1.6146643982,
				"z": 2.5836149139,
				"element": "C" 
			},
			{
				"x": 0.8458842697,
				"y": -0.2852964192,
				"z": 2.1685097972,
				"element": "C" 
			},
			{
				"x": 0.6293763217,
				"y": 0.0389543688,
				"z": 0.8267231768,
				"element": "C" 
			},
			{
				"x": 0.5636474964,
				"y": 1.4728910396,
				"z": 0.3534530974,
				"element": "C" 
			},
			{
				"x": -0.4625841911,
				"y": 1.7217306215,
				"z": -0.7561671548,
				"element": "C" 
			},
			{
				"x": -0.9537638711,
				"y": 2.8185542742,
				"z": -0.9281813424,
				"element": "O" 
			},
			{
				"x": -0.817227306,
				"y": 0.5252572603,
				"z": -1.6335980025,
				"element": "C" 
			},
			{
				"x": 0.2170268866,
				"y": -0.6109670875,
				"z": -1.5570901107,
				"element": "C" 
			},
			{
				"x": 0.4844712831,
				"y": -0.9934146144,
				"z": -0.1178827483,
				"element": "C" 
			},
			{
				"x": 0.5644260292,
				"y": -2.3265554962,
				"z": 0.2928001059,
				"element": "C" 
			},
			{
				"x": 1.1019789487,
				"y": -1.860618304,
				"z": 3.6257097939,
				"element": "H" 
			},
			{
				"x": 0.9484167569,
				"y": 0.5087672722,
				"z": 2.9036617375,
				"element": "H" 
			},
			{
				"x": 0.3698369999,
				"y": 2.1755027986,
				"z": 1.168193736,
				"element": "H" 
			},
			{
				"x": 1.5358915757,
				"y": 1.7655462039,
				"z": -0.0776380615,
				"element": "H" 
			},
			{
				"x": -0.9687200527,
				"y": 0.8845938176,
				"z": -2.6556689385,
				"element": "H" 
			},
			{
				"x": -1.791142991,
				"y": 0.1580529555,
				"z": -1.2813853226,
				"element": "H" 
			},
			{
				"x": 1.1523497647,
				"y": -0.2819729063,
				"z": -2.0330040562,
				"element": "H" 
			},
			{
				"x": -0.1288547733,
				"y": -1.4779898518,
				"z": -2.1279666818,
				"element": "H" 
			},
			{
				"x": 0.4450209822,
				"y": -3.1286563702,
				"z": -0.4280633564,
				"element": "H" 
			}
		],
		 "valence_orbital": [ 
			{
				"type": "occ",
				"energy": -0.30978,
				"method": "rhf"
			},
			{
				"type": "occ",
				"energy": -0.2888,
				"method": "rhf"
			},
			{
				"type": "occ",
				"energy": -0.26249,
				"method": "rhf"
			},
			{
				"type": "occ",
				"energy": -0.25464,
				"method": "rhf"
			},
			{
				"type": "occ",
				"energy": -0.2355,
				"method": "rhf"
			},
			{
				"type": "unocc",
				"energy": -0.02664,
				"method": "rhf"
			},
			{
				"type": "unocc",
				"energy": -0.01845,
				"method": "rhf"
			},
			{
				"type": "unocc",
				"energy": -0.0127,
				"method": "rhf"
			},
			{
				"type": "unocc",
				"energy": 0.00504,
				"method": "rhf"
			},
			{
				"type": "unocc",
				"energy": 0.08466,
				"method": "rhf"
			}
		],
		"cosmo_sigma_profile": { 
			"-0.025": 0.0,
			"-0.024": 0.0,
			"-0.023": 0.0,
			"-0.022": 0.0,
			"-0.021": 0.0,
			"-0.02": 0.0,
			"-0.019": 0.0,
			"-0.018": 0.0,
			"-0.017": 0.0,
			"-0.016": 0.0,
			"-0.015": 0.0,
			"-0.014": 0.0,
			"-0.013": 0.0,
			"-0.012": 0.0,
			"-0.011": 0.0,
			"-0.01": 0.0,
			"-0.009": 0.0,
			"-0.008": 0.776030925028,
			"-0.007": 6.26726151902,
			"-0.006": 15.9404626687,
			"-0.005": 19.2299805808,
			"-0.004": 19.1585284613,
			"-0.003": 18.4841321669,
			"-0.002": 18.4411006178,
			"-0.001": 11.6685517715,
			"0.0": 9.70872957784,
			"0.001": 12.090876898,
			"0.002": 15.4419578853,
			"0.003": 16.3767006948,
			"0.004": 19.8464809611,
			"0.005": 11.6073327449,
			"0.006": 1.49386933227,
			"0.007": 1.64628889639,
			"0.008": 0.938858754634,
			"0.009": 1.57687168368,
			"0.01": 2.21004083195,
			"0.011": 3.50162689721,
			"0.012": 4.53263008394,
			"0.013": 2.3891025434,
			"0.014": 0.188428821533,
			"0.015": 0.0,
			"0.016": 0.0,
			"0.017": 0.0,
			"0.018": 0.0,
			"0.019": 0.0,
			"0.02": 0.0,
			"0.021": 0.0,
			"0.022": 0.0,
			"0.023": 0.0,
			"0.024": 0.0,
			"0.025": 0.0
		}
	}
}
