{
	 "smiles": "CCOC(=O)C1=CC(OC2=CN=CC(C)=N2)=CC=C1", 
	 "Tm": 324.15, 
	 "num_atms": 33, 
	 "gaussian": { 
		 "optdone": 1, 
		 "sigma_profile": "yes", 
		 "theory": "DFT", 
		 "functional": "B3LYP", 
		 "basiset": "6-31G**", 
		 "properties": { 
			 "R2extent": 7016.1241, 
			 "electric_dipole_moment_norm": 1.53399672099, 
			 "electric_quadrupole_moment_norm": 14.2595426031, 
			 "total_energy": -877.109057068, 
			 "HOMO_LUMO_gap": 0.18323, 
			 "cosmo_polarized_energy": -12.81, 
			 "cosmo_cavitation_energy": 38.54, 
			 "cosmo_dispersion_energy": -27.16, 
			 "cosmo_repulsion_energy": 2.14, 
			 "cosmo_total_nonelectrostatic_energy": 13.52, 
			 "SMD_solvation_energy": 5.07 
		},
		"coords": [
			{
				"x": 3.5171619915,
				"y": 3.217420566,
				"z": -3.0398166074,
				"element": "C" 
			},
			{
				"x": 4.2567883197,
				"y": 2.0451958701,
				"z": -2.4243046781,
				"element": "C" 
			},
			{
				"x": 3.2783331695,
				"y": 1.2172668598,
				"z": -1.7538965195,
				"element": "O" 
			},
			{
				"x": 3.7606229356,
				"y": 0.1142421225,
				"z": -1.1432473168,
				"element": "C" 
			},
			{
				"x": 4.9380723635,
				"y": -0.1887961276,
				"z": -1.1391181842,
				"element": "O" 
			},
			{
				"x": 2.6884100903,
				"y": -0.6839413701,
				"z": -0.4765362553,
				"element": "C" 
			},
			{
				"x": 1.3439875414,
				"y": -0.2952714262,
				"z": -0.5161612527,
				"element": "C" 
			},
			{
				"x": 0.3916801722,
				"y": -1.0828705346,
				"z": 0.1290082703,
				"element": "C" 
			},
			{
				"x": -0.9600260446,
				"y": -0.7795215517,
				"z": 0.0457360383,
				"element": "O" 
			},
			{
				"x": -1.4402876261,
				"y": 0.3934207622,
				"z": 0.5605285462,
				"element": "C" 
			},
			{
				"x": -0.7480712175,
				"y": 1.1690402024,
				"z": 1.508515979,
				"element": "C" 
			},
			{
				"x": -1.2921189494,
				"y": 2.2813781537,
				"z": 1.9978694725,
				"element": "N" 
			},
			{
				"x": -2.5092678288,
				"y": 2.6165326258,
				"z": 1.5537597538,
				"element": "C" 
			},
			{
				"x": -3.2005844985,
				"y": 1.8372831581,
				"z": 0.6187523549,
				"element": "C" 
			},
			{
				"x": -4.574153789,
				"y": 2.2028825184,
				"z": 0.1249696166,
				"element": "C" 
			},
			{
				"x": -2.6481689259,
				"y": 0.7175013681,
				"z": 0.1242564014,
				"element": "N" 
			},
			{
				"x": 0.7556117089,
				"y": -2.2536983812,
				"z": 0.7945767928,
				"element": "C" 
			},
			{
				"x": 2.0978962758,
				"y": -2.637955383,
				"z": 0.8201217504,
				"element": "C" 
			},
			{
				"x": 3.0647884993,
				"y": -1.8565167459,
				"z": 0.1923038159,
				"element": "C" 
			},
			{
				"x": 3.0066051254,
				"y": 3.8054744414,
				"z": -2.2717519608,
				"element": "H" 
			},
			{
				"x": 2.7727038791,
				"y": 2.8743277209,
				"z": -3.7640353104,
				"element": "H" 
			},
			{
				"x": 4.2256393077,
				"y": 3.8706768144,
				"z": -3.5584818169,
				"element": "H" 
			},
			{
				"x": 5.0048974314,
				"y": 2.3667116574,
				"z": -1.69295114,
				"element": "H" 
			},
			{
				"x": 4.7721097137,
				"y": 1.4402984314,
				"z": -3.1769296611,
				"element": "H" 
			},
			{
				"x": 1.0472408429,
				"y": 0.6017001075,
				"z": -1.0460742088,
				"element": "H" 
			},
			{
				"x": 0.2359949636,
				"y": 0.8864896836,
				"z": 1.8690901078,
				"element": "H" 
			},
			{
				"x": -2.948928138,
				"y": 3.5257211894,
				"z": 1.9567954612,
				"element": "H" 
			},
			{
				"x": -4.5684351937,
				"y": 2.3221690619,
				"z": -0.9632249454,
				"element": "H" 
			},
			{
				"x": -4.9296013316,
				"y": 3.1315831891,
				"z": 0.578097825,
				"element": "H" 
			},
			{
				"x": -5.2864381434,
				"y": 1.4042808848,
				"z": 0.3564078058,
				"element": "H" 
			},
			{
				"x": -0.0151307274,
				"y": -2.8479196002,
				"z": 1.2741515577,
				"element": "H" 
			},
			{
				"x": 2.3854418259,
				"y": -3.5493500568,
				"z": 1.3351515058,
				"element": "H" 
			},
			{
				"x": 4.1127262564,
				"y": -2.1342562114,
				"z": 0.2023368019,
				"element": "H" 
			}
		],
		 "valence_orbital": [ 
			{
				"type": "occ",
				"energy": -0.27678,
				"method": "rhf"
			},
			{
				"type": "occ",
				"energy": -0.27126,
				"method": "rhf"
			},
			{
				"type": "occ",
				"energy": -0.26609,
				"method": "rhf"
			},
			{
				"type": "occ",
				"energy": -0.25182,
				"method": "rhf"
			},
			{
				"type": "occ",
				"energy": -0.23874,
				"method": "rhf"
			},
			{
				"type": "unocc",
				"energy": -0.05551,
				"method": "rhf"
			},
			{
				"type": "unocc",
				"energy": -0.04373,
				"method": "rhf"
			},
			{
				"type": "unocc",
				"energy": -0.01953,
				"method": "rhf"
			},
			{
				"type": "unocc",
				"energy": -0.00663,
				"method": "rhf"
			},
			{
				"type": "unocc",
				"energy": 0.05314,
				"method": "rhf"
			}
		],
		"cosmo_sigma_profile": { 
			"-0.025": 0.0,
			"-0.024": 0.0,
			"-0.023": 0.0,
			"-0.022": 0.0,
			"-0.021": 0.0,
			"-0.02": 0.0,
			"-0.019": 0.0,
			"-0.018": 0.0,
			"-0.017": 0.0,
			"-0.016": 0.0,
			"-0.015": 0.0,
			"-0.014": 0.0,
			"-0.013": 0.0,
			"-0.012": 0.0,
			"-0.011": 0.0,
			"-0.01": 0.0,
			"-0.009": 0.0,
			"-0.008": 0.854186747031,
			"-0.007": 8.14783795433,
			"-0.006": 13.3934636322,
			"-0.005": 22.4012807102,
			"-0.004": 27.324857594,
			"-0.003": 30.0894359907,
			"-0.002": 31.8063598083,
			"-0.001": 34.6356108428,
			"0.0": 28.1671692139,
			"0.001": 22.3726372807,
			"0.002": 19.4478785136,
			"0.003": 15.0273611958,
			"0.004": 8.05837103106,
			"0.005": 6.47106608193,
			"0.006": 4.94222202218,
			"0.007": 5.21370848602,
			"0.008": 3.5951749577,
			"0.009": 4.66713228727,
			"0.01": 4.56323144855,
			"0.011": 5.7126106892,
			"0.012": 5.88880123927,
			"0.013": 2.07149123263,
			"0.014": 1.78010271192,
			"0.015": 0.93992860631,
			"0.016": 0.0836165383135,
			"0.017": 0.0,
			"0.018": 0.0,
			"0.019": 0.0,
			"0.02": 0.0,
			"0.021": 0.0,
			"0.022": 0.0,
			"0.023": 0.0,
			"0.024": 0.0,
			"0.025": 0.0
		}
	}
}
