{
	 "smiles": "CC1=C(C=C(Br)C=C1C(O)=O)S(N)(=O)=O", 
	 "Tm": 487.15, 
	 "num_atms": 23, 
	 "gaussian": { 
		 "optdone": 1, 
		 "sigma_profile": "yes", 
		 "theory": "DFT", 
		 "functional": "B3LYP", 
		 "basiset": "6-31G**", 
		 "properties": { 
			 "R2extent": 6048.9618, 
			 "electric_dipole_moment_norm": 3.58835991924, 
			 "electric_quadrupole_moment_norm": 17.9922957915, 
			 "total_energy": -3634.85735823, 
			 "HOMO_LUMO_gap": 0.18788, 
			 "cosmo_polarized_energy": -17.76, 
			 "cosmo_cavitation_energy": 30.69, 
			 "cosmo_dispersion_energy": -23.6, 
			 "cosmo_repulsion_energy": 1.8, 
			 "cosmo_total_nonelectrostatic_energy": 8.89, 
			 "SMD_solvation_energy": 5.07 
		},
		"coords": [
			{
				"x": 1.5095577995,
				"y": 0.7591788106,
				"z": -0.1939719486,
				"element": "C" 
			},
			{
				"x": 0.165548996,
				"y": 0.157940537,
				"z": -0.5260175618,
				"element": "C" 
			},
			{
				"x": -0.2296681252,
				"y": -1.076371559,
				"z": 0.0370095407,
				"element": "C" 
			},
			{
				"x": -1.4630386152,
				"y": -1.674314496,
				"z": -0.2176203708,
				"element": "C" 
			},
			{
				"x": -2.3653807782,
				"y": -1.0227258273,
				"z": -1.0502395783,
				"element": "C" 
			},
			{
				"x": -4.0631460607,
				"y": -1.8125056009,
				"z": -1.4065694196,
				"element": "Br" 
			},
			{
				"x": -2.0350091956,
				"y": 0.1953143367,
				"z": -1.6217985589,
				"element": "C" 
			},
			{
				"x": -0.7811300619,
				"y": 0.782552812,
				"z": -1.376337676,
				"element": "C" 
			},
			{
				"x": -0.4963046374,
				"y": 2.0750149013,
				"z": -2.0814250427,
				"element": "C" 
			},
			{
				"x": -1.6310031825,
				"y": 2.6688417681,
				"z": -2.5314648467,
				"element": "O" 
			},
			{
				"x": 0.5923282363,
				"y": 2.5759748804,
				"z": -2.2787739618,
				"element": "O" 
			},
			{
				"x": 0.8668085678,
				"y": -2.053024382,
				"z": 1.096871844,
				"element": "S" 
			},
			{
				"x": 1.0569741385,
				"y": -1.0712975212,
				"z": 2.4662001211,
				"element": "N" 
			},
			{
				"x": 0.1198008595,
				"y": -3.2531602179,
				"z": 1.4864156755,
				"element": "O" 
			},
			{
				"x": 2.1887188883,
				"y": -2.1510824285,
				"z": 0.475021651,
				"element": "O" 
			},
			{
				"x": 1.6169413969,
				"y": 1.7554927645,
				"z": -0.6085022354,
				"element": "H" 
			},
			{
				"x": 2.3101512573,
				"y": 0.1282425914,
				"z": -0.5904079161,
				"element": "H" 
			},
			{
				"x": 1.636050718,
				"y": 0.7952939235,
				"z": 0.8916502478,
				"element": "H" 
			},
			{
				"x": -1.6985864311,
				"y": -2.6303065482,
				"z": 0.2326392504,
				"element": "H" 
			},
			{
				"x": -2.7391921733,
				"y": 0.6995574928,
				"z": -2.2692989131,
				"element": "H" 
			},
			{
				"x": -1.338434229,
				"y": 3.4672463305,
				"z": -3.0012920432,
				"element": "H" 
			},
			{
				"x": 2.0405489001,
				"y": -1.0715904438,
				"z": 2.7265340246,
				"element": "H" 
			},
			{
				"x": 0.4779637319,
				"y": -1.4242721241,
				"z": 3.224677718,
				"element": "H" 
			}
		],
		 "valence_orbital": [ 
			{
				"type": "occ",
				"energy": -0.31048,
				"method": "rhf"
			},
			{
				"type": "occ",
				"energy": -0.30091,
				"method": "rhf"
			},
			{
				"type": "occ",
				"energy": -0.28906,
				"method": "rhf"
			},
			{
				"type": "occ",
				"energy": -0.28408,
				"method": "rhf"
			},
			{
				"type": "occ",
				"energy": -0.25816,
				"method": "rhf"
			},
			{
				"type": "unocc",
				"energy": -0.07028,
				"method": "rhf"
			},
			{
				"type": "unocc",
				"energy": -0.05081,
				"method": "rhf"
			},
			{
				"type": "unocc",
				"energy": -0.00943,
				"method": "rhf"
			},
			{
				"type": "unocc",
				"energy": 0.02424,
				"method": "rhf"
			},
			{
				"type": "unocc",
				"energy": 0.04884,
				"method": "rhf"
			}
		],
		"cosmo_sigma_profile": { 
			"-0.025": 0.0,
			"-0.024": 0.0,
			"-0.023": 0.0,
			"-0.022": 0.0,
			"-0.021": 0.0,
			"-0.02": 0.0,
			"-0.019": 0.217404361363,
			"-0.018": 0.943371510412,
			"-0.017": 0.864835404539,
			"-0.016": 0.757330131808,
			"-0.015": 2.92736132624,
			"-0.014": 3.25064869285,
			"-0.013": 3.65569867736,
			"-0.012": 2.88291514807,
			"-0.011": 2.52812943826,
			"-0.01": 2.83828710276,
			"-0.009": 2.09377196223,
			"-0.008": 2.94156379973,
			"-0.007": 4.51067669849,
			"-0.006": 4.46243517614,
			"-0.005": 7.67194431476,
			"-0.004": 12.0273024695,
			"-0.003": 15.6073299455,
			"-0.002": 19.3785606611,
			"-0.001": 27.4623708235,
			"0.0": 25.8127680155,
			"0.001": 13.322931525,
			"0.002": 12.5181482008,
			"0.003": 15.7200168223,
			"0.004": 14.0064815248,
			"0.005": 5.0217775211,
			"0.006": 4.84453876195,
			"0.007": 6.98666088837,
			"0.008": 5.50986590539,
			"0.009": 6.73561077476,
			"0.01": 10.1540234727,
			"0.011": 10.2820004513,
			"0.012": 0.7646112805,
			"0.013": 0.0,
			"0.014": 0.0,
			"0.015": 0.0,
			"0.016": 0.0,
			"0.017": 0.0,
			"0.018": 0.0,
			"0.019": 0.0,
			"0.02": 0.0,
			"0.021": 0.0,
			"0.022": 0.0,
			"0.023": 0.0,
			"0.024": 0.0,
			"0.025": 0.0
		}
	}
}
