{
	 "smiles": "CN(C)C1=CC=C(C=CC2=CC=CC=C2)C=C1", 
	 "Tm": 423.15, 
	 "num_atms": 34, 
	 "gaussian": { 
		 "optdone": 1, 
		 "sigma_profile": "yes", 
		 "theory": "DFT", 
		 "functional": "B3LYP", 
		 "basiset": "6-31G**", 
		 "properties": { 
			 "R2extent": 8092.5154, 
			 "electric_dipole_moment_norm": 3.31260448288, 
			 "electric_quadrupole_moment_norm": 16.9539106521, 
			 "total_energy": -674.689171611, 
			 "HOMO_LUMO_gap": 0.1372, 
			 "cosmo_polarized_energy": -9.01, 
			 "cosmo_cavitation_energy": 36.89, 
			 "cosmo_dispersion_energy": -26.99, 
			 "cosmo_repulsion_energy": 2.05, 
			 "cosmo_total_nonelectrostatic_energy": 11.94, 
			 "SMD_solvation_energy": 5.73 
		},
		"coords": [
			{
				"x": 4.2654265585,
				"y": -2.2339948385,
				"z": -0.1387045602,
				"element": "C" 
			},
			{
				"x": 2.8509978875,
				"y": -2.5565841382,
				"z": -0.0627223108,
				"element": "N" 
			},
			{
				"x": 2.4692326147,
				"y": -3.8852299294,
				"z": 0.3845539982,
				"element": "C" 
			},
			{
				"x": 1.9187484936,
				"y": -1.528978236,
				"z": -0.0294162534,
				"element": "C" 
			},
			{
				"x": 2.2887202722,
				"y": -0.185215558,
				"z": -0.2637160374,
				"element": "C" 
			},
			{
				"x": 1.3384013182,
				"y": 0.8273216043,
				"z": -0.2555628324,
				"element": "C" 
			},
			{
				"x": -0.024906959,
				"y": 0.5824100222,
				"z": -0.0099156161,
				"element": "C" 
			},
			{
				"x": -0.9678700187,
				"y": 1.6978400803,
				"z": -0.0169719628,
				"element": "C" 
			},
			{
				"x": -2.3044173746,
				"y": 1.6456419782,
				"z": 0.1690525967,
				"element": "C" 
			},
			{
				"x": -3.2420000685,
				"y": 2.7715022876,
				"z": 0.1620646079,
				"element": "C" 
			},
			{
				"x": -2.8514708668,
				"y": 4.1146071832,
				"z": -0.0173657836,
				"element": "C" 
			},
			{
				"x": -3.79053241,
				"y": 5.1410821848,
				"z": -0.0160737006,
				"element": "C" 
			},
			{
				"x": -5.1490307692,
				"y": 4.8623920516,
				"z": 0.1654585682,
				"element": "C" 
			},
			{
				"x": -5.5553788283,
				"y": 3.5397294527,
				"z": 0.3465066113,
				"element": "C" 
			},
			{
				"x": -4.6143924726,
				"y": 2.5119893562,
				"z": 0.3447559588,
				"element": "C" 
			},
			{
				"x": -0.3839489146,
				"y": -0.7571486022,
				"z": 0.2377085679,
				"element": "C" 
			},
			{
				"x": 0.5497084728,
				"y": -1.7818348243,
				"z": 0.233350698,
				"element": "C" 
			},
			{
				"x": 4.8419024082,
				"y": -3.1593728618,
				"z": -0.1819081143,
				"element": "H" 
			},
			{
				"x": 4.491016652,
				"y": -1.6634052275,
				"z": -1.0469709631,
				"element": "H" 
			},
			{
				"x": 4.6187836288,
				"y": -1.6488108512,
				"z": 0.7247951436,
				"element": "H" 
			},
			{
				"x": 3.3181310929,
				"y": -4.5602163368,
				"z": 0.2650394912,
				"element": "H" 
			},
			{
				"x": 1.6457473672,
				"y": -4.2835527721,
				"z": -0.2192057131,
				"element": "H" 
			},
			{
				"x": 2.1573975027,
				"y": -3.9094524862,
				"z": 1.4404573645,
				"element": "H" 
			},
			{
				"x": 3.3229497709,
				"y": 0.0748463872,
				"z": -0.4525153913,
				"element": "H" 
			},
			{
				"x": 1.6639221519,
				"y": 1.8481644467,
				"z": -0.4428011965,
				"element": "H" 
			},
			{
				"x": -0.5063744487,
				"y": 2.6675070566,
				"z": -0.1996368622,
				"element": "H" 
			},
			{
				"x": -2.7708742289,
				"y": 0.6770415737,
				"z": 0.3423040268,
				"element": "H" 
			},
			{
				"x": -1.8030194231,
				"y": 4.3593348959,
				"z": -0.1571458127,
				"element": "H" 
			},
			{
				"x": -3.4617653019,
				"y": 6.1673275912,
				"z": -0.1564092605,
				"element": "H" 
			},
			{
				"x": -5.8785460634,
				"y": 5.667003602,
				"z": 0.1663365684,
				"element": "H" 
			},
			{
				"x": -6.6070124708,
				"y": 3.3066500155,
				"z": 0.4895244164,
				"element": "H" 
			},
			{
				"x": -4.9405318494,
				"y": 1.4843199162,
				"z": 0.4861895925,
				"element": "H" 
			},
			{
				"x": -1.4193494759,
				"y": -1.0093331384,
				"z": 0.4470053901,
				"element": "H" 
			},
			{
				"x": 0.2108357522,
				"y": -2.7897818853,
				"z": 0.4392387706,
				"element": "H" 
			}
		],
		 "valence_orbital": [ 
			{
				"type": "occ",
				"energy": -0.27286,
				"method": "rhf"
			},
			{
				"type": "occ",
				"energy": -0.24393,
				"method": "rhf"
			},
			{
				"type": "occ",
				"energy": -0.2415,
				"method": "rhf"
			},
			{
				"type": "occ",
				"energy": -0.22287,
				"method": "rhf"
			},
			{
				"type": "occ",
				"energy": -0.1737,
				"method": "rhf"
			},
			{
				"type": "unocc",
				"energy": -0.0365,
				"method": "rhf"
			},
			{
				"type": "unocc",
				"energy": 0.00712,
				"method": "rhf"
			},
			{
				"type": "unocc",
				"energy": 0.00935,
				"method": "rhf"
			},
			{
				"type": "unocc",
				"energy": 0.03125,
				"method": "rhf"
			},
			{
				"type": "unocc",
				"energy": 0.0841,
				"method": "rhf"
			}
		],
		"cosmo_sigma_profile": { 
			"-0.025": 0.0,
			"-0.024": 0.0,
			"-0.023": 0.0,
			"-0.022": 0.0,
			"-0.021": 0.0,
			"-0.02": 0.0,
			"-0.019": 0.0,
			"-0.018": 0.0,
			"-0.017": 0.0,
			"-0.016": 0.0,
			"-0.015": 0.0,
			"-0.014": 0.0,
			"-0.013": 0.0,
			"-0.012": 0.0,
			"-0.011": 0.0,
			"-0.01": 0.0,
			"-0.009": 0.0,
			"-0.008": 0.0,
			"-0.007": 1.64501814893,
			"-0.006": 11.2486979103,
			"-0.005": 27.535152402,
			"-0.004": 26.861647511,
			"-0.003": 34.3747820692,
			"-0.002": 28.6766046732,
			"-0.001": 26.0021750573,
			"0.0": 15.8925073338,
			"0.001": 12.9467994318,
			"0.002": 14.9077342046,
			"0.003": 15.6147601867,
			"0.004": 18.5067701806,
			"0.005": 24.1420264225,
			"0.006": 26.1058029582,
			"0.007": 9.12841396123,
			"0.008": 0.0863036585822,
			"0.009": 0.0,
			"0.01": 0.0,
			"0.011": 0.0,
			"0.012": 0.0,
			"0.013": 0.0,
			"0.014": 0.0,
			"0.015": 0.0,
			"0.016": 0.0,
			"0.017": 0.0,
			"0.018": 0.0,
			"0.019": 0.0,
			"0.02": 0.0,
			"0.021": 0.0,
			"0.022": 0.0,
			"0.023": 0.0,
			"0.024": 0.0,
			"0.025": 0.0
		}
	}
}
