{
	 "smiles": "FC1=CC=C(C=C1)S(=O)(=O)N1CCNCC1", 
	 "Tm": 386.15, 
	 "num_atms": 29, 
	 "gaussian": { 
		 "optdone": 1, 
		 "sigma_profile": "yes", 
		 "theory": "DFT", 
		 "functional": "B3LYP", 
		 "basiset": "6-31G**", 
		 "properties": { 
			 "R2extent": 5569.2066, 
			 "electric_dipole_moment_norm": 2.91275785811, 
			 "electric_quadrupole_moment_norm": 20.5794606844, 
			 "total_energy": -1146.77886322, 
			 "HOMO_LUMO_gap": 0.1872, 
			 "cosmo_polarized_energy": -14.67, 
			 "cosmo_cavitation_energy": 33.1, 
			 "cosmo_dispersion_energy": -23.92, 
			 "cosmo_repulsion_energy": 1.79, 
			 "cosmo_total_nonelectrostatic_energy": 10.96, 
			 "SMD_solvation_energy": 1.82 
		},
		"coords": [
			{
				"x": -5.6858752834,
				"y": 0.9326019939,
				"z": -1.8350062806,
				"element": "F" 
			},
			{
				"x": -4.4970270617,
				"y": 1.1913738778,
				"z": -1.2617036976,
				"element": "C" 
			},
			{
				"x": -4.3347671015,
				"y": 0.9147858093,
				"z": 0.0948722806,
				"element": "C" 
			},
			{
				"x": -3.1048954933,
				"y": 1.1809597482,
				"z": 0.6880233548,
				"element": "C" 
			},
			{
				"x": -2.0665373546,
				"y": 1.7091585023,
				"z": -0.0863987118,
				"element": "C" 
			},
			{
				"x": -2.245324308,
				"y": 1.988611062,
				"z": -1.4421175054,
				"element": "C" 
			},
			{
				"x": -3.4766971862,
				"y": 1.7239881701,
				"z": -2.0417385261,
				"element": "C" 
			},
			{
				"x": -0.5001631059,
				"y": 2.1097130628,
				"z": 0.6913130688,
				"element": "S" 
			},
			{
				"x": -0.7464805145,
				"y": 2.9115512136,
				"z": 1.8940042495,
				"element": "O" 
			},
			{
				"x": 0.3837103499,
				"y": 2.6181558011,
				"z": -0.3703491752,
				"element": "O" 
			},
			{
				"x": 0.0049228059,
				"y": 0.5988374112,
				"z": 1.251710857,
				"element": "N" 
			},
			{
				"x": 0.5134434084,
				"y": -0.3440751024,
				"z": 0.2242534891,
				"element": "C" 
			},
			{
				"x": 2.0164322008,
				"y": -0.5733015377,
				"z": 0.3674121177,
				"element": "C" 
			},
			{
				"x": 2.3084530775,
				"y": -1.173807669,
				"z": 1.6798678387,
				"element": "N" 
			},
			{
				"x": 1.3762990469,
				"y": -0.7596233705,
				"z": 2.7390435007,
				"element": "C" 
			},
			{
				"x": 0.7756101995,
				"y": 0.6323874254,
				"z": 2.5224009124,
				"element": "C" 
			},
			{
				"x": -5.1636008652,
				"y": 0.5035304678,
				"z": 0.6602390334,
				"element": "H" 
			},
			{
				"x": -2.9487041907,
				"y": 0.9799614342,
				"z": 1.7421123115,
				"element": "H" 
			},
			{
				"x": -1.4250518382,
				"y": 2.4110915665,
				"z": -2.0114673957,
				"element": "H" 
			},
			{
				"x": -3.653496974,
				"y": 1.9261297088,
				"z": -3.0922552332,
				"element": "H" 
			},
			{
				"x": 0.2973534103,
				"y": 0.0542772828,
				"z": -0.7687661563,
				"element": "H" 
			},
			{
				"x": -0.0230275984,
				"y": -1.2945256458,
				"z": 0.3261194966,
				"element": "H" 
			},
			{
				"x": 2.5213545637,
				"y": 0.3924906106,
				"z": 0.2086804804,
				"element": "H" 
			},
			{
				"x": 2.3540636921,
				"y": -1.2499000037,
				"z": -0.4281137111,
				"element": "H" 
			},
			{
				"x": 3.2588141488,
				"y": -0.9449320319,
				"z": 1.9503479163,
				"element": "H" 
			},
			{
				"x": 0.5565550771,
				"y": -1.4867805082,
				"z": 2.8148759401,
				"element": "H" 
			},
			{
				"x": 1.8982480869,
				"y": -0.7787806165,
				"z": 3.7005107935,
				"element": "H" 
			},
			{
				"x": 1.5795066493,
				"y": 1.3806823895,
				"z": 2.4941618621,
				"element": "H" 
			},
			{
				"x": 0.0993821586,
				"y": 0.9038389479,
				"z": 3.3361668898,
				"element": "H" 
			}
		],
		 "valence_orbital": [ 
			{
				"type": "occ",
				"energy": -0.29666,
				"method": "rhf"
			},
			{
				"type": "occ",
				"energy": -0.28061,
				"method": "rhf"
			},
			{
				"type": "occ",
				"energy": -0.27104,
				"method": "rhf"
			},
			{
				"type": "occ",
				"energy": -0.24441,
				"method": "rhf"
			},
			{
				"type": "occ",
				"energy": -0.22443,
				"method": "rhf"
			},
			{
				"type": "unocc",
				"energy": -0.03723,
				"method": "rhf"
			},
			{
				"type": "unocc",
				"energy": -0.02973,
				"method": "rhf"
			},
			{
				"type": "unocc",
				"energy": 0.05214,
				"method": "rhf"
			},
			{
				"type": "unocc",
				"energy": 0.07389,
				"method": "rhf"
			},
			{
				"type": "unocc",
				"energy": 0.08386,
				"method": "rhf"
			}
		],
		"cosmo_sigma_profile": { 
			"-0.025": 0.0,
			"-0.024": 0.0,
			"-0.023": 0.0,
			"-0.022": 0.0,
			"-0.021": 0.0,
			"-0.02": 0.0,
			"-0.019": 0.0,
			"-0.018": 0.0,
			"-0.017": 0.0,
			"-0.016": 0.0,
			"-0.015": 0.0,
			"-0.014": 0.0,
			"-0.013": 0.0,
			"-0.012": 0.0,
			"-0.011": 0.27617431751,
			"-0.01": 1.44312367582,
			"-0.009": 1.93311541905,
			"-0.008": 6.83446331144,
			"-0.007": 7.72583408384,
			"-0.006": 11.4811785632,
			"-0.005": 16.2223433103,
			"-0.004": 27.3219469103,
			"-0.003": 24.3981499793,
			"-0.002": 20.6527922978,
			"-0.001": 22.7319678986,
			"0.0": 17.8183325304,
			"0.001": 20.5764140747,
			"0.002": 15.8967731534,
			"0.003": 12.5050526457,
			"0.004": 11.5391699834,
			"0.005": 3.7559808746,
			"0.006": 2.74245416765,
			"0.007": 3.29431307963,
			"0.008": 4.01475733875,
			"0.009": 4.70513589387,
			"0.01": 5.96803151862,
			"0.011": 9.54918006257,
			"0.012": 5.06676422342,
			"0.013": 0.498754601438,
			"0.014": 0.53279828086,
			"0.015": 0.793910257085,
			"0.016": 0.340220790043,
			"0.017": 0.579492838175,
			"0.018": 0.348197692681,
			"0.019": 0.0,
			"0.02": 0.0,
			"0.021": 0.0,
			"0.022": 0.0,
			"0.023": 0.0,
			"0.024": 0.0,
			"0.025": 0.0
		}
	}
}
