{
	 "smiles": "OCC1=CC=CC=C1[N+]([O-])=O", 
	 "Tm": 346.15, 
	 "num_atms": 18, 
	 "gaussian": { 
		 "optdone": 1, 
		 "sigma_profile": "yes", 
		 "theory": "DFT", 
		 "functional": "B3LYP", 
		 "basiset": "6-31G**", 
		 "properties": { 
			 "R2extent": 2106.1587, 
			 "electric_dipole_moment_norm": 5.5642921832, 
			 "electric_quadrupole_moment_norm": 11.8751703179, 
			 "total_energy": -551.267617768, 
			 "HOMO_LUMO_gap": 0.18614, 
			 "cosmo_polarized_energy": -13.32, 
			 "cosmo_cavitation_energy": 22.56, 
			 "cosmo_dispersion_energy": -16.49, 
			 "cosmo_repulsion_energy": 1.33, 
			 "cosmo_total_nonelectrostatic_energy": 7.4, 
			 "SMD_solvation_energy": 6.2 
		},
		"coords": [
			{
				"x": -0.1480497255,
				"y": 2.9161136522,
				"z": -2.5895997108,
				"element": "O" 
			},
			{
				"x": -0.9284948108,
				"y": 2.518703845,
				"z": -1.4705344501,
				"element": "C" 
			},
			{
				"x": -0.6987815254,
				"y": 1.0652342214,
				"z": -1.0928910583,
				"element": "C" 
			},
			{
				"x": -1.765868982,
				"y": 0.160678681,
				"z": -1.1400828346,
				"element": "C" 
			},
			{
				"x": -1.5958065663,
				"y": -1.1991545809,
				"z": -0.8715558646,
				"element": "C" 
			},
			{
				"x": -0.327920451,
				"y": -1.6975218063,
				"z": -0.5751739723,
				"element": "C" 
			},
			{
				"x": 0.7608195839,
				"y": -0.828550077,
				"z": -0.5413093242,
				"element": "C" 
			},
			{
				"x": 0.563616842,
				"y": 0.5294787024,
				"z": -0.7827089335,
				"element": "C" 
			},
			{
				"x": 1.7584964048,
				"y": 1.3885417916,
				"z": -0.6616778669,
				"element": "N" 
			},
			{
				"x": 2.8370203067,
				"y": 0.8953650183,
				"z": -0.9888752753,
				"element": "O" 
			},
			{
				"x": 1.6132761715,
				"y": 2.5195303718,
				"z": -0.2057525905,
				"element": "O" 
			},
			{
				"x": -0.4167262206,
				"y": 2.3748432456,
				"z": -3.3438938973,
				"element": "H" 
			},
			{
				"x": -0.6320708581,
				"y": 3.1781869788,
				"z": -0.6547821397,
				"element": "H" 
			},
			{
				"x": -2.0037080825,
				"y": 2.6619665207,
				"z": -1.6540617261,
				"element": "H" 
			},
			{
				"x": -2.7525572787,
				"y": 0.5369613136,
				"z": -1.3971954001,
				"element": "H" 
			},
			{
				"x": -2.4511778569,
				"y": -1.8671384418,
				"z": -0.9067765335,
				"element": "H" 
			},
			{
				"x": -0.1821325299,
				"y": -2.7540061721,
				"z": -0.3741336045,
				"element": "H" 
			},
			{
				"x": 1.7621655788,
				"y": -1.1812332644,
				"z": -0.3258948176,
				"element": "H" 
			}
		],
		 "valence_orbital": [ 
			{
				"type": "occ",
				"energy": -0.30264,
				"method": "rhf"
			},
			{
				"type": "occ",
				"energy": -0.29718,
				"method": "rhf"
			},
			{
				"type": "occ",
				"energy": -0.28806,
				"method": "rhf"
			},
			{
				"type": "occ",
				"energy": -0.27465,
				"method": "rhf"
			},
			{
				"type": "occ",
				"energy": -0.26908,
				"method": "rhf"
			},
			{
				"type": "unocc",
				"energy": -0.08294,
				"method": "rhf"
			},
			{
				"type": "unocc",
				"energy": -0.03035,
				"method": "rhf"
			},
			{
				"type": "unocc",
				"energy": -0.01054,
				"method": "rhf"
			},
			{
				"type": "unocc",
				"energy": 0.07491,
				"method": "rhf"
			},
			{
				"type": "unocc",
				"energy": 0.07899,
				"method": "rhf"
			}
		],
		"cosmo_sigma_profile": { 
			"-0.025": 0.0,
			"-0.024": 0.0,
			"-0.023": 0.0,
			"-0.022": 0.0,
			"-0.021": 0.0,
			"-0.02": 0.0,
			"-0.019": 0.0,
			"-0.018": 0.0,
			"-0.017": 0.0,
			"-0.016": 0.43692764837,
			"-0.015": 1.05892420497,
			"-0.014": 1.11041700915,
			"-0.013": 0.814773460424,
			"-0.012": 0.853972893259,
			"-0.011": 0.895294564942,
			"-0.01": 1.1096243324,
			"-0.009": 1.17582451695,
			"-0.008": 1.48324268621,
			"-0.007": 10.3019373682,
			"-0.006": 13.9919301074,
			"-0.005": 12.7944609698,
			"-0.004": 10.6396445833,
			"-0.003": 11.3826736898,
			"-0.002": 9.95025809048,
			"-0.001": 8.8985373391,
			"0.0": 11.2522395595,
			"0.001": 13.2769077871,
			"0.002": 13.5850927752,
			"0.003": 8.92568977693,
			"0.004": 3.84297265846,
			"0.005": 4.11289211346,
			"0.006": 4.84206070916,
			"0.007": 8.288433355,
			"0.008": 9.09065732958,
			"0.009": 6.20191783131,
			"0.01": 3.82512568057,
			"0.011": 1.71086972589,
			"0.012": 1.07451143026,
			"0.013": 1.73132065044,
			"0.014": 1.09422411539,
			"0.015": 0.0,
			"0.016": 0.0,
			"0.017": 0.0,
			"0.018": 0.0,
			"0.019": 0.0,
			"0.02": 0.0,
			"0.021": 0.0,
			"0.022": 0.0,
			"0.023": 0.0,
			"0.024": 0.0,
			"0.025": 0.0
		}
	}
}
