{
	 "smiles": "ClCC(=O)NCC1CCCC2=C1C=CC=C2", 
	 "Tm": 388.15, 
	 "num_atms": 32, 
	 "gaussian": { 
		 "optdone": 1, 
		 "sigma_profile": "yes", 
		 "theory": "DFT", 
		 "functional": "B3LYP", 
		 "basiset": "6-31G**", 
		 "properties": { 
			 "R2extent": 4605.2745, 
			 "electric_dipole_moment_norm": 2.05258744272, 
			 "electric_quadrupole_moment_norm": 8.5039850141, 
			 "total_energy": -1095.22947031, 
			 "HOMO_LUMO_gap": 0.23248, 
			 "cosmo_polarized_energy": -12.45, 
			 "cosmo_cavitation_energy": 35.14, 
			 "cosmo_dispersion_energy": -24.48, 
			 "cosmo_repulsion_energy": 1.93, 
			 "cosmo_total_nonelectrostatic_energy": 12.59, 
			 "SMD_solvation_energy": 5.24 
		},
		"coords": [
			{
				"x": -2.4143659848,
				"y": 2.7352510416,
				"z": -2.9862255982,
				"element": "Cl" 
			},
			{
				"x": -2.7737545238,
				"y": 0.9960668775,
				"z": -2.5855606807,
				"element": "C" 
			},
			{
				"x": -1.5864262208,
				"y": 0.113967646,
				"z": -2.1894769694,
				"element": "C" 
			},
			{
				"x": -1.8325739555,
				"y": -1.0591572227,
				"z": -1.9388356157,
				"element": "O" 
			},
			{
				"x": -0.3586264222,
				"y": 0.6832879539,
				"z": -2.1435578646,
				"element": "N" 
			},
			{
				"x": 0.8268086183,
				"y": -0.0491283236,
				"z": -1.7323570847,
				"element": "C" 
			},
			{
				"x": 1.5447681666,
				"y": 0.5525542326,
				"z": -0.4927151845,
				"element": "C" 
			},
			{
				"x": 2.8829482839,
				"y": -0.17803196,
				"z": -0.2668574422,
				"element": "C" 
			},
			{
				"x": 2.663128391,
				"y": -1.571660195,
				"z": 0.3347539492,
				"element": "C" 
			},
			{
				"x": 1.9812942262,
				"y": -1.4638610226,
				"z": 1.7036156805,
				"element": "C" 
			},
			{
				"x": 0.8488086084,
				"y": -0.4513135357,
				"z": 1.755204941,
				"element": "C" 
			},
			{
				"x": 0.6744626769,
				"y": 0.5277256468,
				"z": 0.758055122,
				"element": "C" 
			},
			{
				"x": -0.3281906947,
				"y": 1.4961289449,
				"z": 0.927548264,
				"element": "C" 
			},
			{
				"x": -1.1690998005,
				"y": 1.4883997253,
				"z": 2.0372488661,
				"element": "C" 
			},
			{
				"x": -1.0123628728,
				"y": 0.5005656413,
				"z": 3.0114936234,
				"element": "C" 
			},
			{
				"x": -0.0068773138,
				"y": -0.4507421352,
				"z": 2.8664931579,
				"element": "C" 
			},
			{
				"x": -3.2523857731,
				"y": 0.5594643501,
				"z": -3.4618894569,
				"element": "H" 
			},
			{
				"x": -3.4836861229,
				"y": 1.0008964893,
				"z": -1.7584849281,
				"element": "H" 
			},
			{
				"x": -0.2775267772,
				"y": 1.6587619926,
				"z": -2.3941080898,
				"element": "H" 
			},
			{
				"x": 1.5404662795,
				"y": -0.07847313,
				"z": -2.5668170921,
				"element": "H" 
			},
			{
				"x": 0.4952961664,
				"y": -1.0705590476,
				"z": -1.5374835938,
				"element": "H" 
			},
			{
				"x": 1.7647175184,
				"y": 1.6028615903,
				"z": -0.7331094938,
				"element": "H" 
			},
			{
				"x": 3.4342301377,
				"y": -0.2466559836,
				"z": -1.212623317,
				"element": "H" 
			},
			{
				"x": 3.5036858137,
				"y": 0.4159338578,
				"z": 0.4160543588,
				"element": "H" 
			},
			{
				"x": 3.6186654768,
				"y": -2.0981384098,
				"z": 0.4362245509,
				"element": "H" 
			},
			{
				"x": 2.0487120029,
				"y": -2.177752394,
				"z": -0.3417581723,
				"element": "H" 
			},
			{
				"x": 2.7326863061,
				"y": -1.1689034187,
				"z": 2.4511223006,
				"element": "H" 
			},
			{
				"x": 1.6132143512,
				"y": -2.445509653,
				"z": 2.0249258082,
				"element": "H" 
			},
			{
				"x": -0.4456316635,
				"y": 2.2725816535,
				"z": 0.1766019902,
				"element": "H" 
			},
			{
				"x": -1.9366665202,
				"y": 2.2497125552,
				"z": 2.143600413,
				"element": "H" 
			},
			{
				"x": -1.6627198234,
				"y": 0.4778002764,
				"z": 3.8813738525,
				"element": "H" 
			},
			{
				"x": 0.1288014449,
				"y": -1.2109740436,
				"z": 3.6328437058,
				"element": "H" 
			}
		],
		 "valence_orbital": [ 
			{
				"type": "occ",
				"energy": -0.30857,
				"method": "rhf"
			},
			{
				"type": "occ",
				"energy": -0.25893,
				"method": "rhf"
			},
			{
				"type": "occ",
				"energy": -0.25645,
				"method": "rhf"
			},
			{
				"type": "occ",
				"energy": -0.23989,
				"method": "rhf"
			},
			{
				"type": "occ",
				"energy": -0.23231,
				"method": "rhf"
			},
			{
				"type": "unocc",
				"energy": 0.00017,
				"method": "rhf"
			},
			{
				"type": "unocc",
				"energy": 0.00387,
				"method": "rhf"
			},
			{
				"type": "unocc",
				"energy": 0.01464,
				"method": "rhf"
			},
			{
				"type": "unocc",
				"energy": 0.02198,
				"method": "rhf"
			},
			{
				"type": "unocc",
				"energy": 0.07972,
				"method": "rhf"
			}
		],
		"cosmo_sigma_profile": { 
			"-0.025": 0.0,
			"-0.024": 0.0,
			"-0.023": 0.0,
			"-0.022": 0.0,
			"-0.021": 0.0,
			"-0.02": 0.0,
			"-0.019": 0.0,
			"-0.018": 0.0,
			"-0.017": 0.0,
			"-0.016": 0.0,
			"-0.015": 0.0,
			"-0.014": 0.0,
			"-0.013": 0.0562046669794,
			"-0.012": 0.44768459277,
			"-0.011": 1.28122242083,
			"-0.01": 0.871934537896,
			"-0.009": 3.10677316864,
			"-0.008": 5.82293778574,
			"-0.007": 5.17740880663,
			"-0.006": 5.65823964642,
			"-0.005": 13.1707790696,
			"-0.004": 21.8143752102,
			"-0.003": 30.1705689535,
			"-0.002": 33.0047984447,
			"-0.001": 29.5694189166,
			"0.0": 24.5606167978,
			"0.001": 17.463356961,
			"0.002": 12.4739922136,
			"0.003": 10.9330479841,
			"0.004": 12.9562845186,
			"0.005": 14.5336413845,
			"0.006": 12.4701429199,
			"0.007": 6.97525708149,
			"0.008": 1.44680485559,
			"0.009": 1.36024105152,
			"0.01": 1.08706321175,
			"0.011": 1.88437801623,
			"0.012": 1.82114534156,
			"0.013": 5.30996564365,
			"0.014": 2.79948174992,
			"0.015": 0.0823099543972,
			"0.016": 0.0,
			"0.017": 0.0,
			"0.018": 0.0,
			"0.019": 0.0,
			"0.02": 0.0,
			"0.021": 0.0,
			"0.022": 0.0,
			"0.023": 0.0,
			"0.024": 0.0,
			"0.025": 0.0
		}
	}
}
