{
	 "smiles": "OC(=O)C1=CC2=C(N=C3C=CC=CN3C2=O)N1CC1=CC=CC=C1", 
	 "Tm": 531.15, 
	 "num_atms": 37, 
	 "gaussian": { 
		 "optdone": 1, 
		 "sigma_profile": "yes", 
		 "theory": "DFT", 
		 "functional": "B3LYP", 
		 "basiset": "6-31G**", 
		 "properties": { 
			 "R2extent": 8276.0175, 
			 "electric_dipole_moment_norm": 5.46909357298, 
			 "electric_quadrupole_moment_norm": 10.3304826857, 
			 "total_energy": -1083.70741941, 
			 "HOMO_LUMO_gap": 0.13582, 
			 "cosmo_polarized_energy": -18.99, 
			 "cosmo_cavitation_energy": 41.19, 
			 "cosmo_dispersion_energy": -29.5, 
			 "cosmo_repulsion_energy": 2.16, 
			 "cosmo_total_nonelectrostatic_energy": 13.86, 
			 "SMD_solvation_energy": 7.63 
		},
		"coords": [
			{
				"x": -1.9110318834,
				"y": -3.7704809718,
				"z": 1.7607869889,
				"element": "O" 
			},
			{
				"x": -1.8410797193,
				"y": -2.7560081441,
				"z": 0.8606043054,
				"element": "C" 
			},
			{
				"x": -2.6107029889,
				"y": -2.746858492,
				"z": -0.0795158014,
				"element": "O" 
			},
			{
				"x": -0.8081402102,
				"y": -1.7390001303,
				"z": 1.1253652356,
				"element": "C" 
			},
			{
				"x": 0.1752488343,
				"y": -1.7551334304,
				"z": 2.1014520987,
				"element": "C" 
			},
			{
				"x": 0.8872823221,
				"y": -0.538906444,
				"z": 1.9968193469,
				"element": "C" 
			},
			{
				"x": 0.3088636175,
				"y": 0.1960939703,
				"z": 0.9403575554,
				"element": "C" 
			},
			{
				"x": 0.6692609735,
				"y": 1.4212281254,
				"z": 0.5180549584,
				"element": "N" 
			},
			{
				"x": 1.6804078361,
				"y": 1.9683902205,
				"z": 1.1754176533,
				"element": "C" 
			},
			{
				"x": 2.1446795348,
				"y": 3.2723590165,
				"z": 0.8145662275,
				"element": "C" 
			},
			{
				"x": 3.1868661256,
				"y": 3.8676364454,
				"z": 1.4652199513,
				"element": "C" 
			},
			{
				"x": 3.8380130148,
				"y": 3.1850096614,
				"z": 2.5330731261,
				"element": "C" 
			},
			{
				"x": 3.4051217868,
				"y": 1.9463307382,
				"z": 2.8880245272,
				"element": "C" 
			},
			{
				"x": 2.3508881199,
				"y": 1.3332422273,
				"z": 2.2391366614,
				"element": "N" 
			},
			{
				"x": 1.9826230288,
				"y": -0.0013227595,
				"z": 2.7315335297,
				"element": "C" 
			},
			{
				"x": 2.6028497794,
				"y": -0.4921699461,
				"z": 3.6626579835,
				"element": "O" 
			},
			{
				"x": -0.7143179514,
				"y": -0.5363232586,
				"z": 0.4080108356,
				"element": "N" 
			},
			{
				"x": -1.5066367345,
				"y": -0.0870010989,
				"z": -0.7568095215,
				"element": "C" 
			},
			{
				"x": -0.8680044146,
				"y": -0.4247855453,
				"z": -2.0942285102,
				"element": "C" 
			},
			{
				"x": 0.0302823978,
				"y": 0.4703731429,
				"z": -2.6907456435,
				"element": "C" 
			},
			{
				"x": 0.6127021111,
				"y": 0.173305297,
				"z": -3.9234588852,
				"element": "C" 
			},
			{
				"x": 0.3016526849,
				"y": -1.0218861277,
				"z": -4.5748645973,
				"element": "C" 
			},
			{
				"x": -0.5941518407,
				"y": -1.9170346095,
				"z": -3.9872508463,
				"element": "C" 
			},
			{
				"x": -1.1773300623,
				"y": -1.6218854486,
				"z": -2.7538253786,
				"element": "C" 
			},
			{
				"x": -1.3329808688,
				"y": -3.6002007258,
				"z": 2.5169550645,
				"element": "H" 
			},
			{
				"x": 0.3944024645,
				"y": -2.5439787507,
				"z": 2.8082796267,
				"element": "H" 
			},
			{
				"x": 1.6183476613,
				"y": 3.7510456321,
				"z": -0.0024773414,
				"element": "H" 
			},
			{
				"x": 3.5201895985,
				"y": 4.857913031,
				"z": 1.17115087,
				"element": "H" 
			},
			{
				"x": 4.6681317036,
				"y": 3.634199226,
				"z": 3.064912863,
				"element": "H" 
			},
			{
				"x": 3.8268868969,
				"y": 1.3447604777,
				"z": 3.6824555886,
				"element": "H" 
			},
			{
				"x": -1.6003431767,
				"y": 0.9956405793,
				"z": -0.6506791398,
				"element": "H" 
			},
			{
				"x": -2.4890309873,
				"y": -0.545774759,
				"z": -0.671808542,
				"element": "H" 
			},
			{
				"x": 0.2759397121,
				"y": 1.3948483389,
				"z": -2.1768158343,
				"element": "H" 
			},
			{
				"x": 1.3061314539,
				"y": 0.8764452711,
				"z": -4.3767469144,
				"element": "H" 
			},
			{
				"x": 0.7523815846,
				"y": -1.2525844596,
				"z": -5.5361760103,
				"element": "H" 
			},
			{
				"x": -0.8437640621,
				"y": -2.846726892,
				"z": -4.4910735733,
				"element": "H" 
			},
			{
				"x": -1.8728383428,
				"y": -2.3161594068,
				"z": -2.2939584585,
				"element": "H" 
			}
		],
		 "valence_orbital": [ 
			{
				"type": "occ",
				"energy": -0.27415,
				"method": "rhf"
			},
			{
				"type": "occ",
				"energy": -0.2617,
				"method": "rhf"
			},
			{
				"type": "occ",
				"energy": -0.2437,
				"method": "rhf"
			},
			{
				"type": "occ",
				"energy": -0.24209,
				"method": "rhf"
			},
			{
				"type": "occ",
				"energy": -0.21065,
				"method": "rhf"
			},
			{
				"type": "unocc",
				"energy": -0.07483,
				"method": "rhf"
			},
			{
				"type": "unocc",
				"energy": -0.03717,
				"method": "rhf"
			},
			{
				"type": "unocc",
				"energy": -0.03512,
				"method": "rhf"
			},
			{
				"type": "unocc",
				"energy": -0.0013,
				"method": "rhf"
			},
			{
				"type": "unocc",
				"energy": 0.00458,
				"method": "rhf"
			}
		],
		"cosmo_sigma_profile": { 
			"-0.025": 0.0,
			"-0.024": 0.0,
			"-0.023": 0.0,
			"-0.022": 0.0,
			"-0.021": 0.0,
			"-0.02": 0.0,
			"-0.019": 0.539360784003,
			"-0.018": 0.928956754162,
			"-0.017": 1.29110931667,
			"-0.016": 0.9305432357,
			"-0.015": 1.16012143496,
			"-0.014": 1.05795339147,
			"-0.013": 0.413996851261,
			"-0.012": 1.22849058464,
			"-0.011": 1.167562829,
			"-0.01": 1.40615438053,
			"-0.009": 1.5053892904,
			"-0.008": 6.42116179142,
			"-0.007": 9.7175226049,
			"-0.006": 12.4752391483,
			"-0.005": 16.9815499982,
			"-0.004": 22.0901369722,
			"-0.003": 29.9625120127,
			"-0.002": 23.5143435565,
			"-0.001": 23.6648812642,
			"0.0": 27.8700632483,
			"0.001": 30.056641592,
			"0.002": 25.0845454579,
			"0.003": 16.101903165,
			"0.004": 15.7892258229,
			"0.005": 13.8369543176,
			"0.006": 12.5230519865,
			"0.007": 4.34222468308,
			"0.008": 3.01569516768,
			"0.009": 5.81178477998,
			"0.01": 6.16744197635,
			"0.011": 5.88690299171,
			"0.012": 6.55230359811,
			"0.013": 2.85484572148,
			"0.014": 0.0322224092058,
			"0.015": 0.0,
			"0.016": 0.0,
			"0.017": 0.0,
			"0.018": 0.0,
			"0.019": 0.0,
			"0.02": 0.0,
			"0.021": 0.0,
			"0.022": 0.0,
			"0.023": 0.0,
			"0.024": 0.0,
			"0.025": 0.0
		}
	}
}
