{
	 "smiles": "[O-][N+](=O)C1=CC(F)=CC(I)=C1", 
	 "Tm": 351.15, 
	 "num_atms": 14, 
	 "gaussian": { 
		 "optdone": 1, 
		 "sigma_profile": "no", 
		 "theory": "DFT", 
		 "functional": "B3LYP", 
		 "basiset": "6-31G**", 
		 "properties": { 
			 "R2extent": 2032.4355, 
			 "electric_dipole_moment_norm": 2.99992337569, 
			 "electric_quadrupole_moment_norm": 5.54943556319, 
			 "total_energy": -546.757473179, 
			 "HOMO_LUMO_gap": 0.16154, 
			 "cosmo_polarized_energy": -96040.69, 
			 "cosmo_cavitation_energy": 23.39, 
			 "cosmo_dispersion_energy": -18.45, 
			 "cosmo_repulsion_energy": 1.42, 
			 "cosmo_total_nonelectrostatic_energy": 6.36, 
			 "SMD_solvation_energy": 5.98 
		},
		"coords": [
			{
				"x": 0.6062453858,
				"y": -1.9818307511,
				"z": -1.0911356262,
				"element": "O" 
			},
			{
				"x": -0.1621690243,
				"y": -1.0959222747,
				"z": -1.4578649503,
				"element": "N" 
			},
			{
				"x": -0.8773278528,
				"y": -1.1473260185,
				"z": -2.4555343808,
				"element": "O" 
			},
			{
				"x": -0.2300308415,
				"y": 0.1281044757,
				"z": -0.6325598219,
				"element": "C" 
			},
			{
				"x": 0.5730110686,
				"y": 0.2047732099,
				"z": 0.5012513883,
				"element": "C" 
			},
			{
				"x": 0.4852855215,
				"y": 1.3675488523,
				"z": 1.2540805672,
				"element": "C" 
			},
			{
				"x": 1.2416971069,
				"y": 1.4861542381,
				"z": 2.3567698121,
				"element": "F" 
			},
			{
				"x": -0.3592623975,
				"y": 2.4212248611,
				"z": 0.910821493,
				"element": "C" 
			},
			{
				"x": -1.1456325291,
				"y": 2.2961314027,
				"z": -0.2368542251,
				"element": "C" 
			},
			{
				"x": -2.4372198311,
				"y": 3.8765860183,
				"z": -0.7848865174,
				"element": "I" 
			},
			{
				"x": -1.093734036,
				"y": 1.1476297132,
				"z": -1.0270648409,
				"element": "C" 
			},
			{
				"x": 1.2325272599,
				"y": -0.6066906662,
				"z": 0.7779027095,
				"element": "H" 
			},
			{
				"x": -0.3874714018,
				"y": 3.3058257322,
				"z": 1.5352032257,
				"element": "H" 
			},
			{
				"x": -1.6917184287,
				"y": 1.0259912071,
				"z": -1.9196288333,
				"element": "H" 
			}
		],
		 "valence_orbital": [ 
			{
				"type": "occ",
				"energy": -0.3219,
				"method": "rhf"
			},
			{
				"type": "occ",
				"energy": -0.30659,
				"method": "rhf"
			},
			{
				"type": "occ",
				"energy": -0.29096,
				"method": "rhf"
			},
			{
				"type": "occ",
				"energy": -0.28939,
				"method": "rhf"
			},
			{
				"type": "occ",
				"energy": -0.2673,
				"method": "rhf"
			},
			{
				"type": "unocc",
				"energy": -0.10576,
				"method": "rhf"
			},
			{
				"type": "unocc",
				"energy": -0.06226,
				"method": "rhf"
			},
			{
				"type": "unocc",
				"energy": -0.04626,
				"method": "rhf"
			},
			{
				"type": "unocc",
				"energy": -0.0167,
				"method": "rhf"
			},
			{
				"type": "unocc",
				"energy": 0.0335,
				"method": "rhf"
			}
		],
		"cosmo_sigma_profile": { 
			"0.0": 0.0,
			"0.0": 0.0,
			"0.0": 0.0,
			"0.0": 0.0,
			"0.0": 0.0,
			"0.0": 0.0,
			"0.0": 0.0,
			"0.0": 0.0,
			"0.0": 0.0,
			"0.0": 0.0,
			"0.0": 0.0,
			"0.0": 0.0,
			"0.0": 0.0,
			"0.0": 0.0,
			"0.0": 0.0,
			"0.0": 0.0,
			"0.0": 0.0,
			"0.0": 0.0,
			"0.0": 0.0,
			"0.0": 0.0,
			"0.0": 0.0,
			"0.0": 0.0,
			"0.0": 0.0,
			"0.0": 0.0,
			"0.0": 0.0,
			"0.0": 0.0,
			"0.0": 0.0,
			"0.0": 0.0,
			"0.0": 0.0,
			"0.0": 0.0,
			"0.0": 0.0,
			"0.0": 0.0,
			"0.0": 0.0,
			"0.0": 0.0,
			"0.0": 0.0,
			"0.0": 0.0,
			"0.0": 0.0,
			"0.0": 0.0,
			"0.0": 0.0,
			"0.0": 0.0,
			"0.0": 0.0,
			"0.0": 0.0,
			"0.0": 0.0,
			"0.0": 0.0,
			"0.0": 0.0,
			"0.0": 0.0,
			"0.0": 0.0,
			"0.0": 0.0,
			"0.0": 0.0,
			"0.0": 0.0,
			"0.0": 0.0
		}
	}
}
