{
	 "smiles": "ClC1=CC2=C(OC3=C(O2)C=C(Cl)C(Cl)=C3)C=C1", 
	 "Tm": 435.15, 
	 "num_atms": 22, 
	 "gaussian": { 
		 "optdone": 1, 
		 "sigma_profile": "yes", 
		 "theory": "DFT", 
		 "functional": "B3LYP", 
		 "basiset": "6-31G**", 
		 "properties": { 
			 "R2extent": 8280.9138, 
			 "electric_dipole_moment_norm": 1.63670039714, 
			 "electric_quadrupole_moment_norm": 13.7395728456, 
			 "total_energy": -1991.29164591, 
			 "HOMO_LUMO_gap": 0.17574, 
			 "cosmo_polarized_energy": -5.87, 
			 "cosmo_cavitation_energy": 32.51, 
			 "cosmo_dispersion_energy": -24.92, 
			 "cosmo_repulsion_energy": 1.9, 
			 "cosmo_total_nonelectrostatic_energy": 9.49, 
			 "SMD_solvation_energy": 5.12 
		},
		"coords": [
			{
				"x": 5.4345974911,
				"y": -0.2435790688,
				"z": -0.086639113,
				"element": "Cl" 
			},
			{
				"x": 3.705043139,
				"y": 0.0345181955,
				"z": 0.0086374361,
				"element": "C" 
			},
			{
				"x": 2.869498112,
				"y": -0.5709353902,
				"z": -0.931420902,
				"element": "C" 
			},
			{
				"x": 1.4996292057,
				"y": -0.3499314936,
				"z": -0.8549871445,
				"element": "C" 
			},
			{
				"x": 0.9675602289,
				"y": 0.4668178504,
				"z": 0.1488965097,
				"element": "C" 
			},
			{
				"x": -0.389269992,
				"y": 0.7055575352,
				"z": 0.2509542984,
				"element": "O" 
			},
			{
				"x": -1.1866620814,
				"y": 0.095051317,
				"z": -0.6898286132,
				"element": "C" 
			},
			{
				"x": -0.6541408042,
				"y": -0.7220700505,
				"z": -1.6940799132,
				"element": "C" 
			},
			{
				"x": 0.6982293935,
				"y": -0.9613369316,
				"z": -1.7975645191,
				"element": "O" 
			},
			{
				"x": -1.4945238868,
				"y": -1.3184609794,
				"z": -2.6227702487,
				"element": "C" 
			},
			{
				"x": -2.8750978289,
				"y": -1.10674034,
				"z": -2.5604767583,
				"element": "C" 
			},
			{
				"x": -3.8902696163,
				"y": -1.8786570022,
				"z": -3.750911753,
				"element": "Cl" 
			},
			{
				"x": -3.4079189364,
				"y": -0.2897254467,
				"z": -1.5564774134,
				"element": "C" 
			},
			{
				"x": -5.1220222889,
				"y": 0.0097527464,
				"z": -1.4304462356,
				"element": "Cl" 
			},
			{
				"x": -2.555997086,
				"y": 0.3085976868,
				"z": -0.6233398577,
				"element": "C" 
			},
			{
				"x": 1.8119415828,
				"y": 1.0625597112,
				"z": 1.0774215124,
				"element": "C" 
			},
			{
				"x": 3.1904911125,
				"y": 0.8503217934,
				"z": 1.0140730407,
				"element": "C" 
			},
			{
				"x": 3.2618574633,
				"y": -1.2065410061,
				"z": -1.7161616897,
				"element": "H" 
			},
			{
				"x": -1.0680561705,
				"y": -1.9483099464,
				"z": -3.3942766221,
				"element": "H" 
			},
			{
				"x": -2.954762457,
				"y": 0.9432208324,
				"z": 0.1589843448,
				"element": "H" 
			},
			{
				"x": 1.377067243,
				"y": 1.6916654898,
				"z": 1.8466837436,
				"element": "H" 
			},
			{
				"x": 3.8523061766,
				"y": 1.3131244975,
				"z": 1.7363298976,
				"element": "H" 
			}
		],
		 "valence_orbital": [ 
			{
				"type": "occ",
				"energy": -0.31462,
				"method": "rhf"
			},
			{
				"type": "occ",
				"energy": -0.28265,
				"method": "rhf"
			},
			{
				"type": "occ",
				"energy": -0.26692,
				"method": "rhf"
			},
			{
				"type": "occ",
				"energy": -0.25589,
				"method": "rhf"
			},
			{
				"type": "occ",
				"energy": -0.21639,
				"method": "rhf"
			},
			{
				"type": "unocc",
				"energy": -0.04065,
				"method": "rhf"
			},
			{
				"type": "unocc",
				"energy": -0.03329,
				"method": "rhf"
			},
			{
				"type": "unocc",
				"energy": -0.02795,
				"method": "rhf"
			},
			{
				"type": "unocc",
				"energy": -0.00671,
				"method": "rhf"
			},
			{
				"type": "unocc",
				"energy": 0.00184,
				"method": "rhf"
			}
		],
		"cosmo_sigma_profile": { 
			"-0.025": 0.0,
			"-0.024": 0.0,
			"-0.023": 0.0,
			"-0.022": 0.0,
			"-0.021": 0.0,
			"-0.02": 0.0,
			"-0.019": 0.0,
			"-0.018": 0.0,
			"-0.017": 0.0,
			"-0.016": 0.0,
			"-0.015": 0.0,
			"-0.014": 0.0,
			"-0.013": 0.0,
			"-0.012": 0.0,
			"-0.011": 0.0,
			"-0.01": 0.0193901739959,
			"-0.009": 2.4147650058,
			"-0.008": 7.18275542764,
			"-0.007": 6.95194190409,
			"-0.006": 8.76557161004,
			"-0.005": 10.1100979145,
			"-0.004": 8.64210048126,
			"-0.003": 12.5637923464,
			"-0.002": 15.8773469968,
			"-0.001": 23.7209217636,
			"0.0": 39.5472845406,
			"0.001": 38.6454634577,
			"0.002": 30.0616142047,
			"0.003": 23.9640454158,
			"0.004": 27.230884811,
			"0.005": 11.1040387901,
			"0.006": 3.25828742671,
			"0.007": 0.141081994224,
			"0.008": 0.0,
			"0.009": 0.0,
			"0.01": 0.0,
			"0.011": 0.0,
			"0.012": 0.0,
			"0.013": 0.0,
			"0.014": 0.0,
			"0.015": 0.0,
			"0.016": 0.0,
			"0.017": 0.0,
			"0.018": 0.0,
			"0.019": 0.0,
			"0.02": 0.0,
			"0.021": 0.0,
			"0.022": 0.0,
			"0.023": 0.0,
			"0.024": 0.0,
			"0.025": 0.0
		}
	}
}
