{
	 "smiles": "S=C(NC1=CC=CC=C1)C1=CC=CC=C1", 
	 "Tm": 375.15, 
	 "num_atms": 26, 
	 "gaussian": { 
		 "optdone": 1, 
		 "sigma_profile": "yes", 
		 "theory": "DFT", 
		 "functional": "B3LYP", 
		 "basiset": "6-31G**", 
		 "properties": { 
			 "R2extent": 3868.8267, 
			 "electric_dipole_moment_norm": 4.55315331391, 
			 "electric_quadrupole_moment_norm": 17.3874439631, 
			 "total_energy": -954.956424301, 
			 "HOMO_LUMO_gap": 0.14283, 
			 "cosmo_polarized_energy": -12.61, 
			 "cosmo_cavitation_energy": 31.62, 
			 "cosmo_dispersion_energy": -22.68, 
			 "cosmo_repulsion_energy": 1.75, 
			 "cosmo_total_nonelectrostatic_energy": 10.69, 
			 "SMD_solvation_energy": 4.26 
		},
		"coords": [
			{
				"x": 0.5314902678,
				"y": -0.2507892731,
				"z": -3.3042109769,
				"element": "S" 
			},
			{
				"x": 0.078113861,
				"y": -0.4616248317,
				"z": -1.709789413,
				"element": "C" 
			},
			{
				"x": -0.4651189731,
				"y": -1.6485319864,
				"z": -1.3137954481,
				"element": "N" 
			},
			{
				"x": -1.2495513711,
				"y": -1.9883300095,
				"z": -0.1785985114,
				"element": "C" 
			},
			{
				"x": -1.2029398515,
				"y": -3.3158087533,
				"z": 0.2698281789,
				"element": "C" 
			},
			{
				"x": -1.9949859472,
				"y": -3.7215198373,
				"z": 1.3423922256,
				"element": "C" 
			},
			{
				"x": -2.8324267835,
				"y": -2.8073232972,
				"z": 1.983968213,
				"element": "C" 
			},
			{
				"x": -2.8812739752,
				"y": -1.4867625962,
				"z": 1.5321102921,
				"element": "C" 
			},
			{
				"x": -2.1057682372,
				"y": -1.0738283846,
				"z": 0.4500459106,
				"element": "C" 
			},
			{
				"x": 0.3320850237,
				"y": 0.5825647204,
				"z": -0.6795026877,
				"element": "C" 
			},
			{
				"x": 0.8840808907,
				"y": 0.2405448436,
				"z": 0.5671780577,
				"element": "C" 
			},
			{
				"x": 1.1921465224,
				"y": 1.2318508687,
				"z": 1.496662764,
				"element": "C" 
			},
			{
				"x": 0.9331965589,
				"y": 2.5728324798,
				"z": 1.205161827,
				"element": "C" 
			},
			{
				"x": 0.381287156,
				"y": 2.9202194719,
				"z": -0.0302949811,
				"element": "C" 
			},
			{
				"x": 0.0954320475,
				"y": 1.9346606281,
				"z": -0.9724829963,
				"element": "C" 
			},
			{
				"x": -0.4378587376,
				"y": -2.3502408458,
				"z": -2.0455297965,
				"element": "H" 
			},
			{
				"x": -0.5395572711,
				"y": -4.022554356,
				"z": -0.221498149,
				"element": "H" 
			},
			{
				"x": -1.9504498253,
				"y": -4.7529063705,
				"z": 1.679484467,
				"element": "H" 
			},
			{
				"x": -3.4457373802,
				"y": -3.1216615251,
				"z": 2.8227294573,
				"element": "H" 
			},
			{
				"x": -3.5407846053,
				"y": -0.7710274326,
				"z": 2.0140594944,
				"element": "H" 
			},
			{
				"x": -2.16863925,
				"y": -0.0537805113,
				"z": 0.0907385829,
				"element": "H" 
			},
			{
				"x": 1.0912158504,
				"y": -0.7991477618,
				"z": 0.7976842315,
				"element": "H" 
			},
			{
				"x": 1.635445559,
				"y": 0.9562484402,
				"z": 2.4490565791,
				"element": "H" 
			},
			{
				"x": 1.1661325008,
				"y": 3.3434357385,
				"z": 1.9343389132,
				"element": "H" 
			},
			{
				"x": 0.1819965045,
				"y": 3.9617135875,
				"z": -0.2648028937,
				"element": "H" 
			},
			{
				"x": -0.3084305346,
				"y": 2.1970669938,
				"z": -1.9443333407,
				"element": "H" 
			}
		],
		 "valence_orbital": [ 
			{
				"type": "occ",
				"energy": -0.2663,
				"method": "rhf"
			},
			{
				"type": "occ",
				"energy": -0.25897,
				"method": "rhf"
			},
			{
				"type": "occ",
				"energy": -0.24722,
				"method": "rhf"
			},
			{
				"type": "occ",
				"energy": -0.22119,
				"method": "rhf"
			},
			{
				"type": "occ",
				"energy": -0.20702,
				"method": "rhf"
			},
			{
				"type": "unocc",
				"energy": -0.06419,
				"method": "rhf"
			},
			{
				"type": "unocc",
				"energy": -0.01912,
				"method": "rhf"
			},
			{
				"type": "unocc",
				"energy": -0.01124,
				"method": "rhf"
			},
			{
				"type": "unocc",
				"energy": -0.00358,
				"method": "rhf"
			},
			{
				"type": "unocc",
				"energy": 0.02084,
				"method": "rhf"
			}
		],
		"cosmo_sigma_profile": { 
			"-0.025": 0.0,
			"-0.024": 0.0,
			"-0.023": 0.0,
			"-0.022": 0.0,
			"-0.021": 0.0,
			"-0.02": 0.0,
			"-0.019": 0.0,
			"-0.018": 0.0,
			"-0.017": 0.0,
			"-0.016": 0.0,
			"-0.015": 0.277907169212,
			"-0.014": 0.882981610344,
			"-0.013": 1.03243005102,
			"-0.012": 1.09041389613,
			"-0.011": 1.30568630257,
			"-0.01": 1.06914817805,
			"-0.009": 1.30757581359,
			"-0.008": 0.98772541345,
			"-0.007": 3.36176378934,
			"-0.006": 17.4528729406,
			"-0.005": 22.8002954523,
			"-0.004": 23.6385086007,
			"-0.003": 17.386209705,
			"-0.002": 15.2922787543,
			"-0.001": 15.377861361,
			"0.0": 16.613124266,
			"0.001": 13.2327863469,
			"0.002": 17.1555056594,
			"0.003": 17.7519143857,
			"0.004": 24.2154736565,
			"0.005": 14.2477657778,
			"0.006": 4.15030938441,
			"0.007": 5.53467005154,
			"0.008": 6.82962376064,
			"0.009": 5.38951992046,
			"0.01": 3.83878487901,
			"0.011": 3.01905933967,
			"0.012": 1.08861384617,
			"0.013": 0.0145462300611,
			"0.014": 0.0,
			"0.015": 0.0,
			"0.016": 0.0,
			"0.017": 0.0,
			"0.018": 0.0,
			"0.019": 0.0,
			"0.02": 0.0,
			"0.021": 0.0,
			"0.022": 0.0,
			"0.023": 0.0,
			"0.024": 0.0,
			"0.025": 0.0
		}
	}
}
