{
	 "smiles": "[O-][N+](=O)C1=CC2=C(C=C1)N=CNC2=O", 
	 "Tm": 558.15, 
	 "num_atms": 19, 
	 "gaussian": { 
		 "optdone": 1, 
		 "sigma_profile": "yes", 
		 "theory": "DFT", 
		 "functional": "B3LYP", 
		 "basiset": "6-31G**", 
		 "properties": { 
			 "R2extent": 2944.5014, 
			 "electric_dipole_moment_norm": 6.15636542937, 
			 "electric_quadrupole_moment_norm": 9.40591363292, 
			 "total_energy": -697.713727249, 
			 "HOMO_LUMO_gap": 0.16135, 
			 "cosmo_polarized_energy": -17.32, 
			 "cosmo_cavitation_energy": 24.92, 
			 "cosmo_dispersion_energy": -18.66, 
			 "cosmo_repulsion_energy": 1.43, 
			 "cosmo_total_nonelectrostatic_energy": 7.69, 
			 "SMD_solvation_energy": 6.01 
		},
		"coords": [
			{
				"x": -2.3557108701,
				"y": -3.3254139535,
				"z": 0.5636427452,
				"element": "O" 
			},
			{
				"x": -1.5315391161,
				"y": -2.9267777334,
				"z": 1.3843277742,
				"element": "N" 
			},
			{
				"x": -1.2378812036,
				"y": -3.5102255435,
				"z": 2.4278305017,
				"element": "O" 
			},
			{
				"x": -0.843134862,
				"y": -1.6575768349,
				"z": 1.1003529119,
				"element": "C" 
			},
			{
				"x": -1.147787132,
				"y": -0.9734281619,
				"z": -0.0641292586,
				"element": "C" 
			},
			{
				"x": -0.486405197,
				"y": 0.2321654927,
				"z": -0.3227020667,
				"element": "C" 
			},
			{
				"x": 0.4748421943,
				"y": 0.741225594,
				"z": 0.5890062142,
				"element": "C" 
			},
			{
				"x": 0.7548457078,
				"y": 0.0115946073,
				"z": 1.7636980947,
				"element": "C" 
			},
			{
				"x": 0.1027493988,
				"y": -1.1799950856,
				"z": 2.0215763213,
				"element": "C" 
			},
			{
				"x": 1.1544425033,
				"y": 1.9320535281,
				"z": 0.3732180946,
				"element": "N" 
			},
			{
				"x": 0.8717237792,
				"y": 2.5721035322,
				"z": -0.7125733164,
				"element": "C" 
			},
			{
				"x": -0.0380240813,
				"y": 2.1637125681,
				"z": -1.6514446971,
				"element": "N" 
			},
			{
				"x": -0.7903973097,
				"y": 0.9801709514,
				"z": -1.5524748633,
				"element": "C" 
			},
			{
				"x": -1.587454164,
				"y": 0.6661072775,
				"z": -2.42006706,
				"element": "O" 
			},
			{
				"x": -1.8801950729,
				"y": -1.3560467818,
				"z": -0.7641122212,
				"element": "H" 
			},
			{
				"x": 1.4914543407,
				"y": 0.4125959205,
				"z": 2.451035257,
				"element": "H" 
			},
			{
				"x": 0.3009972097,
				"y": -1.7572293783,
				"z": 2.9161070211,
				"element": "H" 
			},
			{
				"x": 1.3765728162,
				"y": 3.511440615,
				"z": -0.9293937672,
				"element": "H" 
			},
			{
				"x": -0.2057989414,
				"y": 2.721823386,
				"z": -2.4803976855,
				"element": "H" 
			}
		],
		 "valence_orbital": [ 
			{
				"type": "occ",
				"energy": -0.3031,
				"method": "rhf"
			},
			{
				"type": "occ",
				"energy": -0.29397,
				"method": "rhf"
			},
			{
				"type": "occ",
				"energy": -0.28948,
				"method": "rhf"
			},
			{
				"type": "occ",
				"energy": -0.28638,
				"method": "rhf"
			},
			{
				"type": "occ",
				"energy": -0.26009,
				"method": "rhf"
			},
			{
				"type": "unocc",
				"energy": -0.09874,
				"method": "rhf"
			},
			{
				"type": "unocc",
				"energy": -0.06702,
				"method": "rhf"
			},
			{
				"type": "unocc",
				"energy": -0.03901,
				"method": "rhf"
			},
			{
				"type": "unocc",
				"energy": 0.00601,
				"method": "rhf"
			},
			{
				"type": "unocc",
				"energy": 0.05432,
				"method": "rhf"
			}
		],
		"cosmo_sigma_profile": { 
			"-0.025": 0.0,
			"-0.024": 0.0,
			"-0.023": 0.0,
			"-0.022": 0.0,
			"-0.021": 0.0,
			"-0.02": 0.0,
			"-0.019": 0.0,
			"-0.018": 0.305081138801,
			"-0.017": 1.88516184321,
			"-0.016": 1.60831477522,
			"-0.015": 1.09891422943,
			"-0.014": 1.33542138525,
			"-0.013": 0.889475215068,
			"-0.012": 1.43446159424,
			"-0.011": 2.10384972198,
			"-0.01": 3.19411882612,
			"-0.009": 2.27770807587,
			"-0.008": 4.74416347012,
			"-0.007": 5.91751422197,
			"-0.006": 8.19254832853,
			"-0.005": 10.8273937668,
			"-0.004": 10.8161070705,
			"-0.003": 14.7057459295,
			"-0.002": 15.2554919816,
			"-0.001": 20.943797903,
			"0.0": 13.3655993999,
			"0.001": 9.12205670775,
			"0.002": 5.57259905053,
			"0.003": 5.22622327888,
			"0.004": 5.29926651027,
			"0.005": 6.12606523343,
			"0.006": 5.68754592239,
			"0.007": 10.8653215813,
			"0.008": 8.70272590917,
			"0.009": 6.95471050451,
			"0.01": 4.28888238485,
			"0.011": 4.44089307634,
			"0.012": 5.96825770057,
			"0.013": 1.21782149933,
			"0.014": 0.917143010733,
			"0.015": 0.0632603260504,
			"0.016": 0.0,
			"0.017": 0.0,
			"0.018": 0.0,
			"0.019": 0.0,
			"0.02": 0.0,
			"0.021": 0.0,
			"0.022": 0.0,
			"0.023": 0.0,
			"0.024": 0.0,
			"0.025": 0.0
		}
	}
}
