{
	 "smiles": "IC1=C(N=CC=C1)C#N", 
	 "Tm": 372.15, 
	 "num_atms": 12, 
	 "gaussian": { 
		 "optdone": 1, 
		 "sigma_profile": "no", 
		 "theory": "DFT", 
		 "functional": "B3LYP", 
		 "basiset": "6-31G**", 
		 "properties": { 
			 "R2extent": 1553.2424, 
			 "electric_dipole_moment_norm": 5.70042501398, 
			 "electric_quadrupole_moment_norm": 11.2560128967, 
			 "total_energy": -351.299151213, 
			 "HOMO_LUMO_gap": 0.18957, 
			 "cosmo_polarized_energy": -86232.3, 
			 "cosmo_cavitation_energy": 20.96, 
			 "cosmo_dispersion_energy": -16.34, 
			 "cosmo_repulsion_energy": 1.3, 
			 "cosmo_total_nonelectrostatic_energy": 5.92, 
			 "SMD_solvation_energy": 2.8 
		},
		"coords": [
			{
				"x": 1.5707348395,
				"y": 0.1682239721,
				"z": -0.0586214662,
				"element": "I" 
			},
			{
				"x": -0.4188954429,
				"y": 0.7814078474,
				"z": 0.2678037637,
				"element": "C" 
			},
			{
				"x": -1.4522648106,
				"y": -0.1392094905,
				"z": 0.5289825127,
				"element": "C" 
			},
			{
				"x": -2.7248575755,
				"y": 0.2385161712,
				"z": 0.7387546589,
				"element": "N" 
			},
			{
				"x": -3.0136913485,
				"y": 1.5382049559,
				"z": 0.6964922725,
				"element": "C" 
			},
			{
				"x": -2.0586081789,
				"y": 2.5266363537,
				"z": 0.4449311237,
				"element": "C" 
			},
			{
				"x": -0.7391146171,
				"y": 2.140235881,
				"z": 0.227064878,
				"element": "C" 
			},
			{
				"x": -1.2077856185,
				"y": -1.5597845847,
				"z": 0.5883836545,
				"element": "C" 
			},
			{
				"x": -1.027572912,
				"y": -2.7064770064,
				"z": 0.6394903029,
				"element": "N" 
			},
			{
				"x": -4.0541783836,
				"y": 1.8016946459,
				"z": 0.871359938,
				"element": "H" 
			},
			{
				"x": -2.3406613549,
				"y": 3.5742790902,
				"z": 0.4200903675,
				"element": "H" 
			},
			{
				"x": 0.030095403,
				"y": 2.8781721643,
				"z": 0.0287679937,
				"element": "H" 
			}
		],
		 "valence_orbital": [ 
			{
				"type": "occ",
				"energy": -0.34035,
				"method": "rhf"
			},
			{
				"type": "occ",
				"energy": -0.30142,
				"method": "rhf"
			},
			{
				"type": "occ",
				"energy": -0.29652,
				"method": "rhf"
			},
			{
				"type": "occ",
				"energy": -0.28272,
				"method": "rhf"
			},
			{
				"type": "occ",
				"energy": -0.26708,
				"method": "rhf"
			},
			{
				"type": "unocc",
				"energy": -0.07751,
				"method": "rhf"
			},
			{
				"type": "unocc",
				"energy": -0.05976,
				"method": "rhf"
			},
			{
				"type": "unocc",
				"energy": -0.05751,
				"method": "rhf"
			},
			{
				"type": "unocc",
				"energy": 0.02293,
				"method": "rhf"
			},
			{
				"type": "unocc",
				"energy": 0.04159,
				"method": "rhf"
			}
		],
		"cosmo_sigma_profile": { 
			"0.0": 0.0,
			"0.0": 0.0,
			"0.0": 0.0,
			"0.0": 0.0,
			"0.0": 0.0,
			"0.0": 0.0,
			"0.0": 0.0,
			"0.0": 0.0,
			"0.0": 0.0,
			"0.0": 0.0,
			"0.0": 0.0,
			"0.0": 0.0,
			"0.0": 0.0,
			"0.0": 0.0,
			"0.0": 0.0,
			"0.0": 0.0,
			"0.0": 0.0,
			"0.0": 0.0,
			"0.0": 0.0,
			"0.0": 0.0,
			"0.0": 0.0,
			"0.0": 0.0,
			"0.0": 0.0,
			"0.0": 0.0,
			"0.0": 0.0,
			"0.0": 0.0,
			"0.0": 0.0,
			"0.0": 0.0,
			"0.0": 0.0,
			"0.0": 0.0,
			"0.0": 0.0,
			"0.0": 0.0,
			"0.0": 0.0,
			"0.0": 0.0,
			"0.0": 0.0,
			"0.0": 0.0,
			"0.0": 0.0,
			"0.0": 0.0,
			"0.0": 0.0,
			"0.0": 0.0,
			"0.0": 0.0,
			"0.0": 0.0,
			"0.0": 0.0,
			"0.0": 0.0,
			"0.0": 0.0,
			"0.0": 0.0,
			"0.0": 0.0,
			"0.0": 0.0,
			"0.0": 0.0,
			"0.0": 0.0,
			"0.0": 0.0
		}
	}
}
