{
	 "smiles": "CC1=C(CC(O)=O)SC2=C1C=C(Cl)C=C2", 
	 "Tm": 451.15, 
	 "num_atms": 24, 
	 "gaussian": { 
		 "optdone": 1, 
		 "sigma_profile": "yes", 
		 "theory": "DFT", 
		 "functional": "B3LYP", 
		 "basiset": "6-31G**", 
		 "properties": { 
			 "R2extent": 5110.0537, 
			 "electric_dipole_moment_norm": 3.29690537626, 
			 "electric_quadrupole_moment_norm": 23.0628393757, 
			 "total_energy": -1433.44231997, 
			 "HOMO_LUMO_gap": 0.18526, 
			 "cosmo_polarized_energy": -13.74, 
			 "cosmo_cavitation_energy": 31.54, 
			 "cosmo_dispersion_energy": -23.12, 
			 "cosmo_repulsion_energy": 1.76, 
			 "cosmo_total_nonelectrostatic_energy": 10.19, 
			 "SMD_solvation_energy": 5.56 
		},
		"coords": [
			{
				"x": -1.4768221358,
				"y": 2.0872191161,
				"z": 0.6468213108,
				"element": "C" 
			},
			{
				"x": -0.7237662239,
				"y": 0.8342080536,
				"z": 0.2961157056,
				"element": "C" 
			},
			{
				"x": -0.2630487043,
				"y": -0.0898788815,
				"z": 1.1915791089,
				"element": "C" 
			},
			{
				"x": -0.4158984448,
				"y": -0.099747138,
				"z": 2.68673488,
				"element": "C" 
			},
			{
				"x": -1.7341899147,
				"y": -0.6914625381,
				"z": 3.2211746261,
				"element": "C" 
			},
			{
				"x": -2.2699605881,
				"y": -1.7112861402,
				"z": 2.5148371305,
				"element": "O" 
			},
			{
				"x": -2.2502750689,
				"y": -0.299788046,
				"z": 4.2368253266,
				"element": "O" 
			},
			{
				"x": 0.5607975075,
				"y": -1.449648874,
				"z": 0.4087229692,
				"element": "S" 
			},
			{
				"x": 0.2757806944,
				"y": -0.7577697413,
				"z": -1.1768297194,
				"element": "C" 
			},
			{
				"x": -0.4154567946,
				"y": 0.471778372,
				"z": -1.073053665,
				"element": "C" 
			},
			{
				"x": -0.7256708088,
				"y": 1.1806947113,
				"z": -2.2477489232,
				"element": "C" 
			},
			{
				"x": -0.3397325681,
				"y": 0.6489336956,
				"z": -3.4692291366,
				"element": "C" 
			},
			{
				"x": -0.7203434763,
				"y": 1.5245490487,
				"z": -4.945546304,
				"element": "Cl" 
			},
			{
				"x": 0.3480112653,
				"y": -0.5720017873,
				"z": -3.5672937692,
				"element": "C" 
			},
			{
				"x": 0.6593388299,
				"y": -1.2825066017,
				"z": -2.413649396,
				"element": "C" 
			},
			{
				"x": -2.4722534506,
				"y": 2.0862194788,
				"z": 0.1874900646,
				"element": "H" 
			},
			{
				"x": -0.9516841136,
				"y": 2.9767469295,
				"z": 0.2796080289,
				"element": "H" 
			},
			{
				"x": -1.6136206028,
				"y": 2.1986846899,
				"z": 1.7240375155,
				"element": "H" 
			},
			{
				"x": 0.3960451465,
				"y": -0.6749310715,
				"z": 3.1495112213,
				"element": "H" 
			},
			{
				"x": -0.3458423761,
				"y": 0.9098435209,
				"z": 3.0961666033,
				"element": "H" 
			},
			{
				"x": -1.7551988143,
				"y": -1.8739710789,
				"z": 1.707684312,
				"element": "H" 
			},
			{
				"x": -1.256931385,
				"y": 2.1247654551,
				"z": -2.2054911522,
				"element": "H" 
			},
			{
				"x": 0.6315905325,
				"y": -0.9523973812,
				"z": -4.5418533728,
				"element": "H" 
			},
			{
				"x": 1.1909314946,
				"y": -2.2262537917,
				"z": -2.481713365,
				"element": "H" 
			}
		],
		 "valence_orbital": [ 
			{
				"type": "occ",
				"energy": -0.31759,
				"method": "rhf"
			},
			{
				"type": "occ",
				"energy": -0.29857,
				"method": "rhf"
			},
			{
				"type": "occ",
				"energy": -0.27903,
				"method": "rhf"
			},
			{
				"type": "occ",
				"energy": -0.24614,
				"method": "rhf"
			},
			{
				"type": "occ",
				"energy": -0.23606,
				"method": "rhf"
			},
			{
				"type": "unocc",
				"energy": -0.0508,
				"method": "rhf"
			},
			{
				"type": "unocc",
				"energy": -0.02638,
				"method": "rhf"
			},
			{
				"type": "unocc",
				"energy": -0.01073,
				"method": "rhf"
			},
			{
				"type": "unocc",
				"energy": 0.00873,
				"method": "rhf"
			},
			{
				"type": "unocc",
				"energy": 0.02108,
				"method": "rhf"
			}
		],
		"cosmo_sigma_profile": { 
			"-0.025": 0.0,
			"-0.024": 0.0,
			"-0.023": 0.0,
			"-0.022": 0.0,
			"-0.021": 0.0,
			"-0.02": 0.0,
			"-0.019": 0.0,
			"-0.018": 0.0,
			"-0.017": 0.0,
			"-0.016": 0.0,
			"-0.015": 0.0,
			"-0.014": 0.0553322645836,
			"-0.013": 0.542672387654,
			"-0.012": 0.939865110889,
			"-0.011": 1.29368516097,
			"-0.01": 2.34409724228,
			"-0.009": 3.10094484561,
			"-0.008": 6.63719444215,
			"-0.007": 11.316694571,
			"-0.006": 10.8217355064,
			"-0.005": 16.9619789106,
			"-0.004": 17.2889951335,
			"-0.003": 15.4631184671,
			"-0.002": 15.9087095588,
			"-0.001": 17.3136746955,
			"0.0": 16.450519785,
			"0.001": 16.6386745431,
			"0.002": 27.6193580034,
			"0.003": 24.4871662124,
			"0.004": 13.5095732841,
			"0.005": 9.59177040346,
			"0.006": 3.17205373968,
			"0.007": 1.84309992202,
			"0.008": 2.69138604612,
			"0.009": 3.78843924842,
			"0.01": 4.8322170274,
			"0.011": 4.92810992847,
			"0.012": 5.36563892133,
			"0.013": 1.66228013937,
			"0.014": 0.0154248907029,
			"0.015": 0.0,
			"0.016": 0.0,
			"0.017": 0.0,
			"0.018": 0.0,
			"0.019": 0.0,
			"0.02": 0.0,
			"0.021": 0.0,
			"0.022": 0.0,
			"0.023": 0.0,
			"0.024": 0.0,
			"0.025": 0.0
		}
	}
}
