{
	 "smiles": "CN1C(=O)CC2=C1C=CC(=C2)S(Cl)(=O)=O", 
	 "Tm": 429.15, 
	 "num_atms": 23, 
	 "gaussian": { 
		 "optdone": 1, 
		 "sigma_profile": "yes", 
		 "theory": "DFT", 
		 "functional": "B3LYP", 
		 "basiset": "6-31G**", 
		 "properties": { 
			 "R2extent": 5315.2632, 
			 "electric_dipole_moment_norm": 4.80371960256, 
			 "electric_quadrupole_moment_norm": 26.6710151303, 
			 "total_energy": -1486.53929276, 
			 "HOMO_LUMO_gap": 0.15956, 
			 "cosmo_polarized_energy": -15.51, 
			 "cosmo_cavitation_energy": 30.74, 
			 "cosmo_dispersion_energy": -22.94, 
			 "cosmo_repulsion_energy": 1.75, 
			 "cosmo_total_nonelectrostatic_energy": 9.55, 
			 "SMD_solvation_energy": 4.41 
		},
		"coords": [
			{
				"x": 0.1171276509,
				"y": -0.6978342772,
				"z": 3.6335425526,
				"element": "C" 
			},
			{
				"x": 0.5705716874,
				"y": -0.7968284018,
				"z": 2.2593276458,
				"element": "N" 
			},
			{
				"x": 1.1762845066,
				"y": -1.9493422515,
				"z": 1.7428716368,
				"element": "C" 
			},
			{
				"x": 1.3816735024,
				"y": -2.9656902148,
				"z": 2.3724048324,
				"element": "O" 
			},
			{
				"x": 1.5084587276,
				"y": -1.659693041,
				"z": 0.2738675776,
				"element": "C" 
			},
			{
				"x": 1.0163352069,
				"y": -0.2515755123,
				"z": 0.075408155,
				"element": "C" 
			},
			{
				"x": 0.4718646225,
				"y": 0.2017087257,
				"z": 1.2979289518,
				"element": "C" 
			},
			{
				"x": -0.0634777342,
				"y": 1.4823007726,
				"z": 1.440338085,
				"element": "C" 
			},
			{
				"x": -0.0545275477,
				"y": 2.3227156291,
				"z": 0.3259338599,
				"element": "C" 
			},
			{
				"x": 0.4873164056,
				"y": 1.8683453323,
				"z": -0.8779672884,
				"element": "C" 
			},
			{
				"x": 1.0280070585,
				"y": 0.5791416005,
				"z": -1.0265503579,
				"element": "C" 
			},
			{
				"x": 0.4933612047,
				"y": 2.9594256928,
				"z": -2.2778961758,
				"element": "S" 
			},
			{
				"x": -1.364177137,
				"y": 2.468398099,
				"z": -3.2282924554,
				"element": "Cl" 
			},
			{
				"x": 0.354202953,
				"y": 4.3384703279,
				"z": -1.8251534217,
				"element": "O" 
			},
			{
				"x": 1.5343682304,
				"y": 2.5456699838,
				"z": -3.2115968416,
				"element": "O" 
			},
			{
				"x": 0.3402377047,
				"y": -1.6509693367,
				"z": 4.1144521824,
				"element": "H" 
			},
			{
				"x": 0.6406509331,
				"y": 0.1069381154,
				"z": 4.1604081662,
				"element": "H" 
			},
			{
				"x": -0.9612433614,
				"y": -0.5121327673,
				"z": 3.676118202,
				"element": "H" 
			},
			{
				"x": 1.0079093388,
				"y": -2.3955277997,
				"z": -0.3649583517,
				"element": "H" 
			},
			{
				"x": 2.5861373672,
				"y": -1.775537246,
				"z": 0.1145718978,
				"element": "H" 
			},
			{
				"x": -0.4727640219,
				"y": 1.8244810163,
				"z": 2.3842060727,
				"element": "H" 
			},
			{
				"x": -0.4544301776,
				"y": 3.3283676355,
				"z": 0.3901596034,
				"element": "H" 
			},
			{
				"x": 1.4462128796,
				"y": 0.2676679172,
				"z": -1.9776245288,
				"element": "H" 
			}
		],
		 "valence_orbital": [ 
			{
				"type": "occ",
				"energy": -0.32016,
				"method": "rhf"
			},
			{
				"type": "occ",
				"energy": -0.30995,
				"method": "rhf"
			},
			{
				"type": "occ",
				"energy": -0.29065,
				"method": "rhf"
			},
			{
				"type": "occ",
				"energy": -0.2835,
				"method": "rhf"
			},
			{
				"type": "occ",
				"energy": -0.24772,
				"method": "rhf"
			},
			{
				"type": "unocc",
				"energy": -0.08816,
				"method": "rhf"
			},
			{
				"type": "unocc",
				"energy": -0.04666,
				"method": "rhf"
			},
			{
				"type": "unocc",
				"energy": -0.04045,
				"method": "rhf"
			},
			{
				"type": "unocc",
				"energy": -0.00043,
				"method": "rhf"
			},
			{
				"type": "unocc",
				"energy": 0.05617,
				"method": "rhf"
			}
		],
		"cosmo_sigma_profile": { 
			"-0.025": 0.0,
			"-0.024": 0.0,
			"-0.023": 0.0,
			"-0.022": 0.0,
			"-0.021": 0.0,
			"-0.02": 0.0,
			"-0.019": 0.0,
			"-0.018": 0.0,
			"-0.017": 0.0,
			"-0.016": 0.0,
			"-0.015": 0.0,
			"-0.014": 0.0,
			"-0.013": 0.0,
			"-0.012": 0.0,
			"-0.011": 0.0,
			"-0.01": 0.0,
			"-0.009": 0.729745305439,
			"-0.008": 8.54565727684,
			"-0.007": 13.7891866526,
			"-0.006": 19.9826090116,
			"-0.005": 17.8548101396,
			"-0.004": 16.7906897396,
			"-0.003": 17.4859417926,
			"-0.002": 16.3329302804,
			"-0.001": 13.0922672866,
			"0.0": 17.1702252321,
			"0.001": 18.0015823699,
			"0.002": 12.9187031734,
			"0.003": 13.1769756089,
			"0.004": 14.9628968215,
			"0.005": 6.00336016503,
			"0.006": 5.87291989757,
			"0.007": 5.4628062367,
			"0.008": 10.5901984663,
			"0.009": 7.87202116572,
			"0.01": 2.51018887214,
			"0.011": 2.76292037182,
			"0.012": 5.19525718974,
			"0.013": 1.80106028807,
			"0.014": 0.0541984056484,
			"0.015": 0.0,
			"0.016": 0.0,
			"0.017": 0.0,
			"0.018": 0.0,
			"0.019": 0.0,
			"0.02": 0.0,
			"0.021": 0.0,
			"0.022": 0.0,
			"0.023": 0.0,
			"0.024": 0.0,
			"0.025": 0.0
		}
	}
}
