{
	 "smiles": "CC1=C(C=C(F)C=C1Cl)S(N)(=O)=O", 
	 "Tm": 392.15, 
	 "num_atms": 20, 
	 "gaussian": { 
		 "optdone": 1, 
		 "sigma_profile": "yes", 
		 "theory": "DFT", 
		 "functional": "B3LYP", 
		 "basiset": "6-31G**", 
		 "properties": { 
			 "R2extent": 3251.6076, 
			 "electric_dipole_moment_norm": 3.06470896824, 
			 "electric_quadrupole_moment_norm": 17.3301878521, 
			 "total_energy": -1434.3087109, 
			 "HOMO_LUMO_gap": 0.2059, 
			 "cosmo_polarized_energy": -12.82, 
			 "cosmo_cavitation_energy": 27.11, 
			 "cosmo_dispersion_energy": -20.64, 
			 "cosmo_repulsion_energy": 1.55, 
			 "cosmo_total_nonelectrostatic_energy": 8.02, 
			 "SMD_solvation_energy": 4.73 
		},
		"coords": [
			{
				"x": -0.2323443162,
				"y": 1.0203205449,
				"z": -1.4689334988,
				"element": "C" 
			},
			{
				"x": 0.1716608578,
				"y": 0.3772033359,
				"z": -0.1659327732,
				"element": "C" 
			},
			{
				"x": -0.3664347881,
				"y": -0.8526984422,
				"z": 0.2736676845,
				"element": "C" 
			},
			{
				"x": -0.0067252072,
				"y": -1.465301344,
				"z": 1.4730520303,
				"element": "C" 
			},
			{
				"x": 0.9235790378,
				"y": -0.8267197673,
				"z": 2.2797907677,
				"element": "C" 
			},
			{
				"x": 1.2875868108,
				"y": -1.3961475817,
				"z": 3.4419582769,
				"element": "F" 
			},
			{
				"x": 1.4851226331,
				"y": 0.3875884903,
				"z": 1.9203646431,
				"element": "C" 
			},
			{
				"x": 1.0992930205,
				"y": 0.9684241106,
				"z": 0.710855005,
				"element": "C" 
			},
			{
				"x": 1.8408074146,
				"y": 2.5166612,
				"z": 0.322590638,
				"element": "Cl" 
			},
			{
				"x": -1.5567828676,
				"y": -1.7826085233,
				"z": -0.7207482742,
				"element": "S" 
			},
			{
				"x": -2.8666897463,
				"y": -0.7140588935,
				"z": -0.8322342106,
				"element": "N" 
			},
			{
				"x": -1.0417556558,
				"y": -1.940906885,
				"z": -2.0834301208,
				"element": "O" 
			},
			{
				"x": -1.963285709,
				"y": -2.944306373,
				"z": 0.0752959585,
				"element": "O" 
			},
			{
				"x": -1.2573277438,
				"y": 1.4000558576,
				"z": -1.3997498973,
				"element": "H" 
			},
			{
				"x": -0.2040816621,
				"y": 0.2930432409,
				"z": -2.2823624214,
				"element": "H" 
			},
			{
				"x": 0.4252029262,
				"y": 1.8520315001,
				"z": -1.7157036957,
				"element": "H" 
			},
			{
				"x": -0.4422847154,
				"y": -2.4126023518,
				"z": 1.7646227745,
				"element": "H" 
			},
			{
				"x": 2.206162884,
				"y": 0.8701133757,
				"z": 2.5685013026,
				"element": "H" 
			},
			{
				"x": -3.1956038495,
				"y": -0.7066763705,
				"z": -1.794820027,
				"element": "H" 
			},
			{
				"x": -3.6039993238,
				"y": -1.0042151236,
				"z": -0.194284162,
				"element": "H" 
			}
		],
		 "valence_orbital": [ 
			{
				"type": "occ",
				"energy": -0.32332,
				"method": "rhf"
			},
			{
				"type": "occ",
				"energy": -0.31445,
				"method": "rhf"
			},
			{
				"type": "occ",
				"energy": -0.30686,
				"method": "rhf"
			},
			{
				"type": "occ",
				"energy": -0.27614,
				"method": "rhf"
			},
			{
				"type": "occ",
				"energy": -0.25922,
				"method": "rhf"
			},
			{
				"type": "unocc",
				"energy": -0.05332,
				"method": "rhf"
			},
			{
				"type": "unocc",
				"energy": -0.02705,
				"method": "rhf"
			},
			{
				"type": "unocc",
				"energy": 0.0064,
				"method": "rhf"
			},
			{
				"type": "unocc",
				"energy": 0.04938,
				"method": "rhf"
			},
			{
				"type": "unocc",
				"energy": 0.07359,
				"method": "rhf"
			}
		],
		"cosmo_sigma_profile": { 
			"-0.025": 0.0,
			"-0.024": 0.0,
			"-0.023": 0.0,
			"-0.022": 0.0,
			"-0.021": 0.0,
			"-0.02": 0.0,
			"-0.019": 0.0,
			"-0.018": 0.0,
			"-0.017": 0.0,
			"-0.016": 0.0612454121868,
			"-0.015": 1.87306691888,
			"-0.014": 2.39326749257,
			"-0.013": 2.96529893449,
			"-0.012": 2.41679718228,
			"-0.011": 2.21174687542,
			"-0.01": 1.80241587508,
			"-0.009": 3.18977445995,
			"-0.008": 3.85378191429,
			"-0.007": 3.7653087189,
			"-0.006": 4.64261946245,
			"-0.005": 4.17146924186,
			"-0.004": 7.26877375351,
			"-0.003": 12.3403323701,
			"-0.002": 18.8668950998,
			"-0.001": 28.9778772262,
			"0.0": 27.4209522194,
			"0.001": 14.1857873546,
			"0.002": 11.6252857737,
			"0.003": 16.969656702,
			"0.004": 14.1377433278,
			"0.005": 3.86312659461,
			"0.006": 3.16512116239,
			"0.007": 2.9829407301,
			"0.008": 4.02003866791,
			"0.009": 4.6387193047,
			"0.01": 7.63961921757,
			"0.011": 6.93002698814,
			"0.012": 0.693656028111,
			"0.013": 0.0,
			"0.014": 0.0,
			"0.015": 0.0,
			"0.016": 0.0,
			"0.017": 0.0,
			"0.018": 0.0,
			"0.019": 0.0,
			"0.02": 0.0,
			"0.021": 0.0,
			"0.022": 0.0,
			"0.023": 0.0,
			"0.024": 0.0,
			"0.025": 0.0
		}
	}
}
