{
	 "smiles": "NNC(=S)NCCN1CCOCC1", 
	 "Tm": 439.15, 
	 "num_atms": 29, 
	 "gaussian": { 
		 "optdone": 1, 
		 "sigma_profile": "yes", 
		 "theory": "DFT", 
		 "functional": "B3LYP", 
		 "basiset": "6-31G**", 
		 "properties": { 
			 "R2extent": 4406.253, 
			 "electric_dipole_moment_norm": 3.99160157957, 
			 "electric_quadrupole_moment_norm": 14.0411040267, 
			 "total_energy": -968.767407732, 
			 "HOMO_LUMO_gap": 0.20579, 
			 "cosmo_polarized_energy": -18.34, 
			 "cosmo_cavitation_energy": 32.06, 
			 "cosmo_dispersion_energy": -23.57, 
			 "cosmo_repulsion_energy": 1.87, 
			 "cosmo_total_nonelectrostatic_energy": 10.35, 
			 "SMD_solvation_energy": 3.34 
		},
		"coords": [
			{
				"x": 3.7283493169,
				"y": 0.66628429,
				"z": 2.3551955147,
				"element": "N" 
			},
			{
				"x": 2.6236256634,
				"y": 0.242650311,
				"z": 1.5943588783,
				"element": "N" 
			},
			{
				"x": 1.3320380726,
				"y": 0.6257062443,
				"z": 1.8676422783,
				"element": "C" 
			},
			{
				"x": 0.9171315319,
				"y": 1.463425826,
				"z": 3.2674192797,
				"element": "S" 
			},
			{
				"x": 0.4446468675,
				"y": 0.265889007,
				"z": 0.9057972354,
				"element": "N" 
			},
			{
				"x": -0.9949900263,
				"y": 0.4272675878,
				"z": 1.0229536077,
				"element": "C" 
			},
			{
				"x": -1.6344368756,
				"y": 0.0646299161,
				"z": -0.3212540165,
				"element": "C" 
			},
			{
				"x": -1.1721113226,
				"y": -1.234681231,
				"z": -0.8200214926,
				"element": "N" 
			},
			{
				"x": -1.4226418021,
				"y": -1.4031502873,
				"z": -2.2563248137,
				"element": "C" 
			},
			{
				"x": -0.8478501442,
				"y": -2.7362742288,
				"z": -2.7299386898,
				"element": "C" 
			},
			{
				"x": -1.4046665797,
				"y": -3.8236551524,
				"z": -2.0063809772,
				"element": "O" 
			},
			{
				"x": -1.1636268236,
				"y": -3.6793196575,
				"z": -0.6144951988,
				"element": "C" 
			},
			{
				"x": -1.7410120056,
				"y": -2.3698585632,
				"z": -0.0806582066,
				"element": "C" 
			},
			{
				"x": 3.5447407452,
				"y": 1.6277172994,
				"z": 2.6516108206,
				"element": "H" 
			},
			{
				"x": 3.7258490683,
				"y": 0.1222149866,
				"z": 3.2173179061,
				"element": "H" 
			},
			{
				"x": 2.8641986987,
				"y": 0.046719337,
				"z": 0.6313090106,
				"element": "H" 
			},
			{
				"x": 0.7061540559,
				"y": -0.4418468514,
				"z": 0.2240924083,
				"element": "H" 
			},
			{
				"x": -1.2282648633,
				"y": 1.4640223734,
				"z": 1.2790955307,
				"element": "H" 
			},
			{
				"x": -1.3921427722,
				"y": -0.1891319211,
				"z": 1.8408910762,
				"element": "H" 
			},
			{
				"x": -2.7336481483,
				"y": 0.108587054,
				"z": -0.2218873261,
				"element": "H" 
			},
			{
				"x": -1.3451543638,
				"y": 0.8194874475,
				"z": -1.0610248685,
				"element": "H" 
			},
			{
				"x": -0.9447462593,
				"y": -0.5802483371,
				"z": -2.8005737202,
				"element": "H" 
			},
			{
				"x": -2.5042880447,
				"y": -1.3761428047,
				"z": -2.4853070515,
				"element": "H" 
			},
			{
				"x": -1.0857194589,
				"y": -2.9050112815,
				"z": -3.7840732033,
				"element": "H" 
			},
			{
				"x": 0.2487945244,
				"y": -2.7227682759,
				"z": -2.6143149104,
				"element": "H" 
			},
			{
				"x": -0.0805921886,
				"y": -3.7119939342,
				"z": -0.409677134,
				"element": "H" 
			},
			{
				"x": -1.6365191826,
				"y": -4.5344748856,
				"z": -0.1235333325,
				"element": "H" 
			},
			{
				"x": -2.8428903005,
				"y": -2.3928513999,
				"z": -0.1739930208,
				"element": "H" 
			},
			{
				"x": -1.4979273828,
				"y": -2.2749928685,
				"z": 0.9825744158,
				"element": "H" 
			}
		],
		 "valence_orbital": [ 
			{
				"type": "occ",
				"energy": -0.26688,
				"method": "rhf"
			},
			{
				"type": "occ",
				"energy": -0.25262,
				"method": "rhf"
			},
			{
				"type": "occ",
				"energy": -0.24091,
				"method": "rhf"
			},
			{
				"type": "occ",
				"energy": -0.21661,
				"method": "rhf"
			},
			{
				"type": "occ",
				"energy": -0.20274,
				"method": "rhf"
			},
			{
				"type": "unocc",
				"energy": 0.00305,
				"method": "rhf"
			},
			{
				"type": "unocc",
				"energy": 0.06572,
				"method": "rhf"
			},
			{
				"type": "unocc",
				"energy": 0.07669,
				"method": "rhf"
			},
			{
				"type": "unocc",
				"energy": 0.09476,
				"method": "rhf"
			},
			{
				"type": "unocc",
				"energy": 0.0985,
				"method": "rhf"
			}
		],
		"cosmo_sigma_profile": { 
			"-0.025": 0.0,
			"-0.024": 0.0,
			"-0.023": 0.0,
			"-0.022": 0.0,
			"-0.021": 0.0,
			"-0.02": 0.0,
			"-0.019": 0.0,
			"-0.018": 0.0,
			"-0.017": 0.0,
			"-0.016": 0.539685133675,
			"-0.015": 1.74016523612,
			"-0.014": 1.31455089578,
			"-0.013": 1.26595023326,
			"-0.012": 1.26324572254,
			"-0.011": 1.37507950076,
			"-0.01": 3.2375488554,
			"-0.009": 2.29435711707,
			"-0.008": 3.75022989384,
			"-0.007": 2.75768480739,
			"-0.006": 3.38317345871,
			"-0.005": 16.3735494337,
			"-0.004": 24.983545001,
			"-0.003": 36.4139588204,
			"-0.002": 33.155315008,
			"-0.001": 18.4668166789,
			"0.0": 10.2068072596,
			"0.001": 8.67081578642,
			"0.002": 6.29816658176,
			"0.003": 8.10362361203,
			"0.004": 8.41282665257,
			"0.005": 7.38309438513,
			"0.006": 5.40576752284,
			"0.007": 5.32272434859,
			"0.008": 6.15572393369,
			"0.009": 6.32936319225,
			"0.01": 8.35702646397,
			"0.011": 9.76288603743,
			"0.012": 3.29785352662,
			"0.013": 2.43913231476,
			"0.014": 1.66096132312,
			"0.015": 0.595814321369,
			"0.016": 0.485710515369,
			"0.017": 0.0909089079028,
			"0.018": 0.0,
			"0.019": 0.0,
			"0.02": 0.0,
			"0.021": 0.0,
			"0.022": 0.0,
			"0.023": 0.0,
			"0.024": 0.0,
			"0.025": 0.0
		}
	}
}
