{
	 "smiles": "OC1=CC=C2OCOC2=C1", 
	 "Tm": 337.15, 
	 "num_atms": 16, 
	 "gaussian": { 
		 "optdone": 1, 
		 "sigma_profile": "yes", 
		 "theory": "DFT", 
		 "functional": "B3LYP", 
		 "basiset": "6-31G**", 
		 "properties": { 
			 "R2extent": 1869.6696, 
			 "electric_dipole_moment_norm": 1.14452788957, 
			 "electric_quadrupole_moment_norm": 11.9192660865, 
			 "total_energy": -495.995090946, 
			 "HOMO_LUMO_gap": 0.19522, 
			 "cosmo_polarized_energy": -9.76, 
			 "cosmo_cavitation_energy": 20.02, 
			 "cosmo_dispersion_energy": -15.69, 
			 "cosmo_repulsion_energy": 1.27, 
			 "cosmo_total_nonelectrostatic_energy": 5.6, 
			 "SMD_solvation_energy": 4.46 
		},
		"coords": [
			{
				"x": -2.8361911249,
				"y": -1.9067414798,
				"z": -1.3354645123,
				"element": "O" 
			},
			{
				"x": -1.5857920056,
				"y": -1.4150054773,
				"z": -1.0677921035,
				"element": "C" 
			},
			{
				"x": -1.2699332328,
				"y": -0.0595939816,
				"z": -1.1860130921,
				"element": "C" 
			},
			{
				"x": 0.0275718815,
				"y": 0.4101320514,
				"z": -0.9021314287,
				"element": "C" 
			},
			{
				"x": 0.9633520076,
				"y": -0.520700978,
				"z": -0.5057678346,
				"element": "C" 
			},
			{
				"x": 2.2884219439,
				"y": -0.329024359,
				"z": -0.1722740294,
				"element": "O" 
			},
			{
				"x": 2.8002848081,
				"y": -1.6211038464,
				"z": 0.1629092133,
				"element": "C" 
			},
			{
				"x": 1.7424010247,
				"y": -2.5789308154,
				"z": 0.0180308962,
				"element": "O" 
			},
			{
				"x": 0.6402628364,
				"y": -1.8713516427,
				"z": -0.3902192155,
				"element": "C" 
			},
			{
				"x": -0.620826701,
				"y": -2.3592745632,
				"z": -0.6614212583,
				"element": "C" 
			},
			{
				"x": -3.4090049419,
				"y": -1.1766684811,
				"z": -1.6021757597,
				"element": "H" 
			},
			{
				"x": -2.0349406407,
				"y": 0.6454064421,
				"z": -1.5015834592,
				"element": "H" 
			},
			{
				"x": 0.2781929589,
				"y": 1.4609275982,
				"z": -0.9921742404,
				"element": "H" 
			},
			{
				"x": 3.149144579,
				"y": -1.6213014972,
				"z": 1.2035099645,
				"element": "H" 
			},
			{
				"x": 3.6203823284,
				"y": -1.8813203767,
				"z": -0.518467761,
				"element": "H" 
			},
			{
				"x": -0.8745257217,
				"y": -3.4082485931,
				"z": -0.5724653791,
				"element": "H" 
			}
		],
		 "valence_orbital": [ 
			{
				"type": "occ",
				"energy": -0.3681,
				"method": "rhf"
			},
			{
				"type": "occ",
				"energy": -0.34623,
				"method": "rhf"
			},
			{
				"type": "occ",
				"energy": -0.28809,
				"method": "rhf"
			},
			{
				"type": "occ",
				"energy": -0.23793,
				"method": "rhf"
			},
			{
				"type": "occ",
				"energy": -0.19299,
				"method": "rhf"
			},
			{
				"type": "unocc",
				"energy": 0.00223,
				"method": "rhf"
			},
			{
				"type": "unocc",
				"energy": 0.02733,
				"method": "rhf"
			},
			{
				"type": "unocc",
				"energy": 0.06992,
				"method": "rhf"
			},
			{
				"type": "unocc",
				"energy": 0.09883,
				"method": "rhf"
			},
			{
				"type": "unocc",
				"energy": 0.11016,
				"method": "rhf"
			}
		],
		"cosmo_sigma_profile": { 
			"-0.025": 0.0,
			"-0.024": 0.0,
			"-0.023": 0.0,
			"-0.022": 0.0,
			"-0.021": 0.0,
			"-0.02": 0.0,
			"-0.019": 0.0,
			"-0.018": 0.125774661523,
			"-0.017": 0.972183923115,
			"-0.016": 1.42025780198,
			"-0.015": 0.747952515259,
			"-0.014": 0.781946182705,
			"-0.013": 1.14826335039,
			"-0.012": 1.11597834494,
			"-0.011": 0.879943947678,
			"-0.01": 1.19760848675,
			"-0.009": 0.983307897882,
			"-0.008": 1.73232150983,
			"-0.007": 11.1892972111,
			"-0.006": 10.8400790318,
			"-0.005": 9.51534667139,
			"-0.004": 8.23201296428,
			"-0.003": 5.93278372793,
			"-0.002": 7.58818283406,
			"-0.001": 6.52405570912,
			"0.0": 6.99508159876,
			"0.001": 6.94512568486,
			"0.002": 9.7947237082,
			"0.003": 13.4792226707,
			"0.004": 16.4349647229,
			"0.005": 9.77267406213,
			"0.006": 5.5848992737,
			"0.007": 4.03652922745,
			"0.008": 4.63828839353,
			"0.009": 3.97413374838,
			"0.01": 4.35063409108,
			"0.011": 2.2229974563,
			"0.012": 0.966066537292,
			"0.013": 0.0,
			"0.014": 0.0,
			"0.015": 0.0,
			"0.016": 0.0,
			"0.017": 0.0,
			"0.018": 0.0,
			"0.019": 0.0,
			"0.02": 0.0,
			"0.021": 0.0,
			"0.022": 0.0,
			"0.023": 0.0,
			"0.024": 0.0,
			"0.025": 0.0
		}
	}
}
