{
	 "smiles": "CC1=CC=C(C=C1)N1C(S)=NN=C1N1CCCC1", 
	 "Tm": 290.15, 
	 "num_atms": 34, 
	 "gaussian": { 
		 "optdone": 1, 
		 "sigma_profile": "yes", 
		 "theory": "DFT", 
		 "functional": "B3LYP", 
		 "basiset": "6-31G**", 
		 "properties": { 
			 "R2extent": 5608.9435, 
			 "electric_dipole_moment_norm": 5.77797667873, 
			 "electric_quadrupole_moment_norm": 13.6560452958, 
			 "total_energy": -1122.19431984, 
			 "HOMO_LUMO_gap": 0.17005, 
			 "cosmo_polarized_energy": -15.25, 
			 "cosmo_cavitation_energy": 37.8, 
			 "cosmo_dispersion_energy": -26.89, 
			 "cosmo_repulsion_energy": 2.07, 
			 "cosmo_total_nonelectrostatic_energy": 12.98, 
			 "SMD_solvation_energy": 3.01 
		},
		"coords": [
			{
				"x": -2.9280861278,
				"y": -1.5752200868,
				"z": 3.8574843105,
				"element": "C" 
			},
			{
				"x": -2.4042254524,
				"y": -1.0807341628,
				"z": 2.5302179167,
				"element": "C" 
			},
			{
				"x": -2.7721425434,
				"y": -1.7035643483,
				"z": 1.3309179362,
				"element": "C" 
			},
			{
				"x": -2.3075593001,
				"y": -1.2373918431,
				"z": 0.1011807742,
				"element": "C" 
			},
			{
				"x": -1.4723929607,
				"y": -0.1181307791,
				"z": 0.0558612319,
				"element": "C" 
			},
			{
				"x": -1.0952955768,
				"y": 0.5211482548,
				"z": 1.2416015919,
				"element": "C" 
			},
			{
				"x": -1.5524135581,
				"y": 0.0321176004,
				"z": 2.4626309785,
				"element": "C" 
			},
			{
				"x": -1.0084743088,
				"y": 0.3809836024,
				"z": -1.200387544,
				"element": "N" 
			},
			{
				"x": -1.7683351458,
				"y": 0.9770992713,
				"z": -2.1952963521,
				"element": "C" 
			},
			{
				"x": -3.537925514,
				"y": 1.0135369611,
				"z": -2.1466452101,
				"element": "S" 
			},
			{
				"x": -1.015056317,
				"y": 1.4948530239,
				"z": -3.1243791033,
				"element": "N" 
			},
			{
				"x": 0.3060615173,
				"y": 1.2415554493,
				"z": -2.7723370773,
				"element": "N" 
			},
			{
				"x": 0.2997118872,
				"y": 0.5878766702,
				"z": -1.6326590311,
				"element": "C" 
			},
			{
				"x": 1.410893693,
				"y": 0.196534448,
				"z": -0.9140980288,
				"element": "N" 
			},
			{
				"x": 1.5402078932,
				"y": -1.1941566691,
				"z": -0.4334843391,
				"element": "C" 
			},
			{
				"x": 2.9935421839,
				"y": -1.2452238936,
				"z": 0.0403779567,
				"element": "C" 
			},
			{
				"x": 3.7257092386,
				"y": -0.4178612198,
				"z": -1.0293309084,
				"element": "C" 
			},
			{
				"x": 2.7200687307,
				"y": 0.6847702318,
				"z": -1.4172289701,
				"element": "C" 
			},
			{
				"x": -3.8233117398,
				"y": -1.0175497795,
				"z": 4.1593947589,
				"element": "H" 
			},
			{
				"x": -2.1863368848,
				"y": -1.4514400229,
				"z": 4.6523691117,
				"element": "H" 
			},
			{
				"x": -3.2031025676,
				"y": -2.6327659567,
				"z": 3.8107530563,
				"element": "H" 
			},
			{
				"x": -3.4239641444,
				"y": -2.5727392089,
				"z": 1.3567467791,
				"element": "H" 
			},
			{
				"x": -2.5837848997,
				"y": -1.7393184297,
				"z": -0.82048428,
				"element": "H" 
			},
			{
				"x": -0.441009783,
				"y": 1.3851467458,
				"z": 1.1974678245,
				"element": "H" 
			},
			{
				"x": -1.2501303427,
				"y": 0.5301784378,
				"z": 3.3802576786,
				"element": "H" 
			},
			{
				"x": -3.6044648588,
				"y": 1.7227394411,
				"z": -3.2896653457,
				"element": "H" 
			},
			{
				"x": 0.8246266297,
				"y": -1.4029706032,
				"z": 0.3646158457,
				"element": "H" 
			},
			{
				"x": 1.3686560713,
				"y": -1.919136003,
				"z": -1.2460548553,
				"element": "H" 
			},
			{
				"x": 3.077725548,
				"y": -0.7675237438,
				"z": 1.022904083,
				"element": "H" 
			},
			{
				"x": 3.3677905522,
				"y": -2.2689051314,
				"z": 0.1272854794,
				"element": "H" 
			},
			{
				"x": 3.9432192844,
				"y": -1.04770543,
				"z": -1.8988359905,
				"element": "H" 
			},
			{
				"x": 4.6756926913,
				"y": -0.0070965765,
				"z": -0.6771309561,
				"element": "H" 
			},
			{
				"x": 2.6816926842,
				"y": 0.8522125383,
				"z": -2.4970541918,
				"element": "H" 
			},
			{
				"x": 2.9503134207,
				"y": 1.644781212,
				"z": -0.9406951302,
				"element": "H" 
			}
		],
		 "valence_orbital": [ 
			{
				"type": "occ",
				"energy": -0.26733,
				"method": "rhf"
			},
			{
				"type": "occ",
				"energy": -0.26344,
				"method": "rhf"
			},
			{
				"type": "occ",
				"energy": -0.24658,
				"method": "rhf"
			},
			{
				"type": "occ",
				"energy": -0.23768,
				"method": "rhf"
			},
			{
				"type": "occ",
				"energy": -0.1937,
				"method": "rhf"
			},
			{
				"type": "unocc",
				"energy": -0.02365,
				"method": "rhf"
			},
			{
				"type": "unocc",
				"energy": -0.02079,
				"method": "rhf"
			},
			{
				"type": "unocc",
				"energy": 0.02269,
				"method": "rhf"
			},
			{
				"type": "unocc",
				"energy": 0.03719,
				"method": "rhf"
			},
			{
				"type": "unocc",
				"energy": 0.06112,
				"method": "rhf"
			}
		],
		"cosmo_sigma_profile": { 
			"-0.025": 0.0,
			"-0.024": 0.0,
			"-0.023": 0.0,
			"-0.022": 0.0,
			"-0.021": 0.0,
			"-0.02": 0.0,
			"-0.019": 0.0,
			"-0.018": 0.0,
			"-0.017": 0.0,
			"-0.016": 0.0,
			"-0.015": 0.0,
			"-0.014": 0.0,
			"-0.013": 0.0,
			"-0.012": 0.691590047555,
			"-0.011": 1.71669705249,
			"-0.01": 1.07577272367,
			"-0.009": 1.45142098863,
			"-0.008": 0.98526734454,
			"-0.007": 2.4647511964,
			"-0.006": 8.46379032431,
			"-0.005": 13.9144048823,
			"-0.004": 25.7737117981,
			"-0.003": 37.3974953661,
			"-0.002": 41.4242043675,
			"-0.001": 34.4064937786,
			"0.0": 27.8523881086,
			"0.001": 17.8093763428,
			"0.002": 19.8592516723,
			"0.003": 16.5581866936,
			"0.004": 12.049675928,
			"0.005": 5.81665321304,
			"0.006": 5.2737852311,
			"0.007": 3.33908718883,
			"0.008": 1.79920878375,
			"0.009": 2.18090296197,
			"0.01": 2.21099285186,
			"0.011": 2.18400293785,
			"0.012": 1.76518622643,
			"0.013": 3.53144763345,
			"0.014": 3.62857055545,
			"0.015": 2.99354351342,
			"0.016": 2.13554429748,
			"0.017": 0.6451012779,
			"0.018": 0.0,
			"0.019": 0.0,
			"0.02": 0.0,
			"0.021": 0.0,
			"0.022": 0.0,
			"0.023": 0.0,
			"0.024": 0.0,
			"0.025": 0.0
		}
	}
}
