{
	 "smiles": "CC(C)(C)OC(=O)C1CCN(CC1)C(=O)OCC1=CC=CC=C1", 
	 "Tm": 330.15, 
	 "num_atms": 48, 
	 "gaussian": { 
		 "optdone": 1, 
		 "sigma_profile": "yes", 
		 "theory": "DFT", 
		 "functional": "B3LYP", 
		 "basiset": "6-31G**", 
		 "properties": { 
			 "R2extent": 8685.416, 
			 "electric_dipole_moment_norm": 4.04614854646, 
			 "electric_quadrupole_moment_norm": 14.3919347921, 
			 "total_energy": -1056.6816515, 
			 "HOMO_LUMO_gap": 0.22229, 
			 "cosmo_polarized_energy": -14.62, 
			 "cosmo_cavitation_energy": 49.12, 
			 "cosmo_dispersion_energy": -31.03, 
			 "cosmo_repulsion_energy": 2.38, 
			 "cosmo_total_nonelectrostatic_energy": 20.48, 
			 "SMD_solvation_energy": 9.36 
		},
		"coords": [
			{
				"x": 3.2401302471,
				"y": -2.3677972388,
				"z": -0.5484162936,
				"element": "C" 
			},
			{
				"x": 2.4857267906,
				"y": -1.0390918915,
				"z": -0.4378007575,
				"element": "C" 
			},
			{
				"x": 3.3888050943,
				"y": 0.0540741535,
				"z": 0.1383285629,
				"element": "C" 
			},
			{
				"x": 1.8798785493,
				"y": -0.5976012163,
				"z": -1.7742936353,
				"element": "C" 
			},
			{
				"x": 1.4236370135,
				"y": -1.1509374578,
				"z": 0.5856613393,
				"element": "O" 
			},
			{
				"x": 0.3916458006,
				"y": -2.0052233904,
				"z": 0.4460204453,
				"element": "C" 
			},
			{
				"x": 0.2397523196,
				"y": -2.7680605801,
				"z": -0.4866553099,
				"element": "O" 
			},
			{
				"x": -0.5485854314,
				"y": -1.9453519049,
				"z": 1.6598299406,
				"element": "C" 
			},
			{
				"x": -1.9769564407,
				"y": -2.4022334681,
				"z": 1.2739096893,
				"element": "C" 
			},
			{
				"x": -2.8892101725,
				"y": -1.1911017359,
				"z": 0.9737428147,
				"element": "C" 
			},
			{
				"x": -2.1072343311,
				"y": -0.0698319165,
				"z": 0.4598149841,
				"element": "N" 
			},
			{
				"x": -1.1173202555,
				"y": 0.5135345308,
				"z": 1.3718531294,
				"element": "C" 
			},
			{
				"x": -0.5971526969,
				"y": -0.5659383559,
				"z": 2.3413182126,
				"element": "C" 
			},
			{
				"x": -2.3665807203,
				"y": 0.4139168102,
				"z": -0.7911324728,
				"element": "C" 
			},
			{
				"x": -3.2218741086,
				"y": -0.0096885012,
				"z": -1.5525024022,
				"element": "O" 
			},
			{
				"x": -1.5323979911,
				"y": 1.4499719298,
				"z": -1.1033223073,
				"element": "O" 
			},
			{
				"x": -1.7362645364,
				"y": 2.0070645132,
				"z": -2.4191435036,
				"element": "C" 
			},
			{
				"x": -0.7837680528,
				"y": 3.1615023516,
				"z": -2.5955441862,
				"element": "C" 
			},
			{
				"x": 0.0640115952,
				"y": 3.2175338566,
				"z": -3.7065909791,
				"element": "C" 
			},
			{
				"x": 0.9211924569,
				"y": 4.3046331112,
				"z": -3.8947028295,
				"element": "C" 
			},
			{
				"x": 0.945188154,
				"y": 5.3434259828,
				"z": -2.9644850768,
				"element": "C" 
			},
			{
				"x": 0.1065767469,
				"y": 5.2922708309,
				"z": -1.8470631398,
				"element": "C" 
			},
			{
				"x": -0.7540730969,
				"y": 4.2112712147,
				"z": -1.6665259512,
				"element": "C" 
			},
			{
				"x": 2.5955343312,
				"y": -3.1544073326,
				"z": -0.9411963656,
				"element": "H" 
			},
			{
				"x": 4.0963482421,
				"y": -2.2463568797,
				"z": -1.2198859074,
				"element": "H" 
			},
			{
				"x": 3.6196391251,
				"y": -2.6740197356,
				"z": 0.4316902399,
				"element": "H" 
			},
			{
				"x": 3.7720663678,
				"y": -0.2382757558,
				"z": 1.1204246227,
				"element": "H" 
			},
			{
				"x": 4.2394806233,
				"y": 0.226961601,
				"z": -0.5275756616,
				"element": "H" 
			},
			{
				"x": 2.839598213,
				"y": 0.993893656,
				"z": 0.2462561458,
				"element": "H" 
			},
			{
				"x": 2.6859914182,
				"y": -0.3726816099,
				"z": -2.4804108604,
				"element": "H" 
			},
			{
				"x": 1.2494586708,
				"y": -1.3793235927,
				"z": -2.1984699484,
				"element": "H" 
			},
			{
				"x": 1.2802649187,
				"y": 0.3085235019,
				"z": -1.6430447935,
				"element": "H" 
			},
			{
				"x": -0.1218166141,
				"y": -2.6697911331,
				"z": 2.3668596596,
				"element": "H" 
			},
			{
				"x": -2.4159063414,
				"y": -2.9855291013,
				"z": 2.0905799306,
				"element": "H" 
			},
			{
				"x": -1.9082845641,
				"y": -3.0553076878,
				"z": 0.401242635,
				"element": "H" 
			},
			{
				"x": -3.4115363223,
				"y": -0.86782755,
				"z": 1.885005722,
				"element": "H" 
			},
			{
				"x": -3.6449777421,
				"y": -1.4348671171,
				"z": 0.228020067,
				"element": "H" 
			},
			{
				"x": -0.2945115186,
				"y": 0.9094152814,
				"z": 0.7783841587,
				"element": "H" 
			},
			{
				"x": -1.553451191,
				"y": 1.3514732275,
				"z": 1.935758639,
				"element": "H" 
			},
			{
				"x": -1.2555320082,
				"y": -0.6444640395,
				"z": 3.2144320871,
				"element": "H" 
			},
			{
				"x": 0.3880149081,
				"y": -0.2711022768,
				"z": 2.7086810167,
				"element": "H" 
			},
			{
				"x": -2.7811641534,
				"y": 2.3252079564,
				"z": -2.5043434352,
				"element": "H" 
			},
			{
				"x": -1.5707298687,
				"y": 1.2330041994,
				"z": -3.1739627686,
				"element": "H" 
			},
			{
				"x": 0.0526560303,
				"y": 2.4060671765,
				"z": -4.4300071572,
				"element": "H" 
			},
			{
				"x": 1.5720975535,
				"y": 4.3350472492,
				"z": -4.7638852004,
				"element": "H" 
			},
			{
				"x": 1.6130706118,
				"y": 6.1882748943,
				"z": -3.1065670771,
				"element": "H" 
			},
			{
				"x": 0.1218978589,
				"y": 6.0982773137,
				"z": -1.1187107689,
				"element": "H" 
			},
			{
				"x": -1.4032354825,
				"y": 4.1702661266,
				"z": -0.7965752533,
				"element": "H" 
			}
		],
		 "valence_orbital": [ 
			{
				"type": "occ",
				"energy": -0.26477,
				"method": "rhf"
			},
			{
				"type": "occ",
				"energy": -0.25964,
				"method": "rhf"
			},
			{
				"type": "occ",
				"energy": -0.25243,
				"method": "rhf"
			},
			{
				"type": "occ",
				"energy": -0.24587,
				"method": "rhf"
			},
			{
				"type": "occ",
				"energy": -0.23116,
				"method": "rhf"
			},
			{
				"type": "unocc",
				"energy": -0.00887,
				"method": "rhf"
			},
			{
				"type": "unocc",
				"energy": -0.00267,
				"method": "rhf"
			},
			{
				"type": "unocc",
				"energy": 0.01294,
				"method": "rhf"
			},
			{
				"type": "unocc",
				"energy": 0.05872,
				"method": "rhf"
			},
			{
				"type": "unocc",
				"energy": 0.07119,
				"method": "rhf"
			}
		],
		"cosmo_sigma_profile": { 
			"-0.025": 0.0,
			"-0.024": 0.0,
			"-0.023": 0.0,
			"-0.022": 0.0,
			"-0.021": 0.0,
			"-0.02": 0.0,
			"-0.019": 0.0,
			"-0.018": 0.0,
			"-0.017": 0.0,
			"-0.016": 0.0,
			"-0.015": 0.0,
			"-0.014": 0.0,
			"-0.013": 0.0,
			"-0.012": 0.0,
			"-0.011": 0.0,
			"-0.01": 0.0,
			"-0.009": 0.0,
			"-0.008": 0.0,
			"-0.007": 0.24711211392,
			"-0.006": 10.0858902635,
			"-0.005": 21.3007267492,
			"-0.004": 43.5173338536,
			"-0.003": 47.9989015248,
			"-0.002": 40.5914260477,
			"-0.001": 40.083323454,
			"0.0": 47.1525820785,
			"0.001": 31.3559910454,
			"0.002": 16.6230645765,
			"0.003": 16.6446016627,
			"0.004": 14.6669573009,
			"0.005": 15.6451609536,
			"0.006": 11.4735512913,
			"0.007": 2.91959989093,
			"0.008": 2.68077889075,
			"0.009": 3.32066835451,
			"0.01": 3.23124406222,
			"0.011": 2.91082167441,
			"0.012": 4.81053300451,
			"0.013": 5.02746115771,
			"0.014": 2.22448572336,
			"0.015": 0.0,
			"0.016": 0.0,
			"0.017": 0.0,
			"0.018": 0.0,
			"0.019": 0.0,
			"0.02": 0.0,
			"0.021": 0.0,
			"0.022": 0.0,
			"0.023": 0.0,
			"0.024": 0.0,
			"0.025": 0.0
		}
	}
}
