{
	 "smiles": "CN1N=CC(C(=O)C2=CC=C(C(C3=NOCC3)=C2C)S(C)(=O)=O)=C1O", 
	 "Tm": 495.15, 
	 "num_atms": 42, 
	 "gaussian": { 
		 "optdone": 1, 
		 "sigma_profile": "yes", 
		 "theory": "DFT", 
		 "functional": "B3LYP", 
		 "basiset": "6-31G**", 
		 "properties": { 
			 "R2extent": 10106.9215, 
			 "electric_dipole_moment_norm": 11.8278385329, 
			 "electric_quadrupole_moment_norm": 15.4720677425, 
			 "total_energy": -1558.33889398, 
			 "HOMO_LUMO_gap": 0.17081, 
			 "cosmo_polarized_energy": -38.51, 
			 "cosmo_cavitation_energy": 46.67, 
			 "cosmo_dispersion_energy": -31.88, 
			 "cosmo_repulsion_energy": 2.37, 
			 "cosmo_total_nonelectrostatic_energy": 17.16, 
			 "SMD_solvation_energy": 7.49 
		},
		"coords": [
			{
				"x": -0.9169916738,
				"y": -0.1861224604,
				"z": -5.513986719,
				"element": "C" 
			},
			{
				"x": -1.5520481673,
				"y": 0.4826434093,
				"z": -4.3961304538,
				"element": "N" 
			},
			{
				"x": -2.7154415686,
				"y": 1.1947946784,
				"z": -4.5873894696,
				"element": "N" 
			},
			{
				"x": -3.0092000173,
				"y": 1.6717166661,
				"z": -3.393258335,
				"element": "C" 
			},
			{
				"x": -2.068074785,
				"y": 1.2905733551,
				"z": -2.3926402398,
				"element": "C" 
			},
			{
				"x": -2.1163528449,
				"y": 1.7271472965,
				"z": -0.9951309292,
				"element": "C" 
			},
			{
				"x": -2.944503426,
				"y": 2.5572002155,
				"z": -0.6335861258,
				"element": "O" 
			},
			{
				"x": -1.0882537874,
				"y": 1.2383312935,
				"z": 0.0051230047,
				"element": "C" 
			},
			{
				"x": -0.3238217152,
				"y": 2.2432807392,
				"z": 0.6106443059,
				"element": "C" 
			},
			{
				"x": 0.6476158049,
				"y": 1.9226823039,
				"z": 1.5458047689,
				"element": "C" 
			},
			{
				"x": 0.8485590216,
				"y": 0.5841180632,
				"z": 1.8922353167,
				"element": "C" 
			},
			{
				"x": 0.0548368575,
				"y": -0.4425751383,
				"z": 1.3487054639,
				"element": "C" 
			},
			{
				"x": 0.2014040821,
				"y": -1.8707507511,
				"z": 1.7535883738,
				"element": "C" 
			},
			{
				"x": -0.7354861278,
				"y": -2.4489061779,
				"z": 2.4101969821,
				"element": "N" 
			},
			{
				"x": -0.4239110786,
				"y": -3.794256961,
				"z": 2.6052607691,
				"element": "O" 
			},
			{
				"x": 0.9616840677,
				"y": -4.0095806177,
				"z": 2.225011738,
				"element": "C" 
			},
			{
				"x": 1.3088740163,
				"y": -2.8192216427,
				"z": 1.3303011068,
				"element": "C" 
			},
			{
				"x": -0.9365531849,
				"y": -0.1072708373,
				"z": 0.3893662257,
				"element": "C" 
			},
			{
				"x": -1.8455148691,
				"y": -1.1874649945,
				"z": -0.1577881369,
				"element": "C" 
			},
			{
				"x": 2.1812993368,
				"y": 0.3107746724,
				"z": 3.09405177,
				"element": "S" 
			},
			{
				"x": 3.6694888135,
				"y": 0.3671866425,
				"z": 2.0606874921,
				"element": "C" 
			},
			{
				"x": 2.2301062044,
				"y": 1.485377478,
				"z": 3.9760663292,
				"element": "O" 
			},
			{
				"x": 2.0882913004,
				"y": -1.0448134983,
				"z": 3.6574482031,
				"element": "O" 
			},
			{
				"x": -1.1428569421,
				"y": 0.5240983361,
				"z": -3.1063212916,
				"element": "C" 
			},
			{
				"x": -0.0285942542,
				"y": -0.0904854281,
				"z": -2.6616088593,
				"element": "O" 
			},
			{
				"x": -0.8241273017,
				"y": -1.2634552559,
				"z": -5.3339294072,
				"element": "H" 
			},
			{
				"x": 0.0701295013,
				"y": 0.2394341784,
				"z": -5.7312943853,
				"element": "H" 
			},
			{
				"x": -1.5608497093,
				"y": -0.0305436064,
				"z": -6.3785597602,
				"element": "H" 
			},
			{
				"x": -3.8879093432,
				"y": 2.2831094754,
				"z": -3.2436092466,
				"element": "H" 
			},
			{
				"x": -0.5073262615,
				"y": 3.2787478086,
				"z": 0.343475528,
				"element": "H" 
			},
			{
				"x": 1.2285170905,
				"y": 2.6976444976,
				"z": 2.0334907367,
				"element": "H" 
			},
			{
				"x": 1.0206287084,
				"y": -4.9825056256,
				"z": 1.7320509352,
				"element": "H" 
			},
			{
				"x": 1.5733071327,
				"y": -4.0135345237,
				"z": 3.1339488744,
				"element": "H" 
			},
			{
				"x": 2.3082486825,
				"y": -2.4299698427,
				"z": 1.5255274055,
				"element": "H" 
			},
			{
				"x": 1.2222522542,
				"y": -3.0393472706,
				"z": 0.2571434965,
				"element": "H" 
			},
			{
				"x": -1.2713082653,
				"y": -1.9818846681,
				"z": -0.6460184486,
				"element": "H" 
			},
			{
				"x": -2.552484532,
				"y": -0.7888338377,
				"z": -0.8846138496,
				"element": "H" 
			},
			{
				"x": -2.4100095692,
				"y": -1.6529223699,
				"z": 0.6530599519,
				"element": "H" 
			},
			{
				"x": 4.5127212001,
				"y": 0.2121815178,
				"z": 2.7371448835,
				"element": "H" 
			},
			{
				"x": 3.6301392002,
				"y": -0.4271181974,
				"z": 1.3138837378,
				"element": "H" 
			},
			{
				"x": 3.7390009884,
				"y": 1.3461243634,
				"z": 1.5852683317,
				"element": "H" 
			},
			{
				"x": 0.4592151611,
				"y": -0.4826032858,
				"z": -3.3984200736,
				"element": "H" 
			}
		],
		 "valence_orbital": [ 
			{
				"type": "occ",
				"energy": -0.27124,
				"method": "rhf"
			},
			{
				"type": "occ",
				"energy": -0.26311,
				"method": "rhf"
			},
			{
				"type": "occ",
				"energy": -0.25172,
				"method": "rhf"
			},
			{
				"type": "occ",
				"energy": -0.24863,
				"method": "rhf"
			},
			{
				"type": "occ",
				"energy": -0.23234,
				"method": "rhf"
			},
			{
				"type": "unocc",
				"energy": -0.06153,
				"method": "rhf"
			},
			{
				"type": "unocc",
				"energy": -0.03656,
				"method": "rhf"
			},
			{
				"type": "unocc",
				"energy": -0.02158,
				"method": "rhf"
			},
			{
				"type": "unocc",
				"energy": 0.00483,
				"method": "rhf"
			},
			{
				"type": "unocc",
				"energy": 0.00931,
				"method": "rhf"
			}
		],
		"cosmo_sigma_profile": { 
			"-0.025": 0.0,
			"-0.024": 0.0,
			"-0.023": 0.0,
			"-0.022": 0.0,
			"-0.021": 0.0,
			"-0.02": 0.0,
			"-0.019": 0.992933383031,
			"-0.018": 1.04306107286,
			"-0.017": 1.29958746066,
			"-0.016": 1.08176897871,
			"-0.015": 1.15872059678,
			"-0.014": 1.18840460342,
			"-0.013": 1.48306782456,
			"-0.012": 1.31391173554,
			"-0.011": 1.71355087661,
			"-0.01": 1.81947267859,
			"-0.009": 5.05703745424,
			"-0.008": 12.8440795996,
			"-0.007": 16.352217205,
			"-0.006": 24.430453589,
			"-0.005": 26.3752956072,
			"-0.004": 31.3776005386,
			"-0.003": 27.1556386447,
			"-0.002": 20.2104055396,
			"-0.001": 19.4450418103,
			"0.0": 20.0069880377,
			"0.001": 19.6457785281,
			"0.002": 17.7166760067,
			"0.003": 13.5667703534,
			"0.004": 11.7420108971,
			"0.005": 8.8679463094,
			"0.006": 9.7068620537,
			"0.007": 9.48281207109,
			"0.008": 7.63864512486,
			"0.009": 9.2733988904,
			"0.01": 12.3594562574,
			"0.011": 15.8995478949,
			"0.012": 13.5881469264,
			"0.013": 3.64471814672,
			"0.014": 1.54252870316,
			"0.015": 0.299094572784,
			"0.016": 0.0,
			"0.017": 0.0,
			"0.018": 0.0,
			"0.019": 0.0,
			"0.02": 0.0,
			"0.021": 0.0,
			"0.022": 0.0,
			"0.023": 0.0,
			"0.024": 0.0,
			"0.025": 0.0
		}
	}
}
