{
	 "smiles": "COC(=O)NC=CC1=CC=C(C=CNC(=O)OC)C=C1", 
	 "Tm": 633.15, 
	 "num_atms": 36, 
	 "gaussian": { 
		 "optdone": 1, 
		 "sigma_profile": "yes", 
		 "theory": "DFT", 
		 "functional": "B3LYP", 
		 "basiset": "6-31G**", 
		 "properties": { 
			 "R2extent": 12377.601, 
			 "electric_dipole_moment_norm": 2.26918370345, 
			 "electric_quadrupole_moment_norm": 11.906212981, 
			 "total_energy": -953.541416577, 
			 "HOMO_LUMO_gap": 0.14885, 
			 "cosmo_polarized_energy": -18.49, 
			 "cosmo_cavitation_energy": 42.01, 
			 "cosmo_dispersion_energy": -30.06, 
			 "cosmo_repulsion_energy": 2.33, 
			 "cosmo_total_nonelectrostatic_energy": 14.28, 
			 "SMD_solvation_energy": 11.31 
		},
		"coords": [
			{
				"x": -6.8636961378,
				"y": 3.1190603807,
				"z": 1.0236698303,
				"element": "C" 
			},
			{
				"x": -5.7821759453,
				"y": 2.430254126,
				"z": 0.378764049,
				"element": "O" 
			},
			{
				"x": -4.6050131529,
				"y": 2.4856303132,
				"z": 1.044575725,
				"element": "C" 
			},
			{
				"x": -4.4336257417,
				"y": 3.0526198615,
				"z": 2.1068837261,
				"element": "O" 
			},
			{
				"x": -3.6092740209,
				"y": 1.8080756095,
				"z": 0.3766883728,
				"element": "N" 
			},
			{
				"x": -3.6944080631,
				"y": 1.2113913134,
				"z": -0.8802332979,
				"element": "C" 
			},
			{
				"x": -2.7120672066,
				"y": 0.5271213369,
				"z": -1.5010817527,
				"element": "C" 
			},
			{
				"x": -1.3677397909,
				"y": 0.1976744126,
				"z": -1.0139357087,
				"element": "C" 
			},
			{
				"x": -0.3147159014,
				"y": 0.05721672,
				"z": -1.9379612767,
				"element": "C" 
			},
			{
				"x": 0.9762418515,
				"y": -0.2478056497,
				"z": -1.5265863607,
				"element": "C" 
			},
			{
				"x": 1.2936687661,
				"y": -0.436963757,
				"z": -0.1672499262,
				"element": "C" 
			},
			{
				"x": 2.6795963455,
				"y": -0.7373860323,
				"z": 0.2017194486,
				"element": "C" 
			},
			{
				"x": 3.1638711106,
				"y": -0.6792255292,
				"z": 1.4566615178,
				"element": "C" 
			},
			{
				"x": 4.455467481,
				"y": -0.9527410174,
				"z": 1.9221186668,
				"element": "N" 
			},
			{
				"x": 5.5981976565,
				"y": -1.414410518,
				"z": 1.3014648359,
				"element": "C" 
			},
			{
				"x": 6.6407958073,
				"y": -1.5943160184,
				"z": 1.9031058323,
				"element": "O" 
			},
			{
				"x": 5.424222096,
				"y": -1.6380776677,
				"z": -0.0178819079,
				"element": "O" 
			},
			{
				"x": 6.5920736617,
				"y": -2.1306644653,
				"z": -0.6958281347,
				"element": "C" 
			},
			{
				"x": 0.2315999343,
				"y": -0.3440961189,
				"z": 0.7534128108,
				"element": "C" 
			},
			{
				"x": -1.0596442802,
				"y": -0.0338546716,
				"z": 0.3439011824,
				"element": "C" 
			},
			{
				"x": -7.7268765059,
				"y": 2.9789289133,
				"z": 0.3728982338,
				"element": "H" 
			},
			{
				"x": -6.6349051762,
				"y": 4.1819212285,
				"z": 1.1330113438,
				"element": "H" 
			},
			{
				"x": -7.0562991217,
				"y": 2.6951554324,
				"z": 2.0120644948,
				"element": "H" 
			},
			{
				"x": -2.7114742908,
				"y": 1.8589006069,
				"z": 0.8374622814,
				"element": "H" 
			},
			{
				"x": -4.6472898412,
				"y": 1.3698068007,
				"z": -1.3687350521,
				"element": "H" 
			},
			{
				"x": -2.9345032401,
				"y": 0.2183799929,
				"z": -2.5190893678,
				"element": "H" 
			},
			{
				"x": -0.5181013591,
				"y": 0.2029146105,
				"z": -2.9958952366,
				"element": "H" 
			},
			{
				"x": 1.7659555844,
				"y": -0.3351628324,
				"z": -2.2686665349,
				"element": "H" 
			},
			{
				"x": 3.3447597741,
				"y": -1.0015197415,
				"z": -0.6109193636,
				"element": "H" 
			},
			{
				"x": 2.5192722492,
				"y": -0.3734265116,
				"z": 2.2750651992,
				"element": "H" 
			},
			{
				"x": 4.6213176431,
				"y": -0.7972654317,
				"z": 2.9053000869,
				"element": "H" 
			},
			{
				"x": 7.4124294814,
				"y": -1.4134484136,
				"z": -0.6192743065,
				"element": "H" 
			},
			{
				"x": 6.2905745423,
				"y": -2.259434881,
				"z": -1.7352067604,
				"element": "H" 
			},
			{
				"x": 6.9121107853,
				"y": -3.0833686725,
				"z": -0.2678668843,
				"element": "H" 
			},
			{
				"x": 0.405707364,
				"y": -0.5503488328,
				"z": 1.8055865152,
				"element": "H" 
			},
			{
				"x": -1.8532523584,
				"y": -0.0364348964,
				"z": 1.0853577188,
				"element": "H" 
			}
		],
		 "valence_orbital": [ 
			{
				"type": "occ",
				"energy": -0.28307,
				"method": "rhf"
			},
			{
				"type": "occ",
				"energy": -0.27886,
				"method": "rhf"
			},
			{
				"type": "occ",
				"energy": -0.25204,
				"method": "rhf"
			},
			{
				"type": "occ",
				"energy": -0.22915,
				"method": "rhf"
			},
			{
				"type": "occ",
				"energy": -0.18984,
				"method": "rhf"
			},
			{
				"type": "unocc",
				"energy": -0.04099,
				"method": "rhf"
			},
			{
				"type": "unocc",
				"energy": -0.00568,
				"method": "rhf"
			},
			{
				"type": "unocc",
				"energy": 0.01169,
				"method": "rhf"
			},
			{
				"type": "unocc",
				"energy": 0.04572,
				"method": "rhf"
			},
			{
				"type": "unocc",
				"energy": 0.06954,
				"method": "rhf"
			}
		],
		"cosmo_sigma_profile": { 
			"-0.025": 0.0,
			"-0.024": 0.0,
			"-0.023": 0.0,
			"-0.022": 0.0,
			"-0.021": 0.0,
			"-0.02": 0.0,
			"-0.019": 0.0,
			"-0.018": 0.0,
			"-0.017": 0.0,
			"-0.016": 0.41180241157,
			"-0.015": 1.20764191761,
			"-0.014": 1.28366009983,
			"-0.013": 1.22781122253,
			"-0.012": 1.62056699849,
			"-0.011": 2.28432596393,
			"-0.01": 2.2466005684,
			"-0.009": 2.82516492288,
			"-0.008": 3.82768801091,
			"-0.007": 5.83536121523,
			"-0.006": 17.4360697082,
			"-0.005": 28.8427540733,
			"-0.004": 29.7931879696,
			"-0.003": 27.1546379432,
			"-0.002": 23.2254234562,
			"-0.001": 20.8659361674,
			"0.0": 18.777830875,
			"0.001": 19.7978256235,
			"0.002": 17.2772583026,
			"0.003": 19.6884928988,
			"0.004": 23.2329686701,
			"0.005": 22.2146853872,
			"0.006": 13.1440681492,
			"0.007": 2.15573601821,
			"0.008": 1.42198898131,
			"0.009": 3.31517535318,
			"0.01": 2.8647016302,
			"0.011": 3.24978017039,
			"0.012": 8.37479515489,
			"0.013": 8.82892816936,
			"0.014": 0.207757670808,
			"0.015": 0.0,
			"0.016": 0.0,
			"0.017": 0.0,
			"0.018": 0.0,
			"0.019": 0.0,
			"0.02": 0.0,
			"0.021": 0.0,
			"0.022": 0.0,
			"0.023": 0.0,
			"0.024": 0.0,
			"0.025": 0.0
		}
	}
}
