{
	 "smiles": "CC(N)C1=CC=C(C=C1)S(N)(=O)=O", 
	 "Tm": 422.15, 
	 "num_atms": 25, 
	 "gaussian": { 
		 "optdone": 1, 
		 "sigma_profile": "yes", 
		 "theory": "DFT", 
		 "functional": "B3LYP", 
		 "basiset": "6-31G**", 
		 "properties": { 
			 "R2extent": 4333.6459, 
			 "electric_dipole_moment_norm": 5.50234939003, 
			 "electric_quadrupole_moment_norm": 27.0079462714, 
			 "total_energy": -970.153725706, 
			 "HOMO_LUMO_gap": 0.20718, 
			 "cosmo_polarized_energy": -22.11, 
			 "cosmo_cavitation_energy": 29.84, 
			 "cosmo_dispersion_energy": -21.94, 
			 "cosmo_repulsion_energy": 1.71, 
			 "cosmo_total_nonelectrostatic_energy": 9.6, 
			 "SMD_solvation_energy": 3.67 
		},
		"coords": [
			{
				"x": -1.221618109,
				"y": 3.1324814986,
				"z": 2.5378966111,
				"element": "C" 
			},
			{
				"x": -1.3238238379,
				"y": 2.4693835344,
				"z": 1.1544358632,
				"element": "C" 
			},
			{
				"x": -0.8406308125,
				"y": 3.4131534974,
				"z": 0.145797382,
				"element": "N" 
			},
			{
				"x": -0.6546750287,
				"y": 1.0914843367,
				"z": 1.1691994248,
				"element": "C" 
			},
			{
				"x": 0.6886186986,
				"y": 0.9181673014,
				"z": 0.8119880719,
				"element": "C" 
			},
			{
				"x": 1.2945352048,
				"y": -0.3362806775,
				"z": 0.8697193657,
				"element": "C" 
			},
			{
				"x": 0.5434646012,
				"y": -1.4378098859,
				"z": 1.2836526557,
				"element": "C" 
			},
			{
				"x": -0.7966250726,
				"y": -1.2927972021,
				"z": 1.6517050606,
				"element": "C" 
			},
			{
				"x": -1.3838043765,
				"y": -0.0314795629,
				"z": 1.5880911047,
				"element": "C" 
			},
			{
				"x": 1.3051081465,
				"y": -3.0652077083,
				"z": 1.3275438666,
				"element": "S" 
			},
			{
				"x": 1.0422596862,
				"y": -3.7698500604,
				"z": -0.1787653869,
				"element": "N" 
			},
			{
				"x": 2.7509751421,
				"y": -2.8696101844,
				"z": 1.4199127412,
				"element": "O" 
			},
			{
				"x": 0.5465744365,
				"y": -3.8786394546,
				"z": 2.2762583756,
				"element": "O" 
			},
			{
				"x": -1.6578905132,
				"y": 2.4985066187,
				"z": 3.3144196414,
				"element": "H" 
			},
			{
				"x": -0.1720755251,
				"y": 3.3069468572,
				"z": 2.8029894616,
				"element": "H" 
			},
			{
				"x": -1.7413294415,
				"y": 4.0943904962,
				"z": 2.5274946521,
				"element": "H" 
			},
			{
				"x": -2.3889970428,
				"y": 2.3022283116,
				"z": 0.9438543283,
				"element": "H" 
			},
			{
				"x": 0.0975095835,
				"y": 3.7351539604,
				"z": 0.3709422269,
				"element": "H" 
			},
			{
				"x": -0.7950826335,
				"y": 2.9744771425,
				"z": -0.7703792785,
				"element": "H" 
			},
			{
				"x": 1.2716216032,
				"y": 1.7734259443,
				"z": 0.4827944406,
				"element": "H" 
			},
			{
				"x": 2.342410831,
				"y": -0.4627779012,
				"z": 0.6182030149,
				"element": "H" 
			},
			{
				"x": -1.3573932524,
				"y": -2.1544348656,
				"z": 1.9987506316,
				"element": "H" 
			},
			{
				"x": -2.4264514006,
				"y": 0.0858586189,
				"z": 1.8743924741,
				"element": "H" 
			},
			{
				"x": 1.5101681762,
				"y": -3.2745765963,
				"z": -0.9312487405,
				"element": "H" 
			},
			{
				"x": 0.0593509366,
				"y": -3.9405940191,
				"z": -0.3664479887,
				"element": "H" 
			}
		],
		 "valence_orbital": [ 
			{
				"type": "occ",
				"energy": -0.30282,
				"method": "rhf"
			},
			{
				"type": "occ",
				"energy": -0.30132,
				"method": "rhf"
			},
			{
				"type": "occ",
				"energy": -0.27457,
				"method": "rhf"
			},
			{
				"type": "occ",
				"energy": -0.26702,
				"method": "rhf"
			},
			{
				"type": "occ",
				"energy": -0.24739,
				"method": "rhf"
			},
			{
				"type": "unocc",
				"energy": -0.04021,
				"method": "rhf"
			},
			{
				"type": "unocc",
				"energy": -0.02601,
				"method": "rhf"
			},
			{
				"type": "unocc",
				"energy": 0.05067,
				"method": "rhf"
			},
			{
				"type": "unocc",
				"energy": 0.06652,
				"method": "rhf"
			},
			{
				"type": "unocc",
				"energy": 0.0806,
				"method": "rhf"
			}
		],
		"cosmo_sigma_profile": { 
			"-0.025": 0.0,
			"-0.024": 0.0,
			"-0.023": 0.0,
			"-0.022": 0.0,
			"-0.021": 0.0,
			"-0.02": 0.0,
			"-0.019": 0.0,
			"-0.018": 0.0,
			"-0.017": 0.0,
			"-0.016": 0.023245177294,
			"-0.015": 2.17665970043,
			"-0.014": 2.41686072656,
			"-0.013": 2.5837562487,
			"-0.012": 2.93891312766,
			"-0.011": 2.83766825016,
			"-0.01": 3.62431971529,
			"-0.009": 5.17870420565,
			"-0.008": 6.11722888846,
			"-0.007": 7.35691532486,
			"-0.006": 11.6479511613,
			"-0.005": 13.6281375757,
			"-0.004": 14.2396903053,
			"-0.003": 15.8088899038,
			"-0.002": 13.2970252626,
			"-0.001": 13.0030159696,
			"0.0": 16.8453061364,
			"0.001": 14.7067464592,
			"0.002": 10.7207146121,
			"0.003": 14.8405520985,
			"0.004": 8.23151066901,
			"0.005": 2.53145495041,
			"0.006": 4.09399137003,
			"0.007": 4.86486612053,
			"0.008": 6.30028466083,
			"0.009": 4.90157346368,
			"0.01": 7.54777648599,
			"0.011": 11.8004879054,
			"0.012": 6.62656730243,
			"0.013": 0.560770128742,
			"0.014": 0.706480610818,
			"0.015": 0.919110701557,
			"0.016": 0.447003278514,
			"0.017": 0.64317461773,
			"0.018": 0.318859127175,
			"0.019": 0.537434187609,
			"0.02": 0.0,
			"0.021": 0.0,
			"0.022": 0.0,
			"0.023": 0.0,
			"0.024": 0.0,
			"0.025": 0.0
		}
	}
}
