{
	 "smiles": "ClCC(=O)NC1=CC=NN1CC1=C(Cl)C=CC=C1", 
	 "Tm": 393.15, 
	 "num_atms": 29, 
	 "gaussian": { 
		 "optdone": 1, 
		 "sigma_profile": "yes", 
		 "theory": "DFT", 
		 "functional": "B3LYP", 
		 "basiset": "6-31G**", 
		 "properties": { 
			 "R2extent": 6444.1434, 
			 "electric_dipole_moment_norm": 2.85479966022, 
			 "electric_quadrupole_moment_norm": 18.0723554787, 
			 "total_energy": -1623.75204647, 
			 "HOMO_LUMO_gap": 0.20073, 
			 "cosmo_polarized_energy": -16.23, 
			 "cosmo_cavitation_energy": 36.7, 
			 "cosmo_dispersion_energy": -25.28, 
			 "cosmo_repulsion_energy": 1.95, 
			 "cosmo_total_nonelectrostatic_energy": 13.37, 
			 "SMD_solvation_energy": 5.65 
		},
		"coords": [
			{
				"x": 0.495827201,
				"y": -0.7180408131,
				"z": -4.7470390527,
				"element": "Cl" 
			},
			{
				"x": 0.2012914645,
				"y": 0.5049539744,
				"z": -3.4400619612,
				"element": "C" 
			},
			{
				"x": 1.1085247001,
				"y": 0.2382376785,
				"z": -2.2435908463,
				"element": "C" 
			},
			{
				"x": 2.2380488052,
				"y": 0.6935043931,
				"z": -2.1847347438,
				"element": "O" 
			},
			{
				"x": 0.5978795983,
				"y": -0.5265852777,
				"z": -1.2125418004,
				"element": "N" 
			},
			{
				"x": -0.6660934949,
				"y": -1.1199954746,
				"z": -1.0879489168,
				"element": "C" 
			},
			{
				"x": -1.3765156252,
				"y": -1.974499901,
				"z": -1.9142565871,
				"element": "C" 
			},
			{
				"x": -2.5888905782,
				"y": -2.1912814949,
				"z": -1.2267798031,
				"element": "C" 
			},
			{
				"x": -2.6295880325,
				"y": -1.5471547212,
				"z": -0.0627236815,
				"element": "N" 
			},
			{
				"x": -1.4496049511,
				"y": -0.8891398154,
				"z": 0.014992852,
				"element": "N" 
			},
			{
				"x": -1.1774226779,
				"y": -0.0207343205,
				"z": 1.1606991989,
				"element": "C" 
			},
			{
				"x": 0.0223621106,
				"y": -0.423641975,
				"z": 2.0003251969,
				"element": "C" 
			},
			{
				"x": 0.0156153891,
				"y": -1.5309994532,
				"z": 2.8650102383,
				"element": "C" 
			},
			{
				"x": -1.4208923769,
				"y": -2.5254239248,
				"z": 3.0262126899,
				"element": "Cl" 
			},
			{
				"x": 1.1333321561,
				"y": -1.8651766192,
				"z": 3.6305941835,
				"element": "C" 
			},
			{
				"x": 2.2881045791,
				"y": -1.0879318618,
				"z": 3.5474749401,
				"element": "C" 
			},
			{
				"x": 2.31992096,
				"y": 0.0247038707,
				"z": 2.7074742928,
				"element": "C" 
			},
			{
				"x": 1.1945234224,
				"y": 0.3470054552,
				"z": 1.9493030143,
				"element": "C" 
			},
			{
				"x": 0.4732600417,
				"y": 1.4746057168,
				"z": -3.8527912201,
				"element": "H" 
			},
			{
				"x": -0.8595996126,
				"y": 0.4609329248,
				"z": -3.1971704943,
				"element": "H" 
			},
			{
				"x": 1.2612791569,
				"y": -0.6536643921,
				"z": -0.4553249648,
				"element": "H" 
			},
			{
				"x": -1.0498114257,
				"y": -2.3780259429,
				"z": -2.8600325869,
				"element": "H" 
			},
			{
				"x": -3.4302335086,
				"y": -2.8004525785,
				"z": -1.5287728986,
				"element": "H" 
			},
			{
				"x": -1.0273441336,
				"y": 1.0019483566,
				"z": 0.7990859566,
				"element": "H" 
			},
			{
				"x": -2.096616925,
				"y": -0.0443917488,
				"z": 1.7481868488,
				"element": "H" 
			},
			{
				"x": 1.0892764833,
				"y": -2.7271627307,
				"z": 4.2870057006,
				"element": "H" 
			},
			{
				"x": 3.1560676691,
				"y": -1.3527168712,
				"z": 4.1434896701,
				"element": "H" 
			},
			{
				"x": 3.2115940646,
				"y": 0.6397570733,
				"z": 2.640899076,
				"element": "H" 
			},
			{
				"x": 1.2181055403,
				"y": 1.2178704731,
				"z": 1.2991156989,
				"element": "H" 
			}
		],
		 "valence_orbital": [ 
			{
				"type": "occ",
				"energy": -0.27981,
				"method": "rhf"
			},
			{
				"type": "occ",
				"energy": -0.26859,
				"method": "rhf"
			},
			{
				"type": "occ",
				"energy": -0.2622,
				"method": "rhf"
			},
			{
				"type": "occ",
				"energy": -0.25655,
				"method": "rhf"
			},
			{
				"type": "occ",
				"energy": -0.23785,
				"method": "rhf"
			},
			{
				"type": "unocc",
				"energy": -0.03712,
				"method": "rhf"
			},
			{
				"type": "unocc",
				"energy": -0.03281,
				"method": "rhf"
			},
			{
				"type": "unocc",
				"energy": -0.02961,
				"method": "rhf"
			},
			{
				"type": "unocc",
				"energy": 0.00553,
				"method": "rhf"
			},
			{
				"type": "unocc",
				"energy": 0.02462,
				"method": "rhf"
			}
		],
		"cosmo_sigma_profile": { 
			"-0.025": 0.0,
			"-0.024": 0.0,
			"-0.023": 0.0,
			"-0.022": 0.0,
			"-0.021": 0.0,
			"-0.02": 0.0,
			"-0.019": 0.0,
			"-0.018": 0.0,
			"-0.017": 0.0,
			"-0.016": 0.0,
			"-0.015": 0.0,
			"-0.014": 0.0,
			"-0.013": 0.0,
			"-0.012": 0.279440395554,
			"-0.011": 0.618125325256,
			"-0.01": 1.15483755694,
			"-0.009": 2.04723565585,
			"-0.008": 7.64219797708,
			"-0.007": 18.1624169478,
			"-0.006": 21.0158570684,
			"-0.005": 21.7874483449,
			"-0.004": 18.2478111531,
			"-0.003": 14.5119795734,
			"-0.002": 16.7410104076,
			"-0.001": 18.4478376117,
			"0.0": 18.7860253409,
			"0.001": 20.9670876911,
			"0.002": 21.4796887777,
			"0.003": 25.6144237947,
			"0.004": 21.6560470164,
			"0.005": 14.8660508098,
			"0.006": 6.5186452603,
			"0.007": 2.85012041233,
			"0.008": 3.81539548575,
			"0.009": 2.72096436977,
			"0.01": 3.56115512391,
			"0.011": 3.430502335,
			"0.012": 6.34878823051,
			"0.013": 3.31482726533,
			"0.014": 0.923558549315,
			"0.015": 0.58811763462,
			"0.016": 0.0,
			"0.017": 0.0,
			"0.018": 0.0,
			"0.019": 0.0,
			"0.02": 0.0,
			"0.021": 0.0,
			"0.022": 0.0,
			"0.023": 0.0,
			"0.024": 0.0,
			"0.025": 0.0
		}
	}
}
