{
	 "smiles": "OC1CN(CC2=CC=CC=C2)CC1O", 
	 "Tm": 371.15, 
	 "num_atms": 29, 
	 "gaussian": { 
		 "optdone": 1, 
		 "sigma_profile": "yes", 
		 "theory": "DFT", 
		 "functional": "B3LYP", 
		 "basiset": "6-31G**", 
		 "properties": { 
			 "R2extent": 3398.9641, 
			 "electric_dipole_moment_norm": 1.85750991922, 
			 "electric_quadrupole_moment_norm": 9.90937283283, 
			 "total_energy": -633.377494235, 
			 "HOMO_LUMO_gap": 0.20018, 
			 "cosmo_polarized_energy": -12.4, 
			 "cosmo_cavitation_energy": 30.87, 
			 "cosmo_dispersion_energy": -22.15, 
			 "cosmo_repulsion_energy": 1.77, 
			 "cosmo_total_nonelectrostatic_energy": 10.49, 
			 "SMD_solvation_energy": 2.6 
		},
		"coords": [
			{
				"x": 0.0307693345,
				"y": -3.4457978757,
				"z": 1.9568827682,
				"element": "O" 
			},
			{
				"x": 0.1083737939,
				"y": -2.0798861463,
				"z": 1.5887188988,
				"element": "C" 
			},
			{
				"x": -0.0343055164,
				"y": -1.918547452,
				"z": 0.0633507843,
				"element": "C" 
			},
			{
				"x": -1.0137162534,
				"y": -0.8331356594,
				"z": -0.1107546963,
				"element": "N" 
			},
			{
				"x": -0.9905028154,
				"y": -0.0962002505,
				"z": -1.3713466635,
				"element": "C" 
			},
			{
				"x": 0.2500037655,
				"y": 0.7466295135,
				"z": -1.6371938665,
				"element": "C" 
			},
			{
				"x": 1.3343322883,
				"y": 0.2258600512,
				"z": -2.3578820453,
				"element": "C" 
			},
			{
				"x": 2.490168677,
				"y": 0.981484588,
				"z": -2.5641659596,
				"element": "C" 
			},
			{
				"x": 2.5785477482,
				"y": 2.2776311603,
				"z": -2.0538434628,
				"element": "C" 
			},
			{
				"x": 1.5027439812,
				"y": 2.8142686315,
				"z": -1.3433249237,
				"element": "C" 
			},
			{
				"x": 0.3500382827,
				"y": 2.0544445818,
				"z": -1.1399192081,
				"element": "C" 
			},
			{
				"x": -1.0901745854,
				"y": -0.0740935982,
				"z": 1.1318320346,
				"element": "C" 
			},
			{
				"x": -1.0054931117,
				"y": -1.2006712963,
				"z": 2.168518453,
				"element": "C" 
			},
			{
				"x": -0.6490197992,
				"y": -0.8153527865,
				"z": 3.4880433718,
				"element": "O" 
			},
			{
				"x": 0.1344014217,
				"y": -3.4807863182,
				"z": 2.9175035804,
				"element": "H" 
			},
			{
				"x": 1.0615870732,
				"y": -1.6431993332,
				"z": 1.9259006613,
				"element": "H" 
			},
			{
				"x": 0.9421025645,
				"y": -1.6928457707,
				"z": -0.3897353718,
				"element": "H" 
			},
			{
				"x": -0.4054194329,
				"y": -2.851400247,
				"z": -0.3792277084,
				"element": "H" 
			},
			{
				"x": -1.1134766059,
				"y": -0.8260134538,
				"z": -2.1814353593,
				"element": "H" 
			},
			{
				"x": -1.8784773427,
				"y": 0.5485312461,
				"z": -1.3880877254,
				"element": "H" 
			},
			{
				"x": 1.265817289,
				"y": -0.7767307465,
				"z": -2.7737119926,
				"element": "H" 
			},
			{
				"x": 3.3178445312,
				"y": 0.560560886,
				"z": -3.1283837007,
				"element": "H" 
			},
			{
				"x": 3.4753997917,
				"y": 2.8687381087,
				"z": -2.2158360404,
				"element": "H" 
			},
			{
				"x": 1.5586883858,
				"y": 3.8271286112,
				"z": -0.9539304885,
				"element": "H" 
			},
			{
				"x": -0.4896550645,
				"y": 2.4858185594,
				"z": -0.5999920181,
				"element": "H" 
			},
			{
				"x": -0.2562968842,
				"y": 0.6325404214,
				"z": 1.2975551597,
				"element": "H" 
			},
			{
				"x": -2.0283564335,
				"y": 0.4945636354,
				"z": 1.1780535545,
				"element": "H" 
			},
			{
				"x": -1.9404866142,
				"y": -1.7789005433,
				"z": 2.1572906522,
				"element": "H" 
			},
			{
				"x": -1.4127384689,
				"y": -0.3906385171,
				"z": 3.8978213122,
				"element": "H" 
			}
		],
		 "valence_orbital": [ 
			{
				"type": "occ",
				"energy": -0.27696,
				"method": "rhf"
			},
			{
				"type": "occ",
				"energy": -0.2558,
				"method": "rhf"
			},
			{
				"type": "occ",
				"energy": -0.24831,
				"method": "rhf"
			},
			{
				"type": "occ",
				"energy": -0.24448,
				"method": "rhf"
			},
			{
				"type": "occ",
				"energy": -0.20225,
				"method": "rhf"
			},
			{
				"type": "unocc",
				"energy": -0.00207,
				"method": "rhf"
			},
			{
				"type": "unocc",
				"energy": -0.00108,
				"method": "rhf"
			},
			{
				"type": "unocc",
				"energy": 0.06833,
				"method": "rhf"
			},
			{
				"type": "unocc",
				"energy": 0.08837,
				"method": "rhf"
			},
			{
				"type": "unocc",
				"energy": 0.09136,
				"method": "rhf"
			}
		],
		"cosmo_sigma_profile": { 
			"-0.025": 0.0,
			"-0.024": 0.0,
			"-0.023": 0.0,
			"-0.022": 0.0,
			"-0.021": 0.0,
			"-0.02": 0.0,
			"-0.019": 0.0,
			"-0.018": 0.0,
			"-0.017": 0.0,
			"-0.016": 0.519674613575,
			"-0.015": 1.73248734942,
			"-0.014": 1.5424197837,
			"-0.013": 2.08136307057,
			"-0.012": 1.28453217013,
			"-0.011": 1.08621825991,
			"-0.01": 2.14597850049,
			"-0.009": 0.996178281689,
			"-0.008": 1.87667389834,
			"-0.007": 1.38524286456,
			"-0.006": 4.00551515783,
			"-0.005": 12.6851008026,
			"-0.004": 24.7581253178,
			"-0.003": 28.4654017574,
			"-0.002": 22.501089975,
			"-0.001": 21.8786765046,
			"0.0": 16.7971096899,
			"0.001": 12.9302978489,
			"0.002": 11.8376540239,
			"0.003": 11.7279180226,
			"0.004": 10.6770309554,
			"0.005": 11.4253437981,
			"0.006": 10.7344873351,
			"0.007": 5.08245652803,
			"0.008": 2.43336618293,
			"0.009": 3.51824489524,
			"0.01": 2.82602250689,
			"0.011": 2.6864467444,
			"0.012": 3.0040914627,
			"0.013": 3.85087792686,
			"0.014": 2.46223336995,
			"0.015": 0.160142928708,
			"0.016": 0.0,
			"0.017": 0.0,
			"0.018": 0.0,
			"0.019": 0.0,
			"0.02": 0.0,
			"0.021": 0.0,
			"0.022": 0.0,
			"0.023": 0.0,
			"0.024": 0.0,
			"0.025": 0.0
		}
	}
}
