{
	 "smiles": "CCCCCCC(C)(C)S", 
	 "Tm": 230.05, 
	 "num_atms": 30, 
	 "gaussian": { 
		 "optdone": 1, 
		 "sigma_profile": "yes", 
		 "theory": "DFT", 
		 "functional": "B3LYP", 
		 "basiset": "6-31G**", 
		 "properties": { 
			 "R2extent": 2904.6909, 
			 "electric_dipole_moment_norm": 1.97910536607, 
			 "electric_quadrupole_moment_norm": 6.45924461837, 
			 "total_energy": -753.222232156, 
			 "HOMO_LUMO_gap": 0.254, 
			 "cosmo_polarized_energy": -4.5, 
			 "cosmo_cavitation_energy": 31.23, 
			 "cosmo_dispersion_energy": -21.9, 
			 "cosmo_repulsion_energy": 1.74, 
			 "cosmo_total_nonelectrostatic_energy": 11.07, 
			 "SMD_solvation_energy": 4.34 
		},
		"coords": [
			{
				"x": 2.7626481037,
				"y": 0.335803163,
				"z": 2.5154510243,
				"element": "C" 
			},
			{
				"x": 2.6062117643,
				"y": 1.6981195581,
				"z": 1.829619265,
				"element": "C" 
			},
			{
				"x": 2.9141165827,
				"y": 1.6890151853,
				"z": 0.3214590971,
				"element": "C" 
			},
			{
				"x": 1.984891437,
				"y": 0.829291194,
				"z": -0.5540143635,
				"element": "C" 
			},
			{
				"x": 0.5279228995,
				"y": 1.3205600623,
				"z": -0.5964859107,
				"element": "C" 
			},
			{
				"x": -0.3824041704,
				"y": 0.5596118753,
				"z": -1.5936062263,
				"element": "C" 
			},
			{
				"x": -1.2363328313,
				"y": -0.6017059473,
				"z": -1.0246203054,
				"element": "C" 
			},
			{
				"x": -0.3848274409,
				"y": -1.6977470699,
				"z": -0.3648257195,
				"element": "C" 
			},
			{
				"x": -2.3031987483,
				"y": -0.0943852169,
				"z": -0.0422423542,
				"element": "C" 
			},
			{
				"x": -2.0893093959,
				"y": -1.4645080416,
				"z": -2.4570653782,
				"element": "S" 
			},
			{
				"x": 2.5902554932,
				"y": 0.4149229645,
				"z": 3.5938840334,
				"element": "H" 
			},
			{
				"x": 2.0554246687,
				"y": -0.4042856251,
				"z": 2.1258546732,
				"element": "H" 
			},
			{
				"x": 3.7719972833,
				"y": -0.06626916,
				"z": 2.3689508956,
				"element": "H" 
			},
			{
				"x": 1.5921217661,
				"y": 2.0808819932,
				"z": 2.0025289797,
				"element": "H" 
			},
			{
				"x": 3.2802191794,
				"y": 2.4173299445,
				"z": 2.3123032849,
				"element": "H" 
			},
			{
				"x": 2.8873969611,
				"y": 2.7230514501,
				"z": -0.0494663397,
				"element": "H" 
			},
			{
				"x": 3.9471995855,
				"y": 1.3433509791,
				"z": 0.1786757322,
				"element": "H" 
			},
			{
				"x": 2.0255129107,
				"y": -0.2156639261,
				"z": -0.2255919673,
				"element": "H" 
			},
			{
				"x": 2.3792195408,
				"y": 0.8325435612,
				"z": -1.5790726471,
				"element": "H" 
			},
			{
				"x": 0.0923954199,
				"y": 1.2990793683,
				"z": 0.4094369901,
				"element": "H" 
			},
			{
				"x": 0.540200941,
				"y": 2.3802311134,
				"z": -0.8838894333,
				"element": "H" 
			},
			{
				"x": -1.077583899,
				"y": 1.2740681994,
				"z": -2.0519791153,
				"element": "H" 
			},
			{
				"x": 0.2302263364,
				"y": 0.1688326562,
				"z": -2.4140572256,
				"element": "H" 
			},
			{
				"x": -1.0086131209,
				"y": -2.5398285766,
				"z": -0.0491027342,
				"element": "H" 
			},
			{
				"x": 0.3833389988,
				"y": -2.0752574066,
				"z": -1.0463384174,
				"element": "H" 
			},
			{
				"x": 0.1121741662,
				"y": -1.301917146,
				"z": 0.5264720717,
				"element": "H" 
			},
			{
				"x": -2.9498561886,
				"y": 0.6552692803,
				"z": -0.5100387521,
				"element": "H" 
			},
			{
				"x": -1.8355686172,
				"y": 0.3689196696,
				"z": 0.8345525675,
				"element": "H" 
			},
			{
				"x": -2.9337145945,
				"y": -0.9164604462,
				"z": 0.3062931392,
				"element": "H" 
			},
			{
				"x": -2.7696650311,
				"y": -0.3905536554,
				"z": -2.9082848643,
				"element": "H" 
			}
		],
		 "valence_orbital": [ 
			{
				"type": "occ",
				"energy": -0.31886,
				"method": "rhf"
			},
			{
				"type": "occ",
				"energy": -0.31281,
				"method": "rhf"
			},
			{
				"type": "occ",
				"energy": -0.31064,
				"method": "rhf"
			},
			{
				"type": "occ",
				"energy": -0.29595,
				"method": "rhf"
			},
			{
				"type": "occ",
				"energy": -0.23002,
				"method": "rhf"
			},
			{
				"type": "unocc",
				"energy": 0.02398,
				"method": "rhf"
			},
			{
				"type": "unocc",
				"energy": 0.05944,
				"method": "rhf"
			},
			{
				"type": "unocc",
				"energy": 0.07905,
				"method": "rhf"
			},
			{
				"type": "unocc",
				"energy": 0.10318,
				"method": "rhf"
			},
			{
				"type": "unocc",
				"energy": 0.10782,
				"method": "rhf"
			}
		],
		"cosmo_sigma_profile": { 
			"-0.025": 0.0,
			"-0.024": 0.0,
			"-0.023": 0.0,
			"-0.022": 0.0,
			"-0.021": 0.0,
			"-0.02": 0.0,
			"-0.019": 0.0,
			"-0.018": 0.0,
			"-0.017": 0.0,
			"-0.016": 0.0,
			"-0.015": 0.0,
			"-0.014": 0.0,
			"-0.013": 0.0,
			"-0.012": 0.0,
			"-0.011": 0.0,
			"-0.01": 0.0,
			"-0.009": 0.0449756010485,
			"-0.008": 1.28191936515,
			"-0.007": 2.35423456657,
			"-0.006": 2.54263517335,
			"-0.005": 2.28204328838,
			"-0.004": 6.64381396814,
			"-0.003": 20.044328383,
			"-0.002": 33.6988124879,
			"-0.001": 43.8416542419,
			"0.0": 45.3603018586,
			"0.001": 41.1585375366,
			"0.002": 15.7997234781,
			"0.003": 3.14478785818,
			"0.004": 3.63155261148,
			"0.005": 3.86602717035,
			"0.006": 3.55248695951,
			"0.007": 3.31516011602,
			"0.008": 2.61302790049,
			"0.009": 2.08465465814,
			"0.01": 2.42245281565,
			"0.011": 1.63193900795,
			"0.012": 0.536657448538,
			"0.013": 0.0,
			"0.014": 0.0,
			"0.015": 0.0,
			"0.016": 0.0,
			"0.017": 0.0,
			"0.018": 0.0,
			"0.019": 0.0,
			"0.02": 0.0,
			"0.021": 0.0,
			"0.022": 0.0,
			"0.023": 0.0,
			"0.024": 0.0,
			"0.025": 0.0
		}
	}
}
