{
	 "smiles": "OC1CC(O)(CC(O)C1O)C(O)=O", 
	 "Tm": 440.15, 
	 "num_atms": 25, 
	 "gaussian": { 
		 "optdone": 1, 
		 "sigma_profile": "yes", 
		 "theory": "DFT", 
		 "functional": "B3LYP", 
		 "basiset": "6-31G**", 
		 "properties": { 
			 "R2extent": 2498.863, 
			 "electric_dipole_moment_norm": 3.41347115412, 
			 "electric_quadrupole_moment_norm": 9.84882374703, 
			 "total_energy": -725.325973651, 
			 "HOMO_LUMO_gap": 0.22348, 
			 "cosmo_polarized_energy": -16.68, 
			 "cosmo_cavitation_energy": 26.2, 
			 "cosmo_dispersion_energy": -19.81, 
			 "cosmo_repulsion_energy": 1.57, 
			 "cosmo_total_nonelectrostatic_energy": 7.96, 
			 "SMD_solvation_energy": 4.99 
		},
		"coords": [
			{
				"x": -1.9918495095,
				"y": -2.0915134543,
				"z": 1.3964946763,
				"element": "O" 
			},
			{
				"x": -1.4746343204,
				"y": -1.205693158,
				"z": 0.4176473106,
				"element": "C" 
			},
			{
				"x": -0.0203474024,
				"y": -1.5850631912,
				"z": 0.1393244308,
				"element": "C" 
			},
			{
				"x": 0.5906993053,
				"y": -0.6198225157,
				"z": -0.8979726113,
				"element": "C" 
			},
			{
				"x": -0.1326914352,
				"y": -0.7436544293,
				"z": -2.1259529229,
				"element": "O" 
			},
			{
				"x": 0.4983341496,
				"y": 0.844735889,
				"z": -0.4010388622,
				"element": "C" 
			},
			{
				"x": -0.9519163934,
				"y": 1.2389161906,
				"z": -0.0852965708,
				"element": "C" 
			},
			{
				"x": -1.7648855312,
				"y": 1.3403017486,
				"z": -1.2560243478,
				"element": "O" 
			},
			{
				"x": -1.5950001369,
				"y": 0.246530926,
				"z": 0.8988207626,
				"element": "C" 
			},
			{
				"x": -2.9653151268,
				"y": 0.5670289951,
				"z": 1.1040580448,
				"element": "O" 
			},
			{
				"x": 2.0442085223,
				"y": -0.975770817,
				"z": -1.200626549,
				"element": "C" 
			},
			{
				"x": 2.8396800838,
				"y": -0.9730745853,
				"z": -0.1203586032,
				"element": "O" 
			},
			{
				"x": 2.4379972122,
				"y": -1.2203018324,
				"z": -2.3247414148,
				"element": "O" 
			},
			{
				"x": -2.839795215,
				"y": -1.7056689297,
				"z": 1.6645993313,
				"element": "H" 
			},
			{
				"x": -2.0450612098,
				"y": -1.2983929703,
				"z": -0.5199555632,
				"element": "H" 
			},
			{
				"x": 0.553818977,
				"y": -1.5419415536,
				"z": 1.0707786196,
				"element": "H" 
			},
			{
				"x": 0.0269838503,
				"y": -2.6117604972,
				"z": -0.2369823072,
				"element": "H" 
			},
			{
				"x": 0.5311299971,
				"y": -0.9019720101,
				"z": -2.8207630132,
				"element": "H" 
			},
			{
				"x": 1.1114747064,
				"y": 0.9588126059,
				"z": 0.4992511763,
				"element": "H" 
			},
			{
				"x": 0.8993099934,
				"y": 1.5158843663,
				"z": -1.1684552159,
				"element": "H" 
			},
			{
				"x": -0.9646382092,
				"y": 2.2347584722,
				"z": 0.3729830476,
				"element": "H" 
			},
			{
				"x": -1.461017458,
				"y": 0.6491279107,
				"z": -1.8698125843,
				"element": "H" 
			},
			{
				"x": -1.1024173906,
				"y": 0.3234590179,
				"z": 1.8773425149,
				"element": "H" 
			},
			{
				"x": -3.2888903912,
				"y": 0.8259788286,
				"z": 0.2243526927,
				"element": "H" 
			},
			{
				"x": 3.7353229321,
				"y": -1.1994050069,
				"z": -0.4244720417,
				"element": "H" 
			}
		],
		 "valence_orbital": [ 
			{
				"type": "occ",
				"energy": -0.30614,
				"method": "rhf"
			},
			{
				"type": "occ",
				"energy": -0.2929,
				"method": "rhf"
			},
			{
				"type": "occ",
				"energy": -0.28507,
				"method": "rhf"
			},
			{
				"type": "occ",
				"energy": -0.28034,
				"method": "rhf"
			},
			{
				"type": "occ",
				"energy": -0.24472,
				"method": "rhf"
			},
			{
				"type": "unocc",
				"energy": -0.02124,
				"method": "rhf"
			},
			{
				"type": "unocc",
				"energy": 0.04771,
				"method": "rhf"
			},
			{
				"type": "unocc",
				"energy": 0.07271,
				"method": "rhf"
			},
			{
				"type": "unocc",
				"energy": 0.0904,
				"method": "rhf"
			},
			{
				"type": "unocc",
				"energy": 0.10737,
				"method": "rhf"
			}
		],
		"cosmo_sigma_profile": { 
			"-0.025": 0.0,
			"-0.024": 0.0,
			"-0.023": 0.0,
			"-0.022": 0.0,
			"-0.021": 0.0,
			"-0.02": 0.192104833477,
			"-0.019": 0.862608380184,
			"-0.018": 1.2008563121,
			"-0.017": 0.499814925756,
			"-0.016": 0.97078933814,
			"-0.015": 1.01873736378,
			"-0.014": 0.377909976165,
			"-0.013": 0.914829762694,
			"-0.012": 1.77670377412,
			"-0.011": 2.13440718861,
			"-0.01": 2.32044759217,
			"-0.009": 2.74256094095,
			"-0.008": 2.22697105118,
			"-0.007": 3.27480800538,
			"-0.006": 11.0614217477,
			"-0.005": 17.3907652068,
			"-0.004": 17.5855093271,
			"-0.003": 17.1498026818,
			"-0.002": 14.6806185509,
			"-0.001": 10.9124924604,
			"0.0": 11.5910051481,
			"0.001": 8.83207518237,
			"0.002": 7.41618881513,
			"0.003": 6.26637724236,
			"0.004": 6.80670232759,
			"0.005": 5.6333917563,
			"0.006": 6.92921371233,
			"0.007": 5.66919731329,
			"0.008": 5.29343254901,
			"0.009": 5.90782646519,
			"0.01": 6.38207846388,
			"0.011": 4.33026385687,
			"0.012": 4.42171728806,
			"0.013": 3.89279539604,
			"0.014": 3.78604181056,
			"0.015": 0.204963647621,
			"0.016": 0.0,
			"0.017": 0.0,
			"0.018": 0.0,
			"0.019": 0.0,
			"0.02": 0.0,
			"0.021": 0.0,
			"0.022": 0.0,
			"0.023": 0.0,
			"0.024": 0.0,
			"0.025": 0.0
		}
	}
}
