{
	 "smiles": "NC1=C(Br)C=CC(=C1)C(O)=O", 
	 "Tm": 501.15, 
	 "num_atms": 17, 
	 "gaussian": { 
		 "optdone": 1, 
		 "sigma_profile": "yes", 
		 "theory": "DFT", 
		 "functional": "B3LYP", 
		 "basiset": "6-31G**", 
		 "properties": { 
			 "R2extent": 5243.7677, 
			 "electric_dipole_moment_norm": 0.986822851377, 
			 "electric_quadrupole_moment_norm": 13.6485406641, 
			 "total_energy": -3046.98827352, 
			 "HOMO_LUMO_gap": 0.16704, 
			 "cosmo_polarized_energy": -11.85, 
			 "cosmo_cavitation_energy": 23.93, 
			 "cosmo_dispersion_energy": -18.36, 
			 "cosmo_repulsion_energy": 1.47, 
			 "cosmo_total_nonelectrostatic_energy": 7.05, 
			 "SMD_solvation_energy": 4.22 
		},
		"coords": [
			{
				"x": -3.3139884785,
				"y": 3.1595355604,
				"z": -0.1128803285,
				"element": "N" 
			},
			{
				"x": -2.366484015,
				"y": 2.209874671,
				"z": 0.2206495662,
				"element": "C" 
			},
			{
				"x": -2.3890401313,
				"y": 1.5199148043,
				"z": 1.4506071593,
				"element": "C" 
			},
			{
				"x": -3.725575061,
				"y": 1.9666258607,
				"z": 2.7478029628,
				"element": "Br" 
			},
			{
				"x": -1.4651853165,
				"y": 0.5241071388,
				"z": 1.7574031503,
				"element": "C" 
			},
			{
				"x": -0.4746619664,
				"y": 0.1819943435,
				"z": 0.841973473,
				"element": "C" 
			},
			{
				"x": -0.424778639,
				"y": 0.8563201778,
				"z": -0.3860170868,
				"element": "C" 
			},
			{
				"x": -1.3552239601,
				"y": 1.8515662905,
				"z": -0.6861587188,
				"element": "C" 
			},
			{
				"x": 0.6062908966,
				"y": 0.5548537057,
				"z": -1.4148604691,
				"element": "C" 
			},
			{
				"x": 1.4594503039,
				"y": -0.4303708541,
				"z": -1.0389369632,
				"element": "O" 
			},
			{
				"x": 0.7024832084,
				"y": 1.1145732048,
				"z": -2.4898066192,
				"element": "O" 
			},
			{
				"x": -3.0525766051,
				"y": 3.8106290271,
				"z": -0.838089803,
				"element": "H" 
			},
			{
				"x": -3.8208102163,
				"y": 3.5742711872,
				"z": 0.6561478286,
				"element": "H" 
			},
			{
				"x": -1.5253209455,
				"y": 0.023782237,
				"z": 2.7172421987,
				"element": "H" 
			},
			{
				"x": 0.2475253558,
				"y": -0.590579423,
				"z": 1.0741624844,
				"element": "H" 
			},
			{
				"x": -1.2885290367,
				"y": 2.3491261582,
				"z": -1.6487838221,
				"element": "H" 
			},
			{
				"x": 2.078524607,
				"y": -0.53832409,
				"z": -1.7794550126,
				"element": "H" 
			}
		],
		 "valence_orbital": [ 
			{
				"type": "occ",
				"energy": -0.31365,
				"method": "rhf"
			},
			{
				"type": "occ",
				"energy": -0.2992,
				"method": "rhf"
			},
			{
				"type": "occ",
				"energy": -0.27821,
				"method": "rhf"
			},
			{
				"type": "occ",
				"energy": -0.25383,
				"method": "rhf"
			},
			{
				"type": "occ",
				"energy": -0.21763,
				"method": "rhf"
			},
			{
				"type": "unocc",
				"energy": -0.05059,
				"method": "rhf"
			},
			{
				"type": "unocc",
				"energy": -0.00429,
				"method": "rhf"
			},
			{
				"type": "unocc",
				"energy": 0.00171,
				"method": "rhf"
			},
			{
				"type": "unocc",
				"energy": 0.05657,
				"method": "rhf"
			},
			{
				"type": "unocc",
				"energy": 0.07847,
				"method": "rhf"
			}
		],
		"cosmo_sigma_profile": { 
			"-0.025": 0.0,
			"-0.024": 0.0,
			"-0.023": 0.0,
			"-0.022": 0.0,
			"-0.021": 0.0,
			"-0.02": 0.0,
			"-0.019": 0.0869296396697,
			"-0.018": 0.765171338782,
			"-0.017": 0.928368148486,
			"-0.016": 0.9642234499,
			"-0.015": 0.287278320004,
			"-0.014": 1.15070831582,
			"-0.013": 2.28144855638,
			"-0.012": 2.45175626335,
			"-0.011": 3.46723700443,
			"-0.01": 3.34482237028,
			"-0.009": 2.82022758716,
			"-0.008": 3.44742824203,
			"-0.007": 4.63083340931,
			"-0.006": 6.79716228415,
			"-0.005": 6.87937638737,
			"-0.004": 6.92275854466,
			"-0.003": 7.58969324062,
			"-0.002": 9.64348269672,
			"-0.001": 12.5904560819,
			"0.0": 12.1497594852,
			"0.001": 15.3541054171,
			"0.002": 22.0836737521,
			"0.003": 23.4781419056,
			"0.004": 14.7633030894,
			"0.005": 4.79808382074,
			"0.006": 4.31239115419,
			"0.007": 4.28775163523,
			"0.008": 2.08128296691,
			"0.009": 2.45301955387,
			"0.01": 2.87614001048,
			"0.011": 4.22402113912,
			"0.012": 4.34852694413,
			"0.013": 0.187668856793,
			"0.014": 0.0,
			"0.015": 0.0,
			"0.016": 0.0,
			"0.017": 0.0,
			"0.018": 0.0,
			"0.019": 0.0,
			"0.02": 0.0,
			"0.021": 0.0,
			"0.022": 0.0,
			"0.023": 0.0,
			"0.024": 0.0,
			"0.025": 0.0
		}
	}
}
