{
	 "smiles": "NC1=C(F)C=C(C=N1)C(F)(F)F", 
	 "Tm": 339.15, 
	 "num_atms": 16, 
	 "gaussian": { 
		 "optdone": 1, 
		 "sigma_profile": "yes", 
		 "theory": "DFT", 
		 "functional": "B3LYP", 
		 "basiset": "6-31G**", 
		 "properties": { 
			 "R2extent": 3080.1324, 
			 "electric_dipole_moment_norm": 3.17649787974, 
			 "electric_quadrupole_moment_norm": 1.94257452367, 
			 "total_energy": -739.916542455, 
			 "HOMO_LUMO_gap": 0.19736, 
			 "cosmo_polarized_energy": -7.87, 
			 "cosmo_cavitation_energy": 22.63, 
			 "cosmo_dispersion_energy": -16.3, 
			 "cosmo_repulsion_energy": 1.22, 
			 "cosmo_total_nonelectrostatic_energy": 7.55, 
			 "SMD_solvation_energy": 4.15 
		},
		"coords": [
			{
				"x": 1.1025929425,
				"y": 1.6655739175,
				"z": 0.1926117084,
				"element": "N" 
			},
			{
				"x": 0.5822085639,
				"y": 0.4036046166,
				"z": 0.2654789872,
				"element": "C" 
			},
			{
				"x": -0.4886655369,
				"y": 0.1243463704,
				"z": 1.1453635242,
				"element": "C" 
			},
			{
				"x": -1.0080996902,
				"y": 1.1551232388,
				"z": 1.8542667025,
				"element": "F" 
			},
			{
				"x": -0.9918446155,
				"y": -1.1459047961,
				"z": 1.2612450392,
				"element": "C" 
			},
			{
				"x": -0.4044205998,
				"y": -2.1557421088,
				"z": 0.4777684137,
				"element": "C" 
			},
			{
				"x": 0.6409535086,
				"y": -1.8054715954,
				"z": -0.3716425848,
				"element": "C" 
			},
			{
				"x": 1.1240909446,
				"y": -0.5618466934,
				"z": -0.4847834122,
				"element": "N" 
			},
			{
				"x": -0.8825241426,
				"y": -3.5696835265,
				"z": 0.5996705062,
				"element": "C" 
			},
			{
				"x": -0.4289604148,
				"y": -4.1631123596,
				"z": 1.7299970434,
				"element": "F" 
			},
			{
				"x": -0.4766740316,
				"y": -4.3321004435,
				"z": -0.437934958,
				"element": "F" 
			},
			{
				"x": -2.2344685055,
				"y": -3.6334473696,
				"z": 0.6522520429,
				"element": "F" 
			},
			{
				"x": 1.7130423084,
				"y": 1.8503659326,
				"z": -0.5887259006,
				"element": "H" 
			},
			{
				"x": 0.5523090056,
				"y": 2.4302102478,
				"z": 0.549506134,
				"element": "H" 
			},
			{
				"x": -1.8203203321,
				"y": -1.3471871353,
				"z": 1.9313112145,
				"element": "H" 
			},
			{
				"x": 1.1074805954,
				"y": -2.5583282952,
				"z": -1.0002844606,
				"element": "H" 
			}
		],
		 "valence_orbital": [ 
			{
				"type": "occ",
				"energy": -0.3821,
				"method": "rhf"
			},
			{
				"type": "occ",
				"energy": -0.33975,
				"method": "rhf"
			},
			{
				"type": "occ",
				"energy": -0.29254,
				"method": "rhf"
			},
			{
				"type": "occ",
				"energy": -0.27702,
				"method": "rhf"
			},
			{
				"type": "occ",
				"energy": -0.23152,
				"method": "rhf"
			},
			{
				"type": "unocc",
				"energy": -0.03416,
				"method": "rhf"
			},
			{
				"type": "unocc",
				"energy": -0.01701,
				"method": "rhf"
			},
			{
				"type": "unocc",
				"energy": 0.07178,
				"method": "rhf"
			},
			{
				"type": "unocc",
				"energy": 0.10167,
				"method": "rhf"
			},
			{
				"type": "unocc",
				"energy": 0.12542,
				"method": "rhf"
			}
		],
		"cosmo_sigma_profile": { 
			"-0.025": 0.0,
			"-0.024": 0.0,
			"-0.023": 0.0,
			"-0.022": 0.0,
			"-0.021": 0.0,
			"-0.02": 0.0,
			"-0.019": 0.0,
			"-0.018": 0.0,
			"-0.017": 0.0,
			"-0.016": 0.0,
			"-0.015": 0.0,
			"-0.014": 1.32966678084,
			"-0.013": 1.76929672701,
			"-0.012": 2.0114792717,
			"-0.011": 2.0900916407,
			"-0.01": 2.48942576496,
			"-0.009": 3.06066255465,
			"-0.008": 3.44028885951,
			"-0.007": 4.26506224484,
			"-0.006": 4.90139643373,
			"-0.005": 4.77679181882,
			"-0.004": 5.60244390772,
			"-0.003": 6.34633918158,
			"-0.002": 8.73056288924,
			"-0.001": 15.9429809233,
			"0.0": 18.3311694259,
			"0.001": 17.0616090246,
			"0.002": 21.0823452561,
			"0.003": 34.6915961415,
			"0.004": 9.3605531523,
			"0.005": 2.80859077509,
			"0.006": 1.57282654494,
			"0.007": 1.64148902857,
			"0.008": 2.48699058871,
			"0.009": 1.58555654222,
			"0.01": 0.838575931669,
			"0.011": 0.638473609085,
			"0.012": 1.16887101139,
			"0.013": 0.725746837426,
			"0.014": 0.864134333588,
			"0.015": 0.178625531324,
			"0.016": 0.0,
			"0.017": 0.0,
			"0.018": 0.0,
			"0.019": 0.0,
			"0.02": 0.0,
			"0.021": 0.0,
			"0.022": 0.0,
			"0.023": 0.0,
			"0.024": 0.0,
			"0.025": 0.0
		}
	}
}
