{
	 "smiles": "NC(=O)CN1C=NC(=C1)[N+]([O-])=O", 
	 "Tm": 427.15, 
	 "num_atms": 18, 
	 "gaussian": { 
		 "optdone": 1, 
		 "sigma_profile": "yes", 
		 "theory": "DFT", 
		 "functional": "B3LYP", 
		 "basiset": "6-31G**", 
		 "properties": { 
			 "R2extent": 2945.3701, 
			 "electric_dipole_moment_norm": 4.23621115857, 
			 "electric_quadrupole_moment_norm": 32.6152970465, 
			 "total_energy": -638.722336188, 
			 "HOMO_LUMO_gap": 0.19069, 
			 "cosmo_polarized_energy": -26.32, 
			 "cosmo_cavitation_energy": 24.23, 
			 "cosmo_dispersion_energy": -17.31, 
			 "cosmo_repulsion_energy": 1.41, 
			 "cosmo_total_nonelectrostatic_energy": 8.32, 
			 "SMD_solvation_energy": 6.55 
		},
		"coords": [
			{
				"x": -0.9880070713,
				"y": -2.5909703207,
				"z": 2.0005167907,
				"element": "N" 
			},
			{
				"x": -1.9714511517,
				"y": -1.7846408974,
				"z": 1.5245605009,
				"element": "C" 
			},
			{
				"x": -3.1133077146,
				"y": -1.7627615465,
				"z": 1.9507058175,
				"element": "O" 
			},
			{
				"x": -1.599578323,
				"y": -0.8469129377,
				"z": 0.3593748316,
				"element": "C" 
			},
			{
				"x": -0.2197152938,
				"y": -0.8944075419,
				"z": -0.1075159867,
				"element": "N" 
			},
			{
				"x": 0.269291233,
				"y": -1.6548745432,
				"z": -1.1492829286,
				"element": "C" 
			},
			{
				"x": 1.5658306209,
				"y": -1.5223621455,
				"z": -1.3008447518,
				"element": "N" 
			},
			{
				"x": 1.9269552757,
				"y": -0.645662425,
				"z": -0.3230242458,
				"element": "C" 
			},
			{
				"x": 0.8547915737,
				"y": -0.2329550775,
				"z": 0.4351305361,
				"element": "C" 
			},
			{
				"x": 3.2913245392,
				"y": -0.2104061309,
				"z": -0.1272310616,
				"element": "N" 
			},
			{
				"x": 4.1552581013,
				"y": -0.6489163312,
				"z": -0.8763996095,
				"element": "O" 
			},
			{
				"x": 3.4745444225,
				"y": 0.5833550219,
				"z": 0.8030123628,
				"element": "O" 
			},
			{
				"x": -1.2146528998,
				"y": -3.2044475907,
				"z": 2.7688452683,
				"element": "H" 
			},
			{
				"x": -0.0452559103,
				"y": -2.5772050086,
				"z": 1.6468845674,
				"element": "H" 
			},
			{
				"x": -1.8423828112,
				"y": 0.1715639495,
				"z": 0.6711969282,
				"element": "H" 
			},
			{
				"x": -2.2599291718,
				"y": -1.0924265838,
				"z": -0.4757715202,
				"element": "H" 
			},
			{
				"x": -0.3790888351,
				"y": -2.2763376796,
				"z": -1.75225193,
				"element": "H" 
			},
			{
				"x": 0.7792734162,
				"y": 0.4476677889,
				"z": 1.2672944307,
				"element": "H" 
			}
		],
		 "valence_orbital": [ 
			{
				"type": "occ",
				"energy": -0.30477,
				"method": "rhf"
			},
			{
				"type": "occ",
				"energy": -0.29816,
				"method": "rhf"
			},
			{
				"type": "occ",
				"energy": -0.28884,
				"method": "rhf"
			},
			{
				"type": "occ",
				"energy": -0.28015,
				"method": "rhf"
			},
			{
				"type": "occ",
				"energy": -0.27225,
				"method": "rhf"
			},
			{
				"type": "unocc",
				"energy": -0.08156,
				"method": "rhf"
			},
			{
				"type": "unocc",
				"energy": -0.0171,
				"method": "rhf"
			},
			{
				"type": "unocc",
				"energy": -0.0017,
				"method": "rhf"
			},
			{
				"type": "unocc",
				"energy": 0.05401,
				"method": "rhf"
			},
			{
				"type": "unocc",
				"energy": 0.05685,
				"method": "rhf"
			}
		],
		"cosmo_sigma_profile": { 
			"-0.025": 0.0,
			"-0.024": 0.0,
			"-0.023": 0.0,
			"-0.022": 0.0,
			"-0.021": 0.0,
			"-0.02": 0.0,
			"-0.019": 0.0,
			"-0.018": 0.0,
			"-0.017": 0.0,
			"-0.016": 0.0,
			"-0.015": 0.710082395644,
			"-0.014": 1.7689298817,
			"-0.013": 2.09571112122,
			"-0.012": 5.39739236993,
			"-0.011": 8.26709679755,
			"-0.01": 8.66232838395,
			"-0.009": 8.74799870477,
			"-0.008": 8.2164018986,
			"-0.007": 5.70932861229,
			"-0.006": 8.69876662295,
			"-0.005": 10.6461677709,
			"-0.004": 6.70348427756,
			"-0.003": 7.60169615414,
			"-0.002": 8.81935775813,
			"-0.001": 7.38138805219,
			"0.0": 6.55966376751,
			"0.001": 6.61532343355,
			"0.002": 5.77436594026,
			"0.003": 5.16115857341,
			"0.004": 4.45292690905,
			"0.005": 4.51747220065,
			"0.006": 5.43801002983,
			"0.007": 7.41929423459,
			"0.008": 12.793171642,
			"0.009": 7.83474004561,
			"0.01": 6.66861963482,
			"0.011": 3.37986975394,
			"0.012": 4.59730520197,
			"0.013": 7.67266369708,
			"0.014": 3.78133775046,
			"0.015": 1.25991470139,
			"0.016": 0.258053616372,
			"0.017": 0.0,
			"0.018": 0.0,
			"0.019": 0.0,
			"0.02": 0.0,
			"0.021": 0.0,
			"0.022": 0.0,
			"0.023": 0.0,
			"0.024": 0.0,
			"0.025": 0.0
		}
	}
}
