{
	 "smiles": "CC(=O)OC1=CC=C(C=C1)N=C1C=CC(=O)C=C1", 
	 "Tm": 387.15, 
	 "num_atms": 29, 
	 "gaussian": { 
		 "optdone": 1, 
		 "sigma_profile": "yes", 
		 "theory": "DFT", 
		 "functional": "B3LYP", 
		 "basiset": "6-31G**", 
		 "properties": { 
			 "R2extent": 7175.766, 
			 "electric_dipole_moment_norm": 4.94509467756, 
			 "electric_quadrupole_moment_norm": 13.9661113013, 
			 "total_energy": -820.509691273, 
			 "HOMO_LUMO_gap": 0.11279, 
			 "cosmo_polarized_energy": -13.74, 
			 "cosmo_cavitation_energy": 35.05, 
			 "cosmo_dispersion_energy": -25.19, 
			 "cosmo_repulsion_energy": 1.96, 
			 "cosmo_total_nonelectrostatic_energy": 11.81, 
			 "SMD_solvation_energy": 6.59 
		},
		"coords": [
			{
				"x": -3.5801238247,
				"y": -2.3862307652,
				"z": 4.3573943291,
				"element": "C" 
			},
			{
				"x": -2.8166022819,
				"y": -2.1719878423,
				"z": 3.0747133245,
				"element": "C" 
			},
			{
				"x": -2.8199440472,
				"y": -2.9031523639,
				"z": 2.1157193679,
				"element": "O" 
			},
			{
				"x": -2.1063348373,
				"y": -1.0001819575,
				"z": 3.1577839245,
				"element": "O" 
			},
			{
				"x": -1.3131166657,
				"y": -0.5374459763,
				"z": 2.1121558623,
				"element": "C" 
			},
			{
				"x": -1.2601162761,
				"y": 0.8529509528,
				"z": 1.9760126966,
				"element": "C" 
			},
			{
				"x": -0.430480497,
				"y": 1.4234293303,
				"z": 1.0214212446,
				"element": "C" 
			},
			{
				"x": 0.3190731298,
				"y": 0.6130877879,
				"z": 0.1452353767,
				"element": "C" 
			},
			{
				"x": 0.2686818024,
				"y": -0.7853455691,
				"z": 0.3174419671,
				"element": "C" 
			},
			{
				"x": -0.5325907862,
				"y": -1.3626012292,
				"z": 1.2996247489,
				"element": "C" 
			},
			{
				"x": 1.1585606738,
				"y": 1.2557187062,
				"z": -0.7640858906,
				"element": "N" 
			},
			{
				"x": 1.317532687,
				"y": 0.8820382,
				"z": -1.9988595309,
				"element": "C" 
			},
			{
				"x": 2.3678141225,
				"y": 1.5728741688,
				"z": -2.7555413762,
				"element": "C" 
			},
			{
				"x": 2.6660169815,
				"y": 1.2423602444,
				"z": -4.0269680474,
				"element": "C" 
			},
			{
				"x": 1.9128934722,
				"y": 0.1922141593,
				"z": -4.7439100589,
				"element": "C" 
			},
			{
				"x": 2.1726661845,
				"y": -0.1226137782,
				"z": -5.9033123108,
				"element": "O" 
			},
			{
				"x": 0.801989354,
				"y": -0.4437699643,
				"z": -3.9979300813,
				"element": "C" 
			},
			{
				"x": 0.5249045851,
				"y": -0.1265376956,
				"z": -2.7174783444,
				"element": "C" 
			},
			{
				"x": -2.8875506052,
				"y": -2.424547197,
				"z": 5.2034032352,
				"element": "H" 
			},
			{
				"x": -4.1410532127,
				"y": -3.317652053,
				"z": 4.2912854175,
				"element": "H" 
			},
			{
				"x": -4.2624182387,
				"y": -1.5493361261,
				"z": 4.5327128789,
				"element": "H" 
			},
			{
				"x": -1.857730317,
				"y": 1.4688760837,
				"z": 2.639678956,
				"element": "H" 
			},
			{
				"x": -0.3608292408,
				"y": 2.5011141181,
				"z": 0.919141569,
				"element": "H" 
			},
			{
				"x": 0.9006644167,
				"y": -1.421807679,
				"z": -0.2931525662,
				"element": "H" 
			},
			{
				"x": -0.555177275,
				"y": -2.4362438308,
				"z": 1.4244913715,
				"element": "H" 
			},
			{
				"x": 2.9103894473,
				"y": 2.3414085439,
				"z": -2.2132893151,
				"element": "H" 
			},
			{
				"x": 3.4623127304,
				"y": 1.7291631068,
				"z": -4.5814403109,
				"element": "H" 
			},
			{
				"x": 0.209402317,
				"y": -1.16570308,
				"z": -4.5521532759,
				"element": "H" 
			},
			{
				"x": -0.3144337987,
				"y": -0.5810782948,
				"z": -2.2024951617,
				"element": "H" 
			}
		],
		 "valence_orbital": [ 
			{
				"type": "occ",
				"energy": -0.28686,
				"method": "rhf"
			},
			{
				"type": "occ",
				"energy": -0.27396,
				"method": "rhf"
			},
			{
				"type": "occ",
				"energy": -0.26781,
				"method": "rhf"
			},
			{
				"type": "occ",
				"energy": -0.25187,
				"method": "rhf"
			},
			{
				"type": "occ",
				"energy": -0.22569,
				"method": "rhf"
			},
			{
				"type": "unocc",
				"energy": -0.1129,
				"method": "rhf"
			},
			{
				"type": "unocc",
				"energy": -0.02265,
				"method": "rhf"
			},
			{
				"type": "unocc",
				"energy": -0.01915,
				"method": "rhf"
			},
			{
				"type": "unocc",
				"energy": -0.01157,
				"method": "rhf"
			},
			{
				"type": "unocc",
				"energy": 0.00609,
				"method": "rhf"
			}
		],
		"cosmo_sigma_profile": { 
			"-0.025": 0.0,
			"-0.024": 0.0,
			"-0.023": 0.0,
			"-0.022": 0.0,
			"-0.021": 0.0,
			"-0.02": 0.0,
			"-0.019": 0.0,
			"-0.018": 0.0,
			"-0.017": 0.0,
			"-0.016": 0.0,
			"-0.015": 0.0,
			"-0.014": 0.0,
			"-0.013": 0.0,
			"-0.012": 0.0,
			"-0.011": 0.0,
			"-0.01": 0.0,
			"-0.009": 0.0,
			"-0.008": 1.00834566934,
			"-0.007": 14.2185635821,
			"-0.006": 21.4020075187,
			"-0.005": 21.9306930525,
			"-0.004": 20.248927876,
			"-0.003": 21.4630331457,
			"-0.002": 25.9819784491,
			"-0.001": 22.3106232369,
			"0.0": 23.4452826278,
			"0.001": 19.2715414792,
			"0.002": 19.0798640555,
			"0.003": 16.9018130915,
			"0.004": 6.78794116149,
			"0.005": 6.61412184174,
			"0.006": 5.48145992407,
			"0.007": 3.66299637782,
			"0.008": 4.41651030978,
			"0.009": 4.76522073508,
			"0.01": 5.33125047558,
			"0.011": 7.45649341425,
			"0.012": 6.79857518884,
			"0.013": 2.95293009437,
			"0.014": 0.304322745595,
			"0.015": 0.0,
			"0.016": 0.0,
			"0.017": 0.0,
			"0.018": 0.0,
			"0.019": 0.0,
			"0.02": 0.0,
			"0.021": 0.0,
			"0.022": 0.0,
			"0.023": 0.0,
			"0.024": 0.0,
			"0.025": 0.0
		}
	}
}
