{
	 "smiles": "CCC(O)C1=CC(C)=CC=C1O", 
	 "Tm": 416.15, 
	 "num_atms": 26, 
	 "gaussian": { 
		 "optdone": 1, 
		 "sigma_profile": "yes", 
		 "theory": "DFT", 
		 "functional": "B3LYP", 
		 "basiset": "6-31G**", 
		 "properties": { 
			 "R2extent": 2556.1808, 
			 "electric_dipole_moment_norm": 2.9999860683, 
			 "electric_quadrupole_moment_norm": 11.9305491818, 
			 "total_energy": -539.953049126, 
			 "HOMO_LUMO_gap": 0.21427, 
			 "cosmo_polarized_energy": -10.86, 
			 "cosmo_cavitation_energy": 27.82, 
			 "cosmo_dispersion_energy": -20.24, 
			 "cosmo_repulsion_energy": 1.63, 
			 "cosmo_total_nonelectrostatic_energy": 9.21, 
			 "SMD_solvation_energy": 4.77 
		},
		"coords": [
			{
				"x": -0.8203009635,
				"y": -0.4983174,
				"z": 2.3265226694,
				"element": "C" 
			},
			{
				"x": -1.1389321384,
				"y": -1.6527342556,
				"z": 1.3730751283,
				"element": "C" 
			},
			{
				"x": -1.2315444684,
				"y": -1.278875464,
				"z": -0.1257467376,
				"element": "C" 
			},
			{
				"x": -2.2960513161,
				"y": -0.3716387401,
				"z": -0.3792894859,
				"element": "O" 
			},
			{
				"x": 0.1067362574,
				"y": -0.8387456343,
				"z": -0.7205541614,
				"element": "C" 
			},
			{
				"x": 0.9564735608,
				"y": -1.7975703742,
				"z": -1.2807351949,
				"element": "C" 
			},
			{
				"x": 2.203514871,
				"y": -1.4884718891,
				"z": -1.8394947937,
				"element": "C" 
			},
			{
				"x": 3.091798914,
				"y": -2.5725604125,
				"z": -2.4044543999,
				"element": "C" 
			},
			{
				"x": 2.5965396774,
				"y": -0.1471831834,
				"z": -1.8458703769,
				"element": "C" 
			},
			{
				"x": 1.7743120536,
				"y": 0.8384041354,
				"z": -1.3013299978,
				"element": "C" 
			},
			{
				"x": 0.5446816057,
				"y": 0.4968724457,
				"z": -0.7386546258,
				"element": "C" 
			},
			{
				"x": -0.276665395,
				"y": 1.4586971701,
				"z": -0.1832468573,
				"element": "O" 
			},
			{
				"x": 0.1650616469,
				"y": -0.0659333971,
				"z": 2.1280112979,
				"element": "H" 
			},
			{
				"x": -1.5625231841,
				"y": 0.3004324125,
				"z": 2.2356790792,
				"element": "H" 
			},
			{
				"x": -0.8306358619,
				"y": -0.8448371942,
				"z": 3.3650107789,
				"element": "H" 
			},
			{
				"x": -2.1068965062,
				"y": -2.0909337198,
				"z": 1.6455644319,
				"element": "H" 
			},
			{
				"x": -0.3881461141,
				"y": -2.4461902572,
				"z": 1.4841655698,
				"element": "H" 
			},
			{
				"x": -1.5157557123,
				"y": -2.1969358554,
				"z": -0.6550988317,
				"element": "H" 
			},
			{
				"x": -1.9730576882,
				"y": 0.5177606039,
				"z": -0.177172636,
				"element": "H" 
			},
			{
				"x": 0.6222657958,
				"y": -2.8336582183,
				"z": -1.2870180974,
				"element": "H" 
			},
			{
				"x": 2.5105291923,
				"y": -3.3251371954,
				"z": -2.9471178788,
				"element": "H" 
			},
			{
				"x": 3.6385963505,
				"y": -3.0976949487,
				"z": -1.6110831582,
				"element": "H" 
			},
			{
				"x": 3.8343390438,
				"y": -2.1609114623,
				"z": -3.0943708314,
				"element": "H" 
			},
			{
				"x": 3.5503928894,
				"y": 0.1366797459,
				"z": -2.2826670867,
				"element": "H" 
			},
			{
				"x": 2.0891692687,
				"y": 1.8804469264,
				"z": -1.3141616048,
				"element": "H" 
			},
			{
				"x": 0.1027982209,
				"y": 2.3334361618,
				"z": -0.3348621989,
				"element": "H" 
			}
		],
		 "valence_orbital": [ 
			{
				"type": "occ",
				"energy": -0.3242,
				"method": "rhf"
			},
			{
				"type": "occ",
				"energy": -0.30145,
				"method": "rhf"
			},
			{
				"type": "occ",
				"energy": -0.2508,
				"method": "rhf"
			},
			{
				"type": "occ",
				"energy": -0.24357,
				"method": "rhf"
			},
			{
				"type": "occ",
				"energy": -0.21934,
				"method": "rhf"
			},
			{
				"type": "unocc",
				"energy": -0.00507,
				"method": "rhf"
			},
			{
				"type": "unocc",
				"energy": 0.01033,
				"method": "rhf"
			},
			{
				"type": "unocc",
				"energy": 0.0576,
				"method": "rhf"
			},
			{
				"type": "unocc",
				"energy": 0.09279,
				"method": "rhf"
			},
			{
				"type": "unocc",
				"energy": 0.10557,
				"method": "rhf"
			}
		],
		"cosmo_sigma_profile": { 
			"-0.025": 0.0,
			"-0.024": 0.0,
			"-0.023": 0.0,
			"-0.022": 0.0,
			"-0.021": 0.0,
			"-0.02": 0.0,
			"-0.019": 0.0,
			"-0.018": 0.796997391376,
			"-0.017": 0.944284406834,
			"-0.016": 0.872908381186,
			"-0.015": 1.39430375306,
			"-0.014": 0.92732089027,
			"-0.013": 0.558735797422,
			"-0.012": 0.563708801164,
			"-0.011": 1.56438793891,
			"-0.01": 1.21707298174,
			"-0.009": 0.948210278634,
			"-0.008": 1.09546202061,
			"-0.007": 1.5176761181,
			"-0.006": 2.99847633502,
			"-0.005": 8.84434754295,
			"-0.004": 13.9911624511,
			"-0.003": 18.6168553943,
			"-0.002": 21.6454350325,
			"-0.001": 21.5595937873,
			"0.0": 26.1668270914,
			"0.001": 23.6159114863,
			"0.002": 14.1004389198,
			"0.003": 10.3847864483,
			"0.004": 9.3920715886,
			"0.005": 10.389542772,
			"0.006": 9.27485698251,
			"0.007": 2.37729327567,
			"0.008": 1.0837337508,
			"0.009": 1.48592162755,
			"0.01": 1.352641915,
			"0.011": 0.971654794618,
			"0.012": 1.19900082315,
			"0.013": 1.46091790109,
			"0.014": 1.96227502311,
			"0.015": 2.17500750675,
			"0.016": 0.0932811467385,
			"0.017": 0.0,
			"0.018": 0.0,
			"0.019": 0.0,
			"0.02": 0.0,
			"0.021": 0.0,
			"0.022": 0.0,
			"0.023": 0.0,
			"0.024": 0.0,
			"0.025": 0.0
		}
	}
}
