{
	 "smiles": "CC1=CC=CC(CC2=CC=CC=C2)=C1", 
	 "Tm": 245.15, 
	 "num_atms": 28, 
	 "gaussian": { 
		 "optdone": 1, 
		 "sigma_profile": "yes", 
		 "theory": "DFT", 
		 "functional": "B3LYP", 
		 "basiset": "6-31G**", 
		 "properties": { 
			 "R2extent": 3993.331, 
			 "electric_dipole_moment_norm": 0.378644041284, 
			 "electric_quadrupole_moment_norm": 5.12842959686, 
			 "total_energy": -541.943025563, 
			 "HOMO_LUMO_gap": 0.22525, 
			 "cosmo_polarized_energy": -5.41, 
			 "cosmo_cavitation_energy": 31.26, 
			 "cosmo_dispersion_energy": -22.17, 
			 "cosmo_repulsion_energy": 1.76, 
			 "cosmo_total_nonelectrostatic_energy": 10.85, 
			 "SMD_solvation_energy": 5.09 
		},
		"coords": [
			{
				"x": -1.0398071773,
				"y": 1.8291909912,
				"z": -3.8211699082,
				"element": "C" 
			},
			{
				"x": -1.3710704675,
				"y": 1.234686522,
				"z": -2.4716630894,
				"element": "C" 
			},
			{
				"x": -2.6932311088,
				"y": 1.1491433518,
				"z": -2.0241967639,
				"element": "C" 
			},
			{
				"x": -2.9829794878,
				"y": 0.6247936106,
				"z": -0.761881132,
				"element": "C" 
			},
			{
				"x": -1.9574789704,
				"y": 0.1776407655,
				"z": 0.0670653909,
				"element": "C" 
			},
			{
				"x": -0.6230409244,
				"y": 0.245146719,
				"z": -0.3598219555,
				"element": "C" 
			},
			{
				"x": 0.5004317732,
				"y": -0.2670238136,
				"z": 0.5272777911,
				"element": "C" 
			},
			{
				"x": 0.5796164011,
				"y": 0.3942799158,
				"z": 1.8942237864,
				"element": "C" 
			},
			{
				"x": 0.5539766877,
				"y": -0.3708699218,
				"z": 3.0658107002,
				"element": "C" 
			},
			{
				"x": 0.6492426445,
				"y": 0.2342630798,
				"z": 4.3218225507,
				"element": "C" 
			},
			{
				"x": 0.7715347477,
				"y": 1.6196219201,
				"z": 4.4226607567,
				"element": "C" 
			},
			{
				"x": 0.7961346717,
				"y": 2.3949137588,
				"z": 3.2598401012,
				"element": "C" 
			},
			{
				"x": 0.6992516845,
				"y": 1.7873026163,
				"z": 2.0092820186,
				"element": "C" 
			},
			{
				"x": -0.3515360008,
				"y": 0.7744751808,
				"z": -1.6248501957,
				"element": "C" 
			},
			{
				"x": -1.8972941676,
				"y": 1.7849980161,
				"z": -4.4990296831,
				"element": "H" 
			},
			{
				"x": -0.748868789,
				"y": 2.8834214379,
				"z": -3.7307354494,
				"element": "H" 
			},
			{
				"x": -0.2050555579,
				"y": 1.3044673951,
				"z": -4.2969196448,
				"element": "H" 
			},
			{
				"x": -3.5006758466,
				"y": 1.493961312,
				"z": -2.6655393451,
				"element": "H" 
			},
			{
				"x": -4.0149369712,
				"y": 0.563400069,
				"z": -0.4269499776,
				"element": "H" 
			},
			{
				"x": -2.1868948263,
				"y": -0.2233721704,
				"z": 1.0507410946,
				"element": "H" 
			},
			{
				"x": 0.3878330122,
				"y": -1.3494221719,
				"z": 0.6676587816,
				"element": "H" 
			},
			{
				"x": 1.4538752315,
				"y": -0.1286563311,
				"z": 0.0019562731,
				"element": "H" 
			},
			{
				"x": 0.4612758135,
				"y": -1.4521540221,
				"z": 2.9948491509,
				"element": "H" 
			},
			{
				"x": 0.6264129739,
				"y": -0.3785200746,
				"z": 5.2188328463,
				"element": "H" 
			},
			{
				"x": 0.8454388528,
				"y": 2.0934231827,
				"z": 5.3973713135,
				"element": "H" 
			},
			{
				"x": 0.8894325802,
				"y": 3.4753294408,
				"z": 3.3286305789,
				"element": "H" 
			},
			{
				"x": 0.7085498195,
				"y": 2.3969065846,
				"z": 1.1093891489,
				"element": "H" 
			},
			{
				"x": 0.6812634016,
				"y": 0.8265526356,
				"z": -1.9652551388,
				"element": "H" 
			}
		],
		 "valence_orbital": [ 
			{
				"type": "occ",
				"energy": -0.32358,
				"method": "rhf"
			},
			{
				"type": "occ",
				"energy": -0.24583,
				"method": "rhf"
			},
			{
				"type": "occ",
				"energy": -0.24317,
				"method": "rhf"
			},
			{
				"type": "occ",
				"energy": -0.23918,
				"method": "rhf"
			},
			{
				"type": "occ",
				"energy": -0.22702,
				"method": "rhf"
			},
			{
				"type": "unocc",
				"energy": -0.00177,
				"method": "rhf"
			},
			{
				"type": "unocc",
				"energy": 0.00114,
				"method": "rhf"
			},
			{
				"type": "unocc",
				"energy": 0.00323,
				"method": "rhf"
			},
			{
				"type": "unocc",
				"energy": 0.01384,
				"method": "rhf"
			},
			{
				"type": "unocc",
				"energy": 0.09583,
				"method": "rhf"
			}
		],
		"cosmo_sigma_profile": { 
			"-0.025": 0.0,
			"-0.024": 0.0,
			"-0.023": 0.0,
			"-0.022": 0.0,
			"-0.021": 0.0,
			"-0.02": 0.0,
			"-0.019": 0.0,
			"-0.018": 0.0,
			"-0.017": 0.0,
			"-0.016": 0.0,
			"-0.015": 0.0,
			"-0.014": 0.0,
			"-0.013": 0.0,
			"-0.012": 0.0,
			"-0.011": 0.0,
			"-0.01": 0.0,
			"-0.009": 0.0,
			"-0.008": 0.0,
			"-0.007": 0.0,
			"-0.006": 1.88475154276,
			"-0.005": 16.230171941,
			"-0.004": 28.309058142,
			"-0.003": 30.6097409125,
			"-0.002": 25.0943400566,
			"-0.001": 23.7737364021,
			"0.0": 23.3851917346,
			"0.001": 17.3918793837,
			"0.002": 14.1652679583,
			"0.003": 14.0864076743,
			"0.004": 14.4101920686,
			"0.005": 15.8189314387,
			"0.006": 16.0119405992,
			"0.007": 7.06299559326,
			"0.008": 0.0274904523244,
			"0.009": 0.0,
			"0.01": 0.0,
			"0.011": 0.0,
			"0.012": 0.0,
			"0.013": 0.0,
			"0.014": 0.0,
			"0.015": 0.0,
			"0.016": 0.0,
			"0.017": 0.0,
			"0.018": 0.0,
			"0.019": 0.0,
			"0.02": 0.0,
			"0.021": 0.0,
			"0.022": 0.0,
			"0.023": 0.0,
			"0.024": 0.0,
			"0.025": 0.0
		}
	}
}
