{
	 "smiles": "CCCCNC(=O)C1=CC(N)=CC=C1OCC#C", 
	 "Tm": 357.15, 
	 "num_atms": 36, 
	 "gaussian": { 
		 "optdone": 1, 
		 "sigma_profile": "yes", 
		 "theory": "DFT", 
		 "functional": "B3LYP", 
		 "basiset": "6-31G**", 
		 "properties": { 
			 "R2extent": 6278.8211, 
			 "electric_dipole_moment_norm": 5.07191583921, 
			 "electric_quadrupole_moment_norm": 29.3926606346, 
			 "total_energy": -804.217337788, 
			 "HOMO_LUMO_gap": 0.17663, 
			 "cosmo_polarized_energy": -21.08, 
			 "cosmo_cavitation_energy": 40.05, 
			 "cosmo_dispersion_energy": -26.65, 
			 "cosmo_repulsion_energy": 2.11, 
			 "cosmo_total_nonelectrostatic_energy": 15.52, 
			 "SMD_solvation_energy": 8.34 
		},
		"coords": [
			{
				"x": -1.3028697311,
				"y": 2.9960446448,
				"z": 2.3602483632,
				"element": "C" 
			},
			{
				"x": -1.0452431141,
				"y": 2.9347553157,
				"z": 0.8489956637,
				"element": "C" 
			},
			{
				"x": 0.4008274807,
				"y": 2.5908824457,
				"z": 0.4566912763,
				"element": "C" 
			},
			{
				"x": 0.8285899693,
				"y": 1.1657974236,
				"z": 0.8299584325,
				"element": "C" 
			},
			{
				"x": 2.1911959691,
				"y": 0.8792489286,
				"z": 0.4037156872,
				"element": "N" 
			},
			{
				"x": 2.6894770719,
				"y": -0.2186216246,
				"z": -0.2436522795,
				"element": "C" 
			},
			{
				"x": 3.8994180217,
				"y": -0.4266482996,
				"z": -0.2848753057,
				"element": "O" 
			},
			{
				"x": 1.7315197514,
				"y": -1.2044922624,
				"z": -0.8724461501,
				"element": "C" 
			},
			{
				"x": 1.9228561559,
				"y": -2.5455411874,
				"z": -0.5330985196,
				"element": "C" 
			},
			{
				"x": 1.1439034242,
				"y": -3.5702882151,
				"z": -1.0878599158,
				"element": "C" 
			},
			{
				"x": 1.3798786512,
				"y": -4.9118548886,
				"z": -0.7597429327,
				"element": "N" 
			},
			{
				"x": 0.1768469986,
				"y": -3.2152694294,
				"z": -2.0376084086,
				"element": "C" 
			},
			{
				"x": -0.0034829013,
				"y": -1.8856844168,
				"z": -2.4173426789,
				"element": "C" 
			},
			{
				"x": 0.7644593113,
				"y": -0.8708950638,
				"z": -1.8398260904,
				"element": "C" 
			},
			{
				"x": 0.6492566572,
				"y": 0.4666082369,
				"z": -2.1611309272,
				"element": "O" 
			},
			{
				"x": -0.3252280567,
				"y": 0.8617693006,
				"z": -3.1212490888,
				"element": "C" 
			},
			{
				"x": 0.0208533356,
				"y": 0.5190135712,
				"z": -4.5042853633,
				"element": "C" 
			},
			{
				"x": 0.2959965213,
				"y": 0.2558253643,
				"z": -5.6498185676,
				"element": "C" 
			},
			{
				"x": -2.3318328836,
				"y": 3.305419806,
				"z": 2.5707226819,
				"element": "H" 
			},
			{
				"x": -1.14894361,
				"y": 2.0264410825,
				"z": 2.8448760978,
				"element": "H" 
			},
			{
				"x": -0.6344589675,
				"y": 3.7176520256,
				"z": 2.8442252056,
				"element": "H" 
			},
			{
				"x": -1.3015193989,
				"y": 3.9054515163,
				"z": 0.4066056115,
				"element": "H" 
			},
			{
				"x": -1.7275450722,
				"y": 2.2051766292,
				"z": 0.3907432545,
				"element": "H" 
			},
			{
				"x": 1.0851829153,
				"y": 3.3095322626,
				"z": 0.9305968705,
				"element": "H" 
			},
			{
				"x": 0.5320314823,
				"y": 2.7029191165,
				"z": -0.6246037194,
				"element": "H" 
			},
			{
				"x": 0.7461894886,
				"y": 1.0153404,
				"z": 1.9158170938,
				"element": "H" 
			},
			{
				"x": 0.163655448,
				"y": 0.4406023228,
				"z": 0.3582149879,
				"element": "H" 
			},
			{
				"x": 2.9302687087,
				"y": 1.4366413776,
				"z": 0.8150673577,
				"element": "H" 
			},
			{
				"x": 2.7126198041,
				"y": -2.7841590067,
				"z": 0.1733874794,
				"element": "H" 
			},
			{
				"x": 1.8222795358,
				"y": -5.0531154917,
				"z": 0.1382755907,
				"element": "H" 
			},
			{
				"x": 0.5817041054,
				"y": -5.5214873284,
				"z": -0.8758978744,
				"element": "H" 
			},
			{
				"x": -0.4286587387,
				"y": -3.9871665734,
				"z": -2.5060045242,
				"element": "H" 
			},
			{
				"x": -0.7281912688,
				"y": -1.6606489367,
				"z": -3.1901711229,
				"element": "H" 
			},
			{
				"x": -1.3112009408,
				"y": 0.4486435887,
				"z": -2.8634982282,
				"element": "H" 
			},
			{
				"x": -0.3888353644,
				"y": 1.9496206376,
				"z": -3.0187702013,
				"element": "H" 
			},
			{
				"x": 0.5518992404,
				"y": 0.0185867277,
				"z": -6.6567597555,
				"element": "H" 
			}
		],
		 "valence_orbital": [ 
			{
				"type": "occ",
				"energy": -0.27514,
				"method": "rhf"
			},
			{
				"type": "occ",
				"energy": -0.25542,
				"method": "rhf"
			},
			{
				"type": "occ",
				"energy": -0.23516,
				"method": "rhf"
			},
			{
				"type": "occ",
				"energy": -0.22651,
				"method": "rhf"
			},
			{
				"type": "occ",
				"energy": -0.19054,
				"method": "rhf"
			},
			{
				"type": "unocc",
				"energy": -0.01391,
				"method": "rhf"
			},
			{
				"type": "unocc",
				"energy": 0.01921,
				"method": "rhf"
			},
			{
				"type": "unocc",
				"energy": 0.025,
				"method": "rhf"
			},
			{
				"type": "unocc",
				"energy": 0.04443,
				"method": "rhf"
			},
			{
				"type": "unocc",
				"energy": 0.05816,
				"method": "rhf"
			}
		],
		"cosmo_sigma_profile": { 
			"-0.025": 0.0,
			"-0.024": 0.0,
			"-0.023": 0.0,
			"-0.022": 0.0,
			"-0.021": 0.0,
			"-0.02": 0.0,
			"-0.019": 0.0,
			"-0.018": 0.0,
			"-0.017": 0.0,
			"-0.016": 0.0,
			"-0.015": 0.0,
			"-0.014": 0.0,
			"-0.013": 0.548588935708,
			"-0.012": 4.09676343981,
			"-0.011": 5.2938603594,
			"-0.01": 5.64266216695,
			"-0.009": 5.16489821446,
			"-0.008": 7.4132447219,
			"-0.007": 10.8297735216,
			"-0.006": 11.6038851732,
			"-0.005": 12.0395634066,
			"-0.004": 14.1887212945,
			"-0.003": 21.312977124,
			"-0.002": 29.5732616051,
			"-0.001": 28.8851418182,
			"0.0": 28.8023255692,
			"0.001": 23.0422045303,
			"0.002": 13.9907491896,
			"0.003": 11.7335800675,
			"0.004": 16.281342314,
			"0.005": 20.1589782392,
			"0.006": 14.8649392577,
			"0.007": 3.08932756814,
			"0.008": 3.43575758125,
			"0.009": 4.25196081108,
			"0.01": 2.31819950741,
			"0.011": 2.32089144639,
			"0.012": 1.94053731284,
			"0.013": 3.51552875542,
			"0.014": 6.63903314831,
			"0.015": 2.96483805658,
			"0.016": 0.16703800063,
			"0.017": 0.0,
			"0.018": 0.0,
			"0.019": 0.0,
			"0.02": 0.0,
			"0.021": 0.0,
			"0.022": 0.0,
			"0.023": 0.0,
			"0.024": 0.0,
			"0.025": 0.0
		}
	}
}
