{
	 "smiles": "ON1N=NC2=C1C=CC(=C2)[N+]([O-])=O", 
	 "Tm": 474.15, 
	 "num_atms": 17, 
	 "gaussian": { 
		 "optdone": 1, 
		 "sigma_profile": "yes", 
		 "theory": "DFT", 
		 "functional": "B3LYP", 
		 "basiset": "6-31G**", 
		 "properties": { 
			 "R2extent": 3720.9721, 
			 "electric_dipole_moment_norm": 5.23496434085, 
			 "electric_quadrupole_moment_norm": 12.8759029815, 
			 "total_energy": -675.51799929, 
			 "HOMO_LUMO_gap": 0.16438, 
			 "cosmo_polarized_energy": -14.54, 
			 "cosmo_cavitation_energy": 23.26, 
			 "cosmo_dispersion_energy": -17.46, 
			 "cosmo_repulsion_energy": 1.36, 
			 "cosmo_total_nonelectrostatic_energy": 7.16, 
			 "SMD_solvation_energy": 5.7 
		},
		"coords": [
			{
				"x": 4.2304108443,
				"y": 0.4260010666,
				"z": 1.1828959445,
				"element": "O" 
			},
			{
				"x": 3.0907870592,
				"y": -0.333919468,
				"z": 1.2281660298,
				"element": "N" 
			},
			{
				"x": 3.1101773242,
				"y": -1.6328695678,
				"z": 0.8733703888,
				"element": "N" 
			},
			{
				"x": 1.9076957003,
				"y": -2.1113017786,
				"z": 1.0083059648,
				"element": "N" 
			},
			{
				"x": 1.0967173791,
				"y": -1.0961073443,
				"z": 1.4605494378,
				"element": "C" 
			},
			{
				"x": 1.8638444468,
				"y": 0.0855425648,
				"z": 1.6109484343,
				"element": "C" 
			},
			{
				"x": 1.3231425415,
				"y": 1.3036752573,
				"z": 2.0585643921,
				"element": "C" 
			},
			{
				"x": -0.0253084727,
				"y": 1.2963735417,
				"z": 2.3528782036,
				"element": "C" 
			},
			{
				"x": -0.7924483926,
				"y": 0.1129618724,
				"z": 2.2019857715,
				"element": "C" 
			},
			{
				"x": -0.2722899782,
				"y": -1.0907652525,
				"z": 1.762776206,
				"element": "C" 
			},
			{
				"x": -2.2259867364,
				"y": 0.1730977525,
				"z": 2.5330907035,
				"element": "N" 
			},
			{
				"x": -2.886220497,
				"y": -0.8559962726,
				"z": 2.4006830201,
				"element": "O" 
			},
			{
				"x": -2.6751965418,
				"y": 1.2507465039,
				"z": 2.9230137606,
				"element": "O" 
			},
			{
				"x": 4.9022197621,
				"y": -0.2045036577,
				"z": 0.8653635264,
				"element": "H" 
			},
			{
				"x": 1.9288307699,
				"y": 2.1954077761,
				"z": 2.1661715073,
				"element": "H" 
			},
			{
				"x": -0.5283707398,
				"y": 2.1880290075,
				"z": 2.7040817217,
				"element": "H" 
			},
			{
				"x": -0.8952044689,
				"y": -1.9700720012,
				"z": 1.6622549871,
				"element": "H" 
			}
		],
		 "valence_orbital": [ 
			{
				"type": "occ",
				"energy": -0.3138,
				"method": "rhf"
			},
			{
				"type": "occ",
				"energy": -0.30186,
				"method": "rhf"
			},
			{
				"type": "occ",
				"energy": -0.29643,
				"method": "rhf"
			},
			{
				"type": "occ",
				"energy": -0.28709,
				"method": "rhf"
			},
			{
				"type": "occ",
				"energy": -0.26111,
				"method": "rhf"
			},
			{
				"type": "unocc",
				"energy": -0.09673,
				"method": "rhf"
			},
			{
				"type": "unocc",
				"energy": -0.0665,
				"method": "rhf"
			},
			{
				"type": "unocc",
				"energy": 0.00452,
				"method": "rhf"
			},
			{
				"type": "unocc",
				"energy": 0.00949,
				"method": "rhf"
			},
			{
				"type": "unocc",
				"energy": 0.02914,
				"method": "rhf"
			}
		],
		"cosmo_sigma_profile": { 
			"-0.025": 0.0,
			"-0.024": 0.0,
			"-0.023": 0.0,
			"-0.022": 0.0,
			"-0.021": 0.0498542860188,
			"-0.02": 0.901988975383,
			"-0.019": 0.957026991854,
			"-0.018": 0.78072383664,
			"-0.017": 0.476505696597,
			"-0.016": 1.23310334053,
			"-0.015": 1.2792007551,
			"-0.014": 0.352829803159,
			"-0.013": 0.430435411111,
			"-0.012": 0.823065093577,
			"-0.011": 0.564933247987,
			"-0.01": 1.25988297647,
			"-0.009": 3.47524846547,
			"-0.008": 4.77245479145,
			"-0.007": 6.09131648891,
			"-0.006": 6.69538116047,
			"-0.005": 7.99465644407,
			"-0.004": 11.3259755317,
			"-0.003": 14.563371173,
			"-0.002": 17.2894154173,
			"-0.001": 17.0921698473,
			"0.0": 11.9747257861,
			"0.001": 9.07796113202,
			"0.002": 4.77483921522,
			"0.003": 4.80826946123,
			"0.004": 6.74376764403,
			"0.005": 5.09837948306,
			"0.006": 9.21734797356,
			"0.007": 12.3152200009,
			"0.008": 10.1433769974,
			"0.009": 7.07499070546,
			"0.01": 4.12852886424,
			"0.011": 1.25191255894,
			"0.012": 1.20176486877,
			"0.013": 1.17512892273,
			"0.014": 0.666143883253,
			"0.015": 0.0302968278744,
			"0.016": 0.0,
			"0.017": 0.0,
			"0.018": 0.0,
			"0.019": 0.0,
			"0.02": 0.0,
			"0.021": 0.0,
			"0.022": 0.0,
			"0.023": 0.0,
			"0.024": 0.0,
			"0.025": 0.0
		}
	}
}
