{
	 "smiles": "CC1=NOC(COCC(O)=O)=N1", 
	 "Tm": 350.15, 
	 "num_atms": 20, 
	 "gaussian": { 
		 "optdone": 1, 
		 "sigma_profile": "yes", 
		 "theory": "DFT", 
		 "functional": "B3LYP", 
		 "basiset": "6-31G**", 
		 "properties": { 
			 "R2extent": 3140.2832, 
			 "electric_dipole_moment_norm": 2.83934625222, 
			 "electric_quadrupole_moment_norm": 5.75941451365, 
			 "total_energy": -643.814034662, 
			 "HOMO_LUMO_gap": 0.24249, 
			 "cosmo_polarized_energy": -13.93, 
			 "cosmo_cavitation_energy": 25.44, 
			 "cosmo_dispersion_energy": -18.62, 
			 "cosmo_repulsion_energy": 1.53, 
			 "cosmo_total_nonelectrostatic_energy": 8.35, 
			 "SMD_solvation_energy": 4.5 
		},
		"coords": [
			{
				"x": 0.5910999502,
				"y": -3.0869902496,
				"z": 1.6483427957,
				"element": "C" 
			},
			{
				"x": 1.4449929056,
				"y": -2.1992992608,
				"z": 0.8074030602,
				"element": "C" 
			},
			{
				"x": 2.5922306521,
				"y": -2.5947354993,
				"z": 0.3113069726,
				"element": "N" 
			},
			{
				"x": 3.0444372577,
				"y": -1.4686194464,
				"z": -0.3993207657,
				"element": "O" 
			},
			{
				"x": 2.1135950871,
				"y": -0.5157848715,
				"z": -0.2416584468,
				"element": "C" 
			},
			{
				"x": 2.3088710416,
				"y": 0.7990107451,
				"z": -0.9401611363,
				"element": "C" 
			},
			{
				"x": 1.4858198955,
				"y": 0.9048820638,
				"z": -2.0990886151,
				"element": "O" 
			},
			{
				"x": 0.1244006828,
				"y": 1.1691037744,
				"z": -1.8483889461,
				"element": "C" 
			},
			{
				"x": -0.1269461975,
				"y": 2.6059872265,
				"z": -1.4090652709,
				"element": "C" 
			},
			{
				"x": -1.4541386171,
				"y": 2.8628412549,
				"z": -1.3758730606,
				"element": "O" 
			},
			{
				"x": 0.7176636494,
				"y": 3.4181922604,
				"z": -1.108584439,
				"element": "O" 
			},
			{
				"x": 1.1060103072,
				"y": -0.8975099931,
				"z": 0.4914282735,
				"element": "N" 
			},
			{
				"x": 1.06414649,
				"y": -4.0626121303,
				"z": 1.7698518124,
				"element": "H" 
			},
			{
				"x": 0.4329646055,
				"y": -2.6375304602,
				"z": 2.6332941744,
				"element": "H" 
			},
			{
				"x": -0.390938622,
				"y": -3.218636937,
				"z": 1.1839645127,
				"element": "H" 
			},
			{
				"x": 2.1195346961,
				"y": 1.6204961683,
				"z": -0.2427728058,
				"element": "H" 
			},
			{
				"x": 3.3394874661,
				"y": 0.8671764071,
				"z": -1.2931849344,
				"element": "H" 
			},
			{
				"x": -0.4115636818,
				"y": 0.9928481911,
				"z": -2.7857794687,
				"element": "H" 
			},
			{
				"x": -0.3036901357,
				"y": 0.4966788125,
				"z": -1.091410101,
				"element": "H" 
			},
			{
				"x": -1.5509774327,
				"y": 3.7800019443,
				"z": -1.0683036111,
				"element": "H" 
			}
		],
		 "valence_orbital": [ 
			{
				"type": "occ",
				"energy": -0.32783,
				"method": "rhf"
			},
			{
				"type": "occ",
				"energy": -0.306,
				"method": "rhf"
			},
			{
				"type": "occ",
				"energy": -0.30088,
				"method": "rhf"
			},
			{
				"type": "occ",
				"energy": -0.28718,
				"method": "rhf"
			},
			{
				"type": "occ",
				"energy": -0.27334,
				"method": "rhf"
			},
			{
				"type": "unocc",
				"energy": -0.03085,
				"method": "rhf"
			},
			{
				"type": "unocc",
				"energy": -0.00049,
				"method": "rhf"
			},
			{
				"type": "unocc",
				"energy": 0.02942,
				"method": "rhf"
			},
			{
				"type": "unocc",
				"energy": 0.06739,
				"method": "rhf"
			},
			{
				"type": "unocc",
				"energy": 0.08557,
				"method": "rhf"
			}
		],
		"cosmo_sigma_profile": { 
			"-0.025": 0.0,
			"-0.024": 0.0,
			"-0.023": 0.0,
			"-0.022": 0.0,
			"-0.021": 0.0,
			"-0.02": 0.0,
			"-0.019": 0.313038302285,
			"-0.018": 1.134802592,
			"-0.017": 0.757997416401,
			"-0.016": 0.694664357568,
			"-0.015": 1.06346134656,
			"-0.014": 0.34409295445,
			"-0.013": 0.586794948067,
			"-0.012": 0.811233013632,
			"-0.011": 0.806141498132,
			"-0.01": 0.648363390759,
			"-0.009": 0.922811449856,
			"-0.008": 5.1693835062,
			"-0.007": 8.6645388251,
			"-0.006": 13.7242474353,
			"-0.005": 14.4909124397,
			"-0.004": 15.6057088075,
			"-0.003": 15.5555143785,
			"-0.002": 17.6674432527,
			"-0.001": 11.832306355,
			"0.0": 9.16347197086,
			"0.001": 7.93078047313,
			"0.002": 5.94080465372,
			"0.003": 6.69500077908,
			"0.004": 6.58326566038,
			"0.005": 6.85318036129,
			"0.006": 9.20883713414,
			"0.007": 7.60372512832,
			"0.008": 6.17146413394,
			"0.009": 6.47060452421,
			"0.01": 6.92122759807,
			"0.011": 7.83343323135,
			"0.012": 2.44106211838,
			"0.013": 1.50208060543,
			"0.014": 0.0758839010331,
			"0.015": 0.0,
			"0.016": 0.0,
			"0.017": 0.0,
			"0.018": 0.0,
			"0.019": 0.0,
			"0.02": 0.0,
			"0.021": 0.0,
			"0.022": 0.0,
			"0.023": 0.0,
			"0.024": 0.0,
			"0.025": 0.0
		}
	}
}
