{
	 "smiles": "CCOC(=O)C1=C(CBr)C2=C(S1)C=CC=C2F", 
	 "Tm": 407.15, 
	 "num_atms": 27, 
	 "gaussian": { 
		 "optdone": 1, 
		 "sigma_profile": "yes", 
		 "theory": "DFT", 
		 "functional": "B3LYP", 
		 "basiset": "6-31G**", 
		 "properties": { 
			 "R2extent": 6653.6548, 
			 "electric_dipole_moment_norm": 1.62682966226, 
			 "electric_quadrupole_moment_norm": 24.0715775744, 
			 "total_energy": -3683.20018306, 
			 "HOMO_LUMO_gap": 0.15252, 
			 "cosmo_polarized_energy": -9.64, 
			 "cosmo_cavitation_energy": 35.2, 
			 "cosmo_dispersion_energy": -25.36, 
			 "cosmo_repulsion_energy": 1.9, 
			 "cosmo_total_nonelectrostatic_energy": 11.74, 
			 "SMD_solvation_energy": 5.74 
		},
		"coords": [
			{
				"x": -2.8680982046,
				"y": -2.5186591141,
				"z": -1.1616956095,
				"element": "C" 
			},
			{
				"x": -1.5259153308,
				"y": -2.7138213208,
				"z": -0.4747782738,
				"element": "C" 
			},
			{
				"x": -0.7924090764,
				"y": -1.461853437,
				"z": -0.4025589082,
				"element": "O" 
			},
			{
				"x": -1.0772012948,
				"y": -0.656397582,
				"z": 0.6398017428,
				"element": "C" 
			},
			{
				"x": -1.8595260213,
				"y": -0.9399926369,
				"z": 1.5289783926,
				"element": "O" 
			},
			{
				"x": -0.3446259347,
				"y": 0.6282514833,
				"z": 0.6115042275,
				"element": "C" 
			},
			{
				"x": 0.5412999935,
				"y": 1.1693785113,
				"z": -0.2964935378,
				"element": "C" 
			},
			{
				"x": 1.0212644115,
				"y": 0.5030184542,
				"z": -1.5404389207,
				"element": "C" 
			},
			{
				"x": -0.0899931866,
				"y": 1.0322284869,
				"z": -3.1248549546,
				"element": "Br" 
			},
			{
				"x": 0.962009073,
				"y": 2.4928942014,
				"z": 0.1073749829,
				"element": "C" 
			},
			{
				"x": 0.3723739647,
				"y": 2.9101605485,
				"z": 1.3278050821,
				"element": "C" 
			},
			{
				"x": -0.694461685,
				"y": 1.685541373,
				"z": 1.9680596549,
				"element": "S" 
			},
			{
				"x": 0.6450685375,
				"y": 4.1574663524,
				"z": 1.9043784801,
				"element": "C" 
			},
			{
				"x": 1.5231828685,
				"y": 5.0087263023,
				"z": 1.2479266347,
				"element": "C" 
			},
			{
				"x": 2.129506789,
				"y": 4.6321782829,
				"z": 0.0357846246,
				"element": "C" 
			},
			{
				"x": 1.8469190226,
				"y": 3.397052356,
				"z": -0.5113101101,
				"element": "C" 
			},
			{
				"x": 2.4451786622,
				"y": 3.0493018404,
				"z": -1.6715637768,
				"element": "F" 
			},
			{
				"x": -3.519298676,
				"y": -1.8796279746,
				"z": -0.5604715847,
				"element": "H" 
			},
			{
				"x": -2.7354229251,
				"y": -2.0637117205,
				"z": -2.1472440912,
				"element": "H" 
			},
			{
				"x": -3.3612862013,
				"y": -3.4879273241,
				"z": -1.2896634858,
				"element": "H" 
			},
			{
				"x": -0.8706776103,
				"y": -3.3721465493,
				"z": -1.0492405712,
				"element": "H" 
			},
			{
				"x": -1.645307905,
				"y": -3.1078308321,
				"z": 0.5366214631,
				"element": "H" 
			},
			{
				"x": 0.9297797315,
				"y": -0.5749271543,
				"z": -1.4960322756,
				"element": "H" 
			},
			{
				"x": 2.0245563143,
				"y": 0.8158146428,
				"z": -1.8089686869,
				"element": "H" 
			},
			{
				"x": 0.1794910965,
				"y": 4.4499495641,
				"z": 2.8395649257,
				"element": "H" 
			},
			{
				"x": 1.7496670924,
				"y": 5.9816353173,
				"z": 1.6726354944,
				"element": "H" 
			},
			{
				"x": 2.8166264946,
				"y": 5.291497929,
				"z": -0.4824209183,
				"element": "H" 
			}
		],
		 "valence_orbital": [ 
			{
				"type": "occ",
				"energy": -0.28731,
				"method": "rhf"
			},
			{
				"type": "occ",
				"energy": -0.27042,
				"method": "rhf"
			},
			{
				"type": "occ",
				"energy": -0.26897,
				"method": "rhf"
			},
			{
				"type": "occ",
				"energy": -0.25511,
				"method": "rhf"
			},
			{
				"type": "occ",
				"energy": -0.2293,
				"method": "rhf"
			},
			{
				"type": "unocc",
				"energy": -0.07678,
				"method": "rhf"
			},
			{
				"type": "unocc",
				"energy": -0.01763,
				"method": "rhf"
			},
			{
				"type": "unocc",
				"energy": -0.01228,
				"method": "rhf"
			},
			{
				"type": "unocc",
				"energy": 0.01083,
				"method": "rhf"
			},
			{
				"type": "unocc",
				"energy": 0.02455,
				"method": "rhf"
			}
		],
		"cosmo_sigma_profile": { 
			"-0.025": 0.0,
			"-0.024": 0.0,
			"-0.023": 0.0,
			"-0.022": 0.0,
			"-0.021": 0.0,
			"-0.02": 0.0,
			"-0.019": 0.0,
			"-0.018": 0.0,
			"-0.017": 0.0,
			"-0.016": 0.0,
			"-0.015": 0.0,
			"-0.014": 0.0,
			"-0.013": 0.0,
			"-0.012": 0.0,
			"-0.011": 0.0,
			"-0.01": 0.0,
			"-0.009": 0.0,
			"-0.008": 2.7127923928,
			"-0.007": 8.62038360753,
			"-0.006": 12.9394854687,
			"-0.005": 16.9942277619,
			"-0.004": 20.1021887417,
			"-0.003": 22.8858665015,
			"-0.002": 20.7034503246,
			"-0.001": 24.1534184553,
			"0.0": 30.2309012674,
			"0.001": 27.2889568403,
			"0.002": 24.2953175767,
			"0.003": 23.4901934171,
			"0.004": 16.2887250956,
			"0.005": 13.9910393599,
			"0.006": 10.1497761861,
			"0.007": 1.70273931877,
			"0.008": 1.78438283091,
			"0.009": 1.70811278198,
			"0.01": 2.16865353789,
			"0.011": 4.04428094605,
			"0.012": 0.957082356245,
			"0.013": 0.0,
			"0.014": 0.0,
			"0.015": 0.0,
			"0.016": 0.0,
			"0.017": 0.0,
			"0.018": 0.0,
			"0.019": 0.0,
			"0.02": 0.0,
			"0.021": 0.0,
			"0.022": 0.0,
			"0.023": 0.0,
			"0.024": 0.0,
			"0.025": 0.0
		}
	}
}
