{
	 "smiles": "CC1=CC(=C(O)C(=C1)C(C)(C)C)C(C)(C)C", 
	 "Tm": 344.15, 
	 "num_atms": 40, 
	 "gaussian": { 
		 "optdone": 1, 
		 "sigma_profile": "yes", 
		 "theory": "DFT", 
		 "functional": "B3LYP", 
		 "basiset": "6-31G**", 
		 "properties": { 
			 "R2extent": 4309.9874, 
			 "electric_dipole_moment_norm": 1.23005512885, 
			 "electric_quadrupole_moment_norm": 5.19760156707, 
			 "total_energy": -661.305654496, 
			 "HOMO_LUMO_gap": 0.22778, 
			 "cosmo_polarized_energy": -6.16, 
			 "cosmo_cavitation_energy": 37.87, 
			 "cosmo_dispersion_energy": -26.23, 
			 "cosmo_repulsion_energy": 2.03, 
			 "cosmo_total_nonelectrostatic_energy": 13.68, 
			 "SMD_solvation_energy": 6.95 
		},
		"coords": [
			{
				"x": -0.8976868544,
				"y": -3.2263495179,
				"z": -1.1410088742,
				"element": "C" 
			},
			{
				"x": -0.6864619118,
				"y": -1.7842358021,
				"z": -0.7392248753,
				"element": "C" 
			},
			{
				"x": 0.0333918719,
				"y": -0.9133114086,
				"z": -1.5580681398,
				"element": "C" 
			},
			{
				"x": 0.2273150005,
				"y": 0.4360644642,
				"z": -1.2333590945,
				"element": "C" 
			},
			{
				"x": -0.3313516667,
				"y": 0.8893094207,
				"z": -0.0173998296,
				"element": "C" 
			},
			{
				"x": -0.1809988763,
				"y": 2.2366781116,
				"z": 0.3279252194,
				"element": "O" 
			},
			{
				"x": -1.0853606962,
				"y": 0.0520292168,
				"z": 0.8349969518,
				"element": "C" 
			},
			{
				"x": -1.2360084785,
				"y": -1.284709241,
				"z": 0.4421638689,
				"element": "C" 
			},
			{
				"x": -1.7353709979,
				"y": 0.5721512737,
				"z": 2.1403932962,
				"element": "C" 
			},
			{
				"x": -2.7441050377,
				"y": 1.7018448876,
				"z": 1.8175795938,
				"element": "C" 
			},
			{
				"x": -0.6593306424,
				"y": 1.0913114088,
				"z": 3.1261040435,
				"element": "C" 
			},
			{
				"x": -2.5128848314,
				"y": -0.5397977652,
				"z": 2.8770479597,
				"element": "C" 
			},
			{
				"x": 1.0091275068,
				"y": 1.3752074852,
				"z": -2.1840761278,
				"element": "C" 
			},
			{
				"x": 0.0949005367,
				"y": 2.5317993652,
				"z": -2.6577449982,
				"element": "C" 
			},
			{
				"x": 2.2667546478,
				"y": 1.9489445742,
				"z": -1.4852231263,
				"element": "C" 
			},
			{
				"x": 1.5016039562,
				"y": 0.634166299,
				"z": -3.4457945806,
				"element": "C" 
			},
			{
				"x": -1.0013350099,
				"y": -3.8752918778,
				"z": -0.2658197519,
				"element": "H" 
			},
			{
				"x": -0.0634399194,
				"y": -3.6014044684,
				"z": -1.7420039436,
				"element": "H" 
			},
			{
				"x": -1.8086206775,
				"y": -3.3446884869,
				"z": -1.7417256064,
				"element": "H" 
			},
			{
				"x": 0.4517518736,
				"y": -1.3093787155,
				"z": -2.4757210208,
				"element": "H" 
			},
			{
				"x": 0.6205736156,
				"y": 2.3324402382,
				"z": 0.8573782423,
				"element": "H" 
			},
			{
				"x": -1.7976289172,
				"y": -1.9675463429,
				"z": 1.0684715801,
				"element": "H" 
			},
			{
				"x": -2.257731052,
				"y": 2.5410240657,
				"z": 1.3199932016,
				"element": "H" 
			},
			{
				"x": -3.2085422645,
				"y": 2.0654667131,
				"z": 2.7419094438,
				"element": "H" 
			},
			{
				"x": -3.5419781864,
				"y": 1.3295146848,
				"z": 1.1661348068,
				"element": "H" 
			},
			{
				"x": -1.1239200431,
				"y": 1.3552735656,
				"z": 4.0828663108,
				"element": "H" 
			},
			{
				"x": 0.0974503994,
				"y": 0.3240669917,
				"z": 3.3223784417,
				"element": "H" 
			},
			{
				"x": -0.1584643313,
				"y": 1.9876232427,
				"z": 2.7559259394,
				"element": "H" 
			},
			{
				"x": -1.8629373238,
				"y": -1.3644461727,
				"z": 3.1883766075,
				"element": "H" 
			},
			{
				"x": -3.3212230599,
				"y": -0.9510200185,
				"z": 2.2642577501,
				"element": "H" 
			},
			{
				"x": -2.9676981172,
				"y": -0.1210483253,
				"z": 3.7804836046,
				"element": "H" 
			},
			{
				"x": 0.6472976341,
				"y": 3.1927332347,
				"z": -3.3362133764,
				"element": "H" 
			},
			{
				"x": -0.7696205011,
				"y": 2.1388180947,
				"z": -3.2034447464,
				"element": "H" 
			},
			{
				"x": -0.2690166219,
				"y": 3.1228614851,
				"z": -1.8171387198,
				"element": "H" 
			},
			{
				"x": 2.8989275866,
				"y": 1.1457779038,
				"z": -1.0912509536,
				"element": "H" 
			},
			{
				"x": 2.0121443785,
				"y": 2.6247530066,
				"z": -0.6668749897,
				"element": "H" 
			},
			{
				"x": 2.864243999,
				"y": 2.5235627172,
				"z": -2.2019950849,
				"element": "H" 
			},
			{
				"x": 2.1973865074,
				"y": -0.1767891272,
				"z": -3.2057492581,
				"element": "H" 
			},
			{
				"x": 2.0313489006,
				"y": 1.3407694282,
				"z": -4.0926827088,
				"element": "H" 
			},
			{
				"x": 0.6732976038,
				"y": 0.2165253909,
				"z": -4.0267670552,
				"element": "H" 
			}
		],
		 "valence_orbital": [ 
			{
				"type": "occ",
				"energy": -0.3132,
				"method": "rhf"
			},
			{
				"type": "occ",
				"energy": -0.31005,
				"method": "rhf"
			},
			{
				"type": "occ",
				"energy": -0.2733,
				"method": "rhf"
			},
			{
				"type": "occ",
				"energy": -0.23298,
				"method": "rhf"
			},
			{
				"type": "occ",
				"energy": -0.22022,
				"method": "rhf"
			},
			{
				"type": "unocc",
				"energy": 0.00756,
				"method": "rhf"
			},
			{
				"type": "unocc",
				"energy": 0.00768,
				"method": "rhf"
			},
			{
				"type": "unocc",
				"energy": 0.05975,
				"method": "rhf"
			},
			{
				"type": "unocc",
				"energy": 0.09862,
				"method": "rhf"
			},
			{
				"type": "unocc",
				"energy": 0.09907,
				"method": "rhf"
			}
		],
		"cosmo_sigma_profile": { 
			"-0.025": 0.0,
			"-0.024": 0.0,
			"-0.023": 0.0,
			"-0.022": 0.0,
			"-0.021": 0.0,
			"-0.02": 0.0,
			"-0.019": 0.0,
			"-0.018": 0.0,
			"-0.017": 0.0,
			"-0.016": 0.0420484388647,
			"-0.015": 0.804321344564,
			"-0.014": 0.54301054151,
			"-0.013": 0.926041519012,
			"-0.012": 0.690853000585,
			"-0.011": 1.08121799027,
			"-0.01": 1.00081214112,
			"-0.009": 1.46754625139,
			"-0.008": 1.27334478115,
			"-0.007": 1.1092475368,
			"-0.006": 0.73941820465,
			"-0.005": 1.38909901279,
			"-0.004": 6.93628566818,
			"-0.003": 24.7943583213,
			"-0.002": 45.609411475,
			"-0.001": 38.1207440903,
			"0.0": 42.7370915061,
			"0.001": 44.6545577817,
			"0.002": 34.9073505243,
			"0.003": 11.1593427756,
			"0.004": 8.70536527644,
			"0.005": 8.45077180678,
			"0.006": 7.56397599101,
			"0.007": 5.92430800319,
			"0.008": 0.914950389821,
			"0.009": 0.762756386109,
			"0.01": 0.782788554105,
			"0.011": 0.0166360932895,
			"0.012": 0.0,
			"0.013": 0.0,
			"0.014": 0.0,
			"0.015": 0.0,
			"0.016": 0.0,
			"0.017": 0.0,
			"0.018": 0.0,
			"0.019": 0.0,
			"0.02": 0.0,
			"0.021": 0.0,
			"0.022": 0.0,
			"0.023": 0.0,
			"0.024": 0.0,
			"0.025": 0.0
		}
	}
}
