{
	 "smiles": "NC1=NC2=C(C=CC=C2)N1CCCC1=CC=CC=C1", 
	 "Tm": 420.15, 
	 "num_atms": 36, 
	 "gaussian": { 
		 "optdone": 1, 
		 "sigma_profile": "yes", 
		 "theory": "DFT", 
		 "functional": "B3LYP", 
		 "basiset": "6-31G**", 
		 "properties": { 
			 "R2extent": 6867.8769, 
			 "electric_dipole_moment_norm": 4.73623854129, 
			 "electric_quadrupole_moment_norm": 16.6790089397, 
			 "total_energy": -784.23193404, 
			 "HOMO_LUMO_gap": 0.17942, 
			 "cosmo_polarized_energy": -16.3, 
			 "cosmo_cavitation_energy": 39.34, 
			 "cosmo_dispersion_energy": -27.05, 
			 "cosmo_repulsion_energy": 2.07, 
			 "cosmo_total_nonelectrostatic_energy": 14.36, 
			 "SMD_solvation_energy": 3.69 
		},
		"coords": [
			{
				"x": -1.0990115227,
				"y": 2.0321053707,
				"z": -1.2268892731,
				"element": "N" 
			},
			{
				"x": -0.3387169284,
				"y": 1.1751150216,
				"z": -2.0035431483,
				"element": "C" 
			},
			{
				"x": -0.2569564769,
				"y": 1.228612422,
				"z": -3.3125737736,
				"element": "N" 
			},
			{
				"x": 0.5289457009,
				"y": 0.1354020139,
				"z": -3.6561280178,
				"element": "C" 
			},
			{
				"x": 0.9315050159,
				"y": -0.5711384439,
				"z": -2.4960024878,
				"element": "C" 
			},
			{
				"x": 1.7384906371,
				"y": -1.7047638486,
				"z": -2.547589037,
				"element": "C" 
			},
			{
				"x": 2.1432788278,
				"y": -2.1355692402,
				"z": -3.8139853279,
				"element": "C" 
			},
			{
				"x": 1.753977057,
				"y": -1.4479977599,
				"z": -4.9759748438,
				"element": "C" 
			},
			{
				"x": 0.9470894443,
				"y": -0.311203167,
				"z": -4.9129177953,
				"element": "C" 
			},
			{
				"x": 0.3433087567,
				"y": 0.1144138948,
				"z": -1.4336293746,
				"element": "N" 
			},
			{
				"x": 0.4216751715,
				"y": -0.2108249685,
				"z": -0.0198757109,
				"element": "C" 
			},
			{
				"x": 1.6712602636,
				"y": 0.36334128,
				"z": 0.6668538567,
				"element": "C" 
			},
			{
				"x": 1.6507806845,
				"y": 0.1881302173,
				"z": 2.1997551838,
				"element": "C" 
			},
			{
				"x": 0.5589743694,
				"y": 0.9890582144,
				"z": 2.882991987,
				"element": "C" 
			},
			{
				"x": 0.6435864326,
				"y": 2.3889032616,
				"z": 2.9527127284,
				"element": "C" 
			},
			{
				"x": -0.3650270166,
				"y": 3.1401215178,
				"z": 3.5565480073,
				"element": "C" 
			},
			{
				"x": -1.4811660318,
				"y": 2.5033408144,
				"z": 4.1050558686,
				"element": "C" 
			},
			{
				"x": -1.5767797576,
				"y": 1.1129255618,
				"z": 4.0466787104,
				"element": "C" 
			},
			{
				"x": -0.5645310154,
				"y": 0.3649175837,
				"z": 3.440504626,
				"element": "C" 
			},
			{
				"x": -1.4545525965,
				"y": 2.7994150263,
				"z": -1.7825086547,
				"element": "H" 
			},
			{
				"x": -0.6728609244,
				"y": 2.3490549342,
				"z": -0.3648646963,
				"element": "H" 
			},
			{
				"x": 2.0429042748,
				"y": -2.2371539693,
				"z": -1.6509426245,
				"element": "H" 
			},
			{
				"x": 2.7713159304,
				"y": -3.0175111057,
				"z": -3.8991117472,
				"element": "H" 
			},
			{
				"x": 2.089692547,
				"y": -1.8110111299,
				"z": -5.9431911469,
				"element": "H" 
			},
			{
				"x": 0.6443207798,
				"y": 0.2209244757,
				"z": -5.8091761016,
				"element": "H" 
			},
			{
				"x": 0.4015454186,
				"y": -1.3021756398,
				"z": 0.0809516616,
				"element": "H" 
			},
			{
				"x": -0.4874113955,
				"y": 0.1658199978,
				"z": 0.4588384452,
				"element": "H" 
			},
			{
				"x": 1.7535918231,
				"y": 1.4300452193,
				"z": 0.423523617,
				"element": "H" 
			},
			{
				"x": 2.5641829788,
				"y": -0.1165141993,
				"z": 0.2502303347,
				"element": "H" 
			},
			{
				"x": 1.5362003306,
				"y": -0.8748343779,
				"z": 2.4453512777,
				"element": "H" 
			},
			{
				"x": 2.6283075233,
				"y": 0.4914205668,
				"z": 2.5935168889,
				"element": "H" 
			},
			{
				"x": 1.5155420043,
				"y": 2.89334436,
				"z": 2.5416708759,
				"element": "H" 
			},
			{
				"x": -0.276413839,
				"y": 4.2218953646,
				"z": 3.60627187,
				"element": "H" 
			},
			{
				"x": -2.2661183,
				"y": 3.0866822144,
				"z": 4.5773351461,
				"element": "H" 
			},
			{
				"x": -2.438429714,
				"y": 0.6073774226,
				"z": 4.473391049,
				"element": "H" 
			},
			{
				"x": -0.6456004533,
				"y": -0.7188689058,
				"z": 3.4036216271,
				"element": "H" 
			}
		],
		 "valence_orbital": [ 
			{
				"type": "occ",
				"energy": -0.26015,
				"method": "rhf"
			},
			{
				"type": "occ",
				"energy": -0.25888,
				"method": "rhf"
			},
			{
				"type": "occ",
				"energy": -0.25198,
				"method": "rhf"
			},
			{
				"type": "occ",
				"energy": -0.20991,
				"method": "rhf"
			},
			{
				"type": "occ",
				"energy": -0.19352,
				"method": "rhf"
			},
			{
				"type": "unocc",
				"energy": -0.0141,
				"method": "rhf"
			},
			{
				"type": "unocc",
				"energy": -0.01034,
				"method": "rhf"
			},
			{
				"type": "unocc",
				"energy": 0.00779,
				"method": "rhf"
			},
			{
				"type": "unocc",
				"energy": 0.03403,
				"method": "rhf"
			},
			{
				"type": "unocc",
				"energy": 0.05989,
				"method": "rhf"
			}
		],
		"cosmo_sigma_profile": { 
			"-0.025": 0.0,
			"-0.024": 0.0,
			"-0.023": 0.0,
			"-0.022": 0.0,
			"-0.021": 0.0,
			"-0.02": 0.0,
			"-0.019": 0.0,
			"-0.018": 0.0,
			"-0.017": 0.0,
			"-0.016": 0.0,
			"-0.015": 0.0,
			"-0.014": 0.0,
			"-0.013": 1.18882935264,
			"-0.012": 0.901367431094,
			"-0.011": 1.57844990691,
			"-0.01": 2.53272224702,
			"-0.009": 2.73432852263,
			"-0.008": 3.19868911689,
			"-0.007": 2.96881455403,
			"-0.006": 8.82732875512,
			"-0.005": 23.6106883433,
			"-0.004": 32.9016560368,
			"-0.003": 34.5042171889,
			"-0.002": 28.6726997316,
			"-0.001": 23.2778807388,
			"0.0": 19.6406206563,
			"0.001": 15.8357422987,
			"0.002": 15.6905073412,
			"0.003": 15.9641139466,
			"0.004": 15.2503474478,
			"0.005": 17.2133037365,
			"0.006": 18.2695084095,
			"0.007": 10.1490507658,
			"0.008": 4.32276350032,
			"0.009": 1.31606282823,
			"0.01": 1.6776274104,
			"0.011": 1.80326630855,
			"0.012": 2.05001058322,
			"0.013": 1.57089557461,
			"0.014": 0.88334266597,
			"0.015": 0.372687245087,
			"0.016": 1.26969840692,
			"0.017": 1.03436938144,
			"0.018": 0.780630544173,
			"0.019": 0.0,
			"0.02": 0.0,
			"0.021": 0.0,
			"0.022": 0.0,
			"0.023": 0.0,
			"0.024": 0.0,
			"0.025": 0.0
		}
	}
}
