{
	 "smiles": "CN1C2=C(NC(Br)=N2)C(=O)N(C)C1=O", 
	 "Tm": 573.15, 
	 "num_atms": 21, 
	 "gaussian": { 
		 "optdone": 1, 
		 "sigma_profile": "yes", 
		 "theory": "DFT", 
		 "functional": "B3LYP", 
		 "basiset": "6-31G**", 
		 "properties": { 
			 "R2extent": 5472.8949, 
			 "electric_dipole_moment_norm": 2.30432792371, 
			 "electric_quadrupole_moment_norm": 3.03364380737, 
			 "total_energy": -3211.85913356, 
			 "HOMO_LUMO_gap": 0.18432, 
			 "cosmo_polarized_energy": -14.76, 
			 "cosmo_cavitation_energy": 27.87, 
			 "cosmo_dispersion_energy": -21.26, 
			 "cosmo_repulsion_energy": 1.66, 
			 "cosmo_total_nonelectrostatic_energy": 8.27, 
			 "SMD_solvation_energy": 3.34 
		},
		"coords": [
			{
				"x": -2.8644508998,
				"y": -2.1242815336,
				"z": -2.0753982652,
				"element": "C" 
			},
			{
				"x": -2.0794290123,
				"y": -1.3550840038,
				"z": -1.1099342046,
				"element": "N" 
			},
			{
				"x": -1.2638174568,
				"y": -0.3322391171,
				"z": -1.5250391124,
				"element": "C" 
			},
			{
				"x": -0.5155300509,
				"y": 0.405118605,
				"z": -0.6336977715,
				"element": "C" 
			},
			{
				"x": 0.162407176,
				"y": 1.3242077901,
				"z": -1.416782909,
				"element": "N" 
			},
			{
				"x": -0.2200931367,
				"y": 1.0771345913,
				"z": -2.6951629812,
				"element": "C" 
			},
			{
				"x": 0.4531162141,
				"y": 2.0911279338,
				"z": -4.1192780583,
				"element": "Br" 
			},
			{
				"x": -1.0823403613,
				"y": 0.0840102419,
				"z": -2.8133705209,
				"element": "N" 
			},
			{
				"x": -0.5100392691,
				"y": 0.187625111,
				"z": 0.7830267689,
				"element": "C" 
			},
			{
				"x": 0.139537454,
				"y": 0.8193667822,
				"z": 1.608571596,
				"element": "O" 
			},
			{
				"x": -1.3744685836,
				"y": -0.8814618065,
				"z": 1.1278396832,
				"element": "N" 
			},
			{
				"x": -1.4874624456,
				"y": -1.2388829861,
				"z": 2.5467852299,
				"element": "C" 
			},
			{
				"x": -2.1569216747,
				"y": -1.6613979384,
				"z": 0.2526352611,
				"element": "C" 
			},
			{
				"x": -2.8655386687,
				"y": -2.5610425148,
				"z": 0.6783760662,
				"element": "O" 
			},
			{
				"x": -3.4246634434,
				"y": -2.8705166823,
				"z": -1.5164690937,
				"element": "H" 
			},
			{
				"x": -3.5469760749,
				"y": -1.4629430191,
				"z": -2.6152125461,
				"element": "H" 
			},
			{
				"x": -2.2012100279,
				"y": -2.6089306314,
				"z": -2.7963940588,
				"element": "H" 
			},
			{
				"x": 0.8069930741,
				"y": 2.028761851,
				"z": -1.0893269383,
				"element": "H" 
			},
			{
				"x": -2.5230072909,
				"y": -1.1341282193,
				"z": 2.8767359594,
				"element": "H" 
			},
			{
				"x": -1.1826377058,
				"y": -2.2767259006,
				"z": 2.6956326818,
				"element": "H" 
			},
			{
				"x": -0.8381678158,
				"y": -0.5651185533,
				"z": 3.1015632136,
				"element": "H" 
			}
		],
		 "valence_orbital": [ 
			{
				"type": "occ",
				"energy": -0.29316,
				"method": "rhf"
			},
			{
				"type": "occ",
				"energy": -0.28931,
				"method": "rhf"
			},
			{
				"type": "occ",
				"energy": -0.27283,
				"method": "rhf"
			},
			{
				"type": "occ",
				"energy": -0.26634,
				"method": "rhf"
			},
			{
				"type": "occ",
				"energy": -0.2278,
				"method": "rhf"
			},
			{
				"type": "unocc",
				"energy": -0.04348,
				"method": "rhf"
			},
			{
				"type": "unocc",
				"energy": -0.01481,
				"method": "rhf"
			},
			{
				"type": "unocc",
				"energy": 0.01519,
				"method": "rhf"
			},
			{
				"type": "unocc",
				"energy": 0.02204,
				"method": "rhf"
			},
			{
				"type": "unocc",
				"energy": 0.06781,
				"method": "rhf"
			}
		],
		"cosmo_sigma_profile": { 
			"-0.025": 0.0,
			"-0.024": 0.0,
			"-0.023": 0.0,
			"-0.022": 0.0,
			"-0.021": 0.0,
			"-0.02": 0.0,
			"-0.019": 0.0845156266664,
			"-0.018": 0.857857082415,
			"-0.017": 1.41825647793,
			"-0.016": 0.771498785033,
			"-0.015": 0.440718793306,
			"-0.014": 0.953790218904,
			"-0.013": 1.26752595881,
			"-0.012": 0.954361517593,
			"-0.011": 1.08384513104,
			"-0.01": 1.25755578365,
			"-0.009": 1.23773649311,
			"-0.008": 1.20384137747,
			"-0.007": 1.9204682499,
			"-0.006": 7.28585308944,
			"-0.005": 15.8686727838,
			"-0.004": 17.0697254664,
			"-0.003": 27.5762381583,
			"-0.002": 30.9663493213,
			"-0.001": 17.7778044422,
			"0.0": 10.4249252976,
			"0.001": 12.0360705349,
			"0.002": 15.2373936741,
			"0.003": 9.78137397951,
			"0.004": 5.49808174623,
			"0.005": 3.73740191242,
			"0.006": 4.56629686601,
			"0.007": 4.65109504211,
			"0.008": 2.77196053371,
			"0.009": 3.65451547576,
			"0.01": 4.43292045951,
			"0.011": 4.76688647682,
			"0.012": 9.25057771338,
			"0.013": 5.57689404464,
			"0.014": 0.285824555993,
			"0.015": 0.0,
			"0.016": 0.0,
			"0.017": 0.0,
			"0.018": 0.0,
			"0.019": 0.0,
			"0.02": 0.0,
			"0.021": 0.0,
			"0.022": 0.0,
			"0.023": 0.0,
			"0.024": 0.0,
			"0.025": 0.0
		}
	}
}
