{
	 "smiles": "NC1=C(C=C(O)C=C1)[N+]([O-])=O", 
	 "Tm": 424.15, 
	 "num_atms": 17, 
	 "gaussian": { 
		 "optdone": 1, 
		 "sigma_profile": "yes", 
		 "theory": "DFT", 
		 "functional": "B3LYP", 
		 "basiset": "6-31G**", 
		 "properties": { 
			 "R2extent": 1841.3303, 
			 "electric_dipole_moment_norm": 3.60512530434, 
			 "electric_quadrupole_moment_norm": 18.5493836359, 
			 "total_energy": -567.329406794, 
			 "HOMO_LUMO_gap": 0.12601, 
			 "cosmo_polarized_energy": -14.8, 
			 "cosmo_cavitation_energy": 21.66, 
			 "cosmo_dispersion_energy": -16.58, 
			 "cosmo_repulsion_energy": 1.33, 
			 "cosmo_total_nonelectrostatic_energy": 6.41, 
			 "SMD_solvation_energy": 6.07 
		},
		"coords": [
			{
				"x": -1.9196837696,
				"y": 0.5612295954,
				"z": -1.3061308715,
				"element": "N" 
			},
			{
				"x": -0.7727488252,
				"y": -0.0295707613,
				"z": -0.8669166938,
				"element": "C" 
			},
			{
				"x": 0.4246259774,
				"y": 0.6693977526,
				"z": -0.563515668,
				"element": "C" 
			},
			{
				"x": 1.5911428587,
				"y": -0.0052298952,
				"z": -0.1510047579,
				"element": "C" 
			},
			{
				"x": 1.5973073479,
				"y": -1.3797826605,
				"z": -0.024908213,
				"element": "C" 
			},
			{
				"x": 2.6881661453,
				"y": -2.1046955151,
				"z": 0.3699997094,
				"element": "O" 
			},
			{
				"x": 0.4192812773,
				"y": -2.0983439314,
				"z": -0.3127607241,
				"element": "C" 
			},
			{
				"x": -0.7216214913,
				"y": -1.4408857536,
				"z": -0.7198317097,
				"element": "C" 
			},
			{
				"x": 0.508293131,
				"y": 2.1106433374,
				"z": -0.6459112179,
				"element": "N" 
			},
			{
				"x": 1.5809865946,
				"y": 2.6549606784,
				"z": -0.372637708,
				"element": "O" 
			},
			{
				"x": -0.503108755,
				"y": 2.755496574,
				"z": -0.9856326086,
				"element": "O" 
			},
			{
				"x": -2.7655724792,
				"y": 0.0162893213,
				"z": -1.3307910572,
				"element": "H" 
			},
			{
				"x": -1.9629682957,
				"y": 1.5697709992,
				"z": -1.284302366,
				"element": "H" 
			},
			{
				"x": 2.4676447103,
				"y": 0.5955273038,
				"z": 0.0621051899,
				"element": "H" 
			},
			{
				"x": 3.4251435874,
				"y": -1.503360769,
				"z": 0.5382337555,
				"element": "H" 
			},
			{
				"x": 0.4287662066,
				"y": -3.1785344639,
				"z": -0.2092103004,
				"element": "H" 
			},
			{
				"x": -1.6188542203,
				"y": -2.0112118121,
				"z": -0.9437847588,
				"element": "H" 
			}
		],
		 "valence_orbital": [ 
			{
				"type": "occ",
				"energy": -0.30165,
				"method": "rhf"
			},
			{
				"type": "occ",
				"energy": -0.29583,
				"method": "rhf"
			},
			{
				"type": "occ",
				"energy": -0.28237,
				"method": "rhf"
			},
			{
				"type": "occ",
				"energy": -0.27647,
				"method": "rhf"
			},
			{
				"type": "occ",
				"energy": -0.20735,
				"method": "rhf"
			},
			{
				"type": "unocc",
				"energy": -0.08134,
				"method": "rhf"
			},
			{
				"type": "unocc",
				"energy": -0.00371,
				"method": "rhf"
			},
			{
				"type": "unocc",
				"energy": 0.02012,
				"method": "rhf"
			},
			{
				"type": "unocc",
				"energy": 0.06226,
				"method": "rhf"
			},
			{
				"type": "unocc",
				"energy": 0.08156,
				"method": "rhf"
			}
		],
		"cosmo_sigma_profile": { 
			"-0.025": 0.0,
			"-0.024": 0.0,
			"-0.023": 0.0,
			"-0.022": 0.0,
			"-0.021": 0.0,
			"-0.02": 0.0,
			"-0.019": 0.0,
			"-0.018": 0.671000688079,
			"-0.017": 1.31623967571,
			"-0.016": 0.912870488404,
			"-0.015": 1.23008492492,
			"-0.014": 2.2973249252,
			"-0.013": 2.36750580943,
			"-0.012": 2.56655773812,
			"-0.011": 2.62541615379,
			"-0.01": 3.41988378522,
			"-0.009": 3.45790501472,
			"-0.008": 3.82861253171,
			"-0.007": 5.32694774511,
			"-0.006": 5.94516923077,
			"-0.005": 6.55286228477,
			"-0.004": 6.54513322295,
			"-0.003": 7.01514748733,
			"-0.002": 7.11304020627,
			"-0.001": 7.09854508776,
			"0.0": 10.2833316486,
			"0.001": 13.6254834906,
			"0.002": 17.8286118404,
			"0.003": 13.2287604739,
			"0.004": 5.88576232388,
			"0.005": 5.20681690246,
			"0.006": 4.37106123527,
			"0.007": 5.1280267177,
			"0.008": 7.87754335179,
			"0.009": 6.99959592334,
			"0.01": 5.79769655871,
			"0.011": 5.36887701934,
			"0.012": 1.0063491738,
			"0.013": 0.0,
			"0.014": 0.0,
			"0.015": 0.0,
			"0.016": 0.0,
			"0.017": 0.0,
			"0.018": 0.0,
			"0.019": 0.0,
			"0.02": 0.0,
			"0.021": 0.0,
			"0.022": 0.0,
			"0.023": 0.0,
			"0.024": 0.0,
			"0.025": 0.0
		}
	}
}
