{
	 "smiles": "C1CCNCC1", 
	 "Tm": 264.15, 
	 "num_atms": 17, 
	 "gaussian": { 
		 "optdone": 1, 
		 "sigma_profile": "yes", 
		 "theory": "DFT", 
		 "functional": "B3LYP", 
		 "basiset": "6-31G**", 
		 "properties": { 
			 "R2extent": 581.5882, 
			 "electric_dipole_moment_norm": 1.10864603007, 
			 "electric_quadrupole_moment_norm": 3.11497635304, 
			 "total_energy": -251.904660365, 
			 "HOMO_LUMO_gap": 0.28008, 
			 "cosmo_polarized_energy": -3.61, 
			 "cosmo_cavitation_energy": 17.58, 
			 "cosmo_dispersion_energy": -13.83, 
			 "cosmo_repulsion_energy": 1.19, 
			 "cosmo_total_nonelectrostatic_energy": 4.95, 
			 "SMD_solvation_energy": 0.02 
		},
		"coords": [
			{
				"x": 1.4477125086,
				"y": -0.2146494319,
				"z": 0.9036925135,
				"element": "C" 
			},
			{
				"x": 1.1747259009,
				"y": -0.1430354048,
				"z": -0.6181139327,
				"element": "C" 
			},
			{
				"x": -0.2730808019,
				"y": -0.5232711681,
				"z": -0.9352988564,
				"element": "C" 
			},
			{
				"x": -1.1924056982,
				"y": 0.4724110415,
				"z": -0.3569298211,
				"element": "N" 
			},
			{
				"x": -0.7426382998,
				"y": 1.0521633707,
				"z": 0.9222706388,
				"element": "C" 
			},
			{
				"x": 0.177349708,
				"y": 0.1197087978,
				"z": 1.7236837364,
				"element": "C" 
			},
			{
				"x": 2.2558198252,
				"y": 0.4801839856,
				"z": 1.160280758,
				"element": "H" 
			},
			{
				"x": 1.8050979004,
				"y": -1.2154403486,
				"z": 1.1733693814,
				"element": "H" 
			},
			{
				"x": 1.862195961,
				"y": -0.7972843839,
				"z": -1.1646710084,
				"element": "H" 
			},
			{
				"x": 1.3503485997,
				"y": 0.8744963295,
				"z": -0.9876959138,
				"element": "H" 
			},
			{
				"x": -0.4299249673,
				"y": -0.5604098261,
				"z": -2.0209902668,
				"element": "H" 
			},
			{
				"x": -0.4543985538,
				"y": -1.5464394122,
				"z": -0.5574129875,
				"element": "H" 
			},
			{
				"x": -2.1073511522,
				"y": 0.051657442,
				"z": -0.2350034116,
				"element": "H" 
			},
			{
				"x": -0.20805859,
				"y": 1.9930998918,
				"z": 0.724919545,
				"element": "H" 
			},
			{
				"x": -1.628058981,
				"y": 1.3250456251,
				"z": 1.5064067307,
				"element": "H" 
			},
			{
				"x": -0.3725945805,
				"y": -0.800456455,
				"z": 1.959501564,
				"element": "H" 
			},
			{
				"x": 0.4444612209,
				"y": 0.5764199467,
				"z": 2.6838913305,
				"element": "H" 
			}
		],
		 "valence_orbital": [ 
			{
				"type": "occ",
				"energy": -0.35525,
				"method": "rhf"
			},
			{
				"type": "occ",
				"energy": -0.32643,
				"method": "rhf"
			},
			{
				"type": "occ",
				"energy": -0.30827,
				"method": "rhf"
			},
			{
				"type": "occ",
				"energy": -0.30322,
				"method": "rhf"
			},
			{
				"type": "occ",
				"energy": -0.20328,
				"method": "rhf"
			},
			{
				"type": "unocc",
				"energy": 0.0768,
				"method": "rhf"
			},
			{
				"type": "unocc",
				"energy": 0.10745,
				"method": "rhf"
			},
			{
				"type": "unocc",
				"energy": 0.12849,
				"method": "rhf"
			},
			{
				"type": "unocc",
				"energy": 0.1471,
				"method": "rhf"
			},
			{
				"type": "unocc",
				"energy": 0.15043,
				"method": "rhf"
			}
		],
		"cosmo_sigma_profile": { 
			"-0.025": 0.0,
			"-0.024": 0.0,
			"-0.023": 0.0,
			"-0.022": 0.0,
			"-0.021": 0.0,
			"-0.02": 0.0,
			"-0.019": 0.0,
			"-0.018": 0.0,
			"-0.017": 0.0,
			"-0.016": 0.0,
			"-0.015": 0.0,
			"-0.014": 0.0,
			"-0.013": 0.0,
			"-0.012": 0.0,
			"-0.011": 0.0,
			"-0.01": 0.141414086904,
			"-0.009": 1.21528844496,
			"-0.008": 1.36989684962,
			"-0.007": 0.976104027707,
			"-0.006": 1.67708217617,
			"-0.005": 1.55308512297,
			"-0.004": 2.26352678227,
			"-0.003": 6.48091816151,
			"-0.002": 20.5227130993,
			"-0.001": 33.3579673561,
			"0.0": 28.7370980947,
			"0.001": 17.6919361501,
			"0.002": 5.39561722193,
			"0.003": 2.53316089103,
			"0.004": 1.13975647015,
			"0.005": 0.764717345023,
			"0.006": 0.763443214083,
			"0.007": 0.294737638984,
			"0.008": 1.10279695763,
			"0.009": 0.844456442499,
			"0.01": 0.780446410035,
			"0.011": 0.586634348917,
			"0.012": 0.664758701809,
			"0.013": 0.595410975261,
			"0.014": 0.61472545219,
			"0.015": 0.288137288788,
			"0.016": 0.890945243017,
			"0.017": 0.403810530591,
			"0.018": 0.563211168009,
			"0.019": 0.388501128998,
			"0.02": 0.100718202812,
			"0.021": 0.0,
			"0.022": 0.0,
			"0.023": 0.0,
			"0.024": 0.0,
			"0.025": 0.0
		}
	}
}
