{
	 "smiles": "CN1CCC(CN2C3=CC=CC=C3SC3=CC=CC=C23)C1", 
	 "Tm": 360.15, 
	 "num_atms": 41, 
	 "gaussian": { 
		 "optdone": 1, 
		 "sigma_profile": "yes", 
		 "theory": "DFT", 
		 "functional": "B3LYP", 
		 "basiset": "6-31G**", 
		 "properties": { 
			 "R2extent": 7359.1875, 
			 "electric_dipole_moment_norm": 2.12423073135, 
			 "electric_quadrupole_moment_norm": 6.29737116899, 
			 "total_energy": -1205.65068046, 
			 "HOMO_LUMO_gap": 0.17552, 
			 "cosmo_polarized_energy": -8.56, 
			 "cosmo_cavitation_energy": 42.48, 
			 "cosmo_dispersion_energy": -30.19, 
			 "cosmo_repulsion_energy": 2.26, 
			 "cosmo_total_nonelectrostatic_energy": 14.55, 
			 "SMD_solvation_energy": 4.02 
		},
		"coords": [
			{
				"x": -0.7390139557,
				"y": -2.8275229712,
				"z": 4.125358168,
				"element": "C" 
			},
			{
				"x": -0.1904741876,
				"y": -1.9669845311,
				"z": 3.0953437526,
				"element": "N" 
			},
			{
				"x": 1.2696730255,
				"y": -1.8682461498,
				"z": 3.1036089372,
				"element": "C" 
			},
			{
				"x": 1.569343073,
				"y": -0.678142163,
				"z": 2.1674582313,
				"element": "C" 
			},
			{
				"x": 0.2388072525,
				"y": 0.1311727661,
				"z": 2.1119905621,
				"element": "C" 
			},
			{
				"x": -0.4251501602,
				"y": 0.0643957679,
				"z": 0.7221477322,
				"element": "C" 
			},
			{
				"x": 0.4126452853,
				"y": 0.5959167915,
				"z": -0.3532512753,
				"element": "N" 
			},
			{
				"x": 0.4548342686,
				"y": -0.078634557,
				"z": -1.5997392122,
				"element": "C" 
			},
			{
				"x": -0.5750617541,
				"y": -0.9283988129,
				"z": -2.032939535,
				"element": "C" 
			},
			{
				"x": -0.4775031497,
				"y": -1.6042154724,
				"z": -3.2503218319,
				"element": "C" 
			},
			{
				"x": 0.6263873469,
				"y": -1.4144680443,
				"z": -4.0798840979,
				"element": "C" 
			},
			{
				"x": 1.6368117852,
				"y": -0.5373113317,
				"z": -3.6828133703,
				"element": "C" 
			},
			{
				"x": 1.5628382137,
				"y": 0.1108408139,
				"z": -2.4496006564,
				"element": "C" 
			},
			{
				"x": 2.9059511023,
				"y": 1.1418418194,
				"z": -1.8911840758,
				"element": "S" 
			},
			{
				"x": 1.9371131637,
				"y": 2.3728773268,
				"z": -1.0404059996,
				"element": "C" 
			},
			{
				"x": 2.3327912606,
				"y": 3.7107376841,
				"z": -1.0438079134,
				"element": "C" 
			},
			{
				"x": 1.6236217904,
				"y": 4.6576216587,
				"z": -0.3029578588,
				"element": "C" 
			},
			{
				"x": 0.4937642035,
				"y": 4.2601675695,
				"z": 0.4100168247,
				"element": "C" 
			},
			{
				"x": 0.0720744142,
				"y": 2.9297099701,
				"z": 0.3867600322,
				"element": "C" 
			},
			{
				"x": 0.7957587384,
				"y": 1.9598191209,
				"z": -0.3245699508,
				"element": "C" 
			},
			{
				"x": -0.6515402869,
				"y": -0.5820376951,
				"z": 3.1498253436,
				"element": "C" 
			},
			{
				"x": -1.8303938,
				"y": -2.8635493714,
				"z": 4.0418663145,
				"element": "H" 
			},
			{
				"x": -0.3587786603,
				"y": -3.8467476359,
				"z": 4.0002911599,
				"element": "H" 
			},
			{
				"x": -0.4850942068,
				"y": -2.4927739657,
				"z": 5.1506655987,
				"element": "H" 
			},
			{
				"x": 1.7213988357,
				"y": -2.8087010271,
				"z": 2.7692719094,
				"element": "H" 
			},
			{
				"x": 1.6531012458,
				"y": -1.6617253215,
				"z": 4.1231721741,
				"element": "H" 
			},
			{
				"x": 2.3984340455,
				"y": -0.073803646,
				"z": 2.5442306293,
				"element": "H" 
			},
			{
				"x": 1.8514211263,
				"y": -1.0129198946,
				"z": 1.1658075932,
				"element": "H" 
			},
			{
				"x": 0.3995045741,
				"y": 1.1741322421,
				"z": 2.3953032747,
				"element": "H" 
			},
			{
				"x": -0.6020456311,
				"y": -0.9905245803,
				"z": 0.5070760563,
				"element": "H" 
			},
			{
				"x": -1.4110348591,
				"y": 0.5548529459,
				"z": 0.7521311768,
				"element": "H" 
			},
			{
				"x": -1.4606284152,
				"y": -1.0620692995,
				"z": -1.4222049544,
				"element": "H" 
			},
			{
				"x": -1.2818836897,
				"y": -2.2678643702,
				"z": -3.5537870846,
				"element": "H" 
			},
			{
				"x": 0.6990689534,
				"y": -1.9326487536,
				"z": -5.0309383223,
				"element": "H" 
			},
			{
				"x": 2.4966928544,
				"y": -0.3606475657,
				"z": -4.3220820245,
				"element": "H" 
			},
			{
				"x": 3.2062849651,
				"y": 4.0022662729,
				"z": -1.6193436907,
				"element": "H" 
			},
			{
				"x": 1.948559322,
				"y": 5.6932908985,
				"z": -0.2914465015,
				"element": "H" 
			},
			{
				"x": -0.0768826712,
				"y": 4.9875750294,
				"z": 0.9799911449,
				"element": "H" 
			},
			{
				"x": -0.8246977566,
				"y": 2.6479349431,
				"z": 0.9264227161,
				"element": "H" 
			},
			{
				"x": -1.7231855083,
				"y": -0.5209916406,
				"z": 2.9221930256,
				"element": "H" 
			},
			{
				"x": -0.5015121537,
				"y": -0.1340248201,
				"z": 4.153045998,
				"element": "H" 
			}
		],
		 "valence_orbital": [ 
			{
				"type": "occ",
				"energy": -0.25288,
				"method": "rhf"
			},
			{
				"type": "occ",
				"energy": -0.24773,
				"method": "rhf"
			},
			{
				"type": "occ",
				"energy": -0.22117,
				"method": "rhf"
			},
			{
				"type": "occ",
				"energy": -0.21266,
				"method": "rhf"
			},
			{
				"type": "occ",
				"energy": -0.18551,
				"method": "rhf"
			},
			{
				"type": "unocc",
				"energy": -0.00999,
				"method": "rhf"
			},
			{
				"type": "unocc",
				"energy": -0.0059,
				"method": "rhf"
			},
			{
				"type": "unocc",
				"energy": 0.00044,
				"method": "rhf"
			},
			{
				"type": "unocc",
				"energy": 0.013,
				"method": "rhf"
			},
			{
				"type": "unocc",
				"energy": 0.04176,
				"method": "rhf"
			}
		],
		"cosmo_sigma_profile": { 
			"-0.025": 0.0,
			"-0.024": 0.0,
			"-0.023": 0.0,
			"-0.022": 0.0,
			"-0.021": 0.0,
			"-0.02": 0.0,
			"-0.019": 0.0,
			"-0.018": 0.0,
			"-0.017": 0.0,
			"-0.016": 0.0,
			"-0.015": 0.0,
			"-0.014": 0.0,
			"-0.013": 0.0,
			"-0.012": 0.0,
			"-0.011": 0.0,
			"-0.01": 0.0,
			"-0.009": 0.0,
			"-0.008": 0.0,
			"-0.007": 1.32300816715,
			"-0.006": 12.8211892993,
			"-0.005": 19.4927591941,
			"-0.004": 25.3146337039,
			"-0.003": 31.0317423357,
			"-0.002": 34.1878175872,
			"-0.001": 46.0267510067,
			"0.0": 35.8188629205,
			"0.001": 23.119462313,
			"0.002": 18.0471299494,
			"0.003": 22.3915282972,
			"0.004": 23.7002127251,
			"0.005": 23.222284314,
			"0.006": 12.0144921557,
			"0.007": 3.34498844795,
			"0.008": 1.79557256436,
			"0.009": 1.10033757936,
			"0.01": 0.658411657966,
			"0.011": 0.626000131544,
			"0.012": 0.462310657111,
			"0.013": 0.376876666255,
			"0.014": 0.354687841185,
			"0.015": 0.276020087363,
			"0.016": 0.0,
			"0.017": 0.0,
			"0.018": 0.0,
			"0.019": 0.0,
			"0.02": 0.0,
			"0.021": 0.0,
			"0.022": 0.0,
			"0.023": 0.0,
			"0.024": 0.0,
			"0.025": 0.0
		}
	}
}
