{
	 "smiles": "CN(C)C1=CC=C(C=C1)C1NCC(CCl)O1", 
	 "Tm": 378.15, 
	 "num_atms": 33, 
	 "gaussian": { 
		 "optdone": 1, 
		 "sigma_profile": "yes", 
		 "theory": "DFT", 
		 "functional": "B3LYP", 
		 "basiset": "6-31G**", 
		 "properties": { 
			 "R2extent": 6096.5429, 
			 "electric_dipole_moment_norm": 3.44052933137, 
			 "electric_quadrupole_moment_norm": 18.0500036321, 
			 "total_energy": -1112.42310018, 
			 "HOMO_LUMO_gap": 0.19507, 
			 "cosmo_polarized_energy": -13.82, 
			 "cosmo_cavitation_energy": 36.09, 
			 "cosmo_dispersion_energy": -26.15, 
			 "cosmo_repulsion_energy": 2.05, 
			 "cosmo_total_nonelectrostatic_energy": 11.99, 
			 "SMD_solvation_energy": 2.87 
		},
		"coords": [
			{
				"x": -2.0633112473,
				"y": 4.0153364717,
				"z": 2.0020056318,
				"element": "C" 
			},
			{
				"x": -2.3096433505,
				"y": 3.4383581228,
				"z": 0.6916968176,
				"element": "N" 
			},
			{
				"x": -2.6264925414,
				"y": 4.3414082914,
				"z": -0.4009894959,
				"element": "C" 
			},
			{
				"x": -1.8128655462,
				"y": 2.1705398371,
				"z": 0.4033321073,
				"element": "C" 
			},
			{
				"x": -1.8272591621,
				"y": 1.6549695023,
				"z": -0.9130565613,
				"element": "C" 
			},
			{
				"x": -1.3600947486,
				"y": 0.3731097949,
				"z": -1.1872433793,
				"element": "C" 
			},
			{
				"x": -0.8470105485,
				"y": -0.4479654216,
				"z": -0.1776878567,
				"element": "C" 
			},
			{
				"x": -0.8181139958,
				"y": 0.0601466886,
				"z": 1.1250464962,
				"element": "C" 
			},
			{
				"x": -1.2811136017,
				"y": 1.3395325417,
				"z": 1.4159726193,
				"element": "C" 
			},
			{
				"x": -0.387565698,
				"y": -1.8677577741,
				"z": -0.4726703842,
				"element": "C" 
			},
			{
				"x": 0.2466497313,
				"y": -1.9802050891,
				"z": -1.7791809375,
				"element": "N" 
			},
			{
				"x": 1.6343994147,
				"y": -1.5773155956,
				"z": -1.5083217079,
				"element": "C" 
			},
			{
				"x": 1.8769885041,
				"y": -1.9427651445,
				"z": -0.0034425003,
				"element": "C" 
			},
			{
				"x": 2.8445180432,
				"y": -3.104842186,
				"z": 0.1521561262,
				"element": "C" 
			},
			{
				"x": 3.1555232756,
				"y": -3.5345774996,
				"z": 1.8871315141,
				"element": "Cl" 
			},
			{
				"x": 0.5911899032,
				"y": -2.3161520927,
				"z": 0.488222833,
				"element": "O" 
			},
			{
				"x": -2.4991647126,
				"y": 3.3948198119,
				"z": 2.7930000572,
				"element": "H" 
			},
			{
				"x": -2.5406068954,
				"y": 4.9953058581,
				"z": 2.0564290492,
				"element": "H" 
			},
			{
				"x": -0.9915420075,
				"y": 4.1420386807,
				"z": 2.2240841763,
				"element": "H" 
			},
			{
				"x": -1.7538263201,
				"y": 4.5841898969,
				"z": -1.0284990702,
				"element": "H" 
			},
			{
				"x": -3.0212632173,
				"y": 5.2729673279,
				"z": 0.0082457036,
				"element": "H" 
			},
			{
				"x": -3.3995698372,
				"y": 3.9162041215,
				"z": -1.0508917968,
				"element": "H" 
			},
			{
				"x": -2.2015223704,
				"y": 2.255733049,
				"z": -1.7329605589,
				"element": "H" 
			},
			{
				"x": -1.3772937708,
				"y": 0.0040511233,
				"z": -2.2081832662,
				"element": "H" 
			},
			{
				"x": -0.4124006961,
				"y": -0.5560005549,
				"z": 1.9214076149,
				"element": "H" 
			},
			{
				"x": -1.2237072836,
				"y": 1.6901263105,
				"z": 2.4391307859,
				"element": "H" 
			},
			{
				"x": -1.2265520365,
				"y": -2.5701093352,
				"z": -0.4042490886,
				"element": "H" 
			},
			{
				"x": 0.2384406276,
				"y": -2.962844206,
				"z": -2.0438405432,
				"element": "H" 
			},
			{
				"x": 2.3225980124,
				"y": -2.0798913582,
				"z": -2.1940804778,
				"element": "H" 
			},
			{
				"x": 1.7407667879,
				"y": -0.4985746327,
				"z": -1.6511191554,
				"element": "H" 
			},
			{
				"x": 2.2575710969,
				"y": -1.0746264598,
				"z": 0.549412236,
				"element": "H" 
			},
			{
				"x": 3.8163412763,
				"y": -2.8567978871,
				"z": -0.2795715844,
				"element": "H" 
			},
			{
				"x": 2.4464329147,
				"y": -4.0025121934,
				"z": -0.3251854042,
				"element": "H" 
			}
		],
		 "valence_orbital": [ 
			{
				"type": "occ",
				"energy": -0.27507,
				"method": "rhf"
			},
			{
				"type": "occ",
				"energy": -0.26257,
				"method": "rhf"
			},
			{
				"type": "occ",
				"energy": -0.24771,
				"method": "rhf"
			},
			{
				"type": "occ",
				"energy": -0.23785,
				"method": "rhf"
			},
			{
				"type": "occ",
				"energy": -0.1854,
				"method": "rhf"
			},
			{
				"type": "unocc",
				"energy": 0.00967,
				"method": "rhf"
			},
			{
				"type": "unocc",
				"energy": 0.01713,
				"method": "rhf"
			},
			{
				"type": "unocc",
				"energy": 0.0291,
				"method": "rhf"
			},
			{
				"type": "unocc",
				"energy": 0.07726,
				"method": "rhf"
			},
			{
				"type": "unocc",
				"energy": 0.08848,
				"method": "rhf"
			}
		],
		"cosmo_sigma_profile": { 
			"-0.025": 0.0,
			"-0.024": 0.0,
			"-0.023": 0.0,
			"-0.022": 0.0,
			"-0.021": 0.0,
			"-0.02": 0.0,
			"-0.019": 0.0,
			"-0.018": 0.0,
			"-0.017": 0.0,
			"-0.016": 0.0,
			"-0.015": 0.0,
			"-0.014": 0.0,
			"-0.013": 0.0,
			"-0.012": 0.101222694763,
			"-0.011": 1.45073101373,
			"-0.01": 1.73868723189,
			"-0.009": 2.01783271431,
			"-0.008": 3.61411913174,
			"-0.007": 9.60766852484,
			"-0.006": 12.7294259004,
			"-0.005": 19.4962775768,
			"-0.004": 24.1081166164,
			"-0.003": 25.8461573036,
			"-0.002": 26.7793439948,
			"-0.001": 25.2139421565,
			"0.0": 16.0141977496,
			"0.001": 14.6131286883,
			"0.002": 13.252603472,
			"0.003": 13.2982503558,
			"0.004": 11.7886317958,
			"0.005": 13.4989641794,
			"0.006": 18.5850641556,
			"0.007": 16.969954674,
			"0.008": 4.3261753744,
			"0.009": 2.98812649331,
			"0.01": 1.75794527746,
			"0.011": 2.22635018636,
			"0.012": 1.84438954814,
			"0.013": 1.35476422424,
			"0.014": 0.329059112827,
			"0.015": 0.0,
			"0.016": 0.0,
			"0.017": 0.0,
			"0.018": 0.0,
			"0.019": 0.0,
			"0.02": 0.0,
			"0.021": 0.0,
			"0.022": 0.0,
			"0.023": 0.0,
			"0.024": 0.0,
			"0.025": 0.0
		}
	}
}
