{
	 "smiles": "CC1=CC=C(C=C1)C1=CC2=C(NC(C=C2)=C2C(=O)C3=C(C=CC=C3)C2=O)C=C1", 
	 "Tm": 515.15, 
	 "num_atms": 45, 
	 "gaussian": { 
		 "optdone": 1, 
		 "sigma_profile": "yes", 
		 "theory": "DFT", 
		 "functional": "B3LYP", 
		 "basiset": "6-31G**", 
		 "properties": { 
			 "R2extent": 18756.535, 
			 "electric_dipole_moment_norm": 4.34667677197, 
			 "electric_quadrupole_moment_norm": 21.4328576858, 
			 "total_energy": -1168.16014557, 
			 "HOMO_LUMO_gap": 0.1238, 
			 "cosmo_polarized_energy": -15.51, 
			 "cosmo_cavitation_energy": 49.59, 
			 "cosmo_dispersion_energy": -35.98, 
			 "cosmo_repulsion_energy": 2.59, 
			 "cosmo_total_nonelectrostatic_energy": 16.2, 
			 "SMD_solvation_energy": 8.11 
		},
		"coords": [
			{
				"x": -1.0563813135,
				"y": -3.923866701,
				"z": -8.013085219,
				"element": "C" 
			},
			{
				"x": -0.8026556351,
				"y": -3.2647886026,
				"z": -6.6783543532,
				"element": "C" 
			},
			{
				"x": 0.4981117981,
				"y": -3.0955870142,
				"z": -6.1872221502,
				"element": "C" 
			},
			{
				"x": 0.7345162995,
				"y": -2.4625514772,
				"z": -4.9687091389,
				"element": "C" 
			},
			{
				"x": -0.3263676631,
				"y": -1.973342281,
				"z": -4.189330921,
				"element": "C" 
			},
			{
				"x": -1.6312969187,
				"y": -2.1442088668,
				"z": -4.6818186541,
				"element": "C" 
			},
			{
				"x": -1.8619035475,
				"y": -2.7791530285,
				"z": -5.8992551963,
				"element": "C" 
			},
			{
				"x": -0.0784023634,
				"y": -1.3050331079,
				"z": -2.8882877058,
				"element": "C" 
			},
			{
				"x": -0.9335461948,
				"y": -1.488600802,
				"z": -1.8033722097,
				"element": "C" 
			},
			{
				"x": -0.7082111773,
				"y": -0.8557224235,
				"z": -0.566265356,
				"element": "C" 
			},
			{
				"x": 0.4230262065,
				"y": -0.0121575415,
				"z": -0.4234185103,
				"element": "C" 
			},
			{
				"x": 0.6431876869,
				"y": 0.6040152422,
				"z": 0.7854552086,
				"element": "N" 
			},
			{
				"x": -0.1564831761,
				"y": 0.4625366293,
				"z": 1.8845426842,
				"element": "C" 
			},
			{
				"x": -1.3040880913,
				"y": -0.3932543035,
				"z": 1.7572948718,
				"element": "C" 
			},
			{
				"x": -1.5608942404,
				"y": -1.0232021228,
				"z": 0.5771567274,
				"element": "C" 
			},
			{
				"x": 0.1930306157,
				"y": 1.1536100678,
				"z": 3.0520937273,
				"element": "C" 
			},
			{
				"x": 1.360767655,
				"y": 2.0097026614,
				"z": 3.150313959,
				"element": "C" 
			},
			{
				"x": 2.1944915867,
				"y": 2.2542370614,
				"z": 2.259906771,
				"element": "O" 
			},
			{
				"x": 1.3835968748,
				"y": 2.5569184171,
				"z": 4.5424599945,
				"element": "C" 
			},
			{
				"x": 0.2794499296,
				"y": 2.0494340474,
				"z": 5.2417213204,
				"element": "C" 
			},
			{
				"x": 0.049056333,
				"y": 2.3929850747,
				"z": 6.5659675975,
				"element": "C" 
			},
			{
				"x": 0.955818945,
				"y": 3.2649148065,
				"z": 7.1850315522,
				"element": "C" 
			},
			{
				"x": 2.0585918754,
				"y": 3.7715939106,
				"z": 6.4861339345,
				"element": "C" 
			},
			{
				"x": 2.2860299836,
				"y": 3.4207623307,
				"z": 5.1482845218,
				"element": "C" 
			},
			{
				"x": -0.5149886794,
				"y": 1.1462619644,
				"z": 4.33449487,
				"element": "C" 
			},
			{
				"x": -1.5408710134,
				"y": 0.5491097954,
				"z": 4.6549247836,
				"element": "O" 
			},
			{
				"x": 1.2953660479,
				"y": 0.1805208001,
				"z": -1.5099101801,
				"element": "C" 
			},
			{
				"x": 1.042050891,
				"y": -0.4548185055,
				"z": -2.7118230465,
				"element": "C" 
			},
			{
				"x": -1.168402225,
				"y": -3.1769091954,
				"z": -8.8091320722,
				"element": "H" 
			},
			{
				"x": -0.2303206959,
				"y": -4.5818864047,
				"z": -8.2980203913,
				"element": "H" 
			},
			{
				"x": -1.974611153,
				"y": -4.5193548001,
				"z": -7.9980770934,
				"element": "H" 
			},
			{
				"x": 1.3395146586,
				"y": -3.4747000393,
				"z": -6.7621135102,
				"element": "H" 
			},
			{
				"x": 1.7539051541,
				"y": -2.3751975194,
				"z": -4.6037314878,
				"element": "H" 
			},
			{
				"x": -2.4725419745,
				"y": -1.7544599074,
				"z": -4.1158251764,
				"element": "H" 
			},
			{
				"x": -2.8829783912,
				"y": -2.8919068455,
				"z": -6.255884947,
				"element": "H" 
			},
			{
				"x": -1.7870679056,
				"y": -2.1543446764,
				"z": -1.8942903629,
				"element": "H" 
			},
			{
				"x": 1.4522222874,
				"y": 1.2269782346,
				"z": 0.934261408,
				"element": "H" 
			},
			{
				"x": -1.9321720879,
				"y": -0.5016529766,
				"z": 2.6329370419,
				"element": "H" 
			},
			{
				"x": -2.4293327459,
				"y": -1.6701874929,
				"z": 0.4839576768,
				"element": "H" 
			},
			{
				"x": -0.8098571789,
				"y": 1.9928689284,
				"z": 7.0959931738,
				"element": "H" 
			},
			{
				"x": 0.8034394033,
				"y": 3.5533056047,
				"z": 8.2212945728,
				"element": "H" 
			},
			{
				"x": 2.7456425706,
				"y": 4.4455140229,
				"z": 6.9900174921,
				"element": "H" 
			},
			{
				"x": 3.1372014618,
				"y": 3.8068971685,
				"z": 4.5959797367,
				"element": "H" 
			},
			{
				"x": 2.1546502074,
				"y": 0.835564512,
				"z": -1.399482061,
				"element": "H" 
			},
			{
				"x": 1.7070058999,
				"y": -0.2784446444,
				"z": -3.5514138825,
				"element": "H" 
			}
		],
		 "valence_orbital": [ 
			{
				"type": "occ",
				"energy": -0.25646,
				"method": "rhf"
			},
			{
				"type": "occ",
				"energy": -0.25525,
				"method": "rhf"
			},
			{
				"type": "occ",
				"energy": -0.23607,
				"method": "rhf"
			},
			{
				"type": "occ",
				"energy": -0.23084,
				"method": "rhf"
			},
			{
				"type": "occ",
				"energy": -0.20085,
				"method": "rhf"
			},
			{
				"type": "unocc",
				"energy": -0.07705,
				"method": "rhf"
			},
			{
				"type": "unocc",
				"energy": -0.05878,
				"method": "rhf"
			},
			{
				"type": "unocc",
				"energy": -0.04248,
				"method": "rhf"
			},
			{
				"type": "unocc",
				"energy": -0.02197,
				"method": "rhf"
			},
			{
				"type": "unocc",
				"energy": -0.00968,
				"method": "rhf"
			}
		],
		"cosmo_sigma_profile": { 
			"-0.025": 0.0,
			"-0.024": 0.0,
			"-0.023": 0.0,
			"-0.022": 0.0,
			"-0.021": 0.0,
			"-0.02": 0.0,
			"-0.019": 0.0,
			"-0.018": 0.0,
			"-0.017": 0.0,
			"-0.016": 0.0,
			"-0.015": 0.0,
			"-0.014": 0.0,
			"-0.013": 0.0,
			"-0.012": 0.0572371794382,
			"-0.011": 0.524250454099,
			"-0.01": 1.03648022277,
			"-0.009": 1.25995694362,
			"-0.008": 5.29570704444,
			"-0.007": 9.47651547451,
			"-0.006": 20.610533519,
			"-0.005": 25.9303471965,
			"-0.004": 29.3924691571,
			"-0.003": 27.5202669191,
			"-0.002": 27.7358226132,
			"-0.001": 35.4910657761,
			"0.0": 40.3563078844,
			"0.001": 39.1776734032,
			"0.002": 38.0625224172,
			"0.003": 31.8112442879,
			"0.004": 18.1735661655,
			"0.005": 11.6900892779,
			"0.006": 9.08040618765,
			"0.007": 3.99063619005,
			"0.008": 1.96696980222,
			"0.009": 2.72763403065,
			"0.01": 3.5018279144,
			"0.011": 4.46149705543,
			"0.012": 5.01777690846,
			"0.013": 4.49699354493,
			"0.014": 0.619763625047,
			"0.015": 0.0,
			"0.016": 0.0,
			"0.017": 0.0,
			"0.018": 0.0,
			"0.019": 0.0,
			"0.02": 0.0,
			"0.021": 0.0,
			"0.022": 0.0,
			"0.023": 0.0,
			"0.024": 0.0,
			"0.025": 0.0
		}
	}
}
