{
	 "smiles": "COC(=O)C1=CC=C(OS(=O)(=O)C2=CC=C(C)C=C2)C=C1", 
	 "Tm": 363.5, 
	 "num_atms": 35, 
	 "gaussian": { 
		 "optdone": 1, 
		 "sigma_profile": "yes", 
		 "theory": "DFT", 
		 "functional": "B3LYP", 
		 "basiset": "6-31G**", 
		 "properties": { 
			 "R2extent": 9768.9541, 
			 "electric_dipole_moment_norm": 6.96950066576, 
			 "electric_quadrupole_moment_norm": 19.357412636, 
			 "total_energy": -1354.28585865, 
			 "HOMO_LUMO_gap": 0.19991, 
			 "cosmo_polarized_energy": -15.57, 
			 "cosmo_cavitation_energy": 41.79, 
			 "cosmo_dispersion_energy": -29.38, 
			 "cosmo_repulsion_energy": 2.22, 
			 "cosmo_total_nonelectrostatic_energy": 14.63, 
			 "SMD_solvation_energy": 7.81 
		},
		"coords": [
			{
				"x": 4.2881894813,
				"y": -1.3802119111,
				"z": 3.4783510001,
				"element": "C" 
			},
			{
				"x": 3.1137523724,
				"y": -0.6372308801,
				"z": 3.1173829924,
				"element": "O" 
			},
			{
				"x": 1.9477415779,
				"y": -1.3152909028,
				"z": 3.2288242963,
				"element": "C" 
			},
			{
				"x": 1.8855292834,
				"y": -2.4703840572,
				"z": 3.6026459463,
				"element": "O" 
			},
			{
				"x": 0.7695693762,
				"y": -0.488870011,
				"z": 2.8434364247,
				"element": "C" 
			},
			{
				"x": 0.8911181892,
				"y": 0.8407100768,
				"z": 2.4155373193,
				"element": "C" 
			},
			{
				"x": -0.243715793,
				"y": 1.5664359473,
				"z": 2.0643583343,
				"element": "C" 
			},
			{
				"x": -1.4984220478,
				"y": 0.9601297281,
				"z": 2.152247319,
				"element": "C" 
			},
			{
				"x": -2.6155538844,
				"y": 1.7462005747,
				"z": 1.8734172195,
				"element": "O" 
			},
			{
				"x": -3.5529525263,
				"y": 1.4269124555,
				"z": 0.5195064691,
				"element": "S" 
			},
			{
				"x": -3.6841775307,
				"y": -0.0192644741,
				"z": 0.3731474816,
				"element": "O" 
			},
			{
				"x": -4.7012530243,
				"y": 2.2972182588,
				"z": 0.714113023,
				"element": "O" 
			},
			{
				"x": -2.5403105828,
				"y": 2.0538801866,
				"z": -0.8052715674,
				"element": "C" 
			},
			{
				"x": -1.7274230702,
				"y": 1.1764900439,
				"z": -1.5239490764,
				"element": "C" 
			},
			{
				"x": -0.9370633644,
				"y": 1.683874614,
				"z": -2.5542726255,
				"element": "C" 
			},
			{
				"x": -0.9468132923,
				"y": 3.0487596006,
				"z": -2.8724039261,
				"element": "C" 
			},
			{
				"x": -0.0707052741,
				"y": 3.5948366475,
				"z": -3.9733700674,
				"element": "C" 
			},
			{
				"x": -1.781207287,
				"y": 3.9040260624,
				"z": -2.1343259919,
				"element": "C" 
			},
			{
				"x": -2.5781891135,
				"y": 3.4192295933,
				"z": -1.1019754236,
				"element": "C" 
			},
			{
				"x": -1.6398374641,
				"y": -0.3610473023,
				"z": 2.5841829314,
				"element": "C" 
			},
			{
				"x": -0.4989396611,
				"y": -1.0809242429,
				"z": 2.9232533169,
				"element": "C" 
			},
			{
				"x": 4.3975608913,
				"y": -2.2613385633,
				"z": 2.8410801059,
				"element": "H" 
			},
			{
				"x": 5.1247580862,
				"y": -0.6965054534,
				"z": 3.3343425872,
				"element": "H" 
			},
			{
				"x": 4.2327554959,
				"y": -1.7055287542,
				"z": 4.5201957877,
				"element": "H" 
			},
			{
				"x": 1.8715600504,
				"y": 1.2986748729,
				"z": 2.3587352807,
				"element": "H" 
			},
			{
				"x": -0.1759023183,
				"y": 2.5971913487,
				"z": 1.7340848842,
				"element": "H" 
			},
			{
				"x": -1.7318837212,
				"y": 0.11789232,
				"z": -1.290070179,
				"element": "H" 
			},
			{
				"x": -0.3077496096,
				"y": 1.0059548309,
				"z": -3.1241494172,
				"element": "H" 
			},
			{
				"x": 0.8383811443,
				"y": 4.0486259171,
				"z": -3.5598356726,
				"element": "H" 
			},
			{
				"x": 0.2404236917,
				"y": 2.8082803382,
				"z": -4.6658629469,
				"element": "H" 
			},
			{
				"x": -0.5870760167,
				"y": 4.3707604704,
				"z": -4.5466148791,
				"element": "H" 
			},
			{
				"x": -1.8122333721,
				"y": 4.9625526944,
				"z": -2.3781766458,
				"element": "H" 
			},
			{
				"x": -3.2351362759,
				"y": 4.0774305719,
				"z": -0.5439417414,
				"element": "H" 
			},
			{
				"x": -2.6263780985,
				"y": -0.8035555488,
				"z": 2.6436888206,
				"element": "H" 
			},
			{
				"x": -0.5707163121,
				"y": -2.1087150528,
				"z": 3.2618886204,
				"element": "H" 
			}
		],
		 "valence_orbital": [ 
			{
				"type": "occ",
				"energy": -0.27854,
				"method": "rhf"
			},
			{
				"type": "occ",
				"energy": -0.27719,
				"method": "rhf"
			},
			{
				"type": "occ",
				"energy": -0.27319,
				"method": "rhf"
			},
			{
				"type": "occ",
				"energy": -0.26641,
				"method": "rhf"
			},
			{
				"type": "occ",
				"energy": -0.25711,
				"method": "rhf"
			},
			{
				"type": "unocc",
				"energy": -0.0572,
				"method": "rhf"
			},
			{
				"type": "unocc",
				"energy": -0.04455,
				"method": "rhf"
			},
			{
				"type": "unocc",
				"energy": -0.0287,
				"method": "rhf"
			},
			{
				"type": "unocc",
				"energy": -0.01647,
				"method": "rhf"
			},
			{
				"type": "unocc",
				"energy": 0.03116,
				"method": "rhf"
			}
		],
		"cosmo_sigma_profile": { 
			"-0.025": 0.0,
			"-0.024": 0.0,
			"-0.023": 0.0,
			"-0.022": 0.0,
			"-0.021": 0.0,
			"-0.02": 0.0,
			"-0.019": 0.0,
			"-0.018": 0.0,
			"-0.017": 0.0,
			"-0.016": 0.0,
			"-0.015": 0.0,
			"-0.014": 0.0,
			"-0.013": 0.0,
			"-0.012": 0.0,
			"-0.011": 0.0,
			"-0.01": 0.0,
			"-0.009": 0.0,
			"-0.008": 1.26458654269,
			"-0.007": 10.2189757179,
			"-0.006": 21.4467483794,
			"-0.005": 26.2792868128,
			"-0.004": 26.5040279289,
			"-0.003": 28.2952030971,
			"-0.002": 25.7488019381,
			"-0.001": 28.5198537621,
			"0.0": 27.6669185819,
			"0.001": 29.9373472669,
			"0.002": 31.1582336507,
			"0.003": 15.9109474714,
			"0.004": 6.7883813806,
			"0.005": 8.38459427982,
			"0.006": 6.28800506069,
			"0.007": 5.14746587061,
			"0.008": 8.6986085615,
			"0.009": 10.1712305783,
			"0.01": 8.63481273575,
			"0.011": 3.68472122488,
			"0.012": 3.6208181334,
			"0.013": 0.0486722865976,
			"0.014": 0.0,
			"0.015": 0.0,
			"0.016": 0.0,
			"0.017": 0.0,
			"0.018": 0.0,
			"0.019": 0.0,
			"0.02": 0.0,
			"0.021": 0.0,
			"0.022": 0.0,
			"0.023": 0.0,
			"0.024": 0.0,
			"0.025": 0.0
		}
	}
}
