{
	 "smiles": "C1CC2=C(CC3=C1C=CC=C3)C=CC=C2", 
	 "Tm": 347.15, 
	 "num_atms": 29, 
	 "gaussian": { 
		 "optdone": 1, 
		 "sigma_profile": "yes", 
		 "theory": "DFT", 
		 "functional": "B3LYP", 
		 "basiset": "6-31G**", 
		 "properties": { 
			 "R2extent": 3381.3357, 
			 "electric_dipole_moment_norm": 0.430944184321, 
			 "electric_quadrupole_moment_norm": 6.09457488919, 
			 "total_energy": -580.049188625, 
			 "HOMO_LUMO_gap": 0.22797, 
			 "cosmo_polarized_energy": -5.61, 
			 "cosmo_cavitation_energy": 30.34, 
			 "cosmo_dispersion_energy": -22.45, 
			 "cosmo_repulsion_energy": 1.72, 
			 "cosmo_total_nonelectrostatic_energy": 9.6, 
			 "SMD_solvation_energy": 4.19 
		},
		"coords": [
			{
				"x": 2.0171710772,
				"y": 0.4704566324,
				"z": 1.6859828016,
				"element": "C" 
			},
			{
				"x": 1.0336305784,
				"y": -0.6397449948,
				"z": 2.0996528518,
				"element": "C" 
			},
			{
				"x": -0.3628490051,
				"y": -0.6685198311,
				"z": 1.4820387634,
				"element": "C" 
			},
			{
				"x": -0.8129452229,
				"y": 0.1232032415,
				"z": 0.4042233855,
				"element": "C" 
			},
			{
				"x": 0.0326790362,
				"y": 1.1906493605,
				"z": -0.2851554022,
				"element": "C" 
			},
			{
				"x": 1.4076889759,
				"y": 0.7470212181,
				"z": -0.739864443,
				"element": "C" 
			},
			{
				"x": 2.3828090285,
				"y": 0.4228646979,
				"z": 0.2216792515,
				"element": "C" 
			},
			{
				"x": 3.6571850751,
				"y": 0.0323449589,
				"z": -0.2010958288,
				"element": "C" 
			},
			{
				"x": 3.9732240782,
				"y": -0.0418106177,
				"z": -1.5592770031,
				"element": "C" 
			},
			{
				"x": 3.0058849464,
				"y": 0.2771636463,
				"z": -2.5112328975,
				"element": "C" 
			},
			{
				"x": 1.7313264726,
				"y": 0.6702018338,
				"z": -2.0975553723,
				"element": "C" 
			},
			{
				"x": -2.1271626995,
				"y": -0.0533150748,
				"z": -0.0591054813,
				"element": "C" 
			},
			{
				"x": -2.9979240945,
				"y": -0.9769763365,
				"z": 0.5115385587,
				"element": "C" 
			},
			{
				"x": -2.555534284,
				"y": -1.7581268899,
				"z": 1.5785801616,
				"element": "C" 
			},
			{
				"x": -1.2551528531,
				"y": -1.5957989182,
				"z": 2.0459264744,
				"element": "C" 
			},
			{
				"x": 1.5942818565,
				"y": 1.4504952721,
				"z": 1.943358108,
				"element": "H" 
			},
			{
				"x": 2.9224779222,
				"y": 0.3604634077,
				"z": 2.2929394843,
				"element": "H" 
			},
			{
				"x": 1.5136495883,
				"y": -1.6060085657,
				"z": 1.8910336952,
				"element": "H" 
			},
			{
				"x": 0.9143346434,
				"y": -0.6003982318,
				"z": 3.190257655,
				"element": "H" 
			},
			{
				"x": 0.1394637705,
				"y": 2.0536752596,
				"z": 0.3880214475,
				"element": "H" 
			},
			{
				"x": -0.52561989,
				"y": 1.5608381893,
				"z": -1.1502097531,
				"element": "H" 
			},
			{
				"x": 4.41092898,
				"y": -0.2149746342,
				"z": 0.5430097814,
				"element": "H" 
			},
			{
				"x": 4.9690544504,
				"y": -0.3455078078,
				"z": -1.869524322,
				"element": "H" 
			},
			{
				"x": 3.2400081063,
				"y": 0.2231987445,
				"z": -3.5706652678,
				"element": "H" 
			},
			{
				"x": 0.9770108803,
				"y": 0.9227987398,
				"z": -2.8390093713,
				"element": "H" 
			},
			{
				"x": -2.4700979944,
				"y": 0.5563135249,
				"z": -0.8917004107,
				"element": "H" 
			},
			{
				"x": -4.0075225976,
				"y": -1.0856681146,
				"z": 0.1257489721,
				"element": "H" 
			},
			{
				"x": -3.2147967003,
				"y": -2.4860816316,
				"z": 2.0428580096,
				"element": "H" 
			},
			{
				"x": -0.909504125,
				"y": -2.2063570787,
				"z": 2.8777461515,
				"element": "H" 
			}
		],
		 "valence_orbital": [ 
			{
				"type": "occ",
				"energy": -0.31933,
				"method": "rhf"
			},
			{
				"type": "occ",
				"energy": -0.24143,
				"method": "rhf"
			},
			{
				"type": "occ",
				"energy": -0.23869,
				"method": "rhf"
			},
			{
				"type": "occ",
				"energy": -0.2344,
				"method": "rhf"
			},
			{
				"type": "occ",
				"energy": -0.229,
				"method": "rhf"
			},
			{
				"type": "unocc",
				"energy": -0.00103,
				"method": "rhf"
			},
			{
				"type": "unocc",
				"energy": 0.00055,
				"method": "rhf"
			},
			{
				"type": "unocc",
				"energy": 0.00789,
				"method": "rhf"
			},
			{
				"type": "unocc",
				"energy": 0.01169,
				"method": "rhf"
			},
			{
				"type": "unocc",
				"energy": 0.09288,
				"method": "rhf"
			}
		],
		"cosmo_sigma_profile": { 
			"-0.025": 0.0,
			"-0.024": 0.0,
			"-0.023": 0.0,
			"-0.022": 0.0,
			"-0.021": 0.0,
			"-0.02": 0.0,
			"-0.019": 0.0,
			"-0.018": 0.0,
			"-0.017": 0.0,
			"-0.016": 0.0,
			"-0.015": 0.0,
			"-0.014": 0.0,
			"-0.013": 0.0,
			"-0.012": 0.0,
			"-0.011": 0.0,
			"-0.01": 0.0,
			"-0.009": 0.0,
			"-0.008": 0.0,
			"-0.007": 0.0,
			"-0.006": 1.44028436345,
			"-0.005": 18.907210723,
			"-0.004": 26.2729487936,
			"-0.003": 30.2930655664,
			"-0.002": 26.4487372087,
			"-0.001": 24.4375583539,
			"0.0": 17.75107533,
			"0.001": 12.9818724211,
			"0.002": 13.3892676506,
			"0.003": 13.6725433992,
			"0.004": 15.1282267756,
			"0.005": 15.1470295035,
			"0.006": 15.6196658045,
			"0.007": 9.11572501613,
			"0.008": 0.00541973637353,
			"0.009": 0.0,
			"0.01": 0.0,
			"0.011": 0.0,
			"0.012": 0.0,
			"0.013": 0.0,
			"0.014": 0.0,
			"0.015": 0.0,
			"0.016": 0.0,
			"0.017": 0.0,
			"0.018": 0.0,
			"0.019": 0.0,
			"0.02": 0.0,
			"0.021": 0.0,
			"0.022": 0.0,
			"0.023": 0.0,
			"0.024": 0.0,
			"0.025": 0.0
		}
	}
}
