{
	 "smiles": "CN(CC1=CC=CC=C1)C1=NC2=C(N1)C=CC=C2", 
	 "Tm": 480.15, 
	 "num_atms": 33, 
	 "gaussian": { 
		 "optdone": 1, 
		 "sigma_profile": "yes", 
		 "theory": "DFT", 
		 "functional": "B3LYP", 
		 "basiset": "6-31G**", 
		 "properties": { 
			 "R2extent": 5679.5501, 
			 "electric_dipole_moment_norm": 4.14600382175, 
			 "electric_quadrupole_moment_norm": 6.48781487482, 
			 "total_energy": -744.904966104, 
			 "HOMO_LUMO_gap": 0.1811, 
			 "cosmo_polarized_energy": -14.98, 
			 "cosmo_cavitation_energy": 35.96, 
			 "cosmo_dispersion_energy": -25.8, 
			 "cosmo_repulsion_energy": 1.97, 
			 "cosmo_total_nonelectrostatic_energy": 12.14, 
			 "SMD_solvation_energy": 3.63 
		},
		"coords": [
			{
				"x": -1.037992397,
				"y": -1.9138959972,
				"z": 1.2218166234,
				"element": "C" 
			},
			{
				"x": -1.232374532,
				"y": -0.9026400029,
				"z": 0.197541353,
				"element": "N" 
			},
			{
				"x": -2.4579708085,
				"y": -0.0922421391,
				"z": 0.2532400059,
				"element": "C" 
			},
			{
				"x": -2.5584055343,
				"y": 0.8108756875,
				"z": 1.4710123333,
				"element": "C" 
			},
			{
				"x": -1.7760985598,
				"y": 1.973111496,
				"z": 1.561193766,
				"element": "C" 
			},
			{
				"x": -1.855161108,
				"y": 2.7907933167,
				"z": 2.6879103012,
				"element": "C" 
			},
			{
				"x": -2.7178208698,
				"y": 2.463917439,
				"z": 3.7381909012,
				"element": "C" 
			},
			{
				"x": -3.5036291662,
				"y": 1.314430718,
				"z": 3.654825101,
				"element": "C" 
			},
			{
				"x": -3.4213987591,
				"y": 0.4944011123,
				"z": 2.5267817278,
				"element": "C" 
			},
			{
				"x": -0.1480650722,
				"y": -0.3835226687,
				"z": -0.4634383397,
				"element": "C" 
			},
			{
				"x": -0.1659187765,
				"y": 0.6901167955,
				"z": -1.2296268644,
				"element": "N" 
			},
			{
				"x": 1.1249060412,
				"y": 0.7961383337,
				"z": -1.7307366124,
				"element": "C" 
			},
			{
				"x": 1.9417155811,
				"y": -0.2474982129,
				"z": -1.2327661736,
				"element": "C" 
			},
			{
				"x": 1.094682003,
				"y": -0.9921614262,
				"z": -0.4147797375,
				"element": "N" 
			},
			{
				"x": 3.2852512299,
				"y": -0.3805635475,
				"z": -1.5660298978,
				"element": "C" 
			},
			{
				"x": 3.817625688,
				"y": 0.5770484739,
				"z": -2.4345473638,
				"element": "C" 
			},
			{
				"x": 3.0244369462,
				"y": 1.6201970447,
				"z": -2.9402835423,
				"element": "C" 
			},
			{
				"x": 1.6769969783,
				"y": 1.7438350095,
				"z": -2.5978580226,
				"element": "C" 
			},
			{
				"x": -2.0151284009,
				"y": -2.2938284518,
				"z": 1.5270591378,
				"element": "H" 
			},
			{
				"x": -0.5263346137,
				"y": -1.5362426161,
				"z": 2.119204446,
				"element": "H" 
			},
			{
				"x": -0.4752149262,
				"y": -2.7659984912,
				"z": 0.822909347,
				"element": "H" 
			},
			{
				"x": -3.3079608541,
				"y": -0.7840811355,
				"z": 0.2353178262,
				"element": "H" 
			},
			{
				"x": -2.478495368,
				"y": 0.497396949,
				"z": -0.6647570156,
				"element": "H" 
			},
			{
				"x": -1.1137585934,
				"y": 2.226926401,
				"z": 0.7387289641,
				"element": "H" 
			},
			{
				"x": -1.2474768748,
				"y": 3.6897419251,
				"z": 2.7443425046,
				"element": "H" 
			},
			{
				"x": -2.7801462128,
				"y": 3.1051014069,
				"z": 4.6129718282,
				"element": "H" 
			},
			{
				"x": -4.1814455872,
				"y": 1.0562474134,
				"z": 4.4638051279,
				"element": "H" 
			},
			{
				"x": -4.0424632273,
				"y": -0.3967614534,
				"z": 2.4625374113,
				"element": "H" 
			},
			{
				"x": 1.3462315774,
				"y": -1.8099562989,
				"z": 0.1142978462,
				"element": "H" 
			},
			{
				"x": 3.8976051856,
				"y": -1.1880370574,
				"z": -1.174714064,
				"element": "H" 
			},
			{
				"x": 4.8627095042,
				"y": 0.5107210279,
				"z": -2.7219233157,
				"element": "H" 
			},
			{
				"x": 3.4715231759,
				"y": 2.3460852031,
				"z": -3.6134694537,
				"element": "H" 
			},
			{
				"x": 1.0633763309,
				"y": 2.5491437455,
				"z": -2.9889561491,
				"element": "H" 
			}
		],
		 "valence_orbital": [ 
			{
				"type": "occ",
				"energy": -0.26087,
				"method": "rhf"
			},
			{
				"type": "occ",
				"energy": -0.24829,
				"method": "rhf"
			},
			{
				"type": "occ",
				"energy": -0.24352,
				"method": "rhf"
			},
			{
				"type": "occ",
				"energy": -0.21589,
				"method": "rhf"
			},
			{
				"type": "occ",
				"energy": -0.18669,
				"method": "rhf"
			},
			{
				"type": "unocc",
				"energy": -0.00559,
				"method": "rhf"
			},
			{
				"type": "unocc",
				"energy": 0.00063,
				"method": "rhf"
			},
			{
				"type": "unocc",
				"energy": 0.00895,
				"method": "rhf"
			},
			{
				"type": "unocc",
				"energy": 0.03436,
				"method": "rhf"
			},
			{
				"type": "unocc",
				"energy": 0.06279,
				"method": "rhf"
			}
		],
		"cosmo_sigma_profile": { 
			"-0.025": 0.0,
			"-0.024": 0.0,
			"-0.023": 0.0,
			"-0.022": 0.0,
			"-0.021": 0.0,
			"-0.02": 0.0,
			"-0.019": 0.0,
			"-0.018": 0.0,
			"-0.017": 0.0,
			"-0.016": 0.695791629323,
			"-0.015": 1.25466477705,
			"-0.014": 1.24723151574,
			"-0.013": 1.02468034339,
			"-0.012": 0.892994538025,
			"-0.011": 1.81782176134,
			"-0.01": 1.15602704921,
			"-0.009": 1.71439834404,
			"-0.008": 1.24516981094,
			"-0.007": 2.75711363653,
			"-0.006": 11.6882346247,
			"-0.005": 21.958213243,
			"-0.004": 25.1570832862,
			"-0.003": 27.1633474693,
			"-0.002": 23.7149038716,
			"-0.001": 18.1424864464,
			"0.0": 13.9511066702,
			"0.001": 16.6466360426,
			"0.002": 18.6659082221,
			"0.003": 18.3759635777,
			"0.004": 18.3995669154,
			"0.005": 19.8680407936,
			"0.006": 19.1900371595,
			"0.007": 9.77923518539,
			"0.008": 3.30665429713,
			"0.009": 1.567503244,
			"0.01": 1.53599158955,
			"0.011": 0.417108436217,
			"0.012": 0.565471538855,
			"0.013": 0.865417328856,
			"0.014": 1.05761361977,
			"0.015": 0.767669483131,
			"0.016": 0.244226972251,
			"0.017": 0.0,
			"0.018": 0.0,
			"0.019": 0.0,
			"0.02": 0.0,
			"0.021": 0.0,
			"0.022": 0.0,
			"0.023": 0.0,
			"0.024": 0.0,
			"0.025": 0.0
		}
	}
}
