{
	 "smiles": "O[C@H]1CC2=C(CC=CC2)C[C@H]1O", 
	 "Tm": 413.15, 
	 "num_atms": 26, 
	 "gaussian": { 
		 "optdone": 1, 
		 "sigma_profile": "yes", 
		 "theory": "DFT", 
		 "functional": "B3LYP", 
		 "basiset": "6-31G**", 
		 "properties": { 
			 "R2extent": 3082.283, 
			 "electric_dipole_moment_norm": 2.05987632881, 
			 "electric_quadrupole_moment_norm": 10.5384725478, 
			 "total_energy": -539.919377122, 
			 "HOMO_LUMO_gap": 0.24596, 
			 "cosmo_polarized_energy": -10.64, 
			 "cosmo_cavitation_energy": 26.65, 
			 "cosmo_dispersion_energy": -20.1, 
			 "cosmo_repulsion_energy": 1.61, 
			 "cosmo_total_nonelectrostatic_energy": 8.16, 
			 "SMD_solvation_energy": 3.51 
		},
		"coords": [
			{
				"x": 0.6462472607,
				"y": 3.5622488096,
				"z": -1.3499979491,
				"element": "O" 
			},
			{
				"x": 1.7037240809,
				"y": 3.0728752248,
				"z": -0.5378395592,
				"element": "C" 
			},
			{
				"x": 1.1083190556,
				"y": 2.2946575947,
				"z": 0.6347801115,
				"element": "C" 
			},
			{
				"x": 0.7186391294,
				"y": 0.867659703,
				"z": 0.3144432244,
				"element": "C" 
			},
			{
				"x": 1.0815991619,
				"y": 0.2558563829,
				"z": -0.8235114301,
				"element": "C" 
			},
			{
				"x": 0.6894829755,
				"y": -1.1680150691,
				"z": -1.144975063,
				"element": "C" 
			},
			{
				"x": -0.1161456315,
				"y": -1.844815402,
				"z": -0.0723989396,
				"element": "C" 
			},
			{
				"x": -0.4654548568,
				"y": -1.2418539927,
				"z": 1.0641546984,
				"element": "C" 
			},
			{
				"x": -0.0983008637,
				"y": 0.1797084151,
				"z": 1.3842779592,
				"element": "C" 
			},
			{
				"x": 1.8786584065,
				"y": 0.9620290326,
				"z": -1.897478958,
				"element": "C" 
			},
			{
				"x": 2.6275108877,
				"y": 2.1846450815,
				"z": -1.378749595,
				"element": "C" 
			},
			{
				"x": 3.0882654126,
				"y": 2.9141668537,
				"z": -2.5252202388,
				"element": "O" 
			},
			{
				"x": 1.0586930613,
				"y": 3.7893306877,
				"z": -2.1982636261,
				"element": "H" 
			},
			{
				"x": 2.2955058602,
				"y": 3.9198384827,
				"z": -0.1418986322,
				"element": "H" 
			},
			{
				"x": 0.2329646271,
				"y": 2.8505955736,
				"z": 0.9960758658,
				"element": "H" 
			},
			{
				"x": 1.8251105481,
				"y": 2.2951446888,
				"z": 1.470355862,
				"element": "H" 
			},
			{
				"x": 1.5977912695,
				"y": -1.7577936339,
				"z": -1.3553160632,
				"element": "H" 
			},
			{
				"x": 0.1328219951,
				"y": -1.1861309761,
				"z": -2.0976133468,
				"element": "H" 
			},
			{
				"x": -0.4134817003,
				"y": -2.8756752298,
				"z": -0.2557896728,
				"element": "H" 
			},
			{
				"x": -1.0488120732,
				"y": -1.779812931,
				"z": 1.8091764951,
				"element": "H" 
			},
			{
				"x": 0.4457589035,
				"y": 0.2178061607,
				"z": 2.3438450134,
				"element": "H" 
			},
			{
				"x": -1.0136901037,
				"y": 0.7657736159,
				"z": 1.572786124,
				"element": "H" 
			},
			{
				"x": 2.5929220194,
				"y": 0.2719343683,
				"z": -2.3633854657,
				"element": "H" 
			},
			{
				"x": 1.2039556392,
				"y": 1.2900005209,
				"z": -2.7003439752,
				"element": "H" 
			},
			{
				"x": 3.4779804577,
				"y": 1.8612806085,
				"z": -0.7589210894,
				"element": "H" 
			},
			{
				"x": 3.7112344771,
				"y": 3.5871454295,
				"z": -2.2188917496,
				"element": "H" 
			}
		],
		 "valence_orbital": [ 
			{
				"type": "occ",
				"energy": -0.29889,
				"method": "rhf"
			},
			{
				"type": "occ",
				"energy": -0.28342,
				"method": "rhf"
			},
			{
				"type": "occ",
				"energy": -0.25425,
				"method": "rhf"
			},
			{
				"type": "occ",
				"energy": -0.24257,
				"method": "rhf"
			},
			{
				"type": "occ",
				"energy": -0.2178,
				"method": "rhf"
			},
			{
				"type": "unocc",
				"energy": 0.02816,
				"method": "rhf"
			},
			{
				"type": "unocc",
				"energy": 0.03867,
				"method": "rhf"
			},
			{
				"type": "unocc",
				"energy": 0.06342,
				"method": "rhf"
			},
			{
				"type": "unocc",
				"energy": 0.09336,
				"method": "rhf"
			},
			{
				"type": "unocc",
				"energy": 0.11091,
				"method": "rhf"
			}
		],
		"cosmo_sigma_profile": { 
			"-0.025": 0.0,
			"-0.024": 0.0,
			"-0.023": 0.0,
			"-0.022": 0.0,
			"-0.021": 0.0,
			"-0.02": 0.0,
			"-0.019": 0.0,
			"-0.018": 0.0,
			"-0.017": 0.0,
			"-0.016": 0.438150446816,
			"-0.015": 1.00218098481,
			"-0.014": 1.54100432117,
			"-0.013": 0.347111348487,
			"-0.012": 0.893553558793,
			"-0.011": 1.49948085109,
			"-0.01": 1.87285503187,
			"-0.009": 1.9232116896,
			"-0.008": 1.48746377185,
			"-0.007": 1.4417057781,
			"-0.006": 2.19373042714,
			"-0.005": 4.64093078651,
			"-0.004": 14.7848335881,
			"-0.003": 32.2385609447,
			"-0.002": 28.0129785828,
			"-0.001": 25.8921136405,
			"0.0": 16.7973874042,
			"0.001": 8.98226120643,
			"0.002": 7.04860808535,
			"0.003": 6.98798080021,
			"0.004": 7.04623838295,
			"0.005": 8.57323280891,
			"0.006": 6.1576215575,
			"0.007": 5.32946173643,
			"0.008": 2.73335866842,
			"0.009": 1.88335574471,
			"0.01": 2.81661284771,
			"0.011": 2.78941742799,
			"0.012": 2.41042002064,
			"0.013": 3.12587130082,
			"0.014": 2.67523666321,
			"0.015": 0.849791675222,
			"0.016": 0.0,
			"0.017": 0.0,
			"0.018": 0.0,
			"0.019": 0.0,
			"0.02": 0.0,
			"0.021": 0.0,
			"0.022": 0.0,
			"0.023": 0.0,
			"0.024": 0.0,
			"0.025": 0.0
		}
	}
}
