{
	 "smiles": "CCCCCCCCCCCCSCCCCCCCCCCCC", 
	 "Tm": 312.65, 
	 "num_atms": 75, 
	 "gaussian": { 
		 "optdone": 1, 
		 "sigma_profile": "yes", 
		 "theory": "DFT", 
		 "functional": "B3LYP", 
		 "basiset": "6-31G**", 
		 "properties": { 
			 "R2extent": 18297.2485, 
			 "electric_dipole_moment_norm": 1.635906501, 
			 "electric_quadrupole_moment_norm": 5.47185604982, 
			 "total_energy": -1342.94760149, 
			 "HOMO_LUMO_gap": 0.25177, 
			 "cosmo_polarized_energy": -4.99, 
			 "cosmo_cavitation_energy": 73.45, 
			 "cosmo_dispersion_energy": -43.73, 
			 "cosmo_repulsion_energy": 3.43, 
			 "cosmo_total_nonelectrostatic_energy": 33.16, 
			 "SMD_solvation_energy": 8.63 
		},
		"coords": [
			{
				"x": -6.7007350491,
				"y": 0.6535909528,
				"z": -0.1414954258,
				"element": "C" 
			},
			{
				"x": -6.6309416175,
				"y": 2.0598193199,
				"z": -0.7498266829,
				"element": "C" 
			},
			{
				"x": -6.0620645691,
				"y": 3.1349658357,
				"z": 0.1911228623,
				"element": "C" 
			},
			{
				"x": -4.5923166754,
				"y": 2.9293594395,
				"z": 0.5837391623,
				"element": "C" 
			},
			{
				"x": -4.0351025024,
				"y": 4.0680069607,
				"z": 1.4507219339,
				"element": "C" 
			},
			{
				"x": -2.5564886663,
				"y": 3.9090828281,
				"z": 1.845307353,
				"element": "C" 
			},
			{
				"x": -2.2835320265,
				"y": 2.7608419578,
				"z": 2.8289570959,
				"element": "C" 
			},
			{
				"x": -0.8222495177,
				"y": 2.6562908189,
				"z": 3.2987200856,
				"element": "C" 
			},
			{
				"x": 0.231132289,
				"y": 2.2693764264,
				"z": 2.2416896298,
				"element": "C" 
			},
			{
				"x": 0.0663404884,
				"y": 0.8630568368,
				"z": 1.6214505297,
				"element": "C" 
			},
			{
				"x": -0.7037180364,
				"y": 0.8365476489,
				"z": 0.2909709915,
				"element": "C" 
			},
			{
				"x": -0.8575986869,
				"y": -0.5590908679,
				"z": -0.3243162454,
				"element": "C" 
			},
			{
				"x": -1.9797298777,
				"y": -1.6101480509,
				"z": 0.6957707845,
				"element": "S" 
			},
			{
				"x": -2.280283566,
				"y": -3.0503253455,
				"z": -0.4158668325,
				"element": "C" 
			},
			{
				"x": -1.4179034542,
				"y": -4.2915166575,
				"z": -0.1425934628,
				"element": "C" 
			},
			{
				"x": 0.0873426294,
				"y": -4.1512161313,
				"z": -0.4137650716,
				"element": "C" 
			},
			{
				"x": 0.4520650661,
				"y": -3.9556133248,
				"z": -1.893749473,
				"element": "C" 
			},
			{
				"x": 1.960734121,
				"y": -4.0082549364,
				"z": -2.1888496327,
				"element": "C" 
			},
			{
				"x": 2.7828702803,
				"y": -2.8698522539,
				"z": -1.5672472976,
				"element": "C" 
			},
			{
				"x": 4.2680033393,
				"y": -2.9273578573,
				"z": -1.954415425,
				"element": "C" 
			},
			{
				"x": 5.1524186987,
				"y": -1.8623268206,
				"z": -1.2846503286,
				"element": "C" 
			},
			{
				"x": 4.8379700374,
				"y": -0.4178659679,
				"z": -1.7029990029,
				"element": "C" 
			},
			{
				"x": 5.8342615544,
				"y": 0.6270399403,
				"z": -1.1695055076,
				"element": "C" 
			},
			{
				"x": 5.9008943747,
				"y": 0.7731399127,
				"z": 0.3613169127,
				"element": "C" 
			},
			{
				"x": 4.5928226241,
				"y": 1.2425090204,
				"z": 1.0091907752,
				"element": "C" 
			},
			{
				"x": -7.1712494357,
				"y": -0.0514415773,
				"z": -0.8351370168,
				"element": "H" 
			},
			{
				"x": -7.2918197801,
				"y": 0.6532209931,
				"z": 0.7821008018,
				"element": "H" 
			},
			{
				"x": -5.7079314732,
				"y": 0.2611802088,
				"z": 0.1008365794,
				"element": "H" 
			},
			{
				"x": -7.6389146917,
				"y": 2.3643372282,
				"z": -1.0601776693,
				"element": "H" 
			},
			{
				"x": -6.0282278579,
				"y": 2.0302199588,
				"z": -1.6682955787,
				"element": "H" 
			},
			{
				"x": -6.6766571102,
				"y": 3.1788303655,
				"z": 1.1021218776,
				"element": "H" 
			},
			{
				"x": -6.165944262,
				"y": 4.1170769305,
				"z": -0.2907749538,
				"element": "H" 
			},
			{
				"x": -3.9847582822,
				"y": 2.8437499184,
				"z": -0.3296627084,
				"element": "H" 
			},
			{
				"x": -4.4838520031,
				"y": 1.9748762809,
				"z": 1.1118028955,
				"element": "H" 
			},
			{
				"x": -4.643910481,
				"y": 4.1621982199,
				"z": 2.3617186457,
				"element": "H" 
			},
			{
				"x": -4.1575492049,
				"y": 5.0151458613,
				"z": 0.9075549013,
				"element": "H" 
			},
			{
				"x": -2.2084779706,
				"y": 4.8463756094,
				"z": 2.3013558934,
				"element": "H" 
			},
			{
				"x": -1.9570351533,
				"y": 3.7780136601,
				"z": 0.9341948867,
				"element": "H" 
			},
			{
				"x": -2.5999953118,
				"y": 1.8038868103,
				"z": 2.3971416363,
				"element": "H" 
			},
			{
				"x": -2.917356631,
				"y": 2.908353001,
				"z": 3.7145769203,
				"element": "H" 
			},
			{
				"x": -0.771426085,
				"y": 1.9201636057,
				"z": 4.112554554,
				"element": "H" 
			},
			{
				"x": -0.5280802538,
				"y": 3.6172493916,
				"z": 3.7439000359,
				"element": "H" 
			},
			{
				"x": 1.2115444551,
				"y": 2.3232384038,
				"z": 2.7307547134,
				"element": "H" 
			},
			{
				"x": 0.2620752165,
				"y": 3.022441538,
				"z": 1.4426967218,
				"element": "H" 
			},
			{
				"x": 1.0593284284,
				"y": 0.4303219952,
				"z": 1.4398116542,
				"element": "H" 
			},
			{
				"x": -0.4189898204,
				"y": 0.1973026588,
				"z": 2.3465253401,
				"element": "H" 
			},
			{
				"x": -0.167352033,
				"y": 1.4611061353,
				"z": -0.4369472648,
				"element": "H" 
			},
			{
				"x": -1.6961837246,
				"y": 1.2848855127,
				"z": 0.4074382452,
				"element": "H" 
			},
			{
				"x": 0.1203120859,
				"y": -1.0428064165,
				"z": -0.4186047079,
				"element": "H" 
			},
			{
				"x": -1.2962564273,
				"y": -0.4792656314,
				"z": -1.324471978,
				"element": "H" 
			},
			{
				"x": -3.3342723175,
				"y": -3.3047493812,
				"z": -0.267839058,
				"element": "H" 
			},
			{
				"x": -2.1835092562,
				"y": -2.7043538547,
				"z": -1.4500507216,
				"element": "H" 
			},
			{
				"x": -1.5662132097,
				"y": -4.5878348173,
				"z": 0.9024908531,
				"element": "H" 
			},
			{
				"x": -1.8183898964,
				"y": -5.1127715416,
				"z": -0.7558588344,
				"element": "H" 
			},
			{
				"x": 0.4821733564,
				"y": -3.3281252877,
				"z": 0.193727687,
				"element": "H" 
			},
			{
				"x": 0.5857987532,
				"y": -5.0600180304,
				"z": -0.049586253,
				"element": "H" 
			},
			{
				"x": -0.046841342,
				"y": -4.7370673362,
				"z": -2.4837812777,
				"element": "H" 
			},
			{
				"x": 0.0511946586,
				"y": -3.0002445212,
				"z": -2.2592736033,
				"element": "H" 
			},
			{
				"x": 2.3616556614,
				"y": -4.9725302352,
				"z": -1.8444812898,
				"element": "H" 
			},
			{
				"x": 2.1066882197,
				"y": -3.9929639233,
				"z": -3.2776088494,
				"element": "H" 
			},
			{
				"x": 2.6999050172,
				"y": -2.9022471125,
				"z": -0.4724680825,
				"element": "H" 
			},
			{
				"x": 2.3520825804,
				"y": -1.9085826975,
				"z": -1.8792613005,
				"element": "H" 
			},
			{
				"x": 4.3606490089,
				"y": -2.8409122348,
				"z": -3.0467824301,
				"element": "H" 
			},
			{
				"x": 4.6584617954,
				"y": -3.9213750824,
				"z": -1.6965292577,
				"element": "H" 
			},
			{
				"x": 6.2030631842,
				"y": -2.0760692842,
				"z": -1.525792721,
				"element": "H" 
			},
			{
				"x": 5.0665823374,
				"y": -1.9637328575,
				"z": -0.1942722239,
				"element": "H" 
			},
			{
				"x": 3.8212585542,
				"y": -0.1501577747,
				"z": -1.3899196142,
				"element": "H" 
			},
			{
				"x": 4.8359844524,
				"y": -0.3631437644,
				"z": -2.8006524305,
				"element": "H" 
			},
			{
				"x": 6.8374781378,
				"y": 0.3785151088,
				"z": -1.5425722242,
				"element": "H" 
			},
			{
				"x": 5.5833446848,
				"y": 1.6048393193,
				"z": -1.6035845228,
				"element": "H" 
			},
			{
				"x": 6.6950605367,
				"y": 1.4912057881,
				"z": 0.6029352494,
				"element": "H" 
			},
			{
				"x": 6.2117542181,
				"y": -0.1772383422,
				"z": 0.8134965608,
				"element": "H" 
			},
			{
				"x": 3.7851375288,
				"y": 0.5155032294,
				"z": 0.8719022643,
				"element": "H" 
			},
			{
				"x": 4.7179185057,
				"y": 1.3915685388,
				"z": 2.0867763484,
				"element": "H" 
			},
			{
				"x": 4.2575513802,
				"y": 2.1935657475,
				"z": 0.5788935787,
				"element": "H" 
			}
		],
		 "valence_orbital": [ 
			{
				"type": "occ",
				"energy": -0.29927,
				"method": "rhf"
			},
			{
				"type": "occ",
				"energy": -0.29846,
				"method": "rhf"
			},
			{
				"type": "occ",
				"energy": -0.29375,
				"method": "rhf"
			},
			{
				"type": "occ",
				"energy": -0.28862,
				"method": "rhf"
			},
			{
				"type": "occ",
				"energy": -0.21257,
				"method": "rhf"
			},
			{
				"type": "unocc",
				"energy": 0.0392,
				"method": "rhf"
			},
			{
				"type": "unocc",
				"energy": 0.06665,
				"method": "rhf"
			},
			{
				"type": "unocc",
				"energy": 0.07539,
				"method": "rhf"
			},
			{
				"type": "unocc",
				"energy": 0.07936,
				"method": "rhf"
			},
			{
				"type": "unocc",
				"energy": 0.08799,
				"method": "rhf"
			}
		],
		"cosmo_sigma_profile": { 
			"-0.025": 0.0,
			"-0.024": 0.0,
			"-0.023": 0.0,
			"-0.022": 0.0,
			"-0.021": 0.0,
			"-0.02": 0.0,
			"-0.019": 0.0,
			"-0.018": 0.0,
			"-0.017": 0.0,
			"-0.016": 0.0,
			"-0.015": 0.0,
			"-0.014": 0.0,
			"-0.013": 0.0,
			"-0.012": 0.0,
			"-0.011": 0.0,
			"-0.01": 0.0,
			"-0.009": 0.0,
			"-0.008": 0.0,
			"-0.007": 0.0,
			"-0.006": 0.0,
			"-0.005": 1.0686814289,
			"-0.004": 6.33699014429,
			"-0.003": 13.0478105552,
			"-0.002": 75.9314083832,
			"-0.001": 144.646016936,
			"0.0": 138.92056232,
			"0.001": 113.8231607,
			"0.002": 43.8941320008,
			"0.003": 4.45961704392,
			"0.004": 3.3565092498,
			"0.005": 3.3537948761,
			"0.006": 2.89065089656,
			"0.007": 3.4286568111,
			"0.008": 3.39456448134,
			"0.009": 2.97571183972,
			"0.01": 1.23775258698,
			"0.011": 0.753706710224,
			"0.012": 0.0567824164729,
			"0.013": 0.0,
			"0.014": 0.0,
			"0.015": 0.0,
			"0.016": 0.0,
			"0.017": 0.0,
			"0.018": 0.0,
			"0.019": 0.0,
			"0.02": 0.0,
			"0.021": 0.0,
			"0.022": 0.0,
			"0.023": 0.0,
			"0.024": 0.0,
			"0.025": 0.0
		}
	}
}
