{
	 "smiles": "CN(C)C(=S)OC1=CC(C=O)=CC=C1", 
	 "Tm": 339.15, 
	 "num_atms": 25, 
	 "gaussian": { 
		 "optdone": 1, 
		 "sigma_profile": "yes", 
		 "theory": "DFT", 
		 "functional": "B3LYP", 
		 "basiset": "6-31G**", 
		 "properties": { 
			 "R2extent": 4130.1509, 
			 "electric_dipole_moment_norm": 6.08232593257, 
			 "electric_quadrupole_moment_norm": 10.7176094349, 
			 "total_energy": -991.065931842, 
			 "HOMO_LUMO_gap": 0.14981, 
			 "cosmo_polarized_energy": -15.29, 
			 "cosmo_cavitation_energy": 31.39, 
			 "cosmo_dispersion_energy": -22.28, 
			 "cosmo_repulsion_energy": 1.73, 
			 "cosmo_total_nonelectrostatic_energy": 10.84, 
			 "SMD_solvation_energy": 6.08 
		},
		"coords": [
			{
				"x": 0.1283754147,
				"y": 2.3044239851,
				"z": -3.3578190711,
				"element": "C" 
			},
			{
				"x": -0.6644241208,
				"y": 1.5723442055,
				"z": -2.3714899405,
				"element": "N" 
			},
			{
				"x": -2.0264920534,
				"y": 1.2054932577,
				"z": -2.7629441984,
				"element": "C" 
			},
			{
				"x": -0.1700709379,
				"y": 1.3930002924,
				"z": -1.1271248884,
				"element": "C" 
			},
			{
				"x": 1.3353979053,
				"y": 1.8861519236,
				"z": -0.6067610665,
				"element": "S" 
			},
			{
				"x": -1.0850459835,
				"y": 0.7503840639,
				"z": -0.3346767984,
				"element": "O" 
			},
			{
				"x": -0.7665249089,
				"y": 0.4018371006,
				"z": 0.9768683416,
				"element": "C" 
			},
			{
				"x": -0.0463091359,
				"y": -0.7595744603,
				"z": 1.2332016394,
				"element": "C" 
			},
			{
				"x": 0.1661051883,
				"y": -1.1487694399,
				"z": 2.5601424222,
				"element": "C" 
			},
			{
				"x": 0.9318985607,
				"y": -2.3856592286,
				"z": 2.8430687295,
				"element": "C" 
			},
			{
				"x": 1.1565437109,
				"y": -2.8168771648,
				"z": 3.9573989669,
				"element": "O" 
			},
			{
				"x": -0.3457155886,
				"y": -0.376446747,
				"z": 3.6145104397,
				"element": "C" 
			},
			{
				"x": -1.066301773,
				"y": 0.7800772075,
				"z": 3.3379327211,
				"element": "C" 
			},
			{
				"x": -1.2807182958,
				"y": 1.1755840669,
				"z": 2.0130752703,
				"element": "C" 
			},
			{
				"x": 1.1358409241,
				"y": 1.889017267,
				"z": -3.4190067337,
				"element": "H" 
			},
			{
				"x": -0.3661726284,
				"y": 2.2171100887,
				"z": -4.3271813718,
				"element": "H" 
			},
			{
				"x": 0.2155975657,
				"y": 3.3626713084,
				"z": -3.0890278654,
				"element": "H" 
			},
			{
				"x": -2.6497441289,
				"y": 2.1008546343,
				"z": -2.8809656929,
				"element": "H" 
			},
			{
				"x": -2.4736582672,
				"y": 0.560564563,
				"z": -2.0123561507,
				"element": "H" 
			},
			{
				"x": -1.9981743067,
				"y": 0.6743878675,
				"z": -3.719453371,
				"element": "H" 
			},
			{
				"x": 0.3455364105,
				"y": -1.349194004,
				"z": 0.4099045603,
				"element": "H" 
			},
			{
				"x": 1.3028125932,
				"y": -2.9170635875,
				"z": 1.9384849776,
				"element": "H" 
			},
			{
				"x": -0.1651991605,
				"y": -0.7061320855,
				"z": 4.6322651893,
				"element": "H" 
			},
			{
				"x": -1.4657208581,
				"y": 1.3829288883,
				"z": 4.147648633,
				"element": "H" 
			},
			{
				"x": -1.8399361259,
				"y": 2.0744859971,
				"z": 1.776205258,
				"element": "H" 
			}
		],
		 "valence_orbital": [ 
			{
				"type": "occ",
				"energy": -0.27036,
				"method": "rhf"
			},
			{
				"type": "occ",
				"energy": -0.25967,
				"method": "rhf"
			},
			{
				"type": "occ",
				"energy": -0.25593,
				"method": "rhf"
			},
			{
				"type": "occ",
				"energy": -0.22723,
				"method": "rhf"
			},
			{
				"type": "occ",
				"energy": -0.21472,
				"method": "rhf"
			},
			{
				"type": "unocc",
				"energy": -0.06491,
				"method": "rhf"
			},
			{
				"type": "unocc",
				"energy": -0.01791,
				"method": "rhf"
			},
			{
				"type": "unocc",
				"energy": -0.01222,
				"method": "rhf"
			},
			{
				"type": "unocc",
				"energy": 0.03694,
				"method": "rhf"
			},
			{
				"type": "unocc",
				"energy": 0.07961,
				"method": "rhf"
			}
		],
		"cosmo_sigma_profile": { 
			"-0.025": 0.0,
			"-0.024": 0.0,
			"-0.023": 0.0,
			"-0.022": 0.0,
			"-0.021": 0.0,
			"-0.02": 0.0,
			"-0.019": 0.0,
			"-0.018": 0.0,
			"-0.017": 0.0,
			"-0.016": 0.0,
			"-0.015": 0.0,
			"-0.014": 0.0,
			"-0.013": 0.0,
			"-0.012": 0.0,
			"-0.011": 0.0,
			"-0.01": 0.0,
			"-0.009": 0.693876569523,
			"-0.008": 4.27757500336,
			"-0.007": 11.1286280559,
			"-0.006": 17.2103852891,
			"-0.005": 22.029203165,
			"-0.004": 21.5133288325,
			"-0.003": 24.7149754222,
			"-0.002": 18.8623702235,
			"-0.001": 14.8259305716,
			"0.0": 15.0215607248,
			"0.001": 17.0549030757,
			"0.002": 15.0483046613,
			"0.003": 10.7410386393,
			"0.004": 6.71597871891,
			"0.005": 6.75738644423,
			"0.006": 5.52318169355,
			"0.007": 5.74116295405,
			"0.008": 8.16756255861,
			"0.009": 10.9995099718,
			"0.01": 8.5401527009,
			"0.011": 4.39519777004,
			"0.012": 2.42373126983,
			"0.013": 0.481296304212,
			"0.014": 0.0,
			"0.015": 0.0,
			"0.016": 0.0,
			"0.017": 0.0,
			"0.018": 0.0,
			"0.019": 0.0,
			"0.02": 0.0,
			"0.021": 0.0,
			"0.022": 0.0,
			"0.023": 0.0,
			"0.024": 0.0,
			"0.025": 0.0
		}
	}
}
