{
	 "smiles": "O=C(NC1=NC=CN=C1)C1CCNCC1", 
	 "Tm": 405.15, 
	 "num_atms": 29, 
	 "gaussian": { 
		 "optdone": 1, 
		 "sigma_profile": "yes", 
		 "theory": "DFT", 
		 "functional": "B3LYP", 
		 "basiset": "6-31G**", 
		 "properties": { 
			 "R2extent": 4352.2838, 
			 "electric_dipole_moment_norm": 3.69320686261, 
			 "electric_quadrupole_moment_norm": 16.026494954, 
			 "total_energy": -683.7269847, 
			 "HOMO_LUMO_gap": 0.16264, 
			 "cosmo_polarized_energy": -21.29, 
			 "cosmo_cavitation_energy": 31.42, 
			 "cosmo_dispersion_energy": -23.03, 
			 "cosmo_repulsion_energy": 1.8, 
			 "cosmo_total_nonelectrostatic_energy": 10.19, 
			 "SMD_solvation_energy": 0.24 
		},
		"coords": [
			{
				"x": 0.8903127041,
				"y": 0.0279640132,
				"z": -1.8223896174,
				"element": "O" 
			},
			{
				"x": 0.7522355899,
				"y": 0.556280357,
				"z": -0.7373535452,
				"element": "C" 
			},
			{
				"x": 1.3447397311,
				"y": 0.0732152606,
				"z": 0.4350308751,
				"element": "N" 
			},
			{
				"x": 2.1249692083,
				"y": -1.0754599634,
				"z": 0.6091870008,
				"element": "C" 
			},
			{
				"x": 2.0115737945,
				"y": -2.0927518747,
				"z": -0.2446833439,
				"element": "N" 
			},
			{
				"x": 2.7833193183,
				"y": -3.1572171662,
				"z": 0.0015687909,
				"element": "C" 
			},
			{
				"x": 3.6428500304,
				"y": -3.2248303682,
				"z": 1.0956292732,
				"element": "C" 
			},
			{
				"x": 3.7440325374,
				"y": -2.208035981,
				"z": 1.965422566,
				"element": "N" 
			},
			{
				"x": 2.9960135604,
				"y": -1.1392831757,
				"z": 1.7180317099,
				"element": "C" 
			},
			{
				"x": -0.0846317766,
				"y": 1.8225664035,
				"z": -0.4950418116,
				"element": "C" 
			},
			{
				"x": -1.4119328346,
				"y": 1.4874152829,
				"z": 0.238566323,
				"element": "C" 
			},
			{
				"x": -2.4313498039,
				"y": 0.8239019961,
				"z": -0.7054912514,
				"element": "C" 
			},
			{
				"x": -2.7021945309,
				"y": 1.5972079635,
				"z": -1.9184392433,
				"element": "N" 
			},
			{
				"x": -1.4688699508,
				"y": 1.8943815668,
				"z": -2.6558826004,
				"element": "C" 
			},
			{
				"x": -0.3739554966,
				"y": 2.5747196216,
				"z": -1.8103926647,
				"element": "C" 
			},
			{
				"x": 1.2961631339,
				"y": 0.6826551512,
				"z": 1.2392076847,
				"element": "H" 
			},
			{
				"x": 2.7003969055,
				"y": -3.9880766054,
				"z": -0.6962516011,
				"element": "H" 
			},
			{
				"x": 4.2559795275,
				"y": -4.102994442,
				"z": 1.2809672295,
				"element": "H" 
			},
			{
				"x": 3.0788061135,
				"y": -0.3015882738,
				"z": 2.4110273878,
				"element": "H" 
			},
			{
				"x": 0.509244374,
				"y": 2.4773117335,
				"z": 0.1599004467,
				"element": "H" 
			},
			{
				"x": -1.8374779892,
				"y": 2.425557726,
				"z": 0.6199572898,
				"element": "H" 
			},
			{
				"x": -1.224578284,
				"y": 0.8479898443,
				"z": 1.1104398965,
				"element": "H" 
			},
			{
				"x": -3.3753955481,
				"y": 0.6559420077,
				"z": -0.1748927468,
				"element": "H" 
			},
			{
				"x": -2.0614193992,
				"y": -0.1625109934,
				"z": -1.0144117482,
				"element": "H" 
			},
			{
				"x": -3.1581611494,
				"y": 2.4708729583,
				"z": -1.6584133818,
				"element": "H" 
			},
			{
				"x": -1.0772645711,
				"y": 0.9523659656,
				"z": -3.0505990992,
				"element": "H" 
			},
			{
				"x": -1.7224314324,
				"y": 2.5275364295,
				"z": -3.5134136507,
				"element": "H" 
			},
			{
				"x": 0.5458106617,
				"y": 2.6696020295,
				"z": -2.3974322463,
				"element": "H" 
			},
			{
				"x": -0.6990844238,
				"y": 3.5915625331,
				"z": -1.550447922,
				"element": "H" 
			}
		],
		 "valence_orbital": [ 
			{
				"type": "occ",
				"energy": -0.30889,
				"method": "rhf"
			},
			{
				"type": "occ",
				"energy": -0.26842,
				"method": "rhf"
			},
			{
				"type": "occ",
				"energy": -0.24388,
				"method": "rhf"
			},
			{
				"type": "occ",
				"energy": -0.2397,
				"method": "rhf"
			},
			{
				"type": "occ",
				"energy": -0.21245,
				"method": "rhf"
			},
			{
				"type": "unocc",
				"energy": -0.04981,
				"method": "rhf"
			},
			{
				"type": "unocc",
				"energy": -0.02895,
				"method": "rhf"
			},
			{
				"type": "unocc",
				"energy": 0.02448,
				"method": "rhf"
			},
			{
				"type": "unocc",
				"energy": 0.0558,
				"method": "rhf"
			},
			{
				"type": "unocc",
				"energy": 0.08449,
				"method": "rhf"
			}
		],
		"cosmo_sigma_profile": { 
			"-0.025": 0.0,
			"-0.024": 0.0,
			"-0.023": 0.0,
			"-0.022": 0.0,
			"-0.021": 0.0,
			"-0.02": 0.0,
			"-0.019": 0.0,
			"-0.018": 0.0,
			"-0.017": 0.0,
			"-0.016": 0.54769989921,
			"-0.015": 1.26320288977,
			"-0.014": 1.53393314195,
			"-0.013": 1.65444779828,
			"-0.012": 1.84689603588,
			"-0.011": 1.38241758811,
			"-0.01": 1.43352347421,
			"-0.009": 3.49118022873,
			"-0.008": 5.52560071555,
			"-0.007": 8.53736320897,
			"-0.006": 10.0995995902,
			"-0.005": 9.24646621546,
			"-0.004": 13.801604795,
			"-0.003": 25.7986790342,
			"-0.002": 27.1417829987,
			"-0.001": 25.526618261,
			"0.0": 24.5939429505,
			"0.001": 14.2219439046,
			"0.002": 8.41130089604,
			"0.003": 8.39043173256,
			"0.004": 4.89014500107,
			"0.005": 3.89642377193,
			"0.006": 4.90303442122,
			"0.007": 4.05756590999,
			"0.008": 3.73426853748,
			"0.009": 4.22607453479,
			"0.01": 4.09271658677,
			"0.011": 3.63176754657,
			"0.012": 4.21735536536,
			"0.013": 4.05425431758,
			"0.014": 3.87886544252,
			"0.015": 2.49692332411,
			"0.016": 1.23223120577,
			"0.017": 1.76671955763,
			"0.018": 1.20103527718,
			"0.019": 0.480647335118,
			"0.02": 0.00669249801744,
			"0.021": 0.0,
			"0.022": 0.0,
			"0.023": 0.0,
			"0.024": 0.0,
			"0.025": 0.0
		}
	}
}
