{
	 "smiles": "COC1=CC=C(C=C1)P(Cl)C1=CC=C(OC)C=C1", 
	 "Tm": 336.15, 
	 "num_atms": 32, 
	 "gaussian": { 
		 "optdone": 1, 
		 "sigma_profile": "yes", 
		 "theory": "DFT", 
		 "functional": "B3LYP", 
		 "basiset": "6-31G**", 
		 "properties": { 
			 "R2extent": 8357.66, 
			 "electric_dipole_moment_norm": 5.4344003211, 
			 "electric_quadrupole_moment_norm": 17.1511814549, 
			 "total_energy": -1493.91804765, 
			 "HOMO_LUMO_gap": 0.16911, 
			 "cosmo_polarized_energy": -11.99, 
			 "cosmo_cavitation_energy": 38.89, 
			 "cosmo_dispersion_energy": -28.57, 
			 "cosmo_repulsion_energy": 2.35, 
			 "cosmo_total_nonelectrostatic_energy": 12.67, 
			 "SMD_solvation_energy": 7.73 
		},
		"coords": [
			{
				"x": 2.4187032783,
				"y": -4.4423971818,
				"z": -0.996274814,
				"element": "C" 
			},
			{
				"x": 2.2507835667,
				"y": -3.2696294907,
				"z": -0.2118448079,
				"element": "O" 
			},
			{
				"x": 1.5107110312,
				"y": -2.2494686492,
				"z": -0.721166488,
				"element": "C" 
			},
			{
				"x": 0.881700261,
				"y": -2.2682413745,
				"z": -1.9711615564,
				"element": "C" 
			},
			{
				"x": 0.1511909107,
				"y": -1.1514019849,
				"z": -2.3859825763,
				"element": "C" 
			},
			{
				"x": 0.0211980404,
				"y": -0.0181065658,
				"z": -1.5741545946,
				"element": "C" 
			},
			{
				"x": 0.6649306866,
				"y": -0.0175435551,
				"z": -0.3196158254,
				"element": "C" 
			},
			{
				"x": 1.3991045315,
				"y": -1.1130996824,
				"z": 0.1019562604,
				"element": "C" 
			},
			{
				"x": -0.9539552281,
				"y": 1.379623773,
				"z": -2.2473214123,
				"element": "P" 
			},
			{
				"x": 0.4852849299,
				"y": 2.9710429828,
				"z": -2.1636141897,
				"element": "Cl" 
			},
			{
				"x": -2.0202584276,
				"y": 1.8418693051,
				"z": -0.8159403433,
				"element": "C" 
			},
			{
				"x": -2.5075223852,
				"y": 3.1582295204,
				"z": -0.6900259458,
				"element": "C" 
			},
			{
				"x": -3.4343426474,
				"y": 3.4890938757,
				"z": 0.2860446746,
				"element": "C" 
			},
			{
				"x": -3.923670091,
				"y": 2.5048089772,
				"z": 1.1606161726,
				"element": "C" 
			},
			{
				"x": -4.8320244711,
				"y": 2.9315309504,
				"z": 2.0816245636,
				"element": "O" 
			},
			{
				"x": -5.3636512043,
				"y": 1.982374484,
				"z": 2.9932726505,
				"element": "C" 
			},
			{
				"x": -3.4658711915,
				"y": 1.1885856145,
				"z": 1.0410641828,
				"element": "C" 
			},
			{
				"x": -2.5229794135,
				"y": 0.8702792672,
				"z": 0.0591277231,
				"element": "C" 
			},
			{
				"x": 1.4577934585,
				"y": -4.9294410791,
				"z": -1.2045737376,
				"element": "H" 
			},
			{
				"x": 2.9249185926,
				"y": -4.2237044298,
				"z": -1.9446932706,
				"element": "H" 
			},
			{
				"x": 3.0407633052,
				"y": -5.1136798071,
				"z": -0.4028437251,
				"element": "H" 
			},
			{
				"x": 0.9571189236,
				"y": -3.1294039945,
				"z": -2.6240630908,
				"element": "H" 
			},
			{
				"x": -0.3249235884,
				"y": -1.1678314934,
				"z": -3.3630493897,
				"element": "H" 
			},
			{
				"x": 0.5896887406,
				"y": 0.8546534078,
				"z": 0.32240698,
				"element": "H" 
			},
			{
				"x": 1.9029752174,
				"y": -1.121607184,
				"z": 1.0630539746,
				"element": "H" 
			},
			{
				"x": -2.1391909567,
				"y": 3.9363649267,
				"z": -1.3515173721,
				"element": "H" 
			},
			{
				"x": -3.7984684073,
				"y": 4.5055247386,
				"z": 0.3947975902,
				"element": "H" 
			},
			{
				"x": -6.0603036954,
				"y": 2.5319254815,
				"z": 3.6279722584,
				"element": "H" 
			},
			{
				"x": -4.5786958615,
				"y": 1.538562464,
				"z": 3.6189285655,
				"element": "H" 
			},
			{
				"x": -5.9041934653,
				"y": 1.1808581892,
				"z": 2.4736856091,
				"element": "H" 
			},
			{
				"x": -3.8242244241,
				"y": 0.408597912,
				"z": 1.7024054208,
				"element": "H" 
			},
			{
				"x": -2.1770900157,
				"y": -0.1559693979,
				"z": -0.0112134864,
				"element": "H" 
			}
		],
		 "valence_orbital": [ 
			{
				"type": "occ",
				"energy": -0.26206,
				"method": "rhf"
			},
			{
				"type": "occ",
				"energy": -0.25454,
				"method": "rhf"
			},
			{
				"type": "occ",
				"energy": -0.24977,
				"method": "rhf"
			},
			{
				"type": "occ",
				"energy": -0.23146,
				"method": "rhf"
			},
			{
				"type": "occ",
				"energy": -0.21373,
				"method": "rhf"
			},
			{
				"type": "unocc",
				"energy": -0.04462,
				"method": "rhf"
			},
			{
				"type": "unocc",
				"energy": -0.01404,
				"method": "rhf"
			},
			{
				"type": "unocc",
				"energy": -0.00616,
				"method": "rhf"
			},
			{
				"type": "unocc",
				"energy": -0.00136,
				"method": "rhf"
			},
			{
				"type": "unocc",
				"energy": 0.02287,
				"method": "rhf"
			}
		],
		"cosmo_sigma_profile": { 
			"-0.025": 0.0,
			"-0.024": 0.0,
			"-0.023": 0.0,
			"-0.022": 0.0,
			"-0.021": 0.0,
			"-0.02": 0.0,
			"-0.019": 0.0,
			"-0.018": 0.0,
			"-0.017": 0.0,
			"-0.016": 0.0,
			"-0.015": 0.0,
			"-0.014": 0.0,
			"-0.013": 0.0,
			"-0.012": 0.0,
			"-0.011": 0.0,
			"-0.01": 0.0,
			"-0.009": 0.0,
			"-0.008": 0.0,
			"-0.007": 3.70076439986,
			"-0.006": 22.2187798856,
			"-0.005": 32.6486921109,
			"-0.004": 31.2324873424,
			"-0.003": 27.5921510856,
			"-0.002": 18.3051590767,
			"-0.001": 17.0350042788,
			"0.0": 15.8728830642,
			"0.001": 16.3184862967,
			"0.002": 22.5067607765,
			"0.003": 26.8761485553,
			"0.004": 28.5605460967,
			"0.005": 19.4805863939,
			"0.006": 12.6440655744,
			"0.007": 8.55706101635,
			"0.008": 3.94474181718,
			"0.009": 3.70803372177,
			"0.01": 2.55663983771,
			"0.011": 0.0476705833899,
			"0.012": 0.0,
			"0.013": 0.0,
			"0.014": 0.0,
			"0.015": 0.0,
			"0.016": 0.0,
			"0.017": 0.0,
			"0.018": 0.0,
			"0.019": 0.0,
			"0.02": 0.0,
			"0.021": 0.0,
			"0.022": 0.0,
			"0.023": 0.0,
			"0.024": 0.0,
			"0.025": 0.0
		}
	}
}
