{
	 "smiles": "BrC1=CC=C2N(C=CC2=C1)S(=O)(=O)C1=CC=CC=C1", 
	 "Tm": 364.65, 
	 "num_atms": 29, 
	 "gaussian": { 
		 "optdone": 1, 
		 "sigma_profile": "yes", 
		 "theory": "DFT", 
		 "functional": "B3LYP", 
		 "basiset": "6-31G**", 
		 "properties": { 
			 "R2extent": 8444.196, 
			 "electric_dipole_moment_norm": 4.88143915459, 
			 "electric_quadrupole_moment_norm": 19.6644902606, 
			 "total_energy": -3714.23175899, 
			 "HOMO_LUMO_gap": 0.17074, 
			 "cosmo_polarized_energy": -11.87, 
			 "cosmo_cavitation_energy": 37.0, 
			 "cosmo_dispersion_energy": -27.01, 
			 "cosmo_repulsion_energy": 2.02, 
			 "cosmo_total_nonelectrostatic_energy": 12.01, 
			 "SMD_solvation_energy": 4.38 
		},
		"coords": [
			{
				"x": -1.0801081948,
				"y": 0.1320573924,
				"z": -5.5248871988,
				"element": "Br" 
			},
			{
				"x": -0.3568113365,
				"y": -0.1881750212,
				"z": -3.780556084,
				"element": "C" 
			},
			{
				"x": 0.2831608677,
				"y": 0.8702499767,
				"z": -3.1143198078,
				"element": "C" 
			},
			{
				"x": 0.8268143287,
				"y": 0.6808752754,
				"z": -1.8472291333,
				"element": "C" 
			},
			{
				"x": 0.6988409521,
				"y": -0.584214149,
				"z": -1.2689795377,
				"element": "C" 
			},
			{
				"x": 1.1502363782,
				"y": -1.0876948208,
				"z": -0.0365432507,
				"element": "N" 
			},
			{
				"x": 0.7683707108,
				"y": -2.4345451139,
				"z": 0.0615281019,
				"element": "C" 
			},
			{
				"x": 0.1241106614,
				"y": -2.8096110444,
				"z": -1.0762295296,
				"element": "C" 
			},
			{
				"x": 0.0591976755,
				"y": -1.6578331252,
				"z": -1.9406216785,
				"element": "C" 
			},
			{
				"x": -0.4734436832,
				"y": -1.4526067372,
				"z": -3.222639806,
				"element": "C" 
			},
			{
				"x": 1.6476171436,
				"y": -0.17405986,
				"z": 1.3286080155,
				"element": "S" 
			},
			{
				"x": 2.3910861067,
				"y": 0.966490965,
				"z": 0.8022002293,
				"element": "O" 
			},
			{
				"x": 2.2373929838,
				"y": -1.1534690701,
				"z": 2.2366913608,
				"element": "O" 
			},
			{
				"x": 0.1189221017,
				"y": 0.421243795,
				"z": 2.0474385988,
				"element": "C" 
			},
			{
				"x": -0.5407216648,
				"y": -0.3756917404,
				"z": 2.9867056462,
				"element": "C" 
			},
			{
				"x": -1.7377831291,
				"y": 0.0836486911,
				"z": 3.5341045462,
				"element": "C" 
			},
			{
				"x": -2.258526464,
				"y": 1.3203992927,
				"z": 3.1444899821,
				"element": "C" 
			},
			{
				"x": -1.5820241036,
				"y": 2.109524268,
				"z": 2.2115901859,
				"element": "C" 
			},
			{
				"x": -0.3828412776,
				"y": 1.6643598539,
				"z": 1.6553727272,
				"element": "C" 
			},
			{
				"x": 0.3627025841,
				"y": 1.8363967937,
				"z": -3.5984678203,
				"element": "H" 
			},
			{
				"x": 1.3526286176,
				"y": 1.4814853751,
				"z": -1.3423344801,
				"element": "H" 
			},
			{
				"x": 1.0389260547,
				"y": -2.9962214133,
				"z": 0.9420572543,
				"element": "H" 
			},
			{
				"x": -0.2469334359,
				"y": -3.8011467828,
				"z": -1.2939067664,
				"element": "H" 
			},
			{
				"x": -0.961324985,
				"y": -2.256034203,
				"z": -3.7625778042,
				"element": "H" 
			},
			{
				"x": -0.1110924797,
				"y": -1.3230883381,
				"z": 3.2923646403,
				"element": "H" 
			},
			{
				"x": -2.2597229339,
				"y": -0.521245123,
				"z": 4.2690228835,
				"element": "H" 
			},
			{
				"x": -3.1908104788,
				"y": 1.6733135044,
				"z": 3.5751090725,
				"element": "H" 
			},
			{
				"x": -1.9835075094,
				"y": 3.0748648753,
				"z": 1.9196287436,
				"element": "H" 
			},
			{
				"x": 0.1651445093,
				"y": 2.2727264836,
				"z": 0.9454809093,
				"element": "H" 
			}
		],
		 "valence_orbital": [ 
			{
				"type": "occ",
				"energy": -0.28411,
				"method": "rhf"
			},
			{
				"type": "occ",
				"energy": -0.28306,
				"method": "rhf"
			},
			{
				"type": "occ",
				"energy": -0.28228,
				"method": "rhf"
			},
			{
				"type": "occ",
				"energy": -0.23239,
				"method": "rhf"
			},
			{
				"type": "occ",
				"energy": -0.2279,
				"method": "rhf"
			},
			{
				"type": "unocc",
				"energy": -0.05716,
				"method": "rhf"
			},
			{
				"type": "unocc",
				"energy": -0.03298,
				"method": "rhf"
			},
			{
				"type": "unocc",
				"energy": -0.02968,
				"method": "rhf"
			},
			{
				"type": "unocc",
				"energy": -0.00381,
				"method": "rhf"
			},
			{
				"type": "unocc",
				"energy": 0.00934,
				"method": "rhf"
			}
		],
		"cosmo_sigma_profile": { 
			"-0.025": 0.0,
			"-0.024": 0.0,
			"-0.023": 0.0,
			"-0.022": 0.0,
			"-0.021": 0.0,
			"-0.02": 0.0,
			"-0.019": 0.0,
			"-0.018": 0.0,
			"-0.017": 0.0,
			"-0.016": 0.0,
			"-0.015": 0.0,
			"-0.014": 0.0,
			"-0.013": 0.0,
			"-0.012": 0.0,
			"-0.011": 0.0,
			"-0.01": 0.0,
			"-0.009": 0.701495378591,
			"-0.008": 3.15399758242,
			"-0.007": 16.4625434068,
			"-0.006": 22.1222272679,
			"-0.005": 19.9933465999,
			"-0.004": 15.3162356892,
			"-0.003": 16.2010407235,
			"-0.002": 15.1193933148,
			"-0.001": 19.172438073,
			"0.0": 22.4019865299,
			"0.001": 25.58461978,
			"0.002": 37.192694774,
			"0.003": 34.2727075897,
			"0.004": 18.4860528671,
			"0.005": 12.3222816558,
			"0.006": 3.45633769107,
			"0.007": 2.60412229341,
			"0.008": 3.71822669236,
			"0.009": 6.93839476987,
			"0.01": 6.32923379988,
			"0.011": 0.582876003788,
			"0.012": 0.0,
			"0.013": 0.0,
			"0.014": 0.0,
			"0.015": 0.0,
			"0.016": 0.0,
			"0.017": 0.0,
			"0.018": 0.0,
			"0.019": 0.0,
			"0.02": 0.0,
			"0.021": 0.0,
			"0.022": 0.0,
			"0.023": 0.0,
			"0.024": 0.0,
			"0.025": 0.0
		}
	}
}
