{
	 "smiles": "CC(C)C1CCC(C)CC1OC(=O)C(C=CC1=CC=CC=C1)C(=O)C1=CC=CC=C1", 
	 "Tm": 377.15, 
	 "num_atms": 62, 
	 "gaussian": { 
		 "optdone": 1, 
		 "sigma_profile": "yes", 
		 "theory": "DFT", 
		 "functional": "B3LYP", 
		 "basiset": "6-31G**", 
		 "properties": { 
			 "R2extent": 14190.9009, 
			 "electric_dipole_moment_norm": 0.899130680157, 
			 "electric_quadrupole_moment_norm": 14.4197718619, 
			 "total_energy": -1273.85060514, 
			 "HOMO_LUMO_gap": 0.15394, 
			 "cosmo_polarized_energy": -12.84, 
			 "cosmo_cavitation_energy": 61.68, 
			 "cosmo_dispersion_energy": -38.34, 
			 "cosmo_repulsion_energy": 2.9, 
			 "cosmo_total_nonelectrostatic_energy": 26.24, 
			 "SMD_solvation_energy": 10.37 
		},
		"coords": [
			{
				"x": -3.0599126387,
				"y": -0.486854759,
				"z": 2.8542176396,
				"element": "C" 
			},
			{
				"x": -2.9797410449,
				"y": 0.6977902501,
				"z": 1.8781333617,
				"element": "C" 
			},
			{
				"x": -3.156426859,
				"y": 0.2171541549,
				"z": 0.4272981441,
				"element": "C" 
			},
			{
				"x": -1.7413028153,
				"y": 1.5996005302,
				"z": 2.1536200381,
				"element": "C" 
			},
			{
				"x": -1.7054154287,
				"y": 2.8852446338,
				"z": 1.2706733319,
				"element": "C" 
			},
			{
				"x": -0.454393324,
				"y": 2.9825127896,
				"z": 0.3889348623,
				"element": "C" 
			},
			{
				"x": 0.8388634703,
				"y": 2.9727580415,
				"z": 1.2284094956,
				"element": "C" 
			},
			{
				"x": 2.0777709789,
				"y": 2.7898245965,
				"z": 0.3419218447,
				"element": "C" 
			},
			{
				"x": 0.7686554199,
				"y": 1.9109524268,
				"z": 2.3683598567,
				"element": "C" 
			},
			{
				"x": -0.3713931363,
				"y": 0.8974917868,
				"z": 2.2281809496,
				"element": "C" 
			},
			{
				"x": -0.1517010378,
				"y": 0.0649279938,
				"z": 1.0342061292,
				"element": "O" 
			},
			{
				"x": 0.7112221215,
				"y": -0.953204351,
				"z": 1.1631918038,
				"element": "C" 
			},
			{
				"x": 1.3044566457,
				"y": -1.2337049156,
				"z": 2.1861959977,
				"element": "O" 
			},
			{
				"x": 0.8633886928,
				"y": -1.7626717268,
				"z": -0.1381155215,
				"element": "C" 
			},
			{
				"x": 0.8386735873,
				"y": -0.9131812886,
				"z": -1.3805104246,
				"element": "C" 
			},
			{
				"x": 1.9293185457,
				"y": -0.6879100659,
				"z": -2.1282530591,
				"element": "C" 
			},
			{
				"x": 2.0161907092,
				"y": 0.1064059722,
				"z": -3.3635444735,
				"element": "C" 
			},
			{
				"x": 3.2704022529,
				"y": 0.2658562532,
				"z": -3.9783185135,
				"element": "C" 
			},
			{
				"x": 3.4123018893,
				"y": 1.0085063388,
				"z": -5.1497745754,
				"element": "C" 
			},
			{
				"x": 2.2975907032,
				"y": 1.6090374186,
				"z": -5.7352976566,
				"element": "C" 
			},
			{
				"x": 1.0420165754,
				"y": 1.4580687934,
				"z": -5.1381304592,
				"element": "C" 
			},
			{
				"x": 0.9013475463,
				"y": 0.7169617929,
				"z": -3.968770988,
				"element": "C" 
			},
			{
				"x": -0.2597414237,
				"y": -2.8376237879,
				"z": -0.1915361781,
				"element": "C" 
			},
			{
				"x": -1.2834086022,
				"y": -2.6053516171,
				"z": -0.8149523736,
				"element": "O" 
			},
			{
				"x": -0.0547522553,
				"y": -4.146522601,
				"z": 0.4989472391,
				"element": "C" 
			},
			{
				"x": -0.9650756011,
				"y": -5.1788050152,
				"z": 0.2109011515,
				"element": "C" 
			},
			{
				"x": -0.8288535709,
				"y": -6.4254936701,
				"z": 0.8112727789,
				"element": "C" 
			},
			{
				"x": 0.2109560303,
				"y": -6.652907932,
				"z": 1.7188955942,
				"element": "C" 
			},
			{
				"x": 1.1093005956,
				"y": -5.6289087499,
				"z": 2.0234466467,
				"element": "C" 
			},
			{
				"x": 0.9851125145,
				"y": -4.3801932702,
				"z": 1.4139240967,
				"element": "C" 
			},
			{
				"x": -2.9683769249,
				"y": -0.1608347402,
				"z": 3.8970383866,
				"element": "H" 
			},
			{
				"x": -2.2731119953,
				"y": -1.2243225218,
				"z": 2.6618136792,
				"element": "H" 
			},
			{
				"x": -4.0188797763,
				"y": -1.0054955366,
				"z": 2.75155643,
				"element": "H" 
			},
			{
				"x": -3.8374591367,
				"y": 1.351451918,
				"z": 2.0984699149,
				"element": "H" 
			},
			{
				"x": -3.0787146267,
				"y": 1.0399361545,
				"z": -0.2907333385,
				"element": "H" 
			},
			{
				"x": -4.1521052716,
				"y": -0.2240532709,
				"z": 0.3049340973,
				"element": "H" 
			},
			{
				"x": -2.4235414853,
				"y": -0.5412333724,
				"z": 0.1482292369,
				"element": "H" 
			},
			{
				"x": -1.8750053295,
				"y": 1.934010345,
				"z": 3.1928476056,
				"element": "H" 
			},
			{
				"x": -1.7438194453,
				"y": 3.7691078659,
				"z": 1.9206120701,
				"element": "H" 
			},
			{
				"x": -2.6043918996,
				"y": 2.9358919266,
				"z": 0.6478626291,
				"element": "H" 
			},
			{
				"x": -0.4901035344,
				"y": 3.8982089091,
				"z": -0.2136536202,
				"element": "H" 
			},
			{
				"x": -0.4365154424,
				"y": 2.1435942357,
				"z": -0.3158213116,
				"element": "H" 
			},
			{
				"x": 0.9189817673,
				"y": 3.9577017248,
				"z": 1.7092623792,
				"element": "H" 
			},
			{
				"x": 3.0002484982,
				"y": 2.847854296,
				"z": 0.9305861129,
				"element": "H" 
			},
			{
				"x": 2.0599904515,
				"y": 1.8181197365,
				"z": -0.1634446885,
				"element": "H" 
			},
			{
				"x": 2.126660924,
				"y": 3.5639325137,
				"z": -0.4322374342,
				"element": "H" 
			},
			{
				"x": 0.6159996934,
				"y": 2.4090517158,
				"z": 3.333913134,
				"element": "H" 
			},
			{
				"x": 1.7138261914,
				"y": 1.3672638376,
				"z": 2.4567962208,
				"element": "H" 
			},
			{
				"x": -0.3491112778,
				"y": 0.2136068872,
				"z": 3.0791263235,
				"element": "H" 
			},
			{
				"x": 1.8293861235,
				"y": -2.263597482,
				"z": -0.0462557334,
				"element": "H" 
			},
			{
				"x": -0.1313643982,
				"y": -0.5092101591,
				"z": -1.6485482437,
				"element": "H" 
			},
			{
				"x": 2.8727506739,
				"y": -1.1325213929,
				"z": -1.8084915617,
				"element": "H" 
			},
			{
				"x": 4.1431925139,
				"y": -0.1996702119,
				"z": -3.5268338313,
				"element": "H" 
			},
			{
				"x": 4.3930539266,
				"y": 1.116947487,
				"z": -5.6042586555,
				"element": "H" 
			},
			{
				"x": 2.4027550291,
				"y": 2.187687542,
				"z": -6.6483900645,
				"element": "H" 
			},
			{
				"x": 0.1677759412,
				"y": 1.9195562675,
				"z": -5.588783126,
				"element": "H" 
			},
			{
				"x": -0.0829730002,
				"y": 0.6078234954,
				"z": -3.5243005243,
				"element": "H" 
			},
			{
				"x": -1.7673827117,
				"y": -4.9760551095,
				"z": -0.4903995968,
				"element": "H" 
			},
			{
				"x": -1.5302299659,
				"y": -7.2206688352,
				"z": 0.5760347629,
				"element": "H" 
			},
			{
				"x": 0.3173013602,
				"y": -7.6261182957,
				"z": 2.1899289447,
				"element": "H" 
			},
			{
				"x": 1.908097845,
				"y": -5.8002902178,
				"z": 2.7388307166,
				"element": "H" 
			},
			{
				"x": 1.6677147411,
				"y": -3.5826357353,
				"z": 1.6855823469,
				"element": "H" 
			}
		],
		 "valence_orbital": [ 
			{
				"type": "occ",
				"energy": -0.26198,
				"method": "rhf"
			},
			{
				"type": "occ",
				"energy": -0.26009,
				"method": "rhf"
			},
			{
				"type": "occ",
				"energy": -0.25644,
				"method": "rhf"
			},
			{
				"type": "occ",
				"energy": -0.24962,
				"method": "rhf"
			},
			{
				"type": "occ",
				"energy": -0.21839,
				"method": "rhf"
			},
			{
				"type": "unocc",
				"energy": -0.06445,
				"method": "rhf"
			},
			{
				"type": "unocc",
				"energy": -0.03399,
				"method": "rhf"
			},
			{
				"type": "unocc",
				"energy": -0.00958,
				"method": "rhf"
			},
			{
				"type": "unocc",
				"energy": 0.00093,
				"method": "rhf"
			},
			{
				"type": "unocc",
				"energy": 0.00584,
				"method": "rhf"
			}
		],
		"cosmo_sigma_profile": { 
			"-0.025": 0.0,
			"-0.024": 0.0,
			"-0.023": 0.0,
			"-0.022": 0.0,
			"-0.021": 0.0,
			"-0.02": 0.0,
			"-0.019": 0.0,
			"-0.018": 0.0,
			"-0.017": 0.0,
			"-0.016": 0.0,
			"-0.015": 0.0,
			"-0.014": 0.0,
			"-0.013": 0.0,
			"-0.012": 0.0,
			"-0.011": 0.0,
			"-0.01": 0.0,
			"-0.009": 0.0,
			"-0.008": 0.446921841954,
			"-0.007": 5.5488907842,
			"-0.006": 19.1044757247,
			"-0.005": 24.3432585189,
			"-0.004": 32.5049847874,
			"-0.003": 37.9863431735,
			"-0.002": 56.6883746756,
			"-0.001": 54.5414210784,
			"0.0": 53.8874426651,
			"0.001": 47.3858873606,
			"0.002": 43.2998617694,
			"0.003": 33.5563200099,
			"0.004": 28.5595770307,
			"0.005": 16.5436710774,
			"0.006": 9.99366948794,
			"0.007": 3.092395464,
			"0.008": 3.5542394667,
			"0.009": 3.39968789835,
			"0.01": 4.02442497761,
			"0.011": 5.23617853586,
			"0.012": 1.2152385726,
			"0.013": 0.0,
			"0.014": 0.0,
			"0.015": 0.0,
			"0.016": 0.0,
			"0.017": 0.0,
			"0.018": 0.0,
			"0.019": 0.0,
			"0.02": 0.0,
			"0.021": 0.0,
			"0.022": 0.0,
			"0.023": 0.0,
			"0.024": 0.0,
			"0.025": 0.0
		}
	}
}
