{
	 "smiles": "CCN(C1CCCCC1)C(=O)N1N=NN(C1=O)C1=CC=CC=C1Cl", 
	 "Tm": 352.15, 
	 "num_atms": 44, 
	 "gaussian": { 
		 "optdone": 1, 
		 "sigma_profile": "yes", 
		 "theory": "DFT", 
		 "functional": "B3LYP", 
		 "basiset": "6-31G**", 
		 "properties": { 
			 "R2extent": 12894.3431, 
			 "electric_dipole_moment_norm": 4.6343086917, 
			 "electric_quadrupole_moment_norm": 29.0212705073, 
			 "total_energy": -1506.11973363, 
			 "HOMO_LUMO_gap": 0.20531, 
			 "cosmo_polarized_energy": -18.15, 
			 "cosmo_cavitation_energy": 47.59, 
			 "cosmo_dispersion_energy": -32.49, 
			 "cosmo_repulsion_energy": 2.47, 
			 "cosmo_total_nonelectrostatic_energy": 17.58, 
			 "SMD_solvation_energy": 7.99 
		},
		"coords": [
			{
				"x": 2.3991872403,
				"y": -0.024731358,
				"z": -0.529446913,
				"element": "C" 
			},
			{
				"x": 1.5482775806,
				"y": 0.3307780641,
				"z": 0.6950707514,
				"element": "C" 
			},
			{
				"x": 0.37345827,
				"y": -0.5420888728,
				"z": 0.8835425568,
				"element": "N" 
			},
			{
				"x": 0.3971472413,
				"y": -1.5804773151,
				"z": 1.9397354907,
				"element": "C" 
			},
			{
				"x": 1.4521360231,
				"y": -2.6718145392,
				"z": 1.6748238813,
				"element": "C" 
			},
			{
				"x": 1.5233673967,
				"y": -3.6253983754,
				"z": 2.8770275968,
				"element": "C" 
			},
			{
				"x": 1.9942761754,
				"y": -2.9016382555,
				"z": 4.1686560455,
				"element": "C" 
			},
			{
				"x": 1.8486412889,
				"y": -1.3693232263,
				"z": 4.0697429321,
				"element": "C" 
			},
			{
				"x": 0.54448428,
				"y": -0.9635967924,
				"z": 3.3667354319,
				"element": "C" 
			},
			{
				"x": -0.7022345122,
				"y": -0.5359758537,
				"z": 0.0529541463,
				"element": "C" 
			},
			{
				"x": -1.5830502213,
				"y": -1.3709229422,
				"z": -0.0093327452,
				"element": "O" 
			},
			{
				"x": -0.7815998246,
				"y": 0.6276345056,
				"z": -0.822966968,
				"element": "N" 
			},
			{
				"x": -0.8596544294,
				"y": 1.9011598067,
				"z": -0.3151363844,
				"element": "N" 
			},
			{
				"x": -1.2260852299,
				"y": 2.6867941444,
				"z": -1.2406043433,
				"element": "N" 
			},
			{
				"x": -1.426743101,
				"y": 1.9566008815,
				"z": -2.3820424825,
				"element": "N" 
			},
			{
				"x": -1.1451673288,
				"y": 0.5974027649,
				"z": -2.1758962617,
				"element": "C" 
			},
			{
				"x": -1.1521708705,
				"y": -0.3177221774,
				"z": -2.9661566059,
				"element": "O" 
			},
			{
				"x": -1.7646641638,
				"y": 2.5902970201,
				"z": -3.605554501,
				"element": "C" 
			},
			{
				"x": -0.8977047846,
				"y": 3.5531498409,
				"z": -4.1318148035,
				"element": "C" 
			},
			{
				"x": -1.2018590728,
				"y": 4.1980250851,
				"z": -5.3270546761,
				"element": "C" 
			},
			{
				"x": -2.3724656103,
				"y": 3.8681492243,
				"z": -6.0125981061,
				"element": "C" 
			},
			{
				"x": -3.2458462403,
				"y": 2.9131484113,
				"z": -5.4951321432,
				"element": "C" 
			},
			{
				"x": -2.9529708674,
				"y": 2.2818762392,
				"z": -4.2850878862,
				"element": "C" 
			},
			{
				"x": -4.0980729058,
				"y": 1.145305424,
				"z": -3.6220961138,
				"element": "Cl" 
			},
			{
				"x": 3.2501630572,
				"y": 0.6612943396,
				"z": -0.5992475749,
				"element": "H" 
			},
			{
				"x": 2.7867290555,
				"y": -1.044980452,
				"z": -0.4676060707,
				"element": "H" 
			},
			{
				"x": 1.8226894983,
				"y": 0.0583228934,
				"z": -1.4548584538,
				"element": "H" 
			},
			{
				"x": 2.1490327827,
				"y": 0.2399952969,
				"z": 1.6025123953,
				"element": "H" 
			},
			{
				"x": 1.2226894896,
				"y": 1.3714873341,
				"z": 0.6438826287,
				"element": "H" 
			},
			{
				"x": -0.5807851826,
				"y": -2.0570867646,
				"z": 1.8661236137,
				"element": "H" 
			},
			{
				"x": 2.4392237686,
				"y": -2.2251558321,
				"z": 1.5039179105,
				"element": "H" 
			},
			{
				"x": 1.1853487975,
				"y": -3.2128415672,
				"z": 0.7609971063,
				"element": "H" 
			},
			{
				"x": 0.5269459718,
				"y": -4.0579966651,
				"z": 3.0331865888,
				"element": "H" 
			},
			{
				"x": 2.1846555764,
				"y": -4.4673224164,
				"z": 2.647767152,
				"element": "H" 
			},
			{
				"x": 1.4148007883,
				"y": -3.2687131537,
				"z": 5.0237947674,
				"element": "H" 
			},
			{
				"x": 3.0406041934,
				"y": -3.1482920024,
				"z": 4.3818775904,
				"element": "H" 
			},
			{
				"x": 1.8875645107,
				"y": -0.9219489785,
				"z": 5.069239074,
				"element": "H" 
			},
			{
				"x": 2.7059299273,
				"y": -0.955084176,
				"z": 3.5234794878,
				"element": "H" 
			},
			{
				"x": -0.3035604611,
				"y": -1.2979731025,
				"z": 3.9761904822,
				"element": "H" 
			},
			{
				"x": 0.4591615614,
				"y": 0.1265572706,
				"z": 3.3106824808,
				"element": "H" 
			},
			{
				"x": 0.01133875,
				"y": 3.7836006292,
				"z": -3.5866486003,
				"element": "H" 
			},
			{
				"x": -0.5235133751,
				"y": 4.9454641466,
				"z": -5.7253361395,
				"element": "H" 
			},
			{
				"x": -2.6131822922,
				"y": 4.3573168289,
				"z": -6.9513858848,
				"element": "H" 
			},
			{
				"x": -4.1637227513,
				"y": 2.659524667,
				"z": -6.0133364529,
				"element": "H" 
			}
		],
		 "valence_orbital": [ 
			{
				"type": "occ",
				"energy": -0.27756,
				"method": "rhf"
			},
			{
				"type": "occ",
				"energy": -0.26699,
				"method": "rhf"
			},
			{
				"type": "occ",
				"energy": -0.25768,
				"method": "rhf"
			},
			{
				"type": "occ",
				"energy": -0.24962,
				"method": "rhf"
			},
			{
				"type": "occ",
				"energy": -0.24652,
				"method": "rhf"
			},
			{
				"type": "unocc",
				"energy": -0.04121,
				"method": "rhf"
			},
			{
				"type": "unocc",
				"energy": -0.0314,
				"method": "rhf"
			},
			{
				"type": "unocc",
				"energy": -0.02398,
				"method": "rhf"
			},
			{
				"type": "unocc",
				"energy": 0.00904,
				"method": "rhf"
			},
			{
				"type": "unocc",
				"energy": 0.02441,
				"method": "rhf"
			}
		],
		"cosmo_sigma_profile": { 
			"-0.025": 0.0,
			"-0.024": 0.0,
			"-0.023": 0.0,
			"-0.022": 0.0,
			"-0.021": 0.0,
			"-0.02": 0.0,
			"-0.019": 0.0,
			"-0.018": 0.0,
			"-0.017": 0.0,
			"-0.016": 0.0,
			"-0.015": 0.0,
			"-0.014": 0.0,
			"-0.013": 0.0,
			"-0.012": 0.0,
			"-0.011": 0.0,
			"-0.01": 0.0,
			"-0.009": 0.0301769049436,
			"-0.008": 4.4081042994,
			"-0.007": 11.3058306881,
			"-0.006": 14.1813093089,
			"-0.005": 14.2702204777,
			"-0.004": 24.4886735274,
			"-0.003": 39.4410123328,
			"-0.002": 44.8900869516,
			"-0.001": 48.7370356934,
			"0.0": 43.8425289105,
			"0.001": 33.4004889658,
			"0.002": 21.5375929233,
			"0.003": 15.6829045022,
			"0.004": 10.3676984713,
			"0.005": 6.54259614035,
			"0.006": 5.96469659422,
			"0.007": 5.09192334597,
			"0.008": 5.13779846809,
			"0.009": 5.08689173185,
			"0.01": 4.80053785138,
			"0.011": 9.33105868026,
			"0.012": 9.38064710984,
			"0.013": 0.366062763686,
			"0.014": 0.0,
			"0.015": 0.0,
			"0.016": 0.0,
			"0.017": 0.0,
			"0.018": 0.0,
			"0.019": 0.0,
			"0.02": 0.0,
			"0.021": 0.0,
			"0.022": 0.0,
			"0.023": 0.0,
			"0.024": 0.0,
			"0.025": 0.0
		}
	}
}
