{
	 "smiles": "CC1=CN=CC(=N1)N1CCC(CC1)C(=O)OC1=C(F)C(F)=C(F)C(F)=C1F", 
	 "Tm": 367.65, 
	 "num_atms": 41, 
	 "gaussian": { 
		 "optdone": 1, 
		 "sigma_profile": "yes", 
		 "theory": "DFT", 
		 "functional": "B3LYP", 
		 "basiset": "6-31G**", 
		 "properties": { 
			 "R2extent": 16311.7658, 
			 "electric_dipole_moment_norm": 3.26024395713, 
			 "electric_quadrupole_moment_norm": 11.9330532095, 
			 "total_energy": -1470.0823162, 
			 "HOMO_LUMO_gap": 0.16888, 
			 "cosmo_polarized_energy": -12.48, 
			 "cosmo_cavitation_energy": 48.06, 
			 "cosmo_dispersion_energy": -32.68, 
			 "cosmo_repulsion_energy": 2.36, 
			 "cosmo_total_nonelectrostatic_energy": 17.74, 
			 "SMD_solvation_energy": 7.73 
		},
		"coords": [
			{
				"x": 2.4962804092,
				"y": 2.3726843392,
				"z": 5.2431219465,
				"element": "C" 
			},
			{
				"x": 2.8184006845,
				"y": 1.9973235066,
				"z": 3.8203020397,
				"element": "C" 
			},
			{
				"x": 3.7110895721,
				"y": 2.7387520053,
				"z": 3.0431336024,
				"element": "C" 
			},
			{
				"x": 3.9741228013,
				"y": 2.4096576688,
				"z": 1.7697796984,
				"element": "N" 
			},
			{
				"x": 3.3657330932,
				"y": 1.3421516317,
				"z": 1.2713426929,
				"element": "C" 
			},
			{
				"x": 2.4740038666,
				"y": 0.5581796886,
				"z": 2.0559529021,
				"element": "C" 
			},
			{
				"x": 2.2091852527,
				"y": 0.9102262773,
				"z": 3.3257069631,
				"element": "N" 
			},
			{
				"x": 1.8584855362,
				"y": -0.5667169223,
				"z": 1.559755433,
				"element": "N" 
			},
			{
				"x": 0.8048552206,
				"y": -1.2408017054,
				"z": 2.3208854698,
				"element": "C" 
			},
			{
				"x": -0.3560037725,
				"y": -1.6239976255,
				"z": 1.4002277475,
				"element": "C" 
			},
			{
				"x": 0.1144156614,
				"y": -2.6007037719,
				"z": 0.2748158622,
				"element": "C" 
			},
			{
				"x": 1.6297008495,
				"y": -2.475975282,
				"z": 0.0197618196,
				"element": "C" 
			},
			{
				"x": 2.1463783651,
				"y": -1.0472855465,
				"z": 0.2068465192,
				"element": "C" 
			},
			{
				"x": -0.6825222209,
				"y": -2.3371501421,
				"z": -0.98352941,
				"element": "C" 
			},
			{
				"x": -0.2806481385,
				"y": -1.913223516,
				"z": -2.0351928827,
				"element": "O" 
			},
			{
				"x": -2.0204244772,
				"y": -2.6331379858,
				"z": -0.757339965,
				"element": "O" 
			},
			{
				"x": -2.9112934535,
				"y": -2.2959008849,
				"z": -1.7535368534,
				"element": "C" 
			},
			{
				"x": -3.5153918647,
				"y": -3.2941987377,
				"z": -2.5153550972,
				"element": "C" 
			},
			{
				"x": -3.1829566221,
				"y": -4.5740636489,
				"z": -2.3247736261,
				"element": "F" 
			},
			{
				"x": -4.4708874366,
				"y": -2.9669901383,
				"z": -3.4759628003,
				"element": "C" 
			},
			{
				"x": -5.0544030006,
				"y": -3.9284479995,
				"z": -4.1976295742,
				"element": "F" 
			},
			{
				"x": -4.8126127523,
				"y": -1.6329220435,
				"z": -3.6882631541,
				"element": "C" 
			},
			{
				"x": -5.7257403553,
				"y": -1.3168161753,
				"z": -4.609370358,
				"element": "F" 
			},
			{
				"x": -4.2042788522,
				"y": -0.626750299,
				"z": -2.9381713986,
				"element": "C" 
			},
			{
				"x": -4.5342126181,
				"y": 0.6514248409,
				"z": -3.1435734795,
				"element": "F" 
			},
			{
				"x": -3.2579583385,
				"y": -0.9630775539,
				"z": -1.974924139,
				"element": "C" 
			},
			{
				"x": -2.6738545408,
				"y": -0.0009373931,
				"z": -1.2514105071,
				"element": "F" 
			},
			{
				"x": 2.7391302809,
				"y": 1.5477513898,
				"z": 5.9209453953,
				"element": "H" 
			},
			{
				"x": 1.4252796248,
				"y": 2.5738675828,
				"z": 5.3526353694,
				"element": "H" 
			},
			{
				"x": 3.0509852136,
				"y": 3.2597630238,
				"z": 5.5591780384,
				"element": "H" 
			},
			{
				"x": 4.2157908164,
				"y": 3.6137286224,
				"z": 3.445018488,
				"element": "H" 
			},
			{
				"x": 3.5700785741,
				"y": 1.1053870336,
				"z": 0.2317664685,
				"element": "H" 
			},
			{
				"x": 0.4707603655,
				"y": -0.5557018143,
				"z": 3.1000619639,
				"element": "H" 
			},
			{
				"x": 1.1975898956,
				"y": -2.1329780495,
				"z": 2.8322871596,
				"element": "H" 
			},
			{
				"x": -1.1620774717,
				"y": -2.0806463742,
				"z": 1.9808715784,
				"element": "H" 
			},
			{
				"x": -0.7649117084,
				"y": -0.7088389772,
				"z": 0.9574497315,
				"element": "H" 
			},
			{
				"x": -0.1185774297,
				"y": -3.6260023704,
				"z": 0.584763508,
				"element": "H" 
			},
			{
				"x": 2.16004874,
				"y": -3.1388790799,
				"z": 0.7109526587,
				"element": "H" 
			},
			{
				"x": 1.8683177192,
				"y": -2.8054784787,
				"z": -0.9944777115,
				"element": "H" 
			},
			{
				"x": 3.2298968248,
				"y": -1.0401772553,
				"z": 0.0415101484,
				"element": "H" 
			},
			{
				"x": 1.7004256862,
				"y": -0.3905978393,
				"z": -0.5554622476,
				"element": "H" 
			}
		],
		 "valence_orbital": [ 
			{
				"type": "occ",
				"energy": -0.27674,
				"method": "rhf"
			},
			{
				"type": "occ",
				"energy": -0.26895,
				"method": "rhf"
			},
			{
				"type": "occ",
				"energy": -0.26595,
				"method": "rhf"
			},
			{
				"type": "occ",
				"energy": -0.23589,
				"method": "rhf"
			},
			{
				"type": "occ",
				"energy": -0.20391,
				"method": "rhf"
			},
			{
				"type": "unocc",
				"energy": -0.03503,
				"method": "rhf"
			},
			{
				"type": "unocc",
				"energy": -0.0316,
				"method": "rhf"
			},
			{
				"type": "unocc",
				"energy": -0.02564,
				"method": "rhf"
			},
			{
				"type": "unocc",
				"energy": -0.01538,
				"method": "rhf"
			},
			{
				"type": "unocc",
				"energy": -0.00626,
				"method": "rhf"
			}
		],
		"cosmo_sigma_profile": { 
			"-0.025": 0.0,
			"-0.024": 0.0,
			"-0.023": 0.0,
			"-0.022": 0.0,
			"-0.021": 0.0,
			"-0.02": 0.0,
			"-0.019": 0.0,
			"-0.018": 0.0,
			"-0.017": 0.0,
			"-0.016": 0.0,
			"-0.015": 0.0,
			"-0.014": 0.0,
			"-0.013": 0.0,
			"-0.012": 0.0,
			"-0.011": 0.0,
			"-0.01": 0.0,
			"-0.009": 0.0,
			"-0.008": 0.0,
			"-0.007": 2.87979572122,
			"-0.006": 9.47956813551,
			"-0.005": 24.5007874061,
			"-0.004": 45.3028024253,
			"-0.003": 43.9338355032,
			"-0.002": 32.3608295756,
			"-0.001": 30.0854101259,
			"0.0": 27.0685286201,
			"0.001": 30.6409256198,
			"0.002": 57.4836664504,
			"0.003": 29.8907166946,
			"0.004": 8.53242879587,
			"0.005": 9.15559857332,
			"0.006": 6.04709810657,
			"0.007": 3.72139851411,
			"0.008": 5.0702850077,
			"0.009": 4.95592590149,
			"0.01": 5.50849607436,
			"0.011": 2.25896239132,
			"0.012": 1.20299263839,
			"0.013": 0.768327530139,
			"0.014": 1.34059029884,
			"0.015": 0.792604442144,
			"0.016": 0.616979313722,
			"0.017": 0.161048119395,
			"0.018": 0.0,
			"0.019": 0.0,
			"0.02": 0.0,
			"0.021": 0.0,
			"0.022": 0.0,
			"0.023": 0.0,
			"0.024": 0.0,
			"0.025": 0.0
		}
	}
}
