{
	 "smiles": "OC1=CC2=C(C=C1)C(=O)C(OC1=CC=CC=C1)=CO2", 
	 "Tm": 471.15, 
	 "num_atms": 29, 
	 "gaussian": { 
		 "optdone": 1, 
		 "sigma_profile": "yes", 
		 "theory": "DFT", 
		 "functional": "B3LYP", 
		 "basiset": "6-31G**", 
		 "properties": { 
			 "R2extent": 6209.6246, 
			 "electric_dipole_moment_norm": 3.44716990298, 
			 "electric_quadrupole_moment_norm": 16.5536034482, 
			 "total_energy": -878.487861736, 
			 "HOMO_LUMO_gap": 0.16082, 
			 "cosmo_polarized_energy": -17.87, 
			 "cosmo_cavitation_energy": 34.4, 
			 "cosmo_dispersion_energy": -25.03, 
			 "cosmo_repulsion_energy": 1.9, 
			 "cosmo_total_nonelectrostatic_energy": 11.27, 
			 "SMD_solvation_energy": 7.64 
		},
		"coords": [
			{
				"x": -5.4103380294,
				"y": -1.7400939006,
				"z": -0.7302974389,
				"element": "O" 
			},
			{
				"x": -4.1642125479,
				"y": -1.2972660545,
				"z": -0.4158522825,
				"element": "C" 
			},
			{
				"x": -3.7167494197,
				"y": -0.1445694896,
				"z": -1.0566942913,
				"element": "C" 
			},
			{
				"x": -2.4419002072,
				"y": 0.3334401288,
				"z": -0.7549883725,
				"element": "C" 
			},
			{
				"x": -1.6006460317,
				"y": -0.3094875294,
				"z": 0.1687362181,
				"element": "C" 
			},
			{
				"x": -2.0835589765,
				"y": -1.4685581025,
				"z": 0.8011451817,
				"element": "C" 
			},
			{
				"x": -3.343160657,
				"y": -1.9634319793,
				"z": 0.5183627858,
				"element": "C" 
			},
			{
				"x": -0.2613765528,
				"y": 0.2225242028,
				"z": 0.4838241572,
				"element": "C" 
			},
			{
				"x": 0.4999875785,
				"y": -0.284056922,
				"z": 1.3033228229,
				"element": "O" 
			},
			{
				"x": 0.068866367,
				"y": 1.4355227652,
				"z": -0.2867628683,
				"element": "C" 
			},
			{
				"x": 1.2320469033,
				"y": 2.117458067,
				"z": -0.0390512827,
				"element": "O" 
			},
			{
				"x": 2.4494735408,
				"y": 1.5052129996,
				"z": -0.2990272111,
				"element": "C" 
			},
			{
				"x": 3.5563617641,
				"y": 2.0557823351,
				"z": 0.3491908248,
				"element": "C" 
			},
			{
				"x": 4.8244993925,
				"y": 1.5380242219,
				"z": 0.0955329325,
				"element": "C" 
			},
			{
				"x": 4.9913155525,
				"y": 0.4760844414,
				"z": -0.7976200549,
				"element": "C" 
			},
			{
				"x": 3.8754109774,
				"y": -0.0611134789,
				"z": -1.440007999,
				"element": "C" 
			},
			{
				"x": 2.5990139651,
				"y": 0.4517371725,
				"z": -1.2009905046,
				"element": "C" 
			},
			{
				"x": -0.8123880603,
				"y": 1.9717083653,
				"z": -1.1602616283,
				"element": "C" 
			},
			{
				"x": -2.0476009116,
				"y": 1.4718078615,
				"z": -1.4076115962,
				"element": "O" 
			},
			{
				"x": -5.6053673522,
				"y": -2.5389507489,
				"z": -0.2229499646,
				"element": "H" 
			},
			{
				"x": -4.3455598737,
				"y": 0.370454038,
				"z": -1.7728755569,
				"element": "H" 
			},
			{
				"x": -1.4304502294,
				"y": -1.9570297024,
				"z": 1.5167268142,
				"element": "H" 
			},
			{
				"x": -3.7058980558,
				"y": -2.8624263311,
				"z": 1.0112496864,
				"element": "H" 
			},
			{
				"x": 3.4035908613,
				"y": 2.8753729448,
				"z": 1.0433278072,
				"element": "H" 
			},
			{
				"x": 5.6853305453,
				"y": 1.964728923,
				"z": 0.6023237579,
				"element": "H" 
			},
			{
				"x": 5.9805309507,
				"y": 0.0722477633,
				"z": -0.9898157721,
				"element": "H" 
			},
			{
				"x": 3.992962571,
				"y": -0.8851695881,
				"z": -2.1380401619,
				"element": "H" 
			},
			{
				"x": 1.7346468883,
				"y": 0.0402553518,
				"z": -1.7108034363,
				"element": "H" 
			},
			{
				"x": -0.6119309527,
				"y": 2.8733922455,
				"z": -1.7257925667,
				"element": "H" 
			}
		],
		 "valence_orbital": [ 
			{
				"type": "occ",
				"energy": -0.25286,
				"method": "rhf"
			},
			{
				"type": "occ",
				"energy": -0.24577,
				"method": "rhf"
			},
			{
				"type": "occ",
				"energy": -0.24339,
				"method": "rhf"
			},
			{
				"type": "occ",
				"energy": -0.2397,
				"method": "rhf"
			},
			{
				"type": "occ",
				"energy": -0.21646,
				"method": "rhf"
			},
			{
				"type": "unocc",
				"energy": -0.05564,
				"method": "rhf"
			},
			{
				"type": "unocc",
				"energy": -0.01867,
				"method": "rhf"
			},
			{
				"type": "unocc",
				"energy": -0.00336,
				"method": "rhf"
			},
			{
				"type": "unocc",
				"energy": 0.00462,
				"method": "rhf"
			},
			{
				"type": "unocc",
				"energy": 0.01704,
				"method": "rhf"
			}
		],
		"cosmo_sigma_profile": { 
			"-0.025": 0.0,
			"-0.024": 0.0,
			"-0.023": 0.0,
			"-0.022": 0.0,
			"-0.021": 0.0,
			"-0.02": 0.0,
			"-0.019": 0.195310740897,
			"-0.018": 1.30117259523,
			"-0.017": 1.05909063088,
			"-0.016": 1.28699988145,
			"-0.015": 1.16935359872,
			"-0.014": 0.94452740758,
			"-0.013": 1.23662916941,
			"-0.012": 0.874938780307,
			"-0.011": 1.10573112039,
			"-0.01": 3.25193799342,
			"-0.009": 2.9842053859,
			"-0.008": 3.5102670047,
			"-0.007": 5.25872572623,
			"-0.006": 13.8243882831,
			"-0.005": 18.2309263208,
			"-0.004": 18.3257395162,
			"-0.003": 17.5549528937,
			"-0.002": 17.5167798201,
			"-0.001": 15.8649320967,
			"0.0": 18.493435216,
			"0.001": 21.8292136097,
			"0.002": 24.8015924305,
			"0.003": 17.7864251848,
			"0.004": 13.7816985042,
			"0.005": 13.936139219,
			"0.006": 11.0064337613,
			"0.007": 6.25139144241,
			"0.008": 3.67551922792,
			"0.009": 3.84491527526,
			"0.01": 4.50477447588,
			"0.011": 3.11493571827,
			"0.012": 3.6286025037,
			"0.013": 4.55588785869,
			"0.014": 0.255896345624,
			"0.015": 0.0,
			"0.016": 0.0,
			"0.017": 0.0,
			"0.018": 0.0,
			"0.019": 0.0,
			"0.02": 0.0,
			"0.021": 0.0,
			"0.022": 0.0,
			"0.023": 0.0,
			"0.024": 0.0,
			"0.025": 0.0
		}
	}
}
