{
	 "smiles": "CC(C)CNC1=C(N)N(CC(C)C)C(=O)NC1=O", 
	 "Tm": 471.15, 
	 "num_atms": 40, 
	 "gaussian": { 
		 "optdone": 1, 
		 "sigma_profile": "yes", 
		 "theory": "DFT", 
		 "functional": "B3LYP", 
		 "basiset": "6-31G**", 
		 "properties": { 
			 "R2extent": 5395.4006, 
			 "electric_dipole_moment_norm": 4.83376866948, 
			 "electric_quadrupole_moment_norm": 12.0298632158, 
			 "total_energy": -840.049230071, 
			 "HOMO_LUMO_gap": 0.18435, 
			 "cosmo_polarized_energy": -17.69, 
			 "cosmo_cavitation_energy": 39.04, 
			 "cosmo_dispersion_energy": -26.91, 
			 "cosmo_repulsion_energy": 2.08, 
			 "cosmo_total_nonelectrostatic_energy": 14.21, 
			 "SMD_solvation_energy": 6.82 
		},
		"coords": [
			{
				"x": 1.8114051625,
				"y": -2.3302694283,
				"z": 0.5663323095,
				"element": "C" 
			},
			{
				"x": 1.9537161897,
				"y": -2.0881519815,
				"z": 2.0765981586,
				"element": "C" 
			},
			{
				"x": 1.0068770321,
				"y": -2.999691711,
				"z": 2.872404869,
				"element": "C" 
			},
			{
				"x": 1.8154352783,
				"y": -0.6047663893,
				"z": 2.4949572287,
				"element": "C" 
			},
			{
				"x": 0.4826478023,
				"y": 0.0365272869,
				"z": 2.4558043879,
				"element": "N" 
			},
			{
				"x": -0.0529740145,
				"y": 0.4456864406,
				"z": 1.2040639408,
				"element": "C" 
			},
			{
				"x": 0.2869351147,
				"y": 1.691360319,
				"z": 0.7137247181,
				"element": "C" 
			},
			{
				"x": 1.180889086,
				"y": 2.4620483796,
				"z": 1.4185446655,
				"element": "N" 
			},
			{
				"x": -0.2080970362,
				"y": 2.1690523123,
				"z": -0.4969375249,
				"element": "N" 
			},
			{
				"x": 0.2225983825,
				"y": 3.4426525096,
				"z": -1.1109959249,
				"element": "C" 
			},
			{
				"x": 1.4600880973,
				"y": 3.3764277353,
				"z": -2.0369436537,
				"element": "C" 
			},
			{
				"x": 1.2905625211,
				"y": 2.3492489703,
				"z": -3.1660067281,
				"element": "C" 
			},
			{
				"x": 2.790287526,
				"y": 3.1700366638,
				"z": -1.2981563962,
				"element": "C" 
			},
			{
				"x": -1.2327915767,
				"y": 1.4818197144,
				"z": -1.1742090821,
				"element": "C" 
			},
			{
				"x": -1.755946019,
				"y": 1.9119231678,
				"z": -2.1929964221,
				"element": "O" 
			},
			{
				"x": -1.6033934938,
				"y": 0.2872980532,
				"z": -0.6008484963,
				"element": "N" 
			},
			{
				"x": -1.0851758458,
				"y": -0.3186886911,
				"z": 0.5587816653,
				"element": "C" 
			},
			{
				"x": -1.5484824221,
				"y": -1.3905239459,
				"z": 0.9502975282,
				"element": "O" 
			},
			{
				"x": 0.7754882201,
				"y": -2.2054083025,
				"z": 0.2426575529,
				"element": "H" 
			},
			{
				"x": 2.4445281382,
				"y": -1.648317295,
				"z": -0.0129366094,
				"element": "H" 
			},
			{
				"x": 2.1105968677,
				"y": -3.3541447824,
				"z": 0.3152820743,
				"element": "H" 
			},
			{
				"x": 2.9865219541,
				"y": -2.3496486666,
				"z": 2.3556245454,
				"element": "H" 
			},
			{
				"x": -0.0349860521,
				"y": -2.8124087698,
				"z": 2.5925790329,
				"element": "H" 
			},
			{
				"x": 1.1141997674,
				"y": -2.8489207371,
				"z": 3.953617171,
				"element": "H" 
			},
			{
				"x": 1.2177465667,
				"y": -4.0539269705,
				"z": 2.664008096,
				"element": "H" 
			},
			{
				"x": 2.1642698354,
				"y": -0.5187435324,
				"z": 3.5330355337,
				"element": "H" 
			},
			{
				"x": 2.48995365,
				"y": 0.0083310904,
				"z": 1.8861888761,
				"element": "H" 
			},
			{
				"x": -0.2025897671,
				"y": -0.5373138591,
				"z": 2.9385722104,
				"element": "H" 
			},
			{
				"x": 1.2340660891,
				"y": 2.1381306983,
				"z": 2.3813742952,
				"element": "H" 
			},
			{
				"x": 1.1251209256,
				"y": 3.4631952171,
				"z": 1.3088023378,
				"element": "H" 
			},
			{
				"x": -0.6359378969,
				"y": 3.7752996488,
				"z": -1.6946513417,
				"element": "H" 
			},
			{
				"x": 0.380309051,
				"y": 4.1846855857,
				"z": -0.3214480794,
				"element": "H" 
			},
			{
				"x": 1.4918835516,
				"y": 4.3757277529,
				"z": -2.496625895,
				"element": "H" 
			},
			{
				"x": 1.2972806957,
				"y": 1.3273549793,
				"z": -2.7708027851,
				"element": "H" 
			},
			{
				"x": 2.1189427562,
				"y": 2.4302725538,
				"z": -3.8772782909,
				"element": "H" 
			},
			{
				"x": 0.3505675426,
				"y": 2.4898677503,
				"z": -3.7043222502,
				"element": "H" 
			},
			{
				"x": 2.9545660511,
				"y": 3.9339478417,
				"z": -0.5301185209,
				"element": "H" 
			},
			{
				"x": 2.8347524519,
				"y": 2.193214183,
				"z": -0.8078934542,
				"element": "H" 
			},
			{
				"x": 3.6247441056,
				"y": 3.2274940658,
				"z": -2.0049855398,
				"element": "H" 
			},
			{
				"x": -2.3455062882,
				"y": -0.2097778576,
				"z": -1.0771942023,
				"element": "H" 
			}
		],
		 "valence_orbital": [ 
			{
				"type": "occ",
				"energy": -0.27941,
				"method": "rhf"
			},
			{
				"type": "occ",
				"energy": -0.27362,
				"method": "rhf"
			},
			{
				"type": "occ",
				"energy": -0.25832,
				"method": "rhf"
			},
			{
				"type": "occ",
				"energy": -0.25148,
				"method": "rhf"
			},
			{
				"type": "occ",
				"energy": -0.19584,
				"method": "rhf"
			},
			{
				"type": "unocc",
				"energy": -0.01149,
				"method": "rhf"
			},
			{
				"type": "unocc",
				"energy": 0.01954,
				"method": "rhf"
			},
			{
				"type": "unocc",
				"energy": 0.04887,
				"method": "rhf"
			},
			{
				"type": "unocc",
				"energy": 0.08267,
				"method": "rhf"
			},
			{
				"type": "unocc",
				"energy": 0.09179,
				"method": "rhf"
			}
		],
		"cosmo_sigma_profile": { 
			"-0.025": 0.0,
			"-0.024": 0.0,
			"-0.023": 0.0,
			"-0.022": 0.0,
			"-0.021": 0.0,
			"-0.02": 0.0,
			"-0.019": 0.0,
			"-0.018": 0.0,
			"-0.017": 0.0,
			"-0.016": 0.0,
			"-0.015": 1.07102235627,
			"-0.014": 1.97596761034,
			"-0.013": 2.31268944741,
			"-0.012": 1.68003390376,
			"-0.011": 3.43152480055,
			"-0.01": 3.11318681171,
			"-0.009": 3.51721287898,
			"-0.008": 3.18293315584,
			"-0.007": 4.14364908291,
			"-0.006": 4.5136245353,
			"-0.005": 4.90126849487,
			"-0.004": 9.83607757221,
			"-0.003": 26.7501790177,
			"-0.002": 42.9472174723,
			"-0.001": 38.5886317011,
			"0.0": 35.8732436446,
			"0.001": 34.5904366973,
			"0.002": 23.4704206626,
			"0.003": 8.8498044205,
			"0.004": 5.57626138557,
			"0.005": 4.45630236698,
			"0.006": 3.99795781942,
			"0.007": 4.33196035147,
			"0.008": 4.36155184474,
			"0.009": 3.89108048506,
			"0.01": 3.7577807759,
			"0.011": 2.93429529541,
			"0.012": 4.25795166185,
			"0.013": 6.06773119495,
			"0.014": 3.91269878449,
			"0.015": 0.796656895953,
			"0.016": 0.0,
			"0.017": 0.0,
			"0.018": 0.0,
			"0.019": 0.0,
			"0.02": 0.0,
			"0.021": 0.0,
			"0.022": 0.0,
			"0.023": 0.0,
			"0.024": 0.0,
			"0.025": 0.0
		}
	}
}
