{
	 "smiles": "OC(=O)C1=CC=CC(=C1)C1=CC=CO1", 
	 "Tm": 431.15, 
	 "num_atms": 22, 
	 "gaussian": { 
		 "optdone": 1, 
		 "sigma_profile": "yes", 
		 "theory": "DFT", 
		 "functional": "B3LYP", 
		 "basiset": "6-31G**", 
		 "properties": { 
			 "R2extent": 3762.2927, 
			 "electric_dipole_moment_norm": 5.23311847563, 
			 "electric_quadrupole_moment_norm": 19.9048397871, 
			 "total_energy": -649.651088908, 
			 "HOMO_LUMO_gap": 0.16618, 
			 "cosmo_polarized_energy": -14.98, 
			 "cosmo_cavitation_energy": 27.23, 
			 "cosmo_dispersion_energy": -20.01, 
			 "cosmo_repulsion_energy": 1.54, 
			 "cosmo_total_nonelectrostatic_energy": 8.75, 
			 "SMD_solvation_energy": 6.66 
		},
		"coords": [
			{
				"x": -2.7225025236,
				"y": 2.1631925851,
				"z": 2.4470766363,
				"element": "O" 
			},
			{
				"x": -1.3639950931,
				"y": 2.1563894399,
				"z": 2.53409437,
				"element": "C" 
			},
			{
				"x": -0.8130418328,
				"y": 2.7530480621,
				"z": 3.4284880465,
				"element": "O" 
			},
			{
				"x": -0.6263898518,
				"y": 1.3832493197,
				"z": 1.4808781352,
				"element": "C" 
			},
			{
				"x": 0.6770366068,
				"y": 0.9602518598,
				"z": 1.7765096706,
				"element": "C" 
			},
			{
				"x": 1.397356869,
				"y": 0.2388427155,
				"z": 0.8283858645,
				"element": "C" 
			},
			{
				"x": 0.8418397686,
				"y": -0.0465672528,
				"z": -0.4179886163,
				"element": "C" 
			},
			{
				"x": -0.4537579444,
				"y": 0.3935063453,
				"z": -0.7420450717,
				"element": "C" 
			},
			{
				"x": -1.1793303343,
				"y": 1.1076620959,
				"z": 0.22676624,
				"element": "C" 
			},
			{
				"x": -1.0325471718,
				"y": 0.1230451107,
				"z": -2.0525401716,
				"element": "C" 
			},
			{
				"x": -2.2238402921,
				"y": 0.4489233061,
				"z": -2.6509627064,
				"element": "C" 
			},
			{
				"x": -2.1948453084,
				"y": -0.1135586826,
				"z": -3.9642281597,
				"element": "C" 
			},
			{
				"x": -0.9922529756,
				"y": -0.7426483754,
				"z": -4.0790167733,
				"element": "C" 
			},
			{
				"x": -0.2747584651,
				"y": -0.6092829314,
				"z": -2.930013717,
				"element": "O" 
			},
			{
				"x": -3.0150535766,
				"y": 1.5058146012,
				"z": 1.8007035114,
				"element": "H" 
			},
			{
				"x": 1.096356908,
				"y": 1.2045168046,
				"z": 2.7460777503,
				"element": "H" 
			},
			{
				"x": 2.4026175553,
				"y": -0.1022541348,
				"z": 1.0569314059,
				"element": "H" 
			},
			{
				"x": 1.4097659738,
				"y": -0.60410026,
				"z": -1.1542544885,
				"element": "H" 
			},
			{
				"x": -2.1667128455,
				"y": 1.48257253,
				"z": -0.0296207675,
				"element": "H" 
			},
			{
				"x": -3.0272755861,
				"y": 1.0250796701,
				"z": -2.215547137,
				"element": "H" 
			},
			{
				"x": -2.9658972733,
				"y": -0.054682637,
				"z": -4.7185823157,
				"element": "H" 
			},
			{
				"x": -0.5161726069,
				"y": -1.3029001722,
				"z": -4.8685117059,
				"element": "H" 
			}
		],
		 "valence_orbital": [ 
			{
				"type": "occ",
				"energy": -0.29847,
				"method": "rhf"
			},
			{
				"type": "occ",
				"energy": -0.28804,
				"method": "rhf"
			},
			{
				"type": "occ",
				"energy": -0.27657,
				"method": "rhf"
			},
			{
				"type": "occ",
				"energy": -0.26829,
				"method": "rhf"
			},
			{
				"type": "occ",
				"energy": -0.21973,
				"method": "rhf"
			},
			{
				"type": "unocc",
				"energy": -0.05355,
				"method": "rhf"
			},
			{
				"type": "unocc",
				"energy": -0.04339,
				"method": "rhf"
			},
			{
				"type": "unocc",
				"energy": 0.01937,
				"method": "rhf"
			},
			{
				"type": "unocc",
				"energy": 0.04812,
				"method": "rhf"
			},
			{
				"type": "unocc",
				"energy": 0.05816,
				"method": "rhf"
			}
		],
		"cosmo_sigma_profile": { 
			"-0.025": 0.0,
			"-0.024": 0.0,
			"-0.023": 0.0,
			"-0.022": 0.0,
			"-0.021": 0.0,
			"-0.02": 0.0,
			"-0.019": 0.134158612695,
			"-0.018": 0.81500342558,
			"-0.017": 1.13489170614,
			"-0.016": 0.873284445853,
			"-0.015": 1.16527356061,
			"-0.014": 0.670010561854,
			"-0.013": 0.914991954779,
			"-0.012": 1.31511418243,
			"-0.011": 1.2749707867,
			"-0.01": 1.52930393068,
			"-0.009": 3.67412526416,
			"-0.008": 4.99368416031,
			"-0.007": 7.67429884412,
			"-0.006": 11.280138109,
			"-0.005": 11.3174852954,
			"-0.004": 12.3830214721,
			"-0.003": 11.7699481073,
			"-0.002": 10.6772607439,
			"-0.001": 11.4264578674,
			"0.0": 11.5472543483,
			"0.001": 17.5454982122,
			"0.002": 23.066074045,
			"0.003": 22.2043323083,
			"0.004": 12.3810738649,
			"0.005": 9.12220072781,
			"0.006": 3.44223975792,
			"0.007": 2.91837132958,
			"0.008": 2.53126241217,
			"0.009": 3.26746615372,
			"0.01": 5.0734786675,
			"0.011": 5.01530573673,
			"0.012": 5.01895179368,
			"0.013": 1.32820811744,
			"0.014": 0.0378562727964,
			"0.015": 0.0,
			"0.016": 0.0,
			"0.017": 0.0,
			"0.018": 0.0,
			"0.019": 0.0,
			"0.02": 0.0,
			"0.021": 0.0,
			"0.022": 0.0,
			"0.023": 0.0,
			"0.024": 0.0,
			"0.025": 0.0
		}
	}
}
