{
	 "smiles": "CC(C)(C)C1=CN=C(S)O1", 
	 "Tm": 405.15, 
	 "num_atms": 21, 
	 "gaussian": { 
		 "optdone": 1, 
		 "sigma_profile": "yes", 
		 "theory": "DFT", 
		 "functional": "B3LYP", 
		 "basiset": "6-31G**", 
		 "properties": { 
			 "R2extent": 2524.5856, 
			 "electric_dipole_moment_norm": 1.5744623495, 
			 "electric_quadrupole_moment_norm": 3.52076760949, 
			 "total_energy": -801.52833341, 
			 "HOMO_LUMO_gap": 0.22477, 
			 "cosmo_polarized_energy": -6.25, 
			 "cosmo_cavitation_energy": 25.7, 
			 "cosmo_dispersion_energy": -18.74, 
			 "cosmo_repulsion_energy": 1.48, 
			 "cosmo_total_nonelectrostatic_energy": 8.44, 
			 "SMD_solvation_energy": 2.87 
		},
		"coords": [
			{
				"x": -1.4817884599,
				"y": -1.6832017995,
				"z": 0.5770931143,
				"element": "C" 
			},
			{
				"x": -0.1912498469,
				"y": -1.2780469967,
				"z": -0.1736193592,
				"element": "C" 
			},
			{
				"x": 1.0211829732,
				"y": -1.4154919787,
				"z": 0.7659767719,
				"element": "C" 
			},
			{
				"x": -0.002714568,
				"y": -2.1935173146,
				"z": -1.4062890887,
				"element": "C" 
			},
			{
				"x": -0.2963728254,
				"y": 0.153318394,
				"z": -0.6202895911,
				"element": "C" 
			},
			{
				"x": 0.3926061326,
				"y": 1.3029619031,
				"z": -0.4022252695,
				"element": "C" 
			},
			{
				"x": -0.1870724588,
				"y": 2.3594889146,
				"z": -1.1065087201,
				"element": "N" 
			},
			{
				"x": -1.1889079013,
				"y": 1.8058905415,
				"z": -1.711188509,
				"element": "C" 
			},
			{
				"x": -2.3823963438,
				"y": 2.5314437219,
				"z": -2.7880696897,
				"element": "S" 
			},
			{
				"x": -1.3384194707,
				"y": 0.47822202,
				"z": -1.4810933058,
				"element": "O" 
			},
			{
				"x": -2.3607653469,
				"y": -1.5734623033,
				"z": -0.0644259365,
				"element": "H" 
			},
			{
				"x": -1.4202195012,
				"y": -2.7291245706,
				"z": 0.896383952,
				"element": "H" 
			},
			{
				"x": -1.6300528021,
				"y": -1.0620502428,
				"z": 1.4661151987,
				"element": "H" 
			},
			{
				"x": 0.9125208564,
				"y": -0.7822394418,
				"z": 1.6523835785,
				"element": "H" 
			},
			{
				"x": 1.1151872906,
				"y": -2.4524861836,
				"z": 1.1030093499,
				"element": "H" 
			},
			{
				"x": 1.9517858347,
				"y": -1.140861614,
				"z": 0.25894761,
				"element": "H" 
			},
			{
				"x": 0.0627462209,
				"y": -3.2407713061,
				"z": -1.0922202769,
				"element": "H" 
			},
			{
				"x": -0.8428676854,
				"y": -2.0971298807,
				"z": -2.0998486894,
				"element": "H" 
			},
			{
				"x": 0.9149350074,
				"y": -1.9401228007,
				"z": -1.9465493486,
				"element": "H" 
			},
			{
				"x": 1.2677524386,
				"y": 1.4572017016,
				"z": 0.2108634508,
				"element": "H" 
			},
			{
				"x": -1.8317895441,
				"y": 3.7557792366,
				"z": -2.6942452417,
				"element": "H" 
			}
		],
		 "valence_orbital": [ 
			{
				"type": "occ",
				"energy": -0.33693,
				"method": "rhf"
			},
			{
				"type": "occ",
				"energy": -0.32126,
				"method": "rhf"
			},
			{
				"type": "occ",
				"energy": -0.29435,
				"method": "rhf"
			},
			{
				"type": "occ",
				"energy": -0.28752,
				"method": "rhf"
			},
			{
				"type": "occ",
				"energy": -0.21901,
				"method": "rhf"
			},
			{
				"type": "unocc",
				"energy": 0.00576,
				"method": "rhf"
			},
			{
				"type": "unocc",
				"energy": 0.00912,
				"method": "rhf"
			},
			{
				"type": "unocc",
				"energy": 0.05856,
				"method": "rhf"
			},
			{
				"type": "unocc",
				"energy": 0.06613,
				"method": "rhf"
			},
			{
				"type": "unocc",
				"energy": 0.08044,
				"method": "rhf"
			}
		],
		"cosmo_sigma_profile": { 
			"-0.025": 0.0,
			"-0.024": 0.0,
			"-0.023": 0.0,
			"-0.022": 0.0,
			"-0.021": 0.0,
			"-0.02": 0.0,
			"-0.019": 0.0,
			"-0.018": 0.0,
			"-0.017": 0.0,
			"-0.016": 0.0,
			"-0.015": 0.0,
			"-0.014": 0.0,
			"-0.013": 0.160651725894,
			"-0.012": 1.48719900533,
			"-0.011": 1.71393628407,
			"-0.01": 0.711162162588,
			"-0.009": 1.40454856049,
			"-0.008": 1.58028480485,
			"-0.007": 2.95096020018,
			"-0.006": 2.24937969418,
			"-0.005": 2.5862342078,
			"-0.004": 7.07331095473,
			"-0.003": 25.0479035646,
			"-0.002": 22.4238600113,
			"-0.001": 22.5114895103,
			"0.0": 30.2490662591,
			"0.001": 30.4724112939,
			"0.002": 12.6876488931,
			"0.003": 10.0104818538,
			"0.004": 8.02890058002,
			"0.005": 6.01789606774,
			"0.006": 3.70501160135,
			"0.007": 2.61628244811,
			"0.008": 1.65834209037,
			"0.009": 1.01348110111,
			"0.01": 1.20853507474,
			"0.011": 0.412941075476,
			"0.012": 1.2288435178,
			"0.013": 1.17209550876,
			"0.014": 1.01476410771,
			"0.015": 0.694871289735,
			"0.016": 0.389887204799,
			"0.017": 0.0,
			"0.018": 0.0,
			"0.019": 0.0,
			"0.02": 0.0,
			"0.021": 0.0,
			"0.022": 0.0,
			"0.023": 0.0,
			"0.024": 0.0,
			"0.025": 0.0
		}
	}
}
