{
	 "smiles": "CC1=C(C=C(O1)C(O)=O)S(=O)(=O)N1CCCC1", 
	 "Tm": 493.15, 
	 "num_atms": 30, 
	 "gaussian": { 
		 "optdone": 1, 
		 "sigma_profile": "yes", 
		 "theory": "DFT", 
		 "functional": "B3LYP", 
		 "basiset": "6-31G**", 
		 "properties": { 
			 "R2extent": 5323.9601, 
			 "electric_dipole_moment_norm": 4.40219416882, 
			 "electric_quadrupole_moment_norm": 31.2333679026, 
			 "total_energy": -1217.87070394, 
			 "HOMO_LUMO_gap": 0.19269, 
			 "cosmo_polarized_energy": -23.95, 
			 "cosmo_cavitation_energy": 34.84, 
			 "cosmo_dispersion_energy": -24.92, 
			 "cosmo_repulsion_energy": 1.92, 
			 "cosmo_total_nonelectrostatic_energy": 11.85, 
			 "SMD_solvation_energy": 5.68 
		},
		"coords": [
			{
				"x": -1.8228637176,
				"y": -2.5637860739,
				"z": -1.2775840746,
				"element": "C" 
			},
			{
				"x": -1.7923924326,
				"y": -1.0850723707,
				"z": -1.4294993424,
				"element": "C" 
			},
			{
				"x": -0.7935365135,
				"y": -0.1552617366,
				"z": -1.6284542235,
				"element": "C" 
			},
			{
				"x": -1.4275374176,
				"y": 1.1189355381,
				"z": -1.7562410063,
				"element": "C" 
			},
			{
				"x": -2.7687793076,
				"y": 0.888295701,
				"z": -1.624343433,
				"element": "C" 
			},
			{
				"x": -2.9877781993,
				"y": -0.4485818519,
				"z": -1.4193422071,
				"element": "O" 
			},
			{
				"x": -3.9635133907,
				"y": 1.7569056988,
				"z": -1.6142835775,
				"element": "C" 
			},
			{
				"x": -3.7579607183,
				"y": 3.0228599689,
				"z": -2.0670057777,
				"element": "O" 
			},
			{
				"x": -5.0461330879,
				"y": 1.4028837943,
				"z": -1.2187708049,
				"element": "O" 
			},
			{
				"x": 0.9659483133,
				"y": -0.4124529597,
				"z": -1.6924412582,
				"element": "S" 
			},
			{
				"x": 1.1866913662,
				"y": -1.8098908834,
				"z": -2.0709456308,
				"element": "O" 
			},
			{
				"x": 1.5035361341,
				"y": 0.7115046975,
				"z": -2.4590061867,
				"element": "O" 
			},
			{
				"x": 1.5403574309,
				"y": -0.2452011002,
				"z": -0.1459274332,
				"element": "N" 
			},
			{
				"x": 1.6476638734,
				"y": 1.0975775829,
				"z": 0.4779513437,
				"element": "C" 
			},
			{
				"x": 1.5926032774,
				"y": 0.7994958134,
				"z": 1.9908827521,
				"element": "C" 
			},
			{
				"x": 1.965224676,
				"y": -0.6899840357,
				"z": 2.1034942035,
				"element": "C" 
			},
			{
				"x": 1.3172844331,
				"y": -1.302451672,
				"z": 0.8578157657,
				"element": "C" 
			},
			{
				"x": -2.2024108688,
				"y": -2.8478397099,
				"z": -0.2899137496,
				"element": "H" 
			},
			{
				"x": -0.8215694626,
				"y": -2.9701160179,
				"z": -1.4173134467,
				"element": "H" 
			},
			{
				"x": -2.4931354556,
				"y": -3.0017305429,
				"z": -2.0244769452,
				"element": "H" 
			},
			{
				"x": -0.9195164733,
				"y": 2.056197917,
				"z": -1.933117591,
				"element": "H" 
			},
			{
				"x": -2.8933984702,
				"y": 3.0997039738,
				"z": -2.4949353094,
				"element": "H" 
			},
			{
				"x": 0.8319735709,
				"y": 1.7597924138,
				"z": 0.167168561,
				"element": "H" 
			},
			{
				"x": 2.5894914273,
				"y": 1.5608473999,
				"z": 0.1714940965,
				"element": "H" 
			},
			{
				"x": 2.2584760725,
				"y": 1.4521689828,
				"z": 2.5609669787,
				"element": "H" 
			},
			{
				"x": 0.5751454344,
				"y": 0.9566387239,
				"z": 2.3649030109,
				"element": "H" 
			},
			{
				"x": 3.051338935,
				"y": -0.8197384699,
				"z": 2.0541852155,
				"element": "H" 
			},
			{
				"x": 1.6076677237,
				"y": -1.1523451347,
				"z": 3.027207885,
				"element": "H" 
			},
			{
				"x": 1.7804069228,
				"y": -2.2338619435,
				"z": 0.529011586,
				"element": "H" 
			},
			{
				"x": 0.2436159247,
				"y": -1.4825937032,
				"z": 1.0274205992,
				"element": "H" 
			}
		],
		 "valence_orbital": [ 
			{
				"type": "occ",
				"energy": -0.30938,
				"method": "rhf"
			},
			{
				"type": "occ",
				"energy": -0.30804,
				"method": "rhf"
			},
			{
				"type": "occ",
				"energy": -0.2856,
				"method": "rhf"
			},
			{
				"type": "occ",
				"energy": -0.27224,
				"method": "rhf"
			},
			{
				"type": "occ",
				"energy": -0.25306,
				"method": "rhf"
			},
			{
				"type": "unocc",
				"energy": -0.06037,
				"method": "rhf"
			},
			{
				"type": "unocc",
				"energy": -0.01276,
				"method": "rhf"
			},
			{
				"type": "unocc",
				"energy": 0.04533,
				"method": "rhf"
			},
			{
				"type": "unocc",
				"energy": 0.05688,
				"method": "rhf"
			},
			{
				"type": "unocc",
				"energy": 0.06859,
				"method": "rhf"
			}
		],
		"cosmo_sigma_profile": { 
			"-0.025": 0.0,
			"-0.024": 0.0,
			"-0.023": 0.0,
			"-0.022": 0.0,
			"-0.021": 0.0,
			"-0.02": 0.134920202644,
			"-0.019": 1.05416835761,
			"-0.018": 1.29618687014,
			"-0.017": 0.992733494065,
			"-0.016": 1.11683154443,
			"-0.015": 1.29518426095,
			"-0.014": 0.793674952151,
			"-0.013": 1.07875832386,
			"-0.012": 1.23540491345,
			"-0.011": 1.70107202208,
			"-0.01": 1.09268901526,
			"-0.009": 0.890211275594,
			"-0.008": 2.376814377,
			"-0.007": 4.49988199625,
			"-0.006": 8.19980512428,
			"-0.005": 16.4965152404,
			"-0.004": 33.9566900035,
			"-0.003": 35.8078924384,
			"-0.002": 31.493018614,
			"-0.001": 21.5181755949,
			"0.0": 12.9389332215,
			"0.001": 7.1160815887,
			"0.002": 5.87623257685,
			"0.003": 6.09312590987,
			"0.004": 5.83460265659,
			"0.005": 8.00304395841,
			"0.006": 6.94642683379,
			"0.007": 6.86317243679,
			"0.008": 6.84687238734,
			"0.009": 8.74919459977,
			"0.01": 11.6639037495,
			"0.011": 13.7035675581,
			"0.012": 7.54741684052,
			"0.013": 0.587181904469,
			"0.014": 0.0,
			"0.015": 0.0,
			"0.016": 0.0,
			"0.017": 0.0,
			"0.018": 0.0,
			"0.019": 0.0,
			"0.02": 0.0,
			"0.021": 0.0,
			"0.022": 0.0,
			"0.023": 0.0,
			"0.024": 0.0,
			"0.025": 0.0
		}
	}
}
