{
	 "smiles": "O=CC1=CC=NC=C1", 
	 "Tm": 269.15, 
	 "num_atms": 13, 
	 "gaussian": { 
		 "optdone": 1, 
		 "sigma_profile": "yes", 
		 "theory": "DFT", 
		 "functional": "B3LYP", 
		 "basiset": "6-31G**", 
		 "properties": { 
			 "R2extent": 967.91, 
			 "electric_dipole_moment_norm": 1.64598648233, 
			 "electric_quadrupole_moment_norm": 11.6304360438, 
			 "total_energy": -361.605758745, 
			 "HOMO_LUMO_gap": 0.18164, 
			 "cosmo_polarized_energy": -8.55, 
			 "cosmo_cavitation_energy": 17.77, 
			 "cosmo_dispersion_energy": -13.1, 
			 "cosmo_repulsion_energy": 1.08, 
			 "cosmo_total_nonelectrostatic_energy": 5.75, 
			 "SMD_solvation_energy": 2.94 
		},
		"coords": [
			{
				"x": 2.5770239022,
				"y": 0.2930108607,
				"z": 1.3916600511,
				"element": "O" 
			},
			{
				"x": 1.8026839586,
				"y": -0.3130304488,
				"z": 0.6795960087,
				"element": "C" 
			},
			{
				"x": 0.468401237,
				"y": 0.2014241325,
				"z": 0.2710181456,
				"element": "C" 
			},
			{
				"x": 0.0204522244,
				"y": 1.455517081,
				"z": 0.7017591692,
				"element": "C" 
			},
			{
				"x": -1.2375341364,
				"y": 1.8850892954,
				"z": 0.287309384,
				"element": "C" 
			},
			{
				"x": -2.0470448376,
				"y": 1.1635650689,
				"z": -0.5035053217,
				"element": "N" 
			},
			{
				"x": -1.6087189128,
				"y": -0.0338037724,
				"z": -0.9093221261,
				"element": "C" 
			},
			{
				"x": -0.3654674957,
				"y": -0.5594094135,
				"z": -0.5528124519,
				"element": "C" 
			},
			{
				"x": 2.0552446228,
				"y": -1.3194986544,
				"z": 0.2795916347,
				"element": "H" 
			},
			{
				"x": 0.6515224732,
				"y": 2.0629438297,
				"z": 1.3418566473,
				"element": "H" 
			},
			{
				"x": -1.6189623508,
				"y": 2.8543292055,
				"z": 0.6022588593,
				"element": "H" 
			},
			{
				"x": -2.2825143422,
				"y": -0.5999973219,
				"z": -1.5494867366,
				"element": "H" 
			},
			{
				"x": -0.0548863427,
				"y": -1.5383398628,
				"z": -0.9089232634,
				"element": "H" 
			}
		],
		 "valence_orbital": [ 
			{
				"type": "occ",
				"energy": -0.37666,
				"method": "rhf"
			},
			{
				"type": "occ",
				"energy": -0.30033,
				"method": "rhf"
			},
			{
				"type": "occ",
				"energy": -0.27882,
				"method": "rhf"
			},
			{
				"type": "occ",
				"energy": -0.2748,
				"method": "rhf"
			},
			{
				"type": "occ",
				"energy": -0.2663,
				"method": "rhf"
			},
			{
				"type": "unocc",
				"energy": -0.08466,
				"method": "rhf"
			},
			{
				"type": "unocc",
				"energy": -0.02673,
				"method": "rhf"
			},
			{
				"type": "unocc",
				"energy": 0.0206,
				"method": "rhf"
			},
			{
				"type": "unocc",
				"energy": 0.09929,
				"method": "rhf"
			},
			{
				"type": "unocc",
				"energy": 0.10901,
				"method": "rhf"
			}
		],
		"cosmo_sigma_profile": { 
			"-0.025": 0.0,
			"-0.024": 0.0,
			"-0.023": 0.0,
			"-0.022": 0.0,
			"-0.021": 0.0,
			"-0.02": 0.0,
			"-0.019": 0.0,
			"-0.018": 0.0,
			"-0.017": 0.0,
			"-0.016": 0.0,
			"-0.015": 0.0,
			"-0.014": 0.0,
			"-0.013": 0.0,
			"-0.012": 0.0,
			"-0.011": 0.0,
			"-0.01": 0.000619018065838,
			"-0.009": 1.16888289092,
			"-0.008": 4.75912076497,
			"-0.007": 10.3942403683,
			"-0.006": 11.9417411119,
			"-0.005": 10.0425495536,
			"-0.004": 7.49773504197,
			"-0.003": 8.36528722732,
			"-0.002": 7.88046547546,
			"-0.001": 9.18368335738,
			"0.0": 13.2356802344,
			"0.001": 16.5485458818,
			"0.002": 5.08730502727,
			"0.003": 4.94997842249,
			"0.004": 3.41346009785,
			"0.005": 2.48351587239,
			"0.006": 2.70285468638,
			"0.007": 3.16781903054,
			"0.008": 3.32164865284,
			"0.009": 3.41712893498,
			"0.01": 3.84277722799,
			"0.011": 4.85367933946,
			"0.012": 2.09688914862,
			"0.013": 0.756683321385,
			"0.014": 0.769545350803,
			"0.015": 0.979091010101,
			"0.016": 0.434783706953,
			"0.017": 0.0,
			"0.018": 0.0,
			"0.019": 0.0,
			"0.02": 0.0,
			"0.021": 0.0,
			"0.022": 0.0,
			"0.023": 0.0,
			"0.024": 0.0,
			"0.025": 0.0
		}
	}
}
