{
	 "smiles": "OC(=O)CC1=CSC(NC(=O)C2=CC=CO2)=N1", 
	 "Tm": 497.15, 
	 "num_atms": 25, 
	 "gaussian": { 
		 "optdone": 1, 
		 "sigma_profile": "yes", 
		 "theory": "DFT", 
		 "functional": "B3LYP", 
		 "basiset": "6-31G**", 
		 "properties": { 
			 "R2extent": 7148.0589, 
			 "electric_dipole_moment_norm": 2.8875128727, 
			 "electric_quadrupole_moment_norm": 22.9866815541, 
			 "total_energy": -1194.47073919, 
			 "HOMO_LUMO_gap": 0.16233, 
			 "cosmo_polarized_energy": -18.9, 
			 "cosmo_cavitation_energy": 33.4, 
			 "cosmo_dispersion_energy": -24.71, 
			 "cosmo_repulsion_energy": 1.89, 
			 "cosmo_total_nonelectrostatic_energy": 10.58, 
			 "SMD_solvation_energy": 6.91 
		},
		"coords": [
			{
				"x": -2.0261531195,
				"y": 3.1297537846,
				"z": -1.7302960475,
				"element": "O" 
			},
			{
				"x": -1.6680246902,
				"y": 3.5864542831,
				"z": -0.5071730573,
				"element": "C" 
			},
			{
				"x": -0.7951221341,
				"y": 4.4081981507,
				"z": -0.3443973921,
				"element": "O" 
			},
			{
				"x": -2.5169593427,
				"y": 2.9793090748,
				"z": 0.5998911163,
				"element": "C" 
			},
			{
				"x": -2.6240804343,
				"y": 1.4803892718,
				"z": 0.5392836157,
				"element": "C" 
			},
			{
				"x": -3.7694371282,
				"y": 0.7593580573,
				"z": 0.3738189894,
				"element": "C" 
			},
			{
				"x": -3.4311779683,
				"y": -0.9509334099,
				"z": 0.3778261164,
				"element": "S" 
			},
			{
				"x": -1.7400289662,
				"y": -0.5391704201,
				"z": 0.6064063232,
				"element": "C" 
			},
			{
				"x": -0.7344979327,
				"y": -1.4842944274,
				"z": 0.7157971587,
				"element": "N" 
			},
			{
				"x": -0.9159307732,
				"y": -2.8501766385,
				"z": 0.6601303573,
				"element": "C" 
			},
			{
				"x": -2.0174987936,
				"y": -3.3686502131,
				"z": 0.5048221655,
				"element": "O" 
			},
			{
				"x": 0.3102591372,
				"y": -3.6434409778,
				"z": 0.8009024147,
				"element": "C" 
			},
			{
				"x": 0.5085442055,
				"y": -4.9962329434,
				"z": 0.7948321084,
				"element": "C" 
			},
			{
				"x": 1.9105282978,
				"y": -5.1969493829,
				"z": 0.9725172444,
				"element": "C" 
			},
			{
				"x": 2.464814838,
				"y": -3.9539816851,
				"z": 1.0740257516,
				"element": "C" 
			},
			{
				"x": 1.5075611372,
				"y": -2.9934007001,
				"z": 0.9719698487,
				"element": "O" 
			},
			{
				"x": -1.4692318003,
				"y": 0.7344351341,
				"z": 0.6736537034,
				"element": "N" 
			},
			{
				"x": -1.4400663106,
				"y": 3.5769292293,
				"z": -2.363693605,
				"element": "H" 
			},
			{
				"x": -2.0689753587,
				"y": 3.2991532688,
				"z": 1.543993692,
				"element": "H" 
			},
			{
				"x": -3.5168062936,
				"y": 3.4219163518,
				"z": 0.5302458713,
				"element": "H" 
			},
			{
				"x": -4.7788836608,
				"y": 1.1230527358,
				"z": 0.2444938234,
				"element": "H" 
			},
			{
				"x": 0.1958422168,
				"y": -1.1060773021,
				"z": 0.8457529594,
				"element": "H" 
			},
			{
				"x": -0.2642250714,
				"y": -5.7407941965,
				"z": 0.6767560582,
				"element": "H" 
			},
			{
				"x": 2.4373918829,
				"y": -6.1387934087,
				"z": 1.0188884595,
				"element": "H" 
			},
			{
				"x": 3.474258063,
				"y": -3.5991536366,
				"z": 1.2138523246,
				"element": "H" 
			}
		],
		 "valence_orbital": [ 
			{
				"type": "occ",
				"energy": -0.28057,
				"method": "rhf"
			},
			{
				"type": "occ",
				"energy": -0.27588,
				"method": "rhf"
			},
			{
				"type": "occ",
				"energy": -0.26789,
				"method": "rhf"
			},
			{
				"type": "occ",
				"energy": -0.25458,
				"method": "rhf"
			},
			{
				"type": "occ",
				"energy": -0.22032,
				"method": "rhf"
			},
			{
				"type": "unocc",
				"energy": -0.05799,
				"method": "rhf"
			},
			{
				"type": "unocc",
				"energy": -0.00794,
				"method": "rhf"
			},
			{
				"type": "unocc",
				"energy": 0.01403,
				"method": "rhf"
			},
			{
				"type": "unocc",
				"energy": 0.03084,
				"method": "rhf"
			},
			{
				"type": "unocc",
				"energy": 0.0325,
				"method": "rhf"
			}
		],
		"cosmo_sigma_profile": { 
			"-0.025": 0.0,
			"-0.024": 0.0,
			"-0.023": 0.0,
			"-0.022": 0.0,
			"-0.021": 0.0,
			"-0.02": 0.0,
			"-0.019": 0.103039929981,
			"-0.018": 0.906239575997,
			"-0.017": 1.02152685687,
			"-0.016": 0.891398598501,
			"-0.015": 0.490103400649,
			"-0.014": 0.482069385569,
			"-0.013": 1.62919260629,
			"-0.012": 1.80931560014,
			"-0.011": 1.59240736608,
			"-0.01": 3.14341577621,
			"-0.009": 4.71061033271,
			"-0.008": 11.308681135,
			"-0.007": 11.8257564207,
			"-0.006": 11.7179381785,
			"-0.005": 12.8305130505,
			"-0.004": 12.5166076781,
			"-0.003": 14.944295669,
			"-0.002": 16.4198568313,
			"-0.001": 15.7009886767,
			"0.0": 17.9727464758,
			"0.001": 21.4958117572,
			"0.002": 21.8140468382,
			"0.003": 18.2921564895,
			"0.004": 10.7560007133,
			"0.005": 8.37245012176,
			"0.006": 6.77945256637,
			"0.007": 5.47802958329,
			"0.008": 5.96585340877,
			"0.009": 6.63144032992,
			"0.01": 5.54568406007,
			"0.011": 7.88131800903,
			"0.012": 7.83278783569,
			"0.013": 1.48019175415,
			"0.014": 0.0354316171159,
			"0.015": 0.0,
			"0.016": 0.0,
			"0.017": 0.0,
			"0.018": 0.0,
			"0.019": 0.0,
			"0.02": 0.0,
			"0.021": 0.0,
			"0.022": 0.0,
			"0.023": 0.0,
			"0.024": 0.0,
			"0.025": 0.0
		}
	}
}
