{
	 "smiles": "CC1=NNC(=C1C(O)=O)C(F)(F)Cl", 
	 "Tm": 534.15, 
	 "num_atms": 18, 
	 "gaussian": { 
		 "optdone": 1, 
		 "sigma_profile": "yes", 
		 "theory": "DFT", 
		 "functional": "B3LYP", 
		 "basiset": "6-31G**", 
		 "properties": { 
			 "R2extent": 5237.7099, 
			 "electric_dipole_moment_norm": 4.15121807907, 
			 "electric_quadrupole_moment_norm": 18.7089322557, 
			 "total_energy": -1151.45827588, 
			 "HOMO_LUMO_gap": 0.20733, 
			 "cosmo_polarized_energy": -14.42, 
			 "cosmo_cavitation_energy": 25.21, 
			 "cosmo_dispersion_energy": -18.34, 
			 "cosmo_repulsion_energy": 1.42, 
			 "cosmo_total_nonelectrostatic_energy": 8.28, 
			 "SMD_solvation_energy": 4.75 
		},
		"coords": [
			{
				"x": 1.8119042265,
				"y": -1.4119720514,
				"z": -1.9960908081,
				"element": "C" 
			},
			{
				"x": 1.2067288858,
				"y": -1.4482277061,
				"z": -0.6295873811,
				"element": "C" 
			},
			{
				"x": -0.0977972045,
				"y": -1.2318845923,
				"z": -0.4597119535,
				"element": "N" 
			},
			{
				"x": -0.3063623973,
				"y": -1.347057681,
				"z": 0.8650164725,
				"element": "N" 
			},
			{
				"x": 0.8215553622,
				"y": -1.6287036784,
				"z": 1.5573108246,
				"element": "C" 
			},
			{
				"x": 1.8527470831,
				"y": -1.6959755908,
				"z": 0.6210498072,
				"element": "C" 
			},
			{
				"x": 3.2984462904,
				"y": -2.0020783195,
				"z": 0.7632450695,
				"element": "C" 
			},
			{
				"x": 3.8814621794,
				"y": -1.8045521864,
				"z": 1.9697233736,
				"element": "O" 
			},
			{
				"x": 3.9580820352,
				"y": -2.4143205457,
				"z": -0.1640467729,
				"element": "O" 
			},
			{
				"x": 0.7624818373,
				"y": -1.8218661021,
				"z": 3.0323666835,
				"element": "C" 
			},
			{
				"x": 1.4557086297,
				"y": -2.9043539562,
				"z": 3.4210527006,
				"element": "F" 
			},
			{
				"x": -0.5189862963,
				"y": -1.963748897,
				"z": 3.4338298661,
				"element": "F" 
			},
			{
				"x": 1.4554860757,
				"y": -0.3942127903,
				"z": 3.942449004,
				"element": "Cl" 
			},
			{
				"x": 2.6316865522,
				"y": -0.6894492884,
				"z": -2.0453139613,
				"element": "H" 
			},
			{
				"x": 1.0460064765,
				"y": -1.1397602369,
				"z": -2.7248194914,
				"element": "H" 
			},
			{
				"x": 2.2382309379,
				"y": -2.3843602176,
				"z": -2.2547487982,
				"element": "H" 
			},
			{
				"x": -1.2402712212,
				"y": -1.263839556,
				"z": 1.2390618543,
				"element": "H" 
			},
			{
				"x": 3.3073905474,
				"y": -1.3237366041,
				"z": 2.5843135108,
				"element": "H" 
			}
		],
		 "valence_orbital": [ 
			{
				"type": "occ",
				"energy": -0.32172,
				"method": "rhf"
			},
			{
				"type": "occ",
				"energy": -0.31835,
				"method": "rhf"
			},
			{
				"type": "occ",
				"energy": -0.28859,
				"method": "rhf"
			},
			{
				"type": "occ",
				"energy": -0.28262,
				"method": "rhf"
			},
			{
				"type": "occ",
				"energy": -0.27625,
				"method": "rhf"
			},
			{
				"type": "unocc",
				"energy": -0.06892,
				"method": "rhf"
			},
			{
				"type": "unocc",
				"energy": -0.01555,
				"method": "rhf"
			},
			{
				"type": "unocc",
				"energy": 0.00231,
				"method": "rhf"
			},
			{
				"type": "unocc",
				"energy": 0.04683,
				"method": "rhf"
			},
			{
				"type": "unocc",
				"energy": 0.07202,
				"method": "rhf"
			}
		],
		"cosmo_sigma_profile": { 
			"-0.025": 0.0,
			"-0.024": 0.0,
			"-0.023": 0.0,
			"-0.022": 0.0,
			"-0.021": 0.0,
			"-0.02": 0.0,
			"-0.019": 0.144771452184,
			"-0.018": 0.968934489745,
			"-0.017": 1.1672382676,
			"-0.016": 0.671958788674,
			"-0.015": 0.82174078769,
			"-0.014": 0.706749523905,
			"-0.013": 1.75419449734,
			"-0.012": 1.43176866021,
			"-0.011": 1.87148787191,
			"-0.01": 2.64217930089,
			"-0.009": 2.79433427626,
			"-0.008": 3.03549448415,
			"-0.007": 2.59750081465,
			"-0.006": 3.07733308714,
			"-0.005": 7.81651873386,
			"-0.004": 12.3215252254,
			"-0.003": 13.1295557144,
			"-0.002": 18.371765882,
			"-0.001": 20.8490179647,
			"0.0": 21.7593623435,
			"0.001": 25.2932030418,
			"0.002": 14.0848325569,
			"0.003": 5.21728009088,
			"0.004": 3.0513539907,
			"0.005": 4.90875133566,
			"0.006": 3.17092887388,
			"0.007": 4.25351716434,
			"0.008": 3.67744002284,
			"0.009": 4.55511615723,
			"0.01": 5.44825355564,
			"0.011": 5.48079075866,
			"0.012": 4.1968934982,
			"0.013": 2.1233651842,
			"0.014": 0.656997284288,
			"0.015": 0.0385984835352,
			"0.016": 0.0,
			"0.017": 0.0,
			"0.018": 0.0,
			"0.019": 0.0,
			"0.02": 0.0,
			"0.021": 0.0,
			"0.022": 0.0,
			"0.023": 0.0,
			"0.024": 0.0,
			"0.025": 0.0
		}
	}
}
