{
	 "smiles": "NC(CN1CCCC1=O)C1=CC=CC=C1", 
	 "Tm": 373.15, 
	 "num_atms": 31, 
	 "gaussian": { 
		 "optdone": 1, 
		 "sigma_profile": "yes", 
		 "theory": "DFT", 
		 "functional": "B3LYP", 
		 "basiset": "6-31G**", 
		 "properties": { 
			 "R2extent": 4312.9016, 
			 "electric_dipole_moment_norm": 3.67787860186, 
			 "electric_quadrupole_moment_norm": 20.6500668507, 
			 "total_energy": -651.664483226, 
			 "HOMO_LUMO_gap": 0.2235, 
			 "cosmo_polarized_energy": -15.17, 
			 "cosmo_cavitation_energy": 32.98, 
			 "cosmo_dispersion_energy": -22.57, 
			 "cosmo_repulsion_energy": 1.8, 
			 "cosmo_total_nonelectrostatic_energy": 12.21, 
			 "SMD_solvation_energy": 5.14 
		},
		"coords": [
			{
				"x": -1.5881826943,
				"y": 0.6402082899,
				"z": -2.5671124663,
				"element": "N" 
			},
			{
				"x": -2.2935318142,
				"y": -0.4441729207,
				"z": -1.8706472327,
				"element": "C" 
			},
			{
				"x": -1.7525203565,
				"y": -1.8111241588,
				"z": -2.3631431725,
				"element": "C" 
			},
			{
				"x": -0.3975516178,
				"y": -2.1354082896,
				"z": -1.9777299491,
				"element": "N" 
			},
			{
				"x": 0.7958323669,
				"y": -1.4839740932,
				"z": -2.5121817964,
				"element": "C" 
			},
			{
				"x": 1.9387336878,
				"y": -2.4337021229,
				"z": -2.08865825,
				"element": "C" 
			},
			{
				"x": 1.3843968982,
				"y": -3.1470605258,
				"z": -0.8456712563,
				"element": "C" 
			},
			{
				"x": -0.1317614028,
				"y": -3.1047619478,
				"z": -1.0375130299,
				"element": "C" 
			},
			{
				"x": -0.9674010519,
				"y": -3.7893167779,
				"z": -0.4666831924,
				"element": "O" 
			},
			{
				"x": -2.1801917794,
				"y": -0.2868946573,
				"z": -0.3612810959,
				"element": "C" 
			},
			{
				"x": -1.1296659556,
				"y": 0.4257485188,
				"z": 0.2296654289,
				"element": "C" 
			},
			{
				"x": -1.0407996061,
				"y": 0.5394265389,
				"z": 1.6192868306,
				"element": "C" 
			},
			{
				"x": -1.9982632252,
				"y": -0.0604931262,
				"z": 2.4371335124,
				"element": "C" 
			},
			{
				"x": -3.0496243796,
				"y": -0.773720023,
				"z": 1.856507308,
				"element": "C" 
			},
			{
				"x": -3.1390818085,
				"y": -0.8811543233,
				"z": 0.4699024479,
				"element": "C" 
			},
			{
				"x": -1.9707541907,
				"y": 1.5389473151,
				"z": -2.2821279932,
				"element": "H" 
			},
			{
				"x": -1.7446482067,
				"y": 0.5606939292,
				"z": -3.5691756643,
				"element": "H" 
			},
			{
				"x": -3.3721556723,
				"y": -0.4663046327,
				"z": -2.113884535,
				"element": "H" 
			},
			{
				"x": -2.3789803597,
				"y": -2.6082390179,
				"z": -1.9541351434,
				"element": "H" 
			},
			{
				"x": -1.8372983034,
				"y": -1.8409839475,
				"z": -3.460509638,
				"element": "H" 
			},
			{
				"x": 0.7183222185,
				"y": -1.3765108965,
				"z": -3.6010132406,
				"element": "H" 
			},
			{
				"x": 0.9127434391,
				"y": -0.4772490025,
				"z": -2.0964510314,
				"element": "H" 
			},
			{
				"x": 2.1265435459,
				"y": -3.1634123638,
				"z": -2.8832183729,
				"element": "H" 
			},
			{
				"x": 2.8716339429,
				"y": -1.8949049255,
				"z": -1.9052968602,
				"element": "H" 
			},
			{
				"x": 1.6207880221,
				"y": -2.6066811907,
				"z": 0.0792693588,
				"element": "H" 
			},
			{
				"x": 1.7248096906,
				"y": -4.1770260796,
				"z": -0.7211408721,
				"element": "H" 
			},
			{
				"x": -0.3885663134,
				"y": 0.8980751233,
				"z": -0.4065585585,
				"element": "H" 
			},
			{
				"x": -0.2210854833,
				"y": 1.0993165274,
				"z": 2.061687309,
				"element": "H" 
			},
			{
				"x": -1.9289047205,
				"y": 0.0278721693,
				"z": 3.5176320435,
				"element": "H" 
			},
			{
				"x": -3.8015601854,
				"y": -1.2441980975,
				"z": 2.4835981809,
				"element": "H" 
			},
			{
				"x": -3.9622746846,
				"y": -1.4362952912,
				"z": 0.0261509312,
				"element": "H" 
			}
		],
		 "valence_orbital": [ 
			{
				"type": "occ",
				"energy": -0.25194,
				"method": "rhf"
			},
			{
				"type": "occ",
				"energy": -0.24285,
				"method": "rhf"
			},
			{
				"type": "occ",
				"energy": -0.23947,
				"method": "rhf"
			},
			{
				"type": "occ",
				"energy": -0.23242,
				"method": "rhf"
			},
			{
				"type": "occ",
				"energy": -0.22017,
				"method": "rhf"
			},
			{
				"type": "unocc",
				"energy": 0.00333,
				"method": "rhf"
			},
			{
				"type": "unocc",
				"energy": 0.00629,
				"method": "rhf"
			},
			{
				"type": "unocc",
				"energy": 0.0413,
				"method": "rhf"
			},
			{
				"type": "unocc",
				"energy": 0.07348,
				"method": "rhf"
			},
			{
				"type": "unocc",
				"energy": 0.09493,
				"method": "rhf"
			}
		],
		"cosmo_sigma_profile": { 
			"-0.025": 0.0,
			"-0.024": 0.0,
			"-0.023": 0.0,
			"-0.022": 0.0,
			"-0.021": 0.0,
			"-0.02": 0.0,
			"-0.019": 0.0,
			"-0.018": 0.0,
			"-0.017": 0.0,
			"-0.016": 0.0,
			"-0.015": 0.0,
			"-0.014": 0.0,
			"-0.013": 0.0,
			"-0.012": 0.0,
			"-0.011": 0.0107241535312,
			"-0.01": 1.371040192,
			"-0.009": 2.68349885133,
			"-0.008": 3.70743306663,
			"-0.007": 3.38809315128,
			"-0.006": 5.0267938217,
			"-0.005": 18.5682513648,
			"-0.004": 28.2233082925,
			"-0.003": 37.1570847774,
			"-0.002": 29.3228787094,
			"-0.001": 21.9522340981,
			"0.0": 16.6524448644,
			"0.001": 12.3269002847,
			"0.002": 10.7730268151,
			"0.003": 9.18550550746,
			"0.004": 9.26064508682,
			"0.005": 9.89046577666,
			"0.006": 9.13932478931,
			"0.007": 4.989627353,
			"0.008": 3.14404536458,
			"0.009": 4.15333329032,
			"0.01": 3.06580282314,
			"0.011": 1.71161401944,
			"0.012": 2.36770342354,
			"0.013": 2.6481769465,
			"0.014": 4.83578480925,
			"0.015": 2.42178819561,
			"0.016": 0.279989164677,
			"0.017": 0.0,
			"0.018": 0.0,
			"0.019": 0.0,
			"0.02": 0.0,
			"0.021": 0.0,
			"0.022": 0.0,
			"0.023": 0.0,
			"0.024": 0.0,
			"0.025": 0.0
		}
	}
}
