{
	 "smiles": "OC(=O)C1=C2N=CNC2=CC=C1", 
	 "Tm": 601.15, 
	 "num_atms": 18, 
	 "gaussian": { 
		 "optdone": 1, 
		 "sigma_profile": "yes", 
		 "theory": "DFT", 
		 "functional": "B3LYP", 
		 "basiset": "6-31G**", 
		 "properties": { 
			 "R2extent": 2043.5117, 
			 "electric_dipole_moment_norm": 8.93619246547, 
			 "electric_quadrupole_moment_norm": 10.6262500587, 
			 "total_energy": -568.44593009, 
			 "HOMO_LUMO_gap": 0.19199, 
			 "cosmo_polarized_energy": -20.27, 
			 "cosmo_cavitation_energy": 22.38, 
			 "cosmo_dispersion_energy": -17.27, 
			 "cosmo_repulsion_energy": 1.35, 
			 "cosmo_total_nonelectrostatic_energy": 6.47, 
			 "SMD_solvation_energy": 4.2 
		},
		"coords": [
			{
				"x": 1.5211714023,
				"y": 2.328494764,
				"z": -1.1399758074,
				"element": "O" 
			},
			{
				"x": 2.1550688957,
				"y": 1.4162102772,
				"z": -0.3816804929,
				"element": "C" 
			},
			{
				"x": 3.2336346194,
				"y": 1.6507720314,
				"z": 0.1204968154,
				"element": "O" 
			},
			{
				"x": 1.454709077,
				"y": 0.0997171842,
				"z": -0.1943963631,
				"element": "C" 
			},
			{
				"x": 0.2047931939,
				"y": -0.1893905797,
				"z": -0.7687345925,
				"element": "C" 
			},
			{
				"x": -0.5903981895,
				"y": 0.6173726714,
				"z": -1.5709191035,
				"element": "N" 
			},
			{
				"x": -1.6476815081,
				"y": -0.108156347,
				"z": -1.8446073564,
				"element": "C" 
			},
			{
				"x": -1.6055606107,
				"y": -1.352883059,
				"z": -1.2721314035,
				"element": "N" 
			},
			{
				"x": -0.4143833955,
				"y": -1.4404359284,
				"z": -0.5647336981,
				"element": "C" 
			},
			{
				"x": 0.1753094579,
				"y": -2.4422049413,
				"z": 0.2081022889,
				"element": "C" 
			},
			{
				"x": 1.4152038925,
				"y": -2.1453782544,
				"z": 0.7734198201,
				"element": "C" 
			},
			{
				"x": 2.0422814897,
				"y": -0.9017001676,
				"z": 0.5771218017,
				"element": "C" 
			},
			{
				"x": 0.6616291826,
				"y": 1.9817016486,
				"z": -1.4696819562,
				"element": "H" 
			},
			{
				"x": -2.4824828353,
				"y": 0.2111124882,
				"z": -2.454091207,
				"element": "H" 
			},
			{
				"x": -2.313493202,
				"y": -2.0661083543,
				"z": -1.3551278043,
				"element": "H" 
			},
			{
				"x": -0.3005752043,
				"y": -3.4051029711,
				"z": 0.365484483,
				"element": "H" 
			},
			{
				"x": 1.9101112278,
				"y": -2.895649333,
				"z": 1.3821462722,
				"element": "H" 
			},
			{
				"x": 3.0069625068,
				"y": -0.6916711292,
				"z": 1.0262083037,
				"element": "H" 
			}
		],
		 "valence_orbital": [ 
			{
				"type": "occ",
				"energy": -0.3048,
				"method": "rhf"
			},
			{
				"type": "occ",
				"energy": -0.29075,
				"method": "rhf"
			},
			{
				"type": "occ",
				"energy": -0.25458,
				"method": "rhf"
			},
			{
				"type": "occ",
				"energy": -0.2521,
				"method": "rhf"
			},
			{
				"type": "occ",
				"energy": -0.24798,
				"method": "rhf"
			},
			{
				"type": "unocc",
				"energy": -0.05599,
				"method": "rhf"
			},
			{
				"type": "unocc",
				"energy": -0.00502,
				"method": "rhf"
			},
			{
				"type": "unocc",
				"energy": 0.0209,
				"method": "rhf"
			},
			{
				"type": "unocc",
				"energy": 0.05262,
				"method": "rhf"
			},
			{
				"type": "unocc",
				"energy": 0.06918,
				"method": "rhf"
			}
		],
		"cosmo_sigma_profile": { 
			"-0.025": 0.0,
			"-0.024": 0.0,
			"-0.023": 0.0,
			"-0.022": 0.0,
			"-0.021": 0.0,
			"-0.02": 0.0,
			"-0.019": 0.0,
			"-0.018": 0.248556848289,
			"-0.017": 2.09044328819,
			"-0.016": 1.82533820291,
			"-0.015": 1.58763649871,
			"-0.014": 1.20735901906,
			"-0.013": 1.19084193922,
			"-0.012": 1.39661683664,
			"-0.011": 2.95904573547,
			"-0.01": 3.35778386749,
			"-0.009": 2.51614576257,
			"-0.008": 4.82087763624,
			"-0.007": 3.880110051,
			"-0.006": 6.30902004998,
			"-0.005": 8.61847996851,
			"-0.004": 8.8971005935,
			"-0.003": 8.36726900915,
			"-0.002": 9.84750819248,
			"-0.001": 11.260657291,
			"0.0": 13.5246824601,
			"0.001": 12.8738402251,
			"0.002": 13.9721730175,
			"0.003": 13.1802894058,
			"0.004": 9.11382723876,
			"0.005": 4.16640020073,
			"0.006": 4.34936839307,
			"0.007": 3.58463035872,
			"0.008": 3.25202508501,
			"0.009": 2.71029545868,
			"0.01": 3.3262842972,
			"0.011": 4.85416398297,
			"0.012": 6.6612901546,
			"0.013": 3.53614079789,
			"0.014": 1.11837551845,
			"0.015": 0.0,
			"0.016": 0.0,
			"0.017": 0.0,
			"0.018": 0.0,
			"0.019": 0.0,
			"0.02": 0.0,
			"0.021": 0.0,
			"0.022": 0.0,
			"0.023": 0.0,
			"0.024": 0.0,
			"0.025": 0.0
		}
	}
}
