{
	 "smiles": "COC1=C(Cl)C=C(NS(=O)(=O)C2=CNC(=C2)C(O)=O)C=C1", 
	 "Tm": 481.15, 
	 "num_atms": 32, 
	 "gaussian": { 
		 "optdone": 1, 
		 "sigma_profile": "yes", 
		 "theory": "DFT", 
		 "functional": "B3LYP", 
		 "basiset": "6-31G**", 
		 "properties": { 
			 "R2extent": 9236.0647, 
			 "electric_dipole_moment_norm": 4.00261976835, 
			 "electric_quadrupole_moment_norm": 23.8612545879, 
			 "total_energy": -1807.82068627, 
			 "HOMO_LUMO_gap": 0.18318, 
			 "cosmo_polarized_energy": -29.3, 
			 "cosmo_cavitation_energy": 41.16, 
			 "cosmo_dispersion_energy": -28.8, 
			 "cosmo_repulsion_energy": 2.19, 
			 "cosmo_total_nonelectrostatic_energy": 14.55, 
			 "SMD_solvation_energy": 7.93 
		},
		"coords": [
			{
				"x": -1.1179317324,
				"y": -3.4333141376,
				"z": 4.9717263206,
				"element": "C" 
			},
			{
				"x": -0.1970267676,
				"y": -2.757463601,
				"z": 4.1081175857,
				"element": "O" 
			},
			{
				"x": -0.7320581722,
				"y": -2.2947140893,
				"z": 2.9359497676,
				"element": "C" 
			},
			{
				"x": -0.8112264311,
				"y": -3.0986571562,
				"z": 1.7871068629,
				"element": "C" 
			},
			{
				"x": -0.2649811547,
				"y": -4.7623664477,
				"z": 1.8567306873,
				"element": "Cl" 
			},
			{
				"x": -1.317316124,
				"y": -2.605467884,
				"z": 0.5868886428,
				"element": "C" 
			},
			{
				"x": -1.726502755,
				"y": -1.2671269926,
				"z": 0.5099140869,
				"element": "C" 
			},
			{
				"x": -2.2677421853,
				"y": -0.7471361606,
				"z": -0.6958496767,
				"element": "N" 
			},
			{
				"x": -1.4567106335,
				"y": -0.8355756303,
				"z": -2.1898873096,
				"element": "S" 
			},
			{
				"x": -1.2053832682,
				"y": -2.2503099231,
				"z": -2.4555819076,
				"element": "O" 
			},
			{
				"x": -2.2597266661,
				"y": 0.0130764453,
				"z": -3.0687905589,
				"element": "O" 
			},
			{
				"x": 0.1101743139,
				"y": -0.0577400417,
				"z": -1.9733458009,
				"element": "C" 
			},
			{
				"x": 1.2695206468,
				"y": -0.6865755135,
				"z": -1.5318526377,
				"element": "C" 
			},
			{
				"x": 2.2353809709,
				"y": 0.2588854865,
				"z": -1.474967523,
				"element": "N" 
			},
			{
				"x": 1.7397459867,
				"y": 1.4836798633,
				"z": -1.8719610627,
				"element": "C" 
			},
			{
				"x": 0.4010074203,
				"y": 1.313447035,
				"z": -2.1871578362,
				"element": "C" 
			},
			{
				"x": 2.6749681949,
				"y": 2.6202600231,
				"z": -1.878332026,
				"element": "C" 
			},
			{
				"x": 2.2051566712,
				"y": 3.8088514036,
				"z": -2.3206385242,
				"element": "O" 
			},
			{
				"x": 3.821612303,
				"y": 2.5039904366,
				"z": -1.500028808,
				"element": "O" 
			},
			{
				"x": -1.6393563361,
				"y": -0.4490383929,
				"z": 1.6439396894,
				"element": "C" 
			},
			{
				"x": -1.1633734706,
				"y": -0.9684934491,
				"z": 2.8441386802,
				"element": "C" 
			},
			{
				"x": -1.5308283327,
				"y": -4.3286989722,
				"z": 4.4941635727,
				"element": "H" 
			},
			{
				"x": -1.9386179375,
				"y": -2.7680681211,
				"z": 5.2686778798,
				"element": "H" 
			},
			{
				"x": -0.5487552148,
				"y": -3.7249485434,
				"z": 5.8559896122,
				"element": "H" 
			},
			{
				"x": -1.3967604981,
				"y": -3.2483013852,
				"z": -0.2804653859,
				"element": "H" 
			},
			{
				"x": -2.7105770279,
				"y": 0.162100686,
				"z": -0.6100538483,
				"element": "H" 
			},
			{
				"x": 1.4453756724,
				"y": -1.72094034,
				"z": -1.2805928909,
				"element": "H" 
			},
			{
				"x": 3.2024220992,
				"y": 0.1443026081,
				"z": -1.1996013538,
				"element": "H" 
			},
			{
				"x": -0.3014815509,
				"y": 2.0514573559,
				"z": -2.5487054764,
				"element": "H" 
			},
			{
				"x": 1.2920199306,
				"y": 3.7257350723,
				"z": -2.6298795541,
				"element": "H" 
			},
			{
				"x": -1.9448561299,
				"y": 0.5921444209,
				"z": 1.5869793517,
				"element": "H" 
			},
			{
				"x": -1.0879718215,
				"y": -0.3437940552,
				"z": 3.7283694412,
				"element": "H" 
			}
		],
		 "valence_orbital": [ 
			{
				"type": "occ",
				"energy": -0.29259,
				"method": "rhf"
			},
			{
				"type": "occ",
				"energy": -0.28659,
				"method": "rhf"
			},
			{
				"type": "occ",
				"energy": -0.26468,
				"method": "rhf"
			},
			{
				"type": "occ",
				"energy": -0.26343,
				"method": "rhf"
			},
			{
				"type": "occ",
				"energy": -0.23847,
				"method": "rhf"
			},
			{
				"type": "unocc",
				"energy": -0.05529,
				"method": "rhf"
			},
			{
				"type": "unocc",
				"energy": -0.03062,
				"method": "rhf"
			},
			{
				"type": "unocc",
				"energy": -0.0289,
				"method": "rhf"
			},
			{
				"type": "unocc",
				"energy": -0.0062,
				"method": "rhf"
			},
			{
				"type": "unocc",
				"energy": 0.02227,
				"method": "rhf"
			}
		],
		"cosmo_sigma_profile": { 
			"-0.025": 0.0,
			"-0.024": 0.0,
			"-0.023": 0.0,
			"-0.022": 0.0,
			"-0.021": 0.0,
			"-0.02": 0.0398812328102,
			"-0.019": 0.890208961222,
			"-0.018": 1.32454008981,
			"-0.017": 1.90601012124,
			"-0.016": 2.3229186099,
			"-0.015": 3.18644712974,
			"-0.014": 3.24076587428,
			"-0.013": 3.67357984058,
			"-0.012": 3.61502498738,
			"-0.011": 3.74460210342,
			"-0.01": 4.23765465859,
			"-0.009": 5.17086172557,
			"-0.008": 5.85378627722,
			"-0.007": 7.32191524216,
			"-0.006": 10.9599138386,
			"-0.005": 14.2561411382,
			"-0.004": 16.949127856,
			"-0.003": 23.6815317134,
			"-0.002": 19.1972995042,
			"-0.001": 17.3123708885,
			"0.0": 19.1394033308,
			"0.001": 26.8261910569,
			"0.002": 26.2004316512,
			"0.003": 19.236936069,
			"0.004": 14.4041124534,
			"0.005": 10.1631176947,
			"0.006": 9.41985706462,
			"0.007": 7.81153059443,
			"0.008": 7.93526209104,
			"0.009": 8.75812205683,
			"0.01": 14.8746515798,
			"0.011": 13.0289023092,
			"0.012": 3.68182195302,
			"0.013": 1.28173539469,
			"0.014": 0.00415825234689,
			"0.015": 0.0,
			"0.016": 0.0,
			"0.017": 0.0,
			"0.018": 0.0,
			"0.019": 0.0,
			"0.02": 0.0,
			"0.021": 0.0,
			"0.022": 0.0,
			"0.023": 0.0,
			"0.024": 0.0,
			"0.025": 0.0
		}
	}
}
