{
	 "smiles": "CN(C)CCCCN(C)C", 
	 "Tm": 173.15, 
	 "num_atms": 30, 
	 "gaussian": { 
		 "optdone": 1, 
		 "sigma_profile": "yes", 
		 "theory": "DFT", 
		 "functional": "B3LYP", 
		 "basiset": "6-31G**", 
		 "properties": { 
			 "R2extent": 2772.365, 
			 "electric_dipole_moment_norm": 1.00759949385, 
			 "electric_quadrupole_moment_norm": 2.90642455433, 
			 "total_energy": -426.387553032, 
			 "HOMO_LUMO_gap": 0.26263, 
			 "cosmo_polarized_energy": -4.11, 
			 "cosmo_cavitation_energy": 29.95, 
			 "cosmo_dispersion_energy": -20.75, 
			 "cosmo_repulsion_energy": 1.69, 
			 "cosmo_total_nonelectrostatic_energy": 10.89, 
			 "SMD_solvation_energy": 1.52 
		},
		"coords": [
			{
				"x": -2.2407958201,
				"y": 0.2774348472,
				"z": 3.0941659654,
				"element": "C" 
			},
			{
				"x": -1.7920743715,
				"y": 0.0024305915,
				"z": 1.7359778466,
				"element": "N" 
			},
			{
				"x": -2.3100541991,
				"y": 1.0007042846,
				"z": 0.8096007996,
				"element": "C" 
			},
			{
				"x": -2.121106753,
				"y": -1.3669335661,
				"z": 1.3320272176,
				"element": "C" 
			},
			{
				"x": -1.3749964827,
				"y": -1.8440071877,
				"z": 0.0780822007,
				"element": "C" 
			},
			{
				"x": 0.1513883818,
				"y": -1.8237804723,
				"z": 0.2374214109,
				"element": "C" 
			},
			{
				"x": 0.9657003275,
				"y": -2.4575543193,
				"z": -0.9144276333,
				"element": "C" 
			},
			{
				"x": 1.1070812189,
				"y": -1.7406236618,
				"z": -2.1813044851,
				"element": "N" 
			},
			{
				"x": -0.0467627084,
				"y": -1.7288256846,
				"z": -3.0617024628,
				"element": "C" 
			},
			{
				"x": 1.7491746903,
				"y": -0.4441051452,
				"z": -2.0758049162,
				"element": "C" 
			},
			{
				"x": -1.7868303409,
				"y": -0.4368713426,
				"z": 3.7885202116,
				"element": "H" 
			},
			{
				"x": -3.3407660136,
				"y": 0.2177953844,
				"z": 3.2150326788,
				"element": "H" 
			},
			{
				"x": -1.9268849016,
				"y": 1.2836235204,
				"z": 3.3912088863,
				"element": "H" 
			},
			{
				"x": -2.0110392838,
				"y": 1.9996648957,
				"z": 1.1428509789,
				"element": "H" 
			},
			{
				"x": -1.8969050708,
				"y": 0.8498174478,
				"z": -0.1912025435,
				"element": "H" 
			},
			{
				"x": -3.4153635005,
				"y": 0.9855976789,
				"z": 0.7280704627,
				"element": "H" 
			},
			{
				"x": -3.2133290273,
				"y": -1.4903991836,
				"z": 1.1795607512,
				"element": "H" 
			},
			{
				"x": -1.8483594241,
				"y": -2.0251442383,
				"z": 2.1667298429,
				"element": "H" 
			},
			{
				"x": -1.6807234034,
				"y": -1.2469019493,
				"z": -0.7872925987,
				"element": "H" 
			},
			{
				"x": -1.7104358907,
				"y": -2.8684324019,
				"z": -0.1356034119,
				"element": "H" 
			},
			{
				"x": 0.4852175007,
				"y": -0.7966078395,
				"z": 0.4200205734,
				"element": "H" 
			},
			{
				"x": 0.4067453518,
				"y": -2.3788865798,
				"z": 1.15213405,
				"element": "H" 
			},
			{
				"x": 0.5531431893,
				"y": -3.4494211291,
				"z": -1.1444214914,
				"element": "H" 
			},
			{
				"x": 1.9843977818,
				"y": -2.6285729665,
				"z": -0.5393845066,
				"element": "H" 
			},
			{
				"x": -0.8450715416,
				"y": -1.0198829592,
				"z": -2.7721889407,
				"element": "H" 
			},
			{
				"x": 0.2718940348,
				"y": -1.4562563797,
				"z": -4.0757775205,
				"element": "H" 
			},
			{
				"x": -0.4886554096,
				"y": -2.7294060582,
				"z": -3.1076888966,
				"element": "H" 
			},
			{
				"x": 2.6630904226,
				"y": -0.5296990376,
				"z": -1.4777735416,
				"element": "H" 
			},
			{
				"x": 2.0331797108,
				"y": -0.0936575484,
				"z": -3.0751806896,
				"element": "H" 
			},
			{
				"x": 1.1199415324,
				"y": 0.3432010001,
				"z": -1.618150238,
				"element": "H" 
			}
		],
		 "valence_orbital": [ 
			{
				"type": "occ",
				"energy": -0.329,
				"method": "rhf"
			},
			{
				"type": "occ",
				"energy": -0.32211,
				"method": "rhf"
			},
			{
				"type": "occ",
				"energy": -0.31469,
				"method": "rhf"
			},
			{
				"type": "occ",
				"energy": -0.20767,
				"method": "rhf"
			},
			{
				"type": "occ",
				"energy": -0.19335,
				"method": "rhf"
			},
			{
				"type": "unocc",
				"energy": 0.06928,
				"method": "rhf"
			},
			{
				"type": "unocc",
				"energy": 0.0924,
				"method": "rhf"
			},
			{
				"type": "unocc",
				"energy": 0.10944,
				"method": "rhf"
			},
			{
				"type": "unocc",
				"energy": 0.12142,
				"method": "rhf"
			},
			{
				"type": "unocc",
				"energy": 0.12906,
				"method": "rhf"
			}
		],
		"cosmo_sigma_profile": { 
			"-0.025": 0.0,
			"-0.024": 0.0,
			"-0.023": 0.0,
			"-0.022": 0.0,
			"-0.021": 0.0,
			"-0.02": 0.0,
			"-0.019": 0.0,
			"-0.018": 0.0,
			"-0.017": 0.0,
			"-0.016": 0.0,
			"-0.015": 0.0,
			"-0.014": 0.0,
			"-0.013": 0.0,
			"-0.012": 0.0,
			"-0.011": 0.0,
			"-0.01": 0.0,
			"-0.009": 0.0,
			"-0.008": 0.0,
			"-0.007": 0.0,
			"-0.006": 0.0,
			"-0.005": 0.0,
			"-0.004": 4.36725320097,
			"-0.003": 25.8309077724,
			"-0.002": 34.7645532342,
			"-0.001": 50.6402761447,
			"0.0": 59.1036040183,
			"0.001": 26.0389860336,
			"0.002": 5.84081351063,
			"0.003": 2.99669922191,
			"0.004": 2.52939343442,
			"0.005": 2.31652087438,
			"0.006": 2.33308495552,
			"0.007": 2.11525033957,
			"0.008": 1.89009188208,
			"0.009": 1.66080184103,
			"0.01": 1.163759114,
			"0.011": 1.32937623894,
			"0.012": 1.9903434924,
			"0.013": 0.912010867955,
			"0.014": 0.774425128624,
			"0.015": 0.508816605728,
			"0.016": 0.445862007851,
			"0.017": 0.00156505082887,
			"0.018": 0.0,
			"0.019": 0.0,
			"0.02": 0.0,
			"0.021": 0.0,
			"0.022": 0.0,
			"0.023": 0.0,
			"0.024": 0.0,
			"0.025": 0.0
		}
	}
}
