{
	 "smiles": "CCOC(=O)C1=C(C)C2=CC=CC=C2N1", 
	 "Tm": 405.15, 
	 "num_atms": 28, 
	 "gaussian": { 
		 "optdone": 1, 
		 "sigma_profile": "yes", 
		 "theory": "DFT", 
		 "functional": "B3LYP", 
		 "basiset": "6-31G**", 
		 "properties": { 
			 "R2extent": 4142.1149, 
			 "electric_dipole_moment_norm": 0.985729176803, 
			 "electric_quadrupole_moment_norm": 10.0668426868, 
			 "total_energy": -670.347591939, 
			 "HOMO_LUMO_gap": 0.16254, 
			 "cosmo_polarized_energy": -8.47, 
			 "cosmo_cavitation_energy": 31.54, 
			 "cosmo_dispersion_energy": -22.91, 
			 "cosmo_repulsion_energy": 1.8, 
			 "cosmo_total_nonelectrostatic_energy": 10.43, 
			 "SMD_solvation_energy": 6.1 
		},
		"coords": [
			{
				"x": 2.0730727337,
				"y": 3.7481373718,
				"z": 1.6262126053,
				"element": "C" 
			},
			{
				"x": 1.9373122288,
				"y": 2.4401145586,
				"z": 2.3910319342,
				"element": "C" 
			},
			{
				"x": 1.3237349602,
				"y": 1.4122682943,
				"z": 1.5754721568,
				"element": "O" 
			},
			{
				"x": -0.0265397759,
				"y": 1.3968560849,
				"z": 1.5468940622,
				"element": "C" 
			},
			{
				"x": -0.7302626581,
				"y": 2.1818961856,
				"z": 2.1664546376,
				"element": "O" 
			},
			{
				"x": -0.5892579471,
				"y": 0.3393322738,
				"z": 0.7025075026,
				"element": "C" 
			},
			{
				"x": -0.0566650079,
				"y": -0.6623403334,
				"z": -0.0969512918,
				"element": "C" 
			},
			{
				"x": 1.3800035919,
				"y": -0.9980417863,
				"z": -0.3591934309,
				"element": "C" 
			},
			{
				"x": -1.1822029994,
				"y": -1.3583587914,
				"z": -0.6560668041,
				"element": "C" 
			},
			{
				"x": -1.2982491086,
				"y": -2.4551051589,
				"z": -1.5326680951,
				"element": "C" 
			},
			{
				"x": -2.5620497777,
				"y": -2.8982447026,
				"z": -1.8900717414,
				"element": "C" 
			},
			{
				"x": -3.7239190937,
				"y": -2.2671166468,
				"z": -1.3886938684,
				"element": "C" 
			},
			{
				"x": -3.6461343398,
				"y": -1.1849366272,
				"z": -0.5239798809,
				"element": "C" 
			},
			{
				"x": -2.3666398331,
				"y": -0.7374452765,
				"z": -0.1632877206,
				"element": "C" 
			},
			{
				"x": -1.9766065986,
				"y": 0.2861199821,
				"z": 0.6548017694,
				"element": "N" 
			},
			{
				"x": 2.6093785007,
				"y": 4.4812444006,
				"z": 2.2380576657,
				"element": "H" 
			},
			{
				"x": 1.0882505324,
				"y": 4.1560924152,
				"z": 1.3867125925,
				"element": "H" 
			},
			{
				"x": 2.6322523853,
				"y": 3.6009164404,
				"z": 0.6975397439,
				"element": "H" 
			},
			{
				"x": 1.3416422806,
				"y": 2.572548091,
				"z": 3.296955067,
				"element": "H" 
			},
			{
				"x": 2.913483106,
				"y": 2.0262726184,
				"z": 2.6545535907,
				"element": "H" 
			},
			{
				"x": 1.5925081635,
				"y": -0.9827619491,
				"z": -1.4350494579,
				"element": "H" 
			},
			{
				"x": 1.6168606984,
				"y": -2.0082867058,
				"z": -0.0029258304,
				"element": "H" 
			},
			{
				"x": 2.0515404365,
				"y": -0.2966439536,
				"z": 0.1339400745,
				"element": "H" 
			},
			{
				"x": -0.4099162426,
				"y": -2.9451400944,
				"z": -1.9212282256,
				"element": "H" 
			},
			{
				"x": -2.6676808248,
				"y": -3.7425568028,
				"z": -2.5647554089,
				"element": "H" 
			},
			{
				"x": -4.6997300855,
				"y": -2.6386815345,
				"z": -1.6879689612,
				"element": "H" 
			},
			{
				"x": -4.540884689,
				"y": -0.7029847893,
				"z": -0.1411657676,
				"element": "H" 
			},
			{
				"x": -2.5530006359,
				"y": 0.9327464359,
				"z": 1.1713730822,
				"element": "H" 
			}
		],
		 "valence_orbital": [ 
			{
				"type": "occ",
				"energy": -0.29892,
				"method": "rhf"
			},
			{
				"type": "occ",
				"energy": -0.2776,
				"method": "rhf"
			},
			{
				"type": "occ",
				"energy": -0.27271,
				"method": "rhf"
			},
			{
				"type": "occ",
				"energy": -0.22301,
				"method": "rhf"
			},
			{
				"type": "occ",
				"energy": -0.20549,
				"method": "rhf"
			},
			{
				"type": "unocc",
				"energy": -0.04295,
				"method": "rhf"
			},
			{
				"type": "unocc",
				"energy": 0.02042,
				"method": "rhf"
			},
			{
				"type": "unocc",
				"energy": 0.03103,
				"method": "rhf"
			},
			{
				"type": "unocc",
				"energy": 0.10001,
				"method": "rhf"
			},
			{
				"type": "unocc",
				"energy": 0.10244,
				"method": "rhf"
			}
		],
		"cosmo_sigma_profile": { 
			"-0.025": 0.0,
			"-0.024": 0.0,
			"-0.023": 0.0,
			"-0.022": 0.0,
			"-0.021": 0.0,
			"-0.02": 0.0,
			"-0.019": 0.0,
			"-0.018": 0.0,
			"-0.017": 0.0,
			"-0.016": 0.0,
			"-0.015": 0.110047261088,
			"-0.014": 0.70395641693,
			"-0.013": 1.14476541519,
			"-0.012": 0.625956402361,
			"-0.011": 0.975939807201,
			"-0.01": 1.15746571938,
			"-0.009": 0.787993731043,
			"-0.008": 0.704443487894,
			"-0.007": 1.91949295597,
			"-0.006": 5.89517123966,
			"-0.005": 12.4136763176,
			"-0.004": 22.6171242502,
			"-0.003": 25.636778857,
			"-0.002": 24.1732023914,
			"-0.001": 22.5984601857,
			"0.0": 25.7560371528,
			"0.001": 16.8273133833,
			"0.002": 15.613134357,
			"0.003": 19.1357991888,
			"0.004": 16.2253650376,
			"0.005": 12.9644738713,
			"0.006": 9.98422376806,
			"0.007": 2.43818950536,
			"0.008": 0.879232618864,
			"0.009": 1.76888637769,
			"0.01": 1.94853342193,
			"0.011": 2.16201573893,
			"0.012": 3.12773008852,
			"0.013": 0.243679638342,
			"0.014": 0.0,
			"0.015": 0.0,
			"0.016": 0.0,
			"0.017": 0.0,
			"0.018": 0.0,
			"0.019": 0.0,
			"0.02": 0.0,
			"0.021": 0.0,
			"0.022": 0.0,
			"0.023": 0.0,
			"0.024": 0.0,
			"0.025": 0.0
		}
	}
}
