{
	 "smiles": "CC12CCC3C(CC[C@H]4CC(=O)CCC34C)C1C=CC2=O", 
	 "Tm": 445.15, 
	 "num_atms": 47, 
	 "gaussian": { 
		 "optdone": 1, 
		 "sigma_profile": "yes", 
		 "theory": "DFT", 
		 "functional": "B3LYP", 
		 "basiset": "6-31G**", 
		 "properties": { 
			 "R2extent": 6436.6248, 
			 "electric_dipole_moment_norm": 3.70957687749, 
			 "electric_quadrupole_moment_norm": 32.4455482879, 
			 "total_energy": -890.139397965, 
			 "HOMO_LUMO_gap": 0.18708, 
			 "cosmo_polarized_energy": -15.52, 
			 "cosmo_cavitation_energy": 41.45, 
			 "cosmo_dispersion_energy": -29.08, 
			 "cosmo_repulsion_energy": 2.14, 
			 "cosmo_total_nonelectrostatic_energy": 14.52, 
			 "SMD_solvation_energy": 7.02 
		},
		"coords": [
			{
				"x": -2.0261735132,
				"y": 2.7150989744,
				"z": 0.9186176675,
				"element": "C" 
			},
			{
				"x": -0.5552841396,
				"y": 2.8460138411,
				"z": 0.5111114573,
				"element": "C" 
			},
			{
				"x": -0.3468443341,
				"y": 2.4714798994,
				"z": -0.9838470633,
				"element": "C" 
			},
			{
				"x": -0.2220257463,
				"y": 0.9654791897,
				"z": -1.2377070119,
				"element": "C" 
			},
			{
				"x": 0.995166629,
				"y": 0.3854068336,
				"z": -0.4878538406,
				"element": "C" 
			},
			{
				"x": 0.8364202803,
				"y": 0.6194816395,
				"z": 1.0409261423,
				"element": "C" 
			},
			{
				"x": -0.1238324938,
				"y": -0.4113980299,
				"z": 1.6649787198,
				"element": "C" 
			},
			{
				"x": 0.379689277,
				"y": -1.8402535514,
				"z": 1.4319506797,
				"element": "C" 
			},
			{
				"x": 0.5572682914,
				"y": -2.1741062871,
				"z": -0.0630727495,
				"element": "C" 
			},
			{
				"x": -0.8124643249,
				"y": -2.4829020773,
				"z": -0.7193629491,
				"element": "C" 
			},
			{
				"x": -0.6745070573,
				"y": -2.8412222684,
				"z": -2.1867823278,
				"element": "C" 
			},
			{
				"x": -1.1337676903,
				"y": -3.8631905713,
				"z": -2.6615648545,
				"element": "O" 
			},
			{
				"x": 0.0844630507,
				"y": -1.8171049148,
				"z": -3.0093286265,
				"element": "C" 
			},
			{
				"x": 1.4167358898,
				"y": -1.4012064198,
				"z": -2.3460535723,
				"element": "C" 
			},
			{
				"x": 1.4140503393,
				"y": -1.1003302735,
				"z": -0.8154089447,
				"element": "C" 
			},
			{
				"x": 2.8931424238,
				"y": -1.2626171844,
				"z": -0.3724302515,
				"element": "C" 
			},
			{
				"x": 0.4552698303,
				"y": 2.0762364184,
				"z": 1.4168889943,
				"element": "C" 
			},
			{
				"x": 1.6177717888,
				"y": 3.0441524167,
				"z": 1.5328260712,
				"element": "C" 
			},
			{
				"x": 1.3142626547,
				"y": 4.2877470571,
				"z": 1.1333229945,
				"element": "C" 
			},
			{
				"x": -0.0781554658,
				"y": 4.3147055538,
				"z": 0.6275268941,
				"element": "C" 
			},
			{
				"x": -0.7341426925,
				"y": 5.2928781896,
				"z": 0.3191243215,
				"element": "O" 
			},
			{
				"x": -2.1589180911,
				"y": 2.8830377542,
				"z": 1.9926629174,
				"element": "H" 
			},
			{
				"x": -2.617561403,
				"y": 3.467472942,
				"z": 0.3886031344,
				"element": "H" 
			},
			{
				"x": -2.4306592399,
				"y": 1.7258360319,
				"z": 0.6821646188,
				"element": "H" 
			},
			{
				"x": 0.5689254516,
				"y": 2.9501583616,
				"z": -1.3543065578,
				"element": "H" 
			},
			{
				"x": -1.1713156554,
				"y": 2.8988329507,
				"z": -1.564761727,
				"element": "H" 
			},
			{
				"x": -0.1015773707,
				"y": 0.8229012835,
				"z": -2.3148543359,
				"element": "H" 
			},
			{
				"x": -1.1519537763,
				"y": 0.4589296814,
				"z": -0.9563000579,
				"element": "H" 
			},
			{
				"x": 1.8487319141,
				"y": 0.9975456264,
				"z": -0.8190236395,
				"element": "H" 
			},
			{
				"x": 1.8140378522,
				"y": 0.4418354188,
				"z": 1.5101866863,
				"element": "H" 
			},
			{
				"x": -0.2086741918,
				"y": -0.2243436327,
				"z": 2.7426309585,
				"element": "H" 
			},
			{
				"x": -1.1362037414,
				"y": -0.2919020129,
				"z": 1.2595931766,
				"element": "H" 
			},
			{
				"x": -0.3067276302,
				"y": -2.5655392468,
				"z": 1.8853023809,
				"element": "H" 
			},
			{
				"x": 1.3383764059,
				"y": -1.9646831045,
				"z": 1.9509524807,
				"element": "H" 
			},
			{
				"x": 1.1264963532,
				"y": -3.1128326862,
				"z": -0.1222024703,
				"element": "H" 
			},
			{
				"x": -1.4830713502,
				"y": -1.6176806435,
				"z": -0.6435899128,
				"element": "H" 
			},
			{
				"x": -1.2966910685,
				"y": -3.318873533,
				"z": -0.2060005598,
				"element": "H" 
			},
			{
				"x": 0.2630464214,
				"y": -2.2328698185,
				"z": -4.0048275855,
				"element": "H" 
			},
			{
				"x": -0.5807952443,
				"y": -0.9542661114,
				"z": -3.1323665524,
				"element": "H" 
			},
			{
				"x": 1.8408148814,
				"y": -0.5421048608,
				"z": -2.8814478711,
				"element": "H" 
			},
			{
				"x": 2.1199131874,
				"y": -2.2270944205,
				"z": -2.5106013369,
				"element": "H" 
			},
			{
				"x": 3.5422793001,
				"y": -0.6025603186,
				"z": -0.9586266673,
				"element": "H" 
			},
			{
				"x": 3.2345694879,
				"y": -2.2904282238,
				"z": -0.5339078161,
				"element": "H" 
			},
			{
				"x": 3.0541456993,
				"y": -1.0277088276,
				"z": 0.6821249012,
				"element": "H" 
			},
			{
				"x": 0.0196172147,
				"y": 2.0185114628,
				"z": 2.4272055681,
				"element": "H" 
			},
			{
				"x": 2.5702983923,
				"y": 2.7393724949,
				"z": 1.9604916018,
				"element": "H" 
			},
			{
				"x": 1.9439532037,
				"y": 5.1685049971,
				"z": 1.183336915,
				"element": "H" 
			}
		],
		 "valence_orbital": [ 
			{
				"type": "occ",
				"energy": -0.29971,
				"method": "rhf"
			},
			{
				"type": "occ",
				"energy": -0.29435,
				"method": "rhf"
			},
			{
				"type": "occ",
				"energy": -0.27021,
				"method": "rhf"
			},
			{
				"type": "occ",
				"energy": -0.23695,
				"method": "rhf"
			},
			{
				"type": "occ",
				"energy": -0.23616,
				"method": "rhf"
			},
			{
				"type": "unocc",
				"energy": -0.04908,
				"method": "rhf"
			},
			{
				"type": "unocc",
				"energy": -0.01337,
				"method": "rhf"
			},
			{
				"type": "unocc",
				"energy": 0.05421,
				"method": "rhf"
			},
			{
				"type": "unocc",
				"energy": 0.06136,
				"method": "rhf"
			},
			{
				"type": "unocc",
				"energy": 0.06443,
				"method": "rhf"
			}
		],
		"cosmo_sigma_profile": { 
			"-0.025": 0.0,
			"-0.024": 0.0,
			"-0.023": 0.0,
			"-0.022": 0.0,
			"-0.021": 0.0,
			"-0.02": 0.0,
			"-0.019": 0.0,
			"-0.018": 0.0,
			"-0.017": 0.0,
			"-0.016": 0.0,
			"-0.015": 0.0,
			"-0.014": 0.0,
			"-0.013": 0.0,
			"-0.012": 0.0,
			"-0.011": 0.0,
			"-0.01": 0.473298551569,
			"-0.009": 0.219470655279,
			"-0.008": 0.102602586076,
			"-0.007": 2.52597238588,
			"-0.006": 7.1738673757,
			"-0.005": 13.1113966807,
			"-0.004": 24.0166999979,
			"-0.003": 46.125347547,
			"-0.002": 53.5413902547,
			"-0.001": 44.9399621728,
			"0.0": 38.1369494088,
			"0.001": 26.4590028019,
			"0.002": 10.2562477676,
			"0.003": 5.33770655435,
			"0.004": 4.29203128252,
			"0.005": 3.08120480776,
			"0.006": 2.98293411412,
			"0.007": 3.69391892795,
			"0.008": 2.71433589095,
			"0.009": 3.35793166813,
			"0.01": 3.68288406773,
			"0.011": 4.94258316921,
			"0.012": 8.36976167257,
			"0.013": 8.13690056965,
			"0.014": 2.44158029925,
			"0.015": 0.0,
			"0.016": 0.0,
			"0.017": 0.0,
			"0.018": 0.0,
			"0.019": 0.0,
			"0.02": 0.0,
			"0.021": 0.0,
			"0.022": 0.0,
			"0.023": 0.0,
			"0.024": 0.0,
			"0.025": 0.0
		}
	}
}
