{
	 "smiles": "O=CCN1C(=O)COC2=C1C=CC=C2", 
	 "Tm": 371.15, 
	 "num_atms": 23, 
	 "gaussian": { 
		 "optdone": 1, 
		 "sigma_profile": "yes", 
		 "theory": "DFT", 
		 "functional": "B3LYP", 
		 "basiset": "6-31G**", 
		 "properties": { 
			 "R2extent": 2649.5172, 
			 "electric_dipole_moment_norm": 2.77648393116, 
			 "electric_quadrupole_moment_norm": 6.50402629069, 
			 "total_energy": -666.893839691, 
			 "HOMO_LUMO_gap": 0.18297, 
			 "cosmo_polarized_energy": -11.92, 
			 "cosmo_cavitation_energy": 27.01, 
			 "cosmo_dispersion_energy": -19.7, 
			 "cosmo_repulsion_energy": 1.54, 
			 "cosmo_total_nonelectrostatic_energy": 8.85, 
			 "SMD_solvation_energy": 6.31 
		},
		"coords": [
			{
				"x": -0.4492620859,
				"y": -3.9712258788,
				"z": -0.9100779446,
				"element": "O" 
			},
			{
				"x": -0.517899842,
				"y": -2.7920877052,
				"z": -1.1671281729,
				"element": "C" 
			},
			{
				"x": -1.5219224685,
				"y": -1.853888748,
				"z": -0.5132332617,
				"element": "C" 
			},
			{
				"x": -1.0124869014,
				"y": -0.4964877787,
				"z": -0.3711173391,
				"element": "N" 
			},
			{
				"x": -1.6794455573,
				"y": 0.5234665456,
				"z": -1.0235293721,
				"element": "C" 
			},
			{
				"x": -2.6547804485,
				"y": 0.342442941,
				"z": -1.7365450346,
				"element": "O" 
			},
			{
				"x": -1.1445544367,
				"y": 1.9209990838,
				"z": -0.7433234609,
				"element": "C" 
			},
			{
				"x": 0.2607559316,
				"y": 1.9635825785,
				"z": -0.5205004694,
				"element": "O" 
			},
			{
				"x": 0.7147935692,
				"y": 1.0356150147,
				"z": 0.3810814414,
				"element": "C" 
			},
			{
				"x": 0.0894366523,
				"y": -0.2210363346,
				"z": 0.4815562986,
				"element": "C" 
			},
			{
				"x": 0.6012208298,
				"y": -1.1622034344,
				"z": 1.3820822625,
				"element": "C" 
			},
			{
				"x": 1.722936818,
				"y": -0.8562077666,
				"z": 2.1562329538,
				"element": "C" 
			},
			{
				"x": 2.3412747086,
				"y": 0.3878929336,
				"z": 2.0408708575,
				"element": "C" 
			},
			{
				"x": 1.8308840932,
				"y": 1.3376611545,
				"z": 1.1543628444,
				"element": "C" 
			},
			{
				"x": 0.1353192885,
				"y": -2.3129557083,
				"z": -1.9295986237,
				"element": "H" 
			},
			{
				"x": -1.8500634867,
				"y": -2.274054641,
				"z": 0.4428536774,
				"element": "H" 
			},
			{
				"x": -2.3960210836,
				"y": -1.7770677537,
				"z": -1.1706995792,
				"element": "H" 
			},
			{
				"x": -1.3529504235,
				"y": 2.5447447756,
				"z": -1.612287539,
				"element": "H" 
			},
			{
				"x": -1.6860066,
				"y": 2.3325170498,
				"z": 0.1233554728,
				"element": "H" 
			},
			{
				"x": 0.1419799286,
				"y": -2.1394927949,
				"z": 1.4732595613,
				"element": "H" 
			},
			{
				"x": 2.1102365697,
				"y": -1.5997471735,
				"z": 2.8452536972,
				"element": "H" 
			},
			{
				"x": 3.2140260285,
				"y": 0.6252430668,
				"z": 2.6407682291,
				"element": "H" 
			},
			{
				"x": 2.285928916,
				"y": 2.3158905736,
				"z": 1.0400635012,
				"element": "H" 
			}
		],
		 "valence_orbital": [ 
			{
				"type": "occ",
				"energy": -0.31854,
				"method": "rhf"
			},
			{
				"type": "occ",
				"energy": -0.275,
				"method": "rhf"
			},
			{
				"type": "occ",
				"energy": -0.27072,
				"method": "rhf"
			},
			{
				"type": "occ",
				"energy": -0.25041,
				"method": "rhf"
			},
			{
				"type": "occ",
				"energy": -0.22467,
				"method": "rhf"
			},
			{
				"type": "unocc",
				"energy": -0.0417,
				"method": "rhf"
			},
			{
				"type": "unocc",
				"energy": -0.02679,
				"method": "rhf"
			},
			{
				"type": "unocc",
				"energy": -0.00811,
				"method": "rhf"
			},
			{
				"type": "unocc",
				"energy": 0.01567,
				"method": "rhf"
			},
			{
				"type": "unocc",
				"energy": 0.07759,
				"method": "rhf"
			}
		],
		"cosmo_sigma_profile": { 
			"-0.025": 0.0,
			"-0.024": 0.0,
			"-0.023": 0.0,
			"-0.022": 0.0,
			"-0.021": 0.0,
			"-0.02": 0.0,
			"-0.019": 0.0,
			"-0.018": 0.0,
			"-0.017": 0.0,
			"-0.016": 0.0,
			"-0.015": 0.0,
			"-0.014": 0.0,
			"-0.013": 0.0,
			"-0.012": 0.0,
			"-0.011": 0.0,
			"-0.01": 0.0,
			"-0.009": 0.808336460422,
			"-0.008": 7.81077398608,
			"-0.007": 15.1625093545,
			"-0.006": 17.4492940038,
			"-0.005": 18.3453428877,
			"-0.004": 17.0804340957,
			"-0.003": 13.4124640776,
			"-0.002": 13.0788892854,
			"-0.001": 11.6187355707,
			"0.0": 8.95453809934,
			"0.001": 9.65042215199,
			"0.002": 11.5707763943,
			"0.003": 11.857680353,
			"0.004": 12.6014674425,
			"0.005": 10.0830837933,
			"0.006": 3.05983314068,
			"0.007": 4.3686791389,
			"0.008": 4.33364907828,
			"0.009": 4.71391965803,
			"0.01": 6.78615434812,
			"0.011": 6.80308092521,
			"0.012": 5.15940108175,
			"0.013": 1.21871497723,
			"0.014": 0.0175360615747,
			"0.015": 0.0,
			"0.016": 0.0,
			"0.017": 0.0,
			"0.018": 0.0,
			"0.019": 0.0,
			"0.02": 0.0,
			"0.021": 0.0,
			"0.022": 0.0,
			"0.023": 0.0,
			"0.024": 0.0,
			"0.025": 0.0
		}
	}
}
