{
	 "smiles": "COC1=CC=CC(OC)=C1O", 
	 "Tm": 328.35, 
	 "num_atms": 21, 
	 "gaussian": { 
		 "optdone": 1, 
		 "sigma_profile": "yes", 
		 "theory": "DFT", 
		 "functional": "B3LYP", 
		 "basiset": "6-31G**", 
		 "properties": { 
			 "R2extent": 2066.0578, 
			 "electric_dipole_moment_norm": 2.69022357063, 
			 "electric_quadrupole_moment_norm": 7.06586244276, 
			 "total_energy": -536.512067, 
			 "HOMO_LUMO_gap": 0.21719, 
			 "cosmo_polarized_energy": -7.71, 
			 "cosmo_cavitation_energy": 24.16, 
			 "cosmo_dispersion_energy": -18.34, 
			 "cosmo_repulsion_energy": 1.47, 
			 "cosmo_total_nonelectrostatic_energy": 7.29, 
			 "SMD_solvation_energy": 5.98 
		},
		"coords": [
			{
				"x": 3.5892722492,
				"y": 0.8346072331,
				"z": -0.71857355,
				"element": "C" 
			},
			{
				"x": 3.0716586566,
				"y": -0.4876685827,
				"z": -0.8535666538,
				"element": "O" 
			},
			{
				"x": 1.8194169316,
				"y": -0.8235317673,
				"z": -0.4260046215,
				"element": "C" 
			},
			{
				"x": 1.4741747112,
				"y": -2.1700521164,
				"z": -0.6390892151,
				"element": "C" 
			},
			{
				"x": 0.2356404059,
				"y": -2.6654328464,
				"z": -0.2592737905,
				"element": "C" 
			},
			{
				"x": -0.7090349656,
				"y": -1.8313599204,
				"z": 0.350304103,
				"element": "C" 
			},
			{
				"x": -0.372005767,
				"y": -0.4988550977,
				"z": 0.5630916668,
				"element": "C" 
			},
			{
				"x": -1.183503607,
				"y": 0.4497131599,
				"z": 1.1480304194,
				"element": "O" 
			},
			{
				"x": -2.4764207776,
				"y": 0.0532447867,
				"z": 1.5762787484,
				"element": "C" 
			},
			{
				"x": 0.8825069802,
				"y": 0.0241269959,
				"z": 0.1839975833,
				"element": "C" 
			},
			{
				"x": 1.1406613819,
				"y": 1.3497338717,
				"z": 0.4275632839,
				"element": "O" 
			},
			{
				"x": 3.6487423492,
				"y": 1.1439660412,
				"z": 0.3284955328,
				"element": "H" 
			},
			{
				"x": 2.990260079,
				"y": 1.5648559991,
				"z": -1.269515679,
				"element": "H" 
			},
			{
				"x": 4.5939895264,
				"y": 0.7892632579,
				"z": -1.1445467116,
				"element": "H" 
			},
			{
				"x": 2.2165533687,
				"y": -2.8035252249,
				"z": -1.1123668512,
				"element": "H" 
			},
			{
				"x": -0.0047972037,
				"y": -3.7091257175,
				"z": -0.4356502577,
				"element": "H" 
			},
			{
				"x": -1.6761666852,
				"y": -2.2185081689,
				"z": 0.6467770273,
				"element": "H" 
			},
			{
				"x": -2.4205279146,
				"y": -0.7306352897,
				"z": 2.3417810109,
				"element": "H" 
			},
			{
				"x": -2.9428638052,
				"y": 0.9425416202,
				"z": 2.0030661627,
				"element": "H" 
			},
			{
				"x": -3.0823833537,
				"y": -0.3070048832,
				"z": 0.7356787825,
				"element": "H" 
			},
			{
				"x": 0.3420274397,
				"y": 1.7027466494,
				"z": 0.8498230092,
				"element": "H" 
			}
		],
		 "valence_orbital": [ 
			{
				"type": "occ",
				"energy": -0.33837,
				"method": "rhf"
			},
			{
				"type": "occ",
				"energy": -0.31261,
				"method": "rhf"
			},
			{
				"type": "occ",
				"energy": -0.29414,
				"method": "rhf"
			},
			{
				"type": "occ",
				"energy": -0.20948,
				"method": "rhf"
			},
			{
				"type": "occ",
				"energy": -0.19591,
				"method": "rhf"
			},
			{
				"type": "unocc",
				"energy": 0.02128,
				"method": "rhf"
			},
			{
				"type": "unocc",
				"energy": 0.02355,
				"method": "rhf"
			},
			{
				"type": "unocc",
				"energy": 0.07138,
				"method": "rhf"
			},
			{
				"type": "unocc",
				"energy": 0.09576,
				"method": "rhf"
			},
			{
				"type": "unocc",
				"energy": 0.12361,
				"method": "rhf"
			}
		],
		"cosmo_sigma_profile": { 
			"-0.025": 0.0,
			"-0.024": 0.0,
			"-0.023": 0.0,
			"-0.022": 0.0,
			"-0.021": 0.0,
			"-0.02": 0.0,
			"-0.019": 0.0,
			"-0.018": 0.0,
			"-0.017": 0.0,
			"-0.016": 0.0,
			"-0.015": 0.0,
			"-0.014": 0.0667134609822,
			"-0.013": 0.457185080903,
			"-0.012": 0.449757573933,
			"-0.011": 0.52716950486,
			"-0.01": 1.04229505884,
			"-0.009": 0.343095874599,
			"-0.008": 0.282197901317,
			"-0.007": 1.08095113501,
			"-0.006": 7.72665296597,
			"-0.005": 17.8341392628,
			"-0.004": 19.9154943195,
			"-0.003": 21.7794167652,
			"-0.002": 15.1098108971,
			"-0.001": 10.5782048993,
			"0.0": 9.74594670015,
			"0.001": 9.37810322636,
			"0.002": 11.685875964,
			"0.003": 14.2590700631,
			"0.004": 12.2016152824,
			"0.005": 12.8141598635,
			"0.006": 10.3581325196,
			"0.007": 6.01515244526,
			"0.008": 3.73465828021,
			"0.009": 1.53315241207,
			"0.01": 1.85221097499,
			"0.011": 0.692577081049,
			"0.012": 0.0,
			"0.013": 0.0,
			"0.014": 0.0,
			"0.015": 0.0,
			"0.016": 0.0,
			"0.017": 0.0,
			"0.018": 0.0,
			"0.019": 0.0,
			"0.02": 0.0,
			"0.021": 0.0,
			"0.022": 0.0,
			"0.023": 0.0,
			"0.024": 0.0,
			"0.025": 0.0
		}
	}
}
