{
	 "smiles": "CC12CCC3C(CCC4=CC(=O)CCC34C)C1CCC2=O", 
	 "Tm": 443.15, 
	 "num_atms": 47, 
	 "gaussian": { 
		 "optdone": 1, 
		 "sigma_profile": "yes", 
		 "theory": "DFT", 
		 "functional": "B3LYP", 
		 "basiset": "6-31G**", 
		 "properties": { 
			 "R2extent": 6653.5409, 
			 "electric_dipole_moment_norm": 3.36717526125, 
			 "electric_quadrupole_moment_norm": 43.6637573192, 
			 "total_energy": -890.140755794, 
			 "HOMO_LUMO_gap": 0.18687, 
			 "cosmo_polarized_energy": -15.76, 
			 "cosmo_cavitation_energy": 41.29, 
			 "cosmo_dispersion_energy": -29.19, 
			 "cosmo_repulsion_energy": 2.15, 
			 "cosmo_total_nonelectrostatic_energy": 14.25, 
			 "SMD_solvation_energy": 6.86 
		},
		"coords": [
			{
				"x": -0.0918653473,
				"y": 2.1375746874,
				"z": -2.54444799,
				"element": "C" 
			},
			{
				"x": -0.0911829031,
				"y": 0.5964580583,
				"z": -2.3987347584,
				"element": "C" 
			},
			{
				"x": 1.253608794,
				"y": 0.1001951882,
				"z": -1.8290496899,
				"element": "C" 
			},
			{
				"x": 1.3925540156,
				"y": 0.421849132,
				"z": -0.3345317161,
				"element": "C" 
			},
			{
				"x": 0.2529811649,
				"y": -0.1854290396,
				"z": 0.538639568,
				"element": "C" 
			},
			{
				"x": -0.8937526729,
				"y": -0.7779205432,
				"z": -0.3467856756,
				"element": "C" 
			},
			{
				"x": -2.0879571313,
				"y": -1.2725687923,
				"z": 0.5009639009,
				"element": "C" 
			},
			{
				"x": -2.5494608591,
				"y": -0.2669267872,
				"z": 1.5801751297,
				"element": "C" 
			},
			{
				"x": -1.3505075046,
				"y": 0.0432516765,
				"z": 2.4350907479,
				"element": "C" 
			},
			{
				"x": -1.2515637023,
				"y": -0.4287748625,
				"z": 3.6955751062,
				"element": "C" 
			},
			{
				"x": 0.0018752556,
				"y": -0.4485791045,
				"z": 4.4721538258,
				"element": "C" 
			},
			{
				"x": 0.0406603772,
				"y": -0.8249939179,
				"z": 5.6354753034,
				"element": "O" 
			},
			{
				"x": 1.251695996,
				"y": -0.0644366645,
				"z": 3.694281348,
				"element": "C" 
			},
			{
				"x": 0.9529910256,
				"y": 1.0562802222,
				"z": 2.6948268086,
				"element": "C" 
			},
			{
				"x": -0.2150740734,
				"y": 0.7613867413,
				"z": 1.7136260986,
				"element": "C" 
			},
			{
				"x": -0.7280193806,
				"y": 2.1429681607,
				"z": 1.2290060789,
				"element": "C" 
			},
			{
				"x": -1.3174851625,
				"y": 0.0835381873,
				"z": -1.5636009459,
				"element": "C" 
			},
			{
				"x": -2.2082718558,
				"y": -0.7386668342,
				"z": -2.5555857941,
				"element": "C" 
			},
			{
				"x": -1.7868338917,
				"y": -0.327640061,
				"z": -3.9729652499,
				"element": "C" 
			},
			{
				"x": -0.318670302,
				"y": 0.0478644194,
				"z": -3.8203519375,
				"element": "C" 
			},
			{
				"x": 0.5420370377,
				"y": -0.0566044949,
				"z": -4.6680553082,
				"element": "O" 
			},
			{
				"x": 0.715571125,
				"y": 2.4561442798,
				"z": -3.2110652444,
				"element": "H" 
			},
			{
				"x": 0.0423807815,
				"y": 2.6306404721,
				"z": -1.5782449138,
				"element": "H" 
			},
			{
				"x": -1.0382783519,
				"y": 2.4969047689,
				"z": -2.9636692794,
				"element": "H" 
			},
			{
				"x": 1.3466575675,
				"y": -0.9804993077,
				"z": -1.9902485781,
				"element": "H" 
			},
			{
				"x": 2.0718602618,
				"y": 0.5551427979,
				"z": -2.3959826587,
				"element": "H" 
			},
			{
				"x": 1.4231939462,
				"y": 1.509411098,
				"z": -0.2163243445,
				"element": "H" 
			},
			{
				"x": 2.3638645197,
				"y": 0.0612749436,
				"z": 0.0204981963,
				"element": "H" 
			},
			{
				"x": 0.6708395838,
				"y": -1.0616631963,
				"z": 1.0519411636,
				"element": "H" 
			},
			{
				"x": -0.4577417849,
				"y": -1.6827675831,
				"z": -0.7924343721,
				"element": "H" 
			},
			{
				"x": -2.9302725788,
				"y": -1.539968151,
				"z": -0.1461000344,
				"element": "H" 
			},
			{
				"x": -1.7917732994,
				"y": -2.1932030668,
				"z": 1.0184745985,
				"element": "H" 
			},
			{
				"x": -2.9576354554,
				"y": 0.6343447607,
				"z": 1.1084304359,
				"element": "H" 
			},
			{
				"x": -3.3499868376,
				"y": -0.7086446241,
				"z": 2.1817332318,
				"element": "H" 
			},
			{
				"x": -2.1031876363,
				"y": -0.9070785258,
				"z": 4.1751812574,
				"element": "H" 
			},
			{
				"x": 1.6072549703,
				"y": -0.9681399418,
				"z": 3.179144007,
				"element": "H" 
			},
			{
				"x": 2.0331052277,
				"y": 0.2229395618,
				"z": 4.4033377619,
				"element": "H" 
			},
			{
				"x": 0.6888930157,
				"y": 1.9542950751,
				"z": 3.2677441685,
				"element": "H" 
			},
			{
				"x": 1.8536938763,
				"y": 1.3156161071,
				"z": 2.1287322628,
				"element": "H" 
			},
			{
				"x": 0.1004261047,
				"y": 2.7564622428,
				"z": 0.8625415919,
				"element": "H" 
			},
			{
				"x": -1.4717607387,
				"y": 2.0802767774,
				"z": 0.4344829535,
				"element": "H" 
			},
			{
				"x": -1.1800443458,
				"y": 2.6828344305,
				"z": 2.0676241828,
				"element": "H" 
			},
			{
				"x": -1.8980415974,
				"y": 0.948092236,
				"z": -1.2234811926,
				"element": "H" 
			},
			{
				"x": -3.2759624302,
				"y": -0.5882745877,
				"z": -2.3751093576,
				"element": "H" 
			},
			{
				"x": -2.0121593001,
				"y": -1.8095977224,
				"z": -2.420312735,
				"element": "H" 
			},
			{
				"x": -2.32703429,
				"y": 0.5706185343,
				"z": -4.3037818993,
				"element": "H" 
			},
			{
				"x": -1.9260212139,
				"y": -1.0930867507,
				"z": -4.7396160525,
				"element": "H" 
			}
		],
		 "valence_orbital": [ 
			{
				"type": "occ",
				"energy": -0.30091,
				"method": "rhf"
			},
			{
				"type": "occ",
				"energy": -0.29436,
				"method": "rhf"
			},
			{
				"type": "occ",
				"energy": -0.25467,
				"method": "rhf"
			},
			{
				"type": "occ",
				"energy": -0.23894,
				"method": "rhf"
			},
			{
				"type": "occ",
				"energy": -0.23112,
				"method": "rhf"
			},
			{
				"type": "unocc",
				"energy": -0.04425,
				"method": "rhf"
			},
			{
				"type": "unocc",
				"energy": -0.02024,
				"method": "rhf"
			},
			{
				"type": "unocc",
				"energy": 0.05212,
				"method": "rhf"
			},
			{
				"type": "unocc",
				"energy": 0.06545,
				"method": "rhf"
			},
			{
				"type": "unocc",
				"energy": 0.07191,
				"method": "rhf"
			}
		],
		"cosmo_sigma_profile": { 
			"-0.025": 0.0,
			"-0.024": 0.0,
			"-0.023": 0.0,
			"-0.022": 0.0,
			"-0.021": 0.0,
			"-0.02": 0.0,
			"-0.019": 0.0,
			"-0.018": 0.0,
			"-0.017": 0.0,
			"-0.016": 0.0,
			"-0.015": 0.0,
			"-0.014": 0.0,
			"-0.013": 0.0,
			"-0.012": 0.0,
			"-0.011": 0.0,
			"-0.01": 0.0,
			"-0.009": 0.00835291451913,
			"-0.008": 0.00774212799701,
			"-0.007": 0.133077148075,
			"-0.006": 3.58111914595,
			"-0.005": 14.2471198099,
			"-0.004": 27.0665485761,
			"-0.003": 49.8194821485,
			"-0.002": 60.0144571027,
			"-0.001": 47.4142735661,
			"0.0": 36.2940697181,
			"0.001": 17.87365682,
			"0.002": 8.35436309898,
			"0.003": 5.17885364902,
			"0.004": 4.41056965806,
			"0.005": 3.98733908083,
			"0.006": 2.69766534425,
			"0.007": 3.6111573077,
			"0.008": 2.55430667682,
			"0.009": 3.17564350539,
			"0.01": 4.41608606261,
			"0.011": 4.36635287521,
			"0.012": 7.62926633124,
			"0.013": 7.84728386192,
			"0.014": 3.42205827552,
			"0.015": 0.665427683567,
			"0.016": 0.0,
			"0.017": 0.0,
			"0.018": 0.0,
			"0.019": 0.0,
			"0.02": 0.0,
			"0.021": 0.0,
			"0.022": 0.0,
			"0.023": 0.0,
			"0.024": 0.0,
			"0.025": 0.0
		}
	}
}
