{
	 "smiles": "NCCC1=CNC2=C1C=C(O)C=C2", 
	 "Tm": 441.15, 
	 "num_atms": 25, 
	 "gaussian": { 
		 "optdone": 1, 
		 "sigma_profile": "yes", 
		 "theory": "DFT", 
		 "functional": "B3LYP", 
		 "basiset": "6-31G**", 
		 "properties": { 
			 "R2extent": 3693.3301, 
			 "electric_dipole_moment_norm": 3.20277227102, 
			 "electric_quadrupole_moment_norm": 12.642799841, 
			 "total_energy": -573.018961599, 
			 "HOMO_LUMO_gap": 0.18615, 
			 "cosmo_polarized_energy": -14.8, 
			 "cosmo_cavitation_energy": 27.99, 
			 "cosmo_dispersion_energy": -20.93, 
			 "cosmo_repulsion_energy": 1.68, 
			 "cosmo_total_nonelectrostatic_energy": 8.74, 
			 "SMD_solvation_energy": 4.08 
		},
		"coords": [
			{
				"x": 1.3400076328,
				"y": -2.0705213467,
				"z": 1.1583097665,
				"element": "N" 
			},
			{
				"x": 0.2026659092,
				"y": -2.1353867695,
				"z": 0.229914227,
				"element": "C" 
			},
			{
				"x": -0.7811600932,
				"y": -0.9791359984,
				"z": 0.453369739,
				"element": "C" 
			},
			{
				"x": -0.2584516475,
				"y": 0.3980028367,
				"z": 0.1436798169,
				"element": "C" 
			},
			{
				"x": 1.0367650266,
				"y": 0.8541477417,
				"z": 0.2346982645,
				"element": "C" 
			},
			{
				"x": 1.096399063,
				"y": 2.1821971806,
				"z": -0.1398079207,
				"element": "N" 
			},
			{
				"x": -0.1707362994,
				"y": 2.6176940485,
				"z": -0.4794571611,
				"element": "C" 
			},
			{
				"x": -1.0506618467,
				"y": 1.5153238487,
				"z": -0.3082711308,
				"element": "C" 
			},
			{
				"x": -2.420215103,
				"y": 1.6865672636,
				"z": -0.5875179639,
				"element": "C" 
			},
			{
				"x": -2.868170657,
				"y": 2.9277295962,
				"z": -1.0254320197,
				"element": "C" 
			},
			{
				"x": -4.188104633,
				"y": 3.1775348432,
				"z": -1.3191652678,
				"element": "O" 
			},
			{
				"x": -1.9780637202,
				"y": 4.0110663802,
				"z": -1.1911294721,
				"element": "C" 
			},
			{
				"x": -0.6242433908,
				"y": 3.8646026797,
				"z": -0.920261085,
				"element": "C" 
			},
			{
				"x": 1.0048693528,
				"y": -2.1760371496,
				"z": 2.1140777512,
				"element": "H" 
			},
			{
				"x": 1.9688783516,
				"y": -2.8519961423,
				"z": 0.9894536042,
				"element": "H" 
			},
			{
				"x": -0.3603920196,
				"y": -3.0832807374,
				"z": 0.2961472439,
				"element": "H" 
			},
			{
				"x": 0.6001336888,
				"y": -2.0723699183,
				"z": -0.7899946649,
				"element": "H" 
			},
			{
				"x": -1.1502813917,
				"y": -1.0309174984,
				"z": 1.4909602346,
				"element": "H" 
			},
			{
				"x": -1.6617025329,
				"y": -1.1714009741,
				"z": -0.1735382934,
				"element": "H" 
			},
			{
				"x": 1.9149321189,
				"y": 0.3115697477,
				"z": 0.5507574663,
				"element": "H" 
			},
			{
				"x": 1.9331115801,
				"y": 2.7404026737,
				"z": -0.1647198722,
				"element": "H" 
			},
			{
				"x": -3.1216177874,
				"y": 0.8638102592,
				"z": -0.4607441077,
				"element": "H" 
			},
			{
				"x": -4.6945654582,
				"y": 2.3692423447,
				"z": -1.1697887824,
				"element": "H" 
			},
			{
				"x": -2.3803102684,
				"y": 4.958079007,
				"z": -1.5345633167,
				"element": "H" 
			},
			{
				"x": 0.0569141254,
				"y": 4.7013760832,
				"z": -1.0489770557,
				"element": "H" 
			}
		],
		 "valence_orbital": [ 
			{
				"type": "occ",
				"energy": -0.2916,
				"method": "rhf"
			},
			{
				"type": "occ",
				"energy": -0.25873,
				"method": "rhf"
			},
			{
				"type": "occ",
				"energy": -0.23653,
				"method": "rhf"
			},
			{
				"type": "occ",
				"energy": -0.19163,
				"method": "rhf"
			},
			{
				"type": "occ",
				"energy": -0.1837,
				"method": "rhf"
			},
			{
				"type": "unocc",
				"energy": 0.00245,
				"method": "rhf"
			},
			{
				"type": "unocc",
				"energy": 0.05098,
				"method": "rhf"
			},
			{
				"type": "unocc",
				"energy": 0.074,
				"method": "rhf"
			},
			{
				"type": "unocc",
				"energy": 0.0822,
				"method": "rhf"
			},
			{
				"type": "unocc",
				"energy": 0.08681,
				"method": "rhf"
			}
		],
		"cosmo_sigma_profile": { 
			"-0.025": 0.0,
			"-0.024": 0.0,
			"-0.023": 0.0,
			"-0.022": 0.0,
			"-0.021": 0.0,
			"-0.02": 0.0,
			"-0.019": 0.0,
			"-0.018": 0.0,
			"-0.017": 0.387156071343,
			"-0.016": 1.24789785149,
			"-0.015": 1.75370489174,
			"-0.014": 2.32313288025,
			"-0.013": 2.78777656031,
			"-0.012": 1.82872850007,
			"-0.011": 1.54314626604,
			"-0.01": 2.3778508401,
			"-0.009": 5.34590368642,
			"-0.008": 5.41392512691,
			"-0.007": 5.15313363062,
			"-0.006": 7.82247339297,
			"-0.005": 9.40745531365,
			"-0.004": 10.9911048293,
			"-0.003": 13.3262304141,
			"-0.002": 17.1370640215,
			"-0.001": 17.3851249558,
			"0.0": 14.7165533133,
			"0.001": 8.33635484552,
			"0.002": 7.75547870957,
			"0.003": 8.94024735603,
			"0.004": 10.225221411,
			"0.005": 12.9006505326,
			"0.006": 18.2760837341,
			"0.007": 17.8918044955,
			"0.008": 4.01742608648,
			"0.009": 2.42468227995,
			"0.01": 2.19814877716,
			"0.011": 3.03628871877,
			"0.012": 2.53997441316,
			"0.013": 0.725923979292,
			"0.014": 0.0,
			"0.015": 0.0,
			"0.016": 0.0,
			"0.017": 0.0,
			"0.018": 0.0,
			"0.019": 0.0,
			"0.02": 0.0,
			"0.021": 0.0,
			"0.022": 0.0,
			"0.023": 0.0,
			"0.024": 0.0,
			"0.025": 0.0
		}
	}
}
