{
	 "smiles": "COC1=C2CCCC2=C(C)C=C1Br", 
	 "Tm": 303.15, 
	 "num_atms": 26, 
	 "gaussian": { 
		 "optdone": 1, 
		 "sigma_profile": "yes", 
		 "theory": "DFT", 
		 "functional": "B3LYP", 
		 "basiset": "6-31G**", 
		 "properties": { 
			 "R2extent": 4567.5446, 
			 "electric_dipole_moment_norm": 2.76797201756, 
			 "electric_quadrupole_moment_norm": 9.02332517479, 
			 "total_energy": -3073.63481162, 
			 "HOMO_LUMO_gap": 0.21971, 
			 "cosmo_polarized_energy": -5.84, 
			 "cosmo_cavitation_energy": 30.16, 
			 "cosmo_dispersion_energy": -22.15, 
			 "cosmo_repulsion_energy": 1.76, 
			 "cosmo_total_nonelectrostatic_energy": 9.77, 
			 "SMD_solvation_energy": 4.13 
		},
		"coords": [
			{
				"x": 3.3014101065,
				"y": 1.5169711925,
				"z": -0.7392574642,
				"element": "C" 
			},
			{
				"x": 2.1906722443,
				"y": 1.5073377049,
				"z": 0.1612298005,
				"element": "O" 
			},
			{
				"x": 0.9794206654,
				"y": 1.2148136164,
				"z": -0.4179559217,
				"element": "C" 
			},
			{
				"x": 0.481793814,
				"y": -0.0897379367,
				"z": -0.3810277088,
				"element": "C" 
			},
			{
				"x": 1.1501862697,
				"y": -1.3174921571,
				"z": 0.1968713143,
				"element": "C" 
			},
			{
				"x": -0.0229999744,
				"y": -2.3226277474,
				"z": 0.3227222445,
				"element": "C" 
			},
			{
				"x": -1.0605450646,
				"y": -1.8793567981,
				"z": -0.7403692617,
				"element": "C" 
			},
			{
				"x": -0.7747338773,
				"y": -0.4010576073,
				"z": -0.9106422005,
				"element": "C" 
			},
			{
				"x": -1.5759085199,
				"y": 0.5801463907,
				"z": -1.508904268,
				"element": "C" 
			},
			{
				"x": -2.9271703062,
				"y": 0.2484859874,
				"z": -2.0942733803,
				"element": "C" 
			},
			{
				"x": -1.080546167,
				"y": 1.8900685437,
				"z": -1.5358889475,
				"element": "C" 
			},
			{
				"x": 0.1698051387,
				"y": 2.2003453677,
				"z": -0.9993995171,
				"element": "C" 
			},
			{
				"x": 0.7672891353,
				"y": 4.0162044536,
				"z": -1.0386217141,
				"element": "Br" 
			},
			{
				"x": 3.182983194,
				"y": 2.2869639543,
				"z": -1.5097187768,
				"element": "H" 
			},
			{
				"x": 3.4321437689,
				"y": 0.5390259022,
				"z": -1.2200970443,
				"element": "H" 
			},
			{
				"x": 4.1830514045,
				"y": 1.7431820132,
				"z": -0.1363075936,
				"element": "H" 
			},
			{
				"x": 1.6513317731,
				"y": -1.1164665514,
				"z": 1.1481774095,
				"element": "H" 
			},
			{
				"x": 1.9201840403,
				"y": -1.6943597159,
				"z": -0.4913833653,
				"element": "H" 
			},
			{
				"x": -0.4689392587,
				"y": -2.230997883,
				"z": 1.3191840631,
				"element": "H" 
			},
			{
				"x": 0.2931944413,
				"y": -3.3623525153,
				"z": 0.2008670877,
				"element": "H" 
			},
			{
				"x": -2.0916055337,
				"y": -2.0868434617,
				"z": -0.4334137788,
				"element": "H" 
			},
			{
				"x": -0.9069255315,
				"y": -2.410394738,
				"z": -1.6915144422,
				"element": "H" 
			},
			{
				"x": -2.8436484674,
				"y": -0.4857622725,
				"z": -2.9044925672,
				"element": "H" 
			},
			{
				"x": -3.5952531036,
				"y": -0.1851065851,
				"z": -1.3405092313,
				"element": "H" 
			},
			{
				"x": -3.414786559,
				"y": 1.1388574646,
				"z": -2.4997941707,
				"element": "H" 
			},
			{
				"x": -1.675503633,
				"y": 2.6845533782,
				"z": -1.9740805653,
				"element": "H" 
			}
		],
		 "valence_orbital": [ 
			{
				"type": "occ",
				"energy": -0.29114,
				"method": "rhf"
			},
			{
				"type": "occ",
				"energy": -0.27743,
				"method": "rhf"
			},
			{
				"type": "occ",
				"energy": -0.27092,
				"method": "rhf"
			},
			{
				"type": "occ",
				"energy": -0.23488,
				"method": "rhf"
			},
			{
				"type": "occ",
				"energy": -0.22388,
				"method": "rhf"
			},
			{
				"type": "unocc",
				"energy": -0.00417,
				"method": "rhf"
			},
			{
				"type": "unocc",
				"energy": -0.00051,
				"method": "rhf"
			},
			{
				"type": "unocc",
				"energy": 0.0152,
				"method": "rhf"
			},
			{
				"type": "unocc",
				"energy": 0.08722,
				"method": "rhf"
			},
			{
				"type": "unocc",
				"energy": 0.09989,
				"method": "rhf"
			}
		],
		"cosmo_sigma_profile": { 
			"-0.025": 0.0,
			"-0.024": 0.0,
			"-0.023": 0.0,
			"-0.022": 0.0,
			"-0.021": 0.0,
			"-0.02": 0.0,
			"-0.019": 0.0,
			"-0.018": 0.0,
			"-0.017": 0.0,
			"-0.016": 0.0,
			"-0.015": 0.0,
			"-0.014": 0.0,
			"-0.013": 0.0,
			"-0.012": 0.0,
			"-0.011": 0.0,
			"-0.01": 0.0,
			"-0.009": 0.0,
			"-0.008": 0.0,
			"-0.007": 0.0774481983313,
			"-0.006": 2.41310254622,
			"-0.005": 6.42273948233,
			"-0.004": 19.6555281993,
			"-0.003": 32.7038698366,
			"-0.002": 34.6477156434,
			"-0.001": 28.9333994943,
			"0.0": 27.4655918147,
			"0.001": 17.7146545296,
			"0.002": 12.6684782637,
			"0.003": 16.8057847739,
			"0.004": 16.8610132837,
			"0.005": 12.5782311919,
			"0.006": 2.60622746819,
			"0.007": 2.22780867971,
			"0.008": 1.73033581642,
			"0.009": 1.14561444072,
			"0.01": 1.27498065979,
			"0.011": 1.68181467941,
			"0.012": 0.927280307308,
			"0.013": 0.00964555854982,
			"0.014": 0.0,
			"0.015": 0.0,
			"0.016": 0.0,
			"0.017": 0.0,
			"0.018": 0.0,
			"0.019": 0.0,
			"0.02": 0.0,
			"0.021": 0.0,
			"0.022": 0.0,
			"0.023": 0.0,
			"0.024": 0.0,
			"0.025": 0.0
		}
	}
}
