{
	 "smiles": "OCCOC1=CC=CC=C1", 
	 "Tm": 286.15, 
	 "num_atms": 20, 
	 "gaussian": { 
		 "optdone": 1, 
		 "sigma_profile": "yes", 
		 "theory": "DFT", 
		 "functional": "B3LYP", 
		 "basiset": "6-31G**", 
		 "properties": { 
			 "R2extent": 2152.1603, 
			 "electric_dipole_moment_norm": 0.776117368701, 
			 "electric_quadrupole_moment_norm": 6.79258303446, 
			 "total_energy": -461.303403643, 
			 "HOMO_LUMO_gap": 0.21788, 
			 "cosmo_polarized_energy": -7.84, 
			 "cosmo_cavitation_energy": 22.97, 
			 "cosmo_dispersion_energy": -17.25, 
			 "cosmo_repulsion_energy": 1.42, 
			 "cosmo_total_nonelectrostatic_energy": 7.14, 
			 "SMD_solvation_energy": 4.22 
		},
		"coords": [
			{
				"x": 1.3681716603,
				"y": 3.4025250103,
				"z": -1.7632862487,
				"element": "O" 
			},
			{
				"x": 0.10377044,
				"y": 3.0730114228,
				"z": -2.3163671909,
				"element": "C" 
			},
			{
				"x": -0.7570664064,
				"y": 2.2270256422,
				"z": -1.3868147139,
				"element": "C" 
			},
			{
				"x": -0.1799933389,
				"y": 0.9304358797,
				"z": -1.1901928111,
				"element": "O" 
			},
			{
				"x": 0.4067811244,
				"y": 0.6121892308,
				"z": 0.011020417,
				"element": "C" 
			},
			{
				"x": 0.400107051,
				"y": -0.7476065738,
				"z": 0.3493223363,
				"element": "C" 
			},
			{
				"x": 1.0010977866,
				"y": -1.1735890043,
				"z": 1.5307114162,
				"element": "C" 
			},
			{
				"x": 1.6041243101,
				"y": -0.2520160615,
				"z": 2.3921320053,
				"element": "C" 
			},
			{
				"x": 1.6100472661,
				"y": 1.0991316632,
				"z": 2.0482410729,
				"element": "C" 
			},
			{
				"x": 1.0214850969,
				"y": 1.5418067366,
				"z": 0.8599428237,
				"element": "C" 
			},
			{
				"x": 1.8691152228,
				"y": 2.5797089249,
				"z": -1.6818529637,
				"element": "H" 
			},
			{
				"x": -0.4097764916,
				"y": 4.0219234002,
				"z": -2.5083272164,
				"element": "H" 
			},
			{
				"x": 0.2103716215,
				"y": 2.5512663106,
				"z": -3.2794978965,
				"element": "H" 
			},
			{
				"x": -1.7388203731,
				"y": 2.0626611766,
				"z": -1.8486501568,
				"element": "H" 
			},
			{
				"x": -0.9073415961,
				"y": 2.7325837279,
				"z": -0.4271250069,
				"element": "H" 
			},
			{
				"x": -0.0823989679,
				"y": -1.4470804247,
				"z": -0.3256367175,
				"element": "H" 
			},
			{
				"x": 0.9898465709,
				"y": -2.2300087598,
				"z": 1.7841150217,
				"element": "H" 
			},
			{
				"x": 2.0670541917,
				"y": -0.5854813008,
				"z": 3.3157867114,
				"element": "H" 
			},
			{
				"x": 2.0862359197,
				"y": 1.824739261,
				"z": 2.7018977675,
				"element": "H" 
			},
			{
				"x": 1.0714889123,
				"y": 2.5886737382,
				"z": 0.5825813502,
				"element": "H" 
			}
		],
		 "valence_orbital": [ 
			{
				"type": "occ",
				"energy": -0.33323,
				"method": "rhf"
			},
			{
				"type": "occ",
				"energy": -0.30641,
				"method": "rhf"
			},
			{
				"type": "occ",
				"energy": -0.27476,
				"method": "rhf"
			},
			{
				"type": "occ",
				"energy": -0.24889,
				"method": "rhf"
			},
			{
				"type": "occ",
				"energy": -0.21961,
				"method": "rhf"
			},
			{
				"type": "unocc",
				"energy": -0.00173,
				"method": "rhf"
			},
			{
				"type": "unocc",
				"energy": 0.01183,
				"method": "rhf"
			},
			{
				"type": "unocc",
				"energy": 0.08462,
				"method": "rhf"
			},
			{
				"type": "unocc",
				"energy": 0.09475,
				"method": "rhf"
			},
			{
				"type": "unocc",
				"energy": 0.11765,
				"method": "rhf"
			}
		],
		"cosmo_sigma_profile": { 
			"-0.025": 0.0,
			"-0.024": 0.0,
			"-0.023": 0.0,
			"-0.022": 0.0,
			"-0.021": 0.0,
			"-0.02": 0.0,
			"-0.019": 0.0,
			"-0.018": 0.0,
			"-0.017": 0.0,
			"-0.016": 0.0,
			"-0.015": 0.0775082708919,
			"-0.014": 0.443156957857,
			"-0.013": 0.771463877149,
			"-0.012": 0.621366920598,
			"-0.011": 0.713418009525,
			"-0.01": 0.705675638067,
			"-0.009": 0.971826150351,
			"-0.008": 1.07971658608,
			"-0.007": 0.519471622158,
			"-0.006": 6.0313298635,
			"-0.005": 20.385282267,
			"-0.004": 21.8998987762,
			"-0.003": 18.4527442004,
			"-0.002": 13.9703901174,
			"-0.001": 10.8973143179,
			"0.0": 7.13039107735,
			"0.001": 8.5623793137,
			"0.002": 10.2630798857,
			"0.003": 10.4988592795,
			"0.004": 10.8929548946,
			"0.005": 9.9703730221,
			"0.006": 11.0579583636,
			"0.007": 3.57500297109,
			"0.008": 2.01306303904,
			"0.009": 1.6052240171,
			"0.01": 2.15449312929,
			"0.011": 1.99821699285,
			"0.012": 1.18484555139,
			"0.013": 1.62640238129,
			"0.014": 1.68293048758,
			"0.015": 0.0307318928946,
			"0.016": 0.0,
			"0.017": 0.0,
			"0.018": 0.0,
			"0.019": 0.0,
			"0.02": 0.0,
			"0.021": 0.0,
			"0.022": 0.0,
			"0.023": 0.0,
			"0.024": 0.0,
			"0.025": 0.0
		}
	}
}
