{
	 "smiles": "CC1=CC=C2C=CC=CC2=C1N", 
	 "Tm": 305.15, 
	 "num_atms": 23, 
	 "gaussian": { 
		 "optdone": 1, 
		 "sigma_profile": "yes", 
		 "theory": "DFT", 
		 "functional": "B3LYP", 
		 "basiset": "6-31G**", 
		 "properties": { 
			 "R2extent": 2826.3729, 
			 "electric_dipole_moment_norm": 1.75033781311, 
			 "electric_quadrupole_moment_norm": 7.82568642357, 
			 "total_energy": -480.571660084, 
			 "HOMO_LUMO_gap": 0.15839, 
			 "cosmo_polarized_energy": -8.67, 
			 "cosmo_cavitation_energy": 25.36, 
			 "cosmo_dispersion_energy": -19.21, 
			 "cosmo_repulsion_energy": 1.49, 
			 "cosmo_total_nonelectrostatic_energy": 7.64, 
			 "SMD_solvation_energy": 3.88 
		},
		"coords": [
			{
				"x": 0.2654389303,
				"y": 1.1786996055,
				"z": 1.4396574708,
				"element": "C" 
			},
			{
				"x": -0.4177993955,
				"y": 0.6043776054,
				"z": 0.2214786549,
				"element": "C" 
			},
			{
				"x": -1.7003266735,
				"y": 1.0661845621,
				"z": -0.1611339473,
				"element": "C" 
			},
			{
				"x": -2.3524028393,
				"y": 0.5818586928,
				"z": -1.270406545,
				"element": "C" 
			},
			{
				"x": -1.7514415715,
				"y": -0.4347824093,
				"z": -2.0560985493,
				"element": "C" 
			},
			{
				"x": -2.3955911884,
				"y": -0.9724470238,
				"z": -3.2033374406,
				"element": "C" 
			},
			{
				"x": -1.8148692463,
				"y": -1.9752242211,
				"z": -3.9458248358,
				"element": "C" 
			},
			{
				"x": -0.5579359399,
				"y": -2.4983982724,
				"z": -3.5624442468,
				"element": "C" 
			},
			{
				"x": 0.0964083005,
				"y": -1.9954736672,
				"z": -2.4586996404,
				"element": "C" 
			},
			{
				"x": -0.4637633417,
				"y": -0.9431513697,
				"z": -1.6838352812,
				"element": "C" 
			},
			{
				"x": 0.2054061071,
				"y": -0.3821413094,
				"z": -0.5430403273,
				"element": "C" 
			},
			{
				"x": 1.4639156863,
				"y": -0.8731825782,
				"z": -0.175901464,
				"element": "N" 
			},
			{
				"x": -0.364022099,
				"y": 1.9301925061,
				"z": 1.9226918977,
				"element": "H" 
			},
			{
				"x": 1.2168913852,
				"y": 1.6703098709,
				"z": 1.1888861026,
				"element": "H" 
			},
			{
				"x": 0.4895777765,
				"y": 0.406249858,
				"z": 2.1867618939,
				"element": "H" 
			},
			{
				"x": -2.1676881937,
				"y": 1.8397148745,
				"z": 0.443638318,
				"element": "H" 
			},
			{
				"x": -3.3301834925,
				"y": 0.9625366303,
				"z": -1.551200644,
				"element": "H" 
			},
			{
				"x": -3.3684497215,
				"y": -0.5752013682,
				"z": -3.4821913507,
				"element": "H" 
			},
			{
				"x": -2.3233038326,
				"y": -2.374486284,
				"z": -4.8187906223,
				"element": "H" 
			},
			{
				"x": -0.1117195981,
				"y": -3.3067148181,
				"z": -4.1346128787,
				"element": "H" 
			},
			{
				"x": 1.0405241447,
				"y": -2.4423847844,
				"z": -2.1625853554,
				"element": "H" 
			},
			{
				"x": 2.045499366,
				"y": -1.1685494747,
				"z": -0.9477638695,
				"element": "H" 
			},
			{
				"x": 1.9794354368,
				"y": -0.2728866251,
				"z": 0.4521526602,
				"element": "H" 
			}
		],
		 "valence_orbital": [ 
			{
				"type": "occ",
				"energy": -0.32371,
				"method": "rhf"
			},
			{
				"type": "occ",
				"energy": -0.30094,
				"method": "rhf"
			},
			{
				"type": "occ",
				"energy": -0.24855,
				"method": "rhf"
			},
			{
				"type": "occ",
				"energy": -0.2312,
				"method": "rhf"
			},
			{
				"type": "occ",
				"energy": -0.18425,
				"method": "rhf"
			},
			{
				"type": "unocc",
				"energy": -0.02586,
				"method": "rhf"
			},
			{
				"type": "unocc",
				"energy": 0.00116,
				"method": "rhf"
			},
			{
				"type": "unocc",
				"energy": 0.05009,
				"method": "rhf"
			},
			{
				"type": "unocc",
				"energy": 0.07467,
				"method": "rhf"
			},
			{
				"type": "unocc",
				"energy": 0.10231,
				"method": "rhf"
			}
		],
		"cosmo_sigma_profile": { 
			"-0.025": 0.0,
			"-0.024": 0.0,
			"-0.023": 0.0,
			"-0.022": 0.0,
			"-0.021": 0.0,
			"-0.02": 0.0,
			"-0.019": 0.0,
			"-0.018": 0.0,
			"-0.017": 0.0,
			"-0.016": 0.0,
			"-0.015": 0.0,
			"-0.014": 0.0,
			"-0.013": 0.244441383375,
			"-0.012": 0.968780474231,
			"-0.011": 2.89081828399,
			"-0.01": 1.96405435102,
			"-0.009": 3.26197663956,
			"-0.008": 2.91641506551,
			"-0.007": 2.95561120488,
			"-0.006": 4.32983830373,
			"-0.005": 13.5797748723,
			"-0.004": 18.4576917355,
			"-0.003": 17.4259508006,
			"-0.002": 15.067207692,
			"-0.001": 12.6424227608,
			"0.0": 13.8437777828,
			"0.001": 11.8413540863,
			"0.002": 10.1505852648,
			"0.003": 9.90140264719,
			"0.004": 12.5950560027,
			"0.005": 21.0718848817,
			"0.006": 17.1459487188,
			"0.007": 3.70338242709,
			"0.008": 0.268291919702,
			"0.009": 0.902582266383,
			"0.01": 1.17520985677,
			"0.011": 0.389252488225,
			"0.012": 0.691464906197,
			"0.013": 0.476367868201,
			"0.014": 0.469012054604,
			"0.015": 0.301789584998,
			"0.016": 0.0,
			"0.017": 0.0,
			"0.018": 0.0,
			"0.019": 0.0,
			"0.02": 0.0,
			"0.021": 0.0,
			"0.022": 0.0,
			"0.023": 0.0,
			"0.024": 0.0,
			"0.025": 0.0
		}
	}
}
