{
	 "smiles": "COC(=O)C1=CNC(=O)C(N)=C1", 
	 "Tm": 483.15, 
	 "num_atms": 20, 
	 "gaussian": { 
		 "optdone": 1, 
		 "sigma_profile": "yes", 
		 "theory": "DFT", 
		 "functional": "B3LYP", 
		 "basiset": "6-31G**", 
		 "properties": { 
			 "R2extent": 3818.8734, 
			 "electric_dipole_moment_norm": 2.43359064964, 
			 "electric_quadrupole_moment_norm": 12.4147813932, 
			 "total_energy": -606.765272046, 
			 "HOMO_LUMO_gap": 0.16091, 
			 "cosmo_polarized_energy": -16.74, 
			 "cosmo_cavitation_energy": 24.89, 
			 "cosmo_dispersion_energy": -18.63, 
			 "cosmo_repulsion_energy": 1.5, 
			 "cosmo_total_nonelectrostatic_energy": 7.76, 
			 "SMD_solvation_energy": 6.78 
		},
		"coords": [
			{
				"x": -0.3458979012,
				"y": -3.2091136067,
				"z": -1.5455837941,
				"element": "C" 
			},
			{
				"x": 0.0289524979,
				"y": -1.8461235508,
				"z": -1.298425912,
				"element": "O" 
			},
			{
				"x": 1.3619917679,
				"y": -1.6322588742,
				"z": -1.158485297,
				"element": "C" 
			},
			{
				"x": 2.1874224247,
				"y": -2.5223654209,
				"z": -1.2360915698,
				"element": "O" 
			},
			{
				"x": 1.686607971,
				"y": -0.2118952322,
				"z": -0.9059465067,
				"element": "C" 
			},
			{
				"x": 0.7156391252,
				"y": 0.7505650421,
				"z": -0.8377051094,
				"element": "C" 
			},
			{
				"x": 1.0797278229,
				"y": 2.0481281363,
				"z": -0.6078262566,
				"element": "N" 
			},
			{
				"x": 2.3821784772,
				"y": 2.508409403,
				"z": -0.4313177808,
				"element": "C" 
			},
			{
				"x": 2.6246552833,
				"y": 3.7039393197,
				"z": -0.255984095,
				"element": "O" 
			},
			{
				"x": 3.4113376714,
				"y": 1.4619341448,
				"z": -0.486536983,
				"element": "C" 
			},
			{
				"x": 4.6830307443,
				"y": 1.9272926358,
				"z": -0.2448355163,
				"element": "N" 
			},
			{
				"x": 3.0573066087,
				"y": 0.1587161268,
				"z": -0.7276842525,
				"element": "C" 
			},
			{
				"x": -1.4327710981,
				"y": -3.2047239226,
				"z": -1.6302514826,
				"element": "H" 
			},
			{
				"x": -0.0286512274,
				"y": -3.852755748,
				"z": -0.7211900192,
				"element": "H" 
			},
			{
				"x": 0.1087585039,
				"y": -3.5735862781,
				"z": -2.4702698949,
				"element": "H" 
			},
			{
				"x": -0.3390623322,
				"y": 0.5460070816,
				"z": -0.9590637222,
				"element": "H" 
			},
			{
				"x": 0.3769608343,
				"y": 2.7760422142,
				"z": -0.5687077608,
				"element": "H" 
			},
			{
				"x": 4.7678464123,
				"y": 2.9332924321,
				"z": -0.313997982,
				"element": "H" 
			},
			{
				"x": 5.4598731104,
				"y": 1.3874824144,
				"z": -0.5932093515,
				"element": "H" 
			},
			{
				"x": 3.8042933034,
				"y": -0.6267863173,
				"z": -0.7816867135,
				"element": "H" 
			}
		],
		 "valence_orbital": [ 
			{
				"type": "occ",
				"energy": -0.3024,
				"method": "rhf"
			},
			{
				"type": "occ",
				"energy": -0.27672,
				"method": "rhf"
			},
			{
				"type": "occ",
				"energy": -0.26691,
				"method": "rhf"
			},
			{
				"type": "occ",
				"energy": -0.26229,
				"method": "rhf"
			},
			{
				"type": "occ",
				"energy": -0.19628,
				"method": "rhf"
			},
			{
				"type": "unocc",
				"energy": -0.03537,
				"method": "rhf"
			},
			{
				"type": "unocc",
				"energy": -0.02361,
				"method": "rhf"
			},
			{
				"type": "unocc",
				"energy": 0.06995,
				"method": "rhf"
			},
			{
				"type": "unocc",
				"energy": 0.07131,
				"method": "rhf"
			},
			{
				"type": "unocc",
				"energy": 0.09268,
				"method": "rhf"
			}
		],
		"cosmo_sigma_profile": { 
			"-0.025": 0.0,
			"-0.024": 0.0,
			"-0.023": 0.0,
			"-0.022": 0.0,
			"-0.021": 0.0,
			"-0.02": 0.0,
			"-0.019": 0.0,
			"-0.018": 0.0,
			"-0.017": 0.236296215357,
			"-0.016": 1.3544225454,
			"-0.015": 2.00010459552,
			"-0.014": 0.898107600441,
			"-0.013": 2.21799896565,
			"-0.012": 2.38200304659,
			"-0.011": 3.42241895649,
			"-0.01": 3.62805882762,
			"-0.009": 3.59361570453,
			"-0.008": 4.78378717218,
			"-0.007": 4.31913307795,
			"-0.006": 7.74055574501,
			"-0.005": 11.1219736563,
			"-0.004": 11.6520630703,
			"-0.003": 12.08413921,
			"-0.002": 11.013106463,
			"-0.001": 14.2269929029,
			"0.0": 14.9044407983,
			"0.001": 13.7172170916,
			"0.002": 11.4956134468,
			"0.003": 8.46961364452,
			"0.004": 7.4416110752,
			"0.005": 6.25254502487,
			"0.006": 4.26417502447,
			"0.007": 3.6273988452,
			"0.008": 3.95090671947,
			"0.009": 3.11508136661,
			"0.01": 3.67466426193,
			"0.011": 4.80698383616,
			"0.012": 7.37054901168,
			"0.013": 5.28240379267,
			"0.014": 2.76846821691,
			"0.015": 0.0959771373199,
			"0.016": 0.0,
			"0.017": 0.0,
			"0.018": 0.0,
			"0.019": 0.0,
			"0.02": 0.0,
			"0.021": 0.0,
			"0.022": 0.0,
			"0.023": 0.0,
			"0.024": 0.0,
			"0.025": 0.0
		}
	}
}
