{
	 "smiles": "CC(C)(C)C(O)C(=CC1=CC=C(Cl)C=C1)N1C=NC=N1", 
	 "Tm": 426.15, 
	 "num_atms": 38, 
	 "gaussian": { 
		 "optdone": 1, 
		 "sigma_profile": "yes", 
		 "theory": "DFT", 
		 "functional": "B3LYP", 
		 "basiset": "6-31G**", 
		 "properties": { 
			 "R2extent": 9166.1058, 
			 "electric_dipole_moment_norm": 3.01765188847, 
			 "electric_quadrupole_moment_norm": 17.7687492281, 
			 "total_energy": -1282.08270169, 
			 "HOMO_LUMO_gap": 0.18278, 
			 "cosmo_polarized_energy": -13.52, 
			 "cosmo_cavitation_energy": 41.73, 
			 "cosmo_dispersion_energy": -28.05, 
			 "cosmo_repulsion_energy": 2.13, 
			 "cosmo_total_nonelectrostatic_energy": 15.81, 
			 "SMD_solvation_energy": 4.94 
		},
		"coords": [
			{
				"x": 0.2489634697,
				"y": 2.7003338537,
				"z": 0.0388024725,
				"element": "C" 
			},
			{
				"x": -0.1475057768,
				"y": 1.7084325703,
				"z": 1.1483304554,
				"element": "C" 
			},
			{
				"x": 0.7791551762,
				"y": 1.9356093626,
				"z": 2.3652659964,
				"element": "C" 
			},
			{
				"x": -1.6028860046,
				"y": 1.9640947384,
				"z": 1.5840178459,
				"element": "C" 
			},
			{
				"x": 0.0002553266,
				"y": 0.2020610239,
				"z": 0.7277267452,
				"element": "C" 
			},
			{
				"x": 1.3104240732,
				"y": -0.1219055172,
				"z": 0.2461331168,
				"element": "O" 
			},
			{
				"x": -0.9914559528,
				"y": -0.2936448505,
				"z": -0.3042732806,
				"element": "C" 
			},
			{
				"x": -1.9779617476,
				"y": -1.1798002537,
				"z": -0.0769525798,
				"element": "C" 
			},
			{
				"x": -2.2441752762,
				"y": -1.9569028144,
				"z": 1.1482857572,
				"element": "C" 
			},
			{
				"x": -3.5659113423,
				"y": -2.090552028,
				"z": 1.6078036319,
				"element": "C" 
			},
			{
				"x": -3.8668422442,
				"y": -2.8444155659,
				"z": 2.7397684602,
				"element": "C" 
			},
			{
				"x": -2.8351219055,
				"y": -3.4942849723,
				"z": 3.417177151,
				"element": "C" 
			},
			{
				"x": -3.203827477,
				"y": -4.4524985095,
				"z": 4.8426252962,
				"element": "Cl" 
			},
			{
				"x": -1.5170506429,
				"y": -3.4066980706,
				"z": 2.9700955656,
				"element": "C" 
			},
			{
				"x": -1.2301305642,
				"y": -2.6445234447,
				"z": 1.8393003468,
				"element": "C" 
			},
			{
				"x": -0.9224656599,
				"y": 0.2940658905,
				"z": -1.6060501925,
				"element": "N" 
			},
			{
				"x": 0.1567237372,
				"y": 0.4691408316,
				"z": -2.416740842,
				"element": "C" 
			},
			{
				"x": -0.2143222702,
				"y": 0.9767054065,
				"z": -3.5781944118,
				"element": "N" 
			},
			{
				"x": -1.56508294,
				"y": 1.0918801778,
				"z": -3.4335993275,
				"element": "C" 
			},
			{
				"x": -2.0511792083,
				"y": 0.6912875999,
				"z": -2.2692335918,
				"element": "N" 
			},
			{
				"x": 1.2361648675,
				"y": 2.4665252397,
				"z": -0.3703158689,
				"element": "H" 
			},
			{
				"x": -0.4692910222,
				"y": 2.7077987818,
				"z": -0.7836932774,
				"element": "H" 
			},
			{
				"x": 0.2886947497,
				"y": 3.7151997758,
				"z": 0.4495988871,
				"element": "H" 
			},
			{
				"x": 1.8416932175,
				"y": 1.8388237068,
				"z": 2.1072505689,
				"element": "H" 
			},
			{
				"x": 0.5588598408,
				"y": 1.2361743242,
				"z": 3.1799304206,
				"element": "H" 
			},
			{
				"x": 0.6486548139,
				"y": 2.9503952232,
				"z": 2.7538246944,
				"element": "H" 
			},
			{
				"x": -1.9174565361,
				"y": 1.2676062457,
				"z": 2.3696356669,
				"element": "H" 
			},
			{
				"x": -2.2954253441,
				"y": 1.8608330923,
				"z": 0.7439468991,
				"element": "H" 
			},
			{
				"x": -1.7038716354,
				"y": 2.9800113313,
				"z": 1.9801823238,
				"element": "H" 
			},
			{
				"x": -0.2044392685,
				"y": -0.3703854093,
				"z": 1.6394016433,
				"element": "H" 
			},
			{
				"x": 1.9537240061,
				"y": 0.1990622784,
				"z": 0.8910453054,
				"element": "H" 
			},
			{
				"x": -2.6827211161,
				"y": -1.3270762081,
				"z": -0.8923520101,
				"element": "H" 
			},
			{
				"x": -4.3685086971,
				"y": -1.5872038784,
				"z": 1.0761474054,
				"element": "H" 
			},
			{
				"x": -4.8886659691,
				"y": -2.9315473783,
				"z": 3.092084847,
				"element": "H" 
			},
			{
				"x": -0.7295806976,
				"y": -3.9391459636,
				"z": 3.4919808092,
				"element": "H" 
			},
			{
				"x": -0.2104085492,
				"y": -2.6060885816,
				"z": 1.4685878853,
				"element": "H" 
			},
			{
				"x": 1.1558686438,
				"y": 0.2152540516,
				"z": -2.099786206,
				"element": "H" 
			},
			{
				"x": -2.2107940744,
				"y": 1.4871779401,
				"z": -4.2061586092,
				"element": "H" 
			}
		],
		 "valence_orbital": [ 
			{
				"type": "occ",
				"energy": -0.27987,
				"method": "rhf"
			},
			{
				"type": "occ",
				"energy": -0.27148,
				"method": "rhf"
			},
			{
				"type": "occ",
				"energy": -0.271,
				"method": "rhf"
			},
			{
				"type": "occ",
				"energy": -0.26192,
				"method": "rhf"
			},
			{
				"type": "occ",
				"energy": -0.2325,
				"method": "rhf"
			},
			{
				"type": "unocc",
				"energy": -0.04972,
				"method": "rhf"
			},
			{
				"type": "unocc",
				"energy": -0.0234,
				"method": "rhf"
			},
			{
				"type": "unocc",
				"energy": -0.00077,
				"method": "rhf"
			},
			{
				"type": "unocc",
				"energy": 0.02183,
				"method": "rhf"
			},
			{
				"type": "unocc",
				"energy": 0.02771,
				"method": "rhf"
			}
		],
		"cosmo_sigma_profile": { 
			"-0.025": 0.0,
			"-0.024": 0.0,
			"-0.023": 0.0,
			"-0.022": 0.0,
			"-0.021": 0.0,
			"-0.02": 0.0,
			"-0.019": 0.0,
			"-0.018": 0.0,
			"-0.017": 0.0,
			"-0.016": 0.0,
			"-0.015": 0.303446949735,
			"-0.014": 0.872061882092,
			"-0.013": 0.829906372655,
			"-0.012": 0.913480544245,
			"-0.011": 0.799683283059,
			"-0.01": 0.882943793289,
			"-0.009": 2.44653311876,
			"-0.008": 3.95914438913,
			"-0.007": 9.28358054675,
			"-0.006": 13.9055440141,
			"-0.005": 13.6962400069,
			"-0.004": 15.5603835049,
			"-0.003": 25.0689935258,
			"-0.002": 26.6810491239,
			"-0.001": 34.0688686071,
			"0.0": 36.4488367852,
			"0.001": 41.8348652035,
			"0.002": 29.0163395746,
			"0.003": 23.4742573578,
			"0.004": 15.8375655813,
			"0.005": 9.53880130343,
			"0.006": 3.40023034157,
			"0.007": 4.46103159949,
			"0.008": 2.59109023904,
			"0.009": 2.97902517956,
			"0.01": 2.87226029823,
			"0.011": 2.01736992448,
			"0.012": 2.51492259666,
			"0.013": 2.65388180106,
			"0.014": 1.06357720581,
			"0.015": 1.32916636382,
			"0.016": 0.904051785368,
			"0.017": 0.266509487619,
			"0.018": 0.0,
			"0.019": 0.0,
			"0.02": 0.0,
			"0.021": 0.0,
			"0.022": 0.0,
			"0.023": 0.0,
			"0.024": 0.0,
			"0.025": 0.0
		}
	}
}
