{
	 "smiles": "CN1C(=CC=O)C(C)(C)C2=C1C=CC=C2", 
	 "Tm": 367.15, 
	 "num_atms": 30, 
	 "gaussian": { 
		 "optdone": 1, 
		 "sigma_profile": "yes", 
		 "theory": "DFT", 
		 "functional": "B3LYP", 
		 "basiset": "6-31G**", 
		 "properties": { 
			 "R2extent": 3373.9348, 
			 "electric_dipole_moment_norm": 5.24677483698, 
			 "electric_quadrupole_moment_norm": 18.8191114036, 
			 "total_energy": -634.389373794, 
			 "HOMO_LUMO_gap": 0.16275, 
			 "cosmo_polarized_energy": -13.67, 
			 "cosmo_cavitation_energy": 31.98, 
			 "cosmo_dispersion_energy": -22.35, 
			 "cosmo_repulsion_energy": 1.73, 
			 "cosmo_total_nonelectrostatic_energy": 11.36, 
			 "SMD_solvation_energy": 6.46 
		},
		"coords": [
			{
				"x": 1.2323988651,
				"y": 0.3815190438,
				"z": 2.3835558361,
				"element": "C" 
			},
			{
				"x": 0.7895281681,
				"y": 0.1152964001,
				"z": 1.0284273368,
				"element": "N" 
			},
			{
				"x": -0.4166923828,
				"y": 0.5051638517,
				"z": 0.4817745857,
				"element": "C" 
			},
			{
				"x": -1.3705661974,
				"y": 1.3451866168,
				"z": 0.9847903453,
				"element": "C" 
			},
			{
				"x": -1.3529833239,
				"y": 2.2278062647,
				"z": 2.1376851416,
				"element": "C" 
			},
			{
				"x": -2.3125461339,
				"y": 2.9170816651,
				"z": 2.4661707605,
				"element": "O" 
			},
			{
				"x": -0.5728780491,
				"y": -0.1923306341,
				"z": -0.8874270915,
				"element": "C" 
			},
			{
				"x": -1.7685037129,
				"y": -1.172056766,
				"z": -0.8677299776,
				"element": "C" 
			},
			{
				"x": -0.7482425311,
				"y": 0.8438996202,
				"z": -2.0180091153,
				"element": "C" 
			},
			{
				"x": 0.7456684146,
				"y": -0.9348700735,
				"z": -1.011811548,
				"element": "C" 
			},
			{
				"x": 1.5075222985,
				"y": -0.7107335914,
				"z": 0.1410103027,
				"element": "C" 
			},
			{
				"x": 2.7769288627,
				"y": -1.2624221542,
				"z": 0.2989688868,
				"element": "C" 
			},
			{
				"x": 3.2673032475,
				"y": -2.0719672857,
				"z": -0.7339149746,
				"element": "C" 
			},
			{
				"x": 2.5147932219,
				"y": -2.3125345727,
				"z": -1.8841442838,
				"element": "C" 
			},
			{
				"x": 1.2425397772,
				"y": -1.7386914686,
				"z": -2.0265496462,
				"element": "C" 
			},
			{
				"x": 1.9520874823,
				"y": -0.3832707435,
				"z": 2.6813297226,
				"element": "H" 
			},
			{
				"x": 0.3785024153,
				"y": 0.3317143062,
				"z": 3.064005463,
				"element": "H" 
			},
			{
				"x": 1.7039131517,
				"y": 1.366162725,
				"z": 2.4819085917,
				"element": "H" 
			},
			{
				"x": -2.2859843531,
				"y": 1.427091964,
				"z": 0.4051801834,
				"element": "H" 
			},
			{
				"x": -0.4091847726,
				"y": 2.3012349768,
				"z": 2.7146307645,
				"element": "H" 
			},
			{
				"x": -1.8301062273,
				"y": -1.7085602645,
				"z": -1.8201617762,
				"element": "H" 
			},
			{
				"x": -1.661960299,
				"y": -1.909754724,
				"z": -0.0675385806,
				"element": "H" 
			},
			{
				"x": -2.7095324872,
				"y": -0.6347970185,
				"z": -0.7168654773,
				"element": "H" 
			},
			{
				"x": -1.6710175627,
				"y": 1.415471285,
				"z": -1.8828435791,
				"element": "H" 
			},
			{
				"x": 0.0889110737,
				"y": 1.5469118174,
				"z": -2.0424415831,
				"element": "H" 
			},
			{
				"x": -0.7982563383,
				"y": 0.3384542263,
				"z": -2.9879374632,
				"element": "H" 
			},
			{
				"x": 3.3816649445,
				"y": -1.0711505491,
				"z": 1.178928577,
				"element": "H" 
			},
			{
				"x": 4.254838258,
				"y": -2.5128517737,
				"z": -0.6342799221,
				"element": "H" 
			},
			{
				"x": 2.9164774102,
				"y": -2.9406175475,
				"z": -2.6730649772,
				"element": "H" 
			},
			{
				"x": 0.65747678,
				"y": -1.9228855961,
				"z": -2.9237465019,
				"element": "H" 
			}
		],
		 "valence_orbital": [ 
			{
				"type": "occ",
				"energy": -0.33273,
				"method": "rhf"
			},
			{
				"type": "occ",
				"energy": -0.26356,
				"method": "rhf"
			},
			{
				"type": "occ",
				"energy": -0.25736,
				"method": "rhf"
			},
			{
				"type": "occ",
				"energy": -0.22566,
				"method": "rhf"
			},
			{
				"type": "occ",
				"energy": -0.20049,
				"method": "rhf"
			},
			{
				"type": "unocc",
				"energy": -0.03774,
				"method": "rhf"
			},
			{
				"type": "unocc",
				"energy": -0.01353,
				"method": "rhf"
			},
			{
				"type": "unocc",
				"energy": 0.01005,
				"method": "rhf"
			},
			{
				"type": "unocc",
				"energy": 0.07472,
				"method": "rhf"
			},
			{
				"type": "unocc",
				"energy": 0.08149,
				"method": "rhf"
			}
		],
		"cosmo_sigma_profile": { 
			"-0.025": 0.0,
			"-0.024": 0.0,
			"-0.023": 0.0,
			"-0.022": 0.0,
			"-0.021": 0.0,
			"-0.02": 0.0,
			"-0.019": 0.0,
			"-0.018": 0.0,
			"-0.017": 0.0,
			"-0.016": 0.0,
			"-0.015": 0.0,
			"-0.014": 0.0,
			"-0.013": 0.0,
			"-0.012": 0.0,
			"-0.011": 0.0,
			"-0.01": 0.0,
			"-0.009": 0.000118568529181,
			"-0.008": 1.12209967737,
			"-0.007": 2.92777923258,
			"-0.006": 13.8127348576,
			"-0.005": 22.2177947213,
			"-0.004": 27.6163155008,
			"-0.003": 29.5253122148,
			"-0.002": 21.511713746,
			"-0.001": 20.6489102172,
			"0.0": 23.484460072,
			"0.001": 15.8440656293,
			"0.002": 11.2776475452,
			"0.003": 10.4574379266,
			"0.004": 11.5607854784,
			"0.005": 10.7627568196,
			"0.006": 7.5837349419,
			"0.007": 1.59739741379,
			"0.008": 1.62459634684,
			"0.009": 1.8367221468,
			"0.01": 0.844803731612,
			"0.011": 2.34414412053,
			"0.012": 2.03949925171,
			"0.013": 4.12521412391,
			"0.014": 5.06669222863,
			"0.015": 2.75065822714,
			"0.016": 0.236030729718,
			"0.017": 0.0,
			"0.018": 0.0,
			"0.019": 0.0,
			"0.02": 0.0,
			"0.021": 0.0,
			"0.022": 0.0,
			"0.023": 0.0,
			"0.024": 0.0,
			"0.0": 0.0
		}
	}
}
