{
	 "smiles": "OC(=O)CNCC(O)=O", 
	 "Tm": 521.15, 
	 "num_atms": 16, 
	 "gaussian": { 
		 "optdone": 1, 
		 "sigma_profile": "yes", 
		 "theory": "DFT", 
		 "functional": "B3LYP", 
		 "basiset": "6-31G**", 
		 "properties": { 
			 "R2extent": 1958.9767, 
			 "electric_dipole_moment_norm": 3.35491791554, 
			 "electric_quadrupole_moment_norm": 9.95700810284, 
			 "total_energy": -512.302266586, 
			 "HOMO_LUMO_gap": 0.2409, 
			 "cosmo_polarized_energy": -17.54, 
			 "cosmo_cavitation_energy": 20.94, 
			 "cosmo_dispersion_energy": -15.46, 
			 "cosmo_repulsion_energy": 1.32, 
			 "cosmo_total_nonelectrostatic_energy": 6.8, 
			 "SMD_solvation_energy": 4.22 
		},
		"coords": [
			{
				"x": -0.3144608198,
				"y": 2.5095654625,
				"z": 3.0101139847,
				"element": "O" 
			},
			{
				"x": 0.1011220649,
				"y": 1.6795539526,
				"z": 2.0225996841,
				"element": "C" 
			},
			{
				"x": 0.3676342887,
				"y": 2.0656424175,
				"z": 0.9080900667,
				"element": "O" 
			},
			{
				"x": 0.1365775192,
				"y": 0.2420267728,
				"z": 2.5186255822,
				"element": "C" 
			},
			{
				"x": 0.783115115,
				"y": -0.653940483,
				"z": 1.5832110282,
				"element": "N" 
			},
			{
				"x": -0.0094197879,
				"y": -0.9654013024,
				"z": 0.4014077617,
				"element": "C" 
			},
			{
				"x": 0.5811483841,
				"y": -2.0832731227,
				"z": -0.4341053361,
				"element": "C" 
			},
			{
				"x": 1.3014468572,
				"y": -2.9599954222,
				"z": 0.3104407588,
				"element": "O" 
			},
			{
				"x": 0.3977484513,
				"y": -2.230371066,
				"z": -1.6199496548,
				"element": "O" 
			},
			{
				"x": -0.3435109038,
				"y": 3.4001496527,
				"z": 2.6219585635,
				"element": "H" 
			},
			{
				"x": -0.9102934444,
				"y": -0.02670154,
				"z": 2.7663184472,
				"element": "H" 
			},
			{
				"x": 0.6844748726,
				"y": 0.2348894978,
				"z": 3.4663578492,
				"element": "H" 
			},
			{
				"x": 1.0453358947,
				"y": -1.5128013239,
				"z": 2.0544689033,
				"element": "H" 
			},
			{
				"x": -0.0826084574,
				"y": -0.0844505937,
				"z": -0.238493512,
				"element": "H" 
			},
			{
				"x": -1.0474935457,
				"y": -1.2797691698,
				"z": 0.6375641716,
				"element": "H" 
			},
			{
				"x": 1.6163835113,
				"y": -3.6431237322,
				"z": -0.3049082983,
				"element": "H" 
			}
		],
		 "valence_orbital": [ 
			{
				"type": "occ",
				"energy": -0.32503,
				"method": "rhf"
			},
			{
				"type": "occ",
				"energy": -0.32328,
				"method": "rhf"
			},
			{
				"type": "occ",
				"energy": -0.28379,
				"method": "rhf"
			},
			{
				"type": "occ",
				"energy": -0.27787,
				"method": "rhf"
			},
			{
				"type": "occ",
				"energy": -0.23708,
				"method": "rhf"
			},
			{
				"type": "unocc",
				"energy": 0.00382,
				"method": "rhf"
			},
			{
				"type": "unocc",
				"energy": 0.00697,
				"method": "rhf"
			},
			{
				"type": "unocc",
				"energy": 0.06565,
				"method": "rhf"
			},
			{
				"type": "unocc",
				"energy": 0.07402,
				"method": "rhf"
			},
			{
				"type": "unocc",
				"energy": 0.0957,
				"method": "rhf"
			}
		],
		"cosmo_sigma_profile": { 
			"-0.025": 0.0,
			"-0.024": 0.0,
			"-0.023": 0.0,
			"-0.022": 0.0,
			"-0.021": 0.0,
			"-0.02": 0.0,
			"-0.019": 0.106918399187,
			"-0.018": 2.06426069522,
			"-0.017": 1.57961995453,
			"-0.016": 1.71643709197,
			"-0.015": 1.12397996455,
			"-0.014": 1.3828246352,
			"-0.013": 1.45159149662,
			"-0.012": 1.93769786138,
			"-0.011": 1.78637218227,
			"-0.01": 2.43777348733,
			"-0.009": 1.99762576681,
			"-0.008": 2.90091239207,
			"-0.007": 6.07191446354,
			"-0.006": 12.1153727904,
			"-0.005": 11.870061584,
			"-0.004": 10.1090713124,
			"-0.003": 10.6877981752,
			"-0.002": 8.37762478582,
			"-0.001": 6.19076698943,
			"0.0": 5.44807896299,
			"0.001": 5.51770307556,
			"0.002": 4.99901530971,
			"0.003": 4.86185670422,
			"0.004": 6.61998402096,
			"0.005": 4.53961166311,
			"0.006": 6.12002340158,
			"0.007": 5.63281809157,
			"0.008": 4.64236598784,
			"0.009": 5.07570702662,
			"0.01": 5.38143109511,
			"0.011": 9.40615390357,
			"0.012": 7.03888777236,
			"0.013": 1.75379402823,
			"0.014": 0.629320291682,
			"0.015": 0.666515177494,
			"0.016": 0.203530164506,
			"0.017": 0.0,
			"0.018": 0.0,
			"0.019": 0.0,
			"0.02": 0.0,
			"0.021": 0.0,
			"0.022": 0.0,
			"0.023": 0.0,
			"0.024": 0.0,
			"0.025": 0.0
		}
	}
}
