{
	 "smiles": "FC(F)(F)COC(=O)NC1=NC=CS1", 
	 "Tm": 441.15, 
	 "num_atms": 19, 
	 "gaussian": { 
		 "optdone": 1, 
		 "sigma_profile": "yes", 
		 "theory": "DFT", 
		 "functional": "B3LYP", 
		 "basiset": "6-31G**", 
		 "properties": { 
			 "R2extent": 3994.0979, 
			 "electric_dipole_moment_norm": 2.76450009043, 
			 "electric_quadrupole_moment_norm": 8.40406934764, 
			 "total_energy": -1189.31135653, 
			 "HOMO_LUMO_gap": 0.2011, 
			 "cosmo_polarized_energy": -13.21, 
			 "cosmo_cavitation_energy": 27.95, 
			 "cosmo_dispersion_energy": -20.03, 
			 "cosmo_repulsion_energy": 1.51, 
			 "cosmo_total_nonelectrostatic_energy": 9.42, 
			 "SMD_solvation_energy": 6.06 
		},
		"coords": [
			{
				"x": -3.6020969308,
				"y": 0.4707977005,
				"z": -0.5176029571,
				"element": "F" 
			},
			{
				"x": -3.0370841743,
				"y": 0.8894497203,
				"z": -1.6646200175,
				"element": "C" 
			},
			{
				"x": -2.6043725151,
				"y": -0.1964979366,
				"z": -2.3301436356,
				"element": "F" 
			},
			{
				"x": -3.9889387817,
				"y": 1.4855335688,
				"z": -2.4140318553,
				"element": "F" 
			},
			{
				"x": -1.9141340363,
				"y": 1.8802143695,
				"z": -1.4046693553,
				"element": "C" 
			},
			{
				"x": -0.9148994041,
				"y": 1.2702726537,
				"z": -0.5934852869,
				"element": "O" 
			},
			{
				"x": -0.9220644669,
				"y": 1.6211043421,
				"z": 0.7120560361,
				"element": "C" 
			},
			{
				"x": -1.6600662697,
				"y": 2.4359264671,
				"z": 1.2248470758,
				"element": "O" 
			},
			{
				"x": 0.029689185,
				"y": 0.9323852508,
				"z": 1.4426059066,
				"element": "N" 
			},
			{
				"x": 1.0020600528,
				"y": 0.0280974266,
				"z": 1.0202687976,
				"element": "C" 
			},
			{
				"x": 1.5749009894,
				"y": 0.0023625321,
				"z": -0.1425889332,
				"element": "N" 
			},
			{
				"x": 2.4918923614,
				"y": -1.0239646465,
				"z": -0.2048003467,
				"element": "C" 
			},
			{
				"x": 2.6433397394,
				"y": -1.7770570456,
				"z": 0.9199839879,
				"element": "C" 
			},
			{
				"x": 1.5473870953,
				"y": -1.2196524096,
				"z": 2.1514884668,
				"element": "S" 
			},
			{
				"x": -2.3255822931,
				"y": 2.7645610246,
				"z": -0.9160324286,
				"element": "H" 
			},
			{
				"x": -1.4475717279,
				"y": 2.1426424747,
				"z": -2.3556293682,
				"element": "H" 
			},
			{
				"x": -0.0222660077,
				"y": 1.1468662982,
				"z": 2.4283738103,
				"element": "H" 
			},
			{
				"x": 3.0523324472,
				"y": -1.1676561535,
				"z": -1.1209861329,
				"element": "H" 
			},
			{
				"x": 3.3203747371,
				"y": -2.5983856374,
				"z": 1.1038662361,
				"element": "H" 
			}
		],
		 "valence_orbital": [ 
			{
				"type": "occ",
				"energy": -0.31719,
				"method": "rhf"
			},
			{
				"type": "occ",
				"energy": -0.30048,
				"method": "rhf"
			},
			{
				"type": "occ",
				"energy": -0.29252,
				"method": "rhf"
			},
			{
				"type": "occ",
				"energy": -0.28529,
				"method": "rhf"
			},
			{
				"type": "occ",
				"energy": -0.23675,
				"method": "rhf"
			},
			{
				"type": "unocc",
				"energy": -0.03565,
				"method": "rhf"
			},
			{
				"type": "unocc",
				"energy": -0.00399,
				"method": "rhf"
			},
			{
				"type": "unocc",
				"energy": 0.0274,
				"method": "rhf"
			},
			{
				"type": "unocc",
				"energy": 0.05543,
				"method": "rhf"
			},
			{
				"type": "unocc",
				"energy": 0.07444,
				"method": "rhf"
			}
		],
		"cosmo_sigma_profile": { 
			"-0.025": 0.0,
			"-0.024": 0.0,
			"-0.023": 0.0,
			"-0.022": 0.0,
			"-0.021": 0.0,
			"-0.02": 0.0,
			"-0.019": 0.0,
			"-0.018": 0.0634743483212,
			"-0.017": 0.735744249881,
			"-0.016": 1.3310913526,
			"-0.015": 0.77391019736,
			"-0.014": 1.11480087592,
			"-0.013": 0.987456027498,
			"-0.012": 1.1996138143,
			"-0.011": 0.999635141343,
			"-0.01": 2.1951439156,
			"-0.009": 6.14673021991,
			"-0.008": 7.91321874846,
			"-0.007": 7.95265413967,
			"-0.006": 8.61149186019,
			"-0.005": 8.69731655745,
			"-0.004": 7.88675456839,
			"-0.003": 9.17397649325,
			"-0.002": 11.7480520186,
			"-0.001": 12.8538313809,
			"0.0": 16.0106697513,
			"0.001": 16.5153672527,
			"0.002": 37.2614288663,
			"0.003": 28.7354169077,
			"0.004": 7.51833515669,
			"0.005": 3.54553510759,
			"0.006": 3.44830074581,
			"0.007": 3.19646442499,
			"0.008": 2.22316927068,
			"0.009": 3.21792189119,
			"0.01": 3.36520229181,
			"0.011": 5.37132256584,
			"0.012": 2.55173202522,
			"0.013": 1.58926446917,
			"0.014": 1.08628218277,
			"0.015": 0.661578725764,
			"0.016": 0.115767147827,
			"0.017": 0.0,
			"0.018": 0.0,
			"0.019": 0.0,
			"0.02": 0.0,
			"0.021": 0.0,
			"0.022": 0.0,
			"0.023": 0.0,
			"0.024": 0.0,
			"0.025": 0.0
		}
	}
}
