{
	 "smiles": "CN1N(C(=O)C(C=NO)=C1C)C1=CC=CC=C1", 
	 "Tm": 491.15, 
	 "num_atms": 30, 
	 "gaussian": { 
		 "optdone": 1, 
		 "sigma_profile": "yes", 
		 "theory": "DFT", 
		 "functional": "B3LYP", 
		 "basiset": "6-31G**", 
		 "properties": { 
			 "R2extent": 4799.6882, 
			 "electric_dipole_moment_norm": 5.39629119025, 
			 "electric_quadrupole_moment_norm": 15.3111497308, 
			 "total_energy": -779.729822981, 
			 "HOMO_LUMO_gap": 0.17156, 
			 "cosmo_polarized_energy": -17.03, 
			 "cosmo_cavitation_energy": 33.46, 
			 "cosmo_dispersion_energy": -23.99, 
			 "cosmo_repulsion_energy": 1.85, 
			 "cosmo_total_nonelectrostatic_energy": 11.33, 
			 "SMD_solvation_energy": 6.31 
		},
		"coords": [
			{
				"x": 0.0926217913,
				"y": 0.7306098066,
				"z": -1.6771115158,
				"element": "C" 
			},
			{
				"x": 0.036197416,
				"y": 0.5020714014,
				"z": -0.2265563648,
				"element": "N" 
			},
			{
				"x": 0.4431247378,
				"y": -0.7899341975,
				"z": 0.1634681315,
				"element": "N" 
			},
			{
				"x": 1.2123299327,
				"y": -0.7007513291,
				"z": 1.347695795,
				"element": "C" 
			},
			{
				"x": 1.6559406059,
				"y": -1.6587142512,
				"z": 1.9651760059,
				"element": "O" 
			},
			{
				"x": 1.3024333868,
				"y": 0.7355358251,
				"z": 1.6399300318,
				"element": "C" 
			},
			{
				"x": 2.0479307034,
				"y": 1.1176826597,
				"z": 2.8300604073,
				"element": "C" 
			},
			{
				"x": 2.0269900672,
				"y": 2.1376228097,
				"z": 3.611295689,
				"element": "N" 
			},
			{
				"x": 1.0692750464,
				"y": 3.1037331731,
				"z": 3.2421076896,
				"element": "O" 
			},
			{
				"x": 0.6383946041,
				"y": 1.4059353259,
				"z": 0.638793476,
				"element": "C" 
			},
			{
				"x": 0.5648943812,
				"y": 2.8632299246,
				"z": 0.3149574227,
				"element": "C" 
			},
			{
				"x": -0.3593746246,
				"y": -1.9098255473,
				"z": -0.1813473124,
				"element": "C" 
			},
			{
				"x": -1.7084535626,
				"y": -1.7535931914,
				"z": -0.5278231476,
				"element": "C" 
			},
			{
				"x": -2.4663130847,
				"y": -2.8717154255,
				"z": -0.8759986783,
				"element": "C" 
			},
			{
				"x": -1.8969186231,
				"y": -4.1455309055,
				"z": -0.8608745139,
				"element": "C" 
			},
			{
				"x": -0.5570344873,
				"y": -4.294507618,
				"z": -0.4956477484,
				"element": "C" 
			},
			{
				"x": 0.2204561242,
				"y": -3.1859376312,
				"z": -0.1659021266,
				"element": "C" 
			},
			{
				"x": -0.5027310484,
				"y": -0.0328118682,
				"z": -2.1781449241,
				"element": "H" 
			},
			{
				"x": 1.1231897737,
				"y": 0.6883293958,
				"z": -2.0519259301,
				"element": "H" 
			},
			{
				"x": -0.3400470165,
				"y": 1.7063266624,
				"z": -1.8970439719,
				"element": "H" 
			},
			{
				"x": 2.7428000908,
				"y": 0.3508991884,
				"z": 3.1698110961,
				"element": "H" 
			},
			{
				"x": 1.1709197239,
				"y": 3.76110215,
				"z": 3.9428521583,
				"element": "H" 
			},
			{
				"x": -0.435710938,
				"y": 3.1377247613,
				"z": -0.0337010219,
				"element": "H" 
			},
			{
				"x": 0.8071116232,
				"y": 3.4448257542,
				"z": 1.2018404693,
				"element": "H" 
			},
			{
				"x": 1.2785525503,
				"y": 3.121230822,
				"z": -0.4777006384,
				"element": "H" 
			},
			{
				"x": -2.1590733578,
				"y": -0.7674018395,
				"z": -0.5010198782,
				"element": "H" 
			},
			{
				"x": -3.5107641066,
				"y": -2.7432503114,
				"z": -1.1454680798,
				"element": "H" 
			},
			{
				"x": -2.4918541473,
				"y": -5.0139149202,
				"z": -1.1270497871,
				"element": "H" 
			},
			{
				"x": -0.1056996355,
				"y": -5.2821725139,
				"z": -0.4745804048,
				"element": "H" 
			},
			{
				"x": 1.2575120733,
				"y": -3.2946981102,
				"z": 0.1232076713,
				"element": "H" 
			}
		],
		 "valence_orbital": [ 
			{
				"type": "occ",
				"energy": -0.27059,
				"method": "rhf"
			},
			{
				"type": "occ",
				"energy": -0.25666,
				"method": "rhf"
			},
			{
				"type": "occ",
				"energy": -0.24745,
				"method": "rhf"
			},
			{
				"type": "occ",
				"energy": -0.22659,
				"method": "rhf"
			},
			{
				"type": "occ",
				"energy": -0.20987,
				"method": "rhf"
			},
			{
				"type": "unocc",
				"energy": -0.03831,
				"method": "rhf"
			},
			{
				"type": "unocc",
				"energy": -0.00796,
				"method": "rhf"
			},
			{
				"type": "unocc",
				"energy": -0.00366,
				"method": "rhf"
			},
			{
				"type": "unocc",
				"energy": 0.0261,
				"method": "rhf"
			},
			{
				"type": "unocc",
				"energy": 0.07131,
				"method": "rhf"
			}
		],
		"cosmo_sigma_profile": { 
			"-0.025": 0.0,
			"-0.024": 0.0,
			"-0.023": 0.0,
			"-0.022": 0.0,
			"-0.021": 0.0,
			"-0.02": 0.0,
			"-0.019": 0.0,
			"-0.018": 0.061035540954,
			"-0.017": 1.10591208458,
			"-0.016": 0.702971040894,
			"-0.015": 1.03218351369,
			"-0.014": 0.948978365775,
			"-0.013": 0.697387451461,
			"-0.012": 0.779260782648,
			"-0.011": 0.0,
			"-0.01": 0.666176010518,
			"-0.009": 0.593917895152,
			"-0.008": 1.43395307489,
			"-0.007": 4.56685983413,
			"-0.006": 16.8757798991,
			"-0.005": 24.3931132431,
			"-0.004": 23.6651341683,
			"-0.003": 21.9328784592,
			"-0.002": 16.2817098184,
			"-0.001": 20.3412999304,
			"0.0": 16.1785568526,
			"0.001": 18.7190602533,
			"0.002": 16.8923105243,
			"0.003": 12.9423893807,
			"0.004": 13.2838438253,
			"0.005": 16.3577294915,
			"0.006": 7.13041489345,
			"0.007": 4.61983159186,
			"0.008": 3.64400502557,
			"0.009": 3.39930885828,
			"0.01": 3.70126859705,
			"0.011": 2.91350621325,
			"0.012": 3.14038897672,
			"0.013": 5.1415228476,
			"0.014": 2.60778906821,
			"0.015": 0.0,
			"0.016": 0.0,
			"0.017": 0.0,
			"0.018": 0.0,
			"0.019": 0.0,
			"0.02": 0.0,
			"0.021": 0.0,
			"0.022": 0.0,
			"0.023": 0.0,
			"0.024": 0.0,
			"0.025": 0.0
		}
	}
}
