{
	 "smiles": "CCCSP(=O)(OCC)SCCC", 
	 "Tm": 343.15, 
	 "num_atms": 32, 
	 "gaussian": { 
		 "optdone": 1, 
		 "sigma_profile": "yes", 
		 "theory": "DFT", 
		 "functional": "B3LYP", 
		 "basiset": "6-31G**", 
		 "properties": { 
			 "R2extent": 4932.8249, 
			 "electric_dipole_moment_norm": 1.10834670117, 
			 "electric_quadrupole_moment_norm": 14.0337629697, 
			 "total_energy": -1604.56251392, 
			 "HOMO_LUMO_gap": 0.23562, 
			 "cosmo_polarized_energy": -9.46, 
			 "cosmo_cavitation_energy": 38.14, 
			 "cosmo_dispersion_energy": -26.19, 
			 "cosmo_repulsion_energy": 2.04, 
			 "cosmo_total_nonelectrostatic_energy": 13.99, 
			 "SMD_solvation_energy": 6.5 
		},
		"coords": [
			{
				"x": -1.2792584125,
				"y": -0.1923793913,
				"z": -3.2445409406,
				"element": "C" 
			},
			{
				"x": -0.6731620821,
				"y": 0.9386156565,
				"z": -2.4105156635,
				"element": "C" 
			},
			{
				"x": -1.096295966,
				"y": 0.9314103012,
				"z": -0.9398071639,
				"element": "C" 
			},
			{
				"x": -0.5341135232,
				"y": -0.5511529313,
				"z": 0.0316143459,
				"element": "S" 
			},
			{
				"x": 1.38976977,
				"y": 0.1100514779,
				"z": 0.5731514389,
				"element": "P" 
			},
			{
				"x": 1.4857782028,
				"y": 1.5459425636,
				"z": 0.9744200603,
				"element": "O" 
			},
			{
				"x": 2.2614875325,
				"y": -0.3049777883,
				"z": -0.7347311101,
				"element": "O" 
			},
			{
				"x": 3.6413129162,
				"y": 0.1500831512,
				"z": -0.827968706,
				"element": "C" 
			},
			{
				"x": 4.188675829,
				"y": -0.3145079589,
				"z": -2.1637987788,
				"element": "C" 
			},
			{
				"x": 2.064289744,
				"y": -1.2562463897,
				"z": 2.0423123966,
				"element": "S" 
			},
			{
				"x": 2.0274057656,
				"y": -0.1964090945,
				"z": 3.5709324569,
				"element": "C" 
			},
			{
				"x": 0.9180885054,
				"y": -0.5562248182,
				"z": 4.561991233,
				"element": "C" 
			},
			{
				"x": -0.4950065043,
				"y": -0.2070036437,
				"z": 4.0917756295,
				"element": "C" 
			},
			{
				"x": -0.9592843104,
				"y": -0.1225307798,
				"z": -4.2889047696,
				"element": "H" 
			},
			{
				"x": -0.9713880683,
				"y": -1.1709859385,
				"z": -2.8639368931,
				"element": "H" 
			},
			{
				"x": -2.3747842766,
				"y": -0.153775139,
				"z": -3.2282620965,
				"element": "H" 
			},
			{
				"x": -0.9786516394,
				"y": 1.9088062348,
				"z": -2.8265372291,
				"element": "H" 
			},
			{
				"x": 0.4200271968,
				"y": 0.9044274239,
				"z": -2.4702082674,
				"element": "H" 
			},
			{
				"x": -2.1862517337,
				"y": 0.9052453931,
				"z": -0.8412338705,
				"element": "H" 
			},
			{
				"x": -0.729879808,
				"y": 1.8122202031,
				"z": -0.4073105058,
				"element": "H" 
			},
			{
				"x": 3.6572580209,
				"y": 1.2402470598,
				"z": -0.7366806026,
				"element": "H" 
			},
			{
				"x": 4.2088257106,
				"y": -0.2782383752,
				"z": 0.0058428143,
				"element": "H" 
			},
			{
				"x": 3.6131141206,
				"y": 0.1117939285,
				"z": -2.9902491196,
				"element": "H" 
			},
			{
				"x": 4.1509156469,
				"y": -1.4045550372,
				"z": -2.2409584154,
				"element": "H" 
			},
			{
				"x": 5.2307373198,
				"y": 0.0048692699,
				"z": -2.2672602102,
				"element": "H" 
			},
			{
				"x": 1.9571104218,
				"y": 0.8413773581,
				"z": 3.2338447789,
				"element": "H" 
			},
			{
				"x": 3.0127363173,
				"y": -0.3421340571,
				"z": 4.0214892398,
				"element": "H" 
			},
			{
				"x": 1.1405103068,
				"y": -0.0128724829,
				"z": 5.4911576454,
				"element": "H" 
			},
			{
				"x": 0.981258106,
				"y": -1.6227428117,
				"z": 4.8099847696,
				"element": "H" 
			},
			{
				"x": -0.7630516993,
				"y": -0.7580728549,
				"z": 3.1857904075,
				"element": "H" 
			},
			{
				"x": -0.583175742,
				"y": 0.8618425776,
				"z": 3.8685645291,
				"element": "H" 
			},
			{
				"x": -1.2316976674,
				"y": -0.452323107,
				"z": 4.8634325972,
				"element": "H" 
			}
		],
		 "valence_orbital": [ 
			{
				"type": "occ",
				"energy": -0.30572,
				"method": "rhf"
			},
			{
				"type": "occ",
				"energy": -0.29333,
				"method": "rhf"
			},
			{
				"type": "occ",
				"energy": -0.28068,
				"method": "rhf"
			},
			{
				"type": "occ",
				"energy": -0.25463,
				"method": "rhf"
			},
			{
				"type": "occ",
				"energy": -0.24546,
				"method": "rhf"
			},
			{
				"type": "unocc",
				"energy": -0.00984,
				"method": "rhf"
			},
			{
				"type": "unocc",
				"energy": 0.01272,
				"method": "rhf"
			},
			{
				"type": "unocc",
				"energy": 0.02552,
				"method": "rhf"
			},
			{
				"type": "unocc",
				"energy": 0.0715,
				"method": "rhf"
			},
			{
				"type": "unocc",
				"energy": 0.08013,
				"method": "rhf"
			}
		],
		"cosmo_sigma_profile": { 
			"-0.025": 0.0,
			"-0.024": 0.0,
			"-0.023": 0.0,
			"-0.022": 0.0,
			"-0.021": 0.0,
			"-0.02": 0.0,
			"-0.019": 0.0,
			"-0.018": 0.0,
			"-0.017": 0.0,
			"-0.016": 0.0,
			"-0.015": 0.0,
			"-0.014": 0.0,
			"-0.013": 0.0,
			"-0.012": 0.0,
			"-0.011": 0.0,
			"-0.01": 0.0,
			"-0.009": 0.0,
			"-0.008": 0.0,
			"-0.007": 0.569007868423,
			"-0.006": 4.7398839399,
			"-0.005": 10.4454267155,
			"-0.004": 27.4079215004,
			"-0.003": 39.4533694216,
			"-0.002": 36.6196345679,
			"-0.001": 36.857469294,
			"0.0": 35.4102892186,
			"0.001": 29.5857253177,
			"0.002": 16.369182737,
			"0.003": 13.3774043967,
			"0.004": 12.6592189505,
			"0.005": 10.5855829309,
			"0.006": 7.41023855856,
			"0.007": 2.65939346194,
			"0.008": 2.49455103375,
			"0.009": 2.32553301674,
			"0.01": 1.72563396795,
			"0.011": 1.22633681089,
			"0.012": 1.67302668755,
			"0.013": 4.08460339659,
			"0.014": 1.11302615883,
			"0.015": 0.0,
			"0.016": 0.0,
			"0.017": 0.0,
			"0.018": 0.0,
			"0.019": 0.0,
			"0.02": 0.0,
			"0.021": 0.0,
			"0.022": 0.0,
			"0.023": 0.0,
			"0.024": 0.0,
			"0.025": 0.0
		}
	}
}
