{
	 "smiles": "CCC(C)NC(=O)C1=CC(CN)=CC=C1", 
	 "Tm": 369.15, 
	 "num_atms": 33, 
	 "gaussian": { 
		 "optdone": 1, 
		 "sigma_profile": "yes", 
		 "theory": "DFT", 
		 "functional": "B3LYP", 
		 "basiset": "6-31G**", 
		 "properties": { 
			 "R2extent": 5012.9398, 
			 "electric_dipole_moment_norm": 2.10462349364, 
			 "electric_quadrupole_moment_norm": 14.984147544, 
			 "total_energy": -652.884042145, 
			 "HOMO_LUMO_gap": 0.19818, 
			 "cosmo_polarized_energy": -15.95, 
			 "cosmo_cavitation_energy": 35.82, 
			 "cosmo_dispersion_energy": -24.6, 
			 "cosmo_repulsion_energy": 1.98, 
			 "cosmo_total_nonelectrostatic_energy": 13.2, 
			 "SMD_solvation_energy": 4.97 
		},
		"coords": [
			{
				"x": 2.0180507269,
				"y": -3.0668081914,
				"z": 0.4318755626,
				"element": "C" 
			},
			{
				"x": 0.7473682896,
				"y": -3.174241298,
				"z": 1.2790782864,
				"element": "C" 
			},
			{
				"x": 0.0765578809,
				"y": -1.8218840875,
				"z": 1.587958992,
				"element": "C" 
			},
			{
				"x": -1.1369148797,
				"y": -1.9845746624,
				"z": 2.5118933961,
				"element": "C" 
			},
			{
				"x": -0.3144438288,
				"y": -1.1209577558,
				"z": 0.3640159259,
				"element": "N" 
			},
			{
				"x": 0.3310183026,
				"y": -0.0047673917,
				"z": -0.097238244,
				"element": "C" 
			},
			{
				"x": 1.2882162308,
				"y": 0.4997497281,
				"z": 0.4859410166,
				"element": "O" 
			},
			{
				"x": -0.1983161541,
				"y": 0.5804172523,
				"z": -1.3806586421,
				"element": "C" 
			},
			{
				"x": -1.5118311037,
				"y": 0.3945458164,
				"z": -1.8321943926,
				"element": "C" 
			},
			{
				"x": -1.9585111728,
				"y": 0.9666028023,
				"z": -3.0298038157,
				"element": "C" 
			},
			{
				"x": -3.4073594589,
				"y": 0.822731376,
				"z": -3.4660162807,
				"element": "C" 
			},
			{
				"x": -4.3151464784,
				"y": 1.8901138468,
				"z": -3.0153033499,
				"element": "N" 
			},
			{
				"x": -1.0535947433,
				"y": 1.7266747221,
				"z": -3.7830115385,
				"element": "C" 
			},
			{
				"x": 0.2535966945,
				"y": 1.9306674188,
				"z": -3.3372847079,
				"element": "C" 
			},
			{
				"x": 0.6788495806,
				"y": 1.3693219154,
				"z": -2.1354939241,
				"element": "C" 
			},
			{
				"x": 1.8056956915,
				"y": -2.6347560135,
				"z": -0.5507543282,
				"element": "H" 
			},
			{
				"x": 2.7634618787,
				"y": -2.4281499913,
				"z": 0.9162964798,
				"element": "H" 
			},
			{
				"x": 2.4663682002,
				"y": -4.0528688481,
				"z": 0.2735590475,
				"element": "H" 
			},
			{
				"x": 0.9804551145,
				"y": -3.6589350391,
				"z": 2.2357843853,
				"element": "H" 
			},
			{
				"x": 0.0177761041,
				"y": -3.8290519473,
				"z": 0.7794938311,
				"element": "H" 
			},
			{
				"x": 0.8107992888,
				"y": -1.1639401807,
				"z": 2.0616729353,
				"element": "H" 
			},
			{
				"x": -0.8462755402,
				"y": -2.46593635,
				"z": 3.4511865693,
				"element": "H" 
			},
			{
				"x": -1.9093047173,
				"y": -2.6090520741,
				"z": 2.0456377691,
				"element": "H" 
			},
			{
				"x": -1.5808288176,
				"y": -1.0129200665,
				"z": 2.7459513509,
				"element": "H" 
			},
			{
				"x": -0.9859415178,
				"y": -1.5717001063,
				"z": -0.2403682077,
				"element": "H" 
			},
			{
				"x": -2.2193438601,
				"y": -0.1760613523,
				"z": -1.2336851235,
				"element": "H" 
			},
			{
				"x": -3.4594760902,
				"y": 0.7847473033,
				"z": -4.560133966,
				"element": "H" 
			},
			{
				"x": -3.8091907829,
				"y": -0.1293894407,
				"z": -3.1004475761,
				"element": "H" 
			},
			{
				"x": -4.2811098386,
				"y": 1.9525161778,
				"z": -1.9993396451,
				"element": "H" 
			},
			{
				"x": -3.9723763945,
				"y": 2.7871942994,
				"z": -3.3541394542,
				"element": "H" 
			},
			{
				"x": -1.3784591521,
				"y": 2.1649555546,
				"z": -4.7244277864,
				"element": "H" 
			},
			{
				"x": 0.9417018347,
				"y": 2.5264662438,
				"z": -3.9303081345,
				"element": "H" 
			},
			{
				"x": 1.6847087127,
				"y": 1.5236903396,
				"z": -1.7605364305,
				"element": "H" 
			}
		],
		 "valence_orbital": [ 
			{
				"type": "occ",
				"energy": -0.26172,
				"method": "rhf"
			},
			{
				"type": "occ",
				"energy": -0.25914,
				"method": "rhf"
			},
			{
				"type": "occ",
				"energy": -0.24962,
				"method": "rhf"
			},
			{
				"type": "occ",
				"energy": -0.24505,
				"method": "rhf"
			},
			{
				"type": "occ",
				"energy": -0.23197,
				"method": "rhf"
			},
			{
				"type": "unocc",
				"energy": -0.03379,
				"method": "rhf"
			},
			{
				"type": "unocc",
				"energy": -0.0106,
				"method": "rhf"
			},
			{
				"type": "unocc",
				"energy": 0.05905,
				"method": "rhf"
			},
			{
				"type": "unocc",
				"energy": 0.07364,
				"method": "rhf"
			},
			{
				"type": "unocc",
				"energy": 0.08614,
				"method": "rhf"
			}
		],
		"cosmo_sigma_profile": { 
			"-0.025": 0.0,
			"-0.024": 0.0,
			"-0.023": 0.0,
			"-0.022": 0.0,
			"-0.021": 0.0,
			"-0.02": 0.0,
			"-0.019": 0.0,
			"-0.018": 0.0,
			"-0.017": 0.0,
			"-0.016": 0.0,
			"-0.015": 0.0,
			"-0.014": 0.00289723513359,
			"-0.013": 0.660172713547,
			"-0.012": 1.19479377824,
			"-0.011": 1.38139907478,
			"-0.01": 1.63769368614,
			"-0.009": 4.03249720014,
			"-0.008": 4.29680443417,
			"-0.007": 5.41112110603,
			"-0.006": 10.6660044013,
			"-0.005": 14.2880512114,
			"-0.004": 17.3578020939,
			"-0.003": 26.2474616312,
			"-0.002": 29.2549732588,
			"-0.001": 29.4216676346,
			"0.0": 29.0362249388,
			"0.001": 26.3967990918,
			"0.002": 14.9638471646,
			"0.003": 11.1854100415,
			"0.004": 11.5827386749,
			"0.005": 9.69228153248,
			"0.006": 3.43266529155,
			"0.007": 3.10446349312,
			"0.008": 2.51180090049,
			"0.009": 2.21192720601,
			"0.01": 2.24062996681,
			"0.011": 2.44994759712,
			"0.012": 2.78775741531,
			"0.013": 2.92484756051,
			"0.014": 5.29299171242,
			"0.015": 1.00184734469,
			"0.016": 1.10159814332,
			"0.017": 0.620146451138,
			"0.018": 0.762468189484,
			"0.019": 0.528367532264,
			"0.02": 0.276392501372,
			"0.021": 0.0,
			"0.022": 0.0,
			"0.023": 0.0,
			"0.024": 0.0,
			"0.025": 0.0
		}
	}
}
