{
	 "smiles": "NC1=CC(N)=C(C=C1)C(O)=O", 
	 "Tm": 413.15, 
	 "num_atms": 19, 
	 "gaussian": { 
		 "optdone": 1, 
		 "sigma_profile": "yes", 
		 "theory": "DFT", 
		 "functional": "B3LYP", 
		 "basiset": "6-31G**", 
		 "properties": { 
			 "R2extent": 2105.8682, 
			 "electric_dipole_moment_norm": 5.72881799763, 
			 "electric_quadrupole_moment_norm": 13.8781948369, 
			 "total_energy": -531.54237743, 
			 "HOMO_LUMO_gap": 0.17508, 
			 "cosmo_polarized_energy": -19.21, 
			 "cosmo_cavitation_energy": 22.77, 
			 "cosmo_dispersion_energy": -17.51, 
			 "cosmo_repulsion_energy": 1.4, 
			 "cosmo_total_nonelectrostatic_energy": 6.67, 
			 "SMD_solvation_energy": 4.76 
		},
		"coords": [
			{
				"x": 1.2259057196,
				"y": -2.8359598951,
				"z": 0.2817685758,
				"element": "N" 
			},
			{
				"x": 0.6237798036,
				"y": -1.6147632177,
				"z": 0.5366229202,
				"element": "C" 
			},
			{
				"x": -0.2349080642,
				"y": -1.0329472583,
				"z": -0.3976215268,
				"element": "C" 
			},
			{
				"x": -0.9036828523,
				"y": 0.1782636998,
				"z": -0.1398321329,
				"element": "C" 
			},
			{
				"x": -1.7223116604,
				"y": 0.7211305638,
				"z": -1.0890975731,
				"element": "N" 
			},
			{
				"x": -0.6696380884,
				"y": 0.847119224,
				"z": 1.1039946034,
				"element": "C" 
			},
			{
				"x": 0.1858987673,
				"y": 0.2228662256,
				"z": 2.0341622081,
				"element": "C" 
			},
			{
				"x": 0.8274815187,
				"y": -0.9727162211,
				"z": 1.7807461118,
				"element": "C" 
			},
			{
				"x": -1.3493894336,
				"y": 2.1209588586,
				"z": 1.4024261716,
				"element": "C" 
			},
			{
				"x": -0.8851276874,
				"y": 2.8518253955,
				"z": 2.4552975823,
				"element": "O" 
			},
			{
				"x": -2.2983549583,
				"y": 2.5705014697,
				"z": 0.7760946607,
				"element": "O" 
			},
			{
				"x": 1.297667127,
				"y": -3.1128280186,
				"z": -0.686291119,
				"element": "H" 
			},
			{
				"x": 2.0506807933,
				"y": -3.051513302,
				"z": 0.8220769764,
				"element": "H" 
			},
			{
				"x": -0.403919875,
				"y": -1.5291185522,
				"z": -1.3508748854,
				"element": "H" 
			},
			{
				"x": -2.0222888488,
				"y": 0.1356784172,
				"z": -1.8515902941,
				"element": "H" 
			},
			{
				"x": -2.3287201285,
				"y": 1.4723195096,
				"z": -0.7781901739,
				"element": "H" 
			},
			{
				"x": 0.3249697975,
				"y": 0.6679250926,
				"z": 3.0169981791,
				"element": "H" 
			},
			{
				"x": 1.4640707421,
				"y": -1.4303759954,
				"z": 2.5317485098,
				"element": "H" 
			},
			{
				"x": -0.0286126723,
				"y": 2.5082340041,
				"z": 2.7415612062,
				"element": "H" 
			}
		],
		 "valence_orbital": [ 
			{
				"type": "occ",
				"energy": -0.30153,
				"method": "rhf"
			},
			{
				"type": "occ",
				"energy": -0.29559,
				"method": "rhf"
			},
			{
				"type": "occ",
				"energy": -0.26239,
				"method": "rhf"
			},
			{
				"type": "occ",
				"energy": -0.21947,
				"method": "rhf"
			},
			{
				"type": "occ",
				"energy": -0.20235,
				"method": "rhf"
			},
			{
				"type": "unocc",
				"energy": -0.02727,
				"method": "rhf"
			},
			{
				"type": "unocc",
				"energy": 0.00971,
				"method": "rhf"
			},
			{
				"type": "unocc",
				"energy": 0.06263,
				"method": "rhf"
			},
			{
				"type": "unocc",
				"energy": 0.07078,
				"method": "rhf"
			},
			{
				"type": "unocc",
				"energy": 0.07965,
				"method": "rhf"
			}
		],
		"cosmo_sigma_profile": { 
			"-0.025": 0.0,
			"-0.024": 0.0,
			"-0.023": 0.0,
			"-0.022": 0.0,
			"-0.021": 0.0,
			"-0.02": 0.0,
			"-0.019": 0.0,
			"-0.018": 0.401031431964,
			"-0.017": 0.790730545308,
			"-0.016": 0.893438488441,
			"-0.015": 0.687545542761,
			"-0.014": 1.01567308671,
			"-0.013": 3.04720425375,
			"-0.012": 5.91010945438,
			"-0.011": 4.23832698701,
			"-0.01": 6.29346770583,
			"-0.009": 5.09497868181,
			"-0.008": 5.80413577868,
			"-0.007": 7.60008548408,
			"-0.006": 6.85216930184,
			"-0.005": 6.85336669118,
			"-0.004": 7.93949565022,
			"-0.003": 5.41226396385,
			"-0.002": 4.96866136849,
			"-0.001": 6.90541167107,
			"0.0": 7.10373394503,
			"0.001": 6.7513931425,
			"0.002": 7.70370780334,
			"0.003": 10.8948341937,
			"0.004": 10.530920707,
			"0.005": 14.2718133476,
			"0.006": 10.9554075699,
			"0.007": 4.32846048727,
			"0.008": 3.86196520413,
			"0.009": 4.40183778398,
			"0.01": 4.76989476242,
			"0.011": 4.54648981073,
			"0.012": 5.1648947183,
			"0.013": 2.87103500569,
			"0.014": 1.65352983703,
			"0.015": 0.176150869953,
			"0.016": 0.0,
			"0.017": 0.0,
			"0.018": 0.0,
			"0.019": 0.0,
			"0.02": 0.0,
			"0.021": 0.0,
			"0.022": 0.0,
			"0.023": 0.0,
			"0.024": 0.0,
			"0.025": 0.0
		}
	}
}
