{
	 "smiles": "CN1CC(=O)N(CC2=C(C=C(C=C2)C(N)=O)[N+]([O-])=O)C1=O", 
	 "Tm": 493.15, 
	 "num_atms": 33, 
	 "gaussian": { 
		 "optdone": 1, 
		 "sigma_profile": "yes", 
		 "theory": "DFT", 
		 "functional": "B3LYP", 
		 "basiset": "6-31G**", 
		 "properties": { 
			 "R2extent": 7875.0533, 
			 "electric_dipole_moment_norm": 8.85750384307, 
			 "electric_quadrupole_moment_norm": 20.9064062074, 
			 "total_energy": -1059.58682578, 
			 "HOMO_LUMO_gap": 0.16919, 
			 "cosmo_polarized_energy": -28.54, 
			 "cosmo_cavitation_energy": 38.87, 
			 "cosmo_dispersion_energy": -27.16, 
			 "cosmo_repulsion_energy": 2.1, 
			 "cosmo_total_nonelectrostatic_energy": 13.8, 
			 "SMD_solvation_energy": 10.61 
		},
		"coords": [
			{
				"x": 2.7979186796,
				"y": -4.7332888684,
				"z": 0.7182019463,
				"element": "C" 
			},
			{
				"x": 2.4983901768,
				"y": -3.4198044105,
				"z": 0.1897852585,
				"element": "N" 
			},
			{
				"x": 2.5355226681,
				"y": -3.073463546,
				"z": -1.2165175204,
				"element": "C" 
			},
			{
				"x": 2.2651807456,
				"y": -1.5664954934,
				"z": -1.2123107586,
				"element": "C" 
			},
			{
				"x": 2.2013332995,
				"y": -0.8258416312,
				"z": -2.1708257973,
				"element": "O" 
			},
			{
				"x": 2.1125140513,
				"y": -1.2168191149,
				"z": 0.1172411601,
				"element": "N" 
			},
			{
				"x": 1.9692671646,
				"y": 0.1459585756,
				"z": 0.6003172867,
				"element": "C" 
			},
			{
				"x": 0.5396657418,
				"y": 0.5270813393,
				"z": 0.9659699699,
				"element": "C" 
			},
			{
				"x": 0.1952775322,
				"y": 1.7158539139,
				"z": 1.6439716049,
				"element": "C" 
			},
			{
				"x": -1.1185596753,
				"y": 2.0314285804,
				"z": 1.9777617492,
				"element": "C" 
			},
			{
				"x": -2.1555816391,
				"y": 1.160275097,
				"z": 1.6471274311,
				"element": "C" 
			},
			{
				"x": -1.84318206,
				"y": -0.0178264999,
				"z": 0.9602552379,
				"element": "C" 
			},
			{
				"x": -0.5232594498,
				"y": -0.320792312,
				"z": 0.6354393624,
				"element": "C" 
			},
			{
				"x": -3.5526402144,
				"y": 1.5708391202,
				"z": 2.0270285989,
				"element": "C" 
			},
			{
				"x": -4.4932977485,
				"y": 0.5697408299,
				"z": 2.0431538728,
				"element": "N" 
			},
			{
				"x": -3.8317865832,
				"y": 2.7342327475,
				"z": 2.2801971646,
				"element": "O" 
			},
			{
				"x": 1.2150221528,
				"y": 2.7090892856,
				"z": 2.0326983709,
				"element": "N" 
			},
			{
				"x": 0.895794134,
				"y": 3.5691103741,
				"z": 2.8485393018,
				"element": "O" 
			},
			{
				"x": 2.3291638289,
				"y": 2.6275232101,
				"z": 1.5096650452,
				"element": "O" 
			},
			{
				"x": 2.2960093122,
				"y": -2.3227095495,
				"z": 0.987297155,
				"element": "C" 
			},
			{
				"x": 2.2673174226,
				"y": -2.2661457242,
				"z": 2.2016744151,
				"element": "O" 
			},
			{
				"x": 3.8117102227,
				"y": -5.0507251721,
				"z": 0.4439925155,
				"element": "H" 
			},
			{
				"x": 2.7242905238,
				"y": -4.6784777926,
				"z": 1.8051544364,
				"element": "H" 
			},
			{
				"x": 2.0851100237,
				"y": -5.4784198258,
				"z": 0.3462906437,
				"element": "H" 
			},
			{
				"x": 3.5120340775,
				"y": -3.2739533984,
				"z": -1.6775046336,
				"element": "H" 
			},
			{
				"x": 1.7706558601,
				"y": -3.595386425,
				"z": -1.8058983079,
				"element": "H" 
			},
			{
				"x": 2.620925507,
				"y": 0.2656498178,
				"z": 1.4667404211,
				"element": "H" 
			},
			{
				"x": 2.3422065934,
				"y": 0.806192221,
				"z": -0.1851267795,
				"element": "H" 
			},
			{
				"x": -1.3388160956,
				"y": 2.9574597671,
				"z": 2.4929990989,
				"element": "H" 
			},
			{
				"x": -2.6299084224,
				"y": -0.6967594826,
				"z": 0.6453873648,
				"element": "H" 
			},
			{
				"x": -0.3090351075,
				"y": -1.2413978027,
				"z": 0.1062829309,
				"element": "H" 
			},
			{
				"x": -4.21653697,
				"y": -0.3907132688,
				"z": 2.175362029,
				"element": "H" 
			},
			{
				"x": -5.3974057524,
				"y": 0.8354854386,
				"z": 2.4073494253,
				"element": "H" 
			}
		],
		 "valence_orbital": [ 
			{
				"type": "occ",
				"energy": -0.28385,
				"method": "rhf"
			},
			{
				"type": "occ",
				"energy": -0.27939,
				"method": "rhf"
			},
			{
				"type": "occ",
				"energy": -0.27466,
				"method": "rhf"
			},
			{
				"type": "occ",
				"energy": -0.26398,
				"method": "rhf"
			},
			{
				"type": "occ",
				"energy": -0.26232,
				"method": "rhf"
			},
			{
				"type": "unocc",
				"energy": -0.09313,
				"method": "rhf"
			},
			{
				"type": "unocc",
				"energy": -0.05476,
				"method": "rhf"
			},
			{
				"type": "unocc",
				"energy": -0.02122,
				"method": "rhf"
			},
			{
				"type": "unocc",
				"energy": -0.01454,
				"method": "rhf"
			},
			{
				"type": "unocc",
				"energy": 0.04135,
				"method": "rhf"
			}
		],
		"cosmo_sigma_profile": { 
			"-0.025": 0.0,
			"-0.024": 0.0,
			"-0.023": 0.0,
			"-0.022": 0.0,
			"-0.021": 0.0,
			"-0.02": 0.0,
			"-0.019": 0.0,
			"-0.018": 0.0,
			"-0.017": 0.0,
			"-0.016": 0.0,
			"-0.015": 0.749315479278,
			"-0.014": 2.02288726235,
			"-0.013": 3.11650555816,
			"-0.012": 2.57151247002,
			"-0.011": 2.79740056565,
			"-0.01": 3.04650378043,
			"-0.009": 4.55446151872,
			"-0.008": 11.194641948,
			"-0.007": 14.6247180826,
			"-0.006": 17.4124094962,
			"-0.005": 22.0693451869,
			"-0.004": 21.7572828377,
			"-0.003": 21.3311805791,
			"-0.002": 22.2933089003,
			"-0.001": 18.1112407418,
			"0.0": 20.0844330116,
			"0.001": 14.1018144116,
			"0.002": 10.0248710484,
			"0.003": 7.92410259675,
			"0.004": 9.12629960069,
			"0.005": 8.2322783336,
			"0.006": 8.50672358474,
			"0.007": 10.8523480607,
			"0.008": 9.23243753585,
			"0.009": 7.89633557314,
			"0.01": 7.37441450653,
			"0.011": 6.84423910633,
			"0.012": 12.1097614158,
			"0.013": 8.73353241987,
			"0.014": 1.14709740023,
			"0.015": 0.0,
			"0.016": 0.0,
			"0.017": 0.0,
			"0.018": 0.0,
			"0.019": 0.0,
			"0.02": 0.0,
			"0.021": 0.0,
			"0.022": 0.0,
			"0.023": 0.0,
			"0.024": 0.0,
			"0.025": 0.0
		}
	}
}
