{
	 "smiles": "FC1=CC=C(C=C1)C1=CSC2=C1C(S)=NC=N2", 
	 "Tm": 518.15, 
	 "num_atms": 24, 
	 "gaussian": { 
		 "optdone": 1, 
		 "sigma_profile": "yes", 
		 "theory": "DFT", 
		 "functional": "B3LYP", 
		 "basiset": "6-31G**", 
		 "properties": { 
			 "R2extent": 5091.3103, 
			 "electric_dipole_moment_norm": 3.3082292877, 
			 "electric_quadrupole_moment_norm": 9.29223067998, 
			 "total_energy": -1467.19937032, 
			 "HOMO_LUMO_gap": 0.17628, 
			 "cosmo_polarized_energy": -9.93, 
			 "cosmo_cavitation_energy": 32.34, 
			 "cosmo_dispersion_energy": -23.96, 
			 "cosmo_repulsion_energy": 1.72, 
			 "cosmo_total_nonelectrostatic_energy": 10.1, 
			 "SMD_solvation_energy": 1.95 
		},
		"coords": [
			{
				"x": 5.1313510147,
				"y": 0.8289078026,
				"z": 0.2349596085,
				"element": "F" 
			},
			{
				"x": 3.8345827351,
				"y": 0.4856977725,
				"z": 0.3549172418,
				"element": "C" 
			},
			{
				"x": 3.2528104525,
				"y": -0.3072849935,
				"z": -0.6292848858,
				"element": "C" 
			},
			{
				"x": 1.9109095605,
				"y": -0.6600453555,
				"z": -0.4992481269,
				"element": "C" 
			},
			{
				"x": 1.1489123336,
				"y": -0.2202315459,
				"z": 0.5986279999,
				"element": "C" 
			},
			{
				"x": 1.7732850059,
				"y": 0.5763448046,
				"z": 1.5725585341,
				"element": "C" 
			},
			{
				"x": 3.1163090056,
				"y": 0.9341422017,
				"z": 1.4573880187,
				"element": "C" 
			},
			{
				"x": -0.264283274,
				"y": -0.65379559,
				"z": 0.7731377997,
				"element": "C" 
			},
			{
				"x": -0.6185669856,
				"y": -1.4670421722,
				"z": 1.8125965399,
				"element": "C" 
			},
			{
				"x": -2.292149432,
				"y": -1.9502035554,
				"z": 1.8297128759,
				"element": "S" 
			},
			{
				"x": -2.5803851036,
				"y": -1.0250179433,
				"z": 0.3687828896,
				"element": "C" 
			},
			{
				"x": -1.4072147517,
				"y": -0.3607045103,
				"z": -0.0774511377,
				"element": "C" 
			},
			{
				"x": -1.6316078993,
				"y": 0.4731311394,
				"z": -1.2047759869,
				"element": "C" 
			},
			{
				"x": -0.4652130935,
				"y": 1.5733639047,
				"z": -1.9659698626,
				"element": "S" 
			},
			{
				"x": -2.8229387143,
				"y": 0.5230010346,
				"z": -1.8022140138,
				"element": "N" 
			},
			{
				"x": -3.8245753959,
				"y": -0.2033164899,
				"z": -1.2910479716,
				"element": "C" 
			},
			{
				"x": -3.7815605223,
				"y": -0.9719026976,
				"z": -0.2048447318,
				"element": "N" 
			},
			{
				"x": 3.8494554145,
				"y": -0.6426748425,
				"z": -1.4705074987,
				"element": "H" 
			},
			{
				"x": 1.4485325411,
				"y": -1.2887295211,
				"z": -1.2540351417,
				"element": "H" 
			},
			{
				"x": 1.1958967189,
				"y": 0.9244937616,
				"z": 2.4233426745,
				"element": "H" 
			},
			{
				"x": 3.6060116526,
				"y": 1.5528220855,
				"z": 2.2014416609,
				"element": "H" 
			},
			{
				"x": 0.0509381628,
				"y": -1.8482246876,
				"z": 2.5720787386,
				"element": "H" 
			},
			{
				"x": 0.5660520544,
				"y": 1.3411458145,
				"z": -1.1327391462,
				"element": "H" 
			},
			{
				"x": -4.7764514801,
				"y": -0.1447764171,
				"z": -1.8134260783,
				"element": "H" 
			}
		],
		 "valence_orbital": [ 
			{
				"type": "occ",
				"energy": -0.27697,
				"method": "rhf"
			},
			{
				"type": "occ",
				"energy": -0.27569,
				"method": "rhf"
			},
			{
				"type": "occ",
				"energy": -0.26311,
				"method": "rhf"
			},
			{
				"type": "occ",
				"energy": -0.25589,
				"method": "rhf"
			},
			{
				"type": "occ",
				"energy": -0.23234,
				"method": "rhf"
			},
			{
				"type": "unocc",
				"energy": -0.05606,
				"method": "rhf"
			},
			{
				"type": "unocc",
				"energy": -0.03729,
				"method": "rhf"
			},
			{
				"type": "unocc",
				"energy": -0.03004,
				"method": "rhf"
			},
			{
				"type": "unocc",
				"energy": -0.02801,
				"method": "rhf"
			},
			{
				"type": "unocc",
				"energy": 0.00854,
				"method": "rhf"
			}
		],
		"cosmo_sigma_profile": { 
			"-0.025": 0.0,
			"-0.024": 0.0,
			"-0.023": 0.0,
			"-0.022": 0.0,
			"-0.021": 0.0,
			"-0.02": 0.0,
			"-0.019": 0.0,
			"-0.018": 0.0,
			"-0.017": 0.0,
			"-0.016": 0.0,
			"-0.015": 0.0,
			"-0.014": 0.0,
			"-0.013": 0.0,
			"-0.012": 0.0,
			"-0.011": 0.0,
			"-0.01": 0.623179976885,
			"-0.009": 2.24983950962,
			"-0.008": 5.12672287091,
			"-0.007": 10.3214654989,
			"-0.006": 13.0852429767,
			"-0.005": 15.5072295793,
			"-0.004": 13.1690874766,
			"-0.003": 13.72429773,
			"-0.002": 16.9320544479,
			"-0.001": 25.4361837048,
			"0.0": 27.3438153574,
			"0.001": 30.4837401306,
			"0.002": 22.4211949225,
			"0.003": 21.6692630777,
			"0.004": 18.0927271488,
			"0.005": 8.1875635854,
			"0.006": 6.30491439586,
			"0.007": 4.67697010043,
			"0.008": 1.77595028055,
			"0.009": 1.43517405657,
			"0.01": 2.55634637497,
			"0.011": 2.10545258511,
			"0.012": 1.012681582,
			"0.013": 1.88072172683,
			"0.014": 0.66929922177,
			"0.015": 0.00623995194737,
			"0.016": 0.0,
			"0.017": 0.0,
			"0.018": 0.0,
			"0.019": 0.0,
			"0.02": 0.0,
			"0.021": 0.0,
			"0.022": 0.0,
			"0.023": 0.0,
			"0.024": 0.0,
			"0.025": 0.0
		}
	}
}
