{
	 "smiles": "CCN1C=C(C=N1)N1C(=O)C=CC1=O", 
	 "Tm": 366.15, 
	 "num_atms": 23, 
	 "gaussian": { 
		 "optdone": 1, 
		 "sigma_profile": "yes", 
		 "theory": "DFT", 
		 "functional": "B3LYP", 
		 "basiset": "6-31G**", 
		 "properties": { 
			 "R2extent": 3770.1697, 
			 "electric_dipole_moment_norm": 2.59137789988, 
			 "electric_quadrupole_moment_norm": 22.4238564808, 
			 "total_energy": -663.062008897, 
			 "HOMO_LUMO_gap": 0.1188, 
			 "cosmo_polarized_energy": -12.51, 
			 "cosmo_cavitation_energy": 28.01, 
			 "cosmo_dispersion_energy": -20.33, 
			 "cosmo_repulsion_energy": 1.58, 
			 "cosmo_total_nonelectrostatic_energy": 9.26, 
			 "SMD_solvation_energy": 5.94 
		},
		"coords": [
			{
				"x": -4.0562958999,
				"y": -0.5127029043,
				"z": -0.4112056146,
				"element": "C" 
			},
			{
				"x": -2.7615213867,
				"y": -0.2334653637,
				"z": -1.1754542012,
				"element": "C" 
			},
			{
				"x": -1.7820498702,
				"y": 0.488933467,
				"z": -0.371775282,
				"element": "N" 
			},
			{
				"x": -0.6866525797,
				"y": -0.018432305,
				"z": 0.2528950535,
				"element": "C" 
			},
			{
				"x": -0.1216721133,
				"y": 1.0413140646,
				"z": 0.9480994286,
				"element": "C" 
			},
			{
				"x": -0.9600672696,
				"y": 2.1505709029,
				"z": 0.6798625278,
				"element": "C" 
			},
			{
				"x": -1.9664435693,
				"y": 1.7999166114,
				"z": -0.1200809981,
				"element": "N" 
			},
			{
				"x": 1.0457754398,
				"y": 1.0068975102,
				"z": 1.740279152,
				"element": "N" 
			},
			{
				"x": 1.8285230748,
				"y": -0.1376017071,
				"z": 1.9694583826,
				"element": "C" 
			},
			{
				"x": 1.618914402,
				"y": -1.2479523791,
				"z": 1.5239837605,
				"element": "O" 
			},
			{
				"x": 2.9552111585,
				"y": 0.2924263134,
				"z": 2.8621111526,
				"element": "C" 
			},
			{
				"x": 2.8222131466,
				"y": 1.5942891728,
				"z": 3.1242877219,
				"element": "C" 
			},
			{
				"x": 1.5989504619,
				"y": 2.1078795751,
				"z": 2.4213586097,
				"element": "C" 
			},
			{
				"x": 1.1635008113,
				"y": 3.2397867225,
				"z": 2.4303163309,
				"element": "O" 
			},
			{
				"x": -4.5031485631,
				"y": 0.4254725629,
				"z": -0.0731503967,
				"element": "H" 
			},
			{
				"x": -3.8676182321,
				"y": -1.1421785342,
				"z": 0.4637009888,
				"element": "H" 
			},
			{
				"x": -4.7727336782,
				"y": -1.0274681265,
				"z": -1.0592803389,
				"element": "H" 
			},
			{
				"x": -2.2877043276,
				"y": -1.1631320366,
				"z": -1.503495167,
				"element": "H" 
			},
			{
				"x": -2.9619864056,
				"y": 0.3732002398,
				"z": -2.0630098374,
				"element": "H" 
			},
			{
				"x": -0.383524847,
				"y": -1.0481536317,
				"z": 0.1671739674,
				"element": "H" 
			},
			{
				"x": -0.8557948257,
				"y": 3.1644660265,
				"z": 1.0309477959,
				"element": "H" 
			},
			{
				"x": 3.7120968494,
				"y": -0.4058691966,
				"z": 3.193672887,
				"element": "H" 
			},
			{
				"x": 3.4412282236,
				"y": 2.2450030156,
				"z": 3.7274040768,
				"element": "H" 
			}
		],
		 "valence_orbital": [ 
			{
				"type": "occ",
				"energy": -0.30325,
				"method": "rhf"
			},
			{
				"type": "occ",
				"energy": -0.28627,
				"method": "rhf"
			},
			{
				"type": "occ",
				"energy": -0.27626,
				"method": "rhf"
			},
			{
				"type": "occ",
				"energy": -0.24897,
				"method": "rhf"
			},
			{
				"type": "occ",
				"energy": -0.22061,
				"method": "rhf"
			},
			{
				"type": "unocc",
				"energy": -0.10181,
				"method": "rhf"
			},
			{
				"type": "unocc",
				"energy": 0.0152,
				"method": "rhf"
			},
			{
				"type": "unocc",
				"energy": 0.03349,
				"method": "rhf"
			},
			{
				"type": "unocc",
				"energy": 0.06084,
				"method": "rhf"
			},
			{
				"type": "unocc",
				"energy": 0.09392,
				"method": "rhf"
			}
		],
		"cosmo_sigma_profile": { 
			"-0.025": 0.0,
			"-0.024": 0.0,
			"-0.023": 0.0,
			"-0.022": 0.0,
			"-0.021": 0.0,
			"-0.02": 0.0,
			"-0.019": 0.0,
			"-0.018": 0.0,
			"-0.017": 0.0,
			"-0.016": 0.0,
			"-0.015": 0.0,
			"-0.014": 0.0,
			"-0.013": 0.0,
			"-0.012": 0.0,
			"-0.011": 0.0,
			"-0.01": 2.38176583059,
			"-0.009": 4.32621511325,
			"-0.008": 5.67608388933,
			"-0.007": 6.19693659714,
			"-0.006": 9.81177070213,
			"-0.005": 13.6863741074,
			"-0.004": 20.6767593339,
			"-0.003": 22.3361460539,
			"-0.002": 17.6344521186,
			"-0.001": 16.6609935474,
			"0.0": 17.0911259621,
			"0.001": 12.9730807827,
			"0.002": 11.3356945148,
			"0.003": 11.2558022611,
			"0.004": 9.18584591262,
			"0.005": 5.47413922996,
			"0.006": 5.63875019472,
			"0.007": 4.85376724161,
			"0.008": 4.81671485617,
			"0.009": 6.5058213523,
			"0.01": 6.75582294765,
			"0.011": 5.22064573758,
			"0.012": 1.07149541001,
			"0.013": 1.0756780765,
			"0.014": 0.828252194849,
			"0.015": 0.961571205539,
			"0.016": 0.220373973112,
			"0.017": 0.0,
			"0.018": 0.0,
			"0.019": 0.0,
			"0.02": 0.0,
			"0.021": 0.0,
			"0.022": 0.0,
			"0.023": 0.0,
			"0.024": 0.0,
			"0.025": 0.0
		}
	}
}
