{
	 "smiles": "NS(=O)(=O)C1=CC(F)=C(OCC(O)=O)C=C1", 
	 "Tm": 451.15, 
	 "num_atms": 24, 
	 "gaussian": { 
		 "optdone": 1, 
		 "sigma_profile": "yes", 
		 "theory": "DFT", 
		 "functional": "B3LYP", 
		 "basiset": "6-31G**", 
		 "properties": { 
			 "R2extent": 5984.2146, 
			 "electric_dipole_moment_norm": 3.67500648979, 
			 "electric_quadrupole_moment_norm": 40.2039868216, 
			 "total_energy": -1238.48248591, 
			 "HOMO_LUMO_gap": 0.21115, 
			 "cosmo_polarized_energy": -28.14, 
			 "cosmo_cavitation_energy": 31.67, 
			 "cosmo_dispersion_energy": -23.32, 
			 "cosmo_repulsion_energy": 1.76, 
			 "cosmo_total_nonelectrostatic_energy": 10.12, 
			 "SMD_solvation_energy": 7.25 
		},
		"coords": [
			{
				"x": -1.3231437422,
				"y": -1.5621240904,
				"z": -4.1647506214,
				"element": "N" 
			},
			{
				"x": -0.7268137756,
				"y": -2.5233172594,
				"z": -2.9254020292,
				"element": "S" 
			},
			{
				"x": -1.7807011161,
				"y": -3.492722648,
				"z": -2.6358624794,
				"element": "O" 
			},
			{
				"x": 0.6240672616,
				"y": -2.89936139,
				"z": -3.3354726408,
				"element": "O" 
			},
			{
				"x": -0.564541506,
				"y": -1.4740400638,
				"z": -1.473371429,
				"element": "C" 
			},
			{
				"x": 0.6240018436,
				"y": -0.7595018968,
				"z": -1.2770188338,
				"element": "C" 
			},
			{
				"x": 0.7247886821,
				"y": 0.0550773399,
				"z": -0.1666800049,
				"element": "C" 
			},
			{
				"x": 1.8497339571,
				"y": 0.754787889,
				"z": 0.0624946365,
				"element": "F" 
			},
			{
				"x": -0.3259073581,
				"y": 0.1753869592,
				"z": 0.7604118297,
				"element": "C" 
			},
			{
				"x": -0.0882516192,
				"y": 1.012363737,
				"z": 1.8072057009,
				"element": "O" 
			},
			{
				"x": -1.0721082396,
				"y": 1.175886445,
				"z": 2.824748731,
				"element": "C" 
			},
			{
				"x": -0.5228025636,
				"y": 2.1396786081,
				"z": 3.8803401108,
				"element": "C" 
			},
			{
				"x": 0.7243154204,
				"y": 2.5863426754,
				"z": 3.6714312764,
				"element": "O" 
			},
			{
				"x": -1.1902488994,
				"y": 2.4570667836,
				"z": 4.831351927,
				"element": "O" 
			},
			{
				"x": -1.4985281753,
				"y": -0.5539784786,
				"z": 0.5543211666,
				"element": "C" 
			},
			{
				"x": -1.6164665691,
				"y": -1.3822836749,
				"z": -0.5656460652,
				"element": "C" 
			},
			{
				"x": -0.6760065685,
				"y": -0.839987448,
				"z": -4.4633421324,
				"element": "H" 
			},
			{
				"x": -2.2646810789,
				"y": -1.2234428245,
				"z": -3.9968357538,
				"element": "H" 
			},
			{
				"x": 1.4632765755,
				"y": -0.8581469514,
				"z": -1.9561550244,
				"element": "H" 
			},
			{
				"x": -1.9995040222,
				"y": 1.5970446876,
				"z": 2.4196019375,
				"element": "H" 
			},
			{
				"x": -1.3026461926,
				"y": 0.2212752972,
				"z": 3.3124171983,
				"element": "H" 
			},
			{
				"x": 1.0628157237,
				"y": 2.1990094763,
				"z": 2.8445746866,
				"element": "H" 
			},
			{
				"x": -2.3166109491,
				"y": -0.490597529,
				"z": 1.2620071234,
				"element": "H" 
			},
			{
				"x": -2.5128370885,
				"y": -1.9727156434,
				"z": -0.7187693103,
				"element": "H" 
			}
		],
		 "valence_orbital": [ 
			{
				"type": "occ",
				"energy": -0.31572,
				"method": "rhf"
			},
			{
				"type": "occ",
				"energy": -0.31541,
				"method": "rhf"
			},
			{
				"type": "occ",
				"energy": -0.29057,
				"method": "rhf"
			},
			{
				"type": "occ",
				"energy": -0.28983,
				"method": "rhf"
			},
			{
				"type": "occ",
				"energy": -0.26371,
				"method": "rhf"
			},
			{
				"type": "unocc",
				"energy": -0.05256,
				"method": "rhf"
			},
			{
				"type": "unocc",
				"energy": -0.04135,
				"method": "rhf"
			},
			{
				"type": "unocc",
				"energy": -0.00534,
				"method": "rhf"
			},
			{
				"type": "unocc",
				"energy": 0.03185,
				"method": "rhf"
			},
			{
				"type": "unocc",
				"energy": 0.05106,
				"method": "rhf"
			}
		],
		"cosmo_sigma_profile": { 
			"-0.025": 0.0,
			"-0.024": 0.0,
			"-0.023": 0.0,
			"-0.022": 0.0,
			"-0.021": 0.0,
			"-0.02": 0.0,
			"-0.019": 0.0,
			"-0.018": 0.0,
			"-0.017": 0.0,
			"-0.016": 0.276019169664,
			"-0.015": 2.46885027076,
			"-0.014": 3.19699574808,
			"-0.013": 2.55455527171,
			"-0.012": 4.85188765987,
			"-0.011": 3.06799036065,
			"-0.01": 4.09385148555,
			"-0.009": 13.0198186627,
			"-0.008": 12.3539465506,
			"-0.007": 13.6238423465,
			"-0.006": 9.80614871888,
			"-0.005": 8.19382174047,
			"-0.004": 7.36677637285,
			"-0.003": 8.04143910125,
			"-0.002": 11.1493015893,
			"-0.001": 17.2967370824,
			"0.0": 14.8570160261,
			"0.001": 14.7648384287,
			"0.002": 11.5640634377,
			"0.003": 11.9001794463,
			"0.004": 8.08136481564,
			"0.005": 4.59950073373,
			"0.006": 6.2200428057,
			"0.007": 6.85932985705,
			"0.008": 8.2039095844,
			"0.009": 8.07073439132,
			"0.01": 12.6295610843,
			"0.011": 15.6922923895,
			"0.012": 7.7957709822,
			"0.013": 0.595648073081,
			"0.014": 0.0,
			"0.015": 0.0,
			"0.016": 0.0,
			"0.017": 0.0,
			"0.018": 0.0,
			"0.019": 0.0,
			"0.02": 0.0,
			"0.021": 0.0,
			"0.022": 0.0,
			"0.023": 0.0,
			"0.024": 0.0,
			"0.025": 0.0
		}
	}
}
