{
	 "smiles": "ClC1=CC2=C(SC(CC#N)=N2)C=C1", 
	 "Tm": 429.15, 
	 "num_atms": 18, 
	 "gaussian": { 
		 "optdone": 1, 
		 "sigma_profile": "yes", 
		 "theory": "DFT", 
		 "functional": "B3LYP", 
		 "basiset": "6-31G**", 
		 "properties": { 
			 "R2extent": 4263.3562, 
			 "electric_dipole_moment_norm": 2.24369295136, 
			 "electric_quadrupole_moment_norm": 23.0038585159, 
			 "total_energy": -1313.8386897, 
			 "HOMO_LUMO_gap": 0.18925, 
			 "cosmo_polarized_energy": -11.52, 
			 "cosmo_cavitation_energy": 27.4, 
			 "cosmo_dispersion_energy": -20.32, 
			 "cosmo_repulsion_energy": 1.56, 
			 "cosmo_total_nonelectrostatic_energy": 8.64, 
			 "SMD_solvation_energy": 3.51 
		},
		"coords": [
			{
				"x": -4.6507188919,
				"y": 0.8171053449,
				"z": 1.7889459602,
				"element": "Cl" 
			},
			{
				"x": -3.0408425774,
				"y": 0.4772354711,
				"z": 1.1734699413,
				"element": "C" 
			},
			{
				"x": -2.7800716974,
				"y": 0.6578235006,
				"z": -0.1771701257,
				"element": "C" 
			},
			{
				"x": -1.4867731201,
				"y": 0.3768286196,
				"z": -0.640437744,
				"element": "C" 
			},
			{
				"x": -0.4925021623,
				"y": -0.0761644032,
				"z": 0.2594828419,
				"element": "C" 
			},
			{
				"x": 1.0054383884,
				"y": -0.3294680377,
				"z": -0.6117354245,
				"element": "S" 
			},
			{
				"x": 0.1676133057,
				"y": 0.1846679072,
				"z": -2.088513942,
				"element": "C" 
			},
			{
				"x": 0.8530027877,
				"y": 0.1752616432,
				"z": -3.4358538555,
				"element": "C" 
			},
			{
				"x": 2.245492856,
				"y": 0.631530456,
				"z": -3.4078606282,
				"element": "C" 
			},
			{
				"x": 3.3515611068,
				"y": 0.9807505919,
				"z": -3.389155207,
				"element": "N" 
			},
			{
				"x": -1.0753183621,
				"y": 0.5129098312,
				"z": -1.9575697964,
				"element": "N" 
			},
			{
				"x": -0.7710396227,
				"y": -0.2485237808,
				"z": 1.6175179339,
				"element": "C" 
			},
			{
				"x": -2.0561877793,
				"y": 0.0299110131,
				"z": 2.0711443054,
				"element": "C" 
			},
			{
				"x": -3.5420570161,
				"y": 1.0045993652,
				"z": -0.8646440331,
				"element": "H" 
			},
			{
				"x": 0.2678794361,
				"y": 0.8129922865,
				"z": -4.105590759,
				"element": "H" 
			},
			{
				"x": 0.8319022851,
				"y": -0.8395541338,
				"z": -3.8553059799,
				"element": "H" 
			},
			{
				"x": -0.0108703566,
				"y": -0.592215903,
				"z": 2.3109706954,
				"element": "H" 
			},
			{
				"x": -2.3057085799,
				"y": -0.095689772,
				"z": 3.1185058171,
				"element": "H" 
			}
		],
		 "valence_orbital": [ 
			{
				"type": "occ",
				"energy": -0.32193,
				"method": "rhf"
			},
			{
				"type": "occ",
				"energy": -0.31451,
				"method": "rhf"
			},
			{
				"type": "occ",
				"energy": -0.30099,
				"method": "rhf"
			},
			{
				"type": "occ",
				"energy": -0.26057,
				"method": "rhf"
			},
			{
				"type": "occ",
				"energy": -0.24876,
				"method": "rhf"
			},
			{
				"type": "unocc",
				"energy": -0.05951,
				"method": "rhf"
			},
			{
				"type": "unocc",
				"energy": -0.0285,
				"method": "rhf"
			},
			{
				"type": "unocc",
				"energy": -0.01563,
				"method": "rhf"
			},
			{
				"type": "unocc",
				"energy": 0.00651,
				"method": "rhf"
			},
			{
				"type": "unocc",
				"energy": 0.01805,
				"method": "rhf"
			}
		],
		"cosmo_sigma_profile": { 
			"-0.025": 0.0,
			"-0.024": 0.0,
			"-0.023": 0.0,
			"-0.022": 0.0,
			"-0.021": 0.0,
			"-0.02": 0.0,
			"-0.019": 0.0,
			"-0.018": 0.0,
			"-0.017": 0.0,
			"-0.016": 0.0,
			"-0.015": 0.0,
			"-0.014": 0.0,
			"-0.013": 0.0,
			"-0.012": 0.0,
			"-0.011": 1.85277845198,
			"-0.01": 5.59635575183,
			"-0.009": 5.00100694308,
			"-0.008": 9.6789488779,
			"-0.007": 9.96079991505,
			"-0.006": 9.28077022761,
			"-0.005": 8.4401338759,
			"-0.004": 7.11874124964,
			"-0.003": 9.65448355833,
			"-0.002": 12.7289397533,
			"-0.001": 13.1132081238,
			"0.0": 18.9629552433,
			"0.001": 25.8534653063,
			"0.002": 26.7902469574,
			"0.003": 14.3474421833,
			"0.004": 14.1325579219,
			"0.005": 8.02737217073,
			"0.006": 3.01905088499,
			"0.007": 3.36615626078,
			"0.008": 4.52721532797,
			"0.009": 3.97495341323,
			"0.01": 3.76187869494,
			"0.011": 3.3557278278,
			"0.012": 2.7611583614,
			"0.013": 1.26785904266,
			"0.014": 0.0548484910055,
			"0.015": 0.0,
			"0.016": 0.0,
			"0.017": 0.0,
			"0.018": 0.0,
			"0.019": 0.0,
			"0.02": 0.0,
			"0.021": 0.0,
			"0.022": 0.0,
			"0.023": 0.0,
			"0.024": 0.0,
			"0.025": 0.0
		}
	}
}
