{
	 "smiles": "CCS", 
	 "Tm": 125.15, 
	 "num_atms": 9, 
	 "gaussian": { 
		 "optdone": 1, 
		 "sigma_profile": "yes", 
		 "theory": "DFT", 
		 "functional": "B3LYP", 
		 "basiset": "6-31G**", 
		 "properties": { 
			 "R2extent": 730.8363, 
			 "electric_dipole_moment_norm": 1.8108684574, 
			 "electric_quadrupole_moment_norm": 6.67968382111, 
			 "total_energy": -478.01949627, 
			 "HOMO_LUMO_gap": 0.26403, 
			 "cosmo_polarized_energy": -4.0, 
			 "cosmo_cavitation_energy": 13.28, 
			 "cosmo_dispersion_energy": -10.61, 
			 "cosmo_repulsion_energy": 0.94, 
			 "cosmo_total_nonelectrostatic_energy": 3.62, 
			 "SMD_solvation_energy": 2.09 
		},
		"coords": [
			{
				"x": -0.4253462032,
				"y": 0.1358563617,
				"z": -1.0275683263,
				"element": "C" 
			},
			{
				"x": -1.2661621535,
				"y": -0.7148444601,
				"z": -0.0793888612,
				"element": "C" 
			},
			{
				"x": -1.4731943109,
				"y": -2.4678817693,
				"z": -0.6125083888,
				"element": "S" 
			},
			{
				"x": 0.5686905206,
				"y": -0.2970341936,
				"z": -1.1688465481,
				"element": "H" 
			},
			{
				"x": -0.8994980964,
				"y": 0.2197586891,
				"z": -2.010943483,
				"element": "H" 
			},
			{
				"x": -0.3087698297,
				"y": 1.1491114687,
				"z": -0.6253487245,
				"element": "H" 
			},
			{
				"x": -0.7868621168,
				"y": -0.7934721771,
				"z": 0.901007257,
				"element": "H" 
			},
			{
				"x": -2.2546373162,
				"y": -0.2754379099,
				"z": 0.0804566972,
				"element": "H" 
			},
			{
				"x": -2.1083204938,
				"y": -2.2073560095,
				"z": -1.7738596223,
				"element": "H" 
			}
		],
		 "valence_orbital": [ 
			{
				"type": "occ",
				"energy": -0.40703,
				"method": "rhf"
			},
			{
				"type": "occ",
				"energy": -0.37617,
				"method": "rhf"
			},
			{
				"type": "occ",
				"energy": -0.35696,
				"method": "rhf"
			},
			{
				"type": "occ",
				"energy": -0.3205,
				"method": "rhf"
			},
			{
				"type": "occ",
				"energy": -0.23514,
				"method": "rhf"
			},
			{
				"type": "unocc",
				"energy": 0.02889,
				"method": "rhf"
			},
			{
				"type": "unocc",
				"energy": 0.07427,
				"method": "rhf"
			},
			{
				"type": "unocc",
				"energy": 0.10745,
				"method": "rhf"
			},
			{
				"type": "unocc",
				"energy": 0.13844,
				"method": "rhf"
			},
			{
				"type": "unocc",
				"energy": 0.14516,
				"method": "rhf"
			}
		],
		"cosmo_sigma_profile": { 
			"-0.025": 0.0,
			"-0.024": 0.0,
			"-0.023": 0.0,
			"-0.022": 0.0,
			"-0.021": 0.0,
			"-0.02": 0.0,
			"-0.019": 0.0,
			"-0.018": 0.0,
			"-0.017": 0.0,
			"-0.016": 0.0,
			"-0.015": 0.0,
			"-0.014": 0.0,
			"-0.013": 0.0,
			"-0.012": 0.0,
			"-0.011": 0.0,
			"-0.01": 0.0,
			"-0.009": 0.443747069366,
			"-0.008": 2.2745608576,
			"-0.007": 1.8864758886,
			"-0.006": 2.92293392864,
			"-0.005": 6.10678060771,
			"-0.004": 8.85335335562,
			"-0.003": 11.8381936933,
			"-0.002": 12.9770671662,
			"-0.001": 11.5215811754,
			"0.0": 9.91801655817,
			"0.001": 7.228951854,
			"0.002": 3.48541794861,
			"0.003": 3.22654668589,
			"0.004": 2.95341979546,
			"0.005": 3.80732872821,
			"0.006": 3.73318098867,
			"0.007": 3.12741418217,
			"0.008": 2.69496159506,
			"0.009": 2.80123567165,
			"0.01": 1.75754072466,
			"0.011": 2.31084102227,
			"0.012": 0.194598765673,
			"0.013": 0.0,
			"0.014": 0.0,
			"0.015": 0.0,
			"0.016": 0.0,
			"0.017": 0.0,
			"0.018": 0.0,
			"0.019": 0.0,
			"0.02": 0.0,
			"0.021": 0.0,
			"0.022": 0.0,
			"0.023": 0.0,
			"0.024": 0.0,
			"0.025": 0.0
		}
	}
}
