{
	 "smiles": "CC1=C2N=CC=CC2=C(N)C=C1", 
	 "Tm": 418.15, 
	 "num_atms": 22, 
	 "gaussian": { 
		 "optdone": 1, 
		 "sigma_profile": "yes", 
		 "theory": "DFT", 
		 "functional": "B3LYP", 
		 "basiset": "6-31G**", 
		 "properties": { 
			 "R2extent": 2317.0115, 
			 "electric_dipole_moment_norm": 3.03205678212, 
			 "electric_quadrupole_moment_norm": 9.931179001, 
			 "total_energy": -496.608841633, 
			 "HOMO_LUMO_gap": 0.15152, 
			 "cosmo_polarized_energy": -10.94, 
			 "cosmo_cavitation_energy": 25.01, 
			 "cosmo_dispersion_energy": -18.85, 
			 "cosmo_repulsion_energy": 1.48, 
			 "cosmo_total_nonelectrostatic_energy": 7.65, 
			 "SMD_solvation_energy": 3.06 
		},
		"coords": [
			{
				"x": 1.9100411982,
				"y": 1.3054677399,
				"z": 2.8855167684,
				"element": "C" 
			},
			{
				"x": 1.4290168673,
				"y": 1.0884226342,
				"z": 1.4749424503,
				"element": "C" 
			},
			{
				"x": 1.3979689949,
				"y": -0.230365564,
				"z": 0.9220885239,
				"element": "C" 
			},
			{
				"x": 1.8169683875,
				"y": -1.2615207162,
				"z": 1.7125265369,
				"element": "N" 
			},
			{
				"x": 1.8263564126,
				"y": -2.4803434208,
				"z": 1.2099627409,
				"element": "C" 
			},
			{
				"x": 1.4428741793,
				"y": -2.7914584617,
				"z": -0.1142591899,
				"element": "C" 
			},
			{
				"x": 1.0093926301,
				"y": -1.7678706001,
				"z": -0.926694536,
				"element": "C" 
			},
			{
				"x": 0.9515858886,
				"y": -0.4450548015,
				"z": -0.4247396927,
				"element": "C" 
			},
			{
				"x": 0.4875214581,
				"y": 0.6657707254,
				"z": -1.205028221,
				"element": "C" 
			},
			{
				"x": 0.0577373038,
				"y": 0.458858337,
				"z": -2.5243643709,
				"element": "N" 
			},
			{
				"x": 0.5350658604,
				"y": 1.9289243819,
				"z": -0.6443187324,
				"element": "C" 
			},
			{
				"x": 1.0106993464,
				"y": 2.1286736991,
				"z": 0.670753412,
				"element": "C" 
			},
			{
				"x": 1.8650458159,
				"y": 2.3656513488,
				"z": 3.1511785278,
				"element": "H" 
			},
			{
				"x": 1.3066319079,
				"y": 0.7402788599,
				"z": 3.6033479061,
				"element": "H" 
			},
			{
				"x": 2.9406946476,
				"y": 0.9584925708,
				"z": 3.0131905074,
				"element": "H" 
			},
			{
				"x": 2.1643352834,
				"y": -3.2752423527,
				"z": 1.8749235244,
				"element": "H" 
			},
			{
				"x": 1.5025789766,
				"y": -3.8133877254,
				"z": -0.4750819229,
				"element": "H" 
			},
			{
				"x": 0.7396197904,
				"y": -1.9691792539,
				"z": -1.9591315241,
				"element": "H" 
			},
			{
				"x": -0.5262515727,
				"y": -0.3580144797,
				"z": -2.6521993162,
				"element": "H" 
			},
			{
				"x": -0.3863450823,
				"y": 1.2723888553,
				"z": -2.9308348809,
				"element": "H" 
			},
			{
				"x": 0.1911343201,
				"y": 2.7841910238,
				"z": -1.2212923456,
				"element": "H" 
			},
			{
				"x": 1.0268273857,
				"y": 3.1420171998,
				"z": 1.0645138345,
				"element": "H" 
			}
		],
		 "valence_orbital": [ 
			{
				"type": "occ",
				"energy": -0.29899,
				"method": "rhf"
			},
			{
				"type": "occ",
				"energy": -0.2768,
				"method": "rhf"
			},
			{
				"type": "occ",
				"energy": -0.24574,
				"method": "rhf"
			},
			{
				"type": "occ",
				"energy": -0.24384,
				"method": "rhf"
			},
			{
				"type": "occ",
				"energy": -0.19388,
				"method": "rhf"
			},
			{
				"type": "unocc",
				"energy": -0.04236,
				"method": "rhf"
			},
			{
				"type": "unocc",
				"energy": -0.00939,
				"method": "rhf"
			},
			{
				"type": "unocc",
				"energy": 0.04072,
				"method": "rhf"
			},
			{
				"type": "unocc",
				"energy": 0.07296,
				"method": "rhf"
			},
			{
				"type": "unocc",
				"energy": 0.09854,
				"method": "rhf"
			}
		],
		"cosmo_sigma_profile": { 
			"-0.025": 0.0,
			"-0.024": 0.0,
			"-0.023": 0.0,
			"-0.022": 0.0,
			"-0.021": 0.0,
			"-0.02": 0.0,
			"-0.019": 0.0,
			"-0.018": 0.0,
			"-0.017": 0.0,
			"-0.016": 0.0,
			"-0.015": 0.0,
			"-0.014": 0.0,
			"-0.013": 0.390863187826,
			"-0.012": 2.91184612095,
			"-0.011": 2.48382468454,
			"-0.01": 3.62658886958,
			"-0.009": 3.9430177384,
			"-0.008": 2.42961812195,
			"-0.007": 3.75055539111,
			"-0.006": 8.96582487417,
			"-0.005": 10.8841624437,
			"-0.004": 12.8232206448,
			"-0.003": 12.5696044534,
			"-0.002": 12.1770230923,
			"-0.001": 10.2517192341,
			"0.0": 14.0587061444,
			"0.001": 14.9057636418,
			"0.002": 16.4120524854,
			"0.003": 19.4742448005,
			"0.004": 14.4885545869,
			"0.005": 10.006091276,
			"0.006": 7.26141829558,
			"0.007": 2.29808190349,
			"0.008": 2.45718050139,
			"0.009": 1.81259704017,
			"0.01": 2.01837573863,
			"0.011": 2.11110606124,
			"0.012": 0.705425596936,
			"0.013": 1.80167925311,
			"0.014": 1.37084408119,
			"0.015": 0.694160518573,
			"0.016": 0.0,
			"0.017": 0.0,
			"0.018": 0.0,
			"0.019": 0.0,
			"0.02": 0.0,
			"0.021": 0.0,
			"0.022": 0.0,
			"0.023": 0.0,
			"0.024": 0.0,
			"0.025": 0.0
		}
	}
}
