{
	 "smiles": "CC12CC(=O)CC1C1CCC3CC(=O)CCC3(C)C1CC2", 
	 "Tm": 436.15, 
	 "num_atms": 49, 
	 "gaussian": { 
		 "optdone": 1, 
		 "sigma_profile": "yes", 
		 "theory": "DFT", 
		 "functional": "B3LYP", 
		 "basiset": "6-31G**", 
		 "properties": { 
			 "R2extent": 6982.2045, 
			 "electric_dipole_moment_norm": 2.06468125627, 
			 "electric_quadrupole_moment_norm": 33.40137494, 
			 "total_energy": -891.357767107, 
			 "HOMO_LUMO_gap": 0.21849, 
			 "cosmo_polarized_energy": -14.23, 
			 "cosmo_cavitation_energy": 42.26, 
			 "cosmo_dispersion_energy": -29.81, 
			 "cosmo_repulsion_energy": 2.2, 
			 "cosmo_total_nonelectrostatic_energy": 14.64, 
			 "SMD_solvation_energy": 6.83 
		},
		"coords": [
			{
				"x": 0.1609732551,
				"y": 2.4459139856,
				"z": 2.2377289301,
				"element": "C" 
			},
			{
				"x": 1.0049866571,
				"y": 1.917380139,
				"z": 1.0610408525,
				"element": "C" 
			},
			{
				"x": 2.0537633578,
				"y": 2.9788375735,
				"z": 0.657074141,
				"element": "C" 
			},
			{
				"x": 1.3856032339,
				"y": 3.866510662,
				"z": -0.3897944754,
				"element": "C" 
			},
			{
				"x": 1.7986162949,
				"y": 4.9350902671,
				"z": -0.7848728672,
				"element": "O" 
			},
			{
				"x": 0.1041141202,
				"y": 3.1789008099,
				"z": -0.8649650848,
				"element": "C" 
			},
			{
				"x": 0.0882413981,
				"y": 1.7769139575,
				"z": -0.2182812276,
				"element": "C" 
			},
			{
				"x": 0.5907531942,
				"y": 0.6386482093,
				"z": -1.1362996914,
				"element": "C" 
			},
			{
				"x": -0.0774599546,
				"y": 0.6008396786,
				"z": -2.5267104555,
				"element": "C" 
			},
			{
				"x": 0.1036019301,
				"y": -0.7792307258,
				"z": -3.1647843218,
				"element": "C" 
			},
			{
				"x": -0.6850699345,
				"y": -1.8707074623,
				"z": -2.4050412865,
				"element": "C" 
			},
			{
				"x": -2.1233944905,
				"y": -1.9668048256,
				"z": -2.9906301439,
				"element": "C" 
			},
			{
				"x": -3.1006524815,
				"y": -2.6764592229,
				"z": -2.0761495811,
				"element": "C" 
			},
			{
				"x": -3.7432056514,
				"y": -3.6539052276,
				"z": -2.4105065435,
				"element": "O" 
			},
			{
				"x": -3.217045985,
				"y": -2.0574713617,
				"z": -0.6874662693,
				"element": "C" 
			},
			{
				"x": -2.0448658802,
				"y": -1.1126034911,
				"z": -0.362836089,
				"element": "C" 
			},
			{
				"x": -0.6745935168,
				"y": -1.6771975698,
				"z": -0.8338120267,
				"element": "C" 
			},
			{
				"x": -0.4637658931,
				"y": -3.0675191911,
				"z": -0.1862724154,
				"element": "C" 
			},
			{
				"x": 0.5317062449,
				"y": -0.7621002675,
				"z": -0.4274992464,
				"element": "C" 
			},
			{
				"x": 0.7223275132,
				"y": -0.6165044468,
				"z": 1.1028769406,
				"element": "C" 
			},
			{
				"x": 1.6474242517,
				"y": 0.5588620872,
				"z": 1.4373701847,
				"element": "C" 
			},
			{
				"x": -0.6066704054,
				"y": 1.7217778212,
				"z": 2.5323095808,
				"element": "H" 
			},
			{
				"x": 0.7908357447,
				"y": 2.6413386324,
				"z": 3.1126707315,
				"element": "H" 
			},
			{
				"x": -0.3508477977,
				"y": 3.381359874,
				"z": 1.9845877302,
				"element": "H" 
			},
			{
				"x": 2.9255563831,
				"y": 2.516028548,
				"z": 0.1738144221,
				"element": "H" 
			},
			{
				"x": 2.4394470744,
				"y": 3.5768143648,
				"z": 1.4885023561,
				"element": "H" 
			},
			{
				"x": -0.7390339932,
				"y": 3.7904430194,
				"z": -0.5197719841,
				"element": "H" 
			},
			{
				"x": 0.0546686994,
				"y": 3.1889903038,
				"z": -1.9567648596,
				"element": "H" 
			},
			{
				"x": -0.9319267884,
				"y": 1.5308758898,
				"z": 0.0971452102,
				"element": "H" 
			},
			{
				"x": 1.657794088,
				"y": 0.8309636642,
				"z": -1.3229308048,
				"element": "H" 
			},
			{
				"x": 0.3557085038,
				"y": 1.3699233575,
				"z": -3.1748814826,
				"element": "H" 
			},
			{
				"x": -1.146828952,
				"y": 0.8404271376,
				"z": -2.4522357858,
				"element": "H" 
			},
			{
				"x": -0.2144944596,
				"y": -0.7667435348,
				"z": -4.2139520255,
				"element": "H" 
			},
			{
				"x": 1.1728144515,
				"y": -1.0259703818,
				"z": -3.1767793633,
				"element": "H" 
			},
			{
				"x": -0.1996274173,
				"y": -2.8319008951,
				"z": -2.6112895725,
				"element": "H" 
			},
			{
				"x": -2.1139773633,
				"y": -2.4647153181,
				"z": -3.9635201286,
				"element": "H" 
			},
			{
				"x": -2.5116240856,
				"y": -0.9484449403,
				"z": -3.1431641636,
				"element": "H" 
			},
			{
				"x": -4.1690851647,
				"y": -1.5111463043,
				"z": -0.6481538301,
				"element": "H" 
			},
			{
				"x": -3.3104384124,
				"y": -2.8730077735,
				"z": 0.0360688039,
				"element": "H" 
			},
			{
				"x": -2.0293699611,
				"y": -0.9290829873,
				"z": 0.7159671752,
				"element": "H" 
			},
			{
				"x": -2.2274906815,
				"y": -0.1410674482,
				"z": -0.8322813727,
				"element": "H" 
			},
			{
				"x": 0.5494733246,
				"y": -3.4340172572,
				"z": -0.3858258639,
				"element": "H" 
			},
			{
				"x": -1.157508189,
				"y": -3.812459674,
				"z": -0.5878407063,
				"element": "H" 
			},
			{
				"x": -0.6038376005,
				"y": -3.0408501304,
				"z": 0.899162798,
				"element": "H" 
			},
			{
				"x": 1.4162279752,
				"y": -1.3066818896,
				"z": -0.7867278928,
				"element": "H" 
			},
			{
				"x": 1.1320156363,
				"y": -1.5429697691,
				"z": 1.5171949386,
				"element": "H" 
			},
			{
				"x": -0.2395983113,
				"y": -0.4613975746,
				"z": 1.6055583817,
				"element": "H" 
			},
			{
				"x": 2.5954665747,
				"y": 0.4283585097,
				"z": 0.8995545854,
				"element": "H" 
			},
			{
				"x": 1.9023934636,
				"y": 0.5524611779,
				"z": 2.5039137992,
				"element": "H" 
			}
		],
		 "valence_orbital": [ 
			{
				"type": "occ",
				"energy": -0.29215,
				"method": "rhf"
			},
			{
				"type": "occ",
				"energy": -0.29022,
				"method": "rhf"
			},
			{
				"type": "occ",
				"energy": -0.28567,
				"method": "rhf"
			},
			{
				"type": "occ",
				"energy": -0.23648,
				"method": "rhf"
			},
			{
				"type": "occ",
				"energy": -0.23528,
				"method": "rhf"
			},
			{
				"type": "unocc",
				"energy": -0.01679,
				"method": "rhf"
			},
			{
				"type": "unocc",
				"energy": -0.01283,
				"method": "rhf"
			},
			{
				"type": "unocc",
				"energy": 0.05795,
				"method": "rhf"
			},
			{
				"type": "unocc",
				"energy": 0.0695,
				"method": "rhf"
			},
			{
				"type": "unocc",
				"energy": 0.0747,
				"method": "rhf"
			}
		],
		"cosmo_sigma_profile": { 
			"-0.025": 0.0,
			"-0.024": 0.0,
			"-0.023": 0.0,
			"-0.022": 0.0,
			"-0.021": 0.0,
			"-0.02": 0.0,
			"-0.019": 0.0,
			"-0.018": 0.0,
			"-0.017": 0.0,
			"-0.016": 0.0,
			"-0.015": 0.0,
			"-0.014": 0.0,
			"-0.013": 0.0,
			"-0.012": 0.0,
			"-0.011": 0.0,
			"-0.01": 0.0,
			"-0.009": 0.0,
			"-0.008": 0.0,
			"-0.007": 0.0776659220194,
			"-0.006": 3.21720721998,
			"-0.005": 17.6500017646,
			"-0.004": 22.2255379841,
			"-0.003": 37.9408629228,
			"-0.002": 69.0238663789,
			"-0.001": 56.0651434241,
			"0.0": 35.9430272345,
			"0.001": 24.6321789422,
			"0.002": 8.20850175371,
			"0.003": 4.02712175072,
			"0.004": 2.6151077183,
			"0.005": 2.1346353783,
			"0.006": 3.15682064291,
			"0.007": 2.32720450131,
			"0.008": 3.27625766093,
			"0.009": 3.65824452615,
			"0.01": 3.33569304224,
			"0.011": 5.56053666425,
			"0.012": 8.83471992189,
			"0.013": 7.83136978024,
			"0.014": 2.47741291181,
			"0.015": 0.0,
			"0.016": 0.0,
			"0.017": 0.0,
			"0.018": 0.0,
			"0.019": 0.0,
			"0.02": 0.0,
			"0.021": 0.0,
			"0.022": 0.0,
			"0.023": 0.0,
			"0.024": 0.0,
			"0.025": 0.0
		}
	}
}
