{
	 "smiles": "CC1(C)OC(=O)C(=NNC2=CC=C(Br)C=C2)C(=O)O1", 
	 "Tm": 533.15, 
	 "num_atms": 30, 
	 "gaussian": { 
		 "optdone": 1, 
		 "sigma_profile": "yes", 
		 "theory": "DFT", 
		 "functional": "B3LYP", 
		 "basiset": "6-31G**", 
		 "properties": { 
			 "R2extent": 13010.2464, 
			 "electric_dipole_moment_norm": 3.06230797112, 
			 "electric_quadrupole_moment_norm": 11.2982927409, 
			 "total_energy": -3445.70387411, 
			 "HOMO_LUMO_gap": 0.13676, 
			 "cosmo_polarized_energy": -16.2, 
			 "cosmo_cavitation_energy": 37.54, 
			 "cosmo_dispersion_energy": -27.51, 
			 "cosmo_repulsion_energy": 2.12, 
			 "cosmo_total_nonelectrostatic_energy": 12.15, 
			 "SMD_solvation_energy": 6.66 
		},
		"coords": [
			{
				"x": -4.2094583235,
				"y": -0.7571619638,
				"z": 2.2132465489,
				"element": "C" 
			},
			{
				"x": -2.8079364723,
				"y": -0.2099582657,
				"z": 2.0116523232,
				"element": "C" 
			},
			{
				"x": -2.3141006443,
				"y": 0.6481695626,
				"z": 3.1751705681,
				"element": "C" 
			},
			{
				"x": -1.9567707144,
				"y": -1.340349757,
				"z": 1.8299395154,
				"element": "O" 
			},
			{
				"x": -0.7089059746,
				"y": -1.1812181903,
				"z": 1.2710040383,
				"element": "C" 
			},
			{
				"x": 0.1289913325,
				"y": -2.0312024503,
				"z": 1.4322457523,
				"element": "O" 
			},
			{
				"x": -0.5686830385,
				"y": 0.0338388582,
				"z": 0.434437961,
				"element": "C" 
			},
			{
				"x": 0.6250317008,
				"y": 0.2328928771,
				"z": -0.0897945558,
				"element": "N" 
			},
			{
				"x": 0.8398596198,
				"y": 1.222606558,
				"z": -0.9053394173,
				"element": "N" 
			},
			{
				"x": 2.115295777,
				"y": 1.4449077527,
				"z": -1.4548735365,
				"element": "C" 
			},
			{
				"x": 2.2758953778,
				"y": 2.5293037314,
				"z": -2.3256347908,
				"element": "C" 
			},
			{
				"x": 3.5208351766,
				"y": 2.787200068,
				"z": -2.8941002263,
				"element": "C" 
			},
			{
				"x": 4.5979898766,
				"y": 1.957517515,
				"z": -2.5867271062,
				"element": "C" 
			},
			{
				"x": 6.3060519134,
				"y": 2.306645644,
				"z": -3.3618344448,
				"element": "Br" 
			},
			{
				"x": 4.4434417114,
				"y": 0.8740348794,
				"z": -1.7190226066,
				"element": "C" 
			},
			{
				"x": 3.2012921983,
				"y": 0.614029986,
				"z": -1.1498459913,
				"element": "C" 
			},
			{
				"x": -1.7320161687,
				"y": 0.8823738183,
				"z": 0.1482201248,
				"element": "C" 
			},
			{
				"x": -1.7235957078,
				"y": 1.7958513148,
				"z": -0.6696775662,
				"element": "O" 
			},
			{
				"x": -2.8738375052,
				"y": 0.6041800142,
				"z": 0.8146265252,
				"element": "O" 
			},
			{
				"x": -4.2337200058,
				"y": -1.3895047518,
				"z": 3.1033462048,
				"element": "H" 
			},
			{
				"x": -4.4969987891,
				"y": -1.3534621816,
				"z": 1.3449866908,
				"element": "H" 
			},
			{
				"x": -4.9182990399,
				"y": 0.0649334066,
				"z": 2.3345076758,
				"element": "H" 
			},
			{
				"x": -2.9815106258,
				"y": 1.5008767141,
				"z": 3.3207029336,
				"element": "H" 
			},
			{
				"x": -1.3045566908,
				"y": 1.0236042837,
				"z": 2.9853621559,
				"element": "H" 
			},
			{
				"x": -2.292389335,
				"y": 0.0491444315,
				"z": 4.0885549329,
				"element": "H" 
			},
			{
				"x": 0.0424695931,
				"y": 1.8222682656,
				"z": -1.1547745502,
				"element": "H" 
			},
			{
				"x": 1.4309724514,
				"y": 3.1711584841,
				"z": -2.5595201262,
				"element": "H" 
			},
			{
				"x": 3.6505956979,
				"y": 3.6251587411,
				"z": -3.5689143695,
				"element": "H" 
			},
			{
				"x": 5.2897288025,
				"y": 0.2366133325,
				"z": -1.4902359547,
				"element": "H" 
			},
			{
				"x": 3.0601278066,
				"y": -0.2228526786,
				"z": -0.4762087086,
				"element": "H" 
			}
		],
		 "valence_orbital": [ 
			{
				"type": "occ",
				"energy": -0.29149,
				"method": "rhf"
			},
			{
				"type": "occ",
				"energy": -0.28353,
				"method": "rhf"
			},
			{
				"type": "occ",
				"energy": -0.27911,
				"method": "rhf"
			},
			{
				"type": "occ",
				"energy": -0.27452,
				"method": "rhf"
			},
			{
				"type": "occ",
				"energy": -0.23045,
				"method": "rhf"
			},
			{
				"type": "unocc",
				"energy": -0.09369,
				"method": "rhf"
			},
			{
				"type": "unocc",
				"energy": -0.02852,
				"method": "rhf"
			},
			{
				"type": "unocc",
				"energy": -0.01296,
				"method": "rhf"
			},
			{
				"type": "unocc",
				"energy": -0.00504,
				"method": "rhf"
			},
			{
				"type": "unocc",
				"energy": -0.00039,
				"method": "rhf"
			}
		],
		"cosmo_sigma_profile": { 
			"-0.025": 0.0,
			"-0.024": 0.0,
			"-0.023": 0.0,
			"-0.022": 0.0,
			"-0.021": 0.0,
			"-0.02": 0.0,
			"-0.019": 0.0,
			"-0.018": 0.0,
			"-0.017": 0.0,
			"-0.016": 0.0,
			"-0.015": 0.0,
			"-0.014": 0.126245097444,
			"-0.013": 0.741803836402,
			"-0.012": 1.08874820355,
			"-0.011": 1.07295960748,
			"-0.01": 1.03697947644,
			"-0.009": 1.52569510353,
			"-0.008": 4.05223717603,
			"-0.007": 9.1821935741,
			"-0.006": 22.2511822587,
			"-0.005": 23.2506681817,
			"-0.004": 20.8036814679,
			"-0.003": 22.3696238856,
			"-0.002": 27.331717415,
			"-0.001": 22.7900073796,
			"0.0": 17.2654633398,
			"0.001": 19.3075308595,
			"0.002": 26.8672124564,
			"0.003": 15.842615969,
			"0.004": 15.685505669,
			"0.005": 8.05723170793,
			"0.006": 4.19324334757,
			"0.007": 5.37612031251,
			"0.008": 4.51858757991,
			"0.009": 6.66841361948,
			"0.01": 6.03054264156,
			"0.011": 8.42902526857,
			"0.012": 6.24447021555,
			"0.013": 1.54001961895,
			"0.014": 0.0,
			"0.015": 0.0,
			"0.016": 0.0,
			"0.017": 0.0,
			"0.018": 0.0,
			"0.019": 0.0,
			"0.02": 0.0,
			"0.021": 0.0,
			"0.022": 0.0,
			"0.023": 0.0,
			"0.024": 0.0,
			"0.025": 0.0
		}
	}
}
