{
	 "smiles": "CN1C=CC=C1C(=O)N1CCNCC1", 
	 "Tm": 332.15, 
	 "num_atms": 29, 
	 "gaussian": { 
		 "optdone": 1, 
		 "sigma_profile": "yes", 
		 "theory": "DFT", 
		 "functional": "B3LYP", 
		 "basiset": "6-31G**", 
		 "properties": { 
			 "R2extent": 3710.1519, 
			 "electric_dipole_moment_norm": 2.38249265476, 
			 "electric_quadrupole_moment_norm": 12.2150389042, 
			 "total_energy": -629.567323288, 
			 "HOMO_LUMO_gap": 0.20303, 
			 "cosmo_polarized_energy": -12.47, 
			 "cosmo_cavitation_energy": 30.16, 
			 "cosmo_dispersion_energy": -22.14, 
			 "cosmo_repulsion_energy": 1.73, 
			 "cosmo_total_nonelectrostatic_energy": 9.75, 
			 "SMD_solvation_energy": 2.68 
		},
		"coords": [
			{
				"x": -1.7393117903,
				"y": -2.6820795557,
				"z": -2.8279396907,
				"element": "C" 
			},
			{
				"x": -0.6667432101,
				"y": -1.7613306488,
				"z": -3.1916320065,
				"element": "N" 
			},
			{
				"x": 0.2068662062,
				"y": -1.9768816825,
				"z": -4.2196606645,
				"element": "C" 
			},
			{
				"x": 1.0823619591,
				"y": -0.909120829,
				"z": -4.3033161284,
				"element": "C" 
			},
			{
				"x": 0.7306230026,
				"y": -0.0130444057,
				"z": -3.2711316826,
				"element": "C" 
			},
			{
				"x": -0.3551281852,
				"y": -0.5529177809,
				"z": -2.5834404319,
				"element": "C" 
			},
			{
				"x": -1.2135820244,
				"y": -0.0048451686,
				"z": -1.5133377042,
				"element": "C" 
			},
			{
				"x": -2.4018843356,
				"y": -0.3376650041,
				"z": -1.4230683729,
				"element": "O" 
			},
			{
				"x": -0.6682499394,
				"y": 0.9313092397,
				"z": -0.6576329523,
				"element": "N" 
			},
			{
				"x": 0.7618512644,
				"y": 1.0537334729,
				"z": -0.3454884449,
				"element": "C" 
			},
			{
				"x": 0.9571720645,
				"y": 1.1926118462,
				"z": 1.1801893539,
				"element": "C" 
			},
			{
				"x": 0.000369199,
				"y": 0.317135127,
				"z": 1.843666935,
				"element": "N" 
			},
			{
				"x": -1.3842680823,
				"y": 0.7971096481,
				"z": 1.7090964289,
				"element": "C" 
			},
			{
				"x": -1.5507022512,
				"y": 1.5113200176,
				"z": 0.3513909579,
				"element": "C" 
			},
			{
				"x": -2.7145661947,
				"y": -2.244675539,
				"z": -3.0426945719,
				"element": "H" 
			},
			{
				"x": -1.6017947627,
				"y": -3.6017884582,
				"z": -3.4005288633,
				"element": "H" 
			},
			{
				"x": -1.7023348154,
				"y": -2.9128482408,
				"z": -1.761872322,
				"element": "H" 
			},
			{
				"x": 0.1422052832,
				"y": -2.8794827601,
				"z": -4.8104986017,
				"element": "H" 
			},
			{
				"x": 1.8794977166,
				"y": -0.7952649594,
				"z": -5.0241061207,
				"element": "H" 
			},
			{
				"x": 1.1913840405,
				"y": 0.941954628,
				"z": -3.0658774879,
				"element": "H" 
			},
			{
				"x": 1.2705070198,
				"y": 0.1565042163,
				"z": -0.7000765078,
				"element": "H" 
			},
			{
				"x": 1.2090130194,
				"y": 1.9211731233,
				"z": -0.8529860832,
				"element": "H" 
			},
			{
				"x": 0.8728855542,
				"y": 2.2548087125,
				"z": 1.4784255807,
				"element": "H" 
			},
			{
				"x": 1.9739906286,
				"y": 0.8761515225,
				"z": 1.4340929336,
				"element": "H" 
			},
			{
				"x": 0.2411377775,
				"y": 0.1829656462,
				"z": 2.8196673487,
				"element": "H" 
			},
			{
				"x": -1.6801918574,
				"y": 1.5021145366,
				"z": 2.506009699,
				"element": "H" 
			},
			{
				"x": -2.0597267024,
				"y": -0.0640520856,
				"z": 1.7605319276,
				"element": "H" 
			},
			{
				"x": -1.3030369695,
				"y": 2.5751661416,
				"z": 0.4470315965,
				"element": "H" 
			},
			{
				"x": -2.5767436149,
				"y": 1.4264392397,
				"z": -0.0027141243,
				"element": "H" 
			}
		],
		 "valence_orbital": [ 
			{
				"type": "occ",
				"energy": -0.24411,
				"method": "rhf"
			},
			{
				"type": "occ",
				"energy": -0.23334,
				"method": "rhf"
			},
			{
				"type": "occ",
				"energy": -0.22686,
				"method": "rhf"
			},
			{
				"type": "occ",
				"energy": -0.21697,
				"method": "rhf"
			},
			{
				"type": "occ",
				"energy": -0.20787,
				"method": "rhf"
			},
			{
				"type": "unocc",
				"energy": -0.00484,
				"method": "rhf"
			},
			{
				"type": "unocc",
				"energy": 0.06906,
				"method": "rhf"
			},
			{
				"type": "unocc",
				"energy": 0.07937,
				"method": "rhf"
			},
			{
				"type": "unocc",
				"energy": 0.10676,
				"method": "rhf"
			},
			{
				"type": "unocc",
				"energy": 0.10856,
				"method": "rhf"
			}
		],
		"cosmo_sigma_profile": { 
			"-0.025": 0.0,
			"-0.024": 0.0,
			"-0.023": 0.0,
			"-0.022": 0.0,
			"-0.021": 0.0,
			"-0.02": 0.0,
			"-0.019": 0.0,
			"-0.018": 0.0,
			"-0.017": 0.0,
			"-0.016": 0.0,
			"-0.015": 0.0,
			"-0.014": 0.0,
			"-0.013": 0.0,
			"-0.012": 0.0,
			"-0.011": 0.271673316056,
			"-0.01": 1.21646456245,
			"-0.009": 1.34239637549,
			"-0.008": 2.88640475273,
			"-0.007": 4.62462945979,
			"-0.006": 6.92855242039,
			"-0.005": 13.3862650293,
			"-0.004": 24.0027865209,
			"-0.003": 31.3952958897,
			"-0.002": 34.0505822006,
			"-0.001": 22.7878740978,
			"0.0": 11.9931654457,
			"0.001": 8.16488208986,
			"0.002": 10.4329320555,
			"0.003": 9.8459324552,
			"0.004": 8.05309616037,
			"0.005": 9.31779413963,
			"0.006": 8.53743152609,
			"0.007": 6.98806875393,
			"0.008": 3.64059069558,
			"0.009": 2.05634339577,
			"0.01": 2.18829877827,
			"0.011": 2.40365474485,
			"0.012": 1.78436407006,
			"0.013": 2.92228919308,
			"0.014": 3.45876275673,
			"0.015": 0.921326935791,
			"0.016": 0.478325380604,
			"0.017": 0.487775492795,
			"0.018": 0.00806396504199,
			"0.019": 0.0,
			"0.02": 0.0,
			"0.021": 0.0,
			"0.022": 0.0,
			"0.023": 0.0,
			"0.024": 0.0,
			"0.025": 0.0
		}
	}
}
