{
	 "smiles": "OC(=O)CC1=CC(OCCCOC2=CC=CC=C2)=CC=C1", 
	 "Tm": 352.15, 
	 "num_atms": 39, 
	 "gaussian": { 
		 "optdone": 1, 
		 "sigma_profile": "yes", 
		 "theory": "DFT", 
		 "functional": "B3LYP", 
		 "basiset": "6-31G**", 
		 "properties": { 
			 "R2extent": 10764.5718, 
			 "electric_dipole_moment_norm": 1.75463675443, 
			 "electric_quadrupole_moment_norm": 4.27036771368, 
			 "total_energy": -959.556559609, 
			 "HOMO_LUMO_gap": 0.20579, 
			 "cosmo_polarized_energy": -14.88, 
			 "cosmo_cavitation_energy": 43.54, 
			 "cosmo_dispersion_energy": -30.42, 
			 "cosmo_repulsion_energy": 2.36, 
			 "cosmo_total_nonelectrostatic_energy": 15.49, 
			 "SMD_solvation_energy": 8.53 
		},
		"coords": [
			{
				"x": -4.1174023369,
				"y": -1.8052611013,
				"z": 2.450961115,
				"element": "O" 
			},
			{
				"x": -3.461105982,
				"y": -1.1914804824,
				"z": 1.4407660382,
				"element": "C" 
			},
			{
				"x": -2.7416298589,
				"y": -1.7908620476,
				"z": 0.6694195641,
				"element": "O" 
			},
			{
				"x": -3.7139886562,
				"y": 0.3038250248,
				"z": 1.4156143189,
				"element": "C" 
			},
			{
				"x": -2.5511697581,
				"y": 1.0868195696,
				"z": 2.0132912115,
				"element": "C" 
			},
			{
				"x": -1.2538824053,
				"y": 0.8941902369,
				"z": 1.5139800154,
				"element": "C" 
			},
			{
				"x": -0.1846531456,
				"y": 1.6256668669,
				"z": 2.0411842772,
				"element": "C" 
			},
			{
				"x": 1.1171357827,
				"y": 1.5039333993,
				"z": 1.6477181723,
				"element": "O" 
			},
			{
				"x": 1.4704678883,
				"y": 0.57872826,
				"z": 0.6182138589,
				"element": "C" 
			},
			{
				"x": 1.219983227,
				"y": 1.145090714,
				"z": -0.7820549837,
				"element": "C" 
			},
			{
				"x": 1.6352917686,
				"y": 0.1795353072,
				"z": -1.8842845285,
				"element": "C" 
			},
			{
				"x": 3.0374972943,
				"y": -0.0479228727,
				"z": -1.7596465294,
				"element": "O" 
			},
			{
				"x": 3.6499318075,
				"y": -0.8929816996,
				"z": -2.6436774752,
				"element": "C" 
			},
			{
				"x": 5.0299850229,
				"y": -1.0660682095,
				"z": -2.459955547,
				"element": "C" 
			},
			{
				"x": 5.7446610474,
				"y": -1.9044557251,
				"z": -3.3080283022,
				"element": "C" 
			},
			{
				"x": 5.0989238936,
				"y": -2.5812473524,
				"z": -4.3489424253,
				"element": "C" 
			},
			{
				"x": 3.7287854408,
				"y": -2.4053070783,
				"z": -4.5267427975,
				"element": "C" 
			},
			{
				"x": 2.9949976546,
				"y": -1.5652723529,
				"z": -3.6822708443,
				"element": "C" 
			},
			{
				"x": -0.4158853175,
				"y": 2.5596904721,
				"z": 3.0644202048,
				"element": "C" 
			},
			{
				"x": -1.7024280313,
				"y": 2.7436231027,
				"z": 3.5531009247,
				"element": "C" 
			},
			{
				"x": -2.77523999,
				"y": 2.0086475204,
				"z": 3.0363198973,
				"element": "C" 
			},
			{
				"x": -3.8688934517,
				"y": -2.744450805,
				"z": 2.4049353295,
				"element": "H" 
			},
			{
				"x": -3.8499322077,
				"y": 0.5808102699,
				"z": 0.3643913514,
				"element": "H" 
			},
			{
				"x": -4.6356245773,
				"y": 0.529941061,
				"z": 1.9551154661,
				"element": "H" 
			},
			{
				"x": -1.1054206965,
				"y": 0.1620670776,
				"z": 0.7298387098,
				"element": "H" 
			},
			{
				"x": 0.9480886418,
				"y": -0.3763476936,
				"z": 0.7607958936,
				"element": "H" 
			},
			{
				"x": 2.5378504732,
				"y": 0.3966399765,
				"z": 0.7558291841,
				"element": "H" 
			},
			{
				"x": 0.1577775265,
				"y": 1.379013912,
				"z": -0.9120124137,
				"element": "H" 
			},
			{
				"x": 1.774648919,
				"y": 2.0833478455,
				"z": -0.8893986137,
				"element": "H" 
			},
			{
				"x": 1.0901359612,
				"y": -0.7720608888,
				"z": -1.79530724,
				"element": "H" 
			},
			{
				"x": 1.4070462244,
				"y": 0.6058670725,
				"z": -2.8709052565,
				"element": "H" 
			},
			{
				"x": 5.5145414832,
				"y": -0.5331073,
				"z": -1.6481940547,
				"element": "H" 
			},
			{
				"x": 6.8129704056,
				"y": -2.0308106429,
				"z": -3.1561079259,
				"element": "H" 
			},
			{
				"x": 5.6591714202,
				"y": -3.2354041259,
				"z": -5.0096986865,
				"element": "H" 
			},
			{
				"x": 3.2132306424,
				"y": -2.9240664572,
				"z": -5.3302490369,
				"element": "H" 
			},
			{
				"x": 1.9299617635,
				"y": -1.4458101806,
				"z": -3.8415166324,
				"element": "H" 
			},
			{
				"x": 0.4279745655,
				"y": 3.1170459662,
				"z": 3.4572825779,
				"element": "H" 
			},
			{
				"x": -1.8748191935,
				"y": 3.4633150165,
				"z": 4.3483546675,
				"element": "H" 
			},
			{
				"x": -3.7781832456,
				"y": 2.1570183441,
				"z": 3.4255605154,
				"element": "H" 
			}
		],
		 "valence_orbital": [ 
			{
				"type": "occ",
				"energy": -0.2793,
				"method": "rhf"
			},
			{
				"type": "occ",
				"energy": -0.24814,
				"method": "rhf"
			},
			{
				"type": "occ",
				"energy": -0.24618,
				"method": "rhf"
			},
			{
				"type": "occ",
				"energy": -0.21828,
				"method": "rhf"
			},
			{
				"type": "occ",
				"energy": -0.21688,
				"method": "rhf"
			},
			{
				"type": "unocc",
				"energy": -0.01109,
				"method": "rhf"
			},
			{
				"type": "unocc",
				"energy": 0.0012,
				"method": "rhf"
			},
			{
				"type": "unocc",
				"energy": 0.00504,
				"method": "rhf"
			},
			{
				"type": "unocc",
				"energy": 0.01518,
				"method": "rhf"
			},
			{
				"type": "unocc",
				"energy": 0.01925,
				"method": "rhf"
			}
		],
		"cosmo_sigma_profile": { 
			"-0.025": 0.0,
			"-0.024": 0.0,
			"-0.023": 0.0,
			"-0.022": 0.0,
			"-0.021": 0.0,
			"-0.02": 0.0,
			"-0.019": 0.0225652992571,
			"-0.018": 0.812569994365,
			"-0.017": 0.98128908826,
			"-0.016": 0.972372078918,
			"-0.015": 0.337451881029,
			"-0.014": 0.71371017003,
			"-0.013": 0.975506070903,
			"-0.012": 0.70308856937,
			"-0.011": 0.605151117814,
			"-0.01": 0.633139210258,
			"-0.009": 0.535989394168,
			"-0.008": 0.546892704942,
			"-0.007": 3.36842253418,
			"-0.006": 17.386918643,
			"-0.005": 33.5633500211,
			"-0.004": 35.5255099618,
			"-0.003": 30.7318130928,
			"-0.002": 25.0530122116,
			"-0.001": 21.4882579407,
			"0.0": 17.8911758494,
			"0.001": 15.6913103439,
			"0.002": 20.4933877682,
			"0.003": 21.3722597518,
			"0.004": 24.3453072133,
			"0.005": 24.6746215181,
			"0.006": 18.3724128962,
			"0.007": 5.6597095578,
			"0.008": 5.65297342994,
			"0.009": 5.03216394507,
			"0.01": 3.0553858393,
			"0.011": 4.00341445522,
			"0.012": 3.75664042301,
			"0.013": 0.282646891423,
			"0.014": 0.0,
			"0.015": 0.0,
			"0.016": 0.0,
			"0.017": 0.0,
			"0.018": 0.0,
			"0.019": 0.0,
			"0.02": 0.0,
			"0.021": 0.0,
			"0.022": 0.0,
			"0.023": 0.0,
			"0.024": 0.0,
			"0.025": 0.0
		}
	}
}
