{
	 "smiles": "CC(C)(C)C(=O)C(Cl)Cl", 
	 "Tm": 324.15, 
	 "num_atms": 19, 
	 "gaussian": { 
		 "optdone": 1, 
		 "sigma_profile": "yes", 
		 "theory": "DFT", 
		 "functional": "B3LYP", 
		 "basiset": "6-31G**", 
		 "properties": { 
			 "R2extent": 3019.5311, 
			 "electric_dipole_moment_norm": 1.53922858926, 
			 "electric_quadrupole_moment_norm": 3.32124071546, 
			 "total_energy": -1230.2688654, 
			 "HOMO_LUMO_gap": 0.20751, 
			 "cosmo_polarized_energy": -4.78, 
			 "cosmo_cavitation_energy": 24.36, 
			 "cosmo_dispersion_energy": -17.45, 
			 "cosmo_repulsion_energy": 1.42, 
			 "cosmo_total_nonelectrostatic_energy": 8.32, 
			 "SMD_solvation_energy": 4.38 
		},
		"coords": [
			{
				"x": 0.8280932312,
				"y": -2.0118748148,
				"z": -0.2840551677,
				"element": "C" 
			},
			{
				"x": 0.0525799756,
				"y": -0.7038419838,
				"z": -0.5265925939,
				"element": "C" 
			},
			{
				"x": -1.4597412926,
				"y": -0.9647148987,
				"z": -0.3581780026,
				"element": "C" 
			},
			{
				"x": 0.4963978938,
				"y": 0.36765487,
				"z": 0.5067346744,
				"element": "C" 
			},
			{
				"x": 0.2584023386,
				"y": -0.0660028103,
				"z": -1.9148965482,
				"element": "C" 
			},
			{
				"x": -0.5441306526,
				"y": 0.7212721677,
				"z": -2.3741046034,
				"element": "O" 
			},
			{
				"x": 1.4910167125,
				"y": -0.3141900326,
				"z": -2.8264906371,
				"element": "C" 
			},
			{
				"x": 3.0737392842,
				"y": 0.002834147,
				"z": -2.0233362763,
				"element": "Cl" 
			},
			{
				"x": 1.4259879101,
				"y": -1.9557738699,
				"z": -3.5704417224,
				"element": "Cl" 
			},
			{
				"x": 1.9068119679,
				"y": -1.8912123397,
				"z": -0.4013883634,
				"element": "H" 
			},
			{
				"x": 0.6424340231,
				"y": -2.3412710673,
				"z": 0.7437097662,
				"element": "H" 
			},
			{
				"x": 0.4973840034,
				"y": -2.8095187017,
				"z": -0.9535313147,
				"element": "H" 
			},
			{
				"x": -1.6564531605,
				"y": -1.3324935133,
				"z": 0.6537303425,
				"element": "H" 
			},
			{
				"x": -2.0368687357,
				"y": -0.0527063004,
				"z": -0.5204561948,
				"element": "H" 
			},
			{
				"x": -1.810919493,
				"y": -1.7207935182,
				"z": -1.0678215869,
				"element": "H" 
			},
			{
				"x": 1.5683921819,
				"y": 0.5725519101,
				"z": 0.4455418927,
				"element": "H" 
			},
			{
				"x": 0.2767654166,
				"y": 0.0033877363,
				"z": 1.5157067562,
				"element": "H" 
			},
			{
				"x": -0.0471789482,
				"y": 1.3042923731,
				"z": 0.3535244131,
				"element": "H" 
			},
			{
				"x": 1.4151873439,
				"y": 0.3949006466,
				"z": -3.6467548337,
				"element": "H" 
			}
		],
		 "valence_orbital": [ 
			{
				"type": "occ",
				"energy": -0.34262,
				"method": "rhf"
			},
			{
				"type": "occ",
				"energy": -0.33005,
				"method": "rhf"
			},
			{
				"type": "occ",
				"energy": -0.3194,
				"method": "rhf"
			},
			{
				"type": "occ",
				"energy": -0.31654,
				"method": "rhf"
			},
			{
				"type": "occ",
				"energy": -0.26745,
				"method": "rhf"
			},
			{
				"type": "unocc",
				"energy": -0.05994,
				"method": "rhf"
			},
			{
				"type": "unocc",
				"energy": -0.02229,
				"method": "rhf"
			},
			{
				"type": "unocc",
				"energy": 0.04447,
				"method": "rhf"
			},
			{
				"type": "unocc",
				"energy": 0.08066,
				"method": "rhf"
			},
			{
				"type": "unocc",
				"energy": 0.10326,
				"method": "rhf"
			}
		],
		"cosmo_sigma_profile": { 
			"-0.025": 0.0,
			"-0.024": 0.0,
			"-0.023": 0.0,
			"-0.022": 0.0,
			"-0.021": 0.0,
			"-0.02": 0.0,
			"-0.019": 0.0,
			"-0.018": 0.0,
			"-0.017": 0.0,
			"-0.016": 0.0,
			"-0.015": 0.0,
			"-0.014": 0.0,
			"-0.013": 0.0,
			"-0.012": 0.0,
			"-0.011": 0.382714022989,
			"-0.01": 1.47681005127,
			"-0.009": 1.61203377288,
			"-0.008": 1.16917985588,
			"-0.007": 1.3166204974,
			"-0.006": 1.3650811101,
			"-0.005": 2.16378973989,
			"-0.004": 12.8887129083,
			"-0.003": 19.9849170837,
			"-0.002": 22.6545214407,
			"-0.001": 25.9077515827,
			"0.0": 29.6821552117,
			"0.001": 21.1299300999,
			"0.002": 12.1250842951,
			"0.003": 13.9665636646,
			"0.004": 12.9069845628,
			"0.005": 1.54398922435,
			"0.006": 1.52843059543,
			"0.007": 1.92788187317,
			"0.008": 1.7066578525,
			"0.009": 2.79230310163,
			"0.01": 3.74619374831,
			"0.011": 0.774686707511,
			"0.012": 0.0,
			"0.013": 0.0,
			"0.014": 0.0,
			"0.015": 0.0,
			"0.016": 0.0,
			"0.017": 0.0,
			"0.018": 0.0,
			"0.019": 0.0,
			"0.02": 0.0,
			"0.021": 0.0,
			"0.022": 0.0,
			"0.023": 0.0,
			"0.024": 0.0,
			"0.025": 0.0
		}
	}
}
