{
	 "smiles": "[O-][N+](=O)C1=CC=CC(OC(=O)C2=CC=CC=C2)=C1", 
	 "Tm": 368.15, 
	 "num_atms": 27, 
	 "gaussian": { 
		 "optdone": 1, 
		 "sigma_profile": "yes", 
		 "theory": "DFT", 
		 "functional": "B3LYP", 
		 "basiset": "6-31G**", 
		 "properties": { 
			 "R2extent": 6970.4659, 
			 "electric_dipole_moment_norm": 6.31135792837, 
			 "electric_quadrupole_moment_norm": 27.4600491214, 
			 "total_energy": -856.363356013, 
			 "HOMO_LUMO_gap": 0.17539, 
			 "cosmo_polarized_energy": -11.99, 
			 "cosmo_cavitation_energy": 33.54, 
			 "cosmo_dispersion_energy": -24.15, 
			 "cosmo_repulsion_energy": 1.84, 
			 "cosmo_total_nonelectrostatic_energy": 11.23, 
			 "SMD_solvation_energy": 8.94 
		},
		"coords": [
			{
				"x": 4.3822880569,
				"y": 2.0046541094,
				"z": -4.0186590498,
				"element": "O" 
			},
			{
				"x": 3.2700485815,
				"y": 1.558511239,
				"z": -3.7400936397,
				"element": "N" 
			},
			{
				"x": 2.268595814,
				"y": 1.679913418,
				"z": -4.4428571715,
				"element": "O" 
			},
			{
				"x": 3.1312105997,
				"y": 0.819977215,
				"z": -2.4706619686,
				"element": "C" 
			},
			{
				"x": 4.2599500245,
				"y": 0.6390228897,
				"z": -1.6741710215,
				"element": "C" 
			},
			{
				"x": 4.1173523339,
				"y": -0.0704933204,
				"z": -0.4836803117,
				"element": "C" 
			},
			{
				"x": 2.8719204121,
				"y": -0.5745378972,
				"z": -0.1068797547,
				"element": "C" 
			},
			{
				"x": 1.7622090793,
				"y": -0.3711526194,
				"z": -0.9291781987,
				"element": "C" 
			},
			{
				"x": 0.5795511337,
				"y": -0.9717416516,
				"z": -0.5219091196,
				"element": "O" 
			},
			{
				"x": -0.6097225015,
				"y": -0.27435994,
				"z": -0.563060241,
				"element": "C" 
			},
			{
				"x": -0.692219555,
				"y": 0.8752289362,
				"z": -0.9288984815,
				"element": "O" 
			},
			{
				"x": -1.7454767488,
				"y": -1.111647584,
				"z": -0.0995193523,
				"element": "C" 
			},
			{
				"x": -3.0149554403,
				"y": -0.5154565403,
				"z": -0.0689440053,
				"element": "C" 
			},
			{
				"x": -4.1192264027,
				"y": -1.2498087691,
				"z": 0.3539463411,
				"element": "C" 
			},
			{
				"x": -3.962603378,
				"y": -2.5820631909,
				"z": 0.7467017351,
				"element": "C" 
			},
			{
				"x": -2.6997904079,
				"y": -3.1791461925,
				"z": 0.7165528911,
				"element": "C" 
			},
			{
				"x": -1.5903190113,
				"y": -2.4486439438,
				"z": 0.2954272192,
				"element": "C" 
			},
			{
				"x": 1.8742468113,
				"y": 0.3276376329,
				"z": -2.1294940462,
				"element": "C" 
			},
			{
				"x": 5.2101750069,
				"y": 1.0467024021,
				"z": -1.9934205363,
				"element": "H" 
			},
			{
				"x": 4.9787907969,
				"y": -0.2305144612,
				"z": 0.1563959203,
				"element": "H" 
			},
			{
				"x": 2.7444810483,
				"y": -1.1276326144,
				"z": 0.8175905789,
				"element": "H" 
			},
			{
				"x": -3.1115299848,
				"y": 0.5190781854,
				"z": -0.3802188306,
				"element": "H" 
			},
			{
				"x": -5.1009452997,
				"y": -0.7865863289,
				"z": 0.377075344,
				"element": "H" 
			},
			{
				"x": -4.8247031779,
				"y": -3.1551044854,
				"z": 1.0758877275,
				"element": "H" 
			},
			{
				"x": -2.5800602905,
				"y": -4.2144889173,
				"z": 1.0211390357,
				"element": "H" 
			},
			{
				"x": -0.608261619,
				"y": -2.9059712933,
				"z": 0.2694659534,
				"element": "H" 
			},
			{
				"x": 1.0289941186,
				"y": 0.4998237218,
				"z": -2.7792370174,
				"element": "H" 
			}
		],
		 "valence_orbital": [ 
			{
				"type": "occ",
				"energy": -0.29002,
				"method": "rhf"
			},
			{
				"type": "occ",
				"energy": -0.28185,
				"method": "rhf"
			},
			{
				"type": "occ",
				"energy": -0.2739,
				"method": "rhf"
			},
			{
				"type": "occ",
				"energy": -0.26952,
				"method": "rhf"
			},
			{
				"type": "occ",
				"energy": -0.2643,
				"method": "rhf"
			},
			{
				"type": "unocc",
				"energy": -0.08891,
				"method": "rhf"
			},
			{
				"type": "unocc",
				"energy": -0.06355,
				"method": "rhf"
			},
			{
				"type": "unocc",
				"energy": -0.02479,
				"method": "rhf"
			},
			{
				"type": "unocc",
				"energy": -0.01846,
				"method": "rhf"
			},
			{
				"type": "unocc",
				"energy": 0.0005,
				"method": "rhf"
			}
		],
		"cosmo_sigma_profile": { 
			"-0.025": 0.0,
			"-0.024": 0.0,
			"-0.023": 0.0,
			"-0.022": 0.0,
			"-0.021": 0.0,
			"-0.02": 0.0,
			"-0.019": 0.0,
			"-0.018": 0.0,
			"-0.017": 0.0,
			"-0.016": 0.0,
			"-0.015": 0.0,
			"-0.014": 0.0,
			"-0.013": 0.0,
			"-0.012": 0.0,
			"-0.011": 0.0,
			"-0.01": 0.0,
			"-0.009": 0.160912653287,
			"-0.008": 3.81563630105,
			"-0.007": 10.9941560917,
			"-0.006": 18.1937640813,
			"-0.005": 19.1885671574,
			"-0.004": 17.8567042199,
			"-0.003": 16.8872458412,
			"-0.002": 19.0851760355,
			"-0.001": 20.0664078424,
			"0.0": 27.6404372588,
			"0.001": 25.0839280178,
			"0.002": 20.6100928242,
			"0.003": 16.1517151179,
			"0.004": 12.0767226789,
			"0.005": 4.48242765406,
			"0.006": 5.42023929408,
			"0.007": 10.9610153085,
			"0.008": 8.2278046242,
			"0.009": 6.02541042451,
			"0.01": 4.98369371104,
			"0.011": 2.77638746733,
			"0.012": 0.0,
			"0.013": 0.0,
			"0.014": 0.0,
			"0.015": 0.0,
			"0.016": 0.0,
			"0.017": 0.0,
			"0.018": 0.0,
			"0.019": 0.0,
			"0.02": 0.0,
			"0.021": 0.0,
			"0.022": 0.0,
			"0.023": 0.0,
			"0.024": 0.0,
			"0.025": 0.0
		}
	}
}
