{
	 "smiles": "CC1(C)C(NC1=O)C1=CC=CC=C1", 
	 "Tm": 423.15, 
	 "num_atms": 26, 
	 "gaussian": { 
		 "optdone": 1, 
		 "sigma_profile": "yes", 
		 "theory": "DFT", 
		 "functional": "B3LYP", 
		 "basiset": "6-31G**", 
		 "properties": { 
			 "R2extent": 2835.073, 
			 "electric_dipole_moment_norm": 3.5642938403, 
			 "electric_quadrupole_moment_norm": 13.7349204483, 
			 "total_energy": -556.982349519, 
			 "HOMO_LUMO_gap": 0.22474, 
			 "cosmo_polarized_energy": -11.55, 
			 "cosmo_cavitation_energy": 28.8, 
			 "cosmo_dispersion_energy": -20.08, 
			 "cosmo_repulsion_energy": 1.61, 
			 "cosmo_total_nonelectrostatic_energy": 10.33, 
			 "SMD_solvation_energy": 5.24 
		},
		"coords": [
			{
				"x": 0.3716908756,
				"y": -3.3527418046,
				"z": 0.4703938946,
				"element": "C" 
			},
			{
				"x": -0.5248895452,
				"y": -2.1560651742,
				"z": 0.7918698697,
				"element": "C" 
			},
			{
				"x": -0.5233077214,
				"y": -1.8278639088,
				"z": 2.283401101,
				"element": "C" 
			},
			{
				"x": -0.3602280599,
				"y": -0.92832179,
				"z": -0.2126024777,
				"element": "C" 
			},
			{
				"x": -1.7571145218,
				"y": -1.1643281605,
				"z": -0.5994141715,
				"element": "N" 
			},
			{
				"x": -1.9430948893,
				"y": -2.2862075476,
				"z": 0.1757080404,
				"element": "C" 
			},
			{
				"x": -2.8617466546,
				"y": -3.0659775601,
				"z": 0.2861986313,
				"element": "O" 
			},
			{
				"x": -0.0233166581,
				"y": 0.4428706791,
				"z": 0.3202235579,
				"element": "C" 
			},
			{
				"x": 1.314429315,
				"y": 0.8619648059,
				"z": 0.3377656224,
				"element": "C" 
			},
			{
				"x": 1.6651381005,
				"y": 2.1106780276,
				"z": 0.850475021,
				"element": "C" 
			},
			{
				"x": 0.6781838647,
				"y": 2.9662008655,
				"z": 1.3448718432,
				"element": "C" 
			},
			{
				"x": -0.6579458032,
				"y": 2.562567151,
				"z": 1.3225246305,
				"element": "C" 
			},
			{
				"x": -1.0060399363,
				"y": 1.3096263935,
				"z": 0.8153121436,
				"element": "C" 
			},
			{
				"x": 1.4041459791,
				"y": -3.1626375752,
				"z": 0.7846945728,
				"element": "H" 
			},
			{
				"x": 0.3759593324,
				"y": -3.5795749477,
				"z": -0.6009690984,
				"element": "H" 
			},
			{
				"x": 0.0140393352,
				"y": -4.2425535164,
				"z": 0.9978951042,
				"element": "H" 
			},
			{
				"x": -0.8885802153,
				"y": -2.6911099949,
				"z": 2.8485740597,
				"element": "H" 
			},
			{
				"x": -1.1646090596,
				"y": -0.9743946615,
				"z": 2.5168266488,
				"element": "H" 
			},
			{
				"x": 0.4888957851,
				"y": -1.593511985,
				"z": 2.6303968129,
				"element": "H" 
			},
			{
				"x": 0.3447547428,
				"y": -1.1852034016,
				"z": -1.0142614259,
				"element": "H" 
			},
			{
				"x": -2.2999489556,
				"y": -0.8022400628,
				"z": -1.3740326524,
				"element": "H" 
			},
			{
				"x": 2.0859933679,
				"y": 0.2054143178,
				"z": -0.0585079053,
				"element": "H" 
			},
			{
				"x": 2.7068187352,
				"y": 2.4190352473,
				"z": 0.8561320543,
				"element": "H" 
			},
			{
				"x": 0.9481483745,
				"y": 3.9419629203,
				"z": 1.7382205836,
				"element": "H" 
			},
			{
				"x": -1.4326299491,
				"y": 3.2247899367,
				"z": 1.6989403537,
				"element": "H" 
			},
			{
				"x": -2.0463458388,
				"y": 0.9991217464,
				"z": 0.7934631855,
				"element": "H" 
			}
		],
		 "valence_orbital": [ 
			{
				"type": "occ",
				"energy": -0.32937,
				"method": "rhf"
			},
			{
				"type": "occ",
				"energy": -0.26131,
				"method": "rhf"
			},
			{
				"type": "occ",
				"energy": -0.25582,
				"method": "rhf"
			},
			{
				"type": "occ",
				"energy": -0.25448,
				"method": "rhf"
			},
			{
				"type": "occ",
				"energy": -0.2355,
				"method": "rhf"
			},
			{
				"type": "unocc",
				"energy": -0.01076,
				"method": "rhf"
			},
			{
				"type": "unocc",
				"energy": -0.00783,
				"method": "rhf"
			},
			{
				"type": "unocc",
				"energy": 0.03409,
				"method": "rhf"
			},
			{
				"type": "unocc",
				"energy": 0.08379,
				"method": "rhf"
			},
			{
				"type": "unocc",
				"energy": 0.09287,
				"method": "rhf"
			}
		],
		"cosmo_sigma_profile": { 
			"-0.025": 0.0,
			"-0.024": 0.0,
			"-0.023": 0.0,
			"-0.022": 0.0,
			"-0.021": 0.0,
			"-0.02": 0.0,
			"-0.019": 0.0,
			"-0.018": 0.0,
			"-0.017": 0.0,
			"-0.016": 0.0,
			"-0.015": 0.0319774714793,
			"-0.014": 1.23868568702,
			"-0.013": 1.27193829138,
			"-0.012": 1.18429607217,
			"-0.011": 0.796364747445,
			"-0.01": 0.8654362495,
			"-0.009": 1.49707674831,
			"-0.008": 0.815268780325,
			"-0.007": 1.03036216506,
			"-0.006": 4.50547983241,
			"-0.005": 14.934692197,
			"-0.004": 21.8632104038,
			"-0.003": 29.9368576636,
			"-0.002": 21.7909005667,
			"-0.001": 20.1486950158,
			"0.0": 22.410789708,
			"0.001": 15.8575486173,
			"0.002": 10.3418292152,
			"0.003": 8.85774747797,
			"0.004": 9.68530637547,
			"0.005": 9.09526398691,
			"0.006": 7.9192706191,
			"0.007": 1.72656423522,
			"0.008": 2.46820554927,
			"0.009": 0.786050378409,
			"0.01": 1.21974473086,
			"0.011": 1.7387591017,
			"0.012": 2.28066265922,
			"0.013": 6.55360489158,
			"0.014": 3.73679660193,
			"0.015": 0.409664709703,
			"0.016": 0.0,
			"0.017": 0.0,
			"0.018": 0.0,
			"0.019": 0.0,
			"0.02": 0.0,
			"0.021": 0.0,
			"0.022": 0.0,
			"0.023": 0.0,
			"0.024": 0.0,
			"0.025": 0.0
		}
	}
}
