{
	 "smiles": "COC(=O)C1=CC=C2CC3(CC2=C1)CCC(CC3)C1=CC=C(C=C1)C(C)(C)C", 
	 "Tm": 391.15, 
	 "num_atms": 60, 
	 "gaussian": { 
		 "optdone": 1, 
		 "sigma_profile": "yes", 
		 "theory": "DFT", 
		 "functional": "B3LYP", 
		 "basiset": "6-31G**", 
		 "properties": { 
			 "R2extent": 22931.6297, 
			 "electric_dipole_moment_norm": 2.63812137136, 
			 "electric_quadrupole_moment_norm": 23.9522206991, 
			 "total_energy": -1160.54996665, 
			 "HOMO_LUMO_gap": 0.1901, 
			 "cosmo_polarized_energy": -10.61, 
			 "cosmo_cavitation_energy": 58.1, 
			 "cosmo_dispersion_energy": -40.38, 
			 "cosmo_repulsion_energy": 3.01, 
			 "cosmo_total_nonelectrostatic_energy": 20.73, 
			 "SMD_solvation_energy": 10.07 
		},
		"coords": [
			{
				"x": 2.8614727817,
				"y": -9.493023112,
				"z": 0.207652602,
				"element": "C" 
			},
			{
				"x": 2.2561789064,
				"y": -8.2454818442,
				"z": -0.1591420813,
				"element": "O" 
			},
			{
				"x": 0.9394609804,
				"y": -8.1340906857,
				"z": 0.1437537828,
				"element": "C" 
			},
			{
				"x": 0.3126240221,
				"y": -9.024232859,
				"z": 0.6867801194,
				"element": "O" 
			},
			{
				"x": 0.3697366382,
				"y": -6.8201403607,
				"z": -0.2615699413,
				"element": "C" 
			},
			{
				"x": -0.9882575695,
				"y": -6.590825202,
				"z": 0.0068126225,
				"element": "C" 
			},
			{
				"x": -1.5850184915,
				"y": -5.3792637847,
				"z": -0.3407297169,
				"element": "C" 
			},
			{
				"x": -0.8129684932,
				"y": -4.3955699204,
				"z": -0.9579132551,
				"element": "C" 
			},
			{
				"x": -1.2158501729,
				"y": -3.0231292313,
				"z": -1.4466592317,
				"element": "C" 
			},
			{
				"x": 0.1390031778,
				"y": -2.2591948654,
				"z": -1.5971893845,
				"element": "C" 
			},
			{
				"x": 1.1421365989,
				"y": -3.4127194711,
				"z": -1.9149067581,
				"element": "C" 
			},
			{
				"x": 0.5455356333,
				"y": -4.6212194465,
				"z": -1.2295318121,
				"element": "C" 
			},
			{
				"x": 1.144487076,
				"y": -5.8275980808,
				"z": -0.8859654296,
				"element": "C" 
			},
			{
				"x": 0.5110037466,
				"y": -1.597337262,
				"z": -0.2379568186,
				"element": "C" 
			},
			{
				"x": 1.5268133418,
				"y": -0.4562793809,
				"z": -0.3893886708,
				"element": "C" 
			},
			{
				"x": 1.0004337411,
				"y": 0.7149815892,
				"z": -1.2807907881,
				"element": "C" 
			},
			{
				"x": -0.1672686754,
				"y": 0.2242106861,
				"z": -2.1778281922,
				"element": "C" 
			},
			{
				"x": 0.1227497462,
				"y": -1.1822512709,
				"z": -2.7156931343,
				"element": "C" 
			},
			{
				"x": 0.6202447151,
				"y": 1.9682876795,
				"z": -0.5093365038,
				"element": "C" 
			},
			{
				"x": 1.0714142796,
				"y": 3.2268182056,
				"z": -0.9289069264,
				"element": "C" 
			},
			{
				"x": 0.7117208798,
				"y": 4.3909138816,
				"z": -0.2533882116,
				"element": "C" 
			},
			{
				"x": -0.1176433594,
				"y": 4.3593539914,
				"z": 0.879525336,
				"element": "C" 
			},
			{
				"x": -0.5667376662,
				"y": 3.0990800513,
				"z": 1.2974317618,
				"element": "C" 
			},
			{
				"x": -0.2081030594,
				"y": 1.9324052268,
				"z": 0.6189155703,
				"element": "C" 
			},
			{
				"x": -0.4908937872,
				"y": 5.6672424631,
				"z": 1.6009967668,
				"element": "C" 
			},
			{
				"x": 0.7962689755,
				"y": 6.3686726078,
				"z": 2.0965154248,
				"element": "C" 
			},
			{
				"x": -1.4031773248,
				"y": 5.4243221738,
				"z": 2.818330846,
				"element": "C" 
			},
			{
				"x": -1.2366516994,
				"y": 6.602230099,
				"z": 0.6192226083,
				"element": "C" 
			},
			{
				"x": 2.792206697,
				"y": -9.6539339238,
				"z": 1.2866171335,
				"element": "H" 
			},
			{
				"x": 3.9041347949,
				"y": -9.4171645445,
				"z": -0.1016299794,
				"element": "H" 
			},
			{
				"x": 2.3699084687,
				"y": -10.3258644578,
				"z": -0.3018492252,
				"element": "H" 
			},
			{
				"x": -1.5550325978,
				"y": -7.3765914347,
				"z": 0.4946427814,
				"element": "H" 
			},
			{
				"x": -2.6363600901,
				"y": -5.2074621158,
				"z": -0.1252468336,
				"element": "H" 
			},
			{
				"x": -1.7138810837,
				"y": -3.1132127737,
				"z": -2.4234435104,
				"element": "H" 
			},
			{
				"x": -1.9221000627,
				"y": -2.5155061313,
				"z": -0.7800986637,
				"element": "H" 
			},
			{
				"x": 1.1938404584,
				"y": -3.5820958876,
				"z": -3.0005092254,
				"element": "H" 
			},
			{
				"x": 2.1615786206,
				"y": -3.1807331337,
				"z": -1.5851415275,
				"element": "H" 
			},
			{
				"x": 2.1943811033,
				"y": -6.0127457257,
				"z": -1.0859316156,
				"element": "H" 
			},
			{
				"x": -0.4001373433,
				"y": -1.2051835915,
				"z": 0.2299986813,
				"element": "H" 
			},
			{
				"x": 0.8961473624,
				"y": -2.3581269334,
				"z": 0.4506679584,
				"element": "H" 
			},
			{
				"x": 1.8114397645,
				"y": -0.076954012,
				"z": 0.597227906,
				"element": "H" 
			},
			{
				"x": 2.4464837664,
				"y": -0.8568194871,
				"z": -0.833824761,
				"element": "H" 
			},
			{
				"x": 1.8155150783,
				"y": 0.9989106112,
				"z": -1.9586430232,
				"element": "H" 
			},
			{
				"x": -0.3167762061,
				"y": 0.932863339,
				"z": -2.9998947428,
				"element": "H" 
			},
			{
				"x": -1.1025803934,
				"y": 0.2230160108,
				"z": -1.6039764094,
				"element": "H" 
			},
			{
				"x": -0.6028395749,
				"y": -1.4600189835,
				"z": -3.4894574338,
				"element": "H" 
			},
			{
				"x": 1.1017233397,
				"y": -1.1620894007,
				"z": -3.2144396411,
				"element": "H" 
			},
			{
				"x": 1.719973177,
				"y": 3.2964867648,
				"z": -1.7996576178,
				"element": "H" 
			},
			{
				"x": 1.0918632942,
				"y": 5.3408025711,
				"z": -0.6190751956,
				"element": "H" 
			},
			{
				"x": -1.2081795892,
				"y": 3.0097323921,
				"z": 2.1670352006,
				"element": "H" 
			},
			{
				"x": -0.5833151277,
				"y": 0.9805310643,
				"z": 0.9858232374,
				"element": "H" 
			},
			{
				"x": 1.3423451649,
				"y": 5.7321815309,
				"z": 2.8005629247,
				"element": "H" 
			},
			{
				"x": 0.5484840499,
				"y": 7.3062868915,
				"z": 2.6072480879,
				"element": "H" 
			},
			{
				"x": 1.4726672892,
				"y": 6.6085227997,
				"z": 1.2707293494,
				"element": "H" 
			},
			{
				"x": -1.6413818463,
				"y": 6.3795791803,
				"z": 3.2975284236,
				"element": "H" 
			},
			{
				"x": -0.9205929664,
				"y": 4.7901780242,
				"z": 3.569342043,
				"element": "H" 
			},
			{
				"x": -2.3497788458,
				"y": 4.9546414904,
				"z": 2.5312352573,
				"element": "H" 
			},
			{
				"x": -1.5035980375,
				"y": 7.542789759,
				"z": 1.114656858,
				"element": "H" 
			},
			{
				"x": -2.1585995116,
				"y": 6.1348418494,
				"z": 0.2578434072,
				"element": "H" 
			},
			{
				"x": -0.6237540947,
				"y": 6.847976381,
				"z": -0.2530804286,
				"element": "H" 
			}
		],
		 "valence_orbital": [ 
			{
				"type": "occ",
				"energy": -0.26634,
				"method": "rhf"
			},
			{
				"type": "occ",
				"energy": -0.25003,
				"method": "rhf"
			},
			{
				"type": "occ",
				"energy": -0.24293,
				"method": "rhf"
			},
			{
				"type": "occ",
				"energy": -0.23749,
				"method": "rhf"
			},
			{
				"type": "occ",
				"energy": -0.22772,
				"method": "rhf"
			},
			{
				"type": "unocc",
				"energy": -0.03762,
				"method": "rhf"
			},
			{
				"type": "unocc",
				"energy": -0.00339,
				"method": "rhf"
			},
			{
				"type": "unocc",
				"energy": 0.00134,
				"method": "rhf"
			},
			{
				"type": "unocc",
				"energy": 0.00786,
				"method": "rhf"
			},
			{
				"type": "unocc",
				"energy": 0.06188,
				"method": "rhf"
			}
		],
		"cosmo_sigma_profile": { 
			"-0.025": 0.0,
			"-0.024": 0.0,
			"-0.023": 0.0,
			"-0.022": 0.0,
			"-0.021": 0.0,
			"-0.02": 0.0,
			"-0.019": 0.0,
			"-0.018": 0.0,
			"-0.017": 0.0,
			"-0.016": 0.0,
			"-0.015": 0.0,
			"-0.014": 0.0,
			"-0.013": 0.0,
			"-0.012": 0.0,
			"-0.011": 0.0,
			"-0.01": 0.0,
			"-0.009": 0.0,
			"-0.008": 0.0,
			"-0.007": 0.345332226708,
			"-0.006": 5.07439238137,
			"-0.005": 14.6507722016,
			"-0.004": 28.5553387355,
			"-0.003": 55.374573794,
			"-0.002": 69.7084838596,
			"-0.001": 61.567816525,
			"0.0": 50.5840759208,
			"0.001": 49.078574612,
			"0.002": 33.5983647391,
			"0.003": 18.8280690089,
			"0.004": 19.929488748,
			"0.005": 14.5674793704,
			"0.006": 10.5396244343,
			"0.007": 7.77046586685,
			"0.008": 1.94261427133,
			"0.009": 1.52662232408,
			"0.01": 1.9179692765,
			"0.011": 2.44143055186,
			"0.012": 4.65495813903,
			"0.013": 1.03214000914,
			"0.014": 0.0,
			"0.015": 0.0,
			"0.016": 0.0,
			"0.017": 0.0,
			"0.018": 0.0,
			"0.019": 0.0,
			"0.02": 0.0,
			"0.021": 0.0,
			"0.022": 0.0,
			"0.023": 0.0,
			"0.024": 0.0,
			"0.025": 0.0
		}
	}
}
