{
	 "smiles": "FC(F)N1C(CC(=O)C2=CC=CS2)=NC2=C1C=CC=C2", 
	 "Tm": 397.15, 
	 "num_atms": 30, 
	 "gaussian": { 
		 "optdone": 1, 
		 "sigma_profile": "yes", 
		 "theory": "DFT", 
		 "functional": "B3LYP", 
		 "basiset": "6-31G**", 
		 "properties": { 
			 "R2extent": 8302.0472, 
			 "electric_dipole_moment_norm": 3.45710276532, 
			 "electric_quadrupole_moment_norm": 22.3040260346, 
			 "total_energy": -1322.10399773, 
			 "HOMO_LUMO_gap": 0.14918, 
			 "cosmo_polarized_energy": -12.11, 
			 "cosmo_cavitation_energy": 36.57, 
			 "cosmo_dispersion_energy": -26.9, 
			 "cosmo_repulsion_energy": 1.94, 
			 "cosmo_total_nonelectrostatic_energy": 11.6, 
			 "SMD_solvation_energy": 4.67 
		},
		"coords": [
			{
				"x": -2.3558124109,
				"y": 0.1444263613,
				"z": 0.9342739929,
				"element": "F" 
			},
			{
				"x": -1.2637852875,
				"y": 0.5576137807,
				"z": 1.6336874519,
				"element": "C" 
			},
			{
				"x": -1.2116514311,
				"y": -0.1655932196,
				"z": 2.7823435887,
				"element": "F" 
			},
			{
				"x": -0.0834342106,
				"y": 0.2849274086,
				"z": 0.8603965885,
				"element": "N" 
			},
			{
				"x": 0.0813825457,
				"y": 0.493594528,
				"z": -0.5128437798,
				"element": "C" 
			},
			{
				"x": -1.0292576144,
				"y": 0.7893992297,
				"z": -1.4715857061,
				"element": "C" 
			},
			{
				"x": -1.6957564653,
				"y": 2.1515843549,
				"z": -1.259490929,
				"element": "C" 
			},
			{
				"x": -1.5126009038,
				"y": 2.8054680491,
				"z": -0.2400305084,
				"element": "O" 
			},
			{
				"x": -2.5923794384,
				"y": 2.6531568023,
				"z": -2.3148699979,
				"element": "C" 
			},
			{
				"x": -3.3050378132,
				"y": 3.833165203,
				"z": -2.2544631655,
				"element": "C" 
			},
			{
				"x": -4.0973096071,
				"y": 4.069483088,
				"z": -3.4057872034,
				"element": "C" 
			},
			{
				"x": -3.9840798736,
				"y": 3.0661946694,
				"z": -4.3370440282,
				"element": "C" 
			},
			{
				"x": -2.9072334927,
				"y": 1.8199834659,
				"z": -3.8226061543,
				"element": "S" 
			},
			{
				"x": 1.3248231883,
				"y": 0.3805863804,
				"z": -0.8965759345,
				"element": "N" 
			},
			{
				"x": 2.0534537729,
				"y": 0.1225549538,
				"z": 0.2559475664,
				"element": "C" 
			},
			{
				"x": 1.2002842813,
				"y": 0.0729113854,
				"z": 1.3807260355,
				"element": "C" 
			},
			{
				"x": 1.6866414288,
				"y": -0.1575133861,
				"z": 2.670694969,
				"element": "C" 
			},
			{
				"x": 3.0621505061,
				"y": -0.338155084,
				"z": 2.7987102838,
				"element": "C" 
			},
			{
				"x": 3.9233872171,
				"y": -0.3002844134,
				"z": 1.6853671573,
				"element": "C" 
			},
			{
				"x": 3.4312896221,
				"y": -0.0728754393,
				"z": 0.4049311116,
				"element": "C" 
			},
			{
				"x": -1.3873943566,
				"y": 1.6150856251,
				"z": 1.8750172909,
				"element": "H" 
			},
			{
				"x": -1.8125720886,
				"y": 0.0237472476,
				"z": -1.4209048849,
				"element": "H" 
			},
			{
				"x": -0.5900558996,
				"y": 0.7423384804,
				"z": -2.4723224213,
				"element": "H" 
			},
			{
				"x": -3.2397170167,
				"y": 4.4892532249,
				"z": -1.3950618953,
				"element": "H" 
			},
			{
				"x": -4.7247845654,
				"y": 4.9420968317,
				"z": -3.5442547514,
				"element": "H" 
			},
			{
				"x": -4.4731669883,
				"y": 2.9909010533,
				"z": -5.2989275663,
				"element": "H" 
			},
			{
				"x": 1.0321065077,
				"y": -0.1987944845,
				"z": 3.5314344377,
				"element": "H" 
			},
			{
				"x": 3.4779731171,
				"y": -0.5175651932,
				"z": 3.7857966356,
				"element": "H" 
			},
			{
				"x": 4.9884440122,
				"y": -0.4518441429,
				"z": 1.8333130808,
				"element": "H" 
			},
			{
				"x": 4.0818932646,
				"y": -0.0390467602,
				"z": -0.4627712644,
				"element": "H" 
			}
		],
		 "valence_orbital": [ 
			{
				"type": "occ",
				"energy": -0.27358,
				"method": "rhf"
			},
			{
				"type": "occ",
				"energy": -0.26884,
				"method": "rhf"
			},
			{
				"type": "occ",
				"energy": -0.25737,
				"method": "rhf"
			},
			{
				"type": "occ",
				"energy": -0.22942,
				"method": "rhf"
			},
			{
				"type": "occ",
				"energy": -0.22429,
				"method": "rhf"
			},
			{
				"type": "unocc",
				"energy": -0.07511,
				"method": "rhf"
			},
			{
				"type": "unocc",
				"energy": -0.0195,
				"method": "rhf"
			},
			{
				"type": "unocc",
				"energy": 0.01077,
				"method": "rhf"
			},
			{
				"type": "unocc",
				"energy": 0.01164,
				"method": "rhf"
			},
			{
				"type": "unocc",
				"energy": 0.01611,
				"method": "rhf"
			}
		],
		"cosmo_sigma_profile": { 
			"-0.025": 0.0,
			"-0.024": 0.0,
			"-0.023": 0.0,
			"-0.022": 0.0,
			"-0.021": 0.0,
			"-0.02": 0.0,
			"-0.019": 0.0,
			"-0.018": 0.0,
			"-0.017": 0.0,
			"-0.016": 0.0,
			"-0.015": 0.0,
			"-0.014": 0.0,
			"-0.013": 0.0,
			"-0.012": 0.0,
			"-0.011": 0.0,
			"-0.01": 1.56144472733,
			"-0.009": 4.05445422121,
			"-0.008": 5.59745871024,
			"-0.007": 11.3259885696,
			"-0.006": 16.1913911662,
			"-0.005": 19.4938869926,
			"-0.004": 19.7654182323,
			"-0.003": 16.9802272717,
			"-0.002": 16.031738683,
			"-0.001": 17.8309372566,
			"0.0": 20.8066997707,
			"0.001": 26.1542745861,
			"0.002": 33.017866671,
			"0.003": 34.3670357283,
			"0.004": 17.1291332409,
			"0.005": 12.1312402366,
			"0.006": 5.68091139479,
			"0.007": 2.774719575,
			"0.008": 2.61790571619,
			"0.009": 2.84964690823,
			"0.01": 3.1035072591,
			"0.011": 2.45283479278,
			"0.012": 0.957479681208,
			"0.013": 0.866784733648,
			"0.014": 1.27080932609,
			"0.015": 0.692785157157,
			"0.016": 0.698051100378,
			"0.017": 0.173771232935,
			"0.018": 0.0,
			"0.019": 0.0,
			"0.02": 0.0,
			"0.021": 0.0,
			"0.022": 0.0,
			"0.023": 0.0,
			"0.024": 0.0,
			"0.025": 0.0
		}
	}
}
