{
	 "smiles": "CC(C)CC1=CC=C(C=C1)C(O)=O", 
	 "Tm": 418.15, 
	 "num_atms": 27, 
	 "gaussian": { 
		 "optdone": 1, 
		 "sigma_profile": "yes", 
		 "theory": "DFT", 
		 "functional": "B3LYP", 
		 "basiset": "6-31G**", 
		 "properties": { 
			 "R2extent": 3662.1356, 
			 "electric_dipole_moment_norm": 2.37167159194, 
			 "electric_quadrupole_moment_norm": 8.29519255412, 
			 "total_energy": -578.095472804, 
			 "HOMO_LUMO_gap": 0.20506, 
			 "cosmo_polarized_energy": -8.85, 
			 "cosmo_cavitation_energy": 30.16, 
			 "cosmo_dispersion_energy": -21.35, 
			 "cosmo_repulsion_energy": 1.7, 
			 "cosmo_total_nonelectrostatic_energy": 10.51, 
			 "SMD_solvation_energy": 6.27 
		},
		"coords": [
			{
				"x": 0.9801389395,
				"y": -1.9816367628,
				"z": -3.6615983578,
				"element": "C" 
			},
			{
				"x": 0.2690313619,
				"y": -1.4743988561,
				"z": -2.3991887742,
				"element": "C" 
			},
			{
				"x": -0.9436417325,
				"y": -0.6066918471,
				"z": -2.7614470251,
				"element": "C" 
			},
			{
				"x": 1.2710873725,
				"y": -0.7220874594,
				"z": -1.4853875518,
				"element": "C" 
			},
			{
				"x": 0.7190906952,
				"y": -0.3422092408,
				"z": -0.1292470727,
				"element": "C" 
			},
			{
				"x": 0.3358052429,
				"y": 0.9758970702,
				"z": 0.161135878,
				"element": "C" 
			},
			{
				"x": -0.1870806076,
				"y": 1.3138461002,
				"z": 1.4057255787,
				"element": "C" 
			},
			{
				"x": -0.3381932825,
				"y": 0.3342456369,
				"z": 2.3952623772,
				"element": "C" 
			},
			{
				"x": 0.0437056005,
				"y": -0.9870107231,
				"z": 2.1205345912,
				"element": "C" 
			},
			{
				"x": 0.5657544925,
				"y": -1.3139274803,
				"z": 0.8729310355,
				"element": "C" 
			},
			{
				"x": -0.8977655713,
				"y": 0.7447616683,
				"z": 3.7072951289,
				"element": "C" 
			},
			{
				"x": -0.9983079881,
				"y": -0.2828621496,
				"z": 4.5901589415,
				"element": "O" 
			},
			{
				"x": -1.2419524444,
				"y": 1.8744947382,
				"z": 3.9971117333,
				"element": "O" 
			},
			{
				"x": 1.8207841517,
				"y": -2.6389579856,
				"z": -3.4134716909,
				"element": "H" 
			},
			{
				"x": 0.2923340335,
				"y": -2.5435475856,
				"z": -4.3023564032,
				"element": "H" 
			},
			{
				"x": 1.3738875704,
				"y": -1.1454355093,
				"z": -4.2522782044,
				"element": "H" 
			},
			{
				"x": -0.0939614024,
				"y": -2.3479199825,
				"z": -1.8386122056,
				"element": "H" 
			},
			{
				"x": -1.653759016,
				"y": -1.1670643383,
				"z": -3.3787982953,
				"element": "H" 
			},
			{
				"x": -1.4744520251,
				"y": -0.259206678,
				"z": -1.8702945506,
				"element": "H" 
			},
			{
				"x": -0.6337450521,
				"y": 0.2770878823,
				"z": -3.3332408482,
				"element": "H" 
			},
			{
				"x": 2.1538670075,
				"y": -1.3591208476,
				"z": -1.3452610503,
				"element": "H" 
			},
			{
				"x": 1.6165988982,
				"y": 0.1790233242,
				"z": -2.0081840454,
				"element": "H" 
			},
			{
				"x": 0.4535398987,
				"y": 1.7443274942,
				"z": -0.5983462347,
				"element": "H" 
			},
			{
				"x": -0.4826947901,
				"y": 2.3325396358,
				"z": 1.6334778217,
				"element": "H" 
			},
			{
				"x": -0.0659225893,
				"y": -1.7468108942,
				"z": 2.8861693185,
				"element": "H" 
			},
			{
				"x": 0.8663723715,
				"y": -2.3392529193,
				"z": 0.6716322907,
				"element": "H" 
			},
			{
				"x": -1.3717211351,
				"y": 0.1045177093,
				"z": 5.3985776149,
				"element": "H" 
			}
		],
		 "valence_orbital": [ 
			{
				"type": "occ",
				"energy": -0.32518,
				"method": "rhf"
			},
			{
				"type": "occ",
				"energy": -0.31423,
				"method": "rhf"
			},
			{
				"type": "occ",
				"energy": -0.27291,
				"method": "rhf"
			},
			{
				"type": "occ",
				"energy": -0.25781,
				"method": "rhf"
			},
			{
				"type": "occ",
				"energy": -0.24978,
				"method": "rhf"
			},
			{
				"type": "unocc",
				"energy": -0.04472,
				"method": "rhf"
			},
			{
				"type": "unocc",
				"energy": -0.00797,
				"method": "rhf"
			},
			{
				"type": "unocc",
				"energy": 0.05714,
				"method": "rhf"
			},
			{
				"type": "unocc",
				"energy": 0.07999,
				"method": "rhf"
			},
			{
				"type": "unocc",
				"energy": 0.08612,
				"method": "rhf"
			}
		],
		"cosmo_sigma_profile": { 
			"-0.025": 0.0,
			"-0.024": 0.0,
			"-0.023": 0.0,
			"-0.022": 0.0,
			"-0.021": 0.0,
			"-0.02": 0.0,
			"-0.019": 0.03849583664,
			"-0.018": 0.679015218498,
			"-0.017": 0.922640308021,
			"-0.016": 0.707153951019,
			"-0.015": 0.690973355913,
			"-0.014": 0.568005915466,
			"-0.013": 0.68455110978,
			"-0.012": 0.984554467947,
			"-0.011": 0.484870262915,
			"-0.01": 0.845491580154,
			"-0.009": 0.492929800941,
			"-0.008": 0.460235511079,
			"-0.007": 0.88964793403,
			"-0.006": 4.7026741428,
			"-0.005": 8.73442913658,
			"-0.004": 11.4531438434,
			"-0.003": 18.6585546376,
			"-0.002": 31.2436265734,
			"-0.001": 26.3600150924,
			"0.0": 27.2211522135,
			"0.001": 29.7229014926,
			"0.002": 20.4642010247,
			"0.003": 12.7669882024,
			"0.004": 12.6846258536,
			"0.005": 3.88995958475,
			"0.006": 3.08132279943,
			"0.007": 2.96095798494,
			"0.008": 2.68466292091,
			"0.009": 1.31224482055,
			"0.01": 1.8271726796,
			"0.011": 3.19423210942,
			"0.012": 4.96700839566,
			"0.013": 0.406345874386,
			"0.014": 0.0,
			"0.015": 0.0,
			"0.016": 0.0,
			"0.017": 0.0,
			"0.018": 0.0,
			"0.019": 0.0,
			"0.02": 0.0,
			"0.021": 0.0,
			"0.022": 0.0,
			"0.023": 0.0,
			"0.024": 0.0,
			"0.025": 0.0
		}
	}
}
