{
	 "smiles": "CC1=C(O)C(Br)=C(Br)C(Br)=C1Br", 
	 "Tm": 484.15, 
	 "num_atms": 16, 
	 "gaussian": { 
		 "optdone": 1, 
		 "sigma_profile": "yes", 
		 "theory": "DFT", 
		 "functional": "B3LYP", 
		 "basiset": "6-31G**", 
		 "properties": { 
			 "R2extent": 9948.4035, 
			 "electric_dipole_moment_norm": 3.48394255119, 
			 "electric_quadrupole_moment_norm": 3.9020924784, 
			 "total_energy": -10629.9744745, 
			 "HOMO_LUMO_gap": 0.18212, 
			 "cosmo_polarized_energy": -9.46, 
			 "cosmo_cavitation_energy": 28.24, 
			 "cosmo_dispersion_energy": -22.7, 
			 "cosmo_repulsion_energy": 1.78, 
			 "cosmo_total_nonelectrostatic_energy": 7.32, 
			 "SMD_solvation_energy": 1.17 
		},
		"coords": [
			{
				"x": -1.1934814357,
				"y": -1.0340579776,
				"z": 0.2257122941,
				"element": "C" 
			},
			{
				"x": 0.12086212,
				"y": -0.3822641906,
				"z": 0.5835728548,
				"element": "C" 
			},
			{
				"x": 0.1094566632,
				"y": 0.990551178,
				"z": 0.8913836718,
				"element": "C" 
			},
			{
				"x": -1.0403181761,
				"y": 1.7105177363,
				"z": 0.8692691524,
				"element": "O" 
			},
			{
				"x": 1.2870494639,
				"y": 1.6689239135,
				"z": 1.2333111068,
				"element": "C" 
			},
			{
				"x": 1.156338817,
				"y": 3.5170702543,
				"z": 1.6291289905,
				"element": "Br" 
			},
			{
				"x": 2.5033161536,
				"y": 0.9778484902,
				"z": 1.2724201134,
				"element": "C" 
			},
			{
				"x": 4.0898693826,
				"y": 1.9041104697,
				"z": 1.7354367586,
				"element": "Br" 
			},
			{
				"x": 2.5412153459,
				"y": -0.3940755472,
				"z": 0.9689782086,
				"element": "C" 
			},
			{
				"x": 4.1873948678,
				"y": -1.3361288627,
				"z": 1.0199941398,
				"element": "Br" 
			},
			{
				"x": 1.3496375775,
				"y": -1.0550728512,
				"z": 0.6288456239,
				"element": "C" 
			},
			{
				"x": 1.3950515879,
				"y": -2.9186313818,
				"z": 0.2156177845,
				"element": "Br" 
			},
			{
				"x": -1.0698124878,
				"y": -2.0924561218,
				"z": 0.007521145,
				"element": "H" 
			},
			{
				"x": -1.9140505282,
				"y": -0.9534634565,
				"z": 1.0506810183,
				"element": "H" 
			},
			{
				"x": -1.6385522965,
				"y": -0.5678585658,
				"z": -0.6636008099,
				"element": "H" 
			},
			{
				"x": -1.7781770551,
				"y": 1.1392869132,
				"z": 0.6215279472,
				"element": "H" 
			}
		],
		 "valence_orbital": [ 
			{
				"type": "occ",
				"energy": -0.29302,
				"method": "rhf"
			},
			{
				"type": "occ",
				"energy": -0.28793,
				"method": "rhf"
			},
			{
				"type": "occ",
				"energy": -0.26156,
				"method": "rhf"
			},
			{
				"type": "occ",
				"energy": -0.24827,
				"method": "rhf"
			},
			{
				"type": "occ",
				"energy": -0.23552,
				"method": "rhf"
			},
			{
				"type": "unocc",
				"energy": -0.0534,
				"method": "rhf"
			},
			{
				"type": "unocc",
				"energy": -0.03935,
				"method": "rhf"
			},
			{
				"type": "unocc",
				"energy": -0.02686,
				"method": "rhf"
			},
			{
				"type": "unocc",
				"energy": -0.00184,
				"method": "rhf"
			},
			{
				"type": "unocc",
				"energy": 0.0341,
				"method": "rhf"
			}
		],
		"cosmo_sigma_profile": { 
			"-0.025": 0.0,
			"-0.024": 0.0,
			"-0.023": 0.0,
			"-0.022": 0.0,
			"-0.021": 0.0,
			"-0.02": 0.0,
			"-0.019": 0.0,
			"-0.018": 0.254450716011,
			"-0.017": 0.566382973052,
			"-0.016": 0.894279519407,
			"-0.015": 1.04854040834,
			"-0.014": 1.35659944964,
			"-0.013": 0.89278363093,
			"-0.012": 0.987188262777,
			"-0.011": 1.40569640056,
			"-0.01": 1.62655823008,
			"-0.009": 1.24351769599,
			"-0.008": 2.36889992323,
			"-0.007": 2.16768405731,
			"-0.006": 5.92011863492,
			"-0.005": 8.48067362749,
			"-0.004": 10.5931340369,
			"-0.003": 11.5070647007,
			"-0.002": 15.5362567234,
			"-0.001": 27.2963105261,
			"0.0": 30.3006537632,
			"0.001": 18.900390001,
			"0.002": 20.8069522658,
			"0.003": 25.2000066754,
			"0.004": 32.0438489692,
			"0.005": 8.23515641318,
			"0.006": 1.9099137993,
			"0.007": 2.0098539517,
			"0.008": 1.77208493835,
			"0.009": 2.08351369762,
			"0.01": 1.46580511345,
			"0.011": 0.0,
			"0.012": 0.0,
			"0.013": 0.0,
			"0.014": 0.0,
			"0.015": 0.0,
			"0.016": 0.0,
			"0.017": 0.0,
			"0.018": 0.0,
			"0.019": 0.0,
			"0.02": 0.0,
			"0.021": 0.0,
			"0.022": 0.0,
			"0.023": 0.0,
			"0.024": 0.0,
			"0.025": 0.0
		}
	}
}
