{
	 "smiles": "FC1=C(C=C(I)C=C1)C#N", 
	 "Tm": 345.15, 
	 "num_atms": 13, 
	 "gaussian": { 
		 "optdone": 1, 
		 "sigma_profile": "no", 
		 "theory": "DFT", 
		 "functional": "B3LYP", 
		 "basiset": "6-31G**", 
		 "properties": { 
			 "R2extent": 1521.6021, 
			 "electric_dipole_moment_norm": 4.23092361193, 
			 "electric_quadrupole_moment_norm": 9.98817118746, 
			 "total_energy": -434.499970002, 
			 "HOMO_LUMO_gap": 0.18721, 
			 "cosmo_polarized_energy": -96891.6, 
			 "cosmo_cavitation_energy": 22.65, 
			 "cosmo_dispersion_energy": -17.38, 
			 "cosmo_repulsion_energy": 1.36, 
			 "cosmo_total_nonelectrostatic_energy": 6.63, 
			 "SMD_solvation_energy": 4.9 
		},
		"coords": [
			{
				"x": -1.5126688937,
				"y": -0.7089261271,
				"z": -2.1704555975,
				"element": "F" 
			},
			{
				"x": -0.8914502545,
				"y": -0.0442037978,
				"z": -1.1886226431,
				"element": "C" 
			},
			{
				"x": -0.0177915015,
				"y": -0.7424849153,
				"z": -0.3439259057,
				"element": "C" 
			},
			{
				"x": 0.6341590801,
				"y": -0.0423982781,
				"z": 0.687319454,
				"element": "C" 
			},
			{
				"x": 0.401588105,
				"y": 1.3208708284,
				"z": 0.8489934688,
				"element": "C" 
			},
			{
				"x": 1.3835712367,
				"y": 2.3698030498,
				"z": 2.4006572915,
				"element": "I" 
			},
			{
				"x": -0.4740145607,
				"y": 2.0026221061,
				"z": -0.0035711319,
				"element": "C" 
			},
			{
				"x": -1.123685284,
				"y": 1.3146717412,
				"z": -1.0280148912,
				"element": "C" 
			},
			{
				"x": 0.2036007292,
				"y": -2.1434174037,
				"z": -0.5316667018,
				"element": "C" 
			},
			{
				"x": 0.3940948144,
				"y": -3.2817847151,
				"z": -0.6711852133,
				"element": "N" 
			},
			{
				"x": 1.3099585867,
				"y": -0.5793984501,
				"z": 1.3417529137,
				"element": "H" 
			},
			{
				"x": -0.6519981284,
				"y": 3.063966346,
				"z": 0.1260267774,
				"element": "H" 
			},
			{
				"x": -1.8067639292,
				"y": 1.8193796156,
				"z": -1.7020078211,
				"element": "H" 
			}
		],
		 "valence_orbital": [ 
			{
				"type": "occ",
				"energy": -0.34339,
				"method": "rhf"
			},
			{
				"type": "occ",
				"energy": -0.31228,
				"method": "rhf"
			},
			{
				"type": "occ",
				"energy": -0.28993,
				"method": "rhf"
			},
			{
				"type": "occ",
				"energy": -0.28732,
				"method": "rhf"
			},
			{
				"type": "occ",
				"energy": -0.25898,
				"method": "rhf"
			},
			{
				"type": "unocc",
				"energy": -0.07177,
				"method": "rhf"
			},
			{
				"type": "unocc",
				"energy": -0.05918,
				"method": "rhf"
			},
			{
				"type": "unocc",
				"energy": -0.04189,
				"method": "rhf"
			},
			{
				"type": "unocc",
				"energy": 0.02033,
				"method": "rhf"
			},
			{
				"type": "unocc",
				"energy": 0.032,
				"method": "rhf"
			}
		],
		"cosmo_sigma_profile": { 
			"0.0": 0.0,
			"0.0": 0.0,
			"0.0": 0.0,
			"0.0": 0.0,
			"0.0": 0.0,
			"0.0": 0.0,
			"0.0": 0.0,
			"0.0": 0.0,
			"0.0": 0.0,
			"0.0": 0.0,
			"0.0": 0.0,
			"0.0": 0.0,
			"0.0": 0.0,
			"0.0": 0.0,
			"0.0": 0.0,
			"0.0": 0.0,
			"0.0": 0.0,
			"0.0": 0.0,
			"0.0": 0.0,
			"0.0": 0.0,
			"0.0": 0.0,
			"0.0": 0.0,
			"0.0": 0.0,
			"0.0": 0.0,
			"0.0": 0.0,
			"0.0": 0.0,
			"0.0": 0.0,
			"0.0": 0.0,
			"0.0": 0.0,
			"0.0": 0.0,
			"0.0": 0.0,
			"0.0": 0.0,
			"0.0": 0.0,
			"0.0": 0.0,
			"0.0": 0.0,
			"0.0": 0.0,
			"0.0": 0.0,
			"0.0": 0.0,
			"0.0": 0.0,
			"0.0": 0.0,
			"0.0": 0.0,
			"0.0": 0.0,
			"0.0": 0.0,
			"0.0": 0.0,
			"0.0": 0.0,
			"0.0": 0.0,
			"0.0": 0.0,
			"0.0": 0.0,
			"0.0": 0.0,
			"0.0": 0.0,
			"0.0": 0.0
		}
	}
}
