{
	 "smiles": "CCCCCC1=C(C)C(C(N)=O)=C(N)S1", 
	 "Tm": 403.15, 
	 "num_atms": 33, 
	 "gaussian": { 
		 "optdone": 1, 
		 "sigma_profile": "yes", 
		 "theory": "DFT", 
		 "functional": "B3LYP", 
		 "basiset": "6-31G**", 
		 "properties": { 
			 "R2extent": 6631.5566, 
			 "electric_dipole_moment_norm": 2.37170975459, 
			 "electric_quadrupole_moment_norm": 15.5402306839, 
			 "total_energy": -1012.97005601, 
			 "HOMO_LUMO_gap": 0.17954, 
			 "cosmo_polarized_energy": -12.91, 
			 "cosmo_cavitation_energy": 36.0, 
			 "cosmo_dispersion_energy": -26.38, 
			 "cosmo_repulsion_energy": 2.07, 
			 "cosmo_total_nonelectrostatic_energy": 11.69, 
			 "SMD_solvation_energy": 5.66 
		},
		"coords": [
			{
				"x": 3.1402533087,
				"y": 1.625227271,
				"z": 2.2723420917,
				"element": "C" 
			},
			{
				"x": 3.6708881255,
				"y": 0.4930493916,
				"z": 1.384647573,
				"element": "C" 
			},
			{
				"x": 2.60599026,
				"y": -0.527543259,
				"z": 0.9495613537,
				"element": "C" 
			},
			{
				"x": 1.5201304698,
				"y": 0.0380729922,
				"z": 0.0243827278,
				"element": "C" 
			},
			{
				"x": 0.5136879862,
				"y": -1.0365356062,
				"z": -0.4393411322,
				"element": "C" 
			},
			{
				"x": -0.5789374378,
				"y": -0.5180535512,
				"z": -1.33488585,
				"element": "C" 
			},
			{
				"x": -0.668420672,
				"y": -0.4782217657,
				"z": -2.6977302671,
				"element": "C" 
			},
			{
				"x": 0.4226033425,
				"y": -1.0280528165,
				"z": -3.5838609507,
				"element": "C" 
			},
			{
				"x": -1.8847416592,
				"y": 0.1672294191,
				"z": -3.182891538,
				"element": "C" 
			},
			{
				"x": -2.3302035077,
				"y": 0.4261005827,
				"z": -4.562324773,
				"element": "C" 
			},
			{
				"x": -1.6013393538,
				"y": -0.0857853301,
				"z": -5.6129023167,
				"element": "N" 
			},
			{
				"x": -3.3295609053,
				"y": 1.1199936674,
				"z": -4.8186045268,
				"element": "O" 
			},
			{
				"x": -2.6867511743,
				"y": 0.6208191785,
				"z": -2.1330392482,
				"element": "C" 
			},
			{
				"x": -3.8990919437,
				"y": 1.2303300997,
				"z": -2.223565829,
				"element": "N" 
			},
			{
				"x": -1.9886033832,
				"y": 0.2382888618,
				"z": -0.5802479967,
				"element": "S" 
			},
			{
				"x": 2.4009356074,
				"y": 2.2419455049,
				"z": 1.7513166045,
				"element": "H" 
			},
			{
				"x": 3.9516428997,
				"y": 2.2874601122,
				"z": 2.5917612821,
				"element": "H" 
			},
			{
				"x": 2.6623010901,
				"y": 1.2270630254,
				"z": 3.1751757441,
				"element": "H" 
			},
			{
				"x": 4.4650376249,
				"y": -0.0392067401,
				"z": 1.9237031341,
				"element": "H" 
			},
			{
				"x": 4.1461043328,
				"y": 0.9208172902,
				"z": 0.4911663539,
				"element": "H" 
			},
			{
				"x": 2.13246277,
				"y": -0.9589237078,
				"z": 1.8435949729,
				"element": "H" 
			},
			{
				"x": 3.1053185877,
				"y": -1.36317147,
				"z": 0.4395113525,
				"element": "H" 
			},
			{
				"x": 0.9708761304,
				"y": 0.8422949748,
				"z": 0.5280201165,
				"element": "H" 
			},
			{
				"x": 1.9866332534,
				"y": 0.4943357406,
				"z": -0.858974472,
				"element": "H" 
			},
			{
				"x": 1.0539514408,
				"y": -1.8374382883,
				"z": -0.9576249187,
				"element": "H" 
			},
			{
				"x": 0.0687325436,
				"y": -1.5116832282,
				"z": 0.4452693632,
				"element": "H" 
			},
			{
				"x": 1.2999503345,
				"y": -1.313191672,
				"z": -3.0010289448,
				"element": "H" 
			},
			{
				"x": 0.7475369572,
				"y": -0.2905671413,
				"z": -4.3247284589,
				"element": "H" 
			},
			{
				"x": 0.1009108248,
				"y": -1.9301031622,
				"z": -4.1242120963,
				"element": "H" 
			},
			{
				"x": -2.0571786673,
				"y": 0.0122140818,
				"z": -6.5089499916,
				"element": "H" 
			},
			{
				"x": -1.0123221517,
				"y": -0.8919933479,
				"z": -5.488899805,
				"element": "H" 
			},
			{
				"x": -4.226998926,
				"y": 1.7797015004,
				"z": -1.444710082,
				"element": "H" 
			},
			{
				"x": -4.109098108,
				"y": 1.5363273922,
				"z": -3.1738294723,
				"element": "H" 
			}
		],
		 "valence_orbital": [ 
			{
				"type": "occ",
				"energy": -0.29305,
				"method": "rhf"
			},
			{
				"type": "occ",
				"energy": -0.26326,
				"method": "rhf"
			},
			{
				"type": "occ",
				"energy": -0.24655,
				"method": "rhf"
			},
			{
				"type": "occ",
				"energy": -0.2403,
				"method": "rhf"
			},
			{
				"type": "occ",
				"energy": -0.18519,
				"method": "rhf"
			},
			{
				"type": "unocc",
				"energy": -0.00565,
				"method": "rhf"
			},
			{
				"type": "unocc",
				"energy": 0.0156,
				"method": "rhf"
			},
			{
				"type": "unocc",
				"energy": 0.02431,
				"method": "rhf"
			},
			{
				"type": "unocc",
				"energy": 0.07304,
				"method": "rhf"
			},
			{
				"type": "unocc",
				"energy": 0.0878,
				"method": "rhf"
			}
		],
		"cosmo_sigma_profile": { 
			"-0.025": 0.0,
			"-0.024": 0.0,
			"-0.023": 0.0,
			"-0.022": 0.0,
			"-0.021": 0.0,
			"-0.02": 0.0,
			"-0.019": 0.0,
			"-0.018": 0.0,
			"-0.017": 0.0,
			"-0.016": 0.0,
			"-0.015": 0.0177844764837,
			"-0.014": 0.920559671881,
			"-0.013": 2.30804482881,
			"-0.012": 3.2386328438,
			"-0.011": 3.00409459748,
			"-0.01": 3.99535042232,
			"-0.009": 3.84229433434,
			"-0.008": 5.22127164483,
			"-0.007": 3.04768254544,
			"-0.006": 2.9271443391,
			"-0.005": 6.48615737324,
			"-0.004": 10.3612227329,
			"-0.003": 14.5612679625,
			"-0.002": 32.6845121005,
			"-0.001": 36.4766542824,
			"0.0": 37.1983360004,
			"0.001": 30.0373747832,
			"0.002": 17.5344670029,
			"0.003": 13.0581370918,
			"0.004": 15.1808353055,
			"0.005": 13.944893168,
			"0.006": 7.37540695819,
			"0.007": 2.98893639578,
			"0.008": 2.74832731946,
			"0.009": 2.62690013557,
			"0.01": 2.56343247083,
			"0.011": 1.35788830201,
			"0.012": 2.10510396298,
			"0.013": 2.07723801051,
			"0.014": 2.18342793973,
			"0.015": 1.02330505004,
			"0.016": 0.0,
			"0.017": 0.0,
			"0.018": 0.0,
			"0.019": 0.0,
			"0.02": 0.0,
			"0.021": 0.0,
			"0.022": 0.0,
			"0.023": 0.0,
			"0.024": 0.0,
			"0.025": 0.0
		}
	}
}
