{
	 "smiles": "CC1=NC=CN1C1=C(N)C=C(F)C=C1", 
	 "Tm": 427.15, 
	 "num_atms": 24, 
	 "gaussian": { 
		 "optdone": 1, 
		 "sigma_profile": "yes", 
		 "theory": "DFT", 
		 "functional": "B3LYP", 
		 "basiset": "6-31G**", 
		 "properties": { 
			 "R2extent": 3497.7485, 
			 "electric_dipole_moment_norm": 2.30782762788, 
			 "electric_quadrupole_moment_norm": 14.0878120924, 
			 "total_energy": -651.182532528, 
			 "HOMO_LUMO_gap": 0.20268, 
			 "cosmo_polarized_energy": -12.76, 
			 "cosmo_cavitation_energy": 28.56, 
			 "cosmo_dispersion_energy": -19.93, 
			 "cosmo_repulsion_energy": 1.54, 
			 "cosmo_total_nonelectrostatic_energy": 10.18, 
			 "SMD_solvation_energy": 4.41 
		},
		"coords": [
			{
				"x": 0.2405102616,
				"y": -0.0657418495,
				"z": 1.5223340466,
				"element": "C" 
			},
			{
				"x": 1.0200682049,
				"y": 0.9172907146,
				"z": 0.7096052146,
				"element": "C" 
			},
			{
				"x": 1.7789740545,
				"y": 1.8788876068,
				"z": 1.1951209496,
				"element": "N" 
			},
			{
				"x": 2.2943172182,
				"y": 2.5426002968,
				"z": 0.1023177416,
				"element": "C" 
			},
			{
				"x": 1.8437040516,
				"y": 1.9818554845,
				"z": -1.0621070818,
				"element": "C" 
			},
			{
				"x": 1.0202579527,
				"y": 0.9294820231,
				"z": -0.6744642083,
				"element": "N" 
			},
			{
				"x": 0.3029906858,
				"y": 0.0526965883,
				"z": -1.5471478179,
				"element": "C" 
			},
			{
				"x": -0.8844058267,
				"y": 0.5148835011,
				"z": -2.1640961435,
				"element": "C" 
			},
			{
				"x": -1.3116977871,
				"y": 1.817668769,
				"z": -1.9887209133,
				"element": "N" 
			},
			{
				"x": -1.587412984,
				"y": -0.3708506284,
				"z": -2.9992429199,
				"element": "C" 
			},
			{
				"x": -1.1050478589,
				"y": -1.6561381671,
				"z": -3.1931672821,
				"element": "C" 
			},
			{
				"x": -1.8037299518,
				"y": -2.4834928267,
				"z": -3.996946419,
				"element": "F" 
			},
			{
				"x": 0.0623955791,
				"y": -2.1253396313,
				"z": -2.5986249883,
				"element": "C" 
			},
			{
				"x": 0.7608595213,
				"y": -1.2455079646,
				"z": -1.7745902962,
				"element": "C" 
			},
			{
				"x": 0.5856096741,
				"y": -1.0943607598,
				"z": 1.3703673116,
				"element": "H" 
			},
			{
				"x": -0.827919299,
				"y": -0.0441439427,
				"z": 1.2793701423,
				"element": "H" 
			},
			{
				"x": 0.36643172,
				"y": 0.1904409238,
				"z": 2.5750751348,
				"element": "H" 
			},
			{
				"x": 2.9630552766,
				"y": 3.3845102113,
				"z": 0.2185771519,
				"element": "H" 
			},
			{
				"x": 2.0179735243,
				"y": 2.201883446,
				"z": -2.1039746476,
				"element": "H" 
			},
			{
				"x": -0.9199351932,
				"y": 2.3187859505,
				"z": -1.2043593024,
				"element": "H" 
			},
			{
				"x": -2.2891268171,
				"y": 2.0023792462,
				"z": -2.1561680978,
				"element": "H" 
			},
			{
				"x": -2.4998930662,
				"y": -0.0626608508,
				"z": -3.4988378569,
				"element": "H" 
			},
			{
				"x": 0.4024660986,
				"y": -3.1368943034,
				"z": -2.7841510606,
				"element": "H" 
			},
			{
				"x": 1.6808549605,
				"y": -1.5603338378,
				"z": -1.2920686574,
				"element": "H" 
			}
		],
		 "valence_orbital": [ 
			{
				"type": "occ",
				"energy": -0.27442,
				"method": "rhf"
			},
			{
				"type": "occ",
				"energy": -0.26474,
				"method": "rhf"
			},
			{
				"type": "occ",
				"energy": -0.24983,
				"method": "rhf"
			},
			{
				"type": "occ",
				"energy": -0.21915,
				"method": "rhf"
			},
			{
				"type": "occ",
				"energy": -0.21815,
				"method": "rhf"
			},
			{
				"type": "unocc",
				"energy": -0.01547,
				"method": "rhf"
			},
			{
				"type": "unocc",
				"energy": 0.00104,
				"method": "rhf"
			},
			{
				"type": "unocc",
				"energy": 0.03009,
				"method": "rhf"
			},
			{
				"type": "unocc",
				"energy": 0.07145,
				"method": "rhf"
			},
			{
				"type": "unocc",
				"energy": 0.07801,
				"method": "rhf"
			}
		],
		"cosmo_sigma_profile": { 
			"-0.025": 0.0,
			"-0.024": 0.0,
			"-0.023": 0.0,
			"-0.022": 0.0,
			"-0.021": 0.0,
			"-0.02": 0.0,
			"-0.019": 0.0,
			"-0.018": 0.0,
			"-0.017": 0.0,
			"-0.016": 0.0,
			"-0.015": 0.0,
			"-0.014": 0.328400037525,
			"-0.013": 1.12631766179,
			"-0.012": 2.10137468727,
			"-0.011": 2.33454667961,
			"-0.01": 2.43773391767,
			"-0.009": 2.50513290773,
			"-0.008": 4.54265246417,
			"-0.007": 6.80666258554,
			"-0.006": 10.2528813687,
			"-0.005": 12.9645095093,
			"-0.004": 16.6205138152,
			"-0.003": 15.2752573131,
			"-0.002": 14.1456190069,
			"-0.001": 16.3950958486,
			"0.0": 15.4168991653,
			"0.001": 16.733074746,
			"0.002": 14.0956249083,
			"0.003": 17.9384805801,
			"0.004": 20.9273345202,
			"0.005": 11.5552238511,
			"0.006": 4.43900482429,
			"0.007": 2.97553187804,
			"0.008": 1.79535992268,
			"0.009": 2.09983087969,
			"0.01": 2.63351498262,
			"0.011": 2.00647480544,
			"0.012": 1.15340241344,
			"0.013": 1.37658794466,
			"0.014": 0.887522950486,
			"0.015": 0.752052317327,
			"0.016": 1.45012568965,
			"0.017": 0.989295588008,
			"0.018": 0.752604483905,
			"0.019": 0.185130139727,
			"0.02": 0.0,
			"0.021": 0.0,
			"0.022": 0.0,
			"0.023": 0.0,
			"0.024": 0.0,
			"0.025": 0.0
		}
	}
}
