{
	 "smiles": "CC(=O)C1=C(C)C(C)(O)NC1=O", 
	 "Tm": 446.15, 
	 "num_atms": 23, 
	 "gaussian": { 
		 "optdone": 1, 
		 "sigma_profile": "yes", 
		 "theory": "DFT", 
		 "functional": "B3LYP", 
		 "basiset": "6-31G**", 
		 "properties": { 
			 "R2extent": 2104.2125, 
			 "electric_dipole_moment_norm": 2.89799485334, 
			 "electric_quadrupole_moment_norm": 9.62488915624, 
			 "total_energy": -591.915271777, 
			 "HOMO_LUMO_gap": 0.17545, 
			 "cosmo_polarized_energy": -15.31, 
			 "cosmo_cavitation_energy": 26.36, 
			 "cosmo_dispersion_energy": -18.75, 
			 "cosmo_repulsion_energy": 1.5, 
			 "cosmo_total_nonelectrostatic_energy": 9.11, 
			 "SMD_solvation_energy": 5.62 
		},
		"coords": [
			{
				"x": -1.9534193759,
				"y": 1.8474121152,
				"z": 2.2985279278,
				"element": "C" 
			},
			{
				"x": -1.320563657,
				"y": 0.492492364,
				"z": 2.0760488851,
				"element": "C" 
			},
			{
				"x": -1.479420942,
				"y": -0.422251612,
				"z": 2.8748619159,
				"element": "O" 
			},
			{
				"x": -0.500720734,
				"y": 0.2856796757,
				"z": 0.8449248551,
				"element": "C" 
			},
			{
				"x": -0.0185085298,
				"y": -0.8942132597,
				"z": 0.3893122144,
				"element": "C" 
			},
			{
				"x": -0.1701724345,
				"y": -2.2721186567,
				"z": 0.9351204787,
				"element": "C" 
			},
			{
				"x": 0.7588883938,
				"y": -0.6803266934,
				"z": -0.9182424155,
				"element": "C" 
			},
			{
				"x": 2.2372410796,
				"y": -1.0593742581,
				"z": -0.7986175773,
				"element": "C" 
			},
			{
				"x": 0.2399989062,
				"y": -1.4763803507,
				"z": -1.9745285572,
				"element": "O" 
			},
			{
				"x": 0.5564800171,
				"y": 0.7365211335,
				"z": -1.149306719,
				"element": "N" 
			},
			{
				"x": -0.084616513,
				"y": 1.3753091516,
				"z": -0.1048075797,
				"element": "C" 
			},
			{
				"x": -0.2520241524,
				"y": 2.5806907814,
				"z": -0.0109197938,
				"element": "O" 
			},
			{
				"x": -2.4798830225,
				"y": 1.8371877161,
				"z": 3.2536983904,
				"element": "H" 
			},
			{
				"x": -2.6525166514,
				"y": 2.0780909396,
				"z": 1.4868238408,
				"element": "H" 
			},
			{
				"x": -1.1984663412,
				"y": 2.6373393928,
				"z": 2.268575216,
				"element": "H" 
			},
			{
				"x": 0.7342329312,
				"y": -2.5583225298,
				"z": 1.4888411919,
				"element": "H" 
			},
			{
				"x": -1.0047279682,
				"y": -2.3306420338,
				"z": 1.6319320717,
				"element": "H" 
			},
			{
				"x": -0.2857412747,
				"y": -2.9847838138,
				"z": 0.1123158966,
				"element": "H" 
			},
			{
				"x": 2.7145589043,
				"y": -0.4995915752,
				"z": 0.0091186769,
				"element": "H" 
			},
			{
				"x": 2.3385755521,
				"y": -2.1297364162,
				"z": -0.604704417,
				"element": "H" 
			},
			{
				"x": 2.7449206258,
				"y": -0.8369023803,
				"z": -1.7417941246,
				"element": "H" 
			},
			{
				"x": -0.6572291985,
				"y": -1.1610812851,
				"z": -2.1563081558,
				"element": "H" 
			},
			{
				"x": 1.1082143849,
				"y": 1.266101595,
				"z": -1.8092722214,
				"element": "H" 
			}
		],
		 "valence_orbital": [ 
			{
				"type": "occ",
				"energy": -0.31018,
				"method": "rhf"
			},
			{
				"type": "occ",
				"energy": -0.27915,
				"method": "rhf"
			},
			{
				"type": "occ",
				"energy": -0.27071,
				"method": "rhf"
			},
			{
				"type": "occ",
				"energy": -0.26046,
				"method": "rhf"
			},
			{
				"type": "occ",
				"energy": -0.246,
				"method": "rhf"
			},
			{
				"type": "unocc",
				"energy": -0.07055,
				"method": "rhf"
			},
			{
				"type": "unocc",
				"energy": 0.00121,
				"method": "rhf"
			},
			{
				"type": "unocc",
				"energy": 0.0705,
				"method": "rhf"
			},
			{
				"type": "unocc",
				"energy": 0.08883,
				"method": "rhf"
			},
			{
				"type": "unocc",
				"energy": 0.10057,
				"method": "rhf"
			}
		],
		"cosmo_sigma_profile": { 
			"-0.025": 0.0,
			"-0.024": 0.0,
			"-0.023": 0.0,
			"-0.022": 0.0,
			"-0.021": 0.0,
			"-0.02": 0.0,
			"-0.019": 0.0,
			"-0.018": 0.0,
			"-0.017": 0.0906776621401,
			"-0.016": 0.722141025628,
			"-0.015": 0.877831919442,
			"-0.014": 2.27771327112,
			"-0.013": 1.94551363753,
			"-0.012": 1.79627970407,
			"-0.011": 1.63091451491,
			"-0.01": 1.89520455041,
			"-0.009": 1.57124508276,
			"-0.008": 2.2131946751,
			"-0.007": 2.32054187702,
			"-0.006": 5.37593023267,
			"-0.005": 13.2962146509,
			"-0.004": 19.0447997102,
			"-0.003": 21.0962536611,
			"-0.002": 21.2902859199,
			"-0.001": 24.314883059,
			"0.0": 16.6260371104,
			"0.001": 6.37068881974,
			"0.002": 4.96181149022,
			"0.003": 5.9389414571,
			"0.004": 5.4407489552,
			"0.005": 3.99817929393,
			"0.006": 4.401018611,
			"0.007": 4.77085491994,
			"0.008": 3.73027034877,
			"0.009": 4.52663184797,
			"0.01": 4.16910400657,
			"0.011": 5.62112235037,
			"0.012": 6.92172734886,
			"0.013": 6.05070892354,
			"0.014": 1.70989517484,
			"0.015": 0.0120213065879,
			"0.016": 0.0,
			"0.017": 0.0,
			"0.018": 0.0,
			"0.019": 0.0,
			"0.02": 0.0,
			"0.021": 0.0,
			"0.022": 0.0,
			"0.023": 0.0,
			"0.024": 0.0,
			"0.025": 0.0
		}
	}
}
