{
	 "smiles": "FC1=CC=CC=C1F", 
	 "Tm": 239.15, 
	 "num_atms": 12, 
	 "gaussian": { 
		 "optdone": 1, 
		 "sigma_profile": "yes", 
		 "theory": "DFT", 
		 "functional": "B3LYP", 
		 "basiset": "6-31G**", 
		 "properties": { 
			 "R2extent": 1190.0075, 
			 "electric_dipole_moment_norm": 2.25274251969, 
			 "electric_quadrupole_moment_norm": 5.25119249123, 
			 "total_energy": -430.70868276, 
			 "HOMO_LUMO_gap": 0.23257, 
			 "cosmo_polarized_energy": -3.39, 
			 "cosmo_cavitation_energy": 17.08, 
			 "cosmo_dispersion_energy": -12.56, 
			 "cosmo_repulsion_energy": 1.0, 
			 "cosmo_total_nonelectrostatic_energy": 5.52, 
			 "SMD_solvation_energy": 4.07 
		},
		"coords": [
			{
				"x": 0.43970355,
				"y": -1.2000014734,
				"z": 1.7913948285,
				"element": "F" 
			},
			{
				"x": -0.3165508597,
				"y": -0.2907138197,
				"z": 1.1515684801,
				"element": "C" 
			},
			{
				"x": -0.9386134909,
				"y": -0.6094876189,
				"z": -0.0484110298,
				"element": "C" 
			},
			{
				"x": -1.7186429438,
				"y": 0.3540503298,
				"z": -0.6921611059,
				"element": "C" 
			},
			{
				"x": -1.8696727851,
				"y": 1.6244103039,
				"z": -0.1323178948,
				"element": "C" 
			},
			{
				"x": -1.2416840342,
				"y": 1.9396169305,
				"z": 1.0749702268,
				"element": "C" 
			},
			{
				"x": -0.4673962955,
				"y": 0.9778888193,
				"z": 1.7106641876,
				"element": "C" 
			},
			{
				"x": 0.147688988,
				"y": 1.2556941843,
				"z": 2.8736778784,
				"element": "F" 
			},
			{
				"x": -0.8020104086,
				"y": -1.6048526505,
				"z": -0.4576927916,
				"element": "H" 
			},
			{
				"x": -2.2060856954,
				"y": 0.1082530256,
				"z": -1.6299614607,
				"element": "H" 
			},
			{
				"x": -2.4753972368,
				"y": 2.3735757444,
				"z": -0.6316511393,
				"element": "H" 
			},
			{
				"x": -1.3396387881,
				"y": 2.9171662247,
				"z": 1.5351198209,
				"element": "H" 
			}
		],
		 "valence_orbital": [ 
			{
				"type": "occ",
				"energy": -0.37598,
				"method": "rhf"
			},
			{
				"type": "occ",
				"energy": -0.35974,
				"method": "rhf"
			},
			{
				"type": "occ",
				"energy": -0.35537,
				"method": "rhf"
			},
			{
				"type": "occ",
				"energy": -0.26277,
				"method": "rhf"
			},
			{
				"type": "occ",
				"energy": -0.24651,
				"method": "rhf"
			},
			{
				"type": "unocc",
				"energy": -0.01394,
				"method": "rhf"
			},
			{
				"type": "unocc",
				"energy": -0.00378,
				"method": "rhf"
			},
			{
				"type": "unocc",
				"energy": 0.06638,
				"method": "rhf"
			},
			{
				"type": "unocc",
				"energy": 0.13005,
				"method": "rhf"
			},
			{
				"type": "unocc",
				"energy": 0.13611,
				"method": "rhf"
			}
		],
		"cosmo_sigma_profile": { 
			"-0.025": 0.0,
			"-0.024": 0.0,
			"-0.023": 0.0,
			"-0.022": 0.0,
			"-0.021": 0.0,
			"-0.02": 0.0,
			"-0.019": 0.0,
			"-0.018": 0.0,
			"-0.017": 0.0,
			"-0.016": 0.0,
			"-0.015": 0.0,
			"-0.014": 0.0,
			"-0.013": 0.0,
			"-0.012": 0.0,
			"-0.011": 0.0,
			"-0.01": 0.0,
			"-0.009": 0.0,
			"-0.008": 1.40017952521,
			"-0.007": 5.31558271635,
			"-0.006": 7.74899216233,
			"-0.005": 9.44578652767,
			"-0.004": 6.93809496235,
			"-0.003": 5.81420127544,
			"-0.002": 6.33049868417,
			"-0.001": 8.9213912533,
			"0.0": 13.674792723,
			"0.001": 13.3501962154,
			"0.002": 12.6509339341,
			"0.003": 17.8424599353,
			"0.004": 26.2439169307,
			"0.005": 2.2224627836,
			"0.006": 0.0,
			"0.007": 0.0,
			"0.008": 0.0,
			"0.009": 0.0,
			"0.01": 0.0,
			"0.011": 0.0,
			"0.012": 0.0,
			"0.013": 0.0,
			"0.014": 0.0,
			"0.015": 0.0,
			"0.016": 0.0,
			"0.017": 0.0,
			"0.018": 0.0,
			"0.019": 0.0,
			"0.02": 0.0,
			"0.021": 0.0,
			"0.022": 0.0,
			"0.023": 0.0,
			"0.024": 0.0,
			"0.025": 0.0
		}
	}
}
