{
	 "smiles": "NC(=O)COC1=CC=C(O)C=C1", 
	 "Tm": 428.15, 
	 "num_atms": 21, 
	 "gaussian": { 
		 "optdone": 1, 
		 "sigma_profile": "yes", 
		 "theory": "DFT", 
		 "functional": "B3LYP", 
		 "basiset": "6-31G**", 
		 "properties": { 
			 "R2extent": 3219.0041, 
			 "electric_dipole_moment_norm": 5.39676148259, 
			 "electric_quadrupole_moment_norm": 15.5907826651, 
			 "total_energy": -590.687088145, 
			 "HOMO_LUMO_gap": 0.19693, 
			 "cosmo_polarized_energy": -23.04, 
			 "cosmo_cavitation_energy": 25.98, 
			 "cosmo_dispersion_energy": -19.24, 
			 "cosmo_repulsion_energy": 1.57, 
			 "cosmo_total_nonelectrostatic_energy": 8.31, 
			 "SMD_solvation_energy": 5.94 
		},
		"coords": [
			{
				"x": -2.868825773,
				"y": -3.9505650136,
				"z": -1.3569231706,
				"element": "N" 
			},
			{
				"x": -2.2927641921,
				"y": -3.3438876765,
				"z": -0.270983337,
				"element": "C" 
			},
			{
				"x": -2.4732319817,
				"y": -3.7126333324,
				"z": 0.8731909309,
				"element": "O" 
			},
			{
				"x": -1.3194008717,
				"y": -2.2180922952,
				"z": -0.6452816163,
				"element": "C" 
			},
			{
				"x": -1.2625754648,
				"y": -1.3159033687,
				"z": 0.4300970806,
				"element": "O" 
			},
			{
				"x": -0.3570291869,
				"y": -0.2873459385,
				"z": 0.3636371777,
				"element": "C" 
			},
			{
				"x": -0.3125321403,
				"y": 0.5510134499,
				"z": 1.4880700321,
				"element": "C" 
			},
			{
				"x": 0.5628464284,
				"y": 1.6259619643,
				"z": 1.5323761891,
				"element": "C" 
			},
			{
				"x": 1.4153368104,
				"y": 1.8851828199,
				"z": 0.4497550244,
				"element": "C" 
			},
			{
				"x": 2.2575740826,
				"y": 2.9614200083,
				"z": 0.5536137573,
				"element": "O" 
			},
			{
				"x": 1.372886102,
				"y": 1.054745134,
				"z": -0.6684244536,
				"element": "C" 
			},
			{
				"x": 0.4889021453,
				"y": -0.0309491802,
				"z": -0.7172055931,
				"element": "C" 
			},
			{
				"x": -2.887977721,
				"y": -3.5137842434,
				"z": -2.2647909173,
				"element": "H" 
			},
			{
				"x": -3.5375207101,
				"y": -4.6833481861,
				"z": -1.1703284605,
				"element": "H" 
			},
			{
				"x": -1.6359729287,
				"y": -1.7151363066,
				"z": -1.5731076663,
				"element": "H" 
			},
			{
				"x": -0.3354938755,
				"y": -2.6746659043,
				"z": -0.8380929237,
				"element": "H" 
			},
			{
				"x": -0.9757115228,
				"y": 0.3348593904,
				"z": 2.3190650178,
				"element": "H" 
			},
			{
				"x": 0.6033507596,
				"y": 2.2768404957,
				"z": 2.399494158,
				"element": "H" 
			},
			{
				"x": 2.7895832446,
				"y": 3.0229980073,
				"z": -0.2498163453,
				"element": "H" 
			},
			{
				"x": 2.0288014588,
				"y": 1.2461777427,
				"z": -1.5153048886,
				"element": "H" 
			},
			{
				"x": 0.4772553367,
				"y": -0.6560875669,
				"z": -1.6023399955,
				"element": "H" 
			}
		],
		 "valence_orbital": [ 
			{
				"type": "occ",
				"energy": -0.29605,
				"method": "rhf"
			},
			{
				"type": "occ",
				"energy": -0.27573,
				"method": "rhf"
			},
			{
				"type": "occ",
				"energy": -0.25401,
				"method": "rhf"
			},
			{
				"type": "occ",
				"energy": -0.25179,
				"method": "rhf"
			},
			{
				"type": "occ",
				"energy": -0.20066,
				"method": "rhf"
			},
			{
				"type": "unocc",
				"energy": -0.00373,
				"method": "rhf"
			},
			{
				"type": "unocc",
				"energy": 0.01751,
				"method": "rhf"
			},
			{
				"type": "unocc",
				"energy": 0.02827,
				"method": "rhf"
			},
			{
				"type": "unocc",
				"energy": 0.06398,
				"method": "rhf"
			},
			{
				"type": "unocc",
				"energy": 0.07195,
				"method": "rhf"
			}
		],
		"cosmo_sigma_profile": { 
			"-0.025": 0.0,
			"-0.024": 0.0,
			"-0.023": 0.0,
			"-0.022": 0.0,
			"-0.021": 0.0,
			"-0.02": 0.0,
			"-0.019": 0.0,
			"-0.018": 0.100570824981,
			"-0.017": 1.00693779165,
			"-0.016": 1.02290741465,
			"-0.015": 1.90225879426,
			"-0.014": 3.26426352517,
			"-0.013": 3.84817766832,
			"-0.012": 4.06410590717,
			"-0.011": 3.32968325293,
			"-0.01": 3.88528584315,
			"-0.009": 3.60020550429,
			"-0.008": 3.21202964132,
			"-0.007": 10.4392904884,
			"-0.006": 12.1153236067,
			"-0.005": 11.1668735402,
			"-0.004": 10.4826246671,
			"-0.003": 8.22327913665,
			"-0.002": 8.5059198846,
			"-0.001": 6.95285813714,
			"0.0": 6.79392702685,
			"0.001": 7.96908579772,
			"0.002": 10.0191112591,
			"0.003": 10.4943548679,
			"0.004": 15.3802122439,
			"0.005": 16.8005839961,
			"0.006": 6.93336014446,
			"0.007": 3.8306814528,
			"0.008": 2.68895708171,
			"0.009": 3.4491609671,
			"0.01": 3.60154058755,
			"0.011": 4.35052889687,
			"0.012": 3.90442469201,
			"0.013": 5.49699143531,
			"0.014": 4.33788881763,
			"0.015": 1.75138179308,
			"0.016": 0.932177027214,
			"0.017": 0.0,
			"0.018": 0.0,
			"0.019": 0.0,
			"0.02": 0.0,
			"0.021": 0.0,
			"0.022": 0.0,
			"0.023": 0.0,
			"0.024": 0.0,
			"0.025": 0.0
		}
	}
}
