{
	 "smiles": "ClC1=CC(=O)C=CC1=O", 
	 "Tm": 327.65, 
	 "num_atms": 12, 
	 "gaussian": { 
		 "optdone": 1, 
		 "sigma_profile": "yes", 
		 "theory": "DFT", 
		 "functional": "B3LYP", 
		 "basiset": "6-31G**", 
		 "properties": { 
			 "R2extent": 2192.9083, 
			 "electric_dipole_moment_norm": 1.27615589173, 
			 "electric_quadrupole_moment_norm": 13.7087113815, 
			 "total_energy": -841.038520107, 
			 "HOMO_LUMO_gap": 0.14229, 
			 "cosmo_polarized_energy": -9.11, 
			 "cosmo_cavitation_energy": 19.27, 
			 "cosmo_dispersion_energy": -14.3, 
			 "cosmo_repulsion_energy": 1.17, 
			 "cosmo_total_nonelectrostatic_energy": 6.14, 
			 "SMD_solvation_energy": 4.57 
		},
		"coords": [
			{
				"x": -2.5957746425,
				"y": 1.8185778797,
				"z": 0.6444668554,
				"element": "Cl" 
			},
			{
				"x": -1.2653433975,
				"y": 1.5525918999,
				"z": -0.4353633938,
				"element": "C" 
			},
			{
				"x": -1.4427105109,
				"y": 1.1116187481,
				"z": -1.6931619806,
				"element": "C" 
			},
			{
				"x": -0.2891343835,
				"y": 0.8912563443,
				"z": -2.5995418719,
				"element": "C" 
			},
			{
				"x": -0.4544105241,
				"y": 0.4895109948,
				"z": -3.7443225498,
				"element": "O" 
			},
			{
				"x": 1.0684258056,
				"y": 1.1755142828,
				"z": -2.0667269671,
				"element": "C" 
			},
			{
				"x": 1.2437599679,
				"y": 1.6153923283,
				"z": -0.8116200483,
				"element": "C" 
			},
			{
				"x": 0.1043846459,
				"y": 1.8434644718,
				"z": 0.1144102158,
				"element": "C" 
			},
			{
				"x": 0.2787590622,
				"y": 2.2434865327,
				"z": 1.2521996116,
				"element": "O" 
			},
			{
				"x": -2.4246716642,
				"y": 0.8982850525,
				"z": -2.1013105985,
				"element": "H" 
			},
			{
				"x": 1.8942227036,
				"y": 1.0057747726,
				"z": -2.7508463359,
				"element": "H" 
			},
			{
				"x": 2.2224929376,
				"y": 1.8316266925,
				"z": -0.3942829369,
				"element": "H" 
			}
		],
		 "valence_orbital": [ 
			{
				"type": "occ",
				"energy": -0.33411,
				"method": "rhf"
			},
			{
				"type": "occ",
				"energy": -0.31485,
				"method": "rhf"
			},
			{
				"type": "occ",
				"energy": -0.29126,
				"method": "rhf"
			},
			{
				"type": "occ",
				"energy": -0.29033,
				"method": "rhf"
			},
			{
				"type": "occ",
				"energy": -0.28152,
				"method": "rhf"
			},
			{
				"type": "unocc",
				"energy": -0.13923,
				"method": "rhf"
			},
			{
				"type": "unocc",
				"energy": -0.0369,
				"method": "rhf"
			},
			{
				"type": "unocc",
				"energy": 0.00119,
				"method": "rhf"
			},
			{
				"type": "unocc",
				"energy": 0.01442,
				"method": "rhf"
			},
			{
				"type": "unocc",
				"energy": 0.09572,
				"method": "rhf"
			}
		],
		"cosmo_sigma_profile": { 
			"-0.025": 0.0,
			"-0.024": 0.0,
			"-0.023": 0.0,
			"-0.022": 0.0,
			"-0.021": 0.0,
			"-0.02": 0.0,
			"-0.019": 0.0,
			"-0.018": 0.0,
			"-0.017": 0.0,
			"-0.016": 0.0,
			"-0.015": 0.0,
			"-0.014": 0.0,
			"-0.013": 0.0,
			"-0.012": 0.0,
			"-0.011": 0.0,
			"-0.01": 0.577999857301,
			"-0.009": 4.50127757782,
			"-0.008": 5.08958891869,
			"-0.007": 7.86376464152,
			"-0.006": 8.41675986474,
			"-0.005": 9.49690482202,
			"-0.004": 10.6951627149,
			"-0.003": 14.7330103149,
			"-0.002": 12.7834165903,
			"-0.001": 11.0420114266,
			"0.0": 9.09629885967,
			"0.001": 6.12988521043,
			"0.002": 8.68979791942,
			"0.003": 11.6839716234,
			"0.004": 3.33134838012,
			"0.005": 2.27728994807,
			"0.006": 4.62404451328,
			"0.007": 3.24709728868,
			"0.008": 3.97594858916,
			"0.009": 6.69006849934,
			"0.01": 8.46427837989,
			"0.011": 4.45984710628,
			"0.012": 0.345302576393,
			"0.013": 0.0,
			"0.014": 0.0,
			"0.015": 0.0,
			"0.016": 0.0,
			"0.017": 0.0,
			"0.018": 0.0,
			"0.019": 0.0,
			"0.02": 0.0,
			"0.021": 0.0,
			"0.022": 0.0,
			"0.023": 0.0,
			"0.024": 0.0,
			"0.025": 0.0
		}
	}
}
