{
	 "smiles": "CC1=NN(C(C)=C1NC(=O)OCC(F)(F)F)C1=CC=C(C)C=C1", 
	 "Tm": 419.15, 
	 "num_atms": 39, 
	 "gaussian": { 
		 "optdone": 1, 
		 "sigma_profile": "yes", 
		 "theory": "DFT", 
		 "functional": "B3LYP", 
		 "basiset": "6-31G**", 
		 "properties": { 
			 "R2extent": 10526.7423, 
			 "electric_dipole_moment_norm": 4.1062262943, 
			 "electric_quadrupole_moment_norm": 7.30308094848, 
			 "total_energy": -1195.48678856, 
			 "HOMO_LUMO_gap": 0.19994, 
			 "cosmo_polarized_energy": -14.71, 
			 "cosmo_cavitation_energy": 45.34, 
			 "cosmo_dispersion_energy": -29.73, 
			 "cosmo_repulsion_energy": 2.26, 
			 "cosmo_total_nonelectrostatic_energy": 17.86, 
			 "SMD_solvation_energy": 9.39 
		},
		"coords": [
			{
				"x": 1.9760610056,
				"y": 1.0755652365,
				"z": -3.9096874755,
				"element": "C" 
			},
			{
				"x": 1.7791582305,
				"y": 1.0856032916,
				"z": -2.426207815,
				"element": "C" 
			},
			{
				"x": 1.1219262092,
				"y": 2.0697849402,
				"z": -1.8251314108,
				"element": "N" 
			},
			{
				"x": 1.1161020562,
				"y": 1.7516548586,
				"z": -0.4959351672,
				"element": "N" 
			},
			{
				"x": 1.7944836973,
				"y": 0.5895818979,
				"z": -0.2359664985,
				"element": "C" 
			},
			{
				"x": 2.0400585962,
				"y": 0.0007965623,
				"z": 1.1136277334,
				"element": "C" 
			},
			{
				"x": 2.2209148232,
				"y": 0.1311450554,
				"z": -1.4728530092,
				"element": "C" 
			},
			{
				"x": 2.984763823,
				"y": -1.0305466658,
				"z": -1.7284374627,
				"element": "N" 
			},
			{
				"x": 2.5856709119,
				"y": -2.3336932618,
				"z": -1.6185141051,
				"element": "C" 
			},
			{
				"x": 3.2593718701,
				"y": -3.2872858824,
				"z": -1.9545929622,
				"element": "O" 
			},
			{
				"x": 1.3445042296,
				"y": -2.4237253774,
				"z": -1.042154628,
				"element": "O" 
			},
			{
				"x": 0.7868231254,
				"y": -3.7301590601,
				"z": -0.9950299145,
				"element": "C" 
			},
			{
				"x": -0.2951278127,
				"y": -3.861198441,
				"z": -2.0534697705,
				"element": "C" 
			},
			{
				"x": -0.8048685131,
				"y": -5.1116620609,
				"z": -2.0186880061,
				"element": "F" 
			},
			{
				"x": -1.3069994331,
				"y": -2.9971843713,
				"z": -1.8482312726,
				"element": "F" 
			},
			{
				"x": 0.1915492605,
				"y": -3.6378637851,
				"z": -3.2878227332,
				"element": "F" 
			},
			{
				"x": 0.4847783788,
				"y": 2.6449905854,
				"z": 0.4131370411,
				"element": "C" 
			},
			{
				"x": 0.6001163814,
				"y": 4.0238325938,
				"z": 0.2012267488,
				"element": "C" 
			},
			{
				"x": -0.0237984962,
				"y": 4.9107523697,
				"z": 1.0722131431,
				"element": "C" 
			},
			{
				"x": -0.7632697161,
				"y": 4.4573428862,
				"z": 2.1752509535,
				"element": "C" 
			},
			{
				"x": -1.4049791528,
				"y": 5.4327790394,
				"z": 3.1331536158,
				"element": "C" 
			},
			{
				"x": -0.8750883765,
				"y": 3.0752477218,
				"z": 2.3625602464,
				"element": "C" 
			},
			{
				"x": -0.2696951609,
				"y": 2.1708379225,
				"z": 1.4893409721,
				"element": "C" 
			},
			{
				"x": 1.4368245236,
				"y": 1.9123787254,
				"z": -4.357994018,
				"element": "H" 
			},
			{
				"x": 3.0349914206,
				"y": 1.1676801422,
				"z": -4.1801741013,
				"element": "H" 
			},
			{
				"x": 1.6074788735,
				"y": 0.1436664289,
				"z": -4.3517929283,
				"element": "H" 
			},
			{
				"x": 1.2255705584,
				"y": -0.6602797483,
				"z": 1.430618198,
				"element": "H" 
			},
			{
				"x": 2.9505743726,
				"y": -0.6034831489,
				"z": 1.0755927463,
				"element": "H" 
			},
			{
				"x": 2.1650533256,
				"y": 0.7742903971,
				"z": 1.8757174981,
				"element": "H" 
			},
			{
				"x": 3.8839332266,
				"y": -0.9388939098,
				"z": -2.1808864374,
				"element": "H" 
			},
			{
				"x": 0.3329105398,
				"y": -3.8702231141,
				"z": -0.011707722,
				"element": "H" 
			},
			{
				"x": 1.5554987379,
				"y": -4.4838510891,
				"z": -1.1746784596,
				"element": "H" 
			},
			{
				"x": 1.166087507,
				"y": 4.3781982273,
				"z": -0.6521402944,
				"element": "H" 
			},
			{
				"x": 0.0697071251,
				"y": 5.9792589621,
				"z": 0.8945873629,
				"element": "H" 
			},
			{
				"x": -1.8488718418,
				"y": 6.2812745783,
				"z": 2.6026379389,
				"element": "H" 
			},
			{
				"x": -0.6690503112,
				"y": 5.8415612638,
				"z": 3.8368845391,
				"element": "H" 
			},
			{
				"x": -2.1917341896,
				"y": 4.9547298979,
				"z": 3.7236716892,
				"element": "H" 
			},
			{
				"x": -1.461500661,
				"y": 2.6934471514,
				"z": 3.1943107999,
				"element": "H" 
			},
			{
				"x": -0.4107291448,
				"y": 1.1054491803,
				"z": 1.6303649657,
				"element": "H" 
			}
		],
		 "valence_orbital": [ 
			{
				"type": "occ",
				"energy": -0.27719,
				"method": "rhf"
			},
			{
				"type": "occ",
				"energy": -0.26595,
				"method": "rhf"
			},
			{
				"type": "occ",
				"energy": -0.2573,
				"method": "rhf"
			},
			{
				"type": "occ",
				"energy": -0.23609,
				"method": "rhf"
			},
			{
				"type": "occ",
				"energy": -0.21922,
				"method": "rhf"
			},
			{
				"type": "unocc",
				"energy": -0.01928,
				"method": "rhf"
			},
			{
				"type": "unocc",
				"energy": -0.0093,
				"method": "rhf"
			},
			{
				"type": "unocc",
				"energy": 0.03126,
				"method": "rhf"
			},
			{
				"type": "unocc",
				"energy": 0.03756,
				"method": "rhf"
			},
			{
				"type": "unocc",
				"energy": 0.0619,
				"method": "rhf"
			}
		],
		"cosmo_sigma_profile": { 
			"-0.025": -4.44196723862,
			"-0.024": 0.00587821509466,
			"-0.023": 0.0855633869141,
			"-0.022": 0.0434543439147,
			"-0.021": 0.00696534617122,
			"-0.02": 0.0,
			"-0.019": 0.109887630388,
			"-0.018": 0.124708247157,
			"-0.017": 0.0724196104552,
			"-0.016": 0.0,
			"-0.015": 0.386924246484,
			"-0.014": 1.27714776839,
			"-0.013": 0.97014891213,
			"-0.012": 0.712070603703,
			"-0.011": 1.26132499671,
			"-0.01": 1.02317162973,
			"-0.009": 3.29938902191,
			"-0.008": 3.73900770713,
			"-0.007": 6.63065279702,
			"-0.006": 9.99096064012,
			"-0.005": 19.2730518155,
			"-0.004": 28.1162155934,
			"-0.003": 26.1722511061,
			"-0.002": 29.1706878298,
			"-0.001": 36.0171402432,
			"0.0": 32.6079698184,
			"0.001": 24.085352172,
			"0.002": 32.4652787714,
			"0.003": 39.1909965676,
			"0.004": 16.6751509393,
			"0.005": 14.5276314119,
			"0.006": 5.08805573597,
			"0.007": 3.99620807574,
			"0.008": 3.9112288159,
			"0.009": 2.83730215261,
			"0.01": 2.59326869263,
			"0.011": 3.51301263022,
			"0.012": 4.84353867661,
			"0.013": 3.57722912573,
			"0.014": 0.838408618197,
			"0.015": 0.599057564596,
			"0.016": 0.0310387188486,
			"0.017": 0.0,
			"0.018": 0.0,
			"0.019": 0.0,
			"0.02": 0.0,
			"0.021": 0.0,
			"0.022": 0.0,
			"0.023": 0.0,
			"0.024": 4.94202161081,
			"0.025": -4.72693088028
		}
	}
}
