{
	 "smiles": "COC(=O)C1=C(N)C=CC(OC2=CC=C(Cl)C=C2)=C1", 
	 "Tm": 348.15, 
	 "num_atms": 31, 
	 "gaussian": { 
		 "optdone": 1, 
		 "sigma_profile": "yes", 
		 "theory": "DFT", 
		 "functional": "B3LYP", 
		 "basiset": "6-31G**", 
		 "properties": { 
			 "R2extent": 8965.398, 
			 "electric_dipole_moment_norm": 5.55766847698, 
			 "electric_quadrupole_moment_norm": 16.6509317004, 
			 "total_energy": -1281.34417162, 
			 "HOMO_LUMO_gap": 0.16215, 
			 "cosmo_polarized_energy": -13.81, 
			 "cosmo_cavitation_energy": 37.93, 
			 "cosmo_dispersion_energy": -27.47, 
			 "cosmo_repulsion_energy": 2.12, 
			 "cosmo_total_nonelectrostatic_energy": 12.59, 
			 "SMD_solvation_energy": 7.71 
		},
		"coords": [
			{
				"x": 4.0606484095,
				"y": 3.6468955314,
				"z": -1.033145007,
				"element": "C" 
			},
			{
				"x": 2.8022135874,
				"y": 2.9955029089,
				"z": -1.27939446,
				"element": "O" 
			},
			{
				"x": 2.7755419626,
				"y": 1.6614289362,
				"z": -0.9859503631,
				"element": "C" 
			},
			{
				"x": 3.7547476641,
				"y": 1.0934285495,
				"z": -0.5421322687,
				"element": "O" 
			},
			{
				"x": 1.4684583121,
				"y": 1.0077942174,
				"z": -1.2450538806,
				"element": "C" 
			},
			{
				"x": 0.317876299,
				"y": 1.6324505378,
				"z": -1.8047500452,
				"element": "C" 
			},
			{
				"x": 0.2927084168,
				"y": 2.9341352439,
				"z": -2.2432120612,
				"element": "N" 
			},
			{
				"x": -0.8489199192,
				"y": 0.8451358574,
				"z": -1.9597620745,
				"element": "C" 
			},
			{
				"x": -0.8854573343,
				"y": -0.4881070739,
				"z": -1.5934251315,
				"element": "C" 
			},
			{
				"x": 0.2552886414,
				"y": -1.0921133482,
				"z": -1.0471832041,
				"element": "C" 
			},
			{
				"x": 0.2584144619,
				"y": -2.4519650054,
				"z": -0.7565192444,
				"element": "O" 
			},
			{
				"x": -0.3490432062,
				"y": -2.9019916105,
				"z": 0.3925596534,
				"element": "C" 
			},
			{
				"x": -0.4657666181,
				"y": -4.2916634111,
				"z": 0.5149209254,
				"element": "C" 
			},
			{
				"x": -1.0505334953,
				"y": -4.8467476622,
				"z": 1.6485963153,
				"element": "C" 
			},
			{
				"x": -1.5212265512,
				"y": -4.0071773048,
				"z": 2.6599606472,
				"element": "C" 
			},
			{
				"x": -2.2667752387,
				"y": -4.7062396674,
				"z": 4.0936717577,
				"element": "Cl" 
			},
			{
				"x": -1.4070202601,
				"y": -2.624228261,
				"z": 2.5466327706,
				"element": "C" 
			},
			{
				"x": -0.8178764997,
				"y": -2.0663202091,
				"z": 1.4101655879,
				"element": "C" 
			},
			{
				"x": 1.4090187981,
				"y": -0.3516990215,
				"z": -0.878697026,
				"element": "C" 
			},
			{
				"x": 4.3282496906,
				"y": 3.577100366,
				"z": 0.0236235642,
				"element": "H" 
			},
			{
				"x": 3.9151998076,
				"y": 4.6870366972,
				"z": -1.3252340353,
				"element": "H" 
			},
			{
				"x": 4.8522326959,
				"y": 3.1868514722,
				"z": -1.6285980261,
				"element": "H" 
			},
			{
				"x": -0.6099095067,
				"y": 3.3564023581,
				"z": -2.3906840652,
				"element": "H" 
			},
			{
				"x": 1.0468711592,
				"y": 3.5395410433,
				"z": -1.9599978394,
				"element": "H" 
			},
			{
				"x": -1.7316807845,
				"y": 1.306807025,
				"z": -2.3944502084,
				"element": "H" 
			},
			{
				"x": -1.7885944656,
				"y": -1.0741087107,
				"z": -1.7328292735,
				"element": "H" 
			},
			{
				"x": -0.0921974203,
				"y": -4.9207317079,
				"z": -0.2860666367,
				"element": "H" 
			},
			{
				"x": -1.1430615384,
				"y": -5.9226691466,
				"z": 1.7473931959,
				"element": "H" 
			},
			{
				"x": -1.7718727091,
				"y": -1.982199706,
				"z": 3.3409118141,
				"element": "H" 
			},
			{
				"x": -0.7214755769,
				"y": -0.9905830552,
				"z": 1.3232297901,
				"element": "H" 
			},
			{
				"x": 2.2987412183,
				"y": -0.8098658429,
				"z": -0.462681171,
				"element": "H" 
			}
		],
		 "valence_orbital": [ 
			{
				"type": "occ",
				"energy": -0.279,
				"method": "rhf"
			},
			{
				"type": "occ",
				"energy": -0.26542,
				"method": "rhf"
			},
			{
				"type": "occ",
				"energy": -0.25996,
				"method": "rhf"
			},
			{
				"type": "occ",
				"energy": -0.22184,
				"method": "rhf"
			},
			{
				"type": "occ",
				"energy": -0.20925,
				"method": "rhf"
			},
			{
				"type": "unocc",
				"energy": -0.0471,
				"method": "rhf"
			},
			{
				"type": "unocc",
				"energy": -0.01065,
				"method": "rhf"
			},
			{
				"type": "unocc",
				"energy": 8e-05,
				"method": "rhf"
			},
			{
				"type": "unocc",
				"energy": 0.00739,
				"method": "rhf"
			},
			{
				"type": "unocc",
				"energy": 0.03586,
				"method": "rhf"
			}
		],
		"cosmo_sigma_profile": { 
			"-0.025": 0.0,
			"-0.024": 0.0,
			"-0.023": 0.0,
			"-0.022": 0.0,
			"-0.021": 0.0,
			"-0.02": 0.0,
			"-0.019": 0.0,
			"-0.018": 0.0,
			"-0.017": 0.0,
			"-0.016": 0.0,
			"-0.015": 0.0,
			"-0.014": 0.309877570214,
			"-0.013": 1.22879978171,
			"-0.012": 1.76546755274,
			"-0.011": 1.16661317931,
			"-0.01": 2.23567716841,
			"-0.009": 2.32268382687,
			"-0.008": 3.25270480508,
			"-0.007": 9.98981145752,
			"-0.006": 15.496145006,
			"-0.005": 20.3643817198,
			"-0.004": 20.1670066779,
			"-0.003": 18.8284954089,
			"-0.002": 17.0299456737,
			"-0.001": 20.7781519665,
			"0.0": 21.5365016869,
			"0.001": 22.066939755,
			"0.002": 28.913029492,
			"0.003": 35.1104340684,
			"0.004": 24.9734010772,
			"0.005": 13.2948453609,
			"0.006": 4.42142538405,
			"0.007": 3.34298440196,
			"0.008": 3.51118786995,
			"0.009": 3.56358312106,
			"0.01": 2.63610612284,
			"0.011": 2.8081852232,
			"0.012": 4.29958906933,
			"0.013": 0.574542135528,
			"0.014": 0.0,
			"0.015": 0.0,
			"0.016": 0.0,
			"0.017": 0.0,
			"0.018": 0.0,
			"0.019": 0.0,
			"0.02": 0.0,
			"0.021": 0.0,
			"0.022": 0.0,
			"0.023": 0.0,
			"0.024": 0.0,
			"0.025": 0.0
		}
	}
}
