{
	 "smiles": "COC1=C(C=C(C=CC(O)=O)C=C1)S(=O)(=O)N1CCCCC1", 
	 "Tm": 493.15, 
	 "num_atms": 41, 
	 "gaussian": { 
		 "optdone": 1, 
		 "sigma_profile": "yes", 
		 "theory": "DFT", 
		 "functional": "B3LYP", 
		 "basiset": "6-31G**", 
		 "properties": { 
			 "R2extent": 9962.9822, 
			 "electric_dipole_moment_norm": 7.50209702816, 
			 "electric_quadrupole_moment_norm": 38.3198306386, 
			 "total_energy": -1412.01938337, 
			 "HOMO_LUMO_gap": 0.16573, 
			 "cosmo_polarized_energy": -25.48, 
			 "cosmo_cavitation_energy": 44.41, 
			 "cosmo_dispersion_energy": -31.24, 
			 "cosmo_repulsion_energy": 2.36, 
			 "cosmo_total_nonelectrostatic_energy": 15.54, 
			 "SMD_solvation_energy": 7.37 
		},
		"coords": [
			{
				"x": 0.3564148789,
				"y": 3.9493493994,
				"z": -1.2424167862,
				"element": "C" 
			},
			{
				"x": -0.479531804,
				"y": 2.8136325479,
				"z": -0.9613262681,
				"element": "O" 
			},
			{
				"x": -0.343934057,
				"y": 1.7493710879,
				"z": -1.8077235309,
				"element": "C" 
			},
			{
				"x": 0.3216598196,
				"y": 0.5813295371,
				"z": -1.3904403867,
				"element": "C" 
			},
			{
				"x": 0.3898082844,
				"y": -0.5282355687,
				"z": -2.2279886392,
				"element": "C" 
			},
			{
				"x": -0.197585138,
				"y": -0.5081592532,
				"z": -3.5051830484,
				"element": "C" 
			},
			{
				"x": -0.1520295105,
				"y": -1.6529161943,
				"z": -4.4187988238,
				"element": "C" 
			},
			{
				"x": 0.3118141918,
				"y": -2.8896266136,
				"z": -4.1590237595,
				"element": "C" 
			},
			{
				"x": 0.2587162522,
				"y": -4.0248915237,
				"z": -5.1170243099,
				"element": "C" 
			},
			{
				"x": 0.2249229459,
				"y": -3.7213916868,
				"z": -6.44645711,
				"element": "O" 
			},
			{
				"x": 0.227686456,
				"y": -5.1780306306,
				"z": -4.7560355586,
				"element": "O" 
			},
			{
				"x": -0.8474441031,
				"y": 0.6698728922,
				"z": -3.913969219,
				"element": "C" 
			},
			{
				"x": -0.9226663675,
				"y": 1.7800703605,
				"z": -3.0800147798,
				"element": "C" 
			},
			{
				"x": 1.1674466648,
				"y": 0.4800484718,
				"z": 0.2135042529,
				"element": "S" 
			},
			{
				"x": 1.8362380706,
				"y": -0.8244910293,
				"z": 0.2060742893,
				"element": "O" 
			},
			{
				"x": 1.9282397842,
				"y": 1.7178157873,
				"z": 0.4019926069,
				"element": "O" 
			},
			{
				"x": 0.0173505144,
				"y": 0.4131092618,
				"z": 1.4237020442,
				"element": "N" 
			},
			{
				"x": -0.855561312,
				"y": -0.7731576745,
				"z": 1.470633078,
				"element": "C" 
			},
			{
				"x": -1.3028917387,
				"y": -1.0221229226,
				"z": 2.9158624097,
				"element": "C" 
			},
			{
				"x": -1.9510994154,
				"y": 0.2297140388,
				"z": 3.5226951981,
				"element": "C" 
			},
			{
				"x": -1.013904868,
				"y": 1.4385994769,
				"z": 3.3927736621,
				"element": "C" 
			},
			{
				"x": -0.5868272187,
				"y": 1.6564288007,
				"z": 1.9367679308,
				"element": "C" 
			},
			{
				"x": 1.4048648834,
				"y": 3.6959446612,
				"z": -1.0640962655,
				"element": "H" 
			},
			{
				"x": 0.0419083199,
				"y": 4.7327792107,
				"z": -0.5515382644,
				"element": "H" 
			},
			{
				"x": 0.2160917488,
				"y": 4.2954910465,
				"z": -2.2730066011,
				"element": "H" 
			},
			{
				"x": 0.9317775139,
				"y": -1.3972494911,
				"z": -1.8734532414,
				"element": "H" 
			},
			{
				"x": -0.58235899,
				"y": -1.4548157063,
				"z": -5.4013557777,
				"element": "H" 
			},
			{
				"x": 0.6735728199,
				"y": -3.17153484,
				"z": -3.1754375844,
				"element": "H" 
			},
			{
				"x": 0.4568945473,
				"y": -2.7914071743,
				"z": -6.575740976,
				"element": "H" 
			},
			{
				"x": -1.3114362828,
				"y": 0.7093626716,
				"z": -4.8960959157,
				"element": "H" 
			},
			{
				"x": -1.4464572054,
				"y": 2.6773295804,
				"z": -3.3940110726,
				"element": "H" 
			},
			{
				"x": -1.7370803147,
				"y": -0.6231713843,
				"z": 0.8249396844,
				"element": "H" 
			},
			{
				"x": -0.2924319879,
				"y": -1.627744606,
				"z": 1.0929852173,
				"element": "H" 
			},
			{
				"x": -0.4259435431,
				"y": -1.3106532613,
				"z": 3.5073222693,
				"element": "H" 
			},
			{
				"x": -2.0000020018,
				"y": -1.8678781029,
				"z": 2.9291789431,
				"element": "H" 
			},
			{
				"x": -2.8940200162,
				"y": 0.442515386,
				"z": 2.9989816636,
				"element": "H" 
			},
			{
				"x": -2.2079708462,
				"y": 0.0546756537,
				"z": 4.5732750469,
				"element": "H" 
			},
			{
				"x": -1.5036135172,
				"y": 2.3497191235,
				"z": 3.7559172591,
				"element": "H" 
			},
			{
				"x": -0.1176357807,
				"y": 1.2819266886,
				"z": 4.0048970388,
				"element": "H" 
			},
			{
				"x": -1.454903595,
				"y": 1.9434723267,
				"z": 1.3252843153,
				"element": "H" 
			},
			{
				"x": 0.1570219181,
				"y": 2.4487196522,
				"z": 1.8598510093,
				"element": "H" 
			}
		],
		 "valence_orbital": [ 
			{
				"type": "occ",
				"energy": -0.29711,
				"method": "rhf"
			},
			{
				"type": "occ",
				"energy": -0.28496,
				"method": "rhf"
			},
			{
				"type": "occ",
				"energy": -0.27288,
				"method": "rhf"
			},
			{
				"type": "occ",
				"energy": -0.25618,
				"method": "rhf"
			},
			{
				"type": "occ",
				"energy": -0.24534,
				"method": "rhf"
			},
			{
				"type": "unocc",
				"energy": -0.07961,
				"method": "rhf"
			},
			{
				"type": "unocc",
				"energy": -0.04598,
				"method": "rhf"
			},
			{
				"type": "unocc",
				"energy": -0.00183,
				"method": "rhf"
			},
			{
				"type": "unocc",
				"energy": 0.04919,
				"method": "rhf"
			},
			{
				"type": "unocc",
				"energy": 0.05704,
				"method": "rhf"
			}
		],
		"cosmo_sigma_profile": { 
			"-0.025": 0.0,
			"-0.024": 0.0,
			"-0.023": 0.0,
			"-0.022": 0.0,
			"-0.021": 0.0,
			"-0.02": 0.0,
			"-0.019": 0.0980236797762,
			"-0.018": 0.873698100313,
			"-0.017": 0.817701617532,
			"-0.016": 0.849104446381,
			"-0.015": 1.76986847355,
			"-0.014": 0.743871506719,
			"-0.013": 0.633988566844,
			"-0.012": 0.978601933125,
			"-0.011": 1.38523343144,
			"-0.01": 1.50677267964,
			"-0.009": 4.29625792307,
			"-0.008": 6.27223494122,
			"-0.007": 8.11237590727,
			"-0.006": 11.2094121719,
			"-0.005": 12.2122239165,
			"-0.004": 26.0357807569,
			"-0.003": 44.7542084455,
			"-0.002": 40.0177480818,
			"-0.001": 31.2457007569,
			"0.0": 29.1961421566,
			"0.001": 25.7268978446,
			"0.002": 16.1276062947,
			"0.003": 7.14936974021,
			"0.004": 8.28054964845,
			"0.005": 7.79564065634,
			"0.006": 6.75455202966,
			"0.007": 6.46394844142,
			"0.008": 7.42500784703,
			"0.009": 6.96257407018,
			"0.01": 10.0053073325,
			"0.011": 11.429752123,
			"0.012": 10.2249181274,
			"0.013": 3.16913383145,
			"0.014": 0.23784759194,
			"0.015": 0.0,
			"0.016": 0.0,
			"0.017": 0.0,
			"0.018": 0.0,
			"0.019": 0.0,
			"0.02": 0.0,
			"0.021": 0.0,
			"0.022": 0.0,
			"0.023": 0.0,
			"0.024": 0.0,
			"0.0": 0.0
		}
	}
}
