{
	 "smiles": "ClC(=O)C1=CC=CC2=CC=CC=C12", 
	 "Tm": 299.15, 
	 "num_atms": 20, 
	 "gaussian": { 
		 "optdone": 1, 
		 "sigma_profile": "yes", 
		 "theory": "DFT", 
		 "functional": "B3LYP", 
		 "basiset": "6-31G**", 
		 "properties": { 
			 "R2extent": 3270.8073, 
			 "electric_dipole_moment_norm": 4.07879277973, 
			 "electric_quadrupole_moment_norm": 10.4933478843, 
			 "total_energy": -958.816038055, 
			 "HOMO_LUMO_gap": 0.1582, 
			 "cosmo_polarized_energy": -7.02, 
			 "cosmo_cavitation_energy": 25.99, 
			 "cosmo_dispersion_energy": -19.26, 
			 "cosmo_repulsion_energy": 1.5, 
			 "cosmo_total_nonelectrostatic_energy": 8.22, 
			 "SMD_solvation_energy": 4.71 
		},
		"coords": [
			{
				"x": 3.3482534271,
				"y": 1.6315186721,
				"z": 1.6895872522,
				"element": "Cl" 
			},
			{
				"x": 1.6889473639,
				"y": 0.893610001,
				"z": 1.9714052018,
				"element": "C" 
			},
			{
				"x": 1.3892967186,
				"y": 0.5854320783,
				"z": 3.0843708415,
				"element": "O" 
			},
			{
				"x": 0.7933694584,
				"y": 0.8681244394,
				"z": 0.784296048,
				"element": "C" 
			},
			{
				"x": -0.5004747004,
				"y": 1.2913354669,
				"z": 1.0563050928,
				"element": "C" 
			},
			{
				"x": -1.4642830843,
				"y": 1.392931255,
				"z": 0.0338532091,
				"element": "C" 
			},
			{
				"x": -1.1322861734,
				"y": 1.0400919273,
				"z": -1.2534685458,
				"element": "C" 
			},
			{
				"x": 0.162366747,
				"y": 0.5494175262,
				"z": -1.5686803459,
				"element": "C" 
			},
			{
				"x": 0.4772823086,
				"y": 0.134720296,
				"z": -2.8908750664,
				"element": "C" 
			},
			{
				"x": 1.7136991858,
				"y": -0.3848703204,
				"z": -3.1936424338,
				"element": "C" 
			},
			{
				"x": 2.6850031038,
				"y": -0.5197434624,
				"z": -2.1752786353,
				"element": "C" 
			},
			{
				"x": 2.4180663025,
				"y": -0.1180993854,
				"z": -0.8846150002,
				"element": "C" 
			},
			{
				"x": 1.1602145959,
				"y": 0.4476927132,
				"z": -0.5391855721,
				"element": "C" 
			},
			{
				"x": -0.7557550495,
				"y": 1.5729224418,
				"z": 2.072170267,
				"element": "H" 
			},
			{
				"x": -2.4604659423,
				"y": 1.7533696607,
				"z": 0.2696855772,
				"element": "H" 
			},
			{
				"x": -1.8653510199,
				"y": 1.1194168623,
				"z": -2.0519413637,
				"element": "H" 
			},
			{
				"x": -0.2870069568,
				"y": 0.2261684236,
				"z": -3.6579670694,
				"element": "H" 
			},
			{
				"x": 1.9425716062,
				"y": -0.7022770805,
				"z": -4.206487949,
				"element": "H" 
			},
			{
				"x": 3.6540549371,
				"y": -0.9497244966,
				"z": -2.4105692397,
				"element": "H" 
			},
			{
				"x": 3.1775971717,
				"y": -0.2418370186,
				"z": -0.1241622686,
				"element": "H" 
			}
		],
		 "valence_orbital": [ 
			{
				"type": "occ",
				"energy": -0.31547,
				"method": "rhf"
			},
			{
				"type": "occ",
				"energy": -0.30089,
				"method": "rhf"
			},
			{
				"type": "occ",
				"energy": -0.2882,
				"method": "rhf"
			},
			{
				"type": "occ",
				"energy": -0.26153,
				"method": "rhf"
			},
			{
				"type": "occ",
				"energy": -0.23486,
				"method": "rhf"
			},
			{
				"type": "unocc",
				"energy": -0.07666,
				"method": "rhf"
			},
			{
				"type": "unocc",
				"energy": -0.03154,
				"method": "rhf"
			},
			{
				"type": "unocc",
				"energy": -0.02598,
				"method": "rhf"
			},
			{
				"type": "unocc",
				"energy": 0.00949,
				"method": "rhf"
			},
			{
				"type": "unocc",
				"energy": 0.04018,
				"method": "rhf"
			}
		],
		"cosmo_sigma_profile": { 
			"-0.025": 0.0,
			"-0.024": 0.0,
			"-0.023": 0.0,
			"-0.022": 0.0,
			"-0.021": 0.0,
			"-0.02": 0.0,
			"-0.019": 0.0,
			"-0.018": 0.0,
			"-0.017": 0.0,
			"-0.016": 0.0,
			"-0.015": 0.0,
			"-0.014": 0.0,
			"-0.013": 0.0,
			"-0.012": 0.0,
			"-0.011": 0.0,
			"-0.01": 0.0,
			"-0.009": 0.0,
			"-0.008": 0.8152146087,
			"-0.007": 9.08352179445,
			"-0.006": 14.9046462307,
			"-0.005": 16.2692069616,
			"-0.004": 14.0042097817,
			"-0.003": 10.9714001769,
			"-0.002": 10.9667433594,
			"-0.001": 11.6920776274,
			"0.0": 12.9112417863,
			"0.001": 20.4647858605,
			"0.002": 26.5017970503,
			"0.003": 22.5554187996,
			"0.004": 18.9641022005,
			"0.005": 7.62759786674,
			"0.006": 3.67668992725,
			"0.007": 2.56094066078,
			"0.008": 4.83918828576,
			"0.009": 2.90957597916,
			"0.01": 0.187660097189,
			"0.011": 0.0,
			"0.012": 0.0,
			"0.013": 0.0,
			"0.014": 0.0,
			"0.015": 0.0,
			"0.016": 0.0,
			"0.017": 0.0,
			"0.018": 0.0,
			"0.019": 0.0,
			"0.02": 0.0,
			"0.021": 0.0,
			"0.022": 0.0,
			"0.023": 0.0,
			"0.024": 0.0,
			"0.025": 0.0
		}
	}
}
