{
	 "smiles": "CCCC(Cl)=O", 
	 "Tm": 184.15, 
	 "num_atms": 13, 
	 "gaussian": { 
		 "optdone": 1, 
		 "sigma_profile": "yes", 
		 "theory": "DFT", 
		 "functional": "B3LYP", 
		 "basiset": "6-31G**", 
		 "properties": { 
			 "R2extent": 1497.4833, 
			 "electric_dipole_moment_norm": 3.12533201596, 
			 "electric_quadrupole_moment_norm": 9.31028577274, 
			 "total_energy": -692.075318994, 
			 "HOMO_LUMO_gap": 0.2529, 
			 "cosmo_polarized_energy": -5.1, 
			 "cosmo_cavitation_energy": 18.2, 
			 "cosmo_dispersion_energy": -13.23, 
			 "cosmo_repulsion_energy": 1.16, 
			 "cosmo_total_nonelectrostatic_energy": 6.13, 
			 "SMD_solvation_energy": 3.73 
		},
		"coords": [
			{
				"x": 0.8079352037,
				"y": 1.0641669588,
				"z": 1.1282342867,
				"element": "C" 
			},
			{
				"x": 0.0510423142,
				"y": 0.1686203616,
				"z": 0.1433261966,
				"element": "C" 
			},
			{
				"x": -1.3962873482,
				"y": 0.6327754273,
				"z": -0.1285214611,
				"element": "C" 
			},
			{
				"x": -1.4723947836,
				"y": 2.0065594832,
				"z": -0.7503904556,
				"element": "C" 
			},
			{
				"x": -0.8632927111,
				"y": 2.0160965171,
				"z": -2.4905744023,
				"element": "Cl" 
			},
			{
				"x": -1.8515219853,
				"y": 3.016648084,
				"z": -0.2542942046,
				"element": "O" 
			},
			{
				"x": 1.8126115862,
				"y": 0.6719829617,
				"z": 1.3121893987,
				"element": "H" 
			},
			{
				"x": 0.2897477544,
				"y": 1.1237368053,
				"z": 2.0915484963,
				"element": "H" 
			},
			{
				"x": 0.9160395863,
				"y": 2.0847153824,
				"z": 0.7463724163,
				"element": "H" 
			},
			{
				"x": -0.0077002897,
				"y": -0.8527492628,
				"z": 0.536274055,
				"element": "H" 
			},
			{
				"x": 0.5905905864,
				"y": 0.1074571696,
				"z": -0.8073765533,
				"element": "H" 
			},
			{
				"x": -1.8928318979,
				"y": -0.0730302421,
				"z": -0.8016208146,
				"element": "H" 
			},
			{
				"x": -1.9634380154,
				"y": 0.690120354,
				"z": 0.806133042,
				"element": "H" 
			}
		],
		 "valence_orbital": [ 
			{
				"type": "occ",
				"energy": -0.36253,
				"method": "rhf"
			},
			{
				"type": "occ",
				"energy": -0.35619,
				"method": "rhf"
			},
			{
				"type": "occ",
				"energy": -0.31896,
				"method": "rhf"
			},
			{
				"type": "occ",
				"energy": -0.31615,
				"method": "rhf"
			},
			{
				"type": "occ",
				"energy": -0.29331,
				"method": "rhf"
			},
			{
				"type": "unocc",
				"energy": -0.04041,
				"method": "rhf"
			},
			{
				"type": "unocc",
				"energy": 0.0169,
				"method": "rhf"
			},
			{
				"type": "unocc",
				"energy": 0.08718,
				"method": "rhf"
			},
			{
				"type": "unocc",
				"energy": 0.12296,
				"method": "rhf"
			},
			{
				"type": "unocc",
				"energy": 0.12772,
				"method": "rhf"
			}
		],
		"cosmo_sigma_profile": { 
			"-0.025": 0.0,
			"-0.024": 0.0,
			"-0.023": 0.0,
			"-0.022": 0.0,
			"-0.021": 0.0,
			"-0.02": 0.0,
			"-0.019": 0.0,
			"-0.018": 0.0,
			"-0.017": 0.0,
			"-0.016": 0.0,
			"-0.015": 0.0,
			"-0.014": 0.0,
			"-0.013": 0.0,
			"-0.012": 0.0,
			"-0.011": 0.0,
			"-0.01": 0.0,
			"-0.009": 0.0,
			"-0.008": 0.0659655409956,
			"-0.007": 3.19842219367,
			"-0.006": 5.60230912654,
			"-0.005": 6.95923437367,
			"-0.004": 14.7748786531,
			"-0.003": 15.1595608666,
			"-0.002": 14.1960787875,
			"-0.001": 15.2697203026,
			"0.0": 13.6764700113,
			"0.001": 10.1524471193,
			"0.002": 5.11580960913,
			"0.003": 6.71586952392,
			"0.004": 9.68847940991,
			"0.005": 9.71907051043,
			"0.006": 3.86936305023,
			"0.007": 3.46949719896,
			"0.008": 5.15972804106,
			"0.009": 2.33644862446,
			"0.01": 0.0377188984324,
			"0.011": 0.0,
			"0.012": 0.0,
			"0.013": 0.0,
			"0.014": 0.0,
			"0.015": 0.0,
			"0.016": 0.0,
			"0.017": 0.0,
			"0.018": 0.0,
			"0.019": 0.0,
			"0.02": 0.0,
			"0.021": 0.0,
			"0.022": 0.0,
			"0.023": 0.0,
			"0.024": 0.0,
			"0.025": 0.0
		}
	}
}
