{
	 "smiles": "NC(=NO)C1=NC=CC=N1", 
	 "Tm": 483.15, 
	 "num_atms": 16, 
	 "gaussian": { 
		 "optdone": 1, 
		 "sigma_profile": "yes", 
		 "theory": "DFT", 
		 "functional": "B3LYP", 
		 "basiset": "6-31G**", 
		 "properties": { 
			 "R2extent": 1711.7064, 
			 "electric_dipole_moment_norm": 2.76813057857, 
			 "electric_quadrupole_moment_norm": 6.12943536551, 
			 "total_energy": -488.302626915, 
			 "HOMO_LUMO_gap": 0.14938, 
			 "cosmo_polarized_energy": -15.21, 
			 "cosmo_cavitation_energy": 20.9, 
			 "cosmo_dispersion_energy": -15.88, 
			 "cosmo_repulsion_energy": 1.32, 
			 "cosmo_total_nonelectrostatic_energy": 6.34, 
			 "SMD_solvation_energy": 2.03 
		},
		"coords": [
			{
				"x": -1.1157868384,
				"y": 0.9329043547,
				"z": 3.0310663821,
				"element": "N" 
			},
			{
				"x": 0.0310245608,
				"y": 0.9101956948,
				"z": 2.2417824235,
				"element": "C" 
			},
			{
				"x": 0.9881178886,
				"y": 1.7134489075,
				"z": 2.5662963993,
				"element": "N" 
			},
			{
				"x": 2.0911310829,
				"y": 1.696371142,
				"z": 1.7002454311,
				"element": "O" 
			},
			{
				"x": -0.0324329063,
				"y": -0.0660630416,
				"z": 1.1079316314,
				"element": "C" 
			},
			{
				"x": 0.6565860936,
				"y": 0.1700466298,
				"z": -0.0152037671,
				"element": "N" 
			},
			{
				"x": 0.5542123666,
				"y": -0.7494891926,
				"z": -0.978486874,
				"element": "C" 
			},
			{
				"x": -0.2200323184,
				"y": -1.9006278334,
				"z": -0.8438776575,
				"element": "C" 
			},
			{
				"x": -0.9080596289,
				"y": -2.0397013415,
				"z": 0.359237186,
				"element": "C" 
			},
			{
				"x": -0.8258048076,
				"y": -1.1317099042,
				"z": 1.3339793535,
				"element": "N" 
			},
			{
				"x": -0.9713351598,
				"y": 1.3878403061,
				"z": 3.9231436427,
				"element": "H" 
			},
			{
				"x": -1.5645440477,
				"y": 0.027377093,
				"z": 3.0908360342,
				"element": "H" 
			},
			{
				"x": 2.6842002076,
				"y": 2.3141369144,
				"z": 2.1475042,
				"element": "H" 
			},
			{
				"x": 1.1110583562,
				"y": -0.551284697,
				"z": -1.8929813933,
				"element": "H" 
			},
			{
				"x": -0.2911136083,
				"y": -2.6405456135,
				"z": -1.6334150477,
				"element": "H" 
			},
			{
				"x": -1.546921241,
				"y": -2.9004994183,
				"z": 0.5494420558,
				"element": "H" 
			}
		],
		 "valence_orbital": [ 
			{
				"type": "occ",
				"energy": -0.31609,
				"method": "rhf"
			},
			{
				"type": "occ",
				"energy": -0.28505,
				"method": "rhf"
			},
			{
				"type": "occ",
				"energy": -0.2618,
				"method": "rhf"
			},
			{
				"type": "occ",
				"energy": -0.24841,
				"method": "rhf"
			},
			{
				"type": "occ",
				"energy": -0.20061,
				"method": "rhf"
			},
			{
				"type": "unocc",
				"energy": -0.05123,
				"method": "rhf"
			},
			{
				"type": "unocc",
				"energy": -0.04535,
				"method": "rhf"
			},
			{
				"type": "unocc",
				"energy": 0.05616,
				"method": "rhf"
			},
			{
				"type": "unocc",
				"energy": 0.08794,
				"method": "rhf"
			},
			{
				"type": "unocc",
				"energy": 0.09579,
				"method": "rhf"
			}
		],
		"cosmo_sigma_profile": { 
			"-0.025": 0.0,
			"-0.024": 0.0,
			"-0.023": 0.0,
			"-0.022": 0.0,
			"-0.021": 0.0,
			"-0.02": 0.0,
			"-0.019": 0.0,
			"-0.018": 0.0,
			"-0.017": 0.432800443946,
			"-0.016": 0.913352985482,
			"-0.015": 1.22299168472,
			"-0.014": 0.573035114904,
			"-0.013": 0.750107127079,
			"-0.012": 1.0099160166,
			"-0.011": 2.34627574543,
			"-0.01": 2.95307675055,
			"-0.009": 3.25978507981,
			"-0.008": 9.53828965534,
			"-0.007": 10.0845686444,
			"-0.006": 8.43568225841,
			"-0.005": 6.25923229667,
			"-0.004": 6.28070553538,
			"-0.003": 6.75964151156,
			"-0.002": 11.2093736455,
			"-0.001": 13.9159019426,
			"0.0": 12.2059578479,
			"0.001": 6.72867336733,
			"0.002": 6.51959374107,
			"0.003": 5.74866806344,
			"0.004": 6.14092426146,
			"0.005": 5.21895840531,
			"0.006": 6.04880041645,
			"0.007": 4.86488799233,
			"0.008": 5.29139278996,
			"0.009": 4.45308770475,
			"0.01": 3.64698018656,
			"0.011": 3.57045264535,
			"0.012": 2.75769302393,
			"0.013": 3.09560555976,
			"0.014": 1.59758426098,
			"0.015": 0.765634024526,
			"0.016": 1.09869265069,
			"0.017": 0.588943082023,
			"0.018": 0.754234515231,
			"0.019": 0.0706842185108,
			"0.02": 0.0,
			"0.021": 0.0,
			"0.022": 0.0,
			"0.023": 0.0,
			"0.024": 0.0,
			"0.025": 0.0
		}
	}
}
