{
	 "smiles": "OC(=O)C1=NN(C=C1O)C1=CC(Cl)=CC=C1", 
	 "Tm": 509.15, 
	 "num_atms": 23, 
	 "gaussian": { 
		 "optdone": 1, 
		 "sigma_profile": "yes", 
		 "theory": "DFT", 
		 "functional": "B3LYP", 
		 "basiset": "6-31G**", 
		 "properties": { 
			 "R2extent": 6027.5994, 
			 "electric_dipole_moment_norm": 1.0155051797, 
			 "electric_quadrupole_moment_norm": 19.963202577, 
			 "total_energy": -1180.63518068, 
			 "HOMO_LUMO_gap": 0.1678, 
			 "cosmo_polarized_energy": -15.34, 
			 "cosmo_cavitation_energy": 30.47, 
			 "cosmo_dispersion_energy": -22.87, 
			 "cosmo_repulsion_energy": 1.77, 
			 "cosmo_total_nonelectrostatic_energy": 9.37, 
			 "SMD_solvation_energy": 6.1 
		},
		"coords": [
			{
				"x": -2.0788629807,
				"y": 5.4736470968,
				"z": 0.6828333962,
				"element": "O" 
			},
			{
				"x": -1.6263665655,
				"y": 4.3670235638,
				"z": 1.3695697623,
				"element": "C" 
			},
			{
				"x": -1.5295906993,
				"y": 4.3576568155,
				"z": 2.5733160152,
				"element": "O" 
			},
			{
				"x": -1.3111011945,
				"y": 3.2889712419,
				"z": 0.4273832887,
				"element": "C" 
			},
			{
				"x": -0.8517406061,
				"y": 2.1078056228,
				"z": 0.8602311201,
				"element": "N" 
			},
			{
				"x": -0.6729245802,
				"y": 1.3739930925,
				"z": -0.2430119656,
				"element": "N" 
			},
			{
				"x": -1.0074470105,
				"y": 2.0535392,
				"z": -1.3954922143,
				"element": "C" 
			},
			{
				"x": -1.4268626663,
				"y": 3.3035654143,
				"z": -0.9944837825,
				"element": "C" 
			},
			{
				"x": -1.8472795526,
				"y": 4.2950795723,
				"z": -1.8043765525,
				"element": "O" 
			},
			{
				"x": -0.1839573778,
				"y": 0.0433443875,
				"z": -0.125955033,
				"element": "C" 
			},
			{
				"x": 0.0103773065,
				"y": -0.7371290235,
				"z": -1.2702049114,
				"element": "C" 
			},
			{
				"x": 0.4905000276,
				"y": -2.0367132933,
				"z": -1.1210921127,
				"element": "C" 
			},
			{
				"x": 0.7336457352,
				"y": -3.0147824261,
				"z": -2.5602012594,
				"element": "Cl" 
			},
			{
				"x": 0.7797911032,
				"y": -2.574125474,
				"z": 0.1308063843,
				"element": "C" 
			},
			{
				"x": 0.5774740131,
				"y": -1.7748776173,
				"z": 1.2579306781,
				"element": "C" 
			},
			{
				"x": 0.0991997006,
				"y": -0.4730289038,
				"z": 1.1441366821,
				"element": "C" 
			},
			{
				"x": -2.2716171106,
				"y": 6.1520833145,
				"z": 1.3504637301,
				"element": "H" 
			},
			{
				"x": -0.9313585598,
				"y": 1.6294518257,
				"z": -2.3816554549,
				"element": "H" 
			},
			{
				"x": -2.0759334824,
				"y": 5.0513447312,
				"z": -1.2384428721,
				"element": "H" 
			},
			{
				"x": -0.2006606312,
				"y": -0.3612417852,
				"z": -2.2625308928,
				"element": "H" 
			},
			{
				"x": 1.1522001649,
				"y": -3.5880731134,
				"z": 0.2182758494,
				"element": "H" 
			},
			{
				"x": 0.7972424169,
				"y": -2.1758937437,
				"z": 2.2424986161,
				"element": "H" 
			},
			{
				"x": -0.0594274504,
				"y": 0.1507595017,
				"z": 2.0140015283,
				"element": "H" 
			}
		],
		 "valence_orbital": [ 
			{
				"type": "occ",
				"energy": -0.29887,
				"method": "rhf"
			},
			{
				"type": "occ",
				"energy": -0.28976,
				"method": "rhf"
			},
			{
				"type": "occ",
				"energy": -0.26248,
				"method": "rhf"
			},
			{
				"type": "occ",
				"energy": -0.25562,
				"method": "rhf"
			},
			{
				"type": "occ",
				"energy": -0.22832,
				"method": "rhf"
			},
			{
				"type": "unocc",
				"energy": -0.06052,
				"method": "rhf"
			},
			{
				"type": "unocc",
				"energy": -0.02594,
				"method": "rhf"
			},
			{
				"type": "unocc",
				"energy": -0.00958,
				"method": "rhf"
			},
			{
				"type": "unocc",
				"energy": 0.01897,
				"method": "rhf"
			},
			{
				"type": "unocc",
				"energy": 0.03408,
				"method": "rhf"
			}
		],
		"cosmo_sigma_profile": { 
			"-0.025": 0.0,
			"-0.024": 0.0,
			"-0.023": 0.0,
			"-0.022": 0.0,
			"-0.021": 0.0,
			"-0.02": 0.0,
			"-0.019": 0.627150760374,
			"-0.018": 0.924358982675,
			"-0.017": 0.819222793633,
			"-0.016": 0.861222366264,
			"-0.015": 0.965290945987,
			"-0.014": 0.69805746547,
			"-0.013": 0.816663860399,
			"-0.012": 2.13673879851,
			"-0.011": 3.38739040356,
			"-0.01": 2.97403993912,
			"-0.009": 2.65275183076,
			"-0.008": 4.18574265816,
			"-0.007": 7.74556056367,
			"-0.006": 9.1570736206,
			"-0.005": 10.4575502168,
			"-0.004": 10.5860595807,
			"-0.003": 14.3536720753,
			"-0.002": 14.056183378,
			"-0.001": 17.4390287522,
			"0.0": 20.455039652,
			"0.001": 25.0074991138,
			"0.002": 26.0831309347,
			"0.003": 17.9418799209,
			"0.004": 14.2386593855,
			"0.005": 6.31739835062,
			"0.006": 3.93854578846,
			"0.007": 4.20183113531,
			"0.008": 3.04711722457,
			"0.009": 4.06694276288,
			"0.01": 5.93365771619,
			"0.011": 7.29492887995,
			"0.012": 3.34377609458,
			"0.013": 1.22441677241,
			"0.014": 0.0,
			"0.015": 0.0,
			"0.016": 0.0,
			"0.017": 0.0,
			"0.018": 0.0,
			"0.019": 0.0,
			"0.02": 0.0,
			"0.021": 0.0,
			"0.022": 0.0,
			"0.023": 0.0,
			"0.024": 0.0,
			"0.025": 0.0
		}
	}
}
