{
	 "smiles": "NC1=CC2=C(C=C1)C1=C(C2)C=C(N)C=C1", 
	 "Tm": 558.15, 
	 "num_atms": 27, 
	 "gaussian": { 
		 "optdone": 1, 
		 "sigma_profile": "yes", 
		 "theory": "DFT", 
		 "functional": "B3LYP", 
		 "basiset": "6-31G**", 
		 "properties": { 
			 "R2extent": 4716.6484, 
			 "electric_dipole_moment_norm": 0.924393747274, 
			 "electric_quadrupole_moment_norm": 20.8352973967, 
			 "total_energy": -612.141062215, 
			 "HOMO_LUMO_gap": 0.1635, 
			 "cosmo_polarized_energy": -14.65, 
			 "cosmo_cavitation_energy": 30.23, 
			 "cosmo_dispersion_energy": -22.57, 
			 "cosmo_repulsion_energy": 1.75, 
			 "cosmo_total_nonelectrostatic_energy": 9.41, 
			 "SMD_solvation_energy": 4.2 
		},
		"coords": [
			{
				"x": 3.6838264021,
				"y": -3.2746318165,
				"z": -2.2360262719,
				"element": "N" 
			},
			{
				"x": 2.5637268236,
				"y": -2.4347909795,
				"z": -2.1816201105,
				"element": "C" 
			},
			{
				"x": 1.6799197976,
				"y": -2.4961155345,
				"z": -1.0864297026,
				"element": "C" 
			},
			{
				"x": 0.6101844912,
				"y": -1.6163143526,
				"z": -1.0214629235,
				"element": "C" 
			},
			{
				"x": 0.3880782981,
				"y": -0.6580558153,
				"z": -2.0334111661,
				"element": "C" 
			},
			{
				"x": 1.2632994827,
				"y": -0.5952446468,
				"z": -3.1197436701,
				"element": "C" 
			},
			{
				"x": 2.3401640792,
				"y": -1.4778434985,
				"z": -3.1893052226,
				"element": "C" 
			},
			{
				"x": -0.8090578093,
				"y": 0.1176993878,
				"z": -1.692908507,
				"element": "C" 
			},
			{
				"x": -1.3262427859,
				"y": -0.3603469474,
				"z": -0.4699567644,
				"element": "C" 
			},
			{
				"x": -0.4624306743,
				"y": -1.4964946294,
				"z": 0.0450056827,
				"element": "C" 
			},
			{
				"x": -2.4622119114,
				"y": 0.1967852411,
				"z": 0.0973153418,
				"element": "C" 
			},
			{
				"x": -3.1149090342,
				"y": 1.2599285277,
				"z": -0.5569185455,
				"element": "C" 
			},
			{
				"x": -4.2972126833,
				"y": 1.7967004259,
				"z": -0.0306579739,
				"element": "N" 
			},
			{
				"x": -2.5972387253,
				"y": 1.7345327704,
				"z": -1.7767318618,
				"element": "C" 
			},
			{
				"x": -1.4548446211,
				"y": 1.1712305214,
				"z": -2.3433764962,
				"element": "C" 
			},
			{
				"x": 3.5842457376,
				"y": -4.1421800593,
				"z": -1.7259415887,
				"element": "H" 
			},
			{
				"x": 4.0433111042,
				"y": -3.4364059078,
				"z": -3.1672905867,
				"element": "H" 
			},
			{
				"x": 1.8480212009,
				"y": -3.2302242903,
				"z": -0.3006691061,
				"element": "H" 
			},
			{
				"x": 1.1140232807,
				"y": 0.1311533086,
				"z": -3.9143387806,
				"element": "H" 
			},
			{
				"x": 3.0255817395,
				"y": -1.4282176175,
				"z": -4.032233248,
				"element": "H" 
			},
			{
				"x": -1.0345532856,
				"y": -2.427176809,
				"z": 0.1583205567,
				"element": "H" 
			},
			{
				"x": -0.0355643995,
				"y": -1.2728921461,
				"z": 1.0319818796,
				"element": "H" 
			},
			{
				"x": -2.8583443995,
				"y": -0.1790893698,
				"z": 1.0387994234,
				"element": "H" 
			},
			{
				"x": -4.4950393889,
				"y": 2.7445613323,
				"z": -0.3223340341,
				"element": "H" 
			},
			{
				"x": -4.3972073325,
				"y": 1.6929976543,
				"z": 0.9703367151,
				"element": "H" 
			},
			{
				"x": -3.104386056,
				"y": 2.5523853199,
				"z": -2.2833926892,
				"element": "H" 
			},
			{
				"x": -1.0763393308,
				"y": 1.5605499307,
				"z": -3.2849103498,
				"element": "H" 
			}
		],
		 "valence_orbital": [ 
			{
				"type": "occ",
				"energy": -0.28334,
				"method": "rhf"
			},
			{
				"type": "occ",
				"energy": -0.23774,
				"method": "rhf"
			},
			{
				"type": "occ",
				"energy": -0.23021,
				"method": "rhf"
			},
			{
				"type": "occ",
				"energy": -0.21697,
				"method": "rhf"
			},
			{
				"type": "occ",
				"energy": -0.16714,
				"method": "rhf"
			},
			{
				"type": "unocc",
				"energy": -0.00364,
				"method": "rhf"
			},
			{
				"type": "unocc",
				"energy": 0.00364,
				"method": "rhf"
			},
			{
				"type": "unocc",
				"energy": 0.02121,
				"method": "rhf"
			},
			{
				"type": "unocc",
				"energy": 0.0639,
				"method": "rhf"
			},
			{
				"type": "unocc",
				"energy": 0.08516,
				"method": "rhf"
			}
		],
		"cosmo_sigma_profile": { 
			"-0.025": 0.0,
			"-0.024": 0.0,
			"-0.023": 0.0,
			"-0.022": 0.0,
			"-0.021": 0.0,
			"-0.02": 0.0,
			"-0.019": 0.0,
			"-0.018": 0.0,
			"-0.017": 0.0,
			"-0.016": 0.0,
			"-0.015": 0.0,
			"-0.014": 0.0,
			"-0.013": 0.0980569695546,
			"-0.012": 3.49037131879,
			"-0.011": 5.12655817712,
			"-0.01": 5.67479984487,
			"-0.009": 6.13631877449,
			"-0.008": 6.04988407797,
			"-0.007": 5.66546360612,
			"-0.006": 7.64207711001,
			"-0.005": 15.7350805188,
			"-0.004": 16.8674421098,
			"-0.003": 15.8687127046,
			"-0.002": 17.121788111,
			"-0.001": 12.7644274657,
			"0.0": 11.9655241543,
			"0.001": 9.5262466758,
			"0.002": 10.1580837847,
			"0.003": 10.6207410987,
			"0.004": 12.3607803671,
			"0.005": 15.6301130878,
			"0.006": 18.4499400866,
			"0.007": 18.8390544958,
			"0.008": 4.33167980198,
			"0.009": 1.7790271048,
			"0.01": 1.20349339141,
			"0.011": 1.41717971706,
			"0.012": 0.912109666045,
			"0.013": 2.16052654187,
			"0.014": 1.2150338879,
			"0.015": 0.915987089611,
			"0.016": 0.111789881646,
			"0.017": 0.0,
			"0.018": 0.0,
			"0.019": 0.0,
			"0.02": 0.0,
			"0.021": 0.0,
			"0.022": 0.0,
			"0.023": 0.0,
			"0.024": 0.0,
			"0.025": 0.0
		}
	}
}
