{
	 "smiles": "ClC1=CC=C(C=C1)C1=CSC(=N1)C(=C/C1=CC=CS1)C#N", 
	 "Tm": 443.15, 
	 "num_atms": 30, 
	 "gaussian": { 
		 "optdone": 1, 
		 "sigma_profile": "yes", 
		 "theory": "DFT", 
		 "functional": "B3LYP", 
		 "basiset": "6-31G**", 
		 "properties": { 
			 "R2extent": 11225.2268, 
			 "electric_dipole_moment_norm": 3.41096621209, 
			 "electric_quadrupole_moment_norm": 35.3453684973, 
			 "total_energy": -1981.1505959, 
			 "HOMO_LUMO_gap": 0.12324, 
			 "cosmo_polarized_energy": -12.56, 
			 "cosmo_cavitation_energy": 41.49, 
			 "cosmo_dispersion_energy": -29.83, 
			 "cosmo_repulsion_energy": 2.15, 
			 "cosmo_total_nonelectrostatic_energy": 13.81, 
			 "SMD_solvation_energy": 7.16 
		},
		"coords": [
			{
				"x": 1.2456019207,
				"y": -4.8834720448,
				"z": -0.1869944703,
				"element": "Cl" 
			},
			{
				"x": 0.310085784,
				"y": -3.4593518389,
				"z": 0.2398112979,
				"element": "C" 
			},
			{
				"x": 0.9168109699,
				"y": -2.2039158375,
				"z": 0.2140744677,
				"element": "C" 
			},
			{
				"x": 0.1688215733,
				"y": -1.0786840024,
				"z": 0.5518793223,
				"element": "C" 
			},
			{
				"x": -1.1824814775,
				"y": -1.1902116677,
				"z": 0.9170814168,
				"element": "C" 
			},
			{
				"x": -1.7686268068,
				"y": -2.4660196697,
				"z": 0.9279246896,
				"element": "C" 
			},
			{
				"x": -1.03161196,
				"y": -3.5995405897,
				"z": 0.5950718972,
				"element": "C" 
			},
			{
				"x": -1.9528086674,
				"y": 0.0119012748,
				"z": 1.2886709797,
				"element": "C" 
			},
			{
				"x": -3.0644983793,
				"y": 0.0400524067,
				"z": 2.0995704699,
				"element": "C" 
			},
			{
				"x": -3.6392474145,
				"y": 1.6498019847,
				"z": 2.3023726665,
				"element": "S" 
			},
			{
				"x": -2.3227744081,
				"y": 2.2137374164,
				"z": 1.2594511952,
				"element": "C" 
			},
			{
				"x": -1.5523812784,
				"y": 1.2475509664,
				"z": 0.8305094894,
				"element": "N" 
			},
			{
				"x": -2.1930811011,
				"y": 3.6413846215,
				"z": 0.969444309,
				"element": "C" 
			},
			{
				"x": -1.3607331019,
				"y": 4.3009730342,
				"z": 0.0928875336,
				"element": "C" 
			},
			{
				"x": -0.3814683826,
				"y": 3.8816137525,
				"z": -0.8673230008,
				"element": "C" 
			},
			{
				"x": 0.086509706,
				"y": 2.64663508,
				"z": -1.2964067158,
				"element": "C" 
			},
			{
				"x": 1.0565731559,
				"y": 2.740045115,
				"z": -2.3222963584,
				"element": "C" 
			},
			{
				"x": 1.3415488197,
				"y": 4.0365129259,
				"z": -2.6811402126,
				"element": "C" 
			},
			{
				"x": 0.4220453745,
				"y": 5.1700774082,
				"z": -1.771474289,
				"element": "S" 
			},
			{
				"x": -3.0773191023,
				"y": 4.4911934129,
				"z": 1.7190830408,
				"element": "C" 
			},
			{
				"x": -3.7996342269,
				"y": 5.1745101851,
				"z": 2.3253278467,
				"element": "N" 
			},
			{
				"x": 1.9617892033,
				"y": -2.1111959614,
				"z": -0.0604903705,
				"element": "H" 
			},
			{
				"x": 0.6363804839,
				"y": -0.1001632879,
				"z": 0.5487665004,
				"element": "H" 
			},
			{
				"x": -2.8197217345,
				"y": -2.5771947599,
				"z": 1.1763584991,
				"element": "H" 
			},
			{
				"x": -1.4934664508,
				"y": -4.5805357107,
				"z": 0.5995588406,
				"element": "H" 
			},
			{
				"x": -3.5413968347,
				"y": -0.7848939415,
				"z": 2.6084237691,
				"element": "H" 
			},
			{
				"x": -1.4900839248,
				"y": 5.3807094903,
				"z": 0.1272740611,
				"element": "H" 
			},
			{
				"x": -0.2771850522,
				"y": 1.726354375,
				"z": -0.8624840737,
				"element": "H" 
			},
			{
				"x": 1.5310864967,
				"y": 1.8802270813,
				"z": -2.7809646704,
				"element": "H" 
			},
			{
				"x": 2.0437668162,
				"y": 4.3813987815,
				"z": -3.4279681309,
				"element": "H" 
			}
		],
		 "valence_orbital": [ 
			{
				"type": "occ",
				"energy": -0.28565,
				"method": "rhf"
			},
			{
				"type": "occ",
				"energy": -0.27244,
				"method": "rhf"
			},
			{
				"type": "occ",
				"energy": -0.27136,
				"method": "rhf"
			},
			{
				"type": "occ",
				"energy": -0.24524,
				"method": "rhf"
			},
			{
				"type": "occ",
				"energy": -0.21964,
				"method": "rhf"
			},
			{
				"type": "unocc",
				"energy": -0.0964,
				"method": "rhf"
			},
			{
				"type": "unocc",
				"energy": -0.04855,
				"method": "rhf"
			},
			{
				"type": "unocc",
				"energy": -0.02459,
				"method": "rhf"
			},
			{
				"type": "unocc",
				"energy": -0.01851,
				"method": "rhf"
			},
			{
				"type": "unocc",
				"energy": -0.0052,
				"method": "rhf"
			}
		],
		"cosmo_sigma_profile": { 
			"-0.025": 0.0,
			"-0.024": 0.0,
			"-0.023": 0.0,
			"-0.022": 0.0,
			"-0.021": 0.0,
			"-0.02": 0.0,
			"-0.019": 0.0,
			"-0.018": 0.0,
			"-0.017": 0.0,
			"-0.016": 0.0,
			"-0.015": 0.0,
			"-0.014": 0.0,
			"-0.013": 0.0,
			"-0.012": 0.0,
			"-0.011": 0.0,
			"-0.01": 2.50724676727,
			"-0.009": 7.12365926578,
			"-0.008": 8.15164406197,
			"-0.007": 12.184504068,
			"-0.006": 13.8146975958,
			"-0.005": 13.6424017245,
			"-0.004": 15.0176279705,
			"-0.003": 17.9333192723,
			"-0.002": 18.9201730092,
			"-0.001": 26.3808582542,
			"0.0": 30.9183357608,
			"0.001": 44.4118440367,
			"0.002": 46.167203325,
			"0.003": 38.3404841981,
			"0.004": 18.6588415563,
			"0.005": 8.9938463715,
			"0.006": 2.52047065965,
			"0.007": 2.69070543411,
			"0.008": 2.95265642564,
			"0.009": 3.00878570176,
			"0.01": 3.29343035205,
			"0.011": 2.43165867559,
			"0.012": 2.44984213491,
			"0.013": 1.22478969121,
			"0.014": 0.00807795817562,
			"0.015": 0.0,
			"0.016": 0.0,
			"0.017": 0.0,
			"0.018": 0.0,
			"0.019": 0.0,
			"0.02": 0.0,
			"0.021": 0.0,
			"0.022": 0.0,
			"0.023": 0.0,
			"0.024": 0.0,
			"0.025": 0.0
		}
	}
}
