{
	 "smiles": "NC1=C2C(OC(=C2C2=CC=CC=C2)C2=CC=CC=C2)=NC(CCl)=N1", 
	 "Tm": 475.15, 
	 "num_atms": 38, 
	 "gaussian": { 
		 "optdone": 1, 
		 "sigma_profile": "yes", 
		 "theory": "DFT", 
		 "functional": "B3LYP", 
		 "basiset": "6-31G**", 
		 "properties": { 
			 "R2extent": 10262.5269, 
			 "electric_dipole_moment_norm": 6.6245673821, 
			 "electric_quadrupole_moment_norm": 25.4219638083, 
			 "total_energy": -1432.15774033, 
			 "HOMO_LUMO_gap": 0.15031, 
			 "cosmo_polarized_energy": -15.49, 
			 "cosmo_cavitation_energy": 44.27, 
			 "cosmo_dispersion_energy": -31.26, 
			 "cosmo_repulsion_energy": 2.4, 
			 "cosmo_total_nonelectrostatic_energy": 15.4, 
			 "SMD_solvation_energy": 3.82 
		},
		"coords": [
			{
				"x": 2.5425763436,
				"y": 0.3645627946,
				"z": 2.7161579538,
				"element": "N" 
			},
			{
				"x": 2.5120080357,
				"y": 1.0431177336,
				"z": 1.5415932759,
				"element": "C" 
			},
			{
				"x": 1.5494883931,
				"y": 0.8085328987,
				"z": 0.526804097,
				"element": "C" 
			},
			{
				"x": 1.7134836014,
				"y": 1.5944977747,
				"z": -0.6159495724,
				"element": "C" 
			},
			{
				"x": 0.7833287276,
				"y": 1.2616831956,
				"z": -1.5445133953,
				"element": "O" 
			},
			{
				"x": 0.0027480886,
				"y": 0.2513921228,
				"z": -1.0037743119,
				"element": "C" 
			},
			{
				"x": 0.4347207707,
				"y": -0.0738140361,
				"z": 0.2641379619,
				"element": "C" 
			},
			{
				"x": -0.0720752956,
				"y": -1.1336969058,
				"z": 1.1664509888,
				"element": "C" 
			},
			{
				"x": -0.5377068753,
				"y": -0.8137191013,
				"z": 2.4546324418,
				"element": "C" 
			},
			{
				"x": -0.9833585933,
				"y": -1.815189488,
				"z": 3.3202393967,
				"element": "C" 
			},
			{
				"x": -0.9756136589,
				"y": -3.1501533149,
				"z": 2.9123026055,
				"element": "C" 
			},
			{
				"x": -0.5180844569,
				"y": -3.4790778864,
				"z": 1.6339011563,
				"element": "C" 
			},
			{
				"x": -0.0664820102,
				"y": -2.4821271534,
				"z": 0.7701851458,
				"element": "C" 
			},
			{
				"x": -1.0830019029,
				"y": -0.212747397,
				"z": -1.8665148714,
				"element": "C" 
			},
			{
				"x": -2.2209521983,
				"y": -0.8520475939,
				"z": -1.3403205084,
				"element": "C" 
			},
			{
				"x": -3.2416524579,
				"y": -1.2818247895,
				"z": -2.1844865919,
				"element": "C" 
			},
			{
				"x": -3.1539104987,
				"y": -1.0760304824,
				"z": -3.5633423867,
				"element": "C" 
			},
			{
				"x": -2.0355343548,
				"y": -0.4290862627,
				"z": -4.093066792,
				"element": "C" 
			},
			{
				"x": -1.0088931883,
				"y": 0.0008008281,
				"z": -3.2560980991,
				"element": "C" 
			},
			{
				"x": 2.6238312638,
				"y": 2.5319511051,
				"z": -0.835298593,
				"element": "N" 
			},
			{
				"x": 3.4533650618,
				"y": 2.6795118723,
				"z": 0.2068557249,
				"element": "C" 
			},
			{
				"x": 4.5128679011,
				"y": 3.7372700539,
				"z": 0.0708749538,
				"element": "C" 
			},
			{
				"x": 3.9867220499,
				"y": 5.3059391969,
				"z": 0.8475663357,
				"element": "Cl" 
			},
			{
				"x": 3.4507539015,
				"y": 1.9868506616,
				"z": 1.3559334422,
				"element": "N" 
			},
			{
				"x": 1.9415789073,
				"y": -0.4260839607,
				"z": 2.8795195984,
				"element": "H" 
			},
			{
				"x": 3.3110013605,
				"y": 0.5511668283,
				"z": 3.3406632682,
				"element": "H" 
			},
			{
				"x": -0.5617013959,
				"y": 0.2260023295,
				"z": 2.7687818859,
				"element": "H" 
			},
			{
				"x": -1.3443889672,
				"y": -1.5490233484,
				"z": 4.3095817668,
				"element": "H" 
			},
			{
				"x": -1.3235856279,
				"y": -3.9285479732,
				"z": 3.5849119944,
				"element": "H" 
			},
			{
				"x": -0.5054077827,
				"y": -4.5159970926,
				"z": 1.3106430207,
				"element": "H" 
			},
			{
				"x": 0.2974988286,
				"y": -2.7412607633,
				"z": -0.2191815763,
				"element": "H" 
			},
			{
				"x": -2.3121805181,
				"y": -0.9975931623,
				"z": -0.2704568737,
				"element": "H" 
			},
			{
				"x": -4.1148986071,
				"y": -1.7698229487,
				"z": -1.7612875712,
				"element": "H" 
			},
			{
				"x": -3.9533967176,
				"y": -1.4106234835,
				"z": -4.2178351685,
				"element": "H" 
			},
			{
				"x": -1.9607322758,
				"y": -0.2581369995,
				"z": -5.1630657354,
				"element": "H" 
			},
			{
				"x": -0.1428706662,
				"y": 0.5052832759,
				"z": -3.6697080662,
				"element": "H" 
			},
			{
				"x": 4.6959031234,
				"y": 3.962506493,
				"z": -0.9778585329,
				"element": "H" 
			},
			{
				"x": 5.4266516913,
				"y": 3.4419349791,
				"z": 0.5837216318,
				"element": "H" 
			}
		],
		 "valence_orbital": [ 
			{
				"type": "occ",
				"energy": -0.26348,
				"method": "rhf"
			},
			{
				"type": "occ",
				"energy": -0.25996,
				"method": "rhf"
			},
			{
				"type": "occ",
				"energy": -0.25596,
				"method": "rhf"
			},
			{
				"type": "occ",
				"energy": -0.25301,
				"method": "rhf"
			},
			{
				"type": "occ",
				"energy": -0.20559,
				"method": "rhf"
			},
			{
				"type": "unocc",
				"energy": -0.05528,
				"method": "rhf"
			},
			{
				"type": "unocc",
				"energy": -0.02675,
				"method": "rhf"
			},
			{
				"type": "unocc",
				"energy": -0.0221,
				"method": "rhf"
			},
			{
				"type": "unocc",
				"energy": -0.00857,
				"method": "rhf"
			},
			{
				"type": "unocc",
				"energy": -0.00429,
				"method": "rhf"
			}
		],
		"cosmo_sigma_profile": { 
			"-0.025": 0.0,
			"-0.024": 0.0,
			"-0.023": 0.0,
			"-0.022": 0.0,
			"-0.021": 0.0,
			"-0.02": 0.0,
			"-0.019": 0.0,
			"-0.018": 0.0,
			"-0.017": 0.0,
			"-0.016": 0.0,
			"-0.015": 0.0140601924307,
			"-0.014": 1.07760053615,
			"-0.013": 0.80856935929,
			"-0.012": 1.2583143155,
			"-0.011": 1.90440091349,
			"-0.01": 1.70414598052,
			"-0.009": 2.27690772967,
			"-0.008": 2.76283386157,
			"-0.007": 5.06190089141,
			"-0.006": 19.5239414299,
			"-0.005": 25.0073479596,
			"-0.004": 28.7474746469,
			"-0.003": 22.6502927852,
			"-0.002": 24.9126596433,
			"-0.001": 26.4341445807,
			"0.0": 31.0504224475,
			"0.001": 26.7350676544,
			"0.002": 25.1820729961,
			"0.003": 26.3731894667,
			"0.004": 25.8643076482,
			"0.005": 22.4807519814,
			"0.006": 15.123495639,
			"0.007": 7.84594028239,
			"0.008": 3.15015069241,
			"0.009": 2.44309018572,
			"0.01": 2.01849530655,
			"0.011": 1.50883440317,
			"0.012": 1.99440393607,
			"0.013": 1.18883177219,
			"0.014": 0.860212354328,
			"0.015": 0.113474195181,
			"0.016": 0.0,
			"0.017": 0.0,
			"0.018": 0.0,
			"0.019": 0.0,
			"0.02": 0.0,
			"0.021": 0.0,
			"0.022": 0.0,
			"0.023": 0.0,
			"0.024": 0.0,
			"0.025": 0.0
		}
	}
}
