{
	 "smiles": "CNC1=C(F)C(F)=C(C(F)=C1F)C1=C(F)C(F)=C(F)C(F)=C1F", 
	 "Tm": 345.15, 
	 "num_atms": 27, 
	 "gaussian": { 
		 "optdone": 1, 
		 "sigma_profile": "yes", 
		 "theory": "DFT", 
		 "functional": "B3LYP", 
		 "basiset": "6-31G**", 
		 "properties": { 
			 "R2extent": 8262.269, 
			 "electric_dipole_moment_norm": 4.01648984313, 
			 "electric_quadrupole_moment_norm": 14.8995047901, 
			 "total_energy": -1450.99823892, 
			 "HOMO_LUMO_gap": 0.1753, 
			 "cosmo_polarized_energy": -6.11, 
			 "cosmo_cavitation_energy": 36.53, 
			 "cosmo_dispersion_energy": -25.09, 
			 "cosmo_repulsion_energy": 1.73, 
			 "cosmo_total_nonelectrostatic_energy": 13.17, 
			 "SMD_solvation_energy": 9.37 
		},
		"coords": [
			{
				"x": -1.1794215825,
				"y": -0.640997215,
				"z": -5.0513295595,
				"element": "C" 
			},
			{
				"x": -1.3550421861,
				"y": 0.2025191665,
				"z": -3.8729487736,
				"element": "N" 
			},
			{
				"x": -0.6884174642,
				"y": 0.0129629852,
				"z": -2.683527887,
				"element": "C" 
			},
			{
				"x": -0.1930295939,
				"y": -1.2150856544,
				"z": -2.2126170225,
				"element": "C" 
			},
			{
				"x": -0.3316239664,
				"y": -2.3374339837,
				"z": -2.9512967104,
				"element": "F" 
			},
			{
				"x": 0.430237018,
				"y": -1.3187613389,
				"z": -0.9746314909,
				"element": "C" 
			},
			{
				"x": 0.8563868658,
				"y": -2.5313636904,
				"z": -0.5912083979,
				"element": "F" 
			},
			{
				"x": 0.601873997,
				"y": -0.223531098,
				"z": -0.1217954,
				"element": "C" 
			},
			{
				"x": 0.1068888554,
				"y": 1.0020722916,
				"z": -0.5884597855,
				"element": "C" 
			},
			{
				"x": 0.2536052634,
				"y": 2.109003249,
				"z": 0.1543364253,
				"element": "F" 
			},
			{
				"x": -0.514996644,
				"y": 1.1117570218,
				"z": -1.8185409039,
				"element": "C" 
			},
			{
				"x": -0.959602275,
				"y": 2.3183245805,
				"z": -2.240201654,
				"element": "F" 
			},
			{
				"x": 1.263988684,
				"y": -0.3502132333,
				"z": 1.1922635779,
				"element": "C" 
			},
			{
				"x": 0.6487680552,
				"y": 0.0996270641,
				"z": 2.3672307126,
				"element": "C" 
			},
			{
				"x": -0.575260929,
				"y": 0.6401425794,
				"z": 2.3173537605,
				"element": "F" 
			},
			{
				"x": 1.2666532617,
				"y": -0.0076341412,
				"z": 3.6096921716,
				"element": "C" 
			},
			{
				"x": 0.6506571895,
				"y": 0.4302621385,
				"z": 4.7131577354,
				"element": "F" 
			},
			{
				"x": 2.5284290509,
				"y": -0.5904176704,
				"z": 3.7031205061,
				"element": "C" 
			},
			{
				"x": 3.126723197,
				"y": -0.7041560737,
				"z": 4.8909883758,
				"element": "F" 
			},
			{
				"x": 3.164396567,
				"y": -1.0540811141,
				"z": 2.5537858468,
				"element": "C" 
			},
			{
				"x": 4.3798244045,
				"y": -1.6056290173,
				"z": 2.640290753,
				"element": "F" 
			},
			{
				"x": 2.5351469057,
				"y": -0.9241582426,
				"z": 1.3192146405,
				"element": "C" 
			},
			{
				"x": 3.1873887475,
				"y": -1.354921924,
				"z": 0.2320008532,
				"element": "F" 
			},
			{
				"x": -1.7789034979,
				"y": -0.2140629977,
				"z": -5.8577784426,
				"element": "H" 
			},
			{
				"x": -1.5340420687,
				"y": -1.6536709873,
				"z": -4.85941941,
				"element": "H" 
			},
			{
				"x": -0.1343651869,
				"y": -0.6975128609,
				"z": -5.3862953952,
				"element": "H" 
			},
			{
				"x": -1.511562668,
				"y": 1.1808601663,
				"z": -4.0690845258,
				"element": "H" 
			}
		],
		 "valence_orbital": [ 
			{
				"type": "occ",
				"energy": -0.31963,
				"method": "rhf"
			},
			{
				"type": "occ",
				"energy": -0.27027,
				"method": "rhf"
			},
			{
				"type": "occ",
				"energy": -0.25639,
				"method": "rhf"
			},
			{
				"type": "occ",
				"energy": -0.25052,
				"method": "rhf"
			},
			{
				"type": "occ",
				"energy": -0.22069,
				"method": "rhf"
			},
			{
				"type": "unocc",
				"energy": -0.04539,
				"method": "rhf"
			},
			{
				"type": "unocc",
				"energy": -0.01607,
				"method": "rhf"
			},
			{
				"type": "unocc",
				"energy": -0.0077,
				"method": "rhf"
			},
			{
				"type": "unocc",
				"energy": -0.00167,
				"method": "rhf"
			},
			{
				"type": "unocc",
				"energy": 0.01088,
				"method": "rhf"
			}
		],
		"cosmo_sigma_profile": { 
			"-0.025": 0.0,
			"-0.024": 0.0,
			"-0.023": 0.0,
			"-0.022": 0.0,
			"-0.021": 0.0,
			"-0.02": 0.0,
			"-0.019": 0.0,
			"-0.018": 0.0,
			"-0.017": 0.0,
			"-0.016": 0.0,
			"-0.015": 0.0,
			"-0.014": 0.10235247157,
			"-0.013": 0.684340845043,
			"-0.012": 1.02945095817,
			"-0.011": 0.874389497322,
			"-0.01": 1.01416957526,
			"-0.009": 1.40860598297,
			"-0.008": 1.14997780496,
			"-0.007": 1.51229044235,
			"-0.006": 3.53410588585,
			"-0.005": 6.0365465248,
			"-0.004": 18.44865519,
			"-0.003": 24.1006556602,
			"-0.002": 33.3088178991,
			"-0.001": 33.1923565726,
			"0.0": 21.0813521107,
			"0.001": 22.5829838044,
			"0.002": 52.4427733134,
			"0.003": 58.1572926853,
			"0.004": 12.6288371367,
			"0.005": 0.64068103112,
			"0.006": 0.906297105183,
			"0.007": 0.730468785976,
			"0.008": 0.386171380037,
			"0.009": 0.337954120309,
			"0.01": 0.00660892659735,
			"0.011": 0.0,
			"0.012": 0.0,
			"0.013": 0.0,
			"0.014": 0.0,
			"0.015": 0.0,
			"0.016": 0.0,
			"0.017": 0.0,
			"0.018": 0.0,
			"0.019": 0.0,
			"0.02": 0.0,
			"0.021": 0.0,
			"0.022": 0.0,
			"0.023": 0.0,
			"0.024": 0.0,
			"0.025": 0.0
		}
	}
}
