{
	 "smiles": "COC1=C(SC(C)=C1)C(O)=O", 
	 "Tm": 433.15, 
	 "num_atms": 19, 
	 "gaussian": { 
		 "optdone": 1, 
		 "sigma_profile": "yes", 
		 "theory": "DFT", 
		 "functional": "B3LYP", 
		 "basiset": "6-31G**", 
		 "properties": { 
			 "R2extent": 2241.7603, 
			 "electric_dipole_moment_norm": 6.66687358962, 
			 "electric_quadrupole_moment_norm": 18.440229369, 
			 "total_energy": -895.403550739, 
			 "HOMO_LUMO_gap": 0.17542, 
			 "cosmo_polarized_energy": -18.5, 
			 "cosmo_cavitation_energy": 24.84, 
			 "cosmo_dispersion_energy": -18.82, 
			 "cosmo_repulsion_energy": 1.48, 
			 "cosmo_total_nonelectrostatic_energy": 7.5, 
			 "SMD_solvation_energy": 6.15 
		},
		"coords": [
			{
				"x": -0.1686542503,
				"y": 1.7783709774,
				"z": 3.1333870667,
				"element": "C" 
			},
			{
				"x": -0.0896521596,
				"y": 1.9442897611,
				"z": 1.7222397652,
				"element": "O" 
			},
			{
				"x": 0.158328326,
				"y": 0.8571632362,
				"z": 0.9703525386,
				"element": "C" 
			},
			{
				"x": 0.2501675725,
				"y": 0.9404159026,
				"z": -0.4139919043,
				"element": "C" 
			},
			{
				"x": 0.5799837753,
				"y": -0.6519316708,
				"z": -1.0828002288,
				"element": "S" 
			},
			{
				"x": 0.5901413953,
				"y": -1.3981658605,
				"z": 0.4863904062,
				"element": "C" 
			},
			{
				"x": 0.834963848,
				"y": -2.868094887,
				"z": 0.6478048741,
				"element": "C" 
			},
			{
				"x": 0.3528445846,
				"y": -0.4726538972,
				"z": 1.4674670287,
				"element": "C" 
			},
			{
				"x": 0.1008746543,
				"y": 2.1535323039,
				"z": -1.2336141165,
				"element": "C" 
			},
			{
				"x": 0.2295848219,
				"y": 2.0101484782,
				"z": -2.5891739754,
				"element": "O" 
			},
			{
				"x": -0.1274306595,
				"y": 3.2499010772,
				"z": -0.7775749633,
				"element": "O" 
			},
			{
				"x": 0.7763206419,
				"y": 1.4068835087,
				"z": 3.5486351852,
				"element": "H" 
			},
			{
				"x": -0.9826667265,
				"y": 1.0985966875,
				"z": 3.4139139218,
				"element": "H" 
			},
			{
				"x": -0.3733837263,
				"y": 2.7705592041,
				"z": 3.5360718258,
				"element": "H" 
			},
			{
				"x": 1.815705303,
				"y": -3.1605213993,
				"z": 0.2570234795,
				"element": "H" 
			},
			{
				"x": 0.8002394985,
				"y": -3.1354839592,
				"z": 1.7070895771,
				"element": "H" 
			},
			{
				"x": 0.0801462755,
				"y": -3.4642556919,
				"z": 0.1234780545,
				"element": "H" 
			},
			{
				"x": 0.3189969001,
				"y": -0.7395306322,
				"z": 2.5161375159,
				"element": "H" 
			},
			{
				"x": 0.4101899253,
				"y": 1.0950768614,
				"z": -2.8457360511,
				"element": "H" 
			}
		],
		 "valence_orbital": [ 
			{
				"type": "occ",
				"energy": -0.33356,
				"method": "rhf"
			},
			{
				"type": "occ",
				"energy": -0.2994,
				"method": "rhf"
			},
			{
				"type": "occ",
				"energy": -0.25946,
				"method": "rhf"
			},
			{
				"type": "occ",
				"energy": -0.25593,
				"method": "rhf"
			},
			{
				"type": "occ",
				"energy": -0.22409,
				"method": "rhf"
			},
			{
				"type": "unocc",
				"energy": -0.04867,
				"method": "rhf"
			},
			{
				"type": "unocc",
				"energy": -0.00409,
				"method": "rhf"
			},
			{
				"type": "unocc",
				"energy": 0.03694,
				"method": "rhf"
			},
			{
				"type": "unocc",
				"energy": 0.05597,
				"method": "rhf"
			},
			{
				"type": "unocc",
				"energy": 0.0918,
				"method": "rhf"
			}
		],
		"cosmo_sigma_profile": { 
			"-0.025": 0.0,
			"-0.024": 0.0,
			"-0.023": 0.0,
			"-0.022": 0.0,
			"-0.021": 0.0,
			"-0.02": 0.0,
			"-0.019": 0.0,
			"-0.018": 0.00665793111224,
			"-0.017": 0.592599598303,
			"-0.016": 0.687397759395,
			"-0.015": 0.650423124547,
			"-0.014": 0.831282726575,
			"-0.013": 0.826029074,
			"-0.012": 0.589578617772,
			"-0.011": 1.54929421,
			"-0.01": 1.13622510079,
			"-0.009": 0.588024957922,
			"-0.008": 1.76653933309,
			"-0.007": 5.6056405281,
			"-0.006": 16.1746177289,
			"-0.005": 18.149601622,
			"-0.004": 19.2698935384,
			"-0.003": 14.457251961,
			"-0.002": 14.5282595109,
			"-0.001": 12.3195930445,
			"0.0": 9.57653067139,
			"0.001": 10.5486479153,
			"0.002": 15.5447460628,
			"0.003": 9.80720915224,
			"0.004": 5.70326478758,
			"0.005": 2.80526352829,
			"0.006": 2.14247034348,
			"0.007": 3.04442881027,
			"0.008": 2.59268529974,
			"0.009": 3.73639142961,
			"0.01": 3.4756914786,
			"0.011": 5.52349241501,
			"0.012": 5.13929529223,
			"0.013": 5.61636442653,
			"0.014": 2.51869676622,
			"0.015": 1.79354285174,
			"0.016": 0.307724992678,
			"0.017": 0.0,
			"0.018": 0.0,
			"0.019": 0.0,
			"0.02": 0.0,
			"0.021": 0.0,
			"0.022": 0.0,
			"0.023": 0.0,
			"0.024": 0.0,
			"0.025": 0.0
		}
	}
}
