{
	 "smiles": "COC1=C(OCC(O)=O)C=CC(C=CC)=C1", 
	 "Tm": 391.15, 
	 "num_atms": 30, 
	 "gaussian": { 
		 "optdone": 1, 
		 "sigma_profile": "yes", 
		 "theory": "DFT", 
		 "functional": "B3LYP", 
		 "basiset": "6-31G**", 
		 "properties": { 
			 "R2extent": 5464.8443, 
			 "electric_dipole_moment_norm": 5.72701140212, 
			 "electric_quadrupole_moment_norm": 27.9026646371, 
			 "total_energy": -766.583960949, 
			 "HOMO_LUMO_gap": 0.17684, 
			 "cosmo_polarized_energy": -14.68, 
			 "cosmo_cavitation_energy": 34.14, 
			 "cosmo_dispersion_energy": -24.23, 
			 "cosmo_repulsion_energy": 1.9, 
			 "cosmo_total_nonelectrostatic_energy": 11.82, 
			 "SMD_solvation_energy": 8.24 
		},
		"coords": [
			{
				"x": 2.7714503082,
				"y": -0.7506504088,
				"z": 1.3073656616,
				"element": "C" 
			},
			{
				"x": 2.3497296778,
				"y": 0.1235671467,
				"z": 0.2660250046,
				"element": "O" 
			},
			{
				"x": 1.0479693665,
				"y": 0.0579836765,
				"z": -0.1572298351,
				"element": "C" 
			},
			{
				"x": 0.7364661593,
				"y": 0.8794160556,
				"z": -1.2623435179,
				"element": "C" 
			},
			{
				"x": 1.7318846189,
				"y": 1.7016708706,
				"z": -1.7468985288,
				"element": "O" 
			},
			{
				"x": 2.1606838084,
				"y": 1.5194561435,
				"z": -3.0976054129,
				"element": "C" 
			},
			{
				"x": 3.5126780493,
				"y": 0.7976132951,
				"z": -3.1904315352,
				"element": "C" 
			},
			{
				"x": 4.0578557514,
				"y": 0.4110880307,
				"z": -2.0317604034,
				"element": "O" 
			},
			{
				"x": 4.0377717946,
				"y": 0.61091961,
				"z": -4.2623943496,
				"element": "O" 
			},
			{
				"x": -0.5533487823,
				"y": 0.8735723496,
				"z": -1.7783114274,
				"element": "C" 
			},
			{
				"x": -1.5329096581,
				"y": 0.0553717112,
				"z": -1.2128859625,
				"element": "C" 
			},
			{
				"x": -1.2461571412,
				"y": -0.7604949135,
				"z": -0.1095583498,
				"element": "C" 
			},
			{
				"x": -2.3180026481,
				"y": -1.5930327062,
				"z": 0.4562436882,
				"element": "C" 
			},
			{
				"x": -2.2718183311,
				"y": -2.355431736,
				"z": 1.5588819432,
				"element": "C" 
			},
			{
				"x": -3.414769929,
				"y": -3.1810394587,
				"z": 2.0697762577,
				"element": "C" 
			},
			{
				"x": 0.0659507851,
				"y": -0.7473448151,
				"z": 0.4090469164,
				"element": "C" 
			},
			{
				"x": 3.8361860125,
				"y": -0.5601625546,
				"z": 1.444748856,
				"element": "H" 
			},
			{
				"x": 2.6206844952,
				"y": -1.8012266581,
				"z": 1.032174716,
				"element": "H" 
			},
			{
				"x": 2.2399086003,
				"y": -0.5368605515,
				"z": 2.2419752919,
				"element": "H" 
			},
			{
				"x": 1.4286099185,
				"y": 0.9556135639,
				"z": -3.6841575262,
				"element": "H" 
			},
			{
				"x": 2.2783491184,
				"y": 2.5065152285,
				"z": -3.5536311857,
				"element": "H" 
			},
			{
				"x": 3.462878452,
				"y": 0.6342247739,
				"z": -1.28612012,
				"element": "H" 
			},
			{
				"x": -0.7903483766,
				"y": 1.5208076044,
				"z": -2.6172163496,
				"element": "H" 
			},
			{
				"x": -2.5372933396,
				"y": 0.0612392679,
				"z": -1.6258997834,
				"element": "H" 
			},
			{
				"x": -3.2540715957,
				"y": -1.5640898055,
				"z": -0.1020719088,
				"element": "H" 
			},
			{
				"x": -1.3574589819,
				"y": -2.3979567138,
				"z": 2.1505617198,
				"element": "H" 
			},
			{
				"x": -4.2982195588,
				"y": -3.0850773156,
				"z": 1.4316063468,
				"element": "H" 
			},
			{
				"x": -3.6962186211,
				"y": -2.8836760681,
				"z": 3.0883183968,
				"element": "H" 
			},
			{
				"x": -3.1457338594,
				"y": -4.2442132396,
				"z": 2.1200228798,
				"element": "H" 
			},
			{
				"x": 0.3140939065,
				"y": -1.3851023831,
				"z": 1.2480685174,
				"element": "H" 
			}
		],
		 "valence_orbital": [ 
			{
				"type": "occ",
				"energy": -0.29947,
				"method": "rhf"
			},
			{
				"type": "occ",
				"energy": -0.2888,
				"method": "rhf"
			},
			{
				"type": "occ",
				"energy": -0.25608,
				"method": "rhf"
			},
			{
				"type": "occ",
				"energy": -0.24674,
				"method": "rhf"
			},
			{
				"type": "occ",
				"energy": -0.21489,
				"method": "rhf"
			},
			{
				"type": "unocc",
				"energy": -0.03805,
				"method": "rhf"
			},
			{
				"type": "unocc",
				"energy": -0.0056,
				"method": "rhf"
			},
			{
				"type": "unocc",
				"energy": 0.02195,
				"method": "rhf"
			},
			{
				"type": "unocc",
				"energy": 0.05422,
				"method": "rhf"
			},
			{
				"type": "unocc",
				"energy": 0.06978,
				"method": "rhf"
			}
		],
		"cosmo_sigma_profile": { 
			"-0.025": 0.0,
			"-0.024": 0.0,
			"-0.023": 0.0,
			"-0.022": 0.0,
			"-0.021": 0.0,
			"-0.02": 0.0,
			"-0.019": 0.0,
			"-0.018": 0.0,
			"-0.017": 0.0,
			"-0.016": 0.0,
			"-0.015": 0.0,
			"-0.014": 0.0,
			"-0.013": 0.0,
			"-0.012": 0.0,
			"-0.011": 0.0,
			"-0.01": 0.0,
			"-0.009": 0.231378903077,
			"-0.008": 4.70344950399,
			"-0.007": 11.742929855,
			"-0.006": 18.8874392188,
			"-0.005": 23.7743687473,
			"-0.004": 25.9324365603,
			"-0.003": 22.9419609164,
			"-0.002": 17.7345437795,
			"-0.001": 17.080002553,
			"0.0": 18.6075883279,
			"0.001": 14.0995204074,
			"0.002": 12.4530315882,
			"0.003": 13.8653969257,
			"0.004": 16.6589307905,
			"0.005": 14.0311476324,
			"0.006": 6.52999140805,
			"0.007": 4.61332591006,
			"0.008": 4.35220916705,
			"0.009": 3.99217182,
			"0.01": 5.55020025382,
			"0.011": 4.45963326117,
			"0.012": 6.35701904016,
			"0.013": 2.49862912565,
			"0.014": 0.194286241678,
			"0.015": 0.0,
			"0.016": 0.0,
			"0.017": 0.0,
			"0.018": 0.0,
			"0.019": 0.0,
			"0.02": 0.0,
			"0.021": 0.0,
			"0.022": 0.0,
			"0.023": 0.0,
			"0.024": 0.0,
			"0.025": 0.0
		}
	}
}
