{
	 "smiles": "IC1=CC=C(I)S1", 
	 "Tm": 314.35, 
	 "num_atms": 9, 
	 "gaussian": { 
		 "optdone": 1, 
		 "sigma_profile": "no", 
		 "theory": "DFT", 
		 "functional": "B3LYP", 
		 "basiset": "6-31G**", 
		 "properties": { 
			 "R2extent": 1333.5803, 
			 "electric_dipole_moment_norm": 1.06831882881, 
			 "electric_quadrupole_moment_norm": 6.18677434452, 
			 "total_energy": -574.561931034, 
			 "HOMO_LUMO_gap": 0.16555, 
			 "cosmo_polarized_energy": -196263.54, 
			 "cosmo_cavitation_energy": 21.35, 
			 "cosmo_dispersion_energy": -19.35, 
			 "cosmo_repulsion_energy": 1.5, 
			 "cosmo_total_nonelectrostatic_energy": 3.5, 
			 "SMD_solvation_energy": 1.66 
		},
		"coords": [
			{
				"x": 3.8465327321,
				"y": -1.6487460669,
				"z": 1.1700233483,
				"element": "I" 
			},
			{
				"x": 2.2978208691,
				"y": -0.7670669795,
				"z": 0.0849615609,
				"element": "C" 
			},
			{
				"x": 2.4060020205,
				"y": 0.2371377865,
				"z": -0.8390555228,
				"element": "C" 
			},
			{
				"x": 1.1445069009,
				"y": 0.6084555114,
				"z": -1.3978315185,
				"element": "C" 
			},
			{
				"x": 0.1060564677,
				"y": -0.1219387012,
				"z": -0.8858827564,
				"element": "C" 
			},
			{
				"x": -1.9136744268,
				"y": 0.0468465588,
				"z": -1.3812648051,
				"element": "I" 
			},
			{
				"x": 0.6466801063,
				"y": -1.2845622228,
				"z": 0.2948712194,
				"element": "S" 
			},
			{
				"x": 3.3462129383,
				"y": 0.6986194791,
				"z": -1.1151699046,
				"element": "H" 
			},
			{
				"x": 1.0213623918,
				"y": 1.3829546346,
				"z": -2.1449516213,
				"element": "H" 
			}
		],
		 "valence_orbital": [ 
			{
				"type": "occ",
				"energy": -0.28602,
				"method": "rhf"
			},
			{
				"type": "occ",
				"energy": -0.28247,
				"method": "rhf"
			},
			{
				"type": "occ",
				"energy": -0.28053,
				"method": "rhf"
			},
			{
				"type": "occ",
				"energy": -0.27249,
				"method": "rhf"
			},
			{
				"type": "occ",
				"energy": -0.22989,
				"method": "rhf"
			},
			{
				"type": "unocc",
				"energy": -0.06434,
				"method": "rhf"
			},
			{
				"type": "unocc",
				"energy": -0.04013,
				"method": "rhf"
			},
			{
				"type": "unocc",
				"energy": -0.03867,
				"method": "rhf"
			},
			{
				"type": "unocc",
				"energy": 0.00667,
				"method": "rhf"
			},
			{
				"type": "unocc",
				"energy": 0.03749,
				"method": "rhf"
			}
		],
		"cosmo_sigma_profile": { 
			"0.0": 0.0,
			"0.0": 0.0,
			"0.0": 0.0,
			"0.0": 0.0,
			"0.0": 0.0,
			"0.0": 0.0,
			"0.0": 0.0,
			"0.0": 0.0,
			"0.0": 0.0,
			"0.0": 0.0,
			"0.0": 0.0,
			"0.0": 0.0,
			"0.0": 0.0,
			"0.0": 0.0,
			"0.0": 0.0,
			"0.0": 0.0,
			"0.0": 0.0,
			"0.0": 0.0,
			"0.0": 0.0,
			"0.0": 0.0,
			"0.0": 0.0,
			"0.0": 0.0,
			"0.0": 0.0,
			"0.0": 0.0,
			"0.0": 0.0,
			"0.0": 0.0,
			"0.0": 0.0,
			"0.0": 0.0,
			"0.0": 0.0,
			"0.0": 0.0,
			"0.0": 0.0,
			"0.0": 0.0,
			"0.0": 0.0,
			"0.0": 0.0,
			"0.0": 0.0,
			"0.0": 0.0,
			"0.0": 0.0,
			"0.0": 0.0,
			"0.0": 0.0,
			"0.0": 0.0,
			"0.0": 0.0,
			"0.0": 0.0,
			"0.0": 0.0,
			"0.0": 0.0,
			"0.0": 0.0,
			"0.0": 0.0,
			"0.0": 0.0,
			"0.0": 0.0,
			"0.0": 0.0,
			"0.0": 0.0,
			"0.0": 0.0
		}
	}
}
