{
	 "smiles": "OC(=O)C1=C(NS(=O)(=O)C2=CC(=CC=C2)C(F)(F)F)C=CC=C1", 
	 "Tm": 431.15, 
	 "num_atms": 33, 
	 "gaussian": { 
		 "optdone": 1, 
		 "sigma_profile": "yes", 
		 "theory": "DFT", 
		 "functional": "B3LYP", 
		 "basiset": "6-31G**", 
		 "properties": { 
			 "R2extent": 8878.6807, 
			 "electric_dipole_moment_norm": 7.61659560828, 
			 "electric_quadrupole_moment_norm": 24.8842644722, 
			 "total_energy": -1592.8199274, 
			 "HOMO_LUMO_gap": 0.17525, 
			 "cosmo_polarized_energy": -21.25, 
			 "cosmo_cavitation_energy": 40.85, 
			 "cosmo_dispersion_energy": -28.1, 
			 "cosmo_repulsion_energy": 2.03, 
			 "cosmo_total_nonelectrostatic_energy": 14.78, 
			 "SMD_solvation_energy": 8.2 
		},
		"coords": [
			{
				"x": 0.06024307,
				"y": 4.0723674713,
				"z": 3.5096987666,
				"element": "O" 
			},
			{
				"x": 0.223239364,
				"y": 3.009674287,
				"z": 2.6899661458,
				"element": "C" 
			},
			{
				"x": 0.7595721112,
				"y": 2.0109982793,
				"z": 3.1421142042,
				"element": "O" 
			},
			{
				"x": -0.2661776411,
				"y": 3.1372674808,
				"z": 1.2869664378,
				"element": "C" 
			},
			{
				"x": 0.1565294394,
				"y": 2.2191825667,
				"z": 0.2827334322,
				"element": "C" 
			},
			{
				"x": 1.0367548298,
				"y": 1.1875898135,
				"z": 0.6302956732,
				"element": "N" 
			},
			{
				"x": 1.2263241372,
				"y": -0.302872266,
				"z": -0.1408730933,
				"element": "S" 
			},
			{
				"x": 2.2455568458,
				"y": -0.9770045729,
				"z": 0.6566610031,
				"element": "O" 
			},
			{
				"x": 1.378547137,
				"y": -0.0752797086,
				"z": -1.5781699293,
				"element": "O" 
			},
			{
				"x": -0.3328575251,
				"y": -1.1667832675,
				"z": 0.10393959,
				"element": "C" 
			},
			{
				"x": -0.5884855173,
				"y": -1.7498802916,
				"z": 1.3471557113,
				"element": "C" 
			},
			{
				"x": -1.8017522796,
				"y": -2.4063286447,
				"z": 1.5414201061,
				"element": "C" 
			},
			{
				"x": -2.7421313943,
				"y": -2.4799881165,
				"z": 0.5066258755,
				"element": "C" 
			},
			{
				"x": -2.465698035,
				"y": -1.9021449212,
				"z": -0.7299442838,
				"element": "C" 
			},
			{
				"x": -1.2537491894,
				"y": -1.2404035297,
				"z": -0.9408407368,
				"element": "C" 
			},
			{
				"x": -2.0963918878,
				"y": -3.0910747648,
				"z": 2.8520775507,
				"element": "C" 
			},
			{
				"x": -1.920568117,
				"y": -4.4276599676,
				"z": 2.7579759289,
				"element": "F" 
			},
			{
				"x": -3.3785884623,
				"y": -2.890760651,
				"z": 3.2310129918,
				"element": "F" 
			},
			{
				"x": -1.3000613103,
				"y": -2.648265765,
				"z": 3.8443306404,
				"element": "F" 
			},
			{
				"x": -0.2851431774,
				"y": 2.4083632684,
				"z": -1.0396763069,
				"element": "C" 
			},
			{
				"x": -1.1689584975,
				"y": 3.4340674506,
				"z": -1.3509591081,
				"element": "C" 
			},
			{
				"x": -1.6335547011,
				"y": 4.3084607104,
				"z": -0.364628335,
				"element": "C" 
			},
			{
				"x": -1.171602419,
				"y": 4.154678514,
				"z": 0.9345806084,
				"element": "C" 
			},
			{
				"x": -0.1992130846,
				"y": 4.8553308922,
				"z": 3.0054865616,
				"element": "H" 
			},
			{
				"x": 1.2174530012,
				"y": 1.1266662764,
				"z": 1.638804154,
				"element": "H" 
			},
			{
				"x": 0.1469324373,
				"y": -1.7003255478,
				"z": 2.1418276569,
				"element": "H" 
			},
			{
				"x": -3.6854074268,
				"y": -2.9889019711,
				"z": 0.6751063659,
				"element": "H" 
			},
			{
				"x": -3.1917615041,
				"y": -1.9681436095,
				"z": -1.5338923467,
				"element": "H" 
			},
			{
				"x": -1.0116213266,
				"y": -0.8030779421,
				"z": -1.9024467642,
				"element": "H" 
			},
			{
				"x": 0.0879273909,
				"y": 1.7534308452,
				"z": -1.8160139592,
				"element": "H" 
			},
			{
				"x": -1.497623892,
				"y": 3.5519366583,
				"z": -2.379412171,
				"element": "H" 
			},
			{
				"x": -2.3393094175,
				"y": 5.0958520447,
				"z": -0.6063523792,
				"element": "H" 
			},
			{
				"x": -1.5630229579,
				"y": 4.8172289786,
				"z": 1.7025300092,
				"element": "H" 
			}
		],
		 "valence_orbital": [ 
			{
				"type": "occ",
				"energy": -0.29585,
				"method": "rhf"
			},
			{
				"type": "occ",
				"energy": -0.29053,
				"method": "rhf"
			},
			{
				"type": "occ",
				"energy": -0.28966,
				"method": "rhf"
			},
			{
				"type": "occ",
				"energy": -0.28345,
				"method": "rhf"
			},
			{
				"type": "occ",
				"energy": -0.24491,
				"method": "rhf"
			},
			{
				"type": "unocc",
				"energy": -0.06966,
				"method": "rhf"
			},
			{
				"type": "unocc",
				"energy": -0.05826,
				"method": "rhf"
			},
			{
				"type": "unocc",
				"energy": -0.04511,
				"method": "rhf"
			},
			{
				"type": "unocc",
				"energy": -0.0267,
				"method": "rhf"
			},
			{
				"type": "unocc",
				"energy": 0.03066,
				"method": "rhf"
			}
		],
		"cosmo_sigma_profile": { 
			"-0.025": 0.0,
			"-0.024": 0.0,
			"-0.023": 0.0,
			"-0.022": 0.0,
			"-0.021": 0.0,
			"-0.02": 0.151684680911,
			"-0.019": 0.68119622066,
			"-0.018": 0.697869409268,
			"-0.017": 1.02877667479,
			"-0.016": 1.3768866185,
			"-0.015": 0.726891125788,
			"-0.014": 0.855173299419,
			"-0.013": 0.870029684205,
			"-0.012": 1.241543564,
			"-0.011": 1.21729689643,
			"-0.01": 1.46168743003,
			"-0.009": 2.44263041535,
			"-0.008": 6.69535683834,
			"-0.007": 14.2225056776,
			"-0.006": 16.2786003239,
			"-0.005": 17.3835999269,
			"-0.004": 16.5770911579,
			"-0.003": 16.8034798367,
			"-0.002": 19.2231143853,
			"-0.001": 22.1399087116,
			"0.0": 27.7302309273,
			"0.001": 28.9452327053,
			"0.002": 38.9705849708,
			"0.003": 32.7050671695,
			"0.004": 7.15687834038,
			"0.005": 5.31485353777,
			"0.006": 4.79686531627,
			"0.007": 5.77525962897,
			"0.008": 6.01768434649,
			"0.009": 9.48096569636,
			"0.01": 11.9258636156,
			"0.011": 6.408105308,
			"0.012": 1.84106244428,
			"0.013": 0.217635258198,
			"0.014": 0.0,
			"0.015": 0.0,
			"0.016": 0.0,
			"0.017": 0.0,
			"0.018": 0.0,
			"0.019": 0.0,
			"0.02": 0.0,
			"0.021": 0.0,
			"0.022": 0.0,
			"0.023": 0.0,
			"0.024": 0.0,
			"0.025": 0.0
		}
	}
}
