{
	 "smiles": "OC1=CC=C(C=C1)C1=NN=CN1", 
	 "Tm": 518.15, 
	 "num_atms": 19, 
	 "gaussian": { 
		 "optdone": 1, 
		 "sigma_profile": "yes", 
		 "theory": "DFT", 
		 "functional": "B3LYP", 
		 "basiset": "6-31G**", 
		 "properties": { 
			 "R2extent": 2651.5557, 
			 "electric_dipole_moment_norm": 6.64528153881, 
			 "electric_quadrupole_moment_norm": 15.9904377526, 
			 "total_energy": -548.523895551, 
			 "HOMO_LUMO_gap": 0.18631, 
			 "cosmo_polarized_energy": -24.84, 
			 "cosmo_cavitation_energy": 23.82, 
			 "cosmo_dispersion_energy": -18.0, 
			 "cosmo_repulsion_energy": 1.41, 
			 "cosmo_total_nonelectrostatic_energy": 7.23, 
			 "SMD_solvation_energy": 2.89 
		},
		"coords": [
			{
				"x": 1.3488430658,
				"y": -3.089160752,
				"z": 0.0830244629,
				"element": "O" 
			},
			{
				"x": 0.8315943005,
				"y": -1.8296211048,
				"z": 0.1515201239,
				"element": "C" 
			},
			{
				"x": 1.3646265131,
				"y": -0.9635346175,
				"z": 1.1161315165,
				"element": "C" 
			},
			{
				"x": 0.8776300674,
				"y": 0.3295263695,
				"z": 1.2318799981,
				"element": "C" 
			},
			{
				"x": -0.151512195,
				"y": 0.7949715607,
				"z": 0.3920171272,
				"element": "C" 
			},
			{
				"x": -0.6749637376,
				"y": -0.0820403027,
				"z": -0.5679528349,
				"element": "C" 
			},
			{
				"x": -0.1917063949,
				"y": -1.3827434389,
				"z": -0.6912001536,
				"element": "C" 
			},
			{
				"x": -0.6304193318,
				"y": 2.1679533103,
				"z": 0.5544241832,
				"element": "C" 
			},
			{
				"x": -0.1782196976,
				"y": 3.0387774931,
				"z": 1.4383317925,
				"element": "N" 
			},
			{
				"x": -0.8763766701,
				"y": 4.2159000541,
				"z": 1.2805785799,
				"element": "N" 
			},
			{
				"x": -1.7332750359,
				"y": 4.031443309,
				"z": 0.3070757601,
				"element": "C" 
			},
			{
				"x": -1.6247861913,
				"y": 2.7605577739,
				"z": -0.1891434595,
				"element": "N" 
			},
			{
				"x": 0.9000900906,
				"y": -3.5821293747,
				"z": -0.6161396179,
				"element": "H" 
			},
			{
				"x": 2.1577365986,
				"y": -1.3240569447,
				"z": 1.7625177826,
				"element": "H" 
			},
			{
				"x": 1.2835868227,
				"y": 1.0069353196,
				"z": 1.9750503102,
				"element": "H" 
			},
			{
				"x": -1.4704215556,
				"y": 0.2352297516,
				"z": -1.2374659876,
				"element": "H" 
			},
			{
				"x": -0.6102717012,
				"y": -2.0492252264,
				"z": -1.4421827269,
				"element": "H" 
			},
			{
				"x": -2.4354170457,
				"y": 4.7615482622,
				"z": -0.0688002572,
				"element": "H" 
			},
			{
				"x": -2.1623379021,
				"y": 2.3545685575,
				"z": -0.9387665996,
				"element": "H" 
			}
		],
		 "valence_orbital": [ 
			{
				"type": "occ",
				"energy": -0.30112,
				"method": "rhf"
			},
			{
				"type": "occ",
				"energy": -0.27724,
				"method": "rhf"
			},
			{
				"type": "occ",
				"energy": -0.26341,
				"method": "rhf"
			},
			{
				"type": "occ",
				"energy": -0.24819,
				"method": "rhf"
			},
			{
				"type": "occ",
				"energy": -0.21505,
				"method": "rhf"
			},
			{
				"type": "unocc",
				"energy": -0.02874,
				"method": "rhf"
			},
			{
				"type": "unocc",
				"energy": -0.01312,
				"method": "rhf"
			},
			{
				"type": "unocc",
				"energy": 0.03634,
				"method": "rhf"
			},
			{
				"type": "unocc",
				"energy": 0.0494,
				"method": "rhf"
			},
			{
				"type": "unocc",
				"energy": 0.0611,
				"method": "rhf"
			}
		],
		"cosmo_sigma_profile": { 
			"-0.025": 0.0,
			"-0.024": 0.0,
			"-0.023": 0.0,
			"-0.022": 0.0,
			"-0.021": 0.0,
			"-0.02": 0.0,
			"-0.019": 0.0,
			"-0.018": 1.15130648168,
			"-0.017": 2.8330670184,
			"-0.016": 2.9481635004,
			"-0.015": 2.27842537443,
			"-0.014": 2.28055098132,
			"-0.013": 3.27979781755,
			"-0.012": 1.6945851874,
			"-0.011": 2.59464888399,
			"-0.01": 5.48025357029,
			"-0.009": 4.25349628979,
			"-0.008": 3.77815548333,
			"-0.007": 5.36315439977,
			"-0.006": 6.77149018281,
			"-0.005": 8.72808408483,
			"-0.004": 7.36658797014,
			"-0.003": 6.50502020365,
			"-0.002": 7.01131048605,
			"-0.001": 7.86876343698,
			"0.0": 11.4718376368,
			"0.001": 9.73019408105,
			"0.002": 12.3518412293,
			"0.003": 15.368692917,
			"0.004": 16.5265376872,
			"0.005": 6.44233452311,
			"0.006": 3.61368531151,
			"0.007": 3.49109115295,
			"0.008": 3.89958239181,
			"0.009": 3.20457468728,
			"0.01": 3.52327277746,
			"0.011": 3.85281277199,
			"0.012": 3.43195037776,
			"0.013": 2.56526531015,
			"0.014": 3.54122518853,
			"0.015": 2.75225377141,
			"0.016": 2.36127025525,
			"0.017": 0.9835974291,
			"0.018": 0.149929328576,
			"0.019": 0.0,
			"0.02": 0.0,
			"0.021": 0.0,
			"0.022": 0.0,
			"0.023": 0.0,
			"0.024": 0.0,
			"0.025": 0.0
		}
	}
}
