{
	 "smiles": "CCCOC1=C(OC)C=C(C=C1)C(O)=O", 
	 "Tm": 456.15, 
	 "num_atms": 29, 
	 "gaussian": { 
		 "optdone": 1, 
		 "sigma_profile": "yes", 
		 "theory": "DFT", 
		 "functional": "B3LYP", 
		 "basiset": "6-31G**", 
		 "properties": { 
			 "R2extent": 5332.629, 
			 "electric_dipole_moment_norm": 1.83014679466, 
			 "electric_quadrupole_moment_norm": 11.5881694443, 
			 "total_energy": -728.50556369, 
			 "HOMO_LUMO_gap": 0.17921, 
			 "cosmo_polarized_energy": -11.2, 
			 "cosmo_cavitation_energy": 32.99, 
			 "cosmo_dispersion_energy": -23.64, 
			 "cosmo_repulsion_energy": 1.9, 
			 "cosmo_total_nonelectrostatic_energy": 11.24, 
			 "SMD_solvation_energy": 7.81 
		},
		"coords": [
			{
				"x": 4.6815180435,
				"y": 0.2721486499,
				"z": -1.138822229,
				"element": "C" 
			},
			{
				"x": 3.4382583131,
				"y": -0.1799385296,
				"z": -0.366163661,
				"element": "C" 
			},
			{
				"x": 2.1539937738,
				"y": 0.3531234956,
				"z": -0.9862163072,
				"element": "C" 
			},
			{
				"x": 1.055259709,
				"y": -0.1651586322,
				"z": -0.2109485346,
				"element": "O" 
			},
			{
				"x": -0.1448786086,
				"y": 0.4793017486,
				"z": -0.2255109057,
				"element": "C" 
			},
			{
				"x": -0.8198540542,
				"y": 0.8548531706,
				"z": -1.4155629613,
				"element": "C" 
			},
			{
				"x": -0.1932746679,
				"y": 0.5545055296,
				"z": -2.5919058454,
				"element": "O" 
			},
			{
				"x": -0.8456927007,
				"y": 0.90560188,
				"z": -3.80415105,
				"element": "C" 
			},
			{
				"x": -2.0621930571,
				"y": 1.4759761068,
				"z": -1.3258983188,
				"element": "C" 
			},
			{
				"x": -2.6609013048,
				"y": 1.7078046725,
				"z": -0.0771217781,
				"element": "C" 
			},
			{
				"x": -2.0091387205,
				"y": 1.31288877,
				"z": 1.0948073689,
				"element": "C" 
			},
			{
				"x": -0.7574948621,
				"y": 0.7092673917,
				"z": 1.0085697696,
				"element": "C" 
			},
			{
				"x": -3.9871633366,
				"y": 2.3674092739,
				"z": -0.0711032788,
				"element": "C" 
			},
			{
				"x": -4.4921259284,
				"y": 2.5442512518,
				"z": 1.1775720207,
				"element": "O" 
			},
			{
				"x": -4.5937931432,
				"y": 2.7287039562,
				"z": -1.0630716341,
				"element": "O" 
			},
			{
				"x": 4.7691659272,
				"y": 1.3644717007,
				"z": -1.1541447532,
				"element": "H" 
			},
			{
				"x": 5.5924693144,
				"y": -0.1258651803,
				"z": -0.6821360708,
				"element": "H" 
			},
			{
				"x": 4.6537092703,
				"y": -0.0728105011,
				"z": -2.1785408724,
				"element": "H" 
			},
			{
				"x": 3.3840312332,
				"y": -1.2747923252,
				"z": -0.3431655794,
				"element": "H" 
			},
			{
				"x": 3.4945639295,
				"y": 0.1534073384,
				"z": 0.6766112389,
				"element": "H" 
			},
			{
				"x": 2.0575782104,
				"y": 0.0373022592,
				"z": -2.0289978182,
				"element": "H" 
			},
			{
				"x": 2.1345683487,
				"y": 1.4510460086,
				"z": -0.9617926818,
				"element": "H" 
			},
			{
				"x": -0.9988409773,
				"y": 1.989254772,
				"z": -3.8818868334,
				"element": "H" 
			},
			{
				"x": -1.8139181873,
				"y": 0.3991533041,
				"z": -3.900706029,
				"element": "H" 
			},
			{
				"x": -0.1842093254,
				"y": 0.5756572808,
				"z": -4.6064347462,
				"element": "H" 
			},
			{
				"x": -2.607982077,
				"y": 1.7817600472,
				"z": -2.2094071138,
				"element": "H" 
			},
			{
				"x": -2.4706687066,
				"y": 1.4877002816,
				"z": 2.0592323357,
				"element": "H" 
			},
			{
				"x": -0.2191681788,
				"y": 0.398985322,
				"z": 1.8979865636,
				"element": "H" 
			},
			{
				"x": -5.3510182365,
				"y": 2.9788909565,
				"z": 1.0504097047,
				"element": "H" 
			}
		],
		 "valence_orbital": [ 
			{
				"type": "occ",
				"energy": -0.31046,
				"method": "rhf"
			},
			{
				"type": "occ",
				"energy": -0.28956,
				"method": "rhf"
			},
			{
				"type": "occ",
				"energy": -0.27072,
				"method": "rhf"
			},
			{
				"type": "occ",
				"energy": -0.24357,
				"method": "rhf"
			},
			{
				"type": "occ",
				"energy": -0.21809,
				"method": "rhf"
			},
			{
				"type": "unocc",
				"energy": -0.03888,
				"method": "rhf"
			},
			{
				"type": "unocc",
				"energy": 0.00444,
				"method": "rhf"
			},
			{
				"type": "unocc",
				"energy": 0.06735,
				"method": "rhf"
			},
			{
				"type": "unocc",
				"energy": 0.07886,
				"method": "rhf"
			},
			{
				"type": "unocc",
				"energy": 0.09164,
				"method": "rhf"
			}
		],
		"cosmo_sigma_profile": { 
			"-0.025": 0.0,
			"-0.024": 0.0,
			"-0.023": 0.0,
			"-0.022": 0.0,
			"-0.021": 0.0,
			"-0.02": 0.0,
			"-0.019": 0.00341294094865,
			"-0.018": 0.572162008793,
			"-0.017": 0.896876334958,
			"-0.016": 1.08413688382,
			"-0.015": 0.510813936294,
			"-0.014": 0.844359106298,
			"-0.013": 0.25439951789,
			"-0.012": 0.437686138502,
			"-0.011": 1.30541224338,
			"-0.01": 0.863678343226,
			"-0.009": 0.476137411397,
			"-0.008": 0.720668906168,
			"-0.007": 1.85107416922,
			"-0.006": 10.2052926532,
			"-0.005": 13.2084238945,
			"-0.004": 17.7305127979,
			"-0.003": 26.8717754536,
			"-0.002": 25.7018514272,
			"-0.001": 24.4034843408,
			"0.0": 21.576639519,
			"0.001": 22.6009534139,
			"0.002": 19.8846384835,
			"0.003": 18.0118155968,
			"0.004": 12.2222812436,
			"0.005": 7.21601818437,
			"0.006": 5.63032621556,
			"0.007": 5.01605628336,
			"0.008": 4.89611192029,
			"0.009": 2.53759495107,
			"0.01": 3.72835712666,
			"0.011": 3.34840634808,
			"0.012": 5.04063864873,
			"0.013": 0.474802014916,
			"0.014": 0.0,
			"0.015": 0.0,
			"0.016": 0.0,
			"0.017": 0.0,
			"0.018": 0.0,
			"0.019": 0.0,
			"0.02": 0.0,
			"0.021": 0.0,
			"0.022": 0.0,
			"0.023": 0.0,
			"0.024": 0.0,
			"0.025": 0.0
		}
	}
}
