{
	 "smiles": "NC1=C(C=C2OCCCOC2=C1)C(O)=O", 
	 "Tm": 434.15, 
	 "num_atms": 26, 
	 "gaussian": { 
		 "optdone": 1, 
		 "sigma_profile": "yes", 
		 "theory": "DFT", 
		 "functional": "B3LYP", 
		 "basiset": "6-31G**", 
		 "properties": { 
			 "R2extent": 4101.6289, 
			 "electric_dipole_moment_norm": 7.43620661493, 
			 "electric_quadrupole_moment_norm": 34.8445253036, 
			 "total_energy": -743.334667604, 
			 "HOMO_LUMO_gap": 0.18909, 
			 "cosmo_polarized_energy": -19.86, 
			 "cosmo_cavitation_energy": 28.76, 
			 "cosmo_dispersion_energy": -22.0, 
			 "cosmo_repulsion_energy": 1.72, 
			 "cosmo_total_nonelectrostatic_energy": 8.48, 
			 "SMD_solvation_energy": 6.5 
		},
		"coords": [
			{
				"x": -1.6078562006,
				"y": 1.8759925551,
				"z": 1.0814421526,
				"element": "N" 
			},
			{
				"x": -0.7107564188,
				"y": 0.750463597,
				"z": 0.9668803682,
				"element": "C" 
			},
			{
				"x": -0.4458576132,
				"y": -0.0454622641,
				"z": 2.098978642,
				"element": "C" 
			},
			{
				"x": 0.4237247405,
				"y": -1.1330839961,
				"z": 1.9610346917,
				"element": "C" 
			},
			{
				"x": 1.0421483813,
				"y": -1.4408096885,
				"z": 0.7539976168,
				"element": "C" 
			},
			{
				"x": 1.895084531,
				"y": -2.5195412717,
				"z": 0.7349694223,
				"element": "O" 
			},
			{
				"x": 3.0921970878,
				"y": -2.3610735476,
				"z": -0.0399697245,
				"element": "C" 
			},
			{
				"x": 2.8715023009,
				"y": -2.7464853142,
				"z": -1.5052746551,
				"element": "C" 
			},
			{
				"x": 1.5261016458,
				"y": -2.2229267199,
				"z": -2.0060573348,
				"element": "C" 
			},
			{
				"x": 1.3012071385,
				"y": -0.855115906,
				"z": -1.6209488299,
				"element": "O" 
			},
			{
				"x": 0.7639808917,
				"y": -0.6444297195,
				"z": -0.3792821084,
				"element": "C" 
			},
			{
				"x": -0.108858271,
				"y": 0.4391013982,
				"z": -0.251461302,
				"element": "C" 
			},
			{
				"x": -0.9697073871,
				"y": 0.2207770177,
				"z": 3.4903946452,
				"element": "C" 
			},
			{
				"x": -1.5906639744,
				"y": 1.3937186966,
				"z": 3.6930914141,
				"element": "O" 
			},
			{
				"x": -0.8161029738,
				"y": -0.5755927409,
				"z": 4.3931433241,
				"element": "O" 
			},
			{
				"x": -2.5755807284,
				"y": 1.5954357429,
				"z": 0.9302808067,
				"element": "H" 
			},
			{
				"x": -1.3863314697,
				"y": 2.594082068,
				"z": 0.3982149544,
				"element": "H" 
			},
			{
				"x": 0.641876605,
				"y": -1.7355309958,
				"z": 2.8354104261,
				"element": "H" 
			},
			{
				"x": 3.839194959,
				"y": -3.0070607452,
				"z": 0.4291189768,
				"element": "H" 
			},
			{
				"x": 3.4420327694,
				"y": -1.3252358534,
				"z": 0.0385946257,
				"element": "H" 
			},
			{
				"x": 2.8828952478,
				"y": -3.8360617941,
				"z": -1.6265858641,
				"element": "H" 
			},
			{
				"x": 3.6944727703,
				"y": -2.3415266136,
				"z": -2.105626032,
				"element": "H" 
			},
			{
				"x": 0.7063740209,
				"y": -2.8431695285,
				"z": -1.6276413121,
				"element": "H" 
			},
			{
				"x": 1.4826133393,
				"y": -2.2280234346,
				"z": -3.0983073003,
				"element": "H" 
			},
			{
				"x": -0.3256984728,
				"y": 1.0195473391,
				"z": -1.143477383,
				"element": "H" 
			},
			{
				"x": -1.6069929195,
				"y": 1.8985117194,
				"z": 2.8400797793,
				"element": "H" 
			}
		],
		 "valence_orbital": [ 
			{
				"type": "occ",
				"energy": -0.29087,
				"method": "rhf"
			},
			{
				"type": "occ",
				"energy": -0.28519,
				"method": "rhf"
			},
			{
				"type": "occ",
				"energy": -0.25208,
				"method": "rhf"
			},
			{
				"type": "occ",
				"energy": -0.24658,
				"method": "rhf"
			},
			{
				"type": "occ",
				"energy": -0.22284,
				"method": "rhf"
			},
			{
				"type": "unocc",
				"energy": -0.03375,
				"method": "rhf"
			},
			{
				"type": "unocc",
				"energy": -0.0098,
				"method": "rhf"
			},
			{
				"type": "unocc",
				"energy": 0.06057,
				"method": "rhf"
			},
			{
				"type": "unocc",
				"energy": 0.06752,
				"method": "rhf"
			},
			{
				"type": "unocc",
				"energy": 0.07034,
				"method": "rhf"
			}
		],
		"cosmo_sigma_profile": { 
			"-0.025": 0.0,
			"-0.024": 0.0,
			"-0.023": 0.0,
			"-0.022": 0.0,
			"-0.021": 0.0,
			"-0.02": 0.0,
			"-0.019": 0.0,
			"-0.018": 0.0,
			"-0.017": 0.0,
			"-0.016": 0.0,
			"-0.015": 0.0,
			"-0.014": 0.332153097006,
			"-0.013": 2.74842597622,
			"-0.012": 3.55137174811,
			"-0.011": 3.85146818743,
			"-0.01": 3.16948809872,
			"-0.009": 2.68783915285,
			"-0.008": 3.37373754453,
			"-0.007": 3.56360316994,
			"-0.006": 7.44674696705,
			"-0.005": 17.6201519098,
			"-0.004": 24.4323277502,
			"-0.003": 19.9804408056,
			"-0.002": 14.3669091854,
			"-0.001": 12.6167612518,
			"0.0": 11.4782480702,
			"0.001": 10.815803273,
			"0.002": 17.1614757708,
			"0.003": 14.964559193,
			"0.004": 5.44759006116,
			"0.005": 3.94897755095,
			"0.006": 6.00852898906,
			"0.007": 4.01882636693,
			"0.008": 5.5099184643,
			"0.009": 3.20026521788,
			"0.01": 6.35599221653,
			"0.011": 5.55105730481,
			"0.012": 6.2368025813,
			"0.013": 5.16215421455,
			"0.014": 1.75114729841,
			"0.015": 0.165231872332,
			"0.016": 0.0,
			"0.017": 0.0,
			"0.018": 0.0,
			"0.019": 0.0,
			"0.02": 0.0,
			"0.021": 0.0,
			"0.022": 0.0,
			"0.023": 0.0,
			"0.024": 0.0,
			"0.025": 0.0
		}
	}
}
