{
	 "smiles": "BrC1=CN2C(C=C1)=NC=C(C(=O)C1=CC=CC=C1)C2=O", 
	 "Tm": 482.15, 
	 "num_atms": 29, 
	 "gaussian": { 
		 "optdone": 1, 
		 "sigma_profile": "yes", 
		 "theory": "DFT", 
		 "functional": "B3LYP", 
		 "basiset": "6-31G**", 
		 "properties": { 
			 "R2extent": 9979.0143, 
			 "electric_dipole_moment_norm": 4.20846949971, 
			 "electric_quadrupole_moment_norm": 17.1940344108, 
			 "total_energy": -3408.37112048, 
			 "HOMO_LUMO_gap": 0.1427, 
			 "cosmo_polarized_energy": -15.52, 
			 "cosmo_cavitation_energy": 36.63, 
			 "cosmo_dispersion_energy": -27.08, 
			 "cosmo_repulsion_energy": 2.03, 
			 "cosmo_total_nonelectrostatic_energy": 11.58, 
			 "SMD_solvation_energy": 4.64 
		},
		"coords": [
			{
				"x": -1.474578233,
				"y": 0.1948282609,
				"z": 5.8153838203,
				"element": "Br" 
			},
			{
				"x": -1.6954729211,
				"y": 0.758598265,
				"z": 4.0164971949,
				"element": "C" 
			},
			{
				"x": -0.8136055989,
				"y": 0.3460476945,
				"z": 3.062457397,
				"element": "C" 
			},
			{
				"x": -0.9644558935,
				"y": 0.7446162995,
				"z": 1.7548831817,
				"element": "N" 
			},
			{
				"x": -2.0005740388,
				"y": 1.5826944992,
				"z": 1.3569989419,
				"element": "C" 
			},
			{
				"x": -2.9158456114,
				"y": 2.005289897,
				"z": 2.3646249975,
				"element": "C" 
			},
			{
				"x": -2.7776489935,
				"y": 1.6093377998,
				"z": 3.6664904795,
				"element": "C" 
			},
			{
				"x": -2.1494245551,
				"y": 1.9917352585,
				"z": 0.0998964964,
				"element": "N" 
			},
			{
				"x": -1.2472056792,
				"y": 1.5583745594,
				"z": -0.789932526,
				"element": "C" 
			},
			{
				"x": -0.1940589334,
				"y": 0.683687171,
				"z": -0.5387631519,
				"element": "C" 
			},
			{
				"x": 0.7251442492,
				"y": 0.3843437616,
				"z": -1.6879077425,
				"element": "C" 
			},
			{
				"x": 0.8728417586,
				"y": 1.248053684,
				"z": -2.5484956058,
				"element": "O" 
			},
			{
				"x": 1.4030811143,
				"y": -0.9394059391,
				"z": -1.8359856945,
				"element": "C" 
			},
			{
				"x": 2.5195827979,
				"y": -1.0040454014,
				"z": -2.6851595602,
				"element": "C" 
			},
			{
				"x": 3.1574773845,
				"y": -2.2180905338,
				"z": -2.9206189683,
				"element": "C" 
			},
			{
				"x": 2.6704774141,
				"y": -3.3878790047,
				"z": -2.3301071873,
				"element": "C" 
			},
			{
				"x": 1.5477273144,
				"y": -3.3362437964,
				"z": -1.501480207,
				"element": "C" 
			},
			{
				"x": 0.9210666397,
				"y": -2.1173944839,
				"z": -1.2479788876,
				"element": "C" 
			},
			{
				"x": 0.0417405415,
				"y": 0.2291379775,
				"z": 0.800017896,
				"element": "C" 
			},
			{
				"x": 0.9320980588,
				"y": -0.4772217728,
				"z": 1.2472395598,
				"element": "O" 
			},
			{
				"x": 0.0384618336,
				"y": -0.2975980117,
				"z": 3.2348360332,
				"element": "H" 
			},
			{
				"x": -3.7183242884,
				"y": 2.6561477365,
				"z": 2.0393213724,
				"element": "H" 
			},
			{
				"x": -3.4761571516,
				"y": 1.9353591017,
				"z": 4.4286178979,
				"element": "H" 
			},
			{
				"x": -1.3615657771,
				"y": 1.9263776285,
				"z": -1.8064171393,
				"element": "H" 
			},
			{
				"x": 2.8666446908,
				"y": -0.087971935,
				"z": -3.1509495742,
				"element": "H" 
			},
			{
				"x": 4.0289359132,
				"y": -2.2564189404,
				"z": -3.5677481145,
				"element": "H" 
			},
			{
				"x": 3.1636068434,
				"y": -4.3376791505,
				"z": -2.5174426038,
				"element": "H" 
			},
			{
				"x": 1.1621259492,
				"y": -4.2453138101,
				"z": -1.0494456049,
				"element": "H" 
			},
			{
				"x": 0.051805172,
				"y": -2.0873668147,
				"z": -0.6016327005,
				"element": "H" 
			}
		],
		 "valence_orbital": [ 
			{
				"type": "occ",
				"energy": -0.28067,
				"method": "rhf"
			},
			{
				"type": "occ",
				"energy": -0.25489,
				"method": "rhf"
			},
			{
				"type": "occ",
				"energy": -0.2502,
				"method": "rhf"
			},
			{
				"type": "occ",
				"energy": -0.24618,
				"method": "rhf"
			},
			{
				"type": "occ",
				"energy": -0.23258,
				"method": "rhf"
			},
			{
				"type": "unocc",
				"energy": -0.08988,
				"method": "rhf"
			},
			{
				"type": "unocc",
				"energy": -0.06802,
				"method": "rhf"
			},
			{
				"type": "unocc",
				"energy": -0.04388,
				"method": "rhf"
			},
			{
				"type": "unocc",
				"energy": -0.02166,
				"method": "rhf"
			},
			{
				"type": "unocc",
				"energy": -0.00387,
				"method": "rhf"
			}
		],
		"cosmo_sigma_profile": { 
			"-0.025": 0.0,
			"-0.024": 0.0,
			"-0.023": 0.0,
			"-0.022": 0.0,
			"-0.021": 0.0,
			"-0.02": 0.0,
			"-0.019": 0.0,
			"-0.018": 0.0,
			"-0.017": 0.0,
			"-0.016": 0.0,
			"-0.015": 0.0,
			"-0.014": 0.0,
			"-0.013": 0.0,
			"-0.012": 0.0,
			"-0.011": 0.0,
			"-0.01": 0.646984652342,
			"-0.009": 3.87628500271,
			"-0.008": 5.06683965,
			"-0.007": 8.26357107944,
			"-0.006": 19.0920132871,
			"-0.005": 22.1431326165,
			"-0.004": 23.6105746978,
			"-0.003": 23.1542692671,
			"-0.002": 26.8983076646,
			"-0.001": 24.0632467128,
			"0.0": 19.5903281101,
			"0.001": 17.5656474051,
			"0.002": 18.6537600152,
			"0.003": 22.3050627082,
			"0.004": 17.3214325495,
			"0.005": 8.55367083002,
			"0.006": 4.952316111,
			"0.007": 4.33003177245,
			"0.008": 4.29837835871,
			"0.009": 4.5133649257,
			"0.01": 5.34053234797,
			"0.011": 6.21282678818,
			"0.012": 7.00151316568,
			"0.013": 1.63465556235,
			"0.014": 0.658719986981,
			"0.015": 0.102452602387,
			"0.016": 0.0,
			"0.017": 0.0,
			"0.018": 0.0,
			"0.019": 0.0,
			"0.02": 0.0,
			"0.021": 0.0,
			"0.022": 0.0,
			"0.023": 0.0,
			"0.024": 0.0,
			"0.025": 0.0
		}
	}
}
