{
	 "smiles": "CN(C)C1=CC(C)=NC(Cl)=N1", 
	 "Tm": 360.15, 
	 "num_atms": 21, 
	 "gaussian": { 
		 "optdone": 1, 
		 "sigma_profile": "yes", 
		 "theory": "DFT", 
		 "functional": "B3LYP", 
		 "basiset": "6-31G**", 
		 "properties": { 
			 "R2extent": 3858.5899, 
			 "electric_dipole_moment_norm": 5.70178139444, 
			 "electric_quadrupole_moment_norm": 16.4711701202, 
			 "total_energy": -897.231196006, 
			 "HOMO_LUMO_gap": 0.20162, 
			 "cosmo_polarized_energy": -10.64, 
			 "cosmo_cavitation_energy": 26.09, 
			 "cosmo_dispersion_energy": -19.44, 
			 "cosmo_repulsion_energy": 1.59, 
			 "cosmo_total_nonelectrostatic_energy": 8.24, 
			 "SMD_solvation_energy": 2.0 
		},
		"coords": [
			{
				"x": -0.4348015547,
				"y": 0.1109651304,
				"z": 1.4346888461,
				"element": "C" 
			},
			{
				"x": -0.5961001502,
				"y": -0.6830196459,
				"z": 0.2272842872,
				"element": "N" 
			},
			{
				"x": -1.9422118635,
				"y": -0.8187237973,
				"z": -0.3178837632,
				"element": "C" 
			},
			{
				"x": 0.4947382516,
				"y": -1.1759153053,
				"z": -0.4262171806,
				"element": "C" 
			},
			{
				"x": 1.8176197245,
				"y": -0.9769980637,
				"z": 0.044265105,
				"element": "C" 
			},
			{
				"x": 2.8517059757,
				"y": -1.5359135547,
				"z": -0.69116094,
				"element": "C" 
			},
			{
				"x": 4.2921094665,
				"y": -1.3878228183,
				"z": -0.2828291122,
				"element": "C" 
			},
			{
				"x": 2.6292992734,
				"y": -2.2463588632,
				"z": -1.8224813467,
				"element": "N" 
			},
			{
				"x": 1.3570106537,
				"y": -2.3555813298,
				"z": -2.1591876364,
				"element": "C" 
			},
			{
				"x": 1.0409232003,
				"y": -3.2732355378,
				"z": -3.6350155195,
				"element": "Cl" 
			},
			{
				"x": 0.2813380687,
				"y": -1.8808846044,
				"z": -1.5598586202,
				"element": "N" 
			},
			{
				"x": 0.1305288542,
				"y": -0.4329836573,
				"z": 2.20008129,
				"element": "H" 
			},
			{
				"x": 0.0743286019,
				"y": 1.0647817653,
				"z": 1.2401644545,
				"element": "H" 
			},
			{
				"x": -1.4226254837,
				"y": 0.3310980255,
				"z": 1.8420220777,
				"element": "H" 
			},
			{
				"x": -2.3455107057,
				"y": 0.1589042428,
				"z": -0.6122637461,
				"element": "H" 
			},
			{
				"x": -2.6100207746,
				"y": -1.2589834789,
				"z": 0.431418262,
				"element": "H" 
			},
			{
				"x": -1.9055255103,
				"y": -1.4650228531,
				"z": -1.1918738137,
				"element": "H" 
			},
			{
				"x": 2.0305651412,
				"y": -0.4078465001,
				"z": 0.9388831865,
				"element": "H" 
			},
			{
				"x": 4.3997902515,
				"y": -0.8010206752,
				"z": 0.6325284381,
				"element": "H" 
			},
			{
				"x": 4.739029261,
				"y": -2.3750913764,
				"z": -0.1278044779,
				"element": "H" 
			},
			{
				"x": 4.8596093185,
				"y": -0.9052471024,
				"z": -1.0849597907,
				"element": "H" 
			}
		],
		 "valence_orbital": [ 
			{
				"type": "occ",
				"energy": -0.30324,
				"method": "rhf"
			},
			{
				"type": "occ",
				"energy": -0.30075,
				"method": "rhf"
			},
			{
				"type": "occ",
				"energy": -0.26835,
				"method": "rhf"
			},
			{
				"type": "occ",
				"energy": -0.2524,
				"method": "rhf"
			},
			{
				"type": "occ",
				"energy": -0.22457,
				"method": "rhf"
			},
			{
				"type": "unocc",
				"energy": -0.02295,
				"method": "rhf"
			},
			{
				"type": "unocc",
				"energy": -0.00782,
				"method": "rhf"
			},
			{
				"type": "unocc",
				"energy": 0.05155,
				"method": "rhf"
			},
			{
				"type": "unocc",
				"energy": 0.08116,
				"method": "rhf"
			},
			{
				"type": "unocc",
				"energy": 0.10459,
				"method": "rhf"
			}
		],
		"cosmo_sigma_profile": { 
			"-0.025": 0.0,
			"-0.024": 0.0,
			"-0.023": 0.0,
			"-0.022": 0.0,
			"-0.021": 0.0,
			"-0.02": 0.0,
			"-0.019": 0.0,
			"-0.018": 0.0,
			"-0.017": 0.0,
			"-0.016": 0.0,
			"-0.015": 0.0,
			"-0.014": 0.0,
			"-0.013": 0.0,
			"-0.012": 0.0,
			"-0.011": 0.0,
			"-0.01": 0.0,
			"-0.009": 0.0,
			"-0.008": 0.0277311207061,
			"-0.007": 2.45337054326,
			"-0.006": 7.79666381124,
			"-0.005": 18.9385278398,
			"-0.004": 18.8649681395,
			"-0.003": 21.1410384342,
			"-0.002": 22.9969076118,
			"-0.001": 20.2447513097,
			"0.0": 19.1404855611,
			"0.001": 12.9704311293,
			"0.002": 12.2206180749,
			"0.003": 7.97038591382,
			"0.004": 9.5031431703,
			"0.005": 11.177566696,
			"0.006": 5.62767304463,
			"0.007": 3.99176132619,
			"0.008": 3.90068341961,
			"0.009": 2.90623317621,
			"0.01": 2.50972387726,
			"0.011": 1.22557323326,
			"0.012": 0.925558238313,
			"0.013": 0.74903364118,
			"0.014": 1.07914178513,
			"0.015": 0.762325446237,
			"0.016": 0.172428848189,
			"0.017": 0.0,
			"0.018": 0.0,
			"0.019": 0.0,
			"0.02": 0.0,
			"0.021": 0.0,
			"0.022": 0.0,
			"0.023": 0.0,
			"0.024": 0.0,
			"0.025": 0.0
		}
	}
}
