{
	 "smiles": "NC1=CC=C(C=C1)S(=O)(=O)NC1CCC(O)CC1", 
	 "Tm": 428.15, 
	 "num_atms": 36, 
	 "gaussian": { 
		 "optdone": 1, 
		 "sigma_profile": "yes", 
		 "theory": "DFT", 
		 "functional": "B3LYP", 
		 "basiset": "6-31G**", 
		 "properties": { 
			 "R2extent": 6207.6741, 
			 "electric_dipole_moment_norm": 6.42274590654, 
			 "electric_quadrupole_moment_norm": 38.7098654159, 
			 "total_energy": -1201.42089735, 
			 "HOMO_LUMO_gap": 0.20081, 
			 "cosmo_polarized_energy": -23.54, 
			 "cosmo_cavitation_energy": 38.41, 
			 "cosmo_dispersion_energy": -27.2, 
			 "cosmo_repulsion_energy": 2.1, 
			 "cosmo_total_nonelectrostatic_energy": 13.3, 
			 "SMD_solvation_energy": 4.71 
		},
		"coords": [
			{
				"x": 1.4143539673,
				"y": 2.636017639,
				"z": -5.3278713441,
				"element": "N" 
			},
			{
				"x": 1.1100326875,
				"y": 2.4427689317,
				"z": -3.9918431567,
				"element": "C" 
			},
			{
				"x": 2.102117813,
				"y": 2.0345951763,
				"z": -3.0798034847,
				"element": "C" 
			},
			{
				"x": 1.806228237,
				"y": 1.8914394903,
				"z": -1.729233842,
				"element": "C" 
			},
			{
				"x": 0.5123007637,
				"y": 2.1478162904,
				"z": -1.2701087767,
				"element": "C" 
			},
			{
				"x": -0.4838861427,
				"y": 2.5639064838,
				"z": -2.1605420335,
				"element": "C" 
			},
			{
				"x": -0.1893661966,
				"y": 2.7054149701,
				"z": -3.5082650362,
				"element": "C" 
			},
			{
				"x": 0.1445815343,
				"y": 2.0079420919,
				"z": 0.4679800679,
				"element": "S" 
			},
			{
				"x": -0.6530567543,
				"y": 3.1744082981,
				"z": 0.8697288029,
				"element": "O" 
			},
			{
				"x": 1.3979632004,
				"y": 1.6653987692,
				"z": 1.1551275662,
				"element": "O" 
			},
			{
				"x": -0.9515988995,
				"y": 0.7082268052,
				"z": 0.5703169922,
				"element": "N" 
			},
			{
				"x": -0.4443598843,
				"y": -0.6265192343,
				"z": 0.9861443853,
				"element": "C" 
			},
			{
				"x": 0.1937625032,
				"y": -1.3843618872,
				"z": -0.2065869491,
				"element": "C" 
			},
			{
				"x": -0.792270496,
				"y": -2.3284555373,
				"z": -0.9324035535,
				"element": "C" 
			},
			{
				"x": -2.22109679,
				"y": -1.77595774,
				"z": -0.9287027309,
				"element": "C" 
			},
			{
				"x": -3.1284081085,
				"y": -2.6294052402,
				"z": -1.6277937019,
				"element": "O" 
			},
			{
				"x": -2.7512184296,
				"y": -1.6565306427,
				"z": 0.5111800028,
				"element": "C" 
			},
			{
				"x": -1.6285543213,
				"y": -1.4254638921,
				"z": 1.5494296741,
				"element": "C" 
			},
			{
				"x": 0.643038627,
				"y": 2.6391056441,
				"z": -5.9784523062,
				"element": "H" 
			},
			{
				"x": 2.2411492294,
				"y": 2.1775278784,
				"z": -5.6806431888,
				"element": "H" 
			},
			{
				"x": 3.1106198027,
				"y": 1.8414160155,
				"z": -3.435763585,
				"element": "H" 
			},
			{
				"x": 2.5706757804,
				"y": 1.5873392056,
				"z": -1.0227449859,
				"element": "H" 
			},
			{
				"x": -1.4817713482,
				"y": 2.7817159136,
				"z": -1.7949162583,
				"element": "H" 
			},
			{
				"x": -0.961073615,
				"y": 3.0337465242,
				"z": -4.1995543329,
				"element": "H" 
			},
			{
				"x": -1.6908192818,
				"y": 1.0487048042,
				"z": 1.1828198096,
				"element": "H" 
			},
			{
				"x": 0.3111336808,
				"y": -0.497218933,
				"z": 1.769127955,
				"element": "H" 
			},
			{
				"x": 1.0443618962,
				"y": -1.9657727339,
				"z": 0.1653121336,
				"element": "H" 
			},
			{
				"x": 0.6058539368,
				"y": -0.6574392195,
				"z": -0.9114525677,
				"element": "H" 
			},
			{
				"x": -0.4569573705,
				"y": -2.4937570818,
				"z": -1.9643187268,
				"element": "H" 
			},
			{
				"x": -0.810402273,
				"y": -3.3152184253,
				"z": -0.4525733898,
				"element": "H" 
			},
			{
				"x": -2.2095017515,
				"y": -0.7774330386,
				"z": -1.3907113649,
				"element": "H" 
			},
			{
				"x": -2.860916467,
				"y": -2.6451655197,
				"z": -2.5559328863,
				"element": "H" 
			},
			{
				"x": -3.49805681,
				"y": -0.8575924551,
				"z": 0.5582631108,
				"element": "H" 
			},
			{
				"x": -3.2769829946,
				"y": -2.5889822208,
				"z": 0.7428346349,
				"element": "H" 
			},
			{
				"x": -2.0274339674,
				"y": -0.9336466758,
				"z": 2.4449922274,
				"element": "H" 
			},
			{
				"x": -1.2290417577,
				"y": -2.3881704542,
				"z": 1.8884608393,
				"element": "H" 
			}
		],
		 "valence_orbital": [ 
			{
				"type": "occ",
				"energy": -0.28959,
				"method": "rhf"
			},
			{
				"type": "occ",
				"energy": -0.26833,
				"method": "rhf"
			},
			{
				"type": "occ",
				"energy": -0.26404,
				"method": "rhf"
			},
			{
				"type": "occ",
				"energy": -0.2564,
				"method": "rhf"
			},
			{
				"type": "occ",
				"energy": -0.22091,
				"method": "rhf"
			},
			{
				"type": "unocc",
				"energy": -0.0201,
				"method": "rhf"
			},
			{
				"type": "unocc",
				"energy": -0.01526,
				"method": "rhf"
			},
			{
				"type": "unocc",
				"energy": 0.0562,
				"method": "rhf"
			},
			{
				"type": "unocc",
				"energy": 0.0659,
				"method": "rhf"
			},
			{
				"type": "unocc",
				"energy": 0.07436,
				"method": "rhf"
			}
		],
		"cosmo_sigma_profile": { 
			"-0.025": 0.0,
			"-0.024": 0.0,
			"-0.023": 0.0,
			"-0.022": 0.0,
			"-0.021": 0.0,
			"-0.02": 0.0,
			"-0.019": 0.0,
			"-0.018": 0.0,
			"-0.017": 0.0,
			"-0.016": 0.0204155594489,
			"-0.015": 0.712273057595,
			"-0.014": 0.871650489575,
			"-0.013": 4.19681469162,
			"-0.012": 4.30563570928,
			"-0.011": 5.4386791563,
			"-0.01": 5.40402099508,
			"-0.009": 4.85864822539,
			"-0.008": 5.07910684372,
			"-0.007": 7.73008509886,
			"-0.006": 11.0234222913,
			"-0.005": 10.0696821836,
			"-0.004": 16.5523448192,
			"-0.003": 26.7195956357,
			"-0.002": 25.2534252887,
			"-0.001": 24.9118529855,
			"0.0": 23.8424388075,
			"0.001": 15.418527191,
			"0.002": 13.2920757472,
			"0.003": 15.2668058456,
			"0.004": 18.7790348488,
			"0.005": 7.81742822319,
			"0.006": 6.47923729923,
			"0.007": 4.64234908745,
			"0.008": 4.73624462742,
			"0.009": 5.43606052338,
			"0.01": 7.55289856549,
			"0.011": 10.3374367824,
			"0.012": 8.76276195514,
			"0.013": 1.66306119138,
			"0.014": 2.21117271733,
			"0.015": 0.867650307594,
			"0.016": 0.0,
			"0.017": 0.0,
			"0.018": 0.0,
			"0.019": 0.0,
			"0.02": 0.0,
			"0.021": 0.0,
			"0.022": 0.0,
			"0.023": 0.0,
			"0.024": 0.0,
			"0.025": 0.0
		}
	}
}
