{
	 "smiles": "CN1C(=O)C(C2=NNC(=O)C2=C/NC2=CC=CC=N2)=C(O)C2=CC=CC=C12", 
	 "Tm": 508.15, 
	 "num_atms": 42, 
	 "gaussian": { 
		 "optdone": 1, 
		 "sigma_profile": "yes", 
		 "theory": "DFT", 
		 "functional": "B3LYP", 
		 "basiset": "6-31G**", 
		 "properties": { 
			 "R2extent": 12903.7507, 
			 "electric_dipole_moment_norm": 2.45156152279, 
			 "electric_quadrupole_moment_norm": 24.7001710984, 
			 "total_energy": -1232.52837579, 
			 "HOMO_LUMO_gap": 0.13304, 
			 "cosmo_polarized_energy": -18.33, 
			 "cosmo_cavitation_energy": 45.75, 
			 "cosmo_dispersion_energy": -34.03, 
			 "cosmo_repulsion_energy": 2.48, 
			 "cosmo_total_nonelectrostatic_energy": 14.19, 
			 "SMD_solvation_energy": 7.19 
		},
		"coords": [
			{
				"x": 1.8363294315,
				"y": 1.8383656731,
				"z": 2.1156819235,
				"element": "C" 
			},
			{
				"x": 0.7461221269,
				"y": 2.2263375195,
				"z": 1.220866769,
				"element": "N" 
			},
			{
				"x": 0.0811792111,
				"y": 1.1877478186,
				"z": 0.5376610439,
				"element": "C" 
			},
			{
				"x": 0.4319939284,
				"y": 0.0208289708,
				"z": 0.7424785205,
				"element": "O" 
			},
			{
				"x": -0.9985131496,
				"y": 1.5589809821,
				"z": -0.3702194762,
				"element": "C" 
			},
			{
				"x": -1.7023346169,
				"y": 0.5402789247,
				"z": -1.169881101,
				"element": "C" 
			},
			{
				"x": -2.8195502136,
				"y": 0.9295526731,
				"z": -1.7759563555,
				"element": "N" 
			},
			{
				"x": -3.290431051,
				"y": -0.1137185643,
				"z": -2.5314105514,
				"element": "N" 
			},
			{
				"x": -2.5090482926,
				"y": -1.2353910095,
				"z": -2.442721683,
				"element": "C" 
			},
			{
				"x": -2.7132403386,
				"y": -2.3197920536,
				"z": -3.019688967,
				"element": "O" 
			},
			{
				"x": -1.4208921269,
				"y": -0.8408468453,
				"z": -1.53988622,
				"element": "C" 
			},
			{
				"x": -0.4005740525,
				"y": -1.732650513,
				"z": -1.2581906681,
				"element": "C" 
			},
			{
				"x": -0.4102253965,
				"y": -2.9593652027,
				"z": -1.8072636406,
				"element": "N" 
			},
			{
				"x": 0.5659740939,
				"y": -3.9437519133,
				"z": -1.6084889803,
				"element": "C" 
			},
			{
				"x": 0.3974344674,
				"y": -5.1965591796,
				"z": -2.2214002105,
				"element": "C" 
			},
			{
				"x": 1.3769178702,
				"y": -6.1593543464,
				"z": -2.0128738941,
				"element": "C" 
			},
			{
				"x": 2.4790748581,
				"y": -5.8509626087,
				"z": -1.2108721562,
				"element": "C" 
			},
			{
				"x": 2.5433254045,
				"y": -4.5748707822,
				"z": -0.6531264469,
				"element": "C" 
			},
			{
				"x": 1.6137559026,
				"y": -3.6327177364,
				"z": -0.8424533084,
				"element": "N" 
			},
			{
				"x": -1.3871430397,
				"y": 2.8963412586,
				"z": -0.4586121734,
				"element": "C" 
			},
			{
				"x": -2.4063075869,
				"y": 3.3191836559,
				"z": -1.1986221173,
				"element": "O" 
			},
			{
				"x": -0.6758998932,
				"y": 3.9298962504,
				"z": 0.2601817531,
				"element": "C" 
			},
			{
				"x": -1.0403952393,
				"y": 5.2837299646,
				"z": 0.1374776942,
				"element": "C" 
			},
			{
				"x": -0.349347061,
				"y": 6.2692339231,
				"z": 0.8229542739,
				"element": "C" 
			},
			{
				"x": 0.7224083988,
				"y": 5.905695876,
				"z": 1.6503884829,
				"element": "C" 
			},
			{
				"x": 1.0982122729,
				"y": 4.5764925057,
				"z": 1.7914212553,
				"element": "C" 
			},
			{
				"x": 0.4037451692,
				"y": 3.5645255428,
				"z": 1.097163363,
				"element": "C" 
			},
			{
				"x": 1.6195963192,
				"y": 2.1474622783,
				"z": 3.1430797119,
				"element": "H" 
			},
			{
				"x": 1.9208419795,
				"y": 0.7557290756,
				"z": 2.0705877109,
				"element": "H" 
			},
			{
				"x": 2.7779130795,
				"y": 2.2952870164,
				"z": 1.7950324226,
				"element": "H" 
			},
			{
				"x": -4.1547130663,
				"y": -0.0208704961,
				"z": -3.0405078273,
				"element": "H" 
			},
			{
				"x": 0.41702701,
				"y": -1.4883643055,
				"z": -0.5937872019,
				"element": "H" 
			},
			{
				"x": -1.2214220716,
				"y": -3.1538448568,
				"z": -2.4130754169,
				"element": "H" 
			},
			{
				"x": -0.4748011063,
				"y": -5.3971265944,
				"z": -2.8356935017,
				"element": "H" 
			},
			{
				"x": 1.2808592721,
				"y": -7.1397061082,
				"z": -2.4701465795,
				"element": "H" 
			},
			{
				"x": 3.2643101597,
				"y": -6.5751813184,
				"z": -1.0233826477,
				"element": "H" 
			},
			{
				"x": 3.383167138,
				"y": -4.2895773226,
				"z": -0.0223942917,
				"element": "H" 
			},
			{
				"x": -2.8379065902,
				"y": 2.5013402632,
				"z": -1.6056432457,
				"element": "H" 
			},
			{
				"x": -1.8746363453,
				"y": 5.5304408624,
				"z": -0.508554582,
				"element": "H" 
			},
			{
				"x": -0.6355788351,
				"y": 7.3111079453,
				"z": 0.7216244073,
				"element": "H" 
			},
			{
				"x": 1.2715237066,
				"y": 6.6691880057,
				"z": 2.1940314402,
				"element": "H" 
			},
			{
				"x": 1.9282482729,
				"y": 4.3252047712,
				"z": 2.4386224723,
				"element": "H" 
			}
		],
		 "valence_orbital": [ 
			{
				"type": "occ",
				"energy": -0.25463,
				"method": "rhf"
			},
			{
				"type": "occ",
				"energy": -0.25095,
				"method": "rhf"
			},
			{
				"type": "occ",
				"energy": -0.22299,
				"method": "rhf"
			},
			{
				"type": "occ",
				"energy": -0.21592,
				"method": "rhf"
			},
			{
				"type": "occ",
				"energy": -0.19995,
				"method": "rhf"
			},
			{
				"type": "unocc",
				"energy": -0.06691,
				"method": "rhf"
			},
			{
				"type": "unocc",
				"energy": -0.04291,
				"method": "rhf"
			},
			{
				"type": "unocc",
				"energy": -0.02658,
				"method": "rhf"
			},
			{
				"type": "unocc",
				"energy": -0.00589,
				"method": "rhf"
			},
			{
				"type": "unocc",
				"energy": 0.00963,
				"method": "rhf"
			}
		],
		"cosmo_sigma_profile": { 
			"-0.025": 0.0,
			"-0.024": 0.0,
			"-0.023": 0.0,
			"-0.022": 0.0,
			"-0.021": 0.0,
			"-0.02": 0.0,
			"-0.019": 0.0,
			"-0.018": 0.0,
			"-0.017": 0.179150734371,
			"-0.016": 1.37934792895,
			"-0.015": 1.35459270532,
			"-0.014": 0.761264127828,
			"-0.013": 0.899232092282,
			"-0.012": 0.941466475268,
			"-0.011": 0.997869810209,
			"-0.01": 1.86917991791,
			"-0.009": 2.39470741677,
			"-0.008": 2.87907271553,
			"-0.007": 11.5188518345,
			"-0.006": 21.1815376307,
			"-0.005": 23.5507620646,
			"-0.004": 21.9653800278,
			"-0.003": 19.3324940017,
			"-0.002": 20.9463002119,
			"-0.001": 31.6705378479,
			"0.0": 39.3815197898,
			"0.001": 35.8783500421,
			"0.002": 35.7492434346,
			"0.003": 24.0403193076,
			"0.004": 16.9873510208,
			"0.005": 10.228121715,
			"0.006": 7.01602125145,
			"0.007": 7.46849046752,
			"0.008": 5.90046478631,
			"0.009": 4.38272755494,
			"0.01": 4.67026203432,
			"0.011": 4.09701668771,
			"0.012": 3.03621118976,
			"0.013": 3.48082371524,
			"0.014": 2.4165947156,
			"0.015": 0.425871457872,
			"0.016": 0.0,
			"0.017": 0.0,
			"0.018": 0.0,
			"0.019": 0.0,
			"0.02": 0.0,
			"0.021": 0.0,
			"0.022": 0.0,
			"0.023": 0.0,
			"0.024": 0.0,
			"0.025": 0.0
		}
	}
}
