{
	 "smiles": "CC(C)C1=C(N=NN1C1=CC=C(F)C=C1)C(O)=O", 
	 "Tm": 420.15, 
	 "num_atms": 30, 
	 "gaussian": { 
		 "optdone": 1, 
		 "sigma_profile": "yes", 
		 "theory": "DFT", 
		 "functional": "B3LYP", 
		 "basiset": "6-31G**", 
		 "properties": { 
			 "R2extent": 5305.9329, 
			 "electric_dipole_moment_norm": 5.03856046307, 
			 "electric_quadrupole_moment_norm": 21.5613837299, 
			 "total_energy": -879.03465352, 
			 "HOMO_LUMO_gap": 0.21768, 
			 "cosmo_polarized_energy": -14.08, 
			 "cosmo_cavitation_energy": 34.44, 
			 "cosmo_dispersion_energy": -24.06, 
			 "cosmo_repulsion_energy": 1.83, 
			 "cosmo_total_nonelectrostatic_energy": 12.21, 
			 "SMD_solvation_energy": 6.43 
		},
		"coords": [
			{
				"x": -1.3885972605,
				"y": 1.4410218288,
				"z": -2.3174858859,
				"element": "C" 
			},
			{
				"x": -1.0803773424,
				"y": 0.0526606153,
				"z": -1.7215586572,
				"element": "C" 
			},
			{
				"x": -2.0313253745,
				"y": -1.0236780386,
				"z": -2.2840472244,
				"element": "C" 
			},
			{
				"x": -1.1274786758,
				"y": 0.0802040476,
				"z": -0.2147293513,
				"element": "C" 
			},
			{
				"x": -2.1585391445,
				"y": 0.2933012413,
				"z": 0.6955925903,
				"element": "C" 
			},
			{
				"x": -1.6734784606,
				"y": 0.1361993378,
				"z": 1.9624968032,
				"element": "N" 
			},
			{
				"x": -0.4145161313,
				"y": -0.1518329993,
				"z": 1.9217201675,
				"element": "N" 
			},
			{
				"x": -0.0602646982,
				"y": -0.1860118752,
				"z": 0.5978230146,
				"element": "N" 
			},
			{
				"x": 1.2973973409,
				"y": -0.487877715,
				"z": 0.2684561494,
				"element": "C" 
			},
			{
				"x": 1.8754356076,
				"y": -1.6464098575,
				"z": 0.7954068627,
				"element": "C" 
			},
			{
				"x": 3.2064683217,
				"y": -1.9436128289,
				"z": 0.5145676668,
				"element": "C" 
			},
			{
				"x": 3.9312451942,
				"y": -1.0763201451,
				"z": -0.2973537485,
				"element": "C" 
			},
			{
				"x": 5.2143266709,
				"y": -1.3658145832,
				"z": -0.5773981116,
				"element": "F" 
			},
			{
				"x": 3.3728868272,
				"y": 0.0836153639,
				"z": -0.8245636184,
				"element": "C" 
			},
			{
				"x": 2.0449293968,
				"y": 0.3845570153,
				"z": -0.5278112027,
				"element": "C" 
			},
			{
				"x": -3.5873834621,
				"y": 0.6397060459,
				"z": 0.5152503722,
				"element": "C" 
			},
			{
				"x": -4.2627341552,
				"y": 0.7505937872,
				"z": 1.6752246676,
				"element": "O" 
			},
			{
				"x": -4.1280844596,
				"y": 0.8159728889,
				"z": -0.5571722269,
				"element": "O" 
			},
			{
				"x": -1.3008655562,
				"y": 1.4025757391,
				"z": -3.407849034,
				"element": "H" 
			},
			{
				"x": -2.406065831,
				"y": 1.7446064658,
				"z": -2.0613321828,
				"element": "H" 
			},
			{
				"x": -0.6935405629,
				"y": 2.202643886,
				"z": -1.9480901813,
				"element": "H" 
			},
			{
				"x": -0.0592744154,
				"y": -0.2237201623,
				"z": -2.0048073265,
				"element": "H" 
			},
			{
				"x": -3.0677319129,
				"y": -0.7849680859,
				"z": -2.036880676,
				"element": "H" 
			},
			{
				"x": -1.9341922438,
				"y": -1.0640320754,
				"z": -3.373664875,
				"element": "H" 
			},
			{
				"x": -1.7904790294,
				"y": -2.0142356432,
				"z": -1.8856429228,
				"element": "H" 
			},
			{
				"x": 1.2822597141,
				"y": -2.299201409,
				"z": 1.4254695821,
				"element": "H" 
			},
			{
				"x": 3.6833760605,
				"y": -2.8334701529,
				"z": 0.9096087956,
				"element": "H" 
			},
			{
				"x": 3.9779258957,
				"y": 0.7394314433,
				"z": -1.4402553455,
				"element": "H" 
			},
			{
				"x": 1.5977012329,
				"y": 1.3003852405,
				"z": -0.8987831574,
				"element": "H" 
			},
			{
				"x": -3.6400235461,
				"y": 0.5740106248,
				"z": 2.4062090561,
				"element": "H" 
			}
		],
		 "valence_orbital": [ 
			{
				"type": "occ",
				"energy": -0.29633,
				"method": "rhf"
			},
			{
				"type": "occ",
				"energy": -0.28976,
				"method": "rhf"
			},
			{
				"type": "occ",
				"energy": -0.27446,
				"method": "rhf"
			},
			{
				"type": "occ",
				"energy": -0.27341,
				"method": "rhf"
			},
			{
				"type": "occ",
				"energy": -0.26462,
				"method": "rhf"
			},
			{
				"type": "unocc",
				"energy": -0.04694,
				"method": "rhf"
			},
			{
				"type": "unocc",
				"energy": -0.04111,
				"method": "rhf"
			},
			{
				"type": "unocc",
				"energy": -0.03061,
				"method": "rhf"
			},
			{
				"type": "unocc",
				"energy": -0.01026,
				"method": "rhf"
			},
			{
				"type": "unocc",
				"energy": 0.05759,
				"method": "rhf"
			}
		],
		"cosmo_sigma_profile": { 
			"-0.025": 0.0,
			"-0.024": 0.0,
			"-0.023": 0.0,
			"-0.022": 0.0,
			"-0.021": 0.0,
			"-0.02": 0.0,
			"-0.019": 0.0,
			"-0.018": 0.0,
			"-0.017": 0.0,
			"-0.016": 0.0,
			"-0.015": 0.0577023721195,
			"-0.014": 0.258451565622,
			"-0.013": 0.811039645983,
			"-0.012": 0.514558171256,
			"-0.011": 0.522363659466,
			"-0.01": 0.736500824593,
			"-0.009": 0.538180048037,
			"-0.008": 5.56724164624,
			"-0.007": 11.4366862914,
			"-0.006": 11.8204198385,
			"-0.005": 12.5086369092,
			"-0.004": 22.2471753738,
			"-0.003": 22.2874549353,
			"-0.002": 20.3659979187,
			"-0.001": 25.6038026357,
			"0.0": 30.1672290751,
			"0.001": 25.5421375527,
			"0.002": 16.9406868229,
			"0.003": 10.8349055604,
			"0.004": 12.583713517,
			"0.005": 5.18202622562,
			"0.006": 5.17096194081,
			"0.007": 4.28951958665,
			"0.008": 6.71612493462,
			"0.009": 7.03920275288,
			"0.01": 6.42796738821,
			"0.011": 3.84431685941,
			"0.012": 3.76357248522,
			"0.013": 1.32234142925,
			"0.014": 0.00778274233108,
			"0.015": 0.0,
			"0.016": 0.0,
			"0.017": 0.0,
			"0.018": 0.0,
			"0.019": 0.0,
			"0.02": 0.0,
			"0.021": 0.0,
			"0.022": 0.0,
			"0.023": 0.0,
			"0.024": 0.0,
			"0.025": 0.0
		}
	}
}
