{
	 "smiles": "COC1=CC=C(C=C1OC)C(=O)C1=CC=C(C)C=C1", 
	 "Tm": 382.15, 
	 "num_atms": 35, 
	 "gaussian": { 
		 "optdone": 1, 
		 "sigma_profile": "yes", 
		 "theory": "DFT", 
		 "functional": "B3LYP", 
		 "basiset": "6-31G**", 
		 "properties": { 
			 "R2extent": 7496.4103, 
			 "electric_dipole_moment_norm": 3.11012769674, 
			 "electric_quadrupole_moment_norm": 20.4460271857, 
			 "total_energy": -844.994547096, 
			 "HOMO_LUMO_gap": 0.17521, 
			 "cosmo_polarized_energy": -11.44, 
			 "cosmo_cavitation_energy": 38.79, 
			 "cosmo_dispersion_energy": -27.52, 
			 "cosmo_repulsion_energy": 2.13, 
			 "cosmo_total_nonelectrostatic_energy": 13.39, 
			 "SMD_solvation_energy": 8.5 
		},
		"coords": [
			{
				"x": -5.0782207034,
				"y": -0.5456996619,
				"z": 0.5053046216,
				"element": "C" 
			},
			{
				"x": -4.126993649,
				"y": 0.3940958572,
				"z": -0.0159253859,
				"element": "O" 
			},
			{
				"x": -2.8079497392,
				"y": 0.0576338155,
				"z": 0.1586587995,
				"element": "C" 
			},
			{
				"x": -2.0095611488,
				"y": 0.8732465479,
				"z": 0.9625214753,
				"element": "C" 
			},
			{
				"x": -0.6552498056,
				"y": 0.592861413,
				"z": 1.136389521,
				"element": "C" 
			},
			{
				"x": -0.0803662545,
				"y": -0.5284318554,
				"z": 0.5190786622,
				"element": "C" 
			},
			{
				"x": -0.8885569699,
				"y": -1.3520353683,
				"z": -0.2810372851,
				"element": "C" 
			},
			{
				"x": -2.231615917,
				"y": -1.0595090532,
				"z": -0.4847352824,
				"element": "C" 
			},
			{
				"x": -2.9878288869,
				"y": -1.8924296645,
				"z": -1.2799149215,
				"element": "O" 
			},
			{
				"x": -3.3777471666,
				"y": -1.3241040009,
				"z": -2.5360014999,
				"element": "C" 
			},
			{
				"x": 1.3436729011,
				"y": -0.9482712525,
				"z": 0.7277926951,
				"element": "C" 
			},
			{
				"x": 1.6495540893,
				"y": -2.1324430226,
				"z": 0.6228777652,
				"element": "O" 
			},
			{
				"x": 2.3972514298,
				"y": 0.0633180149,
				"z": 1.0650364589,
				"element": "C" 
			},
			{
				"x": 2.3546468694,
				"y": 1.3979949351,
				"z": 0.6364584991,
				"element": "C" 
			},
			{
				"x": 3.4069718085,
				"y": 2.26730415,
				"z": 0.9243577286,
				"element": "C" 
			},
			{
				"x": 4.5211943081,
				"y": 1.838514293,
				"z": 1.6555987164,
				"element": "C" 
			},
			{
				"x": 5.6423357994,
				"y": 2.7886301245,
				"z": 2.0004347835,
				"element": "C" 
			},
			{
				"x": 4.5636064471,
				"y": 0.4974410753,
				"z": 2.0718210483,
				"element": "C" 
			},
			{
				"x": 3.5279925223,
				"y": -0.378365727,
				"z": 1.7722177021,
				"element": "C" 
			},
			{
				"x": -4.9719916907,
				"y": -0.6351817112,
				"z": 1.593371869,
				"element": "H" 
			},
			{
				"x": -6.0638306684,
				"y": -0.138914237,
				"z": 0.271550709,
				"element": "H" 
			},
			{
				"x": -4.9612575341,
				"y": -1.5302874821,
				"z": 0.0445177308,
				"element": "H" 
			},
			{
				"x": -2.4760044045,
				"y": 1.7223888267,
				"z": 1.451773997,
				"element": "H" 
			},
			{
				"x": -0.0584343261,
				"y": 1.2248123443,
				"z": 1.7844128386,
				"element": "H" 
			},
			{
				"x": -0.4588552112,
				"y": -2.2307947804,
				"z": -0.7492830968,
				"element": "H" 
			},
			{
				"x": -3.9666996016,
				"y": -2.0878138741,
				"z": -3.0477595222,
				"element": "H" 
			},
			{
				"x": -2.4958969298,
				"y": -1.0809209293,
				"z": -3.1416839893,
				"element": "H" 
			},
			{
				"x": -3.983226908,
				"y": -0.422663352,
				"z": -2.3959179116,
				"element": "H" 
			},
			{
				"x": 1.5137668734,
				"y": 1.7535212496,
				"z": 0.0503721221,
				"element": "H" 
			},
			{
				"x": 3.3636281229,
				"y": 3.294175693,
				"z": 0.5701452083,
				"element": "H" 
			},
			{
				"x": 5.5687316067,
				"y": 3.1225421606,
				"z": 3.0429950527,
				"element": "H" 
			},
			{
				"x": 5.6218130398,
				"y": 3.6803589267,
				"z": 1.3678135523,
				"element": "H" 
			},
			{
				"x": 6.6206023795,
				"y": 2.3110145472,
				"z": 1.8845800202,
				"element": "H" 
			},
			{
				"x": 5.4253377815,
				"y": 0.1393068444,
				"z": 2.6300347305,
				"element": "H" 
			},
			{
				"x": 3.5731815364,
				"y": -1.4199948466,
				"z": 2.0726425874,
				"element": "H" 
			}
		],
		 "valence_orbital": [ 
			{
				"type": "occ",
				"energy": -0.25562,
				"method": "rhf"
			},
			{
				"type": "occ",
				"energy": -0.25165,
				"method": "rhf"
			},
			{
				"type": "occ",
				"energy": -0.24834,
				"method": "rhf"
			},
			{
				"type": "occ",
				"energy": -0.23973,
				"method": "rhf"
			},
			{
				"type": "occ",
				"energy": -0.23305,
				"method": "rhf"
			},
			{
				"type": "unocc",
				"energy": -0.05784,
				"method": "rhf"
			},
			{
				"type": "unocc",
				"energy": -0.01123,
				"method": "rhf"
			},
			{
				"type": "unocc",
				"energy": -0.00524,
				"method": "rhf"
			},
			{
				"type": "unocc",
				"energy": -0.00138,
				"method": "rhf"
			},
			{
				"type": "unocc",
				"energy": 0.0594,
				"method": "rhf"
			}
		],
		"cosmo_sigma_profile": { 
			"-0.025": 0.0,
			"-0.024": 0.0,
			"-0.023": 0.0,
			"-0.022": 0.0,
			"-0.021": 0.0,
			"-0.02": 0.0,
			"-0.019": 0.0,
			"-0.018": 0.0,
			"-0.017": 0.0,
			"-0.016": 0.0,
			"-0.015": 0.0,
			"-0.014": 0.0,
			"-0.013": 0.0,
			"-0.012": 0.0,
			"-0.011": 0.0,
			"-0.01": 0.0,
			"-0.009": 0.0,
			"-0.008": 0.0,
			"-0.007": 0.676350688526,
			"-0.006": 9.64884920585,
			"-0.005": 22.8940040308,
			"-0.004": 32.5101798022,
			"-0.003": 37.7009522986,
			"-0.002": 33.6829695389,
			"-0.001": 29.3005627471,
			"0.0": 24.9745907182,
			"0.001": 19.117593825,
			"0.002": 20.7137442637,
			"0.003": 21.5306723729,
			"0.004": 17.4387470705,
			"0.005": 8.22235273957,
			"0.006": 4.75653544971,
			"0.007": 3.61036208601,
			"0.008": 3.46285950512,
			"0.009": 4.06205292974,
			"0.01": 3.61610403172,
			"0.011": 4.54183397407,
			"0.012": 4.70210487655,
			"0.013": 1.5624473662,
			"0.014": 0.0,
			"0.015": 0.0,
			"0.016": 0.0,
			"0.017": 0.0,
			"0.018": 0.0,
			"0.019": 0.0,
			"0.02": 0.0,
			"0.021": 0.0,
			"0.022": 0.0,
			"0.023": 0.0,
			"0.024": 0.0,
			"0.025": 0.0
		}
	}
}
