{
	 "smiles": "NC1=CC=C(S)C=C1", 
	 "Tm": 319.15, 
	 "num_atms": 15, 
	 "gaussian": { 
		 "optdone": 1, 
		 "sigma_profile": "yes", 
		 "theory": "DFT", 
		 "functional": "B3LYP", 
		 "basiset": "6-31G**", 
		 "properties": { 
			 "R2extent": 1837.5349, 
			 "electric_dipole_moment_norm": 3.2197199226, 
			 "electric_quadrupole_moment_norm": 8.23094802741, 
			 "total_energy": -685.794843718, 
			 "HOMO_LUMO_gap": 0.20568, 
			 "cosmo_polarized_energy": -9.56, 
			 "cosmo_cavitation_energy": 20.4, 
			 "cosmo_dispersion_energy": -15.85, 
			 "cosmo_repulsion_energy": 1.28, 
			 "cosmo_total_nonelectrostatic_energy": 5.82, 
			 "SMD_solvation_energy": 3.07 
		},
		"coords": [
			{
				"x": 0.7398220286,
				"y": -3.144116508,
				"z": -2.5894243373,
				"element": "N" 
			},
			{
				"x": 0.1954450962,
				"y": -2.00207173,
				"z": -2.007877818,
				"element": "C" 
			},
			{
				"x": -0.1790623987,
				"y": -1.9934514167,
				"z": -0.6522432528,
				"element": "C" 
			},
			{
				"x": -0.7721909665,
				"y": -0.8687787789,
				"z": -0.0874326221,
				"element": "C" 
			},
			{
				"x": -1.0161275205,
				"y": 0.2763190948,
				"z": -0.8560239296,
				"element": "C" 
			},
			{
				"x": -1.7285129108,
				"y": 1.7492660139,
				"z": -0.1066050786,
				"element": "S" 
			},
			{
				"x": -0.6340899872,
				"y": 0.2744506922,
				"z": -2.2034000623,
				"element": "C" 
			},
			{
				"x": -0.0407703108,
				"y": -0.8468899257,
				"z": -2.7746121879,
				"element": "C" 
			},
			{
				"x": 1.2837118891,
				"y": -2.9915634454,
				"z": -3.4270099454,
				"element": "H" 
			},
			{
				"x": 1.187959849,
				"y": -3.7879524248,
				"z": -1.9527997124,
				"element": "H" 
			},
			{
				"x": -0.0032217192,
				"y": -2.8758827592,
				"z": -0.0417509167,
				"element": "H" 
			},
			{
				"x": -1.0476243191,
				"y": -0.8764516704,
				"z": 0.9625040422,
				"element": "H" 
			},
			{
				"x": -3.0316721855,
				"y": 1.4786052883,
				"z": -0.3423043294,
				"element": "H" 
			},
			{
				"x": -0.801439471,
				"y": 1.1604949319,
				"z": -2.8077487928,
				"element": "H" 
			},
			{
				"x": 0.2433729265,
				"y": -0.8325773619,
				"z": -3.8240710569,
				"element": "H" 
			}
		],
		 "valence_orbital": [ 
			{
				"type": "occ",
				"energy": -0.33359,
				"method": "rhf"
			},
			{
				"type": "occ",
				"energy": -0.30479,
				"method": "rhf"
			},
			{
				"type": "occ",
				"energy": -0.25189,
				"method": "rhf"
			},
			{
				"type": "occ",
				"energy": -0.23693,
				"method": "rhf"
			},
			{
				"type": "occ",
				"energy": -0.20735,
				"method": "rhf"
			},
			{
				"type": "unocc",
				"energy": -0.00167,
				"method": "rhf"
			},
			{
				"type": "unocc",
				"energy": 0.00138,
				"method": "rhf"
			},
			{
				"type": "unocc",
				"energy": 0.04642,
				"method": "rhf"
			},
			{
				"type": "unocc",
				"energy": 0.07493,
				"method": "rhf"
			},
			{
				"type": "unocc",
				"energy": 0.07954,
				"method": "rhf"
			}
		],
		"cosmo_sigma_profile": { 
			"-0.025": 0.0,
			"-0.024": 0.0,
			"-0.023": 0.0,
			"-0.022": 0.0,
			"-0.021": 0.0,
			"-0.02": 0.0,
			"-0.019": 0.0,
			"-0.018": 0.0,
			"-0.017": 0.0,
			"-0.016": 0.0,
			"-0.015": 0.0,
			"-0.014": 0.0,
			"-0.013": 0.601124247841,
			"-0.012": 2.66668229698,
			"-0.011": 3.15729262428,
			"-0.01": 3.05524115201,
			"-0.009": 4.74526456462,
			"-0.008": 4.22656746059,
			"-0.007": 5.31106572192,
			"-0.006": 7.00905631779,
			"-0.005": 9.11560606051,
			"-0.004": 9.20252499779,
			"-0.003": 8.72662042962,
			"-0.002": 6.45050257686,
			"-0.001": 7.75566409012,
			"0.0": 9.01334015872,
			"0.001": 9.66083652776,
			"0.002": 10.6786171786,
			"0.003": 10.7876743974,
			"0.004": 10.3719588169,
			"0.005": 13.9166602931,
			"0.006": 13.2002734753,
			"0.007": 3.83265177343,
			"0.008": 2.84587180052,
			"0.009": 3.45219756104,
			"0.01": 2.17159130279,
			"0.011": 0.552902845888,
			"0.012": 0.88561344996,
			"0.013": 0.638892143447,
			"0.014": 0.411200595638,
			"0.015": 0.00563862158938,
			"0.016": 0.0,
			"0.017": 0.0,
			"0.018": 0.0,
			"0.019": 0.0,
			"0.02": 0.0,
			"0.021": 0.0,
			"0.022": 0.0,
			"0.023": 0.0,
			"0.024": 0.0,
			"0.025": 0.0
		}
	}
}
