{
	 "smiles": "ClC1=C(NC2=CC=CC=C2)C(=O)C2=CC=CC=C2C1=O", 
	 "Tm": 488.15, 
	 "num_atms": 30, 
	 "gaussian": { 
		 "optdone": 1, 
		 "sigma_profile": "yes", 
		 "theory": "DFT", 
		 "functional": "B3LYP", 
		 "basiset": "6-31G**", 
		 "properties": { 
			 "R2extent": 6508.3557, 
			 "electric_dipole_moment_norm": 2.87777170047, 
			 "electric_quadrupole_moment_norm": 21.8705152644, 
			 "total_energy": -1281.11459887, 
			 "HOMO_LUMO_gap": 0.10584, 
			 "cosmo_polarized_energy": -14.42, 
			 "cosmo_cavitation_energy": 36.47, 
			 "cosmo_dispersion_energy": -26.46, 
			 "cosmo_repulsion_energy": 2.0, 
			 "cosmo_total_nonelectrostatic_energy": 12.01, 
			 "SMD_solvation_energy": 6.45 
		},
		"coords": [
			{
				"x": -0.2114171652,
				"y": -0.4581819197,
				"z": -2.9843437851,
				"element": "Cl" 
			},
			{
				"x": 0.481242187,
				"y": 0.1791184488,
				"z": -1.5082974971,
				"element": "C" 
			},
			{
				"x": 0.0444763298,
				"y": -0.2916825264,
				"z": -0.2932042184,
				"element": "C" 
			},
			{
				"x": -0.8844155265,
				"y": -1.2869534748,
				"z": -0.1982921063,
				"element": "N" 
			},
			{
				"x": -1.7977100776,
				"y": -1.5839418891,
				"z": 0.8481442028,
				"element": "C" 
			},
			{
				"x": -2.3741208783,
				"y": -0.5883374997,
				"z": 1.6467643131,
				"element": "C" 
			},
			{
				"x": -3.3124902892,
				"y": -0.935106945,
				"z": 2.6151801366,
				"element": "C" 
			},
			{
				"x": -3.7067904706,
				"y": -2.2654634083,
				"z": 2.7802466429,
				"element": "C" 
			},
			{
				"x": -3.1492371179,
				"y": -3.2525463951,
				"z": 1.9669675682,
				"element": "C" 
			},
			{
				"x": -2.1950031108,
				"y": -2.9167784659,
				"z": 1.0073567129,
				"element": "C" 
			},
			{
				"x": 0.7495039619,
				"y": 0.1775180001,
				"z": 0.960833368,
				"element": "C" 
			},
			{
				"x": 0.5470627973,
				"y": -0.3789812672,
				"z": 2.0291189733,
				"element": "O" 
			},
			{
				"x": 1.7147699219,
				"y": 1.299869299,
				"z": 0.8331125539,
				"element": "C" 
			},
			{
				"x": 2.282391642,
				"y": 1.8423858478,
				"z": 1.9915404181,
				"element": "C" 
			},
			{
				"x": 3.20440455,
				"y": 2.8824738589,
				"z": 1.8912937665,
				"element": "C" 
			},
			{
				"x": 3.5684504905,
				"y": 3.3773419991,
				"z": 0.6346212442,
				"element": "C" 
			},
			{
				"x": 3.0124928773,
				"y": 2.8329000539,
				"z": -0.5229609707,
				"element": "C" 
			},
			{
				"x": 2.0830492176,
				"y": 1.7948951518,
				"z": -0.4279980273,
				"element": "C" 
			},
			{
				"x": 1.5010206264,
				"y": 1.2205096591,
				"z": -1.6804598455,
				"element": "C" 
			},
			{
				"x": 1.8467474869,
				"y": 1.6269558003,
				"z": -2.7843169749,
				"element": "O" 
			},
			{
				"x": -1.0993849369,
				"y": -1.7297038726,
				"z": -1.0835864762,
				"element": "H" 
			},
			{
				"x": -2.0956738429,
				"y": 0.4499791257,
				"z": 1.5036916595,
				"element": "H" 
			},
			{
				"x": -3.750378736,
				"y": -0.1571651909,
				"z": 3.2337333242,
				"element": "H" 
			},
			{
				"x": -4.4453411679,
				"y": -2.5274635864,
				"z": 3.5315508907,
				"element": "H" 
			},
			{
				"x": -3.4487636835,
				"y": -4.2900279931,
				"z": 2.0823546887,
				"element": "H" 
			},
			{
				"x": -1.7435315411,
				"y": -3.6858497812,
				"z": 0.3867701756,
				"element": "H" 
			},
			{
				"x": 1.9903098679,
				"y": 1.434087769,
				"z": 2.953132838,
				"element": "H" 
			},
			{
				"x": 3.6421575902,
				"y": 3.3059463092,
				"z": 2.7902677033,
				"element": "H" 
			},
			{
				"x": 4.2889766984,
				"y": 4.1863743993,
				"z": 0.5583680993,
				"element": "H" 
			},
			{
				"x": 3.2827022993,
				"y": 3.1928284933,
				"z": -1.5097893786,
				"element": "H" 
			}
		],
		 "valence_orbital": [ 
			{
				"type": "occ",
				"energy": -0.271,
				"method": "rhf"
			},
			{
				"type": "occ",
				"energy": -0.26511,
				"method": "rhf"
			},
			{
				"type": "occ",
				"energy": -0.26129,
				"method": "rhf"
			},
			{
				"type": "occ",
				"energy": -0.25631,
				"method": "rhf"
			},
			{
				"type": "occ",
				"energy": -0.21741,
				"method": "rhf"
			},
			{
				"type": "unocc",
				"energy": -0.11157,
				"method": "rhf"
			},
			{
				"type": "unocc",
				"energy": -0.04236,
				"method": "rhf"
			},
			{
				"type": "unocc",
				"energy": -0.02455,
				"method": "rhf"
			},
			{
				"type": "unocc",
				"energy": -0.00835,
				"method": "rhf"
			},
			{
				"type": "unocc",
				"energy": 0.00291,
				"method": "rhf"
			}
		],
		"cosmo_sigma_profile": { 
			"-0.025": 0.0,
			"-0.024": 0.0,
			"-0.023": 0.0,
			"-0.022": 0.0,
			"-0.021": 0.0,
			"-0.02": 0.0,
			"-0.019": 0.0,
			"-0.018": 0.0,
			"-0.017": 0.0,
			"-0.016": 0.0,
			"-0.015": 0.0,
			"-0.014": 0.0713526771096,
			"-0.013": 0.916149823515,
			"-0.012": 1.01821828327,
			"-0.011": 0.701415346871,
			"-0.01": 1.13656516001,
			"-0.009": 1.57659559273,
			"-0.008": 3.09520022616,
			"-0.007": 9.69886210938,
			"-0.006": 20.3494707361,
			"-0.005": 21.2839084138,
			"-0.004": 20.6551429928,
			"-0.003": 19.1208349654,
			"-0.002": 20.9684183321,
			"-0.001": 21.0951654554,
			"0.0": 21.441348734,
			"0.001": 26.2207464751,
			"0.002": 24.6072326032,
			"0.003": 17.6863838426,
			"0.004": 15.0520277884,
			"0.005": 13.019459082,
			"0.006": 7.03180171662,
			"0.007": 4.73523117618,
			"0.008": 3.65418634836,
			"0.009": 4.44394357122,
			"0.01": 6.64107828121,
			"0.011": 5.66516315332,
			"0.012": 3.65269119051,
			"0.013": 0.946968294749,
			"0.014": 0.0,
			"0.015": 0.0,
			"0.016": 0.0,
			"0.017": 0.0,
			"0.018": 0.0,
			"0.019": 0.0,
			"0.02": 0.0,
			"0.021": 0.0,
			"0.022": 0.0,
			"0.023": 0.0,
			"0.024": 0.0,
			"0.025": 0.0
		}
	}
}
