{
	 "smiles": "O=C1C=C(NC2=CC=CC=C2)C(=O)C2=CC=CC=C12", 
	 "Tm": 466.15, 
	 "num_atms": 30, 
	 "gaussian": { 
		 "optdone": 1, 
		 "sigma_profile": "yes", 
		 "theory": "DFT", 
		 "functional": "B3LYP", 
		 "basiset": "6-31G**", 
		 "properties": { 
			 "R2extent": 6092.9597, 
			 "electric_dipole_moment_norm": 1.73844407733, 
			 "electric_quadrupole_moment_norm": 23.086193701, 
			 "total_energy": -821.524544033, 
			 "HOMO_LUMO_gap": 0.10875, 
			 "cosmo_polarized_energy": -15.62, 
			 "cosmo_cavitation_energy": 34.77, 
			 "cosmo_dispersion_energy": -25.18, 
			 "cosmo_repulsion_energy": 1.9, 
			 "cosmo_total_nonelectrostatic_energy": 11.48, 
			 "SMD_solvation_energy": 6.5 
		},
		"coords": [
			{
				"x": 0.9295466788,
				"y": 4.1566923254,
				"z": 1.7729595026,
				"element": "O" 
			},
			{
				"x": 0.6330120023,
				"y": 2.9666039037,
				"z": 1.6638321473,
				"element": "C" 
			},
			{
				"x": 1.1783779569,
				"y": 2.1400101467,
				"z": 0.5935553081,
				"element": "C" 
			},
			{
				"x": 0.8755833768,
				"y": 0.8195796774,
				"z": 0.4205628451,
				"element": "C" 
			},
			{
				"x": 1.4856973611,
				"y": 0.071002292,
				"z": -0.5584835097,
				"element": "N" 
			},
			{
				"x": 0.9833244638,
				"y": -1.0280748939,
				"z": -1.2996782629,
				"element": "C" 
			},
			{
				"x": -0.382833431,
				"y": -1.2031113421,
				"z": -1.5557729347,
				"element": "C" 
			},
			{
				"x": -0.8104919958,
				"y": -2.2758892261,
				"z": -2.3339391626,
				"element": "C" 
			},
			{
				"x": 0.1115518351,
				"y": -3.1665290304,
				"z": -2.8893635731,
				"element": "C" 
			},
			{
				"x": 1.4738722093,
				"y": -2.9769159692,
				"z": -2.6537202421,
				"element": "C" 
			},
			{
				"x": 1.9095790689,
				"y": -1.9179891774,
				"z": -1.8589174596,
				"element": "C" 
			},
			{
				"x": -0.0032476161,
				"y": 0.114674651,
				"z": 1.4293091902,
				"element": "C" 
			},
			{
				"x": -0.1468157243,
				"y": -1.0989461645,
				"z": 1.4030961065,
				"element": "O" 
			},
			{
				"x": -0.6431571925,
				"y": 0.9558606192,
				"z": 2.4784555997,
				"element": "C" 
			},
			{
				"x": -1.5445600322,
				"y": 0.3587151088,
				"z": 3.3678634416,
				"element": "C" 
			},
			{
				"x": -2.1396043729,
				"y": 1.1208794266,
				"z": 4.371072017,
				"element": "C" 
			},
			{
				"x": -1.8323374913,
				"y": 2.4803431775,
				"z": 4.4950190015,
				"element": "C" 
			},
			{
				"x": -0.9296240356,
				"y": 3.0783188863,
				"z": 3.616263046,
				"element": "C" 
			},
			{
				"x": -0.3336624128,
				"y": 2.3213462075,
				"z": 2.6054971951,
				"element": "C" 
			},
			{
				"x": 1.8473530114,
				"y": 2.6513883542,
				"z": -0.0941002668,
				"element": "H" 
			},
			{
				"x": 2.2903740643,
				"y": 0.5177370723,
				"z": -0.9780707138,
				"element": "H" 
			},
			{
				"x": -1.1041759458,
				"y": -0.5001282924,
				"z": -1.1542989774,
				"element": "H" 
			},
			{
				"x": -1.872526818,
				"y": -2.4057671123,
				"z": -2.5208509541,
				"element": "H" 
			},
			{
				"x": -0.2287197201,
				"y": -3.9952019563,
				"z": -3.502574252,
				"element": "H" 
			},
			{
				"x": 2.2029096312,
				"y": -3.6595956794,
				"z": -3.0804328976,
				"element": "H" 
			},
			{
				"x": 2.9686386086,
				"y": -1.7827880398,
				"z": -1.6558151279,
				"element": "H" 
			},
			{
				"x": -1.7595966044,
				"y": -0.6987734633,
				"z": 3.2566016649,
				"element": "H" 
			},
			{
				"x": -2.8404460164,
				"y": 0.6572128999,
				"z": 5.0589876751,
				"element": "H" 
			},
			{
				"x": -2.2963228227,
				"y": 3.0713745305,
				"z": 5.2793666524,
				"element": "H" 
			},
			{
				"x": -0.6688980366,
				"y": 4.128771068,
				"z": 3.6912769414,
				"element": "H" 
			}
		],
		 "valence_orbital": [ 
			{
				"type": "occ",
				"energy": -0.26499,
				"method": "rhf"
			},
			{
				"type": "occ",
				"energy": -0.26384,
				"method": "rhf"
			},
			{
				"type": "occ",
				"energy": -0.25402,
				"method": "rhf"
			},
			{
				"type": "occ",
				"energy": -0.25005,
				"method": "rhf"
			},
			{
				"type": "occ",
				"energy": -0.21393,
				"method": "rhf"
			},
			{
				"type": "unocc",
				"energy": -0.10518,
				"method": "rhf"
			},
			{
				"type": "unocc",
				"energy": -0.03596,
				"method": "rhf"
			},
			{
				"type": "unocc",
				"energy": -0.01935,
				"method": "rhf"
			},
			{
				"type": "unocc",
				"energy": -0.00549,
				"method": "rhf"
			},
			{
				"type": "unocc",
				"energy": 0.0077,
				"method": "rhf"
			}
		],
		"cosmo_sigma_profile": { 
			"-0.025": 0.0,
			"-0.024": 0.0,
			"-0.023": 0.0,
			"-0.022": 0.0,
			"-0.021": 0.0,
			"-0.02": 0.0,
			"-0.019": 0.0,
			"-0.018": 0.0,
			"-0.017": 0.0,
			"-0.016": 0.0656855977969,
			"-0.015": 1.22492653989,
			"-0.014": 1.48632616707,
			"-0.013": 1.1074888905,
			"-0.012": 1.03229691436,
			"-0.011": 1.82109647682,
			"-0.01": 1.60042671902,
			"-0.009": 1.48996314121,
			"-0.008": 1.89796929497,
			"-0.007": 8.59076095262,
			"-0.006": 17.425723942,
			"-0.005": 20.5714857098,
			"-0.004": 20.6406117375,
			"-0.003": 19.7064185973,
			"-0.002": 16.2649765138,
			"-0.001": 16.7700876691,
			"0.0": 20.1874406657,
			"0.001": 24.731401214,
			"0.002": 22.769095992,
			"0.003": 18.0175116395,
			"0.004": 11.7444242837,
			"0.005": 11.5800417616,
			"0.006": 8.25645047537,
			"0.007": 3.98451721987,
			"0.008": 4.16544633055,
			"0.009": 3.6405159549,
			"0.01": 5.01348328797,
			"0.011": 6.08773785121,
			"0.012": 4.60245713732,
			"0.013": 2.74850486015,
			"0.014": 0.646183394292,
			"0.015": 0.0,
			"0.016": 0.0,
			"0.017": 0.0,
			"0.018": 0.0,
			"0.019": 0.0,
			"0.02": 0.0,
			"0.021": 0.0,
			"0.022": 0.0,
			"0.023": 0.0,
			"0.024": 0.0,
			"0.025": 0.0
		}
	}
}
