{
	 "smiles": "OC(=O)CC1=CC=C(NS(=O)(=O)C2=CC(Cl)=C(Cl)C=C2)C=C1", 
	 "Tm": 448.15, 
	 "num_atms": 33, 
	 "gaussian": { 
		 "optdone": 1, 
		 "sigma_profile": "yes", 
		 "theory": "DFT", 
		 "functional": "B3LYP", 
		 "basiset": "6-31G**", 
		 "properties": { 
			 "R2extent": 11214.3397, 
			 "electric_dipole_moment_norm": 3.1082776533, 
			 "electric_quadrupole_moment_norm": 19.637374051, 
			 "total_energy": -2214.2809435, 
			 "HOMO_LUMO_gap": 0.17742, 
			 "cosmo_polarized_energy": -21.04, 
			 "cosmo_cavitation_energy": 43.78, 
			 "cosmo_dispersion_energy": -29.8, 
			 "cosmo_repulsion_energy": 2.27, 
			 "cosmo_total_nonelectrostatic_energy": 16.25, 
			 "SMD_solvation_energy": 7.05 
		},
		"coords": [
			{
				"x": 4.7499648654,
				"y": -1.2688363324,
				"z": -0.8940179358,
				"element": "O" 
			},
			{
				"x": 3.7296668588,
				"y": -1.8648955991,
				"z": -1.5504212808,
				"element": "C" 
			},
			{
				"x": 3.5987841726,
				"y": -1.8062394252,
				"z": -2.7538457462,
				"element": "O" 
			},
			{
				"x": 2.7793269553,
				"y": -2.579517536,
				"z": -0.6048705031,
				"element": "C" 
			},
			{
				"x": 1.4768805994,
				"y": -1.8126553939,
				"z": -0.4358397363,
				"element": "C" 
			},
			{
				"x": 1.0598518248,
				"y": -1.3817414407,
				"z": 0.828237556,
				"element": "C" 
			},
			{
				"x": -0.1459859368,
				"y": -0.7040848908,
				"z": 1.0034927082,
				"element": "C" 
			},
			{
				"x": -0.9427772036,
				"y": -0.413703694,
				"z": -0.110579483,
				"element": "C" 
			},
			{
				"x": -2.1940153258,
				"y": 0.2501736603,
				"z": 0.0402031242,
				"element": "N" 
			},
			{
				"x": -2.361363403,
				"y": 1.7701272281,
				"z": 0.7708337356,
				"element": "S" 
			},
			{
				"x": -3.771289299,
				"y": 2.1053494327,
				"z": 0.5763567189,
				"element": "O" 
			},
			{
				"x": -1.7367885372,
				"y": 1.6922138927,
				"z": 2.0891491099,
				"element": "O" 
			},
			{
				"x": -1.3889202249,
				"y": 2.9208031138,
				"z": -0.2114665065,
				"element": "C" 
			},
			{
				"x": -0.0317119192,
				"y": 3.0765958187,
				"z": 0.0657552499,
				"element": "C" 
			},
			{
				"x": 0.7299385431,
				"y": 3.9461182688,
				"z": -0.7162482365,
				"element": "C" 
			},
			{
				"x": 2.4245568769,
				"y": 4.1303509915,
				"z": -0.3529370342,
				"element": "Cl" 
			},
			{
				"x": 0.1235310095,
				"y": 4.6557828717,
				"z": -1.7649423265,
				"element": "C" 
			},
			{
				"x": 1.0362805236,
				"y": 5.7534127687,
				"z": -2.762230162,
				"element": "Cl" 
			},
			{
				"x": -1.2419108226,
				"y": 4.4946909076,
				"z": -2.0203705713,
				"element": "C" 
			},
			{
				"x": -2.0049005167,
				"y": 3.625767948,
				"z": -1.2472020074,
				"element": "C" 
			},
			{
				"x": -0.5277308421,
				"y": -0.8274915492,
				"z": -1.3837111058,
				"element": "C" 
			},
			{
				"x": 0.6621215251,
				"y": -1.532151651,
				"z": -1.5408108982,
				"element": "C" 
			},
			{
				"x": 5.2840433717,
				"y": -0.8186066035,
				"z": -1.5709966855,
				"element": "H" 
			},
			{
				"x": 3.2626243983,
				"y": -2.7254302705,
				"z": 0.3629006761,
				"element": "H" 
			},
			{
				"x": 2.5811342162,
				"y": -3.5632193265,
				"z": -1.0444182248,
				"element": "H" 
			},
			{
				"x": 1.6749060032,
				"y": -1.5960060703,
				"z": 1.6981065614,
				"element": "H" 
			},
			{
				"x": -0.4746428961,
				"y": -0.40071673,
				"z": 1.9900160558,
				"element": "H" 
			},
			{
				"x": -2.8157728526,
				"y": 0.1892026135,
				"z": -0.7600112673,
				"element": "H" 
			},
			{
				"x": 0.4282113989,
				"y": 2.5449189364,
				"z": 0.8896263797,
				"element": "H" 
			},
			{
				"x": -1.6967906464,
				"y": 5.0616778084,
				"z": -2.8247350187,
				"element": "H" 
			},
			{
				"x": -3.0680799251,
				"y": 3.5106820973,
				"z": -1.4256215244,
				"element": "H" 
			},
			{
				"x": -1.1402379466,
				"y": -0.5991601254,
				"z": -2.2524707959,
				"element": "H" 
			},
			{
				"x": 0.9794951548,
				"y": -1.8436117195,
				"z": -2.5309308256,
				"element": "H" 
			}
		],
		 "valence_orbital": [ 
			{
				"type": "occ",
				"energy": -0.28496,
				"method": "rhf"
			},
			{
				"type": "occ",
				"energy": -0.28291,
				"method": "rhf"
			},
			{
				"type": "occ",
				"energy": -0.27096,
				"method": "rhf"
			},
			{
				"type": "occ",
				"energy": -0.26669,
				"method": "rhf"
			},
			{
				"type": "occ",
				"energy": -0.23895,
				"method": "rhf"
			},
			{
				"type": "unocc",
				"energy": -0.06153,
				"method": "rhf"
			},
			{
				"type": "unocc",
				"energy": -0.045,
				"method": "rhf"
			},
			{
				"type": "unocc",
				"energy": -0.02559,
				"method": "rhf"
			},
			{
				"type": "unocc",
				"energy": -0.01897,
				"method": "rhf"
			},
			{
				"type": "unocc",
				"energy": -0.01175,
				"method": "rhf"
			}
		],
		"cosmo_sigma_profile": { 
			"-0.025": 0.0,
			"-0.024": 0.0,
			"-0.023": 0.0,
			"-0.022": 0.0,
			"-0.021": 0.0,
			"-0.02": 0.0,
			"-0.019": 0.00264440156561,
			"-0.018": 0.842658592337,
			"-0.017": 1.00234023289,
			"-0.016": 1.34220860144,
			"-0.015": 2.19384454228,
			"-0.014": 1.90428675105,
			"-0.013": 2.1076662605,
			"-0.012": 1.5907142912,
			"-0.011": 2.71979588198,
			"-0.01": 1.48864621825,
			"-0.009": 3.60929638999,
			"-0.008": 7.26745161851,
			"-0.007": 10.3469723443,
			"-0.006": 14.2967785679,
			"-0.005": 15.6818585829,
			"-0.004": 19.1895330484,
			"-0.003": 21.073438186,
			"-0.002": 22.2878879708,
			"-0.001": 34.1154755939,
			"0.0": 30.3292507418,
			"0.001": 23.4866501559,
			"0.002": 24.6821620868,
			"0.003": 31.8102728319,
			"0.004": 23.2591291839,
			"0.005": 9.6841552082,
			"0.006": 6.70100771127,
			"0.007": 6.2500683572,
			"0.008": 5.74128353204,
			"0.009": 8.06134315498,
			"0.01": 10.5544071623,
			"0.011": 8.05580276997,
			"0.012": 3.47324594688,
			"0.013": 0.0564335907109,
			"0.014": 0.0,
			"0.015": 0.0,
			"0.016": 0.0,
			"0.017": 0.0,
			"0.018": 0.0,
			"0.019": 0.0,
			"0.02": 0.0,
			"0.021": 0.0,
			"0.022": 0.0,
			"0.023": 0.0,
			"0.024": 0.0,
			"0.025": 0.0
		}
	}
}
