{
	 "smiles": "NC(=NO)C1=CC(=CC=C1)[N+]([O-])=O", 
	 "Tm": 456.15, 
	 "num_atms": 20, 
	 "gaussian": { 
		 "optdone": 1, 
		 "sigma_profile": "yes", 
		 "theory": "DFT", 
		 "functional": "B3LYP", 
		 "basiset": "6-31G**", 
		 "properties": { 
			 "R2extent": 3196.6834, 
			 "electric_dipole_moment_norm": 3.29024875959, 
			 "electric_quadrupole_moment_norm": 13.9753912296, 
			 "total_energy": -660.728235349, 
			 "HOMO_LUMO_gap": 0.12398, 
			 "cosmo_polarized_energy": -15.26, 
			 "cosmo_cavitation_energy": 25.6, 
			 "cosmo_dispersion_energy": -18.79, 
			 "cosmo_repulsion_energy": 1.51, 
			 "cosmo_total_nonelectrostatic_energy": 8.33, 
			 "SMD_solvation_energy": 6.6 
		},
		"coords": [
			{
				"x": 2.6931020576,
				"y": 1.8265737967,
				"z": 2.4337598766,
				"element": "N" 
			},
			{
				"x": 2.70781073,
				"y": 1.7616731392,
				"z": 1.0449713258,
				"element": "C" 
			},
			{
				"x": 3.7107705053,
				"y": 2.3082014654,
				"z": 0.4452870705,
				"element": "N" 
			},
			{
				"x": 3.6730539203,
				"y": 2.1165000682,
				"z": -0.9583518538,
				"element": "O" 
			},
			{
				"x": 1.5841747919,
				"y": 1.0126617477,
				"z": 0.4092504902,
				"element": "C" 
			},
			{
				"x": 0.2665236697,
				"y": 1.2831202015,
				"z": 0.7931177605,
				"element": "C" 
			},
			{
				"x": -0.7745796926,
				"y": 0.5685811928,
				"z": 0.206913484,
				"element": "C" 
			},
			{
				"x": -0.5539420754,
				"y": -0.415851449,
				"z": -0.7524800587,
				"element": "C" 
			},
			{
				"x": 0.7608356567,
				"y": -0.6801075177,
				"z": -1.1320826924,
				"element": "C" 
			},
			{
				"x": 1.8202906018,
				"y": 0.0272283859,
				"z": -0.56381757,
				"element": "C" 
			},
			{
				"x": -2.1559282994,
				"y": 0.8667176313,
				"z": 0.6210281838,
				"element": "N" 
			},
			{
				"x": -2.3198473586,
				"y": 1.731296217,
				"z": 1.4820114033,
				"element": "O" 
			},
			{
				"x": -3.0618987306,
				"y": 0.2325599158,
				"z": 0.082925204,
				"element": "O" 
			},
			{
				"x": 3.3093715784,
				"y": 2.5295948533,
				"z": 2.8205932116,
				"element": "H" 
			},
			{
				"x": 1.7887769809,
				"y": 1.780940598,
				"z": 2.8784627675,
				"element": "H" 
			},
			{
				"x": 4.4511148618,
				"y": 2.6154344294,
				"z": -1.2372181167,
				"element": "H" 
			},
			{
				"x": 0.0236934579,
				"y": 2.0494039025,
				"z": 1.5195422304,
				"element": "H" 
			},
			{
				"x": -1.3961928095,
				"y": -0.9466047272,
				"z": -1.1779294693,
				"element": "H" 
			},
			{
				"x": 0.961213525,
				"y": -1.4428905282,
				"z": -1.8776378448,
				"element": "H" 
			},
			{
				"x": 2.8381566288,
				"y": -0.1726333224,
				"z": -0.8736454025,
				"element": "H" 
			}
		],
		 "valence_orbital": [ 
			{
				"type": "occ",
				"energy": -0.29497,
				"method": "rhf"
			},
			{
				"type": "occ",
				"energy": -0.28592,
				"method": "rhf"
			},
			{
				"type": "occ",
				"energy": -0.28348,
				"method": "rhf"
			},
			{
				"type": "occ",
				"energy": -0.2739,
				"method": "rhf"
			},
			{
				"type": "occ",
				"energy": -0.21661,
				"method": "rhf"
			},
			{
				"type": "unocc",
				"energy": -0.09263,
				"method": "rhf"
			},
			{
				"type": "unocc",
				"energy": -0.04416,
				"method": "rhf"
			},
			{
				"type": "unocc",
				"energy": -0.00724,
				"method": "rhf"
			},
			{
				"type": "unocc",
				"energy": 0.03985,
				"method": "rhf"
			},
			{
				"type": "unocc",
				"energy": 0.06382,
				"method": "rhf"
			}
		],
		"cosmo_sigma_profile": { 
			"-0.025": 0.0,
			"-0.024": 0.0,
			"-0.023": 0.0,
			"-0.022": 0.0,
			"-0.021": 0.0,
			"-0.02": 0.0,
			"-0.019": 0.0,
			"-0.018": 0.0,
			"-0.017": 0.307962326046,
			"-0.016": 0.947759556214,
			"-0.015": 0.955809068087,
			"-0.014": 1.78652661121,
			"-0.013": 2.85620635938,
			"-0.012": 2.48022593021,
			"-0.011": 4.04123523672,
			"-0.01": 3.0359220683,
			"-0.009": 3.03395060782,
			"-0.008": 4.65465441063,
			"-0.007": 9.43362027706,
			"-0.006": 9.70686663306,
			"-0.005": 8.5034162127,
			"-0.004": 10.3017614867,
			"-0.003": 8.91968323024,
			"-0.002": 11.9927388542,
			"-0.001": 12.8407961967,
			"0.0": 14.3096352604,
			"0.001": 13.8584277719,
			"0.002": 8.37323647299,
			"0.003": 7.30201319889,
			"0.004": 5.9470745649,
			"0.005": 7.2884732468,
			"0.006": 8.63833998904,
			"0.007": 13.9020621574,
			"0.008": 10.4167466096,
			"0.009": 7.75948754835,
			"0.01": 4.51626013694,
			"0.011": 2.73242360852,
			"0.012": 1.94698404058,
			"0.013": 1.14595663445,
			"0.014": 0.456783223947,
			"0.015": 0.0,
			"0.016": 0.0,
			"0.017": 0.0,
			"0.018": 0.0,
			"0.019": 0.0,
			"0.02": 0.0,
			"0.021": 0.0,
			"0.022": 0.0,
			"0.023": 0.0,
			"0.024": 0.0,
			"0.025": 0.0
		}
	}
}
