{
	 "smiles": "[O-][N+](=O)C1=CC2=C(OCO2)C=C1C=O", 
	 "Tm": 367.35, 
	 "num_atms": 19, 
	 "gaussian": { 
		 "optdone": 1, 
		 "sigma_profile": "yes", 
		 "theory": "DFT", 
		 "functional": "B3LYP", 
		 "basiset": "6-31G**", 
		 "properties": { 
			 "R2extent": 3245.5198, 
			 "electric_dipole_moment_norm": 7.48692313972, 
			 "electric_quadrupole_moment_norm": 8.55839325282, 
			 "total_energy": -738.579291986, 
			 "HOMO_LUMO_gap": 0.15223, 
			 "cosmo_polarized_energy": -16.25, 
			 "cosmo_cavitation_energy": 25.04, 
			 "cosmo_dispersion_energy": -18.53, 
			 "cosmo_repulsion_energy": 1.44, 
			 "cosmo_total_nonelectrostatic_energy": 7.96, 
			 "SMD_solvation_energy": 8.45 
		},
		"coords": [
			{
				"x": 0.6920316199,
				"y": -0.1098962967,
				"z": 1.86167795,
				"element": "O" 
			},
			{
				"x": 0.6188170553,
				"y": 0.6919439278,
				"z": 0.9395295551,
				"element": "N" 
			},
			{
				"x": 1.2918781391,
				"y": 1.7139761128,
				"z": 0.8166590641,
				"element": "O" 
			},
			{
				"x": -0.2950977577,
				"y": 0.3664821809,
				"z": -0.1734944438,
				"element": "C" 
			},
			{
				"x": 0.2731308975,
				"y": 0.4372511776,
				"z": -1.451326502,
				"element": "C" 
			},
			{
				"x": -0.5263269423,
				"y": 0.0257827568,
				"z": -2.5002702754,
				"element": "C" 
			},
			{
				"x": -1.8307887839,
				"y": -0.4269263243,
				"z": -2.3011538551,
				"element": "C" 
			},
			{
				"x": -2.3872897757,
				"y": -0.7723881146,
				"z": -3.5000969131,
				"element": "O" 
			},
			{
				"x": -1.3846464306,
				"y": -0.5214756208,
				"z": -4.496219791,
				"element": "C" 
			},
			{
				"x": -0.2152961379,
				"y": -0.0209863581,
				"z": -3.825424862,
				"element": "O" 
			},
			{
				"x": -2.3965803631,
				"y": -0.4729850948,
				"z": -1.0452194852,
				"element": "C" 
			},
			{
				"x": -1.6142305351,
				"y": -0.0567791538,
				"z": 0.0550698972,
				"element": "C" 
			},
			{
				"x": -2.3131650562,
				"y": 0.0256254191,
				"z": 1.3678373459,
				"element": "C" 
			},
			{
				"x": -1.9620321445,
				"y": 0.6951671655,
				"z": 2.313710332,
				"element": "O" 
			},
			{
				"x": 1.2880767946,
				"y": 0.7858377316,
				"z": -1.5917513819,
				"element": "H" 
			},
			{
				"x": -1.7490958932,
				"y": 0.2331000915,
				"z": -5.2018482311,
				"element": "H" 
			},
			{
				"x": -1.136340028,
				"y": -1.4565137993,
				"z": -5.009946142,
				"element": "H" 
			},
			{
				"x": -3.4226517323,
				"y": -0.7942778047,
				"z": -0.8997014238,
				"element": "H" 
			},
			{
				"x": -3.257292926,
				"y": -0.5620379966,
				"z": 1.3959691621,
				"element": "H" 
			}
		],
		 "valence_orbital": [ 
			{
				"type": "occ",
				"energy": -0.30599,
				"method": "rhf"
			},
			{
				"type": "occ",
				"energy": -0.30065,
				"method": "rhf"
			},
			{
				"type": "occ",
				"energy": -0.28108,
				"method": "rhf"
			},
			{
				"type": "occ",
				"energy": -0.26714,
				"method": "rhf"
			},
			{
				"type": "occ",
				"energy": -0.24327,
				"method": "rhf"
			},
			{
				"type": "unocc",
				"energy": -0.09104,
				"method": "rhf"
			},
			{
				"type": "unocc",
				"energy": -0.05872,
				"method": "rhf"
			},
			{
				"type": "unocc",
				"energy": -0.02903,
				"method": "rhf"
			},
			{
				"type": "unocc",
				"energy": 0.0254,
				"method": "rhf"
			},
			{
				"type": "unocc",
				"energy": 0.06757,
				"method": "rhf"
			}
		],
		"cosmo_sigma_profile": { 
			"-0.025": 0.0,
			"-0.024": 0.0,
			"-0.023": 0.0,
			"-0.022": 0.0,
			"-0.021": 0.0,
			"-0.02": 0.0,
			"-0.019": 0.0,
			"-0.018": 0.0,
			"-0.017": 0.0,
			"-0.016": 0.0,
			"-0.015": 0.0,
			"-0.014": 0.0,
			"-0.013": 0.0,
			"-0.012": 0.0,
			"-0.011": 0.0,
			"-0.01": 2.1515474947,
			"-0.009": 9.12749147873,
			"-0.008": 13.8209306052,
			"-0.007": 13.140223756,
			"-0.006": 8.02228207204,
			"-0.005": 9.23592481075,
			"-0.004": 8.96236552714,
			"-0.003": 10.2500196196,
			"-0.002": 14.0890224463,
			"-0.001": 16.6240124785,
			"0.0": 11.4662568466,
			"0.001": 7.86207799308,
			"0.002": 6.60090310758,
			"0.003": 6.48861633698,
			"0.004": 6.22846455216,
			"0.005": 6.37831655999,
			"0.006": 8.07508358119,
			"0.007": 14.2859521204,
			"0.008": 12.8924031189,
			"0.009": 7.42627012768,
			"0.01": 4.76124548605,
			"0.011": 2.85735510396,
			"0.012": 1.12662512255,
			"0.013": 0.0380969668703,
			"0.014": 0.0,
			"0.015": 0.0,
			"0.016": 0.0,
			"0.017": 0.0,
			"0.018": 0.0,
			"0.019": 0.0,
			"0.02": 0.0,
			"0.021": 0.0,
			"0.022": 0.0,
			"0.023": 0.0,
			"0.024": 0.0,
			"0.025": 0.0
		}
	}
}
