{
	 "smiles": "CN(C)S(=O)(=O)C1=CC(C(O)=O)=C(F)C=C1", 
	 "Tm": 437.15, 
	 "num_atms": 26, 
	 "gaussian": { 
		 "optdone": 1, 
		 "sigma_profile": "yes", 
		 "theory": "DFT", 
		 "functional": "B3LYP", 
		 "basiset": "6-31G**", 
		 "properties": { 
			 "R2extent": 5273.9866, 
			 "electric_dipole_moment_norm": 4.46424121772, 
			 "electric_quadrupole_moment_norm": 15.5710027057, 
			 "total_energy": -1202.58886526, 
			 "HOMO_LUMO_gap": 0.18428, 
			 "cosmo_polarized_energy": -17.47, 
			 "cosmo_cavitation_energy": 32.23, 
			 "cosmo_dispersion_energy": -23.11, 
			 "cosmo_repulsion_energy": 1.74, 
			 "cosmo_total_nonelectrostatic_energy": 10.85, 
			 "SMD_solvation_energy": 6.07 
		},
		"coords": [
			{
				"x": 0.1799961504,
				"y": -1.6913709362,
				"z": -0.7890951359,
				"element": "C" 
			},
			{
				"x": 1.5099731084,
				"y": -1.2519314788,
				"z": -0.3479488986,
				"element": "N" 
			},
			{
				"x": 2.5835051757,
				"y": -2.2068857288,
				"z": -0.666270243,
				"element": "C" 
			},
			{
				"x": 1.8684207766,
				"y": 0.362112861,
				"z": -0.760123738,
				"element": "S" 
			},
			{
				"x": 3.2870202067,
				"y": 0.5577052528,
				"z": -0.4452417459,
				"element": "O" 
			},
			{
				"x": 1.3370803787,
				"y": 0.7078401739,
				"z": -2.0850820088,
				"element": "O" 
			},
			{
				"x": 0.8963292012,
				"y": 1.2530084856,
				"z": 0.4584834061,
				"element": "C" 
			},
			{
				"x": -0.2314100689,
				"y": 1.9567169894,
				"z": 0.0594393103,
				"element": "C" 
			},
			{
				"x": -0.9822322655,
				"y": 2.688131714,
				"z": 0.9947054454,
				"element": "C" 
			},
			{
				"x": -2.1819640811,
				"y": 3.4068809093,
				"z": 0.4735098578,
				"element": "C" 
			},
			{
				"x": -2.8366094817,
				"y": 4.1369265466,
				"z": 1.3992159817,
				"element": "O" 
			},
			{
				"x": -2.5427755107,
				"y": 3.3445063139,
				"z": -0.684651129,
				"element": "O" 
			},
			{
				"x": -0.5463245611,
				"y": 2.6827157031,
				"z": 2.3271759958,
				"element": "C" 
			},
			{
				"x": -1.2137453896,
				"y": 3.3548863578,
				"z": 3.2710948489,
				"element": "F" 
			},
			{
				"x": 0.5924840098,
				"y": 1.9831726932,
				"z": 2.7297749506,
				"element": "C" 
			},
			{
				"x": 1.3222612029,
				"y": 1.2651481318,
				"z": 1.7926136162,
				"element": "C" 
			},
			{
				"x": -0.5796060215,
				"y": -0.9804046227,
				"z": -0.4561882052,
				"element": "H" 
			},
			{
				"x": -0.0285138816,
				"y": -2.6541928725,
				"z": -0.3146821722,
				"element": "H" 
			},
			{
				"x": 0.1089136011,
				"y": -1.8010287328,
				"z": -1.8789446597,
				"element": "H" 
			},
			{
				"x": 2.6503355995,
				"y": -2.4278665008,
				"z": -1.740958481,
				"element": "H" 
			},
			{
				"x": 3.5372434561,
				"y": -1.8090582965,
				"z": -0.3220371343,
				"element": "H" 
			},
			{
				"x": 2.3686529674,
				"y": -3.1351663239,
				"z": -0.1292377222,
				"element": "H" 
			},
			{
				"x": -0.5449570426,
				"y": 1.962091588,
				"z": -0.9784595101,
				"element": "H" 
			},
			{
				"x": -3.5820041558,
				"y": 4.5468014919,
				"z": 0.9283420087,
				"element": "H" 
			},
			{
				"x": 0.8850036787,
				"y": 2.0219690852,
				"z": 3.7730973504,
				"element": "H" 
			},
			{
				"x": 2.2171229468,
				"y": 0.7257911956,
				"z": 2.0826680117,
				"element": "H" 
			}
		],
		 "valence_orbital": [ 
			{
				"type": "occ",
				"energy": -0.30412,
				"method": "rhf"
			},
			{
				"type": "occ",
				"energy": -0.29298,
				"method": "rhf"
			},
			{
				"type": "occ",
				"energy": -0.28974,
				"method": "rhf"
			},
			{
				"type": "occ",
				"energy": -0.28266,
				"method": "rhf"
			},
			{
				"type": "occ",
				"energy": -0.25532,
				"method": "rhf"
			},
			{
				"type": "unocc",
				"energy": -0.07104,
				"method": "rhf"
			},
			{
				"type": "unocc",
				"energy": -0.04315,
				"method": "rhf"
			},
			{
				"type": "unocc",
				"energy": 0.02482,
				"method": "rhf"
			},
			{
				"type": "unocc",
				"energy": 0.05365,
				"method": "rhf"
			},
			{
				"type": "unocc",
				"energy": 0.07096,
				"method": "rhf"
			}
		],
		"cosmo_sigma_profile": { 
			"-0.025": 0.0,
			"-0.024": 0.0,
			"-0.023": 0.0,
			"-0.022": 0.0,
			"-0.021": 0.0,
			"-0.02": 0.0,
			"-0.019": 0.397979778091,
			"-0.018": 1.01493563442,
			"-0.017": 0.659468028353,
			"-0.016": 1.42489493364,
			"-0.015": 0.488828339786,
			"-0.014": 0.594633417741,
			"-0.013": 0.159889137167,
			"-0.012": 0.766705713943,
			"-0.011": 0.824838531876,
			"-0.01": 0.714712203489,
			"-0.009": 2.92832742412,
			"-0.008": 5.47679283058,
			"-0.007": 4.77052667619,
			"-0.006": 10.0073975465,
			"-0.005": 14.2724702492,
			"-0.004": 22.2562031032,
			"-0.003": 27.090678208,
			"-0.002": 30.9134091411,
			"-0.001": 18.9166451681,
			"0.0": 14.4034336028,
			"0.001": 12.4000825841,
			"0.002": 8.49923712363,
			"0.003": 13.4646341108,
			"0.004": 7.73438982007,
			"0.005": 5.65007410813,
			"0.006": 5.98135881943,
			"0.007": 6.86871006942,
			"0.008": 7.39797000478,
			"0.009": 6.34419451988,
			"0.01": 9.9402094832,
			"0.011": 11.7204146618,
			"0.012": 2.76823209558,
			"0.013": 0.0,
			"0.014": 0.0,
			"0.015": 0.0,
			"0.016": 0.0,
			"0.017": 0.0,
			"0.018": 0.0,
			"0.019": 0.0,
			"0.02": 0.0,
			"0.021": 0.0,
			"0.022": 0.0,
			"0.023": 0.0,
			"0.024": 0.0,
			"0.025": 0.0
		}
	}
}
