{
	 "smiles": "FC1=CC(NC(=O)CN2CCNCC2)=CC=C1", 
	 "Tm": 342.15, 
	 "num_atms": 33, 
	 "gaussian": { 
		 "optdone": 1, 
		 "sigma_profile": "yes", 
		 "theory": "DFT", 
		 "functional": "B3LYP", 
		 "basiset": "6-31G**", 
		 "properties": { 
			 "R2extent": 6244.8268, 
			 "electric_dipole_moment_norm": 4.374038867, 
			 "electric_quadrupole_moment_norm": 15.9623318062, 
			 "total_energy": -806.230223816, 
			 "HOMO_LUMO_gap": 0.2054, 
			 "cosmo_polarized_energy": -14.28, 
			 "cosmo_cavitation_energy": 35.51, 
			 "cosmo_dispersion_energy": -25.09, 
			 "cosmo_repulsion_energy": 1.91, 
			 "cosmo_total_nonelectrostatic_energy": 12.34, 
			 "SMD_solvation_energy": 3.54 
		},
		"coords": [
			{
				"x": -0.1836581611,
				"y": -3.7495312465,
				"z": 4.9625711361,
				"element": "F" 
			},
			{
				"x": -0.8903700628,
				"y": -3.1108404816,
				"z": 4.0061871178,
				"element": "C" 
			},
			{
				"x": -0.1879718586,
				"y": -2.4020210615,
				"z": 3.04003065,
				"element": "C" 
			},
			{
				"x": -0.9215139097,
				"y": -1.7374494692,
				"z": 2.0459757179,
				"element": "C" 
			},
			{
				"x": -0.3070321901,
				"y": -0.9936871899,
				"z": 1.0251521612,
				"element": "N" 
			},
			{
				"x": 1.0261947493,
				"y": -0.7698506764,
				"z": 0.7985275156,
				"element": "C" 
			},
			{
				"x": 1.9513891978,
				"y": -1.1980419461,
				"z": 1.4742060747,
				"element": "O" 
			},
			{
				"x": 1.2867255123,
				"y": 0.0513694732,
				"z": -0.4741076804,
				"element": "C" 
			},
			{
				"x": 0.1628960565,
				"y": 0.8868945406,
				"z": -0.8838760943,
				"element": "N" 
			},
			{
				"x": 0.0536629921,
				"y": 2.124662703,
				"z": -0.1007940058,
				"element": "C" 
			},
			{
				"x": -1.3382186037,
				"y": 2.7638785226,
				"z": -0.3544967233,
				"element": "C" 
			},
			{
				"x": -1.9123785545,
				"y": 2.4088806866,
				"z": -1.6592052627,
				"element": "N" 
			},
			{
				"x": -0.8620871223,
				"y": 2.2843862267,
				"z": -2.6657540672,
				"element": "C" 
			},
			{
				"x": 0.1894144293,
				"y": 1.1901712546,
				"z": -2.3259217981,
				"element": "C" 
			},
			{
				"x": -2.3257803096,
				"y": -1.8044650219,
				"z": 2.0505366064,
				"element": "C" 
			},
			{
				"x": -2.989271059,
				"y": -2.5271103004,
				"z": 3.0380868621,
				"element": "C" 
			},
			{
				"x": -2.277640746,
				"y": -3.1944396392,
				"z": 4.0363657946,
				"element": "C" 
			},
			{
				"x": 0.891742619,
				"y": -2.3628591028,
				"z": 3.0524639136,
				"element": "H" 
			},
			{
				"x": -0.9049082263,
				"y": -0.5302877729,
				"z": 0.3465848248,
				"element": "H" 
			},
			{
				"x": 1.4935446795,
				"y": -0.6720325412,
				"z": -1.2730058415,
				"element": "H" 
			},
			{
				"x": 2.2192048723,
				"y": 0.613612938,
				"z": -0.3098495077,
				"element": "H" 
			},
			{
				"x": 0.1764654539,
				"y": 1.8868925928,
				"z": 0.9603557549,
				"element": "H" 
			},
			{
				"x": 0.8652991162,
				"y": 2.8277744478,
				"z": -0.363922037,
				"element": "H" 
			},
			{
				"x": -1.2504667445,
				"y": 3.8558313627,
				"z": -0.2855722657,
				"element": "H" 
			},
			{
				"x": -2.045836309,
				"y": 2.4522977159,
				"z": 0.4202932552,
				"element": "H" 
			},
			{
				"x": -2.3826684343,
				"y": 1.5117115589,
				"z": -1.5730634647,
				"element": "H" 
			},
			{
				"x": -1.3144121526,
				"y": 2.0778083965,
				"z": -3.6407640644,
				"element": "H" 
			},
			{
				"x": -0.3701186418,
				"y": 3.260633388,
				"z": -2.7504352264,
				"element": "H" 
			},
			{
				"x": -0.0255629835,
				"y": 0.2605314962,
				"z": -2.8669762043,
				"element": "H" 
			},
			{
				"x": 1.1914215469,
				"y": 1.5286294809,
				"z": -2.6476544195,
				"element": "H" 
			},
			{
				"x": -2.8918792826,
				"y": -1.2906422777,
				"z": 1.2781188948,
				"element": "H" 
			},
			{
				"x": -4.0741643001,
				"y": -2.5715949249,
				"z": 3.0303687866,
				"element": "H" 
			},
			{
				"x": -2.7700215731,
				"y": -3.7636131327,
				"z": 4.8163735966,
				"element": "H" 
			}
		],
		 "valence_orbital": [ 
			{
				"type": "occ",
				"energy": -0.26052,
				"method": "rhf"
			},
			{
				"type": "occ",
				"energy": -0.24632,
				"method": "rhf"
			},
			{
				"type": "occ",
				"energy": -0.23735,
				"method": "rhf"
			},
			{
				"type": "occ",
				"energy": -0.23179,
				"method": "rhf"
			},
			{
				"type": "occ",
				"energy": -0.2224,
				"method": "rhf"
			},
			{
				"type": "unocc",
				"energy": -0.017,
				"method": "rhf"
			},
			{
				"type": "unocc",
				"energy": 0.00173,
				"method": "rhf"
			},
			{
				"type": "unocc",
				"energy": 0.04108,
				"method": "rhf"
			},
			{
				"type": "unocc",
				"energy": 0.05225,
				"method": "rhf"
			},
			{
				"type": "unocc",
				"energy": 0.07964,
				"method": "rhf"
			}
		],
		"cosmo_sigma_profile": { 
			"-0.025": 0.0,
			"-0.024": 0.0,
			"-0.023": 0.0,
			"-0.022": 0.0,
			"-0.021": 0.0,
			"-0.02": 0.0,
			"-0.019": 0.0,
			"-0.018": 0.0,
			"-0.017": 0.0,
			"-0.016": 0.0,
			"-0.015": 0.0,
			"-0.014": 0.0,
			"-0.013": 0.0,
			"-0.012": 0.136496829685,
			"-0.011": 0.825872012489,
			"-0.01": 1.19054077654,
			"-0.009": 2.1836071557,
			"-0.008": 2.26366646652,
			"-0.007": 5.54156441102,
			"-0.006": 9.84886078501,
			"-0.005": 13.7157308104,
			"-0.004": 24.5705858849,
			"-0.003": 38.3820509996,
			"-0.002": 35.7324518296,
			"-0.001": 20.5448166814,
			"0.0": 13.7835546129,
			"0.001": 15.6220490664,
			"0.002": 18.6406141518,
			"0.003": 17.56551122,
			"0.004": 20.6991568839,
			"0.005": 11.9618709029,
			"0.006": 3.36735571033,
			"0.007": 2.36451584433,
			"0.008": 1.51321999909,
			"0.009": 2.64534120837,
			"0.01": 2.02759910275,
			"0.011": 2.64512288419,
			"0.012": 3.43930912669,
			"0.013": 3.77782323372,
			"0.014": 2.0155871069,
			"0.015": 0.626451187211,
			"0.016": 0.466856592444,
			"0.017": 0.621873419055,
			"0.018": 0.626962328444,
			"0.019": 0.151045826659,
			"0.02": 0.0,
			"0.021": 0.0,
			"0.022": 0.0,
			"0.023": 0.0,
			"0.024": 0.0,
			"0.025": 0.0
		}
	}
}
