{
	 "smiles": "ClCC(=O)OC1=CC=CC=C1", 
	 "Tm": 317.65, 
	 "num_atms": 18, 
	 "gaussian": { 
		 "optdone": 1, 
		 "sigma_profile": "yes", 
		 "theory": "DFT", 
		 "functional": "B3LYP", 
		 "basiset": "6-31G**", 
		 "properties": { 
			 "R2extent": 2938.4298, 
			 "electric_dipole_moment_norm": 1.80760361529, 
			 "electric_quadrupole_moment_norm": 12.0067975743, 
			 "total_energy": -919.709422574, 
			 "HOMO_LUMO_gap": 0.20647, 
			 "cosmo_polarized_energy": -8.37, 
			 "cosmo_cavitation_energy": 24.75, 
			 "cosmo_dispersion_energy": -18.11, 
			 "cosmo_repulsion_energy": 1.49, 
			 "cosmo_total_nonelectrostatic_energy": 8.13, 
			 "SMD_solvation_energy": 5.13 
		},
		"coords": [
			{
				"x": -3.0730574115,
				"y": 3.3519215857,
				"z": 0.3662906554,
				"element": "Cl" 
			},
			{
				"x": -3.2867359334,
				"y": 1.7375171565,
				"z": 1.1513016972,
				"element": "C" 
			},
			{
				"x": -2.2891352114,
				"y": 0.7175895816,
				"z": 0.6255723794,
				"element": "C" 
			},
			{
				"x": -2.6045986376,
				"y": -0.2726602908,
				"z": 0.0137020737,
				"element": "O" 
			},
			{
				"x": -1.0292746177,
				"y": 1.0723483464,
				"z": 0.9771855014,
				"element": "O" 
			},
			{
				"x": 0.0811925733,
				"y": 0.306563786,
				"z": 0.598562843,
				"element": "C" 
			},
			{
				"x": 0.2363312195,
				"y": -0.2233058392,
				"z": -0.6817704944,
				"element": "C" 
			},
			{
				"x": 1.41484371,
				"y": -0.9092379169,
				"z": -0.9805254264,
				"element": "C" 
			},
			{
				"x": 2.4184977521,
				"y": -1.0581497757,
				"z": -0.0213919348,
				"element": "C" 
			},
			{
				"x": 2.2454800961,
				"y": -0.5135133464,
				"z": 1.2524592996,
				"element": "C" 
			},
			{
				"x": 1.0729148778,
				"y": 0.1726268604,
				"z": 1.5679063973,
				"element": "C" 
			},
			{
				"x": -4.2913560088,
				"y": 1.3864855267,
				"z": 0.9259553702,
				"element": "H" 
			},
			{
				"x": -3.1570341981,
				"y": 1.8833154144,
				"z": 2.2247539817,
				"element": "H" 
			},
			{
				"x": -0.5444428673,
				"y": -0.1115975076,
				"z": -1.4224220524,
				"element": "H" 
			},
			{
				"x": 1.5451257673,
				"y": -1.32824375,
				"z": -1.9738436397,
				"element": "H" 
			},
			{
				"x": 3.3306446906,
				"y": -1.593599693,
				"z": -0.2663198211,
				"element": "H" 
			},
			{
				"x": 3.0220252404,
				"y": -0.6199709959,
				"z": 2.0039525048,
				"element": "H" 
			},
			{
				"x": 0.9169789589,
				"y": 0.6095108577,
				"z": 2.5486306652,
				"element": "H" 
			}
		],
		 "valence_orbital": [ 
			{
				"type": "occ",
				"energy": -0.32325,
				"method": "rhf"
			},
			{
				"type": "occ",
				"energy": -0.30951,
				"method": "rhf"
			},
			{
				"type": "occ",
				"energy": -0.28718,
				"method": "rhf"
			},
			{
				"type": "occ",
				"energy": -0.25955,
				"method": "rhf"
			},
			{
				"type": "occ",
				"energy": -0.24777,
				"method": "rhf"
			},
			{
				"type": "unocc",
				"energy": -0.0413,
				"method": "rhf"
			},
			{
				"type": "unocc",
				"energy": -0.01036,
				"method": "rhf"
			},
			{
				"type": "unocc",
				"energy": -0.00126,
				"method": "rhf"
			},
			{
				"type": "unocc",
				"energy": 0.04229,
				"method": "rhf"
			},
			{
				"type": "unocc",
				"energy": 0.08123,
				"method": "rhf"
			}
		],
		"cosmo_sigma_profile": { 
			"-0.025": 0.0,
			"-0.024": 0.0,
			"-0.023": 0.0,
			"-0.022": 0.0,
			"-0.021": 0.0,
			"-0.02": 0.0,
			"-0.019": 0.0,
			"-0.018": 0.0,
			"-0.017": 0.0,
			"-0.016": 0.0,
			"-0.015": 0.0,
			"-0.014": 0.0,
			"-0.013": 0.0,
			"-0.012": 0.0,
			"-0.011": 0.0,
			"-0.01": 1.48113075961,
			"-0.009": 4.24642177382,
			"-0.008": 4.22015016342,
			"-0.007": 6.06221664218,
			"-0.006": 14.0581943925,
			"-0.005": 14.1262070809,
			"-0.004": 14.0959107666,
			"-0.003": 11.3385084737,
			"-0.002": 12.1600622856,
			"-0.001": 10.2531188091,
			"0.0": 10.8416796231,
			"0.001": 11.9203146735,
			"0.002": 14.2846920835,
			"0.003": 15.9302354188,
			"0.004": 18.3076406464,
			"0.005": 17.5713702461,
			"0.006": 6.94097885426,
			"0.007": 2.24553650071,
			"0.008": 1.89750949133,
			"0.009": 2.41781159197,
			"0.01": 4.23330498884,
			"0.011": 2.01021488553,
			"0.012": 0.0280052805399,
			"0.013": 0.0,
			"0.014": 0.0,
			"0.015": 0.0,
			"0.016": 0.0,
			"0.017": 0.0,
			"0.018": 0.0,
			"0.019": 0.0,
			"0.02": 0.0,
			"0.021": 0.0,
			"0.022": 0.0,
			"0.023": 0.0,
			"0.024": 0.0,
			"0.025": 0.0
		}
	}
}
