{
	 "smiles": "ClC1CC2C(C1Cl)C1(Cl)C(Cl)=C(Cl)C2(Cl)C1(Cl)Cl", 
	 "Tm": 378.15, 
	 "num_atms": 24, 
	 "gaussian": { 
		 "optdone": 1, 
		 "sigma_profile": "yes", 
		 "theory": "DFT", 
		 "functional": "B3LYP", 
		 "basiset": "6-31G**", 
		 "properties": { 
			 "R2extent": 8975.67, 
			 "electric_dipole_moment_norm": 3.67203792056, 
			 "electric_quadrupole_moment_norm": 6.47049158411, 
			 "total_energy": -4066.14353182, 
			 "HOMO_LUMO_gap": 0.22099, 
			 "cosmo_polarized_energy": -12.59, 
			 "cosmo_cavitation_energy": 37.29, 
			 "cosmo_dispersion_energy": -26.83, 
			 "cosmo_repulsion_energy": 2.03, 
			 "cosmo_total_nonelectrostatic_energy": 12.5, 
			 "SMD_solvation_energy": 3.4 
		},
		"coords": [
			{
				"x": -0.9942775525,
				"y": -4.0008412227,
				"z": -1.5078565652,
				"element": "Cl" 
			},
			{
				"x": -0.6176741768,
				"y": -2.3917540346,
				"z": -0.7983417105,
				"element": "C" 
			},
			{
				"x": -1.7484071267,
				"y": -1.7966155205,
				"z": 0.0467687716,
				"element": "C" 
			},
			{
				"x": -1.1641246773,
				"y": -0.4070146693,
				"z": 0.3611956618,
				"element": "C" 
			},
			{
				"x": -0.2924524769,
				"y": -0.0101752923,
				"z": -0.8957880537,
				"element": "C" 
			},
			{
				"x": -0.2006776234,
				"y": -1.281993349,
				"z": -1.8022913076,
				"element": "C" 
			},
			{
				"x": -1.124637371,
				"y": -1.3170728216,
				"z": -3.3500917736,
				"element": "Cl" 
			},
			{
				"x": -0.8716283399,
				"y": 1.4102174025,
				"z": -1.265539948,
				"element": "C" 
			},
			{
				"x": -0.492929986,
				"y": 2.0387062798,
				"z": -2.8767582197,
				"element": "Cl" 
			},
			{
				"x": -0.3578389651,
				"y": 2.2738487633,
				"z": -0.0932160085,
				"element": "C" 
			},
			{
				"x": 0.9949468697,
				"y": 3.3185827183,
				"z": -0.2013989469,
				"element": "Cl" 
			},
			{
				"x": -1.0593954392,
				"y": 1.9426865508,
				"z": 0.9993371192,
				"element": "C" 
			},
			{
				"x": -0.8220702406,
				"y": 2.4688033743,
				"z": 2.6112365978,
				"element": "Cl" 
			},
			{
				"x": -2.0619168567,
				"y": 0.8548847416,
				"z": 0.586269421,
				"element": "C" 
			},
			{
				"x": -3.4416260327,
				"y": 0.6046173285,
				"z": 1.6738161559,
				"element": "Cl" 
			},
			{
				"x": -2.3934321878,
				"y": 1.3772168814,
				"z": -0.8526538158,
				"element": "C" 
			},
			{
				"x": -3.1441126858,
				"y": 3.0191002105,
				"z": -0.8602628633,
				"element": "Cl" 
			},
			{
				"x": -3.4803914201,
				"y": 0.3375331374,
				"z": -1.8024255987,
				"element": "Cl" 
			},
			{
				"x": 0.2542100141,
				"y": -2.5684803011,
				"z": -0.1598491395,
				"element": "H" 
			},
			{
				"x": -1.9360965042,
				"y": -2.3814171307,
				"z": 0.9490088738,
				"element": "H" 
			},
			{
				"x": -2.6682421321,
				"y": -1.7528740324,
				"z": -0.534524179,
				"element": "H" 
			},
			{
				"x": -0.5296900042,
				"y": -0.4985970284,
				"z": 1.2472671512,
				"element": "H" 
			},
			{
				"x": 0.740422296,
				"y": 0.1783452708,
				"z": -0.5931480282,
				"element": "H" 
			},
			{
				"x": 0.8308426195,
				"y": -1.4259072566,
				"z": -2.1207535941,
				"element": "H" 
			}
		],
		 "valence_orbital": [ 
			{
				"type": "occ",
				"energy": -0.3114,
				"method": "rhf"
			},
			{
				"type": "occ",
				"energy": -0.30936,
				"method": "rhf"
			},
			{
				"type": "occ",
				"energy": -0.29795,
				"method": "rhf"
			},
			{
				"type": "occ",
				"energy": -0.29188,
				"method": "rhf"
			},
			{
				"type": "occ",
				"energy": -0.26854,
				"method": "rhf"
			},
			{
				"type": "unocc",
				"energy": -0.04755,
				"method": "rhf"
			},
			{
				"type": "unocc",
				"energy": -0.04732,
				"method": "rhf"
			},
			{
				"type": "unocc",
				"energy": -0.02219,
				"method": "rhf"
			},
			{
				"type": "unocc",
				"energy": -0.01156,
				"method": "rhf"
			},
			{
				"type": "unocc",
				"energy": 0.00637,
				"method": "rhf"
			}
		],
		"cosmo_sigma_profile": { 
			"-0.025": 0.0,
			"-0.024": 0.0,
			"-0.023": 0.0,
			"-0.022": 0.0,
			"-0.021": 0.0,
			"-0.02": 0.0,
			"-0.019": 0.0,
			"-0.018": 0.0,
			"-0.017": 0.0,
			"-0.016": 0.0,
			"-0.015": 0.0,
			"-0.014": 0.0,
			"-0.013": 0.0,
			"-0.012": 0.196590105548,
			"-0.011": 2.46761431895,
			"-0.01": 4.72447759785,
			"-0.009": 8.41385842192,
			"-0.008": 8.93625856248,
			"-0.007": 7.43029571054,
			"-0.006": 7.69265741296,
			"-0.005": 7.31484622057,
			"-0.004": 10.5804691882,
			"-0.003": 15.3803708377,
			"-0.002": 17.4283953534,
			"-0.001": 22.6496560254,
			"0.0": 25.2869315665,
			"0.001": 32.3603312291,
			"0.002": 45.108503538,
			"0.003": 42.2705584946,
			"0.004": 25.6852602711,
			"0.005": 15.0009264509,
			"0.006": 9.54982241293,
			"0.007": 3.01861705149,
			"0.008": 0.9633168578,
			"0.009": 0.0,
			"0.01": 0.0,
			"0.011": 0.0,
			"0.012": 0.0,
			"0.013": 0.0,
			"0.014": 0.0,
			"0.015": 0.0,
			"0.016": 0.0,
			"0.017": 0.0,
			"0.018": 0.0,
			"0.019": 0.0,
			"0.02": 0.0,
			"0.021": 0.0,
			"0.022": 0.0,
			"0.023": 0.0,
			"0.024": 0.0,
			"0.025": 0.0
		}
	}
}
