{
	 "smiles": "[O-][N+](=O)C1=CC=C2OCOC2=C1", 
	 "Tm": 420.15, 
	 "num_atms": 17, 
	 "gaussian": { 
		 "optdone": 1, 
		 "sigma_profile": "yes", 
		 "theory": "DFT", 
		 "functional": "B3LYP", 
		 "basiset": "6-31G**", 
		 "properties": { 
			 "R2extent": 3164.7248, 
			 "electric_dipole_moment_norm": 5.49274525624, 
			 "electric_quadrupole_moment_norm": 16.9294343706, 
			 "total_energy": -625.27607264, 
			 "HOMO_LUMO_gap": 0.15148, 
			 "cosmo_polarized_energy": -10.27, 
			 "cosmo_cavitation_energy": 22.17, 
			 "cosmo_dispersion_energy": -17.05, 
			 "cosmo_repulsion_energy": 1.35, 
			 "cosmo_total_nonelectrostatic_energy": 6.46, 
			 "SMD_solvation_energy": 6.9 
		},
		"coords": [
			{
				"x": -3.7082254653,
				"y": 0.8911446046,
				"z": 2.7213796424,
				"element": "O" 
			},
			{
				"x": -2.9538652027,
				"y": 0.0028769571,
				"z": 3.1222473494,
				"element": "N" 
			},
			{
				"x": -3.20921937,
				"y": -0.7610916568,
				"z": 4.0544589941,
				"element": "O" 
			},
			{
				"x": -1.6656945126,
				"y": -0.1516396195,
				"z": 2.4404607463,
				"element": "C" 
			},
			{
				"x": -0.7949924526,
				"y": -1.1484620623,
				"z": 2.8748709819,
				"element": "C" 
			},
			{
				"x": 0.4445869127,
				"y": -1.3218821065,
				"z": 2.2433591273,
				"element": "C" 
			},
			{
				"x": 0.7383234563,
				"y": -0.4674315543,
				"z": 1.195132704,
				"element": "C" 
			},
			{
				"x": 1.8650438413,
				"y": -0.4338362382,
				"z": 0.4290490815,
				"element": "O" 
			},
			{
				"x": 1.6803035721,
				"y": 0.6307730336,
				"z": -0.5191514168,
				"element": "C" 
			},
			{
				"x": 0.3974115374,
				"y": 1.2183502207,
				"z": -0.2747805951,
				"element": "O" 
			},
			{
				"x": -0.1498024771,
				"y": 0.5274975632,
				"z": 0.7740547735,
				"element": "C" 
			},
			{
				"x": -1.3723444061,
				"y": 0.7204786534,
				"z": 1.3748256564,
				"element": "C" 
			},
			{
				"x": -1.0955788923,
				"y": -1.7782064355,
				"z": 3.7020508254,
				"element": "H" 
			},
			{
				"x": 1.1423332676,
				"y": -2.0882667054,
				"z": 2.5588886951,
				"element": "H" 
			},
			{
				"x": 2.4641400898,
				"y": 1.383269715,
				"z": -0.3759528879,
				"element": "H" 
			},
			{
				"x": 1.7107156893,
				"y": 0.2202862097,
				"z": -1.5348926312,
				"element": "H" 
			},
			{
				"x": -2.0749355877,
				"y": 1.4823394211,
				"z": 1.0668989536,
				"element": "H" 
			}
		],
		 "valence_orbital": [ 
			{
				"type": "occ",
				"energy": -0.30439,
				"method": "rhf"
			},
			{
				"type": "occ",
				"energy": -0.30354,
				"method": "rhf"
			},
			{
				"type": "occ",
				"energy": -0.28542,
				"method": "rhf"
			},
			{
				"type": "occ",
				"energy": -0.27517,
				"method": "rhf"
			},
			{
				"type": "occ",
				"energy": -0.23489,
				"method": "rhf"
			},
			{
				"type": "unocc",
				"energy": -0.08341,
				"method": "rhf"
			},
			{
				"type": "unocc",
				"energy": -0.02359,
				"method": "rhf"
			},
			{
				"type": "unocc",
				"energy": 0.01191,
				"method": "rhf"
			},
			{
				"type": "unocc",
				"energy": 0.07715,
				"method": "rhf"
			},
			{
				"type": "unocc",
				"energy": 0.08181,
				"method": "rhf"
			}
		],
		"cosmo_sigma_profile": { 
			"-0.025": 0.0,
			"-0.024": 0.0,
			"-0.023": 0.0,
			"-0.022": 0.0,
			"-0.021": 0.0,
			"-0.02": 0.0,
			"-0.019": 0.0,
			"-0.018": 0.0,
			"-0.017": 0.0,
			"-0.016": 0.0,
			"-0.015": 0.0,
			"-0.014": 0.0,
			"-0.013": 0.0,
			"-0.012": 0.0,
			"-0.011": 0.0,
			"-0.01": 0.0,
			"-0.009": 2.12785253228,
			"-0.008": 11.6474723879,
			"-0.007": 10.977650795,
			"-0.006": 9.99630473461,
			"-0.005": 8.42434989623,
			"-0.004": 8.2302910105,
			"-0.003": 8.53116449878,
			"-0.002": 9.94783038366,
			"-0.001": 14.6355684149,
			"0.0": 18.2443461722,
			"0.001": 15.6218553339,
			"0.002": 9.36688820221,
			"0.003": 4.46505589772,
			"0.004": 4.80851840352,
			"0.005": 4.20339693205,
			"0.006": 6.24541134771,
			"0.007": 8.5024074624,
			"0.008": 12.0591434211,
			"0.009": 5.88341775912,
			"0.01": 3.89281320393,
			"0.011": 0.86843469025,
			"0.012": 0.0,
			"0.013": 0.0,
			"0.014": 0.0,
			"0.015": 0.0,
			"0.016": 0.0,
			"0.017": 0.0,
			"0.018": 0.0,
			"0.019": 0.0,
			"0.02": 0.0,
			"0.021": 0.0,
			"0.022": 0.0,
			"0.023": 0.0,
			"0.024": 0.0,
			"0.025": 0.0
		}
	}
}
