{
	 "smiles": "[O-][N+](=O)C1=CC=C(C(Br)C(Br)C2=CC=CC3=C2C=CC=C3)C(=C1)[N+]([O-])=O", 
	 "Tm": 434.15, 
	 "num_atms": 38, 
	 "gaussian": { 
		 "optdone": 1, 
		 "sigma_profile": "yes", 
		 "theory": "DFT", 
		 "functional": "B3LYP", 
		 "basiset": "6-31G**", 
		 "properties": { 
			 "R2extent": 13039.9145, 
			 "electric_dipole_moment_norm": 5.32107250561, 
			 "electric_quadrupole_moment_norm": 13.3050133826, 
			 "total_energy": -6246.15221996, 
			 "HOMO_LUMO_gap": 0.1113, 
			 "cosmo_polarized_energy": -16.6, 
			 "cosmo_cavitation_energy": 46.92, 
			 "cosmo_dispersion_energy": -32.12, 
			 "cosmo_repulsion_energy": 2.39, 
			 "cosmo_total_nonelectrostatic_energy": 17.19, 
			 "SMD_solvation_energy": 9.76 
		},
		"coords": [
			{
				"x": -1.1962274848,
				"y": -2.4170156613,
				"z": 6.1440680964,
				"element": "O" 
			},
			{
				"x": -0.2443182581,
				"y": -1.8366301589,
				"z": 5.628675488,
				"element": "N" 
			},
			{
				"x": 0.7499826395,
				"y": -1.4302849629,
				"z": 6.2260225351,
				"element": "O" 
			},
			{
				"x": -0.2961862883,
				"y": -1.606134559,
				"z": 4.1740402621,
				"element": "C" 
			},
			{
				"x": 0.7519640683,
				"y": -0.9418287383,
				"z": 3.548083703,
				"element": "C" 
			},
			{
				"x": 0.6823795696,
				"y": -0.7451961037,
				"z": 2.1740486039,
				"element": "C" 
			},
			{
				"x": -0.412940481,
				"y": -1.1627540162,
				"z": 1.3973454251,
				"element": "C" 
			},
			{
				"x": -0.2982934702,
				"y": -0.8961605213,
				"z": -0.0939300385,
				"element": "C" 
			},
			{
				"x": -0.4795491624,
				"y": -2.6158731408,
				"z": -1.1022535846,
				"element": "Br" 
			},
			{
				"x": -1.2248127194,
				"y": 0.1628521906,
				"z": -0.7202364346,
				"element": "C" 
			},
			{
				"x": -1.0481437236,
				"y": 1.8497984362,
				"z": 0.3989124809,
				"element": "Br" 
			},
			{
				"x": -1.0333808554,
				"y": 0.4432085891,
				"z": -2.1855208249,
				"element": "C" 
			},
			{
				"x": -2.1283293573,
				"y": 0.184726932,
				"z": -2.993147268,
				"element": "C" 
			},
			{
				"x": -2.0682017842,
				"y": 0.3117173243,
				"z": -4.3979080237,
				"element": "C" 
			},
			{
				"x": -0.8945359168,
				"y": 0.6961346313,
				"z": -4.9981270629,
				"element": "C" 
			},
			{
				"x": 0.2544127445,
				"y": 0.9952174023,
				"z": -4.2179825064,
				"element": "C" 
			},
			{
				"x": 0.1944736023,
				"y": 0.8905858901,
				"z": -2.7860344495,
				"element": "C" 
			},
			{
				"x": 1.3567023427,
				"y": 1.2568597043,
				"z": -2.0508570051,
				"element": "C" 
			},
			{
				"x": 2.512793839,
				"y": 1.6572723227,
				"z": -2.6858859387,
				"element": "C" 
			},
			{
				"x": 2.5752674762,
				"y": 1.7246223876,
				"z": -4.0957687841,
				"element": "C" 
			},
			{
				"x": 1.4630033921,
				"y": 1.4079113971,
				"z": -4.8404012154,
				"element": "C" 
			},
			{
				"x": -1.4434468265,
				"y": -1.8350685708,
				"z": 2.0880284449,
				"element": "C" 
			},
			{
				"x": -1.3879563144,
				"y": -2.0736324704,
				"z": 3.4581769161,
				"element": "C" 
			},
			{
				"x": -2.6592351542,
				"y": -2.3638131536,
				"z": 1.4328439793,
				"element": "N" 
			},
			{
				"x": -3.1033359048,
				"y": -3.4218917563,
				"z": 1.8640082066,
				"element": "O" 
			},
			{
				"x": -3.1709549499,
				"y": -1.7018721405,
				"z": 0.5327085116,
				"element": "O" 
			},
			{
				"x": 1.5982391359,
				"y": -0.6004576751,
				"z": 4.1307146134,
				"element": "H" 
			},
			{
				"x": 1.5063401889,
				"y": -0.2440917429,
				"z": 1.6779840095,
				"element": "H" 
			},
			{
				"x": 0.7355210513,
				"y": -0.6324684196,
				"z": -0.2957742869,
				"element": "H" 
			},
			{
				"x": -2.2533704886,
				"y": -0.1132398657,
				"z": -0.5289351738,
				"element": "H" 
			},
			{
				"x": -3.0556164781,
				"y": -0.1481305893,
				"z": -2.5359932585,
				"element": "H" 
			},
			{
				"x": -2.9487733024,
				"y": 0.0916981845,
				"z": -4.9933020245,
				"element": "H" 
			},
			{
				"x": -0.8275892239,
				"y": 0.7841669002,
				"z": -6.0792510309,
				"element": "H" 
			},
			{
				"x": 1.3246117785,
				"y": 1.2688996638,
				"z": -0.9688950561,
				"element": "H" 
			},
			{
				"x": 3.3804225833,
				"y": 1.9364275743,
				"z": -2.0950755612,
				"element": "H" 
			},
			{
				"x": 3.4925633617,
				"y": 2.0393301797,
				"z": -4.5841873743,
				"element": "H" 
			},
			{
				"x": 1.4889426931,
				"y": 1.4736309144,
				"z": -5.9249555184,
				"element": "H" 
			},
			{
				"x": -2.1813223224,
				"y": -2.615816378,
				"z": 3.9543611448,
				"element": "H" 
			}
		],
		 "valence_orbital": [ 
			{
				"type": "occ",
				"energy": -0.29007,
				"method": "rhf"
			},
			{
				"type": "occ",
				"energy": -0.28434,
				"method": "rhf"
			},
			{
				"type": "occ",
				"energy": -0.27659,
				"method": "rhf"
			},
			{
				"type": "occ",
				"energy": -0.25668,
				"method": "rhf"
			},
			{
				"type": "occ",
				"energy": -0.22888,
				"method": "rhf"
			},
			{
				"type": "unocc",
				"energy": -0.11758,
				"method": "rhf"
			},
			{
				"type": "unocc",
				"energy": -0.10199,
				"method": "rhf"
			},
			{
				"type": "unocc",
				"energy": -0.06638,
				"method": "rhf"
			},
			{
				"type": "unocc",
				"energy": -0.04736,
				"method": "rhf"
			},
			{
				"type": "unocc",
				"energy": -0.04297,
				"method": "rhf"
			}
		],
		"cosmo_sigma_profile": { 
			"-0.025": 0.0,
			"-0.024": 0.0,
			"-0.023": 0.0,
			"-0.022": 0.0,
			"-0.021": 0.0,
			"-0.02": 0.0,
			"-0.019": 0.0,
			"-0.018": 0.0,
			"-0.017": 0.0,
			"-0.016": 0.0,
			"-0.015": 0.0,
			"-0.014": 0.0,
			"-0.013": 0.0,
			"-0.012": 0.760727431731,
			"-0.011": 1.38271704506,
			"-0.01": 2.74275157049,
			"-0.009": 6.19330432667,
			"-0.008": 7.50264493276,
			"-0.007": 11.2357826871,
			"-0.006": 21.6348664481,
			"-0.005": 21.0884577519,
			"-0.004": 26.7284406457,
			"-0.003": 27.5974636482,
			"-0.002": 25.7076255628,
			"-0.001": 24.672390587,
			"0.0": 20.079409322,
			"0.001": 21.8491153316,
			"0.002": 23.9568182486,
			"0.003": 35.763265879,
			"0.004": 39.5955163127,
			"0.005": 23.9150770689,
			"0.006": 13.3781441048,
			"0.007": 14.2474885911,
			"0.008": 8.26031827139,
			"0.009": 4.79142534276,
			"0.01": 0.286836759645,
			"0.011": 0.0,
			"0.012": 0.0,
			"0.013": 0.0,
			"0.014": 0.0,
			"0.015": 0.0,
			"0.016": 0.0,
			"0.017": 0.0,
			"0.018": 0.0,
			"0.019": 0.0,
			"0.02": 0.0,
			"0.021": 0.0,
			"0.022": 0.0,
			"0.023": 0.0,
			"0.024": 0.0,
			"0.025": 0.0
		}
	}
}
