{
	 "smiles": "CC1=CC=C(C(O)=O)C(O)=N1", 
	 "Tm": 508.65, 
	 "num_atms": 18, 
	 "gaussian": { 
		 "optdone": 1, 
		 "sigma_profile": "yes", 
		 "theory": "DFT", 
		 "functional": "B3LYP", 
		 "basiset": "6-31G**", 
		 "properties": { 
			 "R2extent": 2185.9539, 
			 "electric_dipole_moment_norm": 5.44121257442, 
			 "electric_quadrupole_moment_norm": 17.2089398137, 
			 "total_energy": -551.414159775, 
			 "HOMO_LUMO_gap": 0.19906, 
			 "cosmo_polarized_energy": -13.59, 
			 "cosmo_cavitation_energy": 22.43, 
			 "cosmo_dispersion_energy": -17.07, 
			 "cosmo_repulsion_energy": 1.37, 
			 "cosmo_total_nonelectrostatic_energy": 6.74, 
			 "SMD_solvation_energy": 4.34 
		},
		"coords": [
			{
				"x": -1.4209574442,
				"y": 3.4667056125,
				"z": 1.0686418786,
				"element": "C" 
			},
			{
				"x": -0.4209252094,
				"y": 2.4393135294,
				"z": 0.6063416811,
				"element": "C" 
			},
			{
				"x": 0.9230576397,
				"y": 2.4905326607,
				"z": 1.0032797252,
				"element": "C" 
			},
			{
				"x": 1.7968810236,
				"y": 1.5144362533,
				"z": 0.5435906914,
				"element": "C" 
			},
			{
				"x": 1.343607061,
				"y": 0.4954246477,
				"z": -0.3025944228,
				"element": "C" 
			},
			{
				"x": 2.3358031222,
				"y": -0.532500311,
				"z": -0.7673465237,
				"element": "C" 
			},
			{
				"x": 1.8936854056,
				"y": -1.5087883124,
				"z": -1.5828910772,
				"element": "O" 
			},
			{
				"x": 3.4982400707,
				"y": -0.4889397317,
				"z": -0.4271449748,
				"element": "O" 
			},
			{
				"x": -0.0209075991,
				"y": 0.5459495177,
				"z": -0.6327377352,
				"element": "C" 
			},
			{
				"x": -0.5456324231,
				"y": -0.4090649405,
				"z": -1.4524978826,
				"element": "O" 
			},
			{
				"x": -0.8735020432,
				"y": 1.4689358449,
				"z": -0.2050758025,
				"element": "N" 
			},
			{
				"x": -1.1196621664,
				"y": 4.4733100758,
				"z": 0.758084219,
				"element": "H" 
			},
			{
				"x": -2.4042233455,
				"y": 3.2486214543,
				"z": 0.6498098735,
				"element": "H" 
			},
			{
				"x": -1.4961689247,
				"y": 3.4752316741,
				"z": 2.1616862307,
				"element": "H" 
			},
			{
				"x": 1.2676460064,
				"y": 3.2830604833,
				"z": 1.6592985984,
				"element": "H" 
			},
			{
				"x": 2.8462692778,
				"y": 1.5062143671,
				"z": 0.8192939495,
				"element": "H" 
			},
			{
				"x": 0.9425304443,
				"y": -1.403346569,
				"z": -1.7627696043,
				"element": "H" 
			},
			{
				"x": -1.4881408957,
				"y": -0.2008962563,
				"z": -1.5572688243,
				"element": "H" 
			}
		],
		 "valence_orbital": [ 
			{
				"type": "occ",
				"energy": -0.30996,
				"method": "rhf"
			},
			{
				"type": "occ",
				"energy": -0.2983,
				"method": "rhf"
			},
			{
				"type": "occ",
				"energy": -0.29487,
				"method": "rhf"
			},
			{
				"type": "occ",
				"energy": -0.2652,
				"method": "rhf"
			},
			{
				"type": "occ",
				"energy": -0.2555,
				"method": "rhf"
			},
			{
				"type": "unocc",
				"energy": -0.05644,
				"method": "rhf"
			},
			{
				"type": "unocc",
				"energy": -0.02423,
				"method": "rhf"
			},
			{
				"type": "unocc",
				"energy": 0.04612,
				"method": "rhf"
			},
			{
				"type": "unocc",
				"energy": 0.05988,
				"method": "rhf"
			},
			{
				"type": "unocc",
				"energy": 0.09969,
				"method": "rhf"
			}
		],
		"cosmo_sigma_profile": { 
			"-0.025": 0.0,
			"-0.024": 0.0,
			"-0.023": 0.0,
			"-0.022": 0.0,
			"-0.021": 0.0,
			"-0.02": 0.0,
			"-0.019": 0.0991840959287,
			"-0.018": 0.780633784969,
			"-0.017": 0.793528701776,
			"-0.016": 0.328626851963,
			"-0.015": 1.29665496463,
			"-0.014": 0.547471339179,
			"-0.013": 0.305250743924,
			"-0.012": 1.34886468362,
			"-0.011": 0.835204091371,
			"-0.01": 0.43750133297,
			"-0.009": 0.966000786808,
			"-0.008": 1.28547225152,
			"-0.007": 4.83184260712,
			"-0.006": 8.20013688861,
			"-0.005": 12.0938601725,
			"-0.004": 14.0765816004,
			"-0.003": 13.0495875555,
			"-0.002": 13.4469109438,
			"-0.001": 20.6489377456,
			"0.0": 16.6482413651,
			"0.001": 12.4520845514,
			"0.002": 9.32503606251,
			"0.003": 5.8011282381,
			"0.004": 3.36026656721,
			"0.005": 2.79440701147,
			"0.006": 3.95898953291,
			"0.007": 2.85081540025,
			"0.008": 4.61504683292,
			"0.009": 2.78502716708,
			"0.01": 5.00025961489,
			"0.011": 6.20189962701,
			"0.012": 5.21110927697,
			"0.013": 2.39841438528,
			"0.014": 0.400890315624,
			"0.015": 0.0,
			"0.016": 0.0,
			"0.017": 0.0,
			"0.018": 0.0,
			"0.019": 0.0,
			"0.02": 0.0,
			"0.021": 0.0,
			"0.022": 0.0,
			"0.023": 0.0,
			"0.024": 0.0,
			"0.025": 0.0
		}
	}
}
