{
	 "smiles": "[O-][N+](=O)C1=C(Cl)N=CN=C1Cl", 
	 "Tm": 375.15, 
	 "num_atms": 12, 
	 "gaussian": { 
		 "optdone": 1, 
		 "sigma_profile": "yes", 
		 "theory": "DFT", 
		 "functional": "B3LYP", 
		 "basiset": "6-31G**", 
		 "properties": { 
			 "R2extent": 3338.4451, 
			 "electric_dipole_moment_norm": 2.25131351437, 
			 "electric_quadrupole_moment_norm": 5.14301485609, 
			 "total_energy": -1387.97654068, 
			 "HOMO_LUMO_gap": 0.20164, 
			 "cosmo_polarized_energy": -7.18, 
			 "cosmo_cavitation_energy": 22.19, 
			 "cosmo_dispersion_energy": -16.13, 
			 "cosmo_repulsion_energy": 1.3, 
			 "cosmo_total_nonelectrostatic_energy": 7.36, 
			 "SMD_solvation_energy": 3.33 
		},
		"coords": [
			{
				"x": -1.0762378458,
				"y": 1.9423102261,
				"z": -1.1258877606,
				"element": "O" 
			},
			{
				"x": -1.0401270902,
				"y": 0.7634411034,
				"z": -0.7983599608,
				"element": "N" 
			},
			{
				"x": -0.4198160243,
				"y": -0.1386617062,
				"z": -1.3458400957,
				"element": "O" 
			},
			{
				"x": -1.8308931111,
				"y": 0.3890138877,
				"z": 0.3841031002,
				"element": "C" 
			},
			{
				"x": -3.1624533265,
				"y": -0.0195259038,
				"z": 0.2776301985,
				"element": "C" 
			},
			{
				"x": -3.9294913813,
				"y": -0.0968253834,
				"z": -1.277295988,
				"element": "Cl" 
			},
			{
				"x": -3.8779593172,
				"y": -0.3573394414,
				"z": 1.338524284,
				"element": "N" 
			},
			{
				"x": -3.2594951339,
				"y": -0.287341509,
				"z": 2.5202770847,
				"element": "C" 
			},
			{
				"x": -1.9962441694,
				"y": 0.0878548503,
				"z": 2.7379057627,
				"element": "N" 
			},
			{
				"x": -1.2887777167,
				"y": 0.4237792142,
				"z": 1.671040176,
				"element": "C" 
			},
			{
				"x": 0.3576442399,
				"y": 0.9175600987,
				"z": 1.9110020687,
				"element": "Cl" 
			},
			{
				"x": -3.8434491235,
				"y": -0.5639654365,
				"z": 3.3935011303,
				"element": "H" 
			}
		],
		 "valence_orbital": [ 
			{
				"type": "occ",
				"energy": -0.34217,
				"method": "rhf"
			},
			{
				"type": "occ",
				"energy": -0.32933,
				"method": "rhf"
			},
			{
				"type": "occ",
				"energy": -0.32877,
				"method": "rhf"
			},
			{
				"type": "occ",
				"energy": -0.31078,
				"method": "rhf"
			},
			{
				"type": "occ",
				"energy": -0.30294,
				"method": "rhf"
			},
			{
				"type": "unocc",
				"energy": -0.1013,
				"method": "rhf"
			},
			{
				"type": "unocc",
				"energy": -0.08772,
				"method": "rhf"
			},
			{
				"type": "unocc",
				"energy": -0.08274,
				"method": "rhf"
			},
			{
				"type": "unocc",
				"energy": -0.02429,
				"method": "rhf"
			},
			{
				"type": "unocc",
				"energy": 0.02225,
				"method": "rhf"
			}
		],
		"cosmo_sigma_profile": { 
			"-0.025": 0.0,
			"-0.024": 0.0,
			"-0.023": 0.0,
			"-0.022": 0.0,
			"-0.021": 0.0,
			"-0.02": 0.0,
			"-0.019": 0.0,
			"-0.018": 0.0,
			"-0.017": 0.0,
			"-0.016": 0.0,
			"-0.015": 0.0,
			"-0.014": 0.0,
			"-0.013": 0.0,
			"-0.012": 0.0,
			"-0.011": 0.561632770732,
			"-0.01": 2.31728857323,
			"-0.009": 3.09320749667,
			"-0.008": 3.56993298693,
			"-0.007": 4.39564283428,
			"-0.006": 7.44577284332,
			"-0.005": 10.4044509674,
			"-0.004": 12.0325193681,
			"-0.003": 13.0071653667,
			"-0.002": 12.0616414085,
			"-0.001": 16.5380506362,
			"0.0": 16.5927566353,
			"0.001": 18.046834394,
			"0.002": 13.2510857628,
			"0.003": 7.90561579992,
			"0.004": 5.7316777086,
			"0.005": 11.7306939604,
			"0.006": 11.5337860819,
			"0.007": 6.60382818524,
			"0.008": 3.26719710916,
			"0.009": 1.42902284141,
			"0.01": 1.97103298244,
			"0.011": 1.26233979286,
			"0.012": 0.0496313969569,
			"0.013": 0.0,
			"0.014": 0.0,
			"0.015": 0.0,
			"0.016": 0.0,
			"0.017": 0.0,
			"0.018": 0.0,
			"0.019": 0.0,
			"0.02": 0.0,
			"0.021": 0.0,
			"0.022": 0.0,
			"0.023": 0.0,
			"0.024": 0.0,
			"0.025": 0.0
		}
	}
}
