{
	 "smiles": "CC12CCC(O)C1(C)CCC1C2CCC2(C)CCCCC12C", 
	 "Tm": 440.15, 
	 "num_atms": 58, 
	 "gaussian": { 
		 "optdone": 1, 
		 "sigma_profile": "yes", 
		 "theory": "DFT", 
		 "functional": "B3LYP", 
		 "basiset": "6-31G**", 
		 "properties": { 
			 "R2extent": 7447.1385, 
			 "electric_dipole_moment_norm": 1.43804846928, 
			 "electric_quadrupole_moment_norm": 11.1498152294, 
			 "total_energy": -897.14116346, 
			 "HOMO_LUMO_gap": 0.31078, 
			 "cosmo_polarized_energy": -6.23, 
			 "cosmo_cavitation_energy": 45.07, 
			 "cosmo_dispersion_energy": -32.54, 
			 "cosmo_repulsion_energy": 2.34, 
			 "cosmo_total_nonelectrostatic_energy": 14.87, 
			 "SMD_solvation_energy": 6.11 
		},
		"coords": [
			{
				"x": 0.4653622668,
				"y": -1.6612604201,
				"z": 2.4543618806,
				"element": "C" 
			},
			{
				"x": 1.5370259642,
				"y": -0.9535584763,
				"z": 1.5710471725,
				"element": "C" 
			},
			{
				"x": 2.7796383347,
				"y": -1.8846913332,
				"z": 1.5922535761,
				"element": "C" 
			},
			{
				"x": 3.4533946351,
				"y": -1.5999800817,
				"z": 2.967609175,
				"element": "C" 
			},
			{
				"x": 2.8168712139,
				"y": -0.2955705066,
				"z": 3.519972543,
				"element": "C" 
			},
			{
				"x": 3.8427405665,
				"y": 0.5042025417,
				"z": 4.1034924863,
				"element": "O" 
			},
			{
				"x": 2.0957667749,
				"y": 0.3253130068,
				"z": 2.2825301055,
				"element": "C" 
			},
			{
				"x": 3.2134780086,
				"y": 1.0416757749,
				"z": 1.4745033391,
				"element": "C" 
			},
			{
				"x": 0.9230834856,
				"y": 1.2907101646,
				"z": 2.5871515108,
				"element": "C" 
			},
			{
				"x": -0.2000821176,
				"y": 1.294759226,
				"z": 1.4984974778,
				"element": "C" 
			},
			{
				"x": 0.3387521334,
				"y": 0.8611988232,
				"z": 0.1141297845,
				"element": "C" 
			},
			{
				"x": 0.9670351668,
				"y": -0.5917148471,
				"z": 0.151912724,
				"element": "C" 
			},
			{
				"x": 0.0436018143,
				"y": -1.6974388712,
				"z": -0.406260683,
				"element": "C" 
			},
			{
				"x": -0.6267579607,
				"y": -1.3297783059,
				"z": -1.7303440446,
				"element": "C" 
			},
			{
				"x": -1.4564491132,
				"y": -0.0312476483,
				"z": -1.6247450265,
				"element": "C" 
			},
			{
				"x": -2.5986127048,
				"y": -0.2562430189,
				"z": -0.6005421811,
				"element": "C" 
			},
			{
				"x": -2.1105697379,
				"y": 0.2570388746,
				"z": -3.0150715299,
				"element": "C" 
			},
			{
				"x": -2.4031229368,
				"y": 1.745716853,
				"z": -3.3314645703,
				"element": "C" 
			},
			{
				"x": -2.5232593492,
				"y": 2.6257486792,
				"z": -2.0800602479,
				"element": "C" 
			},
			{
				"x": -1.3777882313,
				"y": 2.4446297951,
				"z": -1.0428225731,
				"element": "C" 
			},
			{
				"x": -0.5179274675,
				"y": 1.152803714,
				"z": -1.1967359983,
				"element": "C" 
			},
			{
				"x": 0.5575380238,
				"y": 1.411467773,
				"z": -2.2964062962,
				"element": "C" 
			},
			{
				"x": 0.834490884,
				"y": -1.858825062,
				"z": 3.4621535322,
				"element": "H" 
			},
			{
				"x": 0.2137026708,
				"y": -2.6350133413,
				"z": 2.0278539171,
				"element": "H" 
			},
			{
				"x": -0.4642129151,
				"y": -1.0989884369,
				"z": 2.5558258739,
				"element": "H" 
			},
			{
				"x": 2.5107911712,
				"y": -2.9395188623,
				"z": 1.4751149328,
				"element": "H" 
			},
			{
				"x": 3.4592679781,
				"y": -1.6394231814,
				"z": 0.7699021605,
				"element": "H" 
			},
			{
				"x": 3.3174296661,
				"y": -2.4276577604,
				"z": 3.6697672734,
				"element": "H" 
			},
			{
				"x": 4.5316252581,
				"y": -1.4447686217,
				"z": 2.8709785766,
				"element": "H" 
			},
			{
				"x": 2.0760676501,
				"y": -0.5272410448,
				"z": 4.2970606366,
				"element": "H" 
			},
			{
				"x": 3.4204635985,
				"y": 1.2597492163,
				"z": 4.5326123223,
				"element": "H" 
			},
			{
				"x": 3.5184959963,
				"y": 1.9466149086,
				"z": 2.0066881384,
				"element": "H" 
			},
			{
				"x": 4.1106651092,
				"y": 0.4258839384,
				"z": 1.3831159115,
				"element": "H" 
			},
			{
				"x": 2.9123473537,
				"y": 1.3344701777,
				"z": 0.469499666,
				"element": "H" 
			},
			{
				"x": 1.312356403,
				"y": 2.3100262606,
				"z": 2.7026867616,
				"element": "H" 
			},
			{
				"x": 0.4702049241,
				"y": 1.030294012,
				"z": 3.5524560369,
				"element": "H" 
			},
			{
				"x": -0.5982976946,
				"y": 2.310288064,
				"z": 1.4417087351,
				"element": "H" 
			},
			{
				"x": -1.0378258221,
				"y": 0.6687415272,
				"z": 1.8195055943,
				"element": "H" 
			},
			{
				"x": 1.1854098315,
				"y": 1.5372936666,
				"z": -0.025350923,
				"element": "H" 
			},
			{
				"x": 1.8339525542,
				"y": -0.5597714582,
				"z": -0.5212897985,
				"element": "H" 
			},
			{
				"x": -0.7423373589,
				"y": -1.9412784667,
				"z": 0.3117003679,
				"element": "H" 
			},
			{
				"x": 0.6300025413,
				"y": -2.6174326543,
				"z": -0.5294595926,
				"element": "H" 
			},
			{
				"x": -1.2838479767,
				"y": -2.1506699918,
				"z": -2.0486668151,
				"element": "H" 
			},
			{
				"x": 0.1259102391,
				"y": -1.2232657755,
				"z": -2.5206448383,
				"element": "H" 
			},
			{
				"x": -3.312844683,
				"y": 0.5698221489,
				"z": -0.589889297,
				"element": "H" 
			},
			{
				"x": -3.1579480325,
				"y": -1.1609475413,
				"z": -0.8668923574,
				"element": "H" 
			},
			{
				"x": -2.237401283,
				"y": -0.3849130677,
				"z": 0.4212728525,
				"element": "H" 
			},
			{
				"x": -1.4716806341,
				"y": -0.1501118712,
				"z": -3.8075742751,
				"element": "H" 
			},
			{
				"x": -3.0415504121,
				"y": -0.3206369344,
				"z": -3.0664043041,
				"element": "H" 
			},
			{
				"x": -1.6154620632,
				"y": 2.1505915305,
				"z": -3.9758982653,
				"element": "H" 
			},
			{
				"x": -3.3260516467,
				"y": 1.8247002122,
				"z": -3.917863515,
				"element": "H" 
			},
			{
				"x": -2.583619139,
				"y": 3.6776206656,
				"z": -2.3820907678,
				"element": "H" 
			},
			{
				"x": -3.4817393312,
				"y": 2.4089287501,
				"z": -1.594115922,
				"element": "H" 
			},
			{
				"x": -0.7053524268,
				"y": 3.3110323684,
				"z": -1.0709905317,
				"element": "H" 
			},
			{
				"x": -1.8396909163,
				"y": 2.462788003,
				"z": -0.0537569419,
				"element": "H" 
			},
			{
				"x": 1.3098514338,
				"y": 0.6194555931,
				"z": -2.3298641927,
				"element": "H" 
			},
			{
				"x": 0.1430718487,
				"y": 1.500914704,
				"z": -3.3006737588,
				"element": "H" 
			},
			{
				"x": 1.0849364537,
				"y": 2.346766608,
				"z": -2.0797858175,
				"element": "H" 
			}
		],
		 "valence_orbital": [ 
			{
				"type": "occ",
				"energy": -0.28665,
				"method": "rhf"
			},
			{
				"type": "occ",
				"energy": -0.27618,
				"method": "rhf"
			},
			{
				"type": "occ",
				"energy": -0.26724,
				"method": "rhf"
			},
			{
				"type": "occ",
				"energy": -0.26189,
				"method": "rhf"
			},
			{
				"type": "occ",
				"energy": -0.24516,
				"method": "rhf"
			},
			{
				"type": "unocc",
				"energy": 0.06562,
				"method": "rhf"
			},
			{
				"type": "unocc",
				"energy": 0.07233,
				"method": "rhf"
			},
			{
				"type": "unocc",
				"energy": 0.08177,
				"method": "rhf"
			},
			{
				"type": "unocc",
				"energy": 0.09302,
				"method": "rhf"
			},
			{
				"type": "unocc",
				"energy": 0.1015,
				"method": "rhf"
			}
		],
		"cosmo_sigma_profile": { 
			"-0.025": 0.0,
			"-0.024": 0.0,
			"-0.023": 0.0,
			"-0.022": 0.0,
			"-0.021": 0.0,
			"-0.02": 0.0,
			"-0.019": 0.0,
			"-0.018": 0.0,
			"-0.017": 0.0,
			"-0.016": 0.0,
			"-0.015": 0.175931350274,
			"-0.014": 0.712622003872,
			"-0.013": 0.955684161494,
			"-0.012": 0.870579921569,
			"-0.011": 0.64768512332,
			"-0.01": 0.489809216229,
			"-0.009": 0.925100341812,
			"-0.008": 1.18165446383,
			"-0.007": 1.32323572848,
			"-0.006": 1.51352063342,
			"-0.005": 0.8428057505,
			"-0.004": 3.5431058363,
			"-0.003": 14.4893918356,
			"-0.002": 48.0085633263,
			"-0.001": 72.7419129274,
			"0.0": 71.7276800922,
			"0.001": 59.6924876834,
			"0.002": 40.2720256158,
			"0.003": 6.45288710476,
			"0.004": 1.51117942859,
			"0.005": 1.51880850897,
			"0.006": 1.22526980017,
			"0.007": 0.887863640906,
			"0.008": 2.42013213659,
			"0.009": 0.824669820623,
			"0.01": 0.941149600428,
			"0.011": 1.46116472936,
			"0.012": 1.38969710151,
			"0.013": 1.72018557852,
			"0.014": 1.47897374529,
			"0.015": 0.991738676511,
			"0.016": 0.0,
			"0.017": 0.0,
			"0.018": 0.0,
			"0.019": 0.0,
			"0.02": 0.0,
			"0.021": 0.0,
			"0.022": 0.0,
			"0.023": 0.0,
			"0.024": 0.0,
			"0.025": 0.0
		}
	}
}
