{
	 "smiles": "CN(C)C1=NC=C(N)C=N1", 
	 "Tm": 352.15, 
	 "num_atms": 20, 
	 "gaussian": { 
		 "optdone": 1, 
		 "sigma_profile": "yes", 
		 "theory": "DFT", 
		 "functional": "B3LYP", 
		 "basiset": "6-31G**", 
		 "properties": { 
			 "R2extent": 1887.7197, 
			 "electric_dipole_moment_norm": 1.66682151414, 
			 "electric_quadrupole_moment_norm": 12.8773265319, 
			 "total_energy": -453.66800247, 
			 "HOMO_LUMO_gap": 0.15675, 
			 "cosmo_polarized_energy": -10.77, 
			 "cosmo_cavitation_energy": 23.2, 
			 "cosmo_dispersion_energy": -17.53, 
			 "cosmo_repulsion_energy": 1.43, 
			 "cosmo_total_nonelectrostatic_energy": 7.1, 
			 "SMD_solvation_energy": 2.01 
		},
		"coords": [
			{
				"x": 3.339657285,
				"y": -0.2132619099,
				"z": -1.4728591183,
				"element": "C" 
			},
			{
				"x": 2.6562311304,
				"y": 0.4274159778,
				"z": -0.362817931,
				"element": "N" 
			},
			{
				"x": 3.4922793664,
				"y": 1.171159532,
				"z": 0.5632479659,
				"element": "C" 
			},
			{
				"x": 1.4034918214,
				"y": -0.0029003442,
				"z": 0.0236967916,
				"element": "C" 
			},
			{
				"x": 0.9019692287,
				"y": 0.4829307202,
				"z": 1.1778928562,
				"element": "N" 
			},
			{
				"x": -0.3271964156,
				"y": 0.0982082052,
				"z": 1.5109455829,
				"element": "C" 
			},
			{
				"x": -1.1023574901,
				"y": -0.7738103886,
				"z": 0.7358340023,
				"element": "C" 
			},
			{
				"x": -2.3704891844,
				"y": -1.2249023439,
				"z": 1.1376871101,
				"element": "N" 
			},
			{
				"x": -0.4728566112,
				"y": -1.2231547373,
				"z": -0.432029377,
				"element": "C" 
			},
			{
				"x": 0.7542091764,
				"y": -0.8576743952,
				"z": -0.7933209077,
				"element": "N" 
			},
			{
				"x": 2.6087529073,
				"y": -0.5809175854,
				"z": -2.1904428693,
				"element": "H" 
			},
			{
				"x": 3.9950425514,
				"y": 0.5163775361,
				"z": -1.9604126992,
				"element": "H" 
			},
			{
				"x": 3.9592187554,
				"y": -1.062876069,
				"z": -1.143856619,
				"element": "H" 
			},
			{
				"x": 4.1322421804,
				"y": 0.5088542111,
				"z": 1.1680068062,
				"element": "H" 
			},
			{
				"x": 2.8657901643,
				"y": 1.7508501393,
				"z": 1.2383656887,
				"element": "H" 
			},
			{
				"x": 4.1420073316,
				"y": 1.8471130532,
				"z": -0.0029236679,
				"element": "H" 
			},
			{
				"x": -0.7218184906,
				"y": 0.4972692572,
				"z": 2.44705902,
				"element": "H" 
			},
			{
				"x": -2.964872977,
				"y": -1.504936486,
				"z": 0.3672079614,
				"element": "H" 
			},
			{
				"x": -2.8623205536,
				"y": -0.5732513177,
				"z": 1.7366880029,
				"element": "H" 
			},
			{
				"x": -0.9877801761,
				"y": -1.9153930549,
				"z": -1.1005685988,
				"element": "H" 
			}
		],
		 "valence_orbital": [ 
			{
				"type": "occ",
				"energy": -0.30171,
				"method": "rhf"
			},
			{
				"type": "occ",
				"energy": -0.30081,
				"method": "rhf"
			},
			{
				"type": "occ",
				"energy": -0.25579,
				"method": "rhf"
			},
			{
				"type": "occ",
				"energy": -0.23154,
				"method": "rhf"
			},
			{
				"type": "occ",
				"energy": -0.18083,
				"method": "rhf"
			},
			{
				"type": "unocc",
				"energy": -0.02408,
				"method": "rhf"
			},
			{
				"type": "unocc",
				"energy": 0.02246,
				"method": "rhf"
			},
			{
				"type": "unocc",
				"energy": 0.07742,
				"method": "rhf"
			},
			{
				"type": "unocc",
				"energy": 0.10786,
				"method": "rhf"
			},
			{
				"type": "unocc",
				"energy": 0.12816,
				"method": "rhf"
			}
		],
		"cosmo_sigma_profile": { 
			"-0.025": 0.0,
			"-0.024": 0.0,
			"-0.023": 0.0,
			"-0.022": 0.0,
			"-0.021": 0.0,
			"-0.02": 0.0,
			"-0.019": 0.0,
			"-0.018": 0.0,
			"-0.017": 0.0,
			"-0.016": 0.0,
			"-0.015": 0.0,
			"-0.014": 0.0,
			"-0.013": 0.196391922866,
			"-0.012": 2.7607859388,
			"-0.011": 3.37105629368,
			"-0.01": 3.15999524,
			"-0.009": 3.80948327961,
			"-0.008": 3.63411424466,
			"-0.007": 4.85979879017,
			"-0.006": 4.16279283068,
			"-0.005": 5.96038499153,
			"-0.004": 10.6356448345,
			"-0.003": 14.6075915554,
			"-0.002": 16.3516043907,
			"-0.001": 21.0173062639,
			"0.0": 11.3941467593,
			"0.001": 11.7720645534,
			"0.002": 12.3055703546,
			"0.003": 8.28473521187,
			"0.004": 7.59049683434,
			"0.005": 8.09383117085,
			"0.006": 5.2068174091,
			"0.007": 4.78017709558,
			"0.008": 4.62781602638,
			"0.009": 2.70377121358,
			"0.01": 3.28698238187,
			"0.011": 3.65063788698,
			"0.012": 2.77897291617,
			"0.013": 0.939725902614,
			"0.014": 0.513573146177,
			"0.015": 0.61602554375,
			"0.016": 0.18915328978,
			"0.017": 0.0,
			"0.018": 0.0,
			"0.019": 0.0,
			"0.02": 0.0,
			"0.021": 0.0,
			"0.022": 0.0,
			"0.023": 0.0,
			"0.024": 0.0,
			"0.025": 0.0
		}
	}
}
