{
	 "smiles": "BrC1=CC2=C(CCCC2=O)S1", 
	 "Tm": 350.15, 
	 "num_atms": 18, 
	 "gaussian": { 
		 "optdone": 1, 
		 "sigma_profile": "yes", 
		 "theory": "DFT", 
		 "functional": "B3LYP", 
		 "basiset": "6-31G**", 
		 "properties": { 
			 "R2extent": 4344.7033, 
			 "electric_dipole_moment_norm": 3.50473330369, 
			 "electric_quadrupole_moment_norm": 7.37659095721, 
			 "total_energy": -3353.87842421, 
			 "HOMO_LUMO_gap": 0.18219, 
			 "cosmo_polarized_energy": -8.26, 
			 "cosmo_cavitation_energy": 25.22, 
			 "cosmo_dispersion_energy": -19.78, 
			 "cosmo_repulsion_energy": 1.55, 
			 "cosmo_total_nonelectrostatic_energy": 7.0, 
			 "SMD_solvation_energy": 2.78 
		},
		"coords": [
			{
				"x": 1.5996197376,
				"y": -1.9374092092,
				"z": 3.9105382609,
				"element": "Br" 
			},
			{
				"x": 1.156035916,
				"y": -1.2493737123,
				"z": 2.2124907088,
				"element": "C" 
			},
			{
				"x": 0.2074446464,
				"y": -0.3213612718,
				"z": 1.9176216303,
				"element": "C" 
			},
			{
				"x": 0.1574641123,
				"y": -0.0450898911,
				"z": 0.5106472502,
				"element": "C" 
			},
			{
				"x": 1.0719961839,
				"y": -0.7632331531,
				"z": -0.2305228902,
				"element": "C" 
			},
			{
				"x": 1.2301072438,
				"y": -0.668442091,
				"z": -1.7211645499,
				"element": "C" 
			},
			{
				"x": 0.690397575,
				"y": 0.6892176715,
				"z": -2.2085812859,
				"element": "C" 
			},
			{
				"x": -0.7117168812,
				"y": 0.97818738,
				"z": -1.6492005693,
				"element": "C" 
			},
			{
				"x": -0.7813603818,
				"y": 0.9044768714,
				"z": -0.1251181268,
				"element": "C" 
			},
			{
				"x": -1.5811792307,
				"y": 1.560990435,
				"z": 0.5240159153,
				"element": "O" 
			},
			{
				"x": 2.0170710259,
				"y": -1.8060840549,
				"z": 0.7899922345,
				"element": "S" 
			},
			{
				"x": -0.4381109084,
				"y": 0.1570641052,
				"z": 2.6421545648,
				"element": "H" 
			},
			{
				"x": 2.2784346801,
				"y": -0.7933852769,
				"z": -2.0137008047,
				"element": "H" 
			},
			{
				"x": 0.6738912026,
				"y": -1.485666354,
				"z": -2.2037127461,
				"element": "H" 
			},
			{
				"x": 0.6702206941,
				"y": 0.7073979362,
				"z": -3.3032858022,
				"element": "H" 
			},
			{
				"x": 1.3790064825,
				"y": 1.4803489349,
				"z": -1.8884046368,
				"element": "H" 
			},
			{
				"x": -1.0806714765,
				"y": 1.9609183538,
				"z": -1.9553395784,
				"element": "H" 
			},
			{
				"x": -1.4262506217,
				"y": 0.2367433265,
				"z": -2.0374295744,
				"element": "H" 
			}
		],
		 "valence_orbital": [ 
			{
				"type": "occ",
				"energy": -0.31641,
				"method": "rhf"
			},
			{
				"type": "occ",
				"energy": -0.30011,
				"method": "rhf"
			},
			{
				"type": "occ",
				"energy": -0.26898,
				"method": "rhf"
			},
			{
				"type": "occ",
				"energy": -0.24709,
				"method": "rhf"
			},
			{
				"type": "occ",
				"energy": -0.23561,
				"method": "rhf"
			},
			{
				"type": "unocc",
				"energy": -0.05342,
				"method": "rhf"
			},
			{
				"type": "unocc",
				"energy": -0.01364,
				"method": "rhf"
			},
			{
				"type": "unocc",
				"energy": -0.00993,
				"method": "rhf"
			},
			{
				"type": "unocc",
				"energy": 0.00969,
				"method": "rhf"
			},
			{
				"type": "unocc",
				"energy": 0.07224,
				"method": "rhf"
			}
		],
		"cosmo_sigma_profile": { 
			"-0.025": 0.0,
			"-0.024": 0.0,
			"-0.023": 0.0,
			"-0.022": 0.0,
			"-0.021": 0.0,
			"-0.02": 0.0,
			"-0.019": 0.0,
			"-0.018": 0.0,
			"-0.017": 0.0,
			"-0.016": 0.0,
			"-0.015": 0.0,
			"-0.014": 0.0,
			"-0.013": 0.0,
			"-0.012": 0.0,
			"-0.011": 0.0,
			"-0.01": 0.0,
			"-0.009": 0.0,
			"-0.008": 0.43308949509,
			"-0.007": 1.63428946915,
			"-0.006": 7.87214266367,
			"-0.005": 15.5769276103,
			"-0.004": 20.4844733776,
			"-0.003": 21.286020681,
			"-0.002": 19.7597451088,
			"-0.001": 16.3614920047,
			"0.0": 15.9157441316,
			"0.001": 22.2316825945,
			"0.002": 20.1718184923,
			"0.003": 17.7173333573,
			"0.004": 6.89857686016,
			"0.005": 1.72491777677,
			"0.006": 2.424265199,
			"0.007": 0.875391691132,
			"0.008": 0.917700770763,
			"0.009": 1.74870918178,
			"0.01": 2.29453047857,
			"0.011": 2.65465186788,
			"0.012": 4.45056777738,
			"0.013": 2.44676114192,
			"0.014": 0.460494022566,
			"0.015": 0.0,
			"0.016": 0.0,
			"0.017": 0.0,
			"0.018": 0.0,
			"0.019": 0.0,
			"0.02": 0.0,
			"0.021": 0.0,
			"0.022": 0.0,
			"0.023": 0.0,
			"0.024": 0.0,
			"0.025": 0.0
		}
	}
}
