{
	 "smiles": "CN1C(=O)C2=C(C=C(NC(=O)CCl)C=C2)C1=O", 
	 "Tm": 477.15, 
	 "num_atms": 26, 
	 "gaussian": { 
		 "optdone": 1, 
		 "sigma_profile": "yes", 
		 "theory": "DFT", 
		 "functional": "B3LYP", 
		 "basiset": "6-31G**", 
		 "properties": { 
			 "R2extent": 6706.3943, 
			 "electric_dipole_moment_norm": 3.07351589226, 
			 "electric_quadrupole_moment_norm": 19.0253345839, 
			 "total_energy": -1220.00038263, 
			 "HOMO_LUMO_gap": 0.16157, 
			 "cosmo_polarized_energy": -21.56, 
			 "cosmo_cavitation_energy": 33.42, 
			 "cosmo_dispersion_energy": -24.03, 
			 "cosmo_repulsion_energy": 1.87, 
			 "cosmo_total_nonelectrostatic_energy": 11.26, 
			 "SMD_solvation_energy": 7.45 
		},
		"coords": [
			{
				"x": -0.816030551,
				"y": 1.8451954013,
				"z": 4.7554186279,
				"element": "C" 
			},
			{
				"x": -0.1484966211,
				"y": 1.773812473,
				"z": 3.4677543721,
				"element": "N" 
			},
			{
				"x": 0.061760149,
				"y": 2.8878868281,
				"z": 2.6340007035,
				"element": "C" 
			},
			{
				"x": -0.2929599384,
				"y": 4.0229114693,
				"z": 2.8805203081,
				"element": "O" 
			},
			{
				"x": 0.7820984351,
				"y": 2.3618481089,
				"z": 1.4396729057,
				"element": "C" 
			},
			{
				"x": 0.9635962184,
				"y": 0.9898771752,
				"z": 1.6057803623,
				"element": "C" 
			},
			{
				"x": 1.6215354949,
				"y": 0.2091637271,
				"z": 0.6711726182,
				"element": "C" 
			},
			{
				"x": 2.0850856165,
				"y": 0.8441774341,
				"z": -0.4977950138,
				"element": "C" 
			},
			{
				"x": 2.7826367171,
				"y": 0.1567409428,
				"z": -1.5084826983,
				"element": "N" 
			},
			{
				"x": 2.6399815804,
				"y": -1.108787971,
				"z": -2.0685741725,
				"element": "C" 
			},
			{
				"x": 3.3705070023,
				"y": -1.4468356763,
				"z": -2.9779449942,
				"element": "O" 
			},
			{
				"x": 1.5410012978,
				"y": -2.0060990322,
				"z": -1.4937564625,
				"element": "C" 
			},
			{
				"x": 1.0315224771,
				"y": -3.2598932717,
				"z": -2.6661522686,
				"element": "Cl" 
			},
			{
				"x": 1.905737152,
				"y": 2.2350663729,
				"z": -0.6588732699,
				"element": "C" 
			},
			{
				"x": 1.2606040879,
				"y": 3.0077488498,
				"z": 0.3071720565,
				"element": "C" 
			},
			{
				"x": 0.3689192341,
				"y": 0.5932056045,
				"z": 2.9208827227,
				"element": "C" 
			},
			{
				"x": 0.3198537699,
				"y": -0.5080957403,
				"z": 3.4316859019,
				"element": "O" 
			},
			{
				"x": -1.5720256799,
				"y": 2.6307587203,
				"z": 4.7146512404,
				"element": "H" 
			},
			{
				"x": -0.1066000168,
				"y": 2.077356912,
				"z": 5.5563840643,
				"element": "H" 
			},
			{
				"x": -1.2782570129,
				"y": 0.8784772597,
				"z": 4.9598627437,
				"element": "H" 
			},
			{
				"x": 1.7934636001,
				"y": -0.8421942468,
				"z": 0.8655634619,
				"element": "H" 
			},
			{
				"x": 3.457260885,
				"y": 0.6991540345,
				"z": -2.0357761616,
				"element": "H" 
			},
			{
				"x": 0.6578301763,
				"y": -1.4324505672,
				"z": -1.2111072756,
				"element": "H" 
			},
			{
				"x": 1.9160569973,
				"y": -2.5278063989,
				"z": -0.6099638971,
				"element": "H" 
			},
			{
				"x": 2.2734420175,
				"y": 2.7047493338,
				"z": -1.5668445948,
				"element": "H" 
			},
			{
				"x": 1.1277769116,
				"y": 4.0763322574,
				"z": 0.1733487199,
				"element": "H" 
			}
		],
		 "valence_orbital": [ 
			{
				"type": "occ",
				"energy": -0.29591,
				"method": "rhf"
			},
			{
				"type": "occ",
				"energy": -0.2851,
				"method": "rhf"
			},
			{
				"type": "occ",
				"energy": -0.28374,
				"method": "rhf"
			},
			{
				"type": "occ",
				"energy": -0.2773,
				"method": "rhf"
			},
			{
				"type": "occ",
				"energy": -0.25521,
				"method": "rhf"
			},
			{
				"type": "unocc",
				"energy": -0.09364,
				"method": "rhf"
			},
			{
				"type": "unocc",
				"energy": -0.05675,
				"method": "rhf"
			},
			{
				"type": "unocc",
				"energy": -0.01918,
				"method": "rhf"
			},
			{
				"type": "unocc",
				"energy": 0.01707,
				"method": "rhf"
			},
			{
				"type": "unocc",
				"energy": 0.02762,
				"method": "rhf"
			}
		],
		"cosmo_sigma_profile": { 
			"-0.025": 0.0,
			"-0.024": 0.0,
			"-0.023": 0.0,
			"-0.022": 0.0,
			"-0.021": 0.0,
			"-0.02": 0.0,
			"-0.019": 0.0,
			"-0.018": 0.0,
			"-0.017": 0.0,
			"-0.016": 0.11172579963,
			"-0.015": 1.15297940747,
			"-0.014": 1.40958526005,
			"-0.013": 1.36407864965,
			"-0.012": 2.93170988316,
			"-0.011": 2.8993734658,
			"-0.01": 3.65063248507,
			"-0.009": 5.97842873876,
			"-0.008": 7.60845081752,
			"-0.007": 9.81329803076,
			"-0.006": 13.6408128369,
			"-0.005": 14.9488442576,
			"-0.004": 18.0868623923,
			"-0.003": 21.0279139481,
			"-0.002": 18.8619453074,
			"-0.001": 17.8983603438,
			"0.0": 18.6401117713,
			"0.001": 15.8728847548,
			"0.002": 10.9501240484,
			"0.003": 6.49778149119,
			"0.004": 8.15647095379,
			"0.005": 12.6455671549,
			"0.006": 8.8456115058,
			"0.007": 3.53242091638,
			"0.008": 5.2113802316,
			"0.009": 5.67444323459,
			"0.01": 7.77886618303,
			"0.011": 13.4770511324,
			"0.012": 8.80285570973,
			"0.013": 2.33629854703,
			"0.014": 0.262581683216,
			"0.015": 0.0,
			"0.016": 0.0,
			"0.017": 0.0,
			"0.018": 0.0,
			"0.019": 0.0,
			"0.02": 0.0,
			"0.021": 0.0,
			"0.022": 0.0,
			"0.023": 0.0,
			"0.024": 0.0,
			"0.025": 0.0
		}
	}
}
