{
	 "smiles": "[O-][N+](=NC1=CC=CC=C1)C1=CC=C(C=C1)N=N/C1=CC=C(C=C1)[N+]([O-])=NC1=CC=CC=C1", 
	 "Tm": 411.15, 
	 "num_atms": 50, 
	 "gaussian": { 
		 "optdone": 1, 
		 "sigma_profile": "yes", 
		 "theory": "DFT", 
		 "functional": "B3LYP", 
		 "basiset": "6-31G**", 
		 "properties": { 
			 "R2extent": 24955.9433, 
			 "electric_dipole_moment_norm": 5.32713098112, 
			 "electric_quadrupole_moment_norm": 48.5797291585, 
			 "total_energy": -1404.10438056, 
			 "HOMO_LUMO_gap": 0.1145, 
			 "cosmo_polarized_energy": -22.92, 
			 "cosmo_cavitation_energy": 57.58, 
			 "cosmo_dispersion_energy": -39.27, 
			 "cosmo_repulsion_energy": 2.95, 
			 "cosmo_total_nonelectrostatic_energy": 21.26, 
			 "SMD_solvation_energy": 8.55 
		},
		"coords": [
			{
				"x": -2.7360125437,
				"y": -3.1495662278,
				"z": 6.1135364446,
				"element": "O" 
			},
			{
				"x": -3.0160655939,
				"y": -3.3342946921,
				"z": 4.9094123735,
				"element": "N" 
			},
			{
				"x": -3.8063285746,
				"y": -4.2735404627,
				"z": 4.5472557307,
				"element": "N" 
			},
			{
				"x": -3.9203889811,
				"y": -4.6234417874,
				"z": 3.1844751526,
				"element": "C" 
			},
			{
				"x": -5.215675034,
				"y": -4.8853489722,
				"z": 2.7084417649,
				"element": "C" 
			},
			{
				"x": -5.4076290815,
				"y": -5.3251670725,
				"z": 1.4010160911,
				"element": "C" 
			},
			{
				"x": -4.3119462151,
				"y": -5.5395944064,
				"z": 0.5606991395,
				"element": "C" 
			},
			{
				"x": -3.0202523055,
				"y": -5.3168932469,
				"z": 1.0429087919,
				"element": "C" 
			},
			{
				"x": -2.8182462434,
				"y": -4.8638984831,
				"z": 2.3451761616,
				"element": "C" 
			},
			{
				"x": -2.4210596017,
				"y": -2.3275926847,
				"z": 4.0068357276,
				"element": "C" 
			},
			{
				"x": -1.0772750385,
				"y": -1.9994413288,
				"z": 4.2103290818,
				"element": "C" 
			},
			{
				"x": -0.4954636376,
				"y": -1.0078738705,
				"z": 3.4351663954,
				"element": "C" 
			},
			{
				"x": -1.2702642387,
				"y": -0.3217039631,
				"z": 2.4818451366,
				"element": "C" 
			},
			{
				"x": -2.6248283763,
				"y": -0.6426818872,
				"z": 2.3186922375,
				"element": "C" 
			},
			{
				"x": -3.2088051448,
				"y": -1.6539055922,
				"z": 3.076327015,
				"element": "C" 
			},
			{
				"x": -0.7879010173,
				"y": 0.7146103426,
				"z": 1.6455934221,
				"element": "N" 
			},
			{
				"x": 0.4365751662,
				"y": 0.9791407547,
				"z": 1.788232594,
				"element": "N" 
			},
			{
				"x": 0.9185064453,
				"y": 2.0182735038,
				"z": 0.9551550961,
				"element": "C" 
			},
			{
				"x": 0.1319850865,
				"y": 2.7378588087,
				"z": 0.0378520544,
				"element": "C" 
			},
			{
				"x": 0.7092315898,
				"y": 3.7310093019,
				"z": -0.7407027096,
				"element": "C" 
			},
			{
				"x": 2.0711424911,
				"y": 4.0091757336,
				"z": -0.5884526611,
				"element": "C" 
			},
			{
				"x": 2.8593612637,
				"y": 3.3320558153,
				"z": 0.339075852,
				"element": "C" 
			},
			{
				"x": 2.2800341834,
				"y": 2.3214867099,
				"z": 1.0989563963,
				"element": "C" 
			},
			{
				"x": 2.6968668985,
				"y": 5.127858671,
				"z": -1.3233212515,
				"element": "N" 
			},
			{
				"x": 3.3651343505,
				"y": 5.8922796466,
				"z": -0.5944064124,
				"element": "O" 
			},
			{
				"x": 2.5358347739,
				"y": 5.3713620108,
				"z": -2.5696517155,
				"element": "N" 
			},
			{
				"x": 1.9978324411,
				"y": 4.3858941318,
				"z": -3.4248591975,
				"element": "C" 
			},
			{
				"x": 2.4514993537,
				"y": 3.0556279592,
				"z": -3.4666938316,
				"element": "C" 
			},
			{
				"x": 1.9440447292,
				"y": 2.1763411762,
				"z": -4.421342146,
				"element": "C" 
			},
			{
				"x": 0.9876367974,
				"y": 2.6048178026,
				"z": -5.3444517963,
				"element": "C" 
			},
			{
				"x": 0.5536701814,
				"y": 3.932964531,
				"z": -5.3208287186,
				"element": "C" 
			},
			{
				"x": 1.0645479128,
				"y": 4.8230148313,
				"z": -4.3794565802,
				"element": "C" 
			},
			{
				"x": -6.0555062307,
				"y": -4.7361619993,
				"z": 3.3795143355,
				"element": "H" 
			},
			{
				"x": -6.4152803279,
				"y": -5.5114312193,
				"z": 1.0409698676,
				"element": "H" 
			},
			{
				"x": -4.4622757925,
				"y": -5.8932813699,
				"z": -0.4547313283,
				"element": "H" 
			},
			{
				"x": -2.161275029,
				"y": -5.5050523889,
				"z": 0.4052046921,
				"element": "H" 
			},
			{
				"x": -1.8108715531,
				"y": -4.7180386219,
				"z": 2.7206614468,
				"element": "H" 
			},
			{
				"x": -0.5179802738,
				"y": -2.5181670088,
				"z": 4.9802813978,
				"element": "H" 
			},
			{
				"x": 0.5467795922,
				"y": -0.7384459772,
				"z": 3.5574933649,
				"element": "H" 
			},
			{
				"x": -3.203186921,
				"y": -0.0856890786,
				"z": 1.5893939422,
				"element": "H" 
			},
			{
				"x": -4.2534887076,
				"y": -1.9099251119,
				"z": 2.9485335134,
				"element": "H" 
			},
			{
				"x": -0.9223012509,
				"y": 2.5033086837,
				"z": -0.0469229966,
				"element": "H" 
			},
			{
				"x": 0.1137534984,
				"y": 4.2884636921,
				"z": -1.453882152,
				"element": "H" 
			},
			{
				"x": 3.8990696293,
				"y": 3.6115755472,
				"z": 0.4603964461,
				"element": "H" 
			},
			{
				"x": 2.8609034286,
				"y": 1.7595381507,
				"z": 1.8225576602,
				"element": "H" 
			},
			{
				"x": 3.2132950051,
				"y": 2.7221952428,
				"z": -2.7699367477,
				"element": "H" 
			},
			{
				"x": 2.3060861016,
				"y": 1.1525664483,
				"z": -4.448259866,
				"element": "H" 
			},
			{
				"x": 0.5969400521,
				"y": 1.9147739114,
				"z": -6.0860621607,
				"element": "H" 
			},
			{
				"x": -0.1774036119,
				"y": 4.2803849608,
				"z": -6.0450655892,
				"element": "H" 
			},
			{
				"x": 0.7537803542,
				"y": 5.8627590853,
				"z": -4.363361465,
				"element": "H" 
			}
		],
		 "valence_orbital": [ 
			{
				"type": "occ",
				"energy": -0.26257,
				"method": "rhf"
			},
			{
				"type": "occ",
				"energy": -0.2517,
				"method": "rhf"
			},
			{
				"type": "occ",
				"energy": -0.25058,
				"method": "rhf"
			},
			{
				"type": "occ",
				"energy": -0.2311,
				"method": "rhf"
			},
			{
				"type": "occ",
				"energy": -0.22951,
				"method": "rhf"
			},
			{
				"type": "unocc",
				"energy": -0.11501,
				"method": "rhf"
			},
			{
				"type": "unocc",
				"energy": -0.07487,
				"method": "rhf"
			},
			{
				"type": "unocc",
				"energy": -0.06356,
				"method": "rhf"
			},
			{
				"type": "unocc",
				"energy": -0.03412,
				"method": "rhf"
			},
			{
				"type": "unocc",
				"energy": -0.03354,
				"method": "rhf"
			}
		],
		"cosmo_sigma_profile": { 
			"-0.025": 0.0,
			"-0.024": 0.0,
			"-0.023": 0.0,
			"-0.022": 0.0,
			"-0.021": 0.0,
			"-0.02": 0.0,
			"-0.019": 0.0,
			"-0.018": 0.0,
			"-0.017": 0.0,
			"-0.016": 0.0,
			"-0.015": 0.0,
			"-0.014": 0.0,
			"-0.013": 0.0,
			"-0.012": 0.0,
			"-0.011": 0.0,
			"-0.01": 0.0150957719847,
			"-0.009": 0.809389288375,
			"-0.008": 7.79079701611,
			"-0.007": 19.6335100426,
			"-0.006": 37.3615735449,
			"-0.005": 35.1937730498,
			"-0.004": 32.6622124189,
			"-0.003": 27.5259195051,
			"-0.002": 26.8050670252,
			"-0.001": 29.3992931037,
			"0.0": 43.9443877735,
			"0.001": 44.8658708104,
			"0.002": 29.8977603179,
			"0.003": 28.2965286055,
			"0.004": 29.3206393842,
			"0.005": 15.4230051024,
			"0.006": 7.00551897159,
			"0.007": 5.31274758133,
			"0.008": 4.5149048292,
			"0.009": 7.27006170121,
			"0.01": 12.2026985076,
			"0.011": 8.05598997295,
			"0.012": 5.85230620203,
			"0.013": 4.37707618657,
			"0.014": 0.33326074491,
			"0.015": 0.0,
			"0.016": 0.0,
			"0.017": 0.0,
			"0.018": 0.0,
			"0.019": 0.0,
			"0.02": 0.0,
			"0.021": 0.0,
			"0.022": 0.0,
			"0.023": 0.0,
			"0.024": 0.0,
			"0.025": 0.0
		}
	}
}
