{
	 "smiles": "CC(C)=CC1C(C(=O)OCN2C(=O)CN(CC#C)C2=O)C1(C)C", 
	 "Tm": 298.15, 
	 "num_atms": 45, 
	 "gaussian": { 
		 "optdone": 1, 
		 "sigma_profile": "yes", 
		 "theory": "DFT", 
		 "functional": "B3LYP", 
		 "basiset": "6-31G**", 
		 "properties": { 
			 "R2extent": 12504.1033, 
			 "electric_dipole_moment_norm": 3.15823931962, 
			 "electric_quadrupole_moment_norm": 25.4351271479, 
			 "total_energy": -1071.41180679, 
			 "HOMO_LUMO_gap": 0.20198, 
			 "cosmo_polarized_energy": -18.4, 
			 "cosmo_cavitation_energy": 50.18, 
			 "cosmo_dispersion_energy": -33.15, 
			 "cosmo_repulsion_energy": 2.62, 
			 "cosmo_total_nonelectrostatic_energy": 19.65, 
			 "SMD_solvation_energy": 11.58 
		},
		"coords": [
			{
				"x": -2.6807453331,
				"y": 0.5836821345,
				"z": -5.5142426783,
				"element": "C" 
			},
			{
				"x": -2.5537416163,
				"y": -0.3848614389,
				"z": -4.3631416581,
				"element": "C" 
			},
			{
				"x": -2.5408154477,
				"y": -1.8381764803,
				"z": -4.7672133409,
				"element": "C" 
			},
			{
				"x": -2.4628295281,
				"y": 0.0649062651,
				"z": -3.099370347,
				"element": "C" 
			},
			{
				"x": -2.3296424059,
				"y": -0.7455831821,
				"z": -1.8673499712,
				"element": "C" 
			},
			{
				"x": -1.4645208333,
				"y": -0.2380308695,
				"z": -0.7027800162,
				"element": "C" 
			},
			{
				"x": -0.5036877985,
				"y": -1.1794887053,
				"z": -0.0822013042,
				"element": "C" 
			},
			{
				"x": -0.587966626,
				"y": -2.3937912861,
				"z": -0.053350537,
				"element": "O" 
			},
			{
				"x": 0.5407722299,
				"y": -0.5093103141,
				"z": 0.4735894817,
				"element": "O" 
			},
			{
				"x": 1.5309981706,
				"y": -1.3502914059,
				"z": 1.093726217,
				"element": "C" 
			},
			{
				"x": 2.5607887555,
				"y": -0.5031298723,
				"z": 1.6131882134,
				"element": "N" 
			},
			{
				"x": 3.6619112821,
				"y": -0.0643333345,
				"z": 0.888841205,
				"element": "C" 
			},
			{
				"x": 3.9511320505,
				"y": -0.375007546,
				"z": -0.2448286109,
				"element": "O" 
			},
			{
				"x": 4.4290858962,
				"y": 0.8692208919,
				"z": 1.825685938,
				"element": "C" 
			},
			{
				"x": 3.5786395683,
				"y": 0.9236357489,
				"z": 3.001409906,
				"element": "N" 
			},
			{
				"x": 3.9756531962,
				"y": 1.5107096185,
				"z": 4.2729551192,
				"element": "C" 
			},
			{
				"x": 5.2224800989,
				"y": 0.9467158451,
				"z": 4.8049830339,
				"element": "C" 
			},
			{
				"x": 6.2622038437,
				"y": 0.4933984742,
				"z": 5.2185568074,
				"element": "C" 
			},
			{
				"x": 2.5077717541,
				"y": 0.0660256079,
				"z": 2.909617016,
				"element": "C" 
			},
			{
				"x": 1.6689349224,
				"y": -0.1778147248,
				"z": 3.7533896797,
				"element": "O" 
			},
			{
				"x": -2.9822655219,
				"y": -0.3943940457,
				"z": -0.5482590791,
				"element": "C" 
			},
			{
				"x": -3.7715491442,
				"y": 0.8987131116,
				"z": -0.4136551761,
				"element": "C" 
			},
			{
				"x": -3.5470058418,
				"y": -1.5295635014,
				"z": 0.2900371229,
				"element": "C" 
			},
			{
				"x": -1.8524733936,
				"y": 0.4620313043,
				"z": -6.2251884855,
				"element": "H" 
			},
			{
				"x": -2.6871079434,
				"y": 1.6238348724,
				"z": -5.1766037351,
				"element": "H" 
			},
			{
				"x": -3.6038632746,
				"y": 0.4044596033,
				"z": -6.081800524,
				"element": "H" 
			},
			{
				"x": -2.4451918401,
				"y": -2.5246504068,
				"z": -3.9245712455,
				"element": "H" 
			},
			{
				"x": -1.7116774367,
				"y": -2.0381318575,
				"z": -5.4584998788,
				"element": "H" 
			},
			{
				"x": -3.4619031198,
				"y": -2.0956571631,
				"z": -5.3066316464,
				"element": "H" 
			},
			{
				"x": -2.4818077784,
				"y": 1.1441164115,
				"z": -2.955109903,
				"element": "H" 
			},
			{
				"x": -2.215409137,
				"y": -1.8158938093,
				"z": -2.0127406263,
				"element": "H" 
			},
			{
				"x": -1.1018189975,
				"y": 0.7829925255,
				"z": -0.7658042248,
				"element": "H" 
			},
			{
				"x": 1.080866655,
				"y": -1.9112540403,
				"z": 1.9133496978,
				"element": "H" 
			},
			{
				"x": 1.9611396878,
				"y": -2.0249713587,
				"z": 0.3524844958,
				"element": "H" 
			},
			{
				"x": 4.5648863785,
				"y": 1.8493946971,
				"z": 1.3533750022,
				"element": "H" 
			},
			{
				"x": 5.4194438463,
				"y": 0.4523677255,
				"z": 2.0486468295,
				"element": "H" 
			},
			{
				"x": 4.0813249522,
				"y": 2.5977785639,
				"z": 4.1599393464,
				"element": "H" 
			},
			{
				"x": 3.1453980322,
				"y": 1.3304415798,
				"z": 4.9633584929,
				"element": "H" 
			},
			{
				"x": 7.1697803925,
				"y": 0.0844184658,
				"z": 5.5994017988,
				"element": "H" 
			},
			{
				"x": -3.3258595383,
				"y": 1.728263069,
				"z": -0.967968205,
				"element": "H" 
			},
			{
				"x": -4.7948801237,
				"y": 0.7618890337,
				"z": -0.7819015892,
				"element": "H" 
			},
			{
				"x": -3.8325282941,
				"y": 1.1970599706,
				"z": 0.6389346049,
				"element": "H" 
			},
			{
				"x": -3.5884932094,
				"y": -1.2460264959,
				"z": 1.3485502636,
				"element": "H" 
			},
			{
				"x": -4.5701399692,
				"y": -1.7540453801,
				"z": -0.0333401259,
				"element": "H" 
			},
			{
				"x": -2.9471875606,
				"y": -2.4366483016,
				"z": 0.2058326363,
				"element": "H" 
			}
		],
		 "valence_orbital": [ 
			{
				"type": "occ",
				"energy": -0.27988,
				"method": "rhf"
			},
			{
				"type": "occ",
				"energy": -0.27267,
				"method": "rhf"
			},
			{
				"type": "occ",
				"energy": -0.27039,
				"method": "rhf"
			},
			{
				"type": "occ",
				"energy": -0.26364,
				"method": "rhf"
			},
			{
				"type": "occ",
				"energy": -0.22001,
				"method": "rhf"
			},
			{
				"type": "unocc",
				"energy": -0.01803,
				"method": "rhf"
			},
			{
				"type": "unocc",
				"energy": 0.00046,
				"method": "rhf"
			},
			{
				"type": "unocc",
				"energy": 0.02,
				"method": "rhf"
			},
			{
				"type": "unocc",
				"energy": 0.03488,
				"method": "rhf"
			},
			{
				"type": "unocc",
				"energy": 0.03671,
				"method": "rhf"
			}
		],
		"cosmo_sigma_profile": { 
			"-0.025": 0.0,
			"-0.024": 0.0,
			"-0.023": 0.0,
			"-0.022": 0.0,
			"-0.021": 0.0,
			"-0.02": 0.0,
			"-0.019": 0.0,
			"-0.018": 0.0,
			"-0.017": 0.0,
			"-0.016": 0.0,
			"-0.015": 0.0,
			"-0.014": 0.0,
			"-0.013": 0.0,
			"-0.012": 0.928680723418,
			"-0.011": 1.19422770715,
			"-0.01": 1.2051082179,
			"-0.009": 2.02252073772,
			"-0.008": 12.0393496874,
			"-0.007": 13.8177864816,
			"-0.006": 17.3281815376,
			"-0.005": 18.3142448165,
			"-0.004": 21.5270478941,
			"-0.003": 37.459627295,
			"-0.002": 35.6049248501,
			"-0.001": 37.4357436184,
			"0.0": 42.9989990305,
			"0.001": 35.5511111845,
			"0.002": 17.9722440999,
			"0.003": 16.5951197189,
			"0.004": 15.2087572781,
			"0.005": 14.6042748331,
			"0.006": 12.9183639891,
			"0.007": 6.23995473278,
			"0.008": 4.70916903752,
			"0.009": 4.91349089134,
			"0.01": 5.11162276868,
			"0.011": 10.854056978,
			"0.012": 9.81714083886,
			"0.013": 0.203774450737,
			"0.014": 0.0,
			"0.015": 0.0,
			"0.016": 0.0,
			"0.017": 0.0,
			"0.018": 0.0,
			"0.019": 0.0,
			"0.02": 0.0,
			"0.021": 0.0,
			"0.022": 0.0,
			"0.023": 0.0,
			"0.024": 0.0,
			"0.025": 0.0
		}
	}
}
