{
	 "smiles": "NC1=C(C(O)=O)C(F)=C(Br)C=C1Br", 
	 "Tm": 509.15, 
	 "num_atms": 17, 
	 "gaussian": { 
		 "optdone": 1, 
		 "sigma_profile": "yes", 
		 "theory": "DFT", 
		 "functional": "B3LYP", 
		 "basiset": "6-31G**", 
		 "properties": { 
			 "R2extent": 6045.7272, 
			 "electric_dipole_moment_norm": 5.2891594474, 
			 "electric_quadrupole_moment_norm": 8.20697151025, 
			 "total_energy": -5716.99950931, 
			 "HOMO_LUMO_gap": 0.18012, 
			 "cosmo_polarized_energy": -15.63, 
			 "cosmo_cavitation_energy": 26.59, 
			 "cosmo_dispersion_energy": -20.65, 
			 "cosmo_repulsion_energy": 1.62, 
			 "cosmo_total_nonelectrostatic_energy": 7.56, 
			 "SMD_solvation_energy": 3.99 
		},
		"coords": [
			{
				"x": 0.2457327821,
				"y": -1.215848347,
				"z": -1.5979798833,
				"element": "N" 
			},
			{
				"x": -0.1861625415,
				"y": -1.023912489,
				"z": -0.2722405439,
				"element": "C" 
			},
			{
				"x": 0.1689588951,
				"y": 0.1642054768,
				"z": 0.414289929,
				"element": "C" 
			},
			{
				"x": 1.0085460315,
				"y": 1.2525960079,
				"z": -0.2195245932,
				"element": "C" 
			},
			{
				"x": 0.8720335237,
				"y": 1.4055072071,
				"z": -1.5562547373,
				"element": "O" 
			},
			{
				"x": 1.7494233259,
				"y": 1.965108693,
				"z": 0.410660124,
				"element": "O" 
			},
			{
				"x": -0.2965070482,
				"y": 0.3544853266,
				"z": 1.7226842674,
				"element": "C" 
			},
			{
				"x": 0.0126919257,
				"y": 1.4677526775,
				"z": 2.3816511582,
				"element": "F" 
			},
			{
				"x": -1.1229770261,
				"y": -0.5794219927,
				"z": 2.3491495503,
				"element": "C" 
			},
			{
				"x": -1.743969007,
				"y": -0.265199454,
				"z": 4.1123627579,
				"element": "Br" 
			},
			{
				"x": -1.4881804097,
				"y": -1.734067549,
				"z": 1.6672545605,
				"element": "C" 
			},
			{
				"x": -1.0168080171,
				"y": -1.951328269,
				"z": 0.3772454521,
				"element": "C" 
			},
			{
				"x": -1.5285163875,
				"y": -3.567769893,
				"z": -0.511204264,
				"element": "Br" 
			},
			{
				"x": -0.0894064091,
				"y": -2.0887517954,
				"z": -1.9916347627,
				"element": "H" 
			},
			{
				"x": 1.2506904327,
				"y": -1.1368478666,
				"z": -1.7191613912,
				"element": "H" 
			},
			{
				"x": 0.2862045775,
				"y": 0.713380374,
				"z": -1.9224024041,
				"element": "H" 
			},
			{
				"x": -2.1273546479,
				"y": -2.4656881072,
				"z": 2.1448047802,
				"element": "H" 
			}
		],
		 "valence_orbital": [ 
			{
				"type": "occ",
				"energy": -0.3074,
				"method": "rhf"
			},
			{
				"type": "occ",
				"energy": -0.30362,
				"method": "rhf"
			},
			{
				"type": "occ",
				"energy": -0.28163,
				"method": "rhf"
			},
			{
				"type": "occ",
				"energy": -0.27129,
				"method": "rhf"
			},
			{
				"type": "occ",
				"energy": -0.2466,
				"method": "rhf"
			},
			{
				"type": "unocc",
				"energy": -0.06648,
				"method": "rhf"
			},
			{
				"type": "unocc",
				"energy": -0.03618,
				"method": "rhf"
			},
			{
				"type": "unocc",
				"energy": -0.03287,
				"method": "rhf"
			},
			{
				"type": "unocc",
				"energy": 0.00172,
				"method": "rhf"
			},
			{
				"type": "unocc",
				"energy": 0.02857,
				"method": "rhf"
			}
		],
		"cosmo_sigma_profile": { 
			"-0.025": 0.0,
			"-0.024": 0.0,
			"-0.023": 0.0,
			"-0.022": 0.0,
			"-0.021": 0.0,
			"-0.02": 0.0,
			"-0.019": 0.0,
			"-0.018": 0.0,
			"-0.017": 0.0,
			"-0.016": 0.0390412089698,
			"-0.015": 0.926053219664,
			"-0.014": 1.7016130901,
			"-0.013": 1.83818511023,
			"-0.012": 3.17921577844,
			"-0.011": 2.95739428108,
			"-0.01": 2.9051372041,
			"-0.009": 4.27475378229,
			"-0.008": 4.24819915499,
			"-0.007": 4.91597125211,
			"-0.006": 5.67985468393,
			"-0.005": 8.94558745884,
			"-0.004": 9.45592555634,
			"-0.003": 10.5272260148,
			"-0.002": 18.3219553932,
			"-0.001": 19.1749024945,
			"0.0": 20.7761506487,
			"0.001": 13.9900468062,
			"0.002": 15.398419058,
			"0.003": 23.3564041776,
			"0.004": 15.6497005885,
			"0.005": 4.21223172932,
			"0.006": 2.42749327027,
			"0.007": 2.02487986146,
			"0.008": 3.51527858279,
			"0.009": 3.69578130388,
			"0.01": 5.27954855702,
			"0.011": 6.70282630686,
			"0.012": 3.71939433399,
			"0.013": 0.73476240785,
			"0.014": 0.0,
			"0.015": 0.0,
			"0.016": 0.0,
			"0.017": 0.0,
			"0.018": 0.0,
			"0.019": 0.0,
			"0.02": 0.0,
			"0.021": 0.0,
			"0.022": 0.0,
			"0.023": 0.0,
			"0.024": 0.0,
			"0.025": 0.0
		}
	}
}
