{
	 "smiles": "FC(F)(F)COC(=O)NC1=NC2=C(S1)C=CC=C2", 
	 "Tm": 498.15, 
	 "num_atms": 25, 
	 "gaussian": { 
		 "optdone": 1, 
		 "sigma_profile": "yes", 
		 "theory": "DFT", 
		 "functional": "B3LYP", 
		 "basiset": "6-31G**", 
		 "properties": { 
			 "R2extent": 7929.4467, 
			 "electric_dipole_moment_norm": 1.57300927524, 
			 "electric_quadrupole_moment_norm": 13.8918052416, 
			 "total_energy": -1342.97662398, 
			 "HOMO_LUMO_gap": 0.1911, 
			 "cosmo_polarized_energy": -11.75, 
			 "cosmo_cavitation_energy": 33.67, 
			 "cosmo_dispersion_energy": -24.83, 
			 "cosmo_repulsion_energy": 1.81, 
			 "cosmo_total_nonelectrostatic_energy": 10.65, 
			 "SMD_solvation_energy": 5.74 
		},
		"coords": [
			{
				"x": 3.1210405491,
				"y": 3.3262989299,
				"z": -2.9904439604,
				"element": "F" 
			},
			{
				"x": 1.7834933174,
				"y": 3.4714480913,
				"z": -2.9556841292,
				"element": "C" 
			},
			{
				"x": 1.4363257147,
				"y": 4.3750253117,
				"z": -3.8946007695,
				"element": "F" 
			},
			{
				"x": 1.2323958528,
				"y": 2.2877426096,
				"z": -3.2788458868,
				"element": "F" 
			},
			{
				"x": 1.304567396,
				"y": 3.9523819862,
				"z": -1.5955921579,
				"element": "C" 
			},
			{
				"x": 1.6497160789,
				"y": 2.9900201421,
				"z": -0.602804002,
				"element": "O" 
			},
			{
				"x": 0.6298145844,
				"y": 2.198924534,
				"z": -0.1588758585,
				"element": "C" 
			},
			{
				"x": -0.5386981307,
				"y": 2.3183547794,
				"z": -0.4609599279,
				"element": "O" 
			},
			{
				"x": 1.1406452672,
				"y": 1.2635317845,
				"z": 0.7007883555,
				"element": "N" 
			},
			{
				"x": 0.410847002,
				"y": 0.2999168549,
				"z": 1.3819334581,
				"element": "C" 
			},
			{
				"x": 1.0099675966,
				"y": -0.529276156,
				"z": 2.1755068081,
				"element": "N" 
			},
			{
				"x": 0.0891596603,
				"y": -1.397667564,
				"z": 2.743954208,
				"element": "C" 
			},
			{
				"x": -1.2543097514,
				"y": -1.1968200357,
				"z": 2.3492463112,
				"element": "C" 
			},
			{
				"x": -1.3469309015,
				"y": 0.1453366437,
				"z": 1.2121382351,
				"element": "S" 
			},
			{
				"x": -2.287062449,
				"y": -1.9959574328,
				"z": 2.8418053368,
				"element": "C" 
			},
			{
				"x": -1.9608335777,
				"y": -3.0086842469,
				"z": 3.7421657141,
				"element": "C" 
			},
			{
				"x": -0.6304215742,
				"y": -3.2180140339,
				"z": 4.1416378258,
				"element": "C" 
			},
			{
				"x": 0.39809843,
				"y": -2.4212132788,
				"z": 3.6504145309,
				"element": "C" 
			},
			{
				"x": 0.2242894679,
				"y": 4.1024696741,
				"z": -1.627809622,
				"element": "H" 
			},
			{
				"x": 1.8162114961,
				"y": 4.8838390569,
				"z": -1.3472570808,
				"element": "H" 
			},
			{
				"x": 2.1382244174,
				"y": 1.250603225,
				"z": 0.8715275819,
				"element": "H" 
			},
			{
				"x": -3.3159484697,
				"y": -1.8367963279,
				"z": 2.5346440105,
				"element": "H" 
			},
			{
				"x": -2.7477610378,
				"y": -3.6432264614,
				"z": 4.138486808,
				"element": "H" 
			},
			{
				"x": -0.4027197526,
				"y": -4.0140535363,
				"z": 4.8442166609,
				"element": "H" 
			},
			{
				"x": 1.4296888137,
				"y": -2.5724845496,
				"z": 3.9507075502,
				"element": "H" 
			}
		],
		 "valence_orbital": [ 
			{
				"type": "occ",
				"energy": -0.30934,
				"method": "rhf"
			},
			{
				"type": "occ",
				"energy": -0.30243,
				"method": "rhf"
			},
			{
				"type": "occ",
				"energy": -0.28867,
				"method": "rhf"
			},
			{
				"type": "occ",
				"energy": -0.23652,
				"method": "rhf"
			},
			{
				"type": "occ",
				"energy": -0.22724,
				"method": "rhf"
			},
			{
				"type": "unocc",
				"energy": -0.03614,
				"method": "rhf"
			},
			{
				"type": "unocc",
				"energy": -0.00553,
				"method": "rhf"
			},
			{
				"type": "unocc",
				"energy": 0.01326,
				"method": "rhf"
			},
			{
				"type": "unocc",
				"energy": 0.02011,
				"method": "rhf"
			},
			{
				"type": "unocc",
				"energy": 0.05255,
				"method": "rhf"
			}
		],
		"cosmo_sigma_profile": { 
			"-0.025": 0.0,
			"-0.024": 0.0,
			"-0.023": 0.0,
			"-0.022": 0.0,
			"-0.021": 0.0,
			"-0.02": 0.0,
			"-0.019": 0.0,
			"-0.018": 0.00696859356759,
			"-0.017": 0.54037105243,
			"-0.016": 0.746843190707,
			"-0.015": 0.869073383951,
			"-0.014": 0.719028457732,
			"-0.013": 0.518961123665,
			"-0.012": 0.932484702861,
			"-0.011": 0.560528034378,
			"-0.01": 2.2263907475,
			"-0.009": 4.62314652905,
			"-0.008": 4.91258852665,
			"-0.007": 7.51693101081,
			"-0.006": 12.3951470686,
			"-0.005": 13.6179535295,
			"-0.004": 16.3608940036,
			"-0.003": 14.1739392221,
			"-0.002": 13.7909383842,
			"-0.001": 16.7620603396,
			"0.0": 16.6088098571,
			"0.001": 20.3236188797,
			"0.002": 40.2811254666,
			"0.003": 33.2955188682,
			"0.004": 18.635682848,
			"0.005": 11.4253933618,
			"0.006": 3.61180193912,
			"0.007": 2.96961835399,
			"0.008": 3.47206296084,
			"0.009": 3.37221884608,
			"0.01": 3.9379961699,
			"0.011": 1.60029459552,
			"0.012": 1.08487797782,
			"0.013": 0.766671047519,
			"0.014": 0.213388419033,
			"0.015": 0.0,
			"0.016": 0.0,
			"0.017": 0.0,
			"0.018": 0.0,
			"0.019": 0.0,
			"0.02": 0.0,
			"0.021": 0.0,
			"0.022": 0.0,
			"0.023": 0.0,
			"0.024": 0.0,
			"0.025": 0.0
		}
	}
}
