{
	 "smiles": "CC(=O)CCC1=C(C2=CC=C(C)O2)C2=C(O1)C=CC=C2", 
	 "Tm": 327.15, 
	 "num_atms": 36, 
	 "gaussian": { 
		 "optdone": 1, 
		 "sigma_profile": "yes", 
		 "theory": "DFT", 
		 "functional": "B3LYP", 
		 "basiset": "6-31G**", 
		 "properties": { 
			 "R2extent": 7116.0505, 
			 "electric_dipole_moment_norm": 3.13663037988, 
			 "electric_quadrupole_moment_norm": 17.9898192801, 
			 "total_energy": -883.115174483, 
			 "HOMO_LUMO_gap": 0.16617, 
			 "cosmo_polarized_energy": -11.88, 
			 "cosmo_cavitation_energy": 40.14, 
			 "cosmo_dispersion_energy": -27.77, 
			 "cosmo_repulsion_energy": 2.15, 
			 "cosmo_total_nonelectrostatic_energy": 14.52, 
			 "SMD_solvation_energy": 7.85 
		},
		"coords": [
			{
				"x": -2.7367231673,
				"y": -2.1790893523,
				"z": 1.3219008891,
				"element": "C" 
			},
			{
				"x": -2.6865189866,
				"y": -1.1742861336,
				"z": 0.1887021849,
				"element": "C" 
			},
			{
				"x": -3.596646567,
				"y": -0.3977050284,
				"z": -0.0269549369,
				"element": "O" 
			},
			{
				"x": -1.442603388,
				"y": -1.2092224835,
				"z": -0.7033828717,
				"element": "C" 
			},
			{
				"x": -1.072056028,
				"y": 0.1707890044,
				"z": -1.2829935974,
				"element": "C" 
			},
			{
				"x": -0.2749041401,
				"y": 1.0039246335,
				"z": -0.3369559358,
				"element": "C" 
			},
			{
				"x": 0.9236187072,
				"y": 1.6671387088,
				"z": -0.435091342,
				"element": "C" 
			},
			{
				"x": 1.8190254556,
				"y": 1.7450532441,
				"z": -1.572487176,
				"element": "C" 
			},
			{
				"x": 2.7880408932,
				"y": 2.6433908316,
				"z": -1.9339904755,
				"element": "C" 
			},
			{
				"x": 3.3339246266,
				"y": 2.185324884,
				"z": -3.1752613966,
				"element": "C" 
			},
			{
				"x": 2.6691292605,
				"y": 1.0405024053,
				"z": -3.5009698417,
				"element": "C" 
			},
			{
				"x": 2.7513771934,
				"y": 0.0884371806,
				"z": -4.641234523,
				"element": "C" 
			},
			{
				"x": 1.7434187296,
				"y": 0.7581837688,
				"z": -2.5293432607,
				"element": "O" 
			},
			{
				"x": 1.131486386,
				"y": 2.3090377849,
				"z": 0.8545772457,
				"element": "C" 
			},
			{
				"x": 0.0122753994,
				"y": 1.9670379386,
				"z": 1.6311684943,
				"element": "C" 
			},
			{
				"x": -0.8373134245,
				"y": 1.1718808044,
				"z": 0.911195843,
				"element": "O" 
			},
			{
				"x": -0.1765632784,
				"y": 2.3789856328,
				"z": 2.943777496,
				"element": "C" 
			},
			{
				"x": 0.8276466626,
				"y": 3.1738646483,
				"z": 3.4966551625,
				"element": "C" 
			},
			{
				"x": 1.9691212253,
				"y": 3.5219721564,
				"z": 2.7528217391,
				"element": "C" 
			},
			{
				"x": 2.1356425814,
				"y": 3.0968638501,
				"z": 1.4363090044,
				"element": "C" 
			},
			{
				"x": -1.9871509596,
				"y": -1.9061684991,
				"z": 2.0747753587,
				"element": "H" 
			},
			{
				"x": -3.7267493075,
				"y": -2.1806750335,
				"z": 1.7799510346,
				"element": "H" 
			},
			{
				"x": -2.4824362941,
				"y": -3.1849699899,
				"z": 0.9685627486,
				"element": "H" 
			},
			{
				"x": -1.6885809157,
				"y": -1.892488349,
				"z": -1.5288790201,
				"element": "H" 
			},
			{
				"x": -0.5977455745,
				"y": -1.6611158689,
				"z": -0.17304445,
				"element": "H" 
			},
			{
				"x": -2.010728529,
				"y": 0.6856442914,
				"z": -1.5247911488,
				"element": "H" 
			},
			{
				"x": -0.4980344158,
				"y": 0.0573716896,
				"z": -2.2022493071,
				"element": "H" 
			},
			{
				"x": 3.0560373139,
				"y": 3.5419132987,
				"z": -1.398988222,
				"element": "H" 
			},
			{
				"x": 4.1188441838,
				"y": 2.6512813497,
				"z": -3.7539752181,
				"element": "H" 
			},
			{
				"x": 1.8013200823,
				"y": 0.0274115646,
				"z": -5.1853202268,
				"element": "H" 
			},
			{
				"x": 3.5237459757,
				"y": 0.4155359129,
				"z": -5.3411144917,
				"element": "H" 
			},
			{
				"x": 3.0018884502,
				"y": -0.9243218489,
				"z": -4.3039614054,
				"element": "H" 
			},
			{
				"x": -1.0616856332,
				"y": 2.0923298798,
				"z": 3.5011903224,
				"element": "H" 
			},
			{
				"x": 0.7271856579,
				"y": 3.5252035106,
				"z": 4.5190805374,
				"element": "H" 
			},
			{
				"x": 2.7380749554,
				"y": 4.1328310136,
				"z": 3.2164865389,
				"element": "H" 
			},
			{
				"x": 3.0318368696,
				"y": 3.3577325997,
				"z": 0.8839342479,
				"element": "H" 
			}
		],
		 "valence_orbital": [ 
			{
				"type": "occ",
				"energy": -0.27339,
				"method": "rhf"
			},
			{
				"type": "occ",
				"energy": -0.24443,
				"method": "rhf"
			},
			{
				"type": "occ",
				"energy": -0.24014,
				"method": "rhf"
			},
			{
				"type": "occ",
				"energy": -0.23041,
				"method": "rhf"
			},
			{
				"type": "occ",
				"energy": -0.1915,
				"method": "rhf"
			},
			{
				"type": "unocc",
				"energy": -0.02533,
				"method": "rhf"
			},
			{
				"type": "unocc",
				"energy": -0.00726,
				"method": "rhf"
			},
			{
				"type": "unocc",
				"energy": 0.0048,
				"method": "rhf"
			},
			{
				"type": "unocc",
				"energy": 0.01567,
				"method": "rhf"
			},
			{
				"type": "unocc",
				"energy": 0.05886,
				"method": "rhf"
			}
		],
		"cosmo_sigma_profile": { 
			"-0.025": 0.0,
			"-0.024": 0.0,
			"-0.023": 0.0,
			"-0.022": 0.0,
			"-0.021": 0.0,
			"-0.02": 0.0,
			"-0.019": 0.0,
			"-0.018": 0.0,
			"-0.017": 0.0,
			"-0.016": 0.0,
			"-0.015": 0.0,
			"-0.014": 0.0,
			"-0.013": 0.0,
			"-0.012": 0.0,
			"-0.011": 0.0,
			"-0.01": 0.0,
			"-0.009": 0.0,
			"-0.008": 0.0825063345645,
			"-0.007": 5.05526212151,
			"-0.006": 15.769718028,
			"-0.005": 27.0631910072,
			"-0.004": 30.6476325401,
			"-0.003": 29.1017492065,
			"-0.002": 27.8381827159,
			"-0.001": 28.7513695817,
			"0.0": 21.8632542552,
			"0.001": 19.5967497449,
			"0.002": 21.5036566484,
			"0.003": 25.819282752,
			"0.004": 19.7941432929,
			"0.005": 16.9840669395,
			"0.006": 10.5370935527,
			"0.007": 3.21384189319,
			"0.008": 3.01166584266,
			"0.009": 1.97376811173,
			"0.01": 2.35513108458,
			"0.011": 3.12724074379,
			"0.012": 4.09109077263,
			"0.013": 1.59142269651,
			"0.014": 0.155218792748,
			"0.015": 0.0,
			"0.016": 0.0,
			"0.017": 0.0,
			"0.018": 0.0,
			"0.019": 0.0,
			"0.02": 0.0,
			"0.021": 0.0,
			"0.022": 0.0,
			"0.023": 0.0,
			"0.024": 0.0,
			"0.025": 0.0
		}
	}
}
