{
	 "smiles": "CC(C)(C)C(Br)C(N)=O", 
	 "Tm": 365.15, 
	 "num_atms": 21, 
	 "gaussian": { 
		 "optdone": 1, 
		 "sigma_profile": "yes", 
		 "theory": "DFT", 
		 "functional": "B3LYP", 
		 "basiset": "6-31G**", 
		 "properties": { 
			 "R2extent": 2498.9767, 
			 "electric_dipole_moment_norm": 2.0181319828, 
			 "electric_quadrupole_moment_norm": 13.2445684199, 
			 "total_energy": -2937.28320465, 
			 "HOMO_LUMO_gap": 0.23226, 
			 "cosmo_polarized_energy": -9.65, 
			 "cosmo_cavitation_energy": 24.38, 
			 "cosmo_dispersion_energy": -17.83, 
			 "cosmo_repulsion_energy": 1.44, 
			 "cosmo_total_nonelectrostatic_energy": 8.0, 
			 "SMD_solvation_energy": 4.13 
		},
		"coords": [
			{
				"x": 0.8807311477,
				"y": 1.1862252884,
				"z": 0.391835893,
				"element": "C" 
			},
			{
				"x": 0.2594992363,
				"y": -0.1800251208,
				"z": 0.0111566831,
				"element": "C" 
			},
			{
				"x": 1.3208683225,
				"y": -0.9952407429,
				"z": -0.7539745454,
				"element": "C" 
			},
			{
				"x": -0.9700583889,
				"y": 0.0483845684,
				"z": -0.8862100683,
				"element": "C" 
			},
			{
				"x": -0.1074419901,
				"y": -0.9190416253,
				"z": 1.3333240985,
				"element": "C" 
			},
			{
				"x": -0.8242236236,
				"y": -2.7740986659,
				"z": 0.9949965973,
				"element": "Br" 
			},
			{
				"x": -1.0390241239,
				"y": -0.1431713178,
				"z": 2.2777723465,
				"element": "C" 
			},
			{
				"x": -2.3811479725,
				"y": -0.3209476348,
				"z": 2.1455130268,
				"element": "N" 
			},
			{
				"x": -0.54149626,
				"y": 0.6553297979,
				"z": 3.060257395,
				"element": "O" 
			},
			{
				"x": 0.1704324057,
				"y": 1.8348468873,
				"z": 0.9077804839,
				"element": "H" 
			},
			{
				"x": 1.7498684379,
				"y": 1.0632213589,
				"z": 1.0454066676,
				"element": "H" 
			},
			{
				"x": 1.2114433121,
				"y": 1.6922865192,
				"z": -0.5211227784,
				"element": "H" 
			},
			{
				"x": 1.6420546475,
				"y": -0.4411534969,
				"z": -1.6418964628,
				"element": "H" 
			},
			{
				"x": 0.9320274229,
				"y": -1.962945883,
				"z": -1.0792668395,
				"element": "H" 
			},
			{
				"x": 2.2061582509,
				"y": -1.1743967819,
				"z": -0.1336662072,
				"element": "H" 
			},
			{
				"x": -1.4249249491,
				"y": -0.9001701074,
				"z": -1.1862414864,
				"element": "H" 
			},
			{
				"x": -1.7317974131,
				"y": 0.6500704373,
				"z": -0.3818580993,
				"element": "H" 
			},
			{
				"x": -0.6697654212,
				"y": 0.5793279262,
				"z": -1.7952200098,
				"element": "H" 
			},
			{
				"x": 0.8000834189,
				"y": -1.1110496857,
				"z": 1.9041306817,
				"element": "H" 
			},
			{
				"x": -2.7433618185,
				"y": -1.1258635036,
				"z": 1.6568845224,
				"element": "H" 
			},
			{
				"x": -2.9677246414,
				"y": 0.1419117825,
				"z": 2.8241981013,
				"element": "H" 
			}
		],
		 "valence_orbital": [ 
			{
				"type": "occ",
				"energy": -0.32877,
				"method": "rhf"
			},
			{
				"type": "occ",
				"energy": -0.29525,
				"method": "rhf"
			},
			{
				"type": "occ",
				"energy": -0.28306,
				"method": "rhf"
			},
			{
				"type": "occ",
				"energy": -0.27414,
				"method": "rhf"
			},
			{
				"type": "occ",
				"energy": -0.2544,
				"method": "rhf"
			},
			{
				"type": "unocc",
				"energy": -0.02214,
				"method": "rhf"
			},
			{
				"type": "unocc",
				"energy": 0.02529,
				"method": "rhf"
			},
			{
				"type": "unocc",
				"energy": 0.07267,
				"method": "rhf"
			},
			{
				"type": "unocc",
				"energy": 0.09752,
				"method": "rhf"
			},
			{
				"type": "unocc",
				"energy": 0.12551,
				"method": "rhf"
			}
		],
		"cosmo_sigma_profile": { 
			"-0.025": 0.0,
			"-0.024": 0.0,
			"-0.023": 0.0,
			"-0.022": 0.0,
			"-0.021": 0.0,
			"-0.02": 0.0,
			"-0.019": 0.0,
			"-0.018": 0.0,
			"-0.017": 0.0,
			"-0.016": 0.0,
			"-0.015": 0.104031280823,
			"-0.014": 1.11839634615,
			"-0.013": 1.74701030684,
			"-0.012": 1.65353000567,
			"-0.011": 1.9552617989,
			"-0.01": 2.26307434907,
			"-0.009": 1.85404843923,
			"-0.008": 1.39208100871,
			"-0.007": 3.5146547488,
			"-0.006": 3.43392419158,
			"-0.005": 4.2782646269,
			"-0.004": 8.39785547817,
			"-0.003": 16.5444842195,
			"-0.002": 19.0998722903,
			"-0.001": 20.924361921,
			"0.0": 24.3704222218,
			"0.001": 26.4495298028,
			"0.002": 10.9235219326,
			"0.003": 7.62850413896,
			"0.004": 8.47965223926,
			"0.005": 6.12936969663,
			"0.006": 3.07270538362,
			"0.007": 1.72474814073,
			"0.008": 1.35518639476,
			"0.009": 1.52875211273,
			"0.01": 1.11253461562,
			"0.011": 1.49538672608,
			"0.012": 2.61477314102,
			"0.013": 5.09563379808,
			"0.014": 1.85743625474,
			"0.015": 0.0,
			"0.016": 0.0,
			"0.017": 0.0,
			"0.018": 0.0,
			"0.019": 0.0,
			"0.02": 0.0,
			"0.021": 0.0,
			"0.022": 0.0,
			"0.023": 0.0,
			"0.024": 0.0,
			"0.025": 0.0
		}
	}
}
