{
	 "smiles": "FC(F)(F)C(=O)OC(=O)C(F)(F)F", 
	 "Tm": 209.15, 
	 "num_atms": 13, 
	 "gaussian": { 
		 "optdone": 1, 
		 "sigma_profile": "yes", 
		 "theory": "DFT", 
		 "functional": "B3LYP", 
		 "basiset": "6-31G**", 
		 "properties": { 
			 "R2extent": 3328.1337, 
			 "electric_dipole_moment_norm": 1.31697622606, 
			 "electric_quadrupole_moment_norm": 5.38402994327, 
			 "total_energy": -977.113208797, 
			 "HOMO_LUMO_gap": 0.22945, 
			 "cosmo_polarized_energy": -5.59, 
			 "cosmo_cavitation_energy": 23.16, 
			 "cosmo_dispersion_energy": -15.18, 
			 "cosmo_repulsion_energy": 1.12, 
			 "cosmo_total_nonelectrostatic_energy": 9.11, 
			 "SMD_solvation_energy": 8.81 
		},
		"coords": [
			{
				"x": -2.1543988405,
				"y": 2.0133290921,
				"z": -1.0039396802,
				"element": "F" 
			},
			{
				"x": -1.394717533,
				"y": 1.2298702554,
				"z": -0.2419694721,
				"element": "C" 
			},
			{
				"x": -0.1037549805,
				"y": 1.4316014172,
				"z": -0.5490520979,
				"element": "F" 
			},
			{
				"x": -1.5853213041,
				"y": 1.547547364,
				"z": 1.0472317953,
				"element": "F" 
			},
			{
				"x": -1.7627869541,
				"y": -0.2511849442,
				"z": -0.4843305398,
				"element": "C" 
			},
			{
				"x": -2.6020857432,
				"y": -0.6331619378,
				"z": -1.236870839,
				"element": "O" 
			},
			{
				"x": -0.978812916,
				"y": -1.025891315,
				"z": 0.3491798388,
				"element": "O" 
			},
			{
				"x": -0.8187691001,
				"y": -2.3809813264,
				"z": 0.1308448937,
				"element": "C" 
			},
			{
				"x": -1.0258156763,
				"y": -2.9724671826,
				"z": -0.8810426002,
				"element": "O" 
			},
			{
				"x": -0.2715729837,
				"y": -3.0106565731,
				"z": 1.4315544836,
				"element": "C" 
			},
			{
				"x": -0.0737886725,
				"y": -4.3145936442,
				"z": 1.2522474282,
				"element": "F" 
			},
			{
				"x": 0.8886979713,
				"y": -2.4300545923,
				"z": 1.7721731077,
				"element": "F" 
			},
			{
				"x": -1.1525732672,
				"y": -2.8298566131,
				"z": 2.4278736818,
				"element": "F" 
			}
		],
		 "valence_orbital": [ 
			{
				"type": "occ",
				"energy": -0.43275,
				"method": "rhf"
			},
			{
				"type": "occ",
				"energy": -0.42759,
				"method": "rhf"
			},
			{
				"type": "occ",
				"energy": -0.38169,
				"method": "rhf"
			},
			{
				"type": "occ",
				"energy": -0.3544,
				"method": "rhf"
			},
			{
				"type": "occ",
				"energy": -0.32317,
				"method": "rhf"
			},
			{
				"type": "unocc",
				"energy": -0.09372,
				"method": "rhf"
			},
			{
				"type": "unocc",
				"energy": -0.04403,
				"method": "rhf"
			},
			{
				"type": "unocc",
				"energy": 0.07737,
				"method": "rhf"
			},
			{
				"type": "unocc",
				"energy": 0.12818,
				"method": "rhf"
			},
			{
				"type": "unocc",
				"energy": 0.1391,
				"method": "rhf"
			}
		],
		"cosmo_sigma_profile": { 
			"-0.025": 0.0,
			"-0.024": 0.0,
			"-0.023": 0.0,
			"-0.022": 0.0,
			"-0.021": 0.0,
			"-0.02": 0.0,
			"-0.019": 0.0,
			"-0.018": 0.0,
			"-0.017": 0.0,
			"-0.016": 0.0,
			"-0.015": 0.0,
			"-0.014": 0.0,
			"-0.013": 0.0,
			"-0.012": 0.0,
			"-0.011": 0.011235519259,
			"-0.01": 2.41420981248,
			"-0.009": 5.77147676899,
			"-0.008": 3.93479401158,
			"-0.007": 4.53134444067,
			"-0.006": 3.58147068689,
			"-0.005": 4.01558264635,
			"-0.004": 5.86905884685,
			"-0.003": 7.237953343,
			"-0.002": 8.75632726943,
			"-0.001": 15.4642969252,
			"0.0": 26.5549245218,
			"0.001": 56.5678271742,
			"0.002": 12.4079367675,
			"0.003": 3.92579180908,
			"0.004": 3.98863471837,
			"0.005": 3.84232117092,
			"0.006": 5.66675240102,
			"0.007": 8.8773031685,
			"0.008": 3.69706826349,
			"0.009": 0.508939597442,
			"0.01": 0.0,
			"0.011": 0.0,
			"0.012": 0.0,
			"0.013": 0.0,
			"0.014": 0.0,
			"0.015": 0.0,
			"0.016": 0.0,
			"0.017": 0.0,
			"0.018": 0.0,
			"0.019": 0.0,
			"0.02": 0.0,
			"0.021": 0.0,
			"0.022": 0.0,
			"0.023": 0.0,
			"0.024": 0.0,
			"0.025": 0.0
		}
	}
}
