{
	 "smiles": "CC1(C)O[C@H]2O[C@H]([C@H](O)CO)[C@H](O)[C@H]2O1", 
	 "Tm": 432.65, 
	 "num_atms": 31, 
	 "gaussian": { 
		 "optdone": 1, 
		 "sigma_profile": "yes", 
		 "theory": "DFT", 
		 "functional": "B3LYP", 
		 "basiset": "6-31G**", 
		 "properties": { 
			 "R2extent": 4070.4951, 
			 "electric_dipole_moment_norm": 2.99881563621, 
			 "electric_quadrupole_moment_norm": 15.0163301266, 
			 "total_energy": -803.914826858, 
			 "HOMO_LUMO_gap": 0.29857, 
			 "cosmo_polarized_energy": -14.61, 
			 "cosmo_cavitation_energy": 31.73, 
			 "cosmo_dispersion_energy": -23.07, 
			 "cosmo_repulsion_energy": 1.83, 
			 "cosmo_total_nonelectrostatic_energy": 10.49, 
			 "SMD_solvation_energy": 5.1 
		},
		"coords": [
			{
				"x": 2.4820275057,
				"y": -1.7042297615,
				"z": -3.3885071361,
				"element": "C" 
			},
			{
				"x": 1.234811243,
				"y": -0.9859240433,
				"z": -2.8813673484,
				"element": "C" 
			},
			{
				"x": -0.0261163149,
				"y": -1.3468240295,
				"z": -3.661306681,
				"element": "C" 
			},
			{
				"x": 1.4763034883,
				"y": 0.4269415808,
				"z": -2.9485161583,
				"element": "O" 
			},
			{
				"x": 1.1891697477,
				"y": 1.0097129293,
				"z": -1.7072905517,
				"element": "C" 
			},
			{
				"x": -0.1437698191,
				"y": 1.499984649,
				"z": -1.6111715881,
				"element": "O" 
			},
			{
				"x": -0.8760822284,
				"y": 0.827224017,
				"z": -0.5712273821,
				"element": "C" 
			},
			{
				"x": -1.6568654743,
				"y": 1.897314527,
				"z": 0.2077054851,
				"element": "C" 
			},
			{
				"x": -2.0819005661,
				"y": 1.3941390854,
				"z": 1.4760163114,
				"element": "O" 
			},
			{
				"x": -2.8603051338,
				"y": 2.4201201705,
				"z": -0.5665637169,
				"element": "C" 
			},
			{
				"x": -3.8063819049,
				"y": 1.3470624865,
				"z": -0.5921405161,
				"element": "O" 
			},
			{
				"x": 0.1681974767,
				"y": 0.0841365276,
				"z": 0.2950809765,
				"element": "C" 
			},
			{
				"x": 0.67732337,
				"y": 0.8734315804,
				"z": 1.355726338,
				"element": "O" 
			},
			{
				"x": 1.3006951359,
				"y": -0.142331616,
				"z": -0.6995731612,
				"element": "C" 
			},
			{
				"x": 1.0194799077,
				"y": -1.2885519671,
				"z": -1.4961757823,
				"element": "O" 
			},
			{
				"x": 2.6866135815,
				"y": -1.4242705881,
				"z": -4.4257239432,
				"element": "H" 
			},
			{
				"x": 2.3430188975,
				"y": -2.7875888474,
				"z": -3.3362736602,
				"element": "H" 
			},
			{
				"x": 3.3441684422,
				"y": -1.4286808294,
				"z": -2.7758446706,
				"element": "H" 
			},
			{
				"x": 0.1145134076,
				"y": -1.1348723709,
				"z": -4.724875695,
				"element": "H" 
			},
			{
				"x": -0.8676850662,
				"y": -0.7549458241,
				"z": -3.2955380911,
				"element": "H" 
			},
			{
				"x": -0.2554105533,
				"y": -2.4095540131,
				"z": -3.5413778322,
				"element": "H" 
			},
			{
				"x": 1.8790434483,
				"y": 1.8463761455,
				"z": -1.5710523848,
				"element": "H" 
			},
			{
				"x": -1.5700240472,
				"y": 0.1038286646,
				"z": -1.0191772935,
				"element": "H" 
			},
			{
				"x": -0.9658934436,
				"y": 2.7212863716,
				"z": 0.4060808077,
				"element": "H" 
			},
			{
				"x": -2.8966885457,
				"y": 0.8970936666,
				"z": 1.3015502842,
				"element": "H" 
			},
			{
				"x": -2.5504169848,
				"y": 2.7169963757,
				"z": -1.5772255539,
				"element": "H" 
			},
			{
				"x": -3.275677711,
				"y": 3.295196107,
				"z": -0.0474177273,
				"element": "H" 
			},
			{
				"x": -4.6393686146,
				"y": 1.6722999592,
				"z": -0.952163156,
				"element": "H" 
			},
			{
				"x": -0.2270694074,
				"y": -0.8738737468,
				"z": 0.6552507362,
				"element": "H" 
			},
			{
				"x": -0.0783609991,
				"y": 1.0404757927,
				"z": 1.9409513872,
				"element": "H" 
			},
			{
				"x": 2.2755511624,
				"y": -0.2133729992,
				"z": -0.2036522963,
				"element": "H" 
			}
		],
		 "valence_orbital": [ 
			{
				"type": "occ",
				"energy": -0.2906,
				"method": "rhf"
			},
			{
				"type": "occ",
				"energy": -0.28252,
				"method": "rhf"
			},
			{
				"type": "occ",
				"energy": -0.26357,
				"method": "rhf"
			},
			{
				"type": "occ",
				"energy": -0.25871,
				"method": "rhf"
			},
			{
				"type": "occ",
				"energy": -0.24856,
				"method": "rhf"
			},
			{
				"type": "unocc",
				"energy": 0.05001,
				"method": "rhf"
			},
			{
				"type": "unocc",
				"energy": 0.08049,
				"method": "rhf"
			},
			{
				"type": "unocc",
				"energy": 0.09739,
				"method": "rhf"
			},
			{
				"type": "unocc",
				"energy": 0.10444,
				"method": "rhf"
			},
			{
				"type": "unocc",
				"energy": 0.11575,
				"method": "rhf"
			}
		],
		"cosmo_sigma_profile": { 
			"-0.025": 0.0,
			"-0.024": 0.0,
			"-0.023": 0.0,
			"-0.022": 0.0,
			"-0.021": 0.0,
			"-0.02": 0.0,
			"-0.019": 0.0,
			"-0.018": 0.0,
			"-0.017": 0.157184907958,
			"-0.016": 1.47491988663,
			"-0.015": 0.486158940264,
			"-0.014": 1.29682445928,
			"-0.013": 0.969677534253,
			"-0.012": 1.59262203708,
			"-0.011": 1.07571666643,
			"-0.01": 1.65345510439,
			"-0.009": 1.78878896319,
			"-0.008": 1.41564516425,
			"-0.007": 4.49765922784,
			"-0.006": 6.99080250119,
			"-0.005": 14.7502849774,
			"-0.004": 29.2040106213,
			"-0.003": 24.2093491465,
			"-0.002": 23.1575021298,
			"-0.001": 18.4629307022,
			"0.0": 19.7153012505,
			"0.001": 13.3031366844,
			"0.002": 10.4611066608,
			"0.003": 9.25864215775,
			"0.004": 7.40204240828,
			"0.005": 6.67796674509,
			"0.006": 7.43250826885,
			"0.007": 5.30601458414,
			"0.008": 6.04953157875,
			"0.009": 6.4345713787,
			"0.01": 6.67988974516,
			"0.011": 6.2919608403,
			"0.012": 4.69338829932,
			"0.013": 2.35548572607,
			"0.014": 0.234350971984,
			"0.015": 0.0,
			"0.016": 0.0,
			"0.017": 0.0,
			"0.018": 0.0,
			"0.019": 0.0,
			"0.02": 0.0,
			"0.021": 0.0,
			"0.022": 0.0,
			"0.023": 0.0,
			"0.024": 0.0,
			"0.025": 0.0
		}
	}
}
