{
	 "smiles": "OC(=O)C(NC(=O)C1=CC=CS1)C1=CC=CC=C1", 
	 "Tm": 459.15, 
	 "num_atms": 29, 
	 "gaussian": { 
		 "optdone": 1, 
		 "sigma_profile": "yes", 
		 "theory": "DFT", 
		 "functional": "B3LYP", 
		 "basiset": "6-31G**", 
		 "properties": { 
			 "R2extent": 5677.4296, 
			 "electric_dipole_moment_norm": 7.38922687701, 
			 "electric_quadrupole_moment_norm": 18.1649677288, 
			 "total_energy": -1180.62399021, 
			 "HOMO_LUMO_gap": 0.19347, 
			 "cosmo_polarized_energy": -20.82, 
			 "cosmo_cavitation_energy": 34.95, 
			 "cosmo_dispersion_energy": -24.84, 
			 "cosmo_repulsion_energy": 1.88, 
			 "cosmo_total_nonelectrostatic_energy": 12.0, 
			 "SMD_solvation_energy": 7.5 
		},
		"coords": [
			{
				"x": 2.5317654935,
				"y": -0.0207895576,
				"z": 3.6548254782,
				"element": "O" 
			},
			{
				"x": 1.4401724028,
				"y": 0.7048504296,
				"z": 3.3558876359,
				"element": "C" 
			},
			{
				"x": 0.9446978119,
				"y": 1.4537908987,
				"z": 4.1609637011,
				"element": "O" 
			},
			{
				"x": 0.8824062487,
				"y": 0.5299733491,
				"z": 1.9133988746,
				"element": "C" 
			},
			{
				"x": -0.3523062852,
				"y": 1.2866482929,
				"z": 1.84163712,
				"element": "N" 
			},
			{
				"x": -0.7449471737,
				"y": 2.1740551249,
				"z": 0.8517357958,
				"element": "C" 
			},
			{
				"x": -1.5292767923,
				"y": 3.0789243842,
				"z": 1.1213976697,
				"element": "O" 
			},
			{
				"x": -0.2311702986,
				"y": 2.0184338155,
				"z": -0.5296838441,
				"element": "C" 
			},
			{
				"x": 0.3232804992,
				"y": 0.9610615762,
				"z": -1.2193255648,
				"element": "C" 
			},
			{
				"x": 0.6079664578,
				"y": 1.2705954184,
				"z": -2.578452621,
				"element": "C" 
			},
			{
				"x": 0.2630637247,
				"y": 2.5574178292,
				"z": -2.904486577,
				"element": "C" 
			},
			{
				"x": -0.43156799,
				"y": 3.4053024327,
				"z": -1.5726240644,
				"element": "S" 
			},
			{
				"x": 0.7531576814,
				"y": -0.9583898267,
				"z": 1.5862624749,
				"element": "C" 
			},
			{
				"x": -0.3925613657,
				"y": -1.6761708692,
				"z": 1.9502388836,
				"element": "C" 
			},
			{
				"x": -0.4674786947,
				"y": -3.0479466631,
				"z": 1.7123368293,
				"element": "C" 
			},
			{
				"x": 0.6003718604,
				"y": -3.7218659898,
				"z": 1.1126146598,
				"element": "C" 
			},
			{
				"x": 1.742393048,
				"y": -3.0141202878,
				"z": 0.738876217,
				"element": "C" 
			},
			{
				"x": 1.8160407109,
				"y": -1.6373474672,
				"z": 0.97087495,
				"element": "C" 
			},
			{
				"x": 2.7010464295,
				"y": -0.6755594363,
				"z": 2.9577238487,
				"element": "H" 
			},
			{
				"x": 1.6341877642,
				"y": 0.9655947982,
				"z": 1.2403032963,
				"element": "H" 
			},
			{
				"x": -0.6520833235,
				"y": 1.6281374144,
				"z": 2.7522036455,
				"element": "H" 
			},
			{
				"x": 0.4895064672,
				"y": -0.0162999848,
				"z": -0.785875324,
				"element": "H" 
			},
			{
				"x": 1.0424407077,
				"y": 0.5674759598,
				"z": -3.2798880474,
				"element": "H" 
			},
			{
				"x": 0.3760651914,
				"y": 3.0511825113,
				"z": -3.8603771941,
				"element": "H" 
			},
			{
				"x": -1.2258828135,
				"y": -1.149534292,
				"z": 2.4045375522,
				"element": "H" 
			},
			{
				"x": -1.362343238,
				"y": -3.5938180857,
				"z": 1.9963797932,
				"element": "H" 
			},
			{
				"x": 0.5368695473,
				"y": -4.7901602469,
				"z": 0.9293111103,
				"element": "H" 
			},
			{
				"x": 2.5696101107,
				"y": -3.5250233805,
				"z": 0.2550851336,
				"element": "H" 
			},
			{
				"x": 2.6929758179,
				"y": -1.0832181475,
				"z": 0.6380185669,
				"element": "H" 
			}
		],
		 "valence_orbital": [ 
			{
				"type": "occ",
				"energy": -0.27132,
				"method": "rhf"
			},
			{
				"type": "occ",
				"energy": -0.26699,
				"method": "rhf"
			},
			{
				"type": "occ",
				"energy": -0.26105,
				"method": "rhf"
			},
			{
				"type": "occ",
				"energy": -0.2547,
				"method": "rhf"
			},
			{
				"type": "occ",
				"energy": -0.24272,
				"method": "rhf"
			},
			{
				"type": "unocc",
				"energy": -0.04925,
				"method": "rhf"
			},
			{
				"type": "unocc",
				"energy": -0.03987,
				"method": "rhf"
			},
			{
				"type": "unocc",
				"energy": -0.03283,
				"method": "rhf"
			},
			{
				"type": "unocc",
				"energy": -0.00111,
				"method": "rhf"
			},
			{
				"type": "unocc",
				"energy": 0.02752,
				"method": "rhf"
			}
		],
		"cosmo_sigma_profile": { 
			"-0.025": 0.0,
			"-0.024": 0.0,
			"-0.023": 0.0,
			"-0.022": 0.0,
			"-0.021": 0.0,
			"-0.02": 0.0,
			"-0.019": 0.0,
			"-0.018": 0.0,
			"-0.017": 7.33724753932e-05,
			"-0.016": 0.0726687213246,
			"-0.015": 0.89125533459,
			"-0.014": 1.47760207586,
			"-0.013": 1.88113337549,
			"-0.012": 1.13252675832,
			"-0.011": 1.5232967805,
			"-0.01": 2.42257696753,
			"-0.009": 4.92759841093,
			"-0.008": 6.12159525498,
			"-0.007": 10.5915235197,
			"-0.006": 16.060292203,
			"-0.005": 19.3477569605,
			"-0.004": 20.706082817,
			"-0.003": 15.7665546475,
			"-0.002": 16.1639050172,
			"-0.001": 14.6044609781,
			"0.0": 16.3489938432,
			"0.001": 18.2992383168,
			"0.002": 22.2828938458,
			"0.003": 25.8942530961,
			"0.004": 18.0435863367,
			"0.005": 5.92904615394,
			"0.006": 4.10088396431,
			"0.007": 5.46413891158,
			"0.008": 4.68731250634,
			"0.009": 6.39275411046,
			"0.01": 6.26371919826,
			"0.011": 4.56037713883,
			"0.012": 3.92184716043,
			"0.013": 5.7042776212,
			"0.014": 1.0021550471,
			"0.015": 0.0,
			"0.016": 0.0,
			"0.017": 0.0,
			"0.018": 0.0,
			"0.019": 0.0,
			"0.02": 0.0,
			"0.021": 0.0,
			"0.022": 0.0,
			"0.023": 0.0,
			"0.024": 0.0,
			"0.025": 0.0
		}
	}
}
