{
	 "smiles": "CCCCC1=NC(CO)=C(Cl)N1", 
	 "Tm": 424.15, 
	 "num_atms": 25, 
	 "gaussian": { 
		 "optdone": 1, 
		 "sigma_profile": "yes", 
		 "theory": "DFT", 
		 "functional": "B3LYP", 
		 "basiset": "6-31G**", 
		 "properties": { 
			 "R2extent": 4170.3844, 
			 "electric_dipole_moment_norm": 4.48107505182, 
			 "electric_quadrupole_moment_norm": 9.25771090119, 
			 "total_energy": -957.607021725, 
			 "HOMO_LUMO_gap": 0.23675, 
			 "cosmo_polarized_energy": -12.22, 
			 "cosmo_cavitation_energy": 30.01, 
			 "cosmo_dispersion_energy": -21.41, 
			 "cosmo_repulsion_energy": 1.79, 
			 "cosmo_total_nonelectrostatic_energy": 10.39, 
			 "SMD_solvation_energy": 3.36 
		},
		"coords": [
			{
				"x": -2.9879083641,
				"y": -1.955923292,
				"z": -0.804446505,
				"element": "C" 
			},
			{
				"x": -2.1530076938,
				"y": -0.8237213578,
				"z": -0.1982425283,
				"element": "C" 
			},
			{
				"x": -0.9765488729,
				"y": -0.4097344582,
				"z": -1.0905152773,
				"element": "C" 
			},
			{
				"x": -0.1245025063,
				"y": 0.7328739094,
				"z": -0.5107209187,
				"element": "C" 
			},
			{
				"x": 0.6322233805,
				"y": 0.3390280584,
				"z": 0.7246885194,
				"element": "C" 
			},
			{
				"x": 1.2507478802,
				"y": -0.8082288555,
				"z": 0.930319239,
				"element": "N" 
			},
			{
				"x": 1.8404726334,
				"y": -0.7346654733,
				"z": 2.1765693849,
				"element": "C" 
			},
			{
				"x": 2.6268334683,
				"y": -1.9074945061,
				"z": 2.6876726293,
				"element": "C" 
			},
			{
				"x": 2.0173558185,
				"y": -3.1314556247,
				"z": 2.317871727,
				"element": "O" 
			},
			{
				"x": 1.5688346575,
				"y": 0.4905732967,
				"z": 2.7242108567,
				"element": "C" 
			},
			{
				"x": 1.9932396132,
				"y": 1.2009197702,
				"z": 4.2399444964,
				"element": "Cl" 
			},
			{
				"x": 0.8025911141,
				"y": 1.1727669113,
				"z": 1.7975178072,
				"element": "N" 
			},
			{
				"x": -3.4083942767,
				"y": -1.6657850814,
				"z": -1.7743141862,
				"element": "H" 
			},
			{
				"x": -2.3794905114,
				"y": -2.8532616028,
				"z": -0.9629642758,
				"element": "H" 
			},
			{
				"x": -3.8210273853,
				"y": -2.2313295477,
				"z": -0.1499089437,
				"element": "H" 
			},
			{
				"x": -1.7703057325,
				"y": -1.1361228227,
				"z": 0.7809726367,
				"element": "H" 
			},
			{
				"x": -2.795953372,
				"y": 0.0492465819,
				"z": -0.0166954437,
				"element": "H" 
			},
			{
				"x": -1.3529088728,
				"y": -0.0951493914,
				"z": -2.0722800239,
				"element": "H" 
			},
			{
				"x": -0.3247829241,
				"y": -1.2737738814,
				"z": -1.2628344533,
				"element": "H" 
			},
			{
				"x": 0.5917641501,
				"y": 1.0704502358,
				"z": -1.2720065183,
				"element": "H" 
			},
			{
				"x": -0.7605189401,
				"y": 1.598410225,
				"z": -0.2826580898,
				"element": "H" 
			},
			{
				"x": 3.6594589792,
				"y": -1.8511886497,
				"z": 2.30116758,
				"element": "H" 
			},
			{
				"x": 2.6914987522,
				"y": -1.8771229617,
				"z": 3.7804254782,
				"element": "H" 
			},
			{
				"x": 1.6581550859,
				"y": -2.9843905737,
				"z": 1.4295417175,
				"element": "H" 
			},
			{
				"x": 0.4293739188,
				"y": 2.1031790914,
				"z": 1.9140850915,
				"element": "H" 
			}
		],
		 "valence_orbital": [ 
			{
				"type": "occ",
				"energy": -0.32734,
				"method": "rhf"
			},
			{
				"type": "occ",
				"energy": -0.2863,
				"method": "rhf"
			},
			{
				"type": "occ",
				"energy": -0.28318,
				"method": "rhf"
			},
			{
				"type": "occ",
				"energy": -0.25591,
				"method": "rhf"
			},
			{
				"type": "occ",
				"energy": -0.22155,
				"method": "rhf"
			},
			{
				"type": "unocc",
				"energy": 0.0152,
				"method": "rhf"
			},
			{
				"type": "unocc",
				"energy": 0.02831,
				"method": "rhf"
			},
			{
				"type": "unocc",
				"energy": 0.04957,
				"method": "rhf"
			},
			{
				"type": "unocc",
				"energy": 0.06965,
				"method": "rhf"
			},
			{
				"type": "unocc",
				"energy": 0.09313,
				"method": "rhf"
			}
		],
		"cosmo_sigma_profile": { 
			"-0.025": 0.0,
			"-0.024": 0.0,
			"-0.023": 0.0,
			"-0.022": 0.0,
			"-0.021": 0.0,
			"-0.02": 0.0,
			"-0.019": 0.0,
			"-0.018": 0.0,
			"-0.017": 0.526330981949,
			"-0.016": 1.33289476056,
			"-0.015": 1.6862499901,
			"-0.014": 0.746179571581,
			"-0.013": 1.0325347755,
			"-0.012": 1.32773040544,
			"-0.011": 2.10919904186,
			"-0.01": 1.45453122282,
			"-0.009": 1.36437090254,
			"-0.008": 1.73075019696,
			"-0.007": 1.96389779903,
			"-0.006": 2.8620832691,
			"-0.005": 5.61175930988,
			"-0.004": 9.8423811575,
			"-0.003": 18.1441324284,
			"-0.002": 30.8542083873,
			"-0.001": 28.9460519231,
			"0.0": 25.6701777583,
			"0.001": 28.0399371186,
			"0.002": 18.9856012493,
			"0.003": 14.7271801215,
			"0.004": 10.1667506507,
			"0.005": 4.45371228149,
			"0.006": 4.08866225027,
			"0.007": 2.99258790044,
			"0.008": 2.86528025781,
			"0.009": 1.97639704381,
			"0.01": 1.8542165708,
			"0.011": 2.09131119129,
			"0.012": 2.06460917509,
			"0.013": 2.41254696466,
			"0.014": 2.4579355089,
			"0.015": 0.7418785134,
			"0.016": 0.0,
			"0.017": 0.0,
			"0.018": 0.0,
			"0.019": 0.0,
			"0.02": 0.0,
			"0.021": 0.0,
			"0.022": 0.0,
			"0.023": 0.0,
			"0.024": 0.0,
			"0.025": 0.0
		}
	}
}
