{
	 "smiles": "OC(=O)C1=CC=C(CN2C(=O)CCC2=O)C=C1", 
	 "Tm": 503.15, 
	 "num_atms": 28, 
	 "gaussian": { 
		 "optdone": 1, 
		 "sigma_profile": "yes", 
		 "theory": "DFT", 
		 "functional": "B3LYP", 
		 "basiset": "6-31G**", 
		 "properties": { 
			 "R2extent": 5253.8488, 
			 "electric_dipole_moment_norm": 5.2648022261, 
			 "electric_quadrupole_moment_norm": 23.1880493099, 
			 "total_energy": -819.601442705, 
			 "HOMO_LUMO_gap": 0.20867, 
			 "cosmo_polarized_energy": -22.31, 
			 "cosmo_cavitation_energy": 32.9, 
			 "cosmo_dispersion_energy": -23.45, 
			 "cosmo_repulsion_energy": 1.82, 
			 "cosmo_total_nonelectrostatic_energy": 11.27, 
			 "SMD_solvation_energy": 7.6 
		},
		"coords": [
			{
				"x": 1.5247447748,
				"y": 3.1341525077,
				"z": 3.3566652222,
				"element": "O" 
			},
			{
				"x": 1.2183504924,
				"y": 3.0501541282,
				"z": 2.0335749019,
				"element": "C" 
			},
			{
				"x": 1.1308166305,
				"y": 4.0562781276,
				"z": 1.3698932058,
				"element": "O" 
			},
			{
				"x": 1.0054766637,
				"y": 1.6742737078,
				"z": 1.4762048742,
				"element": "C" 
			},
			{
				"x": 1.111622184,
				"y": 1.5100906703,
				"z": 0.0883419507,
				"element": "C" 
			},
			{
				"x": 0.9255550721,
				"y": 0.2575268658,
				"z": -0.4879203161,
				"element": "C" 
			},
			{
				"x": 0.6132569614,
				"y": -0.8522297187,
				"z": 0.3101293316,
				"element": "C" 
			},
			{
				"x": 0.3925910808,
				"y": -2.2138446438,
				"z": -0.3204305885,
				"element": "C" 
			},
			{
				"x": -1.0003845999,
				"y": -2.433945967,
				"z": -0.7151635562,
				"element": "N" 
			},
			{
				"x": -1.9568591664,
				"y": -2.9716151746,
				"z": 0.1451608387,
				"element": "C" 
			},
			{
				"x": -1.7359513606,
				"y": -3.316187072,
				"z": 1.2883388317,
				"element": "O" 
			},
			{
				"x": -3.2784833894,
				"y": -3.0415447639,
				"z": -0.6143585287,
				"element": "C" 
			},
			{
				"x": -2.9739294987,
				"y": -2.4699979431,
				"z": -2.0092414553,
				"element": "C" 
			},
			{
				"x": -1.4923060862,
				"y": -2.1063709072,
				"z": -1.979185525,
				"element": "C" 
			},
			{
				"x": -0.8255872803,
				"y": -1.6234912883,
				"z": -2.8710283907,
				"element": "O" 
			},
			{
				"x": 0.4777786926,
				"y": -0.6839122008,
				"z": 1.6935058279,
				"element": "C" 
			},
			{
				"x": 0.6744092263,
				"y": 0.5684812402,
				"z": 2.2723827364,
				"element": "C" 
			},
			{
				"x": 1.7182732271,
				"y": 2.2551120974,
				"z": 3.7104126181,
				"element": "H" 
			},
			{
				"x": 1.3440627625,
				"y": 2.3786041263,
				"z": -0.5184043097,
				"element": "H" 
			},
			{
				"x": 1.0074709038,
				"y": 0.1330450828,
				"z": -1.5637358074,
				"element": "H" 
			},
			{
				"x": 0.9942498542,
				"y": -2.320054577,
				"z": -1.2256870195,
				"element": "H" 
			},
			{
				"x": 0.6499746404,
				"y": -3.0095370001,
				"z": 0.3820459695,
				"element": "H" 
			},
			{
				"x": -4.0301065741,
				"y": -2.4700969641,
				"z": -0.0625607788,
				"element": "H" 
			},
			{
				"x": -3.6180060205,
				"y": -4.081024431,
				"z": -0.6328459566,
				"element": "H" 
			},
			{
				"x": -3.144554953,
				"y": -3.1827935629,
				"z": -2.8208909044,
				"element": "H" 
			},
			{
				"x": -3.5493177495,
				"y": -1.5710310748,
				"z": -2.247642418,
				"element": "H" 
			},
			{
				"x": 0.19808682,
				"y": -1.5332505529,
				"z": 2.3094807409,
				"element": "H" 
			},
			{
				"x": 0.5269666922,
				"y": 0.677309288,
				"z": 3.3444585056,
				"element": "H" 
			}
		],
		 "valence_orbital": [ 
			{
				"type": "occ",
				"energy": -0.28804,
				"method": "rhf"
			},
			{
				"type": "occ",
				"energy": -0.27592,
				"method": "rhf"
			},
			{
				"type": "occ",
				"energy": -0.27207,
				"method": "rhf"
			},
			{
				"type": "occ",
				"energy": -0.26942,
				"method": "rhf"
			},
			{
				"type": "occ",
				"energy": -0.26307,
				"method": "rhf"
			},
			{
				"type": "unocc",
				"energy": -0.0544,
				"method": "rhf"
			},
			{
				"type": "unocc",
				"energy": -0.02973,
				"method": "rhf"
			},
			{
				"type": "unocc",
				"energy": -0.0234,
				"method": "rhf"
			},
			{
				"type": "unocc",
				"energy": 0.01309,
				"method": "rhf"
			},
			{
				"type": "unocc",
				"energy": 0.04337,
				"method": "rhf"
			}
		],
		"cosmo_sigma_profile": { 
			"-0.025": 0.0,
			"-0.024": 0.0,
			"-0.023": 0.0,
			"-0.022": 0.0,
			"-0.021": 0.0,
			"-0.02": 0.0,
			"-0.019": 0.154995918447,
			"-0.018": 1.23873817681,
			"-0.017": 1.27316692769,
			"-0.016": 0.953167060696,
			"-0.015": 1.17897818742,
			"-0.014": 0.968189351673,
			"-0.013": 0.898572595976,
			"-0.012": 1.30022994943,
			"-0.011": 0.952668260432,
			"-0.01": 1.13322922133,
			"-0.009": 1.21452328141,
			"-0.008": 2.71147886763,
			"-0.007": 16.5312393337,
			"-0.006": 23.2675440052,
			"-0.005": 19.1084356069,
			"-0.004": 20.8565841379,
			"-0.003": 19.136837169,
			"-0.002": 14.156224759,
			"-0.001": 11.2483155651,
			"0.0": 11.484233784,
			"0.001": 10.9856878575,
			"0.002": 16.3805316845,
			"0.003": 17.0032259928,
			"0.004": 5.64064617936,
			"0.005": 5.69714432384,
			"0.006": 6.16442180756,
			"0.007": 3.99131597627,
			"0.008": 5.62520023774,
			"0.009": 6.52668846424,
			"0.01": 7.93165677647,
			"0.011": 12.1786351407,
			"0.012": 10.6684597394,
			"0.013": 3.67445442989,
			"0.014": 0.0433720952216,
			"0.015": 0.0,
			"0.016": 0.0,
			"0.017": 0.0,
			"0.018": 0.0,
			"0.019": 0.0,
			"0.02": 0.0,
			"0.021": 0.0,
			"0.022": 0.0,
			"0.023": 0.0,
			"0.024": 0.0,
			"0.025": 0.0
		}
	}
}
