{
	 "smiles": "COCCNC(=O)C1CCNCC1", 
	 "Tm": 432.15, 
	 "num_atms": 31, 
	 "gaussian": { 
		 "optdone": 1, 
		 "sigma_profile": "yes", 
		 "theory": "DFT", 
		 "functional": "B3LYP", 
		 "basiset": "6-31G**", 
		 "properties": { 
			 "R2extent": 4087.8513, 
			 "electric_dipole_moment_norm": 4.10572591876, 
			 "electric_quadrupole_moment_norm": 14.5043017085, 
			 "total_energy": -613.753500373, 
			 "HOMO_LUMO_gap": 0.24287, 
			 "cosmo_polarized_energy": -15.59, 
			 "cosmo_cavitation_energy": 31.95, 
			 "cosmo_dispersion_energy": -22.89, 
			 "cosmo_repulsion_energy": 1.85, 
			 "cosmo_total_nonelectrostatic_energy": 10.92, 
			 "SMD_solvation_energy": 2.61 
		},
		"coords": [
			{
				"x": 3.4719908886,
				"y": -2.6546796705,
				"z": 0.1200169574,
				"element": "C" 
			},
			{
				"x": 3.7054399295,
				"y": -1.5805773841,
				"z": -0.7752207232,
				"element": "O" 
			},
			{
				"x": 3.3327178661,
				"y": -0.3074479894,
				"z": -0.2744415825,
				"element": "C" 
			},
			{
				"x": 1.8167464892,
				"y": -0.0797085952,
				"z": -0.2822360711,
				"element": "C" 
			},
			{
				"x": 1.3031157388,
				"y": -0.3621979179,
				"z": -1.6115637125,
				"element": "N" 
			},
			{
				"x": 0.0657350355,
				"y": -0.0982588964,
				"z": -2.1416051491,
				"element": "C" 
			},
			{
				"x": -0.2575342938,
				"y": -0.5615636295,
				"z": -3.2311750326,
				"element": "O" 
			},
			{
				"x": -0.8989701855,
				"y": 0.7658844327,
				"z": -1.327748226,
				"element": "C" 
			},
			{
				"x": -1.7081462938,
				"y": 1.696583966,
				"z": -2.2498268023,
				"element": "C" 
			},
			{
				"x": -2.7966698288,
				"y": 2.4457610782,
				"z": -1.463800025,
				"element": "C" 
			},
			{
				"x": -3.6895482157,
				"y": 1.5775460991,
				"z": -0.6886728166,
				"element": "N" 
			},
			{
				"x": -2.9420675638,
				"y": 0.6739620014,
				"z": 0.1877725951,
				"element": "C" 
			},
			{
				"x": -1.8583281747,
				"y": -0.1507826668,
				"z": -0.529506826,
				"element": "C" 
			},
			{
				"x": 3.9765834172,
				"y": -2.4896474941,
				"z": 1.0839597254,
				"element": "H" 
			},
			{
				"x": 3.8861580467,
				"y": -3.5508099964,
				"z": -0.3471970242,
				"element": "H" 
			},
			{
				"x": 2.4026284917,
				"y": -2.8233468277,
				"z": 0.3101897386,
				"element": "H" 
			},
			{
				"x": 3.811008091,
				"y": 0.4191159932,
				"z": -0.9388164181,
				"element": "H" 
			},
			{
				"x": 3.7204939054,
				"y": -0.1554377768,
				"z": 0.7450107965,
				"element": "H" 
			},
			{
				"x": 1.6322857681,
				"y": 0.9636067461,
				"z": -0.0042513831,
				"element": "H" 
			},
			{
				"x": 1.3351768036,
				"y": -0.7047920868,
				"z": 0.4851657845,
				"element": "H" 
			},
			{
				"x": 1.8400244889,
				"y": -1.0364689997,
				"z": -2.1459888339,
				"element": "H" 
			},
			{
				"x": -0.3442576867,
				"y": 1.383676206,
				"z": -0.6094272145,
				"element": "H" 
			},
			{
				"x": -1.0387096167,
				"y": 2.4113309347,
				"z": -2.7449490879,
				"element": "H" 
			},
			{
				"x": -2.1578442972,
				"y": 1.0883304656,
				"z": -3.0422807078,
				"element": "H" 
			},
			{
				"x": -2.3257848646,
				"y": 3.1463538993,
				"z": -0.7586488928,
				"element": "H" 
			},
			{
				"x": -3.4066554121,
				"y": 3.0514398938,
				"z": -2.1432271142,
				"element": "H" 
			},
			{
				"x": -4.2496877117,
				"y": 1.0223240642,
				"z": -1.3334547609,
				"element": "H" 
			},
			{
				"x": -2.4729552779,
				"y": 1.2853107725,
				"z": 0.9724738847,
				"element": "H" 
			},
			{
				"x": -3.6523347613,
				"y": 0.0086541255,
				"z": 0.691832168,
				"element": "H" 
			},
			{
				"x": -2.3293279745,
				"y": -0.8505891028,
				"z": -1.2320117003,
				"element": "H" 
			},
			{
				"x": -1.3008828015,
				"y": -0.7557716441,
				"z": 0.1980284545,
				"element": "H" 
			}
		],
		 "valence_orbital": [ 
			{
				"type": "occ",
				"energy": -0.31056,
				"method": "rhf"
			},
			{
				"type": "occ",
				"energy": -0.27543,
				"method": "rhf"
			},
			{
				"type": "occ",
				"energy": -0.24496,
				"method": "rhf"
			},
			{
				"type": "occ",
				"energy": -0.23737,
				"method": "rhf"
			},
			{
				"type": "occ",
				"energy": -0.21255,
				"method": "rhf"
			},
			{
				"type": "unocc",
				"energy": 0.03032,
				"method": "rhf"
			},
			{
				"type": "unocc",
				"energy": 0.06533,
				"method": "rhf"
			},
			{
				"type": "unocc",
				"energy": 0.08723,
				"method": "rhf"
			},
			{
				"type": "unocc",
				"energy": 0.09552,
				"method": "rhf"
			},
			{
				"type": "unocc",
				"energy": 0.10323,
				"method": "rhf"
			}
		],
		"cosmo_sigma_profile": { 
			"-0.025": 0.0,
			"-0.024": 0.0,
			"-0.023": 0.0,
			"-0.022": 0.0,
			"-0.021": 0.0,
			"-0.02": 0.0,
			"-0.019": 0.0,
			"-0.018": 0.0,
			"-0.017": 0.0,
			"-0.016": 0.0,
			"-0.015": 0.0,
			"-0.014": 0.0,
			"-0.013": 0.0,
			"-0.012": 0.0,
			"-0.011": 0.0,
			"-0.01": 0.0787935905972,
			"-0.009": 1.51336165168,
			"-0.008": 1.81155212029,
			"-0.007": 2.79839331755,
			"-0.006": 5.94144436764,
			"-0.005": 17.2557509225,
			"-0.004": 30.7550326216,
			"-0.003": 38.8822179412,
			"-0.002": 37.5390058521,
			"-0.001": 24.0618401807,
			"0.0": 17.2908975346,
			"0.001": 10.1370257217,
			"0.002": 5.69091448732,
			"0.003": 5.21251572347,
			"0.004": 4.42348888619,
			"0.005": 4.79539909789,
			"0.006": 3.92771156025,
			"0.007": 3.90578625172,
			"0.008": 3.00883760118,
			"0.009": 3.37858690028,
			"0.01": 2.3302491326,
			"0.011": 3.8134663775,
			"0.012": 2.76878855531,
			"0.013": 3.41609760734,
			"0.014": 5.03258858133,
			"0.015": 4.91084067469,
			"0.016": 0.711248782537,
			"0.017": 0.541964948483,
			"0.018": 0.44709709778,
			"0.019": 0.401871538059,
			"0.02": 0.0,
			"0.021": 0.0,
			"0.022": 0.0,
			"0.023": 0.0,
			"0.024": 0.0,
			"0.025": 0.0
		}
	}
}
