{
	 "smiles": "CC(Cl)C1=NN=C(O1)C1=CC=C(C)C=C1", 
	 "Tm": 290.15, 
	 "num_atms": 26, 
	 "gaussian": { 
		 "optdone": 1, 
		 "sigma_profile": "yes", 
		 "theory": "DFT", 
		 "functional": "B3LYP", 
		 "basiset": "6-31G**", 
		 "properties": { 
			 "R2extent": 5406.1367, 
			 "electric_dipole_moment_norm": 4.09241994302, 
			 "electric_quadrupole_moment_norm": 19.8805368016, 
			 "total_energy": -1070.71149104, 
			 "HOMO_LUMO_gap": 0.18167, 
			 "cosmo_polarized_energy": -11.21, 
			 "cosmo_cavitation_energy": 32.52, 
			 "cosmo_dispersion_energy": -23.38, 
			 "cosmo_repulsion_energy": 1.85, 
			 "cosmo_total_nonelectrostatic_energy": 10.99, 
			 "SMD_solvation_energy": 3.55 
		},
		"coords": [
			{
				"x": -0.0096064082,
				"y": 2.3962238527,
				"z": 3.0808598586,
				"element": "C" 
			},
			{
				"x": 1.1057508571,
				"y": 2.853523031,
				"z": 2.1462024103,
				"element": "C" 
			},
			{
				"x": 0.5166918265,
				"y": 4.2761855571,
				"z": 1.1361742291,
				"element": "Cl" 
			},
			{
				"x": 1.6139124241,
				"y": 1.7845961042,
				"z": 1.2499763447,
				"element": "C" 
			},
			{
				"x": 2.8428806716,
				"y": 1.4019704983,
				"z": 1.0975705167,
				"element": "N" 
			},
			{
				"x": 2.8191757033,
				"y": 0.3600429909,
				"z": 0.1771566635,
				"element": "N" 
			},
			{
				"x": 1.5721740642,
				"y": 0.1903337104,
				"z": -0.1628501894,
				"element": "C" 
			},
			{
				"x": 0.7443954564,
				"y": 1.0633733527,
				"z": 0.4885839815,
				"element": "O" 
			},
			{
				"x": 1.0082012937,
				"y": -0.7701062198,
				"z": -1.1009728535,
				"element": "C" 
			},
			{
				"x": -0.3662081764,
				"y": -0.8024658831,
				"z": -1.3750857306,
				"element": "C" 
			},
			{
				"x": -0.8741381121,
				"y": -1.7314463993,
				"z": -2.2799990006,
				"element": "C" 
			},
			{
				"x": -0.0357104958,
				"y": -2.6463712842,
				"z": -2.9299444353,
				"element": "C" 
			},
			{
				"x": -0.5911092762,
				"y": -3.6678403248,
				"z": -3.8923182713,
				"element": "C" 
			},
			{
				"x": 1.3397218023,
				"y": -2.6003298977,
				"z": -2.648635469,
				"element": "C" 
			},
			{
				"x": 1.8611001981,
				"y": -1.6799617549,
				"z": -1.7486230455,
				"element": "C" 
			},
			{
				"x": -0.868395533,
				"y": 2.0314965665,
				"z": 2.5131502054,
				"element": "H" 
			},
			{
				"x": 0.3601827609,
				"y": 1.5861141441,
				"z": 3.7186373381,
				"element": "H" 
			},
			{
				"x": -0.332173623,
				"y": 3.2231207025,
				"z": 3.7166192057,
				"element": "H" 
			},
			{
				"x": 1.9642771548,
				"y": 3.2350559276,
				"z": 2.6988008574,
				"element": "H" 
			},
			{
				"x": -1.0311131086,
				"y": -0.0988677601,
				"z": -0.885370181,
				"element": "H" 
			},
			{
				"x": -1.9409100639,
				"y": -1.7443139016,
				"z": -2.4870100252,
				"element": "H" 
			},
			{
				"x": -0.6394843319,
				"y": -4.6606854309,
				"z": -3.4280857126,
				"element": "H" 
			},
			{
				"x": 0.038170647,
				"y": -3.7601667029,
				"z": -4.7834208264,
				"element": "H" 
			},
			{
				"x": -1.6022082115,
				"y": -3.4061145624,
				"z": -4.2158080845,
				"element": "H" 
			},
			{
				"x": 2.0098265503,
				"y": -3.29699999,
				"z": -3.1458242447,
				"element": "H" 
			},
			{
				"x": 2.9245959303,
				"y": -1.6482663262,
				"z": -1.5370835416,
				"element": "H" 
			}
		],
		 "valence_orbital": [ 
			{
				"type": "occ",
				"energy": -0.30431,
				"method": "rhf"
			},
			{
				"type": "occ",
				"energy": -0.29783,
				"method": "rhf"
			},
			{
				"type": "occ",
				"energy": -0.28054,
				"method": "rhf"
			},
			{
				"type": "occ",
				"energy": -0.26422,
				"method": "rhf"
			},
			{
				"type": "occ",
				"energy": -0.23817,
				"method": "rhf"
			},
			{
				"type": "unocc",
				"energy": -0.0565,
				"method": "rhf"
			},
			{
				"type": "unocc",
				"energy": -0.02018,
				"method": "rhf"
			},
			{
				"type": "unocc",
				"energy": -0.01307,
				"method": "rhf"
			},
			{
				"type": "unocc",
				"energy": 0.04287,
				"method": "rhf"
			},
			{
				"type": "unocc",
				"energy": 0.05744,
				"method": "rhf"
			}
		],
		"cosmo_sigma_profile": { 
			"-0.025": 0.0,
			"-0.024": 0.0,
			"-0.023": 0.0,
			"-0.022": 0.0,
			"-0.021": 0.0,
			"-0.02": 0.0,
			"-0.019": 0.0,
			"-0.018": 0.0,
			"-0.017": 0.0,
			"-0.016": 0.0,
			"-0.015": 0.0,
			"-0.014": 0.0,
			"-0.013": 0.0,
			"-0.012": 0.0,
			"-0.011": 0.0,
			"-0.01": 0.171084010868,
			"-0.009": 1.77362397745,
			"-0.008": 1.64554622562,
			"-0.007": 3.6915957869,
			"-0.006": 12.7295721362,
			"-0.005": 20.7508348573,
			"-0.004": 23.8662241159,
			"-0.003": 20.430081728,
			"-0.002": 25.4740387901,
			"-0.001": 24.3521998432,
			"0.0": 21.7618175773,
			"0.001": 18.1175155435,
			"0.002": 15.2830313446,
			"0.003": 17.5326479246,
			"0.004": 17.3108419767,
			"0.005": 11.1535898124,
			"0.006": 6.48074365905,
			"0.007": 2.09030232349,
			"0.008": 2.08998165991,
			"0.009": 2.0513471631,
			"0.01": 2.72939097521,
			"0.011": 3.31941954274,
			"0.012": 2.7471319151,
			"0.013": 2.08824616446,
			"0.014": 1.7919748606,
			"0.015": 0.223644555647,
			"0.016": 0.0,
			"0.017": 0.0,
			"0.018": 0.0,
			"0.019": 0.0,
			"0.02": 0.0,
			"0.021": 0.0,
			"0.022": 0.0,
			"0.023": 0.0,
			"0.024": 0.0,
			"0.025": 0.0
		}
	}
}
