{
	 "smiles": "CC1=CC=C(NN=C2C(=O)NC(=S)NC2=O)C=C1", 
	 "Tm": 578.15, 
	 "num_atms": 28, 
	 "gaussian": { 
		 "optdone": 1, 
		 "sigma_profile": "yes", 
		 "theory": "DFT", 
		 "functional": "B3LYP", 
		 "basiset": "6-31G**", 
		 "properties": { 
			 "R2extent": 9225.9436, 
			 "electric_dipole_moment_norm": 5.76342426774, 
			 "electric_quadrupole_moment_norm": 14.2273304994, 
			 "total_energy": -1192.86427173, 
			 "HOMO_LUMO_gap": 0.12473, 
			 "cosmo_polarized_energy": -18.74, 
			 "cosmo_cavitation_energy": 35.6, 
			 "cosmo_dispersion_energy": -26.55, 
			 "cosmo_repulsion_energy": 1.99, 
			 "cosmo_total_nonelectrostatic_energy": 11.04, 
			 "SMD_solvation_energy": 5.84 
		},
		"coords": [
			{
				"x": 0.5221891765,
				"y": -4.5657223254,
				"z": -2.1128763056,
				"element": "C" 
			},
			{
				"x": 0.2938500763,
				"y": -3.1906832162,
				"z": -1.5335409208,
				"element": "C" 
			},
			{
				"x": 0.8712815872,
				"y": -2.0562029104,
				"z": -2.1300499114,
				"element": "C" 
			},
			{
				"x": 0.6689309286,
				"y": -0.7793347518,
				"z": -1.6222746227,
				"element": "C" 
			},
			{
				"x": -0.132241913,
				"y": -0.6181288505,
				"z": -0.4837833419,
				"element": "C" 
			},
			{
				"x": -0.3732350524,
				"y": 0.6504989599,
				"z": 0.0783270385,
				"element": "N" 
			},
			{
				"x": 0.136712192,
				"y": 1.7244659756,
				"z": -0.4374918845,
				"element": "N" 
			},
			{
				"x": -0.099772299,
				"y": 2.9094954527,
				"z": 0.1043058244,
				"element": "C" 
			},
			{
				"x": 0.5319117981,
				"y": 4.0609573265,
				"z": -0.5666829488,
				"element": "C" 
			},
			{
				"x": 1.2381630684,
				"y": 4.0245383062,
				"z": -1.5556356234,
				"element": "O" 
			},
			{
				"x": 0.2501277735,
				"y": 5.300624272,
				"z": 0.0486992931,
				"element": "N" 
			},
			{
				"x": -0.5147931246,
				"y": 5.5454891494,
				"z": 1.1562976781,
				"element": "C" 
			},
			{
				"x": -0.7665752734,
				"y": 7.0657921088,
				"z": 1.7792780915,
				"element": "S" 
			},
			{
				"x": -1.068941668,
				"y": 4.4181731807,
				"z": 1.7238415665,
				"element": "N" 
			},
			{
				"x": -0.9274129815,
				"y": 3.1047550156,
				"z": 1.2899719452,
				"element": "C" 
			},
			{
				"x": -1.4902116766,
				"y": 2.1911274177,
				"z": 1.9075630884,
				"element": "O" 
			},
			{
				"x": -0.7177281534,
				"y": -1.72935327,
				"z": 0.1302307209,
				"element": "C" 
			},
			{
				"x": -0.5006982166,
				"y": -3.0010061621,
				"z": -0.3969546213,
				"element": "C" 
			},
			{
				"x": 1.590842363,
				"y": -4.7757349027,
				"z": -2.232159688,
				"element": "H" 
			},
			{
				"x": 0.0641500521,
				"y": -4.6599144833,
				"z": -3.104696316,
				"element": "H" 
			},
			{
				"x": 0.0959197158,
				"y": -5.3446078774,
				"z": -1.4751163356,
				"element": "H" 
			},
			{
				"x": 1.494319918,
				"y": -2.1779080108,
				"z": -3.012476846,
				"element": "H" 
			},
			{
				"x": 1.1173830562,
				"y": 0.0913749395,
				"z": -2.0860911221,
				"element": "H" 
			},
			{
				"x": -0.9629627355,
				"y": 0.752412418,
				"z": 0.9160611213,
				"element": "H" 
			},
			{
				"x": 0.6723841082,
				"y": 6.1082474168,
				"z": -0.3935661165,
				"element": "H" 
			},
			{
				"x": -1.6422891584,
				"y": 4.5616933997,
				"z": 2.5467334324,
				"element": "H" 
			},
			{
				"x": -1.3370364653,
				"y": -1.6006114411,
				"z": 1.0140589609,
				"element": "H" 
			},
			{
				"x": -0.958467096,
				"y": -3.8594371374,
				"z": 0.0867278436,
				"element": "H" 
			}
		],
		 "valence_orbital": [ 
			{
				"type": "occ",
				"energy": -0.28119,
				"method": "rhf"
			},
			{
				"type": "occ",
				"energy": -0.27088,
				"method": "rhf"
			},
			{
				"type": "occ",
				"energy": -0.25065,
				"method": "rhf"
			},
			{
				"type": "occ",
				"energy": -0.23278,
				"method": "rhf"
			},
			{
				"type": "occ",
				"energy": -0.22873,
				"method": "rhf"
			},
			{
				"type": "unocc",
				"energy": -0.104,
				"method": "rhf"
			},
			{
				"type": "unocc",
				"energy": -0.03311,
				"method": "rhf"
			},
			{
				"type": "unocc",
				"energy": -0.02152,
				"method": "rhf"
			},
			{
				"type": "unocc",
				"energy": -0.01287,
				"method": "rhf"
			},
			{
				"type": "unocc",
				"energy": 0.00456,
				"method": "rhf"
			}
		],
		"cosmo_sigma_profile": { 
			"-0.025": 0.0,
			"-0.024": 0.0,
			"-0.023": 0.0,
			"-0.022": 0.0,
			"-0.021": 0.0,
			"-0.02": 0.0,
			"-0.019": 0.0,
			"-0.018": 0.0,
			"-0.017": 0.0849936439672,
			"-0.016": 1.57593406653,
			"-0.015": 1.29813259212,
			"-0.014": 1.71218691001,
			"-0.013": 1.16161643221,
			"-0.012": 2.43641595191,
			"-0.011": 2.84366890275,
			"-0.01": 2.86359029421,
			"-0.009": 3.90421648248,
			"-0.008": 5.25003934377,
			"-0.007": 5.44256539013,
			"-0.006": 12.5455510797,
			"-0.005": 19.8348163734,
			"-0.004": 23.6533876828,
			"-0.003": 21.33236235,
			"-0.002": 20.474759647,
			"-0.001": 19.7531529663,
			"0.0": 19.5972801918,
			"0.001": 14.8032989923,
			"0.002": 14.287351396,
			"0.003": 14.8778355606,
			"0.004": 16.6708191279,
			"0.005": 7.31875670119,
			"0.006": 7.80220120137,
			"0.007": 9.76528138826,
			"0.008": 8.91635868713,
			"0.009": 7.64294464153,
			"0.01": 6.27099991833,
			"0.011": 5.76203230466,
			"0.012": 5.76784867418,
			"0.013": 2.22524224548,
			"0.014": 0.500616224996,
			"0.015": 0.0,
			"0.016": 0.0,
			"0.017": 0.0,
			"0.018": 0.0,
			"0.019": 0.0,
			"0.02": 0.0,
			"0.021": 0.0,
			"0.022": 0.0,
			"0.023": 0.0,
			"0.024": 0.0,
			"0.025": 0.0
		}
	}
}
