{
	 "smiles": "CC1=CC=CC(OCC(O)=O)=C1", 
	 "Tm": 376.65, 
	 "num_atms": 22, 
	 "gaussian": { 
		 "optdone": 1, 
		 "sigma_profile": "yes", 
		 "theory": "DFT", 
		 "functional": "B3LYP", 
		 "basiset": "6-31G**", 
		 "properties": { 
			 "R2extent": 2819.7123, 
			 "electric_dipole_moment_norm": 0.977743606474, 
			 "electric_quadrupole_moment_norm": 6.35318586144, 
			 "total_energy": -574.659672434, 
			 "HOMO_LUMO_gap": 0.213, 
			 "cosmo_polarized_energy": -11.56, 
			 "cosmo_cavitation_energy": 26.28, 
			 "cosmo_dispersion_energy": -19.06, 
			 "cosmo_repulsion_energy": 1.55, 
			 "cosmo_total_nonelectrostatic_energy": 8.77, 
			 "SMD_solvation_energy": 6.08 
		},
		"coords": [
			{
				"x": -1.6906817434,
				"y": 0.947790893,
				"z": 3.0583787918,
				"element": "C" 
			},
			{
				"x": -0.5825519409,
				"y": 0.6221183712,
				"z": 2.0840762985,
				"element": "C" 
			},
			{
				"x": 0.2729699243,
				"y": 1.6330075182,
				"z": 1.6121568056,
				"element": "C" 
			},
			{
				"x": 1.2873348743,
				"y": 1.3282936127,
				"z": 0.7119356092,
				"element": "C" 
			},
			{
				"x": 1.4831044729,
				"y": 0.0187990098,
				"z": 0.2573547096,
				"element": "C" 
			},
			{
				"x": 0.6358759915,
				"y": -0.9871943292,
				"z": 0.7274024103,
				"element": "C" 
			},
			{
				"x": 0.7220916157,
				"y": -2.312599989,
				"z": 0.3718303006,
				"element": "O" 
			},
			{
				"x": 1.7611382685,
				"y": -2.7078514799,
				"z": -0.4930814964,
				"element": "C" 
			},
			{
				"x": 1.5933724805,
				"y": -2.2986166737,
				"z": -1.9545877397,
				"element": "C" 
			},
			{
				"x": 0.3079264379,
				"y": -2.1040425114,
				"z": -2.3001690744,
				"element": "O" 
			},
			{
				"x": 2.5224791373,
				"y": -2.2085033286,
				"z": -2.7260799311,
				"element": "O" 
			},
			{
				"x": -0.3886551565,
				"y": -0.6824894781,
				"z": 1.6338606212,
				"element": "C" 
			},
			{
				"x": -2.4103088998,
				"y": 1.6489208401,
				"z": 2.6198204922,
				"element": "H" 
			},
			{
				"x": -1.2959131821,
				"y": 1.4193023815,
				"z": 3.9655362535,
				"element": "H" 
			},
			{
				"x": -2.2386327186,
				"y": 0.0504487392,
				"z": 3.3577059467,
				"element": "H" 
			},
			{
				"x": 0.13776275,
				"y": 2.6561072247,
				"z": 1.9527502311,
				"element": "H" 
			},
			{
				"x": 1.9433710889,
				"y": 2.1146631718,
				"z": 0.3491634563,
				"element": "H" 
			},
			{
				"x": 2.2788427692,
				"y": -0.187816536,
				"z": -0.4490258954,
				"element": "H" 
			},
			{
				"x": 1.7708640266,
				"y": -3.802761038,
				"z": -0.4651428443,
				"element": "H" 
			},
			{
				"x": 2.7444381717,
				"y": -2.3557135924,
				"z": -0.1618768661,
				"element": "H" 
			},
			{
				"x": 0.3133783861,
				"y": -1.8646361069,
				"z": -3.2426341832,
				"element": "H" 
			},
			{
				"x": -1.0267067541,
				"y": -1.491826699,
				"z": 1.975626104,
				"element": "H" 
			}
		],
		 "valence_orbital": [ 
			{
				"type": "occ",
				"energy": -0.32657,
				"method": "rhf"
			},
			{
				"type": "occ",
				"energy": -0.32208,
				"method": "rhf"
			},
			{
				"type": "occ",
				"energy": -0.28153,
				"method": "rhf"
			},
			{
				"type": "occ",
				"energy": -0.24274,
				"method": "rhf"
			},
			{
				"type": "occ",
				"energy": -0.22012,
				"method": "rhf"
			},
			{
				"type": "unocc",
				"energy": -0.00712,
				"method": "rhf"
			},
			{
				"type": "unocc",
				"energy": 0.00727,
				"method": "rhf"
			},
			{
				"type": "unocc",
				"energy": 0.01046,
				"method": "rhf"
			},
			{
				"type": "unocc",
				"energy": 0.06904,
				"method": "rhf"
			},
			{
				"type": "unocc",
				"energy": 0.09244,
				"method": "rhf"
			}
		],
		"cosmo_sigma_profile": { 
			"-0.025": 0.0,
			"-0.024": 0.0,
			"-0.023": 0.0,
			"-0.022": 0.0,
			"-0.021": 0.0,
			"-0.02": 0.0,
			"-0.019": 0.536416002595,
			"-0.018": 0.833899772409,
			"-0.017": 1.08643305006,
			"-0.016": 0.758422681311,
			"-0.015": 0.397389782312,
			"-0.014": 0.831627963968,
			"-0.013": 0.684063325451,
			"-0.012": 0.513965486562,
			"-0.011": 1.07646219349,
			"-0.01": 0.998727661637,
			"-0.009": 3.08045087312,
			"-0.008": 3.10147983987,
			"-0.007": 5.74241752246,
			"-0.006": 7.18710385903,
			"-0.005": 13.0546939706,
			"-0.004": 17.5652813922,
			"-0.003": 16.3428392583,
			"-0.002": 15.9329349077,
			"-0.001": 12.906016456,
			"0.0": 14.8374163042,
			"0.001": 11.5545516252,
			"0.002": 9.29686399158,
			"0.003": 9.01518118801,
			"0.004": 12.3450782397,
			"0.005": 13.1495818535,
			"0.006": 10.0798306811,
			"0.007": 3.81261691517,
			"0.008": 4.17988510324,
			"0.009": 5.00274085351,
			"0.01": 4.28150824659,
			"0.011": 5.21264278479,
			"0.012": 2.7568905951,
			"0.013": 0.128312097343,
			"0.014": 0.0,
			"0.015": 0.0,
			"0.016": 0.0,
			"0.017": 0.0,
			"0.018": 0.0,
			"0.019": 0.0,
			"0.02": 0.0,
			"0.021": 0.0,
			"0.022": 0.0,
			"0.023": 0.0,
			"0.024": 0.0,
			"0.025": 0.0
		}
	}
}
