{
	 "smiles": "COC1=CC=C2C3CCC4(C)C(CCC4(O)C#C)C3CCC2=C1", 
	 "Tm": 423.15, 
	 "num_atms": 49, 
	 "gaussian": { 
		 "optdone": 1, 
		 "sigma_profile": "yes", 
		 "theory": "DFT", 
		 "functional": "B3LYP", 
		 "basiset": "6-31G**", 
		 "properties": { 
			 "R2extent": 9240.0139, 
			 "electric_dipole_moment_norm": 1.76229179763, 
			 "electric_quadrupole_moment_norm": 11.3455284408, 
			 "total_energy": -966.280702526, 
			 "HOMO_LUMO_gap": 0.20882, 
			 "cosmo_polarized_energy": -10.81, 
			 "cosmo_cavitation_energy": 45.77, 
			 "cosmo_dispersion_energy": -32.05, 
			 "cosmo_repulsion_energy": 2.37, 
			 "cosmo_total_nonelectrostatic_energy": 16.09, 
			 "SMD_solvation_energy": 8.52 
		},
		"coords": [
			{
				"x": -5.2477887863,
				"y": 2.912552532,
				"z": -2.1259577067,
				"element": "C" 
			},
			{
				"x": -3.8719762557,
				"y": 3.2461393401,
				"z": -2.0791953015,
				"element": "O" 
			},
			{
				"x": -3.0064880293,
				"y": 2.3299750584,
				"z": -1.5441634736,
				"element": "C" 
			},
			{
				"x": -3.3782926324,
				"y": 1.0799012408,
				"z": -1.0388987893,
				"element": "C" 
			},
			{
				"x": -2.392728024,
				"y": 0.2385496946,
				"z": -0.5206612924,
				"element": "C" 
			},
			{
				"x": -1.0394875704,
				"y": 0.5962082237,
				"z": -0.4810404714,
				"element": "C" 
			},
			{
				"x": -0.009665422,
				"y": -0.3863864073,
				"z": 0.0739862927,
				"element": "C" 
			},
			{
				"x": -0.4756148501,
				"y": -1.0645242714,
				"z": 1.3921897015,
				"element": "C" 
			},
			{
				"x": 0.6802542248,
				"y": -1.5031673099,
				"z": 2.321805724,
				"element": "C" 
			},
			{
				"x": 2.0371897478,
				"y": -1.8628383433,
				"z": 1.6709555285,
				"element": "C" 
			},
			{
				"x": 3.1092676026,
				"y": -1.835561163,
				"z": 2.7808189363,
				"element": "C" 
			},
			{
				"x": 2.4497932145,
				"y": -0.8569291145,
				"z": 0.5246657725,
				"element": "C" 
			},
			{
				"x": 2.8307376575,
				"y": -1.7260427674,
				"z": -0.7053958849,
				"element": "C" 
			},
			{
				"x": 3.1238315868,
				"y": -3.1165898429,
				"z": -0.1284214291,
				"element": "C" 
			},
			{
				"x": 2.0430510426,
				"y": -3.2713002968,
				"z": 0.9654201863,
				"element": "C" 
			},
			{
				"x": 0.7595630386,
				"y": -3.4444908581,
				"z": 0.3387395674,
				"element": "O" 
			},
			{
				"x": 2.2876496959,
				"y": -4.4114418629,
				"z": 1.8609325818,
				"element": "C" 
			},
			{
				"x": 2.4672604053,
				"y": -5.3883604344,
				"z": 2.5497191225,
				"element": "C" 
			},
			{
				"x": 1.3882911464,
				"y": 0.2343083632,
				"z": 0.2595041663,
				"element": "C" 
			},
			{
				"x": 1.7530464778,
				"y": 1.1492088839,
				"z": -0.9160164014,
				"element": "C" 
			},
			{
				"x": 0.7680998934,
				"y": 2.31822598,
				"z": -1.0011806428,
				"element": "C" 
			},
			{
				"x": -0.6772949274,
				"y": 1.856143782,
				"z": -1.0034101066,
				"element": "C" 
			},
			{
				"x": -1.6590725789,
				"y": 2.7013426138,
				"z": -1.5239459242,
				"element": "C" 
			},
			{
				"x": -5.4309526751,
				"y": 2.0215054092,
				"z": -2.7412882507,
				"element": "H" 
			},
			{
				"x": -5.6603961826,
				"y": 2.7414412157,
				"z": -1.1226951961,
				"element": "H" 
			},
			{
				"x": -5.7524228653,
				"y": 3.768277992,
				"z": -2.5782124822,
				"element": "H" 
			},
			{
				"x": -4.4114711173,
				"y": 0.7528506025,
				"z": -1.0451057973,
				"element": "H" 
			},
			{
				"x": -2.6958390873,
				"y": -0.7317264986,
				"z": -0.1371245925,
				"element": "H" 
			},
			{
				"x": 0.0959016833,
				"y": -1.1893434709,
				"z": -0.6674597125,
				"element": "H" 
			},
			{
				"x": -1.0958050588,
				"y": -1.9294353701,
				"z": 1.149298306,
				"element": "H" 
			},
			{
				"x": -1.1087607415,
				"y": -0.3637762191,
				"z": 1.9494720256,
				"element": "H" 
			},
			{
				"x": 0.3535100599,
				"y": -2.3447856562,
				"z": 2.9434488746,
				"element": "H" 
			},
			{
				"x": 0.8865675802,
				"y": -0.6836993994,
				"z": 3.0213461412,
				"element": "H" 
			},
			{
				"x": 2.8408930043,
				"y": -2.4896997786,
				"z": 3.6152947208,
				"element": "H" 
			},
			{
				"x": 3.2104935582,
				"y": -0.8154554759,
				"z": 3.1660107711,
				"element": "H" 
			},
			{
				"x": 4.0924494522,
				"y": -2.1477517819,
				"z": 2.4136291891,
				"element": "H" 
			},
			{
				"x": 3.3585801129,
				"y": -0.3368715336,
				"z": 0.8540852712,
				"element": "H" 
			},
			{
				"x": 3.6820570419,
				"y": -1.3150279179,
				"z": -1.2558817211,
				"element": "H" 
			},
			{
				"x": 1.994902682,
				"y": -1.798313705,
				"z": -1.4069759508,
				"element": "H" 
			},
			{
				"x": 3.065455876,
				"y": -3.9256228164,
				"z": -0.8648509725,
				"element": "H" 
			},
			{
				"x": 4.1202887503,
				"y": -3.1599448045,
				"z": 0.3243351289,
				"element": "H" 
			},
			{
				"x": 0.7526194288,
				"y": -4.325674972,
				"z": -0.0589650393,
				"element": "H" 
			},
			{
				"x": 2.6259414733,
				"y": -6.2411894001,
				"z": 3.1684561389,
				"element": "H" 
			},
			{
				"x": 1.3528703581,
				"y": 0.8737352678,
				"z": 1.1562748409,
				"element": "H" 
			},
			{
				"x": 2.7770524883,
				"y": 1.5275981219,
				"z": -0.8020939671,
				"element": "H" 
			},
			{
				"x": 1.7281468611,
				"y": 0.5796300464,
				"z": -1.8541789197,
				"element": "H" 
			},
			{
				"x": 0.9322332155,
				"y": 2.9868317177,
				"z": -0.1428729889,
				"element": "H" 
			},
			{
				"x": 0.9618858217,
				"y": 2.9232026005,
				"z": -1.8947361635,
				"element": "H" 
			},
			{
				"x": -1.3898283779,
				"y": 3.6725227855,
				"z": -1.9303598101,
				"element": "H" 
			}
		],
		 "valence_orbital": [ 
			{
				"type": "occ",
				"energy": -0.27603,
				"method": "rhf"
			},
			{
				"type": "occ",
				"energy": -0.26904,
				"method": "rhf"
			},
			{
				"type": "occ",
				"energy": -0.25795,
				"method": "rhf"
			},
			{
				"type": "occ",
				"energy": -0.22891,
				"method": "rhf"
			},
			{
				"type": "occ",
				"energy": -0.19968,
				"method": "rhf"
			},
			{
				"type": "unocc",
				"energy": 0.00914,
				"method": "rhf"
			},
			{
				"type": "unocc",
				"energy": 0.02598,
				"method": "rhf"
			},
			{
				"type": "unocc",
				"energy": 0.03708,
				"method": "rhf"
			},
			{
				"type": "unocc",
				"energy": 0.04805,
				"method": "rhf"
			},
			{
				"type": "unocc",
				"energy": 0.07583,
				"method": "rhf"
			}
		],
		"cosmo_sigma_profile": { 
			"-0.025": 0.0,
			"-0.024": 0.0,
			"-0.023": 0.0,
			"-0.022": 0.0,
			"-0.021": 0.0,
			"-0.02": 0.0,
			"-0.019": 0.0,
			"-0.018": 0.0,
			"-0.017": 0.0,
			"-0.016": 0.116353724638,
			"-0.015": 0.614784065038,
			"-0.014": 0.728226577082,
			"-0.013": 1.17624608007,
			"-0.012": 1.06300939248,
			"-0.011": 1.77608001891,
			"-0.01": 2.06772805589,
			"-0.009": 1.73026771311,
			"-0.008": 1.91515186139,
			"-0.007": 2.2810873947,
			"-0.006": 4.02798136598,
			"-0.005": 13.5785587513,
			"-0.004": 18.8740139189,
			"-0.003": 30.0213914904,
			"-0.002": 46.1627095275,
			"-0.001": 49.8419580039,
			"0.0": 42.4611149108,
			"0.001": 32.9739207112,
			"0.002": 20.3749523827,
			"0.003": 13.2154171991,
			"0.004": 15.9204182348,
			"0.005": 16.5340951047,
			"0.006": 17.2782359589,
			"0.007": 11.9955653287,
			"0.008": 3.99356110871,
			"0.009": 2.23752710285,
			"0.01": 2.04053723095,
			"0.011": 1.39855174745,
			"0.012": 0.0458942287282,
			"0.013": 0.0,
			"0.014": 0.0,
			"0.015": 0.0,
			"0.016": 0.0,
			"0.017": 0.0,
			"0.018": 0.0,
			"0.019": 0.0,
			"0.02": 0.0,
			"0.021": 0.0,
			"0.022": 0.0,
			"0.023": 0.0,
			"0.024": 0.0,
			"0.025": 0.0
		}
	}
}
