{
	 "smiles": "CC1(C)CC(CC(C)(C)N1)NCCCCCCNC1CC(C)(C)NC(C)(C)C1", 
	 "Tm": 337.15, 
	 "num_atms": 78, 
	 "gaussian": { 
		 "optdone": 1, 
		 "sigma_profile": "yes", 
		 "theory": "DFT", 
		 "functional": "B3LYP", 
		 "basiset": "6-31G**", 
		 "properties": { 
			 "R2extent": 30037.0776, 
			 "electric_dipole_moment_norm": 1.13283922072, 
			 "electric_quadrupole_moment_norm": 14.9414506712, 
			 "total_energy": -1163.70812433, 
			 "HOMO_LUMO_gap": 0.27039, 
			 "cosmo_polarized_energy": -12.17, 
			 "cosmo_cavitation_energy": 69.0, 
			 "cosmo_dispersion_energy": -46.32, 
			 "cosmo_repulsion_energy": 3.53, 
			 "cosmo_total_nonelectrostatic_energy": 26.2, 
			 "SMD_solvation_energy": 5.19 
		},
		"coords": [
			{
				"x": -5.1852394023,
				"y": 5.1482016201,
				"z": -1.72935699,
				"element": "C" 
			},
			{
				"x": -3.6807918904,
				"y": 4.9927583871,
				"z": -2.0371846236,
				"element": "C" 
			},
			{
				"x": -2.8861569763,
				"y": 5.7215194275,
				"z": -0.9302195614,
				"element": "C" 
			},
			{
				"x": -3.3009750495,
				"y": 3.4899647677,
				"z": -2.0668988989,
				"element": "C" 
			},
			{
				"x": -3.5378102875,
				"y": 2.8791383147,
				"z": -3.4513749918,
				"element": "C" 
			},
			{
				"x": -2.6063097743,
				"y": 3.5483746871,
				"z": -4.4931208852,
				"element": "C" 
			},
			{
				"x": -2.3938839047,
				"y": 5.0790011666,
				"z": -4.2641023533,
				"element": "C" 
			},
			{
				"x": -0.9622677959,
				"y": 5.3496965882,
				"z": -3.7345192582,
				"element": "C" 
			},
			{
				"x": -2.5583173862,
				"y": 5.8310776776,
				"z": -5.5973228607,
				"element": "C" 
			},
			{
				"x": -3.4719405143,
				"y": 5.566644365,
				"z": -3.3851696579,
				"element": "N" 
			},
			{
				"x": -3.4770910299,
				"y": 1.4095859552,
				"z": -3.4323104549,
				"element": "N" 
			},
			{
				"x": -2.2174024651,
				"y": 0.7622321678,
				"z": -3.035728632,
				"element": "C" 
			},
			{
				"x": -2.2896400426,
				"y": 0.1590469458,
				"z": -1.6231106821,
				"element": "C" 
			},
			{
				"x": -0.9889694874,
				"y": -0.5123787219,
				"z": -1.1505691199,
				"element": "C" 
			},
			{
				"x": -0.6100277511,
				"y": -1.7889784792,
				"z": -1.9200835564,
				"element": "C" 
			},
			{
				"x": 0.6808141145,
				"y": -2.4724143761,
				"z": -1.4383944938,
				"element": "C" 
			},
			{
				"x": 0.5868551598,
				"y": -3.1171892232,
				"z": -0.0506601208,
				"element": "C" 
			},
			{
				"x": 1.8390633491,
				"y": -3.806523667,
				"z": 0.2684849815,
				"element": "N" 
			},
			{
				"x": 1.8958601143,
				"y": -4.5782896884,
				"z": 1.5202543475,
				"element": "C" 
			},
			{
				"x": 1.169805404,
				"y": -5.927375622,
				"z": 1.356617069,
				"element": "C" 
			},
			{
				"x": 0.9190390293,
				"y": -6.6712164415,
				"z": 2.7072766265,
				"element": "C" 
			},
			{
				"x": 1.3370485342,
				"y": -8.1463224926,
				"z": 2.5672084643,
				"element": "C" 
			},
			{
				"x": -0.586997076,
				"y": -6.6330319395,
				"z": 3.0727088583,
				"element": "C" 
			},
			{
				"x": 1.8084880827,
				"y": -6.0927167722,
				"z": 3.73213777,
				"element": "N" 
			},
			{
				"x": 1.7572658857,
				"y": -4.6524701277,
				"z": 4.0672849626,
				"element": "C" 
			},
			{
				"x": 0.7660232054,
				"y": -4.3216710325,
				"z": 5.2057385519,
				"element": "C" 
			},
			{
				"x": 3.1753847312,
				"y": -4.2661421602,
				"z": 4.5391452402,
				"element": "C" 
			},
			{
				"x": 1.391449052,
				"y": -3.8606153632,
				"z": 2.78599472,
				"element": "C" 
			},
			{
				"x": -5.7906959615,
				"y": 4.5880711686,
				"z": -2.4471516672,
				"element": "H" 
			},
			{
				"x": -5.4820726372,
				"y": 6.2010297717,
				"z": -1.7976484875,
				"element": "H" 
			},
			{
				"x": -5.4222611274,
				"y": 4.7958832745,
				"z": -0.7191889241,
				"element": "H" 
			},
			{
				"x": -1.8078991727,
				"y": 5.6713308975,
				"z": -1.1005745,
				"element": "H" 
			},
			{
				"x": -3.0919497782,
				"y": 5.2814324513,
				"z": 0.0525797909,
				"element": "H" 
			},
			{
				"x": -3.1725960421,
				"y": 6.7793919582,
				"z": -0.8818705858,
				"element": "H" 
			},
			{
				"x": -2.2486279789,
				"y": 3.3631929923,
				"z": -1.7826346622,
				"element": "H" 
			},
			{
				"x": -3.894670252,
				"y": 2.9514109355,
				"z": -1.3212646246,
				"element": "H" 
			},
			{
				"x": -4.5695232049,
				"y": 3.1177308864,
				"z": -3.7351469044,
				"element": "H" 
			},
			{
				"x": -3.0279249077,
				"y": 3.3766984795,
				"z": -5.491051764,
				"element": "H" 
			},
			{
				"x": -1.6308895912,
				"y": 3.0487725075,
				"z": -4.4817647395,
				"element": "H" 
			},
			{
				"x": -0.8286986692,
				"y": 6.4125825052,
				"z": -3.5016169948,
				"element": "H" 
			},
			{
				"x": -0.2134037515,
				"y": 5.0755656297,
				"z": -4.487101543,
				"element": "H" 
			},
			{
				"x": -0.741017851,
				"y": 4.7747039684,
				"z": -2.8312173775,
				"element": "H" 
			},
			{
				"x": -3.5704712837,
				"y": 5.6914475096,
				"z": -5.9873368501,
				"element": "H" 
			},
			{
				"x": -1.8406443895,
				"y": 5.4686435275,
				"z": -6.3407133388,
				"element": "H" 
			},
			{
				"x": -2.3870968312,
				"y": 6.9072110088,
				"z": -5.4681417386,
				"element": "H" 
			},
			{
				"x": -3.4471262851,
				"y": 6.5813059113,
				"z": -3.3299507276,
				"element": "H" 
			},
			{
				"x": -3.7645225392,
				"y": 1.0682092754,
				"z": -4.3432753907,
				"element": "H" 
			},
			{
				"x": -1.3606992324,
				"y": 1.4539069989,
				"z": -3.0852874987,
				"element": "H" 
			},
			{
				"x": -1.9954527513,
				"y": -0.033745038,
				"z": -3.7559118182,
				"element": "H" 
			},
			{
				"x": -2.558428257,
				"y": 0.9539646619,
				"z": -0.9181409427,
				"element": "H" 
			},
			{
				"x": -3.1173923921,
				"y": -0.5613621508,
				"z": -1.5953258527,
				"element": "H" 
			},
			{
				"x": -1.0907201443,
				"y": -0.7477418839,
				"z": -0.0842637975,
				"element": "H" 
			},
			{
				"x": -0.1595745624,
				"y": 0.2074526635,
				"z": -1.2211055165,
				"element": "H" 
			},
			{
				"x": -1.4430559532,
				"y": -2.504794127,
				"z": -1.8631030317,
				"element": "H" 
			},
			{
				"x": -0.4916611303,
				"y": -1.5510222661,
				"z": -2.9843221709,
				"element": "H" 
			},
			{
				"x": 0.9723340624,
				"y": -3.2550237659,
				"z": -2.1483819736,
				"element": "H" 
			},
			{
				"x": 1.5003581991,
				"y": -1.7377421406,
				"z": -1.4402105608,
				"element": "H" 
			},
			{
				"x": -0.2254371841,
				"y": -3.8548018272,
				"z": -0.0603542725,
				"element": "H" 
			},
			{
				"x": 0.3039603105,
				"y": -2.3578823927,
				"z": 0.6990509008,
				"element": "H" 
			},
			{
				"x": 2.5900390401,
				"y": -3.1204449781,
				"z": 0.275960891,
				"element": "H" 
			},
			{
				"x": 2.9583075228,
				"y": -4.7997360276,
				"z": 1.6723285394,
				"element": "H" 
			},
			{
				"x": 0.2084289428,
				"y": -5.7643038479,
				"z": 0.8568933659,
				"element": "H" 
			},
			{
				"x": 1.7620328045,
				"y": -6.5513496803,
				"z": 0.6799994116,
				"element": "H" 
			},
			{
				"x": 1.1458916,
				"y": -8.7015125249,
				"z": 3.4942416799,
				"element": "H" 
			},
			{
				"x": 2.404655072,
				"y": -8.2163562691,
				"z": 2.3410085323,
				"element": "H" 
			},
			{
				"x": 0.7745468804,
				"y": -8.6361371987,
				"z": 1.7656115347,
				"element": "H" 
			},
			{
				"x": -0.7618890907,
				"y": -7.0961372896,
				"z": 4.0509358429,
				"element": "H" 
			},
			{
				"x": -0.97775468,
				"y": -5.6124322354,
				"z": 3.1063323717,
				"element": "H" 
			},
			{
				"x": -1.178285109,
				"y": -7.1838500335,
				"z": 2.3316277688,
				"element": "H" 
			},
			{
				"x": 1.7692967933,
				"y": -6.6485024799,
				"z": 4.5822965192,
				"element": "H" 
			},
			{
				"x": -0.2599685062,
				"y": -4.5925436113,
				"z": 4.9449788475,
				"element": "H" 
			},
			{
				"x": 0.7818601406,
				"y": -3.2506214539,
				"z": 5.4395833643,
				"element": "H" 
			},
			{
				"x": 1.0360848599,
				"y": -4.8610091119,
				"z": 6.1222342608,
				"element": "H" 
			},
			{
				"x": 3.9083223933,
				"y": -4.4201048295,
				"z": 3.7422495945,
				"element": "H" 
			},
			{
				"x": 3.2164282819,
				"y": -3.2185027836,
				"z": 4.8585344547,
				"element": "H" 
			},
			{
				"x": 3.4782198999,
				"y": -4.8888712345,
				"z": 5.3885918111,
				"element": "H" 
			},
			{
				"x": 1.8221580905,
				"y": -2.8535694754,
				"z": 2.8520894163,
				"element": "H" 
			},
			{
				"x": 0.3044105243,
				"y": -3.7272442887,
				"z": 2.7234049071,
				"element": "H" 
			}
		],
		 "valence_orbital": [ 
			{
				"type": "occ",
				"energy": -0.29567,
				"method": "rhf"
			},
			{
				"type": "occ",
				"energy": -0.20907,
				"method": "rhf"
			},
			{
				"type": "occ",
				"energy": -0.20689,
				"method": "rhf"
			},
			{
				"type": "occ",
				"energy": -0.20276,
				"method": "rhf"
			},
			{
				"type": "occ",
				"energy": -0.20191,
				"method": "rhf"
			},
			{
				"type": "unocc",
				"energy": 0.06848,
				"method": "rhf"
			},
			{
				"type": "unocc",
				"energy": 0.07017,
				"method": "rhf"
			},
			{
				"type": "unocc",
				"energy": 0.08739,
				"method": "rhf"
			},
			{
				"type": "unocc",
				"energy": 0.09157,
				"method": "rhf"
			},
			{
				"type": "unocc",
				"energy": 0.09266,
				"method": "rhf"
			}
		],
		"cosmo_sigma_profile": { 
			"-0.025": 0.0,
			"-0.024": 0.0,
			"-0.023": 0.0,
			"-0.022": 0.0,
			"-0.021": 0.0,
			"-0.02": 0.0,
			"-0.019": 0.0,
			"-0.018": 0.0,
			"-0.017": 0.0,
			"-0.016": 0.0,
			"-0.015": 0.0,
			"-0.014": 0.0,
			"-0.013": 0.0,
			"-0.012": 0.0,
			"-0.011": 0.0,
			"-0.01": 0.050713495003,
			"-0.009": 1.64617227609,
			"-0.008": 4.29414515531,
			"-0.007": 4.47001959409,
			"-0.006": 6.16787273586,
			"-0.005": 7.66367835361,
			"-0.004": 10.8097890826,
			"-0.003": 35.6868809246,
			"-0.002": 86.4191399831,
			"-0.001": 94.6970153343,
			"0.0": 92.6763497029,
			"0.001": 79.5145755582,
			"0.002": 51.1791870317,
			"0.003": 9.57907831008,
			"0.004": 5.3268456775,
			"0.005": 4.90436492742,
			"0.006": 3.82053841677,
			"0.007": 3.51946776008,
			"0.008": 3.21580977827,
			"0.009": 3.1592542231,
			"0.01": 2.37643963473,
			"0.011": 2.96036382406,
			"0.012": 2.12270622098,
			"0.013": 2.51971143998,
			"0.014": 1.58802645986,
			"0.015": 1.91740092966,
			"0.016": 1.47299349337,
			"0.017": 0.611732405366,
			"0.018": 0.797428503568,
			"0.019": 0.0601029689729,
			"0.02": 0.0,
			"0.021": 0.0,
			"0.022": 0.0,
			"0.023": 0.0,
			"0.024": 0.0,
			"0.025": 0.0
		}
	}
}
