{
	 "smiles": "NNC(=O)COC1=CC=C(Cl)C=C1Cl", 
	 "Tm": 428.15, 
	 "num_atms": 22, 
	 "gaussian": { 
		 "optdone": 1, 
		 "sigma_profile": "yes", 
		 "theory": "DFT", 
		 "functional": "B3LYP", 
		 "basiset": "6-31G**", 
		 "properties": { 
			 "R2extent": 4537.1937, 
			 "electric_dipole_moment_norm": 3.59965299578, 
			 "electric_quadrupole_moment_norm": 8.67218132998, 
			 "total_energy": -1489.96185277, 
			 "HOMO_LUMO_gap": 0.21963, 
			 "cosmo_polarized_energy": -16.63, 
			 "cosmo_cavitation_energy": 30.44, 
			 "cosmo_dispersion_energy": -22.18, 
			 "cosmo_repulsion_energy": 1.78, 
			 "cosmo_total_nonelectrostatic_energy": 10.04, 
			 "SMD_solvation_energy": 5.95 
		},
		"coords": [
			{
				"x": -2.2836367306,
				"y": -0.2712635938,
				"z": -3.6404067777,
				"element": "N" 
			},
			{
				"x": -2.3941079611,
				"y": 0.7576584941,
				"z": -2.6961555251,
				"element": "N" 
			},
			{
				"x": -1.4405866909,
				"y": 1.1814502183,
				"z": -1.8075694824,
				"element": "C" 
			},
			{
				"x": -1.6504110761,
				"y": 2.1038708582,
				"z": -1.0359781622,
				"element": "O" 
			},
			{
				"x": -0.1099739883,
				"y": 0.4116681957,
				"z": -1.8660091474,
				"element": "C" 
			},
			{
				"x": 0.850465804,
				"y": 0.9476280841,
				"z": -0.97552306,
				"element": "O" 
			},
			{
				"x": 0.8298134371,
				"y": 0.4855736551,
				"z": 0.3191798893,
				"element": "C" 
			},
			{
				"x": 0.1952279491,
				"y": 1.2276384488,
				"z": 1.3188832766,
				"element": "C" 
			},
			{
				"x": 0.2378669309,
				"y": 0.8153573174,
				"z": 2.6487937971,
				"element": "C" 
			},
			{
				"x": 0.9211314976,
				"y": -0.3554606369,
				"z": 2.9766048022,
				"element": "C" 
			},
			{
				"x": 0.9807658169,
				"y": -0.889231635,
				"z": 4.6489370415,
				"element": "Cl" 
			},
			{
				"x": 1.5634556154,
				"y": -1.1164495694,
				"z": 2.0018135584,
				"element": "C" 
			},
			{
				"x": 1.5135424933,
				"y": -0.6869609894,
				"z": 0.6759225802,
				"element": "C" 
			},
			{
				"x": 2.3378037073,
				"y": -1.6292667166,
				"z": -0.552625017,
				"element": "Cl" 
			},
			{
				"x": -1.5431804172,
				"y": -0.0796537627,
				"z": -4.309778343,
				"element": "H" 
			},
			{
				"x": -2.11383403,
				"y": -1.1665393746,
				"z": -3.1904555138,
				"element": "H" 
			},
			{
				"x": -3.2762566091,
				"y": 1.253133108,
				"z": -2.6812477153,
				"element": "H" 
			},
			{
				"x": -0.2812347489,
				"y": -0.6560219652,
				"z": -1.6747612476,
				"element": "H" 
			},
			{
				"x": 0.3210383454,
				"y": 0.4951350775,
				"z": -2.8697770716,
				"element": "H" 
			},
			{
				"x": -0.3416881862,
				"y": 2.1182574527,
				"z": 1.0152090028,
				"element": "H" 
			},
			{
				"x": -0.2559375305,
				"y": 1.3930445949,
				"z": 3.4217098662,
				"element": "H" 
			},
			{
				"x": 2.098036372,
				"y": -2.021067261,
				"z": 2.2640332486,
				"element": "H" 
			}
		],
		 "valence_orbital": [ 
			{
				"type": "occ",
				"energy": -0.30167,
				"method": "rhf"
			},
			{
				"type": "occ",
				"energy": -0.2737,
				"method": "rhf"
			},
			{
				"type": "occ",
				"energy": -0.26355,
				"method": "rhf"
			},
			{
				"type": "occ",
				"energy": -0.25764,
				"method": "rhf"
			},
			{
				"type": "occ",
				"energy": -0.24336,
				"method": "rhf"
			},
			{
				"type": "unocc",
				"energy": -0.02373,
				"method": "rhf"
			},
			{
				"type": "unocc",
				"energy": -0.01944,
				"method": "rhf"
			},
			{
				"type": "unocc",
				"energy": 0.00506,
				"method": "rhf"
			},
			{
				"type": "unocc",
				"energy": 0.01243,
				"method": "rhf"
			},
			{
				"type": "unocc",
				"energy": 0.04458,
				"method": "rhf"
			}
		],
		"cosmo_sigma_profile": { 
			"-0.025": 0.0,
			"-0.024": 0.0,
			"-0.023": 0.0,
			"-0.022": 0.0,
			"-0.021": 0.0,
			"-0.02": 0.0,
			"-0.019": 0.0,
			"-0.018": 0.0,
			"-0.017": 0.0,
			"-0.016": 0.0,
			"-0.015": 0.0,
			"-0.014": 0.43673791945,
			"-0.013": 1.15073677772,
			"-0.012": 6.17362792759,
			"-0.011": 5.49360243006,
			"-0.01": 5.89343586036,
			"-0.009": 5.16665625703,
			"-0.008": 6.72578704886,
			"-0.007": 7.91505613323,
			"-0.006": 8.23577037811,
			"-0.005": 8.95037464562,
			"-0.004": 8.19101984451,
			"-0.003": 9.72054973845,
			"-0.002": 11.9393284219,
			"-0.001": 13.22433064,
			"0.0": 17.2174250412,
			"0.001": 28.3199601091,
			"0.002": 24.2655920902,
			"0.003": 18.8734520063,
			"0.004": 19.9043970084,
			"0.005": 7.43111952722,
			"0.006": 3.68259175155,
			"0.007": 4.34761113562,
			"0.008": 3.14816495092,
			"0.009": 3.45132539312,
			"0.01": 3.87098097921,
			"0.011": 3.28450654567,
			"0.012": 3.62944616701,
			"0.013": 3.78258218114,
			"0.014": 1.65794768443,
			"0.015": 0.50803898235,
			"0.016": 0.170540777606,
			"0.017": 0.0,
			"0.018": 0.0,
			"0.019": 0.0,
			"0.02": 0.0,
			"0.021": 0.0,
			"0.022": 0.0,
			"0.023": 0.0,
			"0.024": 0.0,
			"0.025": 0.0
		}
	}
}
