{
	 "smiles": "COC1=C(C=C(Cl)C(=C1)N1C=CC=C1)C(O)=O", 
	 "Tm": 426.15, 
	 "num_atms": 27, 
	 "gaussian": { 
		 "optdone": 1, 
		 "sigma_profile": "yes", 
		 "theory": "DFT", 
		 "functional": "B3LYP", 
		 "basiset": "6-31G**", 
		 "properties": { 
			 "R2extent": 5433.5643, 
			 "electric_dipole_moment_norm": 3.22827106978, 
			 "electric_quadrupole_moment_norm": 11.8494100106, 
			 "total_energy": -1203.89458577, 
			 "HOMO_LUMO_gap": 0.15262, 
			 "cosmo_polarized_energy": -12.51, 
			 "cosmo_cavitation_energy": 33.48, 
			 "cosmo_dispersion_energy": -24.01, 
			 "cosmo_repulsion_energy": 1.85, 
			 "cosmo_total_nonelectrostatic_energy": 11.33, 
			 "SMD_solvation_energy": 8.1 
		},
		"coords": [
			{
				"x": -1.4883829275,
				"y": -4.0874588463,
				"z": 0.4124154961,
				"element": "C" 
			},
			{
				"x": -1.4701226595,
				"y": -3.1889017296,
				"z": -0.7008970916,
				"element": "O" 
			},
			{
				"x": -1.4665288615,
				"y": -1.8572408817,
				"z": -0.3874847961,
				"element": "C" 
			},
			{
				"x": -2.6467614588,
				"y": -1.098090278,
				"z": -0.2396566022,
				"element": "C" 
			},
			{
				"x": -2.524281489,
				"y": 0.2762290498,
				"z": 0.0126263156,
				"element": "C" 
			},
			{
				"x": -1.2882458545,
				"y": 0.8954968616,
				"z": 0.1301934742,
				"element": "C" 
			},
			{
				"x": -1.2562706586,
				"y": 2.6317302936,
				"z": 0.3692065299,
				"element": "Cl" 
			},
			{
				"x": -0.1042056154,
				"y": 0.1408091114,
				"z": 0.000344287,
				"element": "C" 
			},
			{
				"x": -0.2271356917,
				"y": -1.2294759888,
				"z": -0.2569135981,
				"element": "C" 
			},
			{
				"x": 1.1877861662,
				"y": 0.6994220406,
				"z": 0.0923894434,
				"element": "N" 
			},
			{
				"x": 1.6733104434,
				"y": 1.5178686226,
				"z": 1.1047426564,
				"element": "C" 
			},
			{
				"x": 3.0106928982,
				"y": 1.7265642832,
				"z": 0.881666829,
				"element": "C" 
			},
			{
				"x": 3.366617012,
				"y": 1.0186145397,
				"z": -0.3069374253,
				"element": "C" 
			},
			{
				"x": 2.2378403334,
				"y": 0.3876877016,
				"z": -0.7643158267,
				"element": "C" 
			},
			{
				"x": -4.0453704058,
				"y": -1.6002668798,
				"z": -0.3623470706,
				"element": "C" 
			},
			{
				"x": -4.1596725785,
				"y": -2.9391051191,
				"z": -0.5110158715,
				"element": "O" 
			},
			{
				"x": -5.0232455637,
				"y": -0.8776966962,
				"z": -0.3235038864,
				"element": "O" 
			},
			{
				"x": -1.4396930155,
				"y": -5.0930398414,
				"z": -0.0083357036,
				"element": "H" 
			},
			{
				"x": -0.6214634303,
				"y": -3.9227037663,
				"z": 1.0648730642,
				"element": "H" 
			},
			{
				"x": -2.4119682161,
				"y": -3.9809968304,
				"z": 0.9901282614,
				"element": "H" 
			},
			{
				"x": -3.4334213935,
				"y": 0.8598903054,
				"z": 0.0943851219,
				"element": "H" 
			},
			{
				"x": 0.6682222295,
				"y": -1.8330709744,
				"z": -0.3525806868,
				"element": "H" 
			},
			{
				"x": 1.0272195899,
				"y": 1.8522687558,
				"z": 1.8998819635,
				"element": "H" 
			},
			{
				"x": 3.6651732121,
				"y": 2.3213461214,
				"z": 1.5031606103,
				"element": "H" 
			},
			{
				"x": 4.3384551412,
				"y": 0.9907674775,
				"z": -0.7793201463,
				"element": "H" 
			},
			{
				"x": 2.0638112795,
				"y": -0.214829442,
				"z": -1.6426317064,
				"element": "H" 
			},
			{
				"x": -5.1153584854,
				"y": -3.1052178903,
				"z": -0.578973641,
				"element": "H" 
			}
		],
		 "valence_orbital": [ 
			{
				"type": "occ",
				"energy": -0.28657,
				"method": "rhf"
			},
			{
				"type": "occ",
				"energy": -0.28338,
				"method": "rhf"
			},
			{
				"type": "occ",
				"energy": -0.25658,
				"method": "rhf"
			},
			{
				"type": "occ",
				"energy": -0.23402,
				"method": "rhf"
			},
			{
				"type": "occ",
				"energy": -0.21642,
				"method": "rhf"
			},
			{
				"type": "unocc",
				"energy": -0.0638,
				"method": "rhf"
			},
			{
				"type": "unocc",
				"energy": -0.02626,
				"method": "rhf"
			},
			{
				"type": "unocc",
				"energy": 0.02011,
				"method": "rhf"
			},
			{
				"type": "unocc",
				"energy": 0.0222,
				"method": "rhf"
			},
			{
				"type": "unocc",
				"energy": 0.05214,
				"method": "rhf"
			}
		],
		"cosmo_sigma_profile": { 
			"-0.025": 0.0,
			"-0.024": 0.0,
			"-0.023": 0.0,
			"-0.022": 0.0,
			"-0.021": 0.0,
			"-0.02": 0.0,
			"-0.019": 0.15769634554,
			"-0.018": 0.636449985988,
			"-0.017": 0.873064780349,
			"-0.016": 1.29432571919,
			"-0.015": 0.678518885145,
			"-0.014": 0.402598546063,
			"-0.013": 0.76005585316,
			"-0.012": 0.420040779798,
			"-0.011": 0.842279496446,
			"-0.01": 0.647847927211,
			"-0.009": 0.309545323202,
			"-0.008": 2.37822670405,
			"-0.007": 6.43629957331,
			"-0.006": 11.3845214539,
			"-0.005": 15.6259924191,
			"-0.004": 19.8554923128,
			"-0.003": 23.4570309778,
			"-0.002": 21.9910342293,
			"-0.001": 22.6828509099,
			"0.0": 28.6194740572,
			"0.001": 18.5069554033,
			"0.002": 14.7307136884,
			"0.003": 14.5935488883,
			"0.004": 14.1851944145,
			"0.005": 9.62802240617,
			"0.006": 9.10050329231,
			"0.007": 8.34317467821,
			"0.008": 5.69240296283,
			"0.009": 2.704937028,
			"0.01": 4.23991033547,
			"0.011": 5.70589722002,
			"0.012": 3.28515841354,
			"0.013": 0.171078189633,
			"0.014": 0.0,
			"0.015": 0.0,
			"0.016": 0.0,
			"0.017": 0.0,
			"0.018": 0.0,
			"0.019": 0.0,
			"0.02": 0.0,
			"0.021": 0.0,
			"0.022": 0.0,
			"0.023": 0.0,
			"0.024": 0.0,
			"0.025": 0.0
		}
	}
}
