{
	 "smiles": "C1=CC=C(N=C1)C1=CC=CC=N1", 
	 "Tm": 344.15, 
	 "num_atms": 20, 
	 "gaussian": { 
		 "optdone": 1, 
		 "sigma_profile": "yes", 
		 "theory": "DFT", 
		 "functional": "B3LYP", 
		 "basiset": "6-31G**", 
		 "properties": { 
			 "R2extent": 2338.8066, 
			 "electric_dipole_moment_norm": 0.0, 
			 "electric_quadrupole_moment_norm": 11.6718083552, 
			 "total_energy": -495.389119811, 
			 "HOMO_LUMO_gap": 0.18473, 
			 "cosmo_polarized_energy": -7.17, 
			 "cosmo_cavitation_energy": 24.25, 
			 "cosmo_dispersion_energy": -18.3, 
			 "cosmo_repulsion_energy": 1.44, 
			 "cosmo_total_nonelectrostatic_energy": 7.39, 
			 "SMD_solvation_energy": 2.25 
		},
		"coords": [
			{
				"x": 2.3266324029,
				"y": 1.4141033262,
				"z": -1.6182708916,
				"element": "C" 
			},
			{
				"x": 2.0006131045,
				"y": 2.1370032162,
				"z": -0.4705728848,
				"element": "C" 
			},
			{
				"x": 0.8765031313,
				"y": 1.7691083115,
				"z": 0.2625260082,
				"element": "C" 
			},
			{
				"x": 0.1088559944,
				"y": 0.6815435749,
				"z": -0.1795812887,
				"element": "C" 
			},
			{
				"x": 0.4198103616,
				"y": -0.0182721579,
				"z": -1.2858594913,
				"element": "N" 
			},
			{
				"x": 1.5011021905,
				"y": 0.3469660783,
				"z": -1.978183438,
				"element": "C" 
			},
			{
				"x": -1.1037117891,
				"y": 0.2497213127,
				"z": 0.5716956909,
				"element": "C" 
			},
			{
				"x": -1.871357402,
				"y": -0.8378422992,
				"z": 0.1295895982,
				"element": "C" 
			},
			{
				"x": -2.9954713007,
				"y": -1.2057353349,
				"z": 0.8626849654,
				"element": "C" 
			},
			{
				"x": -3.3214955848,
				"y": -0.4828314087,
				"z": 2.0103776784,
				"element": "C" 
			},
			{
				"x": -2.4959666419,
				"y": 0.5843095815,
				"z": 2.3702881883,
				"element": "C" 
			},
			{
				"x": -1.4146723527,
				"y": 0.9495452401,
				"z": 1.6779697494,
				"element": "N" 
			},
			{
				"x": 3.1939554736,
				"y": 1.6656131888,
				"z": -2.2203581778,
				"element": "H" 
			},
			{
				"x": 2.613260684,
				"y": 2.9754275189,
				"z": -0.1510923514,
				"element": "H" 
			},
			{
				"x": 0.5756601319,
				"y": 2.2937503772,
				"z": 1.161100385,
				"element": "H" 
			},
			{
				"x": 1.7213507748,
				"y": -0.2422616228,
				"z": -2.8671761683,
				"element": "H" 
			},
			{
				"x": -1.5705133082,
				"y": -1.362488373,
				"z": -0.7689823181,
				"element": "H" 
			},
			{
				"x": -3.6081151444,
				"y": -2.0441621397,
				"z": 0.5432026329,
				"element": "H" 
			},
			{
				"x": -4.1888199949,
				"y": -0.7343379781,
				"z": 2.6124637794,
				"element": "H" 
			},
			{
				"x": -2.7162207307,
				"y": 1.173539588,
				"z": 3.259278334,
				"element": "H" 
			}
		],
		 "valence_orbital": [ 
			{
				"type": "occ",
				"energy": -0.28566,
				"method": "rhf"
			},
			{
				"type": "occ",
				"energy": -0.27404,
				"method": "rhf"
			},
			{
				"type": "occ",
				"energy": -0.26318,
				"method": "rhf"
			},
			{
				"type": "occ",
				"energy": -0.24717,
				"method": "rhf"
			},
			{
				"type": "occ",
				"energy": -0.23375,
				"method": "rhf"
			},
			{
				"type": "unocc",
				"energy": -0.04902,
				"method": "rhf"
			},
			{
				"type": "unocc",
				"energy": -0.02475,
				"method": "rhf"
			},
			{
				"type": "unocc",
				"energy": -0.00722,
				"method": "rhf"
			},
			{
				"type": "unocc",
				"energy": 0.0302,
				"method": "rhf"
			},
			{
				"type": "unocc",
				"energy": 0.10232,
				"method": "rhf"
			}
		],
		"cosmo_sigma_profile": { 
			"-0.025": 0.0,
			"-0.024": 0.0,
			"-0.023": 0.0,
			"-0.022": 0.0,
			"-0.021": 0.0,
			"-0.02": 0.0,
			"-0.019": 0.0,
			"-0.018": 0.0,
			"-0.017": 0.0,
			"-0.016": 0.0,
			"-0.015": 0.0,
			"-0.014": 0.0,
			"-0.013": 0.0,
			"-0.012": 0.0,
			"-0.011": 0.0,
			"-0.01": 0.0,
			"-0.009": 0.0,
			"-0.008": 0.0827587986039,
			"-0.007": 7.63566057143,
			"-0.006": 13.5921071229,
			"-0.005": 17.7090003216,
			"-0.004": 14.4702554393,
			"-0.003": 11.044028222,
			"-0.002": 10.6091630051,
			"-0.001": 9.25379722323,
			"0.0": 11.424500709,
			"0.001": 17.9751236639,
			"0.002": 30.126648298,
			"0.003": 23.2641023012,
			"0.004": 5.64200289267,
			"0.005": 5.32395665157,
			"0.006": 3.04915273673,
			"0.007": 3.47871061929,
			"0.008": 2.97322181112,
			"0.009": 2.70358852644,
			"0.01": 1.61469383329,
			"0.011": 3.10371965918,
			"0.012": 0.816493414447,
			"0.013": 0.0,
			"0.014": 0.0,
			"0.015": 0.0,
			"0.016": 0.0,
			"0.017": 0.0,
			"0.018": 0.0,
			"0.019": 0.0,
			"0.02": 0.0,
			"0.021": 0.0,
			"0.022": 0.0,
			"0.023": 0.0,
			"0.024": 0.0,
			"0.025": 0.0
		}
	}
}
