{
	 "smiles": "CCN1C=C(C(O)=O)C(=O)C2=C1N=C(N1CCNCC1)C(F)=C2", 
	 "Tm": 495.15, 
	 "num_atms": 40, 
	 "gaussian": { 
		 "optdone": 1, 
		 "sigma_profile": "yes", 
		 "theory": "DFT", 
		 "functional": "B3LYP", 
		 "basiset": "6-31G**", 
		 "properties": { 
			 "R2extent": 10374.8375, 
			 "electric_dipole_moment_norm": 8.70887571447, 
			 "electric_quadrupole_moment_norm": 39.1769290869, 
			 "total_energy": -1126.37709571, 
			 "HOMO_LUMO_gap": 0.15751, 
			 "cosmo_polarized_energy": -26.05, 
			 "cosmo_cavitation_energy": 42.77, 
			 "cosmo_dispersion_energy": -30.0, 
			 "cosmo_repulsion_energy": 2.24, 
			 "cosmo_total_nonelectrostatic_energy": 15.01, 
			 "SMD_solvation_energy": 5.61 
		},
		"coords": [
			{
				"x": -2.1813304776,
				"y": 3.6784170613,
				"z": -1.1478611405,
				"element": "C" 
			},
			{
				"x": -2.2557971676,
				"y": 2.2799156252,
				"z": -1.7617832495,
				"element": "C" 
			},
			{
				"x": -2.8812352134,
				"y": 1.294055997,
				"z": -0.8621914943,
				"element": "N" 
			},
			{
				"x": -4.2138044297,
				"y": 1.044464092,
				"z": -0.9524924503,
				"element": "C" 
			},
			{
				"x": -4.915153916,
				"y": 0.1841110078,
				"z": -0.1441753303,
				"element": "C" 
			},
			{
				"x": -6.3645772343,
				"y": 0.0093257898,
				"z": -0.3757155608,
				"element": "C" 
			},
			{
				"x": -6.8215708257,
				"y": 0.7825451413,
				"z": -1.4165120064,
				"element": "O" 
			},
			{
				"x": -7.1180103627,
				"y": -0.7111269088,
				"z": 0.240044374,
				"element": "O" 
			},
			{
				"x": -4.2181547319,
				"y": -0.5488018344,
				"z": 0.9280277278,
				"element": "C" 
			},
			{
				"x": -4.7361164064,
				"y": -1.3378331079,
				"z": 1.7146533255,
				"element": "O" 
			},
			{
				"x": -2.7700753223,
				"y": -0.2455655445,
				"z": 0.9900620489,
				"element": "C" 
			},
			{
				"x": -2.1248724677,
				"y": 0.6477101092,
				"z": 0.1224274473,
				"element": "C" 
			},
			{
				"x": -0.8144562822,
				"y": 0.9164619047,
				"z": 0.1543167099,
				"element": "N" 
			},
			{
				"x": -0.0286252362,
				"y": 0.3333700796,
				"z": 1.0722192358,
				"element": "C" 
			},
			{
				"x": 1.3056282149,
				"y": 0.6678654564,
				"z": 1.0884300111,
				"element": "N" 
			},
			{
				"x": 2.3744792107,
				"y": -0.2501276332,
				"z": 1.5106533134,
				"element": "C" 
			},
			{
				"x": 3.0954366519,
				"y": -0.8266472524,
				"z": 0.2852187107,
				"element": "C" 
			},
			{
				"x": 3.6112545816,
				"y": 0.2678241267,
				"z": -0.5358731013,
				"element": "N" 
			},
			{
				"x": 2.5324043952,
				"y": 1.1377331109,
				"z": -1.0074108209,
				"element": "C" 
			},
			{
				"x": 1.8106485888,
				"y": 1.7274789925,
				"z": 0.2086367279,
				"element": "C" 
			},
			{
				"x": -0.6259986555,
				"y": -0.5478198135,
				"z": 2.0267637921,
				"element": "C" 
			},
			{
				"x": 0.1197941688,
				"y": -1.0744644487,
				"z": 3.0309602789,
				"element": "F" 
			},
			{
				"x": -1.9606045096,
				"y": -0.8424975756,
				"z": 1.9724539377,
				"element": "C" 
			},
			{
				"x": -3.1790353971,
				"y": 4.0565928222,
				"z": -0.9043888432,
				"element": "H" 
			},
			{
				"x": -1.582648364,
				"y": 3.6675261605,
				"z": -0.2337566723,
				"element": "H" 
			},
			{
				"x": -1.7169917684,
				"y": 4.3723206004,
				"z": -1.8560409507,
				"element": "H" 
			},
			{
				"x": -1.2581478001,
				"y": 1.9130225038,
				"z": -2.0043929236,
				"element": "H" 
			},
			{
				"x": -2.8477249908,
				"y": 2.2911841364,
				"z": -2.6810150619,
				"element": "H" 
			},
			{
				"x": -4.7268887202,
				"y": 1.5826187363,
				"z": -1.7400947473,
				"element": "H" 
			},
			{
				"x": -7.7700826573,
				"y": 0.5840870088,
				"z": -1.4703188518,
				"element": "H" 
			},
			{
				"x": 1.9687570074,
				"y": -1.0487525197,
				"z": 2.1232838678,
				"element": "H" 
			},
			{
				"x": 3.0930948028,
				"y": 0.3188772235,
				"z": 2.1130564208,
				"element": "H" 
			},
			{
				"x": 2.3887258519,
				"y": -1.4824770477,
				"z": -0.2588614116,
				"element": "H" 
			},
			{
				"x": 3.9338280128,
				"y": -1.4467850231,
				"z": 0.6217437968,
				"element": "H" 
			},
			{
				"x": 4.1342070709,
				"y": -0.1022673943,
				"z": -1.3241014042,
				"element": "H" 
			},
			{
				"x": 2.9639853952,
				"y": 1.9483960344,
				"z": -1.6052111045,
				"element": "H" 
			},
			{
				"x": 1.7898113824,
				"y": 0.6105571261,
				"z": -1.6347204448,
				"element": "H" 
			},
			{
				"x": 2.5264228671,
				"y": 2.3225483052,
				"z": 0.7895305403,
				"element": "H" 
			},
			{
				"x": 0.9806868312,
				"y": 2.3608462047,
				"z": -0.0975586372,
				"element": "H" 
			},
			{
				"x": -2.4182620968,
				"y": -1.5104892531,
				"z": 2.6943939405,
				"element": "H" 
			}
		],
		 "valence_orbital": [ 
			{
				"type": "occ",
				"energy": -0.26435,
				"method": "rhf"
			},
			{
				"type": "occ",
				"energy": -0.24206,
				"method": "rhf"
			},
			{
				"type": "occ",
				"energy": -0.23002,
				"method": "rhf"
			},
			{
				"type": "occ",
				"energy": -0.22152,
				"method": "rhf"
			},
			{
				"type": "occ",
				"energy": -0.2088,
				"method": "rhf"
			},
			{
				"type": "unocc",
				"energy": -0.05129,
				"method": "rhf"
			},
			{
				"type": "unocc",
				"energy": -0.03564,
				"method": "rhf"
			},
			{
				"type": "unocc",
				"energy": 0.00039,
				"method": "rhf"
			},
			{
				"type": "unocc",
				"energy": 0.04003,
				"method": "rhf"
			},
			{
				"type": "unocc",
				"energy": 0.06998,
				"method": "rhf"
			}
		],
		"cosmo_sigma_profile": { 
			"-0.025": 0.0,
			"-0.024": 0.0,
			"-0.023": 0.0,
			"-0.022": 0.0,
			"-0.021": 0.0,
			"-0.02": 0.0,
			"-0.019": 0.0,
			"-0.018": 0.250776471501,
			"-0.017": 0.663691615805,
			"-0.016": 0.894636647469,
			"-0.015": 0.789577479399,
			"-0.014": 0.923721694634,
			"-0.013": 0.96352889398,
			"-0.012": 0.471848354856,
			"-0.011": 0.934383117999,
			"-0.01": 3.40972971795,
			"-0.009": 3.22292104126,
			"-0.008": 3.69563841829,
			"-0.007": 5.7554008367,
			"-0.006": 6.64197085664,
			"-0.005": 13.5837843579,
			"-0.004": 31.0038341755,
			"-0.003": 35.9201828255,
			"-0.002": 42.2968781479,
			"-0.001": 41.6761572261,
			"0.0": 34.0901732044,
			"0.001": 21.7021131999,
			"0.002": 14.075533321,
			"0.003": 12.5469512516,
			"0.004": 11.9253671524,
			"0.005": 4.34382507338,
			"0.006": 4.69929182955,
			"0.007": 4.63738563116,
			"0.008": 3.0189843078,
			"0.009": 2.86720821448,
			"0.01": 3.02759422784,
			"0.011": 4.162658119,
			"0.012": 5.74353566187,
			"0.013": 5.2340209331,
			"0.014": 5.29383245589,
			"0.015": 2.34930244708,
			"0.016": 2.0356042325,
			"0.017": 1.8492017897,
			"0.018": 1.19048551058,
			"0.019": 0.364896691389,
			"0.02": 0.0,
			"0.021": 0.0,
			"0.022": 0.0,
			"0.023": 0.0,
			"0.024": 0.0,
			"0.025": 0.0
		}
	}
}
