{
	 "smiles": "COC1=CC=C(C=C1)C1SC2=CC=CC=C2NC(=O)C1O", 
	 "Tm": 478.15, 
	 "num_atms": 36, 
	 "gaussian": { 
		 "optdone": 1, 
		 "sigma_profile": "yes", 
		 "theory": "DFT", 
		 "functional": "B3LYP", 
		 "basiset": "6-31G**", 
		 "properties": { 
			 "R2extent": 6416.2924, 
			 "electric_dipole_moment_norm": 3.49266104997, 
			 "electric_quadrupole_moment_norm": 11.8908481274, 
			 "total_energy": -1297.34079611, 
			 "HOMO_LUMO_gap": 0.17915, 
			 "cosmo_polarized_energy": -15.12, 
			 "cosmo_cavitation_energy": 39.46, 
			 "cosmo_dispersion_energy": -28.33, 
			 "cosmo_repulsion_energy": 2.12, 
			 "cosmo_total_nonelectrostatic_energy": 13.24, 
			 "SMD_solvation_energy": 6.9 
		},
		"coords": [
			{
				"x": 2.850633607,
				"y": 2.5163884781,
				"z": -3.0859646946,
				"element": "C" 
			},
			{
				"x": 2.9960874918,
				"y": 2.1698673363,
				"z": -1.7181316776,
				"element": "O" 
			},
			{
				"x": 1.8772705459,
				"y": 1.8178250053,
				"z": -1.020840246,
				"element": "C" 
			},
			{
				"x": 0.586278133,
				"y": 1.7680622433,
				"z": -1.5520056951,
				"element": "C" 
			},
			{
				"x": -0.4880530225,
				"y": 1.3912915547,
				"z": -0.7384207846,
				"element": "C" 
			},
			{
				"x": -0.3041938655,
				"y": 1.0476507376,
				"z": 0.6035153043,
				"element": "C" 
			},
			{
				"x": 1.0022550508,
				"y": 1.115669618,
				"z": 1.121453889,
				"element": "C" 
			},
			{
				"x": 2.0760549854,
				"y": 1.4924786948,
				"z": 0.3301781001,
				"element": "C" 
			},
			{
				"x": -1.4605488921,
				"y": 0.6666670534,
				"z": 1.5143290248,
				"element": "C" 
			},
			{
				"x": -1.1528837321,
				"y": -0.8319213035,
				"z": 2.5627933478,
				"element": "S" 
			},
			{
				"x": -0.6119958184,
				"y": -2.0521402075,
				"z": 1.3882221412,
				"element": "C" 
			},
			{
				"x": 0.4993316368,
				"y": -2.8215844934,
				"z": 1.7688265521,
				"element": "C" 
			},
			{
				"x": 0.9604033189,
				"y": -3.882359443,
				"z": 0.9965896516,
				"element": "C" 
			},
			{
				"x": 0.3198657321,
				"y": -4.1723687585,
				"z": -0.2082323979,
				"element": "C" 
			},
			{
				"x": -0.7653830691,
				"y": -3.4058624017,
				"z": -0.6132233469,
				"element": "C" 
			},
			{
				"x": -1.2582165818,
				"y": -2.3469200153,
				"z": 0.1715535984,
				"element": "C" 
			},
			{
				"x": -2.4038011842,
				"y": -1.7042778766,
				"z": -0.3545991089,
				"element": "N" 
			},
			{
				"x": -3.0116798348,
				"y": -0.4747521373,
				"z": -0.2803942458,
				"element": "C" 
			},
			{
				"x": -3.8296243478,
				"y": -0.1790837259,
				"z": -1.1546390588,
				"element": "O" 
			},
			{
				"x": -2.8496346899,
				"y": 0.522582592,
				"z": 0.8786070749,
				"element": "C" 
			},
			{
				"x": -3.3057026874,
				"y": 1.7804529447,
				"z": 0.441981015,
				"element": "O" 
			},
			{
				"x": 2.4495315565,
				"y": 1.6816001047,
				"z": -3.6753289154,
				"element": "H" 
			},
			{
				"x": 3.8522334569,
				"y": 2.7594089304,
				"z": -3.4442142532,
				"element": "H" 
			},
			{
				"x": 2.1993995999,
				"y": 3.3904416825,
				"z": -3.2157153566,
				"element": "H" 
			},
			{
				"x": 0.3954783107,
				"y": 2.0266386205,
				"z": -2.5867558672,
				"element": "H" 
			},
			{
				"x": -1.4833054642,
				"y": 1.4092372307,
				"z": -1.1646173467,
				"element": "H" 
			},
			{
				"x": 1.1772131651,
				"y": 0.8565439475,
				"z": 2.1614016477,
				"element": "H" 
			},
			{
				"x": 3.0825371046,
				"y": 1.5407265584,
				"z": 0.7329467693,
				"element": "H" 
			},
			{
				"x": -1.5797402164,
				"y": 1.4403227321,
				"z": 2.2830783948,
				"element": "H" 
			},
			{
				"x": 0.9989642261,
				"y": -2.5690655423,
				"z": 2.6986946461,
				"element": "H" 
			},
			{
				"x": 1.816561425,
				"y": -4.4629901924,
				"z": 1.3246004619,
				"element": "H" 
			},
			{
				"x": 0.6658569323,
				"y": -4.9858621402,
				"z": -0.8383184818,
				"element": "H" 
			},
			{
				"x": -1.2550079705,
				"y": -3.6272912051,
				"z": -1.5586418819,
				"element": "H" 
			},
			{
				"x": -2.7658520174,
				"y": -2.1732502757,
				"z": -1.1781697817,
				"element": "H" 
			},
			{
				"x": -3.5111524939,
				"y": 0.131216525,
				"z": 1.6692581696,
				"element": "H" 
			},
			{
				"x": -3.8930803911,
				"y": 1.5797571286,
				"z": -0.3108166484,
				"element": "H" 
			}
		],
		 "valence_orbital": [ 
			{
				"type": "occ",
				"energy": -0.26806,
				"method": "rhf"
			},
			{
				"type": "occ",
				"energy": -0.24896,
				"method": "rhf"
			},
			{
				"type": "occ",
				"energy": -0.24163,
				"method": "rhf"
			},
			{
				"type": "occ",
				"energy": -0.22342,
				"method": "rhf"
			},
			{
				"type": "occ",
				"energy": -0.21337,
				"method": "rhf"
			},
			{
				"type": "unocc",
				"energy": -0.03422,
				"method": "rhf"
			},
			{
				"type": "unocc",
				"energy": -0.01867,
				"method": "rhf"
			},
			{
				"type": "unocc",
				"energy": -0.00425,
				"method": "rhf"
			},
			{
				"type": "unocc",
				"energy": 0.00329,
				"method": "rhf"
			},
			{
				"type": "unocc",
				"energy": 0.02626,
				"method": "rhf"
			}
		],
		"cosmo_sigma_profile": { 
			"-0.025": 0.0,
			"-0.024": 0.0,
			"-0.023": 0.0,
			"-0.022": 0.0,
			"-0.021": 0.0,
			"-0.02": 0.0,
			"-0.019": 0.0,
			"-0.018": 0.0,
			"-0.017": 0.0,
			"-0.016": 0.0282262168531,
			"-0.015": 0.80097993118,
			"-0.014": 1.14159358856,
			"-0.013": 0.981336216659,
			"-0.012": 1.2058086883,
			"-0.011": 1.06110989549,
			"-0.01": 1.24751702362,
			"-0.009": 2.26175866141,
			"-0.008": 3.07978751418,
			"-0.007": 7.72994222267,
			"-0.006": 18.6317931429,
			"-0.005": 27.0679013575,
			"-0.004": 26.9246598964,
			"-0.003": 24.2037677722,
			"-0.002": 18.5316366596,
			"-0.001": 20.0735971286,
			"0.0": 15.5029929477,
			"0.001": 18.926113997,
			"0.002": 20.0887211712,
			"0.003": 23.4960368068,
			"0.004": 25.4322631779,
			"0.005": 20.6757691604,
			"0.006": 7.54175092486,
			"0.007": 5.80298415195,
			"0.008": 3.94158811131,
			"0.009": 4.38168294008,
			"0.01": 4.78618474871,
			"0.011": 4.05438540585,
			"0.012": 4.03093899638,
			"0.013": 1.97642420867,
			"0.014": 0.180972044094,
			"0.015": 0.0,
			"0.016": 0.0,
			"0.017": 0.0,
			"0.018": 0.0,
			"0.019": 0.0,
			"0.02": 0.0,
			"0.021": 0.0,
			"0.022": 0.0,
			"0.023": 0.0,
			"0.024": 0.0,
			"0.025": 0.0
		}
	}
}
