{
	 "smiles": "CC12CCC3C(CC[C@@H]4CC(=O)CCC34C)[C@H]1CCC2=O", 
	 "Tm": 453.15, 
	 "num_atms": 49, 
	 "gaussian": { 
		 "optdone": 1, 
		 "sigma_profile": "yes", 
		 "theory": "DFT", 
		 "functional": "B3LYP", 
		 "basiset": "6-31G**", 
		 "properties": { 
			 "R2extent": 6363.7483, 
			 "electric_dipole_moment_norm": 5.25953669728, 
			 "electric_quadrupole_moment_norm": 14.0916489135, 
			 "total_energy": -891.363655257, 
			 "HOMO_LUMO_gap": 0.21396, 
			 "cosmo_polarized_energy": -13.29, 
			 "cosmo_cavitation_energy": 41.51, 
			 "cosmo_dispersion_energy": -29.62, 
			 "cosmo_repulsion_energy": 2.18, 
			 "cosmo_total_nonelectrostatic_energy": 14.06, 
			 "SMD_solvation_energy": 6.7 
		},
		"coords": [
			{
				"x": 2.594846642,
				"y": 3.664091651,
				"z": 0.2017921972,
				"element": "C" 
			},
			{
				"x": 2.1579872408,
				"y": 2.1775522391,
				"z": 0.304128431,
				"element": "C" 
			},
			{
				"x": 1.4444785501,
				"y": 1.7897672381,
				"z": -0.9951526368,
				"element": "C" 
			},
			{
				"x": 0.6525016788,
				"y": 0.4801532047,
				"z": -0.9202311383,
				"element": "C" 
			},
			{
				"x": -0.3252204827,
				"y": 0.472922531,
				"z": 0.2742246439,
				"element": "C" 
			},
			{
				"x": 0.4697939047,
				"y": 0.6358634588,
				"z": 1.6018517827,
				"element": "C" 
			},
			{
				"x": 1.1761582799,
				"y": -0.6895226283,
				"z": 1.9578714963,
				"element": "C" 
			},
			{
				"x": 0.1366129244,
				"y": -1.8043687751,
				"z": 2.1467949505,
				"element": "C" 
			},
			{
				"x": -0.7374226765,
				"y": -2.0434139789,
				"z": 0.8991749539,
				"element": "C" 
			},
			{
				"x": 0.0312422595,
				"y": -2.8889932014,
				"z": -0.148485427,
				"element": "C" 
			},
			{
				"x": -0.8012208793,
				"y": -3.1586511694,
				"z": -1.3868162687,
				"element": "C" 
			},
			{
				"x": -1.0006633741,
				"y": -4.2794614565,
				"z": -1.8171676617,
				"element": "O" 
			},
			{
				"x": -1.36492944,
				"y": -1.9110197573,
				"z": -2.0396401348,
				"element": "C" 
			},
			{
				"x": -2.0648733545,
				"y": -0.9829302256,
				"z": -1.0211714496,
				"element": "C" 
			},
			{
				"x": -1.3584903826,
				"y": -0.7162508961,
				"z": 0.3450114118,
				"element": "C" 
			},
			{
				"x": -2.4985294375,
				"y": -0.2765103496,
				"z": 1.3028073048,
				"element": "C" 
			},
			{
				"x": 1.339814655,
				"y": 1.9324683369,
				"z": 1.5992555121,
				"element": "C" 
			},
			{
				"x": 2.4198950673,
				"y": 1.9565343145,
				"z": 2.7210477981,
				"element": "C" 
			},
			{
				"x": 3.6913747728,
				"y": 1.3498444038,
				"z": 2.0868093818,
				"element": "C" 
			},
			{
				"x": 3.4500232347,
				"y": 1.3881844529,
				"z": 0.5710866301,
				"element": "C" 
			},
			{
				"x": 4.1623631271,
				"y": 0.8851089124,
				"z": -0.2719666307,
				"element": "O" 
			},
			{
				"x": 3.1933094618,
				"y": 3.8177370446,
				"z": -0.7016314997,
				"element": "H" 
			},
			{
				"x": 1.710674301,
				"y": 4.3079942107,
				"z": 0.1423286471,
				"element": "H" 
			},
			{
				"x": 3.1921681486,
				"y": 3.994714007,
				"z": 1.0565748229,
				"element": "H" 
			},
			{
				"x": 2.19216448,
				"y": 1.7278808488,
				"z": -1.7941700757,
				"element": "H" 
			},
			{
				"x": 0.7552114654,
				"y": 2.6016708922,
				"z": -1.2649413893,
				"element": "H" 
			},
			{
				"x": 0.1022280099,
				"y": 0.3733132347,
				"z": -1.8583478559,
				"element": "H" 
			},
			{
				"x": 1.352806654,
				"y": -0.3599423016,
				"z": -0.8716059969,
				"element": "H" 
			},
			{
				"x": -0.9408641325,
				"y": 1.3789671558,
				"z": 0.1536616531,
				"element": "H" 
			},
			{
				"x": -0.252732603,
				"y": 0.8018072337,
				"z": 2.4115811729,
				"element": "H" 
			},
			{
				"x": 1.9043394269,
				"y": -0.9761283615,
				"z": 1.1894885652,
				"element": "H" 
			},
			{
				"x": 1.7415173392,
				"y": -0.5851996422,
				"z": 2.8892909839,
				"element": "H" 
			},
			{
				"x": -0.5050354955,
				"y": -1.5403153179,
				"z": 2.9969816754,
				"element": "H" 
			},
			{
				"x": 0.6337250678,
				"y": -2.7422990109,
				"z": 2.422595949,
				"element": "H" 
			},
			{
				"x": -1.5852381273,
				"y": -2.6700235989,
				"z": 1.2113264942,
				"element": "H" 
			},
			{
				"x": 0.3225909791,
				"y": -3.8500872272,
				"z": 0.285411476,
				"element": "H" 
			},
			{
				"x": 0.9497578393,
				"y": -2.3776815486,
				"z": -0.4623131205,
				"element": "H" 
			},
			{
				"x": -0.5251372214,
				"y": -1.4014461512,
				"z": -2.5266185621,
				"element": "H" 
			},
			{
				"x": -2.0615896011,
				"y": -2.2133314121,
				"z": -2.8265121401,
				"element": "H" 
			},
			{
				"x": -3.0357715927,
				"y": -1.4422455938,
				"z": -0.797765633,
				"element": "H" 
			},
			{
				"x": -2.2964317778,
				"y": -0.0223095348,
				"z": -1.4989814635,
				"element": "H" 
			},
			{
				"x": -3.2355623841,
				"y": -1.0779554673,
				"z": 1.4194149811,
				"element": "H" 
			},
			{
				"x": -3.0216713293,
				"y": 0.5974138338,
				"z": 0.8984699947,
				"element": "H" 
			},
			{
				"x": -2.1438280911,
				"y": -0.0124236444,
				"z": 2.3014925844,
				"element": "H" 
			},
			{
				"x": 0.6393981094,
				"y": 2.7658632481,
				"z": 1.73852049,
				"element": "H" 
			},
			{
				"x": 2.605036032,
				"y": 2.9889789188,
				"z": 3.0317989154,
				"element": "H" 
			},
			{
				"x": 2.0966288738,
				"y": 1.4191308362,
				"z": 3.6169258681,
				"element": "H" 
			},
			{
				"x": 3.8685235543,
				"y": 0.3108043863,
				"z": 2.3805828385,
				"element": "H" 
			},
			{
				"x": 4.6085403034,
				"y": 1.8983446569,
				"z": 2.3272154783,
				"element": "H" 
			}
		],
		 "valence_orbital": [ 
			{
				"type": "occ",
				"energy": -0.29741,
				"method": "rhf"
			},
			{
				"type": "occ",
				"energy": -0.2862,
				"method": "rhf"
			},
			{
				"type": "occ",
				"energy": -0.28362,
				"method": "rhf"
			},
			{
				"type": "occ",
				"energy": -0.23679,
				"method": "rhf"
			},
			{
				"type": "occ",
				"energy": -0.23177,
				"method": "rhf"
			},
			{
				"type": "unocc",
				"energy": -0.01781,
				"method": "rhf"
			},
			{
				"type": "unocc",
				"energy": -0.00884,
				"method": "rhf"
			},
			{
				"type": "unocc",
				"energy": 0.05945,
				"method": "rhf"
			},
			{
				"type": "unocc",
				"energy": 0.07614,
				"method": "rhf"
			},
			{
				"type": "unocc",
				"energy": 0.08236,
				"method": "rhf"
			}
		],
		"cosmo_sigma_profile": { 
			"-0.025": 0.0,
			"-0.024": 0.0,
			"-0.023": 0.0,
			"-0.022": 0.0,
			"-0.021": 0.0,
			"-0.02": 0.0,
			"-0.019": 0.0,
			"-0.018": 0.0,
			"-0.017": 0.0,
			"-0.016": 0.0,
			"-0.015": 0.0,
			"-0.014": 0.0,
			"-0.013": 0.0,
			"-0.012": 0.0,
			"-0.011": 0.0,
			"-0.01": 0.0,
			"-0.009": 0.0,
			"-0.008": 0.0,
			"-0.007": 0.0791103008173,
			"-0.006": 3.31126531484,
			"-0.005": 10.5421439168,
			"-0.004": 22.7759306695,
			"-0.003": 46.3180497379,
			"-0.002": 60.7587705342,
			"-0.001": 55.4675579571,
			"0.0": 39.8059581221,
			"0.001": 24.0768886245,
			"0.002": 6.62002279138,
			"0.003": 4.0915927895,
			"0.004": 3.07524853301,
			"0.005": 2.92951406314,
			"0.006": 2.78870765506,
			"0.007": 3.63968293311,
			"0.008": 3.06918020933,
			"0.009": 2.87622094502,
			"0.01": 3.94720727096,
			"0.011": 5.09453560977,
			"0.012": 9.31758021536,
			"0.013": 6.34017321601,
			"0.014": 1.54601447354,
			"0.015": 0.0,
			"0.016": 0.0,
			"0.017": 0.0,
			"0.018": 0.0,
			"0.019": 0.0,
			"0.02": 0.0,
			"0.021": 0.0,
			"0.022": 0.0,
			"0.023": 0.0,
			"0.024": 0.0,
			"0.025": 0.0
		}
	}
}
