{
	 "smiles": "N#CCC1=NN=C2CCCCCN12", 
	 "Tm": 387.15, 
	 "num_atms": 25, 
	 "gaussian": { 
		 "optdone": 1, 
		 "sigma_profile": "yes", 
		 "theory": "DFT", 
		 "functional": "B3LYP", 
		 "basiset": "6-31G**", 
		 "properties": { 
			 "R2extent": 3205.2969, 
			 "electric_dipole_moment_norm": 5.35795006882, 
			 "electric_quadrupole_moment_norm": 18.2915974819, 
			 "total_energy": -569.167485178, 
			 "HOMO_LUMO_gap": 0.25519, 
			 "cosmo_polarized_energy": -20.01, 
			 "cosmo_cavitation_energy": 27.74, 
			 "cosmo_dispersion_energy": -19.81, 
			 "cosmo_repulsion_energy": 1.57, 
			 "cosmo_total_nonelectrostatic_energy": 9.5, 
			 "SMD_solvation_energy": 2.79 
		},
		"coords": [
			{
				"x": -2.0731168578,
				"y": -0.3223515545,
				"z": -4.7020089853,
				"element": "N" 
			},
			{
				"x": -2.6902388855,
				"y": -0.3126751035,
				"z": -3.7192936107,
				"element": "C" 
			},
			{
				"x": -3.4364836138,
				"y": -0.319601407,
				"z": -2.4533684223,
				"element": "C" 
			},
			{
				"x": -2.7250686041,
				"y": 0.3777374932,
				"z": -1.3293246495,
				"element": "C" 
			},
			{
				"x": -3.2336240155,
				"y": 1.3915565099,
				"z": -0.6725810402,
				"element": "N" 
			},
			{
				"x": -2.3146192008,
				"y": 1.7607190991,
				"z": 0.2826792598,
				"element": "N" 
			},
			{
				"x": -1.276647441,
				"y": 0.9583206765,
				"z": 0.1789077397,
				"element": "C" 
			},
			{
				"x": -0.0488222734,
				"y": 1.0630207971,
				"z": 1.0343422397,
				"element": "C" 
			},
			{
				"x": 1.2591274085,
				"y": 0.7780913534,
				"z": 0.2751676657,
				"element": "C" 
			},
			{
				"x": 1.5509701914,
				"y": -0.722578544,
				"z": 0.0823522018,
				"element": "C" 
			},
			{
				"x": 0.323671162,
				"y": -1.5877817298,
				"z": -0.2599779417,
				"element": "C" 
			},
			{
				"x": -0.5972201401,
				"y": -1.0130188481,
				"z": -1.3407530983,
				"element": "C" 
			},
			{
				"x": -1.4842379499,
				"y": 0.046244023,
				"z": -0.8358084324,
				"element": "N" 
			},
			{
				"x": -3.6737094697,
				"y": -1.3618249334,
				"z": -2.2006249359,
				"element": "H" 
			},
			{
				"x": -4.3873882292,
				"y": 0.2042603692,
				"z": -2.5892797137,
				"element": "H" 
			},
			{
				"x": -0.0544500021,
				"y": 2.0812321325,
				"z": 1.432219158,
				"element": "H" 
			},
			{
				"x": -0.1314750529,
				"y": 0.3950352372,
				"z": 1.9031697709,
				"element": "H" 
			},
			{
				"x": 1.2185008681,
				"y": 1.2833002062,
				"z": -0.6975712112,
				"element": "H" 
			},
			{
				"x": 2.0964826129,
				"y": 1.2334256591,
				"z": 0.8146371278,
				"element": "H" 
			},
			{
				"x": 2.3068954252,
				"y": -0.8373740517,
				"z": -0.7040143669,
				"element": "H" 
			},
			{
				"x": 1.9995839593,
				"y": -1.127459897,
				"z": 0.9977385804,
				"element": "H" 
			},
			{
				"x": 0.6693369199,
				"y": -2.5686269135,
				"z": -0.6048859431,
				"element": "H" 
			},
			{
				"x": -0.2765730305,
				"y": -1.7775053534,
				"z": 0.637649369,
				"element": "H" 
			},
			{
				"x": -1.2400272814,
				"y": -1.8073023691,
				"z": -1.7299516661,
				"element": "H" 
			},
			{
				"x": -0.0185664994,
				"y": -0.6283428517,
				"z": -2.1890190957,
				"element": "H" 
			}
		],
		 "valence_orbital": [ 
			{
				"type": "occ",
				"energy": -0.33633,
				"method": "rhf"
			},
			{
				"type": "occ",
				"energy": -0.3046,
				"method": "rhf"
			},
			{
				"type": "occ",
				"energy": -0.28976,
				"method": "rhf"
			},
			{
				"type": "occ",
				"energy": -0.25321,
				"method": "rhf"
			},
			{
				"type": "occ",
				"energy": -0.252,
				"method": "rhf"
			},
			{
				"type": "unocc",
				"energy": 0.00319,
				"method": "rhf"
			},
			{
				"type": "unocc",
				"energy": 0.02125,
				"method": "rhf"
			},
			{
				"type": "unocc",
				"energy": 0.03058,
				"method": "rhf"
			},
			{
				"type": "unocc",
				"energy": 0.04708,
				"method": "rhf"
			},
			{
				"type": "unocc",
				"energy": 0.05638,
				"method": "rhf"
			}
		],
		"cosmo_sigma_profile": { 
			"-0.025": 0.0,
			"-0.024": 0.0,
			"-0.023": 0.0,
			"-0.022": 0.0,
			"-0.021": 0.0,
			"-0.02": 0.0,
			"-0.019": 0.0,
			"-0.018": 0.0,
			"-0.017": 0.0,
			"-0.016": 0.0,
			"-0.015": 0.0,
			"-0.014": 0.0,
			"-0.013": 0.0,
			"-0.012": 0.00442154869814,
			"-0.011": 1.64831451288,
			"-0.01": 5.8103560324,
			"-0.009": 4.59288433561,
			"-0.008": 4.67303948436,
			"-0.007": 5.86629796895,
			"-0.006": 6.21397841241,
			"-0.005": 17.6005422056,
			"-0.004": 22.7630132837,
			"-0.003": 28.0823924879,
			"-0.002": 25.5426614649,
			"-0.001": 17.9986361844,
			"0.0": 10.31753976,
			"0.001": 5.1155594599,
			"0.002": 4.30570985367,
			"0.003": 4.3909203982,
			"0.004": 3.37459108743,
			"0.005": 4.11301619705,
			"0.006": 4.22244876494,
			"0.007": 4.11252348039,
			"0.008": 4.21674342699,
			"0.009": 5.60483618479,
			"0.01": 4.71224613219,
			"0.011": 4.46918399966,
			"0.012": 4.68515115765,
			"0.013": 3.96560559952,
			"0.014": 3.85312000007,
			"0.015": 2.70088131696,
			"0.016": 2.04444653669,
			"0.017": 1.6073198026,
			"0.018": 0.301450729665,
			"0.019": 0.0,
			"0.02": 0.0,
			"0.021": 0.0,
			"0.022": 0.0,
			"0.023": 0.0,
			"0.024": 0.0,
			"0.0": 0.0
		}
	}
}
