{
	 "smiles": "OC1CCN(CCCN2C3=C(SC4=C2C=C(C=C4)C#N)C=CC=C3)CC1", 
	 "Tm": 389.15, 
	 "num_atms": 49, 
	 "gaussian": { 
		 "optdone": 1, 
		 "sigma_profile": "yes", 
		 "theory": "DFT", 
		 "functional": "B3LYP", 
		 "basiset": "6-31G**", 
		 "properties": { 
			 "R2extent": 13198.526, 
			 "electric_dipole_moment_norm": 4.78056880089, 
			 "electric_quadrupole_moment_norm": 36.880665392, 
			 "total_energy": -1451.72861444, 
			 "HOMO_LUMO_gap": 0.14819, 
			 "cosmo_polarized_energy": -17.81, 
			 "cosmo_cavitation_energy": 51.87, 
			 "cosmo_dispersion_energy": -35.27, 
			 "cosmo_repulsion_energy": 2.65, 
			 "cosmo_total_nonelectrostatic_energy": 19.25, 
			 "SMD_solvation_energy": 6.75 
		},
		"coords": [
			{
				"x": 0.3091906468,
				"y": -4.0250570184,
				"z": -5.9832574876,
				"element": "O" 
			},
			{
				"x": 0.44195117,
				"y": -3.4274911364,
				"z": -4.695098118,
				"element": "C" 
			},
			{
				"x": -0.6635069198,
				"y": -2.3871362837,
				"z": -4.419803901,
				"element": "C" 
			},
			{
				"x": -0.1929542486,
				"y": -1.3199137555,
				"z": -3.4069890815,
				"element": "C" 
			},
			{
				"x": 0.8148312846,
				"y": -1.8976101166,
				"z": -2.5138233743,
				"element": "N" 
			},
			{
				"x": 1.0525762496,
				"y": -1.1129045449,
				"z": -1.3035172785,
				"element": "C" 
			},
			{
				"x": -0.0519005892,
				"y": -1.2985296131,
				"z": -0.2549615053,
				"element": "C" 
			},
			{
				"x": 0.2117715671,
				"y": -0.5217614023,
				"z": 1.0438817112,
				"element": "C" 
			},
			{
				"x": 0.1957950238,
				"y": 0.9362945425,
				"z": 0.8646589611,
				"element": "N" 
			},
			{
				"x": -0.9926957537,
				"y": 1.568439582,
				"z": 0.4152872622,
				"element": "C" 
			},
			{
				"x": -0.9111246496,
				"y": 2.8285874194,
				"z": -0.2062699843,
				"element": "C" 
			},
			{
				"x": 0.6968648833,
				"y": 3.5545950545,
				"z": -0.4715948238,
				"element": "S" 
			},
			{
				"x": 1.4694052062,
				"y": 3.0093521535,
				"z": 1.0330415627,
				"element": "C" 
			},
			{
				"x": 1.1492556711,
				"y": 1.729913843,
				"z": 1.5395169759,
				"element": "C" 
			},
			{
				"x": 1.798730665,
				"y": 1.2965849909,
				"z": 2.7015285707,
				"element": "C" 
			},
			{
				"x": 2.7848995943,
				"y": 2.0920893946,
				"z": 3.3096154508,
				"element": "C" 
			},
			{
				"x": 3.1019368174,
				"y": 3.3546993302,
				"z": 2.7893583062,
				"element": "C" 
			},
			{
				"x": 2.4224912679,
				"y": 3.8109575758,
				"z": 1.6636525048,
				"element": "C" 
			},
			{
				"x": 3.4524601313,
				"y": 1.6079564385,
				"z": 4.4823858011,
				"element": "C" 
			},
			{
				"x": 3.9936549238,
				"y": 1.2121854156,
				"z": 5.4333998453,
				"element": "N" 
			},
			{
				"x": -2.0602703752,
				"y": 3.4873098864,
				"z": -0.6440399915,
				"element": "C" 
			},
			{
				"x": -3.3109146024,
				"y": 2.883567997,
				"z": -0.5059989973,
				"element": "C" 
			},
			{
				"x": -3.403941129,
				"y": 1.6355565472,
				"z": 0.1079933232,
				"element": "C" 
			},
			{
				"x": -2.2603235283,
				"y": 0.9902155998,
				"z": 0.5811917017,
				"element": "C" 
			},
			{
				"x": 2.0680362493,
				"y": -2.1537246173,
				"z": -3.241196615,
				"element": "C" 
			},
			{
				"x": 1.8029524006,
				"y": -2.742194281,
				"z": -4.6437081892,
				"element": "C" 
			},
			{
				"x": -0.5488625555,
				"y": -4.4675578915,
				"z": -6.0158772861,
				"element": "H" 
			},
			{
				"x": 0.4085268756,
				"y": -4.2022736827,
				"z": -3.9145427763,
				"element": "H" 
			},
			{
				"x": -0.9195483697,
				"y": -1.9091862045,
				"z": -5.3724014605,
				"element": "H" 
			},
			{
				"x": -1.5651912839,
				"y": -2.8919144284,
				"z": -4.0519861445,
				"element": "H" 
			},
			{
				"x": 0.2032017964,
				"y": -0.4315622327,
				"z": -3.936772063,
				"element": "H" 
			},
			{
				"x": -1.0402055128,
				"y": -0.9662322489,
				"z": -2.8139118822,
				"element": "H" 
			},
			{
				"x": 1.9994794124,
				"y": -1.4579002461,
				"z": -0.8686450661,
				"element": "H" 
			},
			{
				"x": 1.1883092801,
				"y": -0.0388609519,
				"z": -1.5282957552,
				"element": "H" 
			},
			{
				"x": -1.0245568793,
				"y": -1.0173648675,
				"z": -0.6685910142,
				"element": "H" 
			},
			{
				"x": -0.1184456302,
				"y": -2.3630459997,
				"z": -0.0020486349,
				"element": "H" 
			},
			{
				"x": -0.4919764976,
				"y": -0.8405629687,
				"z": 1.8272376204,
				"element": "H" 
			},
			{
				"x": 1.2104976892,
				"y": -0.7838679635,
				"z": 1.399721946,
				"element": "H" 
			},
			{
				"x": 1.5495366531,
				"y": 0.3435619915,
				"z": 3.1510107652,
				"element": "H" 
			},
			{
				"x": 3.8584781638,
				"y": 3.9667763242,
				"z": 3.2669197169,
				"element": "H" 
			},
			{
				"x": 2.6404767755,
				"y": 4.7935629153,
				"z": 1.2574327049,
				"element": "H" 
			},
			{
				"x": -1.9680758339,
				"y": 4.4671394474,
				"z": -1.1027037388,
				"element": "H" 
			},
			{
				"x": -4.2006740019,
				"y": 3.3891670818,
				"z": -0.8674134018,
				"element": "H" 
			},
			{
				"x": -4.3719248739,
				"y": 1.1603905302,
				"z": 0.2359628416,
				"element": "H" 
			},
			{
				"x": -2.35860573,
				"y": 0.0325294076,
				"z": 1.0790582172,
				"element": "H" 
			},
			{
				"x": 2.6611174609,
				"y": -2.8542496762,
				"z": -2.6401724049,
				"element": "H" 
			},
			{
				"x": 2.6716024865,
				"y": -1.2316254927,
				"z": -3.344547938,
				"element": "H" 
			},
			{
				"x": 2.5890793208,
				"y": -3.4522541438,
				"z": -4.9169566867,
				"element": "H" 
			},
			{
				"x": 1.8126892984,
				"y": -1.9540517006,
				"z": -5.4059301887,
				"element": "H" 
			}
		],
		 "valence_orbital": [ 
			{
				"type": "occ",
				"energy": -0.26507,
				"method": "rhf"
			},
			{
				"type": "occ",
				"energy": -0.26135,
				"method": "rhf"
			},
			{
				"type": "occ",
				"energy": -0.23999,
				"method": "rhf"
			},
			{
				"type": "occ",
				"energy": -0.21221,
				"method": "rhf"
			},
			{
				"type": "occ",
				"energy": -0.20182,
				"method": "rhf"
			},
			{
				"type": "unocc",
				"energy": -0.05363,
				"method": "rhf"
			},
			{
				"type": "unocc",
				"energy": -0.0264,
				"method": "rhf"
			},
			{
				"type": "unocc",
				"energy": -0.0172,
				"method": "rhf"
			},
			{
				"type": "unocc",
				"energy": -0.00897,
				"method": "rhf"
			},
			{
				"type": "unocc",
				"energy": 0.02202,
				"method": "rhf"
			}
		],
		"cosmo_sigma_profile": { 
			"-0.025": 0.0,
			"-0.024": 0.0,
			"-0.023": 0.0,
			"-0.022": 0.0,
			"-0.021": 0.0,
			"-0.02": 0.0,
			"-0.019": 0.0,
			"-0.018": 0.0,
			"-0.017": 0.0,
			"-0.016": 0.0,
			"-0.015": 0.588514969545,
			"-0.014": 0.7883062997,
			"-0.013": 1.53930158281,
			"-0.012": 0.68636513394,
			"-0.011": 0.510242214418,
			"-0.01": 0.858555722806,
			"-0.009": 1.7895465984,
			"-0.008": 4.96136122311,
			"-0.007": 10.0873825221,
			"-0.006": 18.0246241644,
			"-0.005": 20.673551638,
			"-0.004": 24.624800129,
			"-0.003": 36.0174134005,
			"-0.002": 41.0303120149,
			"-0.001": 48.0360745623,
			"0.0": 42.3292952858,
			"0.001": 30.1115561615,
			"0.002": 28.4073441643,
			"0.003": 22.0122316687,
			"0.004": 18.1111465659,
			"0.005": 14.272836508,
			"0.006": 8.55093160842,
			"0.007": 5.39109164656,
			"0.008": 5.51508235992,
			"0.009": 6.11329205592,
			"0.01": 4.87166152882,
			"0.011": 4.15502544647,
			"0.012": 4.18204835444,
			"0.013": 4.25230064812,
			"0.014": 2.32554701305,
			"0.015": 0.985960723409,
			"0.016": 0.0,
			"0.017": 0.0,
			"0.018": 0.0,
			"0.019": 0.0,
			"0.02": 0.0,
			"0.021": 0.0,
			"0.022": 0.0,
			"0.023": 0.0,
			"0.024": 0.0,
			"0.025": 0.0
		}
	}
}
