{
	 "smiles": "C[C@H]1CC[C@@H]2[C@H]1C(=O)OC=C2C", 
	 "Tm": 298.15, 
	 "num_atms": 26, 
	 "gaussian": { 
		 "optdone": 1, 
		 "sigma_profile": "yes", 
		 "theory": "DFT", 
		 "functional": "B3LYP", 
		 "basiset": "6-31G**", 
		 "properties": { 
			 "R2extent": 1999.0816, 
			 "electric_dipole_moment_norm": 4.28448645347, 
			 "electric_quadrupole_moment_norm": 9.16405619909, 
			 "total_energy": -539.94776969, 
			 "HOMO_LUMO_gap": 0.22116, 
			 "cosmo_polarized_energy": -8.93, 
			 "cosmo_cavitation_energy": 26.53, 
			 "cosmo_dispersion_energy": -19.39, 
			 "cosmo_repulsion_energy": 1.53, 
			 "cosmo_total_nonelectrostatic_energy": 8.67, 
			 "SMD_solvation_energy": 5.4 
		},
		"coords": [
			{
				"x": 1.0415028894,
				"y": -1.5361111244,
				"z": -0.1819860653,
				"element": "C" 
			},
			{
				"x": 1.0753147716,
				"y": -0.2958812221,
				"z": 0.7166817673,
				"element": "C" 
			},
			{
				"x": 1.7116176083,
				"y": 0.9391465227,
				"z": 0.0340742916,
				"element": "C" 
			},
			{
				"x": 1.002138934,
				"y": 2.1465933891,
				"z": 0.6552671198,
				"element": "C" 
			},
			{
				"x": -0.4707815221,
				"y": 1.6854441666,
				"z": 0.7498155995,
				"element": "C" 
			},
			{
				"x": -0.331036165,
				"y": 0.2226192457,
				"z": 1.2496781296,
				"element": "C" 
			},
			{
				"x": -1.4720650615,
				"y": -0.7096680275,
				"z": 0.9012779863,
				"element": "C" 
			},
			{
				"x": -1.7769764476,
				"y": -1.6771813119,
				"z": 1.5541302747,
				"element": "O" 
			},
			{
				"x": -2.1610377176,
				"y": -0.4639822403,
				"z": -0.2590742757,
				"element": "O" 
			},
			{
				"x": -1.9604199454,
				"y": 0.7109929616,
				"z": -0.9636784017,
				"element": "C" 
			},
			{
				"x": -1.2119077984,
				"y": 1.7439750298,
				"z": -0.56997654,
				"element": "C" 
			},
			{
				"x": -1.1550453003,
				"y": 2.9966330038,
				"z": -1.4037096866,
				"element": "C" 
			},
			{
				"x": 0.6138980094,
				"y": -2.398326696,
				"z": 0.3373571282,
				"element": "H" 
			},
			{
				"x": 0.4511459794,
				"y": -1.3591757917,
				"z": -1.0876461483,
				"element": "H" 
			},
			{
				"x": 2.0573812316,
				"y": -1.8003005927,
				"z": -0.4945222212,
				"element": "H" 
			},
			{
				"x": 1.6662305132,
				"y": -0.5465581664,
				"z": 1.6047988201,
				"element": "H" 
			},
			{
				"x": 1.513316535,
				"y": 0.9075986621,
				"z": -1.0446543602,
				"element": "H" 
			},
			{
				"x": 2.798256434,
				"y": 0.9650640626,
				"z": 0.1636161096,
				"element": "H" 
			},
			{
				"x": 1.1315611083,
				"y": 3.0728933927,
				"z": 0.0887140494,
				"element": "H" 
			},
			{
				"x": 1.3822465162,
				"y": 2.3317816893,
				"z": 1.6675861778,
				"element": "H" 
			},
			{
				"x": -1.0166137423,
				"y": 2.3017868571,
				"z": 1.4788769937,
				"element": "H" 
			},
			{
				"x": -0.2949362768,
				"y": 0.2121902292,
				"z": 2.341367791,
				"element": "H" 
			},
			{
				"x": -2.5370325459,
				"y": 0.694753677,
				"z": -1.8819069314,
				"element": "H" 
			},
			{
				"x": -1.8314733879,
				"y": 2.9351006528,
				"z": -2.2610126318,
				"element": "H" 
			},
			{
				"x": -0.1471456455,
				"y": 3.1911807914,
				"z": -1.7895913896,
				"element": "H" 
			},
			{
				"x": -1.4427389741,
				"y": 3.8754308394,
				"z": -0.8120835864,
				"element": "H" 
			}
		],
		 "valence_orbital": [ 
			{
				"type": "occ",
				"energy": -0.32997,
				"method": "rhf"
			},
			{
				"type": "occ",
				"energy": -0.31892,
				"method": "rhf"
			},
			{
				"type": "occ",
				"energy": -0.31806,
				"method": "rhf"
			},
			{
				"type": "occ",
				"energy": -0.26377,
				"method": "rhf"
			},
			{
				"type": "occ",
				"energy": -0.23226,
				"method": "rhf"
			},
			{
				"type": "unocc",
				"energy": -0.0111,
				"method": "rhf"
			},
			{
				"type": "unocc",
				"energy": 0.04032,
				"method": "rhf"
			},
			{
				"type": "unocc",
				"energy": 0.07208,
				"method": "rhf"
			},
			{
				"type": "unocc",
				"energy": 0.08647,
				"method": "rhf"
			},
			{
				"type": "unocc",
				"energy": 0.11458,
				"method": "rhf"
			}
		],
		"cosmo_sigma_profile": { 
			"-0.025": 0.0,
			"-0.024": 0.0,
			"-0.023": 0.0,
			"-0.022": 0.0,
			"-0.021": 0.0,
			"-0.02": 0.0,
			"-0.019": 0.0,
			"-0.018": 0.0,
			"-0.017": 0.0,
			"-0.016": 0.0,
			"-0.015": 0.0,
			"-0.014": 0.0,
			"-0.013": 0.0,
			"-0.012": 0.0,
			"-0.011": 0.0,
			"-0.01": 0.0,
			"-0.009": 0.0,
			"-0.008": 0.243752140631,
			"-0.007": 2.04372014913,
			"-0.006": 2.89054610539,
			"-0.005": 7.08819169943,
			"-0.004": 20.1493552714,
			"-0.003": 26.8700087441,
			"-0.002": 28.7801478167,
			"-0.001": 30.8662036593,
			"0.0": 27.4894879495,
			"0.001": 17.6061375463,
			"0.002": 6.79817974015,
			"0.003": 4.81912566292,
			"0.004": 3.59426416898,
			"0.005": 2.75530907296,
			"0.006": 1.78726482282,
			"0.007": 1.93413660076,
			"0.008": 2.82661035352,
			"0.009": 2.83269330205,
			"0.01": 3.28803277587,
			"0.011": 4.15965487708,
			"0.012": 5.41102373389,
			"0.013": 2.13534826094,
			"0.014": 0.0650271091899,
			"0.015": 0.0,
			"0.016": 0.0,
			"0.017": 0.0,
			"0.018": 0.0,
			"0.019": 0.0,
			"0.02": 0.0,
			"0.021": 0.0,
			"0.022": 0.0,
			"0.023": 0.0,
			"0.024": 0.0,
			"0.025": 0.0
		}
	}
}
