{
	 "smiles": "CC1=C(C=NN1C1=CC=CC=C1)N=C=O", 
	 "Tm": 331.15, 
	 "num_atms": 24, 
	 "gaussian": { 
		 "optdone": 1, 
		 "sigma_profile": "yes", 
		 "theory": "DFT", 
		 "functional": "B3LYP", 
		 "basiset": "6-31G**", 
		 "properties": { 
			 "R2extent": 4953.1943, 
			 "electric_dipole_moment_norm": 3.60183190335, 
			 "electric_quadrupole_moment_norm": 14.1645759753, 
			 "total_energy": -664.052602588, 
			 "HOMO_LUMO_gap": 0.19339, 
			 "cosmo_polarized_energy": -8.8, 
			 "cosmo_cavitation_energy": 29.9, 
			 "cosmo_dispersion_energy": -21.18, 
			 "cosmo_repulsion_energy": 1.65, 
			 "cosmo_total_nonelectrostatic_energy": 10.37, 
			 "SMD_solvation_energy": 7.14 
		},
		"coords": [
			{
				"x": -2.9459567953,
				"y": 2.0691443762,
				"z": -0.6074124198,
				"element": "C" 
			},
			{
				"x": -1.7785994898,
				"y": 1.3643471788,
				"z": -1.2168784837,
				"element": "C" 
			},
			{
				"x": -1.4177568528,
				"y": 1.2900127613,
				"z": -2.5553341635,
				"element": "C" 
			},
			{
				"x": -0.1969559111,
				"y": 0.5734546989,
				"z": -2.5887583849,
				"element": "C" 
			},
			{
				"x": 0.1834166815,
				"y": 0.2222585881,
				"z": -1.3695382398,
				"element": "N" 
			},
			{
				"x": -0.7864549695,
				"y": 0.6971252991,
				"z": -0.5390428933,
				"element": "N" 
			},
			{
				"x": -0.6313375587,
				"y": 0.5068785581,
				"z": 0.863343994,
				"element": "C" 
			},
			{
				"x": -1.7293488601,
				"y": 0.2004887648,
				"z": 1.6735586743,
				"element": "C" 
			},
			{
				"x": -1.5453172728,
				"y": 0.0232066774,
				"z": 3.0455824517,
				"element": "C" 
			},
			{
				"x": -0.2726956424,
				"y": 0.1284914324,
				"z": 3.6071701586,
				"element": "C" 
			},
			{
				"x": 0.8226002054,
				"y": 0.4120089653,
				"z": 2.7870951918,
				"element": "C" 
			},
			{
				"x": 0.6495804626,
				"y": 0.6067729163,
				"z": 1.4189474648,
				"element": "C" 
			},
			{
				"x": -2.1445278007,
				"y": 1.8465896952,
				"z": -3.5959816276,
				"element": "N" 
			},
			{
				"x": -2.1243752933,
				"y": 1.96726916,
				"z": -4.7978141465,
				"element": "C" 
			},
			{
				"x": -2.2247765572,
				"y": 2.1556890023,
				"z": -5.9585661078,
				"element": "O" 
			},
			{
				"x": -2.6733715007,
				"y": 2.573025398,
				"z": 0.3241317984,
				"element": "H" 
			},
			{
				"x": -3.3123273076,
				"y": 2.8167901829,
				"z": -1.3150518027,
				"element": "H" 
			},
			{
				"x": -3.7788595732,
				"y": 1.3906705892,
				"z": -0.3888428387,
				"element": "H" 
			},
			{
				"x": 0.401885902,
				"y": 0.3061046943,
				"z": -3.4492646499,
				"element": "H" 
			},
			{
				"x": -2.7126876021,
				"y": 0.07516018,
				"z": 1.2359671673,
				"element": "H" 
			},
			{
				"x": -2.4005343691,
				"y": -0.2146175077,
				"z": 3.671131253,
				"element": "H" 
			},
			{
				"x": -0.1334381833,
				"y": -0.0159929084,
				"z": 4.6742103287,
				"element": "H" 
			},
			{
				"x": 1.8177160739,
				"y": 0.4896295147,
				"z": 3.2149392534,
				"element": "H" 
			},
			{
				"x": 1.4881222143,
				"y": 0.8260917826,
				"z": 0.7689080219,
				"element": "H" 
			}
		],
		 "valence_orbital": [ 
			{
				"type": "occ",
				"energy": -0.28603,
				"method": "rhf"
			},
			{
				"type": "occ",
				"energy": -0.2838,
				"method": "rhf"
			},
			{
				"type": "occ",
				"energy": -0.26287,
				"method": "rhf"
			},
			{
				"type": "occ",
				"energy": -0.24381,
				"method": "rhf"
			},
			{
				"type": "occ",
				"energy": -0.22084,
				"method": "rhf"
			},
			{
				"type": "unocc",
				"energy": -0.02745,
				"method": "rhf"
			},
			{
				"type": "unocc",
				"energy": -0.01388,
				"method": "rhf"
			},
			{
				"type": "unocc",
				"energy": 0.01891,
				"method": "rhf"
			},
			{
				"type": "unocc",
				"energy": 0.02201,
				"method": "rhf"
			},
			{
				"type": "unocc",
				"energy": 0.02592,
				"method": "rhf"
			}
		],
		"cosmo_sigma_profile": { 
			"-0.025": 0.0,
			"-0.024": 0.0,
			"-0.023": 0.0,
			"-0.022": 0.0,
			"-0.021": 0.0,
			"-0.02": 0.0,
			"-0.019": 0.0,
			"-0.018": 0.0,
			"-0.017": 0.0,
			"-0.016": 0.0,
			"-0.015": 0.0,
			"-0.014": 0.0,
			"-0.013": 0.0,
			"-0.012": 0.0,
			"-0.011": 0.0,
			"-0.01": 0.0,
			"-0.009": 0.238419640726,
			"-0.008": 2.53191324918,
			"-0.007": 4.72755149952,
			"-0.006": 14.7576821985,
			"-0.005": 18.7022940211,
			"-0.004": 19.2960869642,
			"-0.003": 17.996206691,
			"-0.002": 23.2371822072,
			"-0.001": 17.9665496552,
			"0.0": 17.4930774562,
			"0.001": 15.0673051881,
			"0.002": 19.3212562291,
			"0.003": 18.235724641,
			"0.004": 15.7837992044,
			"0.005": 10.5353976838,
			"0.006": 4.86963595225,
			"0.007": 6.99022419978,
			"0.008": 7.4659006324,
			"0.009": 0.753181093119,
			"0.01": 1.17879339792,
			"0.011": 1.39000569422,
			"0.012": 1.34254437758,
			"0.013": 0.503528080173,
			"0.014": 0.746450820376,
			"0.015": 0.207970741186,
			"0.016": 0.0,
			"0.017": 0.0,
			"0.018": 0.0,
			"0.019": 0.0,
			"0.02": 0.0,
			"0.021": 0.0,
			"0.022": 0.0,
			"0.023": 0.0,
			"0.024": 0.0,
			"0.025": 0.0
		}
	}
}
