{
	 "smiles": "CS(=O)(=O)C1=CC(NC(=O)CCl)=CC=C1", 
	 "Tm": 378.15, 
	 "num_atms": 25, 
	 "gaussian": { 
		 "optdone": 1, 
		 "sigma_profile": "yes", 
		 "theory": "DFT", 
		 "functional": "B3LYP", 
		 "basiset": "6-31G**", 
		 "properties": { 
			 "R2extent": 5151.873, 
			 "electric_dipole_moment_norm": 5.20112090707, 
			 "electric_quadrupole_moment_norm": 27.2868991417, 
			 "total_energy": -1487.72881647, 
			 "HOMO_LUMO_gap": 0.19534, 
			 "cosmo_polarized_energy": -25.71, 
			 "cosmo_cavitation_energy": 32.79, 
			 "cosmo_dispersion_energy": -23.58, 
			 "cosmo_repulsion_energy": 1.83, 
			 "cosmo_total_nonelectrostatic_energy": 11.04, 
			 "SMD_solvation_energy": 5.72 
		},
		"coords": [
			{
				"x": 2.3640259548,
				"y": -2.8028359845,
				"z": 0.0930862163,
				"element": "C" 
			},
			{
				"x": 0.6552980667,
				"y": -2.842224279,
				"z": -0.4985077325,
				"element": "S" 
			},
			{
				"x": 0.6488362219,
				"y": -3.5500387557,
				"z": -1.7867034088,
				"element": "O" 
			},
			{
				"x": -0.1921778286,
				"y": -3.2792421934,
				"z": 0.6220471896,
				"element": "O" 
			},
			{
				"x": 0.2788559592,
				"y": -1.1058239778,
				"z": -0.8202982289,
				"element": "C" 
			},
			{
				"x": -0.3772061357,
				"y": -0.3773770675,
				"z": 0.1713463732,
				"element": "C" 
			},
			{
				"x": -0.6719599657,
				"y": 0.9736873072,
				"z": -0.0563716757,
				"element": "C" 
			},
			{
				"x": -1.3513683752,
				"y": 1.7742540462,
				"z": 0.8857357675,
				"element": "N" 
			},
			{
				"x": -1.253432551,
				"y": 1.8898981179,
				"z": 2.2658445213,
				"element": "C" 
			},
			{
				"x": -1.9375670688,
				"y": 2.7025033578,
				"z": 2.8553841407,
				"element": "O" 
			},
			{
				"x": -0.2601197761,
				"y": 0.9602856612,
				"z": 2.968665224,
				"element": "C" 
			},
			{
				"x": 0.2846064301,
				"y": 1.6362356371,
				"z": 4.5358377296,
				"element": "Cl" 
			},
			{
				"x": -0.3366386022,
				"y": 1.5437788696,
				"z": -1.296834284,
				"element": "C" 
			},
			{
				"x": 0.2835632328,
				"y": 0.7862213914,
				"z": -2.2869008468,
				"element": "C" 
			},
			{
				"x": 0.6071192119,
				"y": -0.5523777628,
				"z": -2.0566604962,
				"element": "C" 
			},
			{
				"x": 2.6367577862,
				"y": -3.8398384379,
				"z": 0.2998433749,
				"element": "H" 
			},
			{
				"x": 2.4161356091,
				"y": -2.2081351203,
				"z": 1.0060305407,
				"element": "H" 
			},
			{
				"x": 3.0058446758,
				"y": -2.3897561385,
				"z": -0.686130052,
				"element": "H" 
			},
			{
				"x": -0.6909647322,
				"y": -0.886707483,
				"z": 1.0741726284,
				"element": "H" 
			},
			{
				"x": -1.9646653369,
				"y": 2.4888319099,
				"z": 0.5110730699,
				"element": "H" 
			},
			{
				"x": 0.6243123617,
				"y": 0.7791003523,
				"z": 2.3575983622,
				"element": "H" 
			},
			{
				"x": -0.7405871857,
				"y": 0.002382612,
				"z": 3.1819137858,
				"element": "H" 
			},
			{
				"x": -0.5681183443,
				"y": 2.5896745252,
				"z": -1.4780020893,
				"element": "H" 
			},
			{
				"x": 0.5192888427,
				"y": 1.2441220673,
				"z": -3.242486689,
				"element": "H" 
			},
			{
				"x": 1.0734615496,
				"y": -1.1626186549,
				"z": -2.8220834209,
				"element": "H" 
			}
		],
		 "valence_orbital": [ 
			{
				"type": "occ",
				"energy": -0.30594,
				"method": "rhf"
			},
			{
				"type": "occ",
				"energy": -0.30079,
				"method": "rhf"
			},
			{
				"type": "occ",
				"energy": -0.29181,
				"method": "rhf"
			},
			{
				"type": "occ",
				"energy": -0.28053,
				"method": "rhf"
			},
			{
				"type": "occ",
				"energy": -0.25594,
				"method": "rhf"
			},
			{
				"type": "unocc",
				"energy": -0.0606,
				"method": "rhf"
			},
			{
				"type": "unocc",
				"energy": -0.04465,
				"method": "rhf"
			},
			{
				"type": "unocc",
				"energy": -0.00565,
				"method": "rhf"
			},
			{
				"type": "unocc",
				"energy": 0.02537,
				"method": "rhf"
			},
			{
				"type": "unocc",
				"energy": 0.05121,
				"method": "rhf"
			}
		],
		"cosmo_sigma_profile": { 
			"-0.025": 0.0,
			"-0.024": 0.0,
			"-0.023": 0.0,
			"-0.022": 0.0,
			"-0.021": 0.0,
			"-0.02": 0.0,
			"-0.019": 0.0,
			"-0.018": 0.0,
			"-0.017": 0.0,
			"-0.016": 0.13357062133,
			"-0.015": 0.955567099922,
			"-0.014": 1.02338976223,
			"-0.013": 1.61799067652,
			"-0.012": 1.72034231187,
			"-0.011": 2.50624875049,
			"-0.01": 3.4397585944,
			"-0.009": 7.01545576857,
			"-0.008": 14.900905184,
			"-0.007": 16.8029723759,
			"-0.006": 18.1404248626,
			"-0.005": 14.0405483551,
			"-0.004": 14.354657972,
			"-0.003": 12.9022552403,
			"-0.002": 10.9433989491,
			"-0.001": 12.1305429992,
			"0.0": 12.9303295612,
			"0.001": 15.9494181136,
			"0.002": 15.3760799051,
			"0.003": 9.8130157889,
			"0.004": 7.08908658204,
			"0.005": 10.6540012301,
			"0.006": 8.77030654701,
			"0.007": 4.26796334782,
			"0.008": 4.51590193552,
			"0.009": 5.62866442334,
			"0.01": 6.71053894496,
			"0.011": 12.1483602489,
			"0.012": 13.4921304513,
			"0.013": 3.37805155532,
			"0.014": 0.523043652264,
			"0.015": 0.0,
			"0.016": 0.0,
			"0.017": 0.0,
			"0.018": 0.0,
			"0.019": 0.0,
			"0.02": 0.0,
			"0.021": 0.0,
			"0.022": 0.0,
			"0.023": 0.0,
			"0.024": 0.0,
			"0.025": 0.0
		}
	}
}
