{
	 "smiles": "COC1=COC(CCl)=CC1=O", 
	 "Tm": 390.15, 
	 "num_atms": 18, 
	 "gaussian": { 
		 "optdone": 1, 
		 "sigma_profile": "yes", 
		 "theory": "DFT", 
		 "functional": "B3LYP", 
		 "basiset": "6-31G**", 
		 "properties": { 
			 "R2extent": 2559.8451, 
			 "electric_dipole_moment_norm": 1.76383643516, 
			 "electric_quadrupole_moment_norm": 14.9921604457, 
			 "total_energy": -956.778644923, 
			 "HOMO_LUMO_gap": 0.17646, 
			 "cosmo_polarized_energy": -12.05, 
			 "cosmo_cavitation_energy": 24.45, 
			 "cosmo_dispersion_energy": -18.13, 
			 "cosmo_repulsion_energy": 1.48, 
			 "cosmo_total_nonelectrostatic_energy": 7.81, 
			 "SMD_solvation_energy": 6.34 
		},
		"coords": [
			{
				"x": -3.4513111857,
				"y": -0.8476868171,
				"z": 0.4921549776,
				"element": "C" 
			},
			{
				"x": -2.598539777,
				"y": 0.1298162547,
				"z": 1.1164391673,
				"element": "O" 
			},
			{
				"x": -1.3329969218,
				"y": 0.2465510548,
				"z": 0.6387924965,
				"element": "C" 
			},
			{
				"x": -0.8689117281,
				"y": 1.4994343343,
				"z": 0.4055360879,
				"element": "C" 
			},
			{
				"x": 0.4073488891,
				"y": 1.7791471005,
				"z": 0.0308811841,
				"element": "O" 
			},
			{
				"x": 1.2659045035,
				"y": 0.7520510867,
				"z": -0.1802111013,
				"element": "C" 
			},
			{
				"x": 2.6165318409,
				"y": 1.2186266822,
				"z": -0.6075122069,
				"element": "C" 
			},
			{
				"x": 2.618819397,
				"y": 1.8258739336,
				"z": -2.3263345702,
				"element": "Cl" 
			},
			{
				"x": 0.9007273358,
				"y": -0.5374378566,
				"z": 0.0019648151,
				"element": "C" 
			},
			{
				"x": -0.436308132,
				"y": -0.9154627849,
				"z": 0.4631262142,
				"element": "C" 
			},
			{
				"x": -0.7669137027,
				"y": -2.0814147317,
				"z": 0.686380051,
				"element": "O" 
			},
			{
				"x": -4.4097430278,
				"y": -0.7648837963,
				"z": 1.0066886009,
				"element": "H" 
			},
			{
				"x": -3.5898082925,
				"y": -0.6116666814,
				"z": -0.5702123078,
				"element": "H" 
			},
			{
				"x": -3.0388882493,
				"y": -1.8505893452,
				"z": 0.6017105285,
				"element": "H" 
			},
			{
				"x": -1.4680237577,
				"y": 2.3914840001,
				"z": 0.5331384422,
				"element": "H" 
			},
			{
				"x": 3.3359656155,
				"y": 0.4032072577,
				"z": -0.5577551958,
				"element": "H" 
			},
			{
				"x": 2.9537235161,
				"y": 2.0540062806,
				"z": 0.0075208084,
				"element": "H" 
			},
			{
				"x": 1.6147236765,
				"y": -1.335055972,
				"z": -0.1691079917,
				"element": "H" 
			}
		],
		 "valence_orbital": [ 
			{
				"type": "occ",
				"energy": -0.31612,
				"method": "rhf"
			},
			{
				"type": "occ",
				"energy": -0.31109,
				"method": "rhf"
			},
			{
				"type": "occ",
				"energy": -0.28133,
				"method": "rhf"
			},
			{
				"type": "occ",
				"energy": -0.24795,
				"method": "rhf"
			},
			{
				"type": "occ",
				"energy": -0.23701,
				"method": "rhf"
			},
			{
				"type": "unocc",
				"energy": -0.06055,
				"method": "rhf"
			},
			{
				"type": "unocc",
				"energy": -0.02751,
				"method": "rhf"
			},
			{
				"type": "unocc",
				"energy": 0.02817,
				"method": "rhf"
			},
			{
				"type": "unocc",
				"energy": 0.07264,
				"method": "rhf"
			},
			{
				"type": "unocc",
				"energy": 0.10146,
				"method": "rhf"
			}
		],
		"cosmo_sigma_profile": { 
			"-0.025": 0.0,
			"-0.024": 0.0,
			"-0.023": 0.0,
			"-0.022": 0.0,
			"-0.021": 0.0,
			"-0.02": 0.0,
			"-0.019": 0.0,
			"-0.018": 0.0,
			"-0.017": 0.0,
			"-0.016": 0.0,
			"-0.015": 0.0,
			"-0.014": 0.0,
			"-0.013": 0.0,
			"-0.012": 0.0,
			"-0.011": 0.0308418343632,
			"-0.01": 3.38819360945,
			"-0.009": 8.15166362609,
			"-0.008": 6.40406568505,
			"-0.007": 6.40481355069,
			"-0.006": 8.88827259722,
			"-0.005": 10.1170913941,
			"-0.004": 11.2643905452,
			"-0.003": 16.8573929032,
			"-0.002": 16.2097130761,
			"-0.001": 14.5536246563,
			"0.0": 12.6157675615,
			"0.001": 11.194624557,
			"0.002": 7.46523613326,
			"0.003": 8.81874307578,
			"0.004": 10.8040160925,
			"0.005": 12.4893458982,
			"0.006": 9.16866480569,
			"0.007": 3.73503022883,
			"0.008": 2.93431328749,
			"0.009": 3.06907462421,
			"0.01": 2.31259538839,
			"0.011": 2.64525462973,
			"0.012": 2.79096532599,
			"0.013": 3.62221875629,
			"0.014": 1.56116876244,
			"0.015": 0.227060405948,
			"0.016": 0.0,
			"0.017": 0.0,
			"0.018": 0.0,
			"0.019": 0.0,
			"0.02": 0.0,
			"0.021": 0.0,
			"0.022": 0.0,
			"0.023": 0.0,
			"0.024": 0.0,
			"0.025": 0.0
		}
	}
}
