{
	 "smiles": "OC1=C(C=CC=C1)C(=O)NC1CCCC1", 
	 "Tm": 349.15, 
	 "num_atms": 30, 
	 "gaussian": { 
		 "optdone": 1, 
		 "sigma_profile": "yes", 
		 "theory": "DFT", 
		 "functional": "B3LYP", 
		 "basiset": "6-31G**", 
		 "properties": { 
			 "R2extent": 3873.7849, 
			 "electric_dipole_moment_norm": 4.51795522111, 
			 "electric_quadrupole_moment_norm": 8.22247195678, 
			 "total_energy": -671.54303313, 
			 "HOMO_LUMO_gap": 0.17648, 
			 "cosmo_polarized_energy": -10.18, 
			 "cosmo_cavitation_energy": 31.04, 
			 "cosmo_dispersion_energy": -22.92, 
			 "cosmo_repulsion_energy": 1.79, 
			 "cosmo_total_nonelectrostatic_energy": 9.91, 
			 "SMD_solvation_energy": 4.83 
		},
		"coords": [
			{
				"x": -3.5853393524,
				"y": 0.9724710842,
				"z": 0.9687960269,
				"element": "O" 
			},
			{
				"x": -2.8367719967,
				"y": 1.4536645383,
				"z": -0.0303138675,
				"element": "C" 
			},
			{
				"x": -1.5586674202,
				"y": 0.9157579387,
				"z": -0.3646483403,
				"element": "C" 
			},
			{
				"x": -0.8914535274,
				"y": 1.4396195077,
				"z": -1.4897670905,
				"element": "C" 
			},
			{
				"x": -1.4208775894,
				"y": 2.4854144251,
				"z": -2.2316574421,
				"element": "C" 
			},
			{
				"x": -2.6509190797,
				"y": 3.0426147554,
				"z": -1.8529360553,
				"element": "C" 
			},
			{
				"x": -3.3500397921,
				"y": 2.5347772326,
				"z": -0.7697826299,
				"element": "C" 
			},
			{
				"x": -1.0449509767,
				"y": -0.1967011476,
				"z": 0.4718521174,
				"element": "C" 
			},
			{
				"x": -1.8206099646,
				"y": -0.8091963995,
				"z": 1.2424890627,
				"element": "O" 
			},
			{
				"x": 0.2551825754,
				"y": -0.6253617437,
				"z": 0.4387935906,
				"element": "N" 
			},
			{
				"x": 1.5165828273,
				"y": 0.0335126296,
				"z": 0.0577349153,
				"element": "C" 
			},
			{
				"x": 1.7286729345,
				"y": 1.3941341414,
				"z": 0.754152318,
				"element": "C" 
			},
			{
				"x": 2.152000426,
				"y": 1.0320903439,
				"z": 2.1960571021,
				"element": "C" 
			},
			{
				"x": 2.8268168761,
				"y": -0.3685683322,
				"z": 2.1001249803,
				"element": "C" 
			},
			{
				"x": 2.6860987159,
				"y": -0.7992567292,
				"z": 0.6171693815,
				"element": "C" 
			},
			{
				"x": -3.1080558846,
				"y": 0.1558200311,
				"z": 1.2890161346,
				"element": "H" 
			},
			{
				"x": 0.0486313588,
				"y": 1.0049867651,
				"z": -1.8026235886,
				"element": "H" 
			},
			{
				"x": -0.8874276712,
				"y": 2.8638834348,
				"z": -3.0975207567,
				"element": "H" 
			},
			{
				"x": -3.0698511906,
				"y": 3.8692032826,
				"z": -2.4203296752,
				"element": "H" 
			},
			{
				"x": -4.3152729002,
				"y": 2.9334095088,
				"z": -0.4759336834,
				"element": "H" 
			},
			{
				"x": 0.355073571,
				"y": -1.4060281236,
				"z": 1.0772726126,
				"element": "H" 
			},
			{
				"x": 1.5865053062,
				"y": 0.1056659479,
				"z": -1.0311843269,
				"element": "H" 
			},
			{
				"x": 0.8483465304,
				"y": 2.0386862128,
				"z": 0.710169434,
				"element": "H" 
			},
			{
				"x": 2.5412031572,
				"y": 1.9169098141,
				"z": 0.234650905,
				"element": "H" 
			},
			{
				"x": 1.2735116732,
				"y": 0.9859128635,
				"z": 2.8466632868,
				"element": "H" 
			},
			{
				"x": 2.8190588159,
				"y": 1.7877334101,
				"z": 2.6203126031,
				"element": "H" 
			},
			{
				"x": 3.8777429165,
				"y": -0.3442141645,
				"z": 2.4021418232,
				"element": "H" 
			},
			{
				"x": 2.3313722363,
				"y": -1.0820527253,
				"z": 2.7666831977,
				"element": "H" 
			},
			{
				"x": 2.5355129965,
				"y": -1.875747673,
				"z": 0.4825333292,
				"element": "H" 
			},
			{
				"x": 3.5880244287,
				"y": -0.5325408293,
				"z": 0.0565846354,
				"element": "H" 
			}
		],
		 "valence_orbital": [ 
			{
				"type": "occ",
				"energy": -0.32652,
				"method": "rhf"
			},
			{
				"type": "occ",
				"energy": -0.26643,
				"method": "rhf"
			},
			{
				"type": "occ",
				"energy": -0.25604,
				"method": "rhf"
			},
			{
				"type": "occ",
				"energy": -0.255,
				"method": "rhf"
			},
			{
				"type": "occ",
				"energy": -0.21666,
				"method": "rhf"
			},
			{
				"type": "unocc",
				"energy": -0.04018,
				"method": "rhf"
			},
			{
				"type": "unocc",
				"energy": 0.01053,
				"method": "rhf"
			},
			{
				"type": "unocc",
				"energy": 0.05112,
				"method": "rhf"
			},
			{
				"type": "unocc",
				"energy": 0.06197,
				"method": "rhf"
			},
			{
				"type": "unocc",
				"energy": 0.07898,
				"method": "rhf"
			}
		],
		"cosmo_sigma_profile": { 
			"-0.025": 0.0,
			"-0.024": 0.0,
			"-0.023": 0.0,
			"-0.022": 0.0,
			"-0.021": 0.0,
			"-0.02": 0.0,
			"-0.019": 0.0,
			"-0.018": 0.0,
			"-0.017": 0.0,
			"-0.016": 0.0,
			"-0.015": 0.0,
			"-0.014": 0.0,
			"-0.013": 0.0128369335378,
			"-0.012": 0.385728646861,
			"-0.011": 0.71459155385,
			"-0.01": 1.03719009179,
			"-0.009": 1.11760561362,
			"-0.008": 2.15395562692,
			"-0.007": 3.49505322118,
			"-0.006": 7.77013492482,
			"-0.005": 10.9342146909,
			"-0.004": 16.9974586098,
			"-0.003": 24.6016374641,
			"-0.002": 29.1244943406,
			"-0.001": 27.3582285096,
			"0.0": 26.2849590534,
			"0.001": 21.5467297623,
			"0.002": 13.3646662205,
			"0.003": 13.1159554417,
			"0.004": 12.8999996318,
			"0.005": 9.29716836341,
			"0.006": 2.36877541342,
			"0.007": 2.9270666011,
			"0.008": 2.24759860889,
			"0.009": 2.85713969451,
			"0.01": 2.76468399419,
			"0.011": 3.64969192393,
			"0.012": 3.44818699685,
			"0.013": 1.84755913563,
			"0.014": 0.175525694718,
			"0.015": 0.0,
			"0.016": 0.0,
			"0.017": 0.0,
			"0.018": 0.0,
			"0.019": 0.0,
			"0.02": 0.0,
			"0.021": 0.0,
			"0.022": 0.0,
			"0.023": 0.0,
			"0.024": 0.0,
			"0.025": 0.0
		}
	}
}
