{
	 "smiles": "CC1=C(N=C(N)S1)C1=CNC2=C1C=CC=N2", 
	 "Tm": 514.15, 
	 "num_atms": 26, 
	 "gaussian": { 
		 "optdone": 1, 
		 "sigma_profile": "yes", 
		 "theory": "DFT", 
		 "functional": "B3LYP", 
		 "basiset": "6-31G**", 
		 "properties": { 
			 "R2extent": 5177.6238, 
			 "electric_dipole_moment_norm": 2.3127559253, 
			 "electric_quadrupole_moment_norm": 21.7936087751, 
			 "total_energy": -1042.40146841, 
			 "HOMO_LUMO_gap": 0.16301, 
			 "cosmo_polarized_energy": -16.37, 
			 "cosmo_cavitation_energy": 31.51, 
			 "cosmo_dispersion_energy": -23.9, 
			 "cosmo_repulsion_energy": 1.81, 
			 "cosmo_total_nonelectrostatic_energy": 9.41, 
			 "SMD_solvation_energy": 2.15 
		},
		"coords": [
			{
				"x": -3.6319762046,
				"y": -1.1958545832,
				"z": 1.0825111795,
				"element": "C" 
			},
			{
				"x": -2.418186037,
				"y": -1.396283785,
				"z": 1.9367821651,
				"element": "C" 
			},
			{
				"x": -1.0949467265,
				"y": -1.1250925154,
				"z": 1.6809768979,
				"element": "C" 
			},
			{
				"x": -0.2153447484,
				"y": -1.3480193044,
				"z": 2.7391637295,
				"element": "N" 
			},
			{
				"x": -0.8328105386,
				"y": -1.8142576414,
				"z": 3.7803792602,
				"element": "C" 
			},
			{
				"x": -0.2012420888,
				"y": -2.2092872054,
				"z": 4.9418004726,
				"element": "N" 
			},
			{
				"x": -2.5725342411,
				"y": -2.0287285995,
				"z": 3.5740960319,
				"element": "S" 
			},
			{
				"x": -0.5371539272,
				"y": -0.6039186564,
				"z": 0.433036112,
				"element": "C" 
			},
			{
				"x": -1.05594586,
				"y": -0.7224525051,
				"z": -0.8427362246,
				"element": "C" 
			},
			{
				"x": -0.2374790048,
				"y": -0.0867949467,
				"z": -1.7524807575,
				"element": "N" 
			},
			{
				"x": 0.8419664619,
				"y": 0.452911236,
				"z": -1.0893691086,
				"element": "C" 
			},
			{
				"x": 0.6944697004,
				"y": 0.1430992529,
				"z": 0.2901919838,
				"element": "C" 
			},
			{
				"x": 1.7045633189,
				"y": 0.6048532505,
				"z": 1.1439352536,
				"element": "C" 
			},
			{
				"x": 2.7511633894,
				"y": 1.3226840835,
				"z": 0.5715366458,
				"element": "C" 
			},
			{
				"x": 2.771198305,
				"y": 1.560303021,
				"z": -0.8154112217,
				"element": "C" 
			},
			{
				"x": 1.8298244939,
				"y": 1.1359049569,
				"z": -1.665153531,
				"element": "N" 
			},
			{
				"x": -3.4631056263,
				"y": -0.3706618261,
				"z": 0.383394097,
				"element": "H" 
			},
			{
				"x": -4.5098877607,
				"y": -0.9462434444,
				"z": 1.6869100864,
				"element": "H" 
			},
			{
				"x": -3.8873067539,
				"y": -2.0868538822,
				"z": 0.4932094179,
				"element": "H" 
			},
			{
				"x": 0.7582784602,
				"y": -1.8900897701,
				"z": 4.985715003,
				"element": "H" 
			},
			{
				"x": -0.712193339,
				"y": -2.0677968001,
				"z": 5.8021672328,
				"element": "H" 
			},
			{
				"x": -1.9368092164,
				"y": -1.2468748541,
				"z": -1.1799490848,
				"element": "H" 
			},
			{
				"x": -0.3738401018,
				"y": -0.0358791534,
				"z": -2.7494345649,
				"element": "H" 
			},
			{
				"x": 1.6655192069,
				"y": 0.3907613714,
				"z": 2.2056418239,
				"element": "H" 
			},
			{
				"x": 3.5613914286,
				"y": 1.7023862706,
				"z": 1.1860254831,
				"element": "H" 
			},
			{
				"x": 3.5928874102,
				"y": 2.12088603,
				"z": -1.2571383828,
				"element": "H" 
			}
		],
		 "valence_orbital": [ 
			{
				"type": "occ",
				"energy": -0.26746,
				"method": "rhf"
			},
			{
				"type": "occ",
				"energy": -0.25232,
				"method": "rhf"
			},
			{
				"type": "occ",
				"energy": -0.23044,
				"method": "rhf"
			},
			{
				"type": "occ",
				"energy": -0.2233,
				"method": "rhf"
			},
			{
				"type": "occ",
				"energy": -0.18655,
				"method": "rhf"
			},
			{
				"type": "unocc",
				"energy": -0.02354,
				"method": "rhf"
			},
			{
				"type": "unocc",
				"energy": -0.0031,
				"method": "rhf"
			},
			{
				"type": "unocc",
				"energy": 0.01039,
				"method": "rhf"
			},
			{
				"type": "unocc",
				"energy": 0.02649,
				"method": "rhf"
			},
			{
				"type": "unocc",
				"energy": 0.04214,
				"method": "rhf"
			}
		],
		"cosmo_sigma_profile": { 
			"-0.025": 0.0,
			"-0.024": 0.0,
			"-0.023": 0.0,
			"-0.022": 0.0,
			"-0.021": 0.0,
			"-0.02": 0.0,
			"-0.019": 0.0,
			"-0.018": 0.0,
			"-0.017": 0.0170848276171,
			"-0.016": 0.902245159897,
			"-0.015": 1.45383898877,
			"-0.014": 2.73789080885,
			"-0.013": 3.39218280958,
			"-0.012": 2.70974835953,
			"-0.011": 3.46068087373,
			"-0.01": 5.11621265879,
			"-0.009": 3.18274139566,
			"-0.008": 4.14011641464,
			"-0.007": 4.07622992619,
			"-0.006": 7.53723047995,
			"-0.005": 11.7498018392,
			"-0.004": 15.8638714547,
			"-0.003": 14.6691614138,
			"-0.002": 13.9065688621,
			"-0.001": 15.2522304552,
			"0.0": 13.4228985207,
			"0.001": 12.2202818009,
			"0.002": 19.3098467454,
			"0.003": 26.776513737,
			"0.004": 26.9467135247,
			"0.005": 17.2841002262,
			"0.006": 6.10901118104,
			"0.007": 3.90128415493,
			"0.008": 4.13101123529,
			"0.009": 3.28717034444,
			"0.01": 2.26711132505,
			"0.011": 2.42257900042,
			"0.012": 2.17203274396,
			"0.013": 1.37841724763,
			"0.014": 0.9942217261,
			"0.015": 0.930743052367,
			"0.016": 0.590213509281,
			"0.017": 0.0108548742492,
			"0.018": 0.0,
			"0.019": 0.0,
			"0.02": 0.0,
			"0.021": 0.0,
			"0.022": 0.0,
			"0.023": 0.0,
			"0.024": 0.0,
			"0.025": 0.0
		}
	}
}
