{
	 "smiles": "COC(=O)C1=CNC2=C1C=CC=N2", 
	 "Tm": 482.15, 
	 "num_atms": 21, 
	 "gaussian": { 
		 "optdone": 1, 
		 "sigma_profile": "yes", 
		 "theory": "DFT", 
		 "functional": "B3LYP", 
		 "basiset": "6-31G**", 
		 "properties": { 
			 "R2extent": 3463.9246, 
			 "electric_dipole_moment_norm": 0.67551373043, 
			 "electric_quadrupole_moment_norm": 13.4690261589, 
			 "total_energy": -607.746939833, 
			 "HOMO_LUMO_gap": 0.18762, 
			 "cosmo_polarized_energy": -12.68, 
			 "cosmo_cavitation_energy": 25.76, 
			 "cosmo_dispersion_energy": -19.15, 
			 "cosmo_repulsion_energy": 1.5, 
			 "cosmo_total_nonelectrostatic_energy": 8.11, 
			 "SMD_solvation_energy": 4.37 
		},
		"coords": [
			{
				"x": -2.0243189796,
				"y": -2.1766839074,
				"z": 0.6762994008,
				"element": "C" 
			},
			{
				"x": -1.1126700367,
				"y": -1.3994622317,
				"z": -0.1140105431,
				"element": "O" 
			},
			{
				"x": -0.718370172,
				"y": -1.9843505345,
				"z": -1.2758350351,
				"element": "C" 
			},
			{
				"x": -1.1031775186,
				"y": -3.084618339,
				"z": -1.6291700044,
				"element": "O" 
			},
			{
				"x": 0.2086983234,
				"y": -1.1368025509,
				"z": -2.0276800507,
				"element": "C" 
			},
			{
				"x": 0.7448171022,
				"y": -1.5211133208,
				"z": -3.2416156654,
				"element": "C" 
			},
			{
				"x": 1.5727077592,
				"y": -0.5420526516,
				"z": -3.714973193,
				"element": "N" 
			},
			{
				"x": 1.5974885152,
				"y": 0.5117042658,
				"z": -2.8163099511,
				"element": "C" 
			},
			{
				"x": 0.7438438491,
				"y": 0.1707532634,
				"z": -1.7325113733,
				"element": "C" 
			},
			{
				"x": 0.6319012978,
				"y": 1.1176922289,
				"z": -0.7065500518,
				"element": "C" 
			},
			{
				"x": 1.3606067738,
				"y": 2.2964003531,
				"z": -0.840743581,
				"element": "C" 
			},
			{
				"x": 2.1708412849,
				"y": 2.5050094584,
				"z": -1.9720362657,
				"element": "C" 
			},
			{
				"x": 2.3042764161,
				"y": 1.6263641832,
				"z": -2.9719288729,
				"element": "N" 
			},
			{
				"x": -2.2375453683,
				"y": -1.5734730779,
				"z": 1.5588877897,
				"element": "H" 
			},
			{
				"x": -1.5722104005,
				"y": -3.1295237543,
				"z": 0.9635954041,
				"element": "H" 
			},
			{
				"x": -2.9430191062,
				"y": -2.3795928054,
				"z": 0.1198350061,
				"element": "H" 
			},
			{
				"x": 0.5744947437,
				"y": -2.4397936538,
				"z": -3.7832974608,
				"element": "H" 
			},
			{
				"x": 2.0937965121,
				"y": -0.5602672224,
				"z": -4.5782125089,
				"element": "H" 
			},
			{
				"x": -0.0001279416,
				"y": 0.9304022529,
				"z": 0.1542045946,
				"element": "H" 
			},
			{
				"x": 1.3114594393,
				"y": 3.0648260986,
				"z": -0.0759697069,
				"element": "H" 
			},
			{
				"x": 2.7375075067,
				"y": 3.4284819454,
				"z": -2.0702779313,
				"element": "H" 
			}
		],
		 "valence_orbital": [ 
			{
				"type": "occ",
				"energy": -0.29567,
				"method": "rhf"
			},
			{
				"type": "occ",
				"energy": -0.27516,
				"method": "rhf"
			},
			{
				"type": "occ",
				"energy": -0.26098,
				"method": "rhf"
			},
			{
				"type": "occ",
				"energy": -0.24379,
				"method": "rhf"
			},
			{
				"type": "occ",
				"energy": -0.22719,
				"method": "rhf"
			},
			{
				"type": "unocc",
				"energy": -0.03957,
				"method": "rhf"
			},
			{
				"type": "unocc",
				"energy": -0.00783,
				"method": "rhf"
			},
			{
				"type": "unocc",
				"energy": 0.01381,
				"method": "rhf"
			},
			{
				"type": "unocc",
				"energy": 0.07778,
				"method": "rhf"
			},
			{
				"type": "unocc",
				"energy": 0.10592,
				"method": "rhf"
			}
		],
		"cosmo_sigma_profile": { 
			"-0.025": 0.0,
			"-0.024": 0.0,
			"-0.023": 0.0,
			"-0.022": 0.0,
			"-0.021": 0.0,
			"-0.02": 0.0,
			"-0.019": 0.0,
			"-0.018": 0.0,
			"-0.017": 0.731509800233,
			"-0.016": 1.67921177325,
			"-0.015": 1.05696255992,
			"-0.014": 1.12054057136,
			"-0.013": 1.01892918385,
			"-0.012": 1.11427848586,
			"-0.011": 0.994850519514,
			"-0.01": 2.30301699502,
			"-0.009": 2.31538804375,
			"-0.008": 2.40025582835,
			"-0.007": 2.33606865909,
			"-0.006": 10.1216962102,
			"-0.005": 14.1363851171,
			"-0.004": 15.5874463342,
			"-0.003": 13.7736942864,
			"-0.002": 11.8253173522,
			"-0.001": 10.4950639253,
			"0.0": 12.60497631,
			"0.001": 19.1018566403,
			"0.002": 20.9665200384,
			"0.003": 19.3021989322,
			"0.004": 9.38115578939,
			"0.005": 4.91889422221,
			"0.006": 2.6080489373,
			"0.007": 3.08681009851,
			"0.008": 3.24221538388,
			"0.009": 2.42844672751,
			"0.01": 1.92199061695,
			"0.011": 3.33053328656,
			"0.012": 5.47588028607,
			"0.013": 3.28157082327,
			"0.014": 1.01578114184,
			"0.015": 0.618168624272,
			"0.016": 0.305034465909,
			"0.017": 0.0,
			"0.018": 0.0,
			"0.019": 0.0,
			"0.02": 0.0,
			"0.021": 0.0,
			"0.022": 0.0,
			"0.023": 0.0,
			"0.024": 0.0,
			"0.025": 0.0
		}
	}
}
