{
	 "smiles": "O=C1OC2=CC=CC=C2C=C1C#N", 
	 "Tm": 459.15, 
	 "num_atms": 18, 
	 "gaussian": { 
		 "optdone": 1, 
		 "sigma_profile": "yes", 
		 "theory": "DFT", 
		 "functional": "B3LYP", 
		 "basiset": "6-31G**", 
		 "properties": { 
			 "R2extent": 3034.6642, 
			 "electric_dipole_moment_norm": 7.87468841796, 
			 "electric_quadrupole_moment_norm": 22.30506706, 
			 "total_energy": -589.256811757, 
			 "HOMO_LUMO_gap": 0.15542, 
			 "cosmo_polarized_energy": -16.31, 
			 "cosmo_cavitation_energy": 24.38, 
			 "cosmo_dispersion_energy": -17.58, 
			 "cosmo_repulsion_energy": 1.37, 
			 "cosmo_total_nonelectrostatic_energy": 8.16, 
			 "SMD_solvation_energy": 6.7 
		},
		"coords": [
			{
				"x": 4.2174449893,
				"y": -0.4627948655,
				"z": -0.3954234651,
				"element": "O" 
			},
			{
				"x": 3.0831338282,
				"y": -0.2378989139,
				"z": -0.0620321361,
				"element": "C" 
			},
			{
				"x": 2.396071238,
				"y": 0.7929027721,
				"z": -0.6947769046,
				"element": "O" 
			},
			{
				"x": 1.1096464512,
				"y": 1.1350195831,
				"z": -0.3977926842,
				"element": "C" 
			},
			{
				"x": 0.5431613763,
				"y": 2.1915767373,
				"z": -1.1122015487,
				"element": "C" 
			},
			{
				"x": -0.7672365734,
				"y": 2.5651367916,
				"z": -0.8330422667,
				"element": "C" 
			},
			{
				"x": -1.5160571667,
				"y": 1.8962246776,
				"z": 0.1497261089,
				"element": "C" 
			},
			{
				"x": -0.9472070863,
				"y": 0.8477460248,
				"z": 0.8554622798,
				"element": "C" 
			},
			{
				"x": 0.3792892073,
				"y": 0.4481581895,
				"z": 0.592892456,
				"element": "C" 
			},
			{
				"x": 1.0372500375,
				"y": -0.6242011198,
				"z": 1.2781996462,
				"element": "C" 
			},
			{
				"x": 2.3240009291,
				"y": -0.9615772325,
				"z": 0.9766152255,
				"element": "C" 
			},
			{
				"x": 2.9942640142,
				"y": -2.0280486763,
				"z": 1.6504164522,
				"element": "C" 
			},
			{
				"x": 3.5115762815,
				"y": -2.9016757094,
				"z": 2.2175471895,
				"element": "N" 
			},
			{
				"x": 1.1362349593,
				"y": 2.695957611,
				"z": -1.8668658792,
				"element": "H" 
			},
			{
				"x": -1.214565957,
				"y": 3.3861865649,
				"z": -1.3848019604,
				"element": "H" 
			},
			{
				"x": -2.5369929223,
				"y": 2.2007832468,
				"z": 0.3546067164,
				"element": "H" 
			},
			{
				"x": -1.5132879705,
				"y": 0.320759068,
				"z": 1.6182828753,
				"element": "H" 
			},
			{
				"x": 0.5003743643,
				"y": -1.1727547494,
				"z": 2.0470878951,
				"element": "H" 
			}
		],
		 "valence_orbital": [ 
			{
				"type": "occ",
				"energy": -0.33861,
				"method": "rhf"
			},
			{
				"type": "occ",
				"energy": -0.33035,
				"method": "rhf"
			},
			{
				"type": "occ",
				"energy": -0.29641,
				"method": "rhf"
			},
			{
				"type": "occ",
				"energy": -0.27632,
				"method": "rhf"
			},
			{
				"type": "occ",
				"energy": -0.25746,
				"method": "rhf"
			},
			{
				"type": "unocc",
				"energy": -0.10204,
				"method": "rhf"
			},
			{
				"type": "unocc",
				"energy": -0.03503,
				"method": "rhf"
			},
			{
				"type": "unocc",
				"energy": -0.02016,
				"method": "rhf"
			},
			{
				"type": "unocc",
				"energy": 0.02047,
				"method": "rhf"
			},
			{
				"type": "unocc",
				"energy": 0.02323,
				"method": "rhf"
			}
		],
		"cosmo_sigma_profile": { 
			"-0.025": 0.0,
			"-0.024": 0.0,
			"-0.023": 0.0,
			"-0.022": 0.0,
			"-0.021": 0.0,
			"-0.02": 0.0,
			"-0.019": 0.0,
			"-0.018": 0.0,
			"-0.017": 0.0,
			"-0.016": 0.0,
			"-0.015": 0.0,
			"-0.014": 0.0,
			"-0.013": 0.0,
			"-0.012": 0.0,
			"-0.011": 1.25800203233,
			"-0.01": 3.91858143132,
			"-0.009": 2.85759586484,
			"-0.008": 6.53229145999,
			"-0.007": 11.8434526956,
			"-0.006": 13.307853979,
			"-0.005": 12.9432230861,
			"-0.004": 11.2784749789,
			"-0.003": 15.2602122222,
			"-0.002": 10.8873582969,
			"-0.001": 12.1768867596,
			"0.0": 13.0891363614,
			"0.001": 12.7194911118,
			"0.002": 12.7447750595,
			"0.003": 6.17487038416,
			"0.004": 3.6936903041,
			"0.005": 4.81708307011,
			"0.006": 6.03373607263,
			"0.007": 6.66730723004,
			"0.008": 5.61171937379,
			"0.009": 6.35392401968,
			"0.01": 7.16325820698,
			"0.011": 7.43523143681,
			"0.012": 3.45546781436,
			"0.013": 0.467387418668,
			"0.014": 0.0,
			"0.015": 0.0,
			"0.016": 0.0,
			"0.017": 0.0,
			"0.018": 0.0,
			"0.019": 0.0,
			"0.02": 0.0,
			"0.021": 0.0,
			"0.022": 0.0,
			"0.023": 0.0,
			"0.024": 0.0,
			"0.025": 0.0
		}
	}
}
