{
	 "smiles": "O=C(C(C(=O)N1CCCCC1)C1=CC=CC=C1)N1CCCCC1", 
	 "Tm": 417.5, 
	 "num_atms": 49, 
	 "gaussian": { 
		 "optdone": 1, 
		 "sigma_profile": "yes", 
		 "theory": "DFT", 
		 "functional": "B3LYP", 
		 "basiset": "6-31G**", 
		 "properties": { 
			 "R2extent": 7902.2644, 
			 "electric_dipole_moment_norm": 3.93446311712, 
			 "electric_quadrupole_moment_norm": 13.1607662653, 
			 "total_energy": -999.680156639, 
			 "HOMO_LUMO_gap": 0.20861, 
			 "cosmo_polarized_energy": -15.18, 
			 "cosmo_cavitation_energy": 46.96, 
			 "cosmo_dispersion_energy": -31.75, 
			 "cosmo_repulsion_energy": 2.46, 
			 "cosmo_total_nonelectrostatic_energy": 17.66, 
			 "SMD_solvation_energy": 6.44 
		},
		"coords": [
			{
				"x": -0.293522429,
				"y": -1.4625697108,
				"z": 1.6103489572,
				"element": "O" 
			},
			{
				"x": -0.9271627028,
				"y": -0.919190044,
				"z": 0.7038222019,
				"element": "C" 
			},
			{
				"x": -0.730481937,
				"y": 0.5731173689,
				"z": 0.3857198976,
				"element": "C" 
			},
			{
				"x": -0.3744523498,
				"y": 1.3890077064,
				"z": 1.661492844,
				"element": "C" 
			},
			{
				"x": -1.2739461048,
				"y": 2.0668475066,
				"z": 2.161406085,
				"element": "O" 
			},
			{
				"x": 0.8909793784,
				"y": 1.4179846492,
				"z": 2.1615158648,
				"element": "N" 
			},
			{
				"x": 2.0042496321,
				"y": 0.544038929,
				"z": 1.7714340335,
				"element": "C" 
			},
			{
				"x": 2.67853226,
				"y": -0.0365720618,
				"z": 3.0199023097,
				"element": "C" 
			},
			{
				"x": 3.234582441,
				"y": 1.0693525533,
				"z": 3.9520999682,
				"element": "C" 
			},
			{
				"x": 2.580842184,
				"y": 2.432762303,
				"z": 3.6526323706,
				"element": "C" 
			},
			{
				"x": 1.0934004045,
				"y": 2.2944402484,
				"z": 3.3314556849,
				"element": "C" 
			},
			{
				"x": 0.1609459199,
				"y": 0.8604640484,
				"z": -0.8231902239,
				"element": "C" 
			},
			{
				"x": 0.2112354396,
				"y": 2.1748688097,
				"z": -1.3132640201,
				"element": "C" 
			},
			{
				"x": 0.9933526836,
				"y": 2.4958720027,
				"z": -2.4214751419,
				"element": "C" 
			},
			{
				"x": 1.7378933486,
				"y": 1.5050902746,
				"z": -3.0664533047,
				"element": "C" 
			},
			{
				"x": 1.6938485872,
				"y": 0.1950771697,
				"z": -2.5902478764,
				"element": "C" 
			},
			{
				"x": 0.9120120613,
				"y": -0.1245357244,
				"z": -1.4770082854,
				"element": "C" 
			},
			{
				"x": -1.839465278,
				"y": -1.6129453054,
				"z": -0.0503407502,
				"element": "N" 
			},
			{
				"x": -2.6359174591,
				"y": -1.0872773491,
				"z": -1.1624308115,
				"element": "C" 
			},
			{
				"x": -2.4927788162,
				"y": -1.9729814114,
				"z": -2.4102257081,
				"element": "C" 
			},
			{
				"x": -2.8101101348,
				"y": -3.441515377,
				"z": -2.0975046542,
				"element": "C" 
			},
			{
				"x": -1.9657202458,
				"y": -3.9329960897,
				"z": -0.9136522319,
				"element": "C" 
			},
			{
				"x": -2.1300979944,
				"y": -3.009356103,
				"z": 0.2987643051,
				"element": "C" 
			},
			{
				"x": -1.7144764877,
				"y": 0.995099874,
				"z": 0.1682427006,
				"element": "H" 
			},
			{
				"x": 2.7290440303,
				"y": 1.103305941,
				"z": 1.1632617368,
				"element": "H" 
			},
			{
				"x": 1.6140303476,
				"y": -0.2723699174,
				"z": 1.1736178826,
				"element": "H" 
			},
			{
				"x": 3.4743180552,
				"y": -0.7218924924,
				"z": 2.7079988068,
				"element": "H" 
			},
			{
				"x": 1.9284415572,
				"y": -0.6409884518,
				"z": 3.5400450706,
				"element": "H" 
			},
			{
				"x": 3.0517540932,
				"y": 0.7936668029,
				"z": 4.9970387832,
				"element": "H" 
			},
			{
				"x": 4.3213717476,
				"y": 1.158024762,
				"z": 3.8427522437,
				"element": "H" 
			},
			{
				"x": 3.0849857169,
				"y": 2.9126285431,
				"z": 2.8047537837,
				"element": "H" 
			},
			{
				"x": 2.6971377087,
				"y": 3.1124328037,
				"z": 4.5036518395,
				"element": "H" 
			},
			{
				"x": 0.6382965241,
				"y": 3.2647964714,
				"z": 3.1148199034,
				"element": "H" 
			},
			{
				"x": 0.5481218848,
				"y": 1.885743387,
				"z": 4.1936428233,
				"element": "H" 
			},
			{
				"x": -0.3678942011,
				"y": 2.9490371334,
				"z": -0.8159095156,
				"element": "H" 
			},
			{
				"x": 1.0184954166,
				"y": 3.5197582929,
				"z": -2.783775001,
				"element": "H" 
			},
			{
				"x": 2.3455046113,
				"y": 1.7531289473,
				"z": -3.9318530618,
				"element": "H" 
			},
			{
				"x": 2.2697622165,
				"y": -0.5837739873,
				"z": -3.0822850099,
				"element": "H" 
			},
			{
				"x": 0.894639991,
				"y": -1.14821025,
				"z": -1.1143774095,
				"element": "H" 
			},
			{
				"x": -3.6928423622,
				"y": -1.0498533323,
				"z": -0.8555603743,
				"element": "H" 
			},
			{
				"x": -2.3255366023,
				"y": -0.0716602894,
				"z": -1.3994735347,
				"element": "H" 
			},
			{
				"x": -3.1558503464,
				"y": -1.5893216509,
				"z": -3.1944266814,
				"element": "H" 
			},
			{
				"x": -1.4650987923,
				"y": -1.8847080651,
				"z": -2.7840378269,
				"element": "H" 
			},
			{
				"x": -2.6385705252,
				"y": -4.0657832535,
				"z": -2.9816287173,
				"element": "H" 
			},
			{
				"x": -3.8762493294,
				"y": -3.5375147593,
				"z": -1.8467739232,
				"element": "H" 
			},
			{
				"x": -2.2503670043,
				"y": -4.9528274272,
				"z": -0.6295802152,
				"element": "H" 
			},
			{
				"x": -0.9062574741,
				"y": -3.9623612694,
				"z": -1.1992348265,
				"element": "H" 
			},
			{
				"x": -3.1657492214,
				"y": -3.0657527731,
				"z": 0.6679633917,
				"element": "H" 
			},
			{
				"x": -1.4634304432,
				"y": -3.284589433,
				"z": 1.1148256172,
				"element": "H" 
			}
		],
		 "valence_orbital": [ 
			{
				"type": "occ",
				"energy": -0.25484,
				"method": "rhf"
			},
			{
				"type": "occ",
				"energy": -0.24632,
				"method": "rhf"
			},
			{
				"type": "occ",
				"energy": -0.23749,
				"method": "rhf"
			},
			{
				"type": "occ",
				"energy": -0.22965,
				"method": "rhf"
			},
			{
				"type": "occ",
				"energy": -0.21903,
				"method": "rhf"
			},
			{
				"type": "unocc",
				"energy": -0.01042,
				"method": "rhf"
			},
			{
				"type": "unocc",
				"energy": -0.00831,
				"method": "rhf"
			},
			{
				"type": "unocc",
				"energy": 0.01645,
				"method": "rhf"
			},
			{
				"type": "unocc",
				"energy": 0.04515,
				"method": "rhf"
			},
			{
				"type": "unocc",
				"energy": 0.07806,
				"method": "rhf"
			}
		],
		"cosmo_sigma_profile": { 
			"-0.025": 0.0,
			"-0.024": 0.0,
			"-0.023": 0.0,
			"-0.022": 0.0,
			"-0.021": 0.0,
			"-0.02": 0.0,
			"-0.019": 0.0,
			"-0.018": 0.0,
			"-0.017": 0.0,
			"-0.016": 0.0,
			"-0.015": 0.0,
			"-0.014": 0.0,
			"-0.013": 0.0,
			"-0.012": 0.0,
			"-0.011": 0.0,
			"-0.01": 0.0,
			"-0.009": 0.0,
			"-0.008": 0.231285732697,
			"-0.007": 1.1672401017,
			"-0.006": 6.18848502405,
			"-0.005": 13.8718656677,
			"-0.004": 29.5634014863,
			"-0.003": 52.7943041168,
			"-0.002": 64.1684712587,
			"-0.001": 50.4906446236,
			"0.0": 40.9547844496,
			"0.001": 22.6277855677,
			"0.002": 10.6557484554,
			"0.003": 13.6325249271,
			"0.004": 11.1276286025,
			"0.005": 11.4821660192,
			"0.006": 5.33967074863,
			"0.007": 4.2124602433,
			"0.008": 3.22517382868,
			"0.009": 3.04978746713,
			"0.01": 2.85104371395,
			"0.011": 3.39765183629,
			"0.012": 2.90489812442,
			"0.013": 4.32564590884,
			"0.014": 5.30718724704,
			"0.015": 2.5817119097,
			"0.016": 0.038297398895,
			"0.017": 0.0,
			"0.018": 0.0,
			"0.019": 0.0,
			"0.02": 0.0,
			"0.021": 0.0,
			"0.022": 0.0,
			"0.023": 0.0,
			"0.024": 0.0,
			"0.025": 0.0
		}
	}
}
