{
	 "smiles": "CC(C)CCC(=O)NCCCS(N)(=O)=O", 
	 "Tm": 364.15, 
	 "num_atms": 35, 
	 "gaussian": { 
		 "optdone": 1, 
		 "sigma_profile": "yes", 
		 "theory": "DFT", 
		 "functional": "B3LYP", 
		 "basiset": "6-31G**", 
		 "properties": { 
			 "R2extent": 6100.7108, 
			 "electric_dipole_moment_norm": 5.83442804823, 
			 "electric_quadrupole_moment_norm": 24.4748463256, 
			 "total_energy": -1088.35062953, 
			 "HOMO_LUMO_gap": 0.26492, 
			 "cosmo_polarized_energy": -20.56, 
			 "cosmo_cavitation_energy": 37.51, 
			 "cosmo_dispersion_energy": -25.97, 
			 "cosmo_repulsion_energy": 2.02, 
			 "cosmo_total_nonelectrostatic_energy": 13.56, 
			 "SMD_solvation_energy": 5.45 
		},
		"coords": [
			{
				"x": 4.0483737457,
				"y": 0.2624431161,
				"z": 1.1618812796,
				"element": "C" 
			},
			{
				"x": 3.0533556461,
				"y": -0.8542298566,
				"z": 0.8099457943,
				"element": "C" 
			},
			{
				"x": 2.7707451317,
				"y": -0.8797072546,
				"z": -0.7019561575,
				"element": "C" 
			},
			{
				"x": 1.771397773,
				"y": -0.8029257936,
				"z": 1.6780356699,
				"element": "C" 
			},
			{
				"x": 1.056837793,
				"y": 0.5603536645,
				"z": 1.8399211205,
				"element": "C" 
			},
			{
				"x": 0.5172215501,
				"y": 1.1730515435,
				"z": 0.553374352,
				"element": "C" 
			},
			{
				"x": 1.1304925609,
				"y": 2.0293545142,
				"z": -0.0823767341,
				"element": "O" 
			},
			{
				"x": -0.6910672793,
				"y": 0.6771252198,
				"z": 0.1431029601,
				"element": "N" 
			},
			{
				"x": -1.3554648884,
				"y": 1.1765364129,
				"z": -1.045608831,
				"element": "C" 
			},
			{
				"x": -2.4878417208,
				"y": 2.1854801103,
				"z": -0.7749834131,
				"element": "C" 
			},
			{
				"x": -3.8241774394,
				"y": 1.6072110619,
				"z": -0.2899802606,
				"element": "C" 
			},
			{
				"x": -3.824324987,
				"y": 1.0083568554,
				"z": 1.4221618404,
				"element": "S" 
			},
			{
				"x": -5.4665720894,
				"y": 0.659881249,
				"z": 1.6496397859,
				"element": "N" 
			},
			{
				"x": -3.4483858489,
				"y": 2.1172150475,
				"z": 2.3041112258,
				"element": "O" 
			},
			{
				"x": -3.1231845675,
				"y": -0.2878745701,
				"z": 1.4864571384,
				"element": "O" 
			},
			{
				"x": 4.2591084766,
				"y": 0.2917889554,
				"z": 2.2376424181,
				"element": "H" 
			},
			{
				"x": 3.6585251628,
				"y": 1.2400744454,
				"z": 0.8611957267,
				"element": "H" 
			},
			{
				"x": 5.0003864148,
				"y": 0.1087774079,
				"z": 0.6420785457,
				"element": "H" 
			},
			{
				"x": 3.5301771977,
				"y": -1.8134392553,
				"z": 1.0608096008,
				"element": "H" 
			},
			{
				"x": 2.0624054029,
				"y": -1.6751354517,
				"z": -0.9613027026,
				"element": "H" 
			},
			{
				"x": 3.6960799238,
				"y": -1.0662765665,
				"z": -1.2588882615,
				"element": "H" 
			},
			{
				"x": 2.3626823152,
				"y": 0.0728707412,
				"z": -1.049229623,
				"element": "H" 
			},
			{
				"x": 1.0546551291,
				"y": -1.542004652,
				"z": 1.2964034901,
				"element": "H" 
			},
			{
				"x": 2.0344325553,
				"y": -1.1336452756,
				"z": 2.6912406875,
				"element": "H" 
			},
			{
				"x": 1.7393767211,
				"y": 1.2958782916,
				"z": 2.2716608296,
				"element": "H" 
			},
			{
				"x": 0.2294781417,
				"y": 0.4274793888,
				"z": 2.5479815476,
				"element": "H" 
			},
			{
				"x": -1.2068141313,
				"y": 0.0477127393,
				"z": 0.74557354,
				"element": "H" 
			},
			{
				"x": -0.5832878473,
				"y": 1.6756879877,
				"z": -1.6350132393,
				"element": "H" 
			},
			{
				"x": -1.7394349283,
				"y": 0.3319783835,
				"z": -1.6325730796,
				"element": "H" 
			},
			{
				"x": -2.713823173,
				"y": 2.7007067619,
				"z": -1.7170233006,
				"element": "H" 
			},
			{
				"x": -2.1376589175,
				"y": 2.9502333076,
				"z": -0.0744087329,
				"element": "H" 
			},
			{
				"x": -4.158259651,
				"y": 0.7603486657,
				"z": -0.8971601566,
				"element": "H" 
			},
			{
				"x": -4.6062932875,
				"y": 2.3711667442,
				"z": -0.3069954486,
				"element": "H" 
			},
			{
				"x": -5.5578161667,
				"y": -0.3060258254,
				"z": 1.954148293,
				"element": "H" 
			},
			{
				"x": -5.858224718,
				"y": 1.2994518859,
				"z": 2.3367340949,
				"element": "H" 
			}
		],
		 "valence_orbital": [ 
			{
				"type": "occ",
				"energy": -0.30863,
				"method": "rhf"
			},
			{
				"type": "occ",
				"energy": -0.30517,
				"method": "rhf"
			},
			{
				"type": "occ",
				"energy": -0.29488,
				"method": "rhf"
			},
			{
				"type": "occ",
				"energy": -0.24135,
				"method": "rhf"
			},
			{
				"type": "occ",
				"energy": -0.23293,
				"method": "rhf"
			},
			{
				"type": "unocc",
				"energy": 0.03199,
				"method": "rhf"
			},
			{
				"type": "unocc",
				"energy": 0.04239,
				"method": "rhf"
			},
			{
				"type": "unocc",
				"energy": 0.05394,
				"method": "rhf"
			},
			{
				"type": "unocc",
				"energy": 0.07305,
				"method": "rhf"
			},
			{
				"type": "unocc",
				"energy": 0.08165,
				"method": "rhf"
			}
		],
		"cosmo_sigma_profile": { 
			"-0.025": 0.0,
			"-0.024": 0.0,
			"-0.023": 0.0,
			"-0.022": 0.0,
			"-0.021": 0.0,
			"-0.02": 0.0,
			"-0.019": 0.0,
			"-0.018": 0.0,
			"-0.017": 0.0,
			"-0.016": 0.0,
			"-0.015": 1.04678128022,
			"-0.014": 2.57371491576,
			"-0.013": 2.31570511999,
			"-0.012": 2.78875956586,
			"-0.011": 1.87448643218,
			"-0.01": 2.0904798968,
			"-0.009": 2.16303749542,
			"-0.008": 6.21076761428,
			"-0.007": 6.57390951073,
			"-0.006": 9.82338950315,
			"-0.005": 13.7648716488,
			"-0.004": 16.2279282684,
			"-0.003": 20.8450393283,
			"-0.002": 32.6903766095,
			"-0.001": 32.3628705444,
			"0.0": 26.8362169644,
			"0.001": 22.5072323002,
			"0.002": 18.7080525588,
			"0.003": 10.4607611875,
			"0.004": 5.48349771233,
			"0.005": 4.76284163935,
			"0.006": 3.91385682231,
			"0.007": 4.99751410088,
			"0.008": 6.16299256717,
			"0.009": 4.19903264937,
			"0.01": 7.73537437199,
			"0.011": 9.70847401666,
			"0.012": 4.56903744504,
			"0.013": 1.75335999461,
			"0.014": 4.08090742391,
			"0.015": 1.41856864059,
			"0.016": 0.0,
			"0.017": 0.0,
			"0.018": 0.0,
			"0.019": 0.0,
			"0.02": 0.0,
			"0.021": 0.0,
			"0.022": 0.0,
			"0.023": 0.0,
			"0.024": 0.0,
			"0.025": 0.0
		}
	}
}
