{
	 "smiles": "CC(C)C1=C(O)C=CC(Br)=C1", 
	 "Tm": 322.15, 
	 "num_atms": 22, 
	 "gaussian": { 
		 "optdone": 1, 
		 "sigma_profile": "yes", 
		 "theory": "DFT", 
		 "functional": "B3LYP", 
		 "basiset": "6-31G**", 
		 "properties": { 
			 "R2extent": 4863.0453, 
			 "electric_dipole_moment_norm": 2.56024802314, 
			 "electric_quadrupole_moment_norm": 13.8466396534, 
			 "total_energy": -2996.22391888, 
			 "HOMO_LUMO_gap": 0.20548, 
			 "cosmo_polarized_energy": -8.24, 
			 "cosmo_cavitation_energy": 27.17, 
			 "cosmo_dispersion_energy": -19.9, 
			 "cosmo_repulsion_energy": 1.62, 
			 "cosmo_total_nonelectrostatic_energy": 8.89, 
			 "SMD_solvation_energy": 3.94 
		},
		"coords": [
			{
				"x": 1.9279570647,
				"y": 0.229983883,
				"z": 0.4661689745,
				"element": "C" 
			},
			{
				"x": 0.5521031396,
				"y": 0.2201556616,
				"z": -0.2267237199,
				"element": "C" 
			},
			{
				"x": 0.4039873042,
				"y": -1.0030429688,
				"z": -1.1514111616,
				"element": "C" 
			},
			{
				"x": -0.5857857516,
				"y": 0.3005356202,
				"z": 0.7841574779,
				"element": "C" 
			},
			{
				"x": -1.4778674166,
				"y": 1.3896950902,
				"z": 0.7949033082,
				"element": "C" 
			},
			{
				"x": -1.2904936052,
				"y": 2.3782399093,
				"z": -0.1350441859,
				"element": "O" 
			},
			{
				"x": -2.5187848465,
				"y": 1.453700095,
				"z": 1.7271767278,
				"element": "C" 
			},
			{
				"x": -2.6962775989,
				"y": 0.4403281338,
				"z": 2.6667040947,
				"element": "C" 
			},
			{
				"x": -1.8175924694,
				"y": -0.6384099477,
				"z": 2.6605818963,
				"element": "C" 
			},
			{
				"x": -2.0389527099,
				"y": -2.0448830221,
				"z": 3.9406370165,
				"element": "Br" 
			},
			{
				"x": -0.7792905502,
				"y": -0.7078037222,
				"z": 1.7349135402,
				"element": "C" 
			},
			{
				"x": 2.7314742817,
				"y": 0.2270022772,
				"z": -0.2784155213,
				"element": "H" 
			},
			{
				"x": 2.0495217603,
				"y": 1.1179184953,
				"z": 1.0941429207,
				"element": "H" 
			},
			{
				"x": 2.0633895207,
				"y": -0.6511344936,
				"z": 1.103274184,
				"element": "H" 
			},
			{
				"x": 0.490336018,
				"y": 1.1156687856,
				"z": -0.8511689845,
				"element": "H" 
			},
			{
				"x": 1.1998555669,
				"y": -1.0123879535,
				"z": -1.9041074006,
				"element": "H" 
			},
			{
				"x": -0.5577207075,
				"y": -0.9915317295,
				"z": -1.6734704866,
				"element": "H" 
			},
			{
				"x": 0.468194228,
				"y": -1.941637644,
				"z": -0.589684759,
				"element": "H" 
			},
			{
				"x": -1.9671761031,
				"y": 3.0563296291,
				"z": -0.0142568745,
				"element": "H" 
			},
			{
				"x": -3.1984264644,
				"y": 2.3036004679,
				"z": 1.7200750551,
				"element": "H" 
			},
			{
				"x": -3.5036895289,
				"y": 0.492732149,
				"z": 3.3877473941,
				"element": "H" 
			},
			{
				"x": -0.1092611319,
				"y": -1.5604587158,
				"z": 1.7532005038,
				"element": "H" 
			}
		],
		 "valence_orbital": [ 
			{
				"type": "occ",
				"energy": -0.32292,
				"method": "rhf"
			},
			{
				"type": "occ",
				"energy": -0.28957,
				"method": "rhf"
			},
			{
				"type": "occ",
				"energy": -0.28088,
				"method": "rhf"
			},
			{
				"type": "occ",
				"energy": -0.25371,
				"method": "rhf"
			},
			{
				"type": "occ",
				"energy": -0.21784,
				"method": "rhf"
			},
			{
				"type": "unocc",
				"energy": -0.01236,
				"method": "rhf"
			},
			{
				"type": "unocc",
				"energy": 0.00367,
				"method": "rhf"
			},
			{
				"type": "unocc",
				"energy": 0.01256,
				"method": "rhf"
			},
			{
				"type": "unocc",
				"energy": 0.06331,
				"method": "rhf"
			},
			{
				"type": "unocc",
				"energy": 0.09485,
				"method": "rhf"
			}
		],
		"cosmo_sigma_profile": { 
			"-0.025": 0.0,
			"-0.024": 0.0,
			"-0.023": 0.0,
			"-0.022": 0.0,
			"-0.021": 0.0,
			"-0.02": 0.0,
			"-0.019": 0.0,
			"-0.018": 0.626998864381,
			"-0.017": 0.976750111063,
			"-0.016": 1.1311108605,
			"-0.015": 1.26140837219,
			"-0.014": 1.11442694868,
			"-0.013": 0.67861835937,
			"-0.012": 0.941588366302,
			"-0.011": 0.69831238999,
			"-0.01": 1.16099233244,
			"-0.009": 1.30585541942,
			"-0.008": 1.1758399482,
			"-0.007": 2.85594581458,
			"-0.006": 5.53754008189,
			"-0.005": 6.90324842594,
			"-0.004": 8.30247848035,
			"-0.003": 13.8790705288,
			"-0.002": 19.2958522761,
			"-0.001": 18.645608178,
			"0.0": 21.4353634356,
			"0.001": 25.8604326535,
			"0.002": 17.4571861901,
			"0.003": 19.1575907635,
			"0.004": 21.348241362,
			"0.005": 16.0924586976,
			"0.006": 3.2790932287,
			"0.007": 1.52850619372,
			"0.008": 1.54863913999,
			"0.009": 2.10157354623,
			"0.01": 1.17765053729,
			"0.011": 0.0342968165887,
			"0.012": 0.0,
			"0.013": 0.0,
			"0.014": 0.0,
			"0.015": 0.0,
			"0.016": 0.0,
			"0.017": 0.0,
			"0.018": 0.0,
			"0.019": 0.0,
			"0.02": 0.0,
			"0.021": 0.0,
			"0.022": 0.0,
			"0.023": 0.0,
			"0.024": 0.0,
			"0.025": 0.0
		}
	}
}
