{
	 "smiles": "CC(=O)C1=C(C)N=C(NCCCC(O)=O)S1", 
	 "Tm": 414.15, 
	 "num_atms": 30, 
	 "gaussian": { 
		 "optdone": 1, 
		 "sigma_profile": "yes", 
		 "theory": "DFT", 
		 "functional": "B3LYP", 
		 "basiset": "6-31G**", 
		 "properties": { 
			 "R2extent": 5915.8926, 
			 "electric_dipole_moment_norm": 3.76767712258, 
			 "electric_quadrupole_moment_norm": 24.8316982961, 
			 "total_energy": -1122.89024454, 
			 "HOMO_LUMO_gap": 0.16307, 
			 "cosmo_polarized_energy": -21.7, 
			 "cosmo_cavitation_energy": 35.96, 
			 "cosmo_dispersion_energy": -25.27, 
			 "cosmo_repulsion_energy": 1.97, 
			 "cosmo_total_nonelectrostatic_energy": 12.66, 
			 "SMD_solvation_energy": 5.8 
		},
		"coords": [
			{
				"x": 2.1823653349,
				"y": 3.6449224097,
				"z": -2.2130016853,
				"element": "C" 
			},
			{
				"x": 2.5718626814,
				"y": 2.7144482565,
				"z": -1.0752319708,
				"element": "C" 
			},
			{
				"x": 3.537318518,
				"y": 2.9792349065,
				"z": -0.3605084564,
				"element": "O" 
			},
			{
				"x": 1.7968059627,
				"y": 1.5014104436,
				"z": -0.8309406269,
				"element": "C" 
			},
			{
				"x": 0.684585791,
				"y": 0.9207051348,
				"z": -1.4174661502,
				"element": "C" 
			},
			{
				"x": -0.1026361293,
				"y": 1.4379789423,
				"z": -2.5920131107,
				"element": "C" 
			},
			{
				"x": 0.2540203217,
				"y": -0.253592026,
				"z": -0.8570015667,
				"element": "N" 
			},
			{
				"x": 1.0239039135,
				"y": -0.603925575,
				"z": 0.1559877024,
				"element": "C" 
			},
			{
				"x": 0.8348677243,
				"y": -1.7462854959,
				"z": 0.8633494734,
				"element": "N" 
			},
			{
				"x": -0.3112873046,
				"y": -2.6211846768,
				"z": 0.6357512086,
				"element": "C" 
			},
			{
				"x": -1.6007784336,
				"y": -2.1107805844,
				"z": 1.2987871788,
				"element": "C" 
			},
			{
				"x": -2.8043503222,
				"y": -3.0562236007,
				"z": 1.0903883102,
				"element": "C" 
			},
			{
				"x": -3.1914303367,
				"y": -3.1589813047,
				"z": -0.3690245652,
				"element": "C" 
			},
			{
				"x": -4.0963106195,
				"y": -2.2141500122,
				"z": -0.720371956,
				"element": "O" 
			},
			{
				"x": -2.7375008861,
				"y": -3.9551346466,
				"z": -1.1628434625,
				"element": "O" 
			},
			{
				"x": 2.3468928199,
				"y": 0.4926945758,
				"z": 0.5161556095,
				"element": "S" 
			},
			{
				"x": 1.1635540282,
				"y": 4.0255205454,
				"z": -2.0865838554,
				"element": "H" 
			},
			{
				"x": 2.2230927995,
				"y": 3.1316498836,
				"z": -3.179329794,
				"element": "H" 
			},
			{
				"x": 2.8822099115,
				"y": 4.4813933915,
				"z": -2.2189736139,
				"element": "H" 
			},
			{
				"x": 0.5168246055,
				"y": 1.5328503006,
				"z": -3.4892895116,
				"element": "H" 
			},
			{
				"x": -0.540068333,
				"y": 2.4210586484,
				"z": -2.3906429821,
				"element": "H" 
			},
			{
				"x": -0.9110870489,
				"y": 0.7367528925,
				"z": -2.8032246473,
				"element": "H" 
			},
			{
				"x": 1.3715182271,
				"y": -1.8700471858,
				"z": 1.7078931348,
				"element": "H" 
			},
			{
				"x": -0.4506312316,
				"y": -2.7173821391,
				"z": -0.44272618,
				"element": "H" 
			},
			{
				"x": -0.0499141549,
				"y": -3.6125295428,
				"z": 1.02112821,
				"element": "H" 
			},
			{
				"x": -1.834682438,
				"y": -1.1188719877,
				"z": 0.8994114904,
				"element": "H" 
			},
			{
				"x": -1.4355177251,
				"y": -1.9963700029,
				"z": 2.3767134738,
				"element": "H" 
			},
			{
				"x": -2.5564832188,
				"y": -4.0651476474,
				"z": 1.4337961155,
				"element": "H" 
			},
			{
				"x": -3.6583631062,
				"y": -2.6897004112,
				"z": 1.6660819413,
				"element": "H" 
			},
			{
				"x": -4.2458813508,
				"y": -2.3247134918,
				"z": -1.6747697137,
				"element": "H" 
			}
		],
		 "valence_orbital": [ 
			{
				"type": "occ",
				"energy": -0.28367,
				"method": "rhf"
			},
			{
				"type": "occ",
				"energy": -0.27726,
				"method": "rhf"
			},
			{
				"type": "occ",
				"energy": -0.27281,
				"method": "rhf"
			},
			{
				"type": "occ",
				"energy": -0.23642,
				"method": "rhf"
			},
			{
				"type": "occ",
				"energy": -0.20847,
				"method": "rhf"
			},
			{
				"type": "unocc",
				"energy": -0.0454,
				"method": "rhf"
			},
			{
				"type": "unocc",
				"energy": 0.00022,
				"method": "rhf"
			},
			{
				"type": "unocc",
				"energy": 0.01094,
				"method": "rhf"
			},
			{
				"type": "unocc",
				"energy": 0.03041,
				"method": "rhf"
			},
			{
				"type": "unocc",
				"energy": 0.06962,
				"method": "rhf"
			}
		],
		"cosmo_sigma_profile": { 
			"-0.025": 0.0,
			"-0.024": 0.0,
			"-0.023": 0.0,
			"-0.022": 0.0,
			"-0.021": 0.0,
			"-0.02": 0.0,
			"-0.019": 0.00746877291603,
			"-0.018": 0.641740886853,
			"-0.017": 0.739908799101,
			"-0.016": 1.29115803402,
			"-0.015": 2.49686467682,
			"-0.014": 2.04346509783,
			"-0.013": 1.85286463602,
			"-0.012": 1.98314394119,
			"-0.011": 1.7608187174,
			"-0.01": 2.01324048404,
			"-0.009": 2.38580723745,
			"-0.008": 1.41923077482,
			"-0.007": 4.81954519475,
			"-0.006": 14.0944968172,
			"-0.005": 19.2149288387,
			"-0.004": 21.6386169807,
			"-0.003": 22.4231318073,
			"-0.002": 23.5964825839,
			"-0.001": 23.9001348813,
			"0.0": 20.1438875793,
			"0.001": 15.7629516466,
			"0.002": 13.9907317666,
			"0.003": 14.8923051143,
			"0.004": 12.9574807311,
			"0.005": 9.76019899155,
			"0.006": 6.17437735342,
			"0.007": 5.99149562419,
			"0.008": 4.78451141927,
			"0.009": 6.18824721664,
			"0.01": 5.73621231649,
			"0.011": 5.67134289036,
			"0.012": 7.90735779411,
			"0.013": 5.4041509017,
			"0.014": 1.43089658738,
			"0.015": 0.0679827346353,
			"0.016": 0.0,
			"0.017": 0.0,
			"0.018": 0.0,
			"0.019": 0.0,
			"0.02": 0.0,
			"0.021": 0.0,
			"0.022": 0.0,
			"0.023": 0.0,
			"0.024": 0.0,
			"0.025": 0.0
		}
	}
}
