{
	 "smiles": "CN(C(=O)C1=CC=C(Cl)C=C1)C1=CC=C(O)C=C1", 
	 "Tm": 479.15, 
	 "num_atms": 30, 
	 "gaussian": { 
		 "optdone": 1, 
		 "sigma_profile": "yes", 
		 "theory": "DFT", 
		 "functional": "B3LYP", 
		 "basiset": "6-31G**", 
		 "properties": { 
			 "R2extent": 5878.4419, 
			 "electric_dipole_moment_norm": 4.61917036815, 
			 "electric_quadrupole_moment_norm": 16.2506998686, 
			 "total_energy": -1206.11894587, 
			 "HOMO_LUMO_gap": 0.18014, 
			 "cosmo_polarized_energy": -15.34, 
			 "cosmo_cavitation_energy": 36.15, 
			 "cosmo_dispersion_energy": -25.24, 
			 "cosmo_repulsion_energy": 1.97, 
			 "cosmo_total_nonelectrostatic_energy": 12.88, 
			 "SMD_solvation_energy": 6.78 
		},
		"coords": [
			{
				"x": -2.8644108939,
				"y": -2.9061878969,
				"z": 0.0256528141,
				"element": "C" 
			},
			{
				"x": -1.8172982537,
				"y": -1.8758877078,
				"z": 0.0343994773,
				"element": "N" 
			},
			{
				"x": -1.4158499616,
				"y": -1.4145877717,
				"z": -1.2091379538,
				"element": "C" 
			},
			{
				"x": -1.9558653594,
				"y": -1.8217498542,
				"z": -2.2353382726,
				"element": "O" 
			},
			{
				"x": -0.2647300398,
				"y": -0.4493912297,
				"z": -1.30387172,
				"element": "C" 
			},
			{
				"x": -0.2541302677,
				"y": 0.4106844679,
				"z": -2.4110733332,
				"element": "C" 
			},
			{
				"x": 0.8027428782,
				"y": 1.2906990521,
				"z": -2.6261886191,
				"element": "C" 
			},
			{
				"x": 1.8760908188,
				"y": 1.287870221,
				"z": -1.734870982,
				"element": "C" 
			},
			{
				"x": 3.220623177,
				"y": 2.3880444508,
				"z": -1.9983862701,
				"element": "Cl" 
			},
			{
				"x": 1.9050614161,
				"y": 0.4213272781,
				"z": -0.642637511,
				"element": "C" 
			},
			{
				"x": 0.8306112233,
				"y": -0.4406573806,
				"z": -0.4294750468,
				"element": "C" 
			},
			{
				"x": -1.6481988764,
				"y": -1.1404856772,
				"z": 1.2526379692,
				"element": "C" 
			},
			{
				"x": -1.1206587041,
				"y": -1.7750571842,
				"z": 2.3828969874,
				"element": "C" 
			},
			{
				"x": -0.9873324918,
				"y": -1.087805397,
				"z": 3.5879349479,
				"element": "C" 
			},
			{
				"x": -1.3731389481,
				"y": 0.2550024687,
				"z": 3.6738921928,
				"element": "C" 
			},
			{
				"x": -1.261132084,
				"y": 0.9855441214,
				"z": 4.8207975011,
				"element": "O" 
			},
			{
				"x": -1.9027013205,
				"y": 0.8973327925,
				"z": 2.5488546168,
				"element": "C" 
			},
			{
				"x": -2.0499867141,
				"y": 0.1986855152,
				"z": 1.355123873,
				"element": "C" 
			},
			{
				"x": -3.8587047679,
				"y": -2.46535758,
				"z": -0.1180844756,
				"element": "H" 
			},
			{
				"x": -2.6777174138,
				"y": -3.5999664276,
				"z": -0.7934091006,
				"element": "H" 
			},
			{
				"x": -2.8481361231,
				"y": -3.4368302803,
				"z": 0.9789155274,
				"element": "H" 
			},
			{
				"x": -1.084166764,
				"y": 0.3686389337,
				"z": -3.1079494521,
				"element": "H" 
			},
			{
				"x": 0.8025963848,
				"y": 1.9636028459,
				"z": -3.4764361702,
				"element": "H" 
			},
			{
				"x": 2.7564549617,
				"y": 0.4211284027,
				"z": 0.0287524971,
				"element": "H" 
			},
			{
				"x": 0.8577123742,
				"y": -1.1140113476,
				"z": 0.4190562883,
				"element": "H" 
			},
			{
				"x": -0.805009654,
				"y": -2.8120406839,
				"z": 2.3148889789,
				"element": "H" 
			},
			{
				"x": -0.5748447708,
				"y": -1.5936996213,
				"z": 4.4582584206,
				"element": "H" 
			},
			{
				"x": -0.8872109682,
				"y": 0.4317255075,
				"z": 5.5183088052,
				"element": "H" 
			},
			{
				"x": -2.2042437998,
				"y": 1.9360540325,
				"z": 2.6315395264,
				"element": "H" 
			},
			{
				"x": -2.4763250573,
				"y": 0.6955759498,
				"z": 0.4894484836,
				"element": "H" 
			}
		],
		 "valence_orbital": [ 
			{
				"type": "occ",
				"energy": -0.26908,
				"method": "rhf"
			},
			{
				"type": "occ",
				"energy": -0.26371,
				"method": "rhf"
			},
			{
				"type": "occ",
				"energy": -0.25412,
				"method": "rhf"
			},
			{
				"type": "occ",
				"energy": -0.24173,
				"method": "rhf"
			},
			{
				"type": "occ",
				"energy": -0.22084,
				"method": "rhf"
			},
			{
				"type": "unocc",
				"energy": -0.0407,
				"method": "rhf"
			},
			{
				"type": "unocc",
				"energy": -0.01993,
				"method": "rhf"
			},
			{
				"type": "unocc",
				"energy": -0.01346,
				"method": "rhf"
			},
			{
				"type": "unocc",
				"energy": -0.00175,
				"method": "rhf"
			},
			{
				"type": "unocc",
				"energy": 0.03009,
				"method": "rhf"
			}
		],
		"cosmo_sigma_profile": { 
			"-0.025": 0.0,
			"-0.024": 0.0,
			"-0.023": 0.0,
			"-0.022": 0.0,
			"-0.021": 0.0,
			"-0.02": 0.0,
			"-0.019": 0.0,
			"-0.018": 0.443254621364,
			"-0.017": 1.13687122583,
			"-0.016": 1.47727047901,
			"-0.015": 0.675884000418,
			"-0.014": 1.0462655685,
			"-0.013": 1.1728398928,
			"-0.012": 0.309352322601,
			"-0.011": 1.44586791012,
			"-0.01": 1.47926974509,
			"-0.009": 1.1359642136,
			"-0.008": 1.61564778061,
			"-0.007": 6.67527002523,
			"-0.006": 15.5224889549,
			"-0.005": 19.9373234723,
			"-0.004": 19.5708714557,
			"-0.003": 19.9951694279,
			"-0.002": 21.3003462686,
			"-0.001": 20.093856366,
			"0.0": 18.4766472959,
			"0.001": 20.8344663467,
			"0.002": 24.916551034,
			"0.003": 28.9605035356,
			"0.004": 25.3864404464,
			"0.005": 9.72103604905,
			"0.006": 2.52689031693,
			"0.007": 3.31276903051,
			"0.008": 3.41175504274,
			"0.009": 2.65061449945,
			"0.01": 2.93220934007,
			"0.011": 3.98056037876,
			"0.012": 2.29610843066,
			"0.013": 4.53938771182,
			"0.014": 2.07240664437,
			"0.015": 0.0143246324208,
			"0.016": 0.0,
			"0.017": 0.0,
			"0.018": 0.0,
			"0.019": 0.0,
			"0.02": 0.0,
			"0.021": 0.0,
			"0.022": 0.0,
			"0.023": 0.0,
			"0.024": 0.0,
			"0.025": 0.0
		}
	}
}
