{
	 "smiles": "CCN1N=C(C=CC1=O)C(O)=O", 
	 "Tm": 477.15, 
	 "num_atms": 20, 
	 "gaussian": { 
		 "optdone": 1, 
		 "sigma_profile": "yes", 
		 "theory": "DFT", 
		 "functional": "B3LYP", 
		 "basiset": "6-31G**", 
		 "properties": { 
			 "R2extent": 2366.7579, 
			 "electric_dipole_moment_norm": 2.80735247876, 
			 "electric_quadrupole_moment_norm": 18.5802064553, 
			 "total_energy": -606.737902386, 
			 "HOMO_LUMO_gap": 0.16815, 
			 "cosmo_polarized_energy": -14.4, 
			 "cosmo_cavitation_energy": 24.82, 
			 "cosmo_dispersion_energy": -18.03, 
			 "cosmo_repulsion_energy": 1.45, 
			 "cosmo_total_nonelectrostatic_energy": 8.24, 
			 "SMD_solvation_energy": 5.78 
		},
		"coords": [
			{
				"x": 0.3089057965,
				"y": 3.67195432,
				"z": -0.7748823885,
				"element": "C" 
			},
			{
				"x": 0.4815235051,
				"y": 2.5286788718,
				"z": -1.7748920567,
				"element": "C" 
			},
			{
				"x": 0.0728108615,
				"y": 1.2304729843,
				"z": -1.2112153179,
				"element": "N" 
			},
			{
				"x": 1.0379084552,
				"y": 0.4897812594,
				"z": -0.6722864172,
				"element": "N" 
			},
			{
				"x": 0.7262889911,
				"y": -0.6666105464,
				"z": -0.1353368674,
				"element": "C" 
			},
			{
				"x": -0.6106806497,
				"y": -1.1668037036,
				"z": -0.1024764574,
				"element": "C" 
			},
			{
				"x": -1.5978012375,
				"y": -0.4098595272,
				"z": -0.645713589,
				"element": "C" 
			},
			{
				"x": -1.3084239466,
				"y": 0.8873897931,
				"z": -1.2374358087,
				"element": "C" 
			},
			{
				"x": -2.123831295,
				"y": 1.6583778463,
				"z": -1.7282521598,
				"element": "O" 
			},
			{
				"x": 1.8595368316,
				"y": -1.4568990756,
				"z": 0.4493125791,
				"element": "C" 
			},
			{
				"x": 3.0695322803,
				"y": -0.878494102,
				"z": 0.3509573947,
				"element": "O" 
			},
			{
				"x": 1.6907044446,
				"y": -2.5353648269,
				"z": 0.9707519938,
				"element": "O" 
			},
			{
				"x": -0.7410770586,
				"y": 3.7759481298,
				"z": -0.4917516369,
				"element": "H" 
			},
			{
				"x": 0.6364876125,
				"y": 4.6117165568,
				"z": -1.2297117711,
				"element": "H" 
			},
			{
				"x": 0.9068057861,
				"y": 3.4989427058,
				"z": 0.1249919175,
				"element": "H" 
			},
			{
				"x": -0.1385598867,
				"y": 2.6947736098,
				"z": -2.6574629626,
				"element": "H" 
			},
			{
				"x": 1.5236942758,
				"y": 2.4143318836,
				"z": -2.0783453176,
				"element": "H" 
			},
			{
				"x": -0.7890856469,
				"y": -2.1338340372,
				"z": 0.35457919,
				"element": "H" 
			},
			{
				"x": -2.636787763,
				"y": -0.7193233457,
				"z": -0.6594228286,
				"element": "H" 
			},
			{
				"x": 2.9538486436,
				"y": -0.0237787962,
				"z": -0.1036074955,
				"element": "H" 
			}
		],
		 "valence_orbital": [ 
			{
				"type": "occ",
				"energy": -0.33321,
				"method": "rhf"
			},
			{
				"type": "occ",
				"energy": -0.31801,
				"method": "rhf"
			},
			{
				"type": "occ",
				"energy": -0.28756,
				"method": "rhf"
			},
			{
				"type": "occ",
				"energy": -0.26979,
				"method": "rhf"
			},
			{
				"type": "occ",
				"energy": -0.25696,
				"method": "rhf"
			},
			{
				"type": "unocc",
				"energy": -0.08881,
				"method": "rhf"
			},
			{
				"type": "unocc",
				"energy": -0.04916,
				"method": "rhf"
			},
			{
				"type": "unocc",
				"energy": 0.04485,
				"method": "rhf"
			},
			{
				"type": "unocc",
				"energy": 0.08327,
				"method": "rhf"
			},
			{
				"type": "unocc",
				"energy": 0.09592,
				"method": "rhf"
			}
		],
		"cosmo_sigma_profile": { 
			"-0.025": 0.0,
			"-0.024": 0.0,
			"-0.023": 0.0,
			"-0.022": 0.0,
			"-0.021": 0.0,
			"-0.02": 0.0,
			"-0.019": 0.0,
			"-0.018": 0.0,
			"-0.017": 0.0,
			"-0.016": 0.0,
			"-0.015": 0.227685963527,
			"-0.014": 0.635820394985,
			"-0.013": 0.366598650312,
			"-0.012": 0.694666471655,
			"-0.011": 1.05832864426,
			"-0.01": 0.780404485262,
			"-0.009": 1.64897686177,
			"-0.008": 4.26699280249,
			"-0.007": 5.85960745802,
			"-0.006": 7.85541433117,
			"-0.005": 14.463700351,
			"-0.004": 21.2064427423,
			"-0.003": 23.9478785316,
			"-0.002": 20.174960582,
			"-0.001": 18.1671679723,
			"0.0": 14.7475803383,
			"0.001": 5.11668340239,
			"0.002": 3.65066641164,
			"0.003": 3.86729839901,
			"0.004": 4.2426557842,
			"0.005": 2.50533872806,
			"0.006": 3.71154971172,
			"0.007": 3.71922903077,
			"0.008": 5.54822881124,
			"0.009": 5.34875009175,
			"0.01": 6.08744574417,
			"0.011": 6.60873535243,
			"0.012": 6.08784899626,
			"0.013": 4.57773286063,
			"0.014": 0.697095015771,
			"0.015": 0.0,
			"0.016": 0.0,
			"0.017": 0.0,
			"0.018": 0.0,
			"0.019": 0.0,
			"0.02": 0.0,
			"0.021": 0.0,
			"0.022": 0.0,
			"0.023": 0.0,
			"0.024": 0.0,
			"0.025": 0.0
		}
	}
}
