{
	 "smiles": "COC(=O)C1=CN=C(C=C1)C(O)=O", 
	 "Tm": 461.15, 
	 "num_atms": 20, 
	 "gaussian": { 
		 "optdone": 1, 
		 "sigma_profile": "yes", 
		 "theory": "DFT", 
		 "functional": "B3LYP", 
		 "basiset": "6-31G**", 
		 "properties": { 
			 "R2extent": 3644.4207, 
			 "electric_dipole_moment_norm": 5.43672228645, 
			 "electric_quadrupole_moment_norm": 19.180491665, 
			 "total_energy": -664.738252208, 
			 "HOMO_LUMO_gap": 0.18224, 
			 "cosmo_polarized_energy": -13.16, 
			 "cosmo_cavitation_energy": 25.77, 
			 "cosmo_dispersion_energy": -19.08, 
			 "cosmo_repulsion_energy": 1.51, 
			 "cosmo_total_nonelectrostatic_energy": 8.19, 
			 "SMD_solvation_energy": 6.68 
		},
		"coords": [
			{
				"x": 3.2117718735,
				"y": -1.2775966859,
				"z": -0.026917576,
				"element": "C" 
			},
			{
				"x": 2.082535152,
				"y": -0.422723085,
				"z": 0.2308909105,
				"element": "O" 
			},
			{
				"x": 0.9906971184,
				"y": -0.668862119,
				"z": -0.5199443247,
				"element": "C" 
			},
			{
				"x": 0.9310587562,
				"y": -1.5419722285,
				"z": -1.3620878394,
				"element": "O" 
			},
			{
				"x": -0.1352815777,
				"y": 0.2552232665,
				"z": -0.1954087422,
				"element": "C" 
			},
			{
				"x": -1.3347874417,
				"y": 0.1061855589,
				"z": -0.9066537337,
				"element": "C" 
			},
			{
				"x": -2.3999390839,
				"y": 0.8793163233,
				"z": -0.6939691409,
				"element": "N" 
			},
			{
				"x": -2.3078492474,
				"y": 1.8372564641,
				"z": 0.243198681,
				"element": "C" 
			},
			{
				"x": -1.1621049043,
				"y": 2.0669820894,
				"z": 1.0041219729,
				"element": "C" 
			},
			{
				"x": -0.0528219082,
				"y": 1.2575419961,
				"z": 0.7785722681,
				"element": "C" 
			},
			{
				"x": -3.5463583791,
				"y": 2.6809767431,
				"z": 0.4388673102,
				"element": "C" 
			},
			{
				"x": -4.5621981409,
				"y": 2.3383630959,
				"z": -0.3647095336,
				"element": "O" 
			},
			{
				"x": -3.6068161914,
				"y": 3.5787083734,
				"z": 1.2480521755,
				"element": "O" 
			},
			{
				"x": 3.9921456052,
				"y": -0.9444895641,
				"z": 0.6562385663,
				"element": "H" 
			},
			{
				"x": 3.5374335113,
				"y": -1.1765590738,
				"z": -1.0648172556,
				"element": "H" 
			},
			{
				"x": 2.9511333288,
				"y": -2.3213619034,
				"z": 0.16315036,
				"element": "H" 
			},
			{
				"x": -1.4145021424,
				"y": -0.6667397808,
				"z": -1.6654083018,
				"element": "H" 
			},
			{
				"x": -1.1675632929,
				"y": 2.8608126995,
				"z": 1.7417994469,
				"element": "H" 
			},
			{
				"x": 0.8644804203,
				"y": 1.3910455158,
				"z": 1.3407065806,
				"element": "H" 
			},
			{
				"x": -4.2413334559,
				"y": 1.5890923145,
				"z": -0.910481824,
				"element": "H" 
			}
		],
		 "valence_orbital": [ 
			{
				"type": "occ",
				"energy": -0.31511,
				"method": "rhf"
			},
			{
				"type": "occ",
				"energy": -0.31199,
				"method": "rhf"
			},
			{
				"type": "occ",
				"energy": -0.29474,
				"method": "rhf"
			},
			{
				"type": "occ",
				"energy": -0.29033,
				"method": "rhf"
			},
			{
				"type": "occ",
				"energy": -0.2733,
				"method": "rhf"
			},
			{
				"type": "unocc",
				"energy": -0.09106,
				"method": "rhf"
			},
			{
				"type": "unocc",
				"energy": -0.05261,
				"method": "rhf"
			},
			{
				"type": "unocc",
				"energy": -0.00265,
				"method": "rhf"
			},
			{
				"type": "unocc",
				"energy": 0.06935,
				"method": "rhf"
			},
			{
				"type": "unocc",
				"energy": 0.08449,
				"method": "rhf"
			}
		],
		"cosmo_sigma_profile": { 
			"-0.025": 0.0,
			"-0.024": 0.0,
			"-0.023": 0.0,
			"-0.022": 0.0,
			"-0.021": 0.0,
			"-0.02": 0.0,
			"-0.019": 0.0,
			"-0.018": 0.0,
			"-0.017": 0.0,
			"-0.016": 0.0,
			"-0.015": 0.0,
			"-0.014": 0.0,
			"-0.013": 0.361150285829,
			"-0.012": 0.75544791634,
			"-0.011": 0.410668061665,
			"-0.01": 0.689259950195,
			"-0.009": 1.16276231387,
			"-0.008": 4.4631602408,
			"-0.007": 6.86960994809,
			"-0.006": 12.8032317093,
			"-0.005": 14.7714905674,
			"-0.004": 19.7379587583,
			"-0.003": 18.7727327397,
			"-0.002": 23.5383267197,
			"-0.001": 17.4716011056,
			"0.0": 10.8637635066,
			"0.001": 8.57689529779,
			"0.002": 6.86519513519,
			"0.003": 6.7583474967,
			"0.004": 7.12051397235,
			"0.005": 5.75831695816,
			"0.006": 3.50381839037,
			"0.007": 3.63797162421,
			"0.008": 4.8344550921,
			"0.009": 6.13007616004,
			"0.01": 7.44337233156,
			"0.011": 9.22910537385,
			"0.012": 3.78769586668,
			"0.013": 0.680231393618,
			"0.014": 0.0,
			"0.015": 0.0,
			"0.016": 0.0,
			"0.017": 0.0,
			"0.018": 0.0,
			"0.019": 0.0,
			"0.02": 0.0,
			"0.021": 0.0,
			"0.022": 0.0,
			"0.023": 0.0,
			"0.024": 0.0,
			"0.025": 0.0
		}
	}
}
