{
	 "smiles": "OCC1=C(CN2CCOCC2)C=CC=C1", 
	 "Tm": 332.15, 
	 "num_atms": 32, 
	 "gaussian": { 
		 "optdone": 1, 
		 "sigma_profile": "yes", 
		 "theory": "DFT", 
		 "functional": "B3LYP", 
		 "basiset": "6-31G**", 
		 "properties": { 
			 "R2extent": 3828.2949, 
			 "electric_dipole_moment_norm": 0.907216809809, 
			 "electric_quadrupole_moment_norm": 15.3381677889, 
			 "total_energy": -672.689975902, 
			 "HOMO_LUMO_gap": 0.20722, 
			 "cosmo_polarized_energy": -11.05, 
			 "cosmo_cavitation_energy": 32.81, 
			 "cosmo_dispersion_energy": -23.28, 
			 "cosmo_repulsion_energy": 1.83, 
			 "cosmo_total_nonelectrostatic_energy": 11.36, 
			 "SMD_solvation_energy": 4.75 
		},
		"coords": [
			{
				"x": 0.3260647411,
				"y": -0.874107443,
				"z": -2.4976400992,
				"element": "O" 
			},
			{
				"x": -0.2430284457,
				"y": -1.6645291644,
				"z": -1.444606692,
				"element": "C" 
			},
			{
				"x": -1.5804754887,
				"y": -1.078420876,
				"z": -1.0554390561,
				"element": "C" 
			},
			{
				"x": -1.673189695,
				"y": 0.1779243047,
				"z": -0.4159599566,
				"element": "C" 
			},
			{
				"x": -0.4356665991,
				"y": 0.9960539471,
				"z": -0.0952818235,
				"element": "C" 
			},
			{
				"x": 0.3994150026,
				"y": 0.3972256077,
				"z": 0.9551572685,
				"element": "N" 
			},
			{
				"x": -0.2512335779,
				"y": 0.3883951071,
				"z": 2.2673337505,
				"element": "C" 
			},
			{
				"x": 0.6543177847,
				"y": -0.2944355506,
				"z": 3.2890196487,
				"element": "C" 
			},
			{
				"x": 1.9212270162,
				"y": 0.3458283618,
				"z": 3.3708755436,
				"element": "O" 
			},
			{
				"x": 2.5617095328,
				"y": 0.3580147418,
				"z": 2.103390791,
				"element": "C" 
			},
			{
				"x": 1.7026653577,
				"y": 1.0571550212,
				"z": 1.0515923884,
				"element": "C" 
			},
			{
				"x": -2.9378399776,
				"y": 0.6780728989,
				"z": -0.0903967963,
				"element": "C" 
			},
			{
				"x": -4.1024437742,
				"y": -0.0385588407,
				"z": -0.3768992617,
				"element": "C" 
			},
			{
				"x": -4.0092080285,
				"y": -1.2788907259,
				"z": -1.0026616563,
				"element": "C" 
			},
			{
				"x": -2.7519737682,
				"y": -1.7855188259,
				"z": -1.3396619301,
				"element": "C" 
			},
			{
				"x": 1.2426872167,
				"y": -1.1579577274,
				"z": -2.6071124511,
				"element": "H" 
			},
			{
				"x": -0.3866482995,
				"y": -2.7042061177,
				"z": -1.7752425036,
				"element": "H" 
			},
			{
				"x": 0.4160164355,
				"y": -1.6671144343,
				"z": -0.567108599,
				"element": "H" 
			},
			{
				"x": 0.1803650328,
				"y": 1.0639332329,
				"z": -0.9968012875,
				"element": "H" 
			},
			{
				"x": -0.7429613415,
				"y": 2.0238400194,
				"z": 0.1764653864,
				"element": "H" 
			},
			{
				"x": -1.2006180024,
				"y": -0.1516114917,
				"z": 2.1953663358,
				"element": "H" 
			},
			{
				"x": -0.4742636852,
				"y": 1.4171937923,
				"z": 2.6136982889,
				"element": "H" 
			},
			{
				"x": 0.7815641989,
				"y": -1.3543565867,
				"z": 3.0133905905,
				"element": "H" 
			},
			{
				"x": 0.2142990694,
				"y": -0.243707332,
				"z": 4.2893121537,
				"element": "H" 
			},
			{
				"x": 3.5119060876,
				"y": 0.8837054503,
				"z": 2.2375137035,
				"element": "H" 
			},
			{
				"x": 2.7729860306,
				"y": -0.6731487263,
				"z": 1.7739664904,
				"element": "H" 
			},
			{
				"x": 1.6017185359,
				"y": 2.1264619088,
				"z": 1.3229288718,
				"element": "H" 
			},
			{
				"x": 2.2006356489,
				"y": 1.0081225841,
				"z": 0.0757417298,
				"element": "H" 
			},
			{
				"x": -3.0097404141,
				"y": 1.6480699088,
				"z": 0.3959654184,
				"element": "H" 
			},
			{
				"x": -5.0723823725,
				"y": 0.3728926244,
				"z": -0.1121870949,
				"element": "H" 
			},
			{
				"x": -4.9051439988,
				"y": -1.8475680042,
				"z": -1.2346430542,
				"element": "H" 
			},
			{
				"x": -2.6767602226,
				"y": -2.7482576645,
				"z": -1.839376098,
				"element": "H" 
			}
		],
		 "valence_orbital": [ 
			{
				"type": "occ",
				"energy": -0.26897,
				"method": "rhf"
			},
			{
				"type": "occ",
				"energy": -0.25131,
				"method": "rhf"
			},
			{
				"type": "occ",
				"energy": -0.2463,
				"method": "rhf"
			},
			{
				"type": "occ",
				"energy": -0.24007,
				"method": "rhf"
			},
			{
				"type": "occ",
				"energy": -0.21684,
				"method": "rhf"
			},
			{
				"type": "unocc",
				"energy": -0.00962,
				"method": "rhf"
			},
			{
				"type": "unocc",
				"energy": 0.00225,
				"method": "rhf"
			},
			{
				"type": "unocc",
				"energy": 0.0763,
				"method": "rhf"
			},
			{
				"type": "unocc",
				"energy": 0.09785,
				"method": "rhf"
			},
			{
				"type": "unocc",
				"energy": 0.10426,
				"method": "rhf"
			}
		],
		"cosmo_sigma_profile": { 
			"-0.025": 0.0,
			"-0.024": 0.0,
			"-0.023": 0.0,
			"-0.022": 0.0,
			"-0.021": 0.0,
			"-0.02": 0.0,
			"-0.019": 0.0,
			"-0.018": 0.0,
			"-0.017": 0.0,
			"-0.016": 0.313858260505,
			"-0.015": 0.829167590271,
			"-0.014": 1.10605263185,
			"-0.013": 1.08184694198,
			"-0.012": 0.80512363146,
			"-0.011": 0.434409695562,
			"-0.01": 1.0531551359,
			"-0.009": 0.996262450724,
			"-0.008": 0.415631972275,
			"-0.007": 0.477006804444,
			"-0.006": 3.4940815271,
			"-0.005": 15.2420870706,
			"-0.004": 22.7284983744,
			"-0.003": 31.6606232683,
			"-0.002": 37.2594604548,
			"-0.001": 28.3124192146,
			"0.0": 18.0517961922,
			"0.001": 13.1730805442,
			"0.002": 11.7878406107,
			"0.003": 10.9000502167,
			"0.004": 10.6126851443,
			"0.005": 11.129197888,
			"0.006": 10.490334001,
			"0.007": 4.42287921249,
			"0.008": 3.51923594768,
			"0.009": 2.7082633147,
			"0.01": 2.13189714871,
			"0.011": 2.44798298515,
			"0.012": 2.14833532928,
			"0.013": 3.55077189082,
			"0.014": 2.28023698892,
			"0.015": 0.619769539453,
			"0.016": 0.0,
			"0.017": 0.0,
			"0.018": 0.0,
			"0.019": 0.0,
			"0.02": 0.0,
			"0.021": 0.0,
			"0.022": 0.0,
			"0.023": 0.0,
			"0.024": 0.0,
			"0.025": 0.0
		}
	}
}
