{
	 "smiles": "NC1=C(CN2CCOCC2)C(=O)OC2=CC=CC=C12", 
	 "Tm": 465.15, 
	 "num_atms": 35, 
	 "gaussian": { 
		 "optdone": 1, 
		 "sigma_profile": "yes", 
		 "theory": "DFT", 
		 "functional": "B3LYP", 
		 "basiset": "6-31G**", 
		 "properties": { 
			 "R2extent": 6572.9028, 
			 "electric_dipole_moment_norm": 6.19461475638, 
			 "electric_quadrupole_moment_norm": 10.7719577473, 
			 "total_energy": -878.287087538, 
			 "HOMO_LUMO_gap": 0.14327, 
			 "cosmo_polarized_energy": -20.12, 
			 "cosmo_cavitation_energy": 35.98, 
			 "cosmo_dispersion_energy": -26.72, 
			 "cosmo_repulsion_energy": 2.02, 
			 "cosmo_total_nonelectrostatic_energy": 11.29, 
			 "SMD_solvation_energy": 4.42 
		},
		"coords": [
			{
				"x": 0.5347517095,
				"y": 0.1010809639,
				"z": 1.5906849492,
				"element": "N" 
			},
			{
				"x": -0.7847501487,
				"y": 0.3560106221,
				"z": 1.2887668084,
				"element": "C" 
			},
			{
				"x": -1.1724947637,
				"y": 1.1085403861,
				"z": 0.2014367526,
				"element": "C" 
			},
			{
				"x": -0.2003514608,
				"y": 1.7877635049,
				"z": -0.7575332748,
				"element": "C" 
			},
			{
				"x": 0.1633813106,
				"y": 1.0868671585,
				"z": -1.9849380018,
				"element": "N" 
			},
			{
				"x": 0.8866267904,
				"y": -0.1700255341,
				"z": -1.7988625842,
				"element": "C" 
			},
			{
				"x": 0.9285280243,
				"y": -0.9481387783,
				"z": -3.1294188817,
				"element": "C" 
			},
			{
				"x": 1.014132191,
				"y": -0.0720344164,
				"z": -4.2345862148,
				"element": "O" 
			},
			{
				"x": -0.1518485097,
				"y": 0.74533306,
				"z": -4.3648191486,
				"element": "C" 
			},
			{
				"x": -0.8596615179,
				"y": 0.9841773376,
				"z": -3.0189649641,
				"element": "C" 
			},
			{
				"x": -2.5795079044,
				"y": 1.3600339275,
				"z": -0.0567461885,
				"element": "C" 
			},
			{
				"x": -3.0283973333,
				"y": 2.0301504097,
				"z": -0.9648583822,
				"element": "O" 
			},
			{
				"x": -3.5138511849,
				"y": 0.8210910322,
				"z": 0.8326715298,
				"element": "O" 
			},
			{
				"x": -3.144885131,
				"y": 0.0413222378,
				"z": 1.8814704845,
				"element": "C" 
			},
			{
				"x": -4.174059216,
				"y": -0.4718474811,
				"z": 2.6773920294,
				"element": "C" 
			},
			{
				"x": -3.8616580089,
				"y": -1.2932362286,
				"z": 3.7527844006,
				"element": "C" 
			},
			{
				"x": -2.5259607003,
				"y": -1.6148225758,
				"z": 4.0319345915,
				"element": "C" 
			},
			{
				"x": -1.5100634638,
				"y": -1.0990125537,
				"z": 3.2386219541,
				"element": "C" 
			},
			{
				"x": -1.7965543454,
				"y": -0.2445485216,
				"z": 2.1559816972,
				"element": "C" 
			},
			{
				"x": 0.764753291,
				"y": -0.039532358,
				"z": 2.5625976399,
				"element": "H" 
			},
			{
				"x": 1.2306744539,
				"y": 0.6213832989,
				"z": 1.0787541414,
				"element": "H" 
			},
			{
				"x": 0.7349246266,
				"y": 2.024782827,
				"z": -0.2285714491,
				"element": "H" 
			},
			{
				"x": -0.6424096769,
				"y": 2.7444169127,
				"z": -1.0484818959,
				"element": "H" 
			},
			{
				"x": 0.4305764738,
				"y": -0.8250365969,
				"z": -1.0341475853,
				"element": "H" 
			},
			{
				"x": 1.9082868639,
				"y": 0.0628050512,
				"z": -1.4631083474,
				"element": "H" 
			},
			{
				"x": 0.0437706111,
				"y": -1.5999028978,
				"z": -3.2135906833,
				"element": "H" 
			},
			{
				"x": 1.8112710727,
				"y": -1.5930912937,
				"z": -3.1652541458,
				"element": "H" 
			},
			{
				"x": 0.1970971111,
				"y": 1.6952597325,
				"z": -4.7822838635,
				"element": "H" 
			},
			{
				"x": -0.8558583398,
				"y": 0.2907712484,
				"z": -5.080703873,
				"element": "H" 
			},
			{
				"x": -1.5966935045,
				"y": 0.1859180684,
				"z": -2.8190185709,
				"element": "H" 
			},
			{
				"x": -1.4306114682,
				"y": 1.9143910529,
				"z": -3.0572337977,
				"element": "H" 
			},
			{
				"x": -5.1979353594,
				"y": -0.2164334886,
				"z": 2.427276012,
				"element": "H" 
			},
			{
				"x": -4.6586604612,
				"y": -1.694292463,
				"z": 4.3714856874,
				"element": "H" 
			},
			{
				"x": -2.2844426907,
				"y": -2.2731472772,
				"z": 4.860185549,
				"element": "H" 
			},
			{
				"x": -0.4843193404,
				"y": -1.3884963675,
				"z": 3.4438776257,
				"element": "H" 
			}
		],
		 "valence_orbital": [ 
			{
				"type": "occ",
				"energy": -0.26637,
				"method": "rhf"
			},
			{
				"type": "occ",
				"energy": -0.24904,
				"method": "rhf"
			},
			{
				"type": "occ",
				"energy": -0.23849,
				"method": "rhf"
			},
			{
				"type": "occ",
				"energy": -0.22623,
				"method": "rhf"
			},
			{
				"type": "occ",
				"energy": -0.1993,
				"method": "rhf"
			},
			{
				"type": "unocc",
				"energy": -0.05603,
				"method": "rhf"
			},
			{
				"type": "unocc",
				"energy": -0.01369,
				"method": "rhf"
			},
			{
				"type": "unocc",
				"energy": 0.0099,
				"method": "rhf"
			},
			{
				"type": "unocc",
				"energy": 0.05145,
				"method": "rhf"
			},
			{
				"type": "unocc",
				"energy": 0.07489,
				"method": "rhf"
			}
		],
		"cosmo_sigma_profile": { 
			"-0.025": 0.0,
			"-0.024": 0.0,
			"-0.023": 0.0,
			"-0.022": 0.0,
			"-0.021": 0.0,
			"-0.02": 0.0,
			"-0.019": 0.0,
			"-0.018": 0.0,
			"-0.017": 0.0,
			"-0.016": 0.0,
			"-0.015": 0.429175268583,
			"-0.014": 1.63863469991,
			"-0.013": 2.43280351756,
			"-0.012": 2.96067510118,
			"-0.011": 2.93828159813,
			"-0.01": 2.38257828487,
			"-0.009": 3.27331905867,
			"-0.008": 2.55887926612,
			"-0.007": 5.53585772505,
			"-0.006": 9.96268068421,
			"-0.005": 12.1761185709,
			"-0.004": 19.4901160111,
			"-0.003": 31.6575932069,
			"-0.002": 30.5133534764,
			"-0.001": 22.6360159321,
			"0.0": 20.3718129312,
			"0.001": 19.6743630478,
			"0.002": 17.5984910361,
			"0.003": 15.4775308307,
			"0.004": 11.6939960451,
			"0.005": 5.54744733909,
			"0.006": 4.4558111422,
			"0.007": 4.99148244913,
			"0.008": 3.89138373345,
			"0.009": 4.95580236117,
			"0.01": 4.2387236898,
			"0.011": 3.80643845438,
			"0.012": 5.2394560678,
			"0.013": 7.01058720281,
			"0.014": 4.09600679219,
			"0.015": 0.499042294427,
			"0.016": 0.0,
			"0.017": 0.0,
			"0.018": 0.0,
			"0.019": 0.0,
			"0.02": 0.0,
			"0.021": 0.0,
			"0.022": 0.0,
			"0.023": 0.0,
			"0.024": 0.0,
			"0.025": 0.0
		}
	}
}
