{
	 "smiles": "CC(C)C1=C(C=NN1)C(O)=O", 
	 "Tm": 490.15, 
	 "num_atms": 21, 
	 "gaussian": { 
		 "optdone": 1, 
		 "sigma_profile": "yes", 
		 "theory": "DFT", 
		 "functional": "B3LYP", 
		 "basiset": "6-31G**", 
		 "properties": { 
			 "R2extent": 2437.0334, 
			 "electric_dipole_moment_norm": 1.79374322856, 
			 "electric_quadrupole_moment_norm": 11.1378622653, 
			 "total_energy": -532.733869255, 
			 "HOMO_LUMO_gap": 0.22898, 
			 "cosmo_polarized_energy": -13.8, 
			 "cosmo_cavitation_energy": 24.98, 
			 "cosmo_dispersion_energy": -17.72, 
			 "cosmo_repulsion_energy": 1.45, 
			 "cosmo_total_nonelectrostatic_energy": 8.7, 
			 "SMD_solvation_energy": 4.76 
		},
		"coords": [
			{
				"x": -1.0497627053,
				"y": 1.5042861245,
				"z": 0.6663684083,
				"element": "C" 
			},
			{
				"x": -0.2506052936,
				"y": 0.2544614037,
				"z": 0.2461767153,
				"element": "C" 
			},
			{
				"x": 1.1381774587,
				"y": 0.2224783877,
				"z": 0.9150770161,
				"element": "C" 
			},
			{
				"x": -0.143030759,
				"y": 0.1477235827,
				"z": -1.2524629873,
				"element": "C" 
			},
			{
				"x": -0.6059372697,
				"y": -0.8135930336,
				"z": -2.1562284748,
				"element": "C" 
			},
			{
				"x": -0.1890343447,
				"y": -0.3511872325,
				"z": -3.434672035,
				"element": "C" 
			},
			{
				"x": 0.4739838115,
				"y": 0.7914336345,
				"z": -3.3544111802,
				"element": "N" 
			},
			{
				"x": 0.485610023,
				"y": 1.0681459318,
				"z": -2.0215402898,
				"element": "N" 
			},
			{
				"x": -1.3551873684,
				"y": -2.0254298972,
				"z": -1.8346554563,
				"element": "C" 
			},
			{
				"x": -1.6552879645,
				"y": -2.74940418,
				"z": -2.9454435202,
				"element": "O" 
			},
			{
				"x": -1.696599724,
				"y": -2.3916057469,
				"z": -0.7220902136,
				"element": "O" 
			},
			{
				"x": -0.5391414779,
				"y": 2.4303971999,
				"z": 0.375853298,
				"element": "H" 
			},
			{
				"x": -2.0439550496,
				"y": 1.5112689236,
				"z": 0.2105297818,
				"element": "H" 
			},
			{
				"x": -1.1734766822,
				"y": 1.5246549284,
				"z": 1.7537218036,
				"element": "H" 
			},
			{
				"x": -0.8060013873,
				"y": -0.6323116649,
				"z": 0.5611958713,
				"element": "H" 
			},
			{
				"x": 1.7446138474,
				"y": 1.0925120413,
				"z": 0.6356277418,
				"element": "H" 
			},
			{
				"x": 1.6927109649,
				"y": -0.6777733893,
				"z": 0.6352508571,
				"element": "H" 
			},
			{
				"x": 1.0321786869,
				"y": 0.2323509025,
				"z": 2.0044431767,
				"element": "H" 
			},
			{
				"x": -0.3561066123,
				"y": -0.8202326444,
				"z": -4.39403901,
				"element": "H" 
			},
			{
				"x": 0.9451635772,
				"y": 1.9098613018,
				"z": -1.7091526579,
				"element": "H" 
			},
			{
				"x": -2.147011731,
				"y": -3.5239365736,
				"z": -2.6265488449,
				"element": "H" 
			}
		],
		 "valence_orbital": [ 
			{
				"type": "occ",
				"energy": -0.31403,
				"method": "rhf"
			},
			{
				"type": "occ",
				"energy": -0.29624,
				"method": "rhf"
			},
			{
				"type": "occ",
				"energy": -0.26962,
				"method": "rhf"
			},
			{
				"type": "occ",
				"energy": -0.26819,
				"method": "rhf"
			},
			{
				"type": "occ",
				"energy": -0.25,
				"method": "rhf"
			},
			{
				"type": "unocc",
				"energy": -0.02102,
				"method": "rhf"
			},
			{
				"type": "unocc",
				"energy": 0.01727,
				"method": "rhf"
			},
			{
				"type": "unocc",
				"energy": 0.05447,
				"method": "rhf"
			},
			{
				"type": "unocc",
				"energy": 0.08572,
				"method": "rhf"
			},
			{
				"type": "unocc",
				"energy": 0.10658,
				"method": "rhf"
			}
		],
		"cosmo_sigma_profile": { 
			"-0.025": 0.0,
			"-0.024": 0.0,
			"-0.023": 0.0,
			"-0.022": 0.0,
			"-0.021": 0.0,
			"-0.02": 0.0,
			"-0.019": 0.0,
			"-0.018": 0.433289975464,
			"-0.017": 0.967633846223,
			"-0.016": 1.69993212045,
			"-0.015": 1.81661586541,
			"-0.014": 1.85012727403,
			"-0.013": 1.73207017289,
			"-0.012": 1.94822265955,
			"-0.011": 2.22302523828,
			"-0.01": 3.30229880401,
			"-0.009": 1.5924095812,
			"-0.008": 1.89610893191,
			"-0.007": 2.89936942658,
			"-0.006": 3.37570788441,
			"-0.005": 4.49755258387,
			"-0.004": 8.00460047508,
			"-0.003": 15.1745473943,
			"-0.002": 17.5606400376,
			"-0.001": 20.9357366884,
			"0.0": 25.5862121519,
			"0.001": 15.9818204651,
			"0.002": 10.2458712619,
			"0.003": 9.18538838067,
			"0.004": 4.8733345812,
			"0.005": 4.8073516374,
			"0.006": 5.56420598767,
			"0.007": 3.80090182094,
			"0.008": 4.58844312233,
			"0.009": 4.26129221726,
			"0.01": 2.71527724235,
			"0.011": 3.64374055991,
			"0.012": 5.26606941046,
			"0.013": 1.73892859229,
			"0.014": 1.34650855471,
			"0.015": 0.964741601356,
			"0.016": 0.22680291196,
			"0.017": 0.0,
			"0.018": 0.0,
			"0.019": 0.0,
			"0.02": 0.0,
			"0.021": 0.0,
			"0.022": 0.0,
			"0.023": 0.0,
			"0.024": 0.0,
			"0.025": 0.0
		}
	}
}
