{
	 "smiles": "CC1=C(NS(C)(=O)=O)C=CC(Br)=C1", 
	 "Tm": 418.15, 
	 "num_atms": 23, 
	 "gaussian": { 
		 "optdone": 1, 
		 "sigma_profile": "yes", 
		 "theory": "DFT", 
		 "functional": "B3LYP", 
		 "basiset": "6-31G**", 
		 "properties": { 
			 "R2extent": 6216.1661, 
			 "electric_dipole_moment_norm": 2.60326267211, 
			 "electric_quadrupole_moment_norm": 19.8742144821, 
			 "total_energy": -3485.60944263, 
			 "HOMO_LUMO_gap": 0.21197, 
			 "cosmo_polarized_energy": -15.2, 
			 "cosmo_cavitation_energy": 30.19, 
			 "cosmo_dispersion_energy": -22.4, 
			 "cosmo_repulsion_energy": 1.72, 
			 "cosmo_total_nonelectrostatic_energy": 9.5, 
			 "SMD_solvation_energy": 3.63 
		},
		"coords": [
			{
				"x": 1.111552182,
				"y": 1.9463994832,
				"z": -2.2536346674,
				"element": "C" 
			},
			{
				"x": 0.1528348659,
				"y": 0.7817638936,
				"z": -2.2314316722,
				"element": "C" 
			},
			{
				"x": 0.5894262837,
				"y": -0.527597484,
				"z": -1.9425863246,
				"element": "C" 
			},
			{
				"x": 1.9727821936,
				"y": -0.8304563293,
				"z": -1.7026325411,
				"element": "N" 
			},
			{
				"x": 2.6196694557,
				"y": -0.6505277527,
				"z": -0.1260673371,
				"element": "S" 
			},
			{
				"x": 2.3408529918,
				"y": -2.2800594441,
				"z": 0.5808371423,
				"element": "C" 
			},
			{
				"x": 1.8360962086,
				"y": 0.3083305165,
				"z": 0.6584517028,
				"element": "O" 
			},
			{
				"x": 4.056593829,
				"y": -0.4593235923,
				"z": -0.3413468994,
				"element": "O" 
			},
			{
				"x": -0.3216365002,
				"y": -1.5869336084,
				"z": -1.9119067514,
				"element": "C" 
			},
			{
				"x": -1.678670035,
				"y": -1.3755771152,
				"z": -2.1476320234,
				"element": "C" 
			},
			{
				"x": -2.1060568768,
				"y": -0.0833293721,
				"z": -2.4383666406,
				"element": "C" 
			},
			{
				"x": -3.9568222374,
				"y": 0.2391243395,
				"z": -2.7843272064,
				"element": "Br" 
			},
			{
				"x": -1.2079719258,
				"y": 0.9812811387,
				"z": -2.4882770005,
				"element": "C" 
			},
			{
				"x": 1.9185672457,
				"y": 1.8011359671,
				"z": -2.9826798551,
				"element": "H" 
			},
			{
				"x": 1.5740571249,
				"y": 2.08242404,
				"z": -1.2711379824,
				"element": "H" 
			},
			{
				"x": 0.593825643,
				"y": 2.8703223794,
				"z": -2.5210448908,
				"element": "H" 
			},
			{
				"x": 2.6285260793,
				"y": -0.3591483518,
				"z": -2.322097724,
				"element": "H" 
			},
			{
				"x": 2.7301675907,
				"y": -2.249412195,
				"z": 1.5999496098,
				"element": "H" 
			},
			{
				"x": 1.2684487038,
				"y": -2.4778104389,
				"z": 0.5943367523,
				"element": "H" 
			},
			{
				"x": 2.8742438858,
				"y": -3.017743279,
				"z": -0.0180492455,
				"element": "H" 
			},
			{
				"x": 0.0482854771,
				"y": -2.5896246436,
				"z": -1.722309385,
				"element": "H" 
			},
			{
				"x": -2.3831540011,
				"y": -2.1984775015,
				"z": -2.1222046865,
				"element": "H" 
			},
			{
				"x": -1.5697181844,
				"y": 1.9777393498,
				"z": -2.7169423738,
				"element": "H" 
			}
		],
		 "valence_orbital": [ 
			{
				"type": "occ",
				"energy": -0.30371,
				"method": "rhf"
			},
			{
				"type": "occ",
				"energy": -0.29291,
				"method": "rhf"
			},
			{
				"type": "occ",
				"energy": -0.28704,
				"method": "rhf"
			},
			{
				"type": "occ",
				"energy": -0.26681,
				"method": "rhf"
			},
			{
				"type": "occ",
				"energy": -0.24413,
				"method": "rhf"
			},
			{
				"type": "unocc",
				"energy": -0.03216,
				"method": "rhf"
			},
			{
				"type": "unocc",
				"energy": -0.02231,
				"method": "rhf"
			},
			{
				"type": "unocc",
				"energy": 0.0011,
				"method": "rhf"
			},
			{
				"type": "unocc",
				"energy": 0.05244,
				"method": "rhf"
			},
			{
				"type": "unocc",
				"energy": 0.06906,
				"method": "rhf"
			}
		],
		"cosmo_sigma_profile": { 
			"-0.025": 0.0,
			"-0.024": 0.0,
			"-0.023": 0.0,
			"-0.022": 0.0,
			"-0.021": 0.0,
			"-0.02": 0.0,
			"-0.019": 0.0,
			"-0.018": 0.0,
			"-0.017": 0.0,
			"-0.016": 0.0,
			"-0.015": 0.0396462842274,
			"-0.014": 0.752129448842,
			"-0.013": 1.23268442441,
			"-0.012": 1.25020058868,
			"-0.011": 1.0374428974,
			"-0.01": 1.11897224706,
			"-0.009": 3.63941169,
			"-0.008": 6.78531198182,
			"-0.007": 12.4010473524,
			"-0.006": 15.007269103,
			"-0.005": 15.3601318987,
			"-0.004": 14.8542556942,
			"-0.003": 15.1742588678,
			"-0.002": 12.8250553087,
			"-0.001": 15.9881692921,
			"0.0": 14.4963449717,
			"0.001": 13.9423716045,
			"0.002": 19.0791166743,
			"0.003": 20.3912326483,
			"0.004": 14.3272126146,
			"0.005": 8.52407734616,
			"0.006": 3.54637982813,
			"0.007": 3.44423612389,
			"0.008": 4.01027560931,
			"0.009": 3.41573573499,
			"0.01": 6.62980181155,
			"0.011": 10.9696767422,
			"0.012": 3.19757975193,
			"0.013": 0.0,
			"0.014": 0.0,
			"0.015": 0.0,
			"0.016": 0.0,
			"0.017": 0.0,
			"0.018": 0.0,
			"0.019": 0.0,
			"0.02": 0.0,
			"0.021": 0.0,
			"0.022": 0.0,
			"0.023": 0.0,
			"0.024": 0.0,
			"0.025": 0.0
		}
	}
}
