{
	 "smiles": "NS(=O)(=O)C1=CC2=C(COC2)C=C1", 
	 "Tm": 420.15, 
	 "num_atms": 22, 
	 "gaussian": { 
		 "optdone": 1, 
		 "sigma_profile": "yes", 
		 "theory": "DFT", 
		 "functional": "B3LYP", 
		 "basiset": "6-31G**", 
		 "properties": { 
			 "R2extent": 3339.3444, 
			 "electric_dipole_moment_norm": 4.9780136852, 
			 "electric_quadrupole_moment_norm": 23.2946987169, 
			 "total_energy": -988.797634295, 
			 "HOMO_LUMO_gap": 0.20792, 
			 "cosmo_polarized_energy": -20.22, 
			 "cosmo_cavitation_energy": 27.05, 
			 "cosmo_dispersion_energy": -20.79, 
			 "cosmo_repulsion_energy": 1.61, 
			 "cosmo_total_nonelectrostatic_energy": 7.87, 
			 "SMD_solvation_energy": 4.1 
		},
		"coords": [
			{
				"x": 0.6742122541,
				"y": 1.4433970613,
				"z": 2.8728696098,
				"element": "N" 
			},
			{
				"x": 0.1655702792,
				"y": 1.7497361584,
				"z": 1.2990783063,
				"element": "S" 
			},
			{
				"x": -1.2859842478,
				"y": 1.5772180992,
				"z": 1.3161161276,
				"element": "O" 
			},
			{
				"x": 0.8176010855,
				"y": 2.9995651999,
				"z": 0.912844327,
				"element": "O" 
			},
			{
				"x": 0.8481951542,
				"y": 0.4431539372,
				"z": 0.2661134269,
				"element": "C" 
			},
			{
				"x": 0.0958357724,
				"y": -0.7180477179,
				"z": 0.057171717,
				"element": "C" 
			},
			{
				"x": 0.6616284568,
				"y": -1.7240517448,
				"z": -0.7183842184,
				"element": "C" 
			},
			{
				"x": 1.9330084871,
				"y": -1.571852983,
				"z": -1.2753623776,
				"element": "C" 
			},
			{
				"x": 2.2537549647,
				"y": -2.8086659094,
				"z": -2.0743039788,
				"element": "C" 
			},
			{
				"x": 1.2006077986,
				"y": -3.7298794465,
				"z": -1.7818002326,
				"element": "O" 
			},
			{
				"x": 0.1098016991,
				"y": -3.0620874143,
				"z": -1.1416493283,
				"element": "C" 
			},
			{
				"x": 2.6685199425,
				"y": -0.405399656,
				"z": -1.0779157743,
				"element": "C" 
			},
			{
				"x": 2.1179236895,
				"y": 0.6130484542,
				"z": -0.296489985,
				"element": "C" 
			},
			{
				"x": 0.2932195874,
				"y": 0.5820652148,
				"z": 3.2512808106,
				"element": "H" 
			},
			{
				"x": 1.6801981675,
				"y": 1.5186764283,
				"z": 2.9849922567,
				"element": "H" 
			},
			{
				"x": -0.9016347153,
				"y": -0.8001361352,
				"z": 0.477214716,
				"element": "H" 
			},
			{
				"x": 2.2924391348,
				"y": -2.590119121,
				"z": -3.1542870509,
				"element": "H" 
			},
			{
				"x": 3.2108867944,
				"y": -3.2677840576,
				"z": -1.7948876675,
				"element": "H" 
			},
			{
				"x": -0.2322106405,
				"y": -3.6768318154,
				"z": -0.2993318484,
				"element": "H" 
			},
			{
				"x": -0.7381554524,
				"y": -2.9464955183,
				"z": -1.8361961015,
				"element": "H" 
			},
			{
				"x": 3.6502637802,
				"y": -0.2768286216,
				"z": -1.5248990366,
				"element": "H" 
			},
			{
				"x": 2.6512180079,
				"y": 1.5444195879,
				"z": -0.139073698,
				"element": "H" 
			}
		],
		 "valence_orbital": [ 
			{
				"type": "occ",
				"energy": -0.30602,
				"method": "rhf"
			},
			{
				"type": "occ",
				"energy": -0.30466,
				"method": "rhf"
			},
			{
				"type": "occ",
				"energy": -0.28009,
				"method": "rhf"
			},
			{
				"type": "occ",
				"energy": -0.2754,
				"method": "rhf"
			},
			{
				"type": "occ",
				"energy": -0.25222,
				"method": "rhf"
			},
			{
				"type": "unocc",
				"energy": -0.0443,
				"method": "rhf"
			},
			{
				"type": "unocc",
				"energy": -0.03072,
				"method": "rhf"
			},
			{
				"type": "unocc",
				"energy": 0.04857,
				"method": "rhf"
			},
			{
				"type": "unocc",
				"energy": 0.0734,
				"method": "rhf"
			},
			{
				"type": "unocc",
				"energy": 0.08253,
				"method": "rhf"
			}
		],
		"cosmo_sigma_profile": { 
			"-0.025": 0.0,
			"-0.024": 0.0,
			"-0.023": 0.0,
			"-0.022": 0.0,
			"-0.021": 0.0,
			"-0.02": 0.0,
			"-0.019": 0.0,
			"-0.018": 0.0,
			"-0.017": 0.0,
			"-0.016": 0.1237135748,
			"-0.015": 2.24582302815,
			"-0.014": 2.60030554451,
			"-0.013": 1.8971334999,
			"-0.012": 3.40752986119,
			"-0.011": 3.22315020504,
			"-0.01": 2.35792008694,
			"-0.009": 1.23983229593,
			"-0.008": 2.86385090965,
			"-0.007": 6.83709241578,
			"-0.006": 13.2011466391,
			"-0.005": 21.0314756881,
			"-0.004": 16.2962852605,
			"-0.003": 12.8215731942,
			"-0.002": 11.3415832516,
			"-0.001": 9.98435061261,
			"0.0": 9.92189626496,
			"0.001": 10.8342204395,
			"0.002": 13.7668705557,
			"0.003": 9.73625269058,
			"0.004": 4.1048799556,
			"0.005": 4.06447435307,
			"0.006": 4.58337322275,
			"0.007": 5.58365826727,
			"0.008": 6.31651489499,
			"0.009": 4.85473056427,
			"0.01": 8.57119271692,
			"0.011": 11.6093614261,
			"0.012": 7.60190907528,
			"0.013": 1.65971520062,
			"0.014": 0.411028420384,
			"0.015": 0.0,
			"0.016": 0.0,
			"0.017": 0.0,
			"0.018": 0.0,
			"0.019": 0.0,
			"0.02": 0.0,
			"0.021": 0.0,
			"0.022": 0.0,
			"0.023": 0.0,
			"0.024": 0.0,
			"0.025": 0.0
		}
	}
}
