{
	 "smiles": "CSCCC(NS(=O)(=O)C1=CC2=C(OCCO2)C=C1)C(O)=O", 
	 "Tm": 367.65, 
	 "num_atms": 39, 
	 "gaussian": { 
		 "optdone": 1, 
		 "sigma_profile": "yes", 
		 "theory": "DFT", 
		 "functional": "B3LYP", 
		 "basiset": "6-31G**", 
		 "properties": { 
			 "R2extent": 9363.5583, 
			 "electric_dipole_moment_norm": 8.30700244432, 
			 "electric_quadrupole_moment_norm": 34.6188333771, 
			 "total_energy": -1808.02530796, 
			 "HOMO_LUMO_gap": 0.17626, 
			 "cosmo_polarized_energy": -25.36, 
			 "cosmo_cavitation_energy": 45.4, 
			 "cosmo_dispersion_energy": -31.45, 
			 "cosmo_repulsion_energy": 2.36, 
			 "cosmo_total_nonelectrostatic_energy": 16.31, 
			 "SMD_solvation_energy": 7.97 
		},
		"coords": [
			{
				"x": 3.4727027138,
				"y": -3.3266241184,
				"z": -0.0501823602,
				"element": "C" 
			},
			{
				"x": 1.8344652594,
				"y": -3.6198207599,
				"z": 0.7030583078,
				"element": "S" 
			},
			{
				"x": 1.0844131791,
				"y": -1.951052236,
				"z": 0.5679336054,
				"element": "C" 
			},
			{
				"x": 1.6780620638,
				"y": -0.9079924368,
				"z": 1.5173884754,
				"element": "C" 
			},
			{
				"x": 0.9828042959,
				"y": 0.4557538924,
				"z": 1.4101284515,
				"element": "C" 
			},
			{
				"x": 1.1682018302,
				"y": 1.0279975487,
				"z": 0.0599087335,
				"element": "N" 
			},
			{
				"x": -0.0191369169,
				"y": 1.975834924,
				"z": -0.6600165706,
				"element": "S" 
			},
			{
				"x": 0.6912892844,
				"y": 2.8005447069,
				"z": -1.6372825564,
				"element": "O" 
			},
			{
				"x": -0.8399005553,
				"y": 2.5895484795,
				"z": 0.4110017374,
				"element": "O" 
			},
			{
				"x": -1.0748712498,
				"y": 0.8163743904,
				"z": -1.504891988,
				"element": "C" 
			},
			{
				"x": -2.300053312,
				"y": 0.4673077179,
				"z": -0.9372076854,
				"element": "C" 
			},
			{
				"x": -3.1164301704,
				"y": -0.4495301088,
				"z": -1.5973834896,
				"element": "C" 
			},
			{
				"x": -2.7048166632,
				"y": -0.9939134934,
				"z": -2.8299094645,
				"element": "C" 
			},
			{
				"x": -3.4840122541,
				"y": -1.8723155352,
				"z": -3.5234420386,
				"element": "O" 
			},
			{
				"x": -4.8445075301,
				"y": -1.9368779085,
				"z": -3.0794685918,
				"element": "C" 
			},
			{
				"x": -4.8986511212,
				"y": -1.974329827,
				"z": -1.5620598176,
				"element": "C" 
			},
			{
				"x": -4.3103764837,
				"y": -0.787990984,
				"z": -1.0209446829,
				"element": "O" 
			},
			{
				"x": -1.468579161,
				"y": -0.6343216892,
				"z": -3.3769847376,
				"element": "C" 
			},
			{
				"x": -0.6441153039,
				"y": 0.2697560519,
				"z": -2.7192196879,
				"element": "C" 
			},
			{
				"x": 1.4778815389,
				"y": 1.4253195763,
				"z": 2.5169334637,
				"element": "C" 
			},
			{
				"x": 0.8831247943,
				"y": 2.6246956725,
				"z": 2.5628929694,
				"element": "O" 
			},
			{
				"x": 2.357624547,
				"y": 1.1226425238,
				"z": 3.2892486761,
				"element": "O" 
			},
			{
				"x": 3.3739597204,
				"y": -2.9522350241,
				"z": -1.0730244948,
				"element": "H" 
			},
			{
				"x": 4.0776679605,
				"y": -2.6360743404,
				"z": 0.5420716663,
				"element": "H" 
			},
			{
				"x": 3.9790172306,
				"y": -4.2939770376,
				"z": -0.0785223237,
				"element": "H" 
			},
			{
				"x": 1.1428784718,
				"y": -1.6177515962,
				"z": -0.472528816,
				"element": "H" 
			},
			{
				"x": 0.0242123029,
				"y": -2.1120645599,
				"z": 0.7935478029,
				"element": "H" 
			},
			{
				"x": 2.7483576454,
				"y": -0.7713155095,
				"z": 1.3296819413,
				"element": "H" 
			},
			{
				"x": 1.5981951073,
				"y": -1.250202321,
				"z": 2.5523145506,
				"element": "H" 
			},
			{
				"x": -0.0977420881,
				"y": 0.3234373546,
				"z": 1.5455153171,
				"element": "H" 
			},
			{
				"x": 2.0816469063,
				"y": 1.4294098193,
				"z": -0.1367411188,
				"element": "H" 
			},
			{
				"x": -2.6339454148,
				"y": 0.9050195213,
				"z": -0.0039609042,
				"element": "H" 
			},
			{
				"x": -5.2670730519,
				"y": -2.8440628366,
				"z": -3.5170042985,
				"element": "H" 
			},
			{
				"x": -5.3947425208,
				"y": -1.0652284289,
				"z": -3.4562274659,
				"element": "H" 
			},
			{
				"x": -5.9294259559,
				"y": -1.9992271421,
				"z": -1.2017375107,
				"element": "H" 
			},
			{
				"x": -4.365141739,
				"y": -2.8574471805,
				"z": -1.1864992968,
				"element": "H" 
			},
			{
				"x": -1.1835357069,
				"y": -1.06808623,
				"z": -4.3294890045,
				"element": "H" 
			},
			{
				"x": 0.3042733212,
				"y": 0.5689337583,
				"z": -3.1502668402,
				"element": "H" 
			},
			{
				"x": 0.1843790258,
				"y": 2.7156653662,
				"z": 1.8769700468,
				"element": "H" 
			}
		],
		 "valence_orbital": [ 
			{
				"type": "occ",
				"energy": -0.30151,
				"method": "rhf"
			},
			{
				"type": "occ",
				"energy": -0.27011,
				"method": "rhf"
			},
			{
				"type": "occ",
				"energy": -0.261,
				"method": "rhf"
			},
			{
				"type": "occ",
				"energy": -0.24177,
				"method": "rhf"
			},
			{
				"type": "occ",
				"energy": -0.22246,
				"method": "rhf"
			},
			{
				"type": "unocc",
				"energy": -0.0462,
				"method": "rhf"
			},
			{
				"type": "unocc",
				"energy": -0.0285,
				"method": "rhf"
			},
			{
				"type": "unocc",
				"energy": 0.0016,
				"method": "rhf"
			},
			{
				"type": "unocc",
				"energy": 0.03884,
				"method": "rhf"
			},
			{
				"type": "unocc",
				"energy": 0.04295,
				"method": "rhf"
			}
		],
		"cosmo_sigma_profile": { 
			"-0.025": 0.0,
			"-0.024": 0.0,
			"-0.023": 0.0,
			"-0.022": 0.0,
			"-0.021": 0.0,
			"-0.02": 0.0,
			"-0.019": 0.0,
			"-0.018": 0.0,
			"-0.017": 0.014037109726,
			"-0.016": 0.68119515185,
			"-0.015": 1.01106499095,
			"-0.014": 1.03383176384,
			"-0.013": 1.30579303074,
			"-0.012": 1.41798122401,
			"-0.011": 1.20033498447,
			"-0.01": 1.10350658934,
			"-0.009": 3.549119899,
			"-0.008": 8.18248929548,
			"-0.007": 18.4886645618,
			"-0.006": 27.0233125611,
			"-0.005": 29.2469113624,
			"-0.004": 26.0169036958,
			"-0.003": 21.2723930976,
			"-0.002": 21.5482266545,
			"-0.001": 23.0850224746,
			"0.0": 21.8941773394,
			"0.001": 24.122088791,
			"0.002": 19.7623075183,
			"0.003": 13.344489103,
			"0.004": 10.8379993857,
			"0.005": 9.77736603078,
			"0.006": 10.5629508831,
			"0.007": 10.9401937268,
			"0.008": 9.42230614811,
			"0.009": 13.5689888635,
			"0.01": 14.4727517791,
			"0.011": 9.59202961095,
			"0.012": 5.28127611502,
			"0.013": 1.39984642068,
			"0.014": 0.0547375046375,
			"0.015": 0.0,
			"0.016": 0.0,
			"0.017": 0.0,
			"0.018": 0.0,
			"0.019": 0.0,
			"0.02": 0.0,
			"0.021": 0.0,
			"0.022": 0.0,
			"0.023": 0.0,
			"0.024": 0.0,
			"0.0": 0.0
		}
	}
}
