{
	 "smiles": "CCCOC1=CC(CC(O)=O)=CC=C1", 
	 "Tm": 362.15, 
	 "num_atms": 28, 
	 "gaussian": { 
		 "optdone": 1, 
		 "sigma_profile": "yes", 
		 "theory": "DFT", 
		 "functional": "B3LYP", 
		 "basiset": "6-31G**", 
		 "properties": { 
			 "R2extent": 4689.1862, 
			 "electric_dipole_moment_norm": 4.49947186567, 
			 "electric_quadrupole_moment_norm": 32.420803711, 
			 "total_energy": -653.293189878, 
			 "HOMO_LUMO_gap": 0.21202, 
			 "cosmo_polarized_energy": -13.68, 
			 "cosmo_cavitation_energy": 31.67, 
			 "cosmo_dispersion_energy": -22.51, 
			 "cosmo_repulsion_energy": 1.82, 
			 "cosmo_total_nonelectrostatic_energy": 10.98, 
			 "SMD_solvation_energy": 6.68 
		},
		"coords": [
			{
				"x": -1.6598189884,
				"y": -3.5334638114,
				"z": -2.8702864322,
				"element": "C" 
			},
			{
				"x": -1.8776809532,
				"y": -3.2294008789,
				"z": -1.3851276927,
				"element": "C" 
			},
			{
				"x": -0.7994949093,
				"y": -2.3380597396,
				"z": -0.7827473608,
				"element": "C" 
			},
			{
				"x": -0.8536298505,
				"y": -1.0717094646,
				"z": -1.4457013825,
				"element": "O" 
			},
			{
				"x": 0.0344362143,
				"y": -0.1028671718,
				"z": -1.0983990487,
				"element": "C" 
			},
			{
				"x": 1.0139667164,
				"y": -0.2414000152,
				"z": -0.108758668,
				"element": "C" 
			},
			{
				"x": 1.882390023,
				"y": 0.8236201959,
				"z": 0.1823785558,
				"element": "C" 
			},
			{
				"x": 2.969854237,
				"y": 0.6446480715,
				"z": 1.2185712776,
				"element": "C" 
			},
			{
				"x": 4.3015255568,
				"y": 0.0880582005,
				"z": 0.6850181085,
				"element": "C" 
			},
			{
				"x": 4.5838350361,
				"y": 0.3510489764,
				"z": -0.610995972,
				"element": "O" 
			},
			{
				"x": 5.0802627964,
				"y": -0.5139782993,
				"z": 1.3813593397,
				"element": "O" 
			},
			{
				"x": 1.7647570478,
				"y": 2.0240016591,
				"z": -0.5286246859,
				"element": "C" 
			},
			{
				"x": 0.7844170942,
				"y": 2.1556317567,
				"z": -1.5210954908,
				"element": "C" 
			},
			{
				"x": -0.0758042246,
				"y": 1.1058131446,
				"z": -1.808004405,
				"element": "C" 
			},
			{
				"x": -2.4594029343,
				"y": -4.1700755827,
				"z": -3.2610217354,
				"element": "H" 
			},
			{
				"x": -1.64129828,
				"y": -2.6114407436,
				"z": -3.4573645621,
				"element": "H" 
			},
			{
				"x": -0.7089976519,
				"y": -4.0541328949,
				"z": -3.0317664695,
				"element": "H" 
			},
			{
				"x": -2.8507405634,
				"y": -2.7465175967,
				"z": -1.2361334166,
				"element": "H" 
			},
			{
				"x": -1.8964881657,
				"y": -4.1609531797,
				"z": -0.8057523874,
				"element": "H" 
			},
			{
				"x": -0.9660022099,
				"y": -2.1992759754,
				"z": 0.2945479264,
				"element": "H" 
			},
			{
				"x": 0.1956480164,
				"y": -2.7858718607,
				"z": -0.9195258749,
				"element": "H" 
			},
			{
				"x": 1.1146875613,
				"y": -1.1672626425,
				"z": 0.4457580502,
				"element": "H" 
			},
			{
				"x": 2.6589879468,
				"y": -0.0253492233,
				"z": 2.0232715102,
				"element": "H" 
			},
			{
				"x": 3.2091041426,
				"y": 1.6078601437,
				"z": 1.6864988139,
				"element": "H" 
			},
			{
				"x": 3.8242637878,
				"y": 0.795071769,
				"z": -1.0245025069,
				"element": "H" 
			},
			{
				"x": 2.4161877706,
				"y": 2.8614734024,
				"z": -0.2921815879,
				"element": "H" 
			},
			{
				"x": 0.6896774993,
				"y": 3.0903566295,
				"z": -2.0660178412,
				"element": "H" 
			},
			{
				"x": -0.8435427158,
				"y": 1.1903751308,
				"z": -2.5697960617,
				"element": "H" 
			}
		],
		 "valence_orbital": [ 
			{
				"type": "occ",
				"energy": -0.32738,
				"method": "rhf"
			},
			{
				"type": "occ",
				"energy": -0.30679,
				"method": "rhf"
			},
			{
				"type": "occ",
				"energy": -0.27617,
				"method": "rhf"
			},
			{
				"type": "occ",
				"energy": -0.25366,
				"method": "rhf"
			},
			{
				"type": "occ",
				"energy": -0.23308,
				"method": "rhf"
			},
			{
				"type": "unocc",
				"energy": -0.02106,
				"method": "rhf"
			},
			{
				"type": "unocc",
				"energy": -0.0097,
				"method": "rhf"
			},
			{
				"type": "unocc",
				"energy": 0.02039,
				"method": "rhf"
			},
			{
				"type": "unocc",
				"energy": 0.07978,
				"method": "rhf"
			},
			{
				"type": "unocc",
				"energy": 0.086,
				"method": "rhf"
			}
		],
		"cosmo_sigma_profile": { 
			"-0.025": 0.0,
			"-0.024": 0.0,
			"-0.023": 0.0,
			"-0.022": 0.0,
			"-0.021": 0.0,
			"-0.02": 0.0,
			"-0.019": 0.0,
			"-0.018": 0.0,
			"-0.017": 0.0,
			"-0.016": 0.0,
			"-0.015": 0.0,
			"-0.014": 0.0163458826424,
			"-0.013": 0.405221606545,
			"-0.012": 0.524563227141,
			"-0.011": 0.700918578422,
			"-0.01": 1.46342788468,
			"-0.009": 1.63428884168,
			"-0.008": 3.27619785439,
			"-0.007": 7.29457754323,
			"-0.006": 13.5172381918,
			"-0.005": 16.5836314767,
			"-0.004": 20.5940953505,
			"-0.003": 26.1553429633,
			"-0.002": 20.9081069855,
			"-0.001": 19.6181962935,
			"0.0": 17.6984815683,
			"0.001": 17.6254508034,
			"0.002": 13.1603033023,
			"0.003": 11.6269654553,
			"0.004": 12.1242650787,
			"0.005": 9.08736076019,
			"0.006": 5.3983319492,
			"0.007": 3.46993090928,
			"0.008": 3.34827611171,
			"0.009": 4.46474278331,
			"0.01": 4.91674374984,
			"0.011": 4.86112404905,
			"0.012": 5.87343657857,
			"0.013": 3.02985467913,
			"0.014": 0.184441291513,
			"0.015": 0.0,
			"0.016": 0.0,
			"0.017": 0.0,
			"0.018": 0.0,
			"0.019": 0.0,
			"0.02": 0.0,
			"0.021": 0.0,
			"0.022": 0.0,
			"0.023": 0.0,
			"0.024": 0.0,
			"0.025": 0.0
		}
	}
}
