{
	 "smiles": "ON=C(NN=C(Cl)C(F)(F)F)C(F)(F)F", 
	 "Tm": 392.0, 
	 "num_atms": 17, 
	 "gaussian": { 
		 "optdone": 1, 
		 "sigma_profile": "yes", 
		 "theory": "DFT", 
		 "functional": "B3LYP", 
		 "basiset": "6-31G**", 
		 "properties": { 
			 "R2extent": 5252.403, 
			 "electric_dipole_moment_norm": 3.28381938754, 
			 "electric_quadrupole_moment_norm": 10.9281345888, 
			 "total_energy": -1452.22647461, 
			 "HOMO_LUMO_gap": 0.19778, 
			 "cosmo_polarized_energy": -9.14, 
			 "cosmo_cavitation_energy": 28.09, 
			 "cosmo_dispersion_energy": -19.24, 
			 "cosmo_repulsion_energy": 1.45, 
			 "cosmo_total_nonelectrostatic_energy": 10.31, 
			 "SMD_solvation_energy": 7.02 
		},
		"coords": [
			{
				"x": -2.7440891049,
				"y": 2.4126310837,
				"z": 2.7633173511,
				"element": "O" 
			},
			{
				"x": -1.7310040037,
				"y": 1.8475665477,
				"z": 2.0008134231,
				"element": "N" 
			},
			{
				"x": -2.0941867743,
				"y": 0.7838167479,
				"z": 1.3868399386,
				"element": "C" 
			},
			{
				"x": -1.0699047981,
				"y": 0.0709694435,
				"z": 0.7487625719,
				"element": "N" 
			},
			{
				"x": -1.2618905927,
				"y": -0.3504965919,
				"z": -0.5166560805,
				"element": "N" 
			},
			{
				"x": -0.287502342,
				"y": -0.7315240885,
				"z": -1.2311425978,
				"element": "C" 
			},
			{
				"x": 1.4017695927,
				"y": -0.708120819,
				"z": -0.7264860461,
				"element": "Cl" 
			},
			{
				"x": -0.5235496691,
				"y": -1.2556959161,
				"z": -2.6329304245,
				"element": "C" 
			},
			{
				"x": -1.82321142,
				"y": -1.2341447502,
				"z": -2.9395333999,
				"element": "F" 
			},
			{
				"x": -0.0772914868,
				"y": -2.5206885836,
				"z": -2.7475314317,
				"element": "F" 
			},
			{
				"x": 0.1417128922,
				"y": -0.5093491636,
				"z": -3.5349607915,
				"element": "F" 
			},
			{
				"x": -3.5027888431,
				"y": 0.1890985905,
				"z": 1.4169472521,
				"element": "C" 
			},
			{
				"x": -4.3816728367,
				"y": 1.0321301695,
				"z": 0.85245844,
				"element": "F" 
			},
			{
				"x": -3.5627763649,
				"y": -0.9823955655,
				"z": 0.7687461435,
				"element": "F" 
			},
			{
				"x": -3.885448056,
				"y": -0.0303702056,
				"z": 2.6876638837,
				"element": "F" 
			},
			{
				"x": -2.3147089483,
				"y": 3.1957278117,
				"z": 3.1336617672,
				"element": "H" 
			},
			{
				"x": -0.1312572441,
				"y": 0.3722452895,
				"z": 1.009430001,
				"element": "H" 
			}
		],
		 "valence_orbital": [ 
			{
				"type": "occ",
				"energy": -0.35479,
				"method": "rhf"
			},
			{
				"type": "occ",
				"energy": -0.33379,
				"method": "rhf"
			},
			{
				"type": "occ",
				"energy": -0.31818,
				"method": "rhf"
			},
			{
				"type": "occ",
				"energy": -0.30986,
				"method": "rhf"
			},
			{
				"type": "occ",
				"energy": -0.25585,
				"method": "rhf"
			},
			{
				"type": "unocc",
				"energy": -0.05807,
				"method": "rhf"
			},
			{
				"type": "unocc",
				"energy": -0.02695,
				"method": "rhf"
			},
			{
				"type": "unocc",
				"energy": -0.0022,
				"method": "rhf"
			},
			{
				"type": "unocc",
				"energy": 0.04728,
				"method": "rhf"
			},
			{
				"type": "unocc",
				"energy": 0.08188,
				"method": "rhf"
			}
		],
		"cosmo_sigma_profile": { 
			"-0.025": 0.0,
			"-0.024": 0.0,
			"-0.023": 0.0,
			"-0.022": 0.0,
			"-0.021": 0.0,
			"-0.02": 0.0,
			"-0.019": 0.556085014259,
			"-0.018": 1.18506464736,
			"-0.017": 0.821579329456,
			"-0.016": 0.711216322884,
			"-0.015": 1.24573688445,
			"-0.014": 0.93027105655,
			"-0.013": 1.51980445187,
			"-0.012": 2.06524725128,
			"-0.011": 1.95070624532,
			"-0.01": 1.86028910802,
			"-0.009": 1.60084289211,
			"-0.008": 1.86298860658,
			"-0.007": 1.75658566747,
			"-0.006": 3.07005819697,
			"-0.005": 3.14387993268,
			"-0.004": 7.3356070464,
			"-0.003": 11.9698249705,
			"-0.002": 12.1820425355,
			"-0.001": 15.4745589738,
			"0.0": 17.8111231557,
			"0.001": 34.923796755,
			"0.002": 64.5025019597,
			"0.003": 15.144027697,
			"0.004": 5.16969145226,
			"0.005": 5.78718500058,
			"0.006": 5.20943844305,
			"0.007": 4.50418120265,
			"0.008": 2.71419300302,
			"0.009": 0.545987940012,
			"0.01": 0.435994350462,
			"0.011": 0.0,
			"0.012": 0.0,
			"0.013": 0.0,
			"0.014": 0.0,
			"0.015": 0.0,
			"0.016": 0.0,
			"0.017": 0.0,
			"0.018": 0.0,
			"0.019": 0.0,
			"0.02": 0.0,
			"0.021": 0.0,
			"0.022": 0.0,
			"0.023": 0.0,
			"0.024": 0.0,
			"0.025": 0.0
		}
	}
}
