{
	 "smiles": "CC(C)(C)C1=NOC2=C1C=C(C=N2)C(O)=O", 
	 "Tm": 481.15, 
	 "num_atms": 28, 
	 "gaussian": { 
		 "optdone": 1, 
		 "sigma_profile": "yes", 
		 "theory": "DFT", 
		 "functional": "B3LYP", 
		 "basiset": "6-31G**", 
		 "properties": { 
			 "R2extent": 4632.921, 
			 "electric_dipole_moment_norm": 5.09516332025, 
			 "electric_quadrupole_moment_norm": 10.54605094, 
			 "total_energy": -761.562032049, 
			 "HOMO_LUMO_gap": 0.20159, 
			 "cosmo_polarized_energy": -14.51, 
			 "cosmo_cavitation_energy": 31.78, 
			 "cosmo_dispersion_energy": -22.64, 
			 "cosmo_repulsion_energy": 1.74, 
			 "cosmo_total_nonelectrostatic_energy": 10.88, 
			 "SMD_solvation_energy": 5.29 
		},
		"coords": [
			{
				"x": 2.0471375783,
				"y": 1.6071318131,
				"z": 1.0367760998,
				"element": "C" 
			},
			{
				"x": 0.5381085122,
				"y": 1.392799232,
				"z": 1.2993355956,
				"element": "C" 
			},
			{
				"x": 0.3108855233,
				"y": 0.0134248079,
				"z": 1.9609906625,
				"element": "C" 
			},
			{
				"x": 0.0221774386,
				"y": 2.4991606448,
				"z": 2.2379459981,
				"element": "C" 
			},
			{
				"x": -0.2022323176,
				"y": 1.4303792789,
				"z": -0.0266200812,
				"element": "C" 
			},
			{
				"x": -1.1357982733,
				"y": 2.3212271937,
				"z": -0.243595601,
				"element": "N" 
			},
			{
				"x": -1.6466342337,
				"y": 2.1214296983,
				"z": -1.5481180942,
				"element": "O" 
			},
			{
				"x": -0.9871729461,
				"y": 1.0847272357,
				"z": -2.0977837232,
				"element": "C" 
			},
			{
				"x": -0.0412220796,
				"y": 0.5822564125,
				"z": -1.1874547988,
				"element": "C" 
			},
			{
				"x": 0.7331258308,
				"y": -0.5018865613,
				"z": -1.603057303,
				"element": "C" 
			},
			{
				"x": 0.4950845785,
				"y": -0.9895481318,
				"z": -2.8914873132,
				"element": "C" 
			},
			{
				"x": -0.4940727373,
				"y": -0.3816405007,
				"z": -3.7011340424,
				"element": "C" 
			},
			{
				"x": -1.2451637637,
				"y": 0.6534616887,
				"z": -3.3265049306,
				"element": "N" 
			},
			{
				"x": 1.2445778766,
				"y": -2.135998442,
				"z": -3.4612169453,
				"element": "C" 
			},
			{
				"x": 2.1656937538,
				"y": -2.639856551,
				"z": -2.6012705642,
				"element": "O" 
			},
			{
				"x": 1.0742039641,
				"y": -2.5942584098,
				"z": -4.5726354358,
				"element": "O" 
			},
			{
				"x": 2.5959452598,
				"y": 1.5776741633,
				"z": 1.9838043965,
				"element": "H" 
			},
			{
				"x": 2.4661579056,
				"y": 0.8346818223,
				"z": 0.3848040311,
				"element": "H" 
			},
			{
				"x": 2.2298338028,
				"y": 2.579657178,
				"z": 0.5692471455,
				"element": "H" 
			},
			{
				"x": 0.8428517815,
				"y": -0.0311995186,
				"z": 2.9169935564,
				"element": "H" 
			},
			{
				"x": -0.7522745921,
				"y": -0.1576994092,
				"z": 2.1563764618,
				"element": "H" 
			},
			{
				"x": 0.676480619,
				"y": -0.8082846134,
				"z": 1.3377275626,
				"element": "H" 
			},
			{
				"x": 0.1654471611,
				"y": 3.4912950802,
				"z": 1.8018707102,
				"element": "H" 
			},
			{
				"x": 0.5668197474,
				"y": 2.4560551324,
				"z": 3.1866468296,
				"element": "H" 
			},
			{
				"x": -1.0444431353,
				"y": 2.380634001,
				"z": 2.4460163347,
				"element": "H" 
			},
			{
				"x": 1.4883252259,
				"y": -0.9609988505,
				"z": -0.9763860113,
				"element": "H" 
			},
			{
				"x": -0.6608219795,
				"y": -0.7783259755,
				"z": -4.6987949938,
				"element": "H" 
			},
			{
				"x": 2.592479499,
				"y": -3.375998419,
				"z": -3.0701755463,
				"element": "H" 
			}
		],
		 "valence_orbital": [ 
			{
				"type": "occ",
				"energy": -0.32035,
				"method": "rhf"
			},
			{
				"type": "occ",
				"energy": -0.29396,
				"method": "rhf"
			},
			{
				"type": "occ",
				"energy": -0.28248,
				"method": "rhf"
			},
			{
				"type": "occ",
				"energy": -0.27893,
				"method": "rhf"
			},
			{
				"type": "occ",
				"energy": -0.27375,
				"method": "rhf"
			},
			{
				"type": "unocc",
				"energy": -0.07216,
				"method": "rhf"
			},
			{
				"type": "unocc",
				"energy": -0.05395,
				"method": "rhf"
			},
			{
				"type": "unocc",
				"energy": 0.01316,
				"method": "rhf"
			},
			{
				"type": "unocc",
				"energy": 0.05488,
				"method": "rhf"
			},
			{
				"type": "unocc",
				"energy": 0.0617,
				"method": "rhf"
			}
		],
		"cosmo_sigma_profile": { 
			"-0.025": 0.0,
			"-0.024": 0.0,
			"-0.023": 0.0,
			"-0.022": 0.0,
			"-0.021": 0.0,
			"-0.02": 0.0,
			"-0.019": 0.275250055061,
			"-0.018": 0.930167541346,
			"-0.017": 0.922700512568,
			"-0.016": 1.11218949246,
			"-0.015": 0.499839614597,
			"-0.014": 0.630044973454,
			"-0.013": 0.470279654808,
			"-0.012": 0.920403558241,
			"-0.011": 0.61416726234,
			"-0.01": 0.83418328955,
			"-0.009": 1.29328202204,
			"-0.008": 3.84514160293,
			"-0.007": 4.32301900201,
			"-0.006": 3.65524095832,
			"-0.005": 4.06903134142,
			"-0.004": 17.5743970857,
			"-0.003": 33.7069668095,
			"-0.002": 34.9568119526,
			"-0.001": 29.8839777298,
			"0.0": 25.1898656459,
			"0.001": 17.1453083767,
			"0.002": 6.49644160075,
			"0.003": 5.0188074187,
			"0.004": 6.81259361933,
			"0.005": 7.02792186653,
			"0.006": 7.22825791071,
			"0.007": 10.2669174836,
			"0.008": 5.11214166856,
			"0.009": 4.27835510647,
			"0.01": 4.89043197527,
			"0.011": 6.69437702226,
			"0.012": 3.43747751555,
			"0.013": 1.21039465329,
			"0.014": 0.508248171624,
			"0.015": 0.0,
			"0.016": 0.0,
			"0.017": 0.0,
			"0.018": 0.0,
			"0.019": 0.0,
			"0.02": 0.0,
			"0.021": 0.0,
			"0.022": 0.0,
			"0.023": 0.0,
			"0.024": 0.0,
			"0.025": 0.0
		}
	}
}
