{
	 "smiles": "CCOC(=O)CN(CCC#N)C1=CC=C(OC)C=C1", 
	 "Tm": 335.15, 
	 "num_atms": 37, 
	 "gaussian": { 
		 "optdone": 1, 
		 "sigma_profile": "yes", 
		 "theory": "DFT", 
		 "functional": "B3LYP", 
		 "basiset": "6-31G**", 
		 "properties": { 
			 "R2extent": 7327.9952, 
			 "electric_dipole_moment_norm": 3.2797471869, 
			 "electric_quadrupole_moment_norm": 18.2981468786, 
			 "total_energy": -879.485192286, 
			 "HOMO_LUMO_gap": 0.18563, 
			 "cosmo_polarized_energy": -16.23, 
			 "cosmo_cavitation_energy": 40.22, 
			 "cosmo_dispersion_energy": -27.66, 
			 "cosmo_repulsion_energy": 2.14, 
			 "cosmo_total_nonelectrostatic_energy": 14.7, 
			 "SMD_solvation_energy": 8.93 
		},
		"coords": [
			{
				"x": -5.0920669225,
				"y": -1.219277955,
				"z": -1.0515982194,
				"element": "C" 
			},
			{
				"x": -4.115352909,
				"y": -1.8702471845,
				"z": -0.0859117756,
				"element": "C" 
			},
			{
				"x": -3.1271282844,
				"y": -0.8942501519,
				"z": 0.3411745151,
				"element": "O" 
			},
			{
				"x": -1.8858758829,
				"y": -0.9929821217,
				"z": -0.1645796262,
				"element": "C" 
			},
			{
				"x": -1.4915927339,
				"y": -1.883582944,
				"z": -0.8884121167,
				"element": "O" 
			},
			{
				"x": -1.0358994448,
				"y": 0.183047033,
				"z": 0.3351942444,
				"element": "C" 
			},
			{
				"x": 0.3007267402,
				"y": 0.2776486438,
				"z": -0.1953108463,
				"element": "N" 
			},
			{
				"x": 0.5024541943,
				"y": 0.97567303,
				"z": -1.447074938,
				"element": "C" 
			},
			{
				"x": -0.0461326479,
				"y": 0.2579803583,
				"z": -2.7223839502,
				"element": "C" 
			},
			{
				"x": -1.4781935504,
				"y": 0.4671340735,
				"z": -2.9386187325,
				"element": "C" 
			},
			{
				"x": -2.6109196288,
				"y": 0.6719026886,
				"z": -3.0938981472,
				"element": "N" 
			},
			{
				"x": 1.3712150445,
				"y": -0.3937766183,
				"z": 0.445949586,
				"element": "C" 
			},
			{
				"x": 2.6394725365,
				"y": 0.1978201151,
				"z": 0.545425555,
				"element": "C" 
			},
			{
				"x": 3.6982597311,
				"y": -0.4435883133,
				"z": 1.1922103773,
				"element": "C" 
			},
			{
				"x": 3.4978767412,
				"y": -1.6905405948,
				"z": 1.7932086768,
				"element": "C" 
			},
			{
				"x": 4.4561936003,
				"y": -2.4007874175,
				"z": 2.4641967817,
				"element": "O" 
			},
			{
				"x": 5.7516282889,
				"y": -1.8372804629,
				"z": 2.5671521568,
				"element": "C" 
			},
			{
				"x": 2.2316247292,
				"y": -2.2838980481,
				"z": 1.7181215222,
				"element": "C" 
			},
			{
				"x": 1.1916540364,
				"y": -1.6554560223,
				"z": 1.0442012359,
				"element": "C" 
			},
			{
				"x": -4.5732678703,
				"y": -0.8580129287,
				"z": -1.9434777055,
				"element": "H" 
			},
			{
				"x": -5.5993859591,
				"y": -0.3717694937,
				"z": -0.5814144036,
				"element": "H" 
			},
			{
				"x": -5.8509388902,
				"y": -1.9479435193,
				"z": -1.356485204,
				"element": "H" 
			},
			{
				"x": -3.5948300255,
				"y": -2.7151765734,
				"z": -0.5401092475,
				"element": "H" 
			},
			{
				"x": -4.6101490484,
				"y": -2.1992970977,
				"z": 0.8321404445,
				"element": "H" 
			},
			{
				"x": -0.9975459777,
				"y": 0.1127570496,
				"z": 1.4289506758,
				"element": "H" 
			},
			{
				"x": -1.594232624,
				"y": 1.1000378275,
				"z": 0.1055533336,
				"element": "H" 
			},
			{
				"x": 1.5754636922,
				"y": 1.0944557372,
				"z": -1.5985016913,
				"element": "H" 
			},
			{
				"x": 0.0681492543,
				"y": 1.9840327868,
				"z": -1.4007608696,
				"element": "H" 
			},
			{
				"x": 0.1460629786,
				"y": -0.8159996387,
				"z": -2.647217245,
				"element": "H" 
			},
			{
				"x": 0.481491605,
				"y": 0.6435668704,
				"z": -3.6030802901,
				"element": "H" 
			},
			{
				"x": 2.8088597975,
				"y": 1.1889759999,
				"z": 0.1356812554,
				"element": "H" 
			},
			{
				"x": 4.6605118233,
				"y": 0.0527057441,
				"z": 1.2406134341,
				"element": "H" 
			},
			{
				"x": 5.7389162967,
				"y": -0.8822515202,
				"z": 3.1094197809,
				"element": "H" 
			},
			{
				"x": 6.3521747781,
				"y": -2.5568560737,
				"z": 3.1262258294,
				"element": "H" 
			},
			{
				"x": 6.2069999312,
				"y": -1.6794448277,
				"z": 1.5801708283,
				"element": "H" 
			},
			{
				"x": 2.087528345,
				"y": -3.2575806034,
				"z": 2.1753907592,
				"element": "H" 
			},
			{
				"x": 0.2407482551,
				"y": -2.165437847,
				"z": 0.9480540162,
				"element": "H" 
			}
		],
		 "valence_orbital": [ 
			{
				"type": "occ",
				"energy": -0.29696,
				"method": "rhf"
			},
			{
				"type": "occ",
				"energy": -0.27898,
				"method": "rhf"
			},
			{
				"type": "occ",
				"energy": -0.25319,
				"method": "rhf"
			},
			{
				"type": "occ",
				"energy": -0.24848,
				"method": "rhf"
			},
			{
				"type": "occ",
				"energy": -0.18865,
				"method": "rhf"
			},
			{
				"type": "unocc",
				"energy": -0.00302,
				"method": "rhf"
			},
			{
				"type": "unocc",
				"energy": 0.00973,
				"method": "rhf"
			},
			{
				"type": "unocc",
				"energy": 0.01874,
				"method": "rhf"
			},
			{
				"type": "unocc",
				"energy": 0.03418,
				"method": "rhf"
			},
			{
				"type": "unocc",
				"energy": 0.04137,
				"method": "rhf"
			}
		],
		"cosmo_sigma_profile": { 
			"-0.025": 0.0,
			"-0.024": 0.0,
			"-0.023": 0.0,
			"-0.022": 0.0,
			"-0.021": 0.0,
			"-0.02": 0.0,
			"-0.019": 0.0,
			"-0.018": 0.0,
			"-0.017": 0.0,
			"-0.016": 0.0,
			"-0.015": 0.0,
			"-0.014": 0.0,
			"-0.013": 0.0,
			"-0.012": 0.0,
			"-0.011": 0.0,
			"-0.01": 0.0,
			"-0.009": 0.200912315777,
			"-0.008": 3.48098651949,
			"-0.007": 9.58795085116,
			"-0.006": 20.2186348158,
			"-0.005": 31.4678283723,
			"-0.004": 34.4652713826,
			"-0.003": 32.3227824124,
			"-0.002": 21.0083335024,
			"-0.001": 17.5999136403,
			"0.0": 19.036144235,
			"0.001": 13.9571810744,
			"0.002": 13.0581676091,
			"0.003": 14.8407787347,
			"0.004": 17.7268181699,
			"0.005": 17.1111093461,
			"0.006": 17.0074863675,
			"0.007": 7.01901042257,
			"0.008": 6.96307039362,
			"0.009": 6.27135832018,
			"0.01": 5.45673180789,
			"0.011": 5.79459858821,
			"0.012": 2.5673292126,
			"0.013": 1.09587192916,
			"0.014": 0.0152801967008,
			"0.015": 0.0,
			"0.016": 0.0,
			"0.017": 0.0,
			"0.018": 0.0,
			"0.019": 0.0,
			"0.02": 0.0,
			"0.021": 0.0,
			"0.022": 0.0,
			"0.023": 0.0,
			"0.024": 0.0,
			"0.025": 0.0
		}
	}
}
