{
	 "smiles": "FC(F)(F)C1=CC=C(C=C1)C#N", 
	 "Tm": 311.15, 
	 "num_atms": 16, 
	 "gaussian": { 
		 "optdone": 1, 
		 "sigma_profile": "yes", 
		 "theory": "DFT", 
		 "functional": "B3LYP", 
		 "basiset": "6-31G**", 
		 "properties": { 
			 "R2extent": 3039.2193, 
			 "electric_dipole_moment_norm": 1.97398149434, 
			 "electric_quadrupole_moment_norm": 16.56246736, 
			 "total_energy": -661.522766902, 
			 "HOMO_LUMO_gap": 0.20971, 
			 "cosmo_polarized_energy": -8.35, 
			 "cosmo_cavitation_energy": 23.34, 
			 "cosmo_dispersion_energy": -16.07, 
			 "cosmo_repulsion_energy": 1.22, 
			 "cosmo_total_nonelectrostatic_energy": 8.5, 
			 "SMD_solvation_energy": 6.65 
		},
		"coords": [
			{
				"x": -1.1735179938,
				"y": 3.7151290961,
				"z": -1.4567431748,
				"element": "F" 
			},
			{
				"x": -1.4458619953,
				"y": 3.054667841,
				"z": -0.3095563773,
				"element": "C" 
			},
			{
				"x": -2.6972957915,
				"y": 2.5616076403,
				"z": -0.4224563491,
				"element": "F" 
			},
			{
				"x": -1.4521012325,
				"y": 3.9689755041,
				"z": 0.6834069077,
				"element": "F" 
			},
			{
				"x": -0.4376613624,
				"y": 1.9626296949,
				"z": -0.0549196567,
				"element": "C" 
			},
			{
				"x": -0.6537152128,
				"y": 0.6831442512,
				"z": -0.5745960463,
				"element": "C" 
			},
			{
				"x": 0.2985786878,
				"y": -0.313192738,
				"z": -0.3868738818,
				"element": "C" 
			},
			{
				"x": 1.4762365526,
				"y": -0.0283529318,
				"z": 0.3242758273,
				"element": "C" 
			},
			{
				"x": 1.6889443809,
				"y": 1.2583001213,
				"z": 0.8467891526,
				"element": "C" 
			},
			{
				"x": 0.731901737,
				"y": 2.2492654299,
				"z": 0.6548572333,
				"element": "C" 
			},
			{
				"x": 2.4607650833,
				"y": -1.0534991793,
				"z": 0.520558715,
				"element": "C" 
			},
			{
				"x": 3.258672017,
				"y": -1.884446422,
				"z": 0.6797577104,
				"element": "N" 
			},
			{
				"x": -1.5680395098,
				"y": 0.4671790317,
				"z": -1.1157562617,
				"element": "H" 
			},
			{
				"x": 0.1378190573,
				"y": -1.3095762331,
				"z": -0.7835809802,
				"element": "H" 
			},
			{
				"x": 2.597708464,
				"y": 1.4707726305,
				"z": 1.399062845,
				"element": "H" 
			},
			{
				"x": 0.8868671181,
				"y": 3.2418962633,
				"z": 1.0624743367,
				"element": "H" 
			}
		],
		 "valence_orbital": [ 
			{
				"type": "occ",
				"energy": -0.36842,
				"method": "rhf"
			},
			{
				"type": "occ",
				"energy": -0.36131,
				"method": "rhf"
			},
			{
				"type": "occ",
				"energy": -0.34252,
				"method": "rhf"
			},
			{
				"type": "occ",
				"energy": -0.29363,
				"method": "rhf"
			},
			{
				"type": "occ",
				"energy": -0.28441,
				"method": "rhf"
			},
			{
				"type": "unocc",
				"energy": -0.0747,
				"method": "rhf"
			},
			{
				"type": "unocc",
				"energy": -0.0421,
				"method": "rhf"
			},
			{
				"type": "unocc",
				"energy": 0.02451,
				"method": "rhf"
			},
			{
				"type": "unocc",
				"energy": 0.05189,
				"method": "rhf"
			},
			{
				"type": "unocc",
				"energy": 0.07084,
				"method": "rhf"
			}
		],
		"cosmo_sigma_profile": { 
			"-0.025": 0.0,
			"-0.024": 0.0,
			"-0.023": 0.0,
			"-0.022": 0.0,
			"-0.021": 0.0,
			"-0.02": 0.0,
			"-0.019": 0.0,
			"-0.018": 0.0,
			"-0.017": 0.0,
			"-0.016": 0.0,
			"-0.015": 0.0,
			"-0.014": 0.0,
			"-0.013": 0.0,
			"-0.012": 0.0,
			"-0.011": 0.0,
			"-0.01": 0.0,
			"-0.009": 2.33756592388,
			"-0.008": 8.01665694172,
			"-0.007": 9.82097688581,
			"-0.006": 7.81818774685,
			"-0.005": 7.69250210113,
			"-0.004": 7.3624217052,
			"-0.003": 9.99793912399,
			"-0.002": 12.4699036135,
			"-0.001": 14.8069786856,
			"0.0": 21.3860603276,
			"0.001": 18.5346967434,
			"0.002": 23.9547796574,
			"0.003": 20.2502898716,
			"0.004": 1.7291311301,
			"0.005": 2.57265932476,
			"0.006": 2.52904673099,
			"0.007": 3.20074933132,
			"0.008": 3.24084377185,
			"0.009": 3.42632505664,
			"0.01": 2.86729765786,
			"0.011": 2.64166737128,
			"0.012": 2.26178810007,
			"0.013": 0.680513148412,
			"0.014": 0.0,
			"0.015": 0.0,
			"0.016": 0.0,
			"0.017": 0.0,
			"0.018": 0.0,
			"0.019": 0.0,
			"0.02": 0.0,
			"0.021": 0.0,
			"0.022": 0.0,
			"0.023": 0.0,
			"0.024": 0.0,
			"0.025": 0.0
		}
	}
}
