{
	 "smiles": "CC(C)C1CCC2(C)CC(O)C3(C)CCC12O3", 
	 "Tm": 387.15, 
	 "num_atms": 43, 
	 "gaussian": { 
		 "optdone": 1, 
		 "sigma_profile": "yes", 
		 "theory": "DFT", 
		 "functional": "B3LYP", 
		 "basiset": "6-31G**", 
		 "properties": { 
			 "R2extent": 4061.0411, 
			 "electric_dipole_moment_norm": 0.552517121907, 
			 "electric_quadrupole_moment_norm": 8.49167130723, 
			 "total_energy": -737.716748632, 
			 "HOMO_LUMO_gap": 0.29783, 
			 "cosmo_polarized_energy": -7.77, 
			 "cosmo_cavitation_energy": 36.86, 
			 "cosmo_dispersion_energy": -26.38, 
			 "cosmo_repulsion_energy": 1.98, 
			 "cosmo_total_nonelectrostatic_energy": 12.47, 
			 "SMD_solvation_energy": 5.51 
		},
		"coords": [
			{
				"x": -2.176844516,
				"y": 1.6942962053,
				"z": -0.1681100313,
				"element": "C" 
			},
			{
				"x": -0.9178549994,
				"y": 2.1754860294,
				"z": -0.9022379348,
				"element": "C" 
			},
			{
				"x": -1.2739513132,
				"y": 3.3102466219,
				"z": -1.8789601472,
				"element": "C" 
			},
			{
				"x": -0.0726266527,
				"y": 1.0985502626,
				"z": -1.6317522995,
				"element": "C" 
			},
			{
				"x": -0.7369777003,
				"y": 0.3081483196,
				"z": -2.8051387438,
				"element": "C" 
			},
			{
				"x": -0.183526829,
				"y": -1.1418196551,
				"z": -2.7163784204,
				"element": "C" 
			},
			{
				"x": -0.0373438927,
				"y": -1.360362036,
				"z": -1.1994475028,
				"element": "C" 
			},
			{
				"x": -1.4538312945,
				"y": -1.5661925672,
				"z": -0.6052262604,
				"element": "C" 
			},
			{
				"x": 0.850632555,
				"y": -2.4997959579,
				"z": -0.6667826808,
				"element": "C" 
			},
			{
				"x": 1.1068043564,
				"y": -2.2858159526,
				"z": 0.8392258068,
				"element": "C" 
			},
			{
				"x": 2.125842471,
				"y": -3.2114599415,
				"z": 1.2182274167,
				"element": "O" 
			},
			{
				"x": 1.5221853026,
				"y": -0.8131175427,
				"z": 1.1655292761,
				"element": "C" 
			},
			{
				"x": 1.6444861347,
				"y": -0.576382219,
				"z": 2.6633818047,
				"element": "C" 
			},
			{
				"x": 2.7735270888,
				"y": -0.4509265108,
				"z": 0.3448192691,
				"element": "C" 
			},
			{
				"x": 2.1673452376,
				"y": 0.0316716704,
				"z": -0.9876200264,
				"element": "C" 
			},
			{
				"x": 0.6152866121,
				"y": -0.007810699,
				"z": -0.7640486398,
				"element": "C" 
			},
			{
				"x": 0.5109563585,
				"y": 0.1001770185,
				"z": 0.6646263304,
				"element": "O" 
			},
			{
				"x": -2.9147580659,
				"y": 1.2620995703,
				"z": -0.8539570143,
				"element": "H" 
			},
			{
				"x": -2.6616973132,
				"y": 2.5439315973,
				"z": 0.3262264901,
				"element": "H" 
			},
			{
				"x": -1.9338506357,
				"y": 0.9551736764,
				"z": 0.5965074843,
				"element": "H" 
			},
			{
				"x": -0.2501223873,
				"y": 2.5936055958,
				"z": -0.1362574751,
				"element": "H" 
			},
			{
				"x": -1.7772675432,
				"y": 4.1312432792,
				"z": -1.3569121892,
				"element": "H" 
			},
			{
				"x": -1.951023623,
				"y": 2.9595233778,
				"z": -2.6669938192,
				"element": "H" 
			},
			{
				"x": -0.3820228796,
				"y": 3.7203780074,
				"z": -2.366151544,
				"element": "H" 
			},
			{
				"x": 0.7435712522,
				"y": 1.6778284182,
				"z": -2.0778906733,
				"element": "H" 
			},
			{
				"x": -0.5179792048,
				"y": 0.7669435513,
				"z": -3.7739005477,
				"element": "H" 
			},
			{
				"x": -1.8272480907,
				"y": 0.3007505909,
				"z": -2.7095849319,
				"element": "H" 
			},
			{
				"x": -0.8449175688,
				"y": -1.8725883455,
				"z": -3.194283902,
				"element": "H" 
			},
			{
				"x": 0.7889052705,
				"y": -1.2110316158,
				"z": -3.218963716,
				"element": "H" 
			},
			{
				"x": -2.1904940473,
				"y": -0.8746407866,
				"z": -1.0116455206,
				"element": "H" 
			},
			{
				"x": -1.7919080921,
				"y": -2.5806041133,
				"z": -0.84623118,
				"element": "H" 
			},
			{
				"x": -1.4682184083,
				"y": -1.4505464764,
				"z": 0.4788735202,
				"element": "H" 
			},
			{
				"x": 1.8167681799,
				"y": -2.5377317282,
				"z": -1.1807771545,
				"element": "H" 
			},
			{
				"x": 0.3860819631,
				"y": -3.4817844216,
				"z": -0.8114733914,
				"element": "H" 
			},
			{
				"x": 0.1853497841,
				"y": -2.4997060208,
				"z": 1.3991730121,
				"element": "H" 
			},
			{
				"x": 2.1420562864,
				"y": -3.2643024164,
				"z": 2.1819283761,
				"element": "H" 
			},
			{
				"x": 1.8628606029,
				"y": 0.4773944161,
				"z": 2.8570144203,
				"element": "H" 
			},
			{
				"x": 2.4584089267,
				"y": -1.1735069761,
				"z": 3.0876899804,
				"element": "H" 
			},
			{
				"x": 0.7131980026,
				"y": -0.8323979802,
				"z": 3.1799787357,
				"element": "H" 
			},
			{
				"x": 3.3301543573,
				"y": 0.3522030859,
				"z": 0.8373052736,
				"element": "H" 
			},
			{
				"x": 3.438987463,
				"y": -1.3117842918,
				"z": 0.2468622312,
				"element": "H" 
			},
			{
				"x": 2.4655247342,
				"y": 1.0639510835,
				"z": -1.1874612983,
				"element": "H" 
			},
			{
				"x": 2.4856321181,
				"y": -0.5610941233,
				"z": -1.8492823833,
				"element": "H" 
			}
		],
		 "valence_orbital": [ 
			{
				"type": "occ",
				"energy": -0.29896,
				"method": "rhf"
			},
			{
				"type": "occ",
				"energy": -0.29769,
				"method": "rhf"
			},
			{
				"type": "occ",
				"energy": -0.27797,
				"method": "rhf"
			},
			{
				"type": "occ",
				"energy": -0.2726,
				"method": "rhf"
			},
			{
				"type": "occ",
				"energy": -0.2311,
				"method": "rhf"
			},
			{
				"type": "unocc",
				"energy": 0.06673,
				"method": "rhf"
			},
			{
				"type": "unocc",
				"energy": 0.0723,
				"method": "rhf"
			},
			{
				"type": "unocc",
				"energy": 0.09129,
				"method": "rhf"
			},
			{
				"type": "unocc",
				"energy": 0.10058,
				"method": "rhf"
			},
			{
				"type": "unocc",
				"energy": 0.10522,
				"method": "rhf"
			}
		],
		"cosmo_sigma_profile": { 
			"-0.025": 0.0,
			"-0.024": 0.0,
			"-0.023": 0.0,
			"-0.022": 0.0,
			"-0.021": 0.0,
			"-0.02": 0.0,
			"-0.019": 0.0,
			"-0.018": 0.0,
			"-0.017": 0.0,
			"-0.016": 0.0,
			"-0.015": 0.486069459864,
			"-0.014": 0.764279588846,
			"-0.013": 1.00111903376,
			"-0.012": 0.772291338268,
			"-0.011": 1.20550504479,
			"-0.01": 1.06348367707,
			"-0.009": 1.22868419624,
			"-0.008": 1.14789904914,
			"-0.007": 0.759300422774,
			"-0.006": 1.40421530199,
			"-0.005": 2.0842440489,
			"-0.004": 7.22603885329,
			"-0.003": 23.7612930461,
			"-0.002": 42.1081500986,
			"-0.001": 48.3391891158,
			"0.0": 46.5814554031,
			"0.001": 41.0029424224,
			"0.002": 25.6853197035,
			"0.003": 6.9074406647,
			"0.004": 3.41983108226,
			"0.005": 4.09543820575,
			"0.006": 2.87197084092,
			"0.007": 3.04685298011,
			"0.008": 2.14552914134,
			"0.009": 2.87098991037,
			"0.01": 2.94259739579,
			"0.011": 2.32888635651,
			"0.012": 1.26898403035,
			"0.013": 1.45495725327,
			"0.014": 1.65609156688,
			"0.015": 0.0942070034391,
			"0.016": 0.0,
			"0.017": 0.0,
			"0.018": 0.0,
			"0.019": 0.0,
			"0.02": 0.0,
			"0.021": 0.0,
			"0.022": 0.0,
			"0.023": 0.0,
			"0.024": 0.0,
			"0.025": 0.0
		}
	}
}
