{
	 "smiles": "CCOC1=NC(F)=CC2=NC(=NN12)S(=O)(=O)NC1=C(Cl)C=CC=C1C(=O)OC", 
	 "Tm": 490.15, 
	 "num_atms": 41, 
	 "gaussian": { 
		 "optdone": 1, 
		 "sigma_profile": "yes", 
		 "theory": "DFT", 
		 "functional": "B3LYP", 
		 "basiset": "6-31G**", 
		 "properties": { 
			 "R2extent": 14893.0192, 
			 "electric_dipole_moment_norm": 5.64901378826, 
			 "electric_quadrupole_moment_norm": 18.9916162888, 
			 "total_energy": -2187.42628466, 
			 "HOMO_LUMO_gap": 0.18443, 
			 "cosmo_polarized_energy": -23.48, 
			 "cosmo_cavitation_energy": 50.6, 
			 "cosmo_dispersion_energy": -34.85, 
			 "cosmo_repulsion_energy": 2.57, 
			 "cosmo_total_nonelectrostatic_energy": 18.32, 
			 "SMD_solvation_energy": 6.76 
		},
		"coords": [
			{
				"x": 2.2311895474,
				"y": -4.978933887,
				"z": 1.7369758848,
				"element": "C" 
			},
			{
				"x": 2.1040306863,
				"y": -4.1290735245,
				"z": 0.4849704654,
				"element": "C" 
			},
			{
				"x": 1.2750517477,
				"y": -2.9532197224,
				"z": 0.7287981793,
				"element": "O" 
			},
			{
				"x": -0.0304389344,
				"y": -3.0811595169,
				"z": 0.6229739927,
				"element": "C" 
			},
			{
				"x": -0.6431354533,
				"y": -4.1874042195,
				"z": 0.2905165738,
				"element": "N" 
			},
			{
				"x": -1.9863449595,
				"y": -4.1747162705,
				"z": 0.206120554,
				"element": "C" 
			},
			{
				"x": -2.5227653667,
				"y": -5.3451550156,
				"z": -0.139756847,
				"element": "F" 
			},
			{
				"x": -2.8064731009,
				"y": -3.1008388325,
				"z": 0.4403712287,
				"element": "C" 
			},
			{
				"x": -2.1420026188,
				"y": -1.9094454335,
				"z": 0.8025337568,
				"element": "C" 
			},
			{
				"x": -2.5561111883,
				"y": -0.6823641941,
				"z": 1.1049489546,
				"element": "N" 
			},
			{
				"x": -1.3911503154,
				"y": -0.0352350344,
				"z": 1.3487916754,
				"element": "C" 
			},
			{
				"x": -0.2605663743,
				"y": -0.7112988764,
				"z": 1.2363625292,
				"element": "N" 
			},
			{
				"x": -0.7469607806,
				"y": -1.9398485151,
				"z": 0.883089895,
				"element": "N" 
			},
			{
				"x": -1.4040521814,
				"y": 1.6902000268,
				"z": 1.8678025444,
				"element": "S" 
			},
			{
				"x": -2.1506554988,
				"y": 1.7288528996,
				"z": 3.1180838491,
				"element": "O" 
			},
			{
				"x": -0.052512759,
				"y": 2.216712602,
				"z": 1.7363649667,
				"element": "O" 
			},
			{
				"x": -2.3813133668,
				"y": 2.4006279053,
				"z": 0.6763259505,
				"element": "N" 
			},
			{
				"x": -1.868154366,
				"y": 3.066359196,
				"z": -0.4566043439,
				"element": "C" 
			},
			{
				"x": -2.2186633871,
				"y": 2.6213762229,
				"z": -1.7482605085,
				"element": "C" 
			},
			{
				"x": -3.2938240878,
				"y": 1.2380668917,
				"z": -1.9334543007,
				"element": "Cl" 
			},
			{
				"x": -1.7514719006,
				"y": 3.2443955509,
				"z": -2.9011207196,
				"element": "C" 
			},
			{
				"x": -0.8814585724,
				"y": 4.3262610733,
				"z": -2.7885927203,
				"element": "C" 
			},
			{
				"x": -0.5274831947,
				"y": 4.7924358313,
				"z": -1.5279414326,
				"element": "C" 
			},
			{
				"x": -1.0343286109,
				"y": 4.2067799053,
				"z": -0.3613454451,
				"element": "C" 
			},
			{
				"x": -0.6472691924,
				"y": 4.9112333678,
				"z": 0.9105733221,
				"element": "C" 
			},
			{
				"x": 0.324370286,
				"y": 5.6353133737,
				"z": 0.9894036087,
				"element": "O" 
			},
			{
				"x": -1.5251820287,
				"y": 4.7319657771,
				"z": 1.9094712606,
				"element": "O" 
			},
			{
				"x": -1.1717243962,
				"y": 5.3457379563,
				"z": 3.1609837495,
				"element": "C" 
			},
			{
				"x": 1.2678378907,
				"y": -5.4119166966,
				"z": 2.0167707169,
				"element": "H" 
			},
			{
				"x": 2.9310332829,
				"y": -5.7989298293,
				"z": 1.5463585209,
				"element": "H" 
			},
			{
				"x": 2.6148105028,
				"y": -4.3865878687,
				"z": 2.5720262451,
				"element": "H" 
			},
			{
				"x": 1.6763151151,
				"y": -4.6906725409,
				"z": -0.3478378195,
				"element": "H" 
			},
			{
				"x": 3.0616476136,
				"y": -3.7000695036,
				"z": 0.1861122869,
				"element": "H" 
			},
			{
				"x": -3.8827509285,
				"y": -3.1527350229,
				"z": 0.3608679915,
				"element": "H" 
			},
			{
				"x": -3.2144839568,
				"y": 1.8391026829,
				"z": 0.517745329,
				"element": "H" 
			},
			{
				"x": -2.0576164078,
				"y": 2.8665684163,
				"z": -3.8702391228,
				"element": "H" 
			},
			{
				"x": -0.4938558756,
				"y": 4.8056731231,
				"z": -3.6815130586,
				"element": "H" 
			},
			{
				"x": 0.1370700194,
				"y": 5.6404589964,
				"z": -1.4097715837,
				"element": "H" 
			},
			{
				"x": -0.197511036,
				"y": 4.9828209071,
				"z": 3.4952765134,
				"element": "H" 
			},
			{
				"x": -1.952537849,
				"y": 5.0452306924,
				"z": 3.8582584676,
				"element": "H" 
			},
			{
				"x": -1.1361580032,
				"y": 6.4330311069,
				"z": 3.0573588899,
				"element": "H" 
			}
		],
		 "valence_orbital": [ 
			{
				"type": "occ",
				"energy": -0.29309,
				"method": "rhf"
			},
			{
				"type": "occ",
				"energy": -0.27373,
				"method": "rhf"
			},
			{
				"type": "occ",
				"energy": -0.25913,
				"method": "rhf"
			},
			{
				"type": "occ",
				"energy": -0.25621,
				"method": "rhf"
			},
			{
				"type": "occ",
				"energy": -0.24365,
				"method": "rhf"
			},
			{
				"type": "unocc",
				"energy": -0.05922,
				"method": "rhf"
			},
			{
				"type": "unocc",
				"energy": -0.0493,
				"method": "rhf"
			},
			{
				"type": "unocc",
				"energy": -0.0461,
				"method": "rhf"
			},
			{
				"type": "unocc",
				"energy": -0.02594,
				"method": "rhf"
			},
			{
				"type": "unocc",
				"energy": 0.00883,
				"method": "rhf"
			}
		],
		"cosmo_sigma_profile": { 
			"-0.025": 0.0,
			"-0.024": 0.0,
			"-0.023": 0.0,
			"-0.022": 0.0,
			"-0.021": 0.0,
			"-0.02": 0.0,
			"-0.019": 0.0,
			"-0.018": 0.0,
			"-0.017": 0.0,
			"-0.016": 0.0,
			"-0.015": 0.0,
			"-0.014": 0.298670400885,
			"-0.013": 0.349305769524,
			"-0.012": 0.560353653794,
			"-0.011": 1.01749214118,
			"-0.01": 2.73286991845,
			"-0.009": 3.39202302787,
			"-0.008": 7.2929793937,
			"-0.007": 14.7259786338,
			"-0.006": 22.943714973,
			"-0.005": 29.5661260265,
			"-0.004": 29.4061571467,
			"-0.003": 34.0435100532,
			"-0.002": 30.4102141915,
			"-0.001": 31.5047566508,
			"0.0": 28.7957873496,
			"0.001": 25.3338405557,
			"0.002": 28.5917531095,
			"0.003": 25.4505980161,
			"0.004": 14.3346134245,
			"0.005": 10.276089544,
			"0.006": 11.3889315953,
			"0.007": 8.83056998336,
			"0.008": 11.0380256571,
			"0.009": 15.001291296,
			"0.01": 11.0823661517,
			"0.011": 6.41778561403,
			"0.012": 3.8384173383,
			"0.013": 0.0587212459562,
			"0.014": 0.0,
			"0.015": 0.0,
			"0.016": 0.0,
			"0.017": 0.0,
			"0.018": 0.0,
			"0.019": 0.0,
			"0.02": 0.0,
			"0.021": 0.0,
			"0.022": 0.0,
			"0.023": 0.0,
			"0.024": 0.0,
			"0.025": 0.0
		}
	}
}
