{
	 "smiles": "FC(F)(F)CN(C1CC1)C(=O)CC#N", 
	 "Tm": 343.15, 
	 "num_atms": 23, 
	 "gaussian": { 
		 "optdone": 1, 
		 "sigma_profile": "yes", 
		 "theory": "DFT", 
		 "functional": "B3LYP", 
		 "basiset": "6-31G**", 
		 "properties": { 
			 "R2extent": 3030.3863, 
			 "electric_dipole_moment_norm": 3.98543873871, 
			 "electric_quadrupole_moment_norm": 19.558072108, 
			 "total_energy": -794.483608039, 
			 "HOMO_LUMO_gap": 0.25406, 
			 "cosmo_polarized_energy": -14.75, 
			 "cosmo_cavitation_energy": 28.54, 
			 "cosmo_dispersion_energy": -18.93, 
			 "cosmo_repulsion_energy": 1.44, 
			 "cosmo_total_nonelectrostatic_energy": 11.05, 
			 "SMD_solvation_energy": 7.17 
		},
		"coords": [
			{
				"x": 1.4379676282,
				"y": -0.3075926941,
				"z": -2.4040223818,
				"element": "F" 
			},
			{
				"x": 0.1173858018,
				"y": -0.0859864475,
				"z": -2.2727789305,
				"element": "C" 
			},
			{
				"x": -0.4676660688,
				"y": -1.2849928012,
				"z": -2.0338519302,
				"element": "F" 
			},
			{
				"x": -0.354263714,
				"y": 0.3669225617,
				"z": -3.4515505341,
				"element": "F" 
			},
			{
				"x": -0.1873470129,
				"y": 0.9184873558,
				"z": -1.1696965116,
				"element": "C" 
			},
			{
				"x": 0.3600767239,
				"y": 0.5216809403,
				"z": 0.1208118988,
				"element": "N" 
			},
			{
				"x": -0.2939277124,
				"y": -0.5484749827,
				"z": 0.8458220076,
				"element": "C" 
			},
			{
				"x": -1.7617692665,
				"y": -0.4125560601,
				"z": 1.1666906583,
				"element": "C" 
			},
			{
				"x": -0.7478978716,
				"y": -0.3511496325,
				"z": 2.2747921054,
				"element": "C" 
			},
			{
				"x": 1.6037798754,
				"y": 1.0336146969,
				"z": 0.4392016413,
				"element": "C" 
			},
			{
				"x": 2.1597352319,
				"y": 1.8883387213,
				"z": -0.2285803344,
				"element": "O" 
			},
			{
				"x": 2.3015098451,
				"y": 0.4865004864,
				"z": 1.7045842671,
				"element": "C" 
			},
			{
				"x": 2.0127237926,
				"y": 1.3013083571,
				"z": 2.88503115,
				"element": "C" 
			},
			{
				"x": 1.7711312754,
				"y": 1.9465147878,
				"z": 3.8191356327,
				"element": "N" 
			},
			{
				"x": 0.2573568902,
				"y": 1.8723870294,
				"z": -1.4532669085,
				"element": "H" 
			},
			{
				"x": -1.2721781796,
				"y": 1.022577909,
				"z": -1.1061013856,
				"element": "H" 
			},
			{
				"x": 0.0347823234,
				"y": -1.5485892448,
				"z": 0.5680985172,
				"element": "H" 
			},
			{
				"x": -2.3807374171,
				"y": -1.296782283,
				"z": 1.0568346204,
				"element": "H" 
			},
			{
				"x": -2.2540723874,
				"y": 0.5182145322,
				"z": 0.9028140264,
				"element": "H" 
			},
			{
				"x": -0.6517848343,
				"y": -1.1965170647,
				"z": 2.9493014469,
				"element": "H" 
			},
			{
				"x": -0.5731852779,
				"y": 0.6143477993,
				"z": 2.7358509143,
				"element": "H" 
			},
			{
				"x": 3.3729885937,
				"y": 0.542254469,
				"z": 1.4943600566,
				"element": "H" 
			},
			{
				"x": 2.038991761,
				"y": -0.5526084359,
				"z": 1.9170199736,
				"element": "H" 
			}
		],
		 "valence_orbital": [ 
			{
				"type": "occ",
				"energy": -0.34118,
				"method": "rhf"
			},
			{
				"type": "occ",
				"energy": -0.3341,
				"method": "rhf"
			},
			{
				"type": "occ",
				"energy": -0.32809,
				"method": "rhf"
			},
			{
				"type": "occ",
				"energy": -0.27799,
				"method": "rhf"
			},
			{
				"type": "occ",
				"energy": -0.26989,
				"method": "rhf"
			},
			{
				"type": "unocc",
				"energy": -0.01583,
				"method": "rhf"
			},
			{
				"type": "unocc",
				"energy": 0.02606,
				"method": "rhf"
			},
			{
				"type": "unocc",
				"energy": 0.0341,
				"method": "rhf"
			},
			{
				"type": "unocc",
				"energy": 0.07234,
				"method": "rhf"
			},
			{
				"type": "unocc",
				"energy": 0.07621,
				"method": "rhf"
			}
		],
		"cosmo_sigma_profile": { 
			"-0.025": 0.0,
			"-0.024": 0.0,
			"-0.023": 0.0,
			"-0.022": 0.0,
			"-0.021": 0.0,
			"-0.02": 0.0,
			"-0.019": 0.0,
			"-0.018": 0.0,
			"-0.017": 0.0,
			"-0.016": 0.0,
			"-0.015": 0.0,
			"-0.014": 0.0,
			"-0.013": 0.0,
			"-0.012": 0.0,
			"-0.011": 0.0230229077655,
			"-0.01": 1.93231637117,
			"-0.009": 5.69220973787,
			"-0.008": 7.02600265307,
			"-0.007": 11.6371744393,
			"-0.006": 14.772039378,
			"-0.005": 16.8535447328,
			"-0.004": 14.5603999644,
			"-0.003": 12.0286022927,
			"-0.002": 11.061891755,
			"-0.001": 13.2121747426,
			"0.0": 11.6161691156,
			"0.001": 12.0339900062,
			"0.002": 23.1544359915,
			"0.003": 27.6309417187,
			"0.004": 5.41920784154,
			"0.005": 4.22098289136,
			"0.006": 3.37728270357,
			"0.007": 4.19759469748,
			"0.008": 4.88949858622,
			"0.009": 4.45377493247,
			"0.01": 4.0083847697,
			"0.011": 5.2896872279,
			"0.012": 6.29384716027,
			"0.013": 1.89826086604,
			"0.014": 0.0,
			"0.015": 0.0,
			"0.016": 0.0,
			"0.017": 0.0,
			"0.018": 0.0,
			"0.019": 0.0,
			"0.02": 0.0,
			"0.021": 0.0,
			"0.022": 0.0,
			"0.023": 0.0,
			"0.024": 0.0,
			"0.025": 0.0
		}
	}
}
