{
	 "smiles": "CC1(C)OC(CN1C(=O)C(Cl)Cl)C1=CC=CO1", 
	 "Tm": 370.15, 
	 "num_atms": 30, 
	 "gaussian": { 
		 "optdone": 1, 
		 "sigma_profile": "yes", 
		 "theory": "DFT", 
		 "functional": "B3LYP", 
		 "basiset": "6-31G**", 
		 "properties": { 
			 "R2extent": 5661.7183, 
			 "electric_dipole_moment_norm": 1.96624214684, 
			 "electric_quadrupole_moment_norm": 8.4973312687, 
			 "total_energy": -1627.78362723, 
			 "HOMO_LUMO_gap": 0.19463, 
			 "cosmo_polarized_energy": -10.33, 
			 "cosmo_cavitation_energy": 35.39, 
			 "cosmo_dispersion_energy": -24.57, 
			 "cosmo_repulsion_energy": 1.89, 
			 "cosmo_total_nonelectrostatic_energy": 12.71, 
			 "SMD_solvation_energy": 6.64 
		},
		"coords": [
			{
				"x": 0.4966837536,
				"y": 1.0957893033,
				"z": 2.636501159,
				"element": "C" 
			},
			{
				"x": -0.860701268,
				"y": 1.0785829202,
				"z": 1.9286998817,
				"element": "C" 
			},
			{
				"x": -1.9819011832,
				"y": 1.6377450953,
				"z": 2.8042225415,
				"element": "C" 
			},
			{
				"x": -1.2270819667,
				"y": -0.2581659221,
				"z": 1.5761284361,
				"element": "O" 
			},
			{
				"x": -0.9845039342,
				"y": -0.5086383897,
				"z": 0.1834534117,
				"element": "C" 
			},
			{
				"x": -1.2235675241,
				"y": 0.8590974311,
				"z": -0.4669748206,
				"element": "C" 
			},
			{
				"x": -0.799222193,
				"y": 1.7724742545,
				"z": 0.5987238763,
				"element": "N" 
			},
			{
				"x": -0.5115966003,
				"y": 3.0911771386,
				"z": 0.503191315,
				"element": "C" 
			},
			{
				"x": -0.2426684059,
				"y": 3.814894231,
				"z": 1.4579730408,
				"element": "O" 
			},
			{
				"x": -0.4962318043,
				"y": 3.7829180314,
				"z": -0.8789692996,
				"element": "C" 
			},
			{
				"x": -2.0941350588,
				"y": 3.74291495,
				"z": -1.7153592333,
				"element": "Cl" 
			},
			{
				"x": 0.833262772,
				"y": 3.1804880356,
				"z": -1.9488179438,
				"element": "Cl" 
			},
			{
				"x": 0.3653447982,
				"y": -1.0950899775,
				"z": -0.0972471734,
				"element": "C" 
			},
			{
				"x": 1.5396102279,
				"y": -0.6214344214,
				"z": -0.6114500137,
				"element": "C" 
			},
			{
				"x": 2.4623709059,
				"y": -1.7181965623,
				"z": -0.599985616,
				"element": "C" 
			},
			{
				"x": 1.7817000235,
				"y": -2.7769642946,
				"z": -0.0819950962,
				"element": "C" 
			},
			{
				"x": 0.5047671162,
				"y": -2.4180276545,
				"z": 0.2254967351,
				"element": "O" 
			},
			{
				"x": 0.7695411764,
				"y": 2.1144982908,
				"z": 2.9153015458,
				"element": "H" 
			},
			{
				"x": 1.2701122542,
				"y": 0.6764985839,
				"z": 1.9902424032,
				"element": "H" 
			},
			{
				"x": 0.4271328056,
				"y": 0.4810957638,
				"z": 3.5381593165,
				"element": "H" 
			},
			{
				"x": -2.9321949878,
				"y": 1.6036318928,
				"z": 2.2648752277,
				"element": "H" 
			},
			{
				"x": -2.073116432,
				"y": 1.023219672,
				"z": 3.7039369162,
				"element": "H" 
			},
			{
				"x": -1.7621841228,
				"y": 2.6669129794,
				"z": 3.0921458621,
				"element": "H" 
			},
			{
				"x": -1.7444289119,
				"y": -1.2344027934,
				"z": -0.122877061,
				"element": "H" 
			},
			{
				"x": -0.6517067338,
				"y": 1.0067801251,
				"z": -1.3821573766,
				"element": "H" 
			},
			{
				"x": -2.2870402289,
				"y": 0.9881124614,
				"z": -0.6922306522,
				"element": "H" 
			},
			{
				"x": -0.2752974893,
				"y": 4.8276585101,
				"z": -0.6828751595,
				"element": "H" 
			},
			{
				"x": 1.730155534,
				"y": 0.38511571,
				"z": -0.9551483415,
				"element": "H" 
			},
			{
				"x": 3.4892951789,
				"y": -1.7130210177,
				"z": -0.9356007441,
				"element": "H" 
			},
			{
				"x": 2.0434022987,
				"y": -3.8040643469,
				"z": 0.1200368625,
				"element": "H" 
			}
		],
		 "valence_orbital": [ 
			{
				"type": "occ",
				"energy": -0.28437,
				"method": "rhf"
			},
			{
				"type": "occ",
				"energy": -0.27751,
				"method": "rhf"
			},
			{
				"type": "occ",
				"energy": -0.2717,
				"method": "rhf"
			},
			{
				"type": "occ",
				"energy": -0.26151,
				"method": "rhf"
			},
			{
				"type": "occ",
				"energy": -0.23019,
				"method": "rhf"
			},
			{
				"type": "unocc",
				"energy": -0.03556,
				"method": "rhf"
			},
			{
				"type": "unocc",
				"energy": -0.02626,
				"method": "rhf"
			},
			{
				"type": "unocc",
				"energy": -0.00112,
				"method": "rhf"
			},
			{
				"type": "unocc",
				"energy": 0.05692,
				"method": "rhf"
			},
			{
				"type": "unocc",
				"energy": 0.0618,
				"method": "rhf"
			}
		],
		"cosmo_sigma_profile": { 
			"-0.025": 0.0,
			"-0.024": 0.0,
			"-0.023": 0.0,
			"-0.022": 0.0,
			"-0.021": 0.0,
			"-0.02": 0.0,
			"-0.019": 0.0,
			"-0.018": 0.0,
			"-0.017": 0.0,
			"-0.016": 0.0,
			"-0.015": 0.0,
			"-0.014": 0.0,
			"-0.013": 0.0,
			"-0.012": 0.0,
			"-0.011": 1.05634296464,
			"-0.01": 1.25062674664,
			"-0.009": 2.65320825669,
			"-0.008": 3.11944277352,
			"-0.007": 8.41536839182,
			"-0.006": 11.0042787358,
			"-0.005": 11.6655143424,
			"-0.004": 20.3168846198,
			"-0.003": 22.7992692897,
			"-0.002": 27.8070781219,
			"-0.001": 28.0552497633,
			"0.0": 28.3211061988,
			"0.001": 20.8763138257,
			"0.002": 18.8548534196,
			"0.003": 24.0016504505,
			"0.004": 18.4419695442,
			"0.005": 8.92778812998,
			"0.006": 5.32424614265,
			"0.007": 4.19354679148,
			"0.008": 4.0314044853,
			"0.009": 3.12434370456,
			"0.01": 2.57889622835,
			"0.011": 3.35191803633,
			"0.012": 3.8802746138,
			"0.013": 0.656439986647,
			"0.014": 0.0,
			"0.015": 0.0,
			"0.016": 0.0,
			"0.017": 0.0,
			"0.018": 0.0,
			"0.019": 0.0,
			"0.02": 0.0,
			"0.021": 0.0,
			"0.022": 0.0,
			"0.023": 0.0,
			"0.024": 0.0,
			"0.025": 0.0
		}
	}
}
