{
	 "smiles": "[O-][N+](=O)C1=CC=CC(=C1C=O)[N+]([O-])=O", 
	 "Tm": 392.15, 
	 "num_atms": 18, 
	 "gaussian": { 
		 "optdone": 1, 
		 "sigma_profile": "yes", 
		 "theory": "DFT", 
		 "functional": "B3LYP", 
		 "basiset": "6-31G**", 
		 "properties": { 
			 "R2extent": 3158.6834, 
			 "electric_dipole_moment_norm": 5.58618834806, 
			 "electric_quadrupole_moment_norm": 12.8465448215, 
			 "total_energy": -754.539871888, 
			 "HOMO_LUMO_gap": 0.15181, 
			 "cosmo_polarized_energy": -14.94, 
			 "cosmo_cavitation_energy": 24.64, 
			 "cosmo_dispersion_energy": -17.83, 
			 "cosmo_repulsion_energy": 1.39, 
			 "cosmo_total_nonelectrostatic_energy": 8.21, 
			 "SMD_solvation_energy": 9.12 
		},
		"coords": [
			{
				"x": -1.7856732773,
				"y": 0.2121305071,
				"z": 2.2425727336,
				"element": "O" 
			},
			{
				"x": -1.7251694866,
				"y": -0.4990421485,
				"z": 1.2452418424,
				"element": "N" 
			},
			{
				"x": -2.6908533973,
				"y": -1.0125876018,
				"z": 0.6810233415,
				"element": "O" 
			},
			{
				"x": -0.3897363827,
				"y": -0.7900140108,
				"z": 0.6881347414,
				"element": "C" 
			},
			{
				"x": 0.7181258362,
				"y": -0.4715158441,
				"z": 1.4717791629,
				"element": "C" 
			},
			{
				"x": 1.9938460865,
				"y": -0.7715589204,
				"z": 1.0016310315,
				"element": "C" 
			},
			{
				"x": 2.1437909176,
				"y": -1.390749623,
				"z": -0.2363607961,
				"element": "C" 
			},
			{
				"x": 1.0103775881,
				"y": -1.6927464821,
				"z": -0.9894707557,
				"element": "C" 
			},
			{
				"x": -0.2910649037,
				"y": -1.3969454631,
				"z": -0.5688768498,
				"element": "C" 
			},
			{
				"x": -1.5063330056,
				"y": -1.5720554069,
				"z": -1.4887824011,
				"element": "C" 
			},
			{
				"x": -1.8173234561,
				"y": -0.6736300768,
				"z": -2.2315925718,
				"element": "O" 
			},
			{
				"x": 1.2116493924,
				"y": -2.3924037465,
				"z": -2.2733667364,
				"element": "N" 
			},
			{
				"x": 0.2168789318,
				"y": -2.8867276563,
				"z": -2.8031807389,
				"element": "O" 
			},
			{
				"x": 2.353547499,
				"y": -2.4568361823,
				"z": -2.7161195404,
				"element": "O" 
			},
			{
				"x": 0.55748332,
				"y": 0.0029544479,
				"z": 2.4320225482,
				"element": "H" 
			},
			{
				"x": 2.8655419235,
				"y": -0.533052744,
				"z": 1.6008561759,
				"element": "H" 
			},
			{
				"x": 3.1174044438,
				"y": -1.6476867606,
				"z": -0.6351593044,
				"element": "H" 
			},
			{
				"x": -2.0421920297,
				"y": -2.5309322878,
				"z": -1.4201518826,
				"element": "H" 
			}
		],
		 "valence_orbital": [ 
			{
				"type": "occ",
				"energy": -0.3268,
				"method": "rhf"
			},
			{
				"type": "occ",
				"energy": -0.32319,
				"method": "rhf"
			},
			{
				"type": "occ",
				"energy": -0.31527,
				"method": "rhf"
			},
			{
				"type": "occ",
				"energy": -0.31249,
				"method": "rhf"
			},
			{
				"type": "occ",
				"energy": -0.27427,
				"method": "rhf"
			},
			{
				"type": "unocc",
				"energy": -0.12246,
				"method": "rhf"
			},
			{
				"type": "unocc",
				"energy": -0.11464,
				"method": "rhf"
			},
			{
				"type": "unocc",
				"energy": -0.0485,
				"method": "rhf"
			},
			{
				"type": "unocc",
				"energy": -0.03325,
				"method": "rhf"
			},
			{
				"type": "unocc",
				"energy": -0.0209,
				"method": "rhf"
			}
		],
		"cosmo_sigma_profile": { 
			"-0.025": 0.0,
			"-0.024": 0.0,
			"-0.023": 0.0,
			"-0.022": 0.0,
			"-0.021": 0.0,
			"-0.02": 0.0,
			"-0.019": 0.0,
			"-0.018": 0.0,
			"-0.017": 0.0,
			"-0.016": 0.0,
			"-0.015": 0.0,
			"-0.014": 0.0,
			"-0.013": 0.0,
			"-0.012": 0.0,
			"-0.011": 0.0,
			"-0.01": 1.0284088845,
			"-0.009": 8.39919760525,
			"-0.008": 11.3850742645,
			"-0.007": 11.0183154153,
			"-0.006": 11.2463525982,
			"-0.005": 10.8563694065,
			"-0.004": 14.6091996821,
			"-0.003": 13.9863928418,
			"-0.002": 13.2315140632,
			"-0.001": 10.0431360039,
			"0.0": 6.03478488017,
			"0.001": 4.6514897218,
			"0.002": 5.76389779383,
			"0.003": 6.47865350324,
			"0.004": 8.54084881852,
			"0.005": 10.5275936208,
			"0.006": 15.4150018513,
			"0.007": 13.0089463837,
			"0.008": 9.42045915274,
			"0.009": 5.81146320347,
			"0.01": 4.6255607064,
			"0.011": 2.58203195157,
			"0.012": 0.307387447156,
			"0.013": 0.0,
			"0.014": 0.0,
			"0.015": 0.0,
			"0.016": 0.0,
			"0.017": 0.0,
			"0.018": 0.0,
			"0.019": 0.0,
			"0.02": 0.0,
			"0.021": 0.0,
			"0.022": 0.0,
			"0.023": 0.0,
			"0.024": 0.0,
			"0.025": 0.0
		}
	}
}
