{
	 "smiles": "COCC(=O)NC(C)C(O)=O", 
	 "Tm": 382.15, 
	 "num_atms": 22, 
	 "gaussian": { 
		 "optdone": 1, 
		 "sigma_profile": "yes", 
		 "theory": "DFT", 
		 "functional": "B3LYP", 
		 "basiset": "6-31G**", 
		 "properties": { 
			 "R2extent": 2592.0126, 
			 "electric_dipole_moment_norm": 2.81028907588, 
			 "electric_quadrupole_moment_norm": 15.1246498819, 
			 "total_energy": -590.920289905, 
			 "HOMO_LUMO_gap": 0.23174, 
			 "cosmo_polarized_energy": -15.6, 
			 "cosmo_cavitation_energy": 26.14, 
			 "cosmo_dispersion_energy": -17.96, 
			 "cosmo_repulsion_energy": 1.49, 
			 "cosmo_total_nonelectrostatic_energy": 9.67, 
			 "SMD_solvation_energy": 6.87 
		},
		"coords": [
			{
				"x": 1.7913310113,
				"y": -3.0790485914,
				"z": 1.2176595854,
				"element": "C" 
			},
			{
				"x": 0.6586980161,
				"y": -2.2259055763,
				"z": 1.1519992958,
				"element": "O" 
			},
			{
				"x": 0.5927657429,
				"y": -1.4760803264,
				"z": -0.0482825449,
				"element": "C" 
			},
			{
				"x": 1.6845242419,
				"y": -0.4020158075,
				"z": -0.1941665773,
				"element": "C" 
			},
			{
				"x": 2.3580585574,
				"y": -0.3158407767,
				"z": -1.2113720877,
				"element": "O" 
			},
			{
				"x": 1.8859828749,
				"y": 0.4485065249,
				"z": 0.8703502059,
				"element": "N" 
			},
			{
				"x": 0.9728532777,
				"y": 0.6914673756,
				"z": 1.989371867,
				"element": "C" 
			},
			{
				"x": 1.7507116933,
				"y": 1.1524296593,
				"z": 3.2238117196,
				"element": "C" 
			},
			{
				"x": -0.0979455846,
				"y": 1.6940037771,
				"z": 1.5485886599,
				"element": "C" 
			},
			{
				"x": 0.3808532179,
				"y": 2.9591728038,
				"z": 1.4823563284,
				"element": "O" 
			},
			{
				"x": -1.2319090271,
				"y": 1.4041772257,
				"z": 1.2365285694,
				"element": "O" 
			},
			{
				"x": 1.8029644814,
				"y": -3.7921402551,
				"z": 0.3806524138,
				"element": "H" 
			},
			{
				"x": 1.716723438,
				"y": -3.6320550746,
				"z": 2.1566126052,
				"element": "H" 
			},
			{
				"x": 2.7347090484,
				"y": -2.5151922421,
				"z": 1.2084287064,
				"element": "H" 
			},
			{
				"x": -0.3908325602,
				"y": -0.9936632169,
				"z": -0.0536987309,
				"element": "H" 
			},
			{
				"x": 0.6810578979,
				"y": -2.1175222447,
				"z": -0.9342987186,
				"element": "H" 
			},
			{
				"x": 2.5568009631,
				"y": 1.1807819469,
				"z": 0.6636732269,
				"element": "H" 
			},
			{
				"x": 0.4538371148,
				"y": -0.2425526083,
				"z": 2.2016593848,
				"element": "H" 
			},
			{
				"x": 2.294649017,
				"y": 2.0800954663,
				"z": 3.0242233197,
				"element": "H" 
			},
			{
				"x": 2.4652948294,
				"y": 0.3791546389,
				"z": 3.5171859129,
				"element": "H" 
			},
			{
				"x": 1.0709900636,
				"y": 1.3345236713,
				"z": 4.0614548904,
				"element": "H" 
			},
			{
				"x": -0.3429183151,
				"y": 3.5096036299,
				"z": 1.1378619678,
				"element": "H" 
			}
		],
		 "valence_orbital": [ 
			{
				"type": "occ",
				"energy": -0.33064,
				"method": "rhf"
			},
			{
				"type": "occ",
				"energy": -0.29757,
				"method": "rhf"
			},
			{
				"type": "occ",
				"energy": -0.28182,
				"method": "rhf"
			},
			{
				"type": "occ",
				"energy": -0.25546,
				"method": "rhf"
			},
			{
				"type": "occ",
				"energy": -0.24211,
				"method": "rhf"
			},
			{
				"type": "unocc",
				"energy": -0.01037,
				"method": "rhf"
			},
			{
				"type": "unocc",
				"energy": 0.01352,
				"method": "rhf"
			},
			{
				"type": "unocc",
				"energy": 0.06107,
				"method": "rhf"
			},
			{
				"type": "unocc",
				"energy": 0.09193,
				"method": "rhf"
			},
			{
				"type": "unocc",
				"energy": 0.10793,
				"method": "rhf"
			}
		],
		"cosmo_sigma_profile": { 
			"-0.025": 0.0,
			"-0.024": 0.0,
			"-0.023": 0.0,
			"-0.022": 0.0,
			"-0.021": 0.0,
			"-0.02": 0.0,
			"-0.019": 0.182026907929,
			"-0.018": 0.867803309481,
			"-0.017": 1.25506994721,
			"-0.016": 0.649961373659,
			"-0.015": 0.545949142144,
			"-0.014": 0.767735201279,
			"-0.013": 2.1531345055,
			"-0.012": 1.10652929824,
			"-0.011": 1.42463805822,
			"-0.01": 1.25780728473,
			"-0.009": 2.05530895175,
			"-0.008": 1.65231471214,
			"-0.007": 1.79356706233,
			"-0.006": 6.74959444546,
			"-0.005": 16.4206409096,
			"-0.004": 21.0307781889,
			"-0.003": 21.8154134014,
			"-0.002": 18.7608846164,
			"-0.001": 17.5984750519,
			"0.0": 11.2280747501,
			"0.001": 8.59364505718,
			"0.002": 7.53545112126,
			"0.003": 7.16246267387,
			"0.004": 5.26147952703,
			"0.005": 4.15066371642,
			"0.006": 5.87083472175,
			"0.007": 4.21496566805,
			"0.008": 3.44421318969,
			"0.009": 3.79250454124,
			"0.01": 5.2781021078,
			"0.011": 5.97668078816,
			"0.012": 5.72967419474,
			"0.013": 5.53276606529,
			"0.014": 2.57289819675,
			"0.015": 0.0982214133399,
			"0.016": 0.0,
			"0.017": 0.0,
			"0.018": 0.0,
			"0.019": 0.0,
			"0.02": 0.0,
			"0.021": 0.0,
			"0.022": 0.0,
			"0.023": 0.0,
			"0.024": 0.0,
			"0.025": 0.0
		}
	}
}
