{
	 "smiles": "CCC1=C(C=C(C=C1)C(O)=O)S(C)(=O)=O", 
	 "Tm": 448.15, 
	 "num_atms": 27, 
	 "gaussian": { 
		 "optdone": 1, 
		 "sigma_profile": "yes", 
		 "theory": "DFT", 
		 "functional": "B3LYP", 
		 "basiset": "6-31G**", 
		 "properties": { 
			 "R2extent": 4173.5958, 
			 "electric_dipole_moment_norm": 6.71644054987, 
			 "electric_quadrupole_moment_norm": 21.4393661434, 
			 "total_energy": -1087.32918591, 
			 "HOMO_LUMO_gap": 0.20455, 
			 "cosmo_polarized_energy": -24.5, 
			 "cosmo_cavitation_energy": 31.72, 
			 "cosmo_dispersion_energy": -23.03, 
			 "cosmo_repulsion_energy": 1.76, 
			 "cosmo_total_nonelectrostatic_energy": 10.45, 
			 "SMD_solvation_energy": 6.44 
		},
		"coords": [
			{
				"x": 0.4663846915,
				"y": -3.314443181,
				"z": 1.3300858274,
				"element": "C" 
			},
			{
				"x": 1.0056886095,
				"y": -2.2068660644,
				"z": 0.404467807,
				"element": "C" 
			},
			{
				"x": -0.0972592241,
				"y": -1.3108126396,
				"z": -0.1240281979,
				"element": "C" 
			},
			{
				"x": -0.5142725939,
				"y": -0.0938237057,
				"z": 0.4569043201,
				"element": "C" 
			},
			{
				"x": -1.5711733812,
				"y": 0.6481924962,
				"z": -0.0685260879,
				"element": "C" 
			},
			{
				"x": -2.2676195614,
				"y": 0.1908119408,
				"z": -1.1909416232,
				"element": "C" 
			},
			{
				"x": -1.8602774976,
				"y": -1.0059279934,
				"z": -1.7933969023,
				"element": "C" 
			},
			{
				"x": -0.7961376317,
				"y": -1.7311541717,
				"z": -1.2669657329,
				"element": "C" 
			},
			{
				"x": -3.383368555,
				"y": 1.0434274127,
				"z": -1.719188771,
				"element": "C" 
			},
			{
				"x": -4.3137944715,
				"y": 0.4194197589,
				"z": -2.4903049729,
				"element": "O" 
			},
			{
				"x": -3.4729790338,
				"y": 2.2263844138,
				"z": -1.4959723039,
				"element": "O" 
			},
			{
				"x": 0.2757792391,
				"y": 0.6251174401,
				"z": 1.9276858968,
				"element": "S" 
			},
			{
				"x": 1.7854703137,
				"y": 1.3781501381,
				"z": 1.2746745031,
				"element": "C" 
			},
			{
				"x": -0.5875288042,
				"y": 1.7175534656,
				"z": 2.3979131065,
				"element": "O" 
			},
			{
				"x": 0.6682641176,
				"y": -0.4587380262,
				"z": 2.8433500769,
				"element": "O" 
			},
			{
				"x": 0.0164882485,
				"y": -2.8746756194,
				"z": 2.2223694269,
				"element": "H" 
			},
			{
				"x": -0.2849428243,
				"y": -3.9259673114,
				"z": 0.8198654498,
				"element": "H" 
			},
			{
				"x": 1.2829816399,
				"y": -3.9713467697,
				"z": 1.6450020809,
				"element": "H" 
			},
			{
				"x": 1.755213574,
				"y": -1.6351590062,
				"z": 0.9533767136,
				"element": "H" 
			},
			{
				"x": 1.5095802155,
				"y": -2.6636480938,
				"z": -0.455344875,
				"element": "H" 
			},
			{
				"x": -1.8661786562,
				"y": 1.5810605888,
				"z": 0.3987328156,
				"element": "H" 
			},
			{
				"x": -2.3411405921,
				"y": -1.3644361474,
				"z": -2.7003945539,
				"element": "H" 
			},
			{
				"x": -0.4880933556,
				"y": -2.6528182854,
				"z": -1.7531763877,
				"element": "H" 
			},
			{
				"x": -4.2141442847,
				"y": -0.5405953137,
				"z": -2.4287971942,
				"element": "H" 
			},
			{
				"x": 2.2966739461,
				"y": 1.8206521763,
				"z": 2.1322429738,
				"element": "H" 
			},
			{
				"x": 1.5102632858,
				"y": 2.1509489649,
				"z": 0.555790297,
				"element": "H" 
			},
			{
				"x": 2.412022586,
				"y": 0.6139935325,
				"z": 0.8129763074,
				"element": "H" 
			}
		],
		 "valence_orbital": [ 
			{
				"type": "occ",
				"energy": -0.3032,
				"method": "rhf"
			},
			{
				"type": "occ",
				"energy": -0.29948,
				"method": "rhf"
			},
			{
				"type": "occ",
				"energy": -0.29021,
				"method": "rhf"
			},
			{
				"type": "occ",
				"energy": -0.28525,
				"method": "rhf"
			},
			{
				"type": "occ",
				"energy": -0.27316,
				"method": "rhf"
			},
			{
				"type": "unocc",
				"energy": -0.06861,
				"method": "rhf"
			},
			{
				"type": "unocc",
				"energy": -0.04921,
				"method": "rhf"
			},
			{
				"type": "unocc",
				"energy": 0.02201,
				"method": "rhf"
			},
			{
				"type": "unocc",
				"energy": 0.0506,
				"method": "rhf"
			},
			{
				"type": "unocc",
				"energy": 0.06303,
				"method": "rhf"
			}
		],
		"cosmo_sigma_profile": { 
			"-0.025": 0.0,
			"-0.024": 0.0,
			"-0.023": 0.0,
			"-0.022": 0.0,
			"-0.021": 0.0,
			"-0.02": 0.0,
			"-0.019": 0.554152951702,
			"-0.018": 0.881046658853,
			"-0.017": 0.915541955699,
			"-0.016": 1.52105941685,
			"-0.015": 0.808013937379,
			"-0.014": 0.672380137726,
			"-0.013": 1.4001269688,
			"-0.012": 1.20727339893,
			"-0.011": 1.42092142351,
			"-0.01": 0.970916032049,
			"-0.009": 3.68235431598,
			"-0.008": 10.3556114224,
			"-0.007": 12.1277167033,
			"-0.006": 11.508734888,
			"-0.005": 12.8833557716,
			"-0.004": 16.6663537075,
			"-0.003": 17.7384182689,
			"-0.002": 17.0311111316,
			"-0.001": 18.339797856,
			"0.0": 20.1822380417,
			"0.001": 20.8654554811,
			"0.002": 8.76961893156,
			"0.003": 4.41061480238,
			"0.004": 4.91418865197,
			"0.005": 5.14207419286,
			"0.006": 4.95442607492,
			"0.007": 5.70468882338,
			"0.008": 4.54279739708,
			"0.009": 8.09792109994,
			"0.01": 9.78542061219,
			"0.011": 12.8171581362,
			"0.012": 10.0214465615,
			"0.013": 1.01786074737,
			"0.014": 0.0,
			"0.015": 0.0,
			"0.016": 0.0,
			"0.017": 0.0,
			"0.018": 0.0,
			"0.019": 0.0,
			"0.02": 0.0,
			"0.021": 0.0,
			"0.022": 0.0,
			"0.023": 0.0,
			"0.024": 0.0,
			"0.025": 0.0
		}
	}
}
