{
	 "smiles": "OCC(F)(F)C(F)(F)C(F)(F)C(F)(F)C(F)(F)C(F)(F)C(F)(F)C(F)(F)CO", 
	 "Tm": 407.15, 
	 "num_atms": 34, 
	 "gaussian": { 
		 "optdone": 1, 
		 "sigma_profile": "yes", 
		 "theory": "DFT", 
		 "functional": "B3LYP", 
		 "basiset": "6-31G**", 
		 "properties": { 
			 "R2extent": 10662.3533, 
			 "electric_dipole_moment_norm": 3.31082928886, 
			 "electric_quadrupole_moment_norm": 6.72347986983, 
			 "total_energy": -2132.47937469, 
			 "HOMO_LUMO_gap": 0.28413, 
			 "cosmo_polarized_energy": -11.48, 
			 "cosmo_cavitation_energy": 41.13, 
			 "cosmo_dispersion_energy": -27.56, 
			 "cosmo_repulsion_energy": 1.8, 
			 "cosmo_total_nonelectrostatic_energy": 15.37, 
			 "SMD_solvation_energy": 11.5 
		},
		"coords": [
			{
				"x": 0.1201683572,
				"y": 3.435366713,
				"z": -1.2295601157,
				"element": "O" 
			},
			{
				"x": -0.4345151683,
				"y": 4.2969919836,
				"z": -0.2704912988,
				"element": "C" 
			},
			{
				"x": -0.5766360634,
				"y": 3.6491009205,
				"z": 1.1072093326,
				"element": "C" 
			},
			{
				"x": -0.8202899647,
				"y": 4.6374945825,
				"z": 2.0128201083,
				"element": "F" 
			},
			{
				"x": 0.608934922,
				"y": 3.0508462069,
				"z": 1.4468121786,
				"element": "F" 
			},
			{
				"x": -1.7144482154,
				"y": 2.6194029462,
				"z": 1.3201879425,
				"element": "C" 
			},
			{
				"x": -1.7594401811,
				"y": 2.3091650727,
				"z": 2.6360440976,
				"element": "F" 
			},
			{
				"x": -2.8758873982,
				"y": 3.2444586046,
				"z": 0.9829119481,
				"element": "F" 
			},
			{
				"x": -1.7243854382,
				"y": 1.2770293455,
				"z": 0.5256211927,
				"element": "C" 
			},
			{
				"x": -1.896102378,
				"y": 1.5450947257,
				"z": -0.7851182132,
				"element": "F" 
			},
			{
				"x": -2.8148638985,
				"y": 0.6025470625,
				"z": 0.9739617356,
				"element": "F" 
			},
			{
				"x": -0.4810531091,
				"y": 0.3462553879,
				"z": 0.6850255053,
				"element": "C" 
			},
			{
				"x": -0.0636016378,
				"y": 0.358788376,
				"z": 1.9686412778,
				"element": "F" 
			},
			{
				"x": 0.5086749526,
				"y": 0.8243714383,
				"z": -0.1056571257,
				"element": "F" 
			},
			{
				"x": -0.7787790969,
				"y": -1.1418491298,
				"z": 0.3052081576,
				"element": "C" 
			},
			{
				"x": -1.5341940881,
				"y": -1.6646670077,
				"z": 1.2891327877,
				"element": "F" 
			},
			{
				"x": -1.482802659,
				"y": -1.1546178919,
				"z": -0.8678609649,
				"element": "F" 
			},
			{
				"x": 0.4799575995,
				"y": -2.0394440905,
				"z": 0.1197401746,
				"element": "C" 
			},
			{
				"x": 1.2743294038,
				"y": -1.487436508,
				"z": -0.8335638094,
				"element": "F" 
			},
			{
				"x": 1.1484005496,
				"y": -2.029456491,
				"z": 1.2910517911,
				"element": "F" 
			},
			{
				"x": 0.1692066322,
				"y": -3.5365687447,
				"z": -0.2850128499,
				"element": "C" 
			},
			{
				"x": 0.9196301773,
				"y": -4.3277338408,
				"z": 0.5084413764,
				"element": "F" 
			},
			{
				"x": -1.1434734121,
				"y": -3.8074847367,
				"z": -0.0374203578,
				"element": "F" 
			},
			{
				"x": 0.4598308233,
				"y": -3.9274337184,
				"z": -1.7612869731,
				"element": "C" 
			},
			{
				"x": 1.8015128172,
				"y": -3.7773517976,
				"z": -1.9662631146,
				"element": "F" 
			},
			{
				"x": 0.1714800498,
				"y": -5.2536013411,
				"z": -1.8407130618,
				"element": "F" 
			},
			{
				"x": -0.2950260881,
				"y": -3.1753260625,
				"z": -2.8626393523,
				"element": "C" 
			},
			{
				"x": -1.6801125907,
				"y": -3.4080350664,
				"z": -2.8476408368,
				"element": "O" 
			},
			{
				"x": 0.9862523044,
				"y": 3.1511110122,
				"z": -0.9079846745,
				"element": "H" 
			},
			{
				"x": -1.42143999,
				"y": 4.602268286,
				"z": -0.6243933365,
				"element": "H" 
			},
			{
				"x": 0.1666962592,
				"y": 5.2031291008,
				"z": -0.1048646347,
				"element": "H" 
			},
			{
				"x": 0.0936942617,
				"y": -3.5779509531,
				"z": -3.802668524,
				"element": "H" 
			},
			{
				"x": -0.0290596671,
				"y": -2.113299888,
				"z": -2.8151493956,
				"element": "H" 
			},
			{
				"x": -2.0686580652,
				"y": -2.9114644965,
				"z": -2.1164209672,
				"element": "H" 
			}
		],
		 "valence_orbital": [ 
			{
				"type": "occ",
				"energy": -0.35977,
				"method": "rhf"
			},
			{
				"type": "occ",
				"energy": -0.35188,
				"method": "rhf"
			},
			{
				"type": "occ",
				"energy": -0.33892,
				"method": "rhf"
			},
			{
				"type": "occ",
				"energy": -0.30485,
				"method": "rhf"
			},
			{
				"type": "occ",
				"energy": -0.29317,
				"method": "rhf"
			},
			{
				"type": "unocc",
				"energy": -0.00904,
				"method": "rhf"
			},
			{
				"type": "unocc",
				"energy": 0.01079,
				"method": "rhf"
			},
			{
				"type": "unocc",
				"energy": 0.03276,
				"method": "rhf"
			},
			{
				"type": "unocc",
				"energy": 0.04215,
				"method": "rhf"
			},
			{
				"type": "unocc",
				"energy": 0.06142,
				"method": "rhf"
			}
		],
		"cosmo_sigma_profile": { 
			"-0.025": 0.0,
			"-0.024": 0.0,
			"-0.023": 0.0,
			"-0.022": 0.0,
			"-0.021": 0.0,
			"-0.02": 0.0,
			"-0.019": 0.0,
			"-0.018": 0.0,
			"-0.017": 0.0100692143176,
			"-0.016": 0.328876064231,
			"-0.015": 0.716673795949,
			"-0.014": 0.988873953882,
			"-0.013": 0.875487210337,
			"-0.012": 1.48628924108,
			"-0.011": 1.89285686237,
			"-0.01": 1.86134179432,
			"-0.009": 2.24127655265,
			"-0.008": 5.8511670332,
			"-0.007": 10.5860743193,
			"-0.006": 11.4463242036,
			"-0.005": 12.69830727,
			"-0.004": 11.9840339513,
			"-0.003": 11.1516321774,
			"-0.002": 11.8240752771,
			"-0.001": 16.2690266729,
			"0.0": 34.8437380952,
			"0.001": 77.5326128945,
			"0.002": 60.2115245539,
			"0.003": 25.3428493754,
			"0.004": 3.68983036275,
			"0.005": 3.76070101324,
			"0.006": 3.29886069809,
			"0.007": 1.6411147174,
			"0.008": 2.85777274668,
			"0.009": 2.39062075362,
			"0.01": 2.41246762096,
			"0.011": 3.29850761456,
			"0.012": 3.04778135993,
			"0.013": 1.10580523074,
			"0.014": 0.0,
			"0.015": 0.0,
			"0.016": 0.0,
			"0.017": 0.0,
			"0.018": 0.0,
			"0.019": 0.0,
			"0.02": 0.0,
			"0.021": 0.0,
			"0.022": 0.0,
			"0.023": 0.0,
			"0.024": 0.0,
			"0.025": 0.0
		}
	}
}
