{
	 "smiles": "CC12CC3(C)CC(C)(C1)CC(Br)(C2)C3", 
	 "Tm": 375.15, 
	 "num_atms": 35, 
	 "gaussian": { 
		 "optdone": 1, 
		 "sigma_profile": "yes", 
		 "theory": "DFT", 
		 "functional": "B3LYP", 
		 "basiset": "6-31G**", 
		 "properties": { 
			 "R2extent": 3982.0456, 
			 "electric_dipole_moment_norm": 2.83166510908, 
			 "electric_quadrupole_moment_norm": 8.24189110156, 
			 "total_energy": -3079.50477527, 
			 "HOMO_LUMO_gap": 0.26129, 
			 "cosmo_polarized_energy": -4.16, 
			 "cosmo_cavitation_energy": 33.39, 
			 "cosmo_dispersion_energy": -24.0, 
			 "cosmo_repulsion_energy": 1.82, 
			 "cosmo_total_nonelectrostatic_energy": 11.2, 
			 "SMD_solvation_energy": 3.6 
		},
		"coords": [
			{
				"x": 2.6917819081,
				"y": 1.1850380493,
				"z": 1.0018907139,
				"element": "C" 
			},
			{
				"x": 1.3031348183,
				"y": 0.6206018755,
				"z": 0.6783006803,
				"element": "C" 
			},
			{
				"x": 1.3252899582,
				"y": -0.1523525407,
				"z": -0.6600150302,
				"element": "C" 
			},
			{
				"x": -0.0643222234,
				"y": -0.7358734157,
				"z": -1.0030015285,
				"element": "C" 
			},
			{
				"x": -0.0178390515,
				"y": -1.5029481157,
				"z": -2.3300359601,
				"element": "C" 
			},
			{
				"x": -1.0796589066,
				"y": 0.4272075077,
				"z": -1.0790639942,
				"element": "C" 
			},
			{
				"x": -1.1474299863,
				"y": 1.2111758687,
				"z": 0.2512744055,
				"element": "C" 
			},
			{
				"x": -2.1645420294,
				"y": 2.354873269,
				"z": 0.1555875857,
				"element": "C" 
			},
			{
				"x": 0.2623525664,
				"y": 1.7583703756,
				"z": 0.5708940316,
				"element": "C" 
			},
			{
				"x": -1.5595635057,
				"y": 0.2282643523,
				"z": 1.3792558296,
				"element": "C" 
			},
			{
				"x": -0.5348907255,
				"y": -0.9060872191,
				"z": 1.4609688807,
				"element": "C" 
			},
			{
				"x": -1.0958515083,
				"y": -2.1679551761,
				"z": 2.9354016796,
				"element": "Br" 
			},
			{
				"x": 0.8516256033,
				"y": -0.3527694428,
				"z": 1.7995611291,
				"element": "C" 
			},
			{
				"x": -0.4937369312,
				"y": -1.6874788947,
				"z": 0.1453009145,
				"element": "C" 
			},
			{
				"x": 3.4354453425,
				"y": 0.3839965172,
				"z": 1.0823005648,
				"element": "H" 
			},
			{
				"x": 3.0269157081,
				"y": 1.8758769737,
				"z": 0.2196430826,
				"element": "H" 
			},
			{
				"x": 2.6846397782,
				"y": 1.7324121816,
				"z": 1.9513769671,
				"element": "H" 
			},
			{
				"x": 1.6520157871,
				"y": 0.5182723544,
				"z": -1.4668056576,
				"element": "H" 
			},
			{
				"x": 2.0644557774,
				"y": -0.9637874615,
				"z": -0.6064532317,
				"element": "H" 
			},
			{
				"x": 0.6986112323,
				"y": -2.3310100836,
				"z": -2.2832345738,
				"element": "H" 
			},
			{
				"x": -0.999303729,
				"y": -1.9224114005,
				"z": -2.5789296115,
				"element": "H" 
			},
			{
				"x": 0.2838332075,
				"y": -0.8452598799,
				"z": -3.1533985717,
				"element": "H" 
			},
			{
				"x": -0.7980945507,
				"y": 1.1087126507,
				"z": -1.8937231687,
				"element": "H" 
			},
			{
				"x": -2.0751604819,
				"y": 0.0337189329,
				"z": -1.327722332,
				"element": "H" 
			},
			{
				"x": -1.8893538586,
				"y": 3.060072517,
				"z": -0.6371540098,
				"element": "H" 
			},
			{
				"x": -2.2205392837,
				"y": 2.9139876049,
				"z": 1.0965706938,
				"element": "H" 
			},
			{
				"x": -3.1676234201,
				"y": 1.9741848776,
				"z": -0.0682897792,
				"element": "H" 
			},
			{
				"x": 0.5690924874,
				"y": 2.4648349309,
				"z": -0.2128151145,
				"element": "H" 
			},
			{
				"x": 0.2347891442,
				"y": 2.324807652,
				"z": 1.5122005031,
				"element": "H" 
			},
			{
				"x": -2.5562412487,
				"y": -0.1805560772,
				"z": 1.1776386378,
				"element": "H" 
			},
			{
				"x": -1.612247408,
				"y": 0.7557100631,
				"z": 2.3385037101,
				"element": "H" 
			},
			{
				"x": 0.8221059618,
				"y": 0.1692628132,
				"z": 2.7627524576,
				"element": "H" 
			},
			{
				"x": 1.5698416537,
				"y": -1.1748548405,
				"z": 1.8969437274,
				"element": "H" 
			},
			{
				"x": 0.2117092774,
				"y": -2.5222399015,
				"z": 0.2269261635,
				"element": "H" 
			},
			{
				"x": -1.4801413634,
				"y": -2.1147969175,
				"z": -0.0680497948,
				"element": "H" 
			}
		],
		 "valence_orbital": [ 
			{
				"type": "occ",
				"energy": -0.29004,
				"method": "rhf"
			},
			{
				"type": "occ",
				"energy": -0.29001,
				"method": "rhf"
			},
			{
				"type": "occ",
				"energy": -0.28549,
				"method": "rhf"
			},
			{
				"type": "occ",
				"energy": -0.25872,
				"method": "rhf"
			},
			{
				"type": "occ",
				"energy": -0.25872,
				"method": "rhf"
			},
			{
				"type": "unocc",
				"energy": 0.00257,
				"method": "rhf"
			},
			{
				"type": "unocc",
				"energy": 0.06629,
				"method": "rhf"
			},
			{
				"type": "unocc",
				"energy": 0.10004,
				"method": "rhf"
			},
			{
				"type": "unocc",
				"energy": 0.10005,
				"method": "rhf"
			},
			{
				"type": "unocc",
				"energy": 0.11171,
				"method": "rhf"
			}
		],
		"cosmo_sigma_profile": { 
			"-0.025": 0.0,
			"-0.024": 0.0,
			"-0.023": 0.0,
			"-0.022": 0.0,
			"-0.021": 0.0,
			"-0.02": 0.0,
			"-0.019": 0.0,
			"-0.018": 0.0,
			"-0.017": 0.0,
			"-0.016": 0.0,
			"-0.015": 0.0,
			"-0.014": 0.0,
			"-0.013": 0.0,
			"-0.012": 0.0,
			"-0.011": 0.0,
			"-0.01": 0.0,
			"-0.009": 0.0,
			"-0.008": 0.0,
			"-0.007": 0.0,
			"-0.006": 0.0,
			"-0.005": 0.0,
			"-0.004": 0.246467786368,
			"-0.003": 29.1779594318,
			"-0.002": 67.5895596035,
			"-0.001": 37.4085795976,
			"0.0": 32.8453885254,
			"0.001": 38.1935882885,
			"0.002": 17.178123731,
			"0.003": 5.46531408904,
			"0.004": 5.52598062328,
			"0.005": 4.93853369538,
			"0.006": 7.5855207742,
			"0.007": 10.4711504351,
			"0.008": 1.18441846887,
			"0.009": 0.0,
			"0.01": 0.0,
			"0.011": 0.0,
			"0.012": 0.0,
			"0.013": 0.0,
			"0.014": 0.0,
			"0.015": 0.0,
			"0.016": 0.0,
			"0.017": 0.0,
			"0.018": 0.0,
			"0.019": 0.0,
			"0.02": 0.0,
			"0.021": 0.0,
			"0.022": 0.0,
			"0.023": 0.0,
			"0.024": 0.0,
			"0.025": 0.0
		}
	}
}
