{
	 "smiles": "CCC(NC1=C(Cl)C(C)=NC=N1)C1=CC=C(OC(F)F)C=C1", 
	 "Tm": 320.95, 
	 "num_atms": 38, 
	 "gaussian": { 
		 "optdone": 1, 
		 "sigma_profile": "yes", 
		 "theory": "DFT", 
		 "functional": "B3LYP", 
		 "basiset": "6-31G**", 
		 "properties": { 
			 "R2extent": 11043.098, 
			 "electric_dipole_moment_norm": 1.1286045676, 
			 "electric_quadrupole_moment_norm": 19.5229685596, 
			 "total_energy": -1480.60647387, 
			 "HOMO_LUMO_gap": 0.19991, 
			 "cosmo_polarized_energy": -11.47, 
			 "cosmo_cavitation_energy": 44.03, 
			 "cosmo_dispersion_energy": -30.52, 
			 "cosmo_repulsion_energy": 2.3, 
			 "cosmo_total_nonelectrostatic_energy": 15.82, 
			 "SMD_solvation_energy": 6.33 
		},
		"coords": [
			{
				"x": -0.8600176365,
				"y": 1.9597572588,
				"z": 2.5012923059,
				"element": "C" 
			},
			{
				"x": -0.8245160026,
				"y": 2.4336065268,
				"z": 1.0448542278,
				"element": "C" 
			},
			{
				"x": -0.3060541713,
				"y": 1.3901857602,
				"z": 0.0260086561,
				"element": "C" 
			},
			{
				"x": 1.0854833923,
				"y": 1.0321311005,
				"z": 0.308105432,
				"element": "N" 
			},
			{
				"x": 2.1550052749,
				"y": 1.7259269286,
				"z": -0.1631941622,
				"element": "C" 
			},
			{
				"x": 3.4817465542,
				"y": 1.4225285972,
				"z": 0.2340282344,
				"element": "C" 
			},
			{
				"x": 3.7661524007,
				"y": 0.1281157859,
				"z": 1.3954762499,
				"element": "Cl" 
			},
			{
				"x": 4.535679735,
				"y": 2.1526100506,
				"z": -0.3016786251,
				"element": "C" 
			},
			{
				"x": 5.97032933,
				"y": 1.8966885481,
				"z": 0.0679107194,
				"element": "C" 
			},
			{
				"x": 4.2949777599,
				"y": 3.1392207553,
				"z": -1.1945844403,
				"element": "N" 
			},
			{
				"x": 3.0196155039,
				"y": 3.3538847244,
				"z": -1.5087037593,
				"element": "C" 
			},
			{
				"x": 1.9429553919,
				"y": 2.7181556252,
				"z": -1.0480797998,
				"element": "N" 
			},
			{
				"x": -1.1582537783,
				"y": 0.1255543378,
				"z": -0.10615213,
				"element": "C" 
			},
			{
				"x": -2.5465405707,
				"y": 0.1523985412,
				"z": 0.1055092298,
				"element": "C" 
			},
			{
				"x": -3.3310268761,
				"y": -0.9817524956,
				"z": -0.0807740203,
				"element": "C" 
			},
			{
				"x": -2.7341683746,
				"y": -2.1787461766,
				"z": -0.477182584,
				"element": "C" 
			},
			{
				"x": -3.5822039911,
				"y": -3.2680015248,
				"z": -0.6148711211,
				"element": "O" 
			},
			{
				"x": -3.2475329622,
				"y": -4.2345782893,
				"z": -1.5294910117,
				"element": "C" 
			},
			{
				"x": -2.3107312904,
				"y": -5.0863657763,
				"z": -1.0164371267,
				"element": "F" 
			},
			{
				"x": -4.3601044482,
				"y": -4.9525755869,
				"z": -1.7613740578,
				"element": "F" 
			},
			{
				"x": -1.3561967716,
				"y": -2.2417928462,
				"z": -0.6847204194,
				"element": "C" 
			},
			{
				"x": -0.5881394993,
				"y": -1.0887196909,
				"z": -0.5085896466,
				"element": "C" 
			},
			{
				"x": -1.5192646765,
				"y": 1.0962074203,
				"z": 2.633569478,
				"element": "H" 
			},
			{
				"x": 0.1383109743,
				"y": 1.6770239562,
				"z": 2.8522430385,
				"element": "H" 
			},
			{
				"x": -1.2193281027,
				"y": 2.7582824201,
				"z": 3.1575175074,
				"element": "H" 
			},
			{
				"x": -0.1720330236,
				"y": 3.3087239021,
				"z": 0.9538035928,
				"element": "H" 
			},
			{
				"x": -1.8194542472,
				"y": 2.77220621,
				"z": 0.7334962455,
				"element": "H" 
			},
			{
				"x": -0.2801564117,
				"y": 1.8879911551,
				"z": -0.9491546094,
				"element": "H" 
			},
			{
				"x": 1.262823848,
				"y": 0.3710970868,
				"z": 1.0505680473,
				"element": "H" 
			},
			{
				"x": 6.6056858615,
				"y": 2.5968822507,
				"z": -0.4748591841,
				"element": "H" 
			},
			{
				"x": 6.1293207449,
				"y": 2.0210890698,
				"z": 1.1443188049,
				"element": "H" 
			},
			{
				"x": 6.2652189,
				"y": 0.8717115446,
				"z": -0.1811860907,
				"element": "H" 
			},
			{
				"x": 2.828080314,
				"y": 4.1492613235,
				"z": -2.2273817953,
				"element": "H" 
			},
			{
				"x": -3.0356170699,
				"y": 1.0706831311,
				"z": 0.411477163,
				"element": "H" 
			},
			{
				"x": -4.4039934344,
				"y": -0.9554121882,
				"z": 0.0769737951,
				"element": "H" 
			},
			{
				"x": -2.857153939,
				"y": -3.8190994396,
				"z": -2.4664293589,
				"element": "H" 
			},
			{
				"x": -0.8802406163,
				"y": -3.1771132758,
				"z": -0.9539327642,
				"element": "H" 
			},
			{
				"x": 0.4806419086,
				"y": -1.1434667206,
				"z": -0.6862760208,
				"element": "H" 
			}
		],
		 "valence_orbital": [ 
			{
				"type": "occ",
				"energy": -0.27981,
				"method": "rhf"
			},
			{
				"type": "occ",
				"energy": -0.26672,
				"method": "rhf"
			},
			{
				"type": "occ",
				"energy": -0.25552,
				"method": "rhf"
			},
			{
				"type": "occ",
				"energy": -0.2435,
				"method": "rhf"
			},
			{
				"type": "occ",
				"energy": -0.2301,
				"method": "rhf"
			},
			{
				"type": "unocc",
				"energy": -0.03019,
				"method": "rhf"
			},
			{
				"type": "unocc",
				"energy": -0.0197,
				"method": "rhf"
			},
			{
				"type": "unocc",
				"energy": -0.01346,
				"method": "rhf"
			},
			{
				"type": "unocc",
				"energy": -0.01079,
				"method": "rhf"
			},
			{
				"type": "unocc",
				"energy": 0.02288,
				"method": "rhf"
			}
		],
		"cosmo_sigma_profile": { 
			"-0.025": 0.0,
			"-0.024": 0.0,
			"-0.023": 0.0,
			"-0.022": 0.0,
			"-0.021": 0.0,
			"-0.02": 0.0,
			"-0.019": 0.0,
			"-0.018": 0.0,
			"-0.017": 0.0,
			"-0.016": 0.0,
			"-0.015": 0.0,
			"-0.014": 0.0,
			"-0.013": 0.0,
			"-0.012": 0.0,
			"-0.011": 0.369265209914,
			"-0.01": 2.88205310216,
			"-0.009": 3.96917284237,
			"-0.008": 3.48419439317,
			"-0.007": 6.47574048713,
			"-0.006": 12.3914306971,
			"-0.005": 16.7402465515,
			"-0.004": 22.5528049103,
			"-0.003": 21.9534696007,
			"-0.002": 28.9050879727,
			"-0.001": 40.4107919522,
			"0.0": 39.113181195,
			"0.001": 31.4621551995,
			"0.002": 25.2487655444,
			"0.003": 33.1916456315,
			"0.004": 33.0955797566,
			"0.005": 7.95643267671,
			"0.006": 5.06410085993,
			"0.007": 3.69735433262,
			"0.008": 4.40965490305,
			"0.009": 2.5972278386,
			"0.01": 1.18382721754,
			"0.011": 1.66103100496,
			"0.012": 0.774115922857,
			"0.013": 0.522306902326,
			"0.014": 1.17691298062,
			"0.015": 0.856219034741,
			"0.016": 0.334559113946,
			"0.017": 0.0,
			"0.018": 0.0,
			"0.019": 0.0,
			"0.02": 0.0,
			"0.021": 0.0,
			"0.022": 0.0,
			"0.023": 0.0,
			"0.024": 0.0,
			"0.025": 0.0
		}
	}
}
