{
	 "smiles": "CCOC(=O)CSC1=NN=C(O1)C1=CC=CO1", 
	 "Tm": 333.15, 
	 "num_atms": 27, 
	 "gaussian": { 
		 "optdone": 1, 
		 "sigma_profile": "yes", 
		 "theory": "DFT", 
		 "functional": "B3LYP", 
		 "basiset": "6-31G**", 
		 "properties": { 
			 "R2extent": 5962.1414, 
			 "electric_dipole_moment_norm": 4.24675486224, 
			 "electric_quadrupole_moment_norm": 21.5285577397, 
			 "total_energy": -1195.61589697, 
			 "HOMO_LUMO_gap": 0.17144, 
			 "cosmo_polarized_energy": -17.25, 
			 "cosmo_cavitation_energy": 35.46, 
			 "cosmo_dispersion_energy": -24.58, 
			 "cosmo_repulsion_energy": 1.89, 
			 "cosmo_total_nonelectrostatic_energy": 12.77, 
			 "SMD_solvation_energy": 5.86 
		},
		"coords": [
			{
				"x": 1.5965392506,
				"y": 0.0648954973,
				"z": 3.3810255303,
				"element": "C" 
			},
			{
				"x": 2.6140283189,
				"y": 0.7468584462,
				"z": 2.4802312032,
				"element": "C" 
			},
			{
				"x": 2.7625093597,
				"y": 0.0260980945,
				"z": 1.2267500312,
				"element": "O" 
			},
			{
				"x": 1.8742825223,
				"y": 0.3168359886,
				"z": 0.2617254931,
				"element": "C" 
			},
			{
				"x": 1.016495259,
				"y": 1.1712591892,
				"z": 0.3316807427,
				"element": "O" 
			},
			{
				"x": 2.0470489381,
				"y": -0.5940420346,
				"z": -0.9377867157,
				"element": "C" 
			},
			{
				"x": 1.029051391,
				"y": -2.1273821428,
				"z": -0.7537047918,
				"element": "S" 
			},
			{
				"x": -0.5772675861,
				"y": -1.4316929751,
				"z": -0.7164565464,
				"element": "C" 
			},
			{
				"x": -1.5055123165,
				"y": -1.6483691059,
				"z": 0.1636607928,
				"element": "N" 
			},
			{
				"x": -2.637376245,
				"y": -0.9674974275,
				"z": -0.2752011969,
				"element": "N" 
			},
			{
				"x": -2.2948234118,
				"y": -0.3719969549,
				"z": -1.3832410795,
				"element": "C" 
			},
			{
				"x": -1.0043219611,
				"y": -0.6314069419,
				"z": -1.7437509616,
				"element": "O" 
			},
			{
				"x": -3.0675627006,
				"y": 0.4910434481,
				"z": -2.2361736628,
				"element": "C" 
			},
			{
				"x": -2.7664651374,
				"y": 1.141081815,
				"z": -3.4055672572,
				"element": "C" 
			},
			{
				"x": -3.9478865984,
				"y": 1.8484718685,
				"z": -3.779288756,
				"element": "C" 
			},
			{
				"x": -4.8734747929,
				"y": 1.5755769127,
				"z": -2.814083654,
				"element": "C" 
			},
			{
				"x": -4.3550469952,
				"y": 0.7515696429,
				"z": -1.8676258525,
				"element": "O" 
			},
			{
				"x": 1.8776654947,
				"y": -0.9748695234,
				"z": 3.5700608545,
				"element": "H" 
			},
			{
				"x": 0.6028945937,
				"y": 0.0835053057,
				"z": 2.9267296158,
				"element": "H" 
			},
			{
				"x": 1.5451740203,
				"y": 0.5888153851,
				"z": 4.3412165857,
				"element": "H" 
			},
			{
				"x": 2.324830893,
				"y": 1.7765357008,
				"z": 2.2581013234,
				"element": "H" 
			},
			{
				"x": 3.615371656,
				"y": 0.7345471841,
				"z": 2.9161086739,
				"element": "H" 
			},
			{
				"x": 3.0732534629,
				"y": -0.9555337522,
				"z": -1.0246500002,
				"element": "H" 
			},
			{
				"x": 1.7494101357,
				"y": -0.0677148855,
				"z": -1.8444716994,
				"element": "H" 
			},
			{
				"x": -1.8195885723,
				"y": 1.1135761358,
				"z": -3.9238808081,
				"element": "H" 
			},
			{
				"x": -4.0884205098,
				"y": 2.4748902552,
				"z": -4.6478747382,
				"element": "H" 
			},
			{
				"x": -5.8986084689,
				"y": 1.8750448741,
				"z": -2.6613331262,
				"element": "H" 
			}
		],
		 "valence_orbital": [ 
			{
				"type": "occ",
				"energy": -0.29476,
				"method": "rhf"
			},
			{
				"type": "occ",
				"energy": -0.28867,
				"method": "rhf"
			},
			{
				"type": "occ",
				"energy": -0.27892,
				"method": "rhf"
			},
			{
				"type": "occ",
				"energy": -0.26165,
				"method": "rhf"
			},
			{
				"type": "occ",
				"energy": -0.2263,
				"method": "rhf"
			},
			{
				"type": "unocc",
				"energy": -0.05486,
				"method": "rhf"
			},
			{
				"type": "unocc",
				"energy": -0.02667,
				"method": "rhf"
			},
			{
				"type": "unocc",
				"energy": 0.00783,
				"method": "rhf"
			},
			{
				"type": "unocc",
				"energy": 0.03511,
				"method": "rhf"
			},
			{
				"type": "unocc",
				"energy": 0.04232,
				"method": "rhf"
			}
		],
		"cosmo_sigma_profile": { 
			"-0.025": 0.0,
			"-0.024": 0.0,
			"-0.023": 0.0,
			"-0.022": 0.0,
			"-0.021": 0.0,
			"-0.02": 0.0,
			"-0.019": 0.0,
			"-0.018": 0.0,
			"-0.017": 0.0,
			"-0.016": 0.0,
			"-0.015": 0.0,
			"-0.014": 0.0,
			"-0.013": 0.0,
			"-0.012": 0.0,
			"-0.011": 0.0916981689906,
			"-0.01": 2.89571703746,
			"-0.009": 5.00480830143,
			"-0.008": 8.42013806258,
			"-0.007": 9.2399477276,
			"-0.006": 13.0455769498,
			"-0.005": 17.6585292355,
			"-0.004": 20.7257646224,
			"-0.003": 20.5364631402,
			"-0.002": 22.9079607982,
			"-0.001": 23.208648178,
			"0.0": 25.7234877654,
			"0.001": 22.260937207,
			"0.002": 17.0446813413,
			"0.003": 16.232556141,
			"0.004": 9.55547160579,
			"0.005": 8.30276722452,
			"0.006": 7.65209725508,
			"0.007": 5.40427932724,
			"0.008": 5.37812109029,
			"0.009": 4.4048908949,
			"0.01": 6.01296159481,
			"0.011": 6.3089651956,
			"0.012": 3.4838167761,
			"0.013": 2.38355182565,
			"0.014": 2.06480203255,
			"0.015": 0.2188633577,
			"0.016": 0.0,
			"0.017": 0.0,
			"0.018": 0.0,
			"0.019": 0.0,
			"0.02": 0.0,
			"0.021": 0.0,
			"0.022": 0.0,
			"0.023": 0.0,
			"0.024": 0.0,
			"0.025": 0.0
		}
	}
}
