{
	 "smiles": "CCCCOC(=O)C1=CC(=O)CC(C)(C)O1", 
	 "Tm": 298.15, 
	 "num_atms": 34, 
	 "gaussian": { 
		 "optdone": 1, 
		 "sigma_profile": "yes", 
		 "theory": "DFT", 
		 "functional": "B3LYP", 
		 "basiset": "6-31G**", 
		 "properties": { 
			 "R2extent": 4766.8968, 
			 "electric_dipole_moment_norm": 4.86007412804, 
			 "electric_quadrupole_moment_norm": 12.8059736268, 
			 "total_energy": -769.031002157, 
			 "HOMO_LUMO_gap": 0.16792, 
			 "cosmo_polarized_energy": -12.85, 
			 "cosmo_cavitation_energy": 36.67, 
			 "cosmo_dispersion_energy": -24.84, 
			 "cosmo_repulsion_energy": 1.99, 
			 "cosmo_total_nonelectrostatic_energy": 13.82, 
			 "SMD_solvation_energy": 8.05 
		},
		"coords": [
			{
				"x": -2.4721610062,
				"y": 3.4916989041,
				"z": -2.4552748889,
				"element": "C" 
			},
			{
				"x": -1.4490892282,
				"y": 3.4406750424,
				"z": -1.3145636586,
				"element": "C" 
			},
			{
				"x": -2.0467553485,
				"y": 3.1021566334,
				"z": 0.0608598724,
				"element": "C" 
			},
			{
				"x": -2.6375015688,
				"y": 1.6994129846,
				"z": 0.1790814805,
				"element": "C" 
			},
			{
				"x": -1.6490020442,
				"y": 0.679320141,
				"z": -0.1210263346,
				"element": "O" 
			},
			{
				"x": -0.8799900041,
				"y": 0.2750510867,
				"z": 0.9004351758,
				"element": "C" 
			},
			{
				"x": -0.9551309718,
				"y": 0.6877469536,
				"z": 2.0399002445,
				"element": "O" 
			},
			{
				"x": 0.1101670341,
				"y": -0.7813183942,
				"z": 0.4812306718,
				"element": "C" 
			},
			{
				"x": 0.9544638163,
				"y": -1.3151416305,
				"z": 1.3967769076,
				"element": "C" 
			},
			{
				"x": 1.8440241429,
				"y": -2.4160171829,
				"z": 1.0292285393,
				"element": "C" 
			},
			{
				"x": 2.6631970949,
				"y": -2.9088131823,
				"z": 1.791866693,
				"element": "O" 
			},
			{
				"x": 1.6098769395,
				"y": -2.9658882328,
				"z": -0.3770730738,
				"element": "C" 
			},
			{
				"x": 1.1821363353,
				"y": -1.8823790645,
				"z": -1.3775237154,
				"element": "C" 
			},
			{
				"x": 2.3167867449,
				"y": -0.8936935178,
				"z": -1.6736928727,
				"element": "C" 
			},
			{
				"x": 0.6227688342,
				"y": -2.4858978498,
				"z": -2.662409663,
				"element": "C" 
			},
			{
				"x": 0.0603093567,
				"y": -1.1093336433,
				"z": -0.8201063634,
				"element": "O" 
			},
			{
				"x": -1.9961974085,
				"y": 3.7917418265,
				"z": -3.3943235518,
				"element": "H" 
			},
			{
				"x": -3.2692574337,
				"y": 4.213760634,
				"z": -2.2424267237,
				"element": "H" 
			},
			{
				"x": -2.9425050575,
				"y": 2.5179385606,
				"z": -2.6282857968,
				"element": "H" 
			},
			{
				"x": -0.6677654163,
				"y": 2.7096011919,
				"z": -1.5543209924,
				"element": "H" 
			},
			{
				"x": -0.9467290783,
				"y": 4.4126711057,
				"z": -1.2383797726,
				"element": "H" 
			},
			{
				"x": -2.8495975248,
				"y": 3.8123573899,
				"z": 0.3031284982,
				"element": "H" 
			},
			{
				"x": -1.2846442845,
				"y": 3.218633249,
				"z": 0.8391509526,
				"element": "H" 
			},
			{
				"x": -3.4294818158,
				"y": 1.5251518791,
				"z": -0.5522694578,
				"element": "H" 
			},
			{
				"x": -3.0261255402,
				"y": 1.5267899446,
				"z": 1.1851688434,
				"element": "H" 
			},
			{
				"x": 0.9366367645,
				"y": -0.9495067307,
				"z": 2.41516491,
				"element": "H" 
			},
			{
				"x": 2.5165609708,
				"y": -3.4714471693,
				"z": -0.7193686882,
				"element": "H" 
			},
			{
				"x": 0.8205460677,
				"y": -3.7263050146,
				"z": -0.3000749387,
				"element": "H" 
			},
			{
				"x": 2.6846840196,
				"y": -0.4169512098,
				"z": -0.7612096835,
				"element": "H" 
			},
			{
				"x": 1.9674702584,
				"y": -0.1144591118,
				"z": -2.356309466,
				"element": "H" 
			},
			{
				"x": 3.1558566987,
				"y": -1.4165594664,
				"z": -2.142676243,
				"element": "H" 
			},
			{
				"x": -0.2225685825,
				"y": -3.1438733208,
				"z": -2.4430844509,
				"element": "H" 
			},
			{
				"x": 1.3954336833,
				"y": -3.0687350357,
				"z": -3.1724537873,
				"element": "H" 
			},
			{
				"x": 0.2802835519,
				"y": -1.69648777,
				"z": -3.3373386662,
				"element": "H" 
			}
		],
		 "valence_orbital": [ 
			{
				"type": "occ",
				"energy": -0.32927,
				"method": "rhf"
			},
			{
				"type": "occ",
				"energy": -0.30462,
				"method": "rhf"
			},
			{
				"type": "occ",
				"energy": -0.28533,
				"method": "rhf"
			},
			{
				"type": "occ",
				"energy": -0.24802,
				"method": "rhf"
			},
			{
				"type": "occ",
				"energy": -0.24207,
				"method": "rhf"
			},
			{
				"type": "unocc",
				"energy": -0.07415,
				"method": "rhf"
			},
			{
				"type": "unocc",
				"energy": 0.02328,
				"method": "rhf"
			},
			{
				"type": "unocc",
				"energy": 0.07283,
				"method": "rhf"
			},
			{
				"type": "unocc",
				"energy": 0.08121,
				"method": "rhf"
			},
			{
				"type": "unocc",
				"energy": 0.08626,
				"method": "rhf"
			}
		],
		"cosmo_sigma_profile": { 
			"-0.025": 0.0,
			"-0.024": 0.0,
			"-0.023": 0.0,
			"-0.022": 0.0,
			"-0.021": 0.0,
			"-0.02": 0.0,
			"-0.019": 0.0,
			"-0.018": 0.0,
			"-0.017": 0.0,
			"-0.016": 0.0,
			"-0.015": 0.0,
			"-0.014": 0.0,
			"-0.013": 0.0,
			"-0.012": 0.0,
			"-0.011": 0.0,
			"-0.01": 0.0,
			"-0.009": 0.0,
			"-0.008": 0.0,
			"-0.007": 1.60223593653,
			"-0.006": 9.98058753292,
			"-0.005": 18.1115260358,
			"-0.004": 29.8837737406,
			"-0.003": 34.0877305643,
			"-0.002": 36.3353075275,
			"-0.001": 36.635202055,
			"0.0": 32.7104323486,
			"0.001": 21.7686130283,
			"0.002": 9.75074066047,
			"0.003": 5.59917372445,
			"0.004": 5.34282592888,
			"0.005": 4.26715737054,
			"0.006": 5.20342723775,
			"0.007": 3.62412833512,
			"0.008": 4.04097606468,
			"0.009": 4.47871543609,
			"0.01": 5.13458527746,
			"0.011": 7.81918768303,
			"0.012": 5.82154362695,
			"0.013": 3.54206499492,
			"0.014": 0.718352302101,
			"0.015": 0.0,
			"0.016": 0.0,
			"0.017": 0.0,
			"0.018": 0.0,
			"0.019": 0.0,
			"0.02": 0.0,
			"0.021": 0.0,
			"0.022": 0.0,
			"0.023": 0.0,
			"0.024": 0.0,
			"0.025": 0.0
		}
	}
}
