{
	 "smiles": "CC(=O)CC(=O)NC1=CC(Cl)=C(C)C=C1", 
	 "Tm": 382.15, 
	 "num_atms": 27, 
	 "gaussian": { 
		 "optdone": 1, 
		 "sigma_profile": "yes", 
		 "theory": "DFT", 
		 "functional": "B3LYP", 
		 "basiset": "6-31G**", 
		 "properties": { 
			 "R2extent": 5428.6677, 
			 "electric_dipole_moment_norm": 4.10113972573, 
			 "electric_quadrupole_moment_norm": 22.6970589571, 
			 "total_energy": -1091.81411401, 
			 "HOMO_LUMO_gap": 0.20784, 
			 "cosmo_polarized_energy": -15.47, 
			 "cosmo_cavitation_energy": 33.14, 
			 "cosmo_dispersion_energy": -23.54, 
			 "cosmo_repulsion_energy": 1.87, 
			 "cosmo_total_nonelectrostatic_energy": 11.48, 
			 "SMD_solvation_energy": 6.76 
		},
		"coords": [
			{
				"x": -0.0333873751,
				"y": -2.6201706468,
				"z": -4.3799073118,
				"element": "C" 
			},
			{
				"x": 0.3256763922,
				"y": -3.1943545228,
				"z": -3.0263835924,
				"element": "C" 
			},
			{
				"x": 0.7919992031,
				"y": -4.3074326664,
				"z": -2.8932145738,
				"element": "O" 
			},
			{
				"x": 0.133579998,
				"y": -2.2959056953,
				"z": -1.7961012477,
				"element": "C" 
			},
			{
				"x": -1.2798386209,
				"y": -1.7406626841,
				"z": -1.6747737433,
				"element": "C" 
			},
			{
				"x": -2.2377709812,
				"y": -2.2836143855,
				"z": -2.209333355,
				"element": "O" 
			},
			{
				"x": -1.4734971358,
				"y": -0.5854267477,
				"z": -0.9412550433,
				"element": "N" 
			},
			{
				"x": -0.5613013723,
				"y": 0.2521720739,
				"z": -0.2555995784,
				"element": "C" 
			},
			{
				"x": -0.6977436826,
				"y": 1.6397215934,
				"z": -0.3976371933,
				"element": "C" 
			},
			{
				"x": 0.1527103103,
				"y": 2.4947593194,
				"z": 0.2963184263,
				"element": "C" 
			},
			{
				"x": -0.0737495434,
				"y": 4.227889568,
				"z": 0.0831724426,
				"element": "Cl" 
			},
			{
				"x": 1.1764906136,
				"y": 2.0254118509,
				"z": 1.1341248165,
				"element": "C" 
			},
			{
				"x": 2.1044372264,
				"y": 2.9523266802,
				"z": 1.874706692,
				"element": "C" 
			},
			{
				"x": 1.286623019,
				"y": 0.6342066867,
				"z": 1.254961943,
				"element": "C" 
			},
			{
				"x": 0.4323449699,
				"y": -0.246631562,
				"z": 0.5948406549,
				"element": "C" 
			},
			{
				"x": 0.3876676907,
				"y": -1.616169931,
				"z": -4.5077440907,
				"element": "H" 
			},
			{
				"x": 0.3335544115,
				"y": -3.2825343795,
				"z": -5.1648971486,
				"element": "H" 
			},
			{
				"x": -1.1218387251,
				"y": -2.5305495183,
				"z": -4.4471246284,
				"element": "H" 
			},
			{
				"x": 0.8694840067,
				"y": -1.4830430609,
				"z": -1.8252288769,
				"element": "H" 
			},
			{
				"x": 0.3616454777,
				"y": -2.912591968,
				"z": -0.9215018729,
				"element": "H" 
			},
			{
				"x": -2.4313887409,
				"y": -0.2613176413,
				"z": -1.0081378035,
				"element": "H" 
			},
			{
				"x": -1.4583634727,
				"y": 2.049617619,
				"z": -1.0534233288,
				"element": "H" 
			},
			{
				"x": 2.8180499904,
				"y": 2.3840634849,
				"z": 2.476096558,
				"element": "H" 
			},
			{
				"x": 2.6684193202,
				"y": 3.5880344464,
				"z": 1.1836636476,
				"element": "H" 
			},
			{
				"x": 1.5512954799,
				"y": 3.6229004624,
				"z": 2.5409064028,
				"element": "H" 
			},
			{
				"x": 2.055080918,
				"y": 0.2299149556,
				"z": 1.9079116042,
				"element": "H" 
			},
			{
				"x": 0.5246206223,
				"y": -1.3131133312,
				"z": 0.7614602011,
				"element": "H" 
			}
		],
		 "valence_orbital": [ 
			{
				"type": "occ",
				"energy": -0.30296,
				"method": "rhf"
			},
			{
				"type": "occ",
				"energy": -0.2704,
				"method": "rhf"
			},
			{
				"type": "occ",
				"energy": -0.26542,
				"method": "rhf"
			},
			{
				"type": "occ",
				"energy": -0.24799,
				"method": "rhf"
			},
			{
				"type": "occ",
				"energy": -0.24028,
				"method": "rhf"
			},
			{
				"type": "unocc",
				"energy": -0.03244,
				"method": "rhf"
			},
			{
				"type": "unocc",
				"energy": -0.02971,
				"method": "rhf"
			},
			{
				"type": "unocc",
				"energy": -0.01564,
				"method": "rhf"
			},
			{
				"type": "unocc",
				"energy": 0.01422,
				"method": "rhf"
			},
			{
				"type": "unocc",
				"energy": 0.02133,
				"method": "rhf"
			}
		],
		"cosmo_sigma_profile": { 
			"-0.025": 0.0,
			"-0.024": 0.0,
			"-0.023": 0.0,
			"-0.022": 0.0,
			"-0.021": 0.0,
			"-0.02": 0.0,
			"-0.019": 0.0,
			"-0.018": 0.0,
			"-0.017": 0.0,
			"-0.016": 0.0,
			"-0.015": 0.3871636771,
			"-0.014": 0.946389053084,
			"-0.013": 1.45565194448,
			"-0.012": 0.800357593849,
			"-0.011": 1.32833582383,
			"-0.01": 0.950854884922,
			"-0.009": 2.80086854496,
			"-0.008": 6.83637643714,
			"-0.007": 8.95277651462,
			"-0.006": 12.2617480315,
			"-0.005": 15.3548726995,
			"-0.004": 16.858136922,
			"-0.003": 18.2390290435,
			"-0.002": 19.9603645518,
			"-0.001": 25.0010152749,
			"0.0": 20.3955620721,
			"0.001": 17.8820972374,
			"0.002": 19.3881959476,
			"0.003": 19.8510034145,
			"0.004": 14.6588905759,
			"0.005": 8.30186325017,
			"0.006": 2.34120075894,
			"0.007": 2.51107118034,
			"0.008": 3.48992851158,
			"0.009": 2.30325721189,
			"0.01": 3.75794621542,
			"0.011": 6.13614985382,
			"0.012": 7.17388291444,
			"0.013": 4.39062836922,
			"0.014": 0.285384543482,
			"0.015": 0.0,
			"0.016": 0.0,
			"0.017": 0.0,
			"0.018": 0.0,
			"0.019": 0.0,
			"0.02": 0.0,
			"0.021": 0.0,
			"0.022": 0.0,
			"0.023": 0.0,
			"0.024": 0.0,
			"0.0": 0.0
		}
	}
}
