{
	 "smiles": "CN1N=C(C2=C1N=CC(=C2)C(O)=O)C(C)(C)C", 
	 "Tm": 517.15, 
	 "num_atms": 32, 
	 "gaussian": { 
		 "optdone": 1, 
		 "sigma_profile": "yes", 
		 "theory": "DFT", 
		 "functional": "B3LYP", 
		 "basiset": "6-31G**", 
		 "properties": { 
			 "R2extent": 5804.6117, 
			 "electric_dipole_moment_norm": 2.17178431019, 
			 "electric_quadrupole_moment_norm": 16.2930963868, 
			 "total_energy": -781.044904387, 
			 "HOMO_LUMO_gap": 0.17638, 
			 "cosmo_polarized_energy": -11.96, 
			 "cosmo_cavitation_energy": 34.98, 
			 "cosmo_dispersion_energy": -24.68, 
			 "cosmo_repulsion_energy": 1.92, 
			 "cosmo_total_nonelectrostatic_energy": 12.22, 
			 "SMD_solvation_energy": 5.28 
		},
		"coords": [
			{
				"x": -1.6517935969,
				"y": -0.3469604659,
				"z": 3.8472626187,
				"element": "C" 
			},
			{
				"x": -0.7976048006,
				"y": -0.3315865837,
				"z": 2.6778710141,
				"element": "N" 
			},
			{
				"x": -1.2857524612,
				"y": 0.0449400434,
				"z": 1.459666416,
				"element": "N" 
			},
			{
				"x": -0.2964836724,
				"y": -0.034991505,
				"z": 0.5837715198,
				"element": "C" 
			},
			{
				"x": 0.9033488323,
				"y": -0.4836569944,
				"z": 1.2440682839,
				"element": "C" 
			},
			{
				"x": 0.5177201021,
				"y": -0.6601083256,
				"z": 2.6017464103,
				"element": "C" 
			},
			{
				"x": 1.2909806741,
				"y": -1.0700776379,
				"z": 3.6190306343,
				"element": "N" 
			},
			{
				"x": 2.5466092605,
				"y": -1.3285390695,
				"z": 3.2775357419,
				"element": "C" 
			},
			{
				"x": 3.0668982133,
				"y": -1.1957861904,
				"z": 1.9622248528,
				"element": "C" 
			},
			{
				"x": 2.2345830043,
				"y": -0.7666197619,
				"z": 0.9259358165,
				"element": "C" 
			},
			{
				"x": 4.4935782578,
				"y": -1.5254854618,
				"z": 1.7524854294,
				"element": "C" 
			},
			{
				"x": 4.8908019712,
				"y": -1.3663142505,
				"z": 0.4620500031,
				"element": "O" 
			},
			{
				"x": 5.2590278183,
				"y": -1.9031848062,
				"z": 2.6185761373,
				"element": "O" 
			},
			{
				"x": -0.506867795,
				"y": 0.3185856264,
				"z": -0.8783010509,
				"element": "C" 
			},
			{
				"x": -0.1919745882,
				"y": -0.9167724252,
				"z": -1.7547343447,
				"element": "C" 
			},
			{
				"x": 0.4366846187,
				"y": 1.4819310658,
				"z": -1.2652314575,
				"element": "C" 
			},
			{
				"x": -1.9644980021,
				"y": 0.750223462,
				"z": -1.12126837,
				"element": "C" 
			},
			{
				"x": -2.4873256052,
				"y": -1.0363221156,
				"z": 3.6974497665,
				"element": "H" 
			},
			{
				"x": -2.045455345,
				"y": 0.6544008334,
				"z": 4.0423950438,
				"element": "H" 
			},
			{
				"x": -1.0475268565,
				"y": -0.6773594664,
				"z": 4.6926463421,
				"element": "H" 
			},
			{
				"x": 3.2171979335,
				"y": -1.6644470886,
				"z": 4.0639817527,
				"element": "H" 
			},
			{
				"x": 2.6296533677,
				"y": -0.6647856193,
				"z": -0.0781646724,
				"element": "H" 
			},
			{
				"x": 5.8310938874,
				"y": -1.6092545685,
				"z": 0.4466257389,
				"element": "H" 
			},
			{
				"x": -0.3362220995,
				"y": -0.6743294787,
				"z": -2.8132108182,
				"element": "H" 
			},
			{
				"x": 0.8404038789,
				"y": -1.2570998619,
				"z": -1.6286524453,
				"element": "H" 
			},
			{
				"x": -0.8535887741,
				"y": -1.7523679466,
				"z": -1.5049507029,
				"element": "H" 
			},
			{
				"x": 0.2276839239,
				"y": 2.3718247375,
				"z": -0.6629358897,
				"element": "H" 
			},
			{
				"x": 1.489893821,
				"y": 1.2207797486,
				"z": -1.1235523278,
				"element": "H" 
			},
			{
				"x": 0.2973560495,
				"y": 1.7451941171,
				"z": -2.3193828572,
				"element": "H" 
			},
			{
				"x": -2.2259266297,
				"y": 1.6252769598,
				"z": -0.5201252636,
				"element": "H" 
			},
			{
				"x": -2.1031332681,
				"y": 1.0019052178,
				"z": -2.1780134972,
				"element": "H" 
			},
			{
				"x": -2.66466212,
				"y": -0.0482121882,
				"z": -0.8610998249,
				"element": "H" 
			}
		],
		 "valence_orbital": [ 
			{
				"type": "occ",
				"energy": -0.30094,
				"method": "rhf"
			},
			{
				"type": "occ",
				"energy": -0.28016,
				"method": "rhf"
			},
			{
				"type": "occ",
				"energy": -0.26958,
				"method": "rhf"
			},
			{
				"type": "occ",
				"energy": -0.25657,
				"method": "rhf"
			},
			{
				"type": "occ",
				"energy": -0.23406,
				"method": "rhf"
			},
			{
				"type": "unocc",
				"energy": -0.05768,
				"method": "rhf"
			},
			{
				"type": "unocc",
				"energy": -0.03327,
				"method": "rhf"
			},
			{
				"type": "unocc",
				"energy": 0.03578,
				"method": "rhf"
			},
			{
				"type": "unocc",
				"energy": 0.068,
				"method": "rhf"
			},
			{
				"type": "unocc",
				"energy": 0.0732,
				"method": "rhf"
			}
		],
		"cosmo_sigma_profile": { 
			"-0.025": 0.0,
			"-0.024": 0.0,
			"-0.023": 0.0,
			"-0.022": 0.0,
			"-0.021": 0.0,
			"-0.02": 0.0,
			"-0.019": 0.110726416366,
			"-0.018": 0.718351693862,
			"-0.017": 1.09827770696,
			"-0.016": 0.693884464798,
			"-0.015": 0.331762612014,
			"-0.014": 0.642855118909,
			"-0.013": 1.29996078367,
			"-0.012": 0.387521592507,
			"-0.011": 0.557041296254,
			"-0.01": 0.815986178815,
			"-0.009": 0.530374826429,
			"-0.008": 1.1666173077,
			"-0.007": 4.29080330485,
			"-0.006": 9.01984560722,
			"-0.005": 9.61303323961,
			"-0.004": 11.3722797669,
			"-0.003": 27.6406062294,
			"-0.002": 28.6584036229,
			"-0.001": 35.8636305246,
			"0.0": 39.7515598293,
			"0.001": 33.8240917869,
			"0.002": 12.3481303098,
			"0.003": 7.18422930676,
			"0.004": 5.80603232716,
			"0.005": 6.84893961644,
			"0.006": 5.85945655515,
			"0.007": 5.39371939316,
			"0.008": 4.19918663684,
			"0.009": 3.6873303249,
			"0.01": 3.60154503607,
			"0.011": 6.03438030297,
			"0.012": 5.20645283371,
			"0.013": 1.41696249515,
			"0.014": 0.120131469991,
			"0.015": 0.0,
			"0.016": 0.0,
			"0.017": 0.0,
			"0.018": 0.0,
			"0.019": 0.0,
			"0.02": 0.0,
			"0.021": 0.0,
			"0.022": 0.0,
			"0.023": 0.0,
			"0.024": 0.0,
			"0.025": 0.0
		}
	}
}
