{
	 "smiles": "NS(=O)(=O)C1=C2C=CC=NC2=CC=C1", 
	 "Tm": 453.15, 
	 "num_atms": 22, 
	 "gaussian": { 
		 "optdone": 1, 
		 "sigma_profile": "yes", 
		 "theory": "DFT", 
		 "functional": "B3LYP", 
		 "basiset": "6-31G**", 
		 "properties": { 
			 "R2extent": 3633.8714, 
			 "electric_dipole_moment_norm": 2.56536803597, 
			 "electric_quadrupole_moment_norm": 15.1678143735, 
			 "total_energy": -1005.84880746, 
			 "HOMO_LUMO_gap": 0.17847, 
			 "cosmo_polarized_energy": -16.36, 
			 "cosmo_cavitation_energy": 27.25, 
			 "cosmo_dispersion_energy": -20.91, 
			 "cosmo_repulsion_energy": 1.57, 
			 "cosmo_total_nonelectrostatic_energy": 7.91, 
			 "SMD_solvation_energy": 2.8 
		},
		"coords": [
			{
				"x": 1.8246512118,
				"y": 1.4553152024,
				"z": 0.6328209948,
				"element": "N" 
			},
			{
				"x": 1.7681253346,
				"y": -0.2196459563,
				"z": 0.8588493222,
				"element": "S" 
			},
			{
				"x": 2.7847901198,
				"y": -0.8178666248,
				"z": -0.013449675,
				"element": "O" 
			},
			{
				"x": 1.7831928747,
				"y": -0.4712820045,
				"z": 2.3041226983,
				"element": "O" 
			},
			{
				"x": 0.1474944231,
				"y": -0.6754866521,
				"z": 0.2265480731,
				"element": "C" 
			},
			{
				"x": -0.2279273365,
				"y": -2.0554172629,
				"z": 0.2692863666,
				"element": "C" 
			},
			{
				"x": 0.5807309414,
				"y": -3.1088679249,
				"z": 0.7744930298,
				"element": "C" 
			},
			{
				"x": 0.0936938287,
				"y": -4.3940313733,
				"z": 0.7549864238,
				"element": "C" 
			},
			{
				"x": -1.1998806845,
				"y": -4.6348559008,
				"z": 0.2325384389,
				"element": "C" 
			},
			{
				"x": -1.9857028626,
				"y": -3.6925059622,
				"z": -0.2463863209,
				"element": "N" 
			},
			{
				"x": -1.5213804446,
				"y": -2.4094945702,
				"z": -0.2363899653,
				"element": "C" 
			},
			{
				"x": -2.3758878802,
				"y": -1.3992955087,
				"z": -0.755105437,
				"element": "C" 
			},
			{
				"x": -1.9751369572,
				"y": -0.0854924706,
				"z": -0.7771783252,
				"element": "C" 
			},
			{
				"x": -0.7012333158,
				"y": 0.2830477422,
				"z": -0.2820681532,
				"element": "C" 
			},
			{
				"x": 1.9317254109,
				"y": 1.9076494571,
				"z": 1.5367893172,
				"element": "H" 
			},
			{
				"x": 2.5929646382,
				"y": 1.6787555495,
				"z": 0.0059246808,
				"element": "H" 
			},
			{
				"x": 1.5682588929,
				"y": -2.9040465474,
				"z": 1.1700896383,
				"element": "H" 
			},
			{
				"x": 0.6866875884,
				"y": -5.2202741647,
				"z": 1.1334132334,
				"element": "H" 
			},
			{
				"x": -1.5940124906,
				"y": -5.6502702742,
				"z": 0.2131097853,
				"element": "H" 
			},
			{
				"x": -3.3457462622,
				"y": -1.7120228331,
				"z": -1.1272790177,
				"element": "H" 
			},
			{
				"x": -2.6302720312,
				"y": 0.6836679711,
				"z": -1.1741306931,
				"element": "H" 
			},
			{
				"x": -0.385034999,
				"y": 1.3186201085,
				"z": -0.2993844151,
				"element": "H" 
			}
		],
		 "valence_orbital": [ 
			{
				"type": "occ",
				"energy": -0.30299,
				"method": "rhf"
			},
			{
				"type": "occ",
				"energy": -0.29764,
				"method": "rhf"
			},
			{
				"type": "occ",
				"energy": -0.26462,
				"method": "rhf"
			},
			{
				"type": "occ",
				"energy": -0.26236,
				"method": "rhf"
			},
			{
				"type": "occ",
				"energy": -0.24718,
				"method": "rhf"
			},
			{
				"type": "unocc",
				"energy": -0.06871,
				"method": "rhf"
			},
			{
				"type": "unocc",
				"energy": -0.02884,
				"method": "rhf"
			},
			{
				"type": "unocc",
				"energy": -0.00287,
				"method": "rhf"
			},
			{
				"type": "unocc",
				"energy": 0.04447,
				"method": "rhf"
			},
			{
				"type": "unocc",
				"energy": 0.06785,
				"method": "rhf"
			}
		],
		"cosmo_sigma_profile": { 
			"-0.025": 0.0,
			"-0.024": 0.0,
			"-0.023": 0.0,
			"-0.022": 0.0,
			"-0.021": 0.0,
			"-0.02": 0.0,
			"-0.019": 0.0,
			"-0.018": 0.0,
			"-0.017": 0.0,
			"-0.016": 0.0474675387113,
			"-0.015": 1.93966955001,
			"-0.014": 2.33889826361,
			"-0.013": 3.03950413054,
			"-0.012": 2.56725821647,
			"-0.011": 1.44846031232,
			"-0.01": 1.91116028581,
			"-0.009": 1.73796876615,
			"-0.008": 2.83942800265,
			"-0.007": 11.2276090275,
			"-0.006": 14.1789654233,
			"-0.005": 11.5011073687,
			"-0.004": 10.5521538465,
			"-0.003": 9.25977780821,
			"-0.002": 9.34608721487,
			"-0.001": 11.7580896494,
			"0.0": 20.0190685235,
			"0.001": 25.3692038293,
			"0.002": 18.1016910067,
			"0.003": 8.24905926412,
			"0.004": 5.24139717184,
			"0.005": 4.73829805985,
			"0.006": 4.39121489471,
			"0.007": 4.26344153332,
			"0.008": 4.22073168886,
			"0.009": 4.21390907408,
			"0.01": 9.15634678916,
			"0.011": 10.7840733959,
			"0.012": 1.77056746266,
			"0.013": 1.13338926507,
			"0.014": 0.772304739445,
			"0.015": 0.703144750816,
			"0.016": 0.115011595897,
			"0.017": 0.0,
			"0.018": 0.0,
			"0.019": 0.0,
			"0.02": 0.0,
			"0.021": 0.0,
			"0.022": 0.0,
			"0.023": 0.0,
			"0.024": 0.0,
			"0.025": 0.0
		}
	}
}
