{
	 "smiles": "CCC(C)NS(=O)(=O)C1=CC(N)=CC=C1", 
	 "Tm": 363.15, 
	 "num_atms": 31, 
	 "gaussian": { 
		 "optdone": 1, 
		 "sigma_profile": "yes", 
		 "theory": "DFT", 
		 "functional": "B3LYP", 
		 "basiset": "6-31G**", 
		 "properties": { 
			 "R2extent": 4525.0643, 
			 "electric_dipole_moment_norm": 5.73361562541, 
			 "electric_quadrupole_moment_norm": 19.9979088874, 
			 "total_energy": -1048.79272498, 
			 "HOMO_LUMO_gap": 0.18818, 
			 "cosmo_polarized_energy": -18.19, 
			 "cosmo_cavitation_energy": 34.98, 
			 "cosmo_dispersion_energy": -24.68, 
			 "cosmo_repulsion_energy": 1.93, 
			 "cosmo_total_nonelectrostatic_energy": 12.23, 
			 "SMD_solvation_energy": 4.87 
		},
		"coords": [
			{
				"x": 2.7504800816,
				"y": -3.3233289945,
				"z": 2.0742062616,
				"element": "C" 
			},
			{
				"x": 1.312047631,
				"y": -2.9142606873,
				"z": 1.7372666833,
				"element": "C" 
			},
			{
				"x": 1.2011487292,
				"y": -1.7567003238,
				"z": 0.7261025954,
				"element": "C" 
			},
			{
				"x": 1.7693610667,
				"y": -2.0951713302,
				"z": -0.656780439,
				"element": "C" 
			},
			{
				"x": -0.1990544934,
				"y": -1.3099666258,
				"z": 0.5419502903,
				"element": "N" 
			},
			{
				"x": -0.9043775175,
				"y": -0.2439941875,
				"z": 1.6435603327,
				"element": "S" 
			},
			{
				"x": -0.2485234517,
				"y": -0.3271684935,
				"z": 2.9558956186,
				"element": "O" 
			},
			{
				"x": -2.3471596036,
				"y": -0.4718021372,
				"z": 1.4993303816,
				"element": "O" 
			},
			{
				"x": -0.4909359567,
				"y": 1.3620464988,
				"z": 0.9532067467,
				"element": "C" 
			},
			{
				"x": -1.2162822606,
				"y": 1.8166656231,
				"z": -0.1459036839,
				"element": "C" 
			},
			{
				"x": -0.909072514,
				"y": 3.0654101323,
				"z": -0.7083338117,
				"element": "C" 
			},
			{
				"x": -1.6567766959,
				"y": 3.5708237387,
				"z": -1.7670742631,
				"element": "N" 
			},
			{
				"x": 0.133738428,
				"y": 3.822074256,
				"z": -0.1377784176,
				"element": "C" 
			},
			{
				"x": 0.8369828429,
				"y": 3.3489048996,
				"z": 0.9651042141,
				"element": "C" 
			},
			{
				"x": 0.5342459354,
				"y": 2.1084127693,
				"z": 1.5330645657,
				"element": "C" 
			},
			{
				"x": 3.3250970957,
				"y": -2.4689534537,
				"z": 2.4500940168,
				"element": "H" 
			},
			{
				"x": 3.2822286524,
				"y": -3.7298801678,
				"z": 1.2081140885,
				"element": "H" 
			},
			{
				"x": 2.758554698,
				"y": -4.0917667986,
				"z": 2.8533811558,
				"element": "H" 
			},
			{
				"x": 0.7986018611,
				"y": -2.6061870359,
				"z": 2.6526957684,
				"element": "H" 
			},
			{
				"x": 0.7644779147,
				"y": -3.7804884181,
				"z": 1.3372263191,
				"element": "H" 
			},
			{
				"x": 1.7455076052,
				"y": -0.8922952751,
				"z": 1.1245026824,
				"element": "H" 
			},
			{
				"x": 1.2390115661,
				"y": -2.9481439731,
				"z": -1.097109913,
				"element": "H" 
			},
			{
				"x": 2.8291284046,
				"y": -2.3574427903,
				"z": -0.5940827928,
				"element": "H" 
			},
			{
				"x": 1.6620749701,
				"y": -1.2430226322,
				"z": -1.3325730173,
				"element": "H" 
			},
			{
				"x": -0.8640143272,
				"y": -2.062747758,
				"z": 0.3765098314,
				"element": "H" 
			},
			{
				"x": -2.0242210209,
				"y": 1.2134140657,
				"z": -0.5477821707,
				"element": "H" 
			},
			{
				"x": -1.2027610068,
				"y": 4.2735756122,
				"z": -2.3326909908,
				"element": "H" 
			},
			{
				"x": -2.1559123001,
				"y": 2.8891214965,
				"z": -2.3203952894,
				"element": "H" 
			},
			{
				"x": 0.378268635,
				"y": 4.7930340736,
				"z": -0.5612904731,
				"element": "H" 
			},
			{
				"x": 1.6295571569,
				"y": 3.9566787674,
				"z": 1.3917878324,
				"element": "H" 
			},
			{
				"x": 1.054877874,
				"y": 1.7343591494,
				"z": 2.4059958775,
				"element": "H" 
			}
		],
		 "valence_orbital": [ 
			{
				"type": "occ",
				"energy": -0.29985,
				"method": "rhf"
			},
			{
				"type": "occ",
				"energy": -0.29026,
				"method": "rhf"
			},
			{
				"type": "occ",
				"energy": -0.2739,
				"method": "rhf"
			},
			{
				"type": "occ",
				"energy": -0.24879,
				"method": "rhf"
			},
			{
				"type": "occ",
				"energy": -0.21645,
				"method": "rhf"
			},
			{
				"type": "unocc",
				"energy": -0.02827,
				"method": "rhf"
			},
			{
				"type": "unocc",
				"energy": 0.00145,
				"method": "rhf"
			},
			{
				"type": "unocc",
				"energy": 0.06338,
				"method": "rhf"
			},
			{
				"type": "unocc",
				"energy": 0.07123,
				"method": "rhf"
			},
			{
				"type": "unocc",
				"energy": 0.08659,
				"method": "rhf"
			}
		],
		"cosmo_sigma_profile": { 
			"-0.025": 0.0,
			"-0.024": 0.0,
			"-0.023": 0.0,
			"-0.022": 0.0,
			"-0.021": 0.0,
			"-0.02": 0.0,
			"-0.019": 0.0,
			"-0.018": 0.0,
			"-0.017": 0.0,
			"-0.016": 0.0,
			"-0.015": 0.0,
			"-0.014": 0.15910761007,
			"-0.013": 2.52928648124,
			"-0.012": 4.03709556348,
			"-0.011": 4.28430532317,
			"-0.01": 4.72511816229,
			"-0.009": 4.5360993284,
			"-0.008": 4.22568167007,
			"-0.007": 5.23898562103,
			"-0.006": 8.07344421503,
			"-0.005": 9.39736360974,
			"-0.004": 15.2042995925,
			"-0.003": 23.5967519328,
			"-0.002": 22.3288738035,
			"-0.001": 24.7454600498,
			"0.0": 27.3252653002,
			"0.001": 22.0899086174,
			"0.002": 12.4637001521,
			"0.003": 12.2413041406,
			"0.004": 16.4669311833,
			"0.005": 10.2857910346,
			"0.006": 4.72161322265,
			"0.007": 5.11370870421,
			"0.008": 4.07667992504,
			"0.009": 4.64925022743,
			"0.01": 6.0413665726,
			"0.011": 9.0707109476,
			"0.012": 6.21529023473,
			"0.013": 0.642807997414,
			"0.014": 0.161728152964,
			"0.015": 0.0,
			"0.016": 0.0,
			"0.017": 0.0,
			"0.018": 0.0,
			"0.019": 0.0,
			"0.02": 0.0,
			"0.021": 0.0,
			"0.022": 0.0,
			"0.023": 0.0,
			"0.024": 0.0,
			"0.025": 0.0
		}
	}
}
