{
	 "smiles": "OCC1=C(Br)C(Br)=C(Br)C(Br)=C1Br", 
	 "Tm": 537.15, 
	 "num_atms": 16, 
	 "gaussian": { 
		 "optdone": 1, 
		 "sigma_profile": "yes", 
		 "theory": "DFT", 
		 "functional": "B3LYP", 
		 "basiset": "6-31G**", 
		 "properties": { 
			 "R2extent": 12122.9891, 
			 "electric_dipole_moment_norm": 2.31908141297, 
			 "electric_quadrupole_moment_norm": 5.66950775817, 
			 "total_energy": -13200.7504099, 
			 "HOMO_LUMO_gap": 0.18291, 
			 "cosmo_polarized_energy": -8.49, 
			 "cosmo_cavitation_energy": 30.71, 
			 "cosmo_dispersion_energy": -24.42, 
			 "cosmo_repulsion_energy": 1.91, 
			 "cosmo_total_nonelectrostatic_energy": 8.19, 
			 "SMD_solvation_energy": 0.45 
		},
		"coords": [
			{
				"x": 0.132343934,
				"y": -0.2491208659,
				"z": -1.6277075295,
				"element": "O" 
			},
			{
				"x": 0.5647902758,
				"y": -1.2749090454,
				"z": -0.7421916969,
				"element": "C" 
			},
			{
				"x": 0.1359563952,
				"y": -0.8824536748,
				"z": 0.6551772942,
				"element": "C" 
			},
			{
				"x": -1.1217640738,
				"y": -1.2526257974,
				"z": 1.1582644993,
				"element": "C" 
			},
			{
				"x": -2.3063364927,
				"y": -2.2489813433,
				"z": 0.0461012712,
				"element": "Br" 
			},
			{
				"x": -1.530858081,
				"y": -0.8963913285,
				"z": 2.4521572535,
				"element": "C" 
			},
			{
				"x": -3.2279611742,
				"y": -1.4290591183,
				"z": 3.1041981771,
				"element": "Br" 
			},
			{
				"x": -0.6707666448,
				"y": -0.1393489348,
				"z": 3.2643947227,
				"element": "C" 
			},
			{
				"x": -1.2018829611,
				"y": 0.3397615241,
				"z": 5.0185736067,
				"element": "Br" 
			},
			{
				"x": 0.5812382472,
				"y": 0.2663644822,
				"z": 2.7740470436,
				"element": "C" 
			},
			{
				"x": 1.7360404659,
				"y": 1.3029290694,
				"z": 3.8608323915,
				"element": "Br" 
			},
			{
				"x": 0.9664125737,
				"y": -0.1028111317,
				"z": 1.4764372629,
				"element": "C" 
			},
			{
				"x": 2.6507368445,
				"y": 0.4807306403,
				"z": 0.8014067713,
				"element": "Br" 
			},
			{
				"x": 0.4048679302,
				"y": -0.4979490635,
				"z": -2.5204350372,
				"element": "H" 
			},
			{
				"x": 1.6538087731,
				"y": -1.3918171575,
				"z": -0.7591239122,
				"element": "H" 
			},
			{
				"x": 0.1150739881,
				"y": -2.2419182549,
				"z": -0.992432118,
				"element": "H" 
			}
		],
		 "valence_orbital": [ 
			{
				"type": "occ",
				"energy": -0.28683,
				"method": "rhf"
			},
			{
				"type": "occ",
				"energy": -0.28006,
				"method": "rhf"
			},
			{
				"type": "occ",
				"energy": -0.26211,
				"method": "rhf"
			},
			{
				"type": "occ",
				"energy": -0.25803,
				"method": "rhf"
			},
			{
				"type": "occ",
				"energy": -0.25104,
				"method": "rhf"
			},
			{
				"type": "unocc",
				"energy": -0.06813,
				"method": "rhf"
			},
			{
				"type": "unocc",
				"energy": -0.05352,
				"method": "rhf"
			},
			{
				"type": "unocc",
				"energy": -0.04945,
				"method": "rhf"
			},
			{
				"type": "unocc",
				"energy": -0.01527,
				"method": "rhf"
			},
			{
				"type": "unocc",
				"energy": 0.00201,
				"method": "rhf"
			}
		],
		"cosmo_sigma_profile": { 
			"-0.025": 0.0,
			"-0.024": 0.0,
			"-0.023": 0.0,
			"-0.022": 0.0,
			"-0.021": 0.0,
			"-0.02": 0.0,
			"-0.019": 0.0,
			"-0.018": 0.0,
			"-0.017": 0.182371653298,
			"-0.016": 1.36373973309,
			"-0.015": 0.59875103914,
			"-0.014": 1.31252754184,
			"-0.013": 1.05483844896,
			"-0.012": 0.643188501894,
			"-0.011": 0.870898597234,
			"-0.01": 0.676914987969,
			"-0.009": 0.965721975861,
			"-0.008": 0.875562960029,
			"-0.007": 1.98604427607,
			"-0.006": 6.86548442606,
			"-0.005": 12.1617998472,
			"-0.004": 17.073693976,
			"-0.003": 13.196141731,
			"-0.002": 30.0860822995,
			"-0.001": 24.3482742768,
			"0.0": 19.7629052984,
			"0.001": 23.7036095333,
			"0.002": 24.700340653,
			"0.003": 42.2483361889,
			"0.004": 20.3323325072,
			"0.005": 2.16478571117,
			"0.006": 3.05605439007,
			"0.007": 1.79263306258,
			"0.008": 2.01919948907,
			"0.009": 1.68966551528,
			"0.01": 1.46700239617,
			"0.011": 1.38577400204,
			"0.012": 1.48933314843,
			"0.013": 1.45423333091,
			"0.014": 0.0665974615713,
			"0.015": 0.0,
			"0.016": 0.0,
			"0.017": 0.0,
			"0.018": 0.0,
			"0.019": 0.0,
			"0.02": 0.0,
			"0.021": 0.0,
			"0.022": 0.0,
			"0.023": 0.0,
			"0.024": 0.0,
			"0.025": 0.0
		}
	}
}
