{
	 "smiles": "O=S1(=O)CCCC1", 
	 "Tm": 300.45, 
	 "num_atms": 15, 
	 "gaussian": { 
		 "optdone": 1, 
		 "sigma_profile": "yes", 
		 "theory": "DFT", 
		 "functional": "B3LYP", 
		 "basiset": "6-31G**", 
		 "properties": { 
			 "R2extent": 1269.8741, 
			 "electric_dipole_moment_norm": 5.27123761369, 
			 "electric_quadrupole_moment_norm": 13.6877073928, 
			 "total_energy": -705.823253577, 
			 "HOMO_LUMO_gap": 0.32833, 
			 "cosmo_polarized_energy": -14.52, 
			 "cosmo_cavitation_energy": 18.46, 
			 "cosmo_dispersion_energy": -14.82, 
			 "cosmo_repulsion_energy": 1.19, 
			 "cosmo_total_nonelectrostatic_energy": 4.84, 
			 "SMD_solvation_energy": 2.1 
		},
		"coords": [
			{
				"x": -2.5436966193,
				"y": 0.4164072818,
				"z": 0.2892458096,
				"element": "O" 
			},
			{
				"x": -1.7565831947,
				"y": -0.7339080957,
				"z": 0.7641451547,
				"element": "S" 
			},
			{
				"x": -2.2915375903,
				"y": -1.6336257265,
				"z": 1.7998291469,
				"element": "O" 
			},
			{
				"x": -0.0744089339,
				"y": -0.1710331008,
				"z": 1.256877252,
				"element": "C" 
			},
			{
				"x": 0.8283579975,
				"y": -0.506336068,
				"z": 0.0649766524,
				"element": "C" 
			},
			{
				"x": 0.3273894907,
				"y": -1.8468437111,
				"z": -0.5168023364,
				"element": "C" 
			},
			{
				"x": -1.1909627332,
				"y": -1.7228629316,
				"z": -0.6820122357,
				"element": "C" 
			},
			{
				"x": -0.1434108581,
				"y": 0.8911401342,
				"z": 1.4958634382,
				"element": "H" 
			},
			{
				"x": 0.1876786013,
				"y": -0.7405487222,
				"z": 2.1516875132,
				"element": "H" 
			},
			{
				"x": 0.7499210324,
				"y": 0.2795740232,
				"z": -0.6945801773,
				"element": "H" 
			},
			{
				"x": 1.8767561684,
				"y": -0.5649001286,
				"z": 0.3708930595,
				"element": "H" 
			},
			{
				"x": 0.5613420408,
				"y": -2.6622731978,
				"z": 0.1767895175,
				"element": "H" 
			},
			{
				"x": 0.8084573656,
				"y": -2.0784388557,
				"z": -1.4713135076,
				"element": "H" 
			},
			{
				"x": -1.4683755266,
				"y": -1.1502394006,
				"z": -1.5701986992,
				"element": "H" 
			},
			{
				"x": -1.7336272406,
				"y": -2.6690115006,
				"z": -0.6618005878,
				"element": "H" 
			}
		],
		 "valence_orbital": [ 
			{
				"type": "occ",
				"energy": -0.36733,
				"method": "rhf"
			},
			{
				"type": "occ",
				"energy": -0.31453,
				"method": "rhf"
			},
			{
				"type": "occ",
				"energy": -0.30294,
				"method": "rhf"
			},
			{
				"type": "occ",
				"energy": -0.29019,
				"method": "rhf"
			},
			{
				"type": "occ",
				"energy": -0.27641,
				"method": "rhf"
			},
			{
				"type": "unocc",
				"energy": 0.05192,
				"method": "rhf"
			},
			{
				"type": "unocc",
				"energy": 0.05837,
				"method": "rhf"
			},
			{
				"type": "unocc",
				"energy": 0.07453,
				"method": "rhf"
			},
			{
				"type": "unocc",
				"energy": 0.07663,
				"method": "rhf"
			},
			{
				"type": "unocc",
				"energy": 0.08249,
				"method": "rhf"
			}
		],
		"cosmo_sigma_profile": { 
			"-0.025": 0.0,
			"-0.024": 0.0,
			"-0.023": 0.0,
			"-0.022": 0.0,
			"-0.021": 0.0,
			"-0.02": 0.0,
			"-0.019": 0.0,
			"-0.018": 0.0,
			"-0.017": 0.0,
			"-0.016": 0.0,
			"-0.015": 0.0,
			"-0.014": 0.0,
			"-0.013": 0.0,
			"-0.012": 0.0,
			"-0.011": 0.0,
			"-0.01": 0.0,
			"-0.009": 0.0,
			"-0.008": 1.76458646984,
			"-0.007": 9.21427553874,
			"-0.006": 12.8198547169,
			"-0.005": 22.1015868921,
			"-0.004": 19.8670715226,
			"-0.003": 15.1045965248,
			"-0.002": 11.746811039,
			"-0.001": 4.5342350586,
			"0.0": 2.36596620618,
			"0.001": 1.32876175936,
			"0.002": 2.12717398005,
			"0.003": 1.83732626401,
			"0.004": 2.01489352747,
			"0.005": 1.12708152303,
			"0.006": 2.08111398286,
			"0.007": 1.76044499826,
			"0.008": 1.71923185585,
			"0.009": 3.32678175653,
			"0.01": 3.37961344987,
			"0.011": 7.11041049029,
			"0.012": 12.1411741957,
			"0.013": 5.1494941438,
			"0.014": 0.00275464919367,
			"0.015": 0.0,
			"0.016": 0.0,
			"0.017": 0.0,
			"0.018": 0.0,
			"0.019": 0.0,
			"0.02": 0.0,
			"0.021": 0.0,
			"0.022": 0.0,
			"0.023": 0.0,
			"0.024": 0.0,
			"0.025": 0.0
		}
	}
}
