{
	 "smiles": "COC1=C(C=C(C)C=C1)C1(C)NC(=O)N(CC(O)=O)C1=O", 
	 "Tm": 462.15, 
	 "num_atms": 37, 
	 "gaussian": { 
		 "optdone": 1, 
		 "sigma_profile": "yes", 
		 "theory": "DFT", 
		 "functional": "B3LYP", 
		 "basiset": "6-31G**", 
		 "properties": { 
			 "R2extent": 6674.2785, 
			 "electric_dipole_moment_norm": 8.87359714039, 
			 "electric_quadrupole_moment_norm": 36.1987464208, 
			 "total_energy": -1028.80490288, 
			 "HOMO_LUMO_gap": 0.20447, 
			 "cosmo_polarized_energy": -22.09, 
			 "cosmo_cavitation_energy": 40.26, 
			 "cosmo_dispersion_energy": -27.11, 
			 "cosmo_repulsion_energy": 2.07, 
			 "cosmo_total_nonelectrostatic_energy": 15.22, 
			 "SMD_solvation_energy": 9.61 
		},
		"coords": [
			{
				"x": -1.8536352375,
				"y": -1.1013458759,
				"z": -1.8585143558,
				"element": "C" 
			},
			{
				"x": -1.1559129764,
				"y": -0.5155780405,
				"z": -0.7660755134,
				"element": "O" 
			},
			{
				"x": -0.275202721,
				"y": -1.2822895799,
				"z": -0.0569093699,
				"element": "C" 
			},
			{
				"x": 0.3921472513,
				"y": -0.6365170347,
				"z": 1.0112136747,
				"element": "C" 
			},
			{
				"x": 1.3109713138,
				"y": -1.37879263,
				"z": 1.7530529246,
				"element": "C" 
			},
			{
				"x": 1.5904487193,
				"y": -2.7280936489,
				"z": 1.4862473973,
				"element": "C" 
			},
			{
				"x": 2.6098697364,
				"y": -3.4796771399,
				"z": 2.3099411217,
				"element": "C" 
			},
			{
				"x": 0.9084010863,
				"y": -3.333988592,
				"z": 0.4325820701,
				"element": "C" 
			},
			{
				"x": -0.0155930754,
				"y": -2.6239129183,
				"z": -0.3378230479,
				"element": "C" 
			},
			{
				"x": 0.0759157495,
				"y": 0.8240195798,
				"z": 1.348560585,
				"element": "C" 
			},
			{
				"x": 1.0034523849,
				"y": 1.4326768023,
				"z": 2.4190913338,
				"element": "C" 
			},
			{
				"x": -1.3311153098,
				"y": 1.0188040023,
				"z": 1.7276922741,
				"element": "N" 
			},
			{
				"x": -2.0215295618,
				"y": 1.8303713673,
				"z": 0.8716921611,
				"element": "C" 
			},
			{
				"x": -3.207210492,
				"y": 2.0801646973,
				"z": 0.8425805846,
				"element": "O" 
			},
			{
				"x": -1.0497170648,
				"y": 2.3708009606,
				"z": -0.0240218864,
				"element": "N" 
			},
			{
				"x": -1.4333013244,
				"y": 3.2215002008,
				"z": -1.1462731672,
				"element": "C" 
			},
			{
				"x": -0.7119258044,
				"y": 4.5811140839,
				"z": -1.2109752209,
				"element": "C" 
			},
			{
				"x": 0.6269440784,
				"y": 4.5453180086,
				"z": -1.1679427422,
				"element": "O" 
			},
			{
				"x": -1.3255427096,
				"y": 5.6120340549,
				"z": -1.3448200547,
				"element": "O" 
			},
			{
				"x": 0.1572525381,
				"y": 1.749679449,
				"z": 0.1158354276,
				"element": "C" 
			},
			{
				"x": 1.1560981754,
				"y": 1.9576691318,
				"z": -0.5655914305,
				"element": "O" 
			},
			{
				"x": -2.4967395446,
				"y": -0.316351872,
				"z": -2.2576464363,
				"element": "H" 
			},
			{
				"x": -2.4749005849,
				"y": -1.9432281791,
				"z": -1.5304855103,
				"element": "H" 
			},
			{
				"x": -1.1622879512,
				"y": -1.4408305688,
				"z": -2.6390045456,
				"element": "H" 
			},
			{
				"x": 1.8404976182,
				"y": -0.9017899847,
				"z": 2.5704632436,
				"element": "H" 
			},
			{
				"x": 3.6278642322,
				"y": -3.1253671353,
				"z": 2.1077533143,
				"element": "H" 
			},
			{
				"x": 2.4325108762,
				"y": -3.3537112153,
				"z": 3.3836450094,
				"element": "H" 
			},
			{
				"x": 2.5850665049,
				"y": -4.5507312943,
				"z": 2.0912356174,
				"element": "H" 
			},
			{
				"x": 1.0971214023,
				"y": -4.3782163135,
				"z": 0.1975538006,
				"element": "H" 
			},
			{
				"x": -0.5232854436,
				"y": -3.1239237288,
				"z": -1.1535275624,
				"element": "H" 
			},
			{
				"x": 2.0441192332,
				"y": 1.4026702646,
				"z": 2.0886141879,
				"element": "H" 
			},
			{
				"x": 0.7199706591,
				"y": 2.4738057351,
				"z": 2.5912181113,
				"element": "H" 
			},
			{
				"x": 0.9054849396,
				"y": 0.8984518274,
				"z": 3.3673968047,
				"element": "H" 
			},
			{
				"x": -1.8384805224,
				"y": 0.3548467409,
				"z": 2.2926947518,
				"element": "H" 
			},
			{
				"x": -2.5018368617,
				"y": 3.4078352275,
				"z": -1.0487575048,
				"element": "H" 
			},
			{
				"x": -1.2431093326,
				"y": 2.6810670314,
				"z": -2.082704661,
				"element": "H" 
			},
			{
				"x": 0.9589900188,
				"y": 3.6194165865,
				"z": -1.0925913861,
				"element": "H" 
			}
		],
		 "valence_orbital": [ 
			{
				"type": "occ",
				"energy": -0.28755,
				"method": "rhf"
			},
			{
				"type": "occ",
				"energy": -0.27761,
				"method": "rhf"
			},
			{
				"type": "occ",
				"energy": -0.26477,
				"method": "rhf"
			},
			{
				"type": "occ",
				"energy": -0.25505,
				"method": "rhf"
			},
			{
				"type": "occ",
				"energy": -0.23439,
				"method": "rhf"
			},
			{
				"type": "unocc",
				"energy": -0.02992,
				"method": "rhf"
			},
			{
				"type": "unocc",
				"energy": -0.0235,
				"method": "rhf"
			},
			{
				"type": "unocc",
				"energy": -0.00913,
				"method": "rhf"
			},
			{
				"type": "unocc",
				"energy": 0.01349,
				"method": "rhf"
			},
			{
				"type": "unocc",
				"energy": 0.0471,
				"method": "rhf"
			}
		],
		"cosmo_sigma_profile": { 
			"-0.025": 0.0,
			"-0.024": 0.0,
			"-0.023": 0.0,
			"-0.022": 0.0,
			"-0.021": 0.0,
			"-0.02": 0.0,
			"-0.019": 0.0,
			"-0.018": 0.0,
			"-0.017": 0.0,
			"-0.016": 0.305806327294,
			"-0.015": 0.935028663207,
			"-0.014": 1.09590710657,
			"-0.013": 1.20641883182,
			"-0.012": 0.80928991646,
			"-0.011": 1.03712750709,
			"-0.01": 1.6452919156,
			"-0.009": 3.27229517702,
			"-0.008": 3.95224223838,
			"-0.007": 4.86310183622,
			"-0.006": 21.2999721474,
			"-0.005": 30.0695293357,
			"-0.004": 31.8949801636,
			"-0.003": 26.8086048198,
			"-0.002": 23.7018790326,
			"-0.001": 22.1658930904,
			"0.0": 20.2119070555,
			"0.001": 15.1227375869,
			"0.002": 13.545769703,
			"0.003": 13.3471610922,
			"0.004": 13.6064152825,
			"0.005": 12.6796100551,
			"0.006": 7.19779152376,
			"0.007": 3.86316827021,
			"0.008": 4.7296475676,
			"0.009": 7.34629731851,
			"0.01": 7.68246091182,
			"0.011": 10.6408164237,
			"0.012": 10.939774317,
			"0.013": 2.61583711296,
			"0.014": 0.0,
			"0.015": 0.0,
			"0.016": 0.0,
			"0.017": 0.0,
			"0.018": 0.0,
			"0.019": 0.0,
			"0.02": 0.0,
			"0.021": 0.0,
			"0.022": 0.0,
			"0.023": 0.0,
			"0.024": 0.0,
			"0.025": 0.0
		}
	}
}
