{
	 "smiles": "NS(=O)(=O)C1=CC(C(O)=O)=C(Br)C=C1", 
	 "Tm": 505.15, 
	 "num_atms": 20, 
	 "gaussian": { 
		 "optdone": 1, 
		 "sigma_profile": "yes", 
		 "theory": "DFT", 
		 "functional": "B3LYP", 
		 "basiset": "6-31G**", 
		 "properties": { 
			 "R2extent": 5043.3744, 
			 "electric_dipole_moment_norm": 6.04895509985, 
			 "electric_quadrupole_moment_norm": 22.9786091718, 
			 "total_energy": -3595.52892286, 
			 "HOMO_LUMO_gap": 0.20131, 
			 "cosmo_polarized_energy": -24.41, 
			 "cosmo_cavitation_energy": 28.7, 
			 "cosmo_dispersion_energy": -21.99, 
			 "cosmo_repulsion_energy": 1.68, 
			 "cosmo_total_nonelectrostatic_energy": 8.39, 
			 "SMD_solvation_energy": 4.75 
		},
		"coords": [
			{
				"x": 4.0755885,
				"y": -0.6032139696,
				"z": -1.4357743498,
				"element": "N" 
			},
			{
				"x": 2.8236631876,
				"y": -1.6413406739,
				"z": -1.8269299997,
				"element": "S" 
			},
			{
				"x": 3.1388755506,
				"y": -2.9143606402,
				"z": -1.1827121984,
				"element": "O" 
			},
			{
				"x": 2.617452528,
				"y": -1.4948493002,
				"z": -3.2640004005,
				"element": "O" 
			},
			{
				"x": 1.3446328952,
				"y": -1.0067513585,
				"z": -1.0080340745,
				"element": "C" 
			},
			{
				"x": 0.6648358548,
				"y": 0.0745018877,
				"z": -1.5543746538,
				"element": "C" 
			},
			{
				"x": -0.4856152038,
				"y": 0.6006446384,
				"z": -0.9431073807,
				"element": "C" 
			},
			{
				"x": -1.0707660144,
				"y": 1.7981352965,
				"z": -1.6782295029,
				"element": "C" 
			},
			{
				"x": -2.3237108298,
				"y": 2.1946391833,
				"z": -1.4121626477,
				"element": "O" 
			},
			{
				"x": -0.4167095065,
				"y": 2.3728158703,
				"z": -2.5182489444,
				"element": "O" 
			},
			{
				"x": -0.9184730446,
				"y": -0.0219138185,
				"z": 0.2414036114,
				"element": "C" 
			},
			{
				"x": -2.4579901191,
				"y": 0.5603033067,
				"z": 1.2372235324,
				"element": "Br" 
			},
			{
				"x": -0.2410344672,
				"y": -1.1129691496,
				"z": 0.789844476,
				"element": "C" 
			},
			{
				"x": 0.8963416954,
				"y": -1.6145915476,
				"z": 0.1650049765,
				"element": "C" 
			},
			{
				"x": 4.3232521175,
				"y": -0.6049272484,
				"z": -0.4522617973,
				"element": "H" 
			},
			{
				"x": 3.9872930538,
				"y": 0.321522367,
				"z": -1.8434183356,
				"element": "H" 
			},
			{
				"x": 0.9962119015,
				"y": 0.5400606163,
				"z": -2.4759668887,
				"element": "H" 
			},
			{
				"x": -2.7314629397,
				"y": 1.670573253,
				"z": -0.7014028938,
				"element": "H" 
			},
			{
				"x": -0.6090694243,
				"y": -1.5678946272,
				"z": 1.7019373479,
				"element": "H" 
			},
			{
				"x": 1.4219842652,
				"y": -2.4735840855,
				"z": 0.5674101237,
				"element": "H" 
			}
		],
		 "valence_orbital": [ 
			{
				"type": "occ",
				"energy": -0.31798,
				"method": "rhf"
			},
			{
				"type": "occ",
				"energy": -0.31774,
				"method": "rhf"
			},
			{
				"type": "occ",
				"energy": -0.30234,
				"method": "rhf"
			},
			{
				"type": "occ",
				"energy": -0.28964,
				"method": "rhf"
			},
			{
				"type": "occ",
				"energy": -0.28376,
				"method": "rhf"
			},
			{
				"type": "unocc",
				"energy": -0.08245,
				"method": "rhf"
			},
			{
				"type": "unocc",
				"energy": -0.06362,
				"method": "rhf"
			},
			{
				"type": "unocc",
				"energy": -0.04042,
				"method": "rhf"
			},
			{
				"type": "unocc",
				"energy": 0.01709,
				"method": "rhf"
			},
			{
				"type": "unocc",
				"energy": 0.04055,
				"method": "rhf"
			}
		],
		"cosmo_sigma_profile": { 
			"-0.025": 0.0,
			"-0.024": 0.0,
			"-0.023": 0.0,
			"-0.022": 0.0,
			"-0.021": 0.0,
			"-0.02": 0.0,
			"-0.019": 0.0,
			"-0.018": 0.0,
			"-0.017": 0.0,
			"-0.016": 1.11319775454,
			"-0.015": 2.93331825774,
			"-0.014": 2.40160375865,
			"-0.013": 3.50408444163,
			"-0.012": 3.97793391594,
			"-0.011": 4.47200187275,
			"-0.01": 2.58238868273,
			"-0.009": 5.83061882378,
			"-0.008": 5.94613564776,
			"-0.007": 7.30566842422,
			"-0.006": 9.74749419329,
			"-0.005": 10.7471190796,
			"-0.004": 11.7364649229,
			"-0.003": 11.5929204763,
			"-0.002": 16.3593849328,
			"-0.001": 22.2475290468,
			"0.0": 14.9251106234,
			"0.001": 10.8265465951,
			"0.002": 8.51989137577,
			"0.003": 4.74915653478,
			"0.004": 4.72666403767,
			"0.005": 6.99899267795,
			"0.006": 5.4633204537,
			"0.007": 6.26586421788,
			"0.008": 7.41927910311,
			"0.009": 8.66827260482,
			"0.01": 13.762327393,
			"0.011": 14.5788905542,
			"0.012": 3.79798820884,
			"0.013": 0.447036683324,
			"0.014": 0.0,
			"0.015": 0.0,
			"0.016": 0.0,
			"0.017": 0.0,
			"0.018": 0.0,
			"0.019": 0.0,
			"0.02": 0.0,
			"0.021": 0.0,
			"0.022": 0.0,
			"0.023": 0.0,
			"0.024": 0.0,
			"0.025": 0.0
		}
	}
}
