{
	 "smiles": "OC(=O)C(CC1=CC=CC=C1)NC(=O)C(F)(F)F", 
	 "Tm": 399.15, 
	 "num_atms": 28, 
	 "gaussian": { 
		 "optdone": 1, 
		 "sigma_profile": "yes", 
		 "theory": "DFT", 
		 "functional": "B3LYP", 
		 "basiset": "6-31G**", 
		 "properties": { 
			 "R2extent": 7052.6018, 
			 "electric_dipole_moment_norm": 6.58047345485, 
			 "electric_quadrupole_moment_norm": 17.3265572784, 
			 "total_energy": -1005.1580413, 
			 "HOMO_LUMO_gap": 0.23196, 
			 "cosmo_polarized_energy": -18.82, 
			 "cosmo_cavitation_energy": 34.06, 
			 "cosmo_dispersion_energy": -23.22, 
			 "cosmo_repulsion_energy": 1.73, 
			 "cosmo_total_nonelectrostatic_energy": 12.57, 
			 "SMD_solvation_energy": 7.88 
		},
		"coords": [
			{
				"x": -0.5747167839,
				"y": -0.4901896971,
				"z": 2.4304250477,
				"element": "O" 
			},
			{
				"x": -1.038659956,
				"y": -1.5450205658,
				"z": 1.7320536204,
				"element": "C" 
			},
			{
				"x": -1.793905425,
				"y": -2.3393671843,
				"z": 2.2313684317,
				"element": "O" 
			},
			{
				"x": -0.4815748638,
				"y": -1.7159895617,
				"z": 0.2921561825,
				"element": "C" 
			},
			{
				"x": -0.4566789993,
				"y": -0.4218770721,
				"z": -0.5694775696,
				"element": "C" 
			},
			{
				"x": 0.6060033705,
				"y": 0.5824240663,
				"z": -0.1634478341,
				"element": "C" 
			},
			{
				"x": 1.9725790481,
				"y": 0.2874173791,
				"z": -0.3095071629,
				"element": "C" 
			},
			{
				"x": 2.947789029,
				"y": 1.2152845109,
				"z": 0.0510399688,
				"element": "C" 
			},
			{
				"x": 2.576311996,
				"y": 2.4606844315,
				"z": 0.5661621777,
				"element": "C" 
			},
			{
				"x": 1.225224594,
				"y": 2.7707439681,
				"z": 0.7141754456,
				"element": "C" 
			},
			{
				"x": 0.2479025406,
				"y": 1.839077073,
				"z": 0.3508172374,
				"element": "C" 
			},
			{
				"x": -1.1849657697,
				"y": -2.8029326418,
				"z": -0.3757653408,
				"element": "N" 
			},
			{
				"x": -2.4994206622,
				"y": -2.6961618622,
				"z": -0.7167514514,
				"element": "C" 
			},
			{
				"x": -3.1606160253,
				"y": -1.6753944369,
				"z": -0.7428917002,
				"element": "O" 
			},
			{
				"x": -3.1286324877,
				"y": -4.0266704669,
				"z": -1.1993835476,
				"element": "C" 
			},
			{
				"x": -2.3795126464,
				"y": -5.1034651592,
				"z": -0.8452977047,
				"element": "F" 
			},
			{
				"x": -4.3486457328,
				"y": -4.180996957,
				"z": -0.6832013987,
				"element": "F" 
			},
			{
				"x": -3.2273996105,
				"y": -4.0256377834,
				"z": -2.5401470181,
				"element": "F" 
			},
			{
				"x": -0.0015119438,
				"y": 0.0778265442,
				"z": 1.8867894115,
				"element": "H" 
			},
			{
				"x": 0.5551216223,
				"y": -2.0549287251,
				"z": 0.4116317127,
				"element": "H" 
			},
			{
				"x": -0.2726557024,
				"y": -0.7444382091,
				"z": -1.6000409683,
				"element": "H" 
			},
			{
				"x": -1.4475376684,
				"y": 0.034138943,
				"z": -0.5577603596,
				"element": "H" 
			},
			{
				"x": 2.2735539959,
				"y": -0.6725561819,
				"z": -0.7231594864,
				"element": "H" 
			},
			{
				"x": 3.998370909,
				"y": 0.9697765338,
				"z": -0.0738989795,
				"element": "H" 
			},
			{
				"x": 3.3366697098,
				"y": 3.1832161092,
				"z": 0.8468796911,
				"element": "H" 
			},
			{
				"x": 0.9260634956,
				"y": 3.7374368953,
				"z": 1.1081377911,
				"element": "H" 
			},
			{
				"x": -0.8042409981,
				"y": 2.0901364005,
				"z": 0.4587340961,
				"element": "H" 
			},
			{
				"x": -0.8621150355,
				"y": -3.7403363502,
				"z": -0.1805402925,
				"element": "H" 
			}
		],
		 "valence_orbital": [ 
			{
				"type": "occ",
				"energy": -0.29322,
				"method": "rhf"
			},
			{
				"type": "occ",
				"energy": -0.28241,
				"method": "rhf"
			},
			{
				"type": "occ",
				"energy": -0.27787,
				"method": "rhf"
			},
			{
				"type": "occ",
				"energy": -0.27513,
				"method": "rhf"
			},
			{
				"type": "occ",
				"energy": -0.26586,
				"method": "rhf"
			},
			{
				"type": "unocc",
				"energy": -0.0339,
				"method": "rhf"
			},
			{
				"type": "unocc",
				"energy": -0.02805,
				"method": "rhf"
			},
			{
				"type": "unocc",
				"energy": -0.01623,
				"method": "rhf"
			},
			{
				"type": "unocc",
				"energy": 0.0032,
				"method": "rhf"
			},
			{
				"type": "unocc",
				"energy": 0.06754,
				"method": "rhf"
			}
		],
		"cosmo_sigma_profile": { 
			"-0.025": 0.0,
			"-0.024": 0.0,
			"-0.023": 0.0,
			"-0.022": 0.0,
			"-0.021": 0.0,
			"-0.02": 0.0,
			"-0.019": 0.0,
			"-0.018": 0.0,
			"-0.017": 0.0,
			"-0.016": 0.510058081509,
			"-0.015": 1.10235791386,
			"-0.014": 0.937992127881,
			"-0.013": 1.03899732151,
			"-0.012": 1.12146913799,
			"-0.011": 1.58054151968,
			"-0.01": 3.25111763407,
			"-0.009": 4.94096325138,
			"-0.008": 4.91947338257,
			"-0.007": 7.43523209163,
			"-0.006": 16.1697809327,
			"-0.005": 17.2330867082,
			"-0.004": 17.7853953263,
			"-0.003": 14.7697472721,
			"-0.002": 14.9964706045,
			"-0.001": 15.9380552493,
			"0.0": 15.4434348318,
			"0.001": 22.893668179,
			"0.002": 36.0114456852,
			"0.003": 14.3356468981,
			"0.004": 11.579358382,
			"0.005": 8.40516217315,
			"0.006": 4.17461246122,
			"0.007": 5.34620165951,
			"0.008": 4.7779904619,
			"0.009": 4.91031728116,
			"0.01": 7.99102232051,
			"0.011": 7.60184844191,
			"0.012": 3.87382554003,
			"0.013": 0.609714586122,
			"0.014": 0.0,
			"0.015": 0.0,
			"0.016": 0.0,
			"0.017": 0.0,
			"0.018": 0.0,
			"0.019": 0.0,
			"0.02": 0.0,
			"0.021": 0.0,
			"0.022": 0.0,
			"0.023": 0.0,
			"0.024": 0.0,
			"0.025": 0.0
		}
	}
}
