{
	 "smiles": "NC1=CC=CC=C1CCCCC1=CC=CC=C1N", 
	 "Tm": 347.15, 
	 "num_atms": 38, 
	 "gaussian": { 
		 "optdone": 1, 
		 "sigma_profile": "yes", 
		 "theory": "DFT", 
		 "functional": "B3LYP", 
		 "basiset": "6-31G**", 
		 "properties": { 
			 "R2extent": 4965.0265, 
			 "electric_dipole_moment_norm": 3.30547774762, 
			 "electric_quadrupole_moment_norm": 10.7605162125, 
			 "total_energy": -731.277983462, 
			 "HOMO_LUMO_gap": 0.18046, 
			 "cosmo_polarized_energy": -12.6, 
			 "cosmo_cavitation_energy": 37.93, 
			 "cosmo_dispersion_energy": -26.29, 
			 "cosmo_repulsion_energy": 2.02, 
			 "cosmo_total_nonelectrostatic_energy": 13.66, 
			 "SMD_solvation_energy": 5.27 
		},
		"coords": [
			{
				"x": -0.1990892896,
				"y": 0.0145766186,
				"z": -2.0765296286,
				"element": "N" 
			},
			{
				"x": -0.2173504915,
				"y": 1.3481079888,
				"z": -1.6606336088,
				"element": "C" 
			},
			{
				"x": -0.974557244,
				"y": 2.284970837,
				"z": -2.3908220618,
				"element": "C" 
			},
			{
				"x": -0.9686518436,
				"y": 3.6353628672,
				"z": -2.0603579019,
				"element": "C" 
			},
			{
				"x": -0.2021157638,
				"y": 4.0882976004,
				"z": -0.9849186978,
				"element": "C" 
			},
			{
				"x": 0.5491946439,
				"y": 3.1638616215,
				"z": -0.2613418954,
				"element": "C" 
			},
			{
				"x": 0.5620711283,
				"y": 1.796893491,
				"z": -0.5670885493,
				"element": "C" 
			},
			{
				"x": 1.4224273717,
				"y": 0.8612350615,
				"z": 0.2664727278,
				"element": "C" 
			},
			{
				"x": 0.9231384236,
				"y": 0.6685223954,
				"z": 1.7176434927,
				"element": "C" 
			},
			{
				"x": -0.4333373286,
				"y": -0.042436975,
				"z": 1.9013251237,
				"element": "C" 
			},
			{
				"x": -0.4148767154,
				"y": -1.5885820822,
				"z": 2.007465944,
				"element": "C" 
			},
			{
				"x": -0.1667632294,
				"y": -2.3757411697,
				"z": 0.7333505227,
				"element": "C" 
			},
			{
				"x": -1.2573424445,
				"y": -2.700935998,
				"z": -0.0863736049,
				"element": "C" 
			},
			{
				"x": -1.1162185477,
				"y": -3.4265114689,
				"z": -1.2692479958,
				"element": "C" 
			},
			{
				"x": 0.1578242307,
				"y": -3.854340772,
				"z": -1.6483514305,
				"element": "C" 
			},
			{
				"x": 1.2575983176,
				"y": -3.5616324152,
				"z": -0.8489743402,
				"element": "C" 
			},
			{
				"x": 1.1176703952,
				"y": -2.8286209626,
				"z": 0.3441548555,
				"element": "C" 
			},
			{
				"x": 2.2594963319,
				"y": -2.513063143,
				"z": 1.0869340526,
				"element": "N" 
			},
			{
				"x": -0.9642813741,
				"y": -0.2427642731,
				"z": -2.6842000385,
				"element": "H" 
			},
			{
				"x": -0.0598930102,
				"y": -0.6827310422,
				"z": -1.3586297612,
				"element": "H" 
			},
			{
				"x": -1.5690363719,
				"y": 1.9350926562,
				"z": -3.232368165,
				"element": "H" 
			},
			{
				"x": -1.5638374781,
				"y": 4.3324711386,
				"z": -2.6441874139,
				"element": "H" 
			},
			{
				"x": -0.1844068417,
				"y": 5.1408397878,
				"z": -0.7191482069,
				"element": "H" 
			},
			{
				"x": 1.1596172469,
				"y": 3.5105091131,
				"z": 0.5705610298,
				"element": "H" 
			},
			{
				"x": 2.4334627714,
				"y": 1.2850704007,
				"z": 0.3239081215,
				"element": "H" 
			},
			{
				"x": 1.5479783434,
				"y": -0.1074502032,
				"z": -0.2216864004,
				"element": "H" 
			},
			{
				"x": 0.8478704399,
				"y": 1.6624736113,
				"z": 2.1752385096,
				"element": "H" 
			},
			{
				"x": 1.6955019757,
				"y": 0.1349745161,
				"z": 2.2873399109,
				"element": "H" 
			},
			{
				"x": -0.8832109122,
				"y": 0.3227905539,
				"z": 2.8331443425,
				"element": "H" 
			},
			{
				"x": -1.1207049659,
				"y": 0.2595584446,
				"z": 1.1011491645,
				"element": "H" 
			},
			{
				"x": 0.3013987227,
				"y": -1.8750485849,
				"z": 2.7907764767,
				"element": "H" 
			},
			{
				"x": -1.3934523948,
				"y": -1.8978023705,
				"z": 2.3939681968,
				"element": "H" 
			},
			{
				"x": -2.2470886262,
				"y": -2.3733424955,
				"z": 0.2246823752,
				"element": "H" 
			},
			{
				"x": -1.9847139164,
				"y": -3.6613873636,
				"z": -1.8767085523,
				"element": "H" 
			},
			{
				"x": 0.297725258,
				"y": -4.4232520354,
				"z": -2.5630868249,
				"element": "H" 
			},
			{
				"x": 2.2484486432,
				"y": -3.8985653631,
				"z": -1.1449165345,
				"element": "H" 
			},
			{
				"x": 3.0490745726,
				"y": -3.1231668809,
				"z": 0.9255977781,
				"element": "H" 
			},
			{
				"x": 2.1111299732,
				"y": -2.3412331049,
				"z": 2.0709589879,
				"element": "H" 
			}
		],
		 "valence_orbital": [ 
			{
				"type": "occ",
				"energy": -0.28876,
				"method": "rhf"
			},
			{
				"type": "occ",
				"energy": -0.24365,
				"method": "rhf"
			},
			{
				"type": "occ",
				"energy": -0.22403,
				"method": "rhf"
			},
			{
				"type": "occ",
				"energy": -0.20554,
				"method": "rhf"
			},
			{
				"type": "occ",
				"energy": -0.18327,
				"method": "rhf"
			},
			{
				"type": "unocc",
				"energy": -0.00281,
				"method": "rhf"
			},
			{
				"type": "unocc",
				"energy": 0.01235,
				"method": "rhf"
			},
			{
				"type": "unocc",
				"energy": 0.01647,
				"method": "rhf"
			},
			{
				"type": "unocc",
				"energy": 0.0345,
				"method": "rhf"
			},
			{
				"type": "unocc",
				"energy": 0.06658,
				"method": "rhf"
			}
		],
		"cosmo_sigma_profile": { 
			"-0.025": 0.0,
			"-0.024": 0.0,
			"-0.023": 0.0,
			"-0.022": 0.0,
			"-0.021": 0.0,
			"-0.02": 0.0,
			"-0.019": 0.0,
			"-0.018": 0.0,
			"-0.017": 0.0,
			"-0.016": 0.0,
			"-0.015": 0.0,
			"-0.014": 0.0,
			"-0.013": 0.054315301394,
			"-0.012": 1.39106548496,
			"-0.011": 3.72063300042,
			"-0.01": 3.41289328323,
			"-0.009": 4.04687117065,
			"-0.008": 5.29237426462,
			"-0.007": 3.6420360523,
			"-0.006": 5.34668705589,
			"-0.005": 12.4303461654,
			"-0.004": 19.8157072396,
			"-0.003": 26.3159769984,
			"-0.002": 29.6393163587,
			"-0.001": 29.2891118016,
			"0.0": 27.6638855342,
			"0.001": 26.7272825601,
			"0.002": 15.734833948,
			"0.003": 14.1586847458,
			"0.004": 15.4078251134,
			"0.005": 13.4452025532,
			"0.006": 13.3332577192,
			"0.007": 12.2007114147,
			"0.008": 7.19284240592,
			"0.009": 2.36273606715,
			"0.01": 1.43923950132,
			"0.011": 1.72039820554,
			"0.012": 0.763037428919,
			"0.013": 0.605805639401,
			"0.014": 0.489568856075,
			"0.015": 0.56879820477,
			"0.016": 0.0,
			"0.017": 0.0,
			"0.018": 0.0,
			"0.019": 0.0,
			"0.02": 0.0,
			"0.021": 0.0,
			"0.022": 0.0,
			"0.023": 0.0,
			"0.024": 0.0,
			"0.025": 0.0
		}
	}
}
