{
	 "smiles": "CC1=CC(C)=NC(NCC2=CC(=CC=C2)C(O)=O)=N1", 
	 "Tm": 498.15, 
	 "num_atms": 34, 
	 "gaussian": { 
		 "optdone": 1, 
		 "sigma_profile": "yes", 
		 "theory": "DFT", 
		 "functional": "B3LYP", 
		 "basiset": "6-31G**", 
		 "properties": { 
			 "R2extent": 6330.1986, 
			 "electric_dipole_moment_norm": 4.77129557772, 
			 "electric_quadrupole_moment_norm": 28.5990772839, 
			 "total_energy": -857.273989327, 
			 "HOMO_LUMO_gap": 0.17322, 
			 "cosmo_polarized_energy": -18.23, 
			 "cosmo_cavitation_energy": 38.55, 
			 "cosmo_dispersion_energy": -26.72, 
			 "cosmo_repulsion_energy": 2.06, 
			 "cosmo_total_nonelectrostatic_energy": 13.9, 
			 "SMD_solvation_energy": 5.17 
		},
		"coords": [
			{
				"x": -1.8789993728,
				"y": -4.2605085713,
				"z": 0.8363274182,
				"element": "C" 
			},
			{
				"x": -0.9484394379,
				"y": -3.1374394375,
				"z": 0.4601187367,
				"element": "C" 
			},
			{
				"x": 0.4054925878,
				"y": -3.1456623593,
				"z": 0.8212297455,
				"element": "C" 
			},
			{
				"x": 1.1795190397,
				"y": -2.0470652087,
				"z": 0.4459509383,
				"element": "C" 
			},
			{
				"x": 2.6341376557,
				"y": -1.9323204664,
				"z": 0.8200673338,
				"element": "C" 
			},
			{
				"x": 0.6582649496,
				"y": -1.0233710672,
				"z": -0.2480845605,
				"element": "N" 
			},
			{
				"x": -0.6457425733,
				"y": -1.1232853092,
				"z": -0.568577712,
				"element": "C" 
			},
			{
				"x": -1.2048869875,
				"y": -0.1276688407,
				"z": -1.3194500567,
				"element": "N" 
			},
			{
				"x": -0.5262828052,
				"y": 1.0934616004,
				"z": -1.7256028452,
				"element": "C" 
			},
			{
				"x": -0.6195826109,
				"y": 2.2324005655,
				"z": -0.7206414315,
				"element": "C" 
			},
			{
				"x": 0.1788146462,
				"y": 2.2207870547,
				"z": 0.4303824837,
				"element": "C" 
			},
			{
				"x": 0.0903133588,
				"y": 3.2474996469,
				"z": 1.3772038736,
				"element": "C" 
			},
			{
				"x": -0.8220989576,
				"y": 4.2945017833,
				"z": 1.1812820814,
				"element": "C" 
			},
			{
				"x": -1.6103585547,
				"y": 4.32067887,
				"z": 0.0356248486,
				"element": "C" 
			},
			{
				"x": -1.5069666277,
				"y": 3.2963175754,
				"z": -0.9106788672,
				"element": "C" 
			},
			{
				"x": 0.9203907157,
				"y": 3.2713861514,
				"z": 2.6265537224,
				"element": "C" 
			},
			{
				"x": 2.0308895597,
				"y": 2.4856388009,
				"z": 2.6388108279,
				"element": "O" 
			},
			{
				"x": 0.6484323684,
				"y": 3.9451591888,
				"z": 3.5928783758,
				"element": "O" 
			},
			{
				"x": -1.4806359657,
				"y": -2.1299091731,
				"z": -0.2368526323,
				"element": "N" 
			},
			{
				"x": -2.321651758,
				"y": -4.6997331554,
				"z": -0.0634119846,
				"element": "H" 
			},
			{
				"x": -1.3644636415,
				"y": -5.0444086742,
				"z": 1.3969229855,
				"element": "H" 
			},
			{
				"x": -2.7051812102,
				"y": -3.8757525194,
				"z": 1.4429802124,
				"element": "H" 
			},
			{
				"x": 0.831987154,
				"y": -3.9674243365,
				"z": 1.384771607,
				"element": "H" 
			},
			{
				"x": 3.0262012248,
				"y": -2.8725421199,
				"z": 1.214791709,
				"element": "H" 
			},
			{
				"x": 2.7667681105,
				"y": -1.1597980664,
				"z": 1.5868396286,
				"element": "H" 
			},
			{
				"x": 3.2269118161,
				"y": -1.6322524646,
				"z": -0.0488755701,
				"element": "H" 
			},
			{
				"x": -2.207992354,
				"y": -0.1897655547,
				"z": -1.4107735493,
				"element": "H" 
			},
			{
				"x": -0.9568172779,
				"y": 1.4134524473,
				"z": -2.680361689,
				"element": "H" 
			},
			{
				"x": 0.5206732081,
				"y": 0.8372270765,
				"z": -1.9030052915,
				"element": "H" 
			},
			{
				"x": 0.8323488284,
				"y": 1.3634193453,
				"z": 0.574238069,
				"element": "H" 
			},
			{
				"x": -0.8889023254,
				"y": 5.071705092,
				"z": 1.934716889,
				"element": "H" 
			},
			{
				"x": -2.3074988856,
				"y": 5.137774063,
				"z": -0.124926616,
				"element": "H" 
			},
			{
				"x": -2.1247967547,
				"y": 3.3249419623,
				"z": -1.8054404828,
				"element": "H" 
			},
			{
				"x": 2.1877528771,
				"y": 2.120656101,
				"z": 1.7568918022,
				"element": "H" 
			}
		],
		 "valence_orbital": [ 
			{
				"type": "occ",
				"energy": -0.27175,
				"method": "rhf"
			},
			{
				"type": "occ",
				"energy": -0.26533,
				"method": "rhf"
			},
			{
				"type": "occ",
				"energy": -0.25975,
				"method": "rhf"
			},
			{
				"type": "occ",
				"energy": -0.2472,
				"method": "rhf"
			},
			{
				"type": "occ",
				"energy": -0.22016,
				"method": "rhf"
			},
			{
				"type": "unocc",
				"energy": -0.04694,
				"method": "rhf"
			},
			{
				"type": "unocc",
				"energy": -0.03112,
				"method": "rhf"
			},
			{
				"type": "unocc",
				"energy": -0.02122,
				"method": "rhf"
			},
			{
				"type": "unocc",
				"energy": 0.00658,
				"method": "rhf"
			},
			{
				"type": "unocc",
				"energy": 0.05171,
				"method": "rhf"
			}
		],
		"cosmo_sigma_profile": { 
			"-0.025": 0.0,
			"-0.024": 0.0,
			"-0.023": 0.0,
			"-0.022": 0.0,
			"-0.021": 0.0,
			"-0.02": 0.0,
			"-0.019": 0.0,
			"-0.018": 0.263852421575,
			"-0.017": 0.651651052149,
			"-0.016": 0.613064988043,
			"-0.015": 0.954912856378,
			"-0.014": 0.612252849997,
			"-0.013": 1.63360467986,
			"-0.012": 2.26770806782,
			"-0.011": 1.2056746039,
			"-0.01": 2.35479657116,
			"-0.009": 1.79025514703,
			"-0.008": 2.23640426167,
			"-0.007": 5.21944322842,
			"-0.006": 12.8262502497,
			"-0.005": 22.029841998,
			"-0.004": 23.84925733,
			"-0.003": 21.7913651879,
			"-0.002": 23.814776019,
			"-0.001": 26.9173581535,
			"0.0": 27.6848262451,
			"0.001": 21.6062976011,
			"0.002": 21.4706356482,
			"0.003": 22.566190919,
			"0.004": 13.3995928997,
			"0.005": 6.4921856775,
			"0.006": 5.1337107997,
			"0.007": 4.67280836367,
			"0.008": 5.09390865995,
			"0.009": 5.35092421848,
			"0.01": 5.94827796727,
			"0.011": 6.64747455908,
			"0.012": 5.88696490362,
			"0.013": 2.22810217465,
			"0.014": 0.801139924519,
			"0.015": 0.622630657291,
			"0.016": 0.0,
			"0.017": 0.0,
			"0.018": 0.0,
			"0.019": 0.0,
			"0.02": 0.0,
			"0.021": 0.0,
			"0.022": 0.0,
			"0.023": 0.0,
			"0.024": 0.0,
			"0.025": 0.0
		}
	}
}
