{
	 "smiles": "CC1=C(N)C=CC(=C1)C(=O)N1CCOCC1", 
	 "Tm": 375.15, 
	 "num_atms": 32, 
	 "gaussian": { 
		 "optdone": 1, 
		 "sigma_profile": "yes", 
		 "theory": "DFT", 
		 "functional": "B3LYP", 
		 "basiset": "6-31G**", 
		 "properties": { 
			 "R2extent": 4937.9486, 
			 "electric_dipole_moment_norm": 4.86978289968, 
			 "electric_quadrupole_moment_norm": 19.8992482891, 
			 "total_energy": -726.880223407, 
			 "HOMO_LUMO_gap": 0.19046, 
			 "cosmo_polarized_energy": -17.09, 
			 "cosmo_cavitation_energy": 33.66, 
			 "cosmo_dispersion_energy": -24.45, 
			 "cosmo_repulsion_energy": 1.91, 
			 "cosmo_total_nonelectrostatic_energy": 11.12, 
			 "SMD_solvation_energy": 5.36 
		},
		"coords": [
			{
				"x": 3.3582038302,
				"y": 0.0254910202,
				"z": 3.4500634327,
				"element": "C" 
			},
			{
				"x": 2.1522550451,
				"y": 0.5036274108,
				"z": 2.679783027,
				"element": "C" 
			},
			{
				"x": 1.2891079875,
				"y": 1.4749120731,
				"z": 3.2411101365,
				"element": "C" 
			},
			{
				"x": 1.55716118,
				"y": 2.0099955728,
				"z": 4.4978785368,
				"element": "N" 
			},
			{
				"x": 0.1985943631,
				"y": 1.9448763842,
				"z": 2.4876818066,
				"element": "C" 
			},
			{
				"x": -0.0411294549,
				"y": 1.4657221658,
				"z": 1.2080094287,
				"element": "C" 
			},
			{
				"x": 0.7770337222,
				"y": 0.4735401677,
				"z": 0.6513912027,
				"element": "C" 
			},
			{
				"x": 1.8728765401,
				"y": 0.0211697787,
				"z": 1.4013787041,
				"element": "C" 
			},
			{
				"x": 0.5132012168,
				"y": 0.0579850518,
				"z": -0.7634589915,
				"element": "C" 
			},
			{
				"x": 0.1296953407,
				"y": 0.8851897567,
				"z": -1.5907338172,
				"element": "O" 
			},
			{
				"x": 0.761650236,
				"y": -1.2580294638,
				"z": -1.1223857601,
				"element": "N" 
			},
			{
				"x": 0.661245657,
				"y": -2.411179304,
				"z": -0.225211701,
				"element": "C" 
			},
			{
				"x": -0.5885587263,
				"y": -3.234854522,
				"z": -0.5617136214,
				"element": "C" 
			},
			{
				"x": -0.617655294,
				"y": -3.6127197121,
				"z": -1.9286826552,
				"element": "O" 
			},
			{
				"x": -0.6041567717,
				"y": -2.4671718458,
				"z": -2.7765168498,
				"element": "C" 
			},
			{
				"x": 0.6471778875,
				"y": -1.6232113191,
				"z": -2.5371796138,
				"element": "C" 
			},
			{
				"x": 3.0777511078,
				"y": -0.4957941691,
				"z": 4.3769818963,
				"element": "H" 
			},
			{
				"x": 3.9520137145,
				"y": -0.6736950531,
				"z": 2.8561143771,
				"element": "H" 
			},
			{
				"x": 4.0092742706,
				"y": 0.8608706973,
				"z": 3.7364077993,
				"element": "H" 
			},
			{
				"x": 2.0612519014,
				"y": 1.4172525929,
				"z": 5.1411821698,
				"element": "H" 
			},
			{
				"x": 0.7870764796,
				"y": 2.4930534563,
				"z": 4.9382925298,
				"element": "H" 
			},
			{
				"x": -0.4525799663,
				"y": 2.7042868626,
				"z": 2.914379773,
				"element": "H" 
			},
			{
				"x": -0.8642934324,
				"y": 1.8557830539,
				"z": 0.6186455981,
				"element": "H" 
			},
			{
				"x": 2.5525434727,
				"y": -0.7072973858,
				"z": 0.9668320515,
				"element": "H" 
			},
			{
				"x": 1.5525434472,
				"y": -3.0428477255,
				"z": -0.3446506606,
				"element": "H" 
			},
			{
				"x": 0.612744763,
				"y": -2.0760957541,
				"z": 0.8105693592,
				"element": "H" 
			},
			{
				"x": -0.6013979303,
				"y": -4.1613872976,
				"z": 0.0212097791,
				"element": "H" 
			},
			{
				"x": -1.4880390181,
				"y": -2.6484916229,
				"z": -0.3076070875,
				"element": "H" 
			},
			{
				"x": -0.6310184094,
				"y": -2.8413313387,
				"z": -3.8042646432,
				"element": "H" 
			},
			{
				"x": -1.5018972005,
				"y": -1.852777853,
				"z": -2.6012337601,
				"element": "H" 
			},
			{
				"x": 1.5345458832,
				"y": -2.2066280735,
				"z": -2.8172839344,
				"element": "H" 
			},
			{
				"x": 0.6153781574,
				"y": -0.7031436045,
				"z": -3.1211885123,
				"element": "H" 
			}
		],
		 "valence_orbital": [ 
			{
				"type": "occ",
				"energy": -0.26982,
				"method": "rhf"
			},
			{
				"type": "occ",
				"energy": -0.24653,
				"method": "rhf"
			},
			{
				"type": "occ",
				"energy": -0.24264,
				"method": "rhf"
			},
			{
				"type": "occ",
				"energy": -0.22025,
				"method": "rhf"
			},
			{
				"type": "occ",
				"energy": -0.20435,
				"method": "rhf"
			},
			{
				"type": "unocc",
				"energy": -0.01389,
				"method": "rhf"
			},
			{
				"type": "unocc",
				"energy": 0.00142,
				"method": "rhf"
			},
			{
				"type": "unocc",
				"energy": 0.06103,
				"method": "rhf"
			},
			{
				"type": "unocc",
				"energy": 0.06957,
				"method": "rhf"
			},
			{
				"type": "unocc",
				"energy": 0.10069,
				"method": "rhf"
			}
		],
		"cosmo_sigma_profile": { 
			"-0.025": 0.0,
			"-0.024": 0.0,
			"-0.023": 0.0,
			"-0.022": 0.0,
			"-0.021": 0.0,
			"-0.02": 0.0,
			"-0.019": 0.0,
			"-0.018": 0.0,
			"-0.017": 0.0,
			"-0.016": 0.0,
			"-0.015": 0.0,
			"-0.014": 0.0,
			"-0.013": 0.433226632351,
			"-0.012": 2.07932588803,
			"-0.011": 3.03179366572,
			"-0.01": 3.12133298985,
			"-0.009": 2.66090552644,
			"-0.008": 3.12789713078,
			"-0.007": 3.10313739689,
			"-0.006": 5.76682752678,
			"-0.005": 18.8758609082,
			"-0.004": 33.7004469486,
			"-0.003": 31.3454280703,
			"-0.002": 22.7513912309,
			"-0.001": 17.9795713882,
			"0.0": 16.7123718657,
			"0.001": 14.08507451,
			"0.002": 10.3248064014,
			"0.003": 10.4257814527,
			"0.004": 10.4528917419,
			"0.005": 11.4080257374,
			"0.006": 9.6197734352,
			"0.007": 4.15696981439,
			"0.008": 4.16469492405,
			"0.009": 2.55761981512,
			"0.01": 3.47712854359,
			"0.011": 3.82231975993,
			"0.012": 3.79256337393,
			"0.013": 4.62528089917,
			"0.014": 5.16055460304,
			"0.015": 1.43085623035,
			"0.016": 0.0229921621605,
			"0.017": 0.0,
			"0.018": 0.0,
			"0.019": 0.0,
			"0.02": 0.0,
			"0.021": 0.0,
			"0.022": 0.0,
			"0.023": 0.0,
			"0.024": 0.0,
			"0.025": 0.0
		}
	}
}
