{
	 "smiles": "CNCC1=CC=C(C=C1)N1C=CN=C1", 
	 "Tm": 341.15, 
	 "num_atms": 27, 
	 "gaussian": { 
		 "optdone": 1, 
		 "sigma_profile": "yes", 
		 "theory": "DFT", 
		 "functional": "B3LYP", 
		 "basiset": "6-31G**", 
		 "properties": { 
			 "R2extent": 4978.4078, 
			 "electric_dipole_moment_norm": 3.20834793313, 
			 "electric_quadrupole_moment_norm": 21.5362375623, 
			 "total_energy": -591.241238343, 
			 "HOMO_LUMO_gap": 0.1955, 
			 "cosmo_polarized_energy": -12.73, 
			 "cosmo_cavitation_energy": 30.57, 
			 "cosmo_dispersion_energy": -21.83, 
			 "cosmo_repulsion_energy": 1.7, 
			 "cosmo_total_nonelectrostatic_energy": 10.43, 
			 "SMD_solvation_energy": 1.93 
		},
		"coords": [
			{
				"x": -1.6501641608,
				"y": -3.6534178047,
				"z": -0.8591222688,
				"element": "C" 
			},
			{
				"x": -0.5961957977,
				"y": -4.117979188,
				"z": 0.0374312712,
				"element": "N" 
			},
			{
				"x": -0.0547671003,
				"y": -3.090116168,
				"z": 0.9334469026,
				"element": "C" 
			},
			{
				"x": 0.6534444062,
				"y": -1.9222326255,
				"z": 0.2615063126,
				"element": "C" 
			},
			{
				"x": 1.9779535729,
				"y": -2.0540601624,
				"z": -0.1804877937,
				"element": "C" 
			},
			{
				"x": 2.6350419083,
				"y": -1.0118684983,
				"z": -0.8284888365,
				"element": "C" 
			},
			{
				"x": 1.9622610127,
				"y": 0.1929701108,
				"z": -1.0667461984,
				"element": "C" 
			},
			{
				"x": 0.6382933259,
				"y": 0.3417499736,
				"z": -0.641788892,
				"element": "C" 
			},
			{
				"x": 0.0024077846,
				"y": -0.7051011527,
				"z": 0.0249710744,
				"element": "C" 
			},
			{
				"x": 2.623538258,
				"y": 1.2621609813,
				"z": -1.72644904,
				"element": "N" 
			},
			{
				"x": 3.5174499339,
				"y": 1.169275957,
				"z": -2.7835288205,
				"element": "C" 
			},
			{
				"x": 3.8939355511,
				"y": 2.4570674615,
				"z": -3.063658827,
				"element": "C" 
			},
			{
				"x": 3.2739648213,
				"y": 3.345085466,
				"z": -2.2108580966,
				"element": "N" 
			},
			{
				"x": 2.5238722385,
				"y": 2.6031414261,
				"z": -1.4295392486,
				"element": "C" 
			},
			{
				"x": -2.5129616593,
				"y": -3.3322304581,
				"z": -0.2634925918,
				"element": "H" 
			},
			{
				"x": -1.9772994933,
				"y": -4.4868294558,
				"z": -1.4881599752,
				"element": "H" 
			},
			{
				"x": -1.3692845078,
				"y": -2.8150205185,
				"z": -1.5184091458,
				"element": "H" 
			},
			{
				"x": 0.1623025433,
				"y": -4.5192298363,
				"z": -0.5087072672,
				"element": "H" 
			},
			{
				"x": 0.6407537203,
				"y": -3.5879659363,
				"z": 1.6195569413,
				"element": "H" 
			},
			{
				"x": -0.8851850822,
				"y": -2.7122497018,
				"z": 1.5424509384,
				"element": "H" 
			},
			{
				"x": 2.5146134077,
				"y": -2.9819918066,
				"z": 0.0054166451,
				"element": "H" 
			},
			{
				"x": 3.6734263957,
				"y": -1.1159314965,
				"z": -1.1262203885,
				"element": "H" 
			},
			{
				"x": 0.1059243073,
				"y": 1.2643971937,
				"z": -0.8490395498,
				"element": "H" 
			},
			{
				"x": -1.0233771596,
				"y": -0.5734979501,
				"z": 0.3597737159,
				"element": "H" 
			},
			{
				"x": 3.7551860007,
				"y": 0.2225548904,
				"z": -3.2422173735,
				"element": "H" 
			},
			{
				"x": 4.5724030461,
				"y": 2.7957648688,
				"z": -3.8344743927,
				"element": "H" 
			},
			{
				"x": 1.9131627265,
				"y": 2.9573544305,
				"z": -0.610865095,
				"element": "H" 
			}
		],
		 "valence_orbital": [ 
			{
				"type": "occ",
				"energy": -0.26852,
				"method": "rhf"
			},
			{
				"type": "occ",
				"energy": -0.26415,
				"method": "rhf"
			},
			{
				"type": "occ",
				"energy": -0.24419,
				"method": "rhf"
			},
			{
				"type": "occ",
				"energy": -0.2283,
				"method": "rhf"
			},
			{
				"type": "occ",
				"energy": -0.22108,
				"method": "rhf"
			},
			{
				"type": "unocc",
				"energy": -0.02558,
				"method": "rhf"
			},
			{
				"type": "unocc",
				"energy": -0.01997,
				"method": "rhf"
			},
			{
				"type": "unocc",
				"energy": 0.03658,
				"method": "rhf"
			},
			{
				"type": "unocc",
				"energy": 0.06667,
				"method": "rhf"
			},
			{
				"type": "unocc",
				"energy": 0.07949,
				"method": "rhf"
			}
		],
		"cosmo_sigma_profile": { 
			"-0.025": 0.0,
			"-0.024": 0.0,
			"-0.023": 0.0,
			"-0.022": 0.0,
			"-0.021": 0.0,
			"-0.02": 0.0,
			"-0.019": 0.0,
			"-0.018": 0.0,
			"-0.017": 0.0,
			"-0.016": 0.0,
			"-0.015": 0.0,
			"-0.014": 0.0,
			"-0.013": 0.0,
			"-0.012": 0.0,
			"-0.011": 0.0,
			"-0.01": 0.270450134435,
			"-0.009": 2.22723245596,
			"-0.008": 5.27996083688,
			"-0.007": 9.26401073312,
			"-0.006": 15.0902913829,
			"-0.005": 14.8333827904,
			"-0.004": 20.6502163267,
			"-0.003": 21.4068416967,
			"-0.002": 15.6993997231,
			"-0.001": 20.1320064091,
			"0.0": 23.8305991946,
			"0.001": 15.0338693464,
			"0.002": 14.1218548613,
			"0.003": 12.7764435644,
			"0.004": 15.1590015506,
			"0.005": 9.48641743469,
			"0.006": 4.60760696877,
			"0.007": 2.16827550213,
			"0.008": 2.03271997032,
			"0.009": 2.89251071361,
			"0.01": 2.25656178907,
			"0.011": 2.16612285519,
			"0.012": 1.75564239034,
			"0.013": 1.95616590259,
			"0.014": 1.49641529277,
			"0.015": 1.44575457589,
			"0.016": 2.11985091672,
			"0.017": 1.56956978305,
			"0.018": 1.04152081917,
			"0.019": 0.024090321188,
			"0.02": 0.0,
			"0.021": 0.0,
			"0.022": 0.0,
			"0.023": 0.0,
			"0.024": 0.0,
			"0.025": 0.0
		}
	}
}
