{
	 "smiles": "N#CCC1=CN(N=C1)C1=CC=CC=C1", 
	 "Tm": 312.15, 
	 "num_atms": 23, 
	 "gaussian": { 
		 "optdone": 1, 
		 "sigma_profile": "yes", 
		 "theory": "DFT", 
		 "functional": "B3LYP", 
		 "basiset": "6-31G**", 
		 "properties": { 
			 "R2extent": 3543.8264, 
			 "electric_dipole_moment_norm": 2.02002155434, 
			 "electric_quadrupole_moment_norm": 23.1494352706, 
			 "total_energy": -588.807989325, 
			 "HOMO_LUMO_gap": 0.20053, 
			 "cosmo_polarized_energy": -12.95, 
			 "cosmo_cavitation_energy": 28.6, 
			 "cosmo_dispersion_energy": -20.39, 
			 "cosmo_repulsion_energy": 1.59, 
			 "cosmo_total_nonelectrostatic_energy": 9.8, 
			 "SMD_solvation_energy": 5.87 
		},
		"coords": [
			{
				"x": 3.5494797958,
				"y": -2.7363523246,
				"z": 2.542665607,
				"element": "N" 
			},
			{
				"x": 2.4110546013,
				"y": -2.9606539844,
				"z": 2.5332735107,
				"element": "C" 
			},
			{
				"x": 0.968687406,
				"y": -3.2233100004,
				"z": 2.5074228561,
				"element": "C" 
			},
			{
				"x": 0.1972535948,
				"y": -2.1831303892,
				"z": 1.7335679469,
				"element": "C" 
			},
			{
				"x": 0.6833754445,
				"y": -1.0792776166,
				"z": 1.0641047387,
				"element": "C" 
			},
			{
				"x": -0.391190316,
				"y": -0.4408323325,
				"z": 0.512347347,
				"element": "N" 
			},
			{
				"x": -1.5544294337,
				"y": -1.0825054433,
				"z": 0.7871279774,
				"element": "N" 
			},
			{
				"x": -1.202883113,
				"y": -2.130206908,
				"z": 1.5227210429,
				"element": "C" 
			},
			{
				"x": -0.3952492611,
				"y": 0.7409907542,
				"z": -0.2783525051,
				"element": "C" 
			},
			{
				"x": 0.6792453719,
				"y": 1.6349005445,
				"z": -0.2182121353,
				"element": "C" 
			},
			{
				"x": 0.6674138331,
				"y": 2.7789135059,
				"z": -1.0157062697,
				"element": "C" 
			},
			{
				"x": -0.4135215829,
				"y": 3.0447076057,
				"z": -1.857211216,
				"element": "C" 
			},
			{
				"x": -1.4886698868,
				"y": 2.1539441151,
				"z": -1.8974183996,
				"element": "C" 
			},
			{
				"x": -1.4851399023,
				"y": 1.0004233325,
				"z": -1.1163356747,
				"element": "C" 
			},
			{
				"x": 0.616446612,
				"y": -3.2766655351,
				"z": 3.5458581387,
				"element": "H" 
			},
			{
				"x": 0.8145049794,
				"y": -4.2227532204,
				"z": 2.0800211336,
				"element": "H" 
			},
			{
				"x": 1.6966179019,
				"y": -0.7350042128,
				"z": 0.9284259446,
				"element": "H" 
			},
			{
				"x": -1.9636805356,
				"y": -2.8119950819,
				"z": 1.8809120037,
				"element": "H" 
			},
			{
				"x": 1.5089816549,
				"y": 1.455553871,
				"z": 0.4569108551,
				"element": "H" 
			},
			{
				"x": 1.5040715057,
				"y": 3.4693081598,
				"z": -0.9658367912,
				"element": "H" 
			},
			{
				"x": -0.4202373881,
				"y": 3.9394397141,
				"z": -2.4720248307,
				"element": "H" 
			},
			{
				"x": -2.3362855755,
				"y": 2.352509224,
				"z": -2.5466834769,
				"element": "H" 
			},
			{
				"x": -2.3094457064,
				"y": 0.2984962223,
				"z": -1.1389778031,
				"element": "H" 
			}
		],
		 "valence_orbital": [ 
			{
				"type": "occ",
				"energy": -0.29741,
				"method": "rhf"
			},
			{
				"type": "occ",
				"energy": -0.29584,
				"method": "rhf"
			},
			{
				"type": "occ",
				"energy": -0.26314,
				"method": "rhf"
			},
			{
				"type": "occ",
				"energy": -0.25797,
				"method": "rhf"
			},
			{
				"type": "occ",
				"energy": -0.23095,
				"method": "rhf"
			},
			{
				"type": "unocc",
				"energy": -0.03042,
				"method": "rhf"
			},
			{
				"type": "unocc",
				"energy": -0.0121,
				"method": "rhf"
			},
			{
				"type": "unocc",
				"energy": 0.02462,
				"method": "rhf"
			},
			{
				"type": "unocc",
				"energy": 0.03062,
				"method": "rhf"
			},
			{
				"type": "unocc",
				"energy": 0.0369,
				"method": "rhf"
			}
		],
		"cosmo_sigma_profile": { 
			"-0.025": 0.0,
			"-0.024": 0.0,
			"-0.023": 0.0,
			"-0.022": 0.0,
			"-0.021": 0.0,
			"-0.02": 0.0,
			"-0.019": 0.0,
			"-0.018": 0.0,
			"-0.017": 0.0,
			"-0.016": 0.0,
			"-0.015": 0.0,
			"-0.014": 0.0,
			"-0.013": 0.0,
			"-0.012": 0.0,
			"-0.011": 0.0,
			"-0.01": 1.07125948293,
			"-0.009": 6.37414333697,
			"-0.008": 8.65770876592,
			"-0.007": 11.1777513536,
			"-0.006": 15.4190798532,
			"-0.005": 16.3115253381,
			"-0.004": 14.6929866386,
			"-0.003": 12.8304898615,
			"-0.002": 13.9993108087,
			"-0.001": 9.88337685475,
			"0.0": 11.4865119903,
			"0.001": 16.2385121008,
			"0.002": 15.1659712623,
			"0.003": 16.7972290196,
			"0.004": 15.8750439733,
			"0.005": 12.0604702285,
			"0.006": 5.29019946941,
			"0.007": 4.73664839825,
			"0.008": 4.02361875889,
			"0.009": 4.66746920035,
			"0.01": 4.18292503159,
			"0.011": 3.84800588123,
			"0.012": 3.48890274369,
			"0.013": 2.60167342752,
			"0.014": 0.18557052293,
			"0.015": 0.0,
			"0.016": 0.0,
			"0.017": 0.0,
			"0.018": 0.0,
			"0.019": 0.0,
			"0.02": 0.0,
			"0.021": 0.0,
			"0.022": 0.0,
			"0.023": 0.0,
			"0.024": 0.0,
			"0.025": 0.0
		}
	}
}
