{
	 "smiles": "OC(=O)C1=CN(N=C1)C1CCCCC1", 
	 "Tm": 471.15, 
	 "num_atms": 28, 
	 "gaussian": { 
		 "optdone": 1, 
		 "sigma_profile": "yes", 
		 "theory": "DFT", 
		 "functional": "B3LYP", 
		 "basiset": "6-31G**", 
		 "properties": { 
			 "R2extent": 4133.1007, 
			 "electric_dipole_moment_norm": 4.60219991309, 
			 "electric_quadrupole_moment_norm": 21.074346899, 
			 "total_energy": -649.455317628, 
			 "HOMO_LUMO_gap": 0.23594, 
			 "cosmo_polarized_energy": -16.16, 
			 "cosmo_cavitation_energy": 29.69, 
			 "cosmo_dispersion_energy": -21.75, 
			 "cosmo_repulsion_energy": 1.72, 
			 "cosmo_total_nonelectrostatic_energy": 9.66, 
			 "SMD_solvation_energy": 4.76 
		},
		"coords": [
			{
				"x": 0.9591857396,
				"y": -4.5975876949,
				"z": 3.3881346679,
				"element": "O" 
			},
			{
				"x": 1.2853390654,
				"y": -3.7088413531,
				"z": 2.4080562482,
				"element": "C" 
			},
			{
				"x": 2.2412276703,
				"y": -3.9226300715,
				"z": 1.6964341977,
				"element": "O" 
			},
			{
				"x": 0.4285331476,
				"y": -2.5161586097,
				"z": 2.2838476244,
				"element": "C" 
			},
			{
				"x": 0.6321410532,
				"y": -1.5194226596,
				"z": 1.3366781576,
				"element": "C" 
			},
			{
				"x": -0.3336511252,
				"y": -0.5911881976,
				"z": 1.5138481282,
				"element": "N" 
			},
			{
				"x": -1.1718967029,
				"y": -0.9217626668,
				"z": 2.5348302797,
				"element": "N" 
			},
			{
				"x": -0.7146864041,
				"y": -2.07859571,
				"z": 2.9985208177,
				"element": "C" 
			},
			{
				"x": -0.603403705,
				"y": 0.6718963922,
				"z": 0.7983642242,
				"element": "C" 
			},
			{
				"x": 0.5314116695,
				"y": 1.7048382834,
				"z": 0.9627343906,
				"element": "C" 
			},
			{
				"x": 1.7313839879,
				"y": 1.4819775538,
				"z": 0.0281551059,
				"element": "C" 
			},
			{
				"x": 1.287996671,
				"y": 1.3472867519,
				"z": -1.4370866337,
				"element": "C" 
			},
			{
				"x": 0.2399609242,
				"y": 0.2367609441,
				"z": -1.610246062,
				"element": "C" 
			},
			{
				"x": -0.9685873082,
				"y": 0.4516983311,
				"z": -0.684848835,
				"element": "C" 
			},
			{
				"x": 0.1793338009,
				"y": -4.2970744259,
				"z": 3.874279412,
				"element": "H" 
			},
			{
				"x": 1.3978187005,
				"y": -1.4513776134,
				"z": 0.582461613,
				"element": "H" 
			},
			{
				"x": -1.2309934661,
				"y": -2.5462813006,
				"z": 3.8287913934,
				"element": "H" 
			},
			{
				"x": -1.4873535055,
				"y": 1.0418900082,
				"z": 1.3217761064,
				"element": "H" 
			},
			{
				"x": 0.0934120556,
				"y": 2.6867969571,
				"z": 0.7396711336,
				"element": "H" 
			},
			{
				"x": 0.8464654398,
				"y": 1.7335823539,
				"z": 2.0112215916,
				"element": "H" 
			},
			{
				"x": 2.4320714848,
				"y": 2.3176379167,
				"z": 0.1373485985,
				"element": "H" 
			},
			{
				"x": 2.2866351209,
				"y": 0.5854444928,
				"z": 0.3316193714,
				"element": "H" 
			},
			{
				"x": 0.8581902334,
				"y": 2.302322595,
				"z": -1.7716121195,
				"element": "H" 
			},
			{
				"x": 2.1547028599,
				"y": 1.1541549701,
				"z": -2.0793105787,
				"element": "H" 
			},
			{
				"x": -0.1054453394,
				"y": 0.1995411936,
				"z": -2.6497239158,
				"element": "H" 
			},
			{
				"x": 0.6989545108,
				"y": -0.7402727557,
				"z": -1.4131979366,
				"element": "H" 
			},
			{
				"x": -1.6798080945,
				"y": -0.3773484266,
				"z": -0.7639992135,
				"element": "H" 
			},
			{
				"x": -1.5015384843,
				"y": 1.3545127415,
				"z": -1.0115477671,
				"element": "H" 
			}
		],
		 "valence_orbital": [ 
			{
				"type": "occ",
				"energy": -0.3087,
				"method": "rhf"
			},
			{
				"type": "occ",
				"energy": -0.30836,
				"method": "rhf"
			},
			{
				"type": "occ",
				"energy": -0.26853,
				"method": "rhf"
			},
			{
				"type": "occ",
				"energy": -0.26347,
				"method": "rhf"
			},
			{
				"type": "occ",
				"energy": -0.2577,
				"method": "rhf"
			},
			{
				"type": "unocc",
				"energy": -0.02176,
				"method": "rhf"
			},
			{
				"type": "unocc",
				"energy": 0.01013,
				"method": "rhf"
			},
			{
				"type": "unocc",
				"energy": 0.0578,
				"method": "rhf"
			},
			{
				"type": "unocc",
				"energy": 0.06494,
				"method": "rhf"
			},
			{
				"type": "unocc",
				"energy": 0.08107,
				"method": "rhf"
			}
		],
		"cosmo_sigma_profile": { 
			"-0.025": 0.0,
			"-0.024": 0.0,
			"-0.023": 0.0,
			"-0.022": 0.0,
			"-0.021": 0.0,
			"-0.02": 0.0,
			"-0.019": 0.0834740071878,
			"-0.018": 1.33173406908,
			"-0.017": 0.841116939964,
			"-0.016": 1.31017213781,
			"-0.015": 1.03671756104,
			"-0.014": 1.17879556222,
			"-0.013": 0.948073302249,
			"-0.012": 1.04128827073,
			"-0.011": 1.2256505269,
			"-0.01": 1.48505774218,
			"-0.009": 1.9067883257,
			"-0.008": 3.38850337447,
			"-0.007": 4.10533214548,
			"-0.006": 3.80277647125,
			"-0.005": 5.12762741587,
			"-0.004": 14.7779555761,
			"-0.003": 23.2842790369,
			"-0.002": 30.325378317,
			"-0.001": 32.0796106427,
			"0.0": 26.2577360622,
			"0.001": 14.7348608889,
			"0.002": 8.38805613202,
			"0.003": 7.15738884912,
			"0.004": 3.35577322875,
			"0.005": 4.31028603539,
			"0.006": 3.33956185693,
			"0.007": 4.76881360324,
			"0.008": 3.23210614489,
			"0.009": 3.67285013469,
			"0.01": 5.31861407366,
			"0.011": 5.57469411033,
			"0.012": 7.60764285569,
			"0.013": 4.14166712267,
			"0.014": 1.47514045162,
			"0.015": 0.305577575087,
			"0.016": 0.0,
			"0.017": 0.0,
			"0.018": 0.0,
			"0.019": 0.0,
			"0.02": 0.0,
			"0.021": 0.0,
			"0.022": 0.0,
			"0.023": 0.0,
			"0.024": 0.0,
			"0.025": 0.0
		}
	}
}
