{
	 "smiles": "NC1=C(C=NN1C1=CC(=CC=C1)C(O)=O)C#N", 
	 "Tm": 560.15, 
	 "num_atms": 25, 
	 "gaussian": { 
		 "optdone": 1, 
		 "sigma_profile": "yes", 
		 "theory": "DFT", 
		 "functional": "B3LYP", 
		 "basiset": "6-31G**", 
		 "properties": { 
			 "R2extent": 6451.0788, 
			 "electric_dipole_moment_norm": 2.8148330288, 
			 "electric_quadrupole_moment_norm": 38.1573707179, 
			 "total_energy": -793.4176483, 
			 "HOMO_LUMO_gap": 0.17372, 
			 "cosmo_polarized_energy": -24.93, 
			 "cosmo_cavitation_energy": 31.65, 
			 "cosmo_dispersion_energy": -22.46, 
			 "cosmo_repulsion_energy": 1.73, 
			 "cosmo_total_nonelectrostatic_energy": 10.92, 
			 "SMD_solvation_energy": 7.48 
		},
		"coords": [
			{
				"x": -0.386123487,
				"y": 1.879564611,
				"z": 1.3455951282,
				"element": "N" 
			},
			{
				"x": -0.0152292199,
				"y": 0.5691348306,
				"z": 1.5420795517,
				"element": "C" 
			},
			{
				"x": 1.1748610757,
				"y": 0.0588584123,
				"z": 2.0720408576,
				"element": "C" 
			},
			{
				"x": 0.9956447578,
				"y": -1.3531151588,
				"z": 2.0604268334,
				"element": "C" 
			},
			{
				"x": -0.1773590462,
				"y": -1.7020062114,
				"z": 1.576695493,
				"element": "N" 
			},
			{
				"x": -0.8088530513,
				"y": -0.5097855594,
				"z": 1.2737023004,
				"element": "N" 
			},
			{
				"x": -2.1093490787,
				"y": -0.5473867337,
				"z": 0.7056209607,
				"element": "C" 
			},
			{
				"x": -2.4368614801,
				"y": -1.6136136689,
				"z": -0.1388758646,
				"element": "C" 
			},
			{
				"x": -3.7126129104,
				"y": -1.6868321079,
				"z": -0.7037846024,
				"element": "C" 
			},
			{
				"x": -4.6494128613,
				"y": -0.6750114127,
				"z": -0.4503240863,
				"element": "C" 
			},
			{
				"x": -4.3215806319,
				"y": 0.3725451276,
				"z": 0.4042415873,
				"element": "C" 
			},
			{
				"x": -3.0585657429,
				"y": 0.4385524907,
				"z": 0.9981497527,
				"element": "C" 
			},
			{
				"x": -4.1207493128,
				"y": -2.8010216548,
				"z": -1.6263479099,
				"element": "C" 
			},
			{
				"x": -3.4205333526,
				"y": -3.9597769933,
				"z": -1.5345053167,
				"element": "O" 
			},
			{
				"x": -5.0246881084,
				"y": -2.695872485,
				"z": -2.4207024753,
				"element": "O" 
			},
			{
				"x": 2.2866216463,
				"y": 0.8329752183,
				"z": 2.4733860326,
				"element": "C" 
			},
			{
				"x": 3.1849098641,
				"y": 1.5066659811,
				"z": 2.7867230456,
				"element": "N" 
			},
			{
				"x": -0.9684363505,
				"y": 2.0589718059,
				"z": 0.5371039867,
				"element": "H" 
			},
			{
				"x": 0.3867687543,
				"y": 2.529085205,
				"z": 1.424006603,
				"element": "H" 
			},
			{
				"x": 1.6964091016,
				"y": -2.1068861249,
				"z": 2.3924009607,
				"element": "H" 
			},
			{
				"x": -1.6675936895,
				"y": -2.3491816579,
				"z": -0.3461626413,
				"element": "H" 
			},
			{
				"x": -5.6225269468,
				"y": -0.7381940204,
				"z": -0.9240572143,
				"element": "H" 
			},
			{
				"x": -5.0549740665,
				"y": 1.1409859099,
				"z": 0.6278557162,
				"element": "H" 
			},
			{
				"x": -2.8203770512,
				"y": 1.2340665096,
				"z": 1.6951459212,
				"element": "H" 
			},
			{
				"x": -2.8473888119,
				"y": -3.9510223128,
				"z": -0.75491462,
				"element": "H" 
			}
		],
		 "valence_orbital": [ 
			{
				"type": "occ",
				"energy": -0.31188,
				"method": "rhf"
			},
			{
				"type": "occ",
				"energy": -0.29256,
				"method": "rhf"
			},
			{
				"type": "occ",
				"energy": -0.28148,
				"method": "rhf"
			},
			{
				"type": "occ",
				"energy": -0.25776,
				"method": "rhf"
			},
			{
				"type": "occ",
				"energy": -0.24184,
				"method": "rhf"
			},
			{
				"type": "unocc",
				"energy": -0.06812,
				"method": "rhf"
			},
			{
				"type": "unocc",
				"energy": -0.05111,
				"method": "rhf"
			},
			{
				"type": "unocc",
				"energy": -0.00853,
				"method": "rhf"
			},
			{
				"type": "unocc",
				"energy": 0.00422,
				"method": "rhf"
			},
			{
				"type": "unocc",
				"energy": 0.01732,
				"method": "rhf"
			}
		],
		"cosmo_sigma_profile": { 
			"-0.025": 0.0,
			"-0.024": 0.0,
			"-0.023": 0.0,
			"-0.022": 0.0,
			"-0.021": 0.0,
			"-0.02": 0.0,
			"-0.019": 0.333882036241,
			"-0.018": 0.878313344675,
			"-0.017": 1.11867840456,
			"-0.016": 0.821884125076,
			"-0.015": 1.85744353905,
			"-0.014": 2.9090792897,
			"-0.013": 3.45485965448,
			"-0.012": 4.46729477554,
			"-0.011": 3.68527820355,
			"-0.01": 3.05438856835,
			"-0.009": 5.21264681009,
			"-0.008": 6.65414751346,
			"-0.007": 10.0637898041,
			"-0.006": 11.2762659371,
			"-0.005": 11.2810644695,
			"-0.004": 11.3080655575,
			"-0.003": 12.4325307635,
			"-0.002": 13.269355651,
			"-0.001": 14.6207010035,
			"0.0": 17.0421625529,
			"0.001": 21.7799363016,
			"0.002": 16.3709256994,
			"0.003": 9.3085500211,
			"0.004": 5.74056099103,
			"0.005": 7.55395274835,
			"0.006": 6.62184771602,
			"0.007": 7.08398048153,
			"0.008": 6.5546650163,
			"0.009": 8.71393317387,
			"0.01": 9.32427203648,
			"0.011": 9.44133828495,
			"0.012": 7.44038159421,
			"0.013": 3.74203609915,
			"0.014": 0.490325476238,
			"0.015": 0.0,
			"0.016": 0.0,
			"0.017": 0.0,
			"0.018": 0.0,
			"0.019": 0.0,
			"0.02": 0.0,
			"0.021": 0.0,
			"0.022": 0.0,
			"0.023": 0.0,
			"0.024": 0.0,
			"0.025": 0.0
		}
	}
}
