{
	 "smiles": "NC(=O)C1=C(NC(=O)CCl)SC(=C1)C1=CC=CC=C1", 
	 "Tm": 482.15, 
	 "num_atms": 30, 
	 "gaussian": { 
		 "optdone": 1, 
		 "sigma_profile": "yes", 
		 "theory": "DFT", 
		 "functional": "B3LYP", 
		 "basiset": "6-31G**", 
		 "properties": { 
			 "R2extent": 7909.0204, 
			 "electric_dipole_moment_norm": 3.89157930152, 
			 "electric_quadrupole_moment_norm": 23.7897696061, 
			 "total_energy": -1620.36167168, 
			 "HOMO_LUMO_gap": 0.16435, 
			 "cosmo_polarized_energy": -21.71, 
			 "cosmo_cavitation_energy": 38.34, 
			 "cosmo_dispersion_energy": -27.57, 
			 "cosmo_repulsion_energy": 2.11, 
			 "cosmo_total_nonelectrostatic_energy": 12.87, 
			 "SMD_solvation_energy": 7.49 
		},
		"coords": [
			{
				"x": -3.8205069733,
				"y": 0.2362294975,
				"z": 1.5517170218,
				"element": "N" 
			},
			{
				"x": -3.1122805661,
				"y": 0.5510789899,
				"z": 0.4247445349,
				"element": "C" 
			},
			{
				"x": -3.5036229337,
				"y": 1.3822985037,
				"z": -0.3858125641,
				"element": "O" 
			},
			{
				"x": -1.7948160553,
				"y": -0.1429384045,
				"z": 0.2264284755,
				"element": "C" 
			},
			{
				"x": -1.1673695817,
				"y": -1.0635732795,
				"z": 1.0418321692,
				"element": "C" 
			},
			{
				"x": -1.5926512351,
				"y": -1.5892443923,
				"z": 2.2822067705,
				"element": "N" 
			},
			{
				"x": -1.2849338344,
				"y": -1.0766905556,
				"z": 3.5511230414,
				"element": "C" 
			},
			{
				"x": -1.4738076468,
				"y": -1.7424219014,
				"z": 4.5447091768,
				"element": "O" 
			},
			{
				"x": -0.7744361186,
				"y": 0.3645924003,
				"z": 3.5381204088,
				"element": "C" 
			},
			{
				"x": -0.3824963154,
				"y": 0.9564550789,
				"z": 5.1778492907,
				"element": "Cl" 
			},
			{
				"x": 0.3553520299,
				"y": -1.5890438311,
				"z": 0.3479652071,
				"element": "S" 
			},
			{
				"x": 0.1307352985,
				"y": -0.5707109124,
				"z": -1.0625081776,
				"element": "C" 
			},
			{
				"x": -1.0443662908,
				"y": 0.1297333413,
				"z": -0.9565302979,
				"element": "C" 
			},
			{
				"x": 1.1207283103,
				"y": -0.5363067207,
				"z": -2.1479410029,
				"element": "C" 
			},
			{
				"x": 1.246566898,
				"y": 0.6153776405,
				"z": -2.9463442658,
				"element": "C" 
			},
			{
				"x": 2.1682303502,
				"y": 0.6583182534,
				"z": -3.9894196415,
				"element": "C" 
			},
			{
				"x": 2.9914634815,
				"y": -0.4397931648,
				"z": -4.2494584637,
				"element": "C" 
			},
			{
				"x": 2.8823257726,
				"y": -1.5847328639,
				"z": -3.4582124723,
				"element": "C" 
			},
			{
				"x": 1.9544179578,
				"y": -1.6350756381,
				"z": -2.4200316931,
				"element": "C" 
			},
			{
				"x": -4.7513551441,
				"y": 0.6220417476,
				"z": 1.6143768806,
				"element": "H" 
			},
			{
				"x": -3.593060917,
				"y": -0.5855344536,
				"z": 2.0917424514,
				"element": "H" 
			},
			{
				"x": -1.8028301394,
				"y": -2.5823297461,
				"z": 2.3261925007,
				"element": "H" 
			},
			{
				"x": 0.1236214876,
				"y": 0.4446872146,
				"z": 2.9224385211,
				"element": "H" 
			},
			{
				"x": -1.5401303957,
				"y": 1.016851111,
				"z": 3.1124784464,
				"element": "H" 
			},
			{
				"x": -1.4183881621,
				"y": 0.8117165912,
				"z": -1.7090088826,
				"element": "H" 
			},
			{
				"x": 0.6317001915,
				"y": 1.4841040162,
				"z": -2.7335305905,
				"element": "H" 
			},
			{
				"x": 2.2514770555,
				"y": 1.556938399,
				"z": -4.5936564396,
				"element": "H" 
			},
			{
				"x": 3.7133758089,
				"y": -0.4020420074,
				"z": -5.0597060384,
				"element": "H" 
			},
			{
				"x": 3.5150972334,
				"y": -2.4454115327,
				"z": -3.6538974385,
				"element": "H" 
			},
			{
				"x": 1.8620604338,
				"y": -2.541573381,
				"z": -1.8282669282,
				"element": "H" 
			}
		],
		 "valence_orbital": [ 
			{
				"type": "occ",
				"energy": -0.27999,
				"method": "rhf"
			},
			{
				"type": "occ",
				"energy": -0.27364,
				"method": "rhf"
			},
			{
				"type": "occ",
				"energy": -0.2652,
				"method": "rhf"
			},
			{
				"type": "occ",
				"energy": -0.26427,
				"method": "rhf"
			},
			{
				"type": "occ",
				"energy": -0.23142,
				"method": "rhf"
			},
			{
				"type": "unocc",
				"energy": -0.06707,
				"method": "rhf"
			},
			{
				"type": "unocc",
				"energy": -0.03014,
				"method": "rhf"
			},
			{
				"type": "unocc",
				"energy": -0.02012,
				"method": "rhf"
			},
			{
				"type": "unocc",
				"energy": -0.01075,
				"method": "rhf"
			},
			{
				"type": "unocc",
				"energy": 0.00527,
				"method": "rhf"
			}
		],
		"cosmo_sigma_profile": { 
			"-0.025": 0.0,
			"-0.024": 0.0,
			"-0.023": 0.0,
			"-0.022": 0.0,
			"-0.021": 0.0,
			"-0.02": 0.0,
			"-0.019": 0.0,
			"-0.018": 0.0,
			"-0.017": 0.0,
			"-0.016": 0.578909437919,
			"-0.015": 1.06756394842,
			"-0.014": 2.15329696332,
			"-0.013": 1.82200817832,
			"-0.012": 3.05090553461,
			"-0.011": 3.07803570643,
			"-0.01": 3.99991707718,
			"-0.009": 4.67925563142,
			"-0.008": 7.46870632488,
			"-0.007": 9.43499185995,
			"-0.006": 18.4256606134,
			"-0.005": 20.2272957401,
			"-0.004": 18.5821770574,
			"-0.003": 15.6512482143,
			"-0.002": 16.6242818503,
			"-0.001": 15.8228668332,
			"0.0": 19.2810273839,
			"0.001": 23.2944094745,
			"0.002": 24.6694333145,
			"0.003": 20.5889463489,
			"0.004": 18.2628199331,
			"0.005": 19.1067672383,
			"0.006": 7.10590055354,
			"0.007": 3.55161515421,
			"0.008": 3.02048517098,
			"0.009": 3.41944444925,
			"0.01": 4.44142208596,
			"0.011": 6.20229585241,
			"0.012": 6.36550858103,
			"0.013": 6.77654728126,
			"0.014": 2.2520266112,
			"0.015": 0.101423667938,
			"0.016": 0.0,
			"0.017": 0.0,
			"0.018": 0.0,
			"0.019": 0.0,
			"0.02": 0.0,
			"0.021": 0.0,
			"0.022": 0.0,
			"0.023": 0.0,
			"0.024": 0.0,
			"0.025": 0.0
		}
	}
}
