{
	 "smiles": "CC1=C(N)C=CC(=C1)C1=NN=C2C=CC=CN12", 
	 "Tm": 454.15, 
	 "num_atms": 29, 
	 "gaussian": { 
		 "optdone": 1, 
		 "sigma_profile": "yes", 
		 "theory": "DFT", 
		 "functional": "B3LYP", 
		 "basiset": "6-31G**", 
		 "properties": { 
			 "R2extent": 6065.5411, 
			 "electric_dipole_moment_norm": 5.88831170116, 
			 "electric_quadrupole_moment_norm": 38.9573365753, 
			 "total_energy": -721.608243768, 
			 "HOMO_LUMO_gap": 0.15062, 
			 "cosmo_polarized_energy": -21.17, 
			 "cosmo_cavitation_energy": 32.74, 
			 "cosmo_dispersion_energy": -24.09, 
			 "cosmo_repulsion_energy": 1.83, 
			 "cosmo_total_nonelectrostatic_energy": 10.48, 
			 "SMD_solvation_energy": 3.49 
		},
		"coords": [
			{
				"x": 1.6379434616,
				"y": 0.6503514824,
				"z": -1.7790999618,
				"element": "C" 
			},
			{
				"x": 0.401234303,
				"y": 1.3171536958,
				"z": -1.229358792,
				"element": "C" 
			},
			{
				"x": 0.2393695349,
				"y": 2.7176956986,
				"z": -1.340645344,
				"element": "C" 
			},
			{
				"x": 1.2467782283,
				"y": 3.5022037652,
				"z": -1.9000510075,
				"element": "N" 
			},
			{
				"x": -0.9271760787,
				"y": 3.3153486608,
				"z": -0.832577319,
				"element": "C" 
			},
			{
				"x": -1.9091247231,
				"y": 2.5569007651,
				"z": -0.2127850296,
				"element": "C" 
			},
			{
				"x": -1.7618545765,
				"y": 1.1663894787,
				"z": -0.0818556206,
				"element": "C" 
			},
			{
				"x": -0.6034768477,
				"y": 0.5729794772,
				"z": -0.6107936875,
				"element": "C" 
			},
			{
				"x": -2.8391228592,
				"y": 0.3960823335,
				"z": 0.5428898095,
				"element": "C" 
			},
			{
				"x": -4.1317550353,
				"y": 0.6783607638,
				"z": 0.4415841602,
				"element": "N" 
			},
			{
				"x": -4.8588015172,
				"y": -0.2277960046,
				"z": 1.1502730779,
				"element": "N" 
			},
			{
				"x": -3.9996873066,
				"y": -1.078055904,
				"z": 1.6964145551,
				"element": "C" 
			},
			{
				"x": -4.2044366659,
				"y": -2.205858461,
				"z": 2.5318921656,
				"element": "C" 
			},
			{
				"x": -3.1170314463,
				"y": -2.8929811294,
				"z": 3.0014968271,
				"element": "C" 
			},
			{
				"x": -1.79295878,
				"y": -2.4681921822,
				"z": 2.6639348482,
				"element": "C" 
			},
			{
				"x": -1.5932856117,
				"y": -1.3933266778,
				"z": 1.8502943334,
				"element": "C" 
			},
			{
				"x": -2.6891478274,
				"y": -0.7224936936,
				"z": 1.3461674168,
				"element": "N" 
			},
			{
				"x": 2.5503412625,
				"y": 1.0622624025,
				"z": -1.3297251513,
				"element": "H" 
			},
			{
				"x": 1.7280620844,
				"y": 0.7809427937,
				"z": -2.8670160033,
				"element": "H" 
			},
			{
				"x": 1.6251278826,
				"y": -0.4252558503,
				"z": -1.5859940546,
				"element": "H" 
			},
			{
				"x": 1.8297735593,
				"y": 3.050446512,
				"z": -2.5901670604,
				"element": "H" 
			},
			{
				"x": 0.9584405232,
				"y": 4.4257807916,
				"z": -2.1918388403,
				"element": "H" 
			},
			{
				"x": -1.054193869,
				"y": 4.3915830641,
				"z": -0.9229953866,
				"element": "H" 
			},
			{
				"x": -2.8077091588,
				"y": 3.0280448942,
				"z": 0.1704843852,
				"element": "H" 
			},
			{
				"x": -0.487492279,
				"y": -0.5070213747,
				"z": -0.5783030197,
				"element": "H" 
			},
			{
				"x": -5.2234078183,
				"y": -2.4801396442,
				"z": 2.7785786011,
				"element": "H" 
			},
			{
				"x": -3.2506210922,
				"y": -3.7575982402,
				"z": 3.6432086576,
				"element": "H" 
			},
			{
				"x": -0.9308936929,
				"y": -2.9926970691,
				"z": 3.059983705,
				"element": "H" 
			},
			{
				"x": -0.6203936543,
				"y": -1.008110348,
				"z": 1.5783037356,
				"element": "H" 
			}
		],
		 "valence_orbital": [ 
			{
				"type": "occ",
				"energy": -0.26492,
				"method": "rhf"
			},
			{
				"type": "occ",
				"energy": -0.24835,
				"method": "rhf"
			},
			{
				"type": "occ",
				"energy": -0.23999,
				"method": "rhf"
			},
			{
				"type": "occ",
				"energy": -0.22965,
				"method": "rhf"
			},
			{
				"type": "occ",
				"energy": -0.1924,
				"method": "rhf"
			},
			{
				"type": "unocc",
				"energy": -0.04178,
				"method": "rhf"
			},
			{
				"type": "unocc",
				"energy": -0.0182,
				"method": "rhf"
			},
			{
				"type": "unocc",
				"energy": -0.0019,
				"method": "rhf"
			},
			{
				"type": "unocc",
				"energy": 0.01852,
				"method": "rhf"
			},
			{
				"type": "unocc",
				"energy": 0.06574,
				"method": "rhf"
			}
		],
		"cosmo_sigma_profile": { 
			"-0.025": 0.0,
			"-0.024": 0.0,
			"-0.023": 0.0,
			"-0.022": 0.0,
			"-0.021": 0.0,
			"-0.02": 0.0,
			"-0.019": 0.0,
			"-0.018": 0.0,
			"-0.017": 0.0,
			"-0.016": 0.0,
			"-0.015": 0.0,
			"-0.014": 0.0,
			"-0.013": 0.643384991194,
			"-0.012": 2.12168493525,
			"-0.011": 2.22162408135,
			"-0.01": 2.92051358295,
			"-0.009": 4.19578854754,
			"-0.008": 6.79132441609,
			"-0.007": 13.2400932444,
			"-0.006": 14.5122981308,
			"-0.005": 16.7146338732,
			"-0.004": 17.0169205175,
			"-0.003": 15.3030233987,
			"-0.002": 19.3163825648,
			"-0.001": 18.7630771168,
			"0.0": 18.6463122203,
			"0.001": 18.4465811217,
			"0.002": 17.4489116272,
			"0.003": 12.4660782672,
			"0.004": 9.61799566828,
			"0.005": 12.2522948432,
			"0.006": 8.23032941068,
			"0.007": 2.34652816548,
			"0.008": 3.17031968308,
			"0.009": 3.30178343704,
			"0.01": 2.85956246037,
			"0.011": 2.43729660641,
			"0.012": 2.87682472511,
			"0.013": 3.22511307811,
			"0.014": 4.03794306722,
			"0.015": 3.04028862794,
			"0.016": 2.28574690585,
			"0.017": 1.53109706112,
			"0.018": 0.131623123121,
			"0.019": 0.0,
			"0.02": 0.0,
			"0.021": 0.0,
			"0.022": 0.0,
			"0.023": 0.0,
			"0.024": 0.0,
			"0.025": 0.0
		}
	}
}
