{
	 "smiles": "COC(=O)C1=C(N)C=CC(=C1)C1=CC(=CC=C1)C(F)(F)F", 
	 "Tm": 346.15, 
	 "num_atms": 33, 
	 "gaussian": { 
		 "optdone": 1, 
		 "sigma_profile": "yes", 
		 "theory": "DFT", 
		 "functional": "B3LYP", 
		 "basiset": "6-31G**", 
		 "properties": { 
			 "R2extent": 9025.5577, 
			 "electric_dipole_moment_norm": 2.94844631967, 
			 "electric_quadrupole_moment_norm": 16.7675007294, 
			 "total_energy": -1083.58860557, 
			 "HOMO_LUMO_gap": 0.1573, 
			 "cosmo_polarized_energy": -10.67, 
			 "cosmo_cavitation_energy": 38.97, 
			 "cosmo_dispersion_energy": -27.74, 
			 "cosmo_repulsion_energy": 2.05, 
			 "cosmo_total_nonelectrostatic_energy": 13.28, 
			 "SMD_solvation_energy": 8.86 
		},
		"coords": [
			{
				"x": -0.9087360115,
				"y": 1.181714947,
				"z": 5.6467717017,
				"element": "C" 
			},
			{
				"x": -0.7736958972,
				"y": 0.895137143,
				"z": 4.2473199716,
				"element": "O" 
			},
			{
				"x": -1.8640302013,
				"y": 0.3550852963,
				"z": 3.6561770291,
				"element": "C" 
			},
			{
				"x": -2.8927399306,
				"y": 0.1380197909,
				"z": 4.2904015437,
				"element": "O" 
			},
			{
				"x": -1.6682358737,
				"y": 0.0710203748,
				"z": 2.2225417136,
				"element": "C" 
			},
			{
				"x": -2.7315032448,
				"y": -0.4919885619,
				"z": 1.4549825096,
				"element": "C" 
			},
			{
				"x": -3.9616723182,
				"y": -0.7325920056,
				"z": 1.9847415703,
				"element": "N" 
			},
			{
				"x": -2.4753494297,
				"y": -0.7768468468,
				"z": 0.0922329304,
				"element": "C" 
			},
			{
				"x": -1.2460422888,
				"y": -0.5158909467,
				"z": -0.4793552015,
				"element": "C" 
			},
			{
				"x": -0.1856972782,
				"y": 0.0485609402,
				"z": 0.2644020698,
				"element": "C" 
			},
			{
				"x": -0.4302933644,
				"y": 0.326983488,
				"z": 1.6081530528,
				"element": "C" 
			},
			{
				"x": 1.131292368,
				"y": 0.3262590907,
				"z": -0.3565994214,
				"element": "C" 
			},
			{
				"x": 1.6587470463,
				"y": -0.5249026495,
				"z": -1.3412130012,
				"element": "C" 
			},
			{
				"x": 2.8949236872,
				"y": -0.2591034901,
				"z": -1.9305364107,
				"element": "C" 
			},
			{
				"x": 3.6407420745,
				"y": 0.8582222974,
				"z": -1.546564437,
				"element": "C" 
			},
			{
				"x": 3.1295294908,
				"y": 1.7087389019,
				"z": -0.5674116779,
				"element": "C" 
			},
			{
				"x": 1.8910201771,
				"y": 1.4495345293,
				"z": 0.0166267806,
				"element": "C" 
			},
			{
				"x": 3.4623450853,
				"y": -1.2249710654,
				"z": -2.9353701786,
				"element": "C" 
			},
			{
				"x": 2.4926203299,
				"y": -1.8681246723,
				"z": -3.624718709,
				"element": "F" 
			},
			{
				"x": 4.2172937916,
				"y": -2.1796894411,
				"z": -2.3416580442,
				"element": "F" 
			},
			{
				"x": 4.2567898712,
				"y": -0.6051587061,
				"z": -3.8370710649,
				"element": "F" 
			},
			{
				"x": -1.1210492532,
				"y": 0.2694671649,
				"z": 6.2099313708,
				"element": "H" 
			},
			{
				"x": -1.716940171,
				"y": 1.8969196215,
				"z": 5.819093146,
				"element": "H" 
			},
			{
				"x": 0.0483824865,
				"y": 1.6049743306,
				"z": 5.9516135543,
				"element": "H" 
			},
			{
				"x": -4.6349367761,
				"y": -1.259029798,
				"z": 1.4538114306,
				"element": "H" 
			},
			{
				"x": -4.0792170209,
				"y": -0.6066651453,
				"z": 2.9822041895,
				"element": "H" 
			},
			{
				"x": -3.2760254949,
				"y": -1.1958621686,
				"z": -0.5117613625,
				"element": "H" 
			},
			{
				"x": -1.104249232,
				"y": -0.7286917175,
				"z": -1.5351601475,
				"element": "H" 
			},
			{
				"x": 0.3624318729,
				"y": 0.7311321863,
				"z": 2.2262324416,
				"element": "H" 
			},
			{
				"x": 1.1095452377,
				"y": -1.4105764568,
				"z": -1.641278443,
				"element": "H" 
			},
			{
				"x": 4.59767946,
				"y": 1.0604878247,
				"z": -2.0147872077,
				"element": "H" 
			},
			{
				"x": 3.6923541715,
				"y": 2.5881826565,
				"z": -0.2688295837,
				"element": "H" 
			},
			{
				"x": 1.4923166358,
				"y": 2.1398530877,
				"z": 0.7537778851,
				"element": "H" 
			}
		],
		 "valence_orbital": [ 
			{
				"type": "occ",
				"energy": -0.27884,
				"method": "rhf"
			},
			{
				"type": "occ",
				"energy": -0.26396,
				"method": "rhf"
			},
			{
				"type": "occ",
				"energy": -0.26291,
				"method": "rhf"
			},
			{
				"type": "occ",
				"energy": -0.26119,
				"method": "rhf"
			},
			{
				"type": "occ",
				"energy": -0.20172,
				"method": "rhf"
			},
			{
				"type": "unocc",
				"energy": -0.04442,
				"method": "rhf"
			},
			{
				"type": "unocc",
				"energy": -0.03055,
				"method": "rhf"
			},
			{
				"type": "unocc",
				"energy": -0.01941,
				"method": "rhf"
			},
			{
				"type": "unocc",
				"energy": 0.02199,
				"method": "rhf"
			},
			{
				"type": "unocc",
				"energy": 0.05852,
				"method": "rhf"
			}
		],
		"cosmo_sigma_profile": { 
			"-0.025": 0.0,
			"-0.024": 0.0,
			"-0.023": 0.0,
			"-0.022": 0.0,
			"-0.021": 0.0,
			"-0.02": 0.0,
			"-0.019": 0.0,
			"-0.018": 0.0,
			"-0.017": 0.0,
			"-0.016": 0.0,
			"-0.015": 0.0,
			"-0.014": 0.390719100968,
			"-0.013": 1.42249050247,
			"-0.012": 1.36681943438,
			"-0.011": 1.55433407953,
			"-0.01": 1.49296263422,
			"-0.009": 1.51679600991,
			"-0.008": 2.38321663639,
			"-0.007": 6.18800998373,
			"-0.006": 16.442773789,
			"-0.005": 20.3472216085,
			"-0.004": 20.8958474184,
			"-0.003": 19.2749208862,
			"-0.002": 17.9509906579,
			"-0.001": 16.6287886056,
			"0.0": 18.0580531632,
			"0.001": 23.8895597582,
			"0.002": 36.9630003187,
			"0.003": 56.1404170201,
			"0.004": 25.9848000443,
			"0.005": 8.3081703725,
			"0.006": 3.46989132986,
			"0.007": 2.65301325398,
			"0.008": 2.07478745366,
			"0.009": 1.72140911336,
			"0.01": 1.67069118298,
			"0.011": 1.93782005872,
			"0.012": 1.36666608991,
			"0.013": 0.0642450882817,
			"0.014": 0.0,
			"0.015": 0.0,
			"0.016": 0.0,
			"0.017": 0.0,
			"0.018": 0.0,
			"0.019": 0.0,
			"0.02": 0.0,
			"0.021": 0.0,
			"0.022": 0.0,
			"0.023": 0.0,
			"0.024": 0.0,
			"0.025": 0.0
		}
	}
}
