{
	 "smiles": "OC(=O)C1=NC(=CC=C1)N1CCCC1", 
	 "Tm": 408.15, 
	 "num_atms": 26, 
	 "gaussian": { 
		 "optdone": 1, 
		 "sigma_profile": "yes", 
		 "theory": "DFT", 
		 "functional": "B3LYP", 
		 "basiset": "6-31G**", 
		 "properties": { 
			 "R2extent": 3872.8615, 
			 "electric_dipole_moment_norm": 3.30795970199, 
			 "electric_quadrupole_moment_norm": 11.6106150104, 
			 "total_energy": -648.26633747, 
			 "HOMO_LUMO_gap": 0.15485, 
			 "cosmo_polarized_energy": -14.26, 
			 "cosmo_cavitation_energy": 29.14, 
			 "cosmo_dispersion_energy": -21.61, 
			 "cosmo_repulsion_energy": 1.71, 
			 "cosmo_total_nonelectrostatic_energy": 9.25, 
			 "SMD_solvation_energy": 4.19 
		},
		"coords": [
			{
				"x": 2.1346550996,
				"y": -2.5756961056,
				"z": -3.9871809503,
				"element": "O" 
			},
			{
				"x": 1.9814127281,
				"y": -2.3595855279,
				"z": -2.6518774726,
				"element": "C" 
			},
			{
				"x": 2.3570775147,
				"y": -3.1578384206,
				"z": -1.823827263,
				"element": "O" 
			},
			{
				"x": 1.3071931792,
				"y": -1.0470110593,
				"z": -2.364960144,
				"element": "C" 
			},
			{
				"x": 1.1483116581,
				"y": -0.7731288529,
				"z": -1.0646076581,
				"element": "N" 
			},
			{
				"x": 0.5476029146,
				"y": 0.379297023,
				"z": -0.7209464151,
				"element": "C" 
			},
			{
				"x": 0.0795507846,
				"y": 1.2997710007,
				"z": -1.6986136744,
				"element": "C" 
			},
			{
				"x": 0.2637449982,
				"y": 0.9911756831,
				"z": -3.0348042201,
				"element": "C" 
			},
			{
				"x": 0.8923024843,
				"y": -0.2060065957,
				"z": -3.3983017131,
				"element": "C" 
			},
			{
				"x": 0.4073553679,
				"y": 0.6164292652,
				"z": 0.6166304791,
				"element": "N" 
			},
			{
				"x": 0.8264701716,
				"y": -0.3524820049,
				"z": 1.6363952141,
				"element": "C" 
			},
			{
				"x": 0.1618669991,
				"y": 0.179544322,
				"z": 2.9137294208,
				"element": "C" 
			},
			{
				"x": 0.122558131,
				"y": 1.7004235777,
				"z": 2.687817356,
				"element": "C" 
			},
			{
				"x": -0.1753428937,
				"y": 1.8293688164,
				"z": 1.1844392854,
				"element": "C" 
			},
			{
				"x": 2.5724630191,
				"y": -3.4393860654,
				"z": -4.0589623284,
				"element": "H" 
			},
			{
				"x": -0.4165960437,
				"y": 2.2178317662,
				"z": -1.4066539293,
				"element": "H" 
			},
			{
				"x": -0.0849853654,
				"y": 1.6789581284,
				"z": -3.8001933645,
				"element": "H" 
			},
			{
				"x": 1.0513055278,
				"y": -0.4776472219,
				"z": -4.4332538921,
				"element": "H" 
			},
			{
				"x": 1.9217335445,
				"y": -0.3757178999,
				"z": 1.7233154007,
				"element": "H" 
			},
			{
				"x": 0.5081080858,
				"y": -1.3607599831,
				"z": 1.3608541856,
				"element": "H" 
			},
			{
				"x": 0.7061407014,
				"y": -0.1060402737,
				"z": 3.817793631,
				"element": "H" 
			},
			{
				"x": -0.857324055,
				"y": -0.2149611502,
				"z": 2.9979406109,
				"element": "H" 
			},
			{
				"x": 1.1022035402,
				"y": 2.1384807729,
				"z": 2.9095064146,
				"element": "H" 
			},
			{
				"x": -0.6201323164,
				"y": 2.2143291607,
				"z": 3.3039101727,
				"element": "H" 
			},
			{
				"x": 0.2750315552,
				"y": 2.7312056195,
				"z": 0.7506437496,
				"element": "H" 
			},
			{
				"x": -1.2591073311,
				"y": 1.8784460253,
				"z": 0.9928071046,
				"element": "H" 
			}
		],
		 "valence_orbital": [ 
			{
				"type": "occ",
				"energy": -0.29325,
				"method": "rhf"
			},
			{
				"type": "occ",
				"energy": -0.27591,
				"method": "rhf"
			},
			{
				"type": "occ",
				"energy": -0.2647,
				"method": "rhf"
			},
			{
				"type": "occ",
				"energy": -0.25346,
				"method": "rhf"
			},
			{
				"type": "occ",
				"energy": -0.19888,
				"method": "rhf"
			},
			{
				"type": "unocc",
				"energy": -0.04403,
				"method": "rhf"
			},
			{
				"type": "unocc",
				"energy": 0.00206,
				"method": "rhf"
			},
			{
				"type": "unocc",
				"energy": 0.06831,
				"method": "rhf"
			},
			{
				"type": "unocc",
				"energy": 0.08077,
				"method": "rhf"
			},
			{
				"type": "unocc",
				"energy": 0.08711,
				"method": "rhf"
			}
		],
		"cosmo_sigma_profile": { 
			"-0.025": 0.0,
			"-0.024": 0.0,
			"-0.023": 0.0,
			"-0.022": 0.0,
			"-0.021": 0.0,
			"-0.02": 0.0,
			"-0.019": 0.0,
			"-0.018": 0.783899248244,
			"-0.017": 0.979393512792,
			"-0.016": 0.412343727425,
			"-0.015": 0.908239428339,
			"-0.014": 1.27315540417,
			"-0.013": 0.133021925685,
			"-0.012": 0.417169969456,
			"-0.011": 1.03352238509,
			"-0.01": 0.818715600434,
			"-0.009": 0.554372305175,
			"-0.008": 0.587858889671,
			"-0.007": 3.20662348251,
			"-0.006": 6.55154167505,
			"-0.005": 8.9843093293,
			"-0.004": 17.9492390822,
			"-0.003": 29.2308244887,
			"-0.002": 30.3127030972,
			"-0.001": 21.3871801419,
			"0.0": 19.2268801156,
			"0.001": 10.9190195532,
			"0.002": 17.416900059,
			"0.003": 14.8883495873,
			"0.004": 7.71403574179,
			"0.005": 3.30267921535,
			"0.006": 4.18745512432,
			"0.007": 4.55614209066,
			"0.008": 2.42036089422,
			"0.009": 2.6519089311,
			"0.01": 2.34758093744,
			"0.011": 3.75695766891,
			"0.012": 5.19494598122,
			"0.013": 1.92778186768,
			"0.014": 0.878958387048,
			"0.015": 1.26029002483,
			"0.016": 1.10783354934,
			"0.017": 0.792280628056,
			"0.018": 0.166575184777,
			"0.019": 0.0,
			"0.02": 0.0,
			"0.021": 0.0,
			"0.022": 0.0,
			"0.023": 0.0,
			"0.024": 0.0,
			"0.025": 0.0
		}
	}
}
