{
	 "smiles": "ClC1=CNC2=C1C=CC=C2", 
	 "Tm": 353.15, 
	 "num_atms": 16, 
	 "gaussian": { 
		 "optdone": 1, 
		 "sigma_profile": "yes", 
		 "theory": "DFT", 
		 "functional": "B3LYP", 
		 "basiset": "6-31G**", 
		 "properties": { 
			 "R2extent": 2015.499, 
			 "electric_dipole_moment_norm": 3.21176268893, 
			 "electric_quadrupole_moment_norm": 9.12373285613, 
			 "total_energy": -823.410631519, 
			 "HOMO_LUMO_gap": 0.18927, 
			 "cosmo_polarized_energy": -9.04, 
			 "cosmo_cavitation_energy": 21.69, 
			 "cosmo_dispersion_energy": -16.56, 
			 "cosmo_repulsion_energy": 1.33, 
			 "cosmo_total_nonelectrostatic_energy": 6.46, 
			 "SMD_solvation_energy": 3.37 
		},
		"coords": [
			{
				"x": -0.7994083617,
				"y": -2.8229113322,
				"z": -2.5874045516,
				"element": "Cl" 
			},
			{
				"x": -0.452338369,
				"y": -1.3135750342,
				"z": -1.7988727713,
				"element": "C" 
			},
			{
				"x": -0.771161995,
				"y": -0.0700497288,
				"z": -2.2763691596,
				"element": "C" 
			},
			{
				"x": -0.3312957859,
				"y": 0.8744110801,
				"z": -1.3678089359,
				"element": "N" 
			},
			{
				"x": 0.2736827075,
				"y": 0.2420442682,
				"z": -0.2994727421,
				"element": "C" 
			},
			{
				"x": 0.2158118609,
				"y": -1.1591747176,
				"z": -0.5389895269,
				"element": "C" 
			},
			{
				"x": 0.7656468877,
				"y": -2.043856536,
				"z": 0.4028093612,
				"element": "C" 
			},
			{
				"x": 1.3524966665,
				"y": -1.51936086,
				"z": 1.5460672143,
				"element": "C" 
			},
			{
				"x": 1.401749947,
				"y": -0.1265781162,
				"z": 1.7687730174,
				"element": "C" 
			},
			{
				"x": 0.8654695059,
				"y": 0.7706374347,
				"z": 0.853356249,
				"element": "C" 
			},
			{
				"x": -1.2747661251,
				"y": 0.2112472206,
				"z": -3.1886041549,
				"element": "H" 
			},
			{
				"x": -0.4382958877,
				"y": 1.8698097939,
				"z": -1.4737230032,
				"element": "H" 
			},
			{
				"x": 0.7282516974,
				"y": -3.1153389348,
				"z": 0.2324152442,
				"element": "H" 
			},
			{
				"x": 1.7824379538,
				"y": -2.1893875897,
				"z": 2.2845793874,
				"element": "H" 
			},
			{
				"x": 1.8680424211,
				"y": 0.251785172,
				"z": 2.673544208,
				"element": "H" 
			},
			{
				"x": 0.9041768767,
				"y": 1.8424978799,
				"z": 1.0262001641,
				"element": "H" 
			}
		],
		 "valence_orbital": [ 
			{
				"type": "occ",
				"energy": -0.33592,
				"method": "rhf"
			},
			{
				"type": "occ",
				"energy": -0.30553,
				"method": "rhf"
			},
			{
				"type": "occ",
				"energy": -0.26874,
				"method": "rhf"
			},
			{
				"type": "occ",
				"energy": -0.22761,
				"method": "rhf"
			},
			{
				"type": "occ",
				"energy": -0.20493,
				"method": "rhf"
			},
			{
				"type": "unocc",
				"energy": -0.01566,
				"method": "rhf"
			},
			{
				"type": "unocc",
				"energy": 0.02283,
				"method": "rhf"
			},
			{
				"type": "unocc",
				"energy": 0.04285,
				"method": "rhf"
			},
			{
				"type": "unocc",
				"energy": 0.06276,
				"method": "rhf"
			},
			{
				"type": "unocc",
				"energy": 0.08499,
				"method": "rhf"
			}
		],
		"cosmo_sigma_profile": { 
			"-0.025": 0.0,
			"-0.024": 0.0,
			"-0.023": 0.0,
			"-0.022": 0.0,
			"-0.021": 0.0,
			"-0.02": 0.0,
			"-0.019": 0.0,
			"-0.018": 0.0,
			"-0.017": 0.162639575813,
			"-0.016": 1.4401514794,
			"-0.015": 1.41410351063,
			"-0.014": 0.639604399352,
			"-0.013": 1.87473907719,
			"-0.012": 1.2513130564,
			"-0.011": 1.12871401066,
			"-0.01": 1.38059166024,
			"-0.009": 3.35751010684,
			"-0.008": 3.64180980554,
			"-0.007": 2.91928394221,
			"-0.006": 4.64529756001,
			"-0.005": 8.33667475753,
			"-0.004": 9.32316301233,
			"-0.003": 10.4539569926,
			"-0.002": 8.81707602888,
			"-0.001": 8.62340684992,
			"0.0": 10.2439693474,
			"0.001": 9.91757426273,
			"0.002": 12.1365057648,
			"0.003": 17.5513421961,
			"0.004": 24.8695455775,
			"0.005": 19.9093326071,
			"0.006": 10.1525698854,
			"0.007": 2.47226485346,
			"0.008": 0.0,
			"0.009": 0.0,
			"0.01": 0.0,
			"0.011": 0.0,
			"0.012": 0.0,
			"0.013": 0.0,
			"0.014": 0.0,
			"0.015": 0.0,
			"0.016": 0.0,
			"0.017": 0.0,
			"0.018": 0.0,
			"0.019": 0.0,
			"0.02": 0.0,
			"0.021": 0.0,
			"0.022": 0.0,
			"0.023": 0.0,
			"0.024": 0.0,
			"0.025": 0.0
		}
	}
}
