{
	 "smiles": "COC1=CC=C(C=C1)C(=O)N(NC(=O)C1=CC=CC=C1)C(C)(C)C", 
	 "Tm": 495.15, 
	 "num_atms": 46, 
	 "gaussian": { 
		 "optdone": 1, 
		 "sigma_profile": "yes", 
		 "theory": "DFT", 
		 "functional": "B3LYP", 
		 "basiset": "6-31G**", 
		 "properties": { 
			 "R2extent": 10189.4827, 
			 "electric_dipole_moment_norm": 1.17461111011, 
			 "electric_quadrupole_moment_norm": 28.6744283265, 
			 "total_energy": -1072.44098557, 
			 "HOMO_LUMO_gap": 0.18336, 
			 "cosmo_polarized_energy": -17.88, 
			 "cosmo_cavitation_energy": 47.52, 
			 "cosmo_dispersion_energy": -31.29, 
			 "cosmo_repulsion_energy": 2.36, 
			 "cosmo_total_nonelectrostatic_energy": 18.6, 
			 "SMD_solvation_energy": 10.39 
		},
		"coords": [
			{
				"x": 3.9148357878,
				"y": -3.4555727556,
				"z": 5.5951353606,
				"element": "C" 
			},
			{
				"x": 3.4393981597,
				"y": -3.9566947352,
				"z": 4.3538393735,
				"element": "O" 
			},
			{
				"x": 2.3840866301,
				"y": -3.3331765133,
				"z": 3.7645473305,
				"element": "C" 
			},
			{
				"x": 1.9599110399,
				"y": -3.8741345264,
				"z": 2.5401267912,
				"element": "C" 
			},
			{
				"x": 0.8894670463,
				"y": -3.3097385587,
				"z": 1.8671017798,
				"element": "C" 
			},
			{
				"x": 0.2282277613,
				"y": -2.1684568212,
				"z": 2.3640861199,
				"element": "C" 
			},
			{
				"x": 0.6534580324,
				"y": -1.6504653396,
				"z": 3.5933146954,
				"element": "C" 
			},
			{
				"x": 1.71370552,
				"y": -2.2249220389,
				"z": 4.2965303573,
				"element": "C" 
			},
			{
				"x": -0.9669802497,
				"y": -1.7199349518,
				"z": 1.5643441111,
				"element": "C" 
			},
			{
				"x": -1.6405720348,
				"y": -2.568606542,
				"z": 0.9839991538,
				"element": "O" 
			},
			{
				"x": -1.280154228,
				"y": -0.3683506541,
				"z": 1.4375002459,
				"element": "N" 
			},
			{
				"x": -0.4995034659,
				"y": 0.5719198898,
				"z": 2.0988086134,
				"element": "N" 
			},
			{
				"x": 0.3334805323,
				"y": 1.5230830534,
				"z": 1.5104983506,
				"element": "C" 
			},
			{
				"x": 0.6017506822,
				"y": 2.5245820001,
				"z": 2.1623855795,
				"element": "O" 
			},
			{
				"x": 0.8897651467,
				"y": 1.3058962304,
				"z": 0.1379025678,
				"element": "C" 
			},
			{
				"x": 1.2529524025,
				"y": 0.0545820472,
				"z": -0.3793478564,
				"element": "C" 
			},
			{
				"x": 1.8236403359,
				"y": -0.0369000085,
				"z": -1.6493190275,
				"element": "C" 
			},
			{
				"x": 2.0259859313,
				"y": 1.1122824334,
				"z": -2.4155466908,
				"element": "C" 
			},
			{
				"x": 1.6780236156,
				"y": 2.3632657834,
				"z": -1.8995032233,
				"element": "C" 
			},
			{
				"x": 1.1265167724,
				"y": 2.4605156493,
				"z": -0.6246994695,
				"element": "C" 
			},
			{
				"x": -2.598381491,
				"y": 0.0654062002,
				"z": 0.8036918255,
				"element": "C" 
			},
			{
				"x": -3.7671834412,
				"y": -0.5680127147,
				"z": 1.5837615204,
				"element": "C" 
			},
			{
				"x": -2.7256160869,
				"y": 1.5952090297,
				"z": 0.8795488429,
				"element": "C" 
			},
			{
				"x": -2.6270839673,
				"y": -0.3535696273,
				"z": -0.6789611248,
				"element": "C" 
			},
			{
				"x": 4.2596307961,
				"y": -2.41779602,
				"z": 5.5058641934,
				"element": "H" 
			},
			{
				"x": 3.1455786893,
				"y": -3.5136499726,
				"z": 6.3754740775,
				"element": "H" 
			},
			{
				"x": 4.7564386806,
				"y": -4.0915087775,
				"z": 5.8730054513,
				"element": "H" 
			},
			{
				"x": 2.4798009067,
				"y": -4.7419483438,
				"z": 2.1480070619,
				"element": "H" 
			},
			{
				"x": 0.5343800343,
				"y": -3.7493275469,
				"z": 0.9414146186,
				"element": "H" 
			},
			{
				"x": 0.154163613,
				"y": -0.7997498973,
				"z": 4.0379748748,
				"element": "H" 
			},
			{
				"x": 2.0044056797,
				"y": -1.8008247839,
				"z": 5.2499987487,
				"element": "H" 
			},
			{
				"x": -0.8631538577,
				"y": 0.9200604087,
				"z": 2.9812674251,
				"element": "H" 
			},
			{
				"x": 1.1272388114,
				"y": -0.8410450648,
				"z": 0.215355056,
				"element": "H" 
			},
			{
				"x": 2.1128897416,
				"y": -1.0088584044,
				"z": -2.0378696283,
				"element": "H" 
			},
			{
				"x": 2.462125469,
				"y": 1.0345083764,
				"z": -3.4074157408,
				"element": "H" 
			},
			{
				"x": 1.8450640283,
				"y": 3.2615884528,
				"z": -2.4865578487,
				"element": "H" 
			},
			{
				"x": 0.8770160397,
				"y": 3.4254626258,
				"z": -0.1962575952,
				"element": "H" 
			},
			{
				"x": -4.7177731954,
				"y": -0.2445003579,
				"z": 1.1474759355,
				"element": "H" 
			},
			{
				"x": -3.7534537332,
				"y": -0.2470186578,
				"z": 2.6315424633,
				"element": "H" 
			},
			{
				"x": -3.7217700052,
				"y": -1.6561739821,
				"z": 1.5469008912,
				"element": "H" 
			},
			{
				"x": -1.9438083076,
				"y": 2.1066021922,
				"z": 0.312887586,
				"element": "H" 
			},
			{
				"x": -2.7172522853,
				"y": 1.9741145578,
				"z": 1.9052683941,
				"element": "H" 
			},
			{
				"x": -3.6860177132,
				"y": 1.8719107586,
				"z": 0.4358323535,
				"element": "H" 
			},
			{
				"x": -2.5792946564,
				"y": -1.4363696951,
				"z": -0.7811700129,
				"element": "H" 
			},
			{
				"x": -3.554543249,
				"y": 0.0053580365,
				"z": -1.1382661252,
				"element": "H" 
			},
			{
				"x": -1.785295918,
				"y": 0.0906595659,
				"z": -1.2178774066,
				"element": "H" 
			}
		],
		 "valence_orbital": [ 
			{
				"type": "occ",
				"energy": -0.2567,
				"method": "rhf"
			},
			{
				"type": "occ",
				"energy": -0.25511,
				"method": "rhf"
			},
			{
				"type": "occ",
				"energy": -0.24992,
				"method": "rhf"
			},
			{
				"type": "occ",
				"energy": -0.24378,
				"method": "rhf"
			},
			{
				"type": "occ",
				"energy": -0.22332,
				"method": "rhf"
			},
			{
				"type": "unocc",
				"energy": -0.03996,
				"method": "rhf"
			},
			{
				"type": "unocc",
				"energy": -0.02693,
				"method": "rhf"
			},
			{
				"type": "unocc",
				"energy": -0.00775,
				"method": "rhf"
			},
			{
				"type": "unocc",
				"energy": -0.00622,
				"method": "rhf"
			},
			{
				"type": "unocc",
				"energy": 0.04206,
				"method": "rhf"
			}
		],
		"cosmo_sigma_profile": { 
			"-0.025": 0.0,
			"-0.024": 0.0,
			"-0.023": 0.0,
			"-0.022": 0.0,
			"-0.021": 0.0,
			"-0.02": 0.0,
			"-0.019": 0.0,
			"-0.018": 0.0,
			"-0.017": 0.0,
			"-0.016": 0.0,
			"-0.015": 0.0,
			"-0.014": 0.435170137427,
			"-0.013": 0.988521860638,
			"-0.012": 1.45055866282,
			"-0.011": 2.21984698867,
			"-0.01": 1.80021464775,
			"-0.009": 1.3011663421,
			"-0.008": 1.49967603758,
			"-0.007": 4.65965681778,
			"-0.006": 19.4067679833,
			"-0.005": 25.3908501815,
			"-0.004": 34.2374784845,
			"-0.003": 32.2282195613,
			"-0.002": 27.485753697,
			"-0.001": 32.013539246,
			"0.0": 33.2667475429,
			"0.001": 33.4689219956,
			"0.002": 25.0696358552,
			"0.003": 23.9958566884,
			"0.004": 25.2744411497,
			"0.005": 9.36543616014,
			"0.006": 5.7807352906,
			"0.007": 4.97288624952,
			"0.008": 3.3790083421,
			"0.009": 5.26539801068,
			"0.01": 3.91689602894,
			"0.011": 3.55817392519,
			"0.012": 5.49063267811,
			"0.013": 6.71536916692,
			"0.014": 1.31088220171,
			"0.015": 0.0,
			"0.016": 0.0,
			"0.017": 0.0,
			"0.018": 0.0,
			"0.019": 0.0,
			"0.02": 0.0,
			"0.021": 0.0,
			"0.022": 0.0,
			"0.023": 0.0,
			"0.024": 0.0,
			"0.025": 0.0
		}
	}
}
