{
	 "smiles": "ClC1=NC(=NO1)C1=CC=C(Cl)C=C1", 
	 "Tm": 333.15, 
	 "num_atms": 17, 
	 "gaussian": { 
		 "optdone": 1, 
		 "sigma_profile": "yes", 
		 "theory": "DFT", 
		 "functional": "B3LYP", 
		 "basiset": "6-31G**", 
		 "properties": { 
			 "R2extent": 6488.0216, 
			 "electric_dipole_moment_norm": 0.744674371789, 
			 "electric_quadrupole_moment_norm": 5.92124051699, 
			 "total_energy": -1412.32455168, 
			 "HOMO_LUMO_gap": 0.18656, 
			 "cosmo_polarized_energy": -5.52, 
			 "cosmo_cavitation_energy": 26.46, 
			 "cosmo_dispersion_energy": -20.14, 
			 "cosmo_repulsion_energy": 1.59, 
			 "cosmo_total_nonelectrostatic_energy": 7.9, 
			 "SMD_solvation_energy": 2.6 
		},
		"coords": [
			{
				"x": 1.4067320993,
				"y": 4.9977616259,
				"z": 3.977672439,
				"element": "Cl" 
			},
			{
				"x": 0.6259819213,
				"y": 3.6694983697,
				"z": 3.2473376454,
				"element": "C" 
			},
			{
				"x": 1.1420292915,
				"y": 2.527990274,
				"z": 2.9293868522,
				"element": "N" 
			},
			{
				"x": 0.0488810431,
				"y": 1.8739641709,
				"z": 2.3850174314,
				"element": "C" 
			},
			{
				"x": -1.0603686056,
				"y": 2.5837155133,
				"z": 2.3763155256,
				"element": "N" 
			},
			{
				"x": -0.6737400917,
				"y": 3.80534374,
				"z": 2.9618015327,
				"element": "O" 
			},
			{
				"x": 0.1247902625,
				"y": 0.5054933836,
				"z": 1.8623914404,
				"element": "C" 
			},
			{
				"x": -1.0098345153,
				"y": -0.1176575452,
				"z": 1.3192984628,
				"element": "C" 
			},
			{
				"x": -0.9306525192,
				"y": -1.4152290573,
				"z": 0.8255939805,
				"element": "C" 
			},
			{
				"x": 0.2910791877,
				"y": -2.0908500683,
				"z": 0.8765531698,
				"element": "C" 
			},
			{
				"x": 0.3941020083,
				"y": -3.7277436897,
				"z": 0.2545512107,
				"element": "Cl" 
			},
			{
				"x": 1.4292949527,
				"y": -1.4884314735,
				"z": 1.4123662657,
				"element": "C" 
			},
			{
				"x": 1.3416730591,
				"y": -0.1885680098,
				"z": 1.9047772726,
				"element": "C" 
			},
			{
				"x": -1.9522141362,
				"y": 0.4187297251,
				"z": 1.2860336467,
				"element": "H" 
			},
			{
				"x": -1.8033250216,
				"y": -1.9018405835,
				"z": 0.404998041,
				"element": "H" 
			},
			{
				"x": 2.3680857153,
				"y": -2.0297352458,
				"z": 1.4427602554,
				"element": "H" 
			},
			{
				"x": 2.2155853489,
				"y": 0.2966588706,
				"z": 2.3251448281,
				"element": "H" 
			}
		],
		 "valence_orbital": [ 
			{
				"type": "occ",
				"energy": -0.32316,
				"method": "rhf"
			},
			{
				"type": "occ",
				"energy": -0.31637,
				"method": "rhf"
			},
			{
				"type": "occ",
				"energy": -0.30345,
				"method": "rhf"
			},
			{
				"type": "occ",
				"energy": -0.27739,
				"method": "rhf"
			},
			{
				"type": "occ",
				"energy": -0.25222,
				"method": "rhf"
			},
			{
				"type": "unocc",
				"energy": -0.06566,
				"method": "rhf"
			},
			{
				"type": "unocc",
				"energy": -0.03054,
				"method": "rhf"
			},
			{
				"type": "unocc",
				"energy": -0.02053,
				"method": "rhf"
			},
			{
				"type": "unocc",
				"energy": 0.00017,
				"method": "rhf"
			},
			{
				"type": "unocc",
				"energy": 0.02118,
				"method": "rhf"
			}
		],
		"cosmo_sigma_profile": { 
			"-0.025": 0.0,
			"-0.024": 0.0,
			"-0.023": 0.0,
			"-0.022": 0.0,
			"-0.021": 0.0,
			"-0.02": 0.0,
			"-0.019": 0.0,
			"-0.018": 0.0,
			"-0.017": 0.0,
			"-0.016": 0.0,
			"-0.015": 0.0,
			"-0.014": 0.0,
			"-0.013": 0.0,
			"-0.012": 0.0,
			"-0.011": 0.0,
			"-0.01": 0.0,
			"-0.009": 0.0,
			"-0.008": 2.38318913254,
			"-0.007": 6.76365075747,
			"-0.006": 12.6599882731,
			"-0.005": 9.73281147571,
			"-0.004": 11.0227265427,
			"-0.003": 11.3073745796,
			"-0.002": 14.9450947166,
			"-0.001": 21.5762248753,
			"0.0": 27.4969404083,
			"0.001": 30.3628070487,
			"0.002": 22.906162627,
			"0.003": 12.8728436902,
			"0.004": 14.8407510656,
			"0.005": 7.31681918934,
			"0.006": 3.29147037499,
			"0.007": 2.16103385922,
			"0.008": 2.8735840255,
			"0.009": 2.02323743379,
			"0.01": 1.8292137637,
			"0.011": 1.02594511695,
			"0.012": 0.000100630783182,
			"0.013": 0.0,
			"0.014": 0.0,
			"0.015": 0.0,
			"0.016": 0.0,
			"0.017": 0.0,
			"0.018": 0.0,
			"0.019": 0.0,
			"0.02": 0.0,
			"0.021": 0.0,
			"0.022": 0.0,
			"0.023": 0.0,
			"0.024": 0.0,
			"0.025": 0.0
		}
	}
}
