{
	 "smiles": "CC1=NC2=CC(O)=NN2C(C)=C1", 
	 "Tm": 515.15, 
	 "num_atms": 21, 
	 "gaussian": { 
		 "optdone": 1, 
		 "sigma_profile": "yes", 
		 "theory": "DFT", 
		 "functional": "B3LYP", 
		 "basiset": "6-31G**", 
		 "properties": { 
			 "R2extent": 2451.8213, 
			 "electric_dipole_moment_norm": 3.30551846917, 
			 "electric_quadrupole_moment_norm": 7.05860739877, 
			 "total_energy": -549.743568883, 
			 "HOMO_LUMO_gap": 0.17225, 
			 "cosmo_polarized_energy": -11.13, 
			 "cosmo_cavitation_energy": 25.02, 
			 "cosmo_dispersion_energy": -18.77, 
			 "cosmo_repulsion_energy": 1.5, 
			 "cosmo_total_nonelectrostatic_energy": 7.74, 
			 "SMD_solvation_energy": 2.7 
		},
		"coords": [
			{
				"x": -0.4323121051,
				"y": 2.7197275306,
				"z": -0.7843909992,
				"element": "C" 
			},
			{
				"x": -0.4485824385,
				"y": 1.2389681585,
				"z": -0.4973751788,
				"element": "C" 
			},
			{
				"x": -1.3775485108,
				"y": 0.8025183576,
				"z": 0.3419465817,
				"element": "N" 
			},
			{
				"x": -1.4061619888,
				"y": -0.5158381547,
				"z": 0.6090616394,
				"element": "C" 
			},
			{
				"x": -2.2211014545,
				"y": -1.3030148819,
				"z": 1.4201449179,
				"element": "C" 
			},
			{
				"x": -1.7211300888,
				"y": -2.602782558,
				"z": 1.2521627794,
				"element": "C" 
			},
			{
				"x": -2.2038294429,
				"y": -3.7081964561,
				"z": 1.8507557866,
				"element": "O" 
			},
			{
				"x": -0.6769064811,
				"y": -2.6925964511,
				"z": 0.4159927242,
				"element": "N" 
			},
			{
				"x": -0.4837612812,
				"y": -1.4066215615,
				"z": 0.0204790825,
				"element": "N" 
			},
			{
				"x": 0.476579819,
				"y": -0.9806025064,
				"z": -0.8425662061,
				"element": "C" 
			},
			{
				"x": 1.4048340513,
				"y": -2.0038785001,
				"z": -1.4115243753,
				"element": "C" 
			},
			{
				"x": 0.4979056206,
				"y": 0.372072114,
				"z": -1.1100554562,
				"element": "C" 
			},
			{
				"x": 0.3622936513,
				"y": 2.9913234121,
				"z": -1.4835673433,
				"element": "H" 
			},
			{
				"x": -0.2907181469,
				"y": 3.282827452,
				"z": 0.1435894552,
				"element": "H" 
			},
			{
				"x": -1.3927197151,
				"y": 3.0334107189,
				"z": -1.2056932364,
				"element": "H" 
			},
			{
				"x": -3.0449474189,
				"y": -0.9769764372,
				"z": 2.032661862,
				"element": "H" 
			},
			{
				"x": -1.6642812585,
				"y": -4.453942693,
				"z": 1.5479116357,
				"element": "H" 
			},
			{
				"x": 1.9409171769,
				"y": -2.5216595462,
				"z": -0.6093542847,
				"element": "H" 
			},
			{
				"x": 2.1238026234,
				"y": -1.5349621254,
				"z": -2.0852286937,
				"element": "H" 
			},
			{
				"x": 0.8422194424,
				"y": -2.7702009531,
				"z": -1.9548291641,
				"element": "H" 
			},
			{
				"x": 1.2436479462,
				"y": 0.7636250809,
				"z": -1.7915215265,
				"element": "H" 
			}
		],
		 "valence_orbital": [ 
			{
				"type": "occ",
				"energy": -0.31444,
				"method": "rhf"
			},
			{
				"type": "occ",
				"energy": -0.30137,
				"method": "rhf"
			},
			{
				"type": "occ",
				"energy": -0.25902,
				"method": "rhf"
			},
			{
				"type": "occ",
				"energy": -0.22996,
				"method": "rhf"
			},
			{
				"type": "occ",
				"energy": -0.21183,
				"method": "rhf"
			},
			{
				"type": "unocc",
				"energy": -0.03958,
				"method": "rhf"
			},
			{
				"type": "unocc",
				"energy": 0.00242,
				"method": "rhf"
			},
			{
				"type": "unocc",
				"energy": 0.07944,
				"method": "rhf"
			},
			{
				"type": "unocc",
				"energy": 0.08981,
				"method": "rhf"
			},
			{
				"type": "unocc",
				"energy": 0.09868,
				"method": "rhf"
			}
		],
		"cosmo_sigma_profile": { 
			"-0.025": 0.0,
			"-0.024": 0.0,
			"-0.023": 0.0,
			"-0.022": 0.0,
			"-0.021": 0.0,
			"-0.02": 0.0,
			"-0.019": 0.0,
			"-0.018": 0.325853305649,
			"-0.017": 0.77362505261,
			"-0.016": 0.746060861117,
			"-0.015": 0.666649849137,
			"-0.014": 1.17432466766,
			"-0.013": 0.748432974465,
			"-0.012": 0.744030340344,
			"-0.011": 0.19159607828,
			"-0.01": 0.390600637071,
			"-0.009": 0.857654621387,
			"-0.008": 0.520713437387,
			"-0.007": 5.20944508392,
			"-0.006": 9.10958275787,
			"-0.005": 14.4217972399,
			"-0.004": 12.7798423707,
			"-0.003": 14.1699083491,
			"-0.002": 20.2019337717,
			"-0.001": 22.3673306191,
			"0.0": 15.0513467787,
			"0.001": 10.9811450236,
			"0.002": 10.5105840572,
			"0.003": 9.73738120876,
			"0.004": 10.7627761376,
			"0.005": 7.04681271022,
			"0.006": 4.86346034453,
			"0.007": 4.70512975803,
			"0.008": 3.44253881607,
			"0.009": 4.74343856492,
			"0.01": 3.62259071143,
			"0.011": 3.35298717317,
			"0.012": 1.86125502618,
			"0.013": 1.11192179169,
			"0.014": 0.751133599875,
			"0.015": 0.768124293824,
			"0.016": 0.437044871725,
			"0.017": 0.0,
			"0.018": 0.0,
			"0.019": 0.0,
			"0.02": 0.0,
			"0.021": 0.0,
			"0.022": 0.0,
			"0.023": 0.0,
			"0.024": 0.0,
			"0.025": 0.0
		}
	}
}
