{
	 "smiles": "CCOC1=CC=C(C=C1)C1=NN=C(S)N1N", 
	 "Tm": 483.15, 
	 "num_atms": 28, 
	 "gaussian": { 
		 "optdone": 1, 
		 "sigma_profile": "yes", 
		 "theory": "DFT", 
		 "functional": "B3LYP", 
		 "basiset": "6-31G**", 
		 "properties": { 
			 "R2extent": 7445.0842, 
			 "electric_dipole_moment_norm": 3.34651457042, 
			 "electric_quadrupole_moment_norm": 26.1532005342, 
			 "total_energy": -1080.65115515, 
			 "HOMO_LUMO_gap": 0.17927, 
			 "cosmo_polarized_energy": -19.91, 
			 "cosmo_cavitation_energy": 33.95, 
			 "cosmo_dispersion_energy": -25.63, 
			 "cosmo_repulsion_energy": 1.96, 
			 "cosmo_total_nonelectrostatic_energy": 10.27, 
			 "SMD_solvation_energy": 4.4 
		},
		"coords": [
			{
				"x": -0.9028658335,
				"y": 1.7798233528,
				"z": -4.8110151541,
				"element": "C" 
			},
			{
				"x": -0.2631140288,
				"y": 1.5427303275,
				"z": -3.4542652404,
				"element": "C" 
			},
			{
				"x": -0.9628661184,
				"y": 0.4645576014,
				"z": -2.8316960072,
				"element": "O" 
			},
			{
				"x": -0.5735918163,
				"y": 0.0563471633,
				"z": -1.5922849989,
				"element": "C" 
			},
			{
				"x": -1.3021401371,
				"y": -1.0066163875,
				"z": -1.0395052703,
				"element": "C" 
			},
			{
				"x": -0.9886797523,
				"y": -1.5015097463,
				"z": 0.2190393086,
				"element": "C" 
			},
			{
				"x": 0.0675043829,
				"y": -0.9458169621,
				"z": 0.9660292797,
				"element": "C" 
			},
			{
				"x": 0.7901906429,
				"y": 0.1188609434,
				"z": 0.4019636544,
				"element": "C" 
			},
			{
				"x": 0.4810083029,
				"y": 0.6194654828,
				"z": -0.8589571479,
				"element": "C" 
			},
			{
				"x": 0.4710586615,
				"y": -1.4015870287,
				"z": 2.3014943504,
				"element": "C" 
			},
			{
				"x": 1.4623799616,
				"y": -0.867173622,
				"z": 2.9883067192,
				"element": "N" 
			},
			{
				"x": 1.5822521517,
				"y": -1.5228548433,
				"z": 4.2003058156,
				"element": "N" 
			},
			{
				"x": 0.6565222321,
				"y": -2.4441256418,
				"z": 4.2206397288,
				"element": "C" 
			},
			{
				"x": 0.3058282154,
				"y": -3.6069287032,
				"z": 5.5036073301,
				"element": "S" 
			},
			{
				"x": -0.0812552682,
				"y": -2.4269126831,
				"z": 3.0592405955,
				"element": "N" 
			},
			{
				"x": -1.1504586532,
				"y": -3.2678359999,
				"z": 2.7309347562,
				"element": "N" 
			},
			{
				"x": -1.9594920853,
				"y": 2.0384185219,
				"z": -4.6990436652,
				"element": "H" 
			},
			{
				"x": -0.8316990759,
				"y": 0.8830288393,
				"z": -5.4327534063,
				"element": "H" 
			},
			{
				"x": -0.3966481484,
				"y": 2.6015133202,
				"z": -5.3268115265,
				"element": "H" 
			},
			{
				"x": -0.329314992,
				"y": 2.4427831697,
				"z": -2.8270436563,
				"element": "H" 
			},
			{
				"x": 0.7999875593,
				"y": 1.2855303527,
				"z": -3.5617178656,
				"element": "H" 
			},
			{
				"x": -2.1151982931,
				"y": -1.4316706771,
				"z": -1.619033881,
				"element": "H" 
			},
			{
				"x": -1.5625134505,
				"y": -2.322571759,
				"z": 0.6285580011,
				"element": "H" 
			},
			{
				"x": 1.6048088833,
				"y": 0.551482738,
				"z": 0.97207897,
				"element": "H" 
			},
			{
				"x": 1.0630779131,
				"y": 1.4415690411,
				"z": -1.257647127,
				"element": "H" 
			},
			{
				"x": 1.2921311193,
				"y": -3.1417072833,
				"z": 6.292332867,
				"element": "H" 
			},
			{
				"x": -1.8899656961,
				"y": -3.1568191896,
				"z": 3.4214220138,
				"element": "H" 
			},
			{
				"x": -0.8311466767,
				"y": -4.2342803273,
				"z": 2.7328215564,
				"element": "H" 
			}
		],
		 "valence_orbital": [ 
			{
				"type": "occ",
				"energy": -0.2952,
				"method": "rhf"
			},
			{
				"type": "occ",
				"energy": -0.25116,
				"method": "rhf"
			},
			{
				"type": "occ",
				"energy": -0.24915,
				"method": "rhf"
			},
			{
				"type": "occ",
				"energy": -0.24686,
				"method": "rhf"
			},
			{
				"type": "occ",
				"energy": -0.20154,
				"method": "rhf"
			},
			{
				"type": "unocc",
				"energy": -0.02227,
				"method": "rhf"
			},
			{
				"type": "unocc",
				"energy": -0.00192,
				"method": "rhf"
			},
			{
				"type": "unocc",
				"energy": 0.00021,
				"method": "rhf"
			},
			{
				"type": "unocc",
				"energy": 0.03256,
				"method": "rhf"
			},
			{
				"type": "unocc",
				"energy": 0.04636,
				"method": "rhf"
			}
		],
		"cosmo_sigma_profile": { 
			"-0.025": 0.0,
			"-0.024": 0.0,
			"-0.023": 0.0,
			"-0.022": 0.0,
			"-0.021": 0.0,
			"-0.02": 0.0,
			"-0.019": 0.0,
			"-0.018": 0.0,
			"-0.017": 0.0,
			"-0.016": 0.0,
			"-0.015": 0.0150499257495,
			"-0.014": 1.77573991339,
			"-0.013": 3.83875503314,
			"-0.012": 5.17951276669,
			"-0.011": 4.10661032418,
			"-0.01": 3.95543031623,
			"-0.009": 3.47534448479,
			"-0.008": 2.99482995957,
			"-0.007": 3.90966381224,
			"-0.006": 7.46072407826,
			"-0.005": 14.6390412651,
			"-0.004": 20.0566124194,
			"-0.003": 20.7389439811,
			"-0.002": 19.4417086849,
			"-0.001": 17.8765321383,
			"0.0": 19.0404355156,
			"0.001": 17.4323757292,
			"0.002": 18.2275188139,
			"0.003": 19.7932106249,
			"0.004": 20.5636580013,
			"0.005": 12.568196204,
			"0.006": 6.49795428482,
			"0.007": 4.0970789744,
			"0.008": 3.05842614396,
			"0.009": 3.33925844598,
			"0.01": 3.07500938041,
			"0.011": 2.37007012894,
			"0.012": 2.82648936919,
			"0.013": 2.94190548032,
			"0.014": 3.32293312734,
			"0.015": 2.59396414156,
			"0.016": 1.35400533357,
			"0.017": 0.146869815464,
			"0.018": 0.0,
			"0.019": 0.0,
			"0.02": 0.0,
			"0.021": 0.0,
			"0.022": 0.0,
			"0.023": 0.0,
			"0.024": 0.0,
			"0.025": 0.0
		}
	}
}
