{
	 "smiles": "CCN1C(SCC(O)=O)=NN=C1C1=CC=CS1", 
	 "Tm": 431.15, 
	 "num_atms": 28, 
	 "gaussian": { 
		 "optdone": 1, 
		 "sigma_profile": "yes", 
		 "theory": "DFT", 
		 "functional": "B3LYP", 
		 "basiset": "6-31G**", 
		 "properties": { 
			 "R2extent": 6305.8198, 
			 "electric_dipole_moment_norm": 9.29166306481, 
			 "electric_quadrupole_moment_norm": 25.1557516356, 
			 "total_energy": -1498.75469268, 
			 "HOMO_LUMO_gap": 0.17339, 
			 "cosmo_polarized_energy": -19.36, 
			 "cosmo_cavitation_energy": 34.8, 
			 "cosmo_dispersion_energy": -26.14, 
			 "cosmo_repulsion_energy": 1.93, 
			 "cosmo_total_nonelectrostatic_energy": 10.59, 
			 "SMD_solvation_energy": 5.58 
		},
		"coords": [
			{
				"x": -0.5600058752,
				"y": 2.7773493672,
				"z": -1.4366096867,
				"element": "C" 
			},
			{
				"x": -0.7668351487,
				"y": 1.2920989344,
				"z": -1.7390576225,
				"element": "C" 
			},
			{
				"x": -0.5899695809,
				"y": 0.4331828479,
				"z": -0.5615284484,
				"element": "N" 
			},
			{
				"x": -1.5509426432,
				"y": 0.139126049,
				"z": 0.3687143164,
				"element": "C" 
			},
			{
				"x": -3.1741207285,
				"y": 0.8174241507,
				"z": 0.3612278385,
				"element": "S" 
			},
			{
				"x": -4.066529663,
				"y": -0.5008988549,
				"z": 1.2977195904,
				"element": "C" 
			},
			{
				"x": -3.965246133,
				"y": -0.4160780254,
				"z": 2.8312535856,
				"element": "C" 
			},
			{
				"x": -2.7712411024,
				"y": -0.6540831209,
				"z": 3.3677544613,
				"element": "O" 
			},
			{
				"x": -4.948581862,
				"y": -0.1765802419,
				"z": 3.4952604877,
				"element": "O" 
			},
			{
				"x": -1.0819137592,
				"y": -0.7198180453,
				"z": 1.251453413,
				"element": "N" 
			},
			{
				"x": 0.2131161107,
				"y": -1.0128676207,
				"z": 0.9180251928,
				"element": "N" 
			},
			{
				"x": 0.5082516762,
				"y": -0.3187699507,
				"z": -0.1656276827,
				"element": "C" 
			},
			{
				"x": 1.8000951916,
				"y": -0.4172392874,
				"z": -0.8282951226,
				"element": "C" 
			},
			{
				"x": 2.6397091778,
				"y": -1.5045573334,
				"z": -0.7319667732,
				"element": "C" 
			},
			{
				"x": 3.8815720738,
				"y": -1.3176473508,
				"z": -1.3989986491,
				"element": "C" 
			},
			{
				"x": 3.9857664302,
				"y": -0.0905269272,
				"z": -1.9957098146,
				"element": "C" 
			},
			{
				"x": 2.5654772622,
				"y": 0.8672169877,
				"z": -1.74318617,
				"element": "S" 
			},
			{
				"x": -0.7095808479,
				"y": 3.3607069431,
				"z": -2.3500554421,
				"element": "H" 
			},
			{
				"x": -1.2731284271,
				"y": 3.1314115406,
				"z": -0.6866772499,
				"element": "H" 
			},
			{
				"x": 0.4507654261,
				"y": 2.972224439,
				"z": -1.0681098237,
				"element": "H" 
			},
			{
				"x": -1.7793122742,
				"y": 1.1127756633,
				"z": -2.113148693,
				"element": "H" 
			},
			{
				"x": -0.0684875411,
				"y": 0.9438366536,
				"z": -2.5024845506,
				"element": "H" 
			},
			{
				"x": -5.1143519114,
				"y": -0.3639544441,
				"z": 1.0305293464,
				"element": "H" 
			},
			{
				"x": -3.7139118353,
				"y": -1.4674851517,
				"z": 0.9278494268,
				"element": "H" 
			},
			{
				"x": -2.0734287731,
				"y": -0.8216517791,
				"z": 2.6731165739,
				"element": "H" 
			},
			{
				"x": 2.3565501786,
				"y": -2.3984958314,
				"z": -0.1904582159,
				"element": "H" 
			},
			{
				"x": 4.6627608552,
				"y": -2.067626432,
				"z": -1.4396586353,
				"element": "H" 
			},
			{
				"x": 4.8039237237,
				"y": 0.3107268206,
				"z": -2.5774316527,
				"element": "H" 
			}
		],
		 "valence_orbital": [ 
			{
				"type": "occ",
				"energy": -0.28653,
				"method": "rhf"
			},
			{
				"type": "occ",
				"energy": -0.27515,
				"method": "rhf"
			},
			{
				"type": "occ",
				"energy": -0.27424,
				"method": "rhf"
			},
			{
				"type": "occ",
				"energy": -0.25144,
				"method": "rhf"
			},
			{
				"type": "occ",
				"energy": -0.22975,
				"method": "rhf"
			},
			{
				"type": "unocc",
				"energy": -0.05636,
				"method": "rhf"
			},
			{
				"type": "unocc",
				"energy": -0.02165,
				"method": "rhf"
			},
			{
				"type": "unocc",
				"energy": -0.00292,
				"method": "rhf"
			},
			{
				"type": "unocc",
				"energy": 0.01196,
				"method": "rhf"
			},
			{
				"type": "unocc",
				"energy": 0.01871,
				"method": "rhf"
			}
		],
		"cosmo_sigma_profile": { 
			"-0.025": 0.0,
			"-0.024": 0.0,
			"-0.023": 0.0,
			"-0.022": 0.0,
			"-0.021": 0.0,
			"-0.02": 0.0,
			"-0.019": 0.0,
			"-0.018": 0.0,
			"-0.017": 0.0,
			"-0.016": 0.0,
			"-0.015": 0.0,
			"-0.014": 0.0,
			"-0.013": 0.0,
			"-0.012": 0.0,
			"-0.011": 0.0,
			"-0.01": 0.258189096534,
			"-0.009": 5.19659827502,
			"-0.008": 7.07421152726,
			"-0.007": 10.9815106891,
			"-0.006": 15.6114118307,
			"-0.005": 22.1384659478,
			"-0.004": 25.7530582008,
			"-0.003": 22.3208542957,
			"-0.002": 19.1473820429,
			"-0.001": 22.7449091266,
			"0.0": 18.5045481515,
			"0.001": 15.7569004829,
			"0.002": 18.4924562633,
			"0.003": 16.6895990909,
			"0.004": 11.9643351633,
			"0.005": 6.30987247544,
			"0.006": 4.36695682916,
			"0.007": 4.44284380597,
			"0.008": 4.40169675751,
			"0.009": 4.65310264566,
			"0.01": 4.78821073616,
			"0.011": 7.10145177003,
			"0.012": 7.93181686574,
			"0.013": 3.61730489115,
			"0.014": 1.46118678003,
			"0.015": 0.609465328695,
			"0.016": 0.027500533014,
			"0.017": 0.0,
			"0.018": 0.0,
			"0.019": 0.0,
			"0.02": 0.0,
			"0.021": 0.0,
			"0.022": 0.0,
			"0.023": 0.0,
			"0.024": 0.0,
			"0.025": 0.0
		}
	}
}
