{
	 "smiles": "NC1=CC=CC2=C1C=C(O)C=C2", 
	 "Tm": 480.15, 
	 "num_atms": 21, 
	 "gaussian": { 
		 "optdone": 1, 
		 "sigma_profile": "yes", 
		 "theory": "DFT", 
		 "functional": "B3LYP", 
		 "basiset": "6-31G**", 
		 "properties": { 
			 "R2extent": 2490.0053, 
			 "electric_dipole_moment_norm": 1.24807225352, 
			 "electric_quadrupole_moment_norm": 13.3779194832, 
			 "total_energy": -516.471427645, 
			 "HOMO_LUMO_gap": 0.15569, 
			 "cosmo_polarized_energy": -13.42, 
			 "cosmo_cavitation_energy": 24.38, 
			 "cosmo_dispersion_energy": -18.53, 
			 "cosmo_repulsion_energy": 1.45, 
			 "cosmo_total_nonelectrostatic_energy": 7.3, 
			 "SMD_solvation_energy": 4.12 
		},
		"coords": [
			{
				"x": 3.2095071297,
				"y": -0.7566910346,
				"z": -0.7599905515,
				"element": "N" 
			},
			{
				"x": 1.9312968915,
				"y": -0.5437224762,
				"z": -0.2274862991,
				"element": "C" 
			},
			{
				"x": 1.6171867792,
				"y": -0.9358025914,
				"z": 1.0636126934,
				"element": "C" 
			},
			{
				"x": 0.34169864,
				"y": -0.6873772031,
				"z": 1.6181721724,
				"element": "C" 
			},
			{
				"x": -0.6358191518,
				"y": -0.0656917691,
				"z": 0.8777131236,
				"element": "C" 
			},
			{
				"x": -0.3561694449,
				"y": 0.3590329328,
				"z": -0.4494334574,
				"element": "C" 
			},
			{
				"x": 0.9435962314,
				"y": 0.1432547437,
				"z": -1.0148217425,
				"element": "C" 
			},
			{
				"x": 1.218013007,
				"y": 0.6155194893,
				"z": -2.3228914951,
				"element": "C" 
			},
			{
				"x": 0.2401832771,
				"y": 1.2473479353,
				"z": -3.0652054971,
				"element": "C" 
			},
			{
				"x": 0.5643181174,
				"y": 1.682069134,
				"z": -4.3220789454,
				"element": "O" 
			},
			{
				"x": -1.0538652848,
				"y": 1.4399751399,
				"z": -2.5233155541,
				"element": "C" 
			},
			{
				"x": -1.3336938558,
				"y": 1.0100786648,
				"z": -1.2465482272,
				"element": "C" 
			},
			{
				"x": 3.219090559,
				"y": -1.0115867887,
				"z": -1.7392688989,
				"element": "H" 
			},
			{
				"x": 3.7685651596,
				"y": -1.4035054349,
				"z": -0.2189967619,
				"element": "H" 
			},
			{
				"x": 2.3670863836,
				"y": -1.4535435185,
				"z": 1.6574434453,
				"element": "H" 
			},
			{
				"x": 0.1366069898,
				"y": -1.0115930067,
				"z": 2.6344431032,
				"element": "H" 
			},
			{
				"x": -1.6237343277,
				"y": 0.1129011416,
				"z": 1.2926757398,
				"element": "H" 
			},
			{
				"x": 2.2073105208,
				"y": 0.5254328586,
				"z": -2.7569770044,
				"element": "H" 
			},
			{
				"x": -0.2009320684,
				"y": 2.1254667119,
				"z": -4.7094039508,
				"element": "H" 
			},
			{
				"x": -1.8191529611,
				"y": 1.9366517568,
				"z": -3.1168812398,
				"element": "H" 
			},
			{
				"x": -2.3236925915,
				"y": 1.1710833142,
				"z": -0.8279606525,
				"element": "H" 
			}
		],
		 "valence_orbital": [ 
			{
				"type": "occ",
				"energy": -0.32127,
				"method": "rhf"
			},
			{
				"type": "occ",
				"energy": -0.28936,
				"method": "rhf"
			},
			{
				"type": "occ",
				"energy": -0.25006,
				"method": "rhf"
			},
			{
				"type": "occ",
				"energy": -0.22281,
				"method": "rhf"
			},
			{
				"type": "occ",
				"energy": -0.18204,
				"method": "rhf"
			},
			{
				"type": "unocc",
				"energy": -0.02635,
				"method": "rhf"
			},
			{
				"type": "unocc",
				"energy": 0.00504,
				"method": "rhf"
			},
			{
				"type": "unocc",
				"energy": 0.05003,
				"method": "rhf"
			},
			{
				"type": "unocc",
				"energy": 0.07186,
				"method": "rhf"
			},
			{
				"type": "unocc",
				"energy": 0.08061,
				"method": "rhf"
			}
		],
		"cosmo_sigma_profile": { 
			"-0.025": 0.0,
			"-0.024": 0.0,
			"-0.023": 0.0,
			"-0.022": 0.0,
			"-0.021": 0.0,
			"-0.02": 0.0,
			"-0.019": 0.0,
			"-0.018": 0.212024870441,
			"-0.017": 1.13241022837,
			"-0.016": 1.11643289393,
			"-0.015": 1.16077200692,
			"-0.014": 1.37545626299,
			"-0.013": 0.591649150438,
			"-0.012": 2.76227432164,
			"-0.011": 3.92090816476,
			"-0.01": 3.40066158904,
			"-0.009": 4.34138163963,
			"-0.008": 4.77524877163,
			"-0.007": 4.50768291607,
			"-0.006": 6.53819264853,
			"-0.005": 11.123729069,
			"-0.004": 11.9651117448,
			"-0.003": 10.5701404544,
			"-0.002": 9.03460902088,
			"-0.001": 7.65651451105,
			"0.0": 8.7138350379,
			"0.001": 7.49437525927,
			"0.002": 9.8994815633,
			"0.003": 9.51677565735,
			"0.004": 15.6404772575,
			"0.005": 23.9401673131,
			"0.006": 12.8422881155,
			"0.007": 6.72887199604,
			"0.008": 2.45652397636,
			"0.009": 2.15023185452,
			"0.01": 2.65719458938,
			"0.011": 2.69481797721,
			"0.012": 1.81248738976,
			"0.013": 0.306324268737,
			"0.014": 0.685744088879,
			"0.015": 0.43642386478,
			"0.016": 0.0,
			"0.017": 0.0,
			"0.018": 0.0,
			"0.019": 0.0,
			"0.02": 0.0,
			"0.021": 0.0,
			"0.022": 0.0,
			"0.023": 0.0,
			"0.024": 0.0,
			"0.025": 0.0
		}
	}
}
