{
	 "smiles": "[O-][N+](=O)C1=C(F)C=C(Br)C=C1", 
	 "Tm": 360.15, 
	 "num_atms": 14, 
	 "gaussian": { 
		 "optdone": 1, 
		 "sigma_profile": "yes", 
		 "theory": "DFT", 
		 "functional": "B3LYP", 
		 "basiset": "6-31G**", 
		 "properties": { 
			 "R2extent": 4153.2861, 
			 "electric_dipole_moment_norm": 3.78628304674, 
			 "electric_quadrupole_moment_norm": 4.07078390854, 
			 "total_energy": -3106.76928703, 
			 "HOMO_LUMO_gap": 0.17749, 
			 "cosmo_polarized_energy": -8.04, 
			 "cosmo_cavitation_energy": 22.33, 
			 "cosmo_dispersion_energy": -16.9, 
			 "cosmo_repulsion_energy": 1.33, 
			 "cosmo_total_nonelectrostatic_energy": 6.76, 
			 "SMD_solvation_energy": 5.45 
		},
		"coords": [
			{
				"x": 2.4193858238,
				"y": 0.3151011924,
				"z": 0.7762990042,
				"element": "O" 
			},
			{
				"x": 1.1930603673,
				"y": 0.3097860254,
				"z": 0.8930341978,
				"element": "N" 
			},
			{
				"x": 0.5813792002,
				"y": 0.654902019,
				"z": 1.8993732566,
				"element": "O" 
			},
			{
				"x": 0.4167155092,
				"y": -0.1460326961,
				"z": -0.2670873102,
				"element": "C" 
			},
			{
				"x": -0.9853489914,
				"y": -0.2043965506,
				"z": -0.2617450454,
				"element": "C" 
			},
			{
				"x": -1.7113143816,
				"y": 0.1490492114,
				"z": 0.7963225634,
				"element": "F" 
			},
			{
				"x": -1.6736443297,
				"y": -0.6445579289,
				"z": -1.3894511072,
				"element": "C" 
			},
			{
				"x": -0.9562663274,
				"y": -1.0250034562,
				"z": -2.5195286122,
				"element": "C" 
			},
			{
				"x": -1.899487831,
				"y": -1.6251097807,
				"z": -4.0560588286,
				"element": "Br" 
			},
			{
				"x": 0.4402517748,
				"y": -0.9739737477,
				"z": -2.5444220743,
				"element": "C" 
			},
			{
				"x": 1.1152668777,
				"y": -0.5335785142,
				"z": -1.4140462266,
				"element": "C" 
			},
			{
				"x": -2.7554702744,
				"y": -0.6803925417,
				"z": -1.3596253773,
				"element": "H" 
			},
			{
				"x": 0.9853023718,
				"y": -1.273231594,
				"z": -3.4310510053,
				"element": "H" 
			},
			{
				"x": 2.1964702107,
				"y": -0.4785616381,
				"z": -1.3901134348,
				"element": "H" 
			}
		],
		 "valence_orbital": [ 
			{
				"type": "occ",
				"energy": -0.31597,
				"method": "rhf"
			},
			{
				"type": "occ",
				"energy": -0.31287,
				"method": "rhf"
			},
			{
				"type": "occ",
				"energy": -0.29734,
				"method": "rhf"
			},
			{
				"type": "occ",
				"energy": -0.29019,
				"method": "rhf"
			},
			{
				"type": "occ",
				"energy": -0.27776,
				"method": "rhf"
			},
			{
				"type": "unocc",
				"energy": -0.10027,
				"method": "rhf"
			},
			{
				"type": "unocc",
				"energy": -0.04246,
				"method": "rhf"
			},
			{
				"type": "unocc",
				"energy": -0.02079,
				"method": "rhf"
			},
			{
				"type": "unocc",
				"energy": -0.01877,
				"method": "rhf"
			},
			{
				"type": "unocc",
				"energy": 0.07088,
				"method": "rhf"
			}
		],
		"cosmo_sigma_profile": { 
			"-0.025": 0.0,
			"-0.024": 0.0,
			"-0.023": 0.0,
			"-0.022": 0.0,
			"-0.021": 0.0,
			"-0.02": 0.0,
			"-0.019": 0.0,
			"-0.018": 0.0,
			"-0.017": 0.0,
			"-0.016": 0.0,
			"-0.015": 0.0,
			"-0.014": 0.0,
			"-0.013": 0.0,
			"-0.012": 0.0,
			"-0.011": 0.0,
			"-0.01": 0.758122678662,
			"-0.009": 2.56572583425,
			"-0.008": 5.49536872439,
			"-0.007": 6.20039286394,
			"-0.006": 7.1175645377,
			"-0.005": 9.02667386288,
			"-0.004": 10.0932330982,
			"-0.003": 13.391371952,
			"-0.002": 16.767953333,
			"-0.001": 19.469413557,
			"0.0": 15.9536128762,
			"0.001": 9.99832752635,
			"0.002": 13.1172321265,
			"0.003": 16.5969510469,
			"0.004": 6.28293378606,
			"0.005": 3.76498441942,
			"0.006": 4.03829046608,
			"0.007": 9.63325381095,
			"0.008": 8.01601538715,
			"0.009": 4.13705516742,
			"0.01": 1.54985176002,
			"0.011": 0.0,
			"0.012": 0.0,
			"0.013": 0.0,
			"0.014": 0.0,
			"0.015": 0.0,
			"0.016": 0.0,
			"0.017": 0.0,
			"0.018": 0.0,
			"0.019": 0.0,
			"0.02": 0.0,
			"0.021": 0.0,
			"0.022": 0.0,
			"0.023": 0.0,
			"0.024": 0.0,
			"0.025": 0.0
		}
	}
}
