{
	 "smiles": "CCC(=O)OC(C)C1=CC=CC=C1", 
	 "Tm": 213.15, 
	 "num_atms": 27, 
	 "gaussian": { 
		 "optdone": 1, 
		 "sigma_profile": "yes", 
		 "theory": "DFT", 
		 "functional": "B3LYP", 
		 "basiset": "6-31G**", 
		 "properties": { 
			 "R2extent": 2926.2195, 
			 "electric_dipole_moment_norm": 1.62211436711, 
			 "electric_quadrupole_moment_norm": 4.34477425996, 
			 "total_energy": -578.076244179, 
			 "HOMO_LUMO_gap": 0.2365, 
			 "cosmo_polarized_energy": -7.3, 
			 "cosmo_cavitation_energy": 29.79, 
			 "cosmo_dispersion_energy": -21.16, 
			 "cosmo_repulsion_energy": 1.72, 
			 "cosmo_total_nonelectrostatic_energy": 10.35, 
			 "SMD_solvation_energy": 6.0 
		},
		"coords": [
			{
				"x": -1.9400070689,
				"y": 0.9780147775,
				"z": -3.6753155001,
				"element": "C" 
			},
			{
				"x": -1.1628102458,
				"y": -0.255780637,
				"z": -3.1936816129,
				"element": "C" 
			},
			{
				"x": -0.3046757215,
				"y": -0.0001366653,
				"z": -1.9661865299,
				"element": "C" 
			},
			{
				"x": 0.8853081196,
				"y": -0.2327845587,
				"z": -1.9040161631,
				"element": "O" 
			},
			{
				"x": -1.0511623861,
				"y": 0.5095743356,
				"z": -0.9642333558,
				"element": "O" 
			},
			{
				"x": -0.4620677851,
				"y": 0.8223985589,
				"z": 0.345950446,
				"element": "C" 
			},
			{
				"x": 0.6802486009,
				"y": 1.8317973194,
				"z": 0.2438016478,
				"element": "C" 
			},
			{
				"x": -0.1679701498,
				"y": -0.4353316179,
				"z": 1.1475595673,
				"element": "C" 
			},
			{
				"x": -1.1264391719,
				"y": -0.8802393183,
				"z": 2.0684048791,
				"element": "C" 
			},
			{
				"x": -0.9074679801,
				"y": -2.021029333,
				"z": 2.8415165064,
				"element": "C" 
			},
			{
				"x": 0.2825969553,
				"y": -2.7358300019,
				"z": 2.7026409806,
				"element": "C" 
			},
			{
				"x": 1.2448549806,
				"y": -2.3030763324,
				"z": 1.7876096808,
				"element": "C" 
			},
			{
				"x": 1.0244401682,
				"y": -1.1624818801,
				"z": 1.0151833975,
				"element": "C" 
			},
			{
				"x": -2.5291774146,
				"y": 0.7334915932,
				"z": -4.5641567399,
				"element": "H" 
			},
			{
				"x": -1.2604489141,
				"y": 1.7948368934,
				"z": -3.9389605439,
				"element": "H" 
			},
			{
				"x": -2.6197130746,
				"y": 1.3383126256,
				"z": -2.8996744866,
				"element": "H" 
			},
			{
				"x": -1.8672921724,
				"y": -1.0585121218,
				"z": -2.9423913064,
				"element": "H" 
			},
			{
				"x": -0.4932781203,
				"y": -0.6320441123,
				"z": -3.9705737426,
				"element": "H" 
			},
			{
				"x": -1.3073642684,
				"y": 1.3210619911,
				"z": 0.8285496833,
				"element": "H" 
			},
			{
				"x": 0.3560141145,
				"y": 2.6996160493,
				"z": -0.3388756947,
				"element": "H" 
			},
			{
				"x": 1.5654575906,
				"y": 1.4089489843,
				"z": -0.2287623094,
				"element": "H" 
			},
			{
				"x": 0.9423263005,
				"y": 2.1745585369,
				"z": 1.2496958505,
				"element": "H" 
			},
			{
				"x": -2.0541780378,
				"y": -0.3242870818,
				"z": 2.1827495588,
				"element": "H" 
			},
			{
				"x": -1.6624926222,
				"y": -2.3472484198,
				"z": 3.5512173895,
				"element": "H" 
			},
			{
				"x": 0.459924611,
				"y": -3.6237513947,
				"z": 3.3029891788,
				"element": "H" 
			},
			{
				"x": 2.1723759947,
				"y": -2.8568947171,
				"z": 1.6723497799,
				"element": "H" 
			},
			{
				"x": 1.7654976978,
				"y": -0.8487834731,
				"z": 0.2902094389,
				"element": "H" 
			}
		],
		 "valence_orbital": [ 
			{
				"type": "occ",
				"energy": -0.32767,
				"method": "rhf"
			},
			{
				"type": "occ",
				"energy": -0.29257,
				"method": "rhf"
			},
			{
				"type": "occ",
				"energy": -0.26081,
				"method": "rhf"
			},
			{
				"type": "occ",
				"energy": -0.24846,
				"method": "rhf"
			},
			{
				"type": "occ",
				"energy": -0.24457,
				"method": "rhf"
			},
			{
				"type": "unocc",
				"energy": -0.00807,
				"method": "rhf"
			},
			{
				"type": "unocc",
				"energy": 0.00071,
				"method": "rhf"
			},
			{
				"type": "unocc",
				"energy": 0.01584,
				"method": "rhf"
			},
			{
				"type": "unocc",
				"energy": 0.09245,
				"method": "rhf"
			},
			{
				"type": "unocc",
				"energy": 0.10309,
				"method": "rhf"
			}
		],
		"cosmo_sigma_profile": { 
			"-0.025": 0.0,
			"-0.024": 0.0,
			"-0.023": 0.0,
			"-0.022": 0.0,
			"-0.021": 0.0,
			"-0.02": 0.0,
			"-0.019": 0.0,
			"-0.018": 0.0,
			"-0.017": 0.0,
			"-0.016": 0.0,
			"-0.015": 0.0,
			"-0.014": 0.0,
			"-0.013": 0.0,
			"-0.012": 0.0,
			"-0.011": 0.0,
			"-0.01": 0.0,
			"-0.009": 0.0,
			"-0.008": 0.0,
			"-0.007": 0.380451848933,
			"-0.006": 8.1021171031,
			"-0.005": 15.2017980576,
			"-0.004": 22.5760294886,
			"-0.003": 28.2983925669,
			"-0.002": 25.6796864884,
			"-0.001": 25.2419036751,
			"0.0": 21.7639351595,
			"0.001": 16.2216516604,
			"0.002": 11.3060534423,
			"0.003": 10.992559844,
			"0.004": 13.148727551,
			"0.005": 13.5476561888,
			"0.006": 8.74362176015,
			"0.007": 2.5251131511,
			"0.008": 2.65873753244,
			"0.009": 1.28847110452,
			"0.01": 1.36574791898,
			"0.011": 2.16855900983,
			"0.012": 1.77825971311,
			"0.013": 1.80436115332,
			"0.014": 0.152672702961,
			"0.015": 0.0,
			"0.016": 0.0,
			"0.017": 0.0,
			"0.018": 0.0,
			"0.019": 0.0,
			"0.02": 0.0,
			"0.021": 0.0,
			"0.022": 0.0,
			"0.023": 0.0,
			"0.024": 0.0,
			"0.025": 0.0
		}
	}
}
