{
	 "smiles": "COC1=CC(CC=C)=C(OC)C(OC)=C1OC", 
	 "Tm": 298.15, 
	 "num_atms": 35, 
	 "gaussian": { 
		 "optdone": 1, 
		 "sigma_profile": "yes", 
		 "theory": "DFT", 
		 "functional": "B3LYP", 
		 "basiset": "6-31G**", 
		 "properties": { 
			 "R2extent": 4668.9567, 
			 "electric_dipole_moment_norm": 2.42054424459, 
			 "electric_quadrupole_moment_norm": 2.8850539683, 
			 "total_energy": -807.033041638, 
			 "HOMO_LUMO_gap": 0.20601, 
			 "cosmo_polarized_energy": -9.34, 
			 "cosmo_cavitation_energy": 37.79, 
			 "cosmo_dispersion_energy": -25.32, 
			 "cosmo_repulsion_energy": 2.0, 
			 "cosmo_total_nonelectrostatic_energy": 14.47, 
			 "SMD_solvation_energy": 9.85 
		},
		"coords": [
			{
				"x": 3.3352084888,
				"y": 1.3957841584,
				"z": -2.8266983735,
				"element": "C" 
			},
			{
				"x": 1.9728080037,
				"y": 1.8077302111,
				"z": -2.6825738168,
				"element": "O" 
			},
			{
				"x": 1.2173109288,
				"y": 1.0313335159,
				"z": -1.8293395472,
				"element": "C" 
			},
			{
				"x": 0.1759228463,
				"y": 0.2628407572,
				"z": -2.3453696214,
				"element": "C" 
			},
			{
				"x": -0.6568137215,
				"y": -0.4890881087,
				"z": -1.5142381042,
				"element": "C" 
			},
			{
				"x": -1.8107837843,
				"y": -1.2875807871,
				"z": -2.0930905008,
				"element": "C" 
			},
			{
				"x": -3.1146196482,
				"y": -0.5221113779,
				"z": -2.0725255511,
				"element": "C" 
			},
			{
				"x": -4.2181822,
				"y": -0.9090797209,
				"z": -1.4343252769,
				"element": "C" 
			},
			{
				"x": -0.4259443094,
				"y": -0.4832099984,
				"z": -0.1240883126,
				"element": "C" 
			},
			{
				"x": -1.3029019251,
				"y": -1.2079043075,
				"z": 0.6376795728,
				"element": "O" 
			},
			{
				"x": -0.8280104459,
				"y": -1.9552129915,
				"z": 1.7555310442,
				"element": "C" 
			},
			{
				"x": 0.6167381345,
				"y": 0.3003506467,
				"z": 0.4128724446,
				"element": "C" 
			},
			{
				"x": 0.7570773262,
				"y": 0.3950040872,
				"z": 1.7786995901,
				"element": "O" 
			},
			{
				"x": 1.999226155,
				"y": -0.0631344027,
				"z": 2.326097137,
				"element": "C" 
			},
			{
				"x": 1.4320064707,
				"y": 1.0610254166,
				"z": -0.4448309245,
				"element": "C" 
			},
			{
				"x": 2.4347662554,
				"y": 1.8428147832,
				"z": 0.0923822885,
				"element": "O" 
			},
			{
				"x": 2.0926593207,
				"y": 3.2324682391,
				"z": 0.1866085614,
				"element": "C" 
			},
			{
				"x": 3.3943448273,
				"y": 0.3777557443,
				"z": -3.2332519625,
				"element": "H" 
			},
			{
				"x": 3.8681210049,
				"y": 1.4385297049,
				"z": -1.871710575,
				"element": "H" 
			},
			{
				"x": 3.792547518,
				"y": 2.0912607484,
				"z": -3.5340011604,
				"element": "H" 
			},
			{
				"x": 0.0233612362,
				"y": 0.2623608432,
				"z": -3.4205746893,
				"element": "H" 
			},
			{
				"x": -1.9322069142,
				"y": -2.2223468031,
				"z": -1.5388883053,
				"element": "H" 
			},
			{
				"x": -1.5633677127,
				"y": -1.5458111401,
				"z": -3.131452616,
				"element": "H" 
			},
			{
				"x": -3.1162008019,
				"y": 0.4173393379,
				"z": -2.6261627722,
				"element": "H" 
			},
			{
				"x": -5.1281825458,
				"y": -0.3164237446,
				"z": -1.457771111,
				"element": "H" 
			},
			{
				"x": -4.2484341212,
				"y": -1.8306893582,
				"z": -0.8585304676,
				"element": "H" 
			},
			{
				"x": -0.6960703783,
				"y": -1.3247146979,
				"z": 2.6370875969,
				"element": "H" 
			},
			{
				"x": -1.591818446,
				"y": -2.7116095456,
				"z": 1.9535671922,
				"element": "H" 
			},
			{
				"x": 0.1190656818,
				"y": -2.4595328688,
				"z": 1.525100961,
				"element": "H" 
			},
			{
				"x": 2.1462690286,
				"y": -1.1319975066,
				"z": 2.1225128007,
				"element": "H" 
			},
			{
				"x": 1.9265618251,
				"y": 0.0886715727,
				"z": 3.4052951824,
				"element": "H" 
			},
			{
				"x": 2.8421900206,
				"y": 0.505434668,
				"z": 1.927947701,
				"element": "H" 
			},
			{
				"x": 1.2228907124,
				"y": 3.373958205,
				"z": 0.8383695134,
				"element": "H" 
			},
			{
				"x": 1.8859946279,
				"y": 3.6497156176,
				"z": -0.8042293677,
				"element": "H" 
			},
			{
				"x": 2.9595665415,
				"y": 3.7336691023,
				"z": 0.6228014697,
				"element": "H" 
			}
		],
		 "valence_orbital": [ 
			{
				"type": "occ",
				"energy": -0.27651,
				"method": "rhf"
			},
			{
				"type": "occ",
				"energy": -0.2562,
				"method": "rhf"
			},
			{
				"type": "occ",
				"energy": -0.24576,
				"method": "rhf"
			},
			{
				"type": "occ",
				"energy": -0.22311,
				"method": "rhf"
			},
			{
				"type": "occ",
				"energy": -0.20525,
				"method": "rhf"
			},
			{
				"type": "unocc",
				"energy": 0.00076,
				"method": "rhf"
			},
			{
				"type": "unocc",
				"energy": 0.015,
				"method": "rhf"
			},
			{
				"type": "unocc",
				"energy": 0.03751,
				"method": "rhf"
			},
			{
				"type": "unocc",
				"energy": 0.06984,
				"method": "rhf"
			},
			{
				"type": "unocc",
				"energy": 0.10164,
				"method": "rhf"
			}
		],
		"cosmo_sigma_profile": { 
			"-0.025": 0.0,
			"-0.024": 0.0,
			"-0.023": 0.0,
			"-0.022": 0.0,
			"-0.021": 0.0,
			"-0.02": 0.0,
			"-0.019": 0.0,
			"-0.018": 0.0,
			"-0.017": 0.0,
			"-0.016": 0.0,
			"-0.015": 0.0,
			"-0.014": 0.0,
			"-0.013": 0.0,
			"-0.012": 0.0,
			"-0.011": 0.0,
			"-0.01": 0.0,
			"-0.009": 0.0,
			"-0.008": 0.0,
			"-0.007": 0.0,
			"-0.006": 3.40242215647,
			"-0.005": 19.2228640631,
			"-0.004": 31.5568020155,
			"-0.003": 40.623792294,
			"-0.002": 43.1264794786,
			"-0.001": 24.8568082719,
			"0.0": 21.4972215518,
			"0.001": 18.3795899412,
			"0.002": 18.6850127684,
			"0.003": 17.465622785,
			"0.004": 17.0672786497,
			"0.005": 11.3120692772,
			"0.006": 7.61722796236,
			"0.007": 7.12917123322,
			"0.008": 5.06827923028,
			"0.009": 3.24606141265,
			"0.01": 3.25151113229,
			"0.011": 2.97789522989,
			"0.012": 1.28832478902,
			"0.013": 0.0767343813726,
			"0.014": 0.0,
			"0.015": 0.0,
			"0.016": 0.0,
			"0.017": 0.0,
			"0.018": 0.0,
			"0.019": 0.0,
			"0.02": 0.0,
			"0.021": 0.0,
			"0.022": 0.0,
			"0.023": 0.0,
			"0.024": 0.0,
			"0.025": 0.0
		}
	}
}
