{
	 "smiles": "CCCCC1=CC=CC=N1", 
	 "Tm": 370.15, 
	 "num_atms": 23, 
	 "gaussian": { 
		 "optdone": 1, 
		 "sigma_profile": "yes", 
		 "theory": "DFT", 
		 "functional": "B3LYP", 
		 "basiset": "6-31G**", 
		 "properties": { 
			 "R2extent": 2322.9168, 
			 "electric_dipole_moment_norm": 1.781595316, 
			 "electric_quadrupole_moment_norm": 8.3295465903, 
			 "total_energy": -405.556376155, 
			 "HOMO_LUMO_gap": 0.22745, 
			 "cosmo_polarized_energy": -5.55, 
			 "cosmo_cavitation_energy": 25.57, 
			 "cosmo_dispersion_energy": -18.4, 
			 "cosmo_repulsion_energy": 1.52, 
			 "cosmo_total_nonelectrostatic_energy": 8.69, 
			 "SMD_solvation_energy": 3.08 
		},
		"coords": [
			{
				"x": 0.6212000491,
				"y": -2.4934720039,
				"z": -0.4469610145,
				"element": "C" 
			},
			{
				"x": -0.4548087407,
				"y": -1.4617854576,
				"z": -0.0933157971,
				"element": "C" 
			},
			{
				"x": -0.0510336538,
				"y": -0.5646341209,
				"z": 1.083349995,
				"element": "C" 
			},
			{
				"x": -1.1081814632,
				"y": 0.4940519701,
				"z": 1.4717079541,
				"element": "C" 
			},
			{
				"x": -1.3174776844,
				"y": 1.5607722821,
				"z": 0.4196855488,
				"element": "C" 
			},
			{
				"x": -0.4822185014,
				"y": 2.6869503248,
				"z": 0.3556841828,
				"element": "C" 
			},
			{
				"x": -0.6907849753,
				"y": 3.6364421287,
				"z": -0.6408533083,
				"element": "C" 
			},
			{
				"x": -1.7300416728,
				"y": 3.4375175742,
				"z": -1.5499306764,
				"element": "C" 
			},
			{
				"x": -2.5093755321,
				"y": 2.2897674488,
				"z": -1.4104083377,
				"element": "C" 
			},
			{
				"x": -2.3194131288,
				"y": 1.3694899213,
				"z": -0.4564657516,
				"element": "N" 
			},
			{
				"x": 0.3068495355,
				"y": -3.1278389173,
				"z": -1.2822461158,
				"element": "H" 
			},
			{
				"x": 1.5596188087,
				"y": -2.0058849989,
				"z": -0.7360135004,
				"element": "H" 
			},
			{
				"x": 0.8403493767,
				"y": -3.1494152181,
				"z": 0.4037990632,
				"element": "H" 
			},
			{
				"x": -1.3929247138,
				"y": -1.9758049756,
				"z": 0.1543566127,
				"element": "H" 
			},
			{
				"x": -0.6778134633,
				"y": -0.8427517781,
				"z": -0.969783702,
				"element": "H" 
			},
			{
				"x": 0.8967579765,
				"y": -0.0588001056,
				"z": 0.8509658053,
				"element": "H" 
			},
			{
				"x": 0.1464445972,
				"y": -1.1921967919,
				"z": 1.9630142768,
				"element": "H" 
			},
			{
				"x": -0.8000240295,
				"y": 0.9703347827,
				"z": 2.4103959041,
				"element": "H" 
			},
			{
				"x": -2.0690639043,
				"y": 0.0009713098,
				"z": 1.6517735319,
				"element": "H" 
			},
			{
				"x": 0.3144786989,
				"y": 2.8121478096,
				"z": 1.0836072675,
				"element": "H" 
			},
			{
				"x": -0.0578808002,
				"y": 4.5173654099,
				"z": -0.7046482994,
				"element": "H" 
			},
			{
				"x": -1.9352189758,
				"y": 4.1506953438,
				"z": -2.34204078,
				"element": "H" 
			},
			{
				"x": -3.3322378032,
				"y": 2.0984780621,
				"z": -2.0978728592,
				"element": "H" 
			}
		],
		 "valence_orbital": [ 
			{
				"type": "occ",
				"energy": -0.31855,
				"method": "rhf"
			},
			{
				"type": "occ",
				"energy": -0.31729,
				"method": "rhf"
			},
			{
				"type": "occ",
				"energy": -0.28072,
				"method": "rhf"
			},
			{
				"type": "occ",
				"energy": -0.24975,
				"method": "rhf"
			},
			{
				"type": "occ",
				"energy": -0.24668,
				"method": "rhf"
			},
			{
				"type": "unocc",
				"energy": -0.01923,
				"method": "rhf"
			},
			{
				"type": "unocc",
				"energy": -0.00718,
				"method": "rhf"
			},
			{
				"type": "unocc",
				"energy": 0.09473,
				"method": "rhf"
			},
			{
				"type": "unocc",
				"energy": 0.10539,
				"method": "rhf"
			},
			{
				"type": "unocc",
				"energy": 0.12222,
				"method": "rhf"
			}
		],
		"cosmo_sigma_profile": { 
			"-0.025": 0.0,
			"-0.024": 0.0,
			"-0.023": 0.0,
			"-0.022": 0.0,
			"-0.021": 0.0,
			"-0.02": 0.0,
			"-0.019": 0.0,
			"-0.018": 0.0,
			"-0.017": 0.0,
			"-0.016": 0.0,
			"-0.015": 0.0,
			"-0.014": 0.0,
			"-0.013": 0.0,
			"-0.012": 0.0,
			"-0.011": 0.0,
			"-0.01": 0.0,
			"-0.009": 0.0,
			"-0.008": 0.0,
			"-0.007": 1.48303931985,
			"-0.006": 7.87536011581,
			"-0.005": 9.73178463845,
			"-0.004": 11.3936598179,
			"-0.003": 13.0318862395,
			"-0.002": 23.6824573177,
			"-0.001": 25.9476966472,
			"0.0": 29.1784105344,
			"0.001": 24.8129554428,
			"0.002": 17.0148723456,
			"0.003": 14.0642628793,
			"0.004": 8.37880346172,
			"0.005": 2.37225221239,
			"0.006": 1.72715576345,
			"0.007": 1.31911260419,
			"0.008": 1.22189638285,
			"0.009": 1.58496429085,
			"0.01": 0.838821422601,
			"0.011": 0.904360521665,
			"0.012": 0.984571312143,
			"0.013": 0.87195781374,
			"0.014": 0.554864540656,
			"0.015": 0.642431010522,
			"0.016": 0.766476420109,
			"0.017": 0.256325794634,
			"0.018": 0.0,
			"0.019": 0.0,
			"0.02": 0.0,
			"0.021": 0.0,
			"0.022": 0.0,
			"0.023": 0.0,
			"0.024": 0.0,
			"0.025": 0.0
		}
	}
}
