{
	 "smiles": "CCC1=C(C)C=C(S1)C(O)=O", 
	 "Tm": 372.15, 
	 "num_atms": 21, 
	 "gaussian": { 
		 "optdone": 1, 
		 "sigma_profile": "yes", 
		 "theory": "DFT", 
		 "functional": "B3LYP", 
		 "basiset": "6-31G**", 
		 "properties": { 
			 "R2extent": 2842.3794, 
			 "electric_dipole_moment_norm": 5.59233305965, 
			 "electric_quadrupole_moment_norm": 13.1786721368, 
			 "total_energy": -859.522725862, 
			 "HOMO_LUMO_gap": 0.18571, 
			 "cosmo_polarized_energy": -12.72, 
			 "cosmo_cavitation_energy": 26.32, 
			 "cosmo_dispersion_energy": -19.36, 
			 "cosmo_repulsion_energy": 1.53, 
			 "cosmo_total_nonelectrostatic_energy": 8.48, 
			 "SMD_solvation_energy": 5.5 
		},
		"coords": [
			{
				"x": 0.499702871,
				"y": -3.9475268972,
				"z": 1.3118695026,
				"element": "C" 
			},
			{
				"x": 1.6495597647,
				"y": -3.0506199982,
				"z": 0.8154980179,
				"element": "C" 
			},
			{
				"x": 1.3771711409,
				"y": -1.5793879051,
				"z": 0.9788509269,
				"element": "C" 
			},
			{
				"x": 1.634820308,
				"y": -0.7576683975,
				"z": 2.0583739388,
				"element": "C" 
			},
			{
				"x": 2.2971941547,
				"y": -1.1947594174,
				"z": 3.3395908345,
				"element": "C" 
			},
			{
				"x": 1.1882883641,
				"y": 0.5791978374,
				"z": 1.8398506482,
				"element": "C" 
			},
			{
				"x": 0.5906443462,
				"y": 0.7833611156,
				"z": 0.6221780449,
				"element": "C" 
			},
			{
				"x": 0.5849157978,
				"y": -0.6993236757,
				"z": -0.3047829929,
				"element": "S" 
			},
			{
				"x": 0.0495138676,
				"y": 2.0810040724,
				"z": 0.1626394107,
				"element": "C" 
			},
			{
				"x": -0.6361489982,
				"y": 2.0970174726,
				"z": -1.0133167792,
				"element": "O" 
			},
			{
				"x": 0.1965554787,
				"y": 3.1055243346,
				"z": 0.7889272453,
				"element": "O" 
			},
			{
				"x": 0.3010972286,
				"y": -3.7796589786,
				"z": 2.3746230997,
				"element": "H" 
			},
			{
				"x": 0.7492031708,
				"y": -5.0044846331,
				"z": 1.1737628852,
				"element": "H" 
			},
			{
				"x": -0.4238925205,
				"y": -3.7409736894,
				"z": 0.7626024482,
				"element": "H" 
			},
			{
				"x": 1.8556403108,
				"y": -3.2725128156,
				"z": -0.237816567,
				"element": "H" 
			},
			{
				"x": 2.5672033654,
				"y": -3.2985100295,
				"z": 1.3609870315,
				"element": "H" 
			},
			{
				"x": 2.7998223523,
				"y": -2.1593125571,
				"z": 3.2351500463,
				"element": "H" 
			},
			{
				"x": 3.0438059137,
				"y": -0.4617353255,
				"z": 3.6614738464,
				"element": "H" 
			},
			{
				"x": 1.5663911804,
				"y": -1.2907130541,
				"z": 4.1514092782,
				"element": "H" 
			},
			{
				"x": 1.2981071824,
				"y": 1.3861607561,
				"z": 2.5555034413,
				"element": "H" 
			},
			{
				"x": -0.7614952794,
				"y": 1.2038217852,
				"z": -1.3645743075,
				"element": "H" 
			}
		],
		 "valence_orbital": [ 
			{
				"type": "occ",
				"energy": -0.34927,
				"method": "rhf"
			},
			{
				"type": "occ",
				"energy": -0.31222,
				"method": "rhf"
			},
			{
				"type": "occ",
				"energy": -0.27164,
				"method": "rhf"
			},
			{
				"type": "occ",
				"energy": -0.26064,
				"method": "rhf"
			},
			{
				"type": "occ",
				"energy": -0.23994,
				"method": "rhf"
			},
			{
				"type": "unocc",
				"energy": -0.05423,
				"method": "rhf"
			},
			{
				"type": "unocc",
				"energy": -0.00455,
				"method": "rhf"
			},
			{
				"type": "unocc",
				"energy": 0.02891,
				"method": "rhf"
			},
			{
				"type": "unocc",
				"energy": 0.06198,
				"method": "rhf"
			},
			{
				"type": "unocc",
				"energy": 0.08263,
				"method": "rhf"
			}
		],
		"cosmo_sigma_profile": { 
			"-0.025": 0.0,
			"-0.024": 0.0,
			"-0.023": 0.0,
			"-0.022": 0.0,
			"-0.021": 0.0,
			"-0.02": 0.0,
			"-0.019": 0.0,
			"-0.018": 0.209099648385,
			"-0.017": 0.861596462837,
			"-0.016": 0.61689385058,
			"-0.015": 0.846786095496,
			"-0.014": 1.05667434952,
			"-0.013": 0.513024192634,
			"-0.012": 1.37267524958,
			"-0.011": 1.2342830766,
			"-0.01": 0.705465072864,
			"-0.009": 0.567067175548,
			"-0.008": 1.13602231471,
			"-0.007": 2.1437643058,
			"-0.006": 4.83403054129,
			"-0.005": 9.70427902813,
			"-0.004": 15.3298163299,
			"-0.003": 20.1734304458,
			"-0.002": 24.9391731639,
			"-0.001": 24.2135038785,
			"0.0": 20.8070539577,
			"0.001": 16.0414100635,
			"0.002": 12.1454760458,
			"0.003": 15.5840612476,
			"0.004": 4.79114634442,
			"0.005": 2.1116209873,
			"0.006": 2.39054835886,
			"0.007": 2.3842847657,
			"0.008": 2.71338135367,
			"0.009": 3.1227625439,
			"0.01": 4.39245734826,
			"0.011": 5.13320821333,
			"0.012": 5.91299168832,
			"0.013": 2.07876951512,
			"0.014": 0.130557062549,
			"0.015": 0.0,
			"0.016": 0.0,
			"0.017": 0.0,
			"0.018": 0.0,
			"0.019": 0.0,
			"0.02": 0.0,
			"0.021": 0.0,
			"0.022": 0.0,
			"0.023": 0.0,
			"0.024": 0.0,
			"0.025": 0.0
		}
	}
}
