{
	 "smiles": "CC1=NC2=NC=NN2C(C)=C1CCC(O)=O", 
	 "Tm": 498.15, 
	 "num_atms": 28, 
	 "gaussian": { 
		 "optdone": 1, 
		 "sigma_profile": "yes", 
		 "theory": "DFT", 
		 "functional": "B3LYP", 
		 "basiset": "6-31G**", 
		 "properties": { 
			 "R2extent": 3957.8852, 
			 "electric_dipole_moment_norm": 5.84649114085, 
			 "electric_quadrupole_moment_norm": 12.5113325373, 
			 "total_energy": -757.762641087, 
			 "HOMO_LUMO_gap": 0.19223, 
			 "cosmo_polarized_energy": -20.68, 
			 "cosmo_cavitation_energy": 31.29, 
			 "cosmo_dispersion_energy": -22.27, 
			 "cosmo_repulsion_energy": 1.71, 
			 "cosmo_total_nonelectrostatic_energy": 10.73, 
			 "SMD_solvation_energy": 2.43 
		},
		"coords": [
			{
				"x": -1.1945475052,
				"y": -2.8756795324,
				"z": 1.0581353455,
				"element": "C" 
			},
			{
				"x": 0.0319898716,
				"y": -2.2492362022,
				"z": 0.4385871123,
				"element": "C" 
			},
			{
				"x": 0.6373285416,
				"y": -2.9839559009,
				"z": -0.4806430978,
				"element": "N" 
			},
			{
				"x": 1.7484055827,
				"y": -2.4801069348,
				"z": -1.0377811066,
				"element": "C" 
			},
			{
				"x": 2.5466990754,
				"y": -3.0005268828,
				"z": -1.9720084621,
				"element": "N" 
			},
			{
				"x": 3.4943468465,
				"y": -2.0499659163,
				"z": -2.1135129268,
				"element": "C" 
			},
			{
				"x": 3.38299931,
				"y": -0.9565932314,
				"z": -1.3519798557,
				"element": "N" 
			},
			{
				"x": 2.2492921271,
				"y": -1.2366190521,
				"z": -0.656308029,
				"element": "N" 
			},
			{
				"x": 1.6520632809,
				"y": -0.4457335631,
				"z": 0.2856827675,
				"element": "C" 
			},
			{
				"x": 2.346187822,
				"y": 0.851565567,
				"z": 0.5668729649,
				"element": "C" 
			},
			{
				"x": 0.4978182303,
				"y": -0.9507679102,
				"z": 0.8623716465,
				"element": "C" 
			},
			{
				"x": -0.2647662003,
				"y": -0.1808579632,
				"z": 1.9236811928,
				"element": "C" 
			},
			{
				"x": -1.46603462,
				"y": 0.6443894802,
				"z": 1.3894729204,
				"element": "C" 
			},
			{
				"x": -1.0589576707,
				"y": 1.8331340433,
				"z": 0.5470872722,
				"element": "C" 
			},
			{
				"x": -0.4258444799,
				"y": 2.7799651518,
				"z": 1.2926768592,
				"element": "O" 
			},
			{
				"x": -1.2497292934,
				"y": 1.9649405257,
				"z": -0.639754924,
				"element": "O" 
			},
			{
				"x": -2.0808026201,
				"y": -2.240692638,
				"z": 0.9582053809,
				"element": "H" 
			},
			{
				"x": -1.0497237836,
				"y": -3.0644322846,
				"z": 2.1286988441,
				"element": "H" 
			},
			{
				"x": -1.3865388624,
				"y": -3.8271029896,
				"z": 0.5620275168,
				"element": "H" 
			},
			{
				"x": 4.319284008,
				"y": -2.1468563486,
				"z": -2.8073777683,
				"element": "H" 
			},
			{
				"x": 1.7856875309,
				"y": 1.4804825774,
				"z": 1.2550064747,
				"element": "H" 
			},
			{
				"x": 2.5001339322,
				"y": 1.3935335509,
				"z": -0.3712372448,
				"element": "H" 
			},
			{
				"x": 3.3438375931,
				"y": 0.658520378,
				"z": 0.9759768327,
				"element": "H" 
			},
			{
				"x": 0.4032123846,
				"y": 0.4867134938,
				"z": 2.4725351604,
				"element": "H" 
			},
			{
				"x": -0.6558637987,
				"y": -0.8849203764,
				"z": 2.663450075,
				"element": "H" 
			},
			{
				"x": -2.1226581388,
				"y": 0.02747391,
				"z": 0.7737941608,
				"element": "H" 
			},
			{
				"x": -2.0397057289,
				"y": 1.0171183287,
				"z": 2.2453684265,
				"element": "H" 
			},
			{
				"x": -0.200113435,
				"y": 3.4997107197,
				"z": 0.679172462,
				"element": "H" 
			}
		],
		 "valence_orbital": [ 
			{
				"type": "occ",
				"energy": -0.28729,
				"method": "rhf"
			},
			{
				"type": "occ",
				"energy": -0.27516,
				"method": "rhf"
			},
			{
				"type": "occ",
				"energy": -0.26988,
				"method": "rhf"
			},
			{
				"type": "occ",
				"energy": -0.25921,
				"method": "rhf"
			},
			{
				"type": "occ",
				"energy": -0.24421,
				"method": "rhf"
			},
			{
				"type": "unocc",
				"energy": -0.05198,
				"method": "rhf"
			},
			{
				"type": "unocc",
				"energy": -0.0186,
				"method": "rhf"
			},
			{
				"type": "unocc",
				"energy": -0.00801,
				"method": "rhf"
			},
			{
				"type": "unocc",
				"energy": 0.05188,
				"method": "rhf"
			},
			{
				"type": "unocc",
				"energy": 0.05812,
				"method": "rhf"
			}
		],
		"cosmo_sigma_profile": { 
			"-0.025": 0.0,
			"-0.024": 0.0,
			"-0.023": 0.0,
			"-0.022": 0.0,
			"-0.021": 0.0,
			"-0.02": 0.0,
			"-0.019": 0.004765812646,
			"-0.018": 0.616912688795,
			"-0.017": 1.00109738366,
			"-0.016": 0.590700336579,
			"-0.015": 0.839699796339,
			"-0.014": 0.7031270179,
			"-0.013": 0.837748042347,
			"-0.012": 0.754019277802,
			"-0.011": 0.615001282555,
			"-0.01": 0.999259711814,
			"-0.009": 1.589447382,
			"-0.008": 2.27166216875,
			"-0.007": 8.00780472693,
			"-0.006": 17.3849615917,
			"-0.005": 20.1190124709,
			"-0.004": 23.7167442191,
			"-0.003": 26.274518538,
			"-0.002": 23.7956016037,
			"-0.001": 18.1489371502,
			"0.0": 12.6013176225,
			"0.001": 8.75870394698,
			"0.002": 7.09251721586,
			"0.003": 6.28019553467,
			"0.004": 7.59381060603,
			"0.005": 5.84338369278,
			"0.006": 5.46200786706,
			"0.007": 5.97217132264,
			"0.008": 6.01392209506,
			"0.009": 4.4100987811,
			"0.01": 5.74235590643,
			"0.011": 7.58497926333,
			"0.012": 7.64465121213,
			"0.013": 3.99310674896,
			"0.014": 2.23388939562,
			"0.015": 1.79789289825,
			"0.016": 1.07542312721,
			"0.017": 0.2763272937,
			"0.018": 0.0,
			"0.019": 0.0,
			"0.02": 0.0,
			"0.021": 0.0,
			"0.022": 0.0,
			"0.023": 0.0,
			"0.024": 0.0,
			"0.025": 0.0
		}
	}
}
