{
	 "smiles": "CCOC(=O)C1=CN=CN1C(C)C1=CC=CC=C1", 
	 "Tm": 340.15, 
	 "num_atms": 34, 
	 "gaussian": { 
		 "optdone": 1, 
		 "sigma_profile": "yes", 
		 "theory": "DFT", 
		 "functional": "B3LYP", 
		 "basiset": "6-31G**", 
		 "properties": { 
			 "R2extent": 4615.1397, 
			 "electric_dipole_moment_norm": 2.23892723866, 
			 "electric_quadrupole_moment_norm": 15.3909102128, 
			 "total_energy": -803.09877861, 
			 "HOMO_LUMO_gap": 0.20627, 
			 "cosmo_polarized_energy": -12.47, 
			 "cosmo_cavitation_energy": 36.87, 
			 "cosmo_dispersion_energy": -25.09, 
			 "cosmo_repulsion_energy": 1.96, 
			 "cosmo_total_nonelectrostatic_energy": 13.74, 
			 "SMD_solvation_energy": 5.92 
		},
		"coords": [
			{
				"x": -0.8331204208,
				"y": 3.3719252178,
				"z": 1.9684894693,
				"element": "C" 
			},
			{
				"x": 0.4836520562,
				"y": 3.3576797372,
				"z": 1.2062534626,
				"element": "C" 
			},
			{
				"x": 1.1700963607,
				"y": 2.0947319731,
				"z": 1.3646537884,
				"element": "O" 
			},
			{
				"x": 0.8111753661,
				"y": 1.1030531711,
				"z": 0.514261419,
				"element": "C" 
			},
			{
				"x": -0.0451448156,
				"y": 1.233237507,
				"z": -0.3457456391,
				"element": "O" 
			},
			{
				"x": 1.606696722,
				"y": -0.0959882776,
				"z": 0.7742665563,
				"element": "C" 
			},
			{
				"x": 2.7042238783,
				"y": -0.2421481763,
				"z": 1.6091061985,
				"element": "C" 
			},
			{
				"x": 3.202451554,
				"y": -1.5078437072,
				"z": 1.5551668029,
				"element": "N" 
			},
			{
				"x": 2.4136997491,
				"y": -2.1360765416,
				"z": 0.6989779998,
				"element": "C" 
			},
			{
				"x": 1.4311889449,
				"y": -1.3481552537,
				"z": 0.1833260872,
				"element": "N" 
			},
			{
				"x": 0.4019532918,
				"y": -1.8559433308,
				"z": -0.7574906345,
				"element": "C" 
			},
			{
				"x": 0.5540708038,
				"y": -1.2340828019,
				"z": -2.1483758405,
				"element": "C" 
			},
			{
				"x": -0.9960855618,
				"y": -1.8086350568,
				"z": -0.1389869833,
				"element": "C" 
			},
			{
				"x": -2.056721149,
				"y": -1.1062779702,
				"z": -0.7187704038,
				"element": "C" 
			},
			{
				"x": -3.3274756806,
				"y": -1.1347137428,
				"z": -0.1391048202,
				"element": "C" 
			},
			{
				"x": -3.553476889,
				"y": -1.8604058236,
				"z": 1.029901961,
				"element": "C" 
			},
			{
				"x": -2.4991148008,
				"y": -2.5622709001,
				"z": 1.6192190326,
				"element": "C" 
			},
			{
				"x": -1.2341882,
				"y": -2.5374490935,
				"z": 1.035342177,
				"element": "C" 
			},
			{
				"x": -0.6725827849,
				"y": 3.1442011846,
				"z": 3.0263489163,
				"element": "H" 
			},
			{
				"x": -1.2938539016,
				"y": 4.3628813502,
				"z": 1.8956068323,
				"element": "H" 
			},
			{
				"x": -1.5261472078,
				"y": 2.6383754925,
				"z": 1.5497047505,
				"element": "H" 
			},
			{
				"x": 0.3244581901,
				"y": 3.5439429675,
				"z": 0.1414432353,
				"element": "H" 
			},
			{
				"x": 1.1842649519,
				"y": 4.0964937663,
				"z": 1.6028948089,
				"element": "H" 
			},
			{
				"x": 3.1453038195,
				"y": 0.5240601843,
				"z": 2.2305676424,
				"element": "H" 
			},
			{
				"x": 2.5072595224,
				"y": -3.1755723914,
				"z": 0.4118758852,
				"element": "H" 
			},
			{
				"x": 0.660711681,
				"y": -2.9175780402,
				"z": -0.8501071475,
				"element": "H" 
			},
			{
				"x": 0.3461477925,
				"y": -0.1644274044,
				"z": -2.1282492195,
				"element": "H" 
			},
			{
				"x": 1.5750926889,
				"y": -1.3900172983,
				"z": -2.507985356,
				"element": "H" 
			},
			{
				"x": -0.131161456,
				"y": -1.7213762258,
				"z": -2.8483027219,
				"element": "H" 
			},
			{
				"x": -1.8949361543,
				"y": -0.5217795636,
				"z": -1.6163087172,
				"element": "H" 
			},
			{
				"x": -4.1394578459,
				"y": -0.5818174793,
				"z": -0.602807929,
				"element": "H" 
			},
			{
				"x": -4.5420828031,
				"y": -1.880115846,
				"z": 1.4795895413,
				"element": "H" 
			},
			{
				"x": -2.6625220067,
				"y": -3.1319365383,
				"z": 2.529599604,
				"element": "H" 
			},
			{
				"x": -0.4187756955,
				"y": -3.0867710882,
				"z": 1.5001392415,
				"element": "H" 
			}
		],
		 "valence_orbital": [ 
			{
				"type": "occ",
				"energy": -0.27891,
				"method": "rhf"
			},
			{
				"type": "occ",
				"energy": -0.26432,
				"method": "rhf"
			},
			{
				"type": "occ",
				"energy": -0.24979,
				"method": "rhf"
			},
			{
				"type": "occ",
				"energy": -0.2455,
				"method": "rhf"
			},
			{
				"type": "occ",
				"energy": -0.23698,
				"method": "rhf"
			},
			{
				"type": "unocc",
				"energy": -0.03071,
				"method": "rhf"
			},
			{
				"type": "unocc",
				"energy": -0.00893,
				"method": "rhf"
			},
			{
				"type": "unocc",
				"energy": -0.00077,
				"method": "rhf"
			},
			{
				"type": "unocc",
				"energy": 0.04459,
				"method": "rhf"
			},
			{
				"type": "unocc",
				"energy": 0.086,
				"method": "rhf"
			}
		],
		"cosmo_sigma_profile": { 
			"-0.025": 0.0,
			"-0.024": 0.0,
			"-0.023": 0.0,
			"-0.022": 0.0,
			"-0.021": 0.0,
			"-0.02": 0.0,
			"-0.019": 0.0,
			"-0.018": 0.0,
			"-0.017": 0.0,
			"-0.016": 0.0,
			"-0.015": 0.0,
			"-0.014": 0.0,
			"-0.013": 0.0,
			"-0.012": 0.0,
			"-0.011": 0.00581225451481,
			"-0.01": 1.87768358484,
			"-0.009": 3.37821141866,
			"-0.008": 2.52282704346,
			"-0.007": 4.75841936954,
			"-0.006": 8.45792190751,
			"-0.005": 18.4861682801,
			"-0.004": 29.1414457447,
			"-0.003": 30.4255665047,
			"-0.002": 26.0121368565,
			"-0.001": 24.7506621503,
			"0.0": 28.5845328432,
			"0.001": 21.9666955573,
			"0.002": 15.0974135728,
			"0.003": 15.7843677094,
			"0.004": 13.034242445,
			"0.005": 14.3519517876,
			"0.006": 10.7047064986,
			"0.007": 4.16896560804,
			"0.008": 4.18196205034,
			"0.009": 2.77752468974,
			"0.01": 2.27339878042,
			"0.011": 2.68324566489,
			"0.012": 1.7194185992,
			"0.013": 1.43433184867,
			"0.014": 1.46630825181,
			"0.015": 0.462941570614,
			"0.016": 1.37745500604,
			"0.017": 0.790569917671,
			"0.018": 0.051598881956,
			"0.019": 0.0,
			"0.02": 0.0,
			"0.021": 0.0,
			"0.022": 0.0,
			"0.023": 0.0,
			"0.024": 0.0,
			"0.025": 0.0
		}
	}
}
