{
	 "smiles": "CC1=CC=C(C=C1)C(=S)N1CCCCC1", 
	 "Tm": 366.15, 
	 "num_atms": 32, 
	 "gaussian": { 
		 "optdone": 1, 
		 "sigma_profile": "yes", 
		 "theory": "DFT", 
		 "functional": "B3LYP", 
		 "basiset": "6-31G**", 
		 "properties": { 
			 "R2extent": 5089.5578, 
			 "electric_dipole_moment_norm": 5.17191008526, 
			 "electric_quadrupole_moment_norm": 17.7825997998, 
			 "total_energy": -958.584126951, 
			 "HOMO_LUMO_gap": 0.15212, 
			 "cosmo_polarized_energy": -13.05, 
			 "cosmo_cavitation_energy": 34.5, 
			 "cosmo_dispersion_energy": -25.1, 
			 "cosmo_repulsion_energy": 1.94, 
			 "cosmo_total_nonelectrostatic_energy": 11.34, 
			 "SMD_solvation_energy": 3.66 
		},
		"coords": [
			{
				"x": 1.9150707542,
				"y": -1.5502790928,
				"z": 5.555634914,
				"element": "C" 
			},
			{
				"x": 1.5781843439,
				"y": -0.8284353099,
				"z": 4.272841092,
				"element": "C" 
			},
			{
				"x": 1.3589512253,
				"y": 0.5573906623,
				"z": 4.2627260935,
				"element": "C" 
			},
			{
				"x": 1.0900274755,
				"y": 1.2381117535,
				"z": 3.0795104826,
				"element": "C" 
			},
			{
				"x": 0.9995351123,
				"y": 0.5460200152,
				"z": 1.8623374229,
				"element": "C" 
			},
			{
				"x": 1.2105567002,
				"y": -0.8413818029,
				"z": 1.8672076451,
				"element": "C" 
			},
			{
				"x": 1.5036499566,
				"y": -1.5125609703,
				"z": 3.0535434284,
				"element": "C" 
			},
			{
				"x": 0.766497292,
				"y": 1.2858527665,
				"z": 0.5840410425,
				"element": "C" 
			},
			{
				"x": 1.765514326,
				"y": 2.5765482642,
				"z": 0.1878047048,
				"element": "S" 
			},
			{
				"x": -0.2267810813,
				"y": 0.8444176451,
				"z": -0.2260747271,
				"element": "N" 
			},
			{
				"x": -1.3212771293,
				"y": -0.0403741853,
				"z": 0.2277100953,
				"element": "C" 
			},
			{
				"x": -2.6749005162,
				"y": 0.5055778254,
				"z": -0.2411131416,
				"element": "C" 
			},
			{
				"x": -2.7687590427,
				"y": 0.5613582067,
				"z": -1.7841767556,
				"element": "C" 
			},
			{
				"x": -1.3634776147,
				"y": 0.6245469025,
				"z": -2.4156994644,
				"element": "C" 
			},
			{
				"x": -0.3876337287,
				"y": 1.4402339403,
				"z": -1.5671884413,
				"element": "C" 
			},
			{
				"x": 1.3317108813,
				"y": -1.1638822312,
				"z": 6.3975987678,
				"element": "H" 
			},
			{
				"x": 2.9742521747,
				"y": -1.4246628431,
				"z": 5.8129295447,
				"element": "H" 
			},
			{
				"x": 1.7235156404,
				"y": -2.6241203075,
				"z": 5.4743386073,
				"element": "H" 
			},
			{
				"x": 1.4092041678,
				"y": 1.1126202837,
				"z": 5.1962870772,
				"element": "H" 
			},
			{
				"x": 0.9521123909,
				"y": 2.3142210663,
				"z": 3.0832426568,
				"element": "H" 
			},
			{
				"x": 1.1691899411,
				"y": -1.3947047923,
				"z": 0.9333821799,
				"element": "H" 
			},
			{
				"x": 1.680042329,
				"y": -2.5851926845,
				"z": 3.0299592338,
				"element": "H" 
			},
			{
				"x": -1.170549346,
				"y": -1.0581179406,
				"z": -0.1569314663,
				"element": "H" 
			},
			{
				"x": -1.2884910273,
				"y": -0.0992786026,
				"z": 1.3143703753,
				"element": "H" 
			},
			{
				"x": -3.4707687887,
				"y": -0.11829924,
				"z": 0.1795378022,
				"element": "H" 
			},
			{
				"x": -2.8039929475,
				"y": 1.5067441503,
				"z": 0.1855151774,
				"element": "H" 
			},
			{
				"x": -3.3547943111,
				"y": 1.437206931,
				"z": -2.0832343192,
				"element": "H" 
			},
			{
				"x": -3.3025375731,
				"y": -0.3145860906,
				"z": -2.1687631707,
				"element": "H" 
			},
			{
				"x": -1.4072758879,
				"y": 1.066343821,
				"z": -3.4163647931,
				"element": "H" 
			},
			{
				"x": -0.9613766291,
				"y": -0.3875627272,
				"z": -2.5453283195,
				"element": "H" 
			},
			{
				"x": -0.7273571995,
				"y": 2.4799334336,
				"z": -1.4638858679,
				"element": "H" 
			},
			{
				"x": 0.601158112,
				"y": 1.491811153,
				"z": -2.0301578771,
				"element": "H" 
			}
		],
		 "valence_orbital": [ 
			{
				"type": "occ",
				"energy": -0.30455,
				"method": "rhf"
			},
			{
				"type": "occ",
				"energy": -0.25237,
				"method": "rhf"
			},
			{
				"type": "occ",
				"energy": -0.24344,
				"method": "rhf"
			},
			{
				"type": "occ",
				"energy": -0.21322,
				"method": "rhf"
			},
			{
				"type": "occ",
				"energy": -0.1896,
				"method": "rhf"
			},
			{
				"type": "unocc",
				"energy": -0.03748,
				"method": "rhf"
			},
			{
				"type": "unocc",
				"energy": -0.00291,
				"method": "rhf"
			},
			{
				"type": "unocc",
				"energy": 0.0165,
				"method": "rhf"
			},
			{
				"type": "unocc",
				"energy": 0.0674,
				"method": "rhf"
			},
			{
				"type": "unocc",
				"energy": 0.09227,
				"method": "rhf"
			}
		],
		"cosmo_sigma_profile": { 
			"-0.025": 0.0,
			"-0.024": 0.0,
			"-0.023": 0.0,
			"-0.022": 0.0,
			"-0.021": 0.0,
			"-0.02": 0.0,
			"-0.019": 0.0,
			"-0.018": 0.0,
			"-0.017": 0.0,
			"-0.016": 0.0,
			"-0.015": 0.0,
			"-0.014": 0.0,
			"-0.013": 0.0,
			"-0.012": 0.0,
			"-0.011": 0.0,
			"-0.01": 0.0,
			"-0.009": 0.0,
			"-0.008": 0.0,
			"-0.007": 0.030191246076,
			"-0.006": 3.48722848982,
			"-0.005": 16.0864974569,
			"-0.004": 34.3931858843,
			"-0.003": 42.0080775617,
			"-0.002": 37.7162100112,
			"-0.001": 28.0318942698,
			"0.0": 25.9055480084,
			"0.001": 11.6259335151,
			"0.002": 7.88757650664,
			"0.003": 9.30526500706,
			"0.004": 9.45985749351,
			"0.005": 11.4666454647,
			"0.006": 5.47587931501,
			"0.007": 4.33082542485,
			"0.008": 5.51230144256,
			"0.009": 5.67721054575,
			"0.01": 7.56016347413,
			"0.011": 3.52483661365,
			"0.012": 2.25998534446,
			"0.013": 1.2994986351,
			"0.014": 0.142052173186,
			"0.015": 0.0,
			"0.016": 0.0,
			"0.017": 0.0,
			"0.018": 0.0,
			"0.019": 0.0,
			"0.02": 0.0,
			"0.021": 0.0,
			"0.022": 0.0,
			"0.023": 0.0,
			"0.024": 0.0,
			"0.025": 0.0
		}
	}
}
