{
	 "smiles": "CCOC1=CC=C(C=C1)C(=O)C=CC(O)=O", 
	 "Tm": 415.15, 
	 "num_atms": 28, 
	 "gaussian": { 
		 "optdone": 1, 
		 "sigma_profile": "yes", 
		 "theory": "DFT", 
		 "functional": "B3LYP", 
		 "basiset": "6-31G**", 
		 "properties": { 
			 "R2extent": 7433.7473, 
			 "electric_dipole_moment_norm": 3.36434764256, 
			 "electric_quadrupole_moment_norm": 24.4883824517, 
			 "total_energy": -765.393873756, 
			 "HOMO_LUMO_gap": 0.1509, 
			 "cosmo_polarized_energy": -15.11, 
			 "cosmo_cavitation_energy": 33.67, 
			 "cosmo_dispersion_energy": -24.15, 
			 "cosmo_repulsion_energy": 1.92, 
			 "cosmo_total_nonelectrostatic_energy": 11.44, 
			 "SMD_solvation_energy": 8.18 
		},
		"coords": [
			{
				"x": -3.6136329663,
				"y": -3.4148361479,
				"z": 2.4962369362,
				"element": "C" 
			},
			{
				"x": -2.114559916,
				"y": -3.4016783441,
				"z": 2.2568283707,
				"element": "C" 
			},
			{
				"x": -1.8232769974,
				"y": -2.2774992519,
				"z": 1.4195507076,
				"element": "O" 
			},
			{
				"x": -0.5394847855,
				"y": -2.0382707205,
				"z": 1.0552779381,
				"element": "C" 
			},
			{
				"x": -0.336282745,
				"y": -0.9095361664,
				"z": 0.2432813344,
				"element": "C" 
			},
			{
				"x": 0.9387653955,
				"y": -0.5835469749,
				"z": -0.1925215158,
				"element": "C" 
			},
			{
				"x": 2.0487210759,
				"y": -1.3697683409,
				"z": 0.1734512783,
				"element": "C" 
			},
			{
				"x": 1.8336697195,
				"y": -2.4801713471,
				"z": 1.004581448,
				"element": "C" 
			},
			{
				"x": 0.5593074303,
				"y": -2.8264552358,
				"z": 1.4379776793,
				"element": "C" 
			},
			{
				"x": 3.4477327335,
				"y": -1.0579563781,
				"z": -0.2197441203,
				"element": "C" 
			},
			{
				"x": 4.407159298,
				"y": -1.5391537036,
				"z": 0.3770902456,
				"element": "O" 
			},
			{
				"x": 3.7522328742,
				"y": -0.1648052961,
				"z": -1.3833001644,
				"element": "C" 
			},
			{
				"x": 3.079272103,
				"y": -0.1446260923,
				"z": -2.5438211944,
				"element": "C" 
			},
			{
				"x": 3.4934763615,
				"y": 0.6394612802,
				"z": -3.7302724946,
				"element": "C" 
			},
			{
				"x": 4.6316281638,
				"y": 1.3519000587,
				"z": -3.5432768794,
				"element": "O" 
			},
			{
				"x": 2.8743295987,
				"y": 0.6558340953,
				"z": -4.7753766279,
				"element": "O" 
			},
			{
				"x": -3.9338434903,
				"y": -2.4929310471,
				"z": 2.9893359856,
				"element": "H" 
			},
			{
				"x": -3.8830123561,
				"y": -4.2618747701,
				"z": 3.1343201244,
				"element": "H" 
			},
			{
				"x": -4.1546974191,
				"y": -3.5065813684,
				"z": 1.5504975093,
				"element": "H" 
			},
			{
				"x": -1.7867398973,
				"y": -4.3261738775,
				"z": 1.7624232768,
				"element": "H" 
			},
			{
				"x": -1.5652486156,
				"y": -3.3101747714,
				"z": 3.2036265267,
				"element": "H" 
			},
			{
				"x": -1.1961368549,
				"y": -0.3048002762,
				"z": -0.0245639146,
				"element": "H" 
			},
			{
				"x": 1.0773745901,
				"y": 0.303950667,
				"z": -0.7998381741,
				"element": "H" 
			},
			{
				"x": 2.6938811013,
				"y": -3.0706898042,
				"z": 1.3021167551,
				"element": "H" 
			},
			{
				"x": 0.4274910185,
				"y": -3.6977079549,
				"z": 2.0679744735,
				"element": "H" 
			},
			{
				"x": 4.6811456755,
				"y": 0.390502235,
				"z": -1.2864455094,
				"element": "H" 
			},
			{
				"x": 2.1787774931,
				"y": -0.7288482882,
				"z": -2.7001658676,
				"element": "H" 
			},
			{
				"x": 4.7937514111,
				"y": 1.8182378213,
				"z": -4.3795441271,
				"element": "H" 
			}
		],
		 "valence_orbital": [ 
			{
				"type": "occ",
				"energy": -0.29243,
				"method": "rhf"
			},
			{
				"type": "occ",
				"energy": -0.28406,
				"method": "rhf"
			},
			{
				"type": "occ",
				"energy": -0.26602,
				"method": "rhf"
			},
			{
				"type": "occ",
				"energy": -0.25277,
				"method": "rhf"
			},
			{
				"type": "occ",
				"energy": -0.23329,
				"method": "rhf"
			},
			{
				"type": "unocc",
				"energy": -0.08239,
				"method": "rhf"
			},
			{
				"type": "unocc",
				"energy": -0.03071,
				"method": "rhf"
			},
			{
				"type": "unocc",
				"energy": -0.01395,
				"method": "rhf"
			},
			{
				"type": "unocc",
				"energy": 0.04795,
				"method": "rhf"
			},
			{
				"type": "unocc",
				"energy": 0.07483,
				"method": "rhf"
			}
		],
		"cosmo_sigma_profile": { 
			"-0.025": 0.0,
			"-0.024": 0.0,
			"-0.023": 0.0,
			"-0.022": 0.0,
			"-0.021": 0.0,
			"-0.02": 0.0,
			"-0.019": 0.137303272918,
			"-0.018": 0.95171848411,
			"-0.017": 1.05073129641,
			"-0.016": 0.777362279958,
			"-0.015": 0.770563218548,
			"-0.014": 0.554294395097,
			"-0.013": 0.558539988343,
			"-0.012": 0.852105841731,
			"-0.011": 1.0026511201,
			"-0.01": 0.604798701002,
			"-0.009": 0.271886745116,
			"-0.008": 1.08005918098,
			"-0.007": 5.74134090967,
			"-0.006": 13.6327019259,
			"-0.005": 19.0604907073,
			"-0.004": 25.275975498,
			"-0.003": 24.5233920532,
			"-0.002": 22.8733942898,
			"-0.001": 18.5852899963,
			"0.0": 20.4297648448,
			"0.001": 15.5835414235,
			"0.002": 15.8187250202,
			"0.003": 18.7996318814,
			"0.004": 11.1398698317,
			"0.005": 7.45738493456,
			"0.006": 4.44017445029,
			"0.007": 5.58787708375,
			"0.008": 5.06022725458,
			"0.009": 3.94414129844,
			"0.01": 4.88060853232,
			"0.011": 7.9291089408,
			"0.012": 7.18465002485,
			"0.013": 1.46035688046,
			"0.014": 0.0234526957769,
			"0.015": 0.0,
			"0.016": 0.0,
			"0.017": 0.0,
			"0.018": 0.0,
			"0.019": 0.0,
			"0.02": 0.0,
			"0.021": 0.0,
			"0.022": 0.0,
			"0.023": 0.0,
			"0.024": 0.0,
			"0.025": 0.0
		}
	}
}
