{
	 "smiles": "NCC1=CC(Br)=C2OCOC2=C1", 
	 "Tm": 323.15, 
	 "num_atms": 20, 
	 "gaussian": { 
		 "optdone": 1, 
		 "sigma_profile": "yes", 
		 "theory": "DFT", 
		 "functional": "B3LYP", 
		 "basiset": "6-31G**", 
		 "properties": { 
			 "R2extent": 5148.4218, 
			 "electric_dipole_moment_norm": 1.77753304892, 
			 "electric_quadrupole_moment_norm": 13.9919259475, 
			 "total_energy": -3086.24117076, 
			 "HOMO_LUMO_gap": 0.20389, 
			 "cosmo_polarized_energy": -9.23, 
			 "cosmo_cavitation_energy": 26.09, 
			 "cosmo_dispersion_energy": -20.17, 
			 "cosmo_repulsion_energy": 1.64, 
			 "cosmo_total_nonelectrostatic_energy": 7.56, 
			 "SMD_solvation_energy": 3.11 
		},
		"coords": [
			{
				"x": -0.487565639,
				"y": 2.0815640022,
				"z": 1.1771652872,
				"element": "N" 
			},
			{
				"x": -1.2826054834,
				"y": 0.8593136053,
				"z": 1.0278236461,
				"element": "C" 
			},
			{
				"x": -0.4143018433,
				"y": -0.3276272753,
				"z": 0.6508895957,
				"element": "C" 
			},
			{
				"x": -0.6978227963,
				"y": -1.5922231708,
				"z": 1.1706956495,
				"element": "C" 
			},
			{
				"x": 0.0594680308,
				"y": -2.7179944442,
				"z": 0.8034360639,
				"element": "C" 
			},
			{
				"x": -0.3231972676,
				"y": -4.4365148443,
				"z": 1.5207778752,
				"element": "Br" 
			},
			{
				"x": 1.099474403,
				"y": -2.5386641286,
				"z": -0.0849839947,
				"element": "C" 
			},
			{
				"x": 1.995480471,
				"y": -3.453336562,
				"z": -0.5693063195,
				"element": "O" 
			},
			{
				"x": 2.764984619,
				"y": -2.7487485227,
				"z": -1.5532401552,
				"element": "C" 
			},
			{
				"x": 2.4765804037,
				"y": -1.3531097766,
				"z": -1.4237564783,
				"element": "O" 
			},
			{
				"x": 1.3828998148,
				"y": -1.2707608575,
				"z": -0.5940551016,
				"element": "C" 
			},
			{
				"x": 0.6567290932,
				"y": -0.1503127715,
				"z": -0.2519355116,
				"element": "C" 
			},
			{
				"x": 0.1145961013,
				"y": 2.0063027809,
				"z": 1.9936158339,
				"element": "H" 
			},
			{
				"x": -1.0991571621,
				"y": 2.8783419201,
				"z": 1.3324256172,
				"element": "H" 
			},
			{
				"x": -1.8770976152,
				"y": 0.5893059517,
				"z": 1.9171363577,
				"element": "H" 
			},
			{
				"x": -2.0066721796,
				"y": 1.0440146014,
				"z": 0.2221529645,
				"element": "H" 
			},
			{
				"x": -1.5165331575,
				"y": -1.720777993,
				"z": 1.8705901384,
				"element": "H" 
			},
			{
				"x": 3.829821536,
				"y": -2.9212604346,
				"z": -1.3712040589,
				"element": "H" 
			},
			{
				"x": 2.4773356156,
				"y": -3.0936341868,
				"z": -2.5567399488,
				"element": "H" 
			},
			{
				"x": 0.8937830555,
				"y": 0.8341221063,
				"z": -0.6361874607,
				"element": "H" 
			}
		],
		 "valence_orbital": [ 
			{
				"type": "occ",
				"energy": -0.2954,
				"method": "rhf"
			},
			{
				"type": "occ",
				"energy": -0.28398,
				"method": "rhf"
			},
			{
				"type": "occ",
				"energy": -0.24486,
				"method": "rhf"
			},
			{
				"type": "occ",
				"energy": -0.23315,
				"method": "rhf"
			},
			{
				"type": "occ",
				"energy": -0.20982,
				"method": "rhf"
			},
			{
				"type": "unocc",
				"energy": -0.00593,
				"method": "rhf"
			},
			{
				"type": "unocc",
				"energy": 0.00354,
				"method": "rhf"
			},
			{
				"type": "unocc",
				"energy": 0.01061,
				"method": "rhf"
			},
			{
				"type": "unocc",
				"energy": 0.08404,
				"method": "rhf"
			},
			{
				"type": "unocc",
				"energy": 0.10118,
				"method": "rhf"
			}
		],
		"cosmo_sigma_profile": { 
			"-0.025": 0.0,
			"-0.024": 0.0,
			"-0.023": 0.0,
			"-0.022": 0.0,
			"-0.021": 0.0,
			"-0.02": 0.0,
			"-0.019": 0.0,
			"-0.018": 0.0,
			"-0.017": 0.0,
			"-0.016": 0.0,
			"-0.015": 0.0,
			"-0.014": 0.0,
			"-0.013": 0.0,
			"-0.012": 0.0,
			"-0.011": 0.0562254842335,
			"-0.01": 1.85356394001,
			"-0.009": 3.16576657763,
			"-0.008": 6.57485037673,
			"-0.007": 9.25290130717,
			"-0.006": 12.0115389931,
			"-0.005": 10.3874379014,
			"-0.004": 13.0829201574,
			"-0.003": 13.0441170502,
			"-0.002": 14.5058630086,
			"-0.001": 12.4044798928,
			"0.0": 10.7591712388,
			"0.001": 14.3629563391,
			"0.002": 19.8423593392,
			"0.003": 19.3815897522,
			"0.004": 19.515030762,
			"0.005": 8.57006590972,
			"0.006": 4.68999591748,
			"0.007": 3.90159131727,
			"0.008": 4.04541560674,
			"0.009": 4.20996834562,
			"0.01": 1.19211550465,
			"0.011": 0.840234860355,
			"0.012": 0.896848664764,
			"0.013": 0.491933646153,
			"0.014": 0.540580605985,
			"0.015": 0.485864756146,
			"0.016": 0.469939426785,
			"0.017": 0.0834191807809,
			"0.018": 0.0,
			"0.019": 0.0,
			"0.02": 0.0,
			"0.021": 0.0,
			"0.022": 0.0,
			"0.023": 0.0,
			"0.024": 0.0,
			"0.025": 0.0
		}
	}
}
