{
	 "smiles": "CC(=O)C(=NNC1=CC=CC(=C1)[N+]([O-])=O)C(C)=O", 
	 "Tm": 457.15, 
	 "num_atms": 29, 
	 "gaussian": { 
		 "optdone": 1, 
		 "sigma_profile": "yes", 
		 "theory": "DFT", 
		 "functional": "B3LYP", 
		 "basiset": "6-31G**", 
		 "properties": { 
			 "R2extent": 6894.467, 
			 "electric_dipole_moment_norm": 3.60398261511, 
			 "electric_quadrupole_moment_norm": 25.9815738274, 
			 "total_energy": -890.82534527, 
			 "HOMO_LUMO_gap": 0.13961, 
			 "cosmo_polarized_energy": -14.01, 
			 "cosmo_cavitation_energy": 35.19, 
			 "cosmo_dispersion_energy": -24.95, 
			 "cosmo_repulsion_energy": 1.91, 
			 "cosmo_total_nonelectrostatic_energy": 12.14, 
			 "SMD_solvation_energy": 9.25 
		},
		"coords": [
			{
				"x": 0.6438341614,
				"y": 0.0514059284,
				"z": 4.6175132823,
				"element": "C" 
			},
			{
				"x": 0.6321291236,
				"y": 0.2753863668,
				"z": 3.1271862869,
				"element": "C" 
			},
			{
				"x": 0.2942565312,
				"y": 1.3852235784,
				"z": 2.6863868739,
				"element": "O" 
			},
			{
				"x": 1.0151294904,
				"y": -0.7991255528,
				"z": 2.1708517596,
				"element": "C" 
			},
			{
				"x": 1.0137590425,
				"y": -0.6290487369,
				"z": 0.8588798514,
				"element": "N" 
			},
			{
				"x": 0.670117874,
				"y": 0.5115029029,
				"z": 0.3190199084,
				"element": "N" 
			},
			{
				"x": 0.6722331628,
				"y": 0.6816206614,
				"z": -1.0724220972,
				"element": "C" 
			},
			{
				"x": 1.0380481531,
				"y": -0.351926128,
				"z": -1.9497130268,
				"element": "C" 
			},
			{
				"x": 1.0228907719,
				"y": -0.1296637827,
				"z": -3.3241970937,
				"element": "C" 
			},
			{
				"x": 0.6487374377,
				"y": 1.1083085189,
				"z": -3.849071189,
				"element": "C" 
			},
			{
				"x": 0.2912275309,
				"y": 2.113589849,
				"z": -2.9547197086,
				"element": "C" 
			},
			{
				"x": 0.2937657222,
				"y": 1.9302745327,
				"z": -1.5763474264,
				"element": "C" 
			},
			{
				"x": -0.1082437981,
				"y": 3.4314455013,
				"z": -3.4833407703,
				"element": "N" 
			},
			{
				"x": -0.1053106783,
				"y": 3.5779492699,
				"z": -4.7039670336,
				"element": "O" 
			},
			{
				"x": -0.4190418502,
				"y": 4.3005809858,
				"z": -2.6704794909,
				"element": "O" 
			},
			{
				"x": 1.4346559492,
				"y": -2.1643802051,
				"z": 2.6062119346,
				"element": "C" 
			},
			{
				"x": 1.8022830177,
				"y": -3.1748408199,
				"z": 1.5319281273,
				"element": "C" 
			},
			{
				"x": 1.4842121414,
				"y": -2.4708064686,
				"z": 3.7902657452,
				"element": "O" 
			},
			{
				"x": 0.3276012651,
				"y": 0.9784342119,
				"z": 5.0984546762,
				"element": "H" 
			},
			{
				"x": -0.0172428054,
				"y": -0.7741706823,
				"z": 4.8934345931,
				"element": "H" 
			},
			{
				"x": 1.6389252234,
				"y": -0.2437910827,
				"z": 4.9601539099,
				"element": "H" 
			},
			{
				"x": 0.4016058273,
				"y": 1.2675176221,
				"z": 0.9676279037,
				"element": "H" 
			},
			{
				"x": 1.3281490164,
				"y": -1.3118936747,
				"z": -1.5410185164,
				"element": "H" 
			},
			{
				"x": 1.3067374391,
				"y": -0.9326373939,
				"z": -3.9968791251,
				"element": "H" 
			},
			{
				"x": 0.6294138789,
				"y": 1.3041538224,
				"z": -4.9130723913,
				"element": "H" 
			},
			{
				"x": 0.0060797984,
				"y": 2.7482198161,
				"z": -0.9265185313,
				"element": "H" 
			},
			{
				"x": 0.961613096,
				"y": -3.3515245377,
				"z": 0.8544970112,
				"element": "H" 
			},
			{
				"x": 2.6344104897,
				"y": -2.8135786216,
				"z": 0.9205136694,
				"element": "H" 
			},
			{
				"x": 2.0819229876,
				"y": -4.1056258813,
				"z": 2.0264208676,
				"element": "H" 
			}
		],
		 "valence_orbital": [ 
			{
				"type": "occ",
				"energy": -0.29929,
				"method": "rhf"
			},
			{
				"type": "occ",
				"energy": -0.2939,
				"method": "rhf"
			},
			{
				"type": "occ",
				"energy": -0.27371,
				"method": "rhf"
			},
			{
				"type": "occ",
				"energy": -0.25096,
				"method": "rhf"
			},
			{
				"type": "occ",
				"energy": -0.24317,
				"method": "rhf"
			},
			{
				"type": "unocc",
				"energy": -0.10356,
				"method": "rhf"
			},
			{
				"type": "unocc",
				"energy": -0.09184,
				"method": "rhf"
			},
			{
				"type": "unocc",
				"energy": -0.03248,
				"method": "rhf"
			},
			{
				"type": "unocc",
				"energy": -0.02753,
				"method": "rhf"
			},
			{
				"type": "unocc",
				"energy": 0.00201,
				"method": "rhf"
			}
		],
		"cosmo_sigma_profile": { 
			"-0.025": 0.0,
			"-0.024": 0.0,
			"-0.023": 0.0,
			"-0.022": 0.0,
			"-0.021": 0.0,
			"-0.02": 0.0,
			"-0.019": 0.0,
			"-0.018": 0.0,
			"-0.017": 0.0,
			"-0.016": 0.0,
			"-0.015": 0.0,
			"-0.014": 0.0166909976001,
			"-0.013": 0.49712845049,
			"-0.012": 0.942392385035,
			"-0.011": 1.18838565298,
			"-0.01": 1.26555302132,
			"-0.009": 0.656470439533,
			"-0.008": 3.54918001781,
			"-0.007": 7.27576937749,
			"-0.006": 9.94815729498,
			"-0.005": 17.9042600859,
			"-0.004": 22.8022503342,
			"-0.003": 24.9617304912,
			"-0.002": 28.8047282214,
			"-0.001": 35.2397982543,
			"0.0": 29.6974482776,
			"0.001": 18.1826266689,
			"0.002": 11.746097702,
			"0.003": 5.45672325422,
			"0.004": 5.40586663825,
			"0.005": 6.06279914996,
			"0.006": 7.32785697648,
			"0.007": 11.7108226726,
			"0.008": 9.1169382053,
			"0.009": 7.6983426236,
			"0.01": 4.73119481962,
			"0.011": 3.72156552323,
			"0.012": 3.58190934591,
			"0.013": 1.90597417065,
			"0.014": 0.186843500436,
			"0.015": 0.0,
			"0.016": 0.0,
			"0.017": 0.0,
			"0.018": 0.0,
			"0.019": 0.0,
			"0.02": 0.0,
			"0.021": 0.0,
			"0.022": 0.0,
			"0.023": 0.0,
			"0.024": 0.0,
			"0.025": 0.0
		}
	}
}
