{
	 "smiles": "NC(=S)NN=C1/C(=O)NC2=CC=CC=C12", 
	 "Tm": 505.15, 
	 "num_atms": 23, 
	 "gaussian": { 
		 "optdone": 1, 
		 "sigma_profile": "yes", 
		 "theory": "DFT", 
		 "functional": "B3LYP", 
		 "basiset": "6-31G**", 
		 "properties": { 
			 "R2extent": 5553.4356, 
			 "electric_dipole_moment_norm": 7.05654528009, 
			 "electric_quadrupole_moment_norm": 28.0562433351, 
			 "total_energy": -1040.20807207, 
			 "HOMO_LUMO_gap": 0.12016, 
			 "cosmo_polarized_energy": -20.15, 
			 "cosmo_cavitation_energy": 30.06, 
			 "cosmo_dispersion_energy": -22.76, 
			 "cosmo_repulsion_energy": 1.74, 
			 "cosmo_total_nonelectrostatic_energy": 9.04, 
			 "SMD_solvation_energy": 4.06 
		},
		"coords": [
			{
				"x": 3.2270032172,
				"y": 0.5738739205,
				"z": 0.7820630706,
				"element": "N" 
			},
			{
				"x": 2.9214840684,
				"y": 1.8785826255,
				"z": 0.899422999,
				"element": "C" 
			},
			{
				"x": 3.9435274211,
				"y": 3.0588024751,
				"z": 1.4946200278,
				"element": "S" 
			},
			{
				"x": 1.6461354076,
				"y": 2.2168343728,
				"z": 0.4795897446,
				"element": "N" 
			},
			{
				"x": 0.8183107181,
				"y": 1.2804659538,
				"z": 0.001598632,
				"element": "N" 
			},
			{
				"x": -0.3703431968,
				"y": 1.6382288368,
				"z": -0.3817631131,
				"element": "C" 
			},
			{
				"x": -0.9375401526,
				"y": 3.0280019794,
				"z": -0.347457645,
				"element": "C" 
			},
			{
				"x": -0.3872088241,
				"y": 4.0538420259,
				"z": 0.0426443286,
				"element": "O" 
			},
			{
				"x": -2.218387399,
				"y": 2.9141880046,
				"z": -0.8495119233,
				"element": "N" 
			},
			{
				"x": -2.5227433737,
				"y": 1.5886212752,
				"z": -1.2003789931,
				"element": "C" 
			},
			{
				"x": -3.6948377193,
				"y": 1.0710905025,
				"z": -1.7336903263,
				"element": "C" 
			},
			{
				"x": -3.7363330238,
				"y": -0.305034472,
				"z": -1.9947112804,
				"element": "C" 
			},
			{
				"x": -2.638301616,
				"y": -1.1304120118,
				"z": -1.7287305472,
				"element": "C" 
			},
			{
				"x": -1.4627604406,
				"y": -0.597527348,
				"z": -1.1913682581,
				"element": "C" 
			},
			{
				"x": -1.4048834166,
				"y": 0.7687055997,
				"z": -0.9259637906,
				"element": "C" 
			},
			{
				"x": 4.1406968557,
				"y": 0.2701372845,
				"z": 1.072987303,
				"element": "H" 
			},
			{
				"x": 2.545830571,
				"y": -0.0734691273,
				"z": 0.4113659934,
				"element": "H" 
			},
			{
				"x": 1.3452026148,
				"y": 3.1928185053,
				"z": 0.5401405117,
				"element": "H" 
			},
			{
				"x": -2.8367393607,
				"y": 3.7064360613,
				"z": -0.9409896775,
				"element": "H" 
			},
			{
				"x": -4.5503385837,
				"y": 1.7059986102,
				"z": -1.9423715791,
				"element": "H" 
			},
			{
				"x": -4.641705021,
				"y": -0.7352595013,
				"z": -2.4121048765,
				"element": "H" 
			},
			{
				"x": -2.7002922239,
				"y": -2.1928561904,
				"z": -1.941523471,
				"element": "H" 
			},
			{
				"x": -0.6065765222,
				"y": -1.2309693822,
				"z": -0.9821671294,
				"element": "H" 
			}
		],
		 "valence_orbital": [ 
			{
				"type": "occ",
				"energy": -0.27273,
				"method": "rhf"
			},
			{
				"type": "occ",
				"energy": -0.25434,
				"method": "rhf"
			},
			{
				"type": "occ",
				"energy": -0.2362,
				"method": "rhf"
			},
			{
				"type": "occ",
				"energy": -0.21484,
				"method": "rhf"
			},
			{
				"type": "occ",
				"energy": -0.21309,
				"method": "rhf"
			},
			{
				"type": "unocc",
				"energy": -0.09293,
				"method": "rhf"
			},
			{
				"type": "unocc",
				"energy": -0.01965,
				"method": "rhf"
			},
			{
				"type": "unocc",
				"energy": 0.00422,
				"method": "rhf"
			},
			{
				"type": "unocc",
				"energy": 0.0108,
				"method": "rhf"
			},
			{
				"type": "unocc",
				"energy": 0.07392,
				"method": "rhf"
			}
		],
		"cosmo_sigma_profile": { 
			"-0.025": 0.0,
			"-0.024": 0.0,
			"-0.023": 0.0,
			"-0.022": 0.0,
			"-0.021": 0.0,
			"-0.02": 0.0,
			"-0.019": 0.0,
			"-0.018": 0.0,
			"-0.017": 0.253027104934,
			"-0.016": 1.61061411826,
			"-0.015": 2.55454246914,
			"-0.014": 2.40282975112,
			"-0.013": 2.80776668758,
			"-0.012": 3.10296287032,
			"-0.011": 3.21416280388,
			"-0.01": 2.64209425093,
			"-0.009": 2.77670675937,
			"-0.008": 3.41108392168,
			"-0.007": 5.42915688756,
			"-0.006": 8.23349313418,
			"-0.005": 12.5326643146,
			"-0.004": 17.9735310085,
			"-0.003": 13.2608396366,
			"-0.002": 13.4812572788,
			"-0.001": 19.7602195114,
			"0.0": 15.0600771865,
			"0.001": 15.9882604403,
			"0.002": 15.5279775257,
			"0.003": 16.9241151309,
			"0.004": 13.6680962911,
			"0.005": 9.03773772847,
			"0.006": 4.25519331688,
			"0.007": 3.55831911723,
			"0.008": 6.26407794446,
			"0.009": 7.34791856954,
			"0.01": 9.67473664468,
			"0.011": 7.84942226607,
			"0.012": 3.25692403743,
			"0.013": 0.561932126942,
			"0.014": 0.0,
			"0.015": 0.0,
			"0.016": 0.0,
			"0.017": 0.0,
			"0.018": 0.0,
			"0.019": 0.0,
			"0.02": 0.0,
			"0.021": 0.0,
			"0.022": 0.0,
			"0.023": 0.0,
			"0.024": 0.0,
			"0.025": 0.0
		}
	}
}
