{
	 "smiles": "NC(=O)C1=CC=C(C=C1)N(CCCl)CCCl", 
	 "Tm": 316.65, 
	 "num_atms": 30, 
	 "gaussian": { 
		 "optdone": 1, 
		 "sigma_profile": "yes", 
		 "theory": "DFT", 
		 "functional": "B3LYP", 
		 "basiset": "6-31G**", 
		 "properties": { 
			 "R2extent": 6511.7187, 
			 "electric_dipole_moment_norm": 3.55314712614, 
			 "electric_quadrupole_moment_norm": 29.8445162755, 
			 "total_energy": -1532.74088381, 
			 "HOMO_LUMO_gap": 0.1831, 
			 "cosmo_polarized_energy": -22.2, 
			 "cosmo_cavitation_energy": 36.2, 
			 "cosmo_dispersion_energy": -25.98, 
			 "cosmo_repulsion_energy": 2.06, 
			 "cosmo_total_nonelectrostatic_energy": 12.28, 
			 "SMD_solvation_energy": 5.76 
		},
		"coords": [
			{
				"x": -5.5288140382,
				"y": 0.0482974536,
				"z": -1.2259120008,
				"element": "N" 
			},
			{
				"x": -4.5390877264,
				"y": 0.9766450328,
				"z": -1.4784753575,
				"element": "C" 
			},
			{
				"x": -4.7723574239,
				"y": 2.0008836363,
				"z": -2.1113471277,
				"element": "O" 
			},
			{
				"x": -3.1737700549,
				"y": 0.6491476108,
				"z": -0.9683506611,
				"element": "C" 
			},
			{
				"x": -2.7743898719,
				"y": -0.6230698904,
				"z": -0.542445849,
				"element": "C" 
			},
			{
				"x": -1.4806923152,
				"y": -0.8640825143,
				"z": -0.0920376585,
				"element": "C" 
			},
			{
				"x": -0.5209274424,
				"y": 0.1723907198,
				"z": -0.0388959698,
				"element": "C" 
			},
			{
				"x": -0.933748423,
				"y": 1.4566990421,
				"z": -0.4628698738,
				"element": "C" 
			},
			{
				"x": -2.2216445161,
				"y": 1.6765525613,
				"z": -0.9265174851,
				"element": "C" 
			},
			{
				"x": 0.7780903368,
				"y": -0.069693617,
				"z": 0.4202878622,
				"element": "N" 
			},
			{
				"x": 1.8733065592,
				"y": 0.8649473227,
				"z": 0.2063367462,
				"element": "C" 
			},
			{
				"x": 2.3778940483,
				"y": 1.5855526913,
				"z": 1.458603793,
				"element": "C" 
			},
			{
				"x": 1.1790861507,
				"y": 2.7494425212,
				"z": 2.1568805005,
				"element": "Cl" 
			},
			{
				"x": 1.1593841614,
				"y": -1.3762685815,
				"z": 0.9359582504,
				"element": "C" 
			},
			{
				"x": 1.5415196466,
				"y": -2.357939228,
				"z": -0.180375724,
				"element": "C" 
			},
			{
				"x": 2.0335866959,
				"y": -3.9564997942,
				"z": 0.5222247053,
				"element": "Cl" 
			},
			{
				"x": -6.4614788688,
				"y": 0.357510151,
				"z": -1.4607111067,
				"element": "H" 
			},
			{
				"x": -5.4501925384,
				"y": -0.5604752866,
				"z": -0.4257988937,
				"element": "H" 
			},
			{
				"x": -3.4615801042,
				"y": -1.4627533641,
				"z": -0.5975445433,
				"element": "H" 
			},
			{
				"x": -1.2245496841,
				"y": -1.8741336223,
				"z": 0.20255065,
				"element": "H" 
			},
			{
				"x": -0.2606206404,
				"y": 2.3011338709,
				"z": -0.3939174564,
				"element": "H" 
			},
			{
				"x": -2.522352066,
				"y": 2.6656255605,
				"z": -1.2557473327,
				"element": "H" 
			},
			{
				"x": 2.7395649862,
				"y": 0.3152341504,
				"z": -0.1925242263,
				"element": "H" 
			},
			{
				"x": 1.6013746124,
				"y": 1.5916369626,
				"z": -0.559950287,
				"element": "H" 
			},
			{
				"x": 3.272613534,
				"y": 2.1635597752,
				"z": 1.2172448055,
				"element": "H" 
			},
			{
				"x": 2.6199079062,
				"y": 0.8813884627,
				"z": 2.2566237932,
				"element": "H" 
			},
			{
				"x": 0.3525440456,
				"y": -1.7935021239,
				"z": 1.5432606909,
				"element": "H" 
			},
			{
				"x": 2.0147216738,
				"y": -1.2561325674,
				"z": 1.607805964,
				"element": "H" 
			},
			{
				"x": 2.3915864813,
				"y": -1.9951202303,
				"z": -0.7605555369,
				"element": "H" 
			},
			{
				"x": 0.7080248754,
				"y": -2.5479767051,
				"z": -0.8563006708,
				"element": "H" 
			}
		],
		 "valence_orbital": [ 
			{
				"type": "occ",
				"energy": -0.29454,
				"method": "rhf"
			},
			{
				"type": "occ",
				"energy": -0.2661,
				"method": "rhf"
			},
			{
				"type": "occ",
				"energy": -0.25634,
				"method": "rhf"
			},
			{
				"type": "occ",
				"energy": -0.24202,
				"method": "rhf"
			},
			{
				"type": "occ",
				"energy": -0.20848,
				"method": "rhf"
			},
			{
				"type": "unocc",
				"energy": -0.02538,
				"method": "rhf"
			},
			{
				"type": "unocc",
				"energy": -0.00936,
				"method": "rhf"
			},
			{
				"type": "unocc",
				"energy": 0.01203,
				"method": "rhf"
			},
			{
				"type": "unocc",
				"energy": 0.01588,
				"method": "rhf"
			},
			{
				"type": "unocc",
				"energy": 0.06195,
				"method": "rhf"
			}
		],
		"cosmo_sigma_profile": { 
			"-0.025": 0.0,
			"-0.024": 0.0,
			"-0.023": 0.0,
			"-0.022": 0.0,
			"-0.021": 0.0,
			"-0.02": 0.0,
			"-0.019": 0.0,
			"-0.018": 0.0,
			"-0.017": 0.0,
			"-0.016": 0.0,
			"-0.015": 0.0,
			"-0.014": 0.406366356796,
			"-0.013": 2.28016744555,
			"-0.012": 2.22092127577,
			"-0.011": 2.20866860387,
			"-0.01": 2.75987438147,
			"-0.009": 4.69195080871,
			"-0.008": 11.2718350078,
			"-0.007": 19.1042658715,
			"-0.006": 18.2454075841,
			"-0.005": 18.9864491323,
			"-0.004": 17.9914471594,
			"-0.003": 14.9958357729,
			"-0.002": 11.1901011672,
			"-0.001": 9.59247096553,
			"0.0": 14.2833048863,
			"0.001": 13.4799946424,
			"0.002": 15.6451189694,
			"0.003": 14.9807814382,
			"0.004": 20.3194674899,
			"0.005": 23.8349987045,
			"0.006": 23.7404719469,
			"0.007": 9.17316666058,
			"0.008": 2.04457097312,
			"0.009": 1.97811960732,
			"0.01": 2.14721152599,
			"0.011": 1.24347989122,
			"0.012": 2.49386460158,
			"0.013": 2.34649999527,
			"0.014": 5.76615682724,
			"0.015": 1.40547790908,
			"0.016": 0.0,
			"0.017": 0.0,
			"0.018": 0.0,
			"0.019": 0.0,
			"0.02": 0.0,
			"0.021": 0.0,
			"0.022": 0.0,
			"0.023": 0.0,
			"0.024": 0.0,
			"0.025": 0.0
		}
	}
}
