{
	 "smiles": "O=C(C(C(=O)N1CCOCC1)C1=CC=CC=C1)N1CCOCC1", 
	 "Tm": 460.0, 
	 "num_atms": 45, 
	 "gaussian": { 
		 "optdone": 1, 
		 "sigma_profile": "yes", 
		 "theory": "DFT", 
		 "functional": "B3LYP", 
		 "basiset": "6-31G**", 
		 "properties": { 
			 "R2extent": 8597.4648, 
			 "electric_dipole_moment_norm": 3.75564875088, 
			 "electric_quadrupole_moment_norm": 5.74992421515, 
			 "total_energy": -1071.44225863, 
			 "HOMO_LUMO_gap": 0.228, 
			 "cosmo_polarized_energy": -24.12, 
			 "cosmo_cavitation_energy": 44.9, 
			 "cosmo_dispersion_energy": -30.75, 
			 "cosmo_repulsion_energy": 2.38, 
			 "cosmo_total_nonelectrostatic_energy": 16.53, 
			 "SMD_solvation_energy": 6.41 
		},
		"coords": [
			{
				"x": 1.697456994,
				"y": 0.554032514,
				"z": 0.0312597766,
				"element": "O" 
			},
			{
				"x": 0.7791116989,
				"y": -0.237514415,
				"z": -0.1319241975,
				"element": "C" 
			},
			{
				"x": -0.6940010286,
				"y": 0.2410002991,
				"z": -0.2109513077,
				"element": "C" 
			},
			{
				"x": -1.4516160066,
				"y": -0.2431807811,
				"z": 1.0426937821,
				"element": "C" 
			},
			{
				"x": -0.8445196383,
				"y": -0.4936602619,
				"z": 2.0829733464,
				"element": "O" 
			},
			{
				"x": -2.8119015878,
				"y": -0.3645366774,
				"z": 0.9538870241,
				"element": "N" 
			},
			{
				"x": -3.6156194025,
				"y": -0.0612847934,
				"z": -0.2376729131,
				"element": "C" 
			},
			{
				"x": -5.0745073929,
				"y": 0.1277471788,
				"z": 0.1744316034,
				"element": "C" 
			},
			{
				"x": -5.6221961892,
				"y": -1.0193289483,
				"z": 0.8060326364,
				"element": "O" 
			},
			{
				"x": -4.731287319,
				"y": -1.6870547198,
				"z": 1.7044887913,
				"element": "C" 
			},
			{
				"x": -3.5492683474,
				"y": -0.8271662839,
				"z": 2.1359244731,
				"element": "C" 
			},
			{
				"x": -0.7697528281,
				"y": 1.7570328546,
				"z": -0.3308477713,
				"element": "C" 
			},
			{
				"x": -1.1431134041,
				"y": 2.355069693,
				"z": -1.5401933679,
				"element": "C" 
			},
			{
				"x": -1.2129080767,
				"y": 3.745267212,
				"z": -1.6569852025,
				"element": "C" 
			},
			{
				"x": -0.9085496749,
				"y": 4.5519769285,
				"z": -0.560745295,
				"element": "C" 
			},
			{
				"x": -0.5302547932,
				"y": 3.9619650204,
				"z": 0.6481684316,
				"element": "C" 
			},
			{
				"x": -0.458671086,
				"y": 2.5749173366,
				"z": 0.763807306,
				"element": "C" 
			},
			{
				"x": 1.0026772816,
				"y": -1.5814423377,
				"z": -0.3055255398,
				"element": "N" 
			},
			{
				"x": -0.0377678123,
				"y": -2.6133926356,
				"z": -0.3529049491,
				"element": "C" 
			},
			{
				"x": 0.5722066164,
				"y": -3.9216462652,
				"z": -0.8536248679,
				"element": "C" 
			},
			{
				"x": 1.60451472,
				"y": -4.4089228593,
				"z": -0.0093784228,
				"element": "O" 
			},
			{
				"x": 2.3731181381,
				"y": -3.3860749578,
				"z": 0.6315758063,
				"element": "C" 
			},
			{
				"x": 2.3786682043,
				"y": -2.0731998193,
				"z": -0.1412133489,
				"element": "C" 
			},
			{
				"x": -1.1483026227,
				"y": -0.1953289674,
				"z": -1.1073166335,
				"element": "H" 
			},
			{
				"x": -3.5520571704,
				"y": -0.8766259825,
				"z": -0.9733384247,
				"element": "H" 
			},
			{
				"x": -3.259399957,
				"y": 0.8568475057,
				"z": -0.7124766354,
				"element": "H" 
			},
			{
				"x": -5.6837847776,
				"y": 0.3139268966,
				"z": -0.7149493621,
				"element": "H" 
			},
			{
				"x": -5.1558972962,
				"y": 1.0126741887,
				"z": 0.8245593873,
				"element": "H" 
			},
			{
				"x": -4.3572909974,
				"y": -2.6041593182,
				"z": 1.2250443254,
				"element": "H" 
			},
			{
				"x": -5.3123628276,
				"y": -1.9843344775,
				"z": 2.584804231,
				"element": "H" 
			},
			{
				"x": -3.8915231671,
				"y": 0.0277568519,
				"z": 2.7342673109,
				"element": "H" 
			},
			{
				"x": -2.8605618462,
				"y": -1.4007476861,
				"z": 2.7586624655,
				"element": "H" 
			},
			{
				"x": -1.369654704,
				"y": 1.7305462102,
				"z": -2.4018396494,
				"element": "H" 
			},
			{
				"x": -1.5019944932,
				"y": 4.19366591,
				"z": -2.6032979792,
				"element": "H" 
			},
			{
				"x": -0.9620299098,
				"y": 5.6334372374,
				"z": -0.6474521916,
				"element": "H" 
			},
			{
				"x": -0.2844370559,
				"y": 4.585102645,
				"z": 1.5033240617,
				"element": "H" 
			},
			{
				"x": -0.1547388613,
				"y": 2.1164178502,
				"z": 1.698850356,
				"element": "H" 
			},
			{
				"x": -0.480788909,
				"y": -2.7702255343,
				"z": 0.6393217774,
				"element": "H" 
			},
			{
				"x": -0.8405036258,
				"y": -2.3206036192,
				"z": -1.0384901565,
				"element": "H" 
			},
			{
				"x": -0.2012160051,
				"y": -4.6959155325,
				"z": -0.888299971,
				"element": "H" 
			},
			{
				"x": 0.9456661292,
				"y": -3.7767173491,
				"z": -1.8799533191,
				"element": "H" 
			},
			{
				"x": 3.395095719,
				"y": -3.7679592277,
				"z": 0.7261743254,
				"element": "H" 
			},
			{
				"x": 1.9827439257,
				"y": -3.2090755914,
				"z": 1.6446188948,
				"element": "H" 
			},
			{
				"x": 2.9443125842,
				"y": -1.3095160242,
				"z": 0.395306071,
				"element": "H" 
			},
			{
				"x": 2.8552068022,
				"y": -2.2101692674,
				"z": -1.1211946774,
				"element": "H" 
			}
		],
		 "valence_orbital": [ 
			{
				"type": "occ",
				"energy": -0.25295,
				"method": "rhf"
			},
			{
				"type": "occ",
				"energy": -0.24811,
				"method": "rhf"
			},
			{
				"type": "occ",
				"energy": -0.24186,
				"method": "rhf"
			},
			{
				"type": "occ",
				"energy": -0.2406,
				"method": "rhf"
			},
			{
				"type": "occ",
				"energy": -0.23634,
				"method": "rhf"
			},
			{
				"type": "unocc",
				"energy": -0.00834,
				"method": "rhf"
			},
			{
				"type": "unocc",
				"energy": -0.00255,
				"method": "rhf"
			},
			{
				"type": "unocc",
				"energy": 0.0168,
				"method": "rhf"
			},
			{
				"type": "unocc",
				"energy": 0.02976,
				"method": "rhf"
			},
			{
				"type": "unocc",
				"energy": 0.05714,
				"method": "rhf"
			}
		],
		"cosmo_sigma_profile": { 
			"-0.025": 0.0,
			"-0.024": 0.0,
			"-0.023": 0.0,
			"-0.022": 0.0,
			"-0.021": 0.0,
			"-0.02": 0.0,
			"-0.019": 0.0,
			"-0.018": 0.0,
			"-0.017": 0.0,
			"-0.016": 0.0,
			"-0.015": 0.0,
			"-0.014": 0.0,
			"-0.013": 0.0,
			"-0.012": 0.0,
			"-0.011": 0.0,
			"-0.01": 0.0164423997183,
			"-0.009": 1.7961800469,
			"-0.008": 4.26453235112,
			"-0.007": 5.1972920524,
			"-0.006": 16.6302279669,
			"-0.005": 45.1331770329,
			"-0.004": 54.762089142,
			"-0.003": 38.7521781752,
			"-0.002": 25.4170936662,
			"-0.001": 18.6101941414,
			"0.0": 14.7775437252,
			"0.001": 15.1141541656,
			"0.002": 11.7143912693,
			"0.003": 12.005363719,
			"0.004": 12.4776767657,
			"0.005": 12.7513282997,
			"0.006": 8.94755669126,
			"0.007": 7.56447476504,
			"0.008": 6.47999104584,
			"0.009": 4.26788424422,
			"0.01": 5.41057591144,
			"0.011": 6.52927972603,
			"0.012": 6.84027087193,
			"0.013": 10.7785250819,
			"0.014": 5.87575486693,
			"0.015": 0.192942291235,
			"0.016": 0.0,
			"0.017": 0.0,
			"0.018": 0.0,
			"0.019": 0.0,
			"0.02": 0.0,
			"0.021": 0.0,
			"0.022": 0.0,
			"0.023": 0.0,
			"0.024": 0.0,
			"0.025": 0.0
		}
	}
}
