{
	 "smiles": "CC1=NN(C(C)=C1C#N)C1=CC=CC=C1", 
	 "Tm": 358.65, 
	 "num_atms": 26, 
	 "gaussian": { 
		 "optdone": 1, 
		 "sigma_profile": "yes", 
		 "theory": "DFT", 
		 "functional": "B3LYP", 
		 "basiset": "6-31G**", 
		 "properties": { 
			 "R2extent": 3715.7264, 
			 "electric_dipole_moment_norm": 4.96724282978, 
			 "electric_quadrupole_moment_norm": 16.7686223859, 
			 "total_energy": -628.143679263, 
			 "HOMO_LUMO_gap": 0.20113, 
			 "cosmo_polarized_energy": -11.95, 
			 "cosmo_cavitation_energy": 31.03, 
			 "cosmo_dispersion_energy": -21.65, 
			 "cosmo_repulsion_energy": 1.7, 
			 "cosmo_total_nonelectrostatic_energy": 11.08, 
			 "SMD_solvation_energy": 5.92 
		},
		"coords": [
			{
				"x": -0.0091808806,
				"y": -4.1286913833,
				"z": 0.0304062589,
				"element": "C" 
			},
			{
				"x": -0.3992508948,
				"y": -2.6867379706,
				"z": 0.0934796767,
				"element": "C" 
			},
			{
				"x": 0.3807482807,
				"y": -1.7370444312,
				"z": -0.3957377191,
				"element": "N" 
			},
			{
				"x": -0.2853354974,
				"y": -0.5583147592,
				"z": -0.1812392819,
				"element": "N" 
			},
			{
				"x": -1.4775363742,
				"y": -0.7421732802,
				"z": 0.4570795755,
				"element": "C" 
			},
			{
				"x": -2.4121518869,
				"y": 0.3380002312,
				"z": 0.8959197585,
				"element": "C" 
			},
			{
				"x": -1.5879614022,
				"y": -2.1191958029,
				"z": 0.6451756937,
				"element": "C" 
			},
			{
				"x": -2.6592484312,
				"y": -2.7957299249,
				"z": 1.2785408034,
				"element": "C" 
			},
			{
				"x": -3.5372890282,
				"y": -3.3547010229,
				"z": 1.8021692324,
				"element": "N" 
			},
			{
				"x": 0.3462324235,
				"y": 0.6577846003,
				"z": -0.573310929,
				"element": "C" 
			},
			{
				"x": 1.7252905216,
				"y": 0.7924212295,
				"z": -0.3772880798,
				"element": "C" 
			},
			{
				"x": 2.3611173216,
				"y": 1.9703074044,
				"z": -0.7621801697,
				"element": "C" 
			},
			{
				"x": 1.6307604284,
				"y": 3.0157725576,
				"z": -1.3333429305,
				"element": "C" 
			},
			{
				"x": 0.2579816415,
				"y": 2.8703222176,
				"z": -1.5342450405,
				"element": "C" 
			},
			{
				"x": -0.3881845225,
				"y": 1.6892917122,
				"z": -1.1661928077,
				"element": "C" 
			},
			{
				"x": -0.7336159533,
				"y": -4.7085430237,
				"z": -0.5513576341,
				"element": "H" 
			},
			{
				"x": 0.0304643678,
				"y": -4.5706446956,
				"z": 1.0316391658,
				"element": "H" 
			},
			{
				"x": 0.9727027886,
				"y": -4.2253778238,
				"z": -0.4365968267,
				"element": "H" 
			},
			{
				"x": -1.87022038,
				"y": 1.2211854893,
				"z": 1.2443583941,
				"element": "H" 
			},
			{
				"x": -3.0350426894,
				"y": -0.0369933817,
				"z": 1.7113008445,
				"element": "H" 
			},
			{
				"x": -3.0841166995,
				"y": 0.6536878208,
				"z": 0.0898805506,
				"element": "H" 
			},
			{
				"x": 2.2769250707,
				"y": -0.0290475001,
				"z": 0.0639848774,
				"element": "H" 
			},
			{
				"x": 3.431224378,
				"y": 2.0732823853,
				"z": -0.6094120589,
				"element": "H" 
			},
			{
				"x": 2.1303590828,
				"y": 3.9339813907,
				"z": -1.626695987,
				"element": "H" 
			},
			{
				"x": -0.314758416,
				"y": 3.6698021893,
				"z": -1.9944444973,
				"element": "H" 
			},
			{
				"x": -1.4463132489,
				"y": 1.5633557719,
				"z": -1.3635908691,
				"element": "H" 
			}
		],
		 "valence_orbital": [ 
			{
				"type": "occ",
				"energy": -0.29761,
				"method": "rhf"
			},
			{
				"type": "occ",
				"energy": -0.28822,
				"method": "rhf"
			},
			{
				"type": "occ",
				"energy": -0.26866,
				"method": "rhf"
			},
			{
				"type": "occ",
				"energy": -0.25433,
				"method": "rhf"
			},
			{
				"type": "occ",
				"energy": -0.23851,
				"method": "rhf"
			},
			{
				"type": "unocc",
				"energy": -0.03738,
				"method": "rhf"
			},
			{
				"type": "unocc",
				"energy": -0.01963,
				"method": "rhf"
			},
			{
				"type": "unocc",
				"energy": -0.00055,
				"method": "rhf"
			},
			{
				"type": "unocc",
				"energy": 0.02062,
				"method": "rhf"
			},
			{
				"type": "unocc",
				"energy": 0.03413,
				"method": "rhf"
			}
		],
		"cosmo_sigma_profile": { 
			"-0.025": 0.0,
			"-0.024": 0.0,
			"-0.023": 0.0,
			"-0.022": 0.0,
			"-0.021": 0.0,
			"-0.02": 0.0,
			"-0.019": 0.0,
			"-0.018": 0.0,
			"-0.017": 0.0,
			"-0.016": 0.0,
			"-0.015": 0.0,
			"-0.014": 0.0,
			"-0.013": 0.0,
			"-0.012": 0.0,
			"-0.011": 0.0,
			"-0.01": 0.0,
			"-0.009": 0.186615307088,
			"-0.008": 2.08852702378,
			"-0.007": 4.70914013178,
			"-0.006": 14.8621834882,
			"-0.005": 21.4316067828,
			"-0.004": 24.560142375,
			"-0.003": 23.4452722746,
			"-0.002": 24.6041828794,
			"-0.001": 20.2058578822,
			"0.0": 18.1426129164,
			"0.001": 15.5092781226,
			"0.002": 11.0015328846,
			"0.003": 13.1538557256,
			"0.004": 15.9958378668,
			"0.005": 6.55009277352,
			"0.006": 3.86651945911,
			"0.007": 3.56893916979,
			"0.008": 5.2229345191,
			"0.009": 4.32599089989,
			"0.01": 4.74593372591,
			"0.011": 4.01145514855,
			"0.012": 3.08198978298,
			"0.013": 3.03805698301,
			"0.014": 0.87029484542,
			"0.015": 0.0,
			"0.016": 0.0,
			"0.017": 0.0,
			"0.018": 0.0,
			"0.019": 0.0,
			"0.02": 0.0,
			"0.021": 0.0,
			"0.022": 0.0,
			"0.023": 0.0,
			"0.024": 0.0,
			"0.025": 0.0
		}
	}
}
