{
	 "smiles": "COC1=C(O)C=CC(C=NN2C(C)=CC(C)=C(C#N)C2=O)=C1", 
	 "Tm": 533.15, 
	 "num_atms": 37, 
	 "gaussian": { 
		 "optdone": 1, 
		 "sigma_profile": "yes", 
		 "theory": "DFT", 
		 "functional": "B3LYP", 
		 "basiset": "6-31G**", 
		 "properties": { 
			 "R2extent": 10170.1449, 
			 "electric_dipole_moment_norm": 9.11806186314, 
			 "electric_quadrupole_moment_norm": 35.59367369, 
			 "total_energy": -1008.62090999, 
			 "HOMO_LUMO_gap": 0.14059, 
			 "cosmo_polarized_energy": -22.23, 
			 "cosmo_cavitation_energy": 42.81, 
			 "cosmo_dispersion_energy": -29.57, 
			 "cosmo_repulsion_energy": 2.25, 
			 "cosmo_total_nonelectrostatic_energy": 15.48, 
			 "SMD_solvation_energy": 10.1 
		},
		"coords": [
			{
				"x": -5.1422391308,
				"y": -0.9589202992,
				"z": -1.3992288064,
				"element": "C" 
			},
			{
				"x": -5.3227546475,
				"y": 0.4502797699,
				"z": -1.4487655669,
				"element": "O" 
			},
			{
				"x": -4.2858430355,
				"y": 1.2493225907,
				"z": -1.0382176969,
				"element": "C" 
			},
			{
				"x": -4.5910233492,
				"y": 2.6326746652,
				"z": -1.0951110601,
				"element": "C" 
			},
			{
				"x": -5.8092604568,
				"y": 3.0366448976,
				"z": -1.5261109704,
				"element": "O" 
			},
			{
				"x": -3.6387774537,
				"y": 3.567656441,
				"z": -0.7013594796,
				"element": "C" 
			},
			{
				"x": -2.3902346845,
				"y": 3.1367334424,
				"z": -0.2547630965,
				"element": "C" 
			},
			{
				"x": -2.0783741263,
				"y": 1.7716437165,
				"z": -0.2016073301,
				"element": "C" 
			},
			{
				"x": -0.7550485381,
				"y": 1.3695529307,
				"z": 0.2581102689,
				"element": "C" 
			},
			{
				"x": -0.4019943585,
				"y": 0.127651985,
				"z": 0.2379408035,
				"element": "N" 
			},
			{
				"x": 0.8676503345,
				"y": -0.1905931379,
				"z": 0.7348415134,
				"element": "N" 
			},
			{
				"x": 1.4985780025,
				"y": -1.2369349145,
				"z": 0.1044873902,
				"element": "C" 
			},
			{
				"x": 0.8614561678,
				"y": -1.7959679942,
				"z": -1.1331458143,
				"element": "C" 
			},
			{
				"x": 2.6826262808,
				"y": -1.7251302512,
				"z": 0.6030702883,
				"element": "C" 
			},
			{
				"x": 3.2588345522,
				"y": -1.2046400432,
				"z": 1.7851934191,
				"element": "C" 
			},
			{
				"x": 4.5647211374,
				"y": -1.7677642214,
				"z": 2.279385498,
				"element": "C" 
			},
			{
				"x": 2.5968437922,
				"y": -0.1788744438,
				"z": 2.4432969996,
				"element": "C" 
			},
			{
				"x": 3.1140078116,
				"y": 0.3878708842,
				"z": 3.6485668083,
				"element": "C" 
			},
			{
				"x": 3.5689325167,
				"y": 0.8218930839,
				"z": 4.6283863751,
				"element": "N" 
			},
			{
				"x": 1.3501342209,
				"y": 0.3969914343,
				"z": 1.9562208168,
				"element": "C" 
			},
			{
				"x": 0.7373130583,
				"y": 1.3028209884,
				"z": 2.5067942706,
				"element": "O" 
			},
			{
				"x": -3.046842952,
				"y": 0.8219938546,
				"z": -0.5975161818,
				"element": "C" 
			},
			{
				"x": -6.0771319444,
				"y": -1.397870842,
				"z": -1.7496543608,
				"element": "H" 
			},
			{
				"x": -4.9399512481,
				"y": -1.2967165639,
				"z": -0.3757866274,
				"element": "H" 
			},
			{
				"x": -4.3218547721,
				"y": -1.2766794496,
				"z": -2.0541381566,
				"element": "H" 
			},
			{
				"x": -6.3183982281,
				"y": 2.2381059776,
				"z": -1.7384127938,
				"element": "H" 
			},
			{
				"x": -3.8936390018,
				"y": 4.6208270185,
				"z": -0.7464394481,
				"element": "H" 
			},
			{
				"x": -1.6502580326,
				"y": 3.8675044692,
				"z": 0.0582041714,
				"element": "H" 
			},
			{
				"x": -0.0964954164,
				"y": 2.1620556567,
				"z": 0.6030568285,
				"element": "H" 
			},
			{
				"x": 1.4802555821,
				"y": -2.6003224374,
				"z": -1.5350858799,
				"element": "H" 
			},
			{
				"x": -0.1376618449,
				"y": -2.1825254645,
				"z": -0.9128455105,
				"element": "H" 
			},
			{
				"x": 0.7368056459,
				"y": -1.0241355648,
				"z": -1.898695379,
				"element": "H" 
			},
			{
				"x": 3.1746803877,
				"y": -2.5315727276,
				"z": 0.072399855,
				"element": "H" 
			},
			{
				"x": 5.3810791129,
				"y": -1.4666270447,
				"z": 1.6119525329,
				"element": "H" 
			},
			{
				"x": 4.8057095517,
				"y": -1.4224966524,
				"z": 3.2855537672,
				"element": "H" 
			},
			{
				"x": 4.5343779788,
				"y": -2.8621835369,
				"z": 2.2778364422,
				"element": "H" 
			},
			{
				"x": -2.7955229127,
				"y": -0.2295682173,
				"z": -0.5386138899,
				"element": "H" 
			}
		],
		 "valence_orbital": [ 
			{
				"type": "occ",
				"energy": -0.27712,
				"method": "rhf"
			},
			{
				"type": "occ",
				"energy": -0.25575,
				"method": "rhf"
			},
			{
				"type": "occ",
				"energy": -0.25128,
				"method": "rhf"
			},
			{
				"type": "occ",
				"energy": -0.22785,
				"method": "rhf"
			},
			{
				"type": "occ",
				"energy": -0.21141,
				"method": "rhf"
			},
			{
				"type": "unocc",
				"energy": -0.07082,
				"method": "rhf"
			},
			{
				"type": "unocc",
				"energy": -0.04146,
				"method": "rhf"
			},
			{
				"type": "unocc",
				"energy": -0.00437,
				"method": "rhf"
			},
			{
				"type": "unocc",
				"energy": -0.00047,
				"method": "rhf"
			},
			{
				"type": "unocc",
				"energy": 0.04583,
				"method": "rhf"
			}
		],
		"cosmo_sigma_profile": { 
			"-0.025": 0.0,
			"-0.024": 0.0,
			"-0.023": 0.0,
			"-0.022": 0.0,
			"-0.021": 0.0,
			"-0.02": 0.0,
			"-0.019": 0.0,
			"-0.018": 0.0,
			"-0.017": 0.0,
			"-0.016": 0.0,
			"-0.015": 0.151275915585,
			"-0.014": 0.719990320681,
			"-0.013": 0.663850952821,
			"-0.012": 0.358596890949,
			"-0.011": 0.415788266175,
			"-0.01": 0.972759598274,
			"-0.009": 0.573003332651,
			"-0.008": 2.97157361496,
			"-0.007": 9.55109605421,
			"-0.006": 22.4707609195,
			"-0.005": 26.4870551592,
			"-0.004": 31.2396147575,
			"-0.003": 29.5667231672,
			"-0.002": 32.9355757707,
			"-0.001": 28.1723119348,
			"0.0": 20.8616962938,
			"0.001": 18.8215654098,
			"0.002": 19.853155565,
			"0.003": 20.265099525,
			"0.004": 16.1708581149,
			"0.005": 8.56875706831,
			"0.006": 5.68576847335,
			"0.007": 6.0978061423,
			"0.008": 6.80903388854,
			"0.009": 7.68145711322,
			"0.01": 6.60587230603,
			"0.011": 6.10691052129,
			"0.012": 6.06446806061,
			"0.013": 4.99639993045,
			"0.014": 0.719814200101,
			"0.015": 0.0,
			"0.016": 0.0,
			"0.017": 0.0,
			"0.018": 0.0,
			"0.019": 0.0,
			"0.02": 0.0,
			"0.021": 0.0,
			"0.022": 0.0,
			"0.023": 0.0,
			"0.024": 0.0,
			"0.025": 0.0
		}
	}
}
