{
	 "smiles": "OC(=O)C(CC1=CC=CC=C1)CC1=CC=CC=C1", 
	 "Tm": 363.15, 
	 "num_atms": 34, 
	 "gaussian": { 
		 "optdone": 1, 
		 "sigma_profile": "yes", 
		 "theory": "DFT", 
		 "functional": "B3LYP", 
		 "basiset": "6-31G**", 
		 "properties": { 
			 "R2extent": 6506.8968, 
			 "electric_dipole_moment_norm": 1.47834265311, 
			 "electric_quadrupole_moment_norm": 14.4680609406, 
			 "total_energy": -769.820068302, 
			 "HOMO_LUMO_gap": 0.22986, 
			 "cosmo_polarized_energy": -13.53, 
			 "cosmo_cavitation_energy": 37.91, 
			 "cosmo_dispersion_energy": -25.51, 
			 "cosmo_repulsion_energy": 1.98, 
			 "cosmo_total_nonelectrostatic_energy": 14.39, 
			 "SMD_solvation_energy": 6.82 
		},
		"coords": [
			{
				"x": -1.9553880629,
				"y": -0.0729252687,
				"z": 0.7288338849,
				"element": "O" 
			},
			{
				"x": -0.8381084307,
				"y": -0.3240946396,
				"z": 1.4690087402,
				"element": "C" 
			},
			{
				"x": -0.8897920147,
				"y": -0.8975527448,
				"z": 2.5316666813,
				"element": "O" 
			},
			{
				"x": 0.4205720109,
				"y": 0.196782528,
				"z": 0.7953874777,
				"element": "C" 
			},
			{
				"x": 0.6585849827,
				"y": -0.4973053567,
				"z": -0.5724852498,
				"element": "C" 
			},
			{
				"x": 0.7879701164,
				"y": -2.0039227381,
				"z": -0.4934163813,
				"element": "C" 
			},
			{
				"x": 2.009732876,
				"y": -2.5995174589,
				"z": -0.1500224488,
				"element": "C" 
			},
			{
				"x": 2.1296855932,
				"y": -3.9859220809,
				"z": -0.0569332994,
				"element": "C" 
			},
			{
				"x": 1.0253549269,
				"y": -4.8028996598,
				"z": -0.3086196366,
				"element": "C" 
			},
			{
				"x": -0.1960582575,
				"y": -4.2229592992,
				"z": -0.6535280722,
				"element": "C" 
			},
			{
				"x": -0.3119660584,
				"y": -2.8348376385,
				"z": -0.745033181,
				"element": "C" 
			},
			{
				"x": 0.3708574209,
				"y": 1.7382144031,
				"z": 0.6190441949,
				"element": "C" 
			},
			{
				"x": 0.2087508464,
				"y": 2.5093089548,
				"z": 1.9121177333,
				"element": "C" 
			},
			{
				"x": -1.0538006306,
				"y": 2.9433714799,
				"z": 2.3377277413,
				"element": "C" 
			},
			{
				"x": -1.204301068,
				"y": 3.6379842425,
				"z": 3.5392029097,
				"element": "C" 
			},
			{
				"x": -0.0911186273,
				"y": 3.9104983495,
				"z": 4.3352560197,
				"element": "C" 
			},
			{
				"x": 1.1729793244,
				"y": 3.484727413,
				"z": 3.9215794569,
				"element": "C" 
			},
			{
				"x": 1.3190157721,
				"y": 2.7914543521,
				"z": 2.7202354548,
				"element": "C" 
			},
			{
				"x": -2.6952342758,
				"y": -0.4410093052,
				"z": 1.2406261632,
				"element": "H" 
			},
			{
				"x": 1.2358483195,
				"y": -0.0620433413,
				"z": 1.4777744649,
				"element": "H" 
			},
			{
				"x": 1.574847349,
				"y": -0.0708783659,
				"z": -0.9984638713,
				"element": "H" 
			},
			{
				"x": -0.1606152871,
				"y": -0.2276744888,
				"z": -1.2472472354,
				"element": "H" 
			},
			{
				"x": 2.8761685184,
				"y": -1.9702218891,
				"z": 0.0413709578,
				"element": "H" 
			},
			{
				"x": 3.0857516104,
				"y": -4.4288082335,
				"z": 0.2079381504,
				"element": "H" 
			},
			{
				"x": 1.1178086745,
				"y": -5.8829345095,
				"z": -0.2393510352,
				"element": "H" 
			},
			{
				"x": -1.0595602421,
				"y": -4.8508374501,
				"z": -0.8549759472,
				"element": "H" 
			},
			{
				"x": -1.2654164594,
				"y": -2.3874468607,
				"z": -1.0139666336,
				"element": "H" 
			},
			{
				"x": 1.3026576931,
				"y": 2.039304885,
				"z": 0.1251531429,
				"element": "H" 
			},
			{
				"x": -0.4461213754,
				"y": 1.9840755442,
				"z": -0.0673904184,
				"element": "H" 
			},
			{
				"x": -1.9237859335,
				"y": 2.7332349843,
				"z": 1.7208729212,
				"element": "H" 
			},
			{
				"x": -2.1910861862,
				"y": 3.9687863331,
				"z": 3.8510944965,
				"element": "H" 
			},
			{
				"x": -0.2062318634,
				"y": 4.4530337319,
				"z": 5.269185539,
				"element": "H" 
			},
			{
				"x": 2.0459609826,
				"y": 3.6962497325,
				"z": 4.5327475396,
				"element": "H" 
			},
			{
				"x": 2.3078377556,
				"y": 2.4686643954,
				"z": 2.40180974,
				"element": "H" 
			}
		],
		 "valence_orbital": [ 
			{
				"type": "occ",
				"energy": -0.26872,
				"method": "rhf"
			},
			{
				"type": "occ",
				"energy": -0.24743,
				"method": "rhf"
			},
			{
				"type": "occ",
				"energy": -0.24729,
				"method": "rhf"
			},
			{
				"type": "occ",
				"energy": -0.24447,
				"method": "rhf"
			},
			{
				"type": "occ",
				"energy": -0.23622,
				"method": "rhf"
			},
			{
				"type": "unocc",
				"energy": -0.00636,
				"method": "rhf"
			},
			{
				"type": "unocc",
				"energy": -0.00316,
				"method": "rhf"
			},
			{
				"type": "unocc",
				"energy": 0.00096,
				"method": "rhf"
			},
			{
				"type": "unocc",
				"energy": 0.00595,
				"method": "rhf"
			},
			{
				"type": "unocc",
				"energy": 0.01602,
				"method": "rhf"
			}
		],
		"cosmo_sigma_profile": { 
			"-0.025": 0.0,
			"-0.024": 0.0,
			"-0.023": 0.0,
			"-0.022": 0.0,
			"-0.021": 0.0,
			"-0.02": 0.0,
			"-0.019": 0.0,
			"-0.018": 0.42368343822,
			"-0.017": 0.941442667326,
			"-0.016": 0.792617620112,
			"-0.015": 0.903341721931,
			"-0.014": 0.639813709826,
			"-0.013": 0.968090252757,
			"-0.012": 0.461455791976,
			"-0.011": 0.376108882565,
			"-0.01": 0.887824455809,
			"-0.009": 0.806125549697,
			"-0.008": 0.180540074869,
			"-0.007": 0.641281856631,
			"-0.006": 6.32458104236,
			"-0.005": 26.4381781336,
			"-0.004": 34.4506015861,
			"-0.003": 33.9595275051,
			"-0.002": 22.309689875,
			"-0.001": 22.6408030903,
			"0.0": 18.9906978793,
			"0.001": 17.4417108474,
			"0.002": 16.2968347769,
			"0.003": 16.0748633899,
			"0.004": 17.1042605968,
			"0.005": 19.6540257211,
			"0.006": 20.0859798374,
			"0.007": 4.59941713545,
			"0.008": 1.6803568268,
			"0.009": 2.36368541998,
			"0.01": 2.48792263956,
			"0.011": 3.46135284851,
			"0.012": 4.53259423849,
			"0.013": 0.999965688212,
			"0.014": 0.0,
			"0.015": 0.0,
			"0.016": 0.0,
			"0.017": 0.0,
			"0.018": 0.0,
			"0.019": 0.0,
			"0.02": 0.0,
			"0.021": 0.0,
			"0.022": 0.0,
			"0.023": 0.0,
			"0.024": 0.0,
			"0.025": 0.0
		}
	}
}
