{
	 "smiles": "CC(=O)NC1=CC=C(C=C1)N(NC1=CC=CC=C1)C(C)=O", 
	 "Tm": 472.15, 
	 "num_atms": 38, 
	 "gaussian": { 
		 "optdone": 1, 
		 "sigma_profile": "yes", 
		 "theory": "DFT", 
		 "functional": "B3LYP", 
		 "basiset": "6-31G**", 
		 "properties": { 
			 "R2extent": 8417.4338, 
			 "electric_dipole_moment_norm": 0.908135111093, 
			 "electric_quadrupole_moment_norm": 34.1730603268, 
			 "total_energy": -934.648285674, 
			 "HOMO_LUMO_gap": 0.17753, 
			 "cosmo_polarized_energy": -19.94, 
			 "cosmo_cavitation_energy": 42.08, 
			 "cosmo_dispersion_energy": -29.03, 
			 "cosmo_repulsion_energy": 2.24, 
			 "cosmo_total_nonelectrostatic_energy": 15.3, 
			 "SMD_solvation_energy": 9.05 
		},
		"coords": [
			{
				"x": -1.892884726,
				"y": 0.9408169957,
				"z": 4.6505268637,
				"element": "C" 
			},
			{
				"x": -0.8573603645,
				"y": 2.0429189069,
				"z": 4.5375466305,
				"element": "C" 
			},
			{
				"x": -0.6532542046,
				"y": 2.8353998986,
				"z": 5.4449790791,
				"element": "O" 
			},
			{
				"x": -0.132365078,
				"y": 2.1629411331,
				"z": 3.3601914303,
				"element": "N" 
			},
			{
				"x": -0.1641051945,
				"y": 1.4353373034,
				"z": 2.1523037326,
				"element": "C" 
			},
			{
				"x": -0.0108601347,
				"y": 2.1325592292,
				"z": 0.9447842914,
				"element": "C" 
			},
			{
				"x": 0.0187550989,
				"y": 1.4561773076,
				"z": -0.2713539066,
				"element": "C" 
			},
			{
				"x": -0.1532314812,
				"y": 0.0676375797,
				"z": -0.3140378705,
				"element": "C" 
			},
			{
				"x": -0.2845345767,
				"y": -0.6356740916,
				"z": 0.8894202666,
				"element": "C" 
			},
			{
				"x": -0.2718927136,
				"y": 0.0359265969,
				"z": 2.1075330903,
				"element": "C" 
			},
			{
				"x": -0.1397123304,
				"y": -0.6331395879,
				"z": -1.5612197201,
				"element": "N" 
			},
			{
				"x": 0.537840291,
				"y": -1.8713016034,
				"z": -1.5554518311,
				"element": "N" 
			},
			{
				"x": 1.8831216538,
				"y": -1.8636908797,
				"z": -2.0186747978,
				"element": "C" 
			},
			{
				"x": 2.6810073201,
				"y": -0.7140943637,
				"z": -2.0177116008,
				"element": "C" 
			},
			{
				"x": 4.0159339202,
				"y": -0.7951348831,
				"z": -2.4189207116,
				"element": "C" 
			},
			{
				"x": 4.5707251369,
				"y": -2.0093394481,
				"z": -2.8217737539,
				"element": "C" 
			},
			{
				"x": 3.7710764478,
				"y": -3.1554836474,
				"z": -2.8196104638,
				"element": "C" 
			},
			{
				"x": 2.4396542727,
				"y": -3.0877957895,
				"z": -2.4196010791,
				"element": "C" 
			},
			{
				"x": -1.0466890358,
				"y": -0.463734262,
				"z": -2.6090245773,
				"element": "C" 
			},
			{
				"x": -1.9680828359,
				"y": 0.7390069368,
				"z": -2.5833811699,
				"element": "C" 
			},
			{
				"x": -1.0935615439,
				"y": -1.2941771597,
				"z": -3.5081150177,
				"element": "O" 
			},
			{
				"x": -2.3860183085,
				"y": 0.7165134723,
				"z": 3.7021671463,
				"element": "H" 
			},
			{
				"x": -1.428079614,
				"y": 0.0205052566,
				"z": 5.0200748241,
				"element": "H" 
			},
			{
				"x": -2.6272944022,
				"y": 1.263204575,
				"z": 5.3893337022,
				"element": "H" 
			},
			{
				"x": 0.4357473025,
				"y": 3.0017423338,
				"z": 3.3680186476,
				"element": "H" 
			},
			{
				"x": 0.0979752882,
				"y": 3.2133995175,
				"z": 0.9618769544,
				"element": "H" 
			},
			{
				"x": 0.1749843325,
				"y": 2.0106516306,
				"z": -1.1903203829,
				"element": "H" 
			},
			{
				"x": -0.3556778389,
				"y": -1.7167380826,
				"z": 0.8613949777,
				"element": "H" 
			},
			{
				"x": -0.3259203382,
				"y": -0.5344318074,
				"z": 3.0268448386,
				"element": "H" 
			},
			{
				"x": -0.0251138575,
				"y": -2.5157625512,
				"z": -2.1070470187,
				"element": "H" 
			},
			{
				"x": 2.2637448907,
				"y": 0.2363584214,
				"z": -1.7075352235,
				"element": "H" 
			},
			{
				"x": 4.6236607155,
				"y": 0.1056093935,
				"z": -2.4165616927,
				"element": "H" 
			},
			{
				"x": 5.6089872402,
				"y": -2.0638822359,
				"z": -3.133931208,
				"element": "H" 
			},
			{
				"x": 4.1841936195,
				"y": -4.1096801021,
				"z": -3.1344117783,
				"element": "H" 
			},
			{
				"x": 1.8232466378,
				"y": -3.9834084901,
				"z": -2.415919037,
				"element": "H" 
			},
			{
				"x": -1.4499265928,
				"y": 1.6275724018,
				"z": -2.9578304518,
				"element": "H" 
			},
			{
				"x": -2.3450641276,
				"y": 0.9661536537,
				"z": -1.5843443919,
				"element": "H" 
			},
			{
				"x": -2.7975248693,
				"y": 0.5201364412,
				"z": -3.2563187905,
				"element": "H" 
			}
		],
		 "valence_orbital": [ 
			{
				"type": "occ",
				"energy": -0.26846,
				"method": "rhf"
			},
			{
				"type": "occ",
				"energy": -0.25798,
				"method": "rhf"
			},
			{
				"type": "occ",
				"energy": -0.24767,
				"method": "rhf"
			},
			{
				"type": "occ",
				"energy": -0.22689,
				"method": "rhf"
			},
			{
				"type": "occ",
				"energy": -0.20866,
				"method": "rhf"
			},
			{
				"type": "unocc",
				"energy": -0.03113,
				"method": "rhf"
			},
			{
				"type": "unocc",
				"energy": -0.0255,
				"method": "rhf"
			},
			{
				"type": "unocc",
				"energy": 0.00117,
				"method": "rhf"
			},
			{
				"type": "unocc",
				"energy": 0.00825,
				"method": "rhf"
			},
			{
				"type": "unocc",
				"energy": 0.01491,
				"method": "rhf"
			}
		],
		"cosmo_sigma_profile": { 
			"-0.025": 0.0,
			"-0.024": 0.0,
			"-0.023": 0.0,
			"-0.022": 0.0,
			"-0.021": 0.0,
			"-0.02": 0.0,
			"-0.019": 0.0,
			"-0.018": 0.0,
			"-0.017": 0.0,
			"-0.016": 0.0,
			"-0.015": 0.0,
			"-0.014": 0.571983850481,
			"-0.013": 1.22798988193,
			"-0.012": 1.22794751234,
			"-0.011": 1.44388011807,
			"-0.01": 1.94662999362,
			"-0.009": 2.26117183738,
			"-0.008": 5.90462426228,
			"-0.007": 11.7709093544,
			"-0.006": 15.6613982047,
			"-0.005": 26.3711440775,
			"-0.004": 28.7085582172,
			"-0.003": 29.089926995,
			"-0.002": 30.4846925798,
			"-0.001": 25.5137140533,
			"0.0": 16.6464232514,
			"0.001": 16.1550773613,
			"0.002": 17.8958639759,
			"0.003": 20.9201085089,
			"0.004": 18.0120879038,
			"0.005": 13.314555371,
			"0.006": 12.8052366856,
			"0.007": 5.91487660049,
			"0.008": 3.36017472436,
			"0.009": 2.41941101876,
			"0.01": 2.53843544097,
			"0.011": 3.82541102026,
			"0.012": 5.21729186582,
			"0.013": 8.45228840636,
			"0.014": 4.77162572129,
			"0.015": 0.530152685835,
			"0.016": 0.0,
			"0.017": 0.0,
			"0.018": 0.0,
			"0.019": 0.0,
			"0.02": 0.0,
			"0.021": 0.0,
			"0.022": 0.0,
			"0.023": 0.0,
			"0.024": 0.0,
			"0.025": 0.0
		}
	}
}
