{
	 "smiles": "COC1=C(C=C(F)C=C1F)C#N", 
	 "Tm": 308.15, 
	 "num_atms": 17, 
	 "gaussian": { 
		 "optdone": 1, 
		 "sigma_profile": "yes", 
		 "theory": "DFT", 
		 "functional": "B3LYP", 
		 "basiset": "6-31G**", 
		 "properties": { 
			 "R2extent": 2781.5625, 
			 "electric_dipole_moment_norm": 4.14571499503, 
			 "electric_quadrupole_moment_norm": 8.78317908903, 
			 "total_energy": -637.464934784, 
			 "HOMO_LUMO_gap": 0.18007, 
			 "cosmo_polarized_energy": -9.49, 
			 "cosmo_cavitation_energy": 23.68, 
			 "cosmo_dispersion_energy": -16.6, 
			 "cosmo_repulsion_energy": 1.28, 
			 "cosmo_total_nonelectrostatic_energy": 8.36, 
			 "SMD_solvation_energy": 7.24 
		},
		"coords": [
			{
				"x": -1.389256845,
				"y": -2.7904402646,
				"z": 1.3606640024,
				"element": "C" 
			},
			{
				"x": -0.5746955517,
				"y": -1.7899532322,
				"z": 0.7387447183,
				"element": "O" 
			},
			{
				"x": -0.9668309238,
				"y": -1.1320866334,
				"z": -0.3723847493,
				"element": "C" 
			},
			{
				"x": -0.0563348047,
				"y": -0.1699310371,
				"z": -0.8737575743,
				"element": "C" 
			},
			{
				"x": -0.3397080754,
				"y": 0.5849249205,
				"z": -2.0225871256,
				"element": "C" 
			},
			{
				"x": -1.5424031494,
				"y": 0.3778755563,
				"z": -2.677027842,
				"element": "C" 
			},
			{
				"x": -1.8298056198,
				"y": 1.0932054685,
				"z": -3.7799737746,
				"element": "F" 
			},
			{
				"x": -2.4652831916,
				"y": -0.5555817739,
				"z": -2.2205440569,
				"element": "C" 
			},
			{
				"x": -2.1680961064,
				"y": -1.2932483449,
				"z": -1.0825295746,
				"element": "C" 
			},
			{
				"x": -3.0880316823,
				"y": -2.1926213484,
				"z": -0.6660133245,
				"element": "F" 
			},
			{
				"x": 1.1838566523,
				"y": 0.034833185,
				"z": -0.1880670224,
				"element": "C" 
			},
			{
				"x": 2.2001130828,
				"y": 0.2270377886,
				"z": 0.3435765384,
				"element": "N" 
			},
			{
				"x": -1.574370004,
				"y": -3.6309051525,
				"z": 0.6868959681,
				"element": "H" 
			},
			{
				"x": -0.8066138779,
				"y": -3.1269579981,
				"z": 2.2184622905,
				"element": "H" 
			},
			{
				"x": -2.3418119101,
				"y": -2.3759792141,
				"z": 1.7004693955,
				"element": "H" 
			},
			{
				"x": 0.3691907122,
				"y": 1.3161747806,
				"z": -2.3907867484,
				"element": "H" 
			},
			{
				"x": -3.4054187052,
				"y": -0.7151467003,
				"z": -2.7349411206,
				"element": "H" 
			}
		],
		 "valence_orbital": [ 
			{
				"type": "occ",
				"energy": -0.35071,
				"method": "rhf"
			},
			{
				"type": "occ",
				"energy": -0.33594,
				"method": "rhf"
			},
			{
				"type": "occ",
				"energy": -0.33257,
				"method": "rhf"
			},
			{
				"type": "occ",
				"energy": -0.27544,
				"method": "rhf"
			},
			{
				"type": "occ",
				"energy": -0.2411,
				"method": "rhf"
			},
			{
				"type": "unocc",
				"energy": -0.06103,
				"method": "rhf"
			},
			{
				"type": "unocc",
				"energy": -0.01456,
				"method": "rhf"
			},
			{
				"type": "unocc",
				"energy": 0.0297,
				"method": "rhf"
			},
			{
				"type": "unocc",
				"energy": 0.05605,
				"method": "rhf"
			},
			{
				"type": "unocc",
				"energy": 0.07698,
				"method": "rhf"
			}
		],
		"cosmo_sigma_profile": { 
			"-0.025": 0.0,
			"-0.024": 0.0,
			"-0.023": 0.0,
			"-0.022": 0.0,
			"-0.021": 0.0,
			"-0.02": 0.0,
			"-0.019": 0.0,
			"-0.018": 0.0,
			"-0.017": 0.0,
			"-0.016": 0.0,
			"-0.015": 0.0,
			"-0.014": 0.0,
			"-0.013": 0.0,
			"-0.012": 0.0,
			"-0.011": 0.0,
			"-0.01": 1.04218482314,
			"-0.009": 3.80937093401,
			"-0.008": 2.84866400762,
			"-0.007": 4.50622612564,
			"-0.006": 10.8280732151,
			"-0.005": 11.4227513778,
			"-0.004": 12.9525993329,
			"-0.003": 11.657812571,
			"-0.002": 17.2708734336,
			"-0.001": 25.7475042728,
			"0.0": 16.2558255287,
			"0.001": 7.80548689992,
			"0.002": 8.9990121221,
			"0.003": 15.5767389319,
			"0.004": 10.1584076082,
			"0.005": 3.56801067217,
			"0.006": 4.61906411378,
			"0.007": 5.24261076726,
			"0.008": 4.85689855089,
			"0.009": 3.59561337976,
			"0.01": 2.89748683452,
			"0.011": 2.71471538647,
			"0.012": 2.4313894365,
			"0.013": 0.959024646264,
			"0.014": 0.0,
			"0.015": 0.0,
			"0.016": 0.0,
			"0.017": 0.0,
			"0.018": 0.0,
			"0.019": 0.0,
			"0.02": 0.0,
			"0.021": 0.0,
			"0.022": 0.0,
			"0.023": 0.0,
			"0.024": 0.0,
			"0.025": 0.0
		}
	}
}
