{
	 "smiles": "OCC(O)C(O)C(O)C(O)C(=O)CO", 
	 "Tm": 424.15, 
	 "num_atms": 28, 
	 "gaussian": { 
		 "optdone": 1, 
		 "sigma_profile": "yes", 
		 "theory": "DFT", 
		 "functional": "B3LYP", 
		 "basiset": "6-31G**", 
		 "properties": { 
			 "R2extent": 3383.2834, 
			 "electric_dipole_moment_norm": 2.80058455684, 
			 "electric_quadrupole_moment_norm": 15.3603334052, 
			 "total_energy": -801.694450906, 
			 "HOMO_LUMO_gap": 0.21826, 
			 "cosmo_polarized_energy": -23.36, 
			 "cosmo_cavitation_energy": 30.35, 
			 "cosmo_dispersion_energy": -21.38, 
			 "cosmo_repulsion_energy": 1.72, 
			 "cosmo_total_nonelectrostatic_energy": 10.69, 
			 "SMD_solvation_energy": 5.53 
		},
		"coords": [
			{
				"x": -1.0868819573,
				"y": 0.5695517359,
				"z": 1.8278944978,
				"element": "O" 
			},
			{
				"x": -0.640663552,
				"y": -0.5043566443,
				"z": 2.6420035498,
				"element": "C" 
			},
			{
				"x": -0.7359264598,
				"y": -1.8048013999,
				"z": 1.8506053753,
				"element": "C" 
			},
			{
				"x": -2.0965571344,
				"y": -2.192688097,
				"z": 1.7947537053,
				"element": "O" 
			},
			{
				"x": -0.1813213452,
				"y": -1.6703013695,
				"z": 0.4236041173,
				"element": "C" 
			},
			{
				"x": -0.4970841308,
				"y": -2.9193417517,
				"z": -0.223717437,
				"element": "O" 
			},
			{
				"x": 1.3448002714,
				"y": -1.4576588272,
				"z": 0.3525335072,
				"element": "C" 
			},
			{
				"x": 2.0125561007,
				"y": -2.674895001,
				"z": 0.6613588291,
				"element": "O" 
			},
			{
				"x": 1.8133581739,
				"y": -0.9990476584,
				"z": -1.0484461694,
				"element": "C" 
			},
			{
				"x": 1.447341249,
				"y": -1.9524722751,
				"z": -2.0524093208,
				"element": "O" 
			},
			{
				"x": 1.2791865406,
				"y": 0.3716573693,
				"z": -1.4303659693,
				"element": "C" 
			},
			{
				"x": 1.4284319104,
				"y": 1.3210096879,
				"z": -0.6778858546,
				"element": "O" 
			},
			{
				"x": 0.5781216484,
				"y": 0.5648857877,
				"z": -2.7629310463,
				"element": "C" 
			},
			{
				"x": 0.1967656186,
				"y": 1.8973766925,
				"z": -2.943355459,
				"element": "O" 
			},
			{
				"x": -1.0132082638,
				"y": 1.3878843396,
				"z": 2.332559273,
				"element": "H" 
			},
			{
				"x": 0.4007723378,
				"y": -0.3584654822,
				"z": 2.9688694363,
				"element": "H" 
			},
			{
				"x": -1.2611389728,
				"y": -0.6229203523,
				"z": 3.5419949958,
				"element": "H" 
			},
			{
				"x": -0.135685606,
				"y": -2.5626755057,
				"z": 2.3838991139,
				"element": "H" 
			},
			{
				"x": -2.1547895502,
				"y": -2.8601810273,
				"z": 1.0953799525,
				"element": "H" 
			},
			{
				"x": -0.7109375891,
				"y": -0.8439647038,
				"z": -0.0616095875,
				"element": "H" 
			},
			{
				"x": -0.2771048686,
				"y": -2.799317472,
				"z": -1.1619199813,
				"element": "H" 
			},
			{
				"x": 1.6565571155,
				"y": -0.6885390128,
				"z": 1.0653859261,
				"element": "H" 
			},
			{
				"x": 1.3530753678,
				"y": -3.3689460677,
				"z": 0.4879119738,
				"element": "H" 
			},
			{
				"x": 2.9084906815,
				"y": -0.9034945276,
				"z": -1.0040300135,
				"element": "H" 
			},
			{
				"x": 1.9813993453,
				"y": -2.739985528,
				"z": -1.8756735811,
				"element": "H" 
			},
			{
				"x": -0.2870139789,
				"y": -0.1183908926,
				"z": -2.7979678083,
				"element": "H" 
			},
			{
				"x": 1.2564264752,
				"y": 0.2229577702,
				"z": -3.5606515043,
				"element": "H" 
			},
			{
				"x": 0.4565305728,
				"y": 2.3546202132,
				"z": -2.1240905211,
				"element": "H" 
			}
		],
		 "valence_orbital": [ 
			{
				"type": "occ",
				"energy": -0.28913,
				"method": "rhf"
			},
			{
				"type": "occ",
				"energy": -0.27449,
				"method": "rhf"
			},
			{
				"type": "occ",
				"energy": -0.27139,
				"method": "rhf"
			},
			{
				"type": "occ",
				"energy": -0.27006,
				"method": "rhf"
			},
			{
				"type": "occ",
				"energy": -0.25897,
				"method": "rhf"
			},
			{
				"type": "unocc",
				"energy": -0.04071,
				"method": "rhf"
			},
			{
				"type": "unocc",
				"energy": 0.03566,
				"method": "rhf"
			},
			{
				"type": "unocc",
				"energy": 0.06811,
				"method": "rhf"
			},
			{
				"type": "unocc",
				"energy": 0.08405,
				"method": "rhf"
			},
			{
				"type": "unocc",
				"energy": 0.09723,
				"method": "rhf"
			}
		],
		"cosmo_sigma_profile": { 
			"-0.025": 0.0,
			"-0.024": 0.0,
			"-0.023": 0.0,
			"-0.022": 0.0,
			"-0.021": 0.0,
			"-0.02": 0.0,
			"-0.019": 0.0,
			"-0.018": 0.0,
			"-0.017": 0.117511094407,
			"-0.016": 1.45991270449,
			"-0.015": 1.94915150268,
			"-0.014": 1.69302703818,
			"-0.013": 2.45426649251,
			"-0.012": 2.07722878127,
			"-0.011": 3.22184480998,
			"-0.01": 4.74454467539,
			"-0.009": 6.68034345127,
			"-0.008": 7.19528541037,
			"-0.007": 10.3145796395,
			"-0.006": 13.0022773585,
			"-0.005": 14.4112158438,
			"-0.004": 19.2893658147,
			"-0.003": 16.2174551868,
			"-0.002": 11.881894738,
			"-0.001": 9.98257911173,
			"0.0": 7.77518776074,
			"0.001": 9.0028250961,
			"0.002": 7.21477937026,
			"0.003": 6.99878221772,
			"0.004": 6.8238033866,
			"0.005": 7.6919317223,
			"0.006": 7.949535219,
			"0.007": 7.13666632405,
			"0.008": 8.51784999402,
			"0.009": 8.66718504302,
			"0.01": 6.51922899915,
			"0.011": 5.02995292829,
			"0.012": 5.02343546184,
			"0.013": 6.32335528112,
			"0.014": 6.09001504355,
			"0.015": 1.34261057248,
			"0.016": 0.0,
			"0.017": 0.0,
			"0.018": 0.0,
			"0.019": 0.0,
			"0.02": 0.0,
			"0.021": 0.0,
			"0.022": 0.0,
			"0.023": 0.0,
			"0.024": 0.0,
			"0.025": 0.0
		}
	}
}
