{
	 "smiles": "CC(C)C1=NON=C1N", 
	 "Tm": 317.15, 
	 "num_atms": 18, 
	 "gaussian": { 
		 "optdone": 1, 
		 "sigma_profile": "yes", 
		 "theory": "DFT", 
		 "functional": "B3LYP", 
		 "basiset": "6-31G**", 
		 "properties": { 
			 "R2extent": 1233.4049, 
			 "electric_dipole_moment_norm": 4.69806950672, 
			 "electric_quadrupole_moment_norm": 5.02778257286, 
			 "total_energy": -435.360040068, 
			 "HOMO_LUMO_gap": 0.21897, 
			 "cosmo_polarized_energy": -12.66, 
			 "cosmo_cavitation_energy": 21.35, 
			 "cosmo_dispersion_energy": -15.63, 
			 "cosmo_repulsion_energy": 1.3, 
			 "cosmo_total_nonelectrostatic_energy": 7.02, 
			 "SMD_solvation_energy": 3.41 
		},
		"coords": [
			{
				"x": -1.2491558672,
				"y": -0.7348357151,
				"z": 2.4282844127,
				"element": "C" 
			},
			{
				"x": -0.4756698697,
				"y": -1.465571589,
				"z": 1.3139847164,
				"element": "C" 
			},
			{
				"x": 0.8481596293,
				"y": -2.0610686996,
				"z": 1.8311681239,
				"element": "C" 
			},
			{
				"x": -0.2590360213,
				"y": -0.5703554502,
				"z": 0.1214488738,
				"element": "C" 
			},
			{
				"x": -0.7458030241,
				"y": -0.8618207258,
				"z": -1.0560591548,
				"element": "N" 
			},
			{
				"x": -0.3859207183,
				"y": 0.1578917683,
				"z": -1.8951959854,
				"element": "O" 
			},
			{
				"x": 0.3631696994,
				"y": 1.1117663006,
				"z": -1.2288731987,
				"element": "N" 
			},
			{
				"x": 0.4420566282,
				"y": 0.6845641062,
				"z": 0.0073946053,
				"element": "C" 
			},
			{
				"x": 1.0471024092,
				"y": 1.4193261803,
				"z": 1.014787107,
				"element": "N" 
			},
			{
				"x": -0.6989408476,
				"y": 0.1394617693,
				"z": 2.7906774229,
				"element": "H" 
			},
			{
				"x": -2.2224437037,
				"y": -0.3897971047,
				"z": 2.0678361413,
				"element": "H" 
			},
			{
				"x": -1.4175955528,
				"y": -1.4069390317,
				"z": 3.2758320558,
				"element": "H" 
			},
			{
				"x": -1.0943151626,
				"y": -2.2939816783,
				"z": 0.9509978997,
				"element": "H" 
			},
			{
				"x": 1.3853002895,
				"y": -2.5874078182,
				"z": 1.0369437344,
				"element": "H" 
			},
			{
				"x": 1.5158735679,
				"y": -1.2914178385,
				"z": 2.2373162916,
				"element": "H" 
			},
			{
				"x": 0.6513106383,
				"y": -2.7718992154,
				"z": 2.6398702476,
				"element": "H" 
			},
			{
				"x": 1.5760588793,
				"y": 2.2067020189,
				"z": 0.6595223362,
				"element": "H" 
			},
			{
				"x": 1.5860490263,
				"y": 0.8696827229,
				"z": 1.6702643704,
				"element": "H" 
			}
		],
		 "valence_orbital": [ 
			{
				"type": "occ",
				"energy": -0.35759,
				"method": "rhf"
			},
			{
				"type": "occ",
				"energy": -0.32683,
				"method": "rhf"
			},
			{
				"type": "occ",
				"energy": -0.30067,
				"method": "rhf"
			},
			{
				"type": "occ",
				"energy": -0.29217,
				"method": "rhf"
			},
			{
				"type": "occ",
				"energy": -0.24577,
				"method": "rhf"
			},
			{
				"type": "unocc",
				"energy": -0.0268,
				"method": "rhf"
			},
			{
				"type": "unocc",
				"energy": 0.03825,
				"method": "rhf"
			},
			{
				"type": "unocc",
				"energy": 0.06448,
				"method": "rhf"
			},
			{
				"type": "unocc",
				"energy": 0.09734,
				"method": "rhf"
			},
			{
				"type": "unocc",
				"energy": 0.10093,
				"method": "rhf"
			}
		],
		"cosmo_sigma_profile": { 
			"-0.025": 0.0,
			"-0.024": 0.0,
			"-0.023": 0.0,
			"-0.022": 0.0,
			"-0.021": 0.0,
			"-0.02": 0.0,
			"-0.019": 0.0,
			"-0.018": 0.0,
			"-0.017": 0.0,
			"-0.016": 0.0,
			"-0.015": 0.0,
			"-0.014": 0.783519708691,
			"-0.013": 2.47723383845,
			"-0.012": 2.80762402297,
			"-0.011": 3.033289933,
			"-0.01": 2.90207829376,
			"-0.009": 2.69632838004,
			"-0.008": 1.93415567502,
			"-0.007": 3.11759123613,
			"-0.006": 1.96108216793,
			"-0.005": 2.8199671561,
			"-0.004": 11.3711516599,
			"-0.003": 17.9660133385,
			"-0.002": 18.7588129888,
			"-0.001": 15.6782736356,
			"0.0": 16.5904657201,
			"0.001": 10.2322914224,
			"0.002": 4.26423779348,
			"0.003": 3.58439345244,
			"0.004": 3.48350668722,
			"0.005": 4.22240997185,
			"0.006": 6.26106572562,
			"0.007": 10.6875200996,
			"0.008": 6.44212445442,
			"0.009": 3.35599978298,
			"0.01": 3.08708940645,
			"0.011": 3.01429691537,
			"0.012": 2.52998557063,
			"0.013": 1.67329801401,
			"0.014": 0.115638792551,
			"0.015": 0.0,
			"0.016": 0.0,
			"0.017": 0.0,
			"0.018": 0.0,
			"0.019": 0.0,
			"0.02": 0.0,
			"0.021": 0.0,
			"0.022": 0.0,
			"0.023": 0.0,
			"0.024": 0.0,
			"0.025": 0.0
		}
	}
}
