{
	 "smiles": "O=CC1=CC2=C(NC=C2)C=C1", 
	 "Tm": 371.15, 
	 "num_atms": 18, 
	 "gaussian": { 
		 "optdone": 1, 
		 "sigma_profile": "yes", 
		 "theory": "DFT", 
		 "functional": "B3LYP", 
		 "basiset": "6-31G**", 
		 "properties": { 
			 "R2extent": 1913.2191, 
			 "electric_dipole_moment_norm": 5.63474794645, 
			 "electric_quadrupole_moment_norm": 9.38943154563, 
			 "total_energy": -477.14803848, 
			 "HOMO_LUMO_gap": 0.1742, 
			 "cosmo_polarized_energy": -13.22, 
			 "cosmo_cavitation_energy": 22.48, 
			 "cosmo_dispersion_energy": -16.78, 
			 "cosmo_repulsion_energy": 1.32, 
			 "cosmo_total_nonelectrostatic_energy": 7.03, 
			 "SMD_solvation_energy": 4.89 
		},
		"coords": [
			{
				"x": 0.0307665395,
				"y": -3.73132313,
				"z": -0.3102703848,
				"element": "O" 
			},
			{
				"x": 0.1015845737,
				"y": -2.9400727106,
				"z": 0.6134831453,
				"element": "C" 
			},
			{
				"x": 0.1705522377,
				"y": -1.4746592489,
				"z": 0.4714207486,
				"element": "C" 
			},
			{
				"x": 0.2469245813,
				"y": -0.6788253865,
				"z": 1.6157756283,
				"element": "C" 
			},
			{
				"x": 0.3125500779,
				"y": 0.713796576,
				"z": 1.4799098513,
				"element": "C" 
			},
			{
				"x": 0.298723017,
				"y": 1.2709074731,
				"z": 0.1670670733,
				"element": "C" 
			},
			{
				"x": 0.3717366642,
				"y": 2.6363386664,
				"z": 0.3061932817,
				"element": "N" 
			},
			{
				"x": 0.4309632269,
				"y": 2.9602348261,
				"z": 1.6525477952,
				"element": "C" 
			},
			{
				"x": 0.3972035997,
				"y": 1.8151744955,
				"z": 2.4003952838,
				"element": "C" 
			},
			{
				"x": 0.2220873266,
				"y": 0.4783304983,
				"z": -0.9892767379,
				"element": "C" 
			},
			{
				"x": 0.1585677121,
				"y": -0.8926816784,
				"z": -0.8221268396,
				"element": "C" 
			},
			{
				"x": 0.11551647,
				"y": -3.2985975703,
				"z": 1.6686934167,
				"element": "H" 
			},
			{
				"x": 0.2548825802,
				"y": -1.1436561182,
				"z": 2.5994154826,
				"element": "H" 
			},
			{
				"x": 0.380908488,
				"y": 3.2997346895,
				"z": -0.4516744015,
				"element": "H" 
			},
			{
				"x": 0.492779339,
				"y": 3.993147264,
				"z": 1.9634056567,
				"element": "H" 
			},
			{
				"x": 0.4287549304,
				"y": 1.7593599233,
				"z": 3.4790394793,
				"element": "H" 
			},
			{
				"x": 0.2130411589,
				"y": 0.9260018289,
				"z": -1.9791375668,
				"element": "H" 
			},
			{
				"x": 0.097857477,
				"y": -1.5606103981,
				"z": -1.675060912,
				"element": "H" 
			}
		],
		 "valence_orbital": [ 
			{
				"type": "occ",
				"energy": -0.3319,
				"method": "rhf"
			},
			{
				"type": "occ",
				"energy": -0.28951,
				"method": "rhf"
			},
			{
				"type": "occ",
				"energy": -0.24134,
				"method": "rhf"
			},
			{
				"type": "occ",
				"energy": -0.23307,
				"method": "rhf"
			},
			{
				"type": "occ",
				"energy": -0.2179,
				"method": "rhf"
			},
			{
				"type": "unocc",
				"energy": -0.0437,
				"method": "rhf"
			},
			{
				"type": "unocc",
				"energy": -0.01643,
				"method": "rhf"
			},
			{
				"type": "unocc",
				"energy": 0.05198,
				"method": "rhf"
			},
			{
				"type": "unocc",
				"energy": 0.06857,
				"method": "rhf"
			},
			{
				"type": "unocc",
				"energy": 0.07385,
				"method": "rhf"
			}
		],
		"cosmo_sigma_profile": { 
			"-0.025": 0.0,
			"-0.024": 0.0,
			"-0.023": 0.0,
			"-0.022": 0.0,
			"-0.021": 0.0,
			"-0.02": 0.0,
			"-0.019": 0.0,
			"-0.018": 0.0,
			"-0.017": 0.0,
			"-0.016": 1.09356613114,
			"-0.015": 1.46706464308,
			"-0.014": 1.96106808106,
			"-0.013": 1.43487970998,
			"-0.012": 0.681505560797,
			"-0.011": 1.15491417006,
			"-0.01": 1.86945725834,
			"-0.009": 2.11630555092,
			"-0.008": 3.45491304671,
			"-0.007": 5.88073288145,
			"-0.006": 10.4318609107,
			"-0.005": 11.1597803989,
			"-0.004": 11.1986716044,
			"-0.003": 10.801694,
			"-0.002": 8.77672240445,
			"-0.001": 7.79808070771,
			"0.0": 10.5056280479,
			"0.001": 8.69251255297,
			"0.002": 10.2629149345,
			"0.003": 16.1564476892,
			"0.004": 18.7319577984,
			"0.005": 12.231545817,
			"0.006": 5.36996938778,
			"0.007": 1.34998539934,
			"0.008": 1.92931325719,
			"0.009": 2.04070973799,
			"0.01": 1.60956478099,
			"0.011": 3.21856570089,
			"0.012": 4.57210170491,
			"0.013": 2.40161391634,
			"0.014": 0.432453920819,
			"0.015": 0.0,
			"0.016": 0.0,
			"0.017": 0.0,
			"0.018": 0.0,
			"0.019": 0.0,
			"0.02": 0.0,
			"0.021": 0.0,
			"0.022": 0.0,
			"0.023": 0.0,
			"0.024": 0.0,
			"0.025": 0.0
		}
	}
}
