{
	 "smiles": "COC1=CC=C2N=C(N)SC2=C1", 
	 "Tm": 437.15, 
	 "num_atms": 20, 
	 "gaussian": { 
		 "optdone": 1, 
		 "sigma_profile": "yes", 
		 "theory": "DFT", 
		 "functional": "B3LYP", 
		 "basiset": "6-31G**", 
		 "properties": { 
			 "R2extent": 2856.7712, 
			 "electric_dipole_moment_norm": 1.06562780557, 
			 "electric_quadrupole_moment_norm": 19.5762670916, 
			 "total_energy": -892.584948563, 
			 "HOMO_LUMO_gap": 0.18874, 
			 "cosmo_polarized_energy": -12.42, 
			 "cosmo_cavitation_energy": 25.65, 
			 "cosmo_dispersion_energy": -19.98, 
			 "cosmo_repulsion_energy": 1.54, 
			 "cosmo_total_nonelectrostatic_energy": 7.21, 
			 "SMD_solvation_energy": 2.91 
		},
		"coords": [
			{
				"x": -3.8251881007,
				"y": -0.6114449249,
				"z": 1.9348918781,
				"element": "C" 
			},
			{
				"x": -3.1004577963,
				"y": 0.4418257922,
				"z": 1.3236828995,
				"element": "O" 
			},
			{
				"x": -1.9393255861,
				"y": 0.1342612791,
				"z": 0.6675317864,
				"element": "C" 
			},
			{
				"x": -1.4089004749,
				"y": -1.1623055357,
				"z": 0.558137126,
				"element": "C" 
			},
			{
				"x": -0.2158340092,
				"y": -1.3826268615,
				"z": -0.1314724307,
				"element": "C" 
			},
			{
				"x": 0.4608767426,
				"y": -0.3131360158,
				"z": -0.720475559,
				"element": "C" 
			},
			{
				"x": 1.6595483845,
				"y": -0.3978545901,
				"z": -1.4188439826,
				"element": "N" 
			},
			{
				"x": 2.0281824598,
				"y": 0.7670097069,
				"z": -1.8395731011,
				"element": "C" 
			},
			{
				"x": 3.1355646078,
				"y": 0.9963055632,
				"z": -2.6199962317,
				"element": "N" 
			},
			{
				"x": 0.945673151,
				"y": 2.1392664442,
				"z": -1.433406153,
				"element": "S" 
			},
			{
				"x": -0.0945335642,
				"y": 0.9863649439,
				"z": -0.5989660755,
				"element": "C" 
			},
			{
				"x": -1.2783000026,
				"y": 1.225064536,
				"z": 0.0850970389,
				"element": "C" 
			},
			{
				"x": -4.7019146052,
				"y": -0.1489181461,
				"z": 2.3914261784,
				"element": "H" 
			},
			{
				"x": -4.1543580406,
				"y": -1.3588763798,
				"z": 1.2010049062,
				"element": "H" 
			},
			{
				"x": -3.2362741461,
				"y": -1.1123948112,
				"z": 2.7145625684,
				"element": "H" 
			},
			{
				"x": -1.9196432411,
				"y": -2.0050990658,
				"z": 1.0076619018,
				"element": "H" 
			},
			{
				"x": 0.1965476543,
				"y": -2.3826398689,
				"z": -0.2166728287,
				"element": "H" 
			},
			{
				"x": 3.5861073892,
				"y": 1.8952877731,
				"z": -2.5264653998,
				"element": "H" 
			},
			{
				"x": 3.7742099404,
				"y": 0.2119778373,
				"z": -2.6441010256,
				"element": "H" 
			},
			{
				"x": -1.7092807625,
				"y": 2.2151323239,
				"z": 0.1831765039,
				"element": "H" 
			}
		],
		 "valence_orbital": [ 
			{
				"type": "occ",
				"energy": -0.29419,
				"method": "rhf"
			},
			{
				"type": "occ",
				"energy": -0.27161,
				"method": "rhf"
			},
			{
				"type": "occ",
				"energy": -0.26929,
				"method": "rhf"
			},
			{
				"type": "occ",
				"energy": -0.22707,
				"method": "rhf"
			},
			{
				"type": "occ",
				"energy": -0.19443,
				"method": "rhf"
			},
			{
				"type": "unocc",
				"energy": -0.00569,
				"method": "rhf"
			},
			{
				"type": "unocc",
				"energy": 0.00265,
				"method": "rhf"
			},
			{
				"type": "unocc",
				"energy": 0.00728,
				"method": "rhf"
			},
			{
				"type": "unocc",
				"energy": 0.05682,
				"method": "rhf"
			},
			{
				"type": "unocc",
				"energy": 0.07131,
				"method": "rhf"
			}
		],
		"cosmo_sigma_profile": { 
			"-0.025": 0.0,
			"-0.024": 0.0,
			"-0.023": 0.0,
			"-0.022": 0.0,
			"-0.021": 0.0,
			"-0.02": 0.0,
			"-0.019": 0.0,
			"-0.018": 0.0,
			"-0.017": 0.0,
			"-0.016": 0.0,
			"-0.015": 0.627442919051,
			"-0.014": 2.32377191315,
			"-0.013": 2.35396343785,
			"-0.012": 2.45969011731,
			"-0.011": 3.59299262298,
			"-0.01": 1.81164141737,
			"-0.009": 1.69179096902,
			"-0.008": 1.91248556601,
			"-0.007": 3.59821847852,
			"-0.006": 9.2047882137,
			"-0.005": 15.4825947928,
			"-0.004": 15.0960750317,
			"-0.003": 13.9097083154,
			"-0.002": 11.0516131304,
			"-0.001": 8.38748524762,
			"0.0": 8.79258597303,
			"0.001": 12.9642519209,
			"0.002": 13.9886213892,
			"0.003": 16.2907304977,
			"0.004": 20.2196864016,
			"0.005": 14.8086970173,
			"0.006": 6.46982486325,
			"0.007": 4.40187602885,
			"0.008": 4.03648210048,
			"0.009": 2.60628565268,
			"0.01": 3.1241881442,
			"0.011": 2.06849852861,
			"0.012": 0.884871669984,
			"0.013": 0.97478783298,
			"0.014": 0.972397257688,
			"0.015": 0.828269924577,
			"0.016": 0.0892245792567,
			"0.017": 0.0,
			"0.018": 0.0,
			"0.019": 0.0,
			"0.02": 0.0,
			"0.021": 0.0,
			"0.022": 0.0,
			"0.023": 0.0,
			"0.024": 0.0,
			"0.025": 0.0
		}
	}
}
