{
	 "smiles": "CC1=C(CN2CCNCC2)N2C=CC(C)=CC2=N1", 
	 "Tm": 371.15, 
	 "num_atms": 38, 
	 "gaussian": { 
		 "optdone": 1, 
		 "sigma_profile": "yes", 
		 "theory": "DFT", 
		 "functional": "B3LYP", 
		 "basiset": "6-31G**", 
		 "properties": { 
			 "R2extent": 5820.3166, 
			 "electric_dipole_moment_norm": 3.35123309992, 
			 "electric_quadrupole_moment_norm": 14.9473018669, 
			 "total_energy": -764.53659673, 
			 "HOMO_LUMO_gap": 0.173, 
			 "cosmo_polarized_energy": -13.39, 
			 "cosmo_cavitation_energy": 38.73, 
			 "cosmo_dispersion_energy": -27.14, 
			 "cosmo_repulsion_energy": 2.09, 
			 "cosmo_total_nonelectrostatic_energy": 13.69, 
			 "SMD_solvation_energy": 1.12 
		},
		"coords": [
			{
				"x": 2.9510047967,
				"y": 1.3036783553,
				"z": 0.3288214527,
				"element": "C" 
			},
			{
				"x": 1.72122131,
				"y": 1.2863674676,
				"z": -0.5255834259,
				"element": "C" 
			},
			{
				"x": 0.4631326708,
				"y": 0.8244457135,
				"z": -0.157912243,
				"element": "C" 
			},
			{
				"x": -0.0235880484,
				"y": 0.2394406262,
				"z": 1.1320921022,
				"element": "C" 
			},
			{
				"x": 0.5774354158,
				"y": -1.0577662063,
				"z": 1.4531588159,
				"element": "N" 
			},
			{
				"x": 0.2359867201,
				"y": -1.4794774254,
				"z": 2.8151009685,
				"element": "C" 
			},
			{
				"x": 0.742228446,
				"y": -2.9294536942,
				"z": 3.0687107729,
				"element": "C" 
			},
			{
				"x": 1.7605368871,
				"y": -3.3581733433,
				"z": 2.1131287064,
				"element": "N" 
			},
			{
				"x": 1.2270698721,
				"y": -3.3146155989,
				"z": 0.7454403051,
				"element": "C" 
			},
			{
				"x": 0.2664411222,
				"y": -2.1178214589,
				"z": 0.4969343672,
				"element": "C" 
			},
			{
				"x": -0.3336441086,
				"y": 1.0275411776,
				"z": -1.2801110487,
				"element": "N" 
			},
			{
				"x": -1.6582842727,
				"y": 0.7684771075,
				"z": -1.5342705033,
				"element": "C" 
			},
			{
				"x": -2.1878860045,
				"y": 1.0799684604,
				"z": -2.7543157359,
				"element": "C" 
			},
			{
				"x": -1.391716557,
				"y": 1.6733429348,
				"z": -3.783632973,
				"element": "C" 
			},
			{
				"x": -2.0160123833,
				"y": 2.003673234,
				"z": -5.1159974675,
				"element": "C" 
			},
			{
				"x": -0.0642652852,
				"y": 1.9255540623,
				"z": -3.5178043166,
				"element": "C" 
			},
			{
				"x": 0.495980686,
				"y": 1.607525875,
				"z": -2.2592090388,
				"element": "C" 
			},
			{
				"x": 1.7367061404,
				"y": 1.7611575972,
				"z": -1.8054240305,
				"element": "N" 
			},
			{
				"x": 3.0895306932,
				"y": 2.280951484,
				"z": 0.8081963472,
				"element": "H" 
			},
			{
				"x": 3.8347088153,
				"y": 1.1177617852,
				"z": -0.2875074784,
				"element": "H" 
			},
			{
				"x": 2.893183047,
				"y": 0.540912872,
				"z": 1.1092452831,
				"element": "H" 
			},
			{
				"x": 0.2333593039,
				"y": 0.9173867159,
				"z": 1.9566423064,
				"element": "H" 
			},
			{
				"x": -1.1305458166,
				"y": 0.1852292179,
				"z": 1.1309266781,
				"element": "H" 
			},
			{
				"x": -0.8574808764,
				"y": -1.4308849241,
				"z": 2.9960465004,
				"element": "H" 
			},
			{
				"x": 0.7041646381,
				"y": -0.774861428,
				"z": 3.5144566792,
				"element": "H" 
			},
			{
				"x": -0.0945764506,
				"y": -3.6348743837,
				"z": 2.9973377116,
				"element": "H" 
			},
			{
				"x": 1.1387919893,
				"y": -3.017164698,
				"z": 4.0853600186,
				"element": "H" 
			},
			{
				"x": 2.5359421451,
				"y": -2.7020329086,
				"z": 2.1656831167,
				"element": "H" 
			},
			{
				"x": 2.0766863948,
				"y": -3.265674403,
				"z": 0.0577724002,
				"element": "H" 
			},
			{
				"x": 0.6982909948,
				"y": -4.2541867182,
				"z": 0.5380656281,
				"element": "H" 
			},
			{
				"x": 0.3987947287,
				"y": -1.7305274228,
				"z": -0.5171789063,
				"element": "H" 
			},
			{
				"x": -0.7910836664,
				"y": -2.4406762243,
				"z": 0.5846416443,
				"element": "H" 
			},
			{
				"x": -2.2316680869,
				"y": 0.3174867269,
				"z": -0.7343239709,
				"element": "H" 
			},
			{
				"x": -3.2367361471,
				"y": 0.8670303994,
				"z": -2.9335470056,
				"element": "H" 
			},
			{
				"x": -1.2859783883,
				"y": 2.4465026644,
				"z": -5.7982363609,
				"element": "H" 
			},
			{
				"x": -2.42620009,
				"y": 1.107403479,
				"z": -5.5967743878,
				"element": "H" 
			},
			{
				"x": -2.844619245,
				"y": 2.7130918352,
				"z": -5.0025860557,
				"element": "H" 
			},
			{
				"x": 0.5922886096,
				"y": 2.3723610465,
				"z": -4.2566468558,
				"element": "H" 
			}
		],
		 "valence_orbital": [ 
			{
				"type": "occ",
				"energy": -0.25843,
				"method": "rhf"
			},
			{
				"type": "occ",
				"energy": -0.22917,
				"method": "rhf"
			},
			{
				"type": "occ",
				"energy": -0.22016,
				"method": "rhf"
			},
			{
				"type": "occ",
				"energy": -0.21622,
				"method": "rhf"
			},
			{
				"type": "occ",
				"energy": -0.19617,
				"method": "rhf"
			},
			{
				"type": "unocc",
				"energy": -0.02317,
				"method": "rhf"
			},
			{
				"type": "unocc",
				"energy": 0.00657,
				"method": "rhf"
			},
			{
				"type": "unocc",
				"energy": 0.05422,
				"method": "rhf"
			},
			{
				"type": "unocc",
				"energy": 0.08174,
				"method": "rhf"
			},
			{
				"type": "unocc",
				"energy": 0.08791,
				"method": "rhf"
			}
		],
		"cosmo_sigma_profile": { 
			"-0.025": 0.0,
			"-0.024": 0.0,
			"-0.023": 0.0,
			"-0.022": 0.0,
			"-0.021": 0.0,
			"-0.02": 0.0,
			"-0.019": 0.0,
			"-0.018": 0.0,
			"-0.017": 0.0,
			"-0.016": 0.0,
			"-0.015": 0.0,
			"-0.014": 0.0,
			"-0.013": 0.0,
			"-0.012": 0.0,
			"-0.011": 0.0,
			"-0.01": 0.0,
			"-0.009": 0.77178271284,
			"-0.008": 3.38381947616,
			"-0.007": 3.81571508052,
			"-0.006": 7.55301633489,
			"-0.005": 10.8229417663,
			"-0.004": 22.8693467938,
			"-0.003": 36.9435422422,
			"-0.002": 45.0044789421,
			"-0.001": 44.0050508056,
			"0.0": 31.3519104522,
			"0.001": 19.9619607758,
			"0.002": 12.8623472002,
			"0.003": 14.5789930026,
			"0.004": 14.2695518161,
			"0.005": 5.25169363944,
			"0.006": 4.44694324114,
			"0.007": 4.31459155709,
			"0.008": 2.50961407753,
			"0.009": 2.81004791724,
			"0.01": 2.10551473137,
			"0.011": 1.66185534631,
			"0.012": 1.58260029449,
			"0.013": 2.05731210743,
			"0.014": 1.81918451104,
			"0.015": 1.43281622548,
			"0.016": 1.42336012241,
			"0.017": 1.89945401197,
			"0.018": 1.28064437016,
			"0.019": 0.644008252556,
			"0.02": 0.0,
			"0.021": 0.0,
			"0.022": 0.0,
			"0.023": 0.0,
			"0.024": 0.0,
			"0.025": 0.0
		}
	}
}
