{
	 "smiles": "OCC1=CC(I)=C(CO)C=C1I", 
	 "Tm": 492.15, 
	 "num_atms": 20, 
	 "gaussian": { 
		 "optdone": 1, 
		 "sigma_profile": "yes", 
		 "theory": "DFT", 
		 "functional": "B3LYP", 
		 "basiset": "6-31G**", 
		 "properties": { 
			 "R2extent": 2941.2142, 
			 "electric_dipole_moment_norm": 2.15383311796, 
			 "electric_quadrupole_moment_norm": 5.7102452513, 
			 "total_energy": -482.867606584, 
			 "HOMO_LUMO_gap": 0.19279, 
			 "cosmo_polarized_energy": -11.43, 
			 "cosmo_cavitation_energy": 29.56, 
			 "cosmo_dispersion_energy": -24.22, 
			 "cosmo_repulsion_energy": 1.88, 
			 "cosmo_total_nonelectrostatic_energy": 7.22, 
			 "SMD_solvation_energy": 3.24 
		},
		"coords": [
			{
				"x": 1.1901443542,
				"y": 1.2093024278,
				"z": -4.3984506388,
				"element": "O" 
			},
			{
				"x": 1.423722133,
				"y": 1.6884899059,
				"z": -3.0831970464,
				"element": "C" 
			},
			{
				"x": 0.7437245109,
				"y": 0.8587581552,
				"z": -2.0073818472,
				"element": "C" 
			},
			{
				"x": 1.5087924146,
				"y": -0.0312126127,
				"z": -1.2410898601,
				"element": "C" 
			},
			{
				"x": 0.9312864242,
				"y": -0.8189970054,
				"z": -0.2467454715,
				"element": "C" 
			},
			{
				"x": 2.2093723743,
				"y": -2.1406085976,
				"z": 0.8267936318,
				"element": "I" 
			},
			{
				"x": -0.4402057349,
				"y": -0.7563978903,
				"z": 0.0269380065,
				"element": "C" 
			},
			{
				"x": -1.1227231654,
				"y": -1.5984650265,
				"z": 1.095983034,
				"element": "C" 
			},
			{
				"x": -2.4555426857,
				"y": -1.2054363109,
				"z": 1.3666113951,
				"element": "O" 
			},
			{
				"x": -1.2125766311,
				"y": 0.1183918622,
				"z": -0.7469724256,
				"element": "C" 
			},
			{
				"x": -0.6293273192,
				"y": 0.905876908,
				"z": -1.7355840532,
				"element": "C" 
			},
			{
				"x": -1.921236053,
				"y": 2.1936401042,
				"z": -2.844374179,
				"element": "I" 
			},
			{
				"x": 0.2657179689,
				"y": 1.3913401296,
				"z": -4.6184644601,
				"element": "H" 
			},
			{
				"x": 2.5059863063,
				"y": 1.6426198041,
				"z": -2.9356066986,
				"element": "H" 
			},
			{
				"x": 1.1210369918,
				"y": 2.7405981267,
				"z": -2.9785343589,
				"element": "H" 
			},
			{
				"x": 2.5741775014,
				"y": -0.1001992632,
				"z": -1.4344687927,
				"element": "H" 
			},
			{
				"x": -0.5080130794,
				"y": -1.59979788,
				"z": 2.0069672502,
				"element": "H" 
			},
			{
				"x": -1.1775829788,
				"y": -2.6393862831,
				"z": 0.7562952435,
				"element": "H" 
			},
			{
				"x": -2.4279874278,
				"y": -0.3704222001,
				"z": 1.8524059268,
				"element": "H" 
			},
			{
				"x": -2.278165904,
				"y": 0.1562056459,
				"z": -0.5546246556,
				"element": "H" 
			}
		],
		 "valence_orbital": [ 
			{
				"type": "occ",
				"energy": -0.28194,
				"method": "rhf"
			},
			{
				"type": "occ",
				"energy": -0.27738,
				"method": "rhf"
			},
			{
				"type": "occ",
				"energy": -0.27565,
				"method": "rhf"
			},
			{
				"type": "occ",
				"energy": -0.26615,
				"method": "rhf"
			},
			{
				"type": "occ",
				"energy": -0.24371,
				"method": "rhf"
			},
			{
				"type": "unocc",
				"energy": -0.05092,
				"method": "rhf"
			},
			{
				"type": "unocc",
				"energy": -0.04731,
				"method": "rhf"
			},
			{
				"type": "unocc",
				"energy": -0.03841,
				"method": "rhf"
			},
			{
				"type": "unocc",
				"energy": -0.02973,
				"method": "rhf"
			},
			{
				"type": "unocc",
				"energy": 0.02632,
				"method": "rhf"
			}
		],
		"cosmo_sigma_profile": { 
			"-0.025": 0.0,
			"-0.024": 0.0,
			"-0.023": 0.0,
			"-0.022": 0.0,
			"-0.021": 0.0,
			"-0.02": 0.0,
			"-0.019": 0.0,
			"-0.018": 0.0,
			"-0.017": 0.0324053692969,
			"-0.016": 0.791526686435,
			"-0.015": 1.19386639077,
			"-0.014": 1.05331256204,
			"-0.013": 1.03581148964,
			"-0.012": 0.910899449817,
			"-0.011": 1.71704603474,
			"-0.01": 1.55091974514,
			"-0.009": 1.63580764766,
			"-0.008": 2.6067464884,
			"-0.007": 7.67000410003,
			"-0.006": 10.2091740042,
			"-0.005": 13.007741758,
			"-0.004": 16.2305845854,
			"-0.003": 19.1945318513,
			"-0.002": 16.0481924222,
			"-0.001": 15.1061716862,
			"0.0": 16.7435627302,
			"0.001": 19.6443146097,
			"0.002": 26.9339858284,
			"0.003": 24.5936276252,
			"0.004": 18.2509293092,
			"0.005": 5.16793809446,
			"0.006": 2.62569659527,
			"0.007": 2.46915386203,
			"0.008": 1.25639090932,
			"0.009": 2.27661511574,
			"0.01": 2.71368813883,
			"0.011": 2.89340918181,
			"0.012": 1.94887363747,
			"0.013": 4.34907185783,
			"0.014": 2.4966092509,
			"0.015": 0.0935098653403,
			"0.016": 0.0,
			"0.017": 0.0,
			"0.018": 0.0,
			"0.019": 0.0,
			"0.02": 0.0,
			"0.021": 0.0,
			"0.022": 0.0,
			"0.023": 0.0,
			"0.024": 0.0,
			"0.025": 0.0
		}
	}
}
