{
	 "smiles": "CC(C)CS", 
	 "Tm": 128.15, 
	 "num_atms": 15, 
	 "gaussian": { 
		 "optdone": 1, 
		 "sigma_profile": "yes", 
		 "theory": "DFT", 
		 "functional": "B3LYP", 
		 "basiset": "6-31G**", 
		 "properties": { 
			 "R2extent": 959.289, 
			 "electric_dipole_moment_norm": 1.72068201013, 
			 "electric_quadrupole_moment_norm": 5.89161574443, 
			 "total_energy": -556.649966373, 
			 "HOMO_LUMO_gap": 0.26067, 
			 "cosmo_polarized_energy": -4.08, 
			 "cosmo_cavitation_energy": 18.43, 
			 "cosmo_dispersion_energy": -14.15, 
			 "cosmo_repulsion_energy": 1.19, 
			 "cosmo_total_nonelectrostatic_energy": 5.47, 
			 "SMD_solvation_energy": 2.91 
		},
		"coords": [
			{
				"x": 0.4423644869,
				"y": -1.1624750353,
				"z": -0.96091302,
				"element": "C" 
			},
			{
				"x": -0.6198936892,
				"y": -0.125874127,
				"z": -0.5606851815,
				"element": "C" 
			},
			{
				"x": -0.0192825726,
				"y": 1.2868576073,
				"z": -0.522695497,
				"element": "C" 
			},
			{
				"x": -1.2488795953,
				"y": -0.5334972247,
				"z": 0.7813720193,
				"element": "C" 
			},
			{
				"x": -2.685576118,
				"y": 0.5529712564,
				"z": 1.2123727778,
				"element": "S" 
			},
			{
				"x": 0.0162442064,
				"y": -2.1687198027,
				"z": -1.0358858122,
				"element": "H" 
			},
			{
				"x": 1.2561777998,
				"y": -1.1957596277,
				"z": -0.2264962613,
				"element": "H" 
			},
			{
				"x": 0.8829705631,
				"y": -0.9119046879,
				"z": -1.9315087494,
				"element": "H" 
			},
			{
				"x": -1.4149227927,
				"y": -0.1438911761,
				"z": -1.3189246397,
				"element": "H" 
			},
			{
				"x": 0.7775559365,
				"y": 1.3501216387,
				"z": 0.2283427096,
				"element": "H" 
			},
			{
				"x": -0.768968288,
				"y": 2.0442067517,
				"z": -0.2760905976,
				"element": "H" 
			},
			{
				"x": 0.4152588151,
				"y": 1.5479121066,
				"z": -1.493319493,
				"element": "H" 
			},
			{
				"x": -1.6079032864,
				"y": -1.5646637688,
				"z": 0.7243886675,
				"element": "H" 
			},
			{
				"x": -0.5026391939,
				"y": -0.4699579415,
				"z": 1.5803549148,
				"element": "H" 
			},
			{
				"x": -3.0810062717,
				"y": -0.1409259691,
				"z": 2.2978881626,
				"element": "H" 
			}
		],
		 "valence_orbital": [ 
			{
				"type": "occ",
				"energy": -0.3484,
				"method": "rhf"
			},
			{
				"type": "occ",
				"energy": -0.33502,
				"method": "rhf"
			},
			{
				"type": "occ",
				"energy": -0.33186,
				"method": "rhf"
			},
			{
				"type": "occ",
				"energy": -0.31514,
				"method": "rhf"
			},
			{
				"type": "occ",
				"energy": -0.23211,
				"method": "rhf"
			},
			{
				"type": "unocc",
				"energy": 0.02856,
				"method": "rhf"
			},
			{
				"type": "unocc",
				"energy": 0.07082,
				"method": "rhf"
			},
			{
				"type": "unocc",
				"energy": 0.09704,
				"method": "rhf"
			},
			{
				"type": "unocc",
				"energy": 0.1243,
				"method": "rhf"
			},
			{
				"type": "unocc",
				"energy": 0.13876,
				"method": "rhf"
			}
		],
		"cosmo_sigma_profile": { 
			"-0.025": 0.0,
			"-0.024": 0.0,
			"-0.023": 0.0,
			"-0.022": 0.0,
			"-0.021": 0.0,
			"-0.02": 0.0,
			"-0.019": 0.0,
			"-0.018": 0.0,
			"-0.017": 0.0,
			"-0.016": 0.0,
			"-0.015": 0.0,
			"-0.014": 0.0,
			"-0.013": 0.0,
			"-0.012": 0.0,
			"-0.011": 0.0,
			"-0.01": 0.0,
			"-0.009": 1.08256591756,
			"-0.008": 1.90368916097,
			"-0.007": 1.91003661057,
			"-0.006": 1.81055541106,
			"-0.005": 3.08131210786,
			"-0.004": 7.57099807657,
			"-0.003": 17.0168510508,
			"-0.002": 20.7754230678,
			"-0.001": 20.5779479825,
			"0.0": 17.6068147029,
			"0.001": 17.4951307386,
			"0.002": 7.98371363166,
			"0.003": 3.35908038356,
			"0.004": 2.93919726495,
			"0.005": 3.89072610345,
			"0.006": 3.45732227107,
			"0.007": 2.51405817473,
			"0.008": 2.8633810245,
			"0.009": 2.16622131438,
			"0.01": 2.43094910538,
			"0.011": 1.78452034586,
			"0.012": 0.614675488361,
			"0.013": 0.0,
			"0.014": 0.0,
			"0.015": 0.0,
			"0.016": 0.0,
			"0.017": 0.0,
			"0.018": 0.0,
			"0.019": 0.0,
			"0.02": 0.0,
			"0.021": 0.0,
			"0.022": 0.0,
			"0.023": 0.0,
			"0.024": 0.0,
			"0.025": 0.0
		}
	}
}
