{
	 "smiles": "CCC1=C(C=CC=C1)N(C(C)=O)C1=NC(CN=C=S)=CS1", 
	 "Tm": 370.15, 
	 "num_atms": 36, 
	 "gaussian": { 
		 "optdone": 1, 
		 "sigma_profile": "yes", 
		 "theory": "DFT", 
		 "functional": "B3LYP", 
		 "basiset": "6-31G**", 
		 "properties": { 
			 "R2extent": 8744.044, 
			 "electric_dipole_moment_norm": 4.87769853107, 
			 "electric_quadrupole_moment_norm": 20.1567012271, 
			 "total_energy": -1616.48947892, 
			 "HOMO_LUMO_gap": 0.1934, 
			 "cosmo_polarized_energy": -13.73, 
			 "cosmo_cavitation_energy": 44.04, 
			 "cosmo_dispersion_energy": -29.17, 
			 "cosmo_repulsion_energy": 2.21, 
			 "cosmo_total_nonelectrostatic_energy": 17.08, 
			 "SMD_solvation_energy": 6.8 
		},
		"coords": [
			{
				"x": -1.5929608704,
				"y": -3.2560712121,
				"z": -0.2425132314,
				"element": "C" 
			},
			{
				"x": -1.8359179344,
				"y": -2.0784622367,
				"z": 0.7212904944,
				"element": "C" 
			},
			{
				"x": -0.5758056866,
				"y": -1.6484776978,
				"z": 1.441688362,
				"element": "C" 
			},
			{
				"x": 0.1901026061,
				"y": -0.5377736169,
				"z": 1.0486764894,
				"element": "C" 
			},
			{
				"x": 1.3782393257,
				"y": -0.2030084096,
				"z": 1.7052988324,
				"element": "C" 
			},
			{
				"x": 1.8249397943,
				"y": -0.9668901602,
				"z": 2.7798082274,
				"element": "C" 
			},
			{
				"x": 1.0735079147,
				"y": -2.0678328767,
				"z": 3.1949406314,
				"element": "C" 
			},
			{
				"x": -0.1066122196,
				"y": -2.3967103291,
				"z": 2.5316595336,
				"element": "C" 
			},
			{
				"x": -0.2400384185,
				"y": 0.3102124297,
				"z": -0.04847042,
				"element": "N" 
			},
			{
				"x": 0.19575986,
				"y": -0.0750652858,
				"z": -1.3495290985,
				"element": "C" 
			},
			{
				"x": -0.1631234422,
				"y": 0.7786814238,
				"z": -2.539900095,
				"element": "C" 
			},
			{
				"x": 0.8516562205,
				"y": -1.0954469912,
				"z": -1.4543354524,
				"element": "O" 
			},
			{
				"x": -1.0150243908,
				"y": 1.4208977764,
				"z": 0.2706245918,
				"element": "C" 
			},
			{
				"x": -1.4981724599,
				"y": 2.2946931112,
				"z": -0.5648245786,
				"element": "N" 
			},
			{
				"x": -2.2346589628,
				"y": 3.2574127482,
				"z": 0.091311968,
				"element": "C" 
			},
			{
				"x": -2.8709595418,
				"y": 4.352626385,
				"z": -0.7239471137,
				"element": "C" 
			},
			{
				"x": -3.8187068475,
				"y": 3.8502718568,
				"z": -1.6874325498,
				"element": "N" 
			},
			{
				"x": -4.0381658194,
				"y": 2.9952527884,
				"z": -2.4954122198,
				"element": "C" 
			},
			{
				"x": -4.4558919927,
				"y": 1.9235860094,
				"z": -3.5953197509,
				"element": "S" 
			},
			{
				"x": -2.3212434811,
				"y": 3.1268469455,
				"z": 1.4439266901,
				"element": "C" 
			},
			{
				"x": -1.4295202034,
				"y": 1.7282361481,
				"z": 1.971225912,
				"element": "S" 
			},
			{
				"x": -0.8434954971,
				"y": -2.9944620305,
				"z": -0.9933836776,
				"element": "H" 
			},
			{
				"x": -2.5215114546,
				"y": -3.5307258091,
				"z": -0.7533672829,
				"element": "H" 
			},
			{
				"x": -1.2318769414,
				"y": -4.1365314322,
				"z": 0.2989811666,
				"element": "H" 
			},
			{
				"x": -2.2603080938,
				"y": -1.2368636835,
				"z": 0.1663286981,
				"element": "H" 
			},
			{
				"x": -2.585487637,
				"y": -2.3687198552,
				"z": 1.4671882319,
				"element": "H" 
			},
			{
				"x": 1.9440138119,
				"y": 0.6575210121,
				"z": 1.3618462451,
				"element": "H" 
			},
			{
				"x": 2.748227519,
				"y": -0.7048179567,
				"z": 3.2869744118,
				"element": "H" 
			},
			{
				"x": 1.4065367216,
				"y": -2.6699374336,
				"z": 4.0353821046,
				"element": "H" 
			},
			{
				"x": -0.6849929369,
				"y": -3.2567315081,
				"z": 2.8598373336,
				"element": "H" 
			},
			{
				"x": 0.306146101,
				"y": 0.3168811974,
				"z": -3.4087924056,
				"element": "H" 
			},
			{
				"x": 0.183571658,
				"y": 1.8067134511,
				"z": -2.4164158661,
				"element": "H" 
			},
			{
				"x": -1.2454358537,
				"y": 0.8362393381,
				"z": -2.6785270604,
				"element": "H" 
			},
			{
				"x": -2.0993225469,
				"y": 4.9108858775,
				"z": -1.2697237015,
				"element": "H" 
			},
			{
				"x": -3.3846627688,
				"y": 5.0587857679,
				"z": -0.0665864439,
				"element": "H" 
			},
			{
				"x": -2.8482055316,
				"y": 3.7518842585,
				"z": 2.1505910241,
				"element": "H" 
			}
		],
		 "valence_orbital": [ 
			{
				"type": "occ",
				"energy": -0.25944,
				"method": "rhf"
			},
			{
				"type": "occ",
				"energy": -0.25476,
				"method": "rhf"
			},
			{
				"type": "occ",
				"energy": -0.25104,
				"method": "rhf"
			},
			{
				"type": "occ",
				"energy": -0.24486,
				"method": "rhf"
			},
			{
				"type": "occ",
				"energy": -0.22976,
				"method": "rhf"
			},
			{
				"type": "unocc",
				"energy": -0.03636,
				"method": "rhf"
			},
			{
				"type": "unocc",
				"energy": -0.02461,
				"method": "rhf"
			},
			{
				"type": "unocc",
				"energy": -0.01813,
				"method": "rhf"
			},
			{
				"type": "unocc",
				"energy": -0.01258,
				"method": "rhf"
			},
			{
				"type": "unocc",
				"energy": 0.00715,
				"method": "rhf"
			}
		],
		"cosmo_sigma_profile": { 
			"-0.025": 0.0,
			"-0.024": 0.0,
			"-0.023": 0.0,
			"-0.022": 0.0,
			"-0.021": 0.0,
			"-0.02": 0.0,
			"-0.019": 0.0,
			"-0.018": 0.0,
			"-0.017": 0.0,
			"-0.016": 0.0,
			"-0.015": 0.0,
			"-0.014": 0.0,
			"-0.013": 0.0,
			"-0.012": 0.0,
			"-0.011": 0.0,
			"-0.01": 0.337342947775,
			"-0.009": 3.10870500825,
			"-0.008": 7.16877311066,
			"-0.007": 8.09275915058,
			"-0.006": 13.6494891216,
			"-0.005": 20.1578963846,
			"-0.004": 26.0692796054,
			"-0.003": 25.1251764975,
			"-0.002": 24.8277798423,
			"-0.001": 32.181814152,
			"0.0": 33.05341199,
			"0.001": 37.6438975054,
			"0.002": 33.0489746905,
			"0.003": 27.5886769883,
			"0.004": 20.0582397707,
			"0.005": 16.271349986,
			"0.006": 10.7796919665,
			"0.007": 2.96796351248,
			"0.008": 2.20440818314,
			"0.009": 2.14168716508,
			"0.01": 1.84451629692,
			"0.011": 2.66799375133,
			"0.012": 3.90501981415,
			"0.013": 1.69801410498,
			"0.014": 0.0545308408045,
			"0.015": 0.0,
			"0.016": 0.0,
			"0.017": 0.0,
			"0.018": 0.0,
			"0.019": 0.0,
			"0.02": 0.0,
			"0.021": 0.0,
			"0.022": 0.0,
			"0.023": 0.0,
			"0.024": 0.0,
			"0.025": 0.0
		}
	}
}
