{
	 "smiles": "NC(=O)CCSCCC(N)=O", 
	 "Tm": 457.15, 
	 "num_atms": 23, 
	 "gaussian": { 
		 "optdone": 1, 
		 "sigma_profile": "yes", 
		 "theory": "DFT", 
		 "functional": "B3LYP", 
		 "basiset": "6-31G**", 
		 "properties": { 
			 "R2extent": 3336.71, 
			 "electric_dipole_moment_norm": 7.02562715065, 
			 "electric_quadrupole_moment_norm": 10.7993378172, 
			 "total_energy": -894.049174159, 
			 "HOMO_LUMO_gap": 0.24131, 
			 "cosmo_polarized_energy": -20.97, 
			 "cosmo_cavitation_energy": 27.68, 
			 "cosmo_dispersion_energy": -20.33, 
			 "cosmo_repulsion_energy": 1.66, 
			 "cosmo_total_nonelectrostatic_energy": 9.0, 
			 "SMD_solvation_energy": 5.63 
		},
		"coords": [
			{
				"x": -4.2033470546,
				"y": 0.5330287422,
				"z": 1.5214211232,
				"element": "N" 
			},
			{
				"x": -3.7181522689,
				"y": 1.6436494694,
				"z": 0.8872430779,
				"element": "C" 
			},
			{
				"x": -4.2643602649,
				"y": 2.7360802409,
				"z": 0.9602894616,
				"element": "O" 
			},
			{
				"x": -2.4601661765,
				"y": 1.4238091754,
				"z": 0.0419594556,
				"element": "C" 
			},
			{
				"x": -1.2009263349,
				"y": 0.9968855133,
				"z": 0.817307254,
				"element": "C" 
			},
			{
				"x": -1.1619911232,
				"y": -0.7528414739,
				"z": 1.4117454399,
				"element": "S" 
			},
			{
				"x": -0.7447275276,
				"y": -1.6759813383,
				"z": -0.1305118116,
				"element": "C" 
			},
			{
				"x": 0.7125931894,
				"y": -2.13370649,
				"z": -0.1941071443,
				"element": "C" 
			},
			{
				"x": 1.6821751797,
				"y": -0.975451674,
				"z": -0.4342792161,
				"element": "C" 
			},
			{
				"x": 2.957052792,
				"y": -1.1854431831,
				"z": -0.0003462781,
				"element": "N" 
			},
			{
				"x": 1.3533019109,
				"y": 0.0457561836,
				"z": -1.0265609933,
				"element": "O" 
			},
			{
				"x": -3.629733602,
				"y": -0.2966494537,
				"z": 1.6084598369,
				"element": "H" 
			},
			{
				"x": -4.9592708018,
				"y": 0.6777144643,
				"z": 2.1749208782,
				"element": "H" 
			},
			{
				"x": -2.2586285914,
				"y": 2.3845887153,
				"z": -0.4395871069,
				"element": "H" 
			},
			{
				"x": -2.6735546904,
				"y": 0.6981863246,
				"z": -0.752531338,
				"element": "H" 
			},
			{
				"x": -0.3133203378,
				"y": 1.1368514529,
				"z": 0.1979617628,
				"element": "H" 
			},
			{
				"x": -1.0818932578,
				"y": 1.6001572718,
				"z": 1.7224902465,
				"element": "H" 
			},
			{
				"x": -1.4093033778,
				"y": -2.5423772708,
				"z": -0.1684827787,
				"element": "H" 
			},
			{
				"x": -0.9680040881,
				"y": -1.0356403531,
				"z": -0.9866951632,
				"element": "H" 
			},
			{
				"x": 0.8307365428,
				"y": -2.8301713273,
				"z": -1.0370826208,
				"element": "H" 
			},
			{
				"x": 0.98349758,
				"y": -2.6872737487,
				"z": 0.7116812582,
				"element": "H" 
			},
			{
				"x": 3.2056465806,
				"y": -1.9689679368,
				"z": 0.5811379905,
				"element": "H" 
			},
			{
				"x": 3.6286757224,
				"y": -0.443403304,
				"z": -0.1292333342,
				"element": "H" 
			}
		],
		 "valence_orbital": [ 
			{
				"type": "occ",
				"energy": -0.2811,
				"method": "rhf"
			},
			{
				"type": "occ",
				"energy": -0.26289,
				"method": "rhf"
			},
			{
				"type": "occ",
				"energy": -0.25394,
				"method": "rhf"
			},
			{
				"type": "occ",
				"energy": -0.23567,
				"method": "rhf"
			},
			{
				"type": "occ",
				"energy": -0.2298,
				"method": "rhf"
			},
			{
				"type": "unocc",
				"energy": 0.01151,
				"method": "rhf"
			},
			{
				"type": "unocc",
				"energy": 0.03238,
				"method": "rhf"
			},
			{
				"type": "unocc",
				"energy": 0.03794,
				"method": "rhf"
			},
			{
				"type": "unocc",
				"energy": 0.06276,
				"method": "rhf"
			},
			{
				"type": "unocc",
				"energy": 0.06555,
				"method": "rhf"
			}
		],
		"cosmo_sigma_profile": { 
			"-0.025": 0.0,
			"-0.024": 0.0,
			"-0.023": 0.0,
			"-0.022": 0.0,
			"-0.021": 0.0,
			"-0.02": 0.0,
			"-0.019": 0.0,
			"-0.018": 0.0,
			"-0.017": 0.0,
			"-0.016": 0.0,
			"-0.015": 0.219617509536,
			"-0.014": 1.8735451073,
			"-0.013": 3.75719553482,
			"-0.012": 2.96767980819,
			"-0.011": 4.06694390304,
			"-0.01": 3.84901118632,
			"-0.009": 4.14443565802,
			"-0.008": 3.24999077191,
			"-0.007": 3.95526102603,
			"-0.006": 10.6409337443,
			"-0.005": 16.701723783,
			"-0.004": 19.54021186,
			"-0.003": 18.2205397069,
			"-0.002": 17.4254386659,
			"-0.001": 11.7833544722,
			"0.0": 9.32701769828,
			"0.001": 6.24258825178,
			"0.002": 9.20241853958,
			"0.003": 9.02673717931,
			"0.004": 7.56937633818,
			"0.005": 8.2754922557,
			"0.006": 6.09928343412,
			"0.007": 4.81349943903,
			"0.008": 4.72264305648,
			"0.009": 2.972239059,
			"0.01": 3.08956452237,
			"0.011": 3.5250358787,
			"0.012": 3.39319513066,
			"0.013": 5.12372325296,
			"0.014": 9.15517376225,
			"0.015": 3.00421891942,
			"0.016": 0.108891753701,
			"0.017": 0.0,
			"0.018": 0.0,
			"0.019": 0.0,
			"0.02": 0.0,
			"0.021": 0.0,
			"0.022": 0.0,
			"0.023": 0.0,
			"0.024": 0.0,
			"0.025": 0.0
		}
	}
}
