{
	 "smiles": "CCC1=C(CC)C(CC)=C(CC)C(CC)=C1CC", 
	 "Tm": 402.15, 
	 "num_atms": 48, 
	 "gaussian": { 
		 "optdone": 1, 
		 "sigma_profile": "yes", 
		 "theory": "DFT", 
		 "functional": "B3LYP", 
		 "basiset": "6-31G**", 
		 "properties": { 
			 "R2extent": 5196.5531, 
			 "electric_dipole_moment_norm": 0.0366747869796, 
			 "electric_quadrupole_moment_norm": 5.30357505368, 
			 "total_energy": -704.033813513, 
			 "HOMO_LUMO_gap": 0.22048, 
			 "cosmo_polarized_energy": -3.63, 
			 "cosmo_cavitation_energy": 42.87, 
			 "cosmo_dispersion_energy": -29.52, 
			 "cosmo_repulsion_energy": 2.3, 
			 "cosmo_total_nonelectrostatic_energy": 15.64, 
			 "SMD_solvation_energy": 7.24 
		},
		"coords": [
			{
				"x": -0.6330483235,
				"y": -3.2306649147,
				"z": 1.055405241,
				"element": "C" 
			},
			{
				"x": -0.6768966597,
				"y": -2.5906250607,
				"z": -0.3473626613,
				"element": "C" 
			},
			{
				"x": -0.2291068433,
				"y": -1.1327795613,
				"z": -0.3701410955,
				"element": "C" 
			},
			{
				"x": -1.1709137954,
				"y": -0.0784518906,
				"z": -0.3399379098,
				"element": "C" 
			},
			{
				"x": -2.6702906017,
				"y": -0.3584255645,
				"z": -0.3861477644,
				"element": "C" 
			},
			{
				"x": -3.3401967811,
				"y": -0.4960414035,
				"z": 0.9943673498,
				"element": "C" 
			},
			{
				"x": -0.7224682939,
				"y": 1.2597497425,
				"z": -0.2716460234,
				"element": "C" 
			},
			{
				"x": -1.7350042744,
				"y": 2.4012393292,
				"z": -0.3006060998,
				"element": "C" 
			},
			{
				"x": -2.0572172042,
				"y": 2.8827853297,
				"z": -1.7293138196,
				"element": "C" 
			},
			{
				"x": 0.6596864991,
				"y": 1.5512285492,
				"z": -0.2318823459,
				"element": "C" 
			},
			{
				"x": 1.1092008316,
				"y": 2.9985749513,
				"z": -0.0603236695,
				"element": "C" 
			},
			{
				"x": 1.0967328202,
				"y": 3.482746925,
				"z": 1.4041751392,
				"element": "C" 
			},
			{
				"x": 1.6008067452,
				"y": 0.5008338983,
				"z": -0.3346254051,
				"element": "C" 
			},
			{
				"x": 3.0994920747,
				"y": 0.7851812264,
				"z": -0.3766774002,
				"element": "C" 
			},
			{
				"x": 3.7938648631,
				"y": 0.7681284213,
				"z": 0.9985235971,
				"element": "C" 
			},
			{
				"x": 1.1523138828,
				"y": -0.8372734697,
				"z": -0.4044647105,
				"element": "C" 
			},
			{
				"x": 2.1626689871,
				"y": -1.9676692767,
				"z": -0.5787935345,
				"element": "C" 
			},
			{
				"x": 2.4551592133,
				"y": -2.2884857365,
				"z": -2.0581052915,
				"element": "C" 
			},
			{
				"x": -1.2819419291,
				"y": -2.6970589624,
				"z": 1.7553797823,
				"element": "H" 
			},
			{
				"x": -0.9640197228,
				"y": -4.2743999545,
				"z": 1.0165324685,
				"element": "H" 
			},
			{
				"x": 0.376582196,
				"y": -3.2133369093,
				"z": 1.477262883,
				"element": "H" 
			},
			{
				"x": -1.6932458063,
				"y": -2.687432116,
				"z": -0.7336578172,
				"element": "H" 
			},
			{
				"x": -0.0577108919,
				"y": -3.1856252513,
				"z": -1.0251375182,
				"element": "H" 
			},
			{
				"x": -3.173934653,
				"y": 0.4379130111,
				"z": -0.9393583273,
				"element": "H" 
			},
			{
				"x": -2.8691113179,
				"y": -1.265042211,
				"z": -0.9631526671,
				"element": "H" 
			},
			{
				"x": -2.9379081992,
				"y": -1.3461005766,
				"z": 1.5518290385,
				"element": "H" 
			},
			{
				"x": -3.1818864369,
				"y": 0.3979815443,
				"z": 1.6061672367,
				"element": "H" 
			},
			{
				"x": -4.4204367441,
				"y": -0.6460231768,
				"z": 0.8891099644,
				"element": "H" 
			},
			{
				"x": -2.6635873737,
				"y": 2.1025634256,
				"z": 0.1910955249,
				"element": "H" 
			},
			{
				"x": -1.3703624046,
				"y": 3.2506366921,
				"z": 0.2800192645,
				"element": "H" 
			},
			{
				"x": -1.1567918206,
				"y": 3.2405402418,
				"z": -2.2390275034,
				"element": "H" 
			},
			{
				"x": -2.7849311363,
				"y": 3.7016952909,
				"z": -1.7132615401,
				"element": "H" 
			},
			{
				"x": -2.4722117336,
				"y": 2.0738143881,
				"z": -2.339091148,
				"element": "H" 
			},
			{
				"x": 2.1168544025,
				"y": 3.1383502689,
				"z": -0.4561481465,
				"element": "H" 
			},
			{
				"x": 0.4757693958,
				"y": 3.6625571617,
				"z": -0.655801681,
				"element": "H" 
			},
			{
				"x": 1.427152592,
				"y": 4.5252260239,
				"z": 1.4712564929,
				"element": "H" 
			},
			{
				"x": 1.7608842331,
				"y": 2.8779069247,
				"z": 2.0277543416,
				"element": "H" 
			},
			{
				"x": 0.0967110811,
				"y": 3.4178611613,
				"z": 1.8439472009,
				"element": "H" 
			},
			{
				"x": 3.5921132724,
				"y": 0.0558500508,
				"z": -1.0242405741,
				"element": "H" 
			},
			{
				"x": 3.2893564239,
				"y": 1.7506823761,
				"z": -0.8521722963,
				"element": "H" 
			},
			{
				"x": 3.6451287026,
				"y": -0.1887626147,
				"z": 1.509248856,
				"element": "H" 
			},
			{
				"x": 4.8722697015,
				"y": 0.9297340566,
				"z": 0.8916950397,
				"element": "H" 
			},
			{
				"x": 3.4023544728,
				"y": 1.5502648053,
				"z": 1.6544116844,
				"element": "H" 
			},
			{
				"x": 3.1013974852,
				"y": -1.724046435,
				"z": -0.0761476886,
				"element": "H" 
			},
			{
				"x": 1.8087860418,
				"y": -2.8761709938,
				"z": -0.0879518648,
				"element": "H" 
			},
			{
				"x": 1.5439686051,
				"y": -2.5885212738,
				"z": -2.5855928576,
				"element": "H" 
			},
			{
				"x": 3.1819082522,
				"y": -3.1035317811,
				"z": -2.147371955,
				"element": "H" 
			},
			{
				"x": 2.8586601719,
				"y": -1.4167766618,
				"z": -2.5832397894,
				"element": "H" 
			}
		],
		 "valence_orbital": [ 
			{
				"type": "occ",
				"energy": -0.30449,
				"method": "rhf"
			},
			{
				"type": "occ",
				"energy": -0.29396,
				"method": "rhf"
			},
			{
				"type": "occ",
				"energy": -0.29144,
				"method": "rhf"
			},
			{
				"type": "occ",
				"energy": -0.21427,
				"method": "rhf"
			},
			{
				"type": "occ",
				"energy": -0.21231,
				"method": "rhf"
			},
			{
				"type": "unocc",
				"energy": 0.00817,
				"method": "rhf"
			},
			{
				"type": "unocc",
				"energy": 0.01194,
				"method": "rhf"
			},
			{
				"type": "unocc",
				"energy": 0.08293,
				"method": "rhf"
			},
			{
				"type": "unocc",
				"energy": 0.09359,
				"method": "rhf"
			},
			{
				"type": "unocc",
				"energy": 0.09412,
				"method": "rhf"
			}
		],
		"cosmo_sigma_profile": { 
			"-0.025": 0.0,
			"-0.024": 0.0,
			"-0.023": 0.0,
			"-0.022": 0.0,
			"-0.021": 0.0,
			"-0.02": 0.0,
			"-0.019": 0.0,
			"-0.018": 0.0,
			"-0.017": 0.0,
			"-0.016": 0.0,
			"-0.015": 0.0,
			"-0.014": 0.0,
			"-0.013": 0.0,
			"-0.012": 0.0,
			"-0.011": 0.0,
			"-0.01": 0.0,
			"-0.009": 0.0,
			"-0.008": 0.0,
			"-0.007": 0.0,
			"-0.006": 0.0,
			"-0.005": 0.697174363246,
			"-0.004": 4.43861501787,
			"-0.003": 31.932411405,
			"-0.002": 57.4137901,
			"-0.001": 53.0067464511,
			"0.0": 65.4393011985,
			"0.001": 62.0147464758,
			"0.002": 27.4165546521,
			"0.003": 7.11506404897,
			"0.004": 6.27508007191,
			"0.005": 5.01629220323,
			"0.006": 4.36677911668,
			"0.007": 4.03941929665,
			"0.008": 3.77428688163,
			"0.009": 0.27355277526,
			"0.01": 0.0,
			"0.011": 0.0,
			"0.012": 0.0,
			"0.013": 0.0,
			"0.014": 0.0,
			"0.015": 0.0,
			"0.016": 0.0,
			"0.017": 0.0,
			"0.018": 0.0,
			"0.019": 0.0,
			"0.02": 0.0,
			"0.021": 0.0,
			"0.022": 0.0,
			"0.023": 0.0,
			"0.024": 0.0,
			"0.025": 0.0
		}
	}
}
