{
	 "smiles": "CCC1=C(C=NC=N1)C(O)=O", 
	 "Tm": 429.15, 
	 "num_atms": 19, 
	 "gaussian": { 
		 "optdone": 1, 
		 "sigma_profile": "yes", 
		 "theory": "DFT", 
		 "functional": "B3LYP", 
		 "basiset": "6-31G**", 
		 "properties": { 
			 "R2extent": 2181.0928, 
			 "electric_dipole_moment_norm": 2.21534524172, 
			 "electric_quadrupole_moment_norm": 9.94875760083, 
			 "total_energy": -531.520360016, 
			 "HOMO_LUMO_gap": 0.19646, 
			 "cosmo_polarized_energy": -14.47, 
			 "cosmo_cavitation_energy": 23.16, 
			 "cosmo_dispersion_energy": -16.94, 
			 "cosmo_repulsion_energy": 1.36, 
			 "cosmo_total_nonelectrostatic_energy": 7.58, 
			 "SMD_solvation_energy": 2.31 
		},
		"coords": [
			{
				"x": -0.4225259414,
				"y": -1.8941613056,
				"z": 0.6070421744,
				"element": "C" 
			},
			{
				"x": 0.3384506076,
				"y": -0.6493326036,
				"z": 1.1045519765,
				"element": "C" 
			},
			{
				"x": -0.5701597794,
				"y": 0.5383738598,
				"z": 1.2994123678,
				"element": "C" 
			},
			{
				"x": -1.0537216093,
				"y": 1.3476007229,
				"z": 0.2427112493,
				"element": "C" 
			},
			{
				"x": -1.883677372,
				"y": 2.4153274757,
				"z": 0.6024339518,
				"element": "C" 
			},
			{
				"x": -2.2549585563,
				"y": 2.6726720043,
				"z": 1.8587412334,
				"element": "N" 
			},
			{
				"x": -1.7706992042,
				"y": 1.8260830828,
				"z": 2.7725993828,
				"element": "C" 
			},
			{
				"x": -0.9550120022,
				"y": 0.7905130834,
				"z": 2.5613807813,
				"element": "N" 
			},
			{
				"x": -0.6579669083,
				"y": 1.1446570811,
				"z": -1.1906028001,
				"element": "C" 
			},
			{
				"x": -1.5917916234,
				"y": 1.4968123778,
				"z": -2.1147936017,
				"element": "O" 
			},
			{
				"x": 0.4144801599,
				"y": 0.7242994283,
				"z": -1.5534581551,
				"element": "O" 
			},
			{
				"x": -1.2247561889,
				"y": -2.1688006233,
				"z": 1.2990007903,
				"element": "H" 
			},
			{
				"x": 0.262745987,
				"y": -2.7428205191,
				"z": 0.526865837,
				"element": "H" 
			},
			{
				"x": -0.8590567617,
				"y": -1.727552561,
				"z": -0.3822692097,
				"element": "H" 
			},
			{
				"x": 1.1227562772,
				"y": -0.3944014302,
				"z": 0.3894584936,
				"element": "H" 
			},
			{
				"x": 0.7924639571,
				"y": -0.8605284091,
				"z": 2.0760200476,
				"element": "H" 
			},
			{
				"x": -2.2432443056,
				"y": 3.1159568087,
				"z": -0.1518861684,
				"element": "H" 
			},
			{
				"x": -2.068142429,
				"y": 2.0040177109,
				"z": 3.8043749984,
				"element": "H" 
			},
			{
				"x": -2.4457843068,
				"y": 1.6618838163,
				"z": -1.6910833491,
				"element": "H" 
			}
		],
		 "valence_orbital": [ 
			{
				"type": "occ",
				"energy": -0.32889,
				"method": "rhf"
			},
			{
				"type": "occ",
				"energy": -0.32433,
				"method": "rhf"
			},
			{
				"type": "occ",
				"energy": -0.29857,
				"method": "rhf"
			},
			{
				"type": "occ",
				"energy": -0.28427,
				"method": "rhf"
			},
			{
				"type": "occ",
				"energy": -0.26741,
				"method": "rhf"
			},
			{
				"type": "unocc",
				"energy": -0.07095,
				"method": "rhf"
			},
			{
				"type": "unocc",
				"energy": -0.05859,
				"method": "rhf"
			},
			{
				"type": "unocc",
				"energy": 0.01703,
				"method": "rhf"
			},
			{
				"type": "unocc",
				"energy": 0.05651,
				"method": "rhf"
			},
			{
				"type": "unocc",
				"energy": 0.10233,
				"method": "rhf"
			}
		],
		"cosmo_sigma_profile": { 
			"-0.025": 0.0,
			"-0.024": 0.0,
			"-0.023": 0.0,
			"-0.022": 0.0,
			"-0.021": 0.0,
			"-0.02": 0.0869666180165,
			"-0.019": 1.10231977203,
			"-0.018": 0.628354028049,
			"-0.017": 1.82893859725,
			"-0.016": 0.959451796323,
			"-0.015": 0.47446477871,
			"-0.014": 0.781764201513,
			"-0.013": 1.80513399447,
			"-0.012": 1.02395625318,
			"-0.011": 1.3469741953,
			"-0.01": 0.892348755085,
			"-0.009": 2.60555368625,
			"-0.008": 4.16829111397,
			"-0.007": 4.31567802348,
			"-0.006": 4.6750829916,
			"-0.005": 5.31407390685,
			"-0.004": 10.4393438261,
			"-0.003": 17.7990287611,
			"-0.002": 22.1997767701,
			"-0.001": 18.6407318758,
			"0.0": 14.6411782207,
			"0.001": 8.33969728534,
			"0.002": 6.01762355092,
			"0.003": 5.21675160558,
			"0.004": 4.48864734807,
			"0.005": 5.49798355539,
			"0.006": 4.75370622893,
			"0.007": 4.02203373431,
			"0.008": 4.36867342713,
			"0.009": 6.27665661307,
			"0.01": 7.14367817358,
			"0.011": 5.43775431603,
			"0.012": 3.90568626681,
			"0.013": 1.56296194598,
			"0.014": 1.36482663369,
			"0.015": 0.464569398235,
			"0.016": 0.0,
			"0.017": 0.0,
			"0.018": 0.0,
			"0.019": 0.0,
			"0.02": 0.0,
			"0.021": 0.0,
			"0.022": 0.0,
			"0.023": 0.0,
			"0.024": 0.0,
			"0.025": 0.0
		}
	}
}
