{
	 "smiles": "OCC1=C2OCCOC2=CS1", 
	 "Tm": 341.65, 
	 "num_atms": 19, 
	 "gaussian": { 
		 "optdone": 1, 
		 "sigma_profile": "yes", 
		 "theory": "DFT", 
		 "functional": "B3LYP", 
		 "basiset": "6-31G**", 
		 "properties": { 
			 "R2extent": 2136.7889, 
			 "electric_dipole_moment_norm": 3.2770040357, 
			 "electric_quadrupole_moment_norm": 13.0749096418, 
			 "total_energy": -895.36644426, 
			 "HOMO_LUMO_gap": 0.20694, 
			 "cosmo_polarized_energy": -10.03, 
			 "cosmo_cavitation_energy": 23.44, 
			 "cosmo_dispersion_energy": -18.6, 
			 "cosmo_repulsion_energy": 1.46, 
			 "cosmo_total_nonelectrostatic_energy": 6.3, 
			 "SMD_solvation_energy": 4.19 
		},
		"coords": [
			{
				"x": 1.3404054742,
				"y": 2.2768029167,
				"z": 0.7069866501,
				"element": "O" 
			},
			{
				"x": 0.2990010673,
				"y": 1.5088524896,
				"z": 1.290765697,
				"element": "C" 
			},
			{
				"x": 0.3695767798,
				"y": 0.0500002652,
				"z": 0.92027489,
				"element": "C" 
			},
			{
				"x": 0.5514532695,
				"y": -0.4566187204,
				"z": -0.3367963738,
				"element": "C" 
			},
			{
				"x": 0.6933580479,
				"y": 0.3323124796,
				"z": -1.4580239908,
				"element": "O" 
			},
			{
				"x": 1.2509824465,
				"y": -0.3959016618,
				"z": -2.5622766493,
				"element": "C" 
			},
			{
				"x": 0.5574728756,
				"y": -1.742475725,
				"z": -2.7194430234,
				"element": "C" 
			},
			{
				"x": 0.767457271,
				"y": -2.5682155242,
				"z": -1.5685990415,
				"element": "O" 
			},
			{
				"x": 0.5750631593,
				"y": -1.8883771683,
				"z": -0.3959255362,
				"element": "C" 
			},
			{
				"x": 0.4085907662,
				"y": -2.4695252959,
				"z": 0.8291240086,
				"element": "C" 
			},
			{
				"x": 0.2322080178,
				"y": -1.2589219038,
				"z": 2.0653064805,
				"element": "S" 
			},
			{
				"x": 1.3099887203,
				"y": 2.1064441644,
				"z": -0.2453069384,
				"element": "H" 
			},
			{
				"x": -0.6893863184,
				"y": 1.9096059616,
				"z": 1.0093155378,
				"element": "H" 
			},
			{
				"x": 0.3923147624,
				"y": 1.627741412,
				"z": 2.3746685522,
				"element": "H" 
			},
			{
				"x": 2.3275103822,
				"y": -0.5435821238,
				"z": -2.40347449,
				"element": "H" 
			},
			{
				"x": 1.099788906,
				"y": 0.2255615915,
				"z": -3.4481592932,
				"element": "H" 
			},
			{
				"x": -0.5188510084,
				"y": -1.5901517285,
				"z": -2.8790736237,
				"element": "H" 
			},
			{
				"x": 0.9692677462,
				"y": -2.2913881741,
				"z": -3.5698761392,
				"element": "H" 
			},
			{
				"x": 0.3830976347,
				"y": -3.522263255,
				"z": 1.0661132834,
				"element": "H" 
			}
		],
		 "valence_orbital": [ 
			{
				"type": "occ",
				"energy": -0.32481,
				"method": "rhf"
			},
			{
				"type": "occ",
				"energy": -0.30505,
				"method": "rhf"
			},
			{
				"type": "occ",
				"energy": -0.26456,
				"method": "rhf"
			},
			{
				"type": "occ",
				"energy": -0.21953,
				"method": "rhf"
			},
			{
				"type": "occ",
				"energy": -0.21476,
				"method": "rhf"
			},
			{
				"type": "unocc",
				"energy": -0.00782,
				"method": "rhf"
			},
			{
				"type": "unocc",
				"energy": 0.025,
				"method": "rhf"
			},
			{
				"type": "unocc",
				"energy": 0.05754,
				"method": "rhf"
			},
			{
				"type": "unocc",
				"energy": 0.07585,
				"method": "rhf"
			},
			{
				"type": "unocc",
				"energy": 0.10267,
				"method": "rhf"
			}
		],
		"cosmo_sigma_profile": { 
			"-0.025": 0.0,
			"-0.024": 0.0,
			"-0.023": 0.0,
			"-0.022": 0.0,
			"-0.021": 0.0,
			"-0.02": 0.0,
			"-0.019": 0.0,
			"-0.018": 0.0,
			"-0.017": 0.0,
			"-0.016": 0.0,
			"-0.015": 0.0,
			"-0.014": 0.0,
			"-0.013": 0.0,
			"-0.012": 0.0,
			"-0.011": 0.0,
			"-0.01": 0.429756314077,
			"-0.009": 1.34846895968,
			"-0.008": 2.95275534089,
			"-0.007": 10.4324496129,
			"-0.006": 16.7412289116,
			"-0.005": 16.3633986524,
			"-0.004": 14.7931852053,
			"-0.003": 13.689436761,
			"-0.002": 10.1764181179,
			"-0.001": 9.68455879639,
			"0.0": 7.84122987678,
			"0.001": 9.76847989339,
			"0.002": 9.86437811633,
			"0.003": 12.4200814939,
			"0.004": 14.5217524621,
			"0.005": 11.2307521285,
			"0.006": 4.25568162079,
			"0.007": 3.97368134266,
			"0.008": 3.45465471406,
			"0.009": 3.39679251049,
			"0.01": 2.63846407255,
			"0.011": 1.61616047987,
			"0.012": 1.82311762098,
			"0.013": 2.02661461529,
			"0.014": 2.33314815891,
			"0.015": 0.259752062375,
			"0.016": 0.0,
			"0.017": 0.0,
			"0.018": 0.0,
			"0.019": 0.0,
			"0.02": 0.0,
			"0.021": 0.0,
			"0.022": 0.0,
			"0.023": 0.0,
			"0.024": 0.0,
			"0.025": 0.0
		}
	}
}
