{
	 "smiles": "COC1=CC=C(C(C)=O)C(OC)=C1", 
	 "Tm": 313.65, 
	 "num_atms": 25, 
	 "gaussian": { 
		 "optdone": 1, 
		 "sigma_profile": "yes", 
		 "theory": "DFT", 
		 "functional": "B3LYP", 
		 "basiset": "6-31G**", 
		 "properties": { 
			 "R2extent": 2987.4573, 
			 "electric_dipole_moment_norm": 6.24757864936, 
			 "electric_quadrupole_moment_norm": 8.39938735147, 
			 "total_energy": -613.94629363, 
			 "HOMO_LUMO_gap": 0.18249, 
			 "cosmo_polarized_energy": -12.27, 
			 "cosmo_cavitation_energy": 28.41, 
			 "cosmo_dispersion_energy": -20.51, 
			 "cosmo_repulsion_energy": 1.61, 
			 "cosmo_total_nonelectrostatic_energy": 9.51, 
			 "SMD_solvation_energy": 7.19 
		},
		"coords": [
			{
				"x": 0.0957497847,
				"y": -2.732548867,
				"z": -1.9453120008,
				"element": "C" 
			},
			{
				"x": 1.0384271488,
				"y": -2.3770444205,
				"z": -0.9453679216,
				"element": "O" 
			},
			{
				"x": 0.9377118851,
				"y": -1.1591137116,
				"z": -0.349735746,
				"element": "C" 
			},
			{
				"x": 1.9017318695,
				"y": -0.8749150831,
				"z": 0.6292433345,
				"element": "C" 
			},
			{
				"x": 1.8591887552,
				"y": 0.3453282445,
				"z": 1.2756267817,
				"element": "C" 
			},
			{
				"x": 0.8869433131,
				"y": 1.3254279822,
				"z": 0.9968127289,
				"element": "C" 
			},
			{
				"x": 0.98287876,
				"y": 2.5947833694,
				"z": 1.7891398388,
				"element": "C" 
			},
			{
				"x": -0.0024843698,
				"y": 3.7306071328,
				"z": 1.5878555666,
				"element": "C" 
			},
			{
				"x": 1.8769290303,
				"y": 2.7192842737,
				"z": 2.6188275463,
				"element": "O" 
			},
			{
				"x": -0.0747700505,
				"y": 1.0176500615,
				"z": 0.0061683415,
				"element": "C" 
			},
			{
				"x": -1.0204381409,
				"y": 1.9598521578,
				"z": -0.2717368708,
				"element": "O" 
			},
			{
				"x": -2.0050043291,
				"y": 1.6937710634,
				"z": -1.2589963463,
				"element": "C" 
			},
			{
				"x": -0.0483349789,
				"y": -0.2166048345,
				"z": -0.6616042213,
				"element": "C" 
			},
			{
				"x": 0.1389839691,
				"y": -2.0491920318,
				"z": -2.8029575527,
				"element": "H" 
			},
			{
				"x": -0.9273109006,
				"y": -2.7498592697,
				"z": -1.5485305501,
				"element": "H" 
			},
			{
				"x": 0.3697538422,
				"y": -3.736260325,
				"z": -2.2730611301,
				"element": "H" 
			},
			{
				"x": 2.657175511,
				"y": -1.6189450667,
				"z": 0.8556675038,
				"element": "H" 
			},
			{
				"x": 2.5903552158,
				"y": 0.5944010332,
				"z": 2.0370019132,
				"element": "H" 
			},
			{
				"x": -1.0274744463,
				"y": 3.4012970511,
				"z": 1.7813311793,
				"element": "H" 
			},
			{
				"x": 0.2702841752,
				"y": 4.5359349519,
				"z": 2.2713954721,
				"element": "H" 
			},
			{
				"x": 0.0160135299,
				"y": 4.0890926831,
				"z": 0.5545860516,
				"element": "H" 
			},
			{
				"x": -2.6347101943,
				"y": 2.5837984781,
				"z": -1.2977017065,
				"element": "H" 
			},
			{
				"x": -2.6224168312,
				"y": 0.8270811507,
				"z": -0.9919888001,
				"element": "H" 
			},
			{
				"x": -1.5547893247,
				"y": 1.5279467926,
				"z": -2.245626252,
				"element": "H" 
			},
			{
				"x": -0.7891932234,
				"y": -0.4375728164,
				"z": -1.4155371597,
				"element": "H" 
			}
		],
		 "valence_orbital": [ 
			{
				"type": "occ",
				"energy": -0.3318,
				"method": "rhf"
			},
			{
				"type": "occ",
				"energy": -0.29896,
				"method": "rhf"
			},
			{
				"type": "occ",
				"energy": -0.24398,
				"method": "rhf"
			},
			{
				"type": "occ",
				"energy": -0.23248,
				"method": "rhf"
			},
			{
				"type": "occ",
				"energy": -0.21765,
				"method": "rhf"
			},
			{
				"type": "unocc",
				"energy": -0.03516,
				"method": "rhf"
			},
			{
				"type": "unocc",
				"energy": 0.00576,
				"method": "rhf"
			},
			{
				"type": "unocc",
				"energy": 0.05455,
				"method": "rhf"
			},
			{
				"type": "unocc",
				"energy": 0.07669,
				"method": "rhf"
			},
			{
				"type": "unocc",
				"energy": 0.09667,
				"method": "rhf"
			}
		],
		"cosmo_sigma_profile": { 
			"-0.025": 0.0,
			"-0.024": 0.0,
			"-0.023": 0.0,
			"-0.022": 0.0,
			"-0.021": 0.0,
			"-0.02": 0.0,
			"-0.019": 0.0,
			"-0.018": 0.0,
			"-0.017": 0.0,
			"-0.016": 0.0,
			"-0.015": 0.0,
			"-0.014": 0.0,
			"-0.013": 0.0,
			"-0.012": 0.0,
			"-0.011": 0.0,
			"-0.01": 0.0,
			"-0.009": 0.0,
			"-0.008": 0.374722519752,
			"-0.007": 3.59424922971,
			"-0.006": 15.1640772058,
			"-0.005": 20.8452260239,
			"-0.004": 23.6705001162,
			"-0.003": 23.585075107,
			"-0.002": 14.6050866159,
			"-0.001": 14.857354934,
			"0.0": 15.5635305465,
			"0.001": 12.9718416782,
			"0.002": 14.6061321553,
			"0.003": 20.2057981904,
			"0.004": 14.0862761502,
			"0.005": 6.23120721237,
			"0.006": 2.71444207244,
			"0.007": 3.30934007627,
			"0.008": 2.27560550729,
			"0.009": 3.56443324011,
			"0.01": 3.05676418639,
			"0.011": 1.72487380061,
			"0.012": 3.59013529148,
			"0.013": 3.39062828411,
			"0.014": 1.1873542446,
			"0.015": 0.0441869604475,
			"0.016": 0.0,
			"0.017": 0.0,
			"0.018": 0.0,
			"0.019": 0.0,
			"0.02": 0.0,
			"0.021": 0.0,
			"0.022": 0.0,
			"0.023": 0.0,
			"0.024": 0.0,
			"0.025": 0.0
		}
	}
}
