{
	 "smiles": "CCN(CCO)CCO", 
	 "Tm": 223.15, 
	 "num_atms": 24, 
	 "gaussian": { 
		 "optdone": 1, 
		 "sigma_profile": "yes", 
		 "theory": "DFT", 
		 "functional": "B3LYP", 
		 "basiset": "6-31G**", 
		 "properties": { 
			 "R2extent": 1622.0546, 
			 "electric_dipole_moment_norm": 2.26667660022, 
			 "electric_quadrupole_moment_norm": 12.2102687043, 
			 "total_energy": -442.847462115, 
			 "HOMO_LUMO_gap": 0.27246, 
			 "cosmo_polarized_energy": -10.77, 
			 "cosmo_cavitation_energy": 24.77, 
			 "cosmo_dispersion_energy": -17.83, 
			 "cosmo_repulsion_energy": 1.48, 
			 "cosmo_total_nonelectrostatic_energy": 8.42, 
			 "SMD_solvation_energy": 4.0 
		},
		"coords": [
			{
				"x": -2.8491627488,
				"y": -0.1915003199,
				"z": 0.7058110817,
				"element": "C" 
			},
			{
				"x": -1.7627892168,
				"y": -0.8847520084,
				"z": -0.1184949034,
				"element": "C" 
			},
			{
				"x": -0.4202017929,
				"y": -0.3268202217,
				"z": 0.0907949815,
				"element": "N" 
			},
			{
				"x": 0.0616781748,
				"y": -0.3911015003,
				"z": 1.4766786387,
				"element": "C" 
			},
			{
				"x": 0.2034546099,
				"y": -1.7730321082,
				"z": 2.1358351134,
				"element": "C" 
			},
			{
				"x": 1.2047019165,
				"y": -2.6055175381,
				"z": 1.5592789318,
				"element": "O" 
			},
			{
				"x": 0.5545749062,
				"y": -0.7740954651,
				"z": -0.9235543952,
				"element": "C" 
			},
			{
				"x": 1.6463336526,
				"y": 0.2872437409,
				"z": -1.1061109738,
				"element": "C" 
			},
			{
				"x": 1.0730756659,
				"y": 1.5655775283,
				"z": -1.2879004983,
				"element": "O" 
			},
			{
				"x": -2.8081844826,
				"y": 0.8928928062,
				"z": 0.561431334,
				"element": "H" 
			},
			{
				"x": -3.8354929461,
				"y": -0.5436944511,
				"z": 0.3879927365,
				"element": "H" 
			},
			{
				"x": -2.7626416649,
				"y": -0.3965792629,
				"z": 1.7773326403,
				"element": "H" 
			},
			{
				"x": -1.9945931205,
				"y": -0.7499608279,
				"z": -1.1805073567,
				"element": "H" 
			},
			{
				"x": -1.7986948025,
				"y": -1.9736321927,
				"z": 0.0653510179,
				"element": "H" 
			},
			{
				"x": 1.0309316442,
				"y": 0.1212727944,
				"z": 1.5217045678,
				"element": "H" 
			},
			{
				"x": -0.612890267,
				"y": 0.2045933858,
				"z": 2.1035157696,
				"element": "H" 
			},
			{
				"x": 0.3859003917,
				"y": -1.6203754926,
				"z": 3.2127881901,
				"element": "H" 
			},
			{
				"x": -0.7293425453,
				"y": -2.3393566077,
				"z": 2.051802263,
				"element": "H" 
			},
			{
				"x": 2.0577562716,
				"y": -2.1683225581,
				"z": 1.6807338509,
				"element": "H" 
			},
			{
				"x": 0.9910786259,
				"y": -1.7557897566,
				"z": -0.6970273682,
				"element": "H" 
			},
			{
				"x": 0.0099929296,
				"y": -0.8574764994,
				"z": -1.8701060649,
				"element": "H" 
			},
			{
				"x": 2.3410170246,
				"y": 0.2798052515,
				"z": -0.2468354897,
				"element": "H" 
			},
			{
				"x": 2.2437839837,
				"y": 0.0448247608,
				"z": -1.9930129795,
				"element": "H" 
			},
			{
				"x": 0.2629137902,
				"y": 1.533996543,
				"z": -0.7486010876,
				"element": "H" 
			}
		],
		 "valence_orbital": [ 
			{
				"type": "occ",
				"energy": -0.32986,
				"method": "rhf"
			},
			{
				"type": "occ",
				"energy": -0.3105,
				"method": "rhf"
			},
			{
				"type": "occ",
				"energy": -0.28613,
				"method": "rhf"
			},
			{
				"type": "occ",
				"energy": -0.25057,
				"method": "rhf"
			},
			{
				"type": "occ",
				"energy": -0.21425,
				"method": "rhf"
			},
			{
				"type": "unocc",
				"energy": 0.05821,
				"method": "rhf"
			},
			{
				"type": "unocc",
				"energy": 0.08416,
				"method": "rhf"
			},
			{
				"type": "unocc",
				"energy": 0.10214,
				"method": "rhf"
			},
			{
				"type": "unocc",
				"energy": 0.11122,
				"method": "rhf"
			},
			{
				"type": "unocc",
				"energy": 0.12771,
				"method": "rhf"
			}
		],
		"cosmo_sigma_profile": { 
			"-0.025": 0.0,
			"-0.024": 0.0,
			"-0.023": 0.0,
			"-0.022": 0.0,
			"-0.021": 0.0,
			"-0.02": 0.0,
			"-0.019": 0.0,
			"-0.018": 0.0,
			"-0.017": 0.0,
			"-0.016": 0.0014847335701,
			"-0.015": 0.731651874837,
			"-0.014": 1.06544438638,
			"-0.013": 0.597419614154,
			"-0.012": 1.01325699331,
			"-0.011": 1.18943753961,
			"-0.01": 1.03652063116,
			"-0.009": 0.877810555178,
			"-0.008": 1.62128652029,
			"-0.007": 1.52405152475,
			"-0.006": 3.12594183935,
			"-0.005": 3.30968886333,
			"-0.004": 17.3682104567,
			"-0.003": 27.3494698042,
			"-0.002": 26.0869718454,
			"-0.001": 26.3848685975,
			"0.0": 19.4320902155,
			"0.001": 14.0957518517,
			"0.002": 5.85759608973,
			"0.003": 4.6263370777,
			"0.004": 3.45698951476,
			"0.005": 2.7810677336,
			"0.006": 2.36541097545,
			"0.007": 3.0125352924,
			"0.008": 1.74946610313,
			"0.009": 2.06825637627,
			"0.01": 2.72017500162,
			"0.011": 1.99032008239,
			"0.012": 2.95594483031,
			"0.013": 2.3648162493,
			"0.014": 3.34364048793,
			"0.015": 3.66839907944,
			"0.016": 0.755609730091,
			"0.017": 0.0,
			"0.018": 0.0,
			"0.019": 0.0,
			"0.02": 0.0,
			"0.021": 0.0,
			"0.022": 0.0,
			"0.023": 0.0,
			"0.024": 0.0,
			"0.025": 0.0
		}
	}
}
