{
	 "smiles": "OC(=O)C1=CC2=C(OC1=O)C=CC(Br)=C2", 
	 "Tm": 468.15, 
	 "num_atms": 20, 
	 "gaussian": { 
		 "optdone": 1, 
		 "sigma_profile": "yes", 
		 "theory": "DFT", 
		 "functional": "B3LYP", 
		 "basiset": "6-31G**", 
		 "properties": { 
			 "R2extent": 7721.392, 
			 "electric_dipole_moment_norm": 5.67917585746, 
			 "electric_quadrupole_moment_norm": 15.8540554862, 
			 "total_energy": -3256.39726211, 
			 "HOMO_LUMO_gap": 0.15253, 
			 "cosmo_polarized_energy": -14.67, 
			 "cosmo_cavitation_energy": 27.91, 
			 "cosmo_dispersion_energy": -21.46, 
			 "cosmo_repulsion_energy": 1.64, 
			 "cosmo_total_nonelectrostatic_energy": 8.1, 
			 "SMD_solvation_energy": 5.84 
		},
		"coords": [
			{
				"x": 0.8295276703,
				"y": -3.3373380463,
				"z": -3.2863616533,
				"element": "O" 
			},
			{
				"x": -0.367853961,
				"y": -2.7988183279,
				"z": -3.0453983059,
				"element": "C" 
			},
			{
				"x": -1.404297491,
				"y": -3.3351750906,
				"z": -3.3738317218,
				"element": "O" 
			},
			{
				"x": -0.3776853914,
				"y": -1.4659902224,
				"z": -2.3319945546,
				"element": "C" 
			},
			{
				"x": -1.5724385664,
				"y": -0.8748088173,
				"z": -2.0632301968,
				"element": "C" 
			},
			{
				"x": -1.6403246485,
				"y": 0.3888222319,
				"z": -1.3896492504,
				"element": "C" 
			},
			{
				"x": -0.4245263483,
				"y": 0.9934673872,
				"z": -1.0174481746,
				"element": "C" 
			},
			{
				"x": 0.7729691765,
				"y": 0.3956108792,
				"z": -1.2893361388,
				"element": "O" 
			},
			{
				"x": 0.8684965231,
				"y": -0.8157170047,
				"z": -1.9338706806,
				"element": "C" 
			},
			{
				"x": 1.9912915353,
				"y": -1.2580673043,
				"z": -2.1261021745,
				"element": "O" 
			},
			{
				"x": -0.3956971901,
				"y": 2.2227523909,
				"z": -0.3586274687,
				"element": "C" 
			},
			{
				"x": -1.5954001963,
				"y": 2.8599786348,
				"z": -0.065923308,
				"element": "C" 
			},
			{
				"x": -2.8150594283,
				"y": 2.268378541,
				"z": -0.4314046504,
				"element": "C" 
			},
			{
				"x": -4.4442968797,
				"y": 3.1652078146,
				"z": -0.0176047147,
				"element": "Br" 
			},
			{
				"x": -2.8481768704,
				"y": 1.0481622083,
				"z": -1.0854152709,
				"element": "C" 
			},
			{
				"x": 1.5320493949,
				"y": -2.738385514,
				"z": -2.9378747823,
				"element": "H" 
			},
			{
				"x": -2.4786729316,
				"y": -1.3877199776,
				"z": -2.3740976733,
				"element": "H" 
			},
			{
				"x": 0.5583231265,
				"y": 2.660023575,
				"z": -0.0864277606,
				"element": "H" 
			},
			{
				"x": -1.5927009844,
				"y": 3.815598311,
				"z": 0.4453684532,
				"element": "H" 
			},
			{
				"x": -3.7920265392,
				"y": 0.5943183311,
				"z": -1.3661699729,
				"element": "H" 
			}
		],
		 "valence_orbital": [ 
			{
				"type": "occ",
				"energy": -0.31148,
				"method": "rhf"
			},
			{
				"type": "occ",
				"energy": -0.31102,
				"method": "rhf"
			},
			{
				"type": "occ",
				"energy": -0.28281,
				"method": "rhf"
			},
			{
				"type": "occ",
				"energy": -0.27909,
				"method": "rhf"
			},
			{
				"type": "occ",
				"energy": -0.26198,
				"method": "rhf"
			},
			{
				"type": "unocc",
				"energy": -0.10945,
				"method": "rhf"
			},
			{
				"type": "unocc",
				"energy": -0.04894,
				"method": "rhf"
			},
			{
				"type": "unocc",
				"energy": -0.03279,
				"method": "rhf"
			},
			{
				"type": "unocc",
				"energy": -0.01838,
				"method": "rhf"
			},
			{
				"type": "unocc",
				"energy": 0.00152,
				"method": "rhf"
			}
		],
		"cosmo_sigma_profile": { 
			"-0.025": 0.0,
			"-0.024": 0.0,
			"-0.023": 0.0,
			"-0.022": 0.0,
			"-0.021": 0.0,
			"-0.02": 0.0,
			"-0.019": 0.0,
			"-0.018": 0.0,
			"-0.017": 0.0,
			"-0.016": 0.0,
			"-0.015": 0.0,
			"-0.014": 0.0,
			"-0.013": 0.0,
			"-0.012": 0.0,
			"-0.011": 0.692340568807,
			"-0.01": 1.98121757351,
			"-0.009": 5.71323495819,
			"-0.008": 9.4793424799,
			"-0.007": 10.0902022715,
			"-0.006": 11.4686284774,
			"-0.005": 13.4111500371,
			"-0.004": 11.8271222683,
			"-0.003": 16.4019142123,
			"-0.002": 18.513847289,
			"-0.001": 18.214035593,
			"0.0": 19.6795948878,
			"0.001": 12.9683513482,
			"0.002": 10.4929749674,
			"0.003": 12.297579995,
			"0.004": 11.7924629318,
			"0.005": 5.13886900634,
			"0.006": 4.34579946911,
			"0.007": 4.66490204167,
			"0.008": 5.2816268518,
			"0.009": 4.85914192113,
			"0.01": 7.4675617562,
			"0.011": 7.20490451141,
			"0.012": 3.91907675745,
			"0.013": 1.55765290926,
			"0.014": 0.0357965503614,
			"0.015": 0.0,
			"0.016": 0.0,
			"0.017": 0.0,
			"0.018": 0.0,
			"0.019": 0.0,
			"0.02": 0.0,
			"0.021": 0.0,
			"0.022": 0.0,
			"0.023": 0.0,
			"0.024": 0.0,
			"0.025": 0.0
		}
	}
}
