{
	 "smiles": "CC(=O)C1=CC=C(OC2=CC=C(Br)C=C2)C=C1", 
	 "Tm": 353.15, 
	 "num_atms": 28, 
	 "gaussian": { 
		 "optdone": 1, 
		 "sigma_profile": "yes", 
		 "theory": "DFT", 
		 "functional": "B3LYP", 
		 "basiset": "6-31G**", 
		 "properties": { 
			 "R2extent": 11722.3054, 
			 "electric_dipole_moment_norm": 2.67125235423, 
			 "electric_quadrupole_moment_norm": 16.7760900513, 
			 "total_energy": -3261.96710556, 
			 "HOMO_LUMO_gap": 0.17652, 
			 "cosmo_polarized_energy": -10.65, 
			 "cosmo_cavitation_energy": 35.41, 
			 "cosmo_dispersion_energy": -25.83, 
			 "cosmo_repulsion_energy": 2.0, 
			 "cosmo_total_nonelectrostatic_energy": 11.58, 
			 "SMD_solvation_energy": 5.75 
		},
		"coords": [
			{
				"x": 2.1308145006,
				"y": -2.2685167668,
				"z": 3.5876350068,
				"element": "C" 
			},
			{
				"x": 0.9185629527,
				"y": -1.3667967912,
				"z": 3.4174579101,
				"element": "C" 
			},
			{
				"x": 0.3104597362,
				"y": -0.9549223311,
				"z": 4.3952088359,
				"element": "O" 
			},
			{
				"x": 0.4840877613,
				"y": -0.9950571147,
				"z": 2.0357861301,
				"element": "C" 
			},
			{
				"x": 1.1476800734,
				"y": -1.4314027593,
				"z": 0.877530025,
				"element": "C" 
			},
			{
				"x": 0.7036695976,
				"y": -1.0517590799,
				"z": -0.3842824789,
				"element": "C" 
			},
			{
				"x": -0.4207910101,
				"y": -0.2282332302,
				"z": -0.5028614016,
				"element": "C" 
			},
			{
				"x": -0.8282647243,
				"y": 0.0519445747,
				"z": -1.7860566938,
				"element": "O" 
			},
			{
				"x": -1.5613643221,
				"y": 1.1890435773,
				"z": -2.0719608256,
				"element": "C" 
			},
			{
				"x": -2.6806127735,
				"y": 1.0370524981,
				"z": -2.890812429,
				"element": "C" 
			},
			{
				"x": -3.4073981552,
				"y": 2.1588801826,
				"z": -3.2881356637,
				"element": "C" 
			},
			{
				"x": -3.0081703531,
				"y": 3.4221311793,
				"z": -2.8542710962,
				"element": "C" 
			},
			{
				"x": -4.0061078926,
				"y": 4.9610821647,
				"z": -3.3888924216,
				"element": "Br" 
			},
			{
				"x": -1.8887798188,
				"y": 3.5794154342,
				"z": -2.0371008912,
				"element": "C" 
			},
			{
				"x": -1.1574640457,
				"y": 2.4580635775,
				"z": -1.6477861849,
				"element": "C" 
			},
			{
				"x": -1.1046753592,
				"y": 0.2110675842,
				"z": 0.6385890203,
				"element": "C" 
			},
			{
				"x": -0.645216215,
				"y": -0.1731237135,
				"z": 1.8921274134,
				"element": "C" 
			},
			{
				"x": 3.0248058741,
				"y": -1.816056014,
				"z": 3.144285326,
				"element": "H" 
			},
			{
				"x": 2.2979371485,
				"y": -2.4291350155,
				"z": 4.6529596849,
				"element": "H" 
			},
			{
				"x": 1.9752587755,
				"y": -3.2347798149,
				"z": 3.0950120359,
				"element": "H" 
			},
			{
				"x": 2.0222746489,
				"y": -2.0692891964,
				"z": 0.9532926629,
				"element": "H" 
			},
			{
				"x": 1.2088251442,
				"y": -1.3804127432,
				"z": -1.2862020103,
				"element": "H" 
			},
			{
				"x": -2.9686183748,
				"y": 0.0422457104,
				"z": -3.2134078906,
				"element": "H" 
			},
			{
				"x": -4.2777432214,
				"y": 2.0499450136,
				"z": -3.9248723032,
				"element": "H" 
			},
			{
				"x": -1.5842551953,
				"y": 4.5682868431,
				"z": -1.7140326486,
				"element": "H" 
			},
			{
				"x": -0.278074411,
				"y": 2.568820329,
				"z": -1.0225171042,
				"element": "H" 
			},
			{
				"x": -1.9845898023,
				"y": 0.8368688832,
				"z": 0.5414353038,
				"element": "H" 
			},
			{
				"x": -1.1573505385,
				"y": 0.1502370187,
				"z": 2.7922726884,
				"element": "H" 
			}
		],
		 "valence_orbital": [ 
			{
				"type": "occ",
				"energy": -0.27613,
				"method": "rhf"
			},
			{
				"type": "occ",
				"energy": -0.26794,
				"method": "rhf"
			},
			{
				"type": "occ",
				"energy": -0.25435,
				"method": "rhf"
			},
			{
				"type": "occ",
				"energy": -0.24749,
				"method": "rhf"
			},
			{
				"type": "occ",
				"energy": -0.23055,
				"method": "rhf"
			},
			{
				"type": "unocc",
				"energy": -0.05403,
				"method": "rhf"
			},
			{
				"type": "unocc",
				"energy": -0.02844,
				"method": "rhf"
			},
			{
				"type": "unocc",
				"energy": -0.01783,
				"method": "rhf"
			},
			{
				"type": "unocc",
				"energy": -0.0138,
				"method": "rhf"
			},
			{
				"type": "unocc",
				"energy": 0.00194,
				"method": "rhf"
			}
		],
		"cosmo_sigma_profile": { 
			"-0.025": 0.0,
			"-0.024": 0.0,
			"-0.023": 0.0,
			"-0.022": 0.0,
			"-0.021": 0.0,
			"-0.02": 0.0,
			"-0.019": 0.0,
			"-0.018": 0.0,
			"-0.017": 0.0,
			"-0.016": 0.0,
			"-0.015": 0.0,
			"-0.014": 0.0,
			"-0.013": 0.0,
			"-0.012": 0.0,
			"-0.011": 0.0,
			"-0.01": 0.0,
			"-0.009": 0.0,
			"-0.008": 1.64957824768,
			"-0.007": 10.7697611303,
			"-0.006": 19.5747321854,
			"-0.005": 20.7365259751,
			"-0.004": 19.4499406839,
			"-0.003": 17.6192324155,
			"-0.002": 20.562065775,
			"-0.001": 20.5902114906,
			"0.0": 21.5567989886,
			"0.001": 22.8167499576,
			"0.002": 33.5530431475,
			"0.003": 31.1055099032,
			"0.004": 17.4690352132,
			"0.005": 8.70193528263,
			"0.006": 3.21075092461,
			"0.007": 2.83699258619,
			"0.008": 2.02727722827,
			"0.009": 2.21971247715,
			"0.01": 1.57871821576,
			"0.011": 2.64422388015,
			"0.012": 4.28596341676,
			"0.013": 2.04892299513,
			"0.014": 0.386271665762,
			"0.015": 0.0,
			"0.016": 0.0,
			"0.017": 0.0,
			"0.018": 0.0,
			"0.019": 0.0,
			"0.02": 0.0,
			"0.021": 0.0,
			"0.022": 0.0,
			"0.023": 0.0,
			"0.024": 0.0,
			"0.025": 0.0
		}
	}
}
