{
	 "smiles": "O=C1NC=CC(=O)O1", 
	 "Tm": 429.15, 
	 "num_atms": 11, 
	 "gaussian": { 
		 "optdone": 1, 
		 "sigma_profile": "yes", 
		 "theory": "DFT", 
		 "functional": "B3LYP", 
		 "basiset": "6-31G**", 
		 "properties": { 
			 "R2extent": 1060.6013, 
			 "electric_dipole_moment_norm": 6.29397996263, 
			 "electric_quadrupole_moment_norm": 7.57705436961, 
			 "total_energy": -434.664687888, 
			 "HOMO_LUMO_gap": 0.20415, 
			 "cosmo_polarized_energy": -18.72, 
			 "cosmo_cavitation_energy": 16.23, 
			 "cosmo_dispersion_energy": -12.43, 
			 "cosmo_repulsion_energy": 1.05, 
			 "cosmo_total_nonelectrostatic_energy": 4.85, 
			 "SMD_solvation_energy": 5.7 
		},
		"coords": [
			{
				"x": -0.1698608399,
				"y": -2.0058340102,
				"z": -2.1605281753,
				"element": "O" 
			},
			{
				"x": -0.4739059862,
				"y": -1.1074082705,
				"z": -1.4189242178,
				"element": "C" 
			},
			{
				"x": -0.1137132442,
				"y": 0.2181338702,
				"z": -1.6462881782,
				"element": "N" 
			},
			{
				"x": -0.4547763588,
				"y": 1.2496508953,
				"z": -0.80801546,
				"element": "C" 
			},
			{
				"x": -1.1755991401,
				"y": 1.0331716382,
				"z": 0.3107155982,
				"element": "C" 
			},
			{
				"x": -1.6023248435,
				"y": -0.3147849527,
				"z": 0.6408444154,
				"element": "C" 
			},
			{
				"x": -2.2441233652,
				"y": -0.6705944495,
				"z": 1.5917970133,
				"element": "O" 
			},
			{
				"x": -1.2019823348,
				"y": -1.3160687177,
				"z": -0.2863008517,
				"element": "O" 
			},
			{
				"x": 0.4259535225,
				"y": 0.3762224525,
				"z": -2.4848684164,
				"element": "H" 
			},
			{
				"x": -0.108422252,
				"y": 2.233006165,
				"z": -1.1060443919,
				"element": "H" 
			},
			{
				"x": -1.4533451577,
				"y": 1.8329053793,
				"z": 0.9822126644,
				"element": "H" 
			}
		],
		 "valence_orbital": [ 
			{
				"type": "occ",
				"energy": -0.38645,
				"method": "rhf"
			},
			{
				"type": "occ",
				"energy": -0.32545,
				"method": "rhf"
			},
			{
				"type": "occ",
				"energy": -0.31576,
				"method": "rhf"
			},
			{
				"type": "occ",
				"energy": -0.28671,
				"method": "rhf"
			},
			{
				"type": "occ",
				"energy": -0.26703,
				"method": "rhf"
			},
			{
				"type": "unocc",
				"energy": -0.06288,
				"method": "rhf"
			},
			{
				"type": "unocc",
				"energy": 0.0029,
				"method": "rhf"
			},
			{
				"type": "unocc",
				"energy": 0.04341,
				"method": "rhf"
			},
			{
				"type": "unocc",
				"energy": 0.09634,
				"method": "rhf"
			},
			{
				"type": "unocc",
				"energy": 0.10028,
				"method": "rhf"
			}
		],
		"cosmo_sigma_profile": { 
			"-0.025": 0.0,
			"-0.024": 0.0,
			"-0.023": 0.0,
			"-0.022": 0.0,
			"-0.021": 0.0,
			"-0.02": 0.0,
			"-0.019": 0.0,
			"-0.018": 1.06992493457,
			"-0.017": 1.95492068866,
			"-0.016": 1.32523450279,
			"-0.015": 0.768971915544,
			"-0.014": 0.981522282409,
			"-0.013": 1.74884037066,
			"-0.012": 2.04900709624,
			"-0.011": 3.52299857375,
			"-0.01": 2.74027495301,
			"-0.009": 3.17773869521,
			"-0.008": 5.1972502655,
			"-0.007": 5.15225986954,
			"-0.006": 5.7547510709,
			"-0.005": 5.55045963416,
			"-0.004": 7.07242770457,
			"-0.003": 7.27331964755,
			"-0.002": 6.03963657749,
			"-0.001": 5.43920060273,
			"0.0": 6.03863233049,
			"0.001": 4.82221361914,
			"0.002": 2.59833961227,
			"0.003": 2.49565742903,
			"0.004": 2.85803945933,
			"0.005": 2.76306225543,
			"0.006": 3.91220819446,
			"0.007": 3.56720127363,
			"0.008": 5.33725395915,
			"0.009": 5.65380880181,
			"0.01": 6.91096537697,
			"0.011": 12.4567509863,
			"0.012": 4.51758046924,
			"0.013": 0.147786706487,
			"0.014": 0.0,
			"0.015": 0.0,
			"0.016": 0.0,
			"0.017": 0.0,
			"0.018": 0.0,
			"0.019": 0.0,
			"0.02": 0.0,
			"0.021": 0.0,
			"0.022": 0.0,
			"0.023": 0.0,
			"0.024": 0.0,
			"0.025": 0.0
		}
	}
}
