{
	 "smiles": "OC(=O)CCCC1=CC2=C(OCCO2)C=C1", 
	 "Tm": 350.15, 
	 "num_atms": 30, 
	 "gaussian": { 
		 "optdone": 1, 
		 "sigma_profile": "yes", 
		 "theory": "DFT", 
		 "functional": "B3LYP", 
		 "basiset": "6-31G**", 
		 "properties": { 
			 "R2extent": 6349.6257, 
			 "electric_dipole_moment_norm": 2.79306883195, 
			 "electric_quadrupole_moment_norm": 10.9647268739, 
			 "total_energy": -766.616637228, 
			 "HOMO_LUMO_gap": 0.2101, 
			 "cosmo_polarized_energy": -13.6, 
			 "cosmo_cavitation_energy": 33.46, 
			 "cosmo_dispersion_energy": -24.2, 
			 "cosmo_repulsion_energy": 1.92, 
			 "cosmo_total_nonelectrostatic_energy": 11.18, 
			 "SMD_solvation_energy": 6.74 
		},
		"coords": [
			{
				"x": -0.7154587178,
				"y": 2.7003813621,
				"z": 5.5995680168,
				"element": "O" 
			},
			{
				"x": 0.4820339856,
				"y": 2.188656456,
				"z": 5.21663854,
				"element": "C" 
			},
			{
				"x": 1.3483891234,
				"y": 1.9034857051,
				"z": 6.0146010523,
				"element": "O" 
			},
			{
				"x": 0.5625423993,
				"y": 2.0291190258,
				"z": 3.7154868977,
				"element": "C" 
			},
			{
				"x": 1.9394867747,
				"y": 1.5679632115,
				"z": 3.2370967163,
				"element": "C" 
			},
			{
				"x": 2.0136838241,
				"y": 1.3529994765,
				"z": 1.7110377402,
				"element": "C" 
			},
			{
				"x": 1.1270595478,
				"y": 0.2353835079,
				"z": 1.1976589946,
				"element": "C" 
			},
			{
				"x": -0.05024232,
				"y": 0.5120423114,
				"z": 0.4960653716,
				"element": "C" 
			},
			{
				"x": -0.8770139657,
				"y": -0.5153259906,
				"z": 0.0371761008,
				"element": "C" 
			},
			{
				"x": -0.5234349962,
				"y": -1.8537083052,
				"z": 0.2689504545,
				"element": "C" 
			},
			{
				"x": -1.2956658637,
				"y": -2.8996226118,
				"z": -0.1805880175,
				"element": "O" 
			},
			{
				"x": -2.2431171175,
				"y": -2.5225216613,
				"z": -1.1782912626,
				"element": "C" 
			},
			{
				"x": -2.957976817,
				"y": -1.2450413031,
				"z": -0.766543627,
				"element": "C" 
			},
			{
				"x": -2.0225858898,
				"y": -0.1742745273,
				"z": -0.6428025651,
				"element": "O" 
			},
			{
				"x": 0.6453517095,
				"y": -2.1401203509,
				"z": 0.9758789086,
				"element": "C" 
			},
			{
				"x": 1.4576616143,
				"y": -1.1082876789,
				"z": 1.4378317657,
				"element": "C" 
			},
			{
				"x": -0.6829504308,
				"y": 2.7575089375,
				"z": 6.5692885381,
				"element": "H" 
			},
			{
				"x": 0.2767489892,
				"y": 2.9854175334,
				"z": 3.2590113558,
				"element": "H" 
			},
			{
				"x": -0.2174342061,
				"y": 1.3183150122,
				"z": 3.4150943976,
				"element": "H" 
			},
			{
				"x": 2.2056664635,
				"y": 0.6412651719,
				"z": 3.7565468574,
				"element": "H" 
			},
			{
				"x": 2.6912925676,
				"y": 2.307827358,
				"z": 3.5342146166,
				"element": "H" 
			},
			{
				"x": 1.7551923317,
				"y": 2.2882968448,
				"z": 1.1991382596,
				"element": "H" 
			},
			{
				"x": 3.0566911248,
				"y": 1.1371617762,
				"z": 1.4483288402,
				"element": "H" 
			},
			{
				"x": -0.3513653314,
				"y": 1.535006026,
				"z": 0.2886410835,
				"element": "H" 
			},
			{
				"x": -1.7344814247,
				"y": -2.3707140079,
				"z": -2.1405280102,
				"element": "H" 
			},
			{
				"x": -2.9435238223,
				"y": -3.356293496,
				"z": -1.2736982709,
				"element": "H" 
			},
			{
				"x": -3.4775076999,
				"y": -1.4008756789,
				"z": 0.1891074098,
				"element": "H" 
			},
			{
				"x": -3.6860732268,
				"y": -0.93601164,
				"z": -1.5210210348,
				"element": "H" 
			},
			{
				"x": 0.9026571719,
				"y": -3.1814232609,
				"z": 1.1423720197,
				"element": "H" 
			},
			{
				"x": 2.3681742022,
				"y": -1.3505092039,
				"z": 1.9794388509,
				"element": "H" 
			}
		],
		 "valence_orbital": [ 
			{
				"type": "occ",
				"energy": -0.30571,
				"method": "rhf"
			},
			{
				"type": "occ",
				"energy": -0.30156,
				"method": "rhf"
			},
			{
				"type": "occ",
				"energy": -0.2707,
				"method": "rhf"
			},
			{
				"type": "occ",
				"energy": -0.23221,
				"method": "rhf"
			},
			{
				"type": "occ",
				"energy": -0.20671,
				"method": "rhf"
			},
			{
				"type": "unocc",
				"energy": 0.00339,
				"method": "rhf"
			},
			{
				"type": "unocc",
				"energy": 0.0117,
				"method": "rhf"
			},
			{
				"type": "unocc",
				"energy": 0.01768,
				"method": "rhf"
			},
			{
				"type": "unocc",
				"energy": 0.08149,
				"method": "rhf"
			},
			{
				"type": "unocc",
				"energy": 0.0841,
				"method": "rhf"
			}
		],
		"cosmo_sigma_profile": { 
			"-0.025": 0.0,
			"-0.024": 0.0,
			"-0.023": 0.0,
			"-0.022": 0.0,
			"-0.021": 0.0,
			"-0.02": 0.0,
			"-0.019": 0.0,
			"-0.018": 0.519749507931,
			"-0.017": 0.798332097408,
			"-0.016": 0.827643933659,
			"-0.015": 0.694355717333,
			"-0.014": 0.954767255185,
			"-0.013": 0.729933211738,
			"-0.012": 0.502606254315,
			"-0.011": 0.419603197612,
			"-0.01": 1.19161024805,
			"-0.009": 0.773338085893,
			"-0.008": 0.207934717899,
			"-0.007": 5.50388871247,
			"-0.006": 14.2545344849,
			"-0.005": 21.5073822788,
			"-0.004": 24.044970233,
			"-0.003": 27.2250773382,
			"-0.002": 21.5538468542,
			"-0.001": 19.6256312804,
			"0.0": 15.7696941531,
			"0.001": 12.6192210701,
			"0.002": 10.9722051192,
			"0.003": 12.1486549827,
			"0.004": 14.6605022592,
			"0.005": 12.8951342976,
			"0.006": 8.9849244898,
			"0.007": 5.84472094752,
			"0.008": 5.50377159328,
			"0.009": 4.89908826758,
			"0.01": 7.11852968113,
			"0.011": 4.5616233624,
			"0.012": 5.0611514928,
			"0.013": 0.890825676528,
			"0.014": 0.0,
			"0.015": 0.0,
			"0.016": 0.0,
			"0.017": 0.0,
			"0.018": 0.0,
			"0.019": 0.0,
			"0.02": 0.0,
			"0.021": 0.0,
			"0.022": 0.0,
			"0.023": 0.0,
			"0.024": 0.0,
			"0.025": 0.0
		}
	}
}
