{
	 "smiles": "C1=CC(=CN=C1)C1=CC(=NC=C1)C1=CC=CN=C1", 
	 "Tm": 421.15, 
	 "num_atms": 29, 
	 "gaussian": { 
		 "optdone": 1, 
		 "sigma_profile": "yes", 
		 "theory": "DFT", 
		 "functional": "B3LYP", 
		 "basiset": "6-31G**", 
		 "properties": { 
			 "R2extent": 5947.0337, 
			 "electric_dipole_moment_norm": 3.47825865772, 
			 "electric_quadrupole_moment_norm": 22.860874223, 
			 "total_energy": -742.474772001, 
			 "HOMO_LUMO_gap": 0.17952, 
			 "cosmo_polarized_energy": -14.09, 
			 "cosmo_cavitation_energy": 33.93, 
			 "cosmo_dispersion_energy": -24.79, 
			 "cosmo_repulsion_energy": 1.86, 
			 "cosmo_total_nonelectrostatic_energy": 11.0, 
			 "SMD_solvation_energy": 1.67 
		},
		"coords": [
			{
				"x": -2.6299275866,
				"y": 3.6183737185,
				"z": -0.1113671789,
				"element": "C" 
			},
			{
				"x": -1.9525662627,
				"y": 2.4082383798,
				"z": -0.2290755602,
				"element": "C" 
			},
			{
				"x": -0.873188027,
				"y": 2.308723011,
				"z": -1.1188373998,
				"element": "C" 
			},
			{
				"x": -0.5368015552,
				"y": 3.4656898151,
				"z": -1.8432058976,
				"element": "C" 
			},
			{
				"x": -1.1788739174,
				"y": 4.6322862273,
				"z": -1.7422408262,
				"element": "N" 
			},
			{
				"x": -2.2095939952,
				"y": 4.6977309393,
				"z": -0.8902150758,
				"element": "C" 
			},
			{
				"x": -0.1104895683,
				"y": 1.0499871043,
				"z": -1.2919900824,
				"element": "C" 
			},
			{
				"x": 0.1683674303,
				"y": 0.2132210658,
				"z": -0.2039406305,
				"element": "C" 
			},
			{
				"x": 0.8929206536,
				"y": -0.972688981,
				"z": -0.394127301,
				"element": "C" 
			},
			{
				"x": 1.3218096418,
				"y": -1.355915314,
				"z": -1.6123625841,
				"element": "N" 
			},
			{
				"x": 1.0522736672,
				"y": -0.5604180973,
				"z": -2.6494200441,
				"element": "C" 
			},
			{
				"x": 0.3556567862,
				"y": 0.6425465136,
				"z": -2.5504542774,
				"element": "C" 
			},
			{
				"x": 1.2177154688,
				"y": -1.880573531,
				"z": 0.7360366104,
				"element": "C" 
			},
			{
				"x": 1.2588859468,
				"y": -1.4533954662,
				"z": 2.0700170004,
				"element": "C" 
			},
			{
				"x": 1.5635517152,
				"y": -2.37138579,
				"z": 3.071455787,
				"element": "C" 
			},
			{
				"x": 1.822324605,
				"y": -3.6931828563,
				"z": 2.7084208508,
				"element": "C" 
			},
			{
				"x": 1.7964736879,
				"y": -4.127180614,
				"z": 1.4412507036,
				"element": "N" 
			},
			{
				"x": 1.5048836835,
				"y": -3.2358786284,
				"z": 0.4901119425,
				"element": "C" 
			},
			{
				"x": -3.4747981606,
				"y": 3.7229312865,
				"z": 0.5620362032,
				"element": "H" 
			},
			{
				"x": -2.2700665289,
				"y": 1.5411011183,
				"z": 0.3429317153,
				"element": "H" 
			},
			{
				"x": 0.3122271418,
				"y": 3.4465774901,
				"z": -2.5244253332,
				"element": "H" 
			},
			{
				"x": -2.7222810024,
				"y": 5.6558535956,
				"z": -0.8287721549,
				"element": "H" 
			},
			{
				"x": -0.1759018299,
				"y": 0.4893159178,
				"z": 0.7866175101,
				"element": "H" 
			},
			{
				"x": 1.4097690429,
				"y": -0.9034733793,
				"z": -3.6188836976,
				"element": "H" 
			},
			{
				"x": 0.1521322612,
				"y": 1.2301803343,
				"z": -3.4393620408,
				"element": "H" 
			},
			{
				"x": 1.0804942634,
				"y": -0.4130533665,
				"z": 2.3255551338,
				"element": "H" 
			},
			{
				"x": 1.6102730724,
				"y": -2.0675553158,
				"z": 4.1125633067,
				"element": "H" 
			},
			{
				"x": 2.0658737861,
				"y": -4.435844343,
				"z": 3.4662975077,
				"element": "H" 
			},
			{
				"x": 1.4915555804,
				"y": -3.5969108345,
				"z": -0.534214187,
				"element": "H" 
			}
		],
		 "valence_orbital": [ 
			{
				"type": "occ",
				"energy": -0.26888,
				"method": "rhf"
			},
			{
				"type": "occ",
				"energy": -0.26445,
				"method": "rhf"
			},
			{
				"type": "occ",
				"energy": -0.2577,
				"method": "rhf"
			},
			{
				"type": "occ",
				"energy": -0.24821,
				"method": "rhf"
			},
			{
				"type": "occ",
				"energy": -0.24101,
				"method": "rhf"
			},
			{
				"type": "unocc",
				"energy": -0.06149,
				"method": "rhf"
			},
			{
				"type": "unocc",
				"energy": -0.04659,
				"method": "rhf"
			},
			{
				"type": "unocc",
				"energy": -0.03325,
				"method": "rhf"
			},
			{
				"type": "unocc",
				"energy": -0.01965,
				"method": "rhf"
			},
			{
				"type": "unocc",
				"energy": -0.00341,
				"method": "rhf"
			}
		],
		"cosmo_sigma_profile": { 
			"-0.025": 0.0,
			"-0.024": 0.0,
			"-0.023": 0.0,
			"-0.022": 0.0,
			"-0.021": 0.0,
			"-0.02": 0.0,
			"-0.019": 0.0,
			"-0.018": 0.0,
			"-0.017": 0.0,
			"-0.016": 0.0,
			"-0.015": 0.0,
			"-0.014": 0.0,
			"-0.013": 0.0,
			"-0.012": 0.0,
			"-0.011": 0.0,
			"-0.01": 0.0,
			"-0.009": 0.256717367615,
			"-0.008": 4.05734239981,
			"-0.007": 15.8209378478,
			"-0.006": 21.9253034995,
			"-0.005": 20.5223097223,
			"-0.004": 16.6025322945,
			"-0.003": 13.917489845,
			"-0.002": 14.8649301057,
			"-0.001": 15.7683287678,
			"0.0": 22.3776277939,
			"0.001": 32.9604825693,
			"0.002": 36.4280432543,
			"0.003": 13.8157418666,
			"0.004": 6.70955293956,
			"0.005": 6.36239569376,
			"0.006": 3.34013041186,
			"0.007": 4.66264328282,
			"0.008": 4.31273079149,
			"0.009": 3.8700822108,
			"0.01": 1.95828739221,
			"0.011": 2.68710330781,
			"0.012": 2.68085562935,
			"0.013": 2.59167907284,
			"0.014": 1.68999126826,
			"0.015": 1.98307327583,
			"0.016": 1.56549063395,
			"0.017": 0.535901924353,
			"0.018": 0.0,
			"0.019": 0.0,
			"0.02": 0.0,
			"0.021": 0.0,
			"0.022": 0.0,
			"0.023": 0.0,
			"0.024": 0.0,
			"0.025": 0.0
		}
	}
}
