{
	 "smiles": "COC(=O)C1(CCCCC1)S(=O)(=O)C1=CC=C(C)C=C1", 
	 "Tm": 419.15, 
	 "num_atms": 40, 
	 "gaussian": { 
		 "optdone": 1, 
		 "sigma_profile": "yes", 
		 "theory": "DFT", 
		 "functional": "B3LYP", 
		 "basiset": "6-31G**", 
		 "properties": { 
			 "R2extent": 6203.4353, 
			 "electric_dipole_moment_norm": 6.29628796673, 
			 "electric_quadrupole_moment_norm": 17.8403323296, 
			 "total_energy": -1282.6869451, 
			 "HOMO_LUMO_gap": 0.22055, 
			 "cosmo_polarized_energy": -16.6, 
			 "cosmo_cavitation_energy": 41.26, 
			 "cosmo_dispersion_energy": -28.57, 
			 "cosmo_repulsion_energy": 2.15, 
			 "cosmo_total_nonelectrostatic_energy": 14.84, 
			 "SMD_solvation_energy": 6.89 
		},
		"coords": [
			{
				"x": -0.8043750677,
				"y": 1.1897800154,
				"z": 3.6826929083,
				"element": "C" 
			},
			{
				"x": -0.4777528741,
				"y": 0.6376632386,
				"z": 2.3948949872,
				"element": "O" 
			},
			{
				"x": 0.6764707899,
				"y": -0.0601054514,
				"z": 2.3400884154,
				"element": "C" 
			},
			{
				"x": 1.3867805165,
				"y": -0.2475151459,
				"z": 3.3015338558,
				"element": "O" 
			},
			{
				"x": 0.924922389,
				"y": -0.6174824049,
				"z": 0.9345921731,
				"element": "C" 
			},
			{
				"x": 2.2096198544,
				"y": -1.4845106206,
				"z": 0.9285279058,
				"element": "C" 
			},
			{
				"x": 1.8726418702,
				"y": -2.9382996841,
				"z": 1.2914012489,
				"element": "C" 
			},
			{
				"x": 0.9718217421,
				"y": -3.5989645115,
				"z": 0.2207526139,
				"element": "C" 
			},
			{
				"x": 0.0826820887,
				"y": -2.5622554781,
				"z": -0.5034910089,
				"element": "C" 
			},
			{
				"x": -0.3146117462,
				"y": -1.4167456537,
				"z": 0.4359273169,
				"element": "C" 
			},
			{
				"x": 1.3092953808,
				"y": 0.8351920383,
				"z": -0.2139302286,
				"element": "S" 
			},
			{
				"x": 1.686129201,
				"y": 0.2396759566,
				"z": -1.5113767674,
				"element": "O" 
			},
			{
				"x": 2.2467082104,
				"y": 1.7021790068,
				"z": 0.5222552989,
				"element": "O" 
			},
			{
				"x": -0.1883158463,
				"y": 1.7904841403,
				"z": -0.5166021616,
				"element": "C" 
			},
			{
				"x": -0.4566998114,
				"y": 2.9108464477,
				"z": 0.2713415871,
				"element": "C" 
			},
			{
				"x": -1.5732174769,
				"y": 3.6914200694,
				"z": -0.0174905851,
				"element": "C" 
			},
			{
				"x": -2.4289086617,
				"y": 3.3701694911,
				"z": -1.0821375686,
				"element": "C" 
			},
			{
				"x": -3.6540716133,
				"y": 4.2048774248,
				"z": -1.3664994501,
				"element": "C" 
			},
			{
				"x": -2.1237164725,
				"y": 2.2513606905,
				"z": -1.8700035182,
				"element": "C" 
			},
			{
				"x": -1.0063596548,
				"y": 1.4629996524,
				"z": -1.5997174229,
				"element": "C" 
			},
			{
				"x": -0.9526284469,
				"y": 0.3910429724,
				"z": 4.4134918539,
				"element": "H" 
			},
			{
				"x": -0.0031056858,
				"y": 1.8446238736,
				"z": 4.0326416394,
				"element": "H" 
			},
			{
				"x": -1.7265332687,
				"y": 1.751016257,
				"z": 3.5345003954,
				"element": "H" 
			},
			{
				"x": 2.6573919243,
				"y": -1.454109021,
				"z": -0.0688460639,
				"element": "H" 
			},
			{
				"x": 2.9246419925,
				"y": -1.0578012692,
				"z": 1.6326923478,
				"element": "H" 
			},
			{
				"x": 2.8015442066,
				"y": -3.5054798629,
				"z": 1.4113802514,
				"element": "H" 
			},
			{
				"x": 1.3814302359,
				"y": -2.9533013369,
				"z": 2.2712713761,
				"element": "H" 
			},
			{
				"x": 0.3459891744,
				"y": -4.3648085083,
				"z": 0.6942275425,
				"element": "H" 
			},
			{
				"x": 1.5889885406,
				"y": -4.1201540992,
				"z": -0.5197339155,
				"element": "H" 
			},
			{
				"x": -0.8209545368,
				"y": -3.042656479,
				"z": -0.894633619,
				"element": "H" 
			},
			{
				"x": 0.613107138,
				"y": -2.1431749032,
				"z": -1.3642459285,
				"element": "H" 
			},
			{
				"x": -0.8249448521,
				"y": -1.8297636958,
				"z": 1.3146281513,
				"element": "H" 
			},
			{
				"x": -1.0403450505,
				"y": -0.7448569452,
				"z": -0.0296757149,
				"element": "H" 
			},
			{
				"x": 0.2185874317,
				"y": 3.1751233209,
				"z": 1.076900511,
				"element": "H" 
			},
			{
				"x": -1.7787635015,
				"y": 4.5719512516,
				"z": 0.5856993998,
				"element": "H" 
			},
			{
				"x": -4.51938974,
				"y": 3.8341206598,
				"z": -0.8028386085,
				"element": "H" 
			},
			{
				"x": -3.920608965,
				"y": 4.1771625689,
				"z": -2.4268676161,
				"element": "H" 
			},
			{
				"x": -3.502491004,
				"y": 5.2493996302,
				"z": -1.0793719513,
				"element": "H" 
			},
			{
				"x": -2.7595688702,
				"y": 2.0023483036,
				"z": -2.7154447408,
				"element": "H" 
			},
			{
				"x": -0.7490895408,
				"y": 0.623748061,
				"z": -2.2365349097,
				"element": "H" 
			}
		],
		 "valence_orbital": [ 
			{
				"type": "occ",
				"energy": -0.29556,
				"method": "rhf"
			},
			{
				"type": "occ",
				"energy": -0.28372,
				"method": "rhf"
			},
			{
				"type": "occ",
				"energy": -0.26952,
				"method": "rhf"
			},
			{
				"type": "occ",
				"energy": -0.2678,
				"method": "rhf"
			},
			{
				"type": "occ",
				"energy": -0.26069,
				"method": "rhf"
			},
			{
				"type": "unocc",
				"energy": -0.04014,
				"method": "rhf"
			},
			{
				"type": "unocc",
				"energy": -0.02002,
				"method": "rhf"
			},
			{
				"type": "unocc",
				"energy": -0.01016,
				"method": "rhf"
			},
			{
				"type": "unocc",
				"energy": 0.05718,
				"method": "rhf"
			},
			{
				"type": "unocc",
				"energy": 0.07293,
				"method": "rhf"
			}
		],
		"cosmo_sigma_profile": { 
			"-0.025": 0.0,
			"-0.024": 0.0,
			"-0.023": 0.0,
			"-0.022": 0.0,
			"-0.021": 0.0,
			"-0.02": 0.0,
			"-0.019": 0.0,
			"-0.018": 0.0,
			"-0.017": 0.0,
			"-0.016": 0.0,
			"-0.015": 0.0,
			"-0.014": 0.0,
			"-0.013": 0.0,
			"-0.012": 0.0,
			"-0.011": 0.0,
			"-0.01": 0.0,
			"-0.009": 0.0,
			"-0.008": 0.0,
			"-0.007": 3.88244875564,
			"-0.006": 16.0290270531,
			"-0.005": 24.00683466,
			"-0.004": 28.3289798881,
			"-0.003": 34.9358253856,
			"-0.002": 40.6645741228,
			"-0.001": 37.329365034,
			"0.0": 27.8000029972,
			"0.001": 19.4028002545,
			"0.002": 14.8787957527,
			"0.003": 16.8709118607,
			"0.004": 7.60622347512,
			"0.005": 6.3401261294,
			"0.006": 6.3578680427,
			"0.007": 5.12777107417,
			"0.008": 5.31053200842,
			"0.009": 5.32516320345,
			"0.01": 7.15897340915,
			"0.011": 11.3083172351,
			"0.012": 5.01997845282,
			"0.013": 0.114617078379,
			"0.014": 0.0,
			"0.015": 0.0,
			"0.016": 0.0,
			"0.017": 0.0,
			"0.018": 0.0,
			"0.019": 0.0,
			"0.02": 0.0,
			"0.021": 0.0,
			"0.022": 0.0,
			"0.023": 0.0,
			"0.024": 0.0,
			"0.025": 0.0
		}
	}
}
