{
	 "smiles": "OC1=C(F)C(F)=C(F)C2=C(F)C(F)=C(F)C(F)=C12", 
	 "Tm": 378.15, 
	 "num_atms": 19, 
	 "gaussian": { 
		 "optdone": 1, 
		 "sigma_profile": "yes", 
		 "theory": "DFT", 
		 "functional": "B3LYP", 
		 "basiset": "6-31G**", 
		 "properties": { 
			 "R2extent": 4612.3507, 
			 "electric_dipole_moment_norm": 2.07350592235, 
			 "electric_quadrupole_moment_norm": 10.1752825351, 
			 "total_energy": -1155.67902235, 
			 "HOMO_LUMO_gap": 0.16384, 
			 "cosmo_polarized_energy": -6.68, 
			 "cosmo_cavitation_energy": 27.73, 
			 "cosmo_dispersion_energy": -19.87, 
			 "cosmo_repulsion_energy": 1.35, 
			 "cosmo_total_nonelectrostatic_energy": 9.22, 
			 "SMD_solvation_energy": 8.12 
		},
		"coords": [
			{
				"x": -0.7647867148,
				"y": 1.5806067312,
				"z": -2.0789763909,
				"element": "O" 
			},
			{
				"x": 0.0432207683,
				"y": 0.7219254772,
				"z": -1.4099956212,
				"element": "C" 
			},
			{
				"x": 1.4052124145,
				"y": 0.9341408339,
				"z": -1.3709693804,
				"element": "C" 
			},
			{
				"x": 1.9027730764,
				"y": 2.0147075545,
				"z": -2.0146350044,
				"element": "F" 
			},
			{
				"x": 2.2824505235,
				"y": 0.0739427799,
				"z": -0.691936806,
				"element": "C" 
			},
			{
				"x": 3.5914766308,
				"y": 0.3399135338,
				"z": -0.6952103252,
				"element": "F" 
			},
			{
				"x": 1.7854273511,
				"y": -1.0266375257,
				"z": -0.0349521587,
				"element": "C" 
			},
			{
				"x": 2.6478811766,
				"y": -1.8294965602,
				"z": 0.6045727393,
				"element": "F" 
			},
			{
				"x": 0.3939557845,
				"y": -1.3044995875,
				"z": -0.0347548706,
				"element": "C" 
			},
			{
				"x": -0.1543442935,
				"y": -2.4308375806,
				"z": 0.6324119462,
				"element": "C" 
			},
			{
				"x": 0.6373403211,
				"y": -3.2836935757,
				"z": 1.2955841701,
				"element": "F" 
			},
			{
				"x": -1.5062834813,
				"y": -2.6791521638,
				"z": 0.6183291054,
				"element": "C" 
			},
			{
				"x": -2.0118101831,
				"y": -3.7417976201,
				"z": 1.2492728372,
				"element": "F" 
			},
			{
				"x": -2.3799497922,
				"y": -1.8114433584,
				"z": -0.0652800627,
				"element": "C" 
			},
			{
				"x": -3.6891993013,
				"y": -2.0771791599,
				"z": -0.0623064267,
				"element": "F" 
			},
			{
				"x": -1.8887553618,
				"y": -0.7084350372,
				"z": -0.7246275481,
				"element": "C" 
			},
			{
				"x": -2.7649492828,
				"y": 0.080060932,
				"z": -1.3566843305,
				"element": "F" 
			},
			{
				"x": -0.4999717184,
				"y": -0.4132872394,
				"z": -0.7364181903,
				"element": "C" 
			},
			{
				"x": -0.2063879177,
				"y": 2.274461566,
				"z": -2.4610236825,
				"element": "H" 
			}
		],
		 "valence_orbital": [ 
			{
				"type": "occ",
				"energy": -0.37537,
				"method": "rhf"
			},
			{
				"type": "occ",
				"energy": -0.31994,
				"method": "rhf"
			},
			{
				"type": "occ",
				"energy": -0.28565,
				"method": "rhf"
			},
			{
				"type": "occ",
				"energy": -0.26897,
				"method": "rhf"
			},
			{
				"type": "occ",
				"energy": -0.22314,
				"method": "rhf"
			},
			{
				"type": "unocc",
				"energy": -0.0593,
				"method": "rhf"
			},
			{
				"type": "unocc",
				"energy": -0.04297,
				"method": "rhf"
			},
			{
				"type": "unocc",
				"energy": 0.01727,
				"method": "rhf"
			},
			{
				"type": "unocc",
				"energy": 0.01775,
				"method": "rhf"
			},
			{
				"type": "unocc",
				"energy": 0.03111,
				"method": "rhf"
			}
		],
		"cosmo_sigma_profile": { 
			"-0.025": 0.0,
			"-0.024": 0.0,
			"-0.023": 0.0,
			"-0.022": 0.0,
			"-0.021": 0.0,
			"-0.02": 0.0,
			"-0.019": 0.0,
			"-0.018": 0.209457280485,
			"-0.017": 0.696632171114,
			"-0.016": 0.827243657839,
			"-0.015": 0.3923166608,
			"-0.014": 0.613336817371,
			"-0.013": 1.14447615602,
			"-0.012": 1.19147348116,
			"-0.011": 0.87853257549,
			"-0.01": 0.824866606099,
			"-0.009": 0.93451089304,
			"-0.008": 1.20840618239,
			"-0.007": 1.06029696091,
			"-0.006": 1.23309719719,
			"-0.005": 1.9523949593,
			"-0.004": 10.4190046951,
			"-0.003": 30.8992966771,
			"-0.002": 25.8425273109,
			"-0.001": 15.2379174052,
			"0.0": 11.5003131276,
			"0.001": 14.3977594117,
			"0.002": 40.3276239752,
			"0.003": 47.6032882016,
			"0.004": 6.88241270614,
			"0.005": 1.70355044451,
			"0.006": 2.32823688246,
			"0.007": 1.67642999542,
			"0.008": 2.1439301153,
			"0.009": 2.10202157012,
			"0.01": 0.0629984585019,
			"0.011": 0.0,
			"0.012": 0.0,
			"0.013": 0.0,
			"0.014": 0.0,
			"0.015": 0.0,
			"0.016": 0.0,
			"0.017": 0.0,
			"0.018": 0.0,
			"0.019": 0.0,
			"0.02": 0.0,
			"0.021": 0.0,
			"0.022": 0.0,
			"0.023": 0.0,
			"0.024": 0.0,
			"0.025": 0.0
		}
	}
}
