{
	 "smiles": "CN1C=C(C(O)=O)C(=N1)C1=CC=C(C=C1)[N+]([O-])=O", 
	 "Tm": 573.15, 
	 "num_atms": 27, 
	 "gaussian": { 
		 "optdone": 1, 
		 "sigma_profile": "yes", 
		 "theory": "DFT", 
		 "functional": "B3LYP", 
		 "basiset": "6-31G**", 
		 "properties": { 
			 "R2extent": 6385.4398, 
			 "electric_dipole_moment_norm": 6.68710423203, 
			 "electric_quadrupole_moment_norm": 33.1651420222, 
			 "total_energy": -889.647531611, 
			 "HOMO_LUMO_gap": 0.1639, 
			 "cosmo_polarized_energy": -17.59, 
			 "cosmo_cavitation_energy": 33.32, 
			 "cosmo_dispersion_energy": -24.04, 
			 "cosmo_repulsion_energy": 1.85, 
			 "cosmo_total_nonelectrostatic_energy": 11.13, 
			 "SMD_solvation_energy": 8.71 
		},
		"coords": [
			{
				"x": 0.7263706414,
				"y": -1.6789768821,
				"z": -3.4379923661,
				"element": "C" 
			},
			{
				"x": 0.5888439082,
				"y": -1.4150951191,
				"z": -2.0157065976,
				"element": "N" 
			},
			{
				"x": 0.2932196057,
				"y": -2.2824751442,
				"z": -1.0310631045,
				"element": "C" 
			},
			{
				"x": 0.2478043743,
				"y": -1.5588010344,
				"z": 0.1546280096,
				"element": "C" 
			},
			{
				"x": 0.0371559187,
				"y": -2.2505996562,
				"z": 1.4322300977,
				"element": "C" 
			},
			{
				"x": 0.1648535368,
				"y": -1.4615561455,
				"z": 2.5267144043,
				"element": "O" 
			},
			{
				"x": -0.2123190486,
				"y": -3.438966802,
				"z": 1.523158894,
				"element": "O" 
			},
			{
				"x": 0.5336427223,
				"y": -0.2099743434,
				"z": -0.240581086,
				"element": "C" 
			},
			{
				"x": 0.7379247458,
				"y": -0.1511459577,
				"z": -1.5616125649,
				"element": "N" 
			},
			{
				"x": 0.6291591588,
				"y": 1.0519536092,
				"z": 0.5218352452,
				"element": "C" 
			},
			{
				"x": -0.2095482563,
				"y": 1.3355914396,
				"z": 1.6124393832,
				"element": "C" 
			},
			{
				"x": -0.1231456456,
				"y": 2.5545165152,
				"z": 2.276414171,
				"element": "C" 
			},
			{
				"x": 0.8069569908,
				"y": 3.495568778,
				"z": 1.8399889955,
				"element": "C" 
			},
			{
				"x": 1.6466250003,
				"y": 3.2502314117,
				"z": 0.7544973078,
				"element": "C" 
			},
			{
				"x": 1.5506205409,
				"y": 2.0286252043,
				"z": 0.09992375,
				"element": "C" 
			},
			{
				"x": 0.9030588837,
				"y": 4.7833020969,
				"z": 2.5412070902,
				"element": "N" 
			},
			{
				"x": 1.732219545,
				"y": 5.5966577349,
				"z": 2.1324566259,
				"element": "O" 
			},
			{
				"x": 0.1487248544,
				"y": 4.9730139497,
				"z": 3.4958067215,
				"element": "O" 
			},
			{
				"x": 0.6264951851,
				"y": -2.7514372661,
				"z": -3.6092707331,
				"element": "H" 
			},
			{
				"x": -0.048320298,
				"y": -1.1452064395,
				"z": -3.9939362068,
				"element": "H" 
			},
			{
				"x": 1.7073812774,
				"y": -1.3425664445,
				"z": -3.78039095,
				"element": "H" 
			},
			{
				"x": 0.1477760491,
				"y": -3.3393863018,
				"z": -1.1963239539,
				"element": "H" 
			},
			{
				"x": 0.023121664,
				"y": -2.0481937888,
				"z": 3.2886656931,
				"element": "H" 
			},
			{
				"x": -0.9317683579,
				"y": 0.600533624,
				"z": 1.9420242743,
				"element": "H" 
			},
			{
				"x": -0.7645305026,
				"y": 2.7902729019,
				"z": 3.1161471353,
				"element": "H" 
			},
			{
				"x": 2.3550902275,
				"y": 4.0085473689,
				"z": 0.4459182739,
				"element": "H" 
			},
			{
				"x": 2.1892872788,
				"y": 1.815166691,
				"z": -0.7493785096,
				"element": "H" 
			}
		],
		 "valence_orbital": [ 
			{
				"type": "occ",
				"energy": -0.28457,
				"method": "rhf"
			},
			{
				"type": "occ",
				"energy": -0.28163,
				"method": "rhf"
			},
			{
				"type": "occ",
				"energy": -0.27158,
				"method": "rhf"
			},
			{
				"type": "occ",
				"energy": -0.27055,
				"method": "rhf"
			},
			{
				"type": "occ",
				"energy": -0.25119,
				"method": "rhf"
			},
			{
				"type": "unocc",
				"energy": -0.08729,
				"method": "rhf"
			},
			{
				"type": "unocc",
				"energy": -0.03597,
				"method": "rhf"
			},
			{
				"type": "unocc",
				"energy": -0.02075,
				"method": "rhf"
			},
			{
				"type": "unocc",
				"energy": -0.01711,
				"method": "rhf"
			},
			{
				"type": "unocc",
				"energy": 0.02734,
				"method": "rhf"
			}
		],
		"cosmo_sigma_profile": { 
			"-0.025": 0.0,
			"-0.024": 0.0,
			"-0.023": 0.0,
			"-0.022": 0.0,
			"-0.021": 0.0,
			"-0.02": 0.0,
			"-0.019": 0.0684742561997,
			"-0.018": 0.60687310465,
			"-0.017": 0.963972615141,
			"-0.016": 1.16134384921,
			"-0.015": 0.489510276704,
			"-0.014": 0.692484984046,
			"-0.013": 0.724076994472,
			"-0.012": 0.443002761811,
			"-0.011": 1.63266258662,
			"-0.01": 3.3447037616,
			"-0.009": 2.95330997691,
			"-0.008": 3.75817053232,
			"-0.007": 10.0030333334,
			"-0.006": 16.4574260536,
			"-0.005": 16.7555228234,
			"-0.004": 19.1380766625,
			"-0.003": 15.5389570173,
			"-0.002": 14.2227467342,
			"-0.001": 18.6013717311,
			"0.0": 20.9597015518,
			"0.001": 23.8357865757,
			"0.002": 18.3144473453,
			"0.003": 8.35168487876,
			"0.004": 7.85218446616,
			"0.005": 8.63813515112,
			"0.006": 7.07596997688,
			"0.007": 10.1740971178,
			"0.008": 11.1087486911,
			"0.009": 7.08191939285,
			"0.01": 5.73817459884,
			"0.011": 4.07510018322,
			"0.012": 5.6204020282,
			"0.013": 1.07547261952,
			"0.014": 0.0492165315818,
			"0.015": 0.0,
			"0.016": 0.0,
			"0.017": 0.0,
			"0.018": 0.0,
			"0.019": 0.0,
			"0.02": 0.0,
			"0.021": 0.0,
			"0.022": 0.0,
			"0.023": 0.0,
			"0.024": 0.0,
			"0.025": 0.0
		}
	}
}
