{
	 "smiles": "CCCCNC(=O)CC(N)=NO", 
	 "Tm": 370.15, 
	 "num_atms": 27, 
	 "gaussian": { 
		 "optdone": 1, 
		 "sigma_profile": "yes", 
		 "theory": "DFT", 
		 "functional": "B3LYP", 
		 "basiset": "6-31G**", 
		 "properties": { 
			 "R2extent": 4399.727, 
			 "electric_dipole_moment_norm": 3.37007849167, 
			 "electric_quadrupole_moment_norm": 6.39520272861, 
			 "total_energy": -590.470579865, 
			 "HOMO_LUMO_gap": 0.21724, 
			 "cosmo_polarized_energy": -16.0, 
			 "cosmo_cavitation_energy": 30.26, 
			 "cosmo_dispersion_energy": -21.99, 
			 "cosmo_repulsion_energy": 1.83, 
			 "cosmo_total_nonelectrostatic_energy": 10.11, 
			 "SMD_solvation_energy": 4.75 
		},
		"coords": [
			{
				"x": -3.8673668871,
				"y": 0.9170868834,
				"z": 1.252692952,
				"element": "C" 
			},
			{
				"x": -3.3622256005,
				"y": 0.5718881735,
				"z": -0.1541392284,
				"element": "C" 
			},
			{
				"x": -2.2077784723,
				"y": -0.4428020738,
				"z": -0.187941583,
				"element": "C" 
			},
			{
				"x": -0.8994117789,
				"y": 0.0907657102,
				"z": 0.4142481741,
				"element": "C" 
			},
			{
				"x": 0.1961152937,
				"y": -0.870858663,
				"z": 0.3418466572,
				"element": "N" 
			},
			{
				"x": 1.1060117004,
				"y": -0.8693048148,
				"z": -0.6678937055,
				"element": "C" 
			},
			{
				"x": 1.0989007176,
				"y": -0.0299840441,
				"z": -1.5700986696,
				"element": "O" 
			},
			{
				"x": 2.145627108,
				"y": -1.9917602221,
				"z": -0.6264323527,
				"element": "C" 
			},
			{
				"x": 3.5594583097,
				"y": -1.4711776161,
				"z": -0.7303661334,
				"element": "C" 
			},
			{
				"x": 3.8751374526,
				"y": -0.7236072149,
				"z": -1.834991881,
				"element": "N" 
			},
			{
				"x": 4.3716586835,
				"y": -1.8308725692,
				"z": 0.2069916258,
				"element": "N" 
			},
			{
				"x": 5.6613868278,
				"y": -1.2677987643,
				"z": -0.0545527648,
				"element": "O" 
			},
			{
				"x": -3.0988008598,
				"y": 1.4076131381,
				"z": 1.8593271709,
				"element": "H" 
			},
			{
				"x": -4.7244582101,
				"y": 1.5964481283,
				"z": 1.2053764187,
				"element": "H" 
			},
			{
				"x": -4.1882890963,
				"y": 0.016274729,
				"z": 1.7889322316,
				"element": "H" 
			},
			{
				"x": -4.1949025459,
				"y": 0.166334109,
				"z": -0.7415830312,
				"element": "H" 
			},
			{
				"x": -3.049459417,
				"y": 1.4902805746,
				"z": -0.6689146284,
				"element": "H" 
			},
			{
				"x": -2.5067053136,
				"y": -1.3584327005,
				"z": 0.3418350694,
				"element": "H" 
			},
			{
				"x": -2.0053215001,
				"y": -0.7316099128,
				"z": -1.2257576707,
				"element": "H" 
			},
			{
				"x": -1.0339167383,
				"y": 0.3717765114,
				"z": 1.4638827503,
				"element": "H" 
			},
			{
				"x": -0.5725269358,
				"y": 0.9787883706,
				"z": -0.1329217623,
				"element": "H" 
			},
			{
				"x": 0.2455470803,
				"y": -1.6026940741,
				"z": 1.0343112828,
				"element": "H" 
			},
			{
				"x": 2.0742839996,
				"y": -2.5977108338,
				"z": 0.2791136808,
				"element": "H" 
			},
			{
				"x": 1.9415405936,
				"y": -2.6375368534,
				"z": -1.4905216856,
				"element": "H" 
			},
			{
				"x": 4.7554583783,
				"y": -0.2320108339,
				"z": -1.764734953,
				"element": "H" 
			},
			{
				"x": 3.0911660384,
				"y": -0.2025707929,
				"z": -2.2145140986,
				"element": "H" 
			},
			{
				"x": 6.1642711724,
				"y": -1.5687243442,
				"z": 0.7112061344,
				"element": "H" 
			}
		],
		 "valence_orbital": [ 
			{
				"type": "occ",
				"energy": -0.29999,
				"method": "rhf"
			},
			{
				"type": "occ",
				"energy": -0.26385,
				"method": "rhf"
			},
			{
				"type": "occ",
				"energy": -0.26182,
				"method": "rhf"
			},
			{
				"type": "occ",
				"energy": -0.2588,
				"method": "rhf"
			},
			{
				"type": "occ",
				"energy": -0.20076,
				"method": "rhf"
			},
			{
				"type": "unocc",
				"energy": 0.01648,
				"method": "rhf"
			},
			{
				"type": "unocc",
				"energy": 0.05367,
				"method": "rhf"
			},
			{
				"type": "unocc",
				"energy": 0.06685,
				"method": "rhf"
			},
			{
				"type": "unocc",
				"energy": 0.08454,
				"method": "rhf"
			},
			{
				"type": "unocc",
				"energy": 0.08705,
				"method": "rhf"
			}
		],
		"cosmo_sigma_profile": { 
			"-0.025": 0.0,
			"-0.024": 0.0,
			"-0.023": 0.0,
			"-0.022": 0.0,
			"-0.021": 0.0,
			"-0.02": 0.0,
			"-0.019": 0.0,
			"-0.018": 0.0,
			"-0.017": 0.0687459704936,
			"-0.016": 0.739703805323,
			"-0.015": 1.61990585568,
			"-0.014": 2.00937505746,
			"-0.013": 1.96932567013,
			"-0.012": 3.02526622111,
			"-0.011": 2.56793447829,
			"-0.01": 2.34111595329,
			"-0.009": 3.50565027421,
			"-0.008": 3.51162452705,
			"-0.007": 5.67076212182,
			"-0.006": 5.93966745898,
			"-0.005": 7.89249903376,
			"-0.004": 9.65169518659,
			"-0.003": 17.9200703224,
			"-0.002": 23.631288863,
			"-0.001": 26.4734001535,
			"0.0": 25.9770549136,
			"0.001": 21.9145052092,
			"0.002": 9.95356001115,
			"0.003": 6.93763417421,
			"0.004": 4.83851754618,
			"0.005": 3.41793497915,
			"0.006": 4.69661521037,
			"0.007": 6.92285705846,
			"0.008": 6.32028258532,
			"0.009": 5.28021857752,
			"0.01": 4.90190173037,
			"0.011": 4.9408460031,
			"0.012": 3.34115791781,
			"0.013": 4.47452264189,
			"0.014": 1.93484286194,
			"0.015": 0.753241957284,
			"0.016": 0.106139500416,
			"0.017": 0.0,
			"0.018": 0.0,
			"0.019": 0.0,
			"0.02": 0.0,
			"0.021": 0.0,
			"0.022": 0.0,
			"0.023": 0.0,
			"0.024": 0.0,
			"0.025": 0.0
		}
	}
}
