{
	 "smiles": "CN(C)S(=O)(=O)N(SC(F)(Cl)Cl)C1=CC=CC=C1", 
	 "Tm": 379.15, 
	 "num_atms": 29, 
	 "gaussian": { 
		 "optdone": 1, 
		 "sigma_profile": "yes", 
		 "theory": "DFT", 
		 "functional": "B3LYP", 
		 "basiset": "6-31G**", 
		 "properties": { 
			 "R2extent": 7801.1007, 
			 "electric_dipole_moment_norm": 5.31134941046, 
			 "electric_quadrupole_moment_norm": 14.2428165132, 
			 "total_energy": -2426.00513137, 
			 "HOMO_LUMO_gap": 0.20469, 
			 "cosmo_polarized_energy": -12.75, 
			 "cosmo_cavitation_energy": 39.07, 
			 "cosmo_dispersion_energy": -26.32, 
			 "cosmo_repulsion_energy": 1.95, 
			 "cosmo_total_nonelectrostatic_energy": 14.7, 
			 "SMD_solvation_energy": 5.37 
		},
		"coords": [
			{
				"x": -0.0774271791,
				"y": 3.3113688947,
				"z": 0.7081542915,
				"element": "C" 
			},
			{
				"x": -0.172027052,
				"y": 2.102874105,
				"z": -0.1170308495,
				"element": "N" 
			},
			{
				"x": -1.0146103537,
				"y": 2.2355506073,
				"z": -1.3142218642,
				"element": "C" 
			},
			{
				"x": 1.2859869332,
				"y": 1.2893345579,
				"z": -0.3313972763,
				"element": "S" 
			},
			{
				"x": 1.0663623033,
				"y": 0.3022054951,
				"z": -1.3838998244,
				"element": "O" 
			},
			{
				"x": 2.4231830582,
				"y": 2.2016597807,
				"z": -0.3706922313,
				"element": "O" 
			},
			{
				"x": 1.3892649802,
				"y": 0.4674461694,
				"z": 1.1998824353,
				"element": "N" 
			},
			{
				"x": 2.6790303848,
				"y": 0.7685778551,
				"z": 2.2472620861,
				"element": "S" 
			},
			{
				"x": 3.9336768962,
				"y": -0.5575654712,
				"z": 1.8946188835,
				"element": "C" 
			},
			{
				"x": 4.9729818195,
				"y": -0.1780641002,
				"z": 2.6733843678,
				"element": "F" 
			},
			{
				"x": 4.4682965688,
				"y": -0.6232641452,
				"z": 0.1932169228,
				"element": "Cl" 
			},
			{
				"x": 3.4192876156,
				"y": -2.1986415903,
				"z": 2.429640675,
				"element": "Cl" 
			},
			{
				"x": 0.3084509769,
				"y": -0.4211478537,
				"z": 1.5685532179,
				"element": "C" 
			},
			{
				"x": -0.5093965334,
				"y": -0.0962868256,
				"z": 2.655422226,
				"element": "C" 
			},
			{
				"x": -1.5399869321,
				"y": -0.9569062845,
				"z": 3.0273596753,
				"element": "C" 
			},
			{
				"x": -1.768269787,
				"y": -2.1306664576,
				"z": 2.3043965378,
				"element": "C" 
			},
			{
				"x": -0.9553217386,
				"y": -2.4450617818,
				"z": 1.214749129,
				"element": "C" 
			},
			{
				"x": 0.0917831122,
				"y": -1.5984562964,
				"z": 0.8470111875,
				"element": "C" 
			},
			{
				"x": 0.4085127109,
				"y": 4.1441518323,
				"z": 0.1839841049,
				"element": "H" 
			},
			{
				"x": 0.4829424143,
				"y": 3.0982739132,
				"z": 1.6204199573,
				"element": "H" 
			},
			{
				"x": -1.0923035406,
				"y": 3.6031382982,
				"z": 0.9912812083,
				"element": "H" 
			},
			{
				"x": -1.0487539517,
				"y": 1.2841741334,
				"z": -1.8417607781,
				"element": "H" 
			},
			{
				"x": -0.6578694105,
				"y": 3.0186082215,
				"z": -1.9977507869,
				"element": "H" 
			},
			{
				"x": -2.0231080666,
				"y": 2.4927931011,
				"z": -0.978420778,
				"element": "H" 
			},
			{
				"x": -0.3268467263,
				"y": 0.8199470814,
				"z": 3.2080314559,
				"element": "H" 
			},
			{
				"x": -2.1689391302,
				"y": -0.7072130331,
				"z": 3.8766756116,
				"element": "H" 
			},
			{
				"x": -2.5753930942,
				"y": -2.7978113186,
				"z": 2.5921802898,
				"element": "H" 
			},
			{
				"x": -1.1253689594,
				"y": -3.3586226763,
				"z": 0.6529519448,
				"element": "H" 
			},
			{
				"x": 0.7324626813,
				"y": -1.8347962119,
				"z": 0.0061981807,
				"element": "H" 
			}
		],
		 "valence_orbital": [ 
			{
				"type": "occ",
				"energy": -0.29434,
				"method": "rhf"
			},
			{
				"type": "occ",
				"energy": -0.27339,
				"method": "rhf"
			},
			{
				"type": "occ",
				"energy": -0.2643,
				"method": "rhf"
			},
			{
				"type": "occ",
				"energy": -0.25882,
				"method": "rhf"
			},
			{
				"type": "occ",
				"energy": -0.24881,
				"method": "rhf"
			},
			{
				"type": "unocc",
				"energy": -0.04412,
				"method": "rhf"
			},
			{
				"type": "unocc",
				"energy": -0.02623,
				"method": "rhf"
			},
			{
				"type": "unocc",
				"energy": -0.01568,
				"method": "rhf"
			},
			{
				"type": "unocc",
				"energy": -0.00793,
				"method": "rhf"
			},
			{
				"type": "unocc",
				"energy": 0.02029,
				"method": "rhf"
			}
		],
		"cosmo_sigma_profile": { 
			"-0.025": 0.0,
			"-0.024": 0.0,
			"-0.023": 0.0,
			"-0.022": 0.0,
			"-0.021": 0.0,
			"-0.02": 0.0,
			"-0.019": 0.0,
			"-0.018": 0.0,
			"-0.017": 0.0,
			"-0.016": 0.0,
			"-0.015": 0.0,
			"-0.014": 0.0,
			"-0.013": 0.0,
			"-0.012": 0.0,
			"-0.011": 0.0,
			"-0.01": 0.0,
			"-0.009": 0.0,
			"-0.008": 0.116116637313,
			"-0.007": 6.78793223894,
			"-0.006": 18.5779230446,
			"-0.005": 25.6894014398,
			"-0.004": 26.0421309231,
			"-0.003": 29.1418505326,
			"-0.002": 25.2544094547,
			"-0.001": 18.1284013403,
			"0.0": 20.8131022017,
			"0.001": 27.1923788001,
			"0.002": 32.9114167565,
			"0.003": 28.5651924443,
			"0.004": 18.3945639107,
			"0.005": 7.90232596713,
			"0.006": 6.01628599549,
			"0.007": 5.06068860578,
			"0.008": 4.65407791774,
			"0.009": 6.61316986755,
			"0.01": 8.45693367409,
			"0.011": 0.908629637624,
			"0.012": 0.0,
			"0.013": 0.0,
			"0.014": 0.0,
			"0.015": 0.0,
			"0.016": 0.0,
			"0.017": 0.0,
			"0.018": 0.0,
			"0.019": 0.0,
			"0.02": 0.0,
			"0.021": 0.0,
			"0.022": 0.0,
			"0.023": 0.0,
			"0.024": 0.0,
			"0.025": 0.0
		}
	}
}
