{
	 "smiles": "COC1=C(OC)C=C(C=C1)C(N)C(O)=O", 
	 "Tm": 492.15, 
	 "num_atms": 28, 
	 "gaussian": { 
		 "optdone": 1, 
		 "sigma_profile": "yes", 
		 "theory": "DFT", 
		 "functional": "B3LYP", 
		 "basiset": "6-31G**", 
		 "properties": { 
			 "R2extent": 4285.0884, 
			 "electric_dipole_moment_norm": 3.10031664996, 
			 "electric_quadrupole_moment_norm": 8.41165675179, 
			 "total_energy": -744.522844808, 
			 "HOMO_LUMO_gap": 0.19872, 
			 "cosmo_polarized_energy": -15.79, 
			 "cosmo_cavitation_energy": 32.16, 
			 "cosmo_dispersion_energy": -22.54, 
			 "cosmo_repulsion_energy": 1.81, 
			 "cosmo_total_nonelectrostatic_energy": 11.43, 
			 "SMD_solvation_energy": 6.95 
		},
		"coords": [
			{
				"x": 2.6322518487,
				"y": -3.8860177006,
				"z": 0.9036677031,
				"element": "C" 
			},
			{
				"x": 1.2031336482,
				"y": -3.8686064866,
				"z": 0.9444574731,
				"element": "O" 
			},
			{
				"x": 0.6140514629,
				"y": -2.6294931624,
				"z": 0.9738060543,
				"element": "C" 
			},
			{
				"x": 0.6649229699,
				"y": -1.7532673076,
				"z": -0.1346833737,
				"element": "C" 
			},
			{
				"x": 1.3721896302,
				"y": -2.1934706199,
				"z": -1.2170158039,
				"element": "O" 
			},
			{
				"x": 1.4259444132,
				"y": -1.363395977,
				"z": -2.3670247791,
				"element": "C" 
			},
			{
				"x": -0.0055239465,
				"y": -0.5286183008,
				"z": -0.0717845229,
				"element": "C" 
			},
			{
				"x": -0.73982545,
				"y": -0.1670324264,
				"z": 1.0659745219,
				"element": "C" 
			},
			{
				"x": -0.7942115544,
				"y": -1.0415088443,
				"z": 2.1531613847,
				"element": "C" 
			},
			{
				"x": -0.1157383697,
				"y": -2.2601398315,
				"z": 2.1008870801,
				"element": "C" 
			},
			{
				"x": -1.4760508246,
				"y": 1.177899757,
				"z": 1.1051446291,
				"element": "C" 
			},
			{
				"x": -2.8782523596,
				"y": 1.1318963808,
				"z": 1.5060602003,
				"element": "N" 
			},
			{
				"x": -0.7426405655,
				"y": 2.0916222139,
				"z": 2.0832551437,
				"element": "C" 
			},
			{
				"x": 0.3451179968,
				"y": 2.6644882314,
				"z": 1.5273848083,
				"element": "O" 
			},
			{
				"x": -1.0638235269,
				"y": 2.2635457139,
				"z": 3.2396285998,
				"element": "O" 
			},
			{
				"x": 3.0545401085,
				"y": -3.3671027555,
				"z": 1.7742026033,
				"element": "H" 
			},
			{
				"x": 2.922905084,
				"y": -4.9380424496,
				"z": 0.9381947791,
				"element": "H" 
			},
			{
				"x": 3.0149109339,
				"y": -3.4307074073,
				"z": -0.0141068018,
				"element": "H" 
			},
			{
				"x": 1.9085265285,
				"y": -0.4013925081,
				"z": -2.1516850218,
				"element": "H" 
			},
			{
				"x": 2.0206798209,
				"y": -1.907419831,
				"z": -3.1022655037,
				"element": "H" 
			},
			{
				"x": 0.4252833562,
				"y": -1.1787543183,
				"z": -2.7777831942,
				"element": "H" 
			},
			{
				"x": 0.0265096401,
				"y": 0.1540438501,
				"z": -0.9136322525,
				"element": "H" 
			},
			{
				"x": -1.3556161904,
				"y": -0.7701140891,
				"z": 3.0419116981,
				"element": "H" 
			},
			{
				"x": -0.1444607084,
				"y": -2.9559198004,
				"z": 2.9335412749,
				"element": "H" 
			},
			{
				"x": -1.3917288629,
				"y": 1.6340648019,
				"z": 0.1112515551,
				"element": "H" 
			},
			{
				"x": -2.9339186227,
				"y": 1.1500470803,
				"z": 2.521440969,
				"element": "H" 
			},
			{
				"x": -3.3061081299,
				"y": 0.2707189404,
				"z": 1.1802899066,
				"element": "H" 
			},
			{
				"x": 0.7747316694,
				"y": 3.1763768468,
				"z": 2.2335208692,
				"element": "H" 
			}
		],
		 "valence_orbital": [ 
			{
				"type": "occ",
				"energy": -0.28504,
				"method": "rhf"
			},
			{
				"type": "occ",
				"energy": -0.27396,
				"method": "rhf"
			},
			{
				"type": "occ",
				"energy": -0.24563,
				"method": "rhf"
			},
			{
				"type": "occ",
				"energy": -0.23955,
				"method": "rhf"
			},
			{
				"type": "occ",
				"energy": -0.21288,
				"method": "rhf"
			},
			{
				"type": "unocc",
				"energy": -0.01416,
				"method": "rhf"
			},
			{
				"type": "unocc",
				"energy": 0.00482,
				"method": "rhf"
			},
			{
				"type": "unocc",
				"energy": 0.02261,
				"method": "rhf"
			},
			{
				"type": "unocc",
				"energy": 0.07562,
				"method": "rhf"
			},
			{
				"type": "unocc",
				"energy": 0.08508,
				"method": "rhf"
			}
		],
		"cosmo_sigma_profile": { 
			"-0.025": 0.0,
			"-0.024": 0.0,
			"-0.023": 0.0,
			"-0.022": 0.0,
			"-0.021": 0.0,
			"-0.02": 0.0,
			"-0.019": 0.177174743615,
			"-0.018": 0.855206451183,
			"-0.017": 1.05758845951,
			"-0.016": 0.908910400586,
			"-0.015": 0.821724933121,
			"-0.014": 0.656851648292,
			"-0.013": 0.314165045521,
			"-0.012": 0.776146024402,
			"-0.011": 1.32594686219,
			"-0.01": 1.71429946933,
			"-0.009": 1.48212729881,
			"-0.008": 2.95329830746,
			"-0.007": 7.13188559384,
			"-0.006": 14.0983457858,
			"-0.005": 19.7133271264,
			"-0.004": 20.2498855,
			"-0.003": 25.3403106871,
			"-0.002": 19.1440465466,
			"-0.001": 13.80764358,
			"0.0": 12.3448048787,
			"0.001": 12.4676895935,
			"0.002": 13.3039127743,
			"0.003": 14.9027558322,
			"0.004": 14.8205602487,
			"0.005": 10.8500318133,
			"0.006": 6.35694857853,
			"0.007": 5.59204105155,
			"0.008": 5.7687623761,
			"0.009": 4.66136923357,
			"0.01": 5.32442600134,
			"0.011": 7.6408978898,
			"0.012": 3.38850823538,
			"0.013": 0.684631860001,
			"0.014": 0.494498071982,
			"0.015": 0.707893968192,
			"0.016": 0.336714068439,
			"0.017": 0.737356784764,
			"0.018": 0.487343263727,
			"0.019": 0.130157463963,
			"0.02": 0.0,
			"0.021": 0.0,
			"0.022": 0.0,
			"0.023": 0.0,
			"0.024": 0.0,
			"0.025": 0.0
		}
	}
}
