{
	 "smiles": "NC1=CC=C(C=C1)C(=O)NC1CCCCC1", 
	 "Tm": 449.15, 
	 "num_atms": 34, 
	 "gaussian": { 
		 "optdone": 1, 
		 "sigma_profile": "yes", 
		 "theory": "DFT", 
		 "functional": "B3LYP", 
		 "basiset": "6-31G**", 
		 "properties": { 
			 "R2extent": 5192.393, 
			 "electric_dipole_moment_norm": 5.15634532979, 
			 "electric_quadrupole_moment_norm": 23.3535251003, 
			 "total_energy": -690.986857321, 
			 "HOMO_LUMO_gap": 0.19211, 
			 "cosmo_polarized_energy": -16.8, 
			 "cosmo_cavitation_energy": 35.25, 
			 "cosmo_dispersion_energy": -25.29, 
			 "cosmo_repulsion_energy": 1.99, 
			 "cosmo_total_nonelectrostatic_energy": 11.95, 
			 "SMD_solvation_energy": 5.31 
		},
		"coords": [
			{
				"x": -4.8158038382,
				"y": 0.1819360467,
				"z": -3.5283919224,
				"element": "N" 
			},
			{
				"x": -3.5148264986,
				"y": 0.183130331,
				"z": -3.0393917208,
				"element": "C" 
			},
			{
				"x": -2.4908348306,
				"y": -0.5075015304,
				"z": -3.7164635114,
				"element": "C" 
			},
			{
				"x": -1.1829250088,
				"y": -0.4545574848,
				"z": -3.2579001432,
				"element": "C" 
			},
			{
				"x": -0.8455365082,
				"y": 0.2575589532,
				"z": -2.0961114544,
				"element": "C" 
			},
			{
				"x": -1.8647759116,
				"y": 0.9578714694,
				"z": -1.4330515897,
				"element": "C" 
			},
			{
				"x": -3.176572153,
				"y": 0.926397093,
				"z": -1.8941043712,
				"element": "C" 
			},
			{
				"x": 0.5995738756,
				"y": 0.3088331654,
				"z": -1.7119038806,
				"element": "C" 
			},
			{
				"x": 1.4818901362,
				"y": 0.2611773751,
				"z": -2.5677715444,
				"element": "O" 
			},
			{
				"x": 0.9359619011,
				"y": 0.4560715268,
				"z": -0.3791257982,
				"element": "N" 
			},
			{
				"x": 0.2145398315,
				"y": -0.0356333467,
				"z": 0.8009869833,
				"element": "C" 
			},
			{
				"x": 0.9610647226,
				"y": -1.2436856855,
				"z": 1.4191508605,
				"element": "C" 
			},
			{
				"x": 0.5573799511,
				"y": -1.4558918613,
				"z": 2.8840837477,
				"element": "C" 
			},
			{
				"x": 0.9985892592,
				"y": -0.2598576393,
				"z": 3.7639472038,
				"element": "C" 
			},
			{
				"x": 1.0507444113,
				"y": 1.0620696399,
				"z": 2.9621136433,
				"element": "C" 
			},
			{
				"x": -0.0155286785,
				"y": 1.0822944087,
				"z": 1.8586578959,
				"element": "C" 
			},
			{
				"x": -5.0604848313,
				"y": -0.5877717896,
				"z": -4.1346424406,
				"element": "H" 
			},
			{
				"x": -5.5417696205,
				"y": 0.4011952344,
				"z": -2.8615456085,
				"element": "H" 
			},
			{
				"x": -2.7307221313,
				"y": -1.0733568283,
				"z": -4.6134766947,
				"element": "H" 
			},
			{
				"x": -0.3905851471,
				"y": -0.96364355,
				"z": -3.7966945147,
				"element": "H" 
			},
			{
				"x": -1.6304245659,
				"y": 1.562553538,
				"z": -0.5627320444,
				"element": "H" 
			},
			{
				"x": -3.9473759683,
				"y": 1.4920102641,
				"z": -1.3762663738,
				"element": "H" 
			},
			{
				"x": 1.9452525707,
				"y": 0.4934973355,
				"z": -0.2844505467,
				"element": "H" 
			},
			{
				"x": -0.7591752026,
				"y": -0.3814532663,
				"z": 0.4487210554,
				"element": "H" 
			},
			{
				"x": 2.0443255926,
				"y": -1.0639277897,
				"z": 1.3693490347,
				"element": "H" 
			},
			{
				"x": 0.7728703474,
				"y": -2.1380669899,
				"z": 0.8156369528,
				"element": "H" 
			},
			{
				"x": 0.9856564313,
				"y": -2.3884598723,
				"z": 3.2668666674,
				"element": "H" 
			},
			{
				"x": -0.5322657155,
				"y": -1.5795153484,
				"z": 2.936822382,
				"element": "H" 
			},
			{
				"x": 1.9853596039,
				"y": -0.4596920668,
				"z": 4.1979079124,
				"element": "H" 
			},
			{
				"x": 0.3077892965,
				"y": -0.1558541839,
				"z": 4.608914537,
				"element": "H" 
			},
			{
				"x": 2.0414997857,
				"y": 1.1834337576,
				"z": 2.5050609543,
				"element": "H" 
			},
			{
				"x": 0.9242940482,
				"y": 1.9188233319,
				"z": 3.6328374649,
				"element": "H" 
			},
			{
				"x": -0.0342504481,
				"y": 2.0515543112,
				"z": 1.3504716864,
				"element": "H" 
			},
			{
				"x": -1.0035347068,
				"y": 0.9458614512,
				"z": 2.3179951779,
				"element": "H" 
			}
		],
		 "valence_orbital": [ 
			{
				"type": "occ",
				"energy": -0.30142,
				"method": "rhf"
			},
			{
				"type": "occ",
				"energy": -0.25017,
				"method": "rhf"
			},
			{
				"type": "occ",
				"energy": -0.24215,
				"method": "rhf"
			},
			{
				"type": "occ",
				"energy": -0.22736,
				"method": "rhf"
			},
			{
				"type": "occ",
				"energy": -0.20458,
				"method": "rhf"
			},
			{
				"type": "unocc",
				"energy": -0.01247,
				"method": "rhf"
			},
			{
				"type": "unocc",
				"energy": 0.00048,
				"method": "rhf"
			},
			{
				"type": "unocc",
				"energy": 0.06538,
				"method": "rhf"
			},
			{
				"type": "unocc",
				"energy": 0.0753,
				"method": "rhf"
			},
			{
				"type": "unocc",
				"energy": 0.08133,
				"method": "rhf"
			}
		],
		"cosmo_sigma_profile": { 
			"-0.025": 0.0,
			"-0.024": 0.0,
			"-0.023": 0.0,
			"-0.022": 0.0,
			"-0.021": 0.0,
			"-0.02": 0.0,
			"-0.019": 0.0,
			"-0.018": 0.0,
			"-0.017": 0.0,
			"-0.016": 0.0,
			"-0.015": 0.0,
			"-0.014": 0.0,
			"-0.013": 1.24178942522,
			"-0.012": 3.31354675743,
			"-0.011": 3.3318895159,
			"-0.01": 3.62344910247,
			"-0.009": 4.49439339819,
			"-0.008": 4.83395132888,
			"-0.007": 3.56525918711,
			"-0.006": 6.57594140743,
			"-0.005": 7.7977590882,
			"-0.004": 12.2753615198,
			"-0.003": 23.7908530447,
			"-0.002": 31.0875526369,
			"-0.001": 34.161853639,
			"0.0": 31.4725911996,
			"0.001": 26.7371667768,
			"0.002": 10.8644282701,
			"0.003": 8.97184515587,
			"0.004": 9.55829565186,
			"0.005": 14.4507938919,
			"0.006": 7.26124401108,
			"0.007": 2.69186095883,
			"0.008": 2.19448506268,
			"0.009": 2.1300397899,
			"0.01": 2.32461728053,
			"0.011": 2.21057476557,
			"0.012": 1.99201103832,
			"0.013": 3.16799340204,
			"0.014": 5.19137541926,
			"0.015": 3.60389552464,
			"0.016": 0.161623032681,
			"0.017": 0.0,
			"0.018": 0.0,
			"0.019": 0.0,
			"0.02": 0.0,
			"0.021": 0.0,
			"0.022": 0.0,
			"0.023": 0.0,
			"0.024": 0.0,
			"0.025": 0.0
		}
	}
}
