{
	 "smiles": "CC(C)OP(F)(=O)OC(C)C", 
	 "Tm": 191.15, 
	 "num_atms": 25, 
	 "gaussian": { 
		 "optdone": 1, 
		 "sigma_profile": "yes", 
		 "theory": "DFT", 
		 "functional": "B3LYP", 
		 "basiset": "6-31G**", 
		 "properties": { 
			 "R2extent": 2745.4343, 
			 "electric_dipole_moment_norm": 4.24362246907, 
			 "electric_quadrupole_moment_norm": 15.7001060815, 
			 "total_energy": -904.057527311, 
			 "HOMO_LUMO_gap": 0.34471, 
			 "cosmo_polarized_energy": -10.31, 
			 "cosmo_cavitation_energy": 29.38, 
			 "cosmo_dispersion_energy": -20.58, 
			 "cosmo_repulsion_energy": 1.68, 
			 "cosmo_total_nonelectrostatic_energy": 10.48, 
			 "SMD_solvation_energy": 7.04 
		},
		"coords": [
			{
				"x": 0.4666047486,
				"y": -3.2669529324,
				"z": 1.0378168748,
				"element": "C" 
			},
			{
				"x": -0.5323171388,
				"y": -2.3246550194,
				"z": 0.3769248033,
				"element": "C" 
			},
			{
				"x": -0.7576668399,
				"y": -2.6128816414,
				"z": -1.0990723236,
				"element": "C" 
			},
			{
				"x": -0.0218542617,
				"y": -0.9489482566,
				"z": 0.4500105911,
				"element": "O" 
			},
			{
				"x": -0.3316259318,
				"y": -0.0393540286,
				"z": 1.7306311934,
				"element": "P" 
			},
			{
				"x": 0.9002170725,
				"y": -0.3893946585,
				"z": 2.6854453034,
				"element": "F" 
			},
			{
				"x": -1.6358326994,
				"y": -0.2044849371,
				"z": 2.3881107768,
				"element": "O" 
			},
			{
				"x": 0.0159273634,
				"y": 1.4258766713,
				"z": 1.2343354374,
				"element": "O" 
			},
			{
				"x": 1.3089821178,
				"y": 1.7794570622,
				"z": 0.6318793778,
				"element": "C" 
			},
			{
				"x": 0.995036822,
				"y": 2.6279581013,
				"z": -0.5905915047,
				"element": "C" 
			},
			{
				"x": 2.1417930556,
				"y": 2.4969418432,
				"z": 1.6849177329,
				"element": "C" 
			},
			{
				"x": 0.6151079264,
				"y": -3.0121934047,
				"z": 2.0903168418,
				"element": "H" 
			},
			{
				"x": 0.1016196268,
				"y": -4.297606961,
				"z": 0.9842028425,
				"element": "H" 
			},
			{
				"x": 1.4347433141,
				"y": -3.216156822,
				"z": 0.5295183275,
				"element": "H" 
			},
			{
				"x": -1.4857616772,
				"y": -2.3430651691,
				"z": 0.9145524645,
				"element": "H" 
			},
			{
				"x": -1.1624474269,
				"y": -3.6217883538,
				"z": -1.2252846302,
				"element": "H" 
			},
			{
				"x": 0.1841471936,
				"y": -2.5470894723,
				"z": -1.6531216903,
				"element": "H" 
			},
			{
				"x": -1.4653008042,
				"y": -1.8991381659,
				"z": -1.5286073824,
				"element": "H" 
			},
			{
				"x": 1.8058621027,
				"y": 0.8548299489,
				"z": 0.3203311026,
				"element": "H" 
			},
			{
				"x": 1.9224782675,
				"y": 2.9265489032,
				"z": -1.0895214453,
				"element": "H" 
			},
			{
				"x": 0.4512354466,
				"y": 3.5314899235,
				"z": -0.2987158315,
				"element": "H" 
			},
			{
				"x": 0.3817809807,
				"y": 2.0670357406,
				"z": -1.30038962,
				"element": "H" 
			},
			{
				"x": 1.6296155221,
				"y": 3.4027825662,
				"z": 2.0230847656,
				"element": "H" 
			},
			{
				"x": 2.3125061172,
				"y": 1.8493112371,
				"z": 2.5480658567,
				"element": "H" 
			},
			{
				"x": 3.1127491022,
				"y": 2.7821778252,
				"z": 1.266960136,
				"element": "H" 
			}
		],
		 "valence_orbital": [ 
			{
				"type": "occ",
				"energy": -0.33771,
				"method": "rhf"
			},
			{
				"type": "occ",
				"energy": -0.33569,
				"method": "rhf"
			},
			{
				"type": "occ",
				"energy": -0.31008,
				"method": "rhf"
			},
			{
				"type": "occ",
				"energy": -0.30237,
				"method": "rhf"
			},
			{
				"type": "occ",
				"energy": -0.29471,
				"method": "rhf"
			},
			{
				"type": "unocc",
				"energy": 0.05,
				"method": "rhf"
			},
			{
				"type": "unocc",
				"energy": 0.08682,
				"method": "rhf"
			},
			{
				"type": "unocc",
				"energy": 0.08766,
				"method": "rhf"
			},
			{
				"type": "unocc",
				"energy": 0.10204,
				"method": "rhf"
			},
			{
				"type": "unocc",
				"energy": 0.10892,
				"method": "rhf"
			}
		],
		"cosmo_sigma_profile": { 
			"-0.025": 0.0,
			"-0.024": 0.0,
			"-0.023": 0.0,
			"-0.022": 0.0,
			"-0.021": 0.0,
			"-0.02": 0.0,
			"-0.019": 0.0,
			"-0.018": 0.0,
			"-0.017": 0.0,
			"-0.016": 0.0,
			"-0.015": 0.0,
			"-0.014": 0.0,
			"-0.013": 0.0,
			"-0.012": 0.0,
			"-0.011": 0.0,
			"-0.01": 0.0,
			"-0.009": 0.0,
			"-0.008": 0.0,
			"-0.007": 0.0436189801697,
			"-0.006": 1.98323395909,
			"-0.005": 13.4912652473,
			"-0.004": 28.4618870594,
			"-0.003": 28.3574355715,
			"-0.002": 27.2132239035,
			"-0.001": 31.7071756722,
			"0.0": 28.7554648824,
			"0.001": 11.7781854715,
			"0.002": 8.42144118473,
			"0.003": 10.0040739743,
			"0.004": 7.74399045714,
			"0.005": 3.64713957595,
			"0.006": 4.01099279888,
			"0.007": 3.35401870366,
			"0.008": 2.12165239499,
			"0.009": 1.90328849279,
			"0.01": 1.53197124161,
			"0.011": 1.49262368665,
			"0.012": 2.26460875049,
			"0.013": 6.74013926151,
			"0.014": 2.15089919336,
			"0.015": 0.0,
			"0.016": 0.0,
			"0.017": 0.0,
			"0.018": 0.0,
			"0.019": 0.0,
			"0.02": 0.0,
			"0.021": 0.0,
			"0.022": 0.0,
			"0.023": 0.0,
			"0.024": 0.0,
			"0.025": 0.0
		}
	}
}
