{
	 "smiles": "CC(C)(C)C1=CN=C(N)S1", 
	 "Tm": 353.15, 
	 "num_atms": 22, 
	 "gaussian": { 
		 "optdone": 1, 
		 "sigma_profile": "yes", 
		 "theory": "DFT", 
		 "functional": "B3LYP", 
		 "basiset": "6-31G**", 
		 "properties": { 
			 "R2extent": 2614.9127, 
			 "electric_dipole_moment_norm": 1.48080237034, 
			 "electric_quadrupole_moment_norm": 12.0741938253, 
			 "total_energy": -781.674537258, 
			 "HOMO_LUMO_gap": 0.2045, 
			 "cosmo_polarized_energy": -9.47, 
			 "cosmo_cavitation_energy": 25.59, 
			 "cosmo_dispersion_energy": -18.96, 
			 "cosmo_repulsion_energy": 1.49, 
			 "cosmo_total_nonelectrostatic_energy": 8.12, 
			 "SMD_solvation_energy": 2.68 
		},
		"coords": [
			{
				"x": -0.9057919606,
				"y": -0.1850332738,
				"z": 1.3136434229,
				"element": "C" 
			},
			{
				"x": -0.5375394705,
				"y": 0.58293195,
				"z": 0.0222669337,
				"element": "C" 
			},
			{
				"x": -1.6133214581,
				"y": 1.659204496,
				"z": -0.2557697951,
				"element": "C" 
			},
			{
				"x": 0.8225260932,
				"y": 1.2795536502,
				"z": 0.228032841,
				"element": "C" 
			},
			{
				"x": -0.4438645539,
				"y": -0.3777496914,
				"z": -1.148909398,
				"element": "C" 
			},
			{
				"x": 0.6008629921,
				"y": -0.6649060416,
				"z": -1.9762872544,
				"element": "C" 
			},
			{
				"x": 0.3950100174,
				"y": -1.5798256252,
				"z": -2.9916215469,
				"element": "N" 
			},
			{
				"x": -0.8245597809,
				"y": -2.0279059521,
				"z": -2.9568565498,
				"element": "C" 
			},
			{
				"x": -1.3119105613,
				"y": -3.0104809953,
				"z": -3.7952838037,
				"element": "N" 
			},
			{
				"x": -1.8275393357,
				"y": -1.360020221,
				"z": -1.6632662611,
				"element": "S" 
			},
			{
				"x": -0.1600529737,
				"y": -0.9541661348,
				"z": 1.5372710163,
				"element": "H" 
			},
			{
				"x": -1.8790657611,
				"y": -0.6782828576,
				"z": 1.222593409,
				"element": "H" 
			},
			{
				"x": -0.9571943814,
				"y": 0.5026569022,
				"z": 2.1652811596,
				"element": "H" 
			},
			{
				"x": -2.603433261,
				"y": 1.2109322325,
				"z": -0.3880513113,
				"element": "H" 
			},
			{
				"x": -1.3765220355,
				"y": 2.2234414188,
				"z": -1.1632099211,
				"element": "H" 
			},
			{
				"x": -1.6736422761,
				"y": 2.3637061009,
				"z": 0.5813900158,
				"element": "H" 
			},
			{
				"x": 1.614084314,
				"y": 0.5554513646,
				"z": 0.4451058916,
				"element": "H" 
			},
			{
				"x": 1.1155564817,
				"y": 1.8546941691,
				"z": -0.6559442713,
				"element": "H" 
			},
			{
				"x": 0.7594237518,
				"y": 1.9720408248,
				"z": 1.0735807592,
				"element": "H" 
			},
			{
				"x": 1.5808085499,
				"y": -0.2107108396,
				"z": -1.8933345796,
				"element": "H" 
			},
			{
				"x": -0.7048973592,
				"y": -3.1686183757,
				"z": -4.5899635126,
				"element": "H" 
			},
			{
				"x": -2.288837031,
				"y": -2.9434131007,
				"z": -4.0450672444,
				"element": "H" 
			}
		],
		 "valence_orbital": [ 
			{
				"type": "occ",
				"energy": -0.32015,
				"method": "rhf"
			},
			{
				"type": "occ",
				"energy": -0.30604,
				"method": "rhf"
			},
			{
				"type": "occ",
				"energy": -0.26444,
				"method": "rhf"
			},
			{
				"type": "occ",
				"energy": -0.2631,
				"method": "rhf"
			},
			{
				"type": "occ",
				"energy": -0.20186,
				"method": "rhf"
			},
			{
				"type": "unocc",
				"energy": 0.00264,
				"method": "rhf"
			},
			{
				"type": "unocc",
				"energy": 0.01736,
				"method": "rhf"
			},
			{
				"type": "unocc",
				"energy": 0.07025,
				"method": "rhf"
			},
			{
				"type": "unocc",
				"energy": 0.07384,
				"method": "rhf"
			},
			{
				"type": "unocc",
				"energy": 0.09291,
				"method": "rhf"
			}
		],
		"cosmo_sigma_profile": { 
			"-0.025": 0.0,
			"-0.024": 0.0,
			"-0.023": 0.0,
			"-0.022": 0.0,
			"-0.021": 0.0,
			"-0.02": 0.0,
			"-0.019": 0.0,
			"-0.018": 0.0,
			"-0.017": 0.0,
			"-0.016": 0.0,
			"-0.015": 0.10627519597,
			"-0.014": 1.14326497369,
			"-0.013": 2.76341296218,
			"-0.012": 2.29564821399,
			"-0.011": 2.50900594507,
			"-0.01": 2.16343912558,
			"-0.009": 2.44221223498,
			"-0.008": 2.28587811528,
			"-0.007": 1.96523497406,
			"-0.006": 2.38462097559,
			"-0.005": 2.56096009436,
			"-0.004": 5.11159289913,
			"-0.003": 22.607196449,
			"-0.002": 23.4330163728,
			"-0.001": 19.8411329787,
			"0.0": 20.8728021462,
			"0.001": 24.5823517568,
			"0.002": 11.2724116829,
			"0.003": 11.6281582129,
			"0.004": 11.6286190233,
			"0.005": 8.53397323606,
			"0.006": 3.48057782148,
			"0.007": 2.61328236871,
			"0.008": 2.51325601584,
			"0.009": 1.93219072888,
			"0.01": 1.54940382497,
			"0.011": 1.98151717782,
			"0.012": 1.59855882738,
			"0.013": 1.25545267529,
			"0.014": 0.979381540358,
			"0.015": 1.08331019946,
			"0.016": 0.588653052512,
			"0.017": 0.188433337792,
			"0.018": 0.0,
			"0.019": 0.0,
			"0.02": 0.0,
			"0.021": 0.0,
			"0.022": 0.0,
			"0.023": 0.0,
			"0.024": 0.0,
			"0.025": 0.0
		}
	}
}
