{
	 "smiles": "CSC1=CC=C(C=C1)C(C)=O", 
	 "Tm": 354.15, 
	 "num_atms": 21, 
	 "gaussian": { 
		 "optdone": 1, 
		 "sigma_profile": "yes", 
		 "theory": "DFT", 
		 "functional": "B3LYP", 
		 "basiset": "6-31G**", 
		 "properties": { 
			 "R2extent": 3022.6581, 
			 "electric_dipole_moment_norm": 2.43705962381, 
			 "electric_quadrupole_moment_norm": 23.4106922192, 
			 "total_energy": -822.401776696, 
			 "HOMO_LUMO_gap": 0.16677, 
			 "cosmo_polarized_energy": -10.08, 
			 "cosmo_cavitation_energy": 26.28, 
			 "cosmo_dispersion_energy": -19.71, 
			 "cosmo_repulsion_energy": 1.52, 
			 "cosmo_total_nonelectrostatic_energy": 8.09, 
			 "SMD_solvation_energy": 5.2 
		},
		"coords": [
			{
				"x": 0.1667149404,
				"y": 2.0129542484,
				"z": -3.6675813531,
				"element": "C" 
			},
			{
				"x": -0.0790623047,
				"y": 2.3015925721,
				"z": -1.8858804823,
				"element": "S" 
			},
			{
				"x": 0.2868638167,
				"y": 0.7286044963,
				"z": -1.1465804438,
				"element": "C" 
			},
			{
				"x": 0.1784366997,
				"y": 0.6535323457,
				"z": 0.253628048,
				"element": "C" 
			},
			{
				"x": 0.4459869078,
				"y": -0.5370248149,
				"z": 0.9171878419,
				"element": "C" 
			},
			{
				"x": 0.8291912402,
				"y": -1.6875408829,
				"z": 0.2076534623,
				"element": "C" 
			},
			{
				"x": 0.934789635,
				"y": -1.6038125758,
				"z": -1.1880802729,
				"element": "C" 
			},
			{
				"x": 0.6693515308,
				"y": -0.4174321741,
				"z": -1.8625297606,
				"element": "C" 
			},
			{
				"x": 1.1296550081,
				"y": -2.995132497,
				"z": 0.8660469821,
				"element": "C" 
			},
			{
				"x": 1.0192733999,
				"y": -3.0966443452,
				"z": 2.3791359507,
				"element": "C" 
			},
			{
				"x": 1.4590277996,
				"y": -3.9685369466,
				"z": 0.2024299286,
				"element": "O" 
			},
			{
				"x": 1.1986319403,
				"y": 1.7322341787,
				"z": -3.8898592042,
				"element": "H" 
			},
			{
				"x": -0.5230619415,
				"y": 1.2575999441,
				"z": -4.0506286476,
				"element": "H" 
			},
			{
				"x": -0.0515117042,
				"y": 2.9679307718,
				"z": -4.1498275419,
				"element": "H" 
			},
			{
				"x": -0.1165242723,
				"y": 1.5329690711,
				"z": 0.8190671808,
				"element": "H" 
			},
			{
				"x": 0.3537564238,
				"y": -0.5638516119,
				"z": 1.9982843491,
				"element": "H" 
			},
			{
				"x": 1.231007493,
				"y": -2.495324398,
				"z": -1.7312713648,
				"element": "H" 
			},
			{
				"x": 0.7617064278,
				"y": -0.3915775297,
				"z": -2.9420381964,
				"element": "H" 
			},
			{
				"x": 0.0035338936,
				"y": -2.8623676674,
				"z": 2.7167428865,
				"element": "H" 
			},
			{
				"x": 1.2740870992,
				"y": -4.1133612343,
				"z": 2.6792854052,
				"element": "H" 
			},
			{
				"x": 1.6977459666,
				"y": -2.3916109505,
				"z": 2.8722152325,
				"element": "H" 
			}
		],
		 "valence_orbital": [ 
			{
				"type": "occ",
				"energy": -0.32874,
				"method": "rhf"
			},
			{
				"type": "occ",
				"energy": -0.29194,
				"method": "rhf"
			},
			{
				"type": "occ",
				"energy": -0.26332,
				"method": "rhf"
			},
			{
				"type": "occ",
				"energy": -0.24426,
				"method": "rhf"
			},
			{
				"type": "occ",
				"energy": -0.21908,
				"method": "rhf"
			},
			{
				"type": "unocc",
				"energy": -0.05231,
				"method": "rhf"
			},
			{
				"type": "unocc",
				"energy": -0.01168,
				"method": "rhf"
			},
			{
				"type": "unocc",
				"energy": 0.02842,
				"method": "rhf"
			},
			{
				"type": "unocc",
				"energy": 0.03971,
				"method": "rhf"
			},
			{
				"type": "unocc",
				"energy": 0.06734,
				"method": "rhf"
			}
		],
		"cosmo_sigma_profile": { 
			"-0.025": 0.0,
			"-0.024": 0.0,
			"-0.023": 0.0,
			"-0.022": 0.0,
			"-0.021": 0.0,
			"-0.02": 0.0,
			"-0.019": 0.0,
			"-0.018": 0.0,
			"-0.017": 0.0,
			"-0.016": 0.0,
			"-0.015": 0.0,
			"-0.014": 0.0,
			"-0.013": 0.0,
			"-0.012": 0.0,
			"-0.011": 0.0,
			"-0.01": 0.0,
			"-0.009": 0.0,
			"-0.008": 0.222033670763,
			"-0.007": 5.18735119503,
			"-0.006": 19.9751258902,
			"-0.005": 19.9605976132,
			"-0.004": 18.0262312581,
			"-0.003": 16.5561277633,
			"-0.002": 15.9517559081,
			"-0.001": 15.625099365,
			"0.0": 12.4553052263,
			"0.001": 8.49154996676,
			"0.002": 12.2485001849,
			"0.003": 15.8632468671,
			"0.004": 18.37253889,
			"0.005": 5.79314789887,
			"0.006": 4.71163011126,
			"0.007": 4.74292538789,
			"0.008": 3.54246248023,
			"0.009": 1.92297287535,
			"0.01": 1.83977919006,
			"0.011": 2.72297951351,
			"0.012": 4.0060285278,
			"0.013": 2.43034366326,
			"0.014": 0.419076064874,
			"0.015": 0.0,
			"0.016": 0.0,
			"0.017": 0.0,
			"0.018": 0.0,
			"0.019": 0.0,
			"0.02": 0.0,
			"0.021": 0.0,
			"0.022": 0.0,
			"0.023": 0.0,
			"0.024": 0.0,
			"0.025": 0.0
		}
	}
}
