{
	 "smiles": "COC1=C(C=C(Br)C=C1)C(N)=S", 
	 "Tm": 417.15, 
	 "num_atms": 20, 
	 "gaussian": { 
		 "optdone": 1, 
		 "sigma_profile": "yes", 
		 "theory": "DFT", 
		 "functional": "B3LYP", 
		 "basiset": "6-31G**", 
		 "properties": { 
			 "R2extent": 4508.6861, 
			 "electric_dipole_moment_norm": 7.54847147309, 
			 "electric_quadrupole_moment_norm": 13.9163954784, 
			 "total_energy": -3409.2355756, 
			 "HOMO_LUMO_gap": 0.1397, 
			 "cosmo_polarized_energy": -16.21, 
			 "cosmo_cavitation_energy": 27.69, 
			 "cosmo_dispersion_energy": -21.42, 
			 "cosmo_repulsion_energy": 1.66, 
			 "cosmo_total_nonelectrostatic_energy": 7.94, 
			 "SMD_solvation_energy": 3.41 
		},
		"coords": [
			{
				"x": -1.0630762383,
				"y": -2.2516665824,
				"z": -1.7614226927,
				"element": "C" 
			},
			{
				"x": -0.4174419966,
				"y": -1.8420793433,
				"z": -0.5596034857,
				"element": "O" 
			},
			{
				"x": -0.3672497754,
				"y": -0.5100227636,
				"z": -0.2371740057,
				"element": "C" 
			},
			{
				"x": 0.2508922016,
				"y": -0.1331812652,
				"z": 0.9875918724,
				"element": "C" 
			},
			{
				"x": 0.2874715203,
				"y": 1.237174962,
				"z": 1.2938530004,
				"element": "C" 
			},
			{
				"x": -0.2523843811,
				"y": 2.1910444784,
				"z": 0.4444767509,
				"element": "C" 
			},
			{
				"x": -0.1645449385,
				"y": 4.0398002412,
				"z": 0.9152816968,
				"element": "Br" 
			},
			{
				"x": -0.8583608706,
				"y": 1.8138632299,
				"z": -0.7495082966,
				"element": "C" 
			},
			{
				"x": -0.9133458685,
				"y": 0.4634607217,
				"z": -1.0825015455,
				"element": "C" 
			},
			{
				"x": 0.8666798675,
				"y": -1.0772069751,
				"z": 1.9817130671,
				"element": "C" 
			},
			{
				"x": 0.9931117858,
				"y": -2.3639260463,
				"z": 1.6117216009,
				"element": "N" 
			},
			{
				"x": 1.4013711783,
				"y": -0.5891380433,
				"z": 3.4967414641,
				"element": "S" 
			},
			{
				"x": -0.9874966889,
				"y": -3.3393558239,
				"z": -1.7822554878,
				"element": "H" 
			},
			{
				"x": -0.5647823891,
				"y": -1.8361289966,
				"z": -2.6446493303,
				"element": "H" 
			},
			{
				"x": -2.1195908501,
				"y": -1.9614181054,
				"z": -1.7634741305,
				"element": "H" 
			},
			{
				"x": 0.7539321467,
				"y": 1.5238075799,
				"z": 2.2289041501,
				"element": "H" 
			},
			{
				"x": -1.2826725017,
				"y": 2.5574620229,
				"z": -1.4144883064,
				"element": "H" 
			},
			{
				"x": -1.3873555708,
				"y": 0.1776702108,
				"z": -2.0126327721,
				"element": "H" 
			},
			{
				"x": 1.3964103195,
				"y": -3.0008446006,
				"z": 2.2822386381,
				"element": "H" 
			},
			{
				"x": 0.6358330498,
				"y": -2.6934149014,
				"z": 0.7264878125,
				"element": "H" 
			}
		],
		 "valence_orbital": [ 
			{
				"type": "occ",
				"energy": -0.28714,
				"method": "rhf"
			},
			{
				"type": "occ",
				"energy": -0.2755,
				"method": "rhf"
			},
			{
				"type": "occ",
				"energy": -0.2366,
				"method": "rhf"
			},
			{
				"type": "occ",
				"energy": -0.21832,
				"method": "rhf"
			},
			{
				"type": "occ",
				"energy": -0.20467,
				"method": "rhf"
			},
			{
				"type": "unocc",
				"energy": -0.06497,
				"method": "rhf"
			},
			{
				"type": "unocc",
				"energy": -0.0133,
				"method": "rhf"
			},
			{
				"type": "unocc",
				"energy": 0.00628,
				"method": "rhf"
			},
			{
				"type": "unocc",
				"energy": 0.02253,
				"method": "rhf"
			},
			{
				"type": "unocc",
				"energy": 0.07108,
				"method": "rhf"
			}
		],
		"cosmo_sigma_profile": { 
			"-0.025": 0.0,
			"-0.024": 0.0,
			"-0.023": 0.0,
			"-0.022": 0.0,
			"-0.021": 0.0,
			"-0.02": 0.0,
			"-0.019": 0.0,
			"-0.018": 0.0,
			"-0.017": 0.0,
			"-0.016": 0.0,
			"-0.015": 0.174332292312,
			"-0.014": 1.37445346473,
			"-0.013": 0.709420922517,
			"-0.012": 1.42852665149,
			"-0.011": 2.19719814197,
			"-0.01": 2.1706924515,
			"-0.009": 1.22922133743,
			"-0.008": 4.98349159932,
			"-0.007": 10.4897178419,
			"-0.006": 13.9374721843,
			"-0.005": 12.2858913863,
			"-0.004": 13.5460725772,
			"-0.003": 12.007476556,
			"-0.002": 10.2390689596,
			"-0.001": 11.9644578371,
			"0.0": 16.260442505,
			"0.001": 20.8043465731,
			"0.002": 23.7604877641,
			"0.003": 12.9945088263,
			"0.004": 14.7063637632,
			"0.005": 10.0034421699,
			"0.006": 3.92138522897,
			"0.007": 3.68584697172,
			"0.008": 5.1719921901,
			"0.009": 7.05716774719,
			"0.01": 6.24916186583,
			"0.011": 3.16364012422,
			"0.012": 1.23890136226,
			"0.013": 0.0121710513326,
			"0.014": 0.0,
			"0.015": 0.0,
			"0.016": 0.0,
			"0.017": 0.0,
			"0.018": 0.0,
			"0.019": 0.0,
			"0.02": 0.0,
			"0.021": 0.0,
			"0.022": 0.0,
			"0.023": 0.0,
			"0.024": 0.0,
			"0.025": 0.0
		}
	}
}
