{
	 "smiles": "CC(Cl)C(C)Cl", 
	 "Tm": 193.15, 
	 "num_atms": 14, 
	 "gaussian": { 
		 "optdone": 1, 
		 "sigma_profile": "yes", 
		 "theory": "DFT", 
		 "functional": "B3LYP", 
		 "basiset": "6-31G**", 
		 "properties": { 
			 "R2extent": 1334.3208, 
			 "electric_dipole_moment_norm": 3.2677018285, 
			 "electric_quadrupole_moment_norm": 5.9423913789, 
			 "total_energy": -1077.65070713, 
			 "HOMO_LUMO_gap": 0.30087, 
			 "cosmo_polarized_energy": -7.06, 
			 "cosmo_cavitation_energy": 19.6, 
			 "cosmo_dispersion_energy": -14.6, 
			 "cosmo_repulsion_energy": 1.25, 
			 "cosmo_total_nonelectrostatic_energy": 6.25, 
			 "SMD_solvation_energy": 2.87 
		},
		"coords": [
			{
				"x": 0.5627981806,
				"y": 0.7070778578,
				"z": -1.1105819407,
				"element": "C" 
			},
			{
				"x": -0.4548849983,
				"y": 0.9725726741,
				"z": -0.0030638114,
				"element": "C" 
			},
			{
				"x": -2.1158173594,
				"y": 1.159697297,
				"z": -0.7433410324,
				"element": "Cl" 
			},
			{
				"x": -0.4357251895,
				"y": -0.1061541668,
				"z": 1.0886263655,
				"element": "C" 
			},
			{
				"x": -0.9227688845,
				"y": -1.489630872,
				"z": 0.6807142519,
				"element": "C" 
			},
			{
				"x": -1.372922367,
				"y": 0.4663098089,
				"z": 2.5522870077,
				"element": "Cl" 
			},
			{
				"x": 1.5677887127,
				"y": 0.6244225909,
				"z": -0.6810047246,
				"element": "H" 
			},
			{
				"x": 0.5634758532,
				"y": 1.5324556279,
				"z": -1.8256442799,
				"element": "H" 
			},
			{
				"x": 0.3379508457,
				"y": -0.2135271814,
				"z": -1.6542981269,
				"element": "H" 
			},
			{
				"x": -0.2560835029,
				"y": 1.9384820366,
				"z": 0.4638822842,
				"element": "H" 
			},
			{
				"x": 0.597972474,
				"y": -0.1602838734,
				"z": 1.4439676165,
				"element": "H" 
			},
			{
				"x": -0.8198804774,
				"y": -2.1859960471,
				"z": 1.5155275647,
				"element": "H" 
			},
			{
				"x": -0.3244034644,
				"y": -1.8676435704,
				"z": -0.1549420178,
				"element": "H" 
			},
			{
				"x": -1.9698998228,
				"y": -1.458982182,
				"z": 0.3742708433,
				"element": "H" 
			}
		],
		 "valence_orbital": [ 
			{
				"type": "occ",
				"energy": -0.36665,
				"method": "rhf"
			},
			{
				"type": "occ",
				"energy": -0.30415,
				"method": "rhf"
			},
			{
				"type": "occ",
				"energy": -0.30134,
				"method": "rhf"
			},
			{
				"type": "occ",
				"energy": -0.29575,
				"method": "rhf"
			},
			{
				"type": "occ",
				"energy": -0.29219,
				"method": "rhf"
			},
			{
				"type": "unocc",
				"energy": 0.00868,
				"method": "rhf"
			},
			{
				"type": "unocc",
				"energy": 0.02656,
				"method": "rhf"
			},
			{
				"type": "unocc",
				"energy": 0.07399,
				"method": "rhf"
			},
			{
				"type": "unocc",
				"energy": 0.11328,
				"method": "rhf"
			},
			{
				"type": "unocc",
				"energy": 0.13111,
				"method": "rhf"
			}
		],
		"cosmo_sigma_profile": { 
			"-0.025": 0.0,
			"-0.024": 0.0,
			"-0.023": 0.0,
			"-0.022": 0.0,
			"-0.021": 0.0,
			"-0.02": 0.0,
			"-0.019": 0.0,
			"-0.018": 0.0,
			"-0.017": 0.0,
			"-0.016": 0.0,
			"-0.015": 0.0,
			"-0.014": 0.0,
			"-0.013": 0.0,
			"-0.012": 0.0,
			"-0.011": 0.0,
			"-0.01": 0.0,
			"-0.009": 0.19883635296,
			"-0.008": 3.58941099942,
			"-0.007": 5.7900657117,
			"-0.006": 7.56602059726,
			"-0.005": 11.5223529559,
			"-0.004": 12.2898670075,
			"-0.003": 12.7126943357,
			"-0.002": 11.696425458,
			"-0.001": 14.0029046313,
			"0.0": 11.0380848247,
			"0.001": 6.7583460714,
			"0.002": 7.06114851907,
			"0.003": 8.74523185886,
			"0.004": 8.18329077985,
			"0.005": 10.983638899,
			"0.006": 15.3868779511,
			"0.007": 8.21740886108,
			"0.008": 1.68292656236,
			"0.009": 0.0,
			"0.01": 0.0,
			"0.011": 0.0,
			"0.012": 0.0,
			"0.013": 0.0,
			"0.014": 0.0,
			"0.015": 0.0,
			"0.016": 0.0,
			"0.017": 0.0,
			"0.018": 0.0,
			"0.019": 0.0,
			"0.02": 0.0,
			"0.021": 0.0,
			"0.022": 0.0,
			"0.023": 0.0,
			"0.024": 0.0,
			"0.025": 0.0
		}
	}
}
