{
	 "smiles": "OC(=O)C1=CC2=C(C=C1)C(=O)N(C1CCS(=O)(=O)C1)C2=O", 
	 "Tm": 513.15, 
	 "num_atms": 32, 
	 "gaussian": { 
		 "optdone": 1, 
		 "sigma_profile": "yes", 
		 "theory": "DFT", 
		 "functional": "B3LYP", 
		 "basiset": "6-31G**", 
		 "properties": { 
			 "R2extent": 9987.1922, 
			 "electric_dipole_moment_norm": 5.51922600824, 
			 "electric_quadrupole_moment_norm": 44.4842029668, 
			 "total_energy": -1406.26771781, 
			 "HOMO_LUMO_gap": 0.16538, 
			 "cosmo_polarized_energy": -32.09, 
			 "cosmo_cavitation_energy": 38.33, 
			 "cosmo_dispersion_energy": -27.89, 
			 "cosmo_repulsion_energy": 2.04, 
			 "cosmo_total_nonelectrostatic_energy": 12.48, 
			 "SMD_solvation_energy": 7.57 
		},
		"coords": [
			{
				"x": -5.9911798862,
				"y": 1.8584033822,
				"z": -2.7946472013,
				"element": "O" 
			},
			{
				"x": -5.255534068,
				"y": 0.7276678539,
				"z": -2.6488474634,
				"element": "C" 
			},
			{
				"x": -5.60899756,
				"y": -0.3035442288,
				"z": -3.1663798437,
				"element": "O" 
			},
			{
				"x": -3.9982441166,
				"y": 0.8321059811,
				"z": -1.8278044601,
				"element": "C" 
			},
			{
				"x": -3.4938821232,
				"y": -0.3594829625,
				"z": -1.2757594116,
				"element": "C" 
			},
			{
				"x": -2.3311375284,
				"y": -0.2776146589,
				"z": -0.5300801728,
				"element": "C" 
			},
			{
				"x": -1.6611010658,
				"y": 0.9344095064,
				"z": -0.3466146886,
				"element": "C" 
			},
			{
				"x": -2.1292471603,
				"y": 2.1138474703,
				"z": -0.9040957741,
				"element": "C" 
			},
			{
				"x": -3.3133546024,
				"y": 2.0467119197,
				"z": -1.6483669148,
				"element": "C" 
			},
			{
				"x": -0.4476145338,
				"y": 0.6837767248,
				"z": 0.4879557829,
				"element": "C" 
			},
			{
				"x": 0.3903758222,
				"y": 1.4808756143,
				"z": 0.8636598032,
				"element": "O" 
			},
			{
				"x": -0.4586108246,
				"y": -0.6923416264,
				"z": 0.7684818862,
				"element": "N" 
			},
			{
				"x": 0.5365012502,
				"y": -1.4065797457,
				"z": 1.5592058419,
				"element": "C" 
			},
			{
				"x": 1.9573274468,
				"y": -1.3588450467,
				"z": 0.9478881773,
				"element": "C" 
			},
			{
				"x": 2.8973496079,
				"y": -2.0251520897,
				"z": 1.9593951422,
				"element": "C" 
			},
			{
				"x": 2.2159980182,
				"y": -1.6185282524,
				"z": 3.6234371009,
				"element": "S" 
			},
			{
				"x": 1.8983602485,
				"y": -2.8724166029,
				"z": 4.324162578,
				"element": "O" 
			},
			{
				"x": 3.033752785,
				"y": -0.580116369,
				"z": 4.2662596128,
				"element": "O" 
			},
			{
				"x": 0.6582353897,
				"y": -0.8772587224,
				"z": 2.9979010297,
				"element": "C" 
			},
			{
				"x": -1.5695577256,
				"y": -1.3446233568,
				"z": 0.1841901227,
				"element": "C" 
			},
			{
				"x": -1.8083846586,
				"y": -2.5292477414,
				"z": 0.2739322178,
				"element": "O" 
			},
			{
				"x": -5.6877500093,
				"y": 2.5469126119,
				"z": -2.186917608,
				"element": "H" 
			},
			{
				"x": -4.0129177037,
				"y": -1.2969872539,
				"z": -1.4414137634,
				"element": "H" 
			},
			{
				"x": -1.592961314,
				"y": 3.047594843,
				"z": -0.7720159856,
				"element": "H" 
			},
			{
				"x": -3.6800603082,
				"y": 2.9524680227,
				"z": -2.1241893647,
				"element": "H" 
			},
			{
				"x": 0.1843668392,
				"y": -2.4426068844,
				"z": 1.5822321417,
				"element": "H" 
			},
			{
				"x": 1.9843183114,
				"y": -1.8728884194,
				"z": -0.0169454644,
				"element": "H" 
			},
			{
				"x": 2.2424870718,
				"y": -0.3152900868,
				"z": 0.7907357302,
				"element": "H" 
			},
			{
				"x": 3.9231323048,
				"y": -1.6558353335,
				"z": 1.9248254581,
				"element": "H" 
			},
			{
				"x": 2.8886545597,
				"y": -3.1152525069,
				"z": 1.8916538734,
				"element": "H" 
			},
			{
				"x": -0.1494004607,
				"y": -1.1931562788,
				"z": 3.6593487666,
				"element": "H" 
			},
			{
				"x": 0.7828759941,
				"y": 0.2065942371,
				"z": 3.0150128512,
				"element": "H" 
			}
		],
		 "valence_orbital": [ 
			{
				"type": "occ",
				"energy": -0.30358,
				"method": "rhf"
			},
			{
				"type": "occ",
				"energy": -0.29755,
				"method": "rhf"
			},
			{
				"type": "occ",
				"energy": -0.29654,
				"method": "rhf"
			},
			{
				"type": "occ",
				"energy": -0.29377,
				"method": "rhf"
			},
			{
				"type": "occ",
				"energy": -0.28188,
				"method": "rhf"
			},
			{
				"type": "unocc",
				"energy": -0.1165,
				"method": "rhf"
			},
			{
				"type": "unocc",
				"energy": -0.07781,
				"method": "rhf"
			},
			{
				"type": "unocc",
				"energy": -0.03511,
				"method": "rhf"
			},
			{
				"type": "unocc",
				"energy": 0.03551,
				"method": "rhf"
			},
			{
				"type": "unocc",
				"energy": 0.03952,
				"method": "rhf"
			}
		],
		"cosmo_sigma_profile": { 
			"-0.025": 0.0,
			"-0.024": 0.0,
			"-0.023": 0.0,
			"-0.022": 0.0,
			"-0.021": 0.0,
			"-0.02": 0.202320097493,
			"-0.019": 0.953818842913,
			"-0.018": 0.915215600927,
			"-0.017": 1.10525482072,
			"-0.016": 0.796701562831,
			"-0.015": 1.39029094942,
			"-0.014": 1.20590433114,
			"-0.013": 1.31055661865,
			"-0.012": 0.959115600808,
			"-0.011": 0.911552846478,
			"-0.01": 1.61727743734,
			"-0.009": 5.75358458941,
			"-0.008": 13.9001968959,
			"-0.007": 18.3523873528,
			"-0.006": 24.1509081238,
			"-0.005": 24.5215056212,
			"-0.004": 19.3471580267,
			"-0.003": 18.7628528356,
			"-0.002": 18.0161635762,
			"-0.001": 20.3039163731,
			"0.0": 14.8450050453,
			"0.001": 7.93748185496,
			"0.002": 6.75281010134,
			"0.003": 6.50754974699,
			"0.004": 5.8548386832,
			"0.005": 6.2328271084,
			"0.006": 5.71281904905,
			"0.007": 8.59081083298,
			"0.008": 8.46540627202,
			"0.009": 10.8535927574,
			"0.01": 16.9764116393,
			"0.011": 20.1797448844,
			"0.012": 12.0840311603,
			"0.013": 1.20823887308,
			"0.014": 0.0,
			"0.015": 0.0,
			"0.016": 0.0,
			"0.017": 0.0,
			"0.018": 0.0,
			"0.019": 0.0,
			"0.02": 0.0,
			"0.021": 0.0,
			"0.022": 0.0,
			"0.023": 0.0,
			"0.024": 0.0,
			"0.025": 0.0
		}
	}
}
