{
	 "smiles": "FC1=CN=C(Cl)C=C1", 
	 "Tm": 292.15, 
	 "num_atms": 11, 
	 "gaussian": { 
		 "optdone": 1, 
		 "sigma_profile": "yes", 
		 "theory": "DFT", 
		 "functional": "B3LYP", 
		 "basiset": "6-31G**", 
		 "properties": { 
			 "R2extent": 1528.1898, 
			 "electric_dipole_moment_norm": 2.53757492106, 
			 "electric_quadrupole_moment_norm": 2.10857199308, 
			 "total_energy": -807.107595759, 
			 "HOMO_LUMO_gap": 0.21112, 
			 "cosmo_polarized_energy": -5.99, 
			 "cosmo_cavitation_energy": 17.89, 
			 "cosmo_dispersion_energy": -13.5, 
			 "cosmo_repulsion_energy": 1.1, 
			 "cosmo_total_nonelectrostatic_energy": 5.49, 
			 "SMD_solvation_energy": 2.1 
		},
		"coords": [
			{
				"x": -0.3025172073,
				"y": 0.112242711,
				"z": 4.0265316883,
				"element": "F" 
			},
			{
				"x": -0.416295715,
				"y": -0.0623311594,
				"z": 2.6988127255,
				"element": "C" 
			},
			{
				"x": -1.6338873754,
				"y": -0.4621809674,
				"z": 2.1598090833,
				"element": "C" 
			},
			{
				"x": -1.7953796723,
				"y": -0.648884123,
				"z": 0.8441252032,
				"element": "N" 
			},
			{
				"x": -0.7542105002,
				"y": -0.4408709231,
				"z": 0.0586218334,
				"element": "C" 
			},
			{
				"x": -0.9968877714,
				"y": -0.6944366675,
				"z": -1.6671440666,
				"element": "Cl" 
			},
			{
				"x": 0.5097845493,
				"y": -0.0380345194,
				"z": 0.5038398469,
				"element": "C" 
			},
			{
				"x": 0.6798222815,
				"y": 0.1565812243,
				"z": 1.8709439837,
				"element": "C" 
			},
			{
				"x": -2.4914106082,
				"y": -0.633674911,
				"z": 2.8050754164,
				"element": "H" 
			},
			{
				"x": 1.3226577887,
				"y": 0.1151203826,
				"z": -0.1956377402,
				"element": "H" 
			},
			{
				"x": 1.6299242303,
				"y": 0.4685689529,
				"z": 2.2912220259,
				"element": "H" 
			}
		],
		 "valence_orbital": [ 
			{
				"type": "occ",
				"energy": -0.33949,
				"method": "rhf"
			},
			{
				"type": "occ",
				"energy": -0.31928,
				"method": "rhf"
			},
			{
				"type": "occ",
				"energy": -0.31082,
				"method": "rhf"
			},
			{
				"type": "occ",
				"energy": -0.28554,
				"method": "rhf"
			},
			{
				"type": "occ",
				"energy": -0.2604,
				"method": "rhf"
			},
			{
				"type": "unocc",
				"energy": -0.04928,
				"method": "rhf"
			},
			{
				"type": "unocc",
				"energy": -0.02674,
				"method": "rhf"
			},
			{
				"type": "unocc",
				"energy": 0.0282,
				"method": "rhf"
			},
			{
				"type": "unocc",
				"energy": 0.0858,
				"method": "rhf"
			},
			{
				"type": "unocc",
				"energy": 0.12601,
				"method": "rhf"
			}
		],
		"cosmo_sigma_profile": { 
			"-0.025": 0.0,
			"-0.024": 0.0,
			"-0.023": 0.0,
			"-0.022": 0.0,
			"-0.021": 0.0,
			"-0.02": 0.0,
			"-0.019": 0.0,
			"-0.018": 0.0,
			"-0.017": 0.0,
			"-0.016": 0.0,
			"-0.015": 0.0,
			"-0.014": 0.0,
			"-0.013": 0.0,
			"-0.012": 0.0,
			"-0.011": 0.0,
			"-0.01": 0.33813514341,
			"-0.009": 3.54094570885,
			"-0.008": 6.52726647643,
			"-0.007": 5.17773702879,
			"-0.006": 4.99182364579,
			"-0.005": 4.33743311344,
			"-0.004": 4.94485908982,
			"-0.003": 6.02733659051,
			"-0.002": 14.031857993,
			"-0.001": 18.0777059615,
			"0.0": 14.641947986,
			"0.001": 9.63314698709,
			"0.002": 7.9990789605,
			"0.003": 16.3456599948,
			"0.004": 13.5754895923,
			"0.005": 5.54307891879,
			"0.006": 2.43133788322,
			"0.007": 2.16182086537,
			"0.008": 1.15987606155,
			"0.009": 1.43011137409,
			"0.01": 0.942426742078,
			"0.011": 1.13174608908,
			"0.012": 0.700333931703,
			"0.013": 1.04100094505,
			"0.014": 0.384419129848,
			"0.015": 0.0,
			"0.016": 0.0,
			"0.017": 0.0,
			"0.018": 0.0,
			"0.019": 0.0,
			"0.02": 0.0,
			"0.021": 0.0,
			"0.022": 0.0,
			"0.023": 0.0,
			"0.024": 0.0,
			"0.025": 0.0
		}
	}
}
