{
	 "smiles": "NC1=C(F)C(F)=C(C(F)=C1F)C1=C(F)C(F)=C(N)C(F)=C1F", 
	 "Tm": 450.15, 
	 "num_atms": 26, 
	 "gaussian": { 
		 "optdone": 1, 
		 "sigma_profile": "yes", 
		 "theory": "DFT", 
		 "functional": "B3LYP", 
		 "basiset": "6-31G**", 
		 "properties": { 
			 "R2extent": 6976.9449, 
			 "electric_dipole_moment_norm": 1.66233177194, 
			 "electric_quadrupole_moment_norm": 33.9084077699, 
			 "total_energy": -1367.83516872, 
			 "HOMO_LUMO_gap": 0.18225, 
			 "cosmo_polarized_energy": -11.55, 
			 "cosmo_cavitation_energy": 35.03, 
			 "cosmo_dispersion_energy": -24.37, 
			 "cosmo_repulsion_energy": 1.71, 
			 "cosmo_total_nonelectrostatic_energy": 12.36, 
			 "SMD_solvation_energy": 9.12 
		},
		"coords": [
			{
				"x": 1.5302664142,
				"y": -5.133875205,
				"z": 1.3227971281,
				"element": "N" 
			},
			{
				"x": 1.085432106,
				"y": -3.857695316,
				"z": 1.0429199374,
				"element": "C" 
			},
			{
				"x": 0.469495668,
				"y": -3.0638578044,
				"z": 2.0185535587,
				"element": "C" 
			},
			{
				"x": 0.2426378164,
				"y": -3.6088416922,
				"z": 3.2342480403,
				"element": "F" 
			},
			{
				"x": 0.06874664,
				"y": -1.7634974859,
				"z": 1.750651094,
				"element": "C" 
			},
			{
				"x": -0.5422889986,
				"y": -1.0748833902,
				"z": 2.7265286381,
				"element": "F" 
			},
			{
				"x": 0.2719349845,
				"y": -1.1682226068,
				"z": 0.4983246495,
				"element": "C" 
			},
			{
				"x": 0.8889613792,
				"y": -1.9658588325,
				"z": -0.4748493191,
				"element": "C" 
			},
			{
				"x": 1.1261786602,
				"y": -1.4657570417,
				"z": -1.6966123141,
				"element": "F" 
			},
			{
				"x": 1.2782178494,
				"y": -3.2712819805,
				"z": -0.2141482942,
				"element": "C" 
			},
			{
				"x": 1.858825514,
				"y": -4.014257595,
				"z": -1.1821673862,
				"element": "F" 
			},
			{
				"x": -0.145411523,
				"y": 0.2202603687,
				"z": 0.2181489241,
				"element": "C" 
			},
			{
				"x": 0.2568197753,
				"y": 1.2913835006,
				"z": 1.0274087439,
				"element": "C" 
			},
			{
				"x": 1.0537460618,
				"y": 1.0688560194,
				"z": 2.0830993626,
				"element": "F" 
			},
			{
				"x": -0.1373526396,
				"y": 2.5954321159,
				"z": 0.7671958172,
				"element": "C" 
			},
			{
				"x": 0.2601364149,
				"y": 3.6008821998,
				"z": 1.577905738,
				"element": "F" 
			},
			{
				"x": -0.9501092377,
				"y": 2.9119715788,
				"z": -0.3284856791,
				"element": "C" 
			},
			{
				"x": -1.2897721611,
				"y": 4.2162887717,
				"z": -0.6255142826,
				"element": "N" 
			},
			{
				"x": -1.3539778372,
				"y": 1.8444836312,
				"z": -1.1401393761,
				"element": "C" 
			},
			{
				"x": -2.162345601,
				"y": 2.1115710583,
				"z": -2.1897030074,
				"element": "F" 
			},
			{
				"x": -0.9696039206,
				"y": 0.539797279,
				"z": -0.8693147898,
				"element": "C" 
			},
			{
				"x": -1.4206637527,
				"y": -0.4338989657,
				"z": -1.6745198442,
				"element": "F" 
			},
			{
				"x": 1.6715388654,
				"y": -5.7287819606,
				"z": 0.5196827392,
				"element": "H" 
			},
			{
				"x": 1.0877691291,
				"y": -5.5834406547,
				"z": 2.1108276295,
				"element": "H" 
			},
			{
				"x": -2.1036190346,
				"y": 4.3288929403,
				"z": -1.2119247677,
				"element": "H" 
			},
			{
				"x": -1.2293625724,
				"y": 4.8654310674,
				"z": 0.14508706,
				"element": "H" 
			}
		],
		 "valence_orbital": [ 
			{
				"type": "occ",
				"energy": -0.31089,
				"method": "rhf"
			},
			{
				"type": "occ",
				"energy": -0.24414,
				"method": "rhf"
			},
			{
				"type": "occ",
				"energy": -0.24287,
				"method": "rhf"
			},
			{
				"type": "occ",
				"energy": -0.23864,
				"method": "rhf"
			},
			{
				"type": "occ",
				"energy": -0.21162,
				"method": "rhf"
			},
			{
				"type": "unocc",
				"energy": -0.02937,
				"method": "rhf"
			},
			{
				"type": "unocc",
				"energy": -0.00194,
				"method": "rhf"
			},
			{
				"type": "unocc",
				"energy": 0.00099,
				"method": "rhf"
			},
			{
				"type": "unocc",
				"energy": 0.01187,
				"method": "rhf"
			},
			{
				"type": "unocc",
				"energy": 0.02702,
				"method": "rhf"
			}
		],
		"cosmo_sigma_profile": { 
			"-0.025": 0.0,
			"-0.024": 0.0,
			"-0.023": 0.0,
			"-0.022": 0.0,
			"-0.021": 0.0,
			"-0.02": 0.0,
			"-0.019": 0.0,
			"-0.018": 0.0,
			"-0.017": 0.0,
			"-0.016": 0.0,
			"-0.015": 0.0,
			"-0.014": 1.42074444546,
			"-0.013": 4.22319074469,
			"-0.012": 3.67167877227,
			"-0.011": 4.7039915677,
			"-0.01": 4.86686357027,
			"-0.009": 4.1803041674,
			"-0.008": 3.93211609925,
			"-0.007": 4.03033568246,
			"-0.006": 4.53979085838,
			"-0.005": 3.69142397486,
			"-0.004": 3.22392436241,
			"-0.003": 5.31489983855,
			"-0.002": 15.7122812006,
			"-0.001": 41.3847228349,
			"0.0": 26.1737311275,
			"0.001": 21.7893850795,
			"0.002": 28.7340243354,
			"0.003": 61.4793969122,
			"0.004": 30.0011205146,
			"0.005": 2.47688462537,
			"0.006": 1.51656274652,
			"0.007": 0.979777686522,
			"0.008": 1.7103415757,
			"0.009": 0.668875934208,
			"0.01": 1.29290457585,
			"0.011": 1.33223089048,
			"0.012": 0.189317086951,
			"0.013": 0.0,
			"0.014": 0.0,
			"0.015": 0.0,
			"0.016": 0.0,
			"0.017": 0.0,
			"0.018": 0.0,
			"0.019": 0.0,
			"0.02": 0.0,
			"0.021": 0.0,
			"0.022": 0.0,
			"0.023": 0.0,
			"0.024": 0.0,
			"0.025": 0.0
		}
	}
}
