{
	 "smiles": "CC1=CC=C(C=C1)S(=O)(=O)N(CCO)CCO", 
	 "Tm": 370.15, 
	 "num_atms": 34, 
	 "gaussian": { 
		 "optdone": 1, 
		 "sigma_profile": "yes", 
		 "theory": "DFT", 
		 "functional": "B3LYP", 
		 "basiset": "6-31G**", 
		 "properties": { 
			 "R2extent": 5017.3928, 
			 "electric_dipole_moment_norm": 6.08191240812, 
			 "electric_quadrupole_moment_norm": 17.0170493667, 
			 "total_energy": -1183.16305568, 
			 "HOMO_LUMO_gap": 0.21096, 
			 "cosmo_polarized_energy": -20.25, 
			 "cosmo_cavitation_energy": 36.16, 
			 "cosmo_dispersion_energy": -25.84, 
			 "cosmo_repulsion_energy": 1.97, 
			 "cosmo_total_nonelectrostatic_energy": 12.29, 
			 "SMD_solvation_energy": 5.47 
		},
		"coords": [
			{
				"x": 0.1749810753,
				"y": 4.2403076793,
				"z": -3.7397934365,
				"element": "C" 
			},
			{
				"x": 0.3414280169,
				"y": 2.8719081219,
				"z": -3.1238126453,
				"element": "C" 
			},
			{
				"x": 1.4099427172,
				"y": 2.0425907368,
				"z": -3.4826835967,
				"element": "C" 
			},
			{
				"x": 1.5520944567,
				"y": 0.7684958788,
				"z": -2.9296812988,
				"element": "C" 
			},
			{
				"x": 0.6131155746,
				"y": 0.3247280324,
				"z": -2.0009236914,
				"element": "C" 
			},
			{
				"x": -0.4666025186,
				"y": 1.1297008817,
				"z": -1.6221388999,
				"element": "C" 
			},
			{
				"x": -0.5888392432,
				"y": 2.3958708916,
				"z": -2.1842827061,
				"element": "C" 
			},
			{
				"x": 0.7514698032,
				"y": -1.3399706427,
				"z": -1.3486374462,
				"element": "S" 
			},
			{
				"x": -0.5228466624,
				"y": -2.030121545,
				"z": -1.5709229063,
				"element": "O" 
			},
			{
				"x": 2.006929497,
				"y": -1.9022488726,
				"z": -1.8656584206,
				"element": "O" 
			},
			{
				"x": 0.9011058227,
				"y": -1.1150592188,
				"z": 0.3311634837,
				"element": "N" 
			},
			{
				"x": -0.0899287116,
				"y": -1.7508769347,
				"z": 1.2085053861,
				"element": "C" 
			},
			{
				"x": -0.7875872156,
				"y": -0.7514959263,
				"z": 2.1614548562,
				"element": "C" 
			},
			{
				"x": -1.1237540329,
				"y": 0.4646958661,
				"z": 1.5308996683,
				"element": "O" 
			},
			{
				"x": 2.2645480215,
				"y": -0.8809203549,
				"z": 0.8118739187,
				"element": "C" 
			},
			{
				"x": 2.3488364202,
				"y": 0.1243667535,
				"z": 1.9586112687,
				"element": "C" 
			},
			{
				"x": 1.6619917151,
				"y": 1.3165538258,
				"z": 1.5799805956,
				"element": "O" 
			},
			{
				"x": -0.654687896,
				"y": 4.2499727291,
				"z": -4.4570404094,
				"element": "H" 
			},
			{
				"x": 1.0766869364,
				"y": 4.5527712829,
				"z": -4.273268262,
				"element": "H" 
			},
			{
				"x": -0.049383472,
				"y": 4.9956809331,
				"z": -2.979370569,
				"element": "H" 
			},
			{
				"x": 2.1409646246,
				"y": 2.3934410935,
				"z": -4.2063365084,
				"element": "H" 
			},
			{
				"x": 2.3740409667,
				"y": 0.1203930761,
				"z": -3.2123745578,
				"element": "H" 
			},
			{
				"x": -1.1789106452,
				"y": 0.7795672759,
				"z": -0.882147084,
				"element": "H" 
			},
			{
				"x": -1.422101007,
				"y": 3.0287882411,
				"z": -1.889485862,
				"element": "H" 
			},
			{
				"x": -0.8393936881,
				"y": -2.206101947,
				"z": 0.5615599388,
				"element": "H" 
			},
			{
				"x": 0.3813248488,
				"y": -2.5592221878,
				"z": 1.7887859101,
				"element": "H" 
			},
			{
				"x": -0.1725467574,
				"y": -0.5745589999,
				"z": 3.0576096282,
				"element": "H" 
			},
			{
				"x": -1.7199923743,
				"y": -1.2098979133,
				"z": 2.5098160512,
				"element": "H" 
			},
			{
				"x": -0.2733701743,
				"y": 0.8936255071,
				"z": 1.3254163726,
				"element": "H" 
			},
			{
				"x": 2.8555105601,
				"y": -0.5036175153,
				"z": -0.0241308489,
				"element": "H" 
			},
			{
				"x": 2.7375911022,
				"y": -1.8186869982,
				"z": 1.1419329508,
				"element": "H" 
			},
			{
				"x": 3.4140921189,
				"y": 0.3241148386,
				"z": 2.1466730449,
				"element": "H" 
			},
			{
				"x": 1.9270606233,
				"y": -0.2980195086,
				"z": 2.8805630534,
				"element": "H" 
			},
			{
				"x": 1.7557294973,
				"y": 1.9620249199,
				"z": 2.2920430223,
				"element": "H" 
			}
		],
		 "valence_orbital": [ 
			{
				"type": "occ",
				"energy": -0.29008,
				"method": "rhf"
			},
			{
				"type": "occ",
				"energy": -0.26823,
				"method": "rhf"
			},
			{
				"type": "occ",
				"energy": -0.25979,
				"method": "rhf"
			},
			{
				"type": "occ",
				"energy": -0.25648,
				"method": "rhf"
			},
			{
				"type": "occ",
				"energy": -0.23699,
				"method": "rhf"
			},
			{
				"type": "unocc",
				"energy": -0.02603,
				"method": "rhf"
			},
			{
				"type": "unocc",
				"energy": -0.00982,
				"method": "rhf"
			},
			{
				"type": "unocc",
				"energy": 0.044,
				"method": "rhf"
			},
			{
				"type": "unocc",
				"energy": 0.06166,
				"method": "rhf"
			},
			{
				"type": "unocc",
				"energy": 0.08631,
				"method": "rhf"
			}
		],
		"cosmo_sigma_profile": { 
			"-0.025": 0.0,
			"-0.024": 0.0,
			"-0.023": 0.0,
			"-0.022": 0.0,
			"-0.021": 0.0,
			"-0.02": 0.0,
			"-0.019": 0.0,
			"-0.018": 0.0,
			"-0.017": 0.381881313189,
			"-0.016": 1.40148415028,
			"-0.015": 0.934300511092,
			"-0.014": 1.03931499589,
			"-0.013": 0.909244230991,
			"-0.012": 1.11411478688,
			"-0.011": 0.581173999533,
			"-0.01": 0.575185268036,
			"-0.009": 0.888606533804,
			"-0.008": 1.49169428423,
			"-0.007": 1.89814628432,
			"-0.006": 12.5522842796,
			"-0.005": 34.3667152658,
			"-0.004": 31.5758285679,
			"-0.003": 24.4684010221,
			"-0.002": 22.9331252843,
			"-0.001": 19.8312032031,
			"0.0": 17.2812656108,
			"0.001": 13.4470382967,
			"0.002": 12.9822739892,
			"0.003": 15.1495900994,
			"0.004": 12.3194892618,
			"0.005": 6.66286233536,
			"0.006": 6.58365455002,
			"0.007": 5.53919157198,
			"0.008": 4.83017907777,
			"0.009": 5.80876164332,
			"0.01": 7.87570491701,
			"0.011": 9.84812023215,
			"0.012": 5.66946426349,
			"0.013": 1.06460784155,
			"0.014": 1.56081082264,
			"0.015": 0.964847366628,
			"0.016": 0.0,
			"0.017": 0.0,
			"0.018": 0.0,
			"0.019": 0.0,
			"0.02": 0.0,
			"0.021": 0.0,
			"0.022": 0.0,
			"0.023": 0.0,
			"0.024": 0.0,
			"0.025": 0.0
		}
	}
}
