{
	 "smiles": "CN(CC(N)=S)CC(=O)NC(C)(C)C", 
	 "Tm": 397.15, 
	 "num_atms": 33, 
	 "gaussian": { 
		 "optdone": 1, 
		 "sigma_profile": "yes", 
		 "theory": "DFT", 
		 "functional": "B3LYP", 
		 "basiset": "6-31G**", 
		 "properties": { 
			 "R2extent": 4801.9752, 
			 "electric_dipole_moment_norm": 5.53784938491, 
			 "electric_quadrupole_moment_norm": 23.1066489877, 
			 "total_energy": -992.105086163, 
			 "HOMO_LUMO_gap": 0.17628, 
			 "cosmo_polarized_energy": -22.06, 
			 "cosmo_cavitation_energy": 35.88, 
			 "cosmo_dispersion_energy": -24.41, 
			 "cosmo_repulsion_energy": 1.9, 
			 "cosmo_total_nonelectrostatic_energy": 13.38, 
			 "SMD_solvation_energy": 5.45 
		},
		"coords": [
			{
				"x": 0.3777464524,
				"y": -2.0832177714,
				"z": -0.038885699,
				"element": "C" 
			},
			{
				"x": -0.8411610185,
				"y": -1.2907537796,
				"z": 0.1706248828,
				"element": "N" 
			},
			{
				"x": -2.0400442709,
				"y": -2.1159087417,
				"z": -0.0312390522,
				"element": "C" 
			},
			{
				"x": -3.3138889185,
				"y": -1.3214963683,
				"z": -0.3109866381,
				"element": "C" 
			},
			{
				"x": -3.1013959944,
				"y": -0.0923435757,
				"z": -0.8016808334,
				"element": "N" 
			},
			{
				"x": -4.8188126142,
				"y": -1.9880500958,
				"z": -0.0818729402,
				"element": "S" 
			},
			{
				"x": -0.8347425546,
				"y": -0.6457627065,
				"z": 1.4914215222,
				"element": "C" 
			},
			{
				"x": 0.0348142419,
				"y": 0.6184261836,
				"z": 1.5957959903,
				"element": "C" 
			},
			{
				"x": 0.3251241168,
				"y": 1.0674119916,
				"z": 2.6999041297,
				"element": "O" 
			},
			{
				"x": 0.3763156713,
				"y": 1.1841832186,
				"z": 0.4063183471,
				"element": "N" 
			},
			{
				"x": 1.1981927499,
				"y": 2.4043308828,
				"z": 0.2321911964,
				"element": "C" 
			},
			{
				"x": 1.3230943458,
				"y": 2.6328838139,
				"z": -1.2817204324,
				"element": "C" 
			},
			{
				"x": 0.490950311,
				"y": 3.6030210315,
				"z": 0.891130814,
				"element": "C" 
			},
			{
				"x": 2.5923444435,
				"y": 2.1940798985,
				"z": 0.8529096954,
				"element": "C" 
			},
			{
				"x": 0.4505027599,
				"y": -2.9364751443,
				"z": 0.6558274627,
				"element": "H" 
			},
			{
				"x": 0.3990721465,
				"y": -2.4674281966,
				"z": -1.0629341867,
				"element": "H" 
			},
			{
				"x": 1.2574046884,
				"y": -1.4514882454,
				"z": 0.1085031365,
				"element": "H" 
			},
			{
				"x": -2.2404732774,
				"y": -2.7940767713,
				"z": 0.8100243034,
				"element": "H" 
			},
			{
				"x": -1.8729119462,
				"y": -2.7495349511,
				"z": -0.9104770784,
				"element": "H" 
			},
			{
				"x": -3.8891462726,
				"y": 0.4960481656,
				"z": -1.0291712523,
				"element": "H" 
			},
			{
				"x": -2.15357302,
				"y": 0.2517918182,
				"z": -0.8826802913,
				"element": "H" 
			},
			{
				"x": -0.5098653276,
				"y": -1.3250368829,
				"z": 2.2943293438,
				"element": "H" 
			},
			{
				"x": -1.8546734104,
				"y": -0.3336564749,
				"z": 1.7398935051,
				"element": "H" 
			},
			{
				"x": 0.1254331995,
				"y": 0.6490014875,
				"z": -0.4149450244,
				"element": "H" 
			},
			{
				"x": 0.3393699715,
				"y": 2.77601696,
				"z": -1.7434285083,
				"element": "H" 
			},
			{
				"x": 1.9191193733,
				"y": 3.5278066027,
				"z": -1.4801658687,
				"element": "H" 
			},
			{
				"x": 1.8177441691,
				"y": 1.7862432118,
				"z": -1.7720015471,
				"element": "H" 
			},
			{
				"x": -0.4936936125,
				"y": 3.7649947886,
				"z": 0.4400941393,
				"element": "H" 
			},
			{
				"x": 1.0845252804,
				"y": 4.5127174589,
				"z": 0.7534767243,
				"element": "H" 
			},
			{
				"x": 0.3602654179,
				"y": 3.4256833821,
				"z": 1.9598328776,
				"element": "H" 
			},
			{
				"x": 3.1070897189,
				"y": 1.3553952965,
				"z": 0.3717917949,
				"element": "H" 
			},
			{
				"x": 2.5040186109,
				"y": 1.9847751934,
				"z": 1.9203641317,
				"element": "H" 
			},
			{
				"x": 3.2050545691,
				"y": 3.0917183197,
				"z": 0.7194553553,
				"element": "H" 
			}
		],
		 "valence_orbital": [ 
			{
				"type": "occ",
				"energy": -0.26474,
				"method": "rhf"
			},
			{
				"type": "occ",
				"energy": -0.25809,
				"method": "rhf"
			},
			{
				"type": "occ",
				"energy": -0.24371,
				"method": "rhf"
			},
			{
				"type": "occ",
				"energy": -0.23308,
				"method": "rhf"
			},
			{
				"type": "occ",
				"energy": -0.21024,
				"method": "rhf"
			},
			{
				"type": "unocc",
				"energy": -0.03396,
				"method": "rhf"
			},
			{
				"type": "unocc",
				"energy": 0.02227,
				"method": "rhf"
			},
			{
				"type": "unocc",
				"energy": 0.04691,
				"method": "rhf"
			},
			{
				"type": "unocc",
				"energy": 0.072,
				"method": "rhf"
			},
			{
				"type": "unocc",
				"energy": 0.08379,
				"method": "rhf"
			}
		],
		"cosmo_sigma_profile": { 
			"-0.025": 0.0,
			"-0.024": 0.0,
			"-0.023": 0.0,
			"-0.022": 0.0,
			"-0.021": 0.0,
			"-0.02": 0.0,
			"-0.019": 0.0,
			"-0.018": 0.0,
			"-0.017": 0.0,
			"-0.016": 0.0102971719677,
			"-0.015": 0.990060494538,
			"-0.014": 1.16848218799,
			"-0.013": 0.949028336068,
			"-0.012": 2.58309301179,
			"-0.011": 3.04739344762,
			"-0.01": 2.21397465367,
			"-0.009": 2.28422750763,
			"-0.008": 3.25343277049,
			"-0.007": 5.46764374495,
			"-0.006": 7.50552667159,
			"-0.005": 14.119161056,
			"-0.004": 24.9438951537,
			"-0.003": 35.9033666945,
			"-0.002": 27.2428384093,
			"-0.001": 26.330027094,
			"0.0": 21.3883539923,
			"0.001": 23.5741553915,
			"0.002": 11.011066567,
			"0.003": 5.42445792999,
			"0.004": 5.72056924368,
			"0.005": 4.64612553849,
			"0.006": 5.5316182467,
			"0.007": 5.77514918739,
			"0.008": 6.90241831431,
			"0.009": 7.95443542834,
			"0.01": 6.9803091405,
			"0.011": 5.14836543782,
			"0.012": 4.82721601358,
			"0.013": 2.9007357448,
			"0.014": 3.51205766608,
			"0.015": 2.24693157849,
			"0.016": 0.145326462353,
			"0.017": 0.0,
			"0.018": 0.0,
			"0.019": 0.0,
			"0.02": 0.0,
			"0.021": 0.0,
			"0.022": 0.0,
			"0.023": 0.0,
			"0.024": 0.0,
			"0.025": 0.0
		}
	}
}
