{
	 "smiles": "CC(=O)OC1(CC2=CC=CC=C12)C1=CC=CC=C1", 
	 "Tm": 349.15, 
	 "num_atms": 32, 
	 "gaussian": { 
		 "optdone": 1, 
		 "sigma_profile": "yes", 
		 "theory": "DFT", 
		 "functional": "B3LYP", 
		 "basiset": "6-31G**", 
		 "properties": { 
			 "R2extent": 4273.1925, 
			 "electric_dipole_moment_norm": 1.57978310537, 
			 "electric_quadrupole_moment_norm": 8.15153445678, 
			 "total_energy": -768.566617805, 
			 "HOMO_LUMO_gap": 0.22572, 
			 "cosmo_polarized_energy": -9.35, 
			 "cosmo_cavitation_energy": 35.53, 
			 "cosmo_dispersion_energy": -24.51, 
			 "cosmo_repulsion_energy": 1.92, 
			 "cosmo_total_nonelectrostatic_energy": 12.95, 
			 "SMD_solvation_energy": 6.77 
		},
		"coords": [
			{
				"x": 0.0033016114,
				"y": 3.776825164,
				"z": 1.2496780131,
				"element": "C" 
			},
			{
				"x": 0.2764856226,
				"y": 2.4893367579,
				"z": 0.5073354901,
				"element": "C" 
			},
			{
				"x": 1.2792762069,
				"y": 2.2455022939,
				"z": -0.1253140698,
				"element": "O" 
			},
			{
				"x": -0.7640777475,
				"y": 1.6301144825,
				"z": 0.6488883313,
				"element": "O" 
			},
			{
				"x": -0.6392184531,
				"y": 0.3196325078,
				"z": 0.0270662498,
				"element": "C" 
			},
			{
				"x": -2.1014111994,
				"y": -0.2818006697,
				"z": -0.1225646717,
				"element": "C" 
			},
			{
				"x": -1.8643016419,
				"y": -0.2255171997,
				"z": -1.6226017591,
				"element": "C" 
			},
			{
				"x": -2.4301542176,
				"y": -0.5096997479,
				"z": -2.8583578881,
				"element": "C" 
			},
			{
				"x": -1.6468745816,
				"y": -0.1891500044,
				"z": -3.9778812583,
				"element": "C" 
			},
			{
				"x": -0.3703887108,
				"y": 0.3817894353,
				"z": -3.8511469554,
				"element": "C" 
			},
			{
				"x": 0.1934193058,
				"y": 0.6586580778,
				"z": -2.5967842048,
				"element": "C" 
			},
			{
				"x": -0.594294926,
				"y": 0.3317168494,
				"z": -1.4996397611,
				"element": "C" 
			},
			{
				"x": 0.3413697634,
				"y": -0.5422933975,
				"z": 0.7998529553,
				"element": "C" 
			},
			{
				"x": 0.3017266451,
				"y": -0.538408534,
				"z": 2.2022271079,
				"element": "C" 
			},
			{
				"x": 1.1516730041,
				"y": -1.3615706406,
				"z": 2.9388783963,
				"element": "C" 
			},
			{
				"x": 2.0508660784,
				"y": -2.2069820264,
				"z": 2.2844072453,
				"element": "C" 
			},
			{
				"x": 2.0930256999,
				"y": -2.2190283391,
				"z": 0.8903614034,
				"element": "C" 
			},
			{
				"x": 1.2440353042,
				"y": -1.3916146375,
				"z": 0.152260532,
				"element": "C" 
			},
			{
				"x": 0.8008997761,
				"y": 4.4896450006,
				"z": 1.0425710395,
				"element": "H" 
			},
			{
				"x": -0.0441223931,
				"y": 3.5806751356,
				"z": 2.3254876632,
				"element": "H" 
			},
			{
				"x": -0.96289333,
				"y": 4.1916104146,
				"z": 0.9496271744,
				"element": "H" 
			},
			{
				"x": -2.8739300407,
				"y": 0.3898598272,
				"z": 0.2640643569,
				"element": "H" 
			},
			{
				"x": -2.2269975291,
				"y": -1.2752053074,
				"z": 0.3185311304,
				"element": "H" 
			},
			{
				"x": -3.4177440446,
				"y": -0.9473722565,
				"z": -2.9738905326,
				"element": "H" 
			},
			{
				"x": -2.0374831088,
				"y": -0.3833529504,
				"z": -4.973318773,
				"element": "H" 
			},
			{
				"x": 0.1914386515,
				"y": 0.6154076638,
				"z": -4.7513908624,
				"element": "H" 
			},
			{
				"x": 1.1741861797,
				"y": 1.1089158421,
				"z": -2.4939290648,
				"element": "H" 
			},
			{
				"x": -0.3949115367,
				"y": 0.1187741128,
				"z": 2.7143307252,
				"element": "H" 
			},
			{
				"x": 1.1111888022,
				"y": -1.3444274998,
				"z": 4.0245160942,
				"element": "H" 
			},
			{
				"x": 2.7139256303,
				"y": -2.8486173112,
				"z": 2.8576547959,
				"element": "H" 
			},
			{
				"x": 2.7926488366,
				"y": -2.8686877861,
				"z": 0.3719948344,
				"element": "H" 
			},
			{
				"x": 1.2876363429,
				"y": -1.4010352573,
				"z": -0.9317137377,
				"element": "H" 
			}
		],
		 "valence_orbital": [ 
			{
				"type": "occ",
				"energy": -0.26983,
				"method": "rhf"
			},
			{
				"type": "occ",
				"energy": -0.25034,
				"method": "rhf"
			},
			{
				"type": "occ",
				"energy": -0.24709,
				"method": "rhf"
			},
			{
				"type": "occ",
				"energy": -0.24152,
				"method": "rhf"
			},
			{
				"type": "occ",
				"energy": -0.23948,
				"method": "rhf"
			},
			{
				"type": "unocc",
				"energy": -0.01376,
				"method": "rhf"
			},
			{
				"type": "unocc",
				"energy": -0.0021,
				"method": "rhf"
			},
			{
				"type": "unocc",
				"energy": 0.00037,
				"method": "rhf"
			},
			{
				"type": "unocc",
				"energy": 0.00478,
				"method": "rhf"
			},
			{
				"type": "unocc",
				"energy": 0.01455,
				"method": "rhf"
			}
		],
		"cosmo_sigma_profile": { 
			"-0.025": 0.0,
			"-0.024": 0.0,
			"-0.023": 0.0,
			"-0.022": 0.0,
			"-0.021": 0.0,
			"-0.02": 0.0,
			"-0.019": 0.0,
			"-0.018": 0.0,
			"-0.017": 0.0,
			"-0.016": 0.0,
			"-0.015": 0.0,
			"-0.014": 0.0,
			"-0.013": 0.0,
			"-0.012": 0.0,
			"-0.011": 0.0,
			"-0.01": 0.0,
			"-0.009": 0.0,
			"-0.008": 0.0,
			"-0.007": 0.992080917453,
			"-0.006": 11.582472903,
			"-0.005": 24.1303256278,
			"-0.004": 27.4599157131,
			"-0.003": 30.1058198831,
			"-0.002": 27.6221798064,
			"-0.001": 28.4761631618,
			"0.0": 17.662150746,
			"0.001": 17.4200358001,
			"0.002": 17.0257601514,
			"0.003": 17.7765393929,
			"0.004": 18.6141622735,
			"0.005": 18.0665148964,
			"0.006": 11.3497401141,
			"0.007": 3.32670723555,
			"0.008": 2.64033003387,
			"0.009": 1.88353222191,
			"0.01": 2.10636386542,
			"0.011": 2.3664550028,
			"0.012": 2.07662039302,
			"0.013": 0.970087583185,
			"0.014": 0.0022542401905,
			"0.015": 0.0,
			"0.016": 0.0,
			"0.017": 0.0,
			"0.018": 0.0,
			"0.019": 0.0,
			"0.02": 0.0,
			"0.021": 0.0,
			"0.022": 0.0,
			"0.023": 0.0,
			"0.024": 0.0,
			"0.025": 0.0
		}
	}
}
