{
	 "smiles": "CC1=CC=CC=C1C(=O)NCC(O)=O", 
	 "Tm": 436.15, 
	 "num_atms": 25, 
	 "gaussian": { 
		 "optdone": 1, 
		 "sigma_profile": "yes", 
		 "theory": "DFT", 
		 "functional": "B3LYP", 
		 "basiset": "6-31G**", 
		 "properties": { 
			 "R2extent": 3375.7597, 
			 "electric_dipole_moment_norm": 2.82833169377, 
			 "electric_quadrupole_moment_norm": 21.3459304768, 
			 "total_energy": -668.141853918, 
			 "HOMO_LUMO_gap": 0.20578, 
			 "cosmo_polarized_energy": -18.12, 
			 "cosmo_cavitation_energy": 28.81, 
			 "cosmo_dispersion_energy": -20.57, 
			 "cosmo_repulsion_energy": 1.63, 
			 "cosmo_total_nonelectrostatic_energy": 9.88, 
			 "SMD_solvation_energy": 6.89 
		},
		"coords": [
			{
				"x": -3.1866627963,
				"y": 0.1988045069,
				"z": 0.6791648571,
				"element": "C" 
			},
			{
				"x": -1.9556381068,
				"y": -0.193886261,
				"z": 1.4622611969,
				"element": "C" 
			},
			{
				"x": -2.0331355989,
				"y": -1.2464372682,
				"z": 2.3823329588,
				"element": "C" 
			},
			{
				"x": -0.9368204487,
				"y": -1.6355794857,
				"z": 3.1524710131,
				"element": "C" 
			},
			{
				"x": 0.2825444696,
				"y": -0.9755503914,
				"z": 3.0104233876,
				"element": "C" 
			},
			{
				"x": 0.3918053691,
				"y": 0.0608966549,
				"z": 2.0862823394,
				"element": "C" 
			},
			{
				"x": -0.7084229473,
				"y": 0.4570259886,
				"z": 1.308785122,
				"element": "C" 
			},
			{
				"x": -0.5873144599,
				"y": 1.6313822931,
				"z": 0.3851162513,
				"element": "C" 
			},
			{
				"x": -1.4541059338,
				"y": 2.4865193606,
				"z": 0.2810225791,
				"element": "O" 
			},
			{
				"x": 0.6040078621,
				"y": 1.7799790292,
				"z": -0.3424291192,
				"element": "N" 
			},
			{
				"x": 1.4333449563,
				"y": 0.6906517421,
				"z": -0.8571566189,
				"element": "C" 
			},
			{
				"x": 2.9053420182,
				"y": 0.7828929358,
				"z": -0.4253169942,
				"element": "C" 
			},
			{
				"x": 3.1739408204,
				"y": 1.7460523697,
				"z": 0.4800995677,
				"element": "O" 
			},
			{
				"x": 3.7489306426,
				"y": 0.0371126859,
				"z": -0.8540922667,
				"element": "O" 
			},
			{
				"x": -3.5635350567,
				"y": 1.170893136,
				"z": 1.0075374326,
				"element": "H" 
			},
			{
				"x": -3.9743321533,
				"y": -0.5478027076,
				"z": 0.8102261643,
				"element": "H" 
			},
			{
				"x": -2.9802496874,
				"y": 0.2963352462,
				"z": -0.3908363578,
				"element": "H" 
			},
			{
				"x": -2.9796909941,
				"y": -1.7672405523,
				"z": 2.4993707181,
				"element": "H" 
			},
			{
				"x": -1.037841123,
				"y": -2.4518164623,
				"z": 3.8619469194,
				"element": "H" 
			},
			{
				"x": 1.1414503836,
				"y": -1.2619349993,
				"z": 3.6091376304,
				"element": "H" 
			},
			{
				"x": 1.3399789555,
				"y": 0.5781084226,
				"z": 1.9814652577,
				"element": "H" 
			},
			{
				"x": 0.5109379566,
				"y": 2.5793398397,
				"z": -0.9614844018,
				"element": "H" 
			},
			{
				"x": 1.4120309939,
				"y": 0.660592204,
				"z": -1.9511438832,
				"element": "H" 
			},
			{
				"x": 1.0510525053,
				"y": -0.269364,
				"z": -0.5040908291,
				"element": "H" 
			},
			{
				"x": 2.3392823729,
				"y": 2.2299257126,
				"z": 0.6358070754,
				"element": "H" 
			}
		],
		 "valence_orbital": [ 
			{
				"type": "occ",
				"energy": -0.30419,
				"method": "rhf"
			},
			{
				"type": "occ",
				"energy": -0.28302,
				"method": "rhf"
			},
			{
				"type": "occ",
				"energy": -0.26837,
				"method": "rhf"
			},
			{
				"type": "occ",
				"energy": -0.26026,
				"method": "rhf"
			},
			{
				"type": "occ",
				"energy": -0.25619,
				"method": "rhf"
			},
			{
				"type": "unocc",
				"energy": -0.05041,
				"method": "rhf"
			},
			{
				"type": "unocc",
				"energy": -0.01629,
				"method": "rhf"
			},
			{
				"type": "unocc",
				"energy": 0.00441,
				"method": "rhf"
			},
			{
				"type": "unocc",
				"energy": 0.02742,
				"method": "rhf"
			},
			{
				"type": "unocc",
				"energy": 0.05939,
				"method": "rhf"
			}
		],
		"cosmo_sigma_profile": { 
			"-0.025": 0.0,
			"-0.024": 0.0,
			"-0.023": 0.0,
			"-0.022": 0.0,
			"-0.021": 0.0,
			"-0.02": 0.0,
			"-0.019": 0.0,
			"-0.018": 0.0,
			"-0.017": 0.0,
			"-0.016": 0.0,
			"-0.015": 0.371762670437,
			"-0.014": 2.29532460777,
			"-0.013": 2.67575684824,
			"-0.012": 3.43679100131,
			"-0.011": 2.6643133306,
			"-0.01": 2.72855065975,
			"-0.009": 3.31539751529,
			"-0.008": 4.83666197566,
			"-0.007": 5.42917101044,
			"-0.006": 12.114308272,
			"-0.005": 18.8605793533,
			"-0.004": 18.2628450372,
			"-0.003": 13.2319736149,
			"-0.002": 12.42445292,
			"-0.001": 13.5245198378,
			"0.0": 15.0593030138,
			"0.001": 11.8042982541,
			"0.002": 10.2534866327,
			"0.003": 11.3635222091,
			"0.004": 13.1489140815,
			"0.005": 6.79573295287,
			"0.006": 4.2362224937,
			"0.007": 3.09282227413,
			"0.008": 4.26190786617,
			"0.009": 6.44694105422,
			"0.01": 6.31990148869,
			"0.011": 6.20604501496,
			"0.012": 9.70699061282,
			"0.013": 3.98842261109,
			"0.014": 0.0135962883515,
			"0.015": 0.0,
			"0.016": 0.0,
			"0.017": 0.0,
			"0.018": 0.0,
			"0.019": 0.0,
			"0.02": 0.0,
			"0.021": 0.0,
			"0.022": 0.0,
			"0.023": 0.0,
			"0.024": 0.0,
			"0.025": 0.0
		}
	}
}
