{
	 "smiles": "OC(=O)C1=CC=C(CNC(=O)CCl)C=C1", 
	 "Tm": 467.15, 
	 "num_atms": 25, 
	 "gaussian": { 
		 "optdone": 1, 
		 "sigma_profile": "yes", 
		 "theory": "DFT", 
		 "functional": "B3LYP", 
		 "basiset": "6-31G**", 
		 "properties": { 
			 "R2extent": 6049.8647, 
			 "electric_dipole_moment_norm": 4.03000899379, 
			 "electric_quadrupole_moment_norm": 34.6255828591, 
			 "total_energy": -1127.72469714, 
			 "HOMO_LUMO_gap": 0.20606, 
			 "cosmo_polarized_energy": -23.83, 
			 "cosmo_cavitation_energy": 31.7, 
			 "cosmo_dispersion_energy": -22.46, 
			 "cosmo_repulsion_energy": 1.78, 
			 "cosmo_total_nonelectrostatic_energy": 11.02, 
			 "SMD_solvation_energy": 6.71 
		},
		"coords": [
			{
				"x": 4.8295517091,
				"y": 0.3837932245,
				"z": 1.8718330919,
				"element": "O" 
			},
			{
				"x": 4.1232212598,
				"y": 1.1334234235,
				"z": 0.9834540087,
				"element": "C" 
			},
			{
				"x": 4.6752912155,
				"y": 2.0069214664,
				"z": 0.3572711092,
				"element": "O" 
			},
			{
				"x": 2.6649954716,
				"y": 0.8149844826,
				"z": 0.8372256527,
				"element": "C" 
			},
			{
				"x": 2.1045697758,
				"y": -0.4171916691,
				"z": 1.205091409,
				"element": "C" 
			},
			{
				"x": 0.7437385879,
				"y": -0.6523359979,
				"z": 1.0290098415,
				"element": "C" 
			},
			{
				"x": -0.0880679253,
				"y": 0.3330267464,
				"z": 0.480272639,
				"element": "C" 
			},
			{
				"x": -1.5667568468,
				"y": 0.0191480355,
				"z": 0.276661275,
				"element": "C" 
			},
			{
				"x": -2.4268521898,
				"y": 1.1612700664,
				"z": 0.0146114362,
				"element": "N" 
			},
			{
				"x": -2.9781463607,
				"y": 2.0303195185,
				"z": 0.9184544991,
				"element": "C" 
			},
			{
				"x": -3.6312693656,
				"y": 3.0012696667,
				"z": 0.5688142632,
				"element": "O" 
			},
			{
				"x": -2.7295671165,
				"y": 1.7537573495,
				"z": 2.4022569397,
				"element": "C" 
			},
			{
				"x": -3.710651133,
				"y": 0.349027474,
				"z": 3.0096418706,
				"element": "Cl" 
			},
			{
				"x": 0.4755410565,
				"y": 1.55830628,
				"z": 0.105169334,
				"element": "C" 
			},
			{
				"x": 1.8378414304,
				"y": 1.7935685773,
				"z": 0.2730490994,
				"element": "C" 
			},
			{
				"x": 4.2311116746,
				"y": -0.1516387284,
				"z": 2.410575379,
				"element": "H" 
			},
			{
				"x": 2.725837456,
				"y": -1.2176056287,
				"z": 1.6001421123,
				"element": "H" 
			},
			{
				"x": 0.3246855935,
				"y": -1.6140025188,
				"z": 1.3152439587,
				"element": "H" 
			},
			{
				"x": -1.6710861112,
				"y": -0.6626441412,
				"z": -0.5755406787,
				"element": "H" 
			},
			{
				"x": -1.9467699733,
				"y": -0.5316761733,
				"z": 1.1423894655,
				"element": "H" 
			},
			{
				"x": -2.6275222978,
				"y": 1.4075861737,
				"z": -0.9455644364,
				"element": "H" 
			},
			{
				"x": -3.0553564254,
				"y": 2.6313428835,
				"z": 2.9554791766,
				"element": "H" 
			},
			{
				"x": -1.6838883123,
				"y": 1.5301034862,
				"z": 2.6201769773,
				"element": "H" 
			},
			{
				"x": -0.1565438563,
				"y": 2.3318557709,
				"z": -0.3192889102,
				"element": "H" 
			},
			{
				"x": 2.2837926833,
				"y": 2.7355902318,
				"z": -0.0275295132,
				"element": "H" 
			}
		],
		 "valence_orbital": [ 
			{
				"type": "occ",
				"energy": -0.28329,
				"method": "rhf"
			},
			{
				"type": "occ",
				"energy": -0.28278,
				"method": "rhf"
			},
			{
				"type": "occ",
				"energy": -0.27531,
				"method": "rhf"
			},
			{
				"type": "occ",
				"energy": -0.27011,
				"method": "rhf"
			},
			{
				"type": "occ",
				"energy": -0.26645,
				"method": "rhf"
			},
			{
				"type": "unocc",
				"energy": -0.06039,
				"method": "rhf"
			},
			{
				"type": "unocc",
				"energy": -0.03662,
				"method": "rhf"
			},
			{
				"type": "unocc",
				"energy": -0.02879,
				"method": "rhf"
			},
			{
				"type": "unocc",
				"energy": 0.03457,
				"method": "rhf"
			},
			{
				"type": "unocc",
				"energy": 0.04268,
				"method": "rhf"
			}
		],
		"cosmo_sigma_profile": { 
			"-0.025": 0.0,
			"-0.024": 0.0,
			"-0.023": 0.0,
			"-0.022": 0.0,
			"-0.021": 0.0,
			"-0.02": 0.0,
			"-0.019": 0.133030498774,
			"-0.018": 0.721781020181,
			"-0.017": 0.911347780336,
			"-0.016": 1.28966096147,
			"-0.015": 0.988885252949,
			"-0.014": 2.17545346966,
			"-0.013": 1.67657155772,
			"-0.012": 2.98385261904,
			"-0.011": 2.87781353958,
			"-0.01": 2.03171975606,
			"-0.009": 3.07306030527,
			"-0.008": 6.42226963995,
			"-0.007": 12.2636208915,
			"-0.006": 17.6603791942,
			"-0.005": 17.9873357952,
			"-0.004": 13.9939300359,
			"-0.003": 11.5032731307,
			"-0.002": 10.8061376141,
			"-0.001": 13.5173486807,
			"0.0": 11.5757262882,
			"0.001": 14.2897271806,
			"0.002": 16.6318115659,
			"0.003": 19.4702923959,
			"0.004": 10.5811849023,
			"0.005": 10.6145049861,
			"0.006": 6.82529131732,
			"0.007": 3.70283319598,
			"0.008": 3.42913278884,
			"0.009": 4.10673942915,
			"0.01": 6.16769238667,
			"0.011": 6.87038591636,
			"0.012": 8.93214465146,
			"0.013": 7.2835050434,
			"0.014": 1.14769981653,
			"0.015": 0.0,
			"0.016": 0.0,
			"0.017": 0.0,
			"0.018": 0.0,
			"0.019": 0.0,
			"0.02": 0.0,
			"0.021": 0.0,
			"0.022": 0.0,
			"0.023": 0.0,
			"0.024": 0.0,
			"0.025": 0.0
		}
	}
}
