{
	 "smiles": "COC1=CC=C2CC(=O)C3=C(CCN(C)CC2=C1OC)C=C1OCOC1=C3", 
	 "Tm": 433.15, 
	 "num_atms": 50, 
	 "gaussian": { 
		 "optdone": 1, 
		 "sigma_profile": "yes", 
		 "theory": "DFT", 
		 "functional": "B3LYP", 
		 "basiset": "6-31G**", 
		 "properties": { 
			 "R2extent": 10517.6148, 
			 "electric_dipole_moment_norm": 4.02315152213, 
			 "electric_quadrupole_moment_norm": 14.0958134675, 
			 "total_energy": -1244.88875784, 
			 "HOMO_LUMO_gap": 0.16501, 
			 "cosmo_polarized_energy": -14.83, 
			 "cosmo_cavitation_energy": 49.55, 
			 "cosmo_dispersion_energy": -33.76, 
			 "cosmo_repulsion_energy": 2.54, 
			 "cosmo_total_nonelectrostatic_energy": 18.33, 
			 "SMD_solvation_energy": 10.19 
		},
		"coords": [
			{
				"x": -4.7172768865,
				"y": 0.4815058511,
				"z": 2.8965290621,
				"element": "C" 
			},
			{
				"x": -3.3741560445,
				"y": 0.0547873354,
				"z": 3.147065196,
				"element": "O" 
			},
			{
				"x": -2.4249765135,
				"y": 0.616374661,
				"z": 2.3191415588,
				"element": "C" 
			},
			{
				"x": -1.5192442383,
				"y": 1.532056052,
				"z": 2.8449738596,
				"element": "C" 
			},
			{
				"x": -0.5433231156,
				"y": 2.0890760749,
				"z": 2.0217686594,
				"element": "C" 
			},
			{
				"x": -0.4544327666,
				"y": 1.7552810329,
				"z": 0.6659897172,
				"element": "C" 
			},
			{
				"x": 0.6102396174,
				"y": 2.4522525433,
				"z": -0.1761547183,
				"element": "C" 
			},
			{
				"x": 1.9482642933,
				"y": 1.7096454432,
				"z": -0.1328920572,
				"element": "C" 
			},
			{
				"x": 2.7647244029,
				"y": 2.0263337471,
				"z": 0.7216907535,
				"element": "O" 
			},
			{
				"x": 2.2412177545,
				"y": 0.5185123482,
				"z": -1.0153041828,
				"element": "C" 
			},
			{
				"x": 1.8479806054,
				"y": 0.3387826012,
				"z": -2.3636802659,
				"element": "C" 
			},
			{
				"x": 1.1130020852,
				"y": 1.3617715872,
				"z": -3.2213366048,
				"element": "C" 
			},
			{
				"x": -0.3980599761,
				"y": 1.117043605,
				"z": -3.469699519,
				"element": "C" 
			},
			{
				"x": -1.2499285784,
				"y": 1.3892472247,
				"z": -2.3156902591,
				"element": "N" 
			},
			{
				"x": -2.6057050779,
				"y": 1.7851920625,
				"z": -2.6739136798,
				"element": "C" 
			},
			{
				"x": -1.2470506276,
				"y": 0.3117022961,
				"z": -1.3125743599,
				"element": "C" 
			},
			{
				"x": -1.3482396023,
				"y": 0.80118715,
				"z": 0.1253351309,
				"element": "C" 
			},
			{
				"x": -2.3264301202,
				"y": 0.2409175803,
				"z": 0.9665411473,
				"element": "C" 
			},
			{
				"x": -3.2328485491,
				"y": -0.6678834972,
				"z": 0.4503861192,
				"element": "O" 
			},
			{
				"x": -3.0387796894,
				"y": -2.0186356917,
				"z": 0.8866622966,
				"element": "C" 
			},
			{
				"x": 2.21216521,
				"y": -0.8530167672,
				"z": -3.0366669138,
				"element": "C" 
			},
			{
				"x": 2.9344309814,
				"y": -1.8096306462,
				"z": -2.3583464804,
				"element": "C" 
			},
			{
				"x": 3.3678806429,
				"y": -3.0279377947,
				"z": -2.8063747603,
				"element": "O" 
			},
			{
				"x": 4.1786204074,
				"y": -3.5675822625,
				"z": -1.7495124288,
				"element": "C" 
			},
			{
				"x": 4.0402270311,
				"y": -2.7191281637,
				"z": -0.6070484881,
				"element": "O" 
			},
			{
				"x": 3.338886443,
				"y": -1.6173207274,
				"z": -1.0396835082,
				"element": "C" 
			},
			{
				"x": 3.0235240113,
				"y": -0.4698208965,
				"z": -0.3579080584,
				"element": "C" 
			},
			{
				"x": -5.3445155558,
				"y": -0.0361942901,
				"z": 3.6255299768,
				"element": "H" 
			},
			{
				"x": -4.8146090869,
				"y": 1.5650228027,
				"z": 3.041907734,
				"element": "H" 
			},
			{
				"x": -5.0362247243,
				"y": 0.2194238123,
				"z": 1.8828399985,
				"element": "H" 
			},
			{
				"x": -1.5970129518,
				"y": 1.7988798189,
				"z": 3.8941573924,
				"element": "H" 
			},
			{
				"x": 0.1617771088,
				"y": 2.8058031217,
				"z": 2.4323785563,
				"element": "H" 
			},
			{
				"x": 0.810242407,
				"y": 3.4364538745,
				"z": 0.2548076967,
				"element": "H" 
			},
			{
				"x": 0.216858533,
				"y": 2.5728599975,
				"z": -1.1822999731,
				"element": "H" 
			},
			{
				"x": 1.2515276014,
				"y": 2.3757981508,
				"z": -2.8425585769,
				"element": "H" 
			},
			{
				"x": 1.5895565491,
				"y": 1.3473894874,
				"z": -4.2091654021,
				"element": "H" 
			},
			{
				"x": -0.541872062,
				"y": 0.0944753172,
				"z": -3.8693870788,
				"element": "H" 
			},
			{
				"x": -0.702355896,
				"y": 1.8040228669,
				"z": -4.2669932666,
				"element": "H" 
			},
			{
				"x": -3.1629171826,
				"y": 2.0273925344,
				"z": -1.7641504493,
				"element": "H" 
			},
			{
				"x": -2.5829813523,
				"y": 2.6799190799,
				"z": -3.3044442586,
				"element": "H" 
			},
			{
				"x": -3.165341318,
				"y": 0.9959784292,
				"z": -3.2107156599,
				"element": "H" 
			},
			{
				"x": -0.3154571402,
				"y": -0.2478895472,
				"z": -1.4168464942,
				"element": "H" 
			},
			{
				"x": -2.0617560456,
				"y": -0.3999211135,
				"z": -1.5035327908,
				"element": "H" 
			},
			{
				"x": -3.1206113389,
				"y": -2.0973489341,
				"z": 1.9747837376,
				"element": "H" 
			},
			{
				"x": -2.0601330802,
				"y": -2.3965073306,
				"z": 0.564263143,
				"element": "H" 
			},
			{
				"x": -3.8261247034,
				"y": -2.6096506133,
				"z": 0.4135228666,
				"element": "H" 
			},
			{
				"x": 1.9429456599,
				"y": -1.0021959922,
				"z": -4.0771395006,
				"element": "H" 
			},
			{
				"x": 3.8281212874,
				"y": -4.5752918762,
				"z": -1.5041650941,
				"element": "H" 
			},
			{
				"x": 5.2284454271,
				"y": -3.5869195896,
				"z": -2.0726750844,
				"element": "H" 
			},
			{
				"x": 3.3469261645,
				"y": -0.2963127556,
				"z": 0.660585312,
				"element": "H" 
			}
		],
		 "valence_orbital": [ 
			{
				"type": "occ",
				"energy": -0.24395,
				"method": "rhf"
			},
			{
				"type": "occ",
				"energy": -0.23236,
				"method": "rhf"
			},
			{
				"type": "occ",
				"energy": -0.21849,
				"method": "rhf"
			},
			{
				"type": "occ",
				"energy": -0.21474,
				"method": "rhf"
			},
			{
				"type": "occ",
				"energy": -0.2065,
				"method": "rhf"
			},
			{
				"type": "unocc",
				"energy": -0.04149,
				"method": "rhf"
			},
			{
				"type": "unocc",
				"energy": -0.00679,
				"method": "rhf"
			},
			{
				"type": "unocc",
				"energy": -0.00079,
				"method": "rhf"
			},
			{
				"type": "unocc",
				"energy": 0.00678,
				"method": "rhf"
			},
			{
				"type": "unocc",
				"energy": 0.04337,
				"method": "rhf"
			}
		],
		"cosmo_sigma_profile": { 
			"-0.025": 0.0,
			"-0.024": 0.0,
			"-0.023": 0.0,
			"-0.022": 0.0,
			"-0.021": 0.0,
			"-0.02": 0.0,
			"-0.019": 0.0,
			"-0.018": 0.0,
			"-0.017": 0.0,
			"-0.016": 0.0,
			"-0.015": 0.0,
			"-0.014": 0.0,
			"-0.013": 0.0,
			"-0.012": 0.0,
			"-0.011": 0.0,
			"-0.01": 0.0,
			"-0.009": 0.1504213012,
			"-0.008": 4.10402645405,
			"-0.007": 8.53960684276,
			"-0.006": 12.4729705483,
			"-0.005": 21.6246337844,
			"-0.004": 32.6871120019,
			"-0.003": 38.3893797223,
			"-0.002": 48.6648094304,
			"-0.001": 43.5868194796,
			"0.0": 35.0668377122,
			"0.001": 24.163095012,
			"0.002": 24.8598379717,
			"0.003": 21.6646210473,
			"0.004": 17.7161155939,
			"0.005": 14.5828022843,
			"0.006": 8.96730734463,
			"0.007": 6.07843122763,
			"0.008": 6.43871902245,
			"0.009": 6.71798706415,
			"0.01": 3.86938208993,
			"0.011": 4.37657190504,
			"0.012": 4.90396692729,
			"0.013": 1.89736394026,
			"0.014": 0.161862953465,
			"0.015": 0.0,
			"0.016": 0.0,
			"0.017": 0.0,
			"0.018": 0.0,
			"0.019": 0.0,
			"0.02": 0.0,
			"0.021": 0.0,
			"0.022": 0.0,
			"0.023": 0.0,
			"0.024": 0.0,
			"0.025": 0.0
		}
	}
}
