{
	 "smiles": "FC1=C(F)C=C2N=C(Cl)C=NC2=C1", 
	 "Tm": 365.15, 
	 "num_atms": 16, 
	 "gaussian": { 
		 "optdone": 1, 
		 "sigma_profile": "yes", 
		 "theory": "DFT", 
		 "functional": "B3LYP", 
		 "basiset": "6-31G**", 
		 "properties": { 
			 "R2extent": 3459.2514, 
			 "electric_dipole_moment_norm": 0.7826244885, 
			 "electric_quadrupole_moment_norm": 4.5104453749, 
			 "total_energy": -1076.01181158, 
			 "HOMO_LUMO_gap": 0.17233, 
			 "cosmo_polarized_energy": -5.72, 
			 "cosmo_cavitation_energy": 24.16, 
			 "cosmo_dispersion_energy": -18.03, 
			 "cosmo_repulsion_energy": 1.36, 
			 "cosmo_total_nonelectrostatic_energy": 7.49, 
			 "SMD_solvation_energy": 1.8 
		},
		"coords": [
			{
				"x": 2.4823235516,
				"y": 2.2398284589,
				"z": 1.7690061912,
				"element": "F" 
			},
			{
				"x": 1.8697209347,
				"y": 1.4119285452,
				"z": 0.9134018923,
				"element": "C" 
			},
			{
				"x": 2.0698487277,
				"y": 0.0177521284,
				"z": 1.0903313151,
				"element": "C" 
			},
			{
				"x": 2.8570684,
				"y": -0.3716166,
				"z": 2.1002771715,
				"element": "F" 
			},
			{
				"x": 1.4795161074,
				"y": -0.8973648376,
				"z": 0.2585827496,
				"element": "C" 
			},
			{
				"x": 0.6547148657,
				"y": -0.4319932591,
				"z": -0.7960030103,
				"element": "C" 
			},
			{
				"x": 0.0618326016,
				"y": -1.3336921201,
				"z": -1.6302229873,
				"element": "N" 
			},
			{
				"x": -0.682158069,
				"y": -0.8433453695,
				"z": -2.5771269946,
				"element": "C" 
			},
			{
				"x": -1.4708188062,
				"y": -1.9580807848,
				"z": -3.6814116613,
				"element": "Cl" 
			},
			{
				"x": -0.8961017594,
				"y": 0.5533308924,
				"z": -2.7720507416,
				"element": "C" 
			},
			{
				"x": -0.3373790215,
				"y": 1.4414920396,
				"z": -1.9835477771,
				"element": "N" 
			},
			{
				"x": 0.4519552014,
				"y": 0.9721852495,
				"z": -0.9757753883,
				"element": "C" 
			},
			{
				"x": 1.078282549,
				"y": 1.8915225507,
				"z": -0.0965193659,
				"element": "C" 
			},
			{
				"x": 1.6345541733,
				"y": -1.9607217989,
				"z": 0.3966575467,
				"element": "H" 
			},
			{
				"x": -1.5297515217,
				"y": 0.9037635547,
				"z": -3.5825738238,
				"element": "H" 
			},
			{
				"x": 0.9262920657,
				"y": 2.9559113507,
				"z": -0.2305251161,
				"element": "H" 
			}
		],
		 "valence_orbital": [ 
			{
				"type": "occ",
				"energy": -0.32771,
				"method": "rhf"
			},
			{
				"type": "occ",
				"energy": -0.32299,
				"method": "rhf"
			},
			{
				"type": "occ",
				"energy": -0.27587,
				"method": "rhf"
			},
			{
				"type": "occ",
				"energy": -0.26966,
				"method": "rhf"
			},
			{
				"type": "occ",
				"energy": -0.2628,
				"method": "rhf"
			},
			{
				"type": "unocc",
				"energy": -0.09047,
				"method": "rhf"
			},
			{
				"type": "unocc",
				"energy": -0.04369,
				"method": "rhf"
			},
			{
				"type": "unocc",
				"energy": -0.01592,
				"method": "rhf"
			},
			{
				"type": "unocc",
				"energy": 0.02123,
				"method": "rhf"
			},
			{
				"type": "unocc",
				"energy": 0.06258,
				"method": "rhf"
			}
		],
		"cosmo_sigma_profile": { 
			"-0.025": 0.0,
			"-0.024": 0.0,
			"-0.023": 0.0,
			"-0.022": 0.0,
			"-0.021": 0.0,
			"-0.02": 0.0,
			"-0.019": 0.0,
			"-0.018": 0.0,
			"-0.017": 0.0,
			"-0.016": 0.0,
			"-0.015": 0.0,
			"-0.014": 0.0,
			"-0.013": 0.0,
			"-0.012": 0.0,
			"-0.011": 0.0,
			"-0.01": 0.112473561827,
			"-0.009": 4.15992191426,
			"-0.008": 3.65500968036,
			"-0.007": 4.62494510799,
			"-0.006": 4.9099684675,
			"-0.005": 5.94026173294,
			"-0.004": 10.4172497428,
			"-0.003": 19.3206973815,
			"-0.002": 20.0268002804,
			"-0.001": 20.3216888154,
			"0.0": 17.6203851305,
			"0.001": 13.348702987,
			"0.002": 16.3386302207,
			"0.003": 30.89293084,
			"0.004": 10.1465172034,
			"0.005": 3.34966694053,
			"0.006": 2.89765394215,
			"0.007": 1.771233813,
			"0.008": 2.26240136265,
			"0.009": 1.57028524514,
			"0.01": 1.51971601379,
			"0.011": 2.06961983799,
			"0.012": 1.02677839759,
			"0.013": 0.634471755963,
			"0.014": 0.0758605266047,
			"0.015": 0.0,
			"0.016": 0.0,
			"0.017": 0.0,
			"0.018": 0.0,
			"0.019": 0.0,
			"0.02": 0.0,
			"0.021": 0.0,
			"0.022": 0.0,
			"0.023": 0.0,
			"0.024": 0.0,
			"0.025": 0.0
		}
	}
}
