{
	 "smiles": "CC1=CC=C2C=CC=NC2=C1[N+]([O-])=O", 
	 "Tm": 458.65, 
	 "num_atms": 22, 
	 "gaussian": { 
		 "optdone": 1, 
		 "sigma_profile": "yes", 
		 "theory": "DFT", 
		 "functional": "B3LYP", 
		 "basiset": "6-31G**", 
		 "properties": { 
			 "R2extent": 3045.0915, 
			 "electric_dipole_moment_norm": 5.51082205574, 
			 "electric_quadrupole_moment_norm": 16.4553936328, 
			 "total_energy": -645.736000136, 
			 "HOMO_LUMO_gap": 0.17306, 
			 "cosmo_polarized_energy": -12.2, 
			 "cosmo_cavitation_energy": 27.05, 
			 "cosmo_dispersion_energy": -19.32, 
			 "cosmo_repulsion_energy": 1.49, 
			 "cosmo_total_nonelectrostatic_energy": 9.22, 
			 "SMD_solvation_energy": 5.93 
		},
		"coords": [
			{
				"x": -3.0614847931,
				"y": 0.7499781623,
				"z": 1.5691991347,
				"element": "C" 
			},
			{
				"x": -1.6856458573,
				"y": 0.2816473709,
				"z": 1.164755206,
				"element": "C" 
			},
			{
				"x": -0.5207919735,
				"y": 1.0108383963,
				"z": 1.5280029943,
				"element": "C" 
			},
			{
				"x": 0.7393900423,
				"y": 0.5940034664,
				"z": 1.1650830896,
				"element": "C" 
			},
			{
				"x": 0.91771126,
				"y": -0.591245097,
				"z": 0.4076149846,
				"element": "C" 
			},
			{
				"x": 2.1819621607,
				"y": -1.0851881672,
				"z": -0.0039958018,
				"element": "C" 
			},
			{
				"x": 2.2456686665,
				"y": -2.2463209029,
				"z": -0.7370831817,
				"element": "C" 
			},
			{
				"x": 1.038452071,
				"y": -2.9172142688,
				"z": -1.0604025261,
				"element": "C" 
			},
			{
				"x": -0.1588567088,
				"y": -2.499777919,
				"z": -0.7021657671,
				"element": "N" 
			},
			{
				"x": -0.2307321338,
				"y": -1.351151061,
				"z": 0.0238042778,
				"element": "C" 
			},
			{
				"x": -1.5017928213,
				"y": -0.870134782,
				"z": 0.4278755715,
				"element": "C" 
			},
			{
				"x": -2.6847064581,
				"y": -1.6587889933,
				"z": 0.0287036447,
				"element": "N" 
			},
			{
				"x": -3.2147541403,
				"y": -1.3656645021,
				"z": -1.0376458226,
				"element": "O" 
			},
			{
				"x": -3.0652654828,
				"y": -2.5247340115,
				"z": 0.8092588433,
				"element": "O" 
			},
			{
				"x": -3.0058908016,
				"y": 1.6762267064,
				"z": 2.144639265,
				"element": "H" 
			},
			{
				"x": -3.6879764665,
				"y": 0.9279342408,
				"z": 0.6887699595,
				"element": "H" 
			},
			{
				"x": -3.5675550366,
				"y": -0.0054099485,
				"z": 2.1796237915,
				"element": "H" 
			},
			{
				"x": -0.643881681,
				"y": 1.9206647987,
				"z": 2.1082837152,
				"element": "H" 
			},
			{
				"x": 1.6129503372,
				"y": 1.1709946786,
				"z": 1.4563649397,
				"element": "H" 
			},
			{
				"x": 3.0821685797,
				"y": -0.5389844125,
				"z": 0.2658560285,
				"element": "H" 
			},
			{
				"x": 3.1950113222,
				"y": -2.6537598981,
				"z": -1.0690507382,
				"element": "H" 
			},
			{
				"x": 1.0733199149,
				"y": -3.8381138564,
				"z": -1.6405916083,
				"element": "H" 
			}
		],
		 "valence_orbital": [ 
			{
				"type": "occ",
				"energy": -0.29819,
				"method": "rhf"
			},
			{
				"type": "occ",
				"energy": -0.29179,
				"method": "rhf"
			},
			{
				"type": "occ",
				"energy": -0.26871,
				"method": "rhf"
			},
			{
				"type": "occ",
				"energy": -0.26522,
				"method": "rhf"
			},
			{
				"type": "occ",
				"energy": -0.24372,
				"method": "rhf"
			},
			{
				"type": "unocc",
				"energy": -0.07066,
				"method": "rhf"
			},
			{
				"type": "unocc",
				"energy": -0.06247,
				"method": "rhf"
			},
			{
				"type": "unocc",
				"energy": -0.03185,
				"method": "rhf"
			},
			{
				"type": "unocc",
				"energy": 0.00191,
				"method": "rhf"
			},
			{
				"type": "unocc",
				"energy": 0.0707,
				"method": "rhf"
			}
		],
		"cosmo_sigma_profile": { 
			"-0.025": 0.0,
			"-0.024": 0.0,
			"-0.023": 0.0,
			"-0.022": 0.0,
			"-0.021": 0.0,
			"-0.02": 0.0,
			"-0.019": 0.0,
			"-0.018": 0.0,
			"-0.017": 0.0,
			"-0.016": 0.0,
			"-0.015": 0.0,
			"-0.014": 0.0,
			"-0.013": 0.0,
			"-0.012": 0.0,
			"-0.011": 0.0,
			"-0.01": 0.0,
			"-0.009": 0.0241687883933,
			"-0.008": 3.99278146819,
			"-0.007": 12.4632746443,
			"-0.006": 13.7196295208,
			"-0.005": 14.9863817309,
			"-0.004": 14.2562251528,
			"-0.003": 14.2157688797,
			"-0.002": 14.9658832687,
			"-0.001": 15.8131850025,
			"0.0": 19.260745284,
			"0.001": 21.5959570973,
			"0.002": 14.1570406681,
			"0.003": 7.38743909196,
			"0.004": 6.0626259874,
			"0.005": 3.9653655998,
			"0.006": 9.05808427011,
			"0.007": 13.9486017303,
			"0.008": 9.13012191527,
			"0.009": 4.46664203706,
			"0.01": 1.632876217,
			"0.011": 1.1251529442,
			"0.012": 0.79817645468,
			"0.013": 0.0112400535929,
			"0.014": 0.0,
			"0.015": 0.0,
			"0.016": 0.0,
			"0.017": 0.0,
			"0.018": 0.0,
			"0.019": 0.0,
			"0.02": 0.0,
			"0.021": 0.0,
			"0.022": 0.0,
			"0.023": 0.0,
			"0.024": 0.0,
			"0.025": 0.0
		}
	}
}
