{
	 "smiles": "NS(=O)(=O)C1=C(Br)C(=CC(F)=C1)C(O)=O", 
	 "Tm": 481.15, 
	 "num_atms": 20, 
	 "gaussian": { 
		 "optdone": 1, 
		 "sigma_profile": "yes", 
		 "theory": "DFT", 
		 "functional": "B3LYP", 
		 "basiset": "6-31G**", 
		 "properties": { 
			 "R2extent": 4414.5046, 
			 "electric_dipole_moment_norm": 4.09034080487, 
			 "electric_quadrupole_moment_norm": 25.1408463189, 
			 "total_energy": -3694.74983022, 
			 "HOMO_LUMO_gap": 0.1997, 
			 "cosmo_polarized_energy": -22.54, 
			 "cosmo_cavitation_energy": 28.54, 
			 "cosmo_dispersion_energy": -22.0, 
			 "cosmo_repulsion_energy": 1.62, 
			 "cosmo_total_nonelectrostatic_energy": 8.15, 
			 "SMD_solvation_energy": 5.4 
		},
		"coords": [
			{
				"x": 3.3838486875,
				"y": -0.9814458473,
				"z": -0.7349326059,
				"element": "N" 
			},
			{
				"x": 2.4813049174,
				"y": 0.3208414226,
				"z": -1.2503011689,
				"element": "S" 
			},
			{
				"x": 2.0935542109,
				"y": 0.061330613,
				"z": -2.6306538749,
				"element": "O" 
			},
			{
				"x": 3.2382209418,
				"y": 1.5049714669,
				"z": -0.8540746069,
				"element": "O" 
			},
			{
				"x": 0.9562907619,
				"y": 0.3547250151,
				"z": -0.24089725,
				"element": "C" 
			},
			{
				"x": -0.0293566675,
				"y": -0.6457795397,
				"z": -0.2363265478,
				"element": "C" 
			},
			{
				"x": 0.2297319205,
				"y": -2.197388123,
				"z": -1.349445744,
				"element": "Br" 
			},
			{
				"x": -1.1893867011,
				"y": -0.5042929614,
				"z": 0.5493950052,
				"element": "C" 
			},
			{
				"x": -1.337138211,
				"y": 0.6688296895,
				"z": 1.3058148002,
				"element": "C" 
			},
			{
				"x": -0.3555331486,
				"y": 1.6423790561,
				"z": 1.2921298114,
				"element": "C" 
			},
			{
				"x": -0.5173787454,
				"y": 2.7484801556,
				"z": 2.0319003697,
				"element": "F" 
			},
			{
				"x": 0.7963235584,
				"y": 1.5050724175,
				"z": 0.530360035,
				"element": "C" 
			},
			{
				"x": -2.3741188261,
				"y": -1.456098452,
				"z": 0.7084392645,
				"element": "C" 
			},
			{
				"x": -2.2281428077,
				"y": -2.7573779637,
				"z": 0.4215106256,
				"element": "O" 
			},
			{
				"x": -3.423874611,
				"y": -1.0438902435,
				"z": 1.143246383,
				"element": "O" 
			},
			{
				"x": 3.7704643096,
				"y": -0.8640626799,
				"z": 0.1953643774,
				"element": "H" 
			},
			{
				"x": 2.954149918,
				"y": -1.8838327609,
				"z": -0.9086950307,
				"element": "H" 
			},
			{
				"x": -2.2392233957,
				"y": 0.7967187394,
				"z": 1.8914177537,
				"element": "H" 
			},
			{
				"x": 1.5577337103,
				"y": 2.2756455681,
				"z": 0.5209151144,
				"element": "H" 
			},
			{
				"x": -1.3550698223,
				"y": -2.9500255723,
				"z": 0.038933289,
				"element": "H" 
			}
		],
		 "valence_orbital": [ 
			{
				"type": "occ",
				"energy": -0.33085,
				"method": "rhf"
			},
			{
				"type": "occ",
				"energy": -0.3171,
				"method": "rhf"
			},
			{
				"type": "occ",
				"energy": -0.30482,
				"method": "rhf"
			},
			{
				"type": "occ",
				"energy": -0.29317,
				"method": "rhf"
			},
			{
				"type": "occ",
				"energy": -0.28419,
				"method": "rhf"
			},
			{
				"type": "unocc",
				"energy": -0.08449,
				"method": "rhf"
			},
			{
				"type": "unocc",
				"energy": -0.06792,
				"method": "rhf"
			},
			{
				"type": "unocc",
				"energy": -0.05127,
				"method": "rhf"
			},
			{
				"type": "unocc",
				"energy": 0.02043,
				"method": "rhf"
			},
			{
				"type": "unocc",
				"energy": 0.03838,
				"method": "rhf"
			}
		],
		"cosmo_sigma_profile": { 
			"-0.025": 0.0,
			"-0.024": 0.0,
			"-0.023": 0.0,
			"-0.022": 0.0,
			"-0.021": 0.0,
			"-0.02": 0.0,
			"-0.019": 0.0,
			"-0.018": 0.0,
			"-0.017": 0.140643535781,
			"-0.016": 1.17238817929,
			"-0.015": 1.35406268363,
			"-0.014": 2.62828565808,
			"-0.013": 3.69105107092,
			"-0.012": 3.30516943363,
			"-0.011": 3.33996667941,
			"-0.01": 3.71548752682,
			"-0.009": 3.69899047846,
			"-0.008": 6.0726538462,
			"-0.007": 7.73718251562,
			"-0.006": 9.70851467516,
			"-0.005": 10.3203939411,
			"-0.004": 11.2063436495,
			"-0.003": 19.1800240395,
			"-0.002": 22.8331710228,
			"-0.001": 12.6367585892,
			"0.0": 9.00989406272,
			"0.001": 7.64437183578,
			"0.002": 8.77184647152,
			"0.003": 13.8210875485,
			"0.004": 5.82064490986,
			"0.005": 6.86790289778,
			"0.006": 6.81799149323,
			"0.007": 7.33177519253,
			"0.008": 7.34432881253,
			"0.009": 10.7351189995,
			"0.01": 14.7815321042,
			"0.011": 9.15216360433,
			"0.012": 1.82160366967,
			"0.013": 0.131487183756,
			"0.014": 0.0,
			"0.015": 0.0,
			"0.016": 0.0,
			"0.017": 0.0,
			"0.018": 0.0,
			"0.019": 0.0,
			"0.02": 0.0,
			"0.021": 0.0,
			"0.022": 0.0,
			"0.023": 0.0,
			"0.024": 0.0,
			"0.025": 0.0
		}
	}
}
