{
	 "smiles": "CC1CNC2=C(C=CC=C2)C(=O)N1", 
	 "Tm": 463.15, 
	 "num_atms": 25, 
	 "gaussian": { 
		 "optdone": 1, 
		 "sigma_profile": "yes", 
		 "theory": "DFT", 
		 "functional": "B3LYP", 
		 "basiset": "6-31G**", 
		 "properties": { 
			 "R2extent": 3143.6407, 
			 "electric_dipole_moment_norm": 4.97800405484, 
			 "electric_quadrupole_moment_norm": 17.5520436588, 
			 "total_energy": -573.040459272, 
			 "HOMO_LUMO_gap": 0.17986, 
			 "cosmo_polarized_energy": -15.22, 
			 "cosmo_cavitation_energy": 26.95, 
			 "cosmo_dispersion_energy": -20.16, 
			 "cosmo_repulsion_energy": 1.58, 
			 "cosmo_total_nonelectrostatic_energy": 8.37, 
			 "SMD_solvation_energy": 4.18 
		},
		"coords": [
			{
				"x": 2.1045039919,
				"y": -1.7177739655,
				"z": -1.2235218001,
				"element": "C" 
			},
			{
				"x": 0.816803963,
				"y": -2.5249501277,
				"z": -1.4416034731,
				"element": "C" 
			},
			{
				"x": -0.0061565613,
				"y": -2.6897194987,
				"z": -0.160996137,
				"element": "C" 
			},
			{
				"x": -0.2904091318,
				"y": -1.4248802404,
				"z": 0.4881200365,
				"element": "N" 
			},
			{
				"x": -1.2281613066,
				"y": -0.5213166382,
				"z": 0.0013373695,
				"element": "C" 
			},
			{
				"x": -1.5651741913,
				"y": -0.3590592246,
				"z": -1.3682959187,
				"element": "C" 
			},
			{
				"x": -2.5367162748,
				"y": 0.6113204277,
				"z": -1.6948682559,
				"element": "C" 
			},
			{
				"x": -3.1458364121,
				"y": 1.4175976593,
				"z": -0.7477825986,
				"element": "C" 
			},
			{
				"x": -2.787328215,
				"y": 1.2680315796,
				"z": 0.5963617669,
				"element": "C" 
			},
			{
				"x": -1.8523090887,
				"y": 0.313219097,
				"z": 0.956648577,
				"element": "C" 
			},
			{
				"x": -1.0053096149,
				"y": -1.0569563064,
				"z": -2.5854259275,
				"element": "C" 
			},
			{
				"x": -1.4507678602,
				"y": -0.7832581368,
				"z": -3.7025351407,
				"element": "O" 
			},
			{
				"x": -0.0032273991,
				"y": -1.99687884,
				"z": -2.5241475154,
				"element": "N" 
			},
			{
				"x": 1.870686449,
				"y": -0.7065567029,
				"z": -0.8829516193,
				"element": "H" 
			},
			{
				"x": 2.740625001,
				"y": -2.1969359585,
				"z": -0.4705599152,
				"element": "H" 
			},
			{
				"x": 2.6730345826,
				"y": -1.6483445931,
				"z": -2.1556368093,
				"element": "H" 
			},
			{
				"x": 1.0927337479,
				"y": -3.5403746166,
				"z": -1.7562046026,
				"element": "H" 
			},
			{
				"x": 0.5738162519,
				"y": -3.2910639047,
				"z": 0.5451780796,
				"element": "H" 
			},
			{
				"x": -0.9243471672,
				"y": -3.2473469493,
				"z": -0.4029595152,
				"element": "H" 
			},
			{
				"x": -0.2785012111,
				"y": -1.4708200432,
				"z": 1.4966184192,
				"element": "H" 
			},
			{
				"x": -2.7798687214,
				"y": 0.7060488632,
				"z": -2.7463941343,
				"element": "H" 
			},
			{
				"x": -3.8834865076,
				"y": 2.1549163167,
				"z": -1.0476457199,
				"element": "H" 
			},
			{
				"x": -3.2438645489,
				"y": 1.8871901535,
				"z": 1.3637700532,
				"element": "H" 
			},
			{
				"x": -1.5861700959,
				"y": 0.1862060734,
				"z": 2.004051635,
				"element": "H" 
			},
			{
				"x": 0.2460303206,
				"y": -2.2862944238,
				"z": -3.4611568541,
				"element": "H" 
			}
		],
		 "valence_orbital": [ 
			{
				"type": "occ",
				"energy": -0.29816,
				"method": "rhf"
			},
			{
				"type": "occ",
				"energy": -0.24645,
				"method": "rhf"
			},
			{
				"type": "occ",
				"energy": -0.23991,
				"method": "rhf"
			},
			{
				"type": "occ",
				"energy": -0.2371,
				"method": "rhf"
			},
			{
				"type": "occ",
				"energy": -0.20418,
				"method": "rhf"
			},
			{
				"type": "unocc",
				"energy": -0.02432,
				"method": "rhf"
			},
			{
				"type": "unocc",
				"energy": 0.01235,
				"method": "rhf"
			},
			{
				"type": "unocc",
				"energy": 0.05522,
				"method": "rhf"
			},
			{
				"type": "unocc",
				"energy": 0.07551,
				"method": "rhf"
			},
			{
				"type": "unocc",
				"energy": 0.09079,
				"method": "rhf"
			}
		],
		"cosmo_sigma_profile": { 
			"-0.025": 0.0,
			"-0.024": 0.0,
			"-0.023": 0.0,
			"-0.022": 0.0,
			"-0.021": 0.0,
			"-0.02": 0.0,
			"-0.019": 0.0,
			"-0.018": 0.0,
			"-0.017": 0.0,
			"-0.016": 0.0,
			"-0.015": 0.0,
			"-0.014": 0.0577248226797,
			"-0.013": 1.71640209259,
			"-0.012": 2.61407576183,
			"-0.011": 2.20264792676,
			"-0.01": 3.09018263268,
			"-0.009": 2.77666649435,
			"-0.008": 2.2453461862,
			"-0.007": 3.27888177744,
			"-0.006": 7.97593598913,
			"-0.005": 14.3531296721,
			"-0.004": 17.6574247005,
			"-0.003": 19.0262327344,
			"-0.002": 16.0062625866,
			"-0.001": 14.8019066477,
			"0.0": 14.5011301301,
			"0.001": 13.2957615959,
			"0.002": 12.025617576,
			"0.003": 10.2260182895,
			"0.004": 12.563963277,
			"0.005": 12.4062662454,
			"0.006": 9.92135540368,
			"0.007": 2.84511726615,
			"0.008": 1.38306544871,
			"0.009": 1.51188096594,
			"0.01": 1.13076234699,
			"0.011": 1.69634278622,
			"0.012": 1.22269406788,
			"0.013": 2.24543451977,
			"0.014": 4.37378572214,
			"0.015": 3.32177269152,
			"0.016": 0.0290114911105,
			"0.017": 0.0,
			"0.018": 0.0,
			"0.019": 0.0,
			"0.02": 0.0,
			"0.021": 0.0,
			"0.022": 0.0,
			"0.023": 0.0,
			"0.024": 0.0,
			"0.025": 0.0
		}
	}
}
