{
	 "smiles": "OC(CCN1CCCC1)(C1CCCCC1)C1=CC=CC=C1", 
	 "Tm": 359.15, 
	 "num_atms": 50, 
	 "gaussian": { 
		 "optdone": 1, 
		 "sigma_profile": "yes", 
		 "theory": "DFT", 
		 "functional": "B3LYP", 
		 "basiset": "6-31G**", 
		 "properties": { 
			 "R2extent": 7543.3778, 
			 "electric_dipole_moment_norm": 2.0453939205, 
			 "electric_quadrupole_moment_norm": 6.07118337559, 
			 "total_energy": -871.467315227, 
			 "HOMO_LUMO_gap": 0.21182, 
			 "cosmo_polarized_energy": -10.02, 
			 "cosmo_cavitation_energy": 46.08, 
			 "cosmo_dispersion_energy": -31.48, 
			 "cosmo_repulsion_energy": 2.44, 
			 "cosmo_total_nonelectrostatic_energy": 17.04, 
			 "SMD_solvation_energy": 3.4 
		},
		"coords": [
			{
				"x": -1.1078931169,
				"y": -1.478275103,
				"z": -0.2099346341,
				"element": "O" 
			},
			{
				"x": -0.0533607077,
				"y": -0.5049519271,
				"z": -0.10262456,
				"element": "C" 
			},
			{
				"x": -0.6743513139,
				"y": 0.7589100123,
				"z": 0.5612527101,
				"element": "C" 
			},
			{
				"x": 0.2326259483,
				"y": 1.9777019555,
				"z": 0.7705481054,
				"element": "C" 
			},
			{
				"x": -0.4910777286,
				"y": 3.052265056,
				"z": 1.4684757514,
				"element": "N" 
			},
			{
				"x": 0.390869271,
				"y": 4.0349840871,
				"z": 2.11456674,
				"element": "C" 
			},
			{
				"x": 0.7932103461,
				"y": 5.0678890095,
				"z": 1.0273505842,
				"element": "C" 
			},
			{
				"x": -0.3787450841,
				"y": 5.004607997,
				"z": 0.0108328328,
				"element": "C" 
			},
			{
				"x": -1.3083076277,
				"y": 3.8871830937,
				"z": 0.5726694066,
				"element": "C" 
			},
			{
				"x": 0.53778514,
				"y": -0.2465651217,
				"z": -1.5256903021,
				"element": "C" 
			},
			{
				"x": -0.4834942408,
				"y": 0.3430599077,
				"z": -2.5184980965,
				"element": "C" 
			},
			{
				"x": 0.194850094,
				"y": 0.7695663147,
				"z": -3.8420722012,
				"element": "C" 
			},
			{
				"x": 1.356290177,
				"y": -0.1708848931,
				"z": -4.2439134968,
				"element": "C" 
			},
			{
				"x": 1.1382315848,
				"y": -1.573889975,
				"z": -3.6666657327,
				"element": "C" 
			},
			{
				"x": 1.1487639235,
				"y": -1.5472284789,
				"z": -2.1220702886,
				"element": "C" 
			},
			{
				"x": 0.9867122951,
				"y": -1.1174647164,
				"z": 0.8475505127,
				"element": "C" 
			},
			{
				"x": 2.3099564696,
				"y": -0.6522747304,
				"z": 0.8978187528,
				"element": "C" 
			},
			{
				"x": 3.2269759834,
				"y": -1.1852301167,
				"z": 1.8055165462,
				"element": "C" 
			},
			{
				"x": 2.840045235,
				"y": -2.1984858582,
				"z": 2.6829327934,
				"element": "C" 
			},
			{
				"x": 1.5280469678,
				"y": -2.6711415477,
				"z": 2.6413758291,
				"element": "C" 
			},
			{
				"x": 0.611663329,
				"y": -2.1361530317,
				"z": 1.7347832615,
				"element": "C" 
			},
			{
				"x": -1.8662580385,
				"y": -1.0372413286,
				"z": -0.6128833704,
				"element": "H" 
			},
			{
				"x": -1.0647120512,
				"y": 0.4552690437,
				"z": 1.5375635325,
				"element": "H" 
			},
			{
				"x": -1.5452772141,
				"y": 1.0626649016,
				"z": -0.0351190068,
				"element": "H" 
			},
			{
				"x": 0.6601263268,
				"y": 2.3094404569,
				"z": -0.1933984004,
				"element": "H" 
			},
			{
				"x": 1.0755166528,
				"y": 1.6838415663,
				"z": 1.4025547424,
				"element": "H" 
			},
			{
				"x": 1.2424337027,
				"y": 3.5402571332,
				"z": 2.5894762746,
				"element": "H" 
			},
			{
				"x": -0.1807170979,
				"y": 4.5369146535,
				"z": 2.9065125374,
				"element": "H" 
			},
			{
				"x": 0.9360356463,
				"y": 6.0685454227,
				"z": 1.4463159871,
				"element": "H" 
			},
			{
				"x": 1.7366679715,
				"y": 4.7812127156,
				"z": 0.5517738909,
				"element": "H" 
			},
			{
				"x": -0.9100353624,
				"y": 5.957191292,
				"z": -0.0757023676,
				"element": "H" 
			},
			{
				"x": -0.016138462,
				"y": 4.7510776693,
				"z": -0.9900827638,
				"element": "H" 
			},
			{
				"x": -1.7769710686,
				"y": 3.2833064015,
				"z": -0.2090379637,
				"element": "H" 
			},
			{
				"x": -2.1175784366,
				"y": 4.3369540137,
				"z": 1.1616216755,
				"element": "H" 
			},
			{
				"x": 1.3359944499,
				"y": 0.4997140474,
				"z": -1.4209176357,
				"element": "H" 
			},
			{
				"x": -1.2514752015,
				"y": -0.4134886527,
				"z": -2.7273302845,
				"element": "H" 
			},
			{
				"x": -1.0061796634,
				"y": 1.2069677632,
				"z": -2.0947698693,
				"element": "H" 
			},
			{
				"x": 0.5685928609,
				"y": 1.7964618164,
				"z": -3.7480577265,
				"element": "H" 
			},
			{
				"x": -0.5617430669,
				"y": 0.7920784479,
				"z": -4.6355110619,
				"element": "H" 
			},
			{
				"x": 2.3070750867,
				"y": 0.224047631,
				"z": -3.8621246281,
				"element": "H" 
			},
			{
				"x": 1.4566087953,
				"y": -0.2046113544,
				"z": -5.3346174789,
				"element": "H" 
			},
			{
				"x": 1.9048991324,
				"y": -2.2676712036,
				"z": -4.0298632091,
				"element": "H" 
			},
			{
				"x": 0.1791768413,
				"y": -1.9649781282,
				"z": -4.0315349271,
				"element": "H" 
			},
			{
				"x": 0.5887834954,
				"y": -2.40440732,
				"z": -1.7359697754,
				"element": "H" 
			},
			{
				"x": 2.1770119226,
				"y": -1.6571394178,
				"z": -1.7625501365,
				"element": "H" 
			},
			{
				"x": 2.6407275754,
				"y": 0.1292303973,
				"z": 0.2208663658,
				"element": "H" 
			},
			{
				"x": 4.2461184514,
				"y": -0.8086360657,
				"z": 1.8212493451,
				"element": "H" 
			},
			{
				"x": 3.5534572873,
				"y": -2.6159282163,
				"z": 3.3878244952,
				"element": "H" 
			},
			{
				"x": 1.2133079472,
				"y": -3.4628404226,
				"z": 3.3160089821,
				"element": "H" 
			},
			{
				"x": -0.4042454279,
				"y": -2.5101551969,
				"z": 1.7000982629,
				"element": "H" 
			}
		],
		 "valence_orbital": [ 
			{
				"type": "occ",
				"energy": -0.28669,
				"method": "rhf"
			},
			{
				"type": "occ",
				"energy": -0.26681,
				"method": "rhf"
			},
			{
				"type": "occ",
				"energy": -0.24112,
				"method": "rhf"
			},
			{
				"type": "occ",
				"energy": -0.23431,
				"method": "rhf"
			},
			{
				"type": "occ",
				"energy": -0.20808,
				"method": "rhf"
			},
			{
				"type": "unocc",
				"energy": 0.00374,
				"method": "rhf"
			},
			{
				"type": "unocc",
				"energy": 0.00707,
				"method": "rhf"
			},
			{
				"type": "unocc",
				"energy": 0.05635,
				"method": "rhf"
			},
			{
				"type": "unocc",
				"energy": 0.07502,
				"method": "rhf"
			},
			{
				"type": "unocc",
				"energy": 0.08883,
				"method": "rhf"
			}
		],
		"cosmo_sigma_profile": { 
			"-0.025": 0.0,
			"-0.024": 0.0,
			"-0.023": 0.0,
			"-0.022": 0.0,
			"-0.021": 0.0,
			"-0.02": 0.0,
			"-0.019": 0.0,
			"-0.018": 0.0,
			"-0.017": 0.0,
			"-0.016": 0.0,
			"-0.015": 0.0298074324295,
			"-0.014": 0.660567333443,
			"-0.013": 0.533190763945,
			"-0.012": 0.832498244866,
			"-0.011": 0.773102932564,
			"-0.01": 1.58041776266,
			"-0.009": 1.17919590312,
			"-0.008": 0.65998253684,
			"-0.007": 1.1923695983,
			"-0.006": 2.30181929194,
			"-0.005": 12.028642748,
			"-0.004": 16.7453770233,
			"-0.003": 25.8764753407,
			"-0.002": 52.7523858628,
			"-0.001": 61.45530446,
			"0.0": 50.6217292931,
			"0.001": 41.2955110525,
			"0.002": 23.0798437388,
			"0.003": 11.7901997649,
			"0.004": 10.7672615634,
			"0.005": 11.3990326102,
			"0.006": 10.5573245613,
			"0.007": 5.21800421129,
			"0.008": 2.81850753489,
			"0.009": 2.59889182112,
			"0.01": 1.97867065426,
			"0.011": 1.79847608971,
			"0.012": 0.982106113513,
			"0.013": 0.722444034522,
			"0.014": 0.46300360833,
			"0.015": 0.732732052302,
			"0.016": 0.521549600042,
			"0.017": 0.375509230043,
			"0.018": 0.0207111595612,
			"0.019": 0.0,
			"0.02": 0.0,
			"0.021": 0.0,
			"0.022": 0.0,
			"0.023": 0.0,
			"0.024": 0.0,
			"0.025": 0.0
		}
	}
}
