{
	 "smiles": "COC(=O)CC1=C(SC2=C1C(=O)NC(CCl)=N2)C(=O)OC", 
	 "Tm": 482.15, 
	 "num_atms": 32, 
	 "gaussian": { 
		 "optdone": 1, 
		 "sigma_profile": "yes", 
		 "theory": "DFT", 
		 "functional": "B3LYP", 
		 "basiset": "6-31G**", 
		 "properties": { 
			 "R2extent": 8578.1806, 
			 "electric_dipole_moment_norm": 2.72763438532, 
			 "electric_quadrupole_moment_norm": 19.1327733353, 
			 "total_energy": -1807.94735543, 
			 "HOMO_LUMO_gap": 0.1575, 
			 "cosmo_polarized_energy": -19.81, 
			 "cosmo_cavitation_energy": 40.96, 
			 "cosmo_dispersion_energy": -28.7, 
			 "cosmo_repulsion_energy": 2.19, 
			 "cosmo_total_nonelectrostatic_energy": 14.45, 
			 "SMD_solvation_energy": 8.16 
		},
		"coords": [
			{
				"x": -2.2774213728,
				"y": 1.8199207062,
				"z": -3.22323835,
				"element": "C" 
			},
			{
				"x": -1.426494845,
				"y": 1.1569727488,
				"z": -2.27399104,
				"element": "O" 
			},
			{
				"x": -0.5102661931,
				"y": 0.3222872557,
				"z": -2.8090135028,
				"element": "C" 
			},
			{
				"x": -0.3905636276,
				"y": 0.1278653426,
				"z": -3.9976978986,
				"element": "O" 
			},
			{
				"x": 0.3942574514,
				"y": -0.2892941373,
				"z": -1.7477581368,
				"element": "C" 
			},
			{
				"x": -0.2276571357,
				"y": -0.4783346324,
				"z": -0.3852512142,
				"element": "C" 
			},
			{
				"x": -1.1894088521,
				"y": -1.4148325683,
				"z": -0.0559249211,
				"element": "C" 
			},
			{
				"x": -1.6665645904,
				"y": -1.3657546195,
				"z": 1.6313261441,
				"element": "S" 
			},
			{
				"x": -0.5605258469,
				"y": -0.0633901943,
				"z": 1.9201801076,
				"element": "C" 
			},
			{
				"x": 0.1334923401,
				"y": 0.3002510115,
				"z": 0.7613392339,
				"element": "C" 
			},
			{
				"x": 1.1135830827,
				"y": 1.3717093032,
				"z": 0.8580091175,
				"element": "C" 
			},
			{
				"x": 1.8439739876,
				"y": 1.8242615455,
				"z": -0.0131364315,
				"element": "O" 
			},
			{
				"x": 1.1724157131,
				"y": 1.9055543686,
				"z": 2.1689387479,
				"element": "N" 
			},
			{
				"x": 0.4382397569,
				"y": 1.4670044819,
				"z": 3.2315190639,
				"element": "C" 
			},
			{
				"x": 0.5632464921,
				"y": 2.1928551512,
				"z": 4.5460311093,
				"element": "C" 
			},
			{
				"x": 2.2720826046,
				"y": 2.6338313343,
				"z": 4.9596403254,
				"element": "Cl" 
			},
			{
				"x": -0.4236736228,
				"y": 0.4928036724,
				"z": 3.1583596942,
				"element": "N" 
			},
			{
				"x": -1.8875642247,
				"y": -2.4141788589,
				"z": -0.8817044968,
				"element": "C" 
			},
			{
				"x": -2.7117209601,
				"y": -3.1954261225,
				"z": -0.4433488278,
				"element": "O" 
			},
			{
				"x": -1.5180040631,
				"y": -2.3571392092,
				"z": -2.1778415862,
				"element": "O" 
			},
			{
				"x": -2.1717490181,
				"y": -3.2891703889,
				"z": -3.057361409,
				"element": "C" 
			},
			{
				"x": -2.9497531408,
				"y": 2.4417125212,
				"z": -2.6321962386,
				"element": "H" 
			},
			{
				"x": -1.6859101645,
				"y": 2.4347803056,
				"z": -3.9061305281,
				"element": "H" 
			},
			{
				"x": -2.8436162657,
				"y": 1.0902949623,
				"z": -3.8074966672,
				"element": "H" 
			},
			{
				"x": 0.7433265952,
				"y": -1.2382270772,
				"z": -2.1559923904,
				"element": "H" 
			},
			{
				"x": 1.2531368988,
				"y": 0.3811998283,
				"z": -1.6451099377,
				"element": "H" 
			},
			{
				"x": 1.8723820132,
				"y": 2.6274976369,
				"z": 2.3063195021,
				"element": "H" 
			},
			{
				"x": 0.0032349684,
				"y": 3.1309931678,
				"z": 4.5235280067,
				"element": "H" 
			},
			{
				"x": 0.1727221498,
				"y": 1.5521940634,
				"z": 5.3338267702,
				"element": "H" 
			},
			{
				"x": -1.8008129887,
				"y": -3.050153087,
				"z": -4.0531394656,
				"element": "H" 
			},
			{
				"x": -3.2559743783,
				"y": -3.1668740175,
				"z": -3.0053545103,
				"element": "H" 
			},
			{
				"x": -1.9167127634,
				"y": -4.3157144945,
				"z": -2.7828302702,
				"element": "H" 
			}
		],
		 "valence_orbital": [ 
			{
				"type": "occ",
				"energy": -0.28847,
				"method": "rhf"
			},
			{
				"type": "occ",
				"energy": -0.28139,
				"method": "rhf"
			},
			{
				"type": "occ",
				"energy": -0.27758,
				"method": "rhf"
			},
			{
				"type": "occ",
				"energy": -0.26407,
				"method": "rhf"
			},
			{
				"type": "occ",
				"energy": -0.2386,
				"method": "rhf"
			},
			{
				"type": "unocc",
				"energy": -0.0811,
				"method": "rhf"
			},
			{
				"type": "unocc",
				"energy": -0.03892,
				"method": "rhf"
			},
			{
				"type": "unocc",
				"energy": -0.02104,
				"method": "rhf"
			},
			{
				"type": "unocc",
				"energy": 0.00811,
				"method": "rhf"
			},
			{
				"type": "unocc",
				"energy": 0.01311,
				"method": "rhf"
			}
		],
		"cosmo_sigma_profile": { 
			"-0.025": 0.0,
			"-0.024": 0.0,
			"-0.023": 0.0,
			"-0.022": 0.0,
			"-0.021": 0.0,
			"-0.02": 0.0,
			"-0.019": 0.0,
			"-0.018": 0.0,
			"-0.017": 0.0,
			"-0.016": 0.00790028000471,
			"-0.015": 0.310774261805,
			"-0.014": 0.954322382958,
			"-0.013": 0.847721016039,
			"-0.012": 1.30351873556,
			"-0.011": 1.55785052265,
			"-0.01": 4.60537504832,
			"-0.009": 5.03282727751,
			"-0.008": 4.22337883062,
			"-0.007": 6.81157304119,
			"-0.006": 16.9915867085,
			"-0.005": 22.679007863,
			"-0.004": 27.3117178316,
			"-0.003": 30.9890733986,
			"-0.002": 24.6556070609,
			"-0.001": 23.1540382987,
			"0.0": 22.3708230848,
			"0.001": 22.4753420325,
			"0.002": 21.012587375,
			"0.003": 14.0472293554,
			"0.004": 13.2677304896,
			"0.005": 14.634025479,
			"0.006": 6.811117118,
			"0.007": 7.45187353639,
			"0.008": 4.1633332953,
			"0.009": 6.00565003029,
			"0.01": 6.3816254333,
			"0.011": 10.3634311766,
			"0.012": 9.8589026617,
			"0.013": 1.32497612515,
			"0.014": 0.0,
			"0.015": 0.0,
			"0.016": 0.0,
			"0.017": 0.0,
			"0.018": 0.0,
			"0.019": 0.0,
			"0.02": 0.0,
			"0.021": 0.0,
			"0.022": 0.0,
			"0.023": 0.0,
			"0.024": 0.0,
			"0.025": 0.0
		}
	}
}
