{
	 "smiles": "CC(=O)C1=CC=CC=C1C(F)(F)F", 
	 "Tm": 289.15, 
	 "num_atms": 20, 
	 "gaussian": { 
		 "optdone": 1, 
		 "sigma_profile": "yes", 
		 "theory": "DFT", 
		 "functional": "B3LYP", 
		 "basiset": "6-31G**", 
		 "properties": { 
			 "R2extent": 2854.7006, 
			 "electric_dipole_moment_norm": 2.90549671829, 
			 "electric_quadrupole_moment_norm": 12.1163340908, 
			 "total_energy": -721.923061704, 
			 "HOMO_LUMO_gap": 0.19159, 
			 "cosmo_polarized_energy": -6.93, 
			 "cosmo_cavitation_energy": 24.87, 
			 "cosmo_dispersion_energy": -17.86, 
			 "cosmo_repulsion_energy": 1.35, 
			 "cosmo_total_nonelectrostatic_energy": 8.35, 
			 "SMD_solvation_energy": 6.0 
		},
		"coords": [
			{
				"x": 2.4016459142,
				"y": 2.7138004306,
				"z": 1.1680532006,
				"element": "C" 
			},
			{
				"x": 2.7231253457,
				"y": 1.3575134023,
				"z": 0.5699845171,
				"element": "C" 
			},
			{
				"x": 3.8760289457,
				"y": 0.9668774857,
				"z": 0.5026170221,
				"element": "O" 
			},
			{
				"x": 1.6149626354,
				"y": 0.4033417444,
				"z": 0.1560702582,
				"element": "C" 
			},
			{
				"x": 1.8405543476,
				"y": -0.9344989247,
				"z": 0.5132074586,
				"element": "C" 
			},
			{
				"x": 0.9058001625,
				"y": -1.9301767521,
				"z": 0.2411376999,
				"element": "C" 
			},
			{
				"x": -0.2735319832,
				"y": -1.6065598327,
				"z": -0.4269383112,
				"element": "C" 
			},
			{
				"x": -0.5001846663,
				"y": -0.290975267,
				"z": -0.8270353182,
				"element": "C" 
			},
			{
				"x": 0.4268385511,
				"y": 0.7159714674,
				"z": -0.540047605,
				"element": "C" 
			},
			{
				"x": 0.1194903039,
				"y": 2.1063486657,
				"z": -1.0439576776,
				"element": "C" 
			},
			{
				"x": -0.3044008069,
				"y": 2.9295190966,
				"z": -0.053558629,
				"element": "F" 
			},
			{
				"x": -0.8513901969,
				"y": 2.1024295239,
				"z": -1.9806546364,
				"element": "F" 
			},
			{
				"x": 1.2052617848,
				"y": 2.6896603631,
				"z": -1.605678963,
				"element": "F" 
			},
			{
				"x": 1.4899241206,
				"y": 2.6903932367,
				"z": 1.7694636781,
				"element": "H" 
			},
			{
				"x": 3.2542020491,
				"y": 3.0213182954,
				"z": 1.7756128206,
				"element": "H" 
			},
			{
				"x": 2.253615367,
				"y": 3.4525760233,
				"z": 0.3765725199,
				"element": "H" 
			},
			{
				"x": 2.7720321648,
				"y": -1.173772104,
				"z": 1.0142755752,
				"element": "H" 
			},
			{
				"x": 1.1025246328,
				"y": -2.954284607,
				"z": 0.5438517101,
				"element": "H" 
			},
			{
				"x": -1.0091847593,
				"y": -2.3727072302,
				"z": -0.6513973126,
				"element": "H" 
			},
			{
				"x": -1.3962139124,
				"y": -0.0402750175,
				"z": -1.3820780075,
				"element": "H" 
			}
		],
		 "valence_orbital": [ 
			{
				"type": "occ",
				"energy": -0.36493,
				"method": "rhf"
			},
			{
				"type": "occ",
				"energy": -0.35394,
				"method": "rhf"
			},
			{
				"type": "occ",
				"energy": -0.27808,
				"method": "rhf"
			},
			{
				"type": "occ",
				"energy": -0.2751,
				"method": "rhf"
			},
			{
				"type": "occ",
				"energy": -0.25319,
				"method": "rhf"
			},
			{
				"type": "unocc",
				"energy": -0.0616,
				"method": "rhf"
			},
			{
				"type": "unocc",
				"energy": -0.02929,
				"method": "rhf"
			},
			{
				"type": "unocc",
				"energy": 0.01094,
				"method": "rhf"
			},
			{
				"type": "unocc",
				"energy": 0.0872,
				"method": "rhf"
			},
			{
				"type": "unocc",
				"energy": 0.11733,
				"method": "rhf"
			}
		],
		"cosmo_sigma_profile": { 
			"-0.025": 0.0,
			"-0.024": 0.0,
			"-0.023": 0.0,
			"-0.022": 0.0,
			"-0.021": 0.0,
			"-0.02": 0.0,
			"-0.019": 0.0,
			"-0.018": 0.0,
			"-0.017": 0.0,
			"-0.016": 0.0,
			"-0.015": 0.0,
			"-0.014": 0.0,
			"-0.013": 0.0,
			"-0.012": 0.0,
			"-0.011": 0.0,
			"-0.01": 0.0,
			"-0.009": 0.0,
			"-0.008": 0.325009297063,
			"-0.007": 5.51904116409,
			"-0.006": 9.57444388969,
			"-0.005": 14.2848055543,
			"-0.004": 13.8930772703,
			"-0.003": 14.6301123143,
			"-0.002": 15.7462159598,
			"-0.001": 18.423059771,
			"0.0": 16.630785193,
			"0.001": 18.7733598998,
			"0.002": 31.4325428717,
			"0.003": 19.6081074421,
			"0.004": 2.25954331683,
			"0.005": 1.9201770795,
			"0.006": 1.35845845128,
			"0.007": 2.02546563011,
			"0.008": 1.17393476185,
			"0.009": 1.62263352293,
			"0.01": 2.90235942157,
			"0.011": 3.72875163567,
			"0.012": 3.09834688952,
			"0.013": 0.423359905559,
			"0.014": 0.0,
			"0.015": 0.0,
			"0.016": 0.0,
			"0.017": 0.0,
			"0.018": 0.0,
			"0.019": 0.0,
			"0.02": 0.0,
			"0.021": 0.0,
			"0.022": 0.0,
			"0.023": 0.0,
			"0.024": 0.0,
			"0.025": 0.0
		}
	}
}
