{
	 "smiles": "CCC1(CCOCC1)C(O)=O", 
	 "Tm": 357.15, 
	 "num_atms": 25, 
	 "gaussian": { 
		 "optdone": 1, 
		 "sigma_profile": "yes", 
		 "theory": "DFT", 
		 "functional": "B3LYP", 
		 "basiset": "6-31G**", 
		 "properties": { 
			 "R2extent": 1864.0974, 
			 "electric_dipole_moment_norm": 2.38761757826, 
			 "electric_quadrupole_moment_norm": 5.73538875753, 
			 "total_energy": -538.963670964, 
			 "HOMO_LUMO_gap": 0.24341, 
			 "cosmo_polarized_energy": -10.22, 
			 "cosmo_cavitation_energy": 25.4, 
			 "cosmo_dispersion_energy": -18.79, 
			 "cosmo_repulsion_energy": 1.51, 
			 "cosmo_total_nonelectrostatic_energy": 8.12, 
			 "SMD_solvation_energy": 5.13 
		},
		"coords": [
			{
				"x": 0.2755922723,
				"y": -0.2431839616,
				"z": 3.2332151928,
				"element": "C" 
			},
			{
				"x": 0.4790172133,
				"y": 0.5478397904,
				"z": 1.9358044326,
				"element": "C" 
			},
			{
				"x": -0.0770164728,
				"y": -0.1057963552,
				"z": 0.6321943045,
				"element": "C" 
			},
			{
				"x": 0.6847839761,
				"y": -1.4053323853,
				"z": 0.277176927,
				"element": "C" 
			},
			{
				"x": -0.123720922,
				"y": -2.2840821593,
				"z": -0.6748862225,
				"element": "C" 
			},
			{
				"x": -1.379761342,
				"y": -2.702519249,
				"z": -0.1295647965,
				"element": "O" 
			},
			{
				"x": -1.8696862022,
				"y": -1.9052102386,
				"z": 0.9413881058,
				"element": "C" 
			},
			{
				"x": -1.6093666595,
				"y": -0.41300857,
				"z": 0.7292884434,
				"element": "C" 
			},
			{
				"x": 0.1621344204,
				"y": 0.918922008,
				"z": -0.4815208073,
				"element": "C" 
			},
			{
				"x": -0.6509991367,
				"y": 1.9997305204,
				"z": -0.3639689688,
				"element": "O" 
			},
			{
				"x": 0.9829640139,
				"y": 0.8369755035,
				"z": -1.3707345935,
				"element": "O" 
			},
			{
				"x": 0.766520635,
				"y": -1.2206341636,
				"z": 3.2101780099,
				"element": "H" 
			},
			{
				"x": 0.7013970272,
				"y": 0.3135588372,
				"z": 4.0741602313,
				"element": "H" 
			},
			{
				"x": -0.7841883954,
				"y": -0.4037878192,
				"z": 3.4540137007,
				"element": "H" 
			},
			{
				"x": 0.0092745414,
				"y": 1.531574435,
				"z": 2.044972788,
				"element": "H" 
			},
			{
				"x": 1.5523283445,
				"y": 0.7294882049,
				"z": 1.7920334676,
				"element": "H" 
			},
			{
				"x": 1.6415298533,
				"y": -1.1532124169,
				"z": -0.187168003,
				"element": "H" 
			},
			{
				"x": 0.8989603122,
				"y": -1.9718043058,
				"z": 1.1884786036,
				"element": "H" 
			},
			{
				"x": 0.4328240617,
				"y": -3.1954349744,
				"z": -0.9214337101,
				"element": "H" 
			},
			{
				"x": -0.2949764231,
				"y": -1.7415157111,
				"z": -1.6169028488,
				"element": "H" 
			},
			{
				"x": -2.9468336026,
				"y": -2.0970654418,
				"z": 0.9906839942,
				"element": "H" 
			},
			{
				"x": -1.4383083973,
				"y": -2.2367531802,
				"z": 1.8991288233,
				"element": "H" 
			},
			{
				"x": -2.1154138901,
				"y": -0.1115254899,
				"z": -0.1933232257,
				"element": "H" 
			},
			{
				"x": -2.0706084281,
				"y": 0.1687410244,
				"z": 1.5345033158,
				"element": "H" 
			},
			{
				"x": -0.4115467997,
				"y": 2.5947360981,
				"z": -1.0942171645,
				"element": "H" 
			}
		],
		 "valence_orbital": [ 
			{
				"type": "occ",
				"energy": -0.32471,
				"method": "rhf"
			},
			{
				"type": "occ",
				"energy": -0.31812,
				"method": "rhf"
			},
			{
				"type": "occ",
				"energy": -0.28683,
				"method": "rhf"
			},
			{
				"type": "occ",
				"energy": -0.27359,
				"method": "rhf"
			},
			{
				"type": "occ",
				"energy": -0.23784,
				"method": "rhf"
			},
			{
				"type": "unocc",
				"energy": 0.00557,
				"method": "rhf"
			},
			{
				"type": "unocc",
				"energy": 0.06925,
				"method": "rhf"
			},
			{
				"type": "unocc",
				"energy": 0.07951,
				"method": "rhf"
			},
			{
				"type": "unocc",
				"energy": 0.10972,
				"method": "rhf"
			},
			{
				"type": "unocc",
				"energy": 0.12065,
				"method": "rhf"
			}
		],
		"cosmo_sigma_profile": { 
			"-0.025": 0.0,
			"-0.024": 0.0,
			"-0.023": 0.0,
			"-0.022": 0.0,
			"-0.021": 0.0,
			"-0.02": 0.0,
			"-0.019": 0.0,
			"-0.018": 0.441464694556,
			"-0.017": 0.993982464404,
			"-0.016": 0.77339909937,
			"-0.015": 1.02529756519,
			"-0.014": 0.838828163439,
			"-0.013": 0.38098692474,
			"-0.012": 0.678605098149,
			"-0.011": 0.820494686424,
			"-0.01": 0.731033608797,
			"-0.009": 0.621303962256,
			"-0.008": 0.575261880106,
			"-0.007": 0.810588703035,
			"-0.006": 0.996422557619,
			"-0.005": 4.25945141968,
			"-0.004": 17.8444331501,
			"-0.003": 28.1678871994,
			"-0.002": 31.0916938766,
			"-0.001": 25.7053859108,
			"0.0": 17.1338756192,
			"0.001": 11.6728845718,
			"0.002": 5.87614459388,
			"0.003": 5.26695566901,
			"0.004": 4.25520775323,
			"0.005": 4.22306787682,
			"0.006": 4.00610881029,
			"0.007": 3.2684855955,
			"0.008": 3.78506080631,
			"0.009": 4.31772637291,
			"0.01": 2.3595258919,
			"0.011": 4.65494267379,
			"0.012": 5.04216145936,
			"0.013": 1.97522754021,
			"0.014": 1.62751615132,
			"0.015": 0.187343797886,
			"0.016": 0.0,
			"0.017": 0.0,
			"0.018": 0.0,
			"0.019": 0.0,
			"0.02": 0.0,
			"0.021": 0.0,
			"0.022": 0.0,
			"0.023": 0.0,
			"0.024": 0.0,
			"0.025": 0.0
		}
	}
}
