{
	 "smiles": "COC1=C(C(O)=O)C(C)=NN1C", 
	 "Tm": 446.15, 
	 "num_atms": 22, 
	 "gaussian": { 
		 "optdone": 1, 
		 "sigma_profile": "yes", 
		 "theory": "DFT", 
		 "functional": "B3LYP", 
		 "basiset": "6-31G**", 
		 "properties": { 
			 "R2extent": 2326.0416, 
			 "electric_dipole_moment_norm": 6.36045343116, 
			 "electric_quadrupole_moment_norm": 10.0237867296, 
			 "total_energy": -607.929929772, 
			 "HOMO_LUMO_gap": 0.23547, 
			 "cosmo_polarized_energy": -16.6, 
			 "cosmo_cavitation_energy": 26.06, 
			 "cosmo_dispersion_energy": -18.65, 
			 "cosmo_repulsion_energy": 1.49, 
			 "cosmo_total_nonelectrostatic_energy": 8.9, 
			 "SMD_solvation_energy": 5.45 
		},
		"coords": [
			{
				"x": -1.1755338275,
				"y": -1.1867597657,
				"z": -1.2205259749,
				"element": "C" 
			},
			{
				"x": -0.1711172643,
				"y": -0.1930967823,
				"z": -1.5380232731,
				"element": "O" 
			},
			{
				"x": 0.351228843,
				"y": 0.451885837,
				"z": -0.4573220557,
				"element": "C" 
			},
			{
				"x": 1.4562277048,
				"y": 0.1236875492,
				"z": 0.3215424224,
				"element": "C" 
			},
			{
				"x": 2.3447916515,
				"y": -1.0398578824,
				"z": 0.1853161735,
				"element": "C" 
			},
			{
				"x": 2.1476177656,
				"y": -1.8055571524,
				"z": -0.9268829018,
				"element": "O" 
			},
			{
				"x": 3.2015914023,
				"y": -1.3375159903,
				"z": 0.9880699962,
				"element": "O" 
			},
			{
				"x": 1.5334681456,
				"y": 1.18324294,
				"z": 1.2728625076,
				"element": "C" 
			},
			{
				"x": 2.5323160701,
				"y": 1.3639640124,
				"z": 2.3700567399,
				"element": "C" 
			},
			{
				"x": 0.5657479983,
				"y": 2.0753014515,
				"z": 1.0765773982,
				"element": "N" 
			},
			{
				"x": -0.1540736546,
				"y": 1.6143593133,
				"z": 0.0128233646,
				"element": "N" 
			},
			{
				"x": -1.2865337351,
				"y": 2.3696631536,
				"z": -0.4856756173,
				"element": "C" 
			},
			{
				"x": -0.7445711425,
				"y": -1.9768307477,
				"z": -0.5984011354,
				"element": "H" 
			},
			{
				"x": -2.0235245747,
				"y": -0.7271457897,
				"z": -0.7037731984,
				"element": "H" 
			},
			{
				"x": -1.5024422227,
				"y": -1.5983359889,
				"z": -2.1759052035,
				"element": "H" 
			},
			{
				"x": 1.508323024,
				"y": -1.3697918611,
				"z": -1.5158822295,
				"element": "H" 
			},
			{
				"x": 2.5147410112,
				"y": 0.5127815141,
				"z": 3.0565296599,
				"element": "H" 
			},
			{
				"x": 2.3123665104,
				"y": 2.2820641318,
				"z": 2.9189706152,
				"element": "H" 
			},
			{
				"x": 3.5489678578,
				"y": 1.4166127376,
				"z": 1.9687143095,
				"element": "H" 
			},
			{
				"x": -0.9925591818,
				"y": 3.4137393559,
				"z": -0.6098605114,
				"element": "H" 
			},
			{
				"x": -2.125399496,
				"y": 2.3179199862,
				"z": 0.214980012,
				"element": "H" 
			},
			{
				"x": -1.5834328853,
				"y": 1.9556699781,
				"z": -1.4501910977,
				"element": "H" 
			}
		],
		 "valence_orbital": [ 
			{
				"type": "occ",
				"energy": -0.30334,
				"method": "rhf"
			},
			{
				"type": "occ",
				"energy": -0.29098,
				"method": "rhf"
			},
			{
				"type": "occ",
				"energy": -0.26244,
				"method": "rhf"
			},
			{
				"type": "occ",
				"energy": -0.25388,
				"method": "rhf"
			},
			{
				"type": "occ",
				"energy": -0.25329,
				"method": "rhf"
			},
			{
				"type": "unocc",
				"energy": -0.01782,
				"method": "rhf"
			},
			{
				"type": "unocc",
				"energy": 0.01604,
				"method": "rhf"
			},
			{
				"type": "unocc",
				"energy": 0.05348,
				"method": "rhf"
			},
			{
				"type": "unocc",
				"energy": 0.09254,
				"method": "rhf"
			},
			{
				"type": "unocc",
				"energy": 0.10474,
				"method": "rhf"
			}
		],
		"cosmo_sigma_profile": { 
			"-0.025": 0.0,
			"-0.024": 0.0,
			"-0.023": 0.0,
			"-0.022": 0.0,
			"-0.021": 0.0,
			"-0.02": 0.0,
			"-0.019": 0.0,
			"-0.018": 0.0,
			"-0.017": 0.0,
			"-0.016": 0.0,
			"-0.015": 0.0,
			"-0.014": 0.0,
			"-0.013": 0.0,
			"-0.012": 0.068864216181,
			"-0.011": 0.678479217226,
			"-0.01": 1.56261186678,
			"-0.009": 1.4042434839,
			"-0.008": 1.09962326773,
			"-0.007": 7.5370701746,
			"-0.006": 18.3311129176,
			"-0.005": 20.9485164662,
			"-0.004": 24.7131836995,
			"-0.003": 16.5098163661,
			"-0.002": 11.2540682633,
			"-0.001": 14.5207224855,
			"0.0": 13.1555368137,
			"0.001": 10.491440955,
			"0.002": 7.42540293158,
			"0.003": 5.68709176821,
			"0.004": 4.72438295341,
			"0.005": 4.66308358414,
			"0.006": 5.61940739374,
			"0.007": 3.5418198151,
			"0.008": 4.67070933366,
			"0.009": 3.95242663786,
			"0.01": 4.6418067171,
			"0.011": 6.80709778583,
			"0.012": 5.97196117294,
			"0.013": 3.68495422588,
			"0.014": 2.38713952111,
			"0.015": 0.310042176185,
			"0.016": 0.149430806067,
			"0.017": 0.0,
			"0.018": 0.0,
			"0.019": 0.0,
			"0.02": 0.0,
			"0.021": 0.0,
			"0.022": 0.0,
			"0.023": 0.0,
			"0.024": 0.0,
			"0.025": 0.0
		}
	}
}
