{
	 "smiles": "CC12CCCC1(O)C1CCC3=CC(=O)CCC3(C)C1CC2", 
	 "Tm": 453.15, 
	 "num_atms": 49, 
	 "gaussian": { 
		 "optdone": 1, 
		 "sigma_profile": "yes", 
		 "theory": "DFT", 
		 "functional": "B3LYP", 
		 "basiset": "6-31G**", 
		 "properties": { 
			 "R2extent": 6764.3415, 
			 "electric_dipole_moment_norm": 4.32198926769, 
			 "electric_quadrupole_moment_norm": 25.5492844459, 
			 "total_energy": -891.331703391, 
			 "HOMO_LUMO_gap": 0.18512, 
			 "cosmo_polarized_energy": -13.05, 
			 "cosmo_cavitation_energy": 42.03, 
			 "cosmo_dispersion_energy": -29.9, 
			 "cosmo_repulsion_energy": 2.19, 
			 "cosmo_total_nonelectrostatic_energy": 14.32, 
			 "SMD_solvation_energy": 6.35 
		},
		"coords": [
			{
				"x": -3.040936539,
				"y": -1.9780633377,
				"z": -1.6251465774,
				"element": "C" 
			},
			{
				"x": -1.5399422623,
				"y": -2.1468784304,
				"z": -1.9633274243,
				"element": "C" 
			},
			{
				"x": -1.353559617,
				"y": -3.5512544712,
				"z": -2.5925825441,
				"element": "C" 
			},
			{
				"x": -1.2934882467,
				"y": -4.5312849944,
				"z": -1.3834562753,
				"element": "C" 
			},
			{
				"x": -1.0445385853,
				"y": -3.6490084253,
				"z": -0.1233566164,
				"element": "C" 
			},
			{
				"x": -0.6590384954,
				"y": -2.2710512952,
				"z": -0.6927879352,
				"element": "C" 
			},
			{
				"x": 0.6919527309,
				"y": -2.3688629827,
				"z": -1.2059712973,
				"element": "O" 
			},
			{
				"x": -0.7779116132,
				"y": -1.0524660897,
				"z": 0.2624155638,
				"element": "C" 
			},
			{
				"x": 0.3633853349,
				"y": -1.0822477108,
				"z": 1.3224775966,
				"element": "C" 
			},
			{
				"x": 1.3492666293,
				"y": 0.0921360139,
				"z": 1.1775325312,
				"element": "C" 
			},
			{
				"x": 0.5238896056,
				"y": 1.3295885356,
				"z": 1.3445231554,
				"element": "C" 
			},
			{
				"x": 0.594145229,
				"y": 2.0801597911,
				"z": 2.4649270102,
				"element": "C" 
			},
			{
				"x": -0.3379727219,
				"y": 3.1735084403,
				"z": 2.782348081,
				"element": "C" 
			},
			{
				"x": -0.2139194895,
				"y": 3.8563892463,
				"z": 3.7912761551,
				"element": "O" 
			},
			{
				"x": -1.4825586267,
				"y": 3.4095557131,
				"z": 1.8002027413,
				"element": "C" 
			},
			{
				"x": -1.761975369,
				"y": 2.2072933902,
				"z": 0.8894423606,
				"element": "C" 
			},
			{
				"x": -0.4859191269,
				"y": 1.6090791474,
				"z": 0.2366606993,
				"element": "C" 
			},
			{
				"x": 0.1525430825,
				"y": 2.6729565212,
				"z": -0.6973053179,
				"element": "C" 
			},
			{
				"x": -0.9026158201,
				"y": 0.2963168377,
				"z": -0.5607117492,
				"element": "C" 
			},
			{
				"x": -0.3089644193,
				"y": 0.1425284187,
				"z": -1.983510684,
				"element": "C" 
			},
			{
				"x": -1.0359628435,
				"y": -0.9507599561,
				"z": -2.8122000962,
				"element": "C" 
			},
			{
				"x": -3.4372638836,
				"y": -2.8263472226,
				"z": -1.0588307696,
				"element": "H" 
			},
			{
				"x": -3.6100826695,
				"y": -1.9202944889,
				"z": -2.5592036327,
				"element": "H" 
			},
			{
				"x": -3.2603682236,
				"y": -1.07077486,
				"z": -1.0572020607,
				"element": "H" 
			},
			{
				"x": -2.1608413023,
				"y": -3.798903762,
				"z": -3.2899863923,
				"element": "H" 
			},
			{
				"x": -0.4131876496,
				"y": -3.5825786975,
				"z": -3.1469294073,
				"element": "H" 
			},
			{
				"x": -0.4950752208,
				"y": -5.2659087491,
				"z": -1.5195661877,
				"element": "H" 
			},
			{
				"x": -2.2229351062,
				"y": -5.0987524332,
				"z": -1.276046649,
				"element": "H" 
			},
			{
				"x": -0.2604419275,
				"y": -4.054879922,
				"z": 0.5273661206,
				"element": "H" 
			},
			{
				"x": -1.9457607514,
				"y": -3.5724424836,
				"z": 0.4931753472,
				"element": "H" 
			},
			{
				"x": 1.2338592373,
				"y": -2.8004418428,
				"z": -0.5349148411,
				"element": "H" 
			},
			{
				"x": -1.721906246,
				"y": -1.174450266,
				"z": 0.8057686915,
				"element": "H" 
			},
			{
				"x": -0.0637345649,
				"y": -1.0359129919,
				"z": 2.3297898776,
				"element": "H" 
			},
			{
				"x": 0.9154875709,
				"y": -2.02752182,
				"z": 1.2798338392,
				"element": "H" 
			},
			{
				"x": 1.8252733827,
				"y": 0.0520878016,
				"z": 0.1903678791,
				"element": "H" 
			},
			{
				"x": 2.1352081657,
				"y": 0.0345274173,
				"z": 1.9371216892,
				"element": "H" 
			},
			{
				"x": 1.3454956608,
				"y": 1.8749728249,
				"z": 3.2245647132,
				"element": "H" 
			},
			{
				"x": -1.2219161316,
				"y": 4.2956935816,
				"z": 1.2067561297,
				"element": "H" 
			},
			{
				"x": -2.3668325646,
				"y": 3.6887902908,
				"z": 2.3816394402,
				"element": "H" 
			},
			{
				"x": -2.4707959148,
				"y": 2.4913767977,
				"z": 0.1017478601,
				"element": "H" 
			},
			{
				"x": -2.2481126958,
				"y": 1.4182268374,
				"z": 1.478022962,
				"element": "H" 
			},
			{
				"x": -0.5440737896,
				"y": 2.9769620442,
				"z": -1.4854167876,
				"element": "H" 
			},
			{
				"x": 1.0619196206,
				"y": 2.2994386507,
				"z": -1.1748956608,
				"element": "H" 
			},
			{
				"x": 0.4286334475,
				"y": 3.5642834478,
				"z": -0.1296093662,
				"element": "H" 
			},
			{
				"x": -1.9759093209,
				"y": 0.4360893553,
				"z": -0.7306185414,
				"element": "H" 
			},
			{
				"x": 0.7548095515,
				"y": -0.0985749438,
				"z": -1.9296158004,
				"element": "H" 
			},
			{
				"x": -0.3984018299,
				"y": 1.084874847,
				"z": -2.5281856596,
				"element": "H" 
			},
			{
				"x": -0.3518002572,
				"y": -1.3062605068,
				"z": -3.5888164492,
				"element": "H" 
			},
			{
				"x": -1.8885254236,
				"y": -0.500413268,
				"z": -3.3356657214,
				"element": "H" 
			}
		],
		 "valence_orbital": [ 
			{
				"type": "occ",
				"energy": -0.29794,
				"method": "rhf"
			},
			{
				"type": "occ",
				"energy": -0.27761,
				"method": "rhf"
			},
			{
				"type": "occ",
				"energy": -0.2632,
				"method": "rhf"
			},
			{
				"type": "occ",
				"energy": -0.24897,
				"method": "rhf"
			},
			{
				"type": "occ",
				"energy": -0.22671,
				"method": "rhf"
			},
			{
				"type": "unocc",
				"energy": -0.04159,
				"method": "rhf"
			},
			{
				"type": "unocc",
				"energy": 0.04805,
				"method": "rhf"
			},
			{
				"type": "unocc",
				"energy": 0.06793,
				"method": "rhf"
			},
			{
				"type": "unocc",
				"energy": 0.07733,
				"method": "rhf"
			},
			{
				"type": "unocc",
				"energy": 0.08452,
				"method": "rhf"
			}
		],
		"cosmo_sigma_profile": { 
			"-0.025": 0.0,
			"-0.024": 0.0,
			"-0.023": 0.0,
			"-0.022": 0.0,
			"-0.021": 0.0,
			"-0.02": 0.0,
			"-0.019": 0.0,
			"-0.018": 0.0,
			"-0.017": 0.0,
			"-0.016": 0.0,
			"-0.015": 0.020555097191,
			"-0.014": 0.75232933944,
			"-0.013": 0.736039999188,
			"-0.012": 1.01709441342,
			"-0.011": 1.05806131651,
			"-0.01": 1.1469421067,
			"-0.009": 1.06137959938,
			"-0.008": 0.591310927765,
			"-0.007": 1.00502622672,
			"-0.006": 1.46325511721,
			"-0.005": 6.7568147114,
			"-0.004": 13.2626613238,
			"-0.003": 39.8714009868,
			"-0.002": 54.8774119625,
			"-0.001": 52.4937521727,
			"0.0": 45.5438773618,
			"0.001": 33.3733116791,
			"0.002": 23.0770990818,
			"0.003": 6.69936425188,
			"0.004": 4.06587169262,
			"0.005": 3.41906787815,
			"0.006": 2.78852857147,
			"0.007": 3.129752019,
			"0.008": 2.6501093187,
			"0.009": 2.43858193712,
			"0.01": 3.17621870274,
			"0.011": 2.73264452216,
			"0.012": 3.22633280823,
			"0.013": 5.46026173734,
			"0.014": 3.903789688,
			"0.015": 0.935686153208,
			"0.016": 0.0,
			"0.017": 0.0,
			"0.018": 0.0,
			"0.019": 0.0,
			"0.02": 0.0,
			"0.021": 0.0,
			"0.022": 0.0,
			"0.023": 0.0,
			"0.024": 0.0,
			"0.025": 0.0
		}
	}
}
