{
	 "smiles": "NC1=NC(=O)N(C=C1)[C@@H]1O[C@H](CO)[C@@H](O)C1(F)F", 
	 "Tm": 441.79, 
	 "num_atms": 29, 
	 "gaussian": { 
		 "optdone": 1, 
		 "sigma_profile": "yes", 
		 "theory": "DFT", 
		 "functional": "B3LYP", 
		 "basiset": "6-31G**", 
		 "properties": { 
			 "R2extent": 5115.596, 
			 "electric_dipole_moment_norm": 7.06991639767, 
			 "electric_quadrupole_moment_norm": 26.2554405425, 
			 "total_energy": -1014.39317998, 
			 "HOMO_LUMO_gap": 0.19292, 
			 "cosmo_polarized_energy": -30.14, 
			 "cosmo_cavitation_energy": 31.98, 
			 "cosmo_dispersion_energy": -23.56, 
			 "cosmo_repulsion_energy": 1.77, 
			 "cosmo_total_nonelectrostatic_energy": 10.19, 
			 "SMD_solvation_energy": 4.73 
		},
		"coords": [
			{
				"x": 2.4112168661,
				"y": -1.3804901014,
				"z": -4.7185641677,
				"element": "N" 
			},
			{
				"x": 2.1593246107,
				"y": -1.0549668537,
				"z": -3.4254006079,
				"element": "C" 
			},
			{
				"x": 1.1726621355,
				"y": -0.2099333609,
				"z": -3.1970477343,
				"element": "N" 
			},
			{
				"x": 0.8338127133,
				"y": 0.1666934062,
				"z": -1.9303403734,
				"element": "C" 
			},
			{
				"x": -0.0707973225,
				"y": 0.9532274488,
				"z": -1.6851008177,
				"element": "O" 
			},
			{
				"x": 1.5983469856,
				"y": -0.4097363411,
				"z": -0.8462970363,
				"element": "N" 
			},
			{
				"x": 2.6107031982,
				"y": -1.2886575441,
				"z": -1.1118914841,
				"element": "C" 
			},
			{
				"x": 2.9405159043,
				"y": -1.6482826206,
				"z": -2.3765531141,
				"element": "C" 
			},
			{
				"x": 1.3759721398,
				"y": -0.0489748017,
				"z": 0.5601929296,
				"element": "C" 
			},
			{
				"x": 0.0288952456,
				"y": -0.0170074508,
				"z": 0.9356383281,
				"element": "O" 
			},
			{
				"x": -0.3001618355,
				"y": 1.2181761061,
				"z": 1.6436395782,
				"element": "C" 
			},
			{
				"x": -1.090693849,
				"y": 2.1984857573,
				"z": 0.7606574655,
				"element": "C" 
			},
			{
				"x": -2.1393216509,
				"y": 1.5541857683,
				"z": 0.0878201393,
				"element": "O" 
			},
			{
				"x": 1.047107368,
				"y": 1.7607074892,
				"z": 2.1375717709,
				"element": "C" 
			},
			{
				"x": 1.4562389518,
				"y": 1.2261679717,
				"z": 3.3809208756,
				"element": "O" 
			},
			{
				"x": 1.9842099142,
				"y": 1.3041123438,
				"z": 1.0000581377,
				"element": "C" 
			},
			{
				"x": 3.2760351389,
				"y": 1.1387720796,
				"z": 1.3913692499,
				"element": "F" 
			},
			{
				"x": 1.9834657531,
				"y": 2.2117699159,
				"z": -0.016817607,
				"element": "F" 
			},
			{
				"x": 1.8987151769,
				"y": -0.8826540058,
				"z": -5.4304527455,
				"element": "H" 
			},
			{
				"x": 3.2335266953,
				"y": -1.8978502817,
				"z": -4.9790314596,
				"element": "H" 
			},
			{
				"x": 3.1375728739,
				"y": -1.6828936213,
				"z": -0.2490646708,
				"element": "H" 
			},
			{
				"x": 3.7384107953,
				"y": -2.3541518311,
				"z": -2.5690326407,
				"element": "H" 
			},
			{
				"x": 1.9017048237,
				"y": -0.8226419848,
				"z": 1.1375135173,
				"element": "H" 
			},
			{
				"x": -0.9273845439,
				"y": 0.9108878886,
				"z": 2.4869215212,
				"element": "H" 
			},
			{
				"x": -1.5245978286,
				"y": 2.9571059273,
				"z": 1.4256701267,
				"element": "H" 
			},
			{
				"x": -0.4121272957,
				"y": 2.7041610952,
				"z": 0.064852914,
				"element": "H" 
			},
			{
				"x": -1.7027346787,
				"y": 1.0962445592,
				"z": -0.6511277023,
				"element": "H" 
			},
			{
				"x": 1.0678378594,
				"y": 2.8503871673,
				"z": 2.2272000606,
				"element": "H" 
			},
			{
				"x": 1.1106438552,
				"y": 0.3267558745,
				"z": 3.4582955468,
				"element": "H" 
			}
		],
		 "valence_orbital": [ 
			{
				"type": "occ",
				"energy": -0.27478,
				"method": "rhf"
			},
			{
				"type": "occ",
				"energy": -0.26259,
				"method": "rhf"
			},
			{
				"type": "occ",
				"energy": -0.2595,
				"method": "rhf"
			},
			{
				"type": "occ",
				"energy": -0.24157,
				"method": "rhf"
			},
			{
				"type": "occ",
				"energy": -0.23707,
				"method": "rhf"
			},
			{
				"type": "unocc",
				"energy": -0.04415,
				"method": "rhf"
			},
			{
				"type": "unocc",
				"energy": 0.00548,
				"method": "rhf"
			},
			{
				"type": "unocc",
				"energy": 0.05075,
				"method": "rhf"
			},
			{
				"type": "unocc",
				"energy": 0.05525,
				"method": "rhf"
			},
			{
				"type": "unocc",
				"energy": 0.06531,
				"method": "rhf"
			}
		],
		"cosmo_sigma_profile": { 
			"-0.025": 0.0,
			"-0.024": 0.0,
			"-0.023": 0.0,
			"-0.022": 0.0,
			"-0.021": 0.0,
			"-0.02": 0.0,
			"-0.019": 0.0,
			"-0.018": 0.0,
			"-0.017": 0.336146743719,
			"-0.016": 0.936907449594,
			"-0.015": 2.40313314594,
			"-0.014": 3.32586694318,
			"-0.013": 3.20861956745,
			"-0.012": 5.15148965439,
			"-0.011": 5.99947037698,
			"-0.01": 7.01604036537,
			"-0.009": 6.35113428212,
			"-0.008": 8.95613005076,
			"-0.007": 10.4015819199,
			"-0.006": 11.4362222926,
			"-0.005": 10.6395110754,
			"-0.004": 8.3650604803,
			"-0.003": 10.541261519,
			"-0.002": 12.5673727165,
			"-0.001": 12.9249693613,
			"0.0": 11.3522082694,
			"0.001": 13.1226747707,
			"0.002": 11.5644575674,
			"0.003": 15.0570328527,
			"0.004": 17.6628839085,
			"0.005": 7.24484942082,
			"0.006": 6.9583654749,
			"0.007": 6.53767342899,
			"0.008": 5.89800988434,
			"0.009": 5.46182098699,
			"0.01": 5.23996893419,
			"0.011": 5.54433975828,
			"0.012": 5.560001479,
			"0.013": 4.57895376359,
			"0.014": 3.97776808102,
			"0.015": 3.42853983279,
			"0.016": 1.86031391853,
			"0.017": 0.896079206394,
			"0.018": 0.0,
			"0.019": 0.0,
			"0.02": 0.0,
			"0.021": 0.0,
			"0.022": 0.0,
			"0.023": 0.0,
			"0.024": 0.0,
			"0.025": 0.0
		}
	}
}
