{
	 "smiles": "ClC1=CC(=CC(Cl)=C1)N=C=O", 
	 "Tm": 303.15, 
	 "num_atms": 14, 
	 "gaussian": { 
		 "optdone": 1, 
		 "sigma_profile": "yes", 
		 "theory": "DFT", 
		 "functional": "B3LYP", 
		 "basiset": "6-31G**", 
		 "properties": { 
			 "R2extent": 3495.1106, 
			 "electric_dipole_moment_norm": 0.67882273091, 
			 "electric_quadrupole_moment_norm": 6.97827568315, 
			 "total_energy": -1318.90762792, 
			 "HOMO_LUMO_gap": 0.21421, 
			 "cosmo_polarized_energy": -5.15, 
			 "cosmo_cavitation_energy": 24.23, 
			 "cosmo_dispersion_energy": -17.61, 
			 "cosmo_repulsion_energy": 1.43, 
			 "cosmo_total_nonelectrostatic_energy": 8.06, 
			 "SMD_solvation_energy": 6.31 
		},
		"coords": [
			{
				"x": 0.8996011842,
				"y": -1.4933778607,
				"z": -4.1863153267,
				"element": "Cl" 
			},
			{
				"x": 0.4916817008,
				"y": -0.7924455518,
				"z": -2.632487926,
				"element": "C" 
			},
			{
				"x": -0.6862430269,
				"y": -1.185362218,
				"z": -2.0027537653,
				"element": "C" 
			},
			{
				"x": -1.0084469752,
				"y": -0.6141361679,
				"z": -0.7645848185,
				"element": "C" 
			},
			{
				"x": -0.1540230694,
				"y": 0.317853901,
				"z": -0.1608240069,
				"element": "C" 
			},
			{
				"x": 1.0135623998,
				"y": 0.681597808,
				"z": -0.8263229951,
				"element": "C" 
			},
			{
				"x": 2.0847424311,
				"y": 1.8540778559,
				"z": -0.0847222842,
				"element": "Cl" 
			},
			{
				"x": 1.3589999241,
				"y": 0.140449824,
				"z": -2.064473037,
				"element": "C" 
			},
			{
				"x": -2.162521758,
				"y": -1.0165748996,
				"z": -0.1026412576,
				"element": "N" 
			},
			{
				"x": -3.3361107355,
				"y": -0.8623090812,
				"z": 0.1099462991,
				"element": "C" 
			},
			{
				"x": -4.4781015264,
				"y": -0.8098467962,
				"z": 0.3965301699,
				"element": "O" 
			},
			{
				"x": -1.3445850111,
				"y": -1.9162013635,
				"z": -2.4553168659,
				"element": "H" 
			},
			{
				"x": -0.4030515047,
				"y": 0.7431549085,
				"z": 0.8032617502,
				"element": "H" 
			},
			{
				"x": 2.2718959672,
				"y": 0.4331196414,
				"z": -2.5670959359,
				"element": "H" 
			}
		],
		 "valence_orbital": [ 
			{
				"type": "occ",
				"energy": -0.32889,
				"method": "rhf"
			},
			{
				"type": "occ",
				"energy": -0.31614,
				"method": "rhf"
			},
			{
				"type": "occ",
				"energy": -0.30861,
				"method": "rhf"
			},
			{
				"type": "occ",
				"energy": -0.26638,
				"method": "rhf"
			},
			{
				"type": "occ",
				"energy": -0.26148,
				"method": "rhf"
			},
			{
				"type": "unocc",
				"energy": -0.04727,
				"method": "rhf"
			},
			{
				"type": "unocc",
				"energy": -0.03872,
				"method": "rhf"
			},
			{
				"type": "unocc",
				"energy": -0.0078,
				"method": "rhf"
			},
			{
				"type": "unocc",
				"energy": 0.03049,
				"method": "rhf"
			},
			{
				"type": "unocc",
				"energy": 0.03329,
				"method": "rhf"
			}
		],
		"cosmo_sigma_profile": { 
			"-0.025": 0.0,
			"-0.024": 0.0,
			"-0.023": 0.0,
			"-0.022": 0.0,
			"-0.021": 0.0,
			"-0.02": 0.0,
			"-0.019": 0.0,
			"-0.018": 0.0,
			"-0.017": 0.0,
			"-0.016": 0.0,
			"-0.015": 0.0,
			"-0.014": 0.0,
			"-0.013": 0.0,
			"-0.012": 0.0,
			"-0.011": 0.0,
			"-0.01": 0.0,
			"-0.009": 1.92003579083,
			"-0.008": 4.55081285017,
			"-0.007": 4.83679711562,
			"-0.006": 7.27277128521,
			"-0.005": 10.281343822,
			"-0.004": 8.39506157379,
			"-0.003": 12.3134899603,
			"-0.002": 14.0427171155,
			"-0.001": 15.4911407845,
			"0.0": 27.1224570917,
			"0.001": 27.410915294,
			"0.002": 14.4778052903,
			"0.003": 18.9746359971,
			"0.004": 18.6969476312,
			"0.005": 3.11159605225,
			"0.006": 2.71498805293,
			"0.007": 6.30865647536,
			"0.008": 3.7393557714,
			"0.009": 0.0,
			"0.01": 0.0,
			"0.011": 0.0,
			"0.012": 0.0,
			"0.013": 0.0,
			"0.014": 0.0,
			"0.015": 0.0,
			"0.016": 0.0,
			"0.017": 0.0,
			"0.018": 0.0,
			"0.019": 0.0,
			"0.02": 0.0,
			"0.021": 0.0,
			"0.022": 0.0,
			"0.023": 0.0,
			"0.024": 0.0,
			"0.025": 0.0
		}
	}
}
