{
	 "smiles": "CC(C)(C)OC(=O)N1CCC(CC1)C(=O)C1=CC=C(F)C=C1", 
	 "Tm": 363.15, 
	 "num_atms": 44, 
	 "gaussian": { 
		 "optdone": 1, 
		 "sigma_profile": "yes", 
		 "theory": "DFT", 
		 "functional": "B3LYP", 
		 "basiset": "6-31G**", 
		 "properties": { 
			 "R2extent": 11813.6735, 
			 "electric_dipole_moment_norm": 3.46967885546, 
			 "electric_quadrupole_moment_norm": 9.84897740479, 
			 "total_energy": -1041.37421479, 
			 "HOMO_LUMO_gap": 0.17431, 
			 "cosmo_polarized_energy": -13.98, 
			 "cosmo_cavitation_energy": 45.6, 
			 "cosmo_dispersion_energy": -31.53, 
			 "cosmo_repulsion_energy": 2.38, 
			 "cosmo_total_nonelectrostatic_energy": 16.45, 
			 "SMD_solvation_energy": 8.78 
		},
		"coords": [
			{
				"x": 0.5076190141,
				"y": -4.7015424865,
				"z": -2.3694777576,
				"element": "C" 
			},
			{
				"x": 0.742515717,
				"y": -3.4153657285,
				"z": -3.1689258498,
				"element": "C" 
			},
			{
				"x": 2.1096525552,
				"y": -3.4024726863,
				"z": -3.861502678,
				"element": "C" 
			},
			{
				"x": -0.3811786493,
				"y": -3.1977722631,
				"z": -4.1863211841,
				"element": "C" 
			},
			{
				"x": 0.6086153932,
				"y": -2.2418586574,
				"z": -2.2922266592,
				"element": "O" 
			},
			{
				"x": 1.4390632934,
				"y": -2.0671827397,
				"z": -1.233298619,
				"element": "C" 
			},
			{
				"x": 2.3537432769,
				"y": -2.8185074823,
				"z": -0.9235472726,
				"element": "O" 
			},
			{
				"x": 1.1180846771,
				"y": -0.9309020381,
				"z": -0.5326298815,
				"element": "N" 
			},
			{
				"x": 0.0906836854,
				"y": 0.0277931941,
				"z": -0.9247580434,
				"element": "C" 
			},
			{
				"x": -0.8071936156,
				"y": 0.385152877,
				"z": 0.2678208374,
				"element": "C" 
			},
			{
				"x": 0.0322572484,
				"y": 0.8636083089,
				"z": 1.4793384032,
				"element": "C" 
			},
			{
				"x": 1.0919529726,
				"y": -0.1958495449,
				"z": 1.8224773596,
				"element": "C" 
			},
			{
				"x": 1.951790084,
				"y": -0.5364013816,
				"z": 0.6011362619,
				"element": "C" 
			},
			{
				"x": -0.8865237606,
				"y": 1.1490603332,
				"z": 2.6690251416,
				"element": "C" 
			},
			{
				"x": -1.0497029741,
				"y": 0.3026447872,
				"z": 3.5374280042,
				"element": "O" 
			},
			{
				"x": -1.620956273,
				"y": 2.4552520901,
				"z": 2.7487949265,
				"element": "C" 
			},
			{
				"x": -1.4663800284,
				"y": 3.4962615772,
				"z": 1.8186105996,
				"element": "C" 
			},
			{
				"x": -2.1793236654,
				"y": 4.6862397862,
				"z": 1.9514887501,
				"element": "C" 
			},
			{
				"x": -3.0491690606,
				"y": 4.825060411,
				"z": 3.0276934625,
				"element": "C" 
			},
			{
				"x": -3.7394320678,
				"y": 5.9720724485,
				"z": 3.1620548957,
				"element": "F" 
			},
			{
				"x": -3.2283680214,
				"y": 3.8155150008,
				"z": 3.9708404505,
				"element": "C" 
			},
			{
				"x": -2.5109748316,
				"y": 2.6352141091,
				"z": 3.8227569696,
				"element": "C" 
			},
			{
				"x": 1.2947739782,
				"y": -4.850262969,
				"z": -1.6303910778,
				"element": "H" 
			},
			{
				"x": 0.4921333499,
				"y": -5.5591747303,
				"z": -3.05004229,
				"element": "H" 
			},
			{
				"x": -0.4584903698,
				"y": -4.6583450722,
				"z": -1.8563988466,
				"element": "H" 
			},
			{
				"x": 2.2585898922,
				"y": -2.454874604,
				"z": -4.3891935906,
				"element": "H" 
			},
			{
				"x": 2.9139504952,
				"y": -3.5353850348,
				"z": -3.1381055135,
				"element": "H" 
			},
			{
				"x": 2.1559010583,
				"y": -4.2115980164,
				"z": -4.5977842333,
				"element": "H" 
			},
			{
				"x": -0.2378160043,
				"y": -2.2566238884,
				"z": -4.7254675531,
				"element": "H" 
			},
			{
				"x": -1.3542108366,
				"y": -3.1656662324,
				"z": -3.687156056,
				"element": "H" 
			},
			{
				"x": -0.3928187916,
				"y": -4.0147286774,
				"z": -4.9138897028,
				"element": "H" 
			},
			{
				"x": -0.498573224,
				"y": -0.3973916776,
				"z": -1.7345968455,
				"element": "H" 
			},
			{
				"x": 0.5721579702,
				"y": 0.9437639498,
				"z": -1.3060044274,
				"element": "H" 
			},
			{
				"x": -1.3823397617,
				"y": -0.4997726741,
				"z": 0.5652926186,
				"element": "H" 
			},
			{
				"x": -1.5253308838,
				"y": 1.1540682083,
				"z": -0.0385116202,
				"element": "H" 
			},
			{
				"x": 0.5466177371,
				"y": 1.7905783744,
				"z": 1.1900817996,
				"element": "H" 
			},
			{
				"x": 1.7365545164,
				"y": 0.1636303376,
				"z": 2.6324035674,
				"element": "H" 
			},
			{
				"x": 0.5908049565,
				"y": -1.0954986045,
				"z": 2.1912213425,
				"element": "H" 
			},
			{
				"x": 2.559936838,
				"y": 0.3380361002,
				"z": 0.3165265571,
				"element": "H" 
			},
			{
				"x": 2.6329065314,
				"y": -1.3604094504,
				"z": 0.81136832,
				"element": "H" 
			},
			{
				"x": -0.7869053414,
				"y": 3.3916910725,
				"z": 0.979980026,
				"element": "H" 
			},
			{
				"x": -2.0704269884,
				"y": 5.4995742137,
				"z": 1.2425530016,
				"element": "H" 
			},
			{
				"x": -3.9174800362,
				"y": 3.9684481479,
				"z": 4.7943433132,
				"element": "H" 
			},
			{
				"x": -2.6200100549,
				"y": 1.8238213125,
				"z": 4.5340930937,
				"element": "H" 
			}
		],
		 "valence_orbital": [ 
			{
				"type": "occ",
				"energy": -0.27519,
				"method": "rhf"
			},
			{
				"type": "occ",
				"energy": -0.25856,
				"method": "rhf"
			},
			{
				"type": "occ",
				"energy": -0.25685,
				"method": "rhf"
			},
			{
				"type": "occ",
				"energy": -0.25247,
				"method": "rhf"
			},
			{
				"type": "occ",
				"energy": -0.2347,
				"method": "rhf"
			},
			{
				"type": "unocc",
				"energy": -0.06039,
				"method": "rhf"
			},
			{
				"type": "unocc",
				"energy": -0.02442,
				"method": "rhf"
			},
			{
				"type": "unocc",
				"energy": 0.03577,
				"method": "rhf"
			},
			{
				"type": "unocc",
				"energy": 0.05173,
				"method": "rhf"
			},
			{
				"type": "unocc",
				"energy": 0.0737,
				"method": "rhf"
			}
		],
		"cosmo_sigma_profile": { 
			"-0.025": 0.0,
			"-0.024": 0.0,
			"-0.023": 0.0,
			"-0.022": 0.0,
			"-0.021": 0.0,
			"-0.02": 0.0,
			"-0.019": 0.0,
			"-0.018": 0.0,
			"-0.017": 0.0,
			"-0.016": 0.0,
			"-0.015": 0.0,
			"-0.014": 0.0,
			"-0.013": 0.0,
			"-0.012": 0.0,
			"-0.011": 0.0,
			"-0.01": 0.0,
			"-0.009": 0.0,
			"-0.008": 3.23423221723,
			"-0.007": 6.51402044638,
			"-0.006": 8.61971613056,
			"-0.005": 13.8532597798,
			"-0.004": 32.5717272405,
			"-0.003": 40.9186761143,
			"-0.002": 37.4205587902,
			"-0.001": 35.528454327,
			"0.0": 41.5049325406,
			"0.001": 38.7992267083,
			"0.002": 26.0601240183,
			"0.003": 18.5316781008,
			"0.004": 15.1624848377,
			"0.005": 6.82285027967,
			"0.006": 4.46086728351,
			"0.007": 4.01412878424,
			"0.008": 3.1041938408,
			"0.009": 3.04590095555,
			"0.01": 3.17571087474,
			"0.011": 4.66547122736,
			"0.012": 5.21798790837,
			"0.013": 3.32110496984,
			"0.014": 1.53052394736,
			"0.015": 0.0,
			"0.016": 0.0,
			"0.017": 0.0,
			"0.018": 0.0,
			"0.019": 0.0,
			"0.02": 0.0,
			"0.021": 0.0,
			"0.022": 0.0,
			"0.023": 0.0,
			"0.024": 0.0,
			"0.025": 0.0
		}
	}
}
