{
	 "smiles": "CC(CC(O)=O)C1=CC(=CC=C1)C(F)(F)F", 
	 "Tm": 357.15, 
	 "num_atms": 27, 
	 "gaussian": { 
		 "optdone": 1, 
		 "sigma_profile": "yes", 
		 "theory": "DFT", 
		 "functional": "B3LYP", 
		 "basiset": "6-31G**", 
		 "properties": { 
			 "R2extent": 5662.5183, 
			 "electric_dipole_moment_norm": 2.70596022513, 
			 "electric_quadrupole_moment_norm": 13.0954028453, 
			 "total_energy": -875.801834294, 
			 "HOMO_LUMO_gap": 0.2321, 
			 "cosmo_polarized_energy": -9.49, 
			 "cosmo_cavitation_energy": 31.94, 
			 "cosmo_dispersion_energy": -22.18, 
			 "cosmo_repulsion_energy": 1.7, 
			 "cosmo_total_nonelectrostatic_energy": 11.46, 
			 "SMD_solvation_energy": 7.62 
		},
		"coords": [
			{
				"x": 0.4320760285,
				"y": 2.1451287091,
				"z": 0.4296471247,
				"element": "C" 
			},
			{
				"x": 0.1575320661,
				"y": 0.7229428498,
				"z": -0.0920632034,
				"element": "C" 
			},
			{
				"x": 0.3858183353,
				"y": 0.5840054915,
				"z": -1.6167258708,
				"element": "C" 
			},
			{
				"x": -0.4860715765,
				"y": 1.421249732,
				"z": -2.5308059945,
				"element": "C" 
			},
			{
				"x": -0.4019156743,
				"y": 0.9766205489,
				"z": -3.8074447399,
				"element": "O" 
			},
			{
				"x": -1.1610884623,
				"y": 2.3844648893,
				"z": -2.2319635661,
				"element": "O" 
			},
			{
				"x": -1.1886937893,
				"y": 0.1560321008,
				"z": 0.3513018551,
				"element": "C" 
			},
			{
				"x": -1.2436422501,
				"y": -1.1377997245,
				"z": 0.8832287434,
				"element": "C" 
			},
			{
				"x": -2.4546944919,
				"y": -1.6961378197,
				"z": 1.2992502577,
				"element": "C" 
			},
			{
				"x": -3.6395306474,
				"y": -0.9655504071,
				"z": 1.1932697319,
				"element": "C" 
			},
			{
				"x": -3.5959131016,
				"y": 0.3243224748,
				"z": 0.6665867957,
				"element": "C" 
			},
			{
				"x": -2.38648421,
				"y": 0.8808244681,
				"z": 0.2484765779,
				"element": "C" 
			},
			{
				"x": -2.4853348454,
				"y": -3.1096176188,
				"z": 1.8126499056,
				"element": "C" 
			},
			{
				"x": -2.6505408675,
				"y": -4.0034283152,
				"z": 0.8078641724,
				"element": "F" 
			},
			{
				"x": -3.4996992329,
				"y": -3.3103171877,
				"z": 2.683263466,
				"element": "F" 
			},
			{
				"x": -1.3367575053,
				"y": -3.4442504509,
				"z": 2.444053267,
				"element": "F" 
			},
			{
				"x": 0.3397073259,
				"y": 2.1746946009,
				"z": 1.5193858545,
				"element": "H" 
			},
			{
				"x": 1.4515307764,
				"y": 2.4521660575,
				"z": 0.1702580846,
				"element": "H" 
			},
			{
				"x": -0.2545012539,
				"y": 2.8754375432,
				"z": -0.0000406942,
				"element": "H" 
			},
			{
				"x": 0.9193476383,
				"y": 0.0704583695,
				"z": 0.353616422,
				"element": "H" 
			},
			{
				"x": 1.423458425,
				"y": 0.8570754688,
				"z": -1.8543395721,
				"element": "H" 
			},
			{
				"x": 0.2772576798,
				"y": -0.4610561779,
				"z": -1.9249452679,
				"element": "H" 
			},
			{
				"x": -0.9540702035,
				"y": 1.5746308248,
				"z": -4.3392801979,
				"element": "H" 
			},
			{
				"x": -0.3306289313,
				"y": -1.7163267881,
				"z": 0.9899760972,
				"element": "H" 
			},
			{
				"x": -4.5760675037,
				"y": -1.3979946991,
				"z": 1.5281233589,
				"element": "H" 
			},
			{
				"x": -4.5108237035,
				"y": 0.9035821016,
				"z": 0.5837446692,
				"element": "H" 
			},
			{
				"x": -2.3725700249,
				"y": 1.8796429584,
				"z": -0.171787277,
				"element": "H" 
			}
		],
		 "valence_orbital": [ 
			{
				"type": "occ",
				"energy": -0.33615,
				"method": "rhf"
			},
			{
				"type": "occ",
				"energy": -0.3253,
				"method": "rhf"
			},
			{
				"type": "occ",
				"energy": -0.28172,
				"method": "rhf"
			},
			{
				"type": "occ",
				"energy": -0.2622,
				"method": "rhf"
			},
			{
				"type": "occ",
				"energy": -0.25532,
				"method": "rhf"
			},
			{
				"type": "unocc",
				"energy": -0.02322,
				"method": "rhf"
			},
			{
				"type": "unocc",
				"energy": -0.01294,
				"method": "rhf"
			},
			{
				"type": "unocc",
				"energy": -0.00021,
				"method": "rhf"
			},
			{
				"type": "unocc",
				"energy": 0.07361,
				"method": "rhf"
			},
			{
				"type": "unocc",
				"energy": 0.0805,
				"method": "rhf"
			}
		],
		"cosmo_sigma_profile": { 
			"-0.025": 0.0,
			"-0.024": 0.0,
			"-0.023": 0.0,
			"-0.022": 0.0,
			"-0.021": 0.0,
			"-0.02": 0.0,
			"-0.019": 0.0,
			"-0.018": 0.668141046755,
			"-0.017": 0.954938358953,
			"-0.016": 0.651129622335,
			"-0.015": 1.27473573381,
			"-0.014": 0.266620075901,
			"-0.013": 0.358125978055,
			"-0.012": 0.716221825937,
			"-0.011": 1.23929242985,
			"-0.01": 0.819827455415,
			"-0.009": 0.337091184613,
			"-0.008": 0.568326901033,
			"-0.007": 3.14960629453,
			"-0.006": 10.4097084086,
			"-0.005": 13.7648726799,
			"-0.004": 18.6470444607,
			"-0.003": 18.5059508048,
			"-0.002": 17.0657841608,
			"-0.001": 19.1374767505,
			"0.0": 16.8894639407,
			"0.001": 22.5034947897,
			"0.002": 25.4027810554,
			"0.003": 41.4851046246,
			"0.004": 16.5295686921,
			"0.005": 4.73063078372,
			"0.006": 2.21064633352,
			"0.007": 2.46751533602,
			"0.008": 2.86404158205,
			"0.009": 3.19187772315,
			"0.01": 2.26882468062,
			"0.011": 2.26561740867,
			"0.012": 1.70985977755,
			"0.013": 0.0679354374873,
			"0.014": 0.0,
			"0.015": 0.0,
			"0.016": 0.0,
			"0.017": 0.0,
			"0.018": 0.0,
			"0.019": 0.0,
			"0.02": 0.0,
			"0.021": 0.0,
			"0.022": 0.0,
			"0.023": 0.0,
			"0.024": 0.0,
			"0.025": 0.0
		}
	}
}
