{
	 "smiles": "NC1=CC=C(C=C1)S(O)(=O)=O", 
	 "Tm": 638.15, 
	 "num_atms": 18, 
	 "gaussian": { 
		 "optdone": 1, 
		 "sigma_profile": "yes", 
		 "theory": "DFT", 
		 "functional": "B3LYP", 
		 "basiset": "6-31G**", 
		 "properties": { 
			 "R2extent": 2705.1823, 
			 "electric_dipole_moment_norm": 5.81791778818, 
			 "electric_quadrupole_moment_norm": 18.0007869831, 
			 "total_energy": -911.403278147, 
			 "HOMO_LUMO_gap": 0.20027, 
			 "cosmo_polarized_energy": -19.16, 
			 "cosmo_cavitation_energy": 23.82, 
			 "cosmo_dispersion_energy": -18.44, 
			 "cosmo_repulsion_energy": 1.44, 
			 "cosmo_total_nonelectrostatic_energy": 6.82, 
			 "SMD_solvation_energy": 3.21 
		},
		"coords": [
			{
				"x": -0.2757887349,
				"y": 0.1148394236,
				"z": 3.659865994,
				"element": "N" 
			},
			{
				"x": -0.3300251471,
				"y": 0.4778354477,
				"z": 2.3280660023,
				"element": "C" 
			},
			{
				"x": -0.7836234639,
				"y": 1.7586010885,
				"z": 1.9512816319,
				"element": "C" 
			},
			{
				"x": -0.795290544,
				"y": 2.1402799144,
				"z": 0.6174612263,
				"element": "C" 
			},
			{
				"x": -0.3507674565,
				"y": 1.2458921281,
				"z": -0.3609116669,
				"element": "C" 
			},
			{
				"x": 0.0985328568,
				"y": -0.0311173155,
				"z": -0.009236914,
				"element": "C" 
			},
			{
				"x": 0.107323361,
				"y": -0.4116483238,
				"z": 1.324263015,
				"element": "C" 
			},
			{
				"x": -0.3671898573,
				"y": 1.7300879558,
				"z": -2.0610247561,
				"element": "S" 
			},
			{
				"x": 1.1660666775,
				"y": 2.3283296277,
				"z": -2.211155132,
				"element": "O" 
			},
			{
				"x": -0.4267120088,
				"y": 0.5501003029,
				"z": -2.9275417589,
				"element": "O" 
			},
			{
				"x": -1.3041771846,
				"y": 2.8347692279,
				"z": -2.2365323576,
				"element": "O" 
			},
			{
				"x": -0.2278457407,
				"y": -0.871351521,
				"z": 3.8678193514,
				"element": "H" 
			},
			{
				"x": -0.8463177011,
				"y": 0.6407876471,
				"z": 4.3048588998,
				"element": "H" 
			},
			{
				"x": -1.1286653593,
				"y": 2.4505984392,
				"z": 2.7146575808,
				"element": "H" 
			},
			{
				"x": -1.1584141073,
				"y": 3.1195435365,
				"z": 0.3257984959,
				"element": "H" 
			},
			{
				"x": 0.4197537387,
				"y": -0.7219396303,
				"z": -0.7812029573,
				"element": "H" 
			},
			{
				"x": 0.4517301476,
				"y": -1.4042534158,
				"z": 1.6014670023,
				"element": "H" 
			},
			{
				"x": 1.4611105238,
				"y": 2.086045467,
				"z": -3.105733657,
				"element": "H" 
			}
		],
		 "valence_orbital": [ 
			{
				"type": "occ",
				"energy": -0.31333,
				"method": "rhf"
			},
			{
				"type": "occ",
				"energy": -0.31077,
				"method": "rhf"
			},
			{
				"type": "occ",
				"energy": -0.29109,
				"method": "rhf"
			},
			{
				"type": "occ",
				"energy": -0.27089,
				"method": "rhf"
			},
			{
				"type": "occ",
				"energy": -0.22736,
				"method": "rhf"
			},
			{
				"type": "unocc",
				"energy": -0.02709,
				"method": "rhf"
			},
			{
				"type": "unocc",
				"energy": -0.01884,
				"method": "rhf"
			},
			{
				"type": "unocc",
				"energy": 0.04957,
				"method": "rhf"
			},
			{
				"type": "unocc",
				"energy": 0.06038,
				"method": "rhf"
			},
			{
				"type": "unocc",
				"energy": 0.08709,
				"method": "rhf"
			}
		],
		"cosmo_sigma_profile": { 
			"-0.025": 0.0,
			"-0.024": 0.0,
			"-0.023": 0.0,
			"-0.022": 0.0,
			"-0.021": 0.0,
			"-0.02": 0.239349121331,
			"-0.019": 0.800124897894,
			"-0.018": 1.18322136689,
			"-0.017": 0.869473622271,
			"-0.016": 0.610179627851,
			"-0.015": 1.02412795062,
			"-0.014": 1.24939545737,
			"-0.013": 3.44487784855,
			"-0.012": 3.63731431902,
			"-0.011": 4.86900129477,
			"-0.01": 3.43436121552,
			"-0.009": 2.94027218257,
			"-0.008": 4.83888471252,
			"-0.007": 8.31957802906,
			"-0.006": 7.69964499554,
			"-0.005": 8.65206296978,
			"-0.004": 6.939815742,
			"-0.003": 6.44985762652,
			"-0.002": 7.62657330411,
			"-0.001": 7.67169647218,
			"0.0": 8.67779762844,
			"0.001": 9.07143856495,
			"0.002": 11.6486885576,
			"0.003": 16.1600432562,
			"0.004": 11.693079136,
			"0.005": 4.89935671247,
			"0.006": 6.13124176785,
			"0.007": 5.34148580349,
			"0.008": 5.88476076017,
			"0.009": 7.0993915724,
			"0.01": 11.248903431,
			"0.011": 8.62858111162,
			"0.012": 0.752725121334,
			"0.013": 0.0,
			"0.014": 0.0,
			"0.015": 0.0,
			"0.016": 0.0,
			"0.017": 0.0,
			"0.018": 0.0,
			"0.019": 0.0,
			"0.02": 0.0,
			"0.021": 0.0,
			"0.022": 0.0,
			"0.023": 0.0,
			"0.024": 0.0,
			"0.025": 0.0
		}
	}
}
