{
	 "smiles": "O=C(CC1=CC=C(C=C1)C1=CC=CC=C1)NC1=CC=CC=N1", 
	 "Tm": 395.15, 
	 "num_atms": 38, 
	 "gaussian": { 
		 "optdone": 1, 
		 "sigma_profile": "yes", 
		 "theory": "DFT", 
		 "functional": "B3LYP", 
		 "basiset": "6-31G**", 
		 "properties": { 
			 "R2extent": 10091.5613, 
			 "electric_dipole_moment_norm": 5.15797747766, 
			 "electric_quadrupole_moment_norm": 18.5371083201, 
			 "total_energy": -918.414366764, 
			 "HOMO_LUMO_gap": 0.18465, 
			 "cosmo_polarized_energy": -20.01, 
			 "cosmo_cavitation_energy": 43.01, 
			 "cosmo_dispersion_energy": -30.04, 
			 "cosmo_repulsion_energy": 2.29, 
			 "cosmo_total_nonelectrostatic_energy": 15.27, 
			 "SMD_solvation_energy": 6.34 
		},
		"coords": [
			{
				"x": -3.2089984114,
				"y": -2.665318875,
				"z": 2.3241650532,
				"element": "O" 
			},
			{
				"x": -2.521334831,
				"y": -2.0877793938,
				"z": 1.5080498061,
				"element": "C" 
			},
			{
				"x": -3.1029000077,
				"y": -0.9293764859,
				"z": 0.6634677128,
				"element": "C" 
			},
			{
				"x": -2.1303908878,
				"y": 0.0880675822,
				"z": 0.1137904638,
				"element": "C" 
			},
			{
				"x": -1.6469121918,
				"y": 0.0011596397,
				"z": -1.200159775,
				"element": "C" 
			},
			{
				"x": -0.7313725023,
				"y": 0.9291254106,
				"z": -1.6954130349,
				"element": "C" 
			},
			{
				"x": -0.2612917907,
				"y": 1.9821031302,
				"z": -0.8940816078,
				"element": "C" 
			},
			{
				"x": -0.7468202629,
				"y": 2.0672220918,
				"z": 0.423096019,
				"element": "C" 
			},
			{
				"x": -1.661024745,
				"y": 1.1403792924,
				"z": 0.9154500758,
				"element": "C" 
			},
			{
				"x": 0.7111338615,
				"y": 2.9735053036,
				"z": -1.4200629434,
				"element": "C" 
			},
			{
				"x": 0.6230381093,
				"y": 4.3303627082,
				"z": -1.0642774344,
				"element": "C" 
			},
			{
				"x": 1.5363813576,
				"y": 5.2609482476,
				"z": -1.5575833062,
				"element": "C" 
			},
			{
				"x": 2.557772547,
				"y": 4.8558526514,
				"z": -2.4189558359,
				"element": "C" 
			},
			{
				"x": 2.6575832501,
				"y": 3.5114678659,
				"z": -2.7821662384,
				"element": "C" 
			},
			{
				"x": 1.7448857739,
				"y": 2.5809058508,
				"z": -2.2876106099,
				"element": "C" 
			},
			{
				"x": -1.2030657569,
				"y": -2.3952235149,
				"z": 1.2057330242,
				"element": "N" 
			},
			{
				"x": -0.3937297063,
				"y": -3.4163654439,
				"z": 1.7319914829,
				"element": "C" 
			},
			{
				"x": 1.0032382837,
				"y": -3.2631026061,
				"z": 1.6424329212,
				"element": "C" 
			},
			{
				"x": 1.810841565,
				"y": -4.2819097071,
				"z": 2.1297926605,
				"element": "C" 
			},
			{
				"x": 1.2133425857,
				"y": -5.4089954606,
				"z": 2.6996831856,
				"element": "C" 
			},
			{
				"x": -0.1786600836,
				"y": -5.4547033018,
				"z": 2.7386953985,
				"element": "C" 
			},
			{
				"x": -0.9765673183,
				"y": -4.4931265044,
				"z": 2.2599684456,
				"element": "N" 
			},
			{
				"x": -3.6559374907,
				"y": -1.4035381264,
				"z": -0.1567328993,
				"element": "H" 
			},
			{
				"x": -3.8486387297,
				"y": -0.455893275,
				"z": 1.3072535515,
				"element": "H" 
			},
			{
				"x": -2.0082506421,
				"y": -0.7916632815,
				"z": -1.8510632818,
				"element": "H" 
			},
			{
				"x": -0.4021323533,
				"y": 0.8543432706,
				"z": -2.7275217447,
				"element": "H" 
			},
			{
				"x": -0.3858593336,
				"y": 2.8573700394,
				"z": 1.074735073,
				"element": "H" 
			},
			{
				"x": -2.0140045651,
				"y": 1.2288650221,
				"z": 1.9400204025,
				"element": "H" 
			},
			{
				"x": -0.1838992772,
				"y": 4.6614647365,
				"z": -0.4172285901,
				"element": "H" 
			},
			{
				"x": 1.4440988972,
				"y": 6.3060058764,
				"z": -1.2756799389,
				"element": "H" 
			},
			{
				"x": 3.2689426603,
				"y": 5.5809182788,
				"z": -2.803725395,
				"element": "H" 
			},
			{
				"x": 3.4532514533,
				"y": 3.1840563565,
				"z": -3.445424408,
				"element": "H" 
			},
			{
				"x": 1.8480234639,
				"y": 1.5334943419,
				"z": -2.5559310413,
				"element": "H" 
			},
			{
				"x": -0.7290918402,
				"y": -1.7267329971,
				"z": 0.6135538566,
				"element": "H" 
			},
			{
				"x": 1.4341588752,
				"y": -2.3645288691,
				"z": 1.2097226215,
				"element": "H" 
			},
			{
				"x": 2.8920379775,
				"y": -4.1936436621,
				"z": 2.0735363688,
				"element": "H" 
			},
			{
				"x": 1.8058600868,
				"y": -6.2257589268,
				"z": 3.0979858637,
				"element": "H" 
			},
			{
				"x": -0.6886080203,
				"y": -6.3149572651,
				"z": 3.1692940982,
				"element": "H" 
			}
		],
		 "valence_orbital": [ 
			{
				"type": "occ",
				"energy": -0.26377,
				"method": "rhf"
			},
			{
				"type": "occ",
				"energy": -0.25693,
				"method": "rhf"
			},
			{
				"type": "occ",
				"energy": -0.23871,
				"method": "rhf"
			},
			{
				"type": "occ",
				"energy": -0.2289,
				"method": "rhf"
			},
			{
				"type": "occ",
				"energy": -0.22309,
				"method": "rhf"
			},
			{
				"type": "unocc",
				"energy": -0.03844,
				"method": "rhf"
			},
			{
				"type": "unocc",
				"energy": -0.02366,
				"method": "rhf"
			},
			{
				"type": "unocc",
				"energy": -0.01834,
				"method": "rhf"
			},
			{
				"type": "unocc",
				"energy": -0.0105,
				"method": "rhf"
			},
			{
				"type": "unocc",
				"energy": -0.00724,
				"method": "rhf"
			}
		],
		"cosmo_sigma_profile": { 
			"-0.025": 0.0,
			"-0.024": 0.0,
			"-0.023": 0.0,
			"-0.022": 0.0,
			"-0.021": 0.0,
			"-0.02": 0.0,
			"-0.019": 0.0,
			"-0.018": 0.0,
			"-0.017": 0.0,
			"-0.016": 0.0,
			"-0.015": 0.0,
			"-0.014": 0.0,
			"-0.013": 0.195121497249,
			"-0.012": 1.11216795471,
			"-0.011": 0.663952934411,
			"-0.01": 0.972282794307,
			"-0.009": 1.42302875968,
			"-0.008": 2.23870740401,
			"-0.007": 8.03358967695,
			"-0.006": 24.2601547586,
			"-0.005": 35.9060305711,
			"-0.004": 31.5184472372,
			"-0.003": 25.2644764772,
			"-0.002": 23.0413296073,
			"-0.001": 19.6300580107,
			"0.0": 19.9612187255,
			"0.001": 23.1065098589,
			"0.002": 26.982168833,
			"0.003": 28.693886944,
			"0.004": 20.1313628337,
			"0.005": 16.2565919037,
			"0.006": 8.20181916261,
			"0.007": 2.38238258703,
			"0.008": 1.83056089351,
			"0.009": 1.76790542395,
			"0.01": 2.1216807955,
			"0.011": 2.4237217887,
			"0.012": 2.1885548475,
			"0.013": 5.62072001481,
			"0.014": 3.29648769476,
			"0.015": 1.37060820172,
			"0.016": 1.18056816087,
			"0.017": 0.908824818389,
			"0.018": 1.24643512494,
			"0.019": 0.676807749291,
			"0.02": 0.249430852337,
			"0.021": 0.0,
			"0.022": 0.0,
			"0.023": 0.0,
			"0.024": 0.0,
			"0.025": 0.0
		}
	}
}
