{
	 "smiles": "OC(=O)C=CC1=NC2=C(C=CC=C2)N=C1", 
	 "Tm": 507.15, 
	 "num_atms": 23, 
	 "gaussian": { 
		 "optdone": 1, 
		 "sigma_profile": "yes", 
		 "theory": "DFT", 
		 "functional": "B3LYP", 
		 "basiset": "6-31G**", 
		 "properties": { 
			 "R2extent": 4172.8109, 
			 "electric_dipole_moment_norm": 4.24916620292, 
			 "electric_quadrupole_moment_norm": 23.0555125877, 
			 "total_energy": -683.926344975, 
			 "HOMO_LUMO_gap": 0.15199, 
			 "cosmo_polarized_energy": -16.65, 
			 "cosmo_cavitation_energy": 28.34, 
			 "cosmo_dispersion_energy": -21.23, 
			 "cosmo_repulsion_energy": 1.63, 
			 "cosmo_total_nonelectrostatic_energy": 8.74, 
			 "SMD_solvation_energy": 3.13 
		},
		"coords": [
			{
				"x": -3.435182168,
				"y": 2.5483140638,
				"z": -2.6889568046,
				"element": "O" 
			},
			{
				"x": -2.6316149906,
				"y": 1.910447117,
				"z": -1.7932137638,
				"element": "C" 
			},
			{
				"x": -3.1376179857,
				"y": 1.4235475573,
				"z": -0.8055608268,
				"element": "O" 
			},
			{
				"x": -1.1935840026,
				"y": 1.8969765003,
				"z": -2.1626216606,
				"element": "C" 
			},
			{
				"x": -0.119662,
				"y": 1.3815435651,
				"z": -1.5223313928,
				"element": "C" 
			},
			{
				"x": 0.1241491249,
				"y": 0.6540414229,
				"z": -0.2678309725,
				"element": "C" 
			},
			{
				"x": 1.4136760547,
				"y": 0.3684689915,
				"z": -0.0859028137,
				"element": "N" 
			},
			{
				"x": 1.7585251864,
				"y": -0.3021843084,
				"z": 1.040485859,
				"element": "C" 
			},
			{
				"x": 0.7680659863,
				"y": -0.6878934059,
				"z": 1.9976376011,
				"element": "C" 
			},
			{
				"x": 1.1638396634,
				"y": -1.3876906554,
				"z": 3.1649272016,
				"element": "C" 
			},
			{
				"x": 2.4927879638,
				"y": -1.6890763898,
				"z": 3.3664609153,
				"element": "C" 
			},
			{
				"x": 3.4771403997,
				"y": -1.3069271419,
				"z": 2.416730304,
				"element": "C" 
			},
			{
				"x": 3.1224267319,
				"y": -0.6268025034,
				"z": 1.2746382403,
				"element": "C" 
			},
			{
				"x": -0.5473774673,
				"y": -0.3907501451,
				"z": 1.7990833945,
				"element": "N" 
			},
			{
				"x": -0.8603402665,
				"y": 0.2608438364,
				"z": 0.6987866401,
				"element": "C" 
			},
			{
				"x": -2.9202653342,
				"y": 2.8951664409,
				"z": -3.4298272311,
				"element": "H" 
			},
			{
				"x": -0.9607913754,
				"y": 2.3843860297,
				"z": -3.1084805721,
				"element": "H" 
			},
			{
				"x": 0.8280005617,
				"y": 1.5244126868,
				"z": -2.0380305163,
				"element": "H" 
			},
			{
				"x": 0.3934355983,
				"y": -1.6688785024,
				"z": 3.8754559629,
				"element": "H" 
			},
			{
				"x": 2.7973124535,
				"y": -2.2252531142,
				"z": 4.2604849924,
				"element": "H" 
			},
			{
				"x": 4.5180633082,
				"y": -1.556736999,
				"z": 2.5993663746,
				"element": "H" 
			},
			{
				"x": 3.8533654724,
				"y": -0.3225374636,
				"z": 0.5324325395,
				"element": "H" 
			},
			{
				"x": -1.9025529148,
				"y": 0.5025824174,
				"z": 0.527966529,
				"element": "H" 
			}
		],
		 "valence_orbital": [ 
			{
				"type": "occ",
				"energy": -0.30391,
				"method": "rhf"
			},
			{
				"type": "occ",
				"energy": -0.2802,
				"method": "rhf"
			},
			{
				"type": "occ",
				"energy": -0.25582,
				"method": "rhf"
			},
			{
				"type": "occ",
				"energy": -0.24854,
				"method": "rhf"
			},
			{
				"type": "occ",
				"energy": -0.24699,
				"method": "rhf"
			},
			{
				"type": "unocc",
				"energy": -0.095,
				"method": "rhf"
			},
			{
				"type": "unocc",
				"energy": -0.05601,
				"method": "rhf"
			},
			{
				"type": "unocc",
				"energy": -0.00983,
				"method": "rhf"
			},
			{
				"type": "unocc",
				"energy": 0.00623,
				"method": "rhf"
			},
			{
				"type": "unocc",
				"energy": 0.04682,
				"method": "rhf"
			}
		],
		"cosmo_sigma_profile": { 
			"-0.025": 0.0,
			"-0.024": 0.0,
			"-0.023": 0.0,
			"-0.022": 0.0,
			"-0.021": 0.0,
			"-0.02": 0.189069881305,
			"-0.019": 1.29437755719,
			"-0.018": 1.27309677695,
			"-0.017": 1.02985651027,
			"-0.016": 1.11401577263,
			"-0.015": 1.0853523311,
			"-0.014": 0.939006792142,
			"-0.013": 0.930335560371,
			"-0.012": 1.50458141398,
			"-0.011": 0.826617495272,
			"-0.01": 1.02452805609,
			"-0.009": 1.28773865511,
			"-0.008": 2.29720250225,
			"-0.007": 8.56732618316,
			"-0.006": 11.7366137258,
			"-0.005": 11.2898282321,
			"-0.004": 10.716252745,
			"-0.003": 10.6596491924,
			"-0.002": 15.7321870523,
			"-0.001": 20.4777403844,
			"0.0": 20.2961866282,
			"0.001": 20.8521259626,
			"0.002": 20.156049702,
			"0.003": 15.2278358804,
			"0.004": 6.16559530386,
			"0.005": 4.34944671757,
			"0.006": 5.06654082118,
			"0.007": 5.31475210564,
			"0.008": 4.15656987797,
			"0.009": 5.34669812962,
			"0.01": 5.34576958221,
			"0.011": 5.81470293819,
			"0.012": 3.8442041937,
			"0.013": 2.0877154983,
			"0.014": 0.418941853308,
			"0.015": 0.548759135862,
			"0.016": 0.00185695354017,
			"0.017": 0.0,
			"0.018": 0.0,
			"0.019": 0.0,
			"0.02": 0.0,
			"0.021": 0.0,
			"0.022": 0.0,
			"0.023": 0.0,
			"0.024": 0.0,
			"0.025": 0.0
		}
	}
}
