{
	 "smiles": "CCOC(=O)C1=CSC(=N1)C1CCN(CC1)C(=O)OC(C)(C)C", 
	 "Tm": 345.15, 
	 "num_atms": 47, 
	 "gaussian": { 
		 "optdone": 1, 
		 "sigma_profile": "yes", 
		 "theory": "DFT", 
		 "functional": "B3LYP", 
		 "basiset": "6-31G**", 
		 "properties": { 
			 "R2extent": 14800.9596, 
			 "electric_dipole_moment_norm": 1.65409405416, 
			 "electric_quadrupole_moment_norm": 19.7088647902, 
			 "total_energy": -1432.80091332, 
			 "HOMO_LUMO_gap": 0.18653, 
			 "cosmo_polarized_energy": -16.18, 
			 "cosmo_cavitation_energy": 49.92, 
			 "cosmo_dispersion_energy": -35.2, 
			 "cosmo_repulsion_energy": 2.69, 
			 "cosmo_total_nonelectrostatic_energy": 17.41, 
			 "SMD_solvation_energy": 7.92 
		},
		"coords": [
			{
				"x": -6.870149799,
				"y": 2.0795565905,
				"z": -3.3765093621,
				"element": "C" 
			},
			{
				"x": -6.0937473761,
				"y": 3.0917938628,
				"z": -2.5473890121,
				"element": "C" 
			},
			{
				"x": -4.8401572444,
				"y": 2.5381662211,
				"z": -2.0808913338,
				"element": "O" 
			},
			{
				"x": -3.8008230953,
				"y": 2.6224930314,
				"z": -2.9294480312,
				"element": "C" 
			},
			{
				"x": -3.8484895264,
				"y": 3.1275461788,
				"z": -4.0364893177,
				"element": "O" 
			},
			{
				"x": -2.5601197832,
				"y": 2.0291208274,
				"z": -2.3659168185,
				"element": "C" 
			},
			{
				"x": -1.3863707079,
				"y": 2.0280035234,
				"z": -3.0726794501,
				"element": "C" 
			},
			{
				"x": -0.1406663818,
				"y": 1.2839483247,
				"z": -2.1459406059,
				"element": "S" 
			},
			{
				"x": -1.3177313176,
				"y": 1.0105385839,
				"z": -0.838627648,
				"element": "C" 
			},
			{
				"x": -2.5072638108,
				"y": 1.4530173101,
				"z": -1.1139662465,
				"element": "N" 
			},
			{
				"x": -0.9621035605,
				"y": 0.292941325,
				"z": 0.437351115,
				"element": "C" 
			},
			{
				"x": -0.7472854053,
				"y": -1.2400221844,
				"z": 0.2313679828,
				"element": "C" 
			},
			{
				"x": 0.7284372572,
				"y": -1.6399150897,
				"z": 0.1644907983,
				"element": "C" 
			},
			{
				"x": 1.4118243724,
				"y": -1.238123476,
				"z": 1.399318421,
				"element": "N" 
			},
			{
				"x": 0.9015646986,
				"y": -0.0750917982,
				"z": 2.1337387328,
				"element": "C" 
			},
			{
				"x": 0.2600280058,
				"y": 0.9155725993,
				"z": 1.1616816792,
				"element": "C" 
			},
			{
				"x": 2.5697152258,
				"y": -1.8213436682,
				"z": 1.8409036046,
				"element": "C" 
			},
			{
				"x": 3.1568142175,
				"y": -1.4774746043,
				"z": 2.8587279553,
				"element": "O" 
			},
			{
				"x": 2.9597642995,
				"y": -2.812875885,
				"z": 0.999929597,
				"element": "O" 
			},
			{
				"x": 4.1587115767,
				"y": -3.615140705,
				"z": 1.2860680876,
				"element": "C" 
			},
			{
				"x": 5.4029574396,
				"y": -2.7203346302,
				"z": 1.2781720015,
				"element": "C" 
			},
			{
				"x": 4.1895680205,
				"y": -4.5960302993,
				"z": 0.1106345839,
				"element": "C" 
			},
			{
				"x": 3.9899783025,
				"y": -4.3634899599,
				"z": 2.612823307,
				"element": "C" 
			},
			{
				"x": -6.3305140713,
				"y": 1.842525836,
				"z": -4.2965923093,
				"element": "H" 
			},
			{
				"x": -7.846908215,
				"y": 2.4937444986,
				"z": -3.6481830501,
				"element": "H" 
			},
			{
				"x": -7.0325112602,
				"y": 1.1569519826,
				"z": -2.8116910008,
				"element": "H" 
			},
			{
				"x": -6.6283703237,
				"y": 3.354131721,
				"z": -1.6315207982,
				"element": "H" 
			},
			{
				"x": -5.8882697275,
				"y": 3.997826834,
				"z": -3.1225018661,
				"element": "H" 
			},
			{
				"x": -1.2205317911,
				"y": 2.4314743342,
				"z": -4.0607153084,
				"element": "H" 
			},
			{
				"x": -1.8481678899,
				"y": 0.4223830719,
				"z": 1.0664415767,
				"element": "H" 
			},
			{
				"x": -1.2582603109,
				"y": -1.580054889,
				"z": -0.6742543752,
				"element": "H" 
			},
			{
				"x": -1.2100078021,
				"y": -1.7712401097,
				"z": 1.0701348448,
				"element": "H" 
			},
			{
				"x": 0.8184535945,
				"y": -2.7209522283,
				"z": 0.0489034605,
				"element": "H" 
			},
			{
				"x": 1.2114310438,
				"y": -1.1883530016,
				"z": -0.7155780592,
				"element": "H" 
			},
			{
				"x": 0.1726100952,
				"y": -0.3867248022,
				"z": 2.8967802541,
				"element": "H" 
			},
			{
				"x": 1.7412789237,
				"y": 0.3769382764,
				"z": 2.6635326882,
				"element": "H" 
			},
			{
				"x": -0.0450067928,
				"y": 1.8206697815,
				"z": 1.6962097569,
				"element": "H" 
			},
			{
				"x": 1.0187027856,
				"y": 1.2238299586,
				"z": 0.4325553346,
				"element": "H" 
			},
			{
				"x": 5.3720805637,
				"y": -2.0044526309,
				"z": 2.0995355152,
				"element": "H" 
			},
			{
				"x": 6.3012025962,
				"y": -3.3384712919,
				"z": 1.3781276961,
				"element": "H" 
			},
			{
				"x": 5.4708863102,
				"y": -2.1737588493,
				"z": 0.3320485536,
				"element": "H" 
			},
			{
				"x": 4.2606916437,
				"y": -4.0582726155,
				"z": -0.8393508551,
				"element": "H" 
			},
			{
				"x": 5.0542197206,
				"y": -5.2606282976,
				"z": 0.1980567824,
				"element": "H" 
			},
			{
				"x": 3.28312966,
				"y": -5.2084790413,
				"z": 0.0935726401,
				"element": "H" 
			},
			{
				"x": 3.071707942,
				"y": -4.9594739041,
				"z": 2.5983324531,
				"element": "H" 
			},
			{
				"x": 3.9474182914,
				"y": -3.6673557169,
				"z": 3.4505363648,
				"element": "H" 
			},
			{
				"x": 4.8340796062,
				"y": -5.0452149949,
				"z": 2.759869661,
				"element": "H" 
			}
		],
		 "valence_orbital": [ 
			{
				"type": "occ",
				"energy": -0.28285,
				"method": "rhf"
			},
			{
				"type": "occ",
				"energy": -0.27211,
				"method": "rhf"
			},
			{
				"type": "occ",
				"energy": -0.2588,
				"method": "rhf"
			},
			{
				"type": "occ",
				"energy": -0.25109,
				"method": "rhf"
			},
			{
				"type": "occ",
				"energy": -0.23472,
				"method": "rhf"
			},
			{
				"type": "unocc",
				"energy": -0.04819,
				"method": "rhf"
			},
			{
				"type": "unocc",
				"energy": -0.00929,
				"method": "rhf"
			},
			{
				"type": "unocc",
				"energy": 0.00868,
				"method": "rhf"
			},
			{
				"type": "unocc",
				"energy": 0.05548,
				"method": "rhf"
			},
			{
				"type": "unocc",
				"energy": 0.06277,
				"method": "rhf"
			}
		],
		"cosmo_sigma_profile": { 
			"-0.025": 0.0,
			"-0.024": 0.0,
			"-0.023": 0.0,
			"-0.022": 0.0,
			"-0.021": 0.0,
			"-0.02": 0.0,
			"-0.019": 0.0,
			"-0.018": 0.0,
			"-0.017": 0.0,
			"-0.016": 0.0,
			"-0.015": 0.0,
			"-0.014": 0.0,
			"-0.013": 0.0,
			"-0.012": 0.0,
			"-0.011": 0.00442163617926,
			"-0.01": 0.819219909243,
			"-0.009": 1.446671072,
			"-0.008": 1.85760724897,
			"-0.007": 1.79186706689,
			"-0.006": 3.92530200464,
			"-0.005": 18.946625257,
			"-0.004": 43.3325275291,
			"-0.003": 54.1485975597,
			"-0.002": 44.8418822552,
			"-0.001": 41.9040594496,
			"0.0": 48.1835134995,
			"0.001": 41.8932728142,
			"0.002": 17.7069048565,
			"0.003": 9.51507714158,
			"0.004": 8.63064753729,
			"0.005": 7.75089248419,
			"0.006": 5.90819569539,
			"0.007": 5.14304167914,
			"0.008": 5.62171806332,
			"0.009": 4.48428789738,
			"0.01": 4.50701731798,
			"0.011": 5.2052750864,
			"0.012": 6.39679926876,
			"0.013": 4.17498776902,
			"0.014": 3.37776841166,
			"0.015": 1.13771392851,
			"0.016": 0.295946069711,
			"0.017": 0.0,
			"0.018": 0.0,
			"0.019": 0.0,
			"0.02": 0.0,
			"0.021": 0.0,
			"0.022": 0.0,
			"0.023": 0.0,
			"0.024": 0.0,
			"0.025": 0.0
		}
	}
}
