{
	 "smiles": "CC#CCC(C)C", 
	 "Tm": 180.15, 
	 "num_atms": 19, 
	 "gaussian": { 
		 "optdone": 1, 
		 "sigma_profile": "yes", 
		 "theory": "DFT", 
		 "functional": "B3LYP", 
		 "basiset": "6-31G**", 
		 "properties": { 
			 "R2extent": 1634.9743, 
			 "electric_dipole_moment_norm": 0.172936433408, 
			 "electric_quadrupole_moment_norm": 3.53429944261, 
			 "total_energy": -273.932336999, 
			 "HOMO_LUMO_gap": 0.30079, 
			 "cosmo_polarized_energy": -3.2, 
			 "cosmo_cavitation_energy": 22.05, 
			 "cosmo_dispersion_energy": -15.66, 
			 "cosmo_repulsion_energy": 1.37, 
			 "cosmo_total_nonelectrostatic_energy": 7.75, 
			 "SMD_solvation_energy": 4.45 
		},
		"coords": [
			{
				"x": -3.8394658056,
				"y": -0.9403857239,
				"z": 1.0450499397,
				"element": "C" 
			},
			{
				"x": -2.9098096248,
				"y": -0.018331018,
				"z": 0.397330269,
				"element": "C" 
			},
			{
				"x": -2.1454374511,
				"y": 0.7527878602,
				"z": -0.1370787871,
				"element": "C" 
			},
			{
				"x": -1.2163490903,
				"y": 1.6730195462,
				"z": -0.7960685704,
				"element": "C" 
			},
			{
				"x": -0.0539264032,
				"y": 0.9737655977,
				"z": -1.5471442614,
				"element": "C" 
			},
			{
				"x": 0.7758105073,
				"y": 2.0107876553,
				"z": -2.3154069626,
				"element": "C" 
			},
			{
				"x": 0.8214193461,
				"y": 0.1537883727,
				"z": -0.5916258348,
				"element": "C" 
			},
			{
				"x": -4.8725923439,
				"y": -0.5816597843,
				"z": 0.9709805265,
				"element": "H" 
			},
			{
				"x": -3.8018793352,
				"y": -1.9340912946,
				"z": 0.584006108,
				"element": "H" 
			},
			{
				"x": -3.6070704359,
				"y": -1.0610641048,
				"z": 2.109418296,
				"element": "H" 
			},
			{
				"x": -1.7722147775,
				"y": 2.3009971323,
				"z": -1.5058372299,
				"element": "H" 
			},
			{
				"x": -0.7916631878,
				"y": 2.3626183565,
				"z": -0.0515016434,
				"element": "H" 
			},
			{
				"x": -0.5060165752,
				"y": 0.2852954174,
				"z": -2.2740183914,
				"element": "H" 
			},
			{
				"x": 1.234644798,
				"y": 2.7329190117,
				"z": -1.6287323584,
				"element": "H" 
			},
			{
				"x": 1.5835894418,
				"y": 1.5301240317,
				"z": -2.8771798297,
				"element": "H" 
			},
			{
				"x": 0.160430802,
				"y": 2.571950753,
				"z": -3.027426126,
				"element": "H" 
			},
			{
				"x": 0.2255291573,
				"y": -0.5831807461,
				"z": -0.0456559219,
				"element": "H" 
			},
			{
				"x": 1.3095736303,
				"y": 0.8044301389,
				"z": 0.1448877656,
				"element": "H" 
			},
			{
				"x": 1.6078273479,
				"y": -0.3778712021,
				"z": -1.137996988,
				"element": "H" 
			}
		],
		 "valence_orbital": [ 
			{
				"type": "occ",
				"energy": -0.33839,
				"method": "rhf"
			},
			{
				"type": "occ",
				"energy": -0.33027,
				"method": "rhf"
			},
			{
				"type": "occ",
				"energy": -0.32406,
				"method": "rhf"
			},
			{
				"type": "occ",
				"energy": -0.2399,
				"method": "rhf"
			},
			{
				"type": "occ",
				"energy": -0.23928,
				"method": "rhf"
			},
			{
				"type": "unocc",
				"energy": 0.06151,
				"method": "rhf"
			},
			{
				"type": "unocc",
				"energy": 0.06839,
				"method": "rhf"
			},
			{
				"type": "unocc",
				"energy": 0.09698,
				"method": "rhf"
			},
			{
				"type": "unocc",
				"energy": 0.11599,
				"method": "rhf"
			},
			{
				"type": "unocc",
				"energy": 0.13492,
				"method": "rhf"
			}
		],
		"cosmo_sigma_profile": { 
			"-0.025": 0.0,
			"-0.024": 0.0,
			"-0.023": 0.0,
			"-0.022": 0.0,
			"-0.021": 0.0,
			"-0.02": 0.0,
			"-0.019": 0.0,
			"-0.018": 0.0,
			"-0.017": 0.0,
			"-0.016": 0.0,
			"-0.015": 0.0,
			"-0.014": 0.0,
			"-0.013": 0.0,
			"-0.012": 0.0,
			"-0.011": 0.0,
			"-0.01": 0.0,
			"-0.009": 0.0,
			"-0.008": 0.0,
			"-0.007": 0.0,
			"-0.006": 1.01822255919,
			"-0.005": 5.91659821726,
			"-0.004": 9.35490562785,
			"-0.003": 18.48452009,
			"-0.002": 27.8880204502,
			"-0.001": 26.7196736361,
			"0.0": 19.9954726762,
			"0.001": 19.4537559267,
			"0.002": 13.5858431878,
			"0.003": 5.3289074242,
			"0.004": 4.88564983294,
			"0.005": 4.76375865639,
			"0.006": 3.72324142387,
			"0.007": 5.57399985283,
			"0.008": 5.40572099695,
			"0.009": 0.0460604704145,
			"0.01": 0.0,
			"0.011": 0.0,
			"0.012": 0.0,
			"0.013": 0.0,
			"0.014": 0.0,
			"0.015": 0.0,
			"0.016": 0.0,
			"0.017": 0.0,
			"0.018": 0.0,
			"0.019": 0.0,
			"0.02": 0.0,
			"0.021": 0.0,
			"0.022": 0.0,
			"0.023": 0.0,
			"0.024": 0.0,
			"0.025": 0.0
		}
	}
}
