{
	 "smiles": "CC1=C(N=CC=C1)C(=O)NN", 
	 "Tm": 350.15, 
	 "num_atms": 20, 
	 "gaussian": { 
		 "optdone": 1, 
		 "sigma_profile": "yes", 
		 "theory": "DFT", 
		 "functional": "B3LYP", 
		 "basiset": "6-31G**", 
		 "properties": { 
			 "R2extent": 2137.1924, 
			 "electric_dipole_moment_norm": 3.83006071231, 
			 "electric_quadrupole_moment_norm": 6.21244269752, 
			 "total_energy": -511.625471614, 
			 "HOMO_LUMO_gap": 0.1849, 
			 "cosmo_polarized_energy": -12.09, 
			 "cosmo_cavitation_energy": 23.76, 
			 "cosmo_dispersion_energy": -17.57, 
			 "cosmo_repulsion_energy": 1.43, 
			 "cosmo_total_nonelectrostatic_energy": 7.61, 
			 "SMD_solvation_energy": 4.7 
		},
		"coords": [
			{
				"x": -1.2957396832,
				"y": 0.4835213025,
				"z": -0.3195432487,
				"element": "C" 
			},
			{
				"x": 0.0141657659,
				"y": -0.2580942749,
				"z": -0.2204744888,
				"element": "C" 
			},
			{
				"x": 0.8846393572,
				"y": -0.1659251914,
				"z": 0.8886470127,
				"element": "C" 
			},
			{
				"x": 2.0433465451,
				"y": -0.8428021691,
				"z": 0.9729624634,
				"element": "N" 
			},
			{
				"x": 2.3946468635,
				"y": -1.6515904935,
				"z": -0.0303721608,
				"element": "C" 
			},
			{
				"x": 1.6179725528,
				"y": -1.8083221789,
				"z": -1.1759015951,
				"element": "C" 
			},
			{
				"x": 0.4257226746,
				"y": -1.0952249747,
				"z": -1.2643687736,
				"element": "C" 
			},
			{
				"x": 0.484821753,
				"y": 0.6434786382,
				"z": 2.1046460556,
				"element": "C" 
			},
			{
				"x": -0.6910339336,
				"y": 0.7040531221,
				"z": 2.4602264449,
				"element": "O" 
			},
			{
				"x": 1.4572640742,
				"y": 1.2849346869,
				"z": 2.8190964302,
				"element": "N" 
			},
			{
				"x": 2.8471400499,
				"y": 1.3562332647,
				"z": 2.5904508466,
				"element": "N" 
			},
			{
				"x": -1.6855564027,
				"y": 0.4277940325,
				"z": -1.3401572346,
				"element": "H" 
			},
			{
				"x": -2.0315428338,
				"y": 0.0604008221,
				"z": 0.3685627354,
				"element": "H" 
			},
			{
				"x": -1.1918060166,
				"y": 1.5350704408,
				"z": -0.0403777847,
				"element": "H" 
			},
			{
				"x": 3.3338601748,
				"y": -2.1879282101,
				"z": 0.087824292,
				"element": "H" 
			},
			{
				"x": 1.9407252771,
				"y": -2.4666493983,
				"z": -1.976300873,
				"element": "H" 
			},
			{
				"x": -0.2019880496,
				"y": -1.1888924941,
				"z": -2.1468411844,
				"element": "H" 
			},
			{
				"x": 1.1324531463,
				"y": 1.7197116934,
				"z": 3.673102865,
				"element": "H" 
			},
			{
				"x": 3.0150922392,
				"y": 1.9521832231,
				"z": 1.7804342083,
				"element": "H" 
			},
			{
				"x": 3.154416446,
				"y": 0.4192481586,
				"z": 2.3360839897,
				"element": "H" 
			}
		],
		 "valence_orbital": [ 
			{
				"type": "occ",
				"energy": -0.28939,
				"method": "rhf"
			},
			{
				"type": "occ",
				"energy": -0.27574,
				"method": "rhf"
			},
			{
				"type": "occ",
				"energy": -0.26185,
				"method": "rhf"
			},
			{
				"type": "occ",
				"energy": -0.24857,
				"method": "rhf"
			},
			{
				"type": "occ",
				"energy": -0.23322,
				"method": "rhf"
			},
			{
				"type": "unocc",
				"energy": -0.04832,
				"method": "rhf"
			},
			{
				"type": "unocc",
				"energy": -0.02671,
				"method": "rhf"
			},
			{
				"type": "unocc",
				"energy": 0.04978,
				"method": "rhf"
			},
			{
				"type": "unocc",
				"energy": 0.08839,
				"method": "rhf"
			},
			{
				"type": "unocc",
				"energy": 0.10019,
				"method": "rhf"
			}
		],
		"cosmo_sigma_profile": { 
			"-0.025": 0.0,
			"-0.024": 0.0,
			"-0.023": 0.0,
			"-0.022": 0.0,
			"-0.021": 0.0,
			"-0.02": 0.0,
			"-0.019": 0.0,
			"-0.018": 0.0,
			"-0.017": 0.0,
			"-0.016": 0.0,
			"-0.015": 0.0,
			"-0.014": 0.191082789799,
			"-0.013": 0.789065360822,
			"-0.012": 1.39209908929,
			"-0.011": 2.10282023267,
			"-0.01": 1.75730692986,
			"-0.009": 2.25627309686,
			"-0.008": 1.6982795143,
			"-0.007": 7.78767777055,
			"-0.006": 12.0744124861,
			"-0.005": 10.7154771686,
			"-0.004": 12.3059973688,
			"-0.003": 12.3781694863,
			"-0.002": 11.8146688699,
			"-0.001": 14.6507370137,
			"0.0": 17.0149585843,
			"0.001": 17.3379877323,
			"0.002": 19.0651510137,
			"0.003": 7.22565695457,
			"0.004": 3.9391079702,
			"0.005": 3.94373433931,
			"0.006": 2.98363556366,
			"0.007": 2.89544779438,
			"0.008": 2.42620005635,
			"0.009": 2.4636505593,
			"0.01": 2.57635711477,
			"0.011": 2.4310639773,
			"0.012": 2.65432074637,
			"0.013": 4.17255397822,
			"0.014": 3.69713089868,
			"0.015": 0.747626979148,
			"0.016": 0.550431211081,
			"0.017": 0.327785459631,
			"0.018": 0.0,
			"0.019": 0.0,
			"0.02": 0.0,
			"0.021": 0.0,
			"0.022": 0.0,
			"0.023": 0.0,
			"0.024": 0.0,
			"0.025": 0.0
		}
	}
}
