{
	 "smiles": "OC(=O)C1CCCN(C1)C1=NN=C(Cl)C=C1", 
	 "Tm": 453.15, 
	 "num_atms": 28, 
	 "gaussian": { 
		 "optdone": 1, 
		 "sigma_profile": "yes", 
		 "theory": "DFT", 
		 "functional": "B3LYP", 
		 "basiset": "6-31G**", 
		 "properties": { 
			 "R2extent": 5225.3297, 
			 "electric_dipole_moment_norm": 6.56186108356, 
			 "electric_quadrupole_moment_norm": 15.2966889309, 
			 "total_energy": -1163.16495576, 
			 "HOMO_LUMO_gap": 0.16428, 
			 "cosmo_polarized_energy": -19.62, 
			 "cosmo_cavitation_energy": 32.57, 
			 "cosmo_dispersion_energy": -23.68, 
			 "cosmo_repulsion_energy": 1.84, 
			 "cosmo_total_nonelectrostatic_energy": 10.74, 
			 "SMD_solvation_energy": 3.16 
		},
		"coords": [
			{
				"x": -3.488976875,
				"y": 1.6018687813,
				"z": 1.4812555919,
				"element": "O" 
			},
			{
				"x": -2.7864156642,
				"y": 2.3312798489,
				"z": 0.5740917566,
				"element": "C" 
			},
			{
				"x": -3.0798548315,
				"y": 3.4806451929,
				"z": 0.3531699299,
				"element": "O" 
			},
			{
				"x": -1.6233850681,
				"y": 1.5896399068,
				"z": -0.0705800104,
				"element": "C" 
			},
			{
				"x": -1.0326506642,
				"y": 2.3254243239,
				"z": -1.2809684492,
				"element": "C" 
			},
			{
				"x": 0.169586936,
				"y": 1.5524957657,
				"z": -1.8519340882,
				"element": "C" 
			},
			{
				"x": 1.1981496574,
				"y": 1.1979709478,
				"z": -0.7612501032,
				"element": "C" 
			},
			{
				"x": 0.5615328974,
				"y": 0.5219897922,
				"z": 0.3791397599,
				"element": "N" 
			},
			{
				"x": -0.499796784,
				"y": 1.3384274535,
				"z": 0.9669993229,
				"element": "C" 
			},
			{
				"x": 0.3967007738,
				"y": -0.8525998858,
				"z": 0.398569461,
				"element": "C" 
			},
			{
				"x": -0.7197126659,
				"y": -1.3188510848,
				"z": 0.9937755216,
				"element": "N" 
			},
			{
				"x": -0.9228785242,
				"y": -2.6317789036,
				"z": 1.1318836402,
				"element": "N" 
			},
			{
				"x": -0.0373858221,
				"y": -3.48005949,
				"z": 0.6558051748,
				"element": "C" 
			},
			{
				"x": -0.3892512187,
				"y": -5.1855771577,
				"z": 0.8555619189,
				"element": "Cl" 
			},
			{
				"x": 1.1482601597,
				"y": -3.0895871351,
				"z": 0.0068378542,
				"element": "C" 
			},
			{
				"x": 1.3737781462,
				"y": -1.7417091778,
				"z": -0.1234522118,
				"element": "C" 
			},
			{
				"x": -3.1509981632,
				"y": 0.6930952057,
				"z": 1.5185439114,
				"element": "H" 
			},
			{
				"x": -1.9921130497,
				"y": 0.6024579528,
				"z": -0.3813126075,
				"element": "H" 
			},
			{
				"x": -0.728271423,
				"y": 3.3304750528,
				"z": -0.9652161987,
				"element": "H" 
			},
			{
				"x": -1.7972725359,
				"y": 2.46485094,
				"z": -2.0513810582,
				"element": "H" 
			},
			{
				"x": 0.6623173044,
				"y": 2.1399122231,
				"z": -2.6353599735,
				"element": "H" 
			},
			{
				"x": -0.1784901914,
				"y": 0.6234705421,
				"z": -2.3225196212,
				"element": "H" 
			},
			{
				"x": 1.6693026411,
				"y": 2.1110427949,
				"z": -0.3770148288,
				"element": "H" 
			},
			{
				"x": 1.9982464247,
				"y": 0.5784508126,
				"z": -1.1693148411,
				"element": "H" 
			},
			{
				"x": -0.0579574502,
				"y": 2.2981727857,
				"z": 1.2605352358,
				"element": "H" 
			},
			{
				"x": -0.8718109365,
				"y": 0.8433920326,
				"z": 1.8621539146,
				"element": "H" 
			},
			{
				"x": 1.8528557514,
				"y": -3.8282089033,
				"z": -0.357727152,
				"element": "H" 
			},
			{
				"x": 2.2836911758,
				"y": -1.3781906173,
				"z": -0.5857918498,
				"element": "H" 
			}
		],
		 "valence_orbital": [ 
			{
				"type": "occ",
				"energy": -0.31306,
				"method": "rhf"
			},
			{
				"type": "occ",
				"energy": -0.3025,
				"method": "rhf"
			},
			{
				"type": "occ",
				"energy": -0.27039,
				"method": "rhf"
			},
			{
				"type": "occ",
				"energy": -0.25223,
				"method": "rhf"
			},
			{
				"type": "occ",
				"energy": -0.23061,
				"method": "rhf"
			},
			{
				"type": "unocc",
				"energy": -0.06633,
				"method": "rhf"
			},
			{
				"type": "unocc",
				"energy": -0.02882,
				"method": "rhf"
			},
			{
				"type": "unocc",
				"energy": 0.00841,
				"method": "rhf"
			},
			{
				"type": "unocc",
				"energy": 0.02259,
				"method": "rhf"
			},
			{
				"type": "unocc",
				"energy": 0.06165,
				"method": "rhf"
			}
		],
		"cosmo_sigma_profile": { 
			"-0.025": 0.0,
			"-0.024": 0.0,
			"-0.023": 0.0,
			"-0.022": 0.0,
			"-0.021": 0.0,
			"-0.02": 0.0,
			"-0.019": 0.0,
			"-0.018": 0.0,
			"-0.017": 0.0,
			"-0.016": 0.0194982645251,
			"-0.015": 0.486854208421,
			"-0.014": 0.403021647883,
			"-0.013": 1.01805817892,
			"-0.012": 1.41340513159,
			"-0.011": 0.696258545035,
			"-0.01": 2.74651770851,
			"-0.009": 5.65888364921,
			"-0.008": 5.87497086357,
			"-0.007": 7.16420579747,
			"-0.006": 9.74665770297,
			"-0.005": 16.6166004202,
			"-0.004": 21.6449940174,
			"-0.003": 26.0251317851,
			"-0.002": 22.529800529,
			"-0.001": 21.8754612723,
			"0.0": 18.214243379,
			"0.001": 10.9633946554,
			"0.002": 9.45817620046,
			"0.003": 10.7143750794,
			"0.004": 13.5965163552,
			"0.005": 7.81248886307,
			"0.006": 4.76994112401,
			"0.007": 5.1387778118,
			"0.008": 4.71898393251,
			"0.009": 5.60531958364,
			"0.01": 5.91545592581,
			"0.011": 7.0633387299,
			"0.012": 7.00637483622,
			"0.013": 3.33256849172,
			"0.014": 1.10835413799,
			"0.015": 0.575719833803,
			"0.016": 0.0,
			"0.017": 0.0,
			"0.018": 0.0,
			"0.019": 0.0,
			"0.02": 0.0,
			"0.021": 0.0,
			"0.022": 0.0,
			"0.023": 0.0,
			"0.024": 0.0,
			"0.025": 0.0
		}
	}
}
