{
	 "smiles": "CCC1=C(C=NN1C(C)(C)C)C(O)=O", 
	 "Tm": 407.15, 
	 "num_atms": 30, 
	 "gaussian": { 
		 "optdone": 1, 
		 "sigma_profile": "yes", 
		 "theory": "DFT", 
		 "functional": "B3LYP", 
		 "basiset": "6-31G**", 
		 "properties": { 
			 "R2extent": 3145.5961, 
			 "electric_dipole_moment_norm": 4.46447769509, 
			 "electric_quadrupole_moment_norm": 13.199652345, 
			 "total_energy": -650.668016348, 
			 "HOMO_LUMO_gap": 0.2291, 
			 "cosmo_polarized_energy": -14.87, 
			 "cosmo_cavitation_energy": 30.9, 
			 "cosmo_dispersion_energy": -21.95, 
			 "cosmo_repulsion_energy": 1.7, 
			 "cosmo_total_nonelectrostatic_energy": 10.65, 
			 "SMD_solvation_energy": 5.89 
		},
		"coords": [
			{
				"x": -0.6976219544,
				"y": -0.9687345388,
				"z": 2.0899187083,
				"element": "C" 
			},
			{
				"x": -0.4501513223,
				"y": -1.2521268546,
				"z": 0.5953481456,
				"element": "C" 
			},
			{
				"x": 0.5351518316,
				"y": -0.3059560851,
				"z": -0.0345774902,
				"element": "C" 
			},
			{
				"x": 1.9330305161,
				"y": -0.3576869183,
				"z": 0.0686062186,
				"element": "C" 
			},
			{
				"x": 2.390433411,
				"y": 0.7534631294,
				"z": -0.6782810253,
				"element": "C" 
			},
			{
				"x": 1.3891763493,
				"y": 1.4354333747,
				"z": -1.2043275474,
				"element": "N" 
			},
			{
				"x": 0.2566403935,
				"y": 0.7870915728,
				"z": -0.8068529098,
				"element": "N" 
			},
			{
				"x": -1.0541876401,
				"y": 1.2911067682,
				"z": -1.3392798053,
				"element": "C" 
			},
			{
				"x": -2.0411092707,
				"y": 1.5310940313,
				"z": -0.1817471001,
				"element": "C" 
			},
			{
				"x": -0.8144720678,
				"y": 2.6315395788,
				"z": -2.0548477044,
				"element": "C" 
			},
			{
				"x": -1.6050071425,
				"y": 0.2734259748,
				"z": -2.3572480508,
				"element": "C" 
			},
			{
				"x": 2.708095153,
				"y": -1.3797334844,
				"z": 0.788205892,
				"element": "C" 
			},
			{
				"x": 4.0561678886,
				"y": -1.3684894003,
				"z": 0.5814661657,
				"element": "O" 
			},
			{
				"x": 2.2349074508,
				"y": -2.2125454961,
				"z": 1.5342986512,
				"element": "O" 
			},
			{
				"x": -1.4201731197,
				"y": -1.6865459451,
				"z": 2.4910483508,
				"element": "H" 
			},
			{
				"x": 0.2352581498,
				"y": -1.0802562863,
				"z": 2.6452095846,
				"element": "H" 
			},
			{
				"x": -1.0896852065,
				"y": 0.0390395311,
				"z": 2.2556904087,
				"element": "H" 
			},
			{
				"x": -0.0266770953,
				"y": -2.2564536161,
				"z": 0.5112602582,
				"element": "H" 
			},
			{
				"x": -1.3941048051,
				"y": -1.2516060821,
				"z": 0.0475678696,
				"element": "H" 
			},
			{
				"x": 3.4028288907,
				"y": 1.1060318347,
				"z": -0.8404433239,
				"element": "H" 
			},
			{
				"x": -2.3340835469,
				"y": 0.6133019435,
				"z": 0.328693469,
				"element": "H" 
			},
			{
				"x": -1.6089241012,
				"y": 2.2146795016,
				"z": 0.5548869772,
				"element": "H" 
			},
			{
				"x": -2.9507990176,
				"y": 1.9917267219,
				"z": -0.5783302664,
				"element": "H" 
			},
			{
				"x": -0.3946014197,
				"y": 3.377119053,
				"z": -1.3765413958,
				"element": "H" 
			},
			{
				"x": -0.1316991024,
				"y": 2.5242422948,
				"z": -2.8979725839,
				"element": "H" 
			},
			{
				"x": -1.7783663586,
				"y": 2.9956879621,
				"z": -2.4232932464,
				"element": "H" 
			},
			{
				"x": -2.536400389,
				"y": 0.6519686557,
				"z": -2.7895050599,
				"element": "H" 
			},
			{
				"x": -0.8871646609,
				"y": 0.1234718214,
				"z": -3.168794889,
				"element": "H" 
			},
			{
				"x": -1.8175536472,
				"y": -0.6979951509,
				"z": -1.9050610422,
				"element": "H" 
			},
			{
				"x": 4.2874918334,
				"y": -0.7278938917,
				"z": -0.1045972587,
				"element": "H" 
			}
		],
		 "valence_orbital": [ 
			{
				"type": "occ",
				"energy": -0.30661,
				"method": "rhf"
			},
			{
				"type": "occ",
				"energy": -0.29688,
				"method": "rhf"
			},
			{
				"type": "occ",
				"energy": -0.2641,
				"method": "rhf"
			},
			{
				"type": "occ",
				"energy": -0.26243,
				"method": "rhf"
			},
			{
				"type": "occ",
				"energy": -0.24788,
				"method": "rhf"
			},
			{
				"type": "unocc",
				"energy": -0.01878,
				"method": "rhf"
			},
			{
				"type": "unocc",
				"energy": 0.01264,
				"method": "rhf"
			},
			{
				"type": "unocc",
				"energy": 0.06528,
				"method": "rhf"
			},
			{
				"type": "unocc",
				"energy": 0.07003,
				"method": "rhf"
			},
			{
				"type": "unocc",
				"energy": 0.09175,
				"method": "rhf"
			}
		],
		"cosmo_sigma_profile": { 
			"-0.025": 0.0,
			"-0.024": 0.0,
			"-0.023": 0.0,
			"-0.022": 0.0,
			"-0.021": 0.0,
			"-0.02": 0.0,
			"-0.019": 0.00447283457131,
			"-0.018": 0.878612090192,
			"-0.017": 1.0040851549,
			"-0.016": 1.39867463374,
			"-0.015": 0.588403108185,
			"-0.014": 1.3422816576,
			"-0.013": 0.721261319981,
			"-0.012": 0.98851267302,
			"-0.011": 1.22202339369,
			"-0.01": 1.20082205504,
			"-0.009": 1.26022121117,
			"-0.008": 1.67123670389,
			"-0.007": 2.16052459804,
			"-0.006": 4.19585058164,
			"-0.005": 6.83488615487,
			"-0.004": 16.8246762371,
			"-0.003": 25.4471165121,
			"-0.002": 30.358403162,
			"-0.001": 30.5378942212,
			"0.0": 29.566808569,
			"0.001": 20.5124079084,
			"0.002": 9.57876969521,
			"0.003": 7.15498075511,
			"0.004": 5.0074253377,
			"0.005": 4.42981066631,
			"0.006": 4.57490108317,
			"0.007": 4.51673918316,
			"0.008": 3.67258917907,
			"0.009": 4.17595644912,
			"0.01": 4.94125022081,
			"0.011": 5.89332123399,
			"0.012": 4.68730571257,
			"0.013": 3.71028787258,
			"0.014": 1.00495675983,
			"0.015": 0.0,
			"0.016": 0.0,
			"0.017": 0.0,
			"0.018": 0.0,
			"0.019": 0.0,
			"0.02": 0.0,
			"0.021": 0.0,
			"0.022": 0.0,
			"0.023": 0.0,
			"0.024": 0.0,
			"0.025": 0.0
		}
	}
}
