{
	 "smiles": "OCCN1CCN(CC1)C1=NC=C(C=C1Cl)C(F)(F)F", 
	 "Tm": 337.15, 
	 "num_atms": 35, 
	 "gaussian": { 
		 "optdone": 1, 
		 "sigma_profile": "yes", 
		 "theory": "DFT", 
		 "functional": "B3LYP", 
		 "basiset": "6-31G**", 
		 "properties": { 
			 "R2extent": 8146.9668, 
			 "electric_dipole_moment_norm": 2.02730873081, 
			 "electric_quadrupole_moment_norm": 8.46826856329, 
			 "total_energy": -1465.47661673, 
			 "HOMO_LUMO_gap": 0.156, 
			 "cosmo_polarized_energy": -8.87, 
			 "cosmo_cavitation_energy": 38.53, 
			 "cosmo_dispersion_energy": -26.62, 
			 "cosmo_repulsion_energy": 1.97, 
			 "cosmo_total_nonelectrostatic_energy": 13.88, 
			 "SMD_solvation_energy": 3.93 
		},
		"coords": [
			{
				"x": -0.6280190191,
				"y": -1.8169030262,
				"z": -0.2293950384,
				"element": "O" 
			},
			{
				"x": 0.6864937669,
				"y": -1.2825232562,
				"z": -0.3715474425,
				"element": "C" 
			},
			{
				"x": 1.0069254204,
				"y": -1.1307365274,
				"z": -1.86378251,
				"element": "C" 
			},
			{
				"x": 0.3235022149,
				"y": -0.097275481,
				"z": -2.6221040816,
				"element": "N" 
			},
			{
				"x": -1.035825775,
				"y": -0.3138616366,
				"z": -3.0775716747,
				"element": "C" 
			},
			{
				"x": -2.1362189678,
				"y": 0.1697619816,
				"z": -2.0939816953,
				"element": "C" 
			},
			{
				"x": -1.6822484951,
				"y": 1.3928269399,
				"z": -1.4005871961,
				"element": "N" 
			},
			{
				"x": -0.6504040404,
				"y": 2.131097434,
				"z": -2.1308493841,
				"element": "C" 
			},
			{
				"x": 0.6337941612,
				"y": 1.2955166453,
				"z": -2.2962808988,
				"element": "C" 
			},
			{
				"x": -1.7561786946,
				"y": 1.5254586402,
				"z": -0.0376293834,
				"element": "C" 
			},
			{
				"x": -0.7354586421,
				"y": 2.1630583204,
				"z": 0.5755846311,
				"element": "N" 
			},
			{
				"x": -0.7229760528,
				"y": 2.3065212596,
				"z": 1.8987328593,
				"element": "C" 
			},
			{
				"x": -1.7178468699,
				"y": 1.8051050276,
				"z": 2.7339707795,
				"element": "C" 
			},
			{
				"x": -2.8247454619,
				"y": 1.2021668,
				"z": 2.1238918995,
				"element": "C" 
			},
			{
				"x": -2.8677903298,
				"y": 1.0855218837,
				"z": 0.7467478741,
				"element": "C" 
			},
			{
				"x": -4.376811792,
				"y": 0.5366051866,
				"z": 0.0278502531,
				"element": "Cl" 
			},
			{
				"x": -1.6164836538,
				"y": 1.8932823765,
				"z": 4.2243458294,
				"element": "C" 
			},
			{
				"x": -1.1155926868,
				"y": 0.7556384182,
				"z": 4.7675131283,
				"element": "F" 
			},
			{
				"x": -0.8056958487,
				"y": 2.9012414559,
				"z": 4.6141639692,
				"element": "F" 
			},
			{
				"x": -2.8256677547,
				"y": 2.0913086914,
				"z": 4.7981529438,
				"element": "F" 
			},
			{
				"x": -0.8630087611,
				"y": -1.799911671,
				"z": 0.7064091299,
				"element": "H" 
			},
			{
				"x": 1.4332182206,
				"y": -1.9620210115,
				"z": 0.0712009423,
				"element": "H" 
			},
			{
				"x": 0.7772261976,
				"y": -0.3120998737,
				"z": 0.1378793829,
				"element": "H" 
			},
			{
				"x": 2.0890102791,
				"y": -0.9563040364,
				"z": -1.945916393,
				"element": "H" 
			},
			{
				"x": 0.8115791212,
				"y": -2.0959308878,
				"z": -2.3471122096,
				"element": "H" 
			},
			{
				"x": -1.1692214684,
				"y": 0.191758818,
				"z": -4.0450055451,
				"element": "H" 
			},
			{
				"x": -1.1868766945,
				"y": -1.380919646,
				"z": -3.2639955079,
				"element": "H" 
			},
			{
				"x": -3.0710076836,
				"y": 0.3493929101,
				"z": -2.6408062639,
				"element": "H" 
			},
			{
				"x": -2.3024612935,
				"y": -0.6067089053,
				"z": -1.351365225,
				"element": "H" 
			},
			{
				"x": -0.4303827882,
				"y": 3.0596756247,
				"z": -1.6060964729,
				"element": "H" 
			},
			{
				"x": -1.0693621028,
				"y": 2.3870308953,
				"z": -3.1109391854,
				"element": "H" 
			},
			{
				"x": 1.2621974616,
				"y": 1.761861306,
				"z": -3.0746334038,
				"element": "H" 
			},
			{
				"x": 1.1948441403,
				"y": 1.3452695271,
				"z": -1.357145351,
				"element": "H" 
			},
			{
				"x": 0.1247940939,
				"y": 2.8444349839,
				"z": 2.3156450949,
				"element": "H" 
			},
			{
				"x": -3.6698002012,
				"y": 0.871760833,
				"z": 2.7175561453,
				"element": "H" 
			}
		],
		 "valence_orbital": [ 
			{
				"type": "occ",
				"energy": -0.28061,
				"method": "rhf"
			},
			{
				"type": "occ",
				"energy": -0.27513,
				"method": "rhf"
			},
			{
				"type": "occ",
				"energy": -0.27334,
				"method": "rhf"
			},
			{
				"type": "occ",
				"energy": -0.21859,
				"method": "rhf"
			},
			{
				"type": "occ",
				"energy": -0.19536,
				"method": "rhf"
			},
			{
				"type": "unocc",
				"energy": -0.03936,
				"method": "rhf"
			},
			{
				"type": "unocc",
				"energy": -0.02667,
				"method": "rhf"
			},
			{
				"type": "unocc",
				"energy": 0.02216,
				"method": "rhf"
			},
			{
				"type": "unocc",
				"energy": 0.06605,
				"method": "rhf"
			},
			{
				"type": "unocc",
				"energy": 0.09374,
				"method": "rhf"
			}
		],
		"cosmo_sigma_profile": { 
			"-0.025": 0.0,
			"-0.024": 0.0,
			"-0.023": 0.0,
			"-0.022": 0.0,
			"-0.021": 0.0,
			"-0.02": 0.0,
			"-0.019": 0.0,
			"-0.018": 0.0,
			"-0.017": 0.0,
			"-0.016": 0.0655805925645,
			"-0.015": 0.580599228041,
			"-0.014": 0.75378649428,
			"-0.013": 0.955600223177,
			"-0.012": 0.612523328136,
			"-0.011": 0.472109749847,
			"-0.01": 0.979474919437,
			"-0.009": 0.829650450461,
			"-0.008": 2.55355652832,
			"-0.007": 3.62573702434,
			"-0.006": 4.10527564988,
			"-0.005": 8.11529963416,
			"-0.004": 18.3904572931,
			"-0.003": 32.6950268542,
			"-0.002": 36.7897937653,
			"-0.001": 32.4035071784,
			"0.0": 29.3601752706,
			"0.001": 26.8953961348,
			"0.002": 27.8122458048,
			"0.003": 37.0726747617,
			"0.004": 15.3064949686,
			"0.005": 7.20644199152,
			"0.006": 3.69947331555,
			"0.007": 3.22914231113,
			"0.008": 2.22358683642,
			"0.009": 2.1346402742,
			"0.01": 1.81107851941,
			"0.011": 1.44049730592,
			"0.012": 1.34715890101,
			"0.013": 0.920197626248,
			"0.014": 0.978862653442,
			"0.015": 0.103494352009,
			"0.016": 0.0,
			"0.017": 0.0,
			"0.018": 0.0,
			"0.019": 0.0,
			"0.02": 0.0,
			"0.021": 0.0,
			"0.022": 0.0,
			"0.023": 0.0,
			"0.024": 0.0,
			"0.025": 0.0
		}
	}
}
