{
	 "smiles": "CCS(=O)(=O)NCC1=CC=C(C=C1)C(O)=O", 
	 "Tm": 468.15, 
	 "num_atms": 29, 
	 "gaussian": { 
		 "optdone": 1, 
		 "sigma_profile": "yes", 
		 "theory": "DFT", 
		 "functional": "B3LYP", 
		 "basiset": "6-31G**", 
		 "properties": { 
			 "R2extent": 6283.8113, 
			 "electric_dipole_moment_norm": 6.08140483359, 
			 "electric_quadrupole_moment_norm": 21.4094106175, 
			 "total_energy": -1142.68537911, 
			 "HOMO_LUMO_gap": 0.20608, 
			 "cosmo_polarized_energy": -23.32, 
			 "cosmo_cavitation_energy": 34.34, 
			 "cosmo_dispersion_energy": -24.96, 
			 "cosmo_repulsion_energy": 1.9, 
			 "cosmo_total_nonelectrostatic_energy": 11.29, 
			 "SMD_solvation_energy": 6.0 
		},
		"coords": [
			{
				"x": 4.3447683143,
				"y": -0.3083250466,
				"z": 1.4268718153,
				"element": "C" 
			},
			{
				"x": 3.6056007335,
				"y": -1.34104904,
				"z": 0.5847528015,
				"element": "C" 
			},
			{
				"x": 1.8079002423,
				"y": -1.107187179,
				"z": 0.5750175839,
				"element": "S" 
			},
			{
				"x": 1.2522931725,
				"y": -2.1570845585,
				"z": -0.2921408595,
				"element": "O" 
			},
			{
				"x": 1.3506304941,
				"y": -0.9306389832,
				"z": 1.958046278,
				"element": "O" 
			},
			{
				"x": 1.6187039764,
				"y": 0.3972821382,
				"z": -0.17699023,
				"element": "N" 
			},
			{
				"x": 1.0981196269,
				"y": 0.4781129197,
				"z": -1.5569607953,
				"element": "C" 
			},
			{
				"x": -0.3995504504,
				"y": 0.7060950655,
				"z": -1.6463300725,
				"element": "C" 
			},
			{
				"x": -1.3042445435,
				"y": -0.3141712429,
				"z": -1.3173950938,
				"element": "C" 
			},
			{
				"x": -2.6757916115,
				"y": -0.0851534868,
				"z": -1.3854156181,
				"element": "C" 
			},
			{
				"x": -3.17327371,
				"y": 1.1651427467,
				"z": -1.7840642982,
				"element": "C" 
			},
			{
				"x": -2.2710895709,
				"y": 2.1757616501,
				"z": -2.1361425589,
				"element": "C" 
			},
			{
				"x": -0.8996031415,
				"y": 1.9481996358,
				"z": -2.0586826147,
				"element": "C" 
			},
			{
				"x": -4.6375939623,
				"y": 1.4723256611,
				"z": -1.8899342441,
				"element": "C" 
			},
			{
				"x": -5.4847644647,
				"y": 0.6701347122,
				"z": -1.1917542634,
				"element": "O" 
			},
			{
				"x": -5.0770997029,
				"y": 2.3825582631,
				"z": -2.5527531834,
				"element": "O" 
			},
			{
				"x": 4.1950742951,
				"y": 0.6987814136,
				"z": 1.0294483519,
				"element": "H" 
			},
			{
				"x": 5.4166379883,
				"y": -0.5267856141,
				"z": 1.4142850272,
				"element": "H" 
			},
			{
				"x": 3.9983176793,
				"y": -0.3325308521,
				"z": 2.4625502688,
				"element": "H" 
			},
			{
				"x": 3.7363450588,
				"y": -2.3584748599,
				"z": 0.9659565124,
				"element": "H" 
			},
			{
				"x": 3.9100780833,
				"y": -1.3291964552,
				"z": -0.4654111236,
				"element": "H" 
			},
			{
				"x": 1.1629461136,
				"y": 1.0231792453,
				"z": 0.4813292837,
				"element": "H" 
			},
			{
				"x": 1.3701046669,
				"y": -0.4533786929,
				"z": -2.0597935415,
				"element": "H" 
			},
			{
				"x": 1.6262997965,
				"y": 1.2933133498,
				"z": -2.0628997138,
				"element": "H" 
			},
			{
				"x": -0.9255916522,
				"y": -1.2859254119,
				"z": -1.015302607,
				"element": "H" 
			},
			{
				"x": -3.3511198399,
				"y": -0.9085233592,
				"z": -1.1641054171,
				"element": "H" 
			},
			{
				"x": -2.666221893,
				"y": 3.1305066129,
				"z": -2.4659152136,
				"element": "H" 
			},
			{
				"x": -0.2079071365,
				"y": 2.7427793322,
				"z": -2.3278037003,
				"element": "H" 
			},
			{
				"x": -4.9870685623,
				"y": 0.097252036,
				"z": -0.5921627741,
				"element": "H" 
			}
		],
		 "valence_orbital": [ 
			{
				"type": "occ",
				"energy": -0.30883,
				"method": "rhf"
			},
			{
				"type": "occ",
				"energy": -0.28618,
				"method": "rhf"
			},
			{
				"type": "occ",
				"energy": -0.2763,
				"method": "rhf"
			},
			{
				"type": "occ",
				"energy": -0.27467,
				"method": "rhf"
			},
			{
				"type": "occ",
				"energy": -0.26225,
				"method": "rhf"
			},
			{
				"type": "unocc",
				"energy": -0.05617,
				"method": "rhf"
			},
			{
				"type": "unocc",
				"energy": -0.02579,
				"method": "rhf"
			},
			{
				"type": "unocc",
				"energy": 0.0374,
				"method": "rhf"
			},
			{
				"type": "unocc",
				"energy": 0.05957,
				"method": "rhf"
			},
			{
				"type": "unocc",
				"energy": 0.06307,
				"method": "rhf"
			}
		],
		"cosmo_sigma_profile": { 
			"-0.025": 0.0,
			"-0.024": 0.0,
			"-0.023": 0.0,
			"-0.022": 0.0,
			"-0.021": 0.0,
			"-0.02": 0.0,
			"-0.019": 0.106696022804,
			"-0.018": 1.01499427689,
			"-0.017": 0.873216345226,
			"-0.016": 1.207036272,
			"-0.015": 0.443798223329,
			"-0.014": 1.06781849183,
			"-0.013": 2.28708667257,
			"-0.012": 2.9733449172,
			"-0.011": 1.9380772276,
			"-0.01": 1.14794206533,
			"-0.009": 2.64312762491,
			"-0.008": 6.94065680832,
			"-0.007": 10.2377626289,
			"-0.006": 14.9605333607,
			"-0.005": 18.8379371873,
			"-0.004": 21.2879248135,
			"-0.003": 18.574150874,
			"-0.002": 17.2841303353,
			"-0.001": 20.6747024783,
			"0.0": 16.4848136758,
			"0.001": 11.1572740444,
			"0.002": 12.8969028824,
			"0.003": 17.8072047201,
			"0.004": 7.14953439596,
			"0.005": 5.03460968463,
			"0.006": 4.6764576253,
			"0.007": 5.45240126433,
			"0.008": 5.69703741602,
			"0.009": 6.42387027022,
			"0.01": 9.55487392116,
			"0.011": 14.0575559347,
			"0.012": 9.70717794417,
			"0.013": 1.5780482492,
			"0.014": 0.0600901088696,
			"0.015": 0.0,
			"0.016": 0.0,
			"0.017": 0.0,
			"0.018": 0.0,
			"0.019": 0.0,
			"0.02": 0.0,
			"0.021": 0.0,
			"0.022": 0.0,
			"0.023": 0.0,
			"0.024": 0.0,
			"0.025": 0.0
		}
	}
}
