{
	 "smiles": "CN1C=NC(=C1N)C1=CC=C(F)C=C1", 
	 "Tm": 422.15, 
	 "num_atms": 24, 
	 "gaussian": { 
		 "optdone": 1, 
		 "sigma_profile": "yes", 
		 "theory": "DFT", 
		 "functional": "B3LYP", 
		 "basiset": "6-31G**", 
		 "properties": { 
			 "R2extent": 3959.8256, 
			 "electric_dipole_moment_norm": 5.54426134305, 
			 "electric_quadrupole_moment_norm": 4.19085060936, 
			 "total_energy": -651.17817247, 
			 "HOMO_LUMO_gap": 0.18166, 
			 "cosmo_polarized_energy": -15.73, 
			 "cosmo_cavitation_energy": 28.33, 
			 "cosmo_dispersion_energy": -20.75, 
			 "cosmo_repulsion_energy": 1.59, 
			 "cosmo_total_nonelectrostatic_energy": 9.17, 
			 "SMD_solvation_energy": 4.23 
		},
		"coords": [
			{
				"x": 1.3919195422,
				"y": 2.218876301,
				"z": 2.0243917934,
				"element": "C" 
			},
			{
				"x": 1.3137664401,
				"y": 1.4035648468,
				"z": 0.8279597048,
				"element": "N" 
			},
			{
				"x": 2.2940186212,
				"y": 1.2076748543,
				"z": -0.1202263405,
				"element": "C" 
			},
			{
				"x": 1.9115136311,
				"y": 0.3874628097,
				"z": -1.0631298602,
				"element": "N" 
			},
			{
				"x": 0.6143651478,
				"y": 0.0114891665,
				"z": -0.7432732841,
				"element": "C" 
			},
			{
				"x": 0.2278937562,
				"y": 0.6527625625,
				"z": 0.4256524763,
				"element": "C" 
			},
			{
				"x": -0.9443965686,
				"y": 0.6379263084,
				"z": 1.1947735688,
				"element": "N" 
			},
			{
				"x": -0.1542446695,
				"y": -0.9037001027,
				"z": -1.592211023,
				"element": "C" 
			},
			{
				"x": 0.1219625311,
				"y": -0.9711766767,
				"z": -2.9713693703,
				"element": "C" 
			},
			{
				"x": -0.6000651744,
				"y": -1.8132953734,
				"z": -3.8111850301,
				"element": "C" 
			},
			{
				"x": -1.6147404188,
				"y": -2.597303682,
				"z": -3.2698782723,
				"element": "C" 
			},
			{
				"x": -2.325406259,
				"y": -3.4099253763,
				"z": -4.0845285521,
				"element": "F" 
			},
			{
				"x": -1.9061738489,
				"y": -2.5766200519,
				"z": -1.9126958887,
				"element": "C" 
			},
			{
				"x": -1.1651510154,
				"y": -1.7372292373,
				"z": -1.0790544296,
				"element": "C" 
			},
			{
				"x": 1.0173320971,
				"y": 1.6574613422,
				"z": 2.8849877835,
				"element": "H" 
			},
			{
				"x": 2.4349827591,
				"y": 2.4864594285,
				"z": 2.2025101348,
				"element": "H" 
			},
			{
				"x": 0.8110755739,
				"y": 3.1441912388,
				"z": 1.9259214921,
				"element": "H" 
			},
			{
				"x": 3.2561076462,
				"y": 1.6972257852,
				"z": -0.047163106,
				"element": "H" 
			},
			{
				"x": -1.2865350818,
				"y": 1.5725488135,
				"z": 1.4038362137,
				"element": "H" 
			},
			{
				"x": -1.6797616017,
				"y": 0.1280419006,
				"z": 0.7193986258,
				"element": "H" 
			},
			{
				"x": 0.9177844786,
				"y": -0.351285055,
				"z": -3.3697557833,
				"element": "H" 
			},
			{
				"x": -0.3931925825,
				"y": -1.8672268818,
				"z": -4.8749308425,
				"element": "H" 
			},
			{
				"x": -2.6823773654,
				"y": -3.2250841102,
				"z": -1.5203864963,
				"element": "H" 
			},
			{
				"x": -1.3427776386,
				"y": -1.7803388108,
				"z": -0.0080435142,
				"element": "H" 
			}
		],
		 "valence_orbital": [ 
			{
				"type": "occ",
				"energy": -0.27357,
				"method": "rhf"
			},
			{
				"type": "occ",
				"energy": -0.26219,
				"method": "rhf"
			},
			{
				"type": "occ",
				"energy": -0.24967,
				"method": "rhf"
			},
			{
				"type": "occ",
				"energy": -0.23655,
				"method": "rhf"
			},
			{
				"type": "occ",
				"energy": -0.18451,
				"method": "rhf"
			},
			{
				"type": "unocc",
				"energy": -0.00285,
				"method": "rhf"
			},
			{
				"type": "unocc",
				"energy": 0.00079,
				"method": "rhf"
			},
			{
				"type": "unocc",
				"energy": 0.03655,
				"method": "rhf"
			},
			{
				"type": "unocc",
				"energy": 0.06057,
				"method": "rhf"
			},
			{
				"type": "unocc",
				"energy": 0.09409,
				"method": "rhf"
			}
		],
		"cosmo_sigma_profile": { 
			"-0.025": 0.0,
			"-0.024": 0.0,
			"-0.023": 0.0,
			"-0.022": 0.0,
			"-0.021": 0.0,
			"-0.02": 0.0,
			"-0.019": 0.0,
			"-0.018": 0.0,
			"-0.017": 0.0,
			"-0.016": 0.0,
			"-0.015": 0.0,
			"-0.014": 0.0,
			"-0.013": 0.584716723358,
			"-0.012": 2.07137870022,
			"-0.011": 2.94898679794,
			"-0.01": 3.18449117853,
			"-0.009": 3.9781257835,
			"-0.008": 6.06203079456,
			"-0.007": 9.40904954721,
			"-0.006": 12.5669600051,
			"-0.005": 14.173284278,
			"-0.004": 16.0046634888,
			"-0.003": 15.7729509461,
			"-0.002": 11.0923774466,
			"-0.001": 8.06986259436,
			"0.0": 9.26590174801,
			"0.001": 13.0292340992,
			"0.002": 14.4851322729,
			"0.003": 15.2625845304,
			"0.004": 22.4967122098,
			"0.005": 21.6400320743,
			"0.006": 3.39496433797,
			"0.007": 3.19945462368,
			"0.008": 3.1311236783,
			"0.009": 2.60960844239,
			"0.01": 2.09928293883,
			"0.011": 2.14307826443,
			"0.012": 2.14425998775,
			"0.013": 1.33001853075,
			"0.014": 1.24007621733,
			"0.015": 1.28299262577,
			"0.016": 0.809613915365,
			"0.017": 0.910805997849,
			"0.018": 0.107227158766,
			"0.019": 0.0,
			"0.02": 0.0,
			"0.021": 0.0,
			"0.022": 0.0,
			"0.023": 0.0,
			"0.024": 0.0,
			"0.025": 0.0
		}
	}
}
