{
	 "smiles": "ClCC(=O)NC(C1=NC=CS1)C1=CC=CC=C1", 
	 "Tm": 382.15, 
	 "num_atms": 28, 
	 "gaussian": { 
		 "optdone": 1, 
		 "sigma_profile": "yes", 
		 "theory": "DFT", 
		 "functional": "B3LYP", 
		 "basiset": "6-31G**", 
		 "properties": { 
			 "R2extent": 5776.0582, 
			 "electric_dipole_moment_norm": 1.76163648066, 
			 "electric_quadrupole_moment_norm": 13.2430576439, 
			 "total_energy": -1507.01651469, 
			 "HOMO_LUMO_gap": 0.21393, 
			 "cosmo_polarized_energy": -14.28, 
			 "cosmo_cavitation_energy": 36.2, 
			 "cosmo_dispersion_energy": -25.16, 
			 "cosmo_repulsion_energy": 1.96, 
			 "cosmo_total_nonelectrostatic_energy": 12.99, 
			 "SMD_solvation_energy": 5.23 
		},
		"coords": [
			{
				"x": 1.292168507,
				"y": 4.3712735855,
				"z": -1.5709770831,
				"element": "Cl" 
			},
			{
				"x": 1.7766240284,
				"y": 3.9877748769,
				"z": 0.1353625782,
				"element": "C" 
			},
			{
				"x": 1.2129824081,
				"y": 2.7012145301,
				"z": 0.7421127466,
				"element": "C" 
			},
			{
				"x": 1.5845687169,
				"y": 2.4051282128,
				"z": 1.8701346959,
				"element": "O" 
			},
			{
				"x": 0.3200380432,
				"y": 1.9862771476,
				"z": 0.0074477893,
				"element": "N" 
			},
			{
				"x": -0.1747727714,
				"y": 0.6846386773,
				"z": 0.4648299021,
				"element": "C" 
			},
			{
				"x": -1.6902717862,
				"y": 0.6813577307,
				"z": 0.5075968967,
				"element": "C" 
			},
			{
				"x": -2.4208026667,
				"y": -0.3874016973,
				"z": 0.6247719855,
				"element": "N" 
			},
			{
				"x": -3.75640191,
				"y": -0.0696396016,
				"z": 0.7173846706,
				"element": "C" 
			},
			{
				"x": -4.0578791686,
				"y": 1.2607326403,
				"z": 0.6692647761,
				"element": "C" 
			},
			{
				"x": -2.6044470589,
				"y": 2.1893563816,
				"z": 0.5015286941,
				"element": "S" 
			},
			{
				"x": 0.431084865,
				"y": -0.4523359438,
				"z": -0.3511789078,
				"element": "C" 
			},
			{
				"x": -0.1113619959,
				"y": -0.8534539471,
				"z": -1.5778191976,
				"element": "C" 
			},
			{
				"x": 0.5156226952,
				"y": -1.842028541,
				"z": -2.3364612748,
				"element": "C" 
			},
			{
				"x": 1.6892630112,
				"y": -2.4424865442,
				"z": -1.8761775225,
				"element": "C" 
			},
			{
				"x": 2.2338892995,
				"y": -2.0491177128,
				"z": -0.6527457061,
				"element": "C" 
			},
			{
				"x": 1.608191359,
				"y": -1.0579625724,
				"z": 0.1042682338,
				"element": "C" 
			},
			{
				"x": 2.8644444886,
				"y": 3.9241336755,
				"z": 0.1565454972,
				"element": "H" 
			},
			{
				"x": 1.4600975439,
				"y": 4.8262634379,
				"z": 0.7565011113,
				"element": "H" 
			},
			{
				"x": 0.1837011283,
				"y": 2.2426348421,
				"z": -0.962205804,
				"element": "H" 
			},
			{
				"x": 0.1871610913,
				"y": 0.6032817906,
				"z": 1.4956510805,
				"element": "H" 
			},
			{
				"x": -4.4830860962,
				"y": -0.8676518225,
				"z": 0.8167107394,
				"element": "H" 
			},
			{
				"x": -5.0279503751,
				"y": 1.7349069608,
				"z": 0.7138403461,
				"element": "H" 
			},
			{
				"x": -1.0357884328,
				"y": -0.4078946502,
				"z": -1.9329207902,
				"element": "H" 
			},
			{
				"x": 0.0832585977,
				"y": -2.1478795278,
				"z": -3.2848638411,
				"element": "H" 
			},
			{
				"x": 2.1733350166,
				"y": -3.2157550955,
				"z": -2.4657170254,
				"element": "H" 
			},
			{
				"x": 3.1436858126,
				"y": -2.5148314574,
				"z": -0.2849949406,
				"element": "H" 
			},
			{
				"x": 2.0362456495,
				"y": -0.7466353762,
				"z": 1.0535103497,
				"element": "H" 
			}
		],
		 "valence_orbital": [ 
			{
				"type": "occ",
				"energy": -0.27598,
				"method": "rhf"
			},
			{
				"type": "occ",
				"energy": -0.27069,
				"method": "rhf"
			},
			{
				"type": "occ",
				"energy": -0.25346,
				"method": "rhf"
			},
			{
				"type": "occ",
				"energy": -0.2501,
				"method": "rhf"
			},
			{
				"type": "occ",
				"energy": -0.24347,
				"method": "rhf"
			},
			{
				"type": "unocc",
				"energy": -0.02954,
				"method": "rhf"
			},
			{
				"type": "unocc",
				"energy": -0.01472,
				"method": "rhf"
			},
			{
				"type": "unocc",
				"energy": -0.00578,
				"method": "rhf"
			},
			{
				"type": "unocc",
				"energy": 0.00786,
				"method": "rhf"
			},
			{
				"type": "unocc",
				"energy": 0.01093,
				"method": "rhf"
			}
		],
		"cosmo_sigma_profile": { 
			"-0.025": 0.0,
			"-0.024": 0.0,
			"-0.023": 0.0,
			"-0.022": 0.0,
			"-0.021": 0.0,
			"-0.02": 0.0,
			"-0.019": 0.0,
			"-0.018": 0.0,
			"-0.017": 0.0,
			"-0.016": 0.0,
			"-0.015": 0.0,
			"-0.014": 0.0,
			"-0.013": 0.00092910997944,
			"-0.012": 0.551221006773,
			"-0.011": 0.834471148029,
			"-0.01": 2.14781005729,
			"-0.009": 6.95866981649,
			"-0.008": 6.15592458454,
			"-0.007": 10.0126523501,
			"-0.006": 15.9742837673,
			"-0.005": 21.2750601806,
			"-0.004": 20.5292846172,
			"-0.003": 18.9334453094,
			"-0.002": 16.6735426114,
			"-0.001": 18.5165356153,
			"0.0": 19.7799120923,
			"0.001": 21.2110028643,
			"0.002": 22.7024086199,
			"0.003": 22.3997911155,
			"0.004": 18.7539156539,
			"0.005": 17.94665767,
			"0.006": 8.17995375044,
			"0.007": 2.96580583684,
			"0.008": 2.65953137511,
			"0.009": 2.09631299133,
			"0.01": 3.39793143563,
			"0.011": 2.92580363124,
			"0.012": 4.76992346107,
			"0.013": 4.23674775968,
			"0.014": 1.30003142552,
			"0.015": 0.255102769873,
			"0.016": 0.0,
			"0.017": 0.0,
			"0.018": 0.0,
			"0.019": 0.0,
			"0.02": 0.0,
			"0.021": 0.0,
			"0.022": 0.0,
			"0.023": 0.0,
			"0.024": 0.0,
			"0.025": 0.0
		}
	}
}
