{
	 "smiles": "C[C@@]1(CO)N[C@@H](CC2C1NC1=CC=CC=C21)C(O)=O", 
	 "Tm": 533.15, 
	 "num_atms": 37, 
	 "gaussian": { 
		 "optdone": 1, 
		 "sigma_profile": "yes", 
		 "theory": "DFT", 
		 "functional": "B3LYP", 
		 "basiset": "6-31G**", 
		 "properties": { 
			 "R2extent": 5158.8745, 
			 "electric_dipole_moment_norm": 0.835955722512, 
			 "electric_quadrupole_moment_norm": 15.1744859775, 
			 "total_energy": -879.50994603, 
			 "HOMO_LUMO_gap": 0.1876, 
			 "cosmo_polarized_energy": -16.27, 
			 "cosmo_cavitation_energy": 36.98, 
			 "cosmo_dispersion_energy": -26.15, 
			 "cosmo_repulsion_energy": 1.99, 
			 "cosmo_total_nonelectrostatic_energy": 12.82, 
			 "SMD_solvation_energy": 4.78 
		},
		"coords": [
			{
				"x": 2.7846767339,
				"y": -0.2421490088,
				"z": 1.1798185,
				"element": "C" 
			},
			{
				"x": 1.5151028955,
				"y": -0.0303474684,
				"z": 0.3344627108,
				"element": "C" 
			},
			{
				"x": 0.8506551908,
				"y": 1.3092017664,
				"z": 0.7423736345,
				"element": "C" 
			},
			{
				"x": 0.7640193392,
				"y": 1.4155588191,
				"z": 2.16835046,
				"element": "O" 
			},
			{
				"x": 1.8979160993,
				"y": 0.1264326586,
				"z": -1.0826005545,
				"element": "N" 
			},
			{
				"x": 1.3506661794,
				"y": -0.7554276728,
				"z": -2.0926377653,
				"element": "C" 
			},
			{
				"x": -0.1735566535,
				"y": -0.7879036789,
				"z": -1.945360024,
				"element": "C" 
			},
			{
				"x": -0.5214033794,
				"y": -1.4620063367,
				"z": -0.6050193762,
				"element": "C" 
			},
			{
				"x": 0.5601069671,
				"y": -1.2608833911,
				"z": 0.5184593133,
				"element": "C" 
			},
			{
				"x": -0.2353289903,
				"y": -1.216595286,
				"z": 1.7631991287,
				"element": "N" 
			},
			{
				"x": -1.5568561083,
				"y": -0.8845861162,
				"z": 1.4442295373,
				"element": "C" 
			},
			{
				"x": -2.5741561112,
				"y": -0.4889537976,
				"z": 2.3158978465,
				"element": "C" 
			},
			{
				"x": -3.841709369,
				"y": -0.2301433343,
				"z": 1.7816568543,
				"element": "C" 
			},
			{
				"x": -4.0934389271,
				"y": -0.3627367952,
				"z": 0.4138792349,
				"element": "C" 
			},
			{
				"x": -3.0631972366,
				"y": -0.7605346285,
				"z": -0.4513982233,
				"element": "C" 
			},
			{
				"x": -1.8006929591,
				"y": -1.0137870498,
				"z": 0.0672251406,
				"element": "C" 
			},
			{
				"x": 1.8492930988,
				"y": -0.2854507238,
				"z": -3.4533875111,
				"element": "C" 
			},
			{
				"x": 1.1442074704,
				"y": -0.8275364826,
				"z": -4.4734758929,
				"element": "O" 
			},
			{
				"x": 2.8056559681,
				"y": 0.4363544194,
				"z": -3.6311297788,
				"element": "O" 
			},
			{
				"x": 3.2929122714,
				"y": -1.1630053579,
				"z": 0.8748028493,
				"element": "H" 
			},
			{
				"x": 2.5607460466,
				"y": -0.3026114395,
				"z": 2.2473700317,
				"element": "H" 
			},
			{
				"x": 3.4769102998,
				"y": 0.596645421,
				"z": 1.041500804,
				"element": "H" 
			},
			{
				"x": 1.4738685127,
				"y": 2.1163925828,
				"z": 0.3332407254,
				"element": "H" 
			},
			{
				"x": -0.1409752266,
				"y": 1.3837613465,
				"z": 0.2780417509,
				"element": "H" 
			},
			{
				"x": 0.1541845245,
				"y": 2.1327121311,
				"z": 2.3788280876,
				"element": "H" 
			},
			{
				"x": 2.8924347966,
				"y": 0.2663402854,
				"z": -1.2118168311,
				"element": "H" 
			},
			{
				"x": 1.7101185734,
				"y": -1.8063502141,
				"z": -2.0291381052,
				"element": "H" 
			},
			{
				"x": -0.5427122284,
				"y": 0.2430859285,
				"z": -1.9723182668,
				"element": "H" 
			},
			{
				"x": -0.6292820086,
				"y": -1.3296871805,
				"z": -2.7772048555,
				"element": "H" 
			},
			{
				"x": -0.5791045168,
				"y": -2.5447542793,
				"z": -0.7885423172,
				"element": "H" 
			},
			{
				"x": 1.2082524206,
				"y": -2.144758498,
				"z": 0.5412105226,
				"element": "H" 
			},
			{
				"x": 0.1697682165,
				"y": -0.63610573,
				"z": 2.4894986584,
				"element": "H" 
			},
			{
				"x": -2.3871958303,
				"y": -0.3869173252,
				"z": 3.3812195867,
				"element": "H" 
			},
			{
				"x": -4.6428731291,
				"y": 0.0802138652,
				"z": 2.4472251663,
				"element": "H" 
			},
			{
				"x": -5.0844504595,
				"y": -0.1580792168,
				"z": 0.0205339965,
				"element": "H" 
			},
			{
				"x": -3.2536351147,
				"y": -0.8599099151,
				"z": -1.5173830634,
				"element": "H" 
			},
			{
				"x": 1.569772644,
				"y": -0.5157782969,
				"z": -5.2900119749,
				"element": "H" 
			}
		],
		 "valence_orbital": [ 
			{
				"type": "occ",
				"energy": -0.28005,
				"method": "rhf"
			},
			{
				"type": "occ",
				"energy": -0.26938,
				"method": "rhf"
			},
			{
				"type": "occ",
				"energy": -0.23658,
				"method": "rhf"
			},
			{
				"type": "occ",
				"energy": -0.21991,
				"method": "rhf"
			},
			{
				"type": "occ",
				"energy": -0.18631,
				"method": "rhf"
			},
			{
				"type": "unocc",
				"energy": 0.00129,
				"method": "rhf"
			},
			{
				"type": "unocc",
				"energy": 0.00803,
				"method": "rhf"
			},
			{
				"type": "unocc",
				"energy": 0.02451,
				"method": "rhf"
			},
			{
				"type": "unocc",
				"energy": 0.06547,
				"method": "rhf"
			},
			{
				"type": "unocc",
				"energy": 0.07185,
				"method": "rhf"
			}
		],
		"cosmo_sigma_profile": { 
			"-0.025": 0.0,
			"-0.024": 0.0,
			"-0.023": 0.0,
			"-0.022": 0.0,
			"-0.021": 0.0,
			"-0.02": 0.0,
			"-0.019": 0.0414178679759,
			"-0.018": 0.989092912113,
			"-0.017": 0.480548533312,
			"-0.016": 1.63574095146,
			"-0.015": 1.88038739627,
			"-0.014": 1.64804159754,
			"-0.013": 1.14828603937,
			"-0.012": 1.49280516819,
			"-0.011": 1.49402728576,
			"-0.01": 1.49918585229,
			"-0.009": 1.70575851712,
			"-0.008": 2.28731938017,
			"-0.007": 3.09566931399,
			"-0.006": 5.8153855814,
			"-0.005": 16.1895100035,
			"-0.004": 28.7009349942,
			"-0.003": 33.0298634521,
			"-0.002": 28.6392346657,
			"-0.001": 22.0028113635,
			"0.0": 17.8544639306,
			"0.001": 17.7883107118,
			"0.002": 13.8414218401,
			"0.003": 10.7519910022,
			"0.004": 9.89682336659,
			"0.005": 11.0492756584,
			"0.006": 11.4862935991,
			"0.007": 12.5620900758,
			"0.008": 7.35176332251,
			"0.009": 4.09339705613,
			"0.01": 4.34036439366,
			"0.011": 6.2210810029,
			"0.012": 5.2260209892,
			"0.013": 1.81319546213,
			"0.014": 0.4620446006,
			"0.015": 0.186258797268,
			"0.016": 0.0,
			"0.017": 0.0,
			"0.018": 0.0,
			"0.019": 0.0,
			"0.02": 0.0,
			"0.021": 0.0,
			"0.022": 0.0,
			"0.023": 0.0,
			"0.024": 0.0,
			"0.025": 0.0
		}
	}
}
