{
	 "smiles": "CCCCOC(=O)COC1=CC(Cl)=C(Cl)C=C1Cl", 
	 "Tm": 301.65, 
	 "num_atms": 31, 
	 "gaussian": { 
		 "optdone": 1, 
		 "sigma_profile": "yes", 
		 "theory": "DFT", 
		 "functional": "B3LYP", 
		 "basiset": "6-31G**", 
		 "properties": { 
			 "R2extent": 8865.9069, 
			 "electric_dipole_moment_norm": 1.67455107417, 
			 "electric_quadrupole_moment_norm": 13.3968492453, 
			 "total_energy": -2071.35544698, 
			 "HOMO_LUMO_gap": 0.21122, 
			 "cosmo_polarized_energy": -9.4, 
			 "cosmo_cavitation_energy": 40.73, 
			 "cosmo_dispersion_energy": -27.75, 
			 "cosmo_repulsion_energy": 2.21, 
			 "cosmo_total_nonelectrostatic_energy": 15.19, 
			 "SMD_solvation_energy": 7.14 
		},
		"coords": [
			{
				"x": -1.7700335965,
				"y": 4.0925479386,
				"z": 0.1437077132,
				"element": "C" 
			},
			{
				"x": -0.7842604405,
				"y": 3.1831510969,
				"z": 0.8864499747,
				"element": "C" 
			},
			{
				"x": 0.5635982943,
				"y": 2.9917303441,
				"z": 0.1705091339,
				"element": "C" 
			},
			{
				"x": 0.4855342638,
				"y": 2.2599724145,
				"z": -1.1609245615,
				"element": "C" 
			},
			{
				"x": -0.0185527491,
				"y": 0.9201747659,
				"z": -0.9071961273,
				"element": "O" 
			},
			{
				"x": -0.2576132698,
				"y": 0.1726564934,
				"z": -1.9944535779,
				"element": "C" 
			},
			{
				"x": -0.0842662053,
				"y": 0.5343909011,
				"z": -3.1377451154,
				"element": "O" 
			},
			{
				"x": -0.8316175603,
				"y": -1.2076768642,
				"z": -1.6786066348,
				"element": "C" 
			},
			{
				"x": -0.8282750254,
				"y": -1.5827529635,
				"z": -0.3044687036,
				"element": "O" 
			},
			{
				"x": 0.3145357694,
				"y": -2.163655998,
				"z": 0.1789462278,
				"element": "C" 
			},
			{
				"x": 1.1734047072,
				"y": -1.4115722036,
				"z": 0.9813192767,
				"element": "C" 
			},
			{
				"x": 2.3064923879,
				"y": -1.9856206839,
				"z": 1.555700427,
				"element": "C" 
			},
			{
				"x": 3.3383617963,
				"y": -0.9887948673,
				"z": 2.5489498738,
				"element": "Cl" 
			},
			{
				"x": 2.5957412865,
				"y": -3.3371160754,
				"z": 1.3232765377,
				"element": "C" 
			},
			{
				"x": 4.000937584,
				"y": -4.107012146,
				"z": 2.0119536514,
				"element": "Cl" 
			},
			{
				"x": 1.7395069901,
				"y": -4.0990875167,
				"z": 0.5267951476,
				"element": "C" 
			},
			{
				"x": 0.6060609673,
				"y": -3.5203878928,
				"z": -0.0377959884,
				"element": "C" 
			},
			{
				"x": -0.4695286528,
				"y": -4.5123762387,
				"z": -0.9955452224,
				"element": "Cl" 
			},
			{
				"x": -2.0611856099,
				"y": 3.6782333527,
				"z": -0.8274055773,
				"element": "H" 
			},
			{
				"x": -1.339257226,
				"y": 5.0847443709,
				"z": -0.0345828601,
				"element": "H" 
			},
			{
				"x": -2.6875752578,
				"y": 4.2292888672,
				"z": 0.7246106447,
				"element": "H" 
			},
			{
				"x": -0.5858576632,
				"y": 3.6038996756,
				"z": 1.8795429299,
				"element": "H" 
			},
			{
				"x": -1.2417344074,
				"y": 2.2012661857,
				"z": 1.054750539,
				"element": "H" 
			},
			{
				"x": 1.2574137133,
				"y": 2.452051484,
				"z": 0.8268484937,
				"element": "H" 
			},
			{
				"x": 1.0226116315,
				"y": 3.9702062692,
				"z": -0.0253713014,
				"element": "H" 
			},
			{
				"x": 1.4686257709,
				"y": 2.1752239801,
				"z": -1.6341877211,
				"element": "H" 
			},
			{
				"x": -0.1823483032,
				"y": 2.7505043152,
				"z": -1.8739971415,
				"element": "H" 
			},
			{
				"x": -1.8796077878,
				"y": -1.2005731559,
				"z": -1.9933721537,
				"element": "H" 
			},
			{
				"x": -0.3056347815,
				"y": -1.9340745336,
				"z": -2.3055805118,
				"element": "H" 
			},
			{
				"x": 0.9387315639,
				"y": -0.3680823975,
				"z": 1.14530573,
				"element": "H" 
			},
			{
				"x": 1.9549918102,
				"y": -5.1467589184,
				"z": 0.3563668971,
				"element": "H" 
			}
		],
		 "valence_orbital": [ 
			{
				"type": "occ",
				"energy": -0.31778,
				"method": "rhf"
			},
			{
				"type": "occ",
				"energy": -0.31134,
				"method": "rhf"
			},
			{
				"type": "occ",
				"energy": -0.27869,
				"method": "rhf"
			},
			{
				"type": "occ",
				"energy": -0.26829,
				"method": "rhf"
			},
			{
				"type": "occ",
				"energy": -0.24975,
				"method": "rhf"
			},
			{
				"type": "unocc",
				"energy": -0.03853,
				"method": "rhf"
			},
			{
				"type": "unocc",
				"energy": -0.0336,
				"method": "rhf"
			},
			{
				"type": "unocc",
				"energy": -0.01491,
				"method": "rhf"
			},
			{
				"type": "unocc",
				"energy": -0.00127,
				"method": "rhf"
			},
			{
				"type": "unocc",
				"energy": 0.02462,
				"method": "rhf"
			}
		],
		"cosmo_sigma_profile": { 
			"-0.025": 0.0,
			"-0.024": 0.0,
			"-0.023": 0.0,
			"-0.022": 0.0,
			"-0.021": 0.0,
			"-0.02": 0.0,
			"-0.019": 0.0,
			"-0.018": 0.0,
			"-0.017": 0.0,
			"-0.016": 0.0,
			"-0.015": 0.0,
			"-0.014": 0.0,
			"-0.013": 0.0,
			"-0.012": 0.0,
			"-0.011": 0.0,
			"-0.01": 0.0637613607123,
			"-0.009": 2.91449354277,
			"-0.008": 4.88197022816,
			"-0.007": 5.17859594757,
			"-0.006": 7.3758689079,
			"-0.005": 12.8552650741,
			"-0.004": 19.4305131974,
			"-0.003": 27.751855607,
			"-0.002": 31.2730333022,
			"-0.001": 41.5578423582,
			"0.0": 48.2042714511,
			"0.001": 32.3133640358,
			"0.002": 20.4076376349,
			"0.003": 26.0826510882,
			"0.004": 20.5343063503,
			"0.005": 6.49096712424,
			"0.006": 2.57528801492,
			"0.007": 2.55014942792,
			"0.008": 2.93879831893,
			"0.009": 3.41881445237,
			"0.01": 2.59082786729,
			"0.011": 4.01343242203,
			"0.012": 3.83296294378,
			"0.013": 0.319466448053,
			"0.014": 0.0,
			"0.015": 0.0,
			"0.016": 0.0,
			"0.017": 0.0,
			"0.018": 0.0,
			"0.019": 0.0,
			"0.02": 0.0,
			"0.021": 0.0,
			"0.022": 0.0,
			"0.023": 0.0,
			"0.024": 0.0,
			"0.025": 0.0
		}
	}
}
