{
	 "smiles": "OC(=O)C1=CC=C(OC2CCCCC2)C=C1", 
	 "Tm": 458.15, 
	 "num_atms": 32, 
	 "gaussian": { 
		 "optdone": 1, 
		 "sigma_profile": "yes", 
		 "theory": "DFT", 
		 "functional": "B3LYP", 
		 "basiset": "6-31G**", 
		 "properties": { 
			 "R2extent": 7382.0737, 
			 "electric_dipole_moment_norm": 5.81122683863, 
			 "electric_quadrupole_moment_norm": 46.8448853123, 
			 "total_energy": -730.711988947, 
			 "HOMO_LUMO_gap": 0.1952, 
			 "cosmo_polarized_energy": -14.94, 
			 "cosmo_cavitation_energy": 33.64, 
			 "cosmo_dispersion_energy": -24.55, 
			 "cosmo_repulsion_energy": 1.91, 
			 "cosmo_total_nonelectrostatic_energy": 10.99, 
			 "SMD_solvation_energy": 6.14 
		},
		"coords": [
			{
				"x": -0.3204088516,
				"y": -4.428344156,
				"z": 5.9209980369,
				"element": "O" 
			},
			{
				"x": -0.1476225473,
				"y": -3.0842131914,
				"z": 5.7718017127,
				"element": "C" 
			},
			{
				"x": -0.0917575585,
				"y": -2.3772632898,
				"z": 6.7522585398,
				"element": "O" 
			},
			{
				"x": -0.033817158,
				"y": -2.5699320078,
				"z": 4.3751308709,
				"element": "C" 
			},
			{
				"x": -0.4583066758,
				"y": -3.2845571842,
				"z": 3.2412692593,
				"element": "C" 
			},
			{
				"x": -0.3360327616,
				"y": -2.7420756911,
				"z": 1.9710901263,
				"element": "C" 
			},
			{
				"x": 0.2188080922,
				"y": -1.4617136915,
				"z": 1.7957604561,
				"element": "C" 
			},
			{
				"x": 0.3172092523,
				"y": -1.0450938095,
				"z": 0.5087787292,
				"element": "O" 
			},
			{
				"x": 0.8097803088,
				"y": 0.2809383823,
				"z": 0.190672984,
				"element": "C" 
			},
			{
				"x": -0.2837664511,
				"y": 1.3298316333,
				"z": 0.414976094,
				"element": "C" 
			},
			{
				"x": -1.5566127601,
				"y": 1.0302840041,
				"z": -0.412573162,
				"element": "C" 
			},
			{
				"x": -1.2453977524,
				"y": 0.3255830629,
				"z": -1.7544741135,
				"element": "C" 
			},
			{
				"x": 0.1494489526,
				"y": 0.7068250797,
				"z": -2.2670444725,
				"element": "C" 
			},
			{
				"x": 1.2489339139,
				"y": 0.2400507102,
				"z": -1.2877029264,
				"element": "C" 
			},
			{
				"x": 0.6310892376,
				"y": -0.7314982744,
				"z": 2.9233262139,
				"element": "C" 
			},
			{
				"x": 0.4951873527,
				"y": -1.286766416,
				"z": 4.1918716679,
				"element": "C" 
			},
			{
				"x": -0.1748286118,
				"y": -4.8776219769,
				"z": 5.0774253741,
				"element": "H" 
			},
			{
				"x": -0.9274387003,
				"y": -4.2610732523,
				"z": 3.3396529652,
				"element": "H" 
			},
			{
				"x": -0.6678436674,
				"y": -3.2843592201,
				"z": 1.0921529365,
				"element": "H" 
			},
			{
				"x": 1.6829013304,
				"y": 0.4813949981,
				"z": 0.8224751355,
				"element": "H" 
			},
			{
				"x": -0.5334556439,
				"y": 1.4147776559,
				"z": 1.4769863769,
				"element": "H" 
			},
			{
				"x": 0.1415519091,
				"y": 2.2978051972,
				"z": 0.1206783671,
				"element": "H" 
			},
			{
				"x": -2.2411501639,
				"y": 0.4105829739,
				"z": 0.1751249061,
				"element": "H" 
			},
			{
				"x": -2.0787530088,
				"y": 1.9763247962,
				"z": -0.5962813899,
				"element": "H" 
			},
			{
				"x": -2.0107734534,
				"y": 0.57461563,
				"z": -2.497545251,
				"element": "H" 
			},
			{
				"x": -1.282247293,
				"y": -0.7605530185,
				"z": -1.6140425201,
				"element": "H" 
			},
			{
				"x": 0.2013941194,
				"y": 1.7964204725,
				"z": -2.3940330626,
				"element": "H" 
			},
			{
				"x": 0.3322686946,
				"y": 0.2762031217,
				"z": -3.2574219525,
				"element": "H" 
			},
			{
				"x": 1.5497261366,
				"y": -0.7892421891,
				"z": -1.5081777602,
				"element": "H" 
			},
			{
				"x": 2.1432015669,
				"y": 0.8620258409,
				"z": -1.4066313221,
				"element": "H" 
			},
			{
				"x": 1.0501244097,
				"y": 0.2618714252,
				"z": 2.8236660065,
				"element": "H" 
			},
			{
				"x": 0.8000877821,
				"y": -0.7284276156,
				"z": 5.0706311743,
				"element": "H" 
			}
		],
		 "valence_orbital": [ 
			{
				"type": "occ",
				"energy": -0.30811,
				"method": "rhf"
			},
			{
				"type": "occ",
				"energy": -0.30273,
				"method": "rhf"
			},
			{
				"type": "occ",
				"energy": -0.2686,
				"method": "rhf"
			},
			{
				"type": "occ",
				"energy": -0.26466,
				"method": "rhf"
			},
			{
				"type": "occ",
				"energy": -0.23212,
				"method": "rhf"
			},
			{
				"type": "unocc",
				"energy": -0.03692,
				"method": "rhf"
			},
			{
				"type": "unocc",
				"energy": -0.01852,
				"method": "rhf"
			},
			{
				"type": "unocc",
				"energy": 0.05716,
				"method": "rhf"
			},
			{
				"type": "unocc",
				"energy": 0.06539,
				"method": "rhf"
			},
			{
				"type": "unocc",
				"energy": 0.0707,
				"method": "rhf"
			}
		],
		"cosmo_sigma_profile": { 
			"-0.025": 0.0,
			"-0.024": 0.0,
			"-0.023": 0.0,
			"-0.022": 0.0,
			"-0.021": 0.0,
			"-0.02": 0.0,
			"-0.019": 0.0362330326474,
			"-0.018": 0.893218500875,
			"-0.017": 0.654897769207,
			"-0.016": 1.25689123311,
			"-0.015": 1.05240570258,
			"-0.014": 0.750462653522,
			"-0.013": 0.550386074304,
			"-0.012": 1.3137581472,
			"-0.011": 1.54370677749,
			"-0.01": 1.2969545765,
			"-0.009": 0.72719519828,
			"-0.008": 1.80956018806,
			"-0.007": 4.38814239906,
			"-0.006": 8.93538477019,
			"-0.005": 8.83836199694,
			"-0.004": 12.3819623284,
			"-0.003": 22.804968293,
			"-0.002": 28.3352516683,
			"-0.001": 30.83636899,
			"0.0": 32.4534907198,
			"0.001": 24.9355922391,
			"0.002": 14.6923550275,
			"0.003": 15.8618163902,
			"0.004": 11.3886273083,
			"0.005": 4.36063719928,
			"0.006": 4.05020735635,
			"0.007": 3.29105015852,
			"0.008": 3.42590498255,
			"0.009": 3.31772320443,
			"0.01": 3.28334741498,
			"0.011": 5.48725850452,
			"0.012": 5.89340802881,
			"0.013": 2.92942672948,
			"0.014": 0.412765870514,
			"0.015": 0.0,
			"0.016": 0.0,
			"0.017": 0.0,
			"0.018": 0.0,
			"0.019": 0.0,
			"0.02": 0.0,
			"0.021": 0.0,
			"0.022": 0.0,
			"0.023": 0.0,
			"0.024": 0.0,
			"0.025": 0.0
		}
	}
}
