{
	 "smiles": "CN1C(=O)C(=O)C2=CC=CC=C12", 
	 "Tm": 404.15, 
	 "num_atms": 19, 
	 "gaussian": { 
		 "optdone": 1, 
		 "sigma_profile": "yes", 
		 "theory": "DFT", 
		 "functional": "B3LYP", 
		 "basiset": "6-31G**", 
		 "properties": { 
			 "R2extent": 2139.0873, 
			 "electric_dipole_moment_norm": 5.86364084251, 
			 "electric_quadrupole_moment_norm": 16.5890844353, 
			 "total_energy": -552.378053711, 
			 "HOMO_LUMO_gap": 0.13842, 
			 "cosmo_polarized_energy": -13.02, 
			 "cosmo_cavitation_energy": 23.75, 
			 "cosmo_dispersion_energy": -17.36, 
			 "cosmo_repulsion_energy": 1.36, 
			 "cosmo_total_nonelectrostatic_energy": 7.74, 
			 "SMD_solvation_energy": 5.52 
		},
		"coords": [
			{
				"x": 0.8867641894,
				"y": 2.116221893,
				"z": 1.0332429194,
				"element": "C" 
			},
			{
				"x": 1.1312906264,
				"y": 0.8369055732,
				"z": 0.3983087586,
				"element": "N" 
			},
			{
				"x": 2.2993642581,
				"y": 0.5348318677,
				"z": -0.2896578016,
				"element": "C" 
			},
			{
				"x": 3.2502399007,
				"y": 1.2687103523,
				"z": -0.4549326924,
				"element": "O" 
			},
			{
				"x": 2.1220055528,
				"y": -0.9361871529,
				"z": -0.7981183081,
				"element": "C" 
			},
			{
				"x": 2.9477861796,
				"y": -1.5442542874,
				"z": -1.4433025565,
				"element": "O" 
			},
			{
				"x": 0.793025118,
				"y": -1.3423565984,
				"z": -0.3169783853,
				"element": "C" 
			},
			{
				"x": 0.0890979859,
				"y": -2.5335861896,
				"z": -0.45584729,
				"element": "C" 
			},
			{
				"x": -1.1808202112,
				"y": -2.6326415932,
				"z": 0.1203482024,
				"element": "C" 
			},
			{
				"x": -1.7167881664,
				"y": -1.5449767938,
				"z": 0.8190384711,
				"element": "C" 
			},
			{
				"x": -1.0177727458,
				"y": -0.3378603036,
				"z": 0.9667534705,
				"element": "C" 
			},
			{
				"x": 0.2438354429,
				"y": -0.2518974557,
				"z": 0.3893693051,
				"element": "C" 
			},
			{
				"x": 1.7670459578,
				"y": 2.7361838071,
				"z": 0.8573560419,
				"element": "H" 
			},
			{
				"x": 0.0064809924,
				"y": 2.6066959042,
				"z": 0.6032832675,
				"element": "H" 
			},
			{
				"x": 0.7370094551,
				"y": 1.9974121861,
				"z": 2.1120316704,
				"element": "H" 
			},
			{
				"x": 0.5320617373,
				"y": -3.3596958371,
				"z": -1.0039980383,
				"element": "H" 
			},
			{
				"x": -1.7529858589,
				"y": -3.5498691368,
				"z": 0.0279918119,
				"element": "H" 
			},
			{
				"x": -2.7045744112,
				"y": -1.6330309338,
				"z": 1.2627625323,
				"element": "H" 
			},
			{
				"x": -1.4526660028,
				"y": 0.4922946986,
				"z": 1.512648621,
				"element": "H" 
			}
		],
		 "valence_orbital": [ 
			{
				"type": "occ",
				"energy": -0.31848,
				"method": "rhf"
			},
			{
				"type": "occ",
				"energy": -0.30792,
				"method": "rhf"
			},
			{
				"type": "occ",
				"energy": -0.27709,
				"method": "rhf"
			},
			{
				"type": "occ",
				"energy": -0.24543,
				"method": "rhf"
			},
			{
				"type": "occ",
				"energy": -0.23378,
				"method": "rhf"
			},
			{
				"type": "unocc",
				"energy": -0.09536,
				"method": "rhf"
			},
			{
				"type": "unocc",
				"energy": -0.02102,
				"method": "rhf"
			},
			{
				"type": "unocc",
				"energy": 0.00647,
				"method": "rhf"
			},
			{
				"type": "unocc",
				"energy": 0.07893,
				"method": "rhf"
			},
			{
				"type": "unocc",
				"energy": 0.08729,
				"method": "rhf"
			}
		],
		"cosmo_sigma_profile": { 
			"-0.025": 0.0,
			"-0.024": 0.0,
			"-0.023": 0.0,
			"-0.022": 0.0,
			"-0.021": 0.0,
			"-0.02": 0.0,
			"-0.019": 0.0,
			"-0.018": 0.0,
			"-0.017": 0.0,
			"-0.016": 0.0,
			"-0.015": 0.0,
			"-0.014": 0.0,
			"-0.013": 0.0,
			"-0.012": 0.0,
			"-0.011": 0.0,
			"-0.01": 0.0,
			"-0.009": 0.0,
			"-0.008": 0.883353021233,
			"-0.007": 9.44642120637,
			"-0.006": 18.3840993689,
			"-0.005": 18.8428682964,
			"-0.004": 14.6442270798,
			"-0.003": 17.2894958758,
			"-0.002": 14.2534793627,
			"-0.001": 10.8554737558,
			"0.0": 10.4473384479,
			"0.001": 11.3263334621,
			"0.002": 11.9058410166,
			"0.003": 12.106571593,
			"0.004": 4.1753862238,
			"0.005": 2.52868661432,
			"0.006": 2.12560333244,
			"0.007": 3.63796760013,
			"0.008": 3.18433361544,
			"0.009": 4.70591567988,
			"0.01": 7.03435275322,
			"0.011": 8.84644375884,
			"0.012": 3.81566227389,
			"0.013": 0.549969701303,
			"0.014": 0.0,
			"0.015": 0.0,
			"0.016": 0.0,
			"0.017": 0.0,
			"0.018": 0.0,
			"0.019": 0.0,
			"0.02": 0.0,
			"0.021": 0.0,
			"0.022": 0.0,
			"0.023": 0.0,
			"0.024": 0.0,
			"0.025": 0.0
		}
	}
}
