{
	 "smiles": "CCCCCCCCCCCCCCCCCCCCCCCCCC(O)=O", 
	 "Tm": 361.65, 
	 "num_atms": 80, 
	 "gaussian": { 
		 "optdone": 1, 
		 "sigma_profile": "yes", 
		 "theory": "DFT", 
		 "functional": "B3LYP", 
		 "basiset": "6-31G**", 
		 "properties": { 
			 "R2extent": 23263.5019, 
			 "electric_dipole_moment_norm": 1.8623851723, 
			 "electric_quadrupole_moment_norm": 20.9612881119, 
			 "total_energy": -1172.63741471, 
			 "HOMO_LUMO_gap": 0.27953, 
			 "cosmo_polarized_energy": -8.91, 
			 "cosmo_cavitation_energy": 76.15, 
			 "cosmo_dispersion_energy": -47.12, 
			 "cosmo_repulsion_energy": 3.83, 
			 "cosmo_total_nonelectrostatic_energy": 32.86, 
			 "SMD_solvation_energy": 10.53 
		},
		"coords": [
			{
				"x": -2.1569111373,
				"y": -4.8604124978,
				"z": 2.2671716265,
				"element": "C" 
			},
			{
				"x": -0.7464445353,
				"y": -5.2356943815,
				"z": 2.7379019662,
				"element": "C" 
			},
			{
				"x": 0.2058732663,
				"y": -4.040500668,
				"z": 2.9115876047,
				"element": "C" 
			},
			{
				"x": -0.1918060205,
				"y": -3.0707707764,
				"z": 4.0351230121,
				"element": "C" 
			},
			{
				"x": 0.8324057268,
				"y": -1.9562214162,
				"z": 4.3090884646,
				"element": "C" 
			},
			{
				"x": 1.0126019878,
				"y": -0.9549517762,
				"z": 3.1571265823,
				"element": "C" 
			},
			{
				"x": 1.9730847967,
				"y": 0.2038723603,
				"z": 3.4908650317,
				"element": "C" 
			},
			{
				"x": 1.4184307168,
				"y": 1.273279213,
				"z": 4.4615522947,
				"element": "C" 
			},
			{
				"x": 0.8126592816,
				"y": 2.5452572313,
				"z": 3.8345274949,
				"element": "C" 
			},
			{
				"x": -0.4772793655,
				"y": 2.39303565,
				"z": 2.9983556989,
				"element": "C" 
			},
			{
				"x": -0.2630674791,
				"y": 2.0968363714,
				"z": 1.5040879266,
				"element": "C" 
			},
			{
				"x": -1.5502175192,
				"y": 2.1078582853,
				"z": 0.6611899682,
				"element": "C" 
			},
			{
				"x": -2.5477246572,
				"y": 0.9863183894,
				"z": 0.9974722838,
				"element": "C" 
			},
			{
				"x": -3.8048504948,
				"y": 0.9462100241,
				"z": 0.0980512246,
				"element": "C" 
			},
			{
				"x": -3.7282999096,
				"y": 0.0160512844,
				"z": -1.1262272398,
				"element": "C" 
			},
			{
				"x": -2.6763183269,
				"y": 0.3721807051,
				"z": -2.1865476851,
				"element": "C" 
			},
			{
				"x": -2.7570160565,
				"y": -0.5385347953,
				"z": -3.420336698,
				"element": "C" 
			},
			{
				"x": -1.6682716493,
				"y": -0.3304358915,
				"z": -4.4886085104,
				"element": "C" 
			},
			{
				"x": -1.6818828184,
				"y": 1.0455065492,
				"z": -5.1953101051,
				"element": "C" 
			},
			{
				"x": -0.763052282,
				"y": 2.1252017607,
				"z": -4.5917044403,
				"element": "C" 
			},
			{
				"x": 0.733898409,
				"y": 1.8839085909,
				"z": -4.8352274588,
				"element": "C" 
			},
			{
				"x": 1.6224053849,
				"y": 2.9786379956,
				"z": -4.2268220016,
				"element": "C" 
			},
			{
				"x": 3.1242389359,
				"y": 2.830205317,
				"z": -4.5208042283,
				"element": "C" 
			},
			{
				"x": 3.7763434991,
				"y": 1.5982938131,
				"z": -3.8770827843,
				"element": "C" 
			},
			{
				"x": 5.3002608774,
				"y": 1.5319276615,
				"z": -4.0901111702,
				"element": "C" 
			},
			{
				"x": 5.7181508645,
				"y": 1.4116168081,
				"z": -5.540160719,
				"element": "C" 
			},
			{
				"x": 5.1033704649,
				"y": 0.370588443,
				"z": -6.1607140638,
				"element": "O" 
			},
			{
				"x": 6.5114729502,
				"y": 2.1249411999,
				"z": -6.1135941891,
				"element": "O" 
			},
			{
				"x": -2.7707777873,
				"y": -5.7535377551,
				"z": 2.1100345486,
				"element": "H" 
			},
			{
				"x": -2.1225591377,
				"y": -4.3107042537,
				"z": 1.319012664,
				"element": "H" 
			},
			{
				"x": -2.6769995842,
				"y": -4.2299227916,
				"z": 2.9955292637,
				"element": "H" 
			},
			{
				"x": -0.3050355088,
				"y": -5.9339046503,
				"z": 2.0150780172,
				"element": "H" 
			},
			{
				"x": -0.8126594302,
				"y": -5.7848404638,
				"z": 3.6874353188,
				"element": "H" 
			},
			{
				"x": 0.274969267,
				"y": -3.5010258191,
				"z": 1.9574049409,
				"element": "H" 
			},
			{
				"x": 1.2157970169,
				"y": -4.4211719155,
				"z": 3.1191705069,
				"element": "H" 
			},
			{
				"x": -1.1633991293,
				"y": -2.6122045934,
				"z": 3.8073139255,
				"element": "H" 
			},
			{
				"x": -0.3385660214,
				"y": -3.6483774694,
				"z": 4.9585538503,
				"element": "H" 
			},
			{
				"x": 1.8067571603,
				"y": -2.408389862,
				"z": 4.5453706525,
				"element": "H" 
			},
			{
				"x": 0.5241312744,
				"y": -1.4166471611,
				"z": 5.2139933503,
				"element": "H" 
			},
			{
				"x": 1.3950057524,
				"y": -1.4846482127,
				"z": 2.2756864581,
				"element": "H" 
			},
			{
				"x": 0.0293858414,
				"y": -0.5589926285,
				"z": 2.8708336204,
				"element": "H" 
			},
			{
				"x": 2.8847124451,
				"y": -0.2324199861,
				"z": 3.920784905,
				"element": "H" 
			},
			{
				"x": 2.2935711736,
				"y": 0.6942645494,
				"z": 2.5630427768,
				"element": "H" 
			},
			{
				"x": 2.2311966131,
				"y": 1.6019942842,
				"z": 5.1214004748,
				"element": "H" 
			},
			{
				"x": 0.671972983,
				"y": 0.8173529438,
				"z": 5.1262703427,
				"element": "H" 
			},
			{
				"x": 1.578969247,
				"y": 3.0448003135,
				"z": 3.2241542318,
				"element": "H" 
			},
			{
				"x": 0.6007283792,
				"y": 3.234616749,
				"z": 4.662086741,
				"element": "H" 
			},
			{
				"x": -1.0460406616,
				"y": 3.3307716521,
				"z": 3.0679627246,
				"element": "H" 
			},
			{
				"x": -1.1154158916,
				"y": 1.6256375178,
				"z": 3.4553827685,
				"element": "H" 
			},
			{
				"x": 0.4237786891,
				"y": 2.8539023314,
				"z": 1.101161651,
				"element": "H" 
			},
			{
				"x": 0.2418104518,
				"y": 1.1321477459,
				"z": 1.3717168969,
				"element": "H" 
			},
			{
				"x": -1.2737889596,
				"y": 2.0474344818,
				"z": -0.397981978,
				"element": "H" 
			},
			{
				"x": -2.0543452748,
				"y": 3.0775253557,
				"z": 0.784674131,
				"element": "H" 
			},
			{
				"x": -2.8659276245,
				"y": 1.1042335646,
				"z": 2.0400987801,
				"element": "H" 
			},
			{
				"x": -2.0348590222,
				"y": 0.014347379,
				"z": 0.9510882532,
				"element": "H" 
			},
			{
				"x": -4.0479087801,
				"y": 1.9662481779,
				"z": -0.2322167765,
				"element": "H" 
			},
			{
				"x": -4.6607062896,
				"y": 0.6193842529,
				"z": 0.7017386848,
				"element": "H" 
			},
			{
				"x": -3.5498363981,
				"y": -1.012088083,
				"z": -0.77910452,
				"element": "H" 
			},
			{
				"x": -4.7162219912,
				"y": 0.0009911013,
				"z": -1.607758892,
				"element": "H" 
			},
			{
				"x": -2.8093972459,
				"y": 1.4202487738,
				"z": -2.4853533291,
				"element": "H" 
			},
			{
				"x": -1.6697233602,
				"y": 0.2993290342,
				"z": -1.7538203334,
				"element": "H" 
			},
			{
				"x": -2.7147811581,
				"y": -1.5842716331,
				"z": -3.0845784298,
				"element": "H" 
			},
			{
				"x": -3.7435382984,
				"y": -0.4151320979,
				"z": -3.8904411502,
				"element": "H" 
			},
			{
				"x": -0.6819835607,
				"y": -0.5121110824,
				"z": -4.040484564,
				"element": "H" 
			},
			{
				"x": -1.7955486686,
				"y": -1.1158424015,
				"z": -5.2439157976,
				"element": "H" 
			},
			{
				"x": -1.3959081684,
				"y": 0.9121252041,
				"z": -6.2471957845,
				"element": "H" 
			},
			{
				"x": -2.7137817225,
				"y": 1.4213292776,
				"z": -5.2164920463,
				"element": "H" 
			},
			{
				"x": -0.9431085053,
				"y": 2.2140840556,
				"z": -3.5129309898,
				"element": "H" 
			},
			{
				"x": -1.0332233339,
				"y": 3.0988008619,
				"z": -5.0233324552,
				"element": "H" 
			},
			{
				"x": 0.9179685572,
				"y": 1.8294784714,
				"z": -5.9181717961,
				"element": "H" 
			},
			{
				"x": 1.0209363857,
				"y": 0.9054512564,
				"z": -4.4303496272,
				"element": "H" 
			},
			{
				"x": 1.2877988403,
				"y": 3.9541466385,
				"z": -4.6046721449,
				"element": "H" 
			},
			{
				"x": 1.4680517984,
				"y": 3.0087168053,
				"z": -3.1384021884,
				"element": "H" 
			},
			{
				"x": 3.6454867472,
				"y": 3.7301594811,
				"z": -4.1678786411,
				"element": "H" 
			},
			{
				"x": 3.2768871857,
				"y": 2.7983244341,
				"z": -5.6086985714,
				"element": "H" 
			},
			{
				"x": 3.3262186906,
				"y": 0.679992211,
				"z": -4.2671793453,
				"element": "H" 
			},
			{
				"x": 3.584317263,
				"y": 1.6093872129,
				"z": -2.7964021408,
				"element": "H" 
			},
			{
				"x": 5.7037530844,
				"y": 0.6585088977,
				"z": -3.5622709798,
				"element": "H" 
			},
			{
				"x": 5.7962300672,
				"y": 2.420520618,
				"z": -3.6912097062,
				"element": "H" 
			},
			{
				"x": 5.4372516902,
				"y": 0.3713717763,
				"z": -7.0734881778,
				"element": "H" 
			}
		],
		 "valence_orbital": [ 
			{
				"type": "occ",
				"energy": -0.2998,
				"method": "rhf"
			},
			{
				"type": "occ",
				"energy": -0.29871,
				"method": "rhf"
			},
			{
				"type": "occ",
				"energy": -0.29205,
				"method": "rhf"
			},
			{
				"type": "occ",
				"energy": -0.2907,
				"method": "rhf"
			},
			{
				"type": "occ",
				"energy": -0.26852,
				"method": "rhf"
			},
			{
				"type": "unocc",
				"energy": 0.01101,
				"method": "rhf"
			},
			{
				"type": "unocc",
				"energy": 0.07357,
				"method": "rhf"
			},
			{
				"type": "unocc",
				"energy": 0.07595,
				"method": "rhf"
			},
			{
				"type": "unocc",
				"energy": 0.08272,
				"method": "rhf"
			},
			{
				"type": "unocc",
				"energy": 0.08864,
				"method": "rhf"
			}
		],
		"cosmo_sigma_profile": { 
			"-0.025": 0.0,
			"-0.024": 0.0,
			"-0.023": 0.0,
			"-0.022": 0.0,
			"-0.021": 0.0,
			"-0.02": 0.0,
			"-0.019": 0.0102355974178,
			"-0.018": 0.490192454878,
			"-0.017": 0.619692262502,
			"-0.016": 1.49712087145,
			"-0.015": 0.417576875363,
			"-0.014": 0.180241194392,
			"-0.013": 0.52903540017,
			"-0.012": 0.93968125709,
			"-0.011": 1.07241730759,
			"-0.01": 0.776653586295,
			"-0.009": 0.624260524423,
			"-0.008": 0.498975342251,
			"-0.007": 0.779004836685,
			"-0.006": 3.00981562883,
			"-0.005": 4.27582264887,
			"-0.004": 4.6374060369,
			"-0.003": 14.1308536537,
			"-0.002": 62.7591727933,
			"-0.001": 139.566827469,
			"0.0": 151.297635177,
			"0.001": 113.468077811,
			"0.002": 47.8863405104,
			"0.003": 3.45482225138,
			"0.004": 2.85157350563,
			"0.005": 2.2832544418,
			"0.006": 2.29122740046,
			"0.007": 3.19322064101,
			"0.008": 3.19025201284,
			"0.009": 2.06114813592,
			"0.01": 2.42268102695,
			"0.011": 3.13268759112,
			"0.012": 5.23057551385,
			"0.013": 1.78947620789,
			"0.014": 0.107182977814,
			"0.015": 0.0,
			"0.016": 0.0,
			"0.017": 0.0,
			"0.018": 0.0,
			"0.019": 0.0,
			"0.02": 0.0,
			"0.021": 0.0,
			"0.022": 0.0,
			"0.023": 0.0,
			"0.024": 0.0,
			"0.025": 0.0
		}
	}
}
