{
	 "smiles": "CC1=C(C=O)C=CC=C1", 
	 "Tm": 238.15, 
	 "num_atms": 17, 
	 "gaussian": { 
		 "optdone": 1, 
		 "sigma_profile": "yes", 
		 "theory": "DFT", 
		 "functional": "B3LYP", 
		 "basiset": "6-31G**", 
		 "properties": { 
			 "R2extent": 1680.6893, 
			 "electric_dipole_moment_norm": 3.31578827732, 
			 "electric_quadrupole_moment_norm": 13.7589283362, 
			 "total_energy": -384.892485501, 
			 "HOMO_LUMO_gap": 0.18745, 
			 "cosmo_polarized_energy": -7.34, 
			 "cosmo_cavitation_energy": 20.75, 
			 "cosmo_dispersion_energy": -15.25, 
			 "cosmo_repulsion_energy": 1.23, 
			 "cosmo_total_nonelectrostatic_energy": 6.74, 
			 "SMD_solvation_energy": 4.68 
		},
		"coords": [
			{
				"x": 0.3309516553,
				"y": 1.464592022,
				"z": 0.4598272654,
				"element": "C" 
			},
			{
				"x": 0.2626222593,
				"y": -0.0361507352,
				"z": 0.6500150173,
				"element": "C" 
			},
			{
				"x": 1.4145979411,
				"y": -0.83641175,
				"z": 0.8312767435,
				"element": "C" 
			},
			{
				"x": 2.7787757949,
				"y": -0.2556771791,
				"z": 0.8474885952,
				"element": "C" 
			},
			{
				"x": 3.7976304522,
				"y": -0.90669887,
				"z": 1.000592054,
				"element": "O" 
			},
			{
				"x": 1.2943854249,
				"y": -2.2247374119,
				"z": 1.0034194986,
				"element": "C" 
			},
			{
				"x": 0.0471974791,
				"y": -2.837542021,
				"z": 0.9991495411,
				"element": "C" 
			},
			{
				"x": -1.096086733,
				"y": -2.0544623223,
				"z": 0.8206713141,
				"element": "C" 
			},
			{
				"x": -0.9835444082,
				"y": -0.6739919351,
				"z": 0.6490592018,
				"element": "C" 
			},
			{
				"x": -0.6735365465,
				"y": 1.8780295232,
				"z": 0.3387660369,
				"element": "H" 
			},
			{
				"x": 0.9095874824,
				"y": 1.7411125862,
				"z": -0.4281957794,
				"element": "H" 
			},
			{
				"x": 0.7924973602,
				"y": 1.967538863,
				"z": 1.3164995718,
				"element": "H" 
			},
			{
				"x": 2.8395978371,
				"y": 0.8428443584,
				"z": 0.7087570433,
				"element": "H" 
			},
			{
				"x": 2.2068679741,
				"y": -2.7968320816,
				"z": 1.1389940696,
				"element": "H" 
			},
			{
				"x": -0.0376795153,
				"y": -3.9117684661,
				"z": 1.1329009257,
				"element": "H" 
			},
			{
				"x": -2.0789304973,
				"y": -2.5175679979,
				"z": 0.8147408314,
				"element": "H" 
			},
			{
				"x": -1.8813339604,
				"y": -0.0769765825,
				"z": 0.5112380699,
				"element": "H" 
			}
		],
		 "valence_orbital": [ 
			{
				"type": "occ",
				"energy": -0.35581,
				"method": "rhf"
			},
			{
				"type": "occ",
				"energy": -0.3489,
				"method": "rhf"
			},
			{
				"type": "occ",
				"energy": -0.2595,
				"method": "rhf"
			},
			{
				"type": "occ",
				"energy": -0.25476,
				"method": "rhf"
			},
			{
				"type": "occ",
				"energy": -0.25047,
				"method": "rhf"
			},
			{
				"type": "unocc",
				"energy": -0.06302,
				"method": "rhf"
			},
			{
				"type": "unocc",
				"energy": -0.00859,
				"method": "rhf"
			},
			{
				"type": "unocc",
				"energy": 0.04189,
				"method": "rhf"
			},
			{
				"type": "unocc",
				"energy": 0.0926,
				"method": "rhf"
			},
			{
				"type": "unocc",
				"energy": 0.09679,
				"method": "rhf"
			}
		],
		"cosmo_sigma_profile": { 
			"-0.025": 0.0,
			"-0.024": 0.0,
			"-0.023": 0.0,
			"-0.022": 0.0,
			"-0.021": 0.0,
			"-0.02": 0.0,
			"-0.019": 0.0,
			"-0.018": 0.0,
			"-0.017": 0.0,
			"-0.016": 0.0,
			"-0.015": 0.0,
			"-0.014": 0.0,
			"-0.013": 0.0,
			"-0.012": 0.0,
			"-0.011": 0.0,
			"-0.01": 0.0,
			"-0.009": 0.0,
			"-0.008": 0.0,
			"-0.007": 0.765357032602,
			"-0.006": 11.9430776809,
			"-0.005": 18.1914606,
			"-0.004": 16.541619412,
			"-0.003": 12.7129207416,
			"-0.002": 13.1914235992,
			"-0.001": 12.8998842682,
			"0.0": 13.7491301999,
			"0.001": 9.29261611916,
			"0.002": 10.6231450028,
			"0.003": 11.0085225208,
			"0.004": 13.0251808761,
			"0.005": 4.16715740405,
			"0.006": 1.00600541762,
			"0.007": 1.93574082691,
			"0.008": 1.57453321789,
			"0.009": 2.16202660653,
			"0.01": 2.53176560529,
			"0.011": 3.54120682099,
			"0.012": 3.52254365791,
			"0.013": 1.18543857697,
			"0.014": 0.0523329626731,
			"0.015": 0.0,
			"0.016": 0.0,
			"0.017": 0.0,
			"0.018": 0.0,
			"0.019": 0.0,
			"0.02": 0.0,
			"0.021": 0.0,
			"0.022": 0.0,
			"0.023": 0.0,
			"0.024": 0.0,
			"0.025": 0.0
		}
	}
}
