{
	 "smiles": "CN(C)C(=O)NC1=CC=C(C)C(Cl)=C1", 
	 "Tm": 421.15, 
	 "num_atms": 27, 
	 "gaussian": { 
		 "optdone": 1, 
		 "sigma_profile": "yes", 
		 "theory": "DFT", 
		 "functional": "B3LYP", 
		 "basiset": "6-31G**", 
		 "properties": { 
			 "R2extent": 4033.4054, 
			 "electric_dipole_moment_norm": 2.72585236944, 
			 "electric_quadrupole_moment_norm": 13.0333863086, 
			 "total_energy": -1033.84315643, 
			 "HOMO_LUMO_gap": 0.203, 
			 "cosmo_polarized_energy": -11.05, 
			 "cosmo_cavitation_energy": 31.63, 
			 "cosmo_dispersion_energy": -22.49, 
			 "cosmo_repulsion_energy": 1.77, 
			 "cosmo_total_nonelectrostatic_energy": 10.91, 
			 "SMD_solvation_energy": 6.47 
		},
		"coords": [
			{
				"x": -0.0391481956,
				"y": -1.7455622848,
				"z": -4.2172253342,
				"element": "C" 
			},
			{
				"x": 0.5917703612,
				"y": -1.0371267179,
				"z": -3.1099233399,
				"element": "N" 
			},
			{
				"x": 1.8072386324,
				"y": -1.6561845472,
				"z": -2.5906410889,
				"element": "C" 
			},
			{
				"x": 0.3246830227,
				"y": 0.3114909414,
				"z": -3.0061777436,
				"element": "C" 
			},
			{
				"x": -0.3250476778,
				"y": 0.9344557172,
				"z": -3.8383973062,
				"element": "O" 
			},
			{
				"x": 0.8590176036,
				"y": 0.9837355323,
				"z": -1.8905631402,
				"element": "N" 
			},
			{
				"x": 0.8393855758,
				"y": 0.6037310076,
				"z": -0.5296724788,
				"element": "C" 
			},
			{
				"x": 1.4722131856,
				"y": 1.4423638385,
				"z": 0.400273411,
				"element": "C" 
			},
			{
				"x": 1.4585288518,
				"y": 1.1272464255,
				"z": 1.7544702784,
				"element": "C" 
			},
			{
				"x": 0.8411227986,
				"y": -0.0293051118,
				"z": 2.2517711102,
				"element": "C" 
			},
			{
				"x": 0.853654181,
				"y": -0.3566437555,
				"z": 3.722371876,
				"element": "C" 
			},
			{
				"x": 0.2204774758,
				"y": -0.8468625813,
				"z": 1.2978755231,
				"element": "C" 
			},
			{
				"x": -0.5956139831,
				"y": -2.3222572471,
				"z": 1.8200618194,
				"element": "Cl" 
			},
			{
				"x": 0.198288802,
				"y": -0.5517344508,
				"z": -0.0633613411,
				"element": "C" 
			},
			{
				"x": -0.2083041571,
				"y": -2.78752285,
				"z": -3.9271465975,
				"element": "H" 
			},
			{
				"x": 0.5894868235,
				"y": -1.7311339322,
				"z": -5.1186174305,
				"element": "H" 
			},
			{
				"x": -0.9891993368,
				"y": -1.2699075802,
				"z": -4.4548444476,
				"element": "H" 
			},
			{
				"x": 1.5737270401,
				"y": -2.5531992215,
				"z": -2.0057626559,
				"element": "H" 
			},
			{
				"x": 2.3534335087,
				"y": -0.96082474,
				"z": -1.956946171,
				"element": "H" 
			},
			{
				"x": 2.4610873328,
				"y": -1.9494931463,
				"z": -3.4232189135,
				"element": "H" 
			},
			{
				"x": 0.7662077443,
				"y": 1.9805215645,
				"z": -2.0399290499,
				"element": "H" 
			},
			{
				"x": 1.9780295809,
				"y": 2.3396427722,
				"z": 0.0548984864,
				"element": "H" 
			},
			{
				"x": 1.9525408115,
				"y": 1.7943683751,
				"z": 2.4558212816,
				"element": "H" 
			},
			{
				"x": -0.161938124,
				"y": -0.4223585772,
				"z": 4.1276745723,
				"element": "H" 
			},
			{
				"x": 1.3945414872,
				"y": 0.4105065966,
				"z": 4.2823474015,
				"element": "H" 
			},
			{
				"x": 1.3335244018,
				"y": -1.3222909516,
				"z": 3.9154244693,
				"element": "H" 
			},
			{
				"x": -0.3208077471,
				"y": -1.2086550754,
				"z": -0.7488631904,
				"element": "H" 
			}
		],
		 "valence_orbital": [ 
			{
				"type": "occ",
				"energy": -0.29839,
				"method": "rhf"
			},
			{
				"type": "occ",
				"energy": -0.26701,
				"method": "rhf"
			},
			{
				"type": "occ",
				"energy": -0.25117,
				"method": "rhf"
			},
			{
				"type": "occ",
				"energy": -0.24089,
				"method": "rhf"
			},
			{
				"type": "occ",
				"energy": -0.21867,
				"method": "rhf"
			},
			{
				"type": "unocc",
				"energy": -0.01567,
				"method": "rhf"
			},
			{
				"type": "unocc",
				"energy": -0.01007,
				"method": "rhf"
			},
			{
				"type": "unocc",
				"energy": 0.02969,
				"method": "rhf"
			},
			{
				"type": "unocc",
				"energy": 0.04617,
				"method": "rhf"
			},
			{
				"type": "unocc",
				"energy": 0.08758,
				"method": "rhf"
			}
		],
		"cosmo_sigma_profile": { 
			"-0.025": 0.0,
			"-0.024": 0.0,
			"-0.023": 0.0,
			"-0.022": 0.0,
			"-0.021": 0.0,
			"-0.02": 0.0,
			"-0.019": 0.0,
			"-0.018": 0.0,
			"-0.017": 0.0,
			"-0.016": 0.0,
			"-0.015": 0.0,
			"-0.014": 0.317523122789,
			"-0.013": 1.43360495467,
			"-0.012": 0.465659431936,
			"-0.011": 1.26986575126,
			"-0.01": 1.01738701114,
			"-0.009": 1.05270765848,
			"-0.008": 1.17888925466,
			"-0.007": 2.38534046447,
			"-0.006": 5.06116638573,
			"-0.005": 13.3091092384,
			"-0.004": 25.8655314473,
			"-0.003": 25.7008348037,
			"-0.002": 29.3533513236,
			"-0.001": 23.1475742914,
			"0.0": 22.3705675222,
			"0.001": 15.922445405,
			"0.002": 16.6012892895,
			"0.003": 17.0000166823,
			"0.004": 17.948127919,
			"0.005": 11.3722826698,
			"0.006": 1.94569162576,
			"0.007": 1.12297416037,
			"0.008": 1.23496923017,
			"0.009": 0.884623357234,
			"0.01": 2.0460065104,
			"0.011": 1.10159929143,
			"0.012": 1.99256174083,
			"0.013": 3.44339091762,
			"0.014": 5.07532685565,
			"0.015": 0.469813330032,
			"0.016": 0.0,
			"0.017": 0.0,
			"0.018": 0.0,
			"0.019": 0.0,
			"0.02": 0.0,
			"0.021": 0.0,
			"0.022": 0.0,
			"0.023": 0.0,
			"0.024": 0.0,
			"0.025": 0.0
		}
	}
}
