{
	 "smiles": "CC1=CC=CC(=C1)N1CC(CO)OC1=O", 
	 "Tm": 349.15, 
	 "num_atms": 28, 
	 "gaussian": { 
		 "optdone": 1, 
		 "sigma_profile": "yes", 
		 "theory": "DFT", 
		 "functional": "B3LYP", 
		 "basiset": "6-31G**", 
		 "properties": { 
			 "R2extent": 4494.8146, 
			 "electric_dipole_moment_norm": 3.72895976514, 
			 "electric_quadrupole_moment_norm": 14.067226191, 
			 "total_energy": -707.443942652, 
			 "HOMO_LUMO_gap": 0.21392, 
			 "cosmo_polarized_energy": -15.17, 
			 "cosmo_cavitation_energy": 30.95, 
			 "cosmo_dispersion_energy": -22.78, 
			 "cosmo_repulsion_energy": 1.78, 
			 "cosmo_total_nonelectrostatic_energy": 9.95, 
			 "SMD_solvation_energy": 5.85 
		},
		"coords": [
			{
				"x": -3.1524825001,
				"y": 1.1110629461,
				"z": -2.0286341413,
				"element": "C" 
			},
			{
				"x": -2.6702379138,
				"y": 0.6476292833,
				"z": -0.6731259697,
				"element": "C" 
			},
			{
				"x": -3.5179009697,
				"y": -0.0846230796,
				"z": 0.1708067118,
				"element": "C" 
			},
			{
				"x": -3.0576977043,
				"y": -0.5234580847,
				"z": 1.4078394589,
				"element": "C" 
			},
			{
				"x": -1.7565649051,
				"y": -0.2431686648,
				"z": 1.8265681172,
				"element": "C" 
			},
			{
				"x": -0.899292508,
				"y": 0.4900464726,
				"z": 0.9922430635,
				"element": "C" 
			},
			{
				"x": -1.3669046322,
				"y": 0.9310593216,
				"z": -0.2582533289,
				"element": "C" 
			},
			{
				"x": 0.4235185427,
				"y": 0.755074642,
				"z": 1.4287478801,
				"element": "N" 
			},
			{
				"x": 0.9380280567,
				"y": 0.2471251418,
				"z": 2.6938594188,
				"element": "C" 
			},
			{
				"x": 2.4122934737,
				"y": 0.6841360493,
				"z": 2.6477463157,
				"element": "C" 
			},
			{
				"x": 3.385458564,
				"y": -0.4458062837,
				"z": 2.3193838345,
				"element": "C" 
			},
			{
				"x": 4.7003914537,
				"y": 0.0340728144,
				"z": 2.1556949448,
				"element": "O" 
			},
			{
				"x": 2.4735535282,
				"y": 1.6504123724,
				"z": 1.5774708919,
				"element": "O" 
			},
			{
				"x": 1.3274489484,
				"y": 1.6140338282,
				"z": 0.824092233,
				"element": "C" 
			},
			{
				"x": 1.2085443142,
				"y": 2.2587512276,
				"z": -0.1901273474,
				"element": "O" 
			},
			{
				"x": -2.4778523806,
				"y": 1.854681811,
				"z": -2.4605685632,
				"element": "H" 
			},
			{
				"x": -3.2164451079,
				"y": 0.2723530077,
				"z": -2.7327341489,
				"element": "H" 
			},
			{
				"x": -4.1518980751,
				"y": 1.55436218,
				"z": -1.9652964301,
				"element": "H" 
			},
			{
				"x": -4.5344553114,
				"y": -0.3066629181,
				"z": -0.1428619947,
				"element": "H" 
			},
			{
				"x": -3.7140354945,
				"y": -1.0884340501,
				"z": 2.0637019302,
				"element": "H" 
			},
			{
				"x": -1.428191401,
				"y": -0.5915048903,
				"z": 2.7985870571,
				"element": "H" 
			},
			{
				"x": -0.7075393263,
				"y": 1.5032186792,
				"z": -0.8958705714,
				"element": "H" 
			},
			{
				"x": 0.4006540666,
				"y": 0.6818427589,
				"z": 3.5458075032,
				"element": "H" 
			},
			{
				"x": 0.8399479769,
				"y": -0.8435662513,
				"z": 2.7496044729,
				"element": "H" 
			},
			{
				"x": 2.7312604556,
				"y": 1.1941978584,
				"z": 3.5603261718,
				"element": "H" 
			},
			{
				"x": 3.0203536323,
				"y": -0.9776396281,
				"z": 1.4240265697,
				"element": "H" 
			},
			{
				"x": 3.4038804133,
				"y": -1.1625869372,
				"z": 3.1482120634,
				"element": "H" 
			},
			{
				"x": 4.6639648034,
				"y": 0.7175903933,
				"z": 1.4711538571,
				"element": "H" 
			}
		],
		 "valence_orbital": [ 
			{
				"type": "occ",
				"energy": -0.30092,
				"method": "rhf"
			},
			{
				"type": "occ",
				"energy": -0.28195,
				"method": "rhf"
			},
			{
				"type": "occ",
				"energy": -0.27702,
				"method": "rhf"
			},
			{
				"type": "occ",
				"energy": -0.24502,
				"method": "rhf"
			},
			{
				"type": "occ",
				"energy": -0.22157,
				"method": "rhf"
			},
			{
				"type": "unocc",
				"energy": -0.00765,
				"method": "rhf"
			},
			{
				"type": "unocc",
				"energy": -0.00097,
				"method": "rhf"
			},
			{
				"type": "unocc",
				"energy": 0.04865,
				"method": "rhf"
			},
			{
				"type": "unocc",
				"energy": 0.0757,
				"method": "rhf"
			},
			{
				"type": "unocc",
				"energy": 0.0788,
				"method": "rhf"
			}
		],
		"cosmo_sigma_profile": { 
			"-0.025": 0.0,
			"-0.024": 0.0,
			"-0.023": 0.0,
			"-0.022": 0.0,
			"-0.021": 0.0,
			"-0.02": 0.0,
			"-0.019": 0.0,
			"-0.018": 0.0,
			"-0.017": 0.0,
			"-0.016": 0.0,
			"-0.015": 0.0,
			"-0.014": 0.356220648138,
			"-0.013": 0.601815845606,
			"-0.012": 1.13145341783,
			"-0.011": 0.439798384501,
			"-0.01": 0.423043891393,
			"-0.009": 0.8730178427,
			"-0.008": 1.99515680896,
			"-0.007": 16.9054168213,
			"-0.006": 18.4277880161,
			"-0.005": 17.770687967,
			"-0.004": 19.4351072881,
			"-0.003": 18.5462291869,
			"-0.002": 16.3417459963,
			"-0.001": 15.3673046058,
			"0.0": 17.6310170706,
			"0.001": 12.6013122144,
			"0.002": 10.2801875042,
			"0.003": 11.1134555114,
			"0.004": 11.0083760057,
			"0.005": 12.4359352595,
			"0.006": 9.74596712267,
			"0.007": 3.42301404576,
			"0.008": 3.96840759404,
			"0.009": 4.292769015,
			"0.01": 3.97454183924,
			"0.011": 4.11652942587,
			"0.012": 5.91038657263,
			"0.013": 3.91195182753,
			"0.014": 1.60581290489,
			"0.015": 0.0,
			"0.016": 0.0,
			"0.017": 0.0,
			"0.018": 0.0,
			"0.019": 0.0,
			"0.02": 0.0,
			"0.021": 0.0,
			"0.022": 0.0,
			"0.023": 0.0,
			"0.024": 0.0,
			"0.025": 0.0
		}
	}
}
