{
	 "smiles": "SC1=C(C#N)C(C2=CC=CO2)=C2CCCC2=N1", 
	 "Tm": 553.15, 
	 "num_atms": 27, 
	 "gaussian": { 
		 "optdone": 1, 
		 "sigma_profile": "yes", 
		 "theory": "DFT", 
		 "functional": "B3LYP", 
		 "basiset": "6-31G**", 
		 "properties": { 
			 "R2extent": 4731.0614, 
			 "electric_dipole_moment_norm": 5.79397427247, 
			 "electric_quadrupole_moment_norm": 10.4357458152, 
			 "total_energy": -1084.28854243, 
			 "HOMO_LUMO_gap": 0.15818, 
			 "cosmo_polarized_energy": -12.71, 
			 "cosmo_cavitation_energy": 32.75, 
			 "cosmo_dispersion_energy": -24.11, 
			 "cosmo_repulsion_energy": 1.8, 
			 "cosmo_total_nonelectrostatic_energy": 10.43, 
			 "SMD_solvation_energy": 4.53 
		},
		"coords": [
			{
				"x": 0.9008199064,
				"y": -3.8691495121,
				"z": 1.2945835688,
				"element": "S" 
			},
			{
				"x": 0.6203678595,
				"y": -2.1975219371,
				"z": 0.7596333122,
				"element": "C" 
			},
			{
				"x": -0.0319105628,
				"y": -1.8376441372,
				"z": -0.4504826138,
				"element": "C" 
			},
			{
				"x": -0.5366868217,
				"y": -2.8820480766,
				"z": -1.2833755222,
				"element": "C" 
			},
			{
				"x": -0.9263757524,
				"y": -3.8015127306,
				"z": -1.8832009556,
				"element": "N" 
			},
			{
				"x": -0.1966207089,
				"y": -0.4544747614,
				"z": -0.7658480926,
				"element": "C" 
			},
			{
				"x": -0.8450954305,
				"y": -0.0021749796,
				"z": -1.9877238674,
				"element": "C" 
			},
			{
				"x": -1.4755997773,
				"y": 1.1697434318,
				"z": -2.3413596141,
				"element": "C" 
			},
			{
				"x": -1.9334974658,
				"y": 1.003733682,
				"z": -3.6813349385,
				"element": "C" 
			},
			{
				"x": -1.5488926051,
				"y": -0.2495177944,
				"z": -4.0583034967,
				"element": "C" 
			},
			{
				"x": -0.8922111785,
				"y": -0.8688200519,
				"z": -3.047528547,
				"element": "O" 
			},
			{
				"x": 0.3083955666,
				"y": 0.4641027354,
				"z": 0.164788817,
				"element": "C" 
			},
			{
				"x": 0.3284993121,
				"y": 1.9756251295,
				"z": 0.1541861983,
				"element": "C" 
			},
			{
				"x": 1.3860558134,
				"y": 2.3290077286,
				"z": 1.2351114411,
				"element": "C" 
			},
			{
				"x": 1.4106454597,
				"y": 1.1178496361,
				"z": 2.1961087464,
				"element": "C" 
			},
			{
				"x": 0.9323342896,
				"y": -0.0171299772,
				"z": 1.3227173372,
				"element": "C" 
			},
			{
				"x": 1.0938145689,
				"y": -1.3008852094,
				"z": 1.6303054561,
				"element": "N" 
			},
			{
				"x": 0.3300521206,
				"y": -4.487001807,
				"z": 0.2423353577,
				"element": "H" 
			},
			{
				"x": -1.6239298627,
				"y": 2.0340619541,
				"z": -1.7137306646,
				"element": "H" 
			},
			{
				"x": -2.4763629521,
				"y": 1.7198180961,
				"z": -4.2806611756,
				"element": "H" 
			},
			{
				"x": -1.6559412734,
				"y": -0.821040051,
				"z": -4.96709974,
				"element": "H" 
			},
			{
				"x": -0.6581187209,
				"y": 2.3757431763,
				"z": 0.4296771061,
				"element": "H" 
			},
			{
				"x": 0.5737027901,
				"y": 2.392550768,
				"z": -0.8281122737,
				"element": "H" 
			},
			{
				"x": 2.3661245579,
				"y": 2.4339587048,
				"z": 0.7577567309,
				"element": "H" 
			},
			{
				"x": 1.1663061991,
				"y": 3.2721500791,
				"z": 1.7415726161,
				"element": "H" 
			},
			{
				"x": 2.3929725587,
				"y": 0.9154867465,
				"z": 2.6313530148,
				"element": "H" 
			},
			{
				"x": 0.7118521096,
				"y": 1.2512891571,
				"z": 3.033531799,
				"element": "H" 
			}
		],
		 "valence_orbital": [ 
			{
				"type": "occ",
				"energy": -0.29625,
				"method": "rhf"
			},
			{
				"type": "occ",
				"energy": -0.28471,
				"method": "rhf"
			},
			{
				"type": "occ",
				"energy": -0.27153,
				"method": "rhf"
			},
			{
				"type": "occ",
				"energy": -0.23754,
				"method": "rhf"
			},
			{
				"type": "occ",
				"energy": -0.22981,
				"method": "rhf"
			},
			{
				"type": "unocc",
				"energy": -0.07163,
				"method": "rhf"
			},
			{
				"type": "unocc",
				"energy": -0.03896,
				"method": "rhf"
			},
			{
				"type": "unocc",
				"energy": 0.01558,
				"method": "rhf"
			},
			{
				"type": "unocc",
				"energy": 0.02298,
				"method": "rhf"
			},
			{
				"type": "unocc",
				"energy": 0.03334,
				"method": "rhf"
			}
		],
		"cosmo_sigma_profile": { 
			"-0.025": 0.0,
			"-0.024": 0.0,
			"-0.023": 0.0,
			"-0.022": 0.0,
			"-0.021": 0.0,
			"-0.02": 0.0,
			"-0.019": 0.0,
			"-0.018": 0.0,
			"-0.017": 0.0,
			"-0.016": 0.0,
			"-0.015": 0.0,
			"-0.014": 0.0,
			"-0.013": 0.0,
			"-0.012": 0.0,
			"-0.011": 0.0889627981027,
			"-0.01": 1.51666200442,
			"-0.009": 2.83714260175,
			"-0.008": 4.47249840313,
			"-0.007": 7.54557904268,
			"-0.006": 7.34800950342,
			"-0.005": 13.4665224863,
			"-0.004": 22.3844946637,
			"-0.003": 26.4408138621,
			"-0.002": 26.6300493803,
			"-0.001": 30.8358035054,
			"0.0": 22.7540746776,
			"0.001": 13.8292422342,
			"0.002": 14.4988200694,
			"0.003": 14.5171267522,
			"0.004": 11.1547097336,
			"0.005": 8.950929114,
			"0.006": 7.81920819716,
			"0.007": 7.16283466963,
			"0.008": 4.89572322005,
			"0.009": 4.02799188525,
			"0.01": 4.17960522253,
			"0.011": 3.53917453785,
			"0.012": 2.86485522194,
			"0.013": 1.89259706353,
			"0.014": 0.33333452181,
			"0.015": 0.0,
			"0.016": 0.0,
			"0.017": 0.0,
			"0.018": 0.0,
			"0.019": 0.0,
			"0.02": 0.0,
			"0.021": 0.0,
			"0.022": 0.0,
			"0.023": 0.0,
			"0.024": 0.0,
			"0.025": 0.0
		}
	}
}
