{
	 "smiles": "CC1=C(CC(O)=O)SC2=C1C=CC=C2", 
	 "Tm": 422.15, 
	 "num_atms": 24, 
	 "gaussian": { 
		 "optdone": 1, 
		 "sigma_profile": "yes", 
		 "theory": "DFT", 
		 "functional": "B3LYP", 
		 "basiset": "6-31G**", 
		 "properties": { 
			 "R2extent": 3403.0281, 
			 "electric_dipole_moment_norm": 1.31896032541, 
			 "electric_quadrupole_moment_norm": 12.5274119542, 
			 "total_energy": -973.857736551, 
			 "HOMO_LUMO_gap": 0.18721, 
			 "cosmo_polarized_energy": -11.97, 
			 "cosmo_cavitation_energy": 29.53, 
			 "cosmo_dispersion_energy": -21.67, 
			 "cosmo_repulsion_energy": 1.65, 
			 "cosmo_total_nonelectrostatic_energy": 9.51, 
			 "SMD_solvation_energy": 5.43 
		},
		"coords": [
			{
				"x": -1.7653634867,
				"y": 0.1264533328,
				"z": -1.6939079268,
				"element": "C" 
			},
			{
				"x": -0.8803248688,
				"y": 0.2810597189,
				"z": -0.489289237,
				"element": "C" 
			},
			{
				"x": -0.5375056594,
				"y": -0.7194034547,
				"z": 0.3724899833,
				"element": "C" 
			},
			{
				"x": -0.9365246167,
				"y": -2.1658056248,
				"z": 0.3318091501,
				"element": "C" 
			},
			{
				"x": -0.1971910862,
				"y": -2.9840995249,
				"z": -0.7216766673,
				"element": "C" 
			},
			{
				"x": -0.1646466308,
				"y": -4.2941323709,
				"z": -0.3769876944,
				"element": "O" 
			},
			{
				"x": 0.269157832,
				"y": -2.5644384402,
				"z": -1.7547049708,
				"element": "O" 
			},
			{
				"x": 0.547016423,
				"y": -0.1812563829,
				"z": 1.6570196705,
				"element": "S" 
			},
			{
				"x": 0.5408649193,
				"y": 1.4542809792,
				"z": 1.0267255123,
				"element": "C" 
			},
			{
				"x": -0.2703111185,
				"y": 1.5455026454,
				"z": -0.1298054564,
				"element": "C" 
			},
			{
				"x": -0.3888123115,
				"y": 2.7920969935,
				"z": -0.7718387069,
				"element": "C" 
			},
			{
				"x": 0.281143083,
				"y": 3.8968580305,
				"z": -0.2620271435,
				"element": "C" 
			},
			{
				"x": 1.0788982692,
				"y": 3.7848425319,
				"z": 0.8903076563,
				"element": "C" 
			},
			{
				"x": 1.2152052588,
				"y": 2.5643012233,
				"z": 1.5439453231,
				"element": "C" 
			},
			{
				"x": -2.5598976175,
				"y": 0.8816085692,
				"z": -1.6990912645,
				"element": "H" 
			},
			{
				"x": -2.2341796472,
				"y": -0.8586826935,
				"z": -1.7353305421,
				"element": "H" 
			},
			{
				"x": -1.188709626,
				"y": 0.2457286885,
				"z": -2.6181254884,
				"element": "H" 
			},
			{
				"x": -2.004659307,
				"y": -2.2580987691,
				"z": 0.0929216152,
				"element": "H" 
			},
			{
				"x": -0.8065595947,
				"y": -2.6493764109,
				"z": 1.3035771247,
				"element": "H" 
			},
			{
				"x": 0.2785997602,
				"y": -4.7559734923,
				"z": -1.1088370203,
				"element": "H" 
			},
			{
				"x": -1.0001343962,
				"y": 2.8865330865,
				"z": -1.664606311,
				"element": "H" 
			},
			{
				"x": 0.1898766711,
				"y": 4.8583929606,
				"z": -0.7586246361,
				"element": "H" 
			},
			{
				"x": 1.5958257176,
				"y": 4.6589788532,
				"z": 1.2751209604,
				"element": "H" 
			},
			{
				"x": 1.8322320331,
				"y": 2.4766295507,
				"z": 2.4330360698,
				"element": "H" 
			}
		],
		 "valence_orbital": [ 
			{
				"type": "occ",
				"energy": -0.3189,
				"method": "rhf"
			},
			{
				"type": "occ",
				"energy": -0.28163,
				"method": "rhf"
			},
			{
				"type": "occ",
				"energy": -0.27266,
				"method": "rhf"
			},
			{
				"type": "occ",
				"energy": -0.22955,
				"method": "rhf"
			},
			{
				"type": "occ",
				"energy": -0.20997,
				"method": "rhf"
			},
			{
				"type": "unocc",
				"energy": -0.02276,
				"method": "rhf"
			},
			{
				"type": "unocc",
				"energy": 0.00102,
				"method": "rhf"
			},
			{
				"type": "unocc",
				"energy": 0.00504,
				"method": "rhf"
			},
			{
				"type": "unocc",
				"energy": 0.01898,
				"method": "rhf"
			},
			{
				"type": "unocc",
				"energy": 0.05008,
				"method": "rhf"
			}
		],
		"cosmo_sigma_profile": { 
			"-0.025": 0.0,
			"-0.024": 0.0,
			"-0.023": 0.0,
			"-0.022": 0.0,
			"-0.021": 0.0,
			"-0.02": 0.0,
			"-0.019": 0.0905825211279,
			"-0.018": 0.728259458839,
			"-0.017": 0.907948593506,
			"-0.016": 1.12791504734,
			"-0.015": 0.58504413793,
			"-0.014": 0.863003252706,
			"-0.013": 0.394692561549,
			"-0.012": 0.400690511828,
			"-0.011": 1.14282682094,
			"-0.01": 0.591180799662,
			"-0.009": 1.23544414388,
			"-0.008": 3.4666839289,
			"-0.007": 6.14590348558,
			"-0.006": 11.8715583784,
			"-0.005": 14.5846837482,
			"-0.004": 21.1978306231,
			"-0.003": 17.2264794787,
			"-0.002": 14.955491888,
			"-0.001": 16.0956775845,
			"0.0": 14.2609460597,
			"0.001": 13.2376901812,
			"0.002": 11.7300396997,
			"0.003": 18.329179114,
			"0.004": 19.6572713215,
			"0.005": 17.3045295442,
			"0.006": 8.9286262306,
			"0.007": 3.0163221884,
			"0.008": 3.51581181564,
			"0.009": 3.53712759871,
			"0.01": 3.0238142651,
			"0.011": 4.25437575799,
			"0.012": 2.81998210264,
			"0.013": 0.011513295886,
			"0.014": 0.0,
			"0.015": 0.0,
			"0.016": 0.0,
			"0.017": 0.0,
			"0.018": 0.0,
			"0.019": 0.0,
			"0.02": 0.0,
			"0.021": 0.0,
			"0.022": 0.0,
			"0.023": 0.0,
			"0.024": 0.0,
			"0.025": 0.0
		}
	}
}
