{
	 "smiles": "CCOC(=O)C1=C(O)N=C(O)C=C1C", 
	 "Tm": 492.15, 
	 "num_atms": 25, 
	 "gaussian": { 
		 "optdone": 1, 
		 "sigma_profile": "yes", 
		 "theory": "DFT", 
		 "functional": "B3LYP", 
		 "basiset": "6-31G**", 
		 "properties": { 
			 "R2extent": 3323.0822, 
			 "electric_dipole_moment_norm": 3.85341619475, 
			 "electric_quadrupole_moment_norm": 9.34113054774, 
			 "total_energy": -705.278210072, 
			 "HOMO_LUMO_gap": 0.18251, 
			 "cosmo_polarized_energy": -11.35, 
			 "cosmo_cavitation_energy": 28.79, 
			 "cosmo_dispersion_energy": -21.29, 
			 "cosmo_repulsion_energy": 1.67, 
			 "cosmo_total_nonelectrostatic_energy": 9.17, 
			 "SMD_solvation_energy": 5.42 
		},
		"coords": [
			{
				"x": 3.3204675425,
				"y": -1.1150975425,
				"z": -2.9089150137,
				"element": "C" 
			},
			{
				"x": 3.1617092696,
				"y": -0.6974955523,
				"z": -1.4596773242,
				"element": "C" 
			},
			{
				"x": 1.7434312389,
				"y": -0.7053125197,
				"z": -1.1587414781,
				"element": "O" 
			},
			{
				"x": 1.4021626696,
				"y": -0.3596084026,
				"z": 0.0930775942,
				"element": "C" 
			},
			{
				"x": 2.2742921126,
				"y": -0.0564079404,
				"z": 0.919618529,
				"element": "O" 
			},
			{
				"x": -0.0328485638,
				"y": -0.3688684772,
				"z": 0.3948718358,
				"element": "C" 
			},
			{
				"x": -0.4159350127,
				"y": -0.0025283489,
				"z": 1.7279021891,
				"element": "C" 
			},
			{
				"x": 0.4753780619,
				"y": 0.3310601554,
				"z": 2.6526582983,
				"element": "O" 
			},
			{
				"x": -1.6855597269,
				"y": 0.0324969388,
				"z": 2.1416599261,
				"element": "N" 
			},
			{
				"x": -2.6270826147,
				"y": -0.2893805396,
				"z": 1.2675428583,
				"element": "C" 
			},
			{
				"x": -3.9012550503,
				"y": -0.2494450933,
				"z": 1.699033153,
				"element": "O" 
			},
			{
				"x": -2.3855639278,
				"y": -0.6645973108,
				"z": -0.062512382,
				"element": "C" 
			},
			{
				"x": -1.075812273,
				"y": -0.7087920504,
				"z": -0.5170876451,
				"element": "C" 
			},
			{
				"x": -0.8451972911,
				"y": -1.1153847472,
				"z": -1.9526829782,
				"element": "C" 
			},
			{
				"x": 4.3820376012,
				"y": -1.1212610159,
				"z": -3.1745862006,
				"element": "H" 
			},
			{
				"x": 2.8041155656,
				"y": -0.4205773065,
				"z": -3.5777486952,
				"element": "H" 
			},
			{
				"x": 2.9198913891,
				"y": -2.1191263954,
				"z": -3.0755759381,
				"element": "H" 
			},
			{
				"x": 3.5542753438,
				"y": 0.3064476975,
				"z": -1.2736734801,
				"element": "H" 
			},
			{
				"x": 3.6695059658,
				"y": -1.3824033648,
				"z": -0.7743764332,
				"element": "H" 
			},
			{
				"x": 1.370709078,
				"y": 0.2655501806,
				"z": 2.2221763648,
				"element": "H" 
			},
			{
				"x": -3.8593660112,
				"y": 0.0274214851,
				"z": 2.6292047152,
				"element": "H" 
			},
			{
				"x": -3.2190301052,
				"y": -0.9118134942,
				"z": -0.7085187004,
				"element": "H" 
			},
			{
				"x": -1.8009383117,
				"y": -1.3232860312,
				"z": -2.4390098964,
				"element": "H" 
			},
			{
				"x": -0.216082742,
				"y": -2.0065856538,
				"z": -2.0190010049,
				"element": "H" 
			},
			{
				"x": -0.3297042082,
				"y": -0.3306046709,
				"z": -2.5119382939,
				"element": "H" 
			}
		],
		 "valence_orbital": [ 
			{
				"type": "occ",
				"energy": -0.31347,
				"method": "rhf"
			},
			{
				"type": "occ",
				"energy": -0.29029,
				"method": "rhf"
			},
			{
				"type": "occ",
				"energy": -0.27975,
				"method": "rhf"
			},
			{
				"type": "occ",
				"energy": -0.27227,
				"method": "rhf"
			},
			{
				"type": "occ",
				"energy": -0.22865,
				"method": "rhf"
			},
			{
				"type": "unocc",
				"energy": -0.04614,
				"method": "rhf"
			},
			{
				"type": "unocc",
				"energy": -0.00449,
				"method": "rhf"
			},
			{
				"type": "unocc",
				"energy": 0.05177,
				"method": "rhf"
			},
			{
				"type": "unocc",
				"energy": 0.08476,
				"method": "rhf"
			},
			{
				"type": "unocc",
				"energy": 0.08933,
				"method": "rhf"
			}
		],
		"cosmo_sigma_profile": { 
			"-0.025": 0.0,
			"-0.024": 0.0,
			"-0.023": 0.0,
			"-0.022": 0.0,
			"-0.021": 0.0,
			"-0.02": 0.0,
			"-0.019": 0.0,
			"-0.018": 0.213134852378,
			"-0.017": 0.740025733053,
			"-0.016": 0.915524657086,
			"-0.015": 0.617180376174,
			"-0.014": 0.365976649967,
			"-0.013": 0.577766359879,
			"-0.012": 0.669278930873,
			"-0.011": 0.971516897894,
			"-0.01": 0.904842896302,
			"-0.009": 0.43461355506,
			"-0.008": 0.240201577678,
			"-0.007": 1.99663922334,
			"-0.006": 5.60975993117,
			"-0.005": 11.8570422428,
			"-0.004": 20.1343147207,
			"-0.003": 23.2232514271,
			"-0.002": 24.6641502218,
			"-0.001": 26.5370376173,
			"0.0": 26.3617398978,
			"0.001": 17.0147002462,
			"0.002": 12.6603383369,
			"0.003": 8.2315706372,
			"0.004": 4.52191922772,
			"0.005": 5.5367169122,
			"0.006": 4.65263107096,
			"0.007": 3.29832798222,
			"0.008": 5.07729422035,
			"0.009": 4.80559000037,
			"0.01": 5.65329727544,
			"0.011": 3.94693118495,
			"0.012": 2.69266954062,
			"0.013": 1.99145336904,
			"0.014": 0.885010427896,
			"0.015": 0.018604631513,
			"0.016": 0.0,
			"0.017": 0.0,
			"0.018": 0.0,
			"0.019": 0.0,
			"0.02": 0.0,
			"0.021": 0.0,
			"0.022": 0.0,
			"0.023": 0.0,
			"0.024": 0.0,
			"0.025": 0.0
		}
	}
}
