{
	 "smiles": "OC1=CC=C2C3=C4C=C(O)C(=O)C=C4CC3(O)COC2=C1O", 
	 "Tm": 453.15, 
	 "num_atms": 34, 
	 "gaussian": { 
		 "optdone": 1, 
		 "sigma_profile": "yes", 
		 "theory": "DFT", 
		 "functional": "B3LYP", 
		 "basiset": "6-31G**", 
		 "properties": { 
			 "R2extent": 7367.5971, 
			 "electric_dipole_moment_norm": 6.60342940978, 
			 "electric_quadrupole_moment_norm": 31.1881652976, 
			 "total_energy": -1068.23172732, 
			 "HOMO_LUMO_gap": 0.11334, 
			 "cosmo_polarized_energy": -28.08, 
			 "cosmo_cavitation_energy": 37.22, 
			 "cosmo_dispersion_energy": -27.6, 
			 "cosmo_repulsion_energy": 2.06, 
			 "cosmo_total_nonelectrostatic_energy": 11.67, 
			 "SMD_solvation_energy": 7.38 
		},
		"coords": [
			{
				"x": 3.6845056554,
				"y": 3.277900815,
				"z": -1.6078328071,
				"element": "O" 
			},
			{
				"x": 2.6623049415,
				"y": 2.4843633564,
				"z": -1.2039787479,
				"element": "C" 
			},
			{
				"x": 1.4816942338,
				"y": 2.4184175809,
				"z": -1.9548298962,
				"element": "C" 
			},
			{
				"x": 0.4421808095,
				"y": 1.5961768246,
				"z": -1.5453829236,
				"element": "C" 
			},
			{
				"x": 0.5302817409,
				"y": 0.8089024766,
				"z": -0.3746018604,
				"element": "C" 
			},
			{
				"x": -0.4925486641,
				"y": -0.080370591,
				"z": 0.1360866931,
				"element": "C" 
			},
			{
				"x": -1.5744134252,
				"y": -0.7051146924,
				"z": -0.4396302813,
				"element": "C" 
			},
			{
				"x": -2.1128277007,
				"y": -0.6448193823,
				"z": -1.7735168534,
				"element": "C" 
			},
			{
				"x": -3.227342494,
				"y": -1.3599180807,
				"z": -2.0881121713,
				"element": "C" 
			},
			{
				"x": -3.8112960582,
				"y": -1.3712814432,
				"z": -3.3063238363,
				"element": "O" 
			},
			{
				"x": -3.9252860157,
				"y": -2.2384913605,
				"z": -1.0913584573,
				"element": "C" 
			},
			{
				"x": -4.9379673769,
				"y": -2.861765574,
				"z": -1.4000987761,
				"element": "O" 
			},
			{
				"x": -3.3057187648,
				"y": -2.3151745223,
				"z": 0.2338972499,
				"element": "C" 
			},
			{
				"x": -2.1997963061,
				"y": -1.5961999389,
				"z": 0.5315091171,
				"element": "C" 
			},
			{
				"x": -1.3890979387,
				"y": -1.5992023676,
				"z": 1.8074233646,
				"element": "C" 
			},
			{
				"x": -0.3629124848,
				"y": -0.4695562223,
				"z": 1.6078881151,
				"element": "C" 
			},
			{
				"x": -0.7377776085,
				"y": 0.6049107798,
				"z": 2.4745920981,
				"element": "O" 
			},
			{
				"x": 1.0890373335,
				"y": -0.8576432451,
				"z": 1.8759270458,
				"element": "C" 
			},
			{
				"x": 1.9562552034,
				"y": 0.2515775508,
				"z": 1.5650033057,
				"element": "O" 
			},
			{
				"x": 1.7266604783,
				"y": 0.9109102676,
				"z": 0.3794183375,
				"element": "C" 
			},
			{
				"x": 2.7768599747,
				"y": 1.7288373623,
				"z": -0.031624286,
				"element": "C" 
			},
			{
				"x": 3.9461037711,
				"y": 1.8295328155,
				"z": 0.6744669388,
				"element": "O" 
			},
			{
				"x": 4.4029152738,
				"y": 3.1904463556,
				"z": -0.9622800181,
				"element": "H" 
			},
			{
				"x": 1.400733149,
				"y": 3.0280475401,
				"z": -2.8478335582,
				"element": "H" 
			},
			{
				"x": -0.4790780206,
				"y": 1.5942644031,
				"z": -2.1137802446,
				"element": "H" 
			},
			{
				"x": -1.626366975,
				"y": -0.0411468623,
				"z": -2.5339999462,
				"element": "H" 
			},
			{
				"x": -3.3142944499,
				"y": -0.7935848022,
				"z": -3.9022092622,
				"element": "H" 
			},
			{
				"x": -3.7795574955,
				"y": -2.9851607815,
				"z": 0.9450313317,
				"element": "H" 
			},
			{
				"x": -0.9004974407,
				"y": -2.5718948064,
				"z": 1.9482286558,
				"element": "H" 
			},
			{
				"x": -1.9893047925,
				"y": -1.398995764,
				"z": 2.6985242794,
				"element": "H" 
			},
			{
				"x": -0.153518091,
				"y": 1.3544839294,
				"z": 2.2941324975,
				"element": "H" 
			},
			{
				"x": 1.257138239,
				"y": -1.0691495893,
				"z": 2.934205214,
				"element": "H" 
			},
			{
				"x": 1.3825776878,
				"y": -1.7268764112,
				"z": 1.2726036872,
				"element": "H" 
			},
			{
				"x": 3.8859536111,
				"y": 1.2246743796,
				"z": 1.4292559946,
				"element": "H" 
			}
		],
		 "valence_orbital": [ 
			{
				"type": "occ",
				"energy": -0.25994,
				"method": "rhf"
			},
			{
				"type": "occ",
				"energy": -0.24583,
				"method": "rhf"
			},
			{
				"type": "occ",
				"energy": -0.23491,
				"method": "rhf"
			},
			{
				"type": "occ",
				"energy": -0.23178,
				"method": "rhf"
			},
			{
				"type": "occ",
				"energy": -0.20253,
				"method": "rhf"
			},
			{
				"type": "unocc",
				"energy": -0.08919,
				"method": "rhf"
			},
			{
				"type": "unocc",
				"energy": -0.00775,
				"method": "rhf"
			},
			{
				"type": "unocc",
				"energy": -0.00085,
				"method": "rhf"
			},
			{
				"type": "unocc",
				"energy": 0.00814,
				"method": "rhf"
			},
			{
				"type": "unocc",
				"energy": 0.03993,
				"method": "rhf"
			}
		],
		"cosmo_sigma_profile": { 
			"-0.025": 0.0,
			"-0.024": 0.0,
			"-0.023": 0.0,
			"-0.022": 0.0,
			"-0.021": 0.0,
			"-0.02": 0.0,
			"-0.019": 0.0254139339754,
			"-0.018": 0.979529564561,
			"-0.017": 1.19768435814,
			"-0.016": 1.67454780767,
			"-0.015": 2.83106097019,
			"-0.014": 2.58881703801,
			"-0.013": 1.73118213112,
			"-0.012": 2.29956523368,
			"-0.011": 4.67909242295,
			"-0.01": 3.29594428953,
			"-0.009": 3.52645322647,
			"-0.008": 4.60006157615,
			"-0.007": 11.6514756556,
			"-0.006": 16.3050893251,
			"-0.005": 17.5838739275,
			"-0.004": 16.4981515139,
			"-0.003": 14.9692119932,
			"-0.002": 15.8766545327,
			"-0.001": 13.609120586,
			"0.0": 17.2986133062,
			"0.001": 24.6350516337,
			"0.002": 25.6211011392,
			"0.003": 21.7540587107,
			"0.004": 11.8023890547,
			"0.005": 6.78984240079,
			"0.006": 6.6195858453,
			"0.007": 6.5103718674,
			"0.008": 4.29277521355,
			"0.009": 5.19058115395,
			"0.01": 5.3051850382,
			"0.011": 5.01841322213,
			"0.012": 4.57856875158,
			"0.013": 6.29963558883,
			"0.014": 4.74250186082,
			"0.015": 2.49110266253,
			"0.016": 1.44404288289,
			"0.017": 0.259822436083,
			"0.018": 0.0,
			"0.019": 0.0,
			"0.02": 0.0,
			"0.021": 0.0,
			"0.022": 0.0,
			"0.023": 0.0,
			"0.024": 0.0,
			"0.025": 0.0
		}
	}
}
