{
	 "smiles": "OC(=O)CNC(=O)NCC1CCCC1", 
	 "Tm": 412.15, 
	 "num_atms": 30, 
	 "gaussian": { 
		 "optdone": 1, 
		 "sigma_profile": "yes", 
		 "theory": "DFT", 
		 "functional": "B3LYP", 
		 "basiset": "6-31G**", 
		 "properties": { 
			 "R2extent": 4559.0143, 
			 "electric_dipole_moment_norm": 1.45052191297, 
			 "electric_quadrupole_moment_norm": 22.3213854057, 
			 "total_energy": -687.817301837, 
			 "HOMO_LUMO_gap": 0.25652, 
			 "cosmo_polarized_energy": -19.43, 
			 "cosmo_cavitation_energy": 32.36, 
			 "cosmo_dispersion_energy": -22.69, 
			 "cosmo_repulsion_energy": 1.84, 
			 "cosmo_total_nonelectrostatic_energy": 11.51, 
			 "SMD_solvation_energy": 5.89 
		},
		"coords": [
			{
				"x": 1.5881482826,
				"y": -3.5965259108,
				"z": -1.3154819688,
				"element": "O" 
			},
			{
				"x": 1.165160614,
				"y": -3.301250062,
				"z": -2.5604280156,
				"element": "C" 
			},
			{
				"x": 1.9167445483,
				"y": -3.094780603,
				"z": -3.4798581599,
				"element": "O" 
			},
			{
				"x": -0.3658017126,
				"y": -3.2395284863,
				"z": -2.7100662516,
				"element": "C" 
			},
			{
				"x": -1.0703590956,
				"y": -3.3483376684,
				"z": -1.432889939,
				"element": "N" 
			},
			{
				"x": -1.5115214027,
				"y": -2.2190048416,
				"z": -0.7030489846,
				"element": "C" 
			},
			{
				"x": -2.5043820837,
				"y": -2.2887331636,
				"z": 0.0066962458,
				"element": "O" 
			},
			{
				"x": -0.7406138357,
				"y": -1.0950580225,
				"z": -0.8528576313,
				"element": "N" 
			},
			{
				"x": -0.9671936542,
				"y": 0.0685039725,
				"z": 0.0060041344,
				"element": "C" 
			},
			{
				"x": -0.2313032216,
				"y": -0.0005991793,
				"z": 1.3476655996,
				"element": "C" 
			},
			{
				"x": 1.3077349243,
				"y": -0.0596841896,
				"z": 1.2438994646,
				"element": "C" 
			},
			{
				"x": 1.8243813272,
				"y": 0.3726574526,
				"z": 2.6404437698,
				"element": "C" 
			},
			{
				"x": 0.6353416104,
				"y": 1.1127628245,
				"z": 3.3254348586,
				"element": "C" 
			},
			{
				"x": -0.4575512729,
				"y": 1.2308102417,
				"z": 2.2427012474,
				"element": "C" 
			},
			{
				"x": 0.7809623705,
				"y": -3.7570224557,
				"z": -0.7831319451,
				"element": "H" 
			},
			{
				"x": -0.6109560277,
				"y": -2.3172225358,
				"z": -3.2473178039,
				"element": "H" 
			},
			{
				"x": -0.6587767891,
				"y": -4.0725328526,
				"z": -3.3554216986,
				"element": "H" 
			},
			{
				"x": -1.7888653938,
				"y": -4.0603713487,
				"z": -1.3893356162,
				"element": "H" 
			},
			{
				"x": 0.1975981746,
				"y": -1.207024376,
				"z": -1.2104072611,
				"element": "H" 
			},
			{
				"x": -2.0452949326,
				"y": 0.1347097368,
				"z": 0.1667105897,
				"element": "H" 
			},
			{
				"x": -0.6517256422,
				"y": 0.960070009,
				"z": -0.5499080512,
				"element": "H" 
			},
			{
				"x": -0.590736969,
				"y": -0.8919989606,
				"z": 1.8807425448,
				"element": "H" 
			},
			{
				"x": 1.6428931602,
				"y": 0.6587048971,
				"z": 0.4823773391,
				"element": "H" 
			},
			{
				"x": 1.6831408254,
				"y": -1.0433200036,
				"z": 0.9421868165,
				"element": "H" 
			},
			{
				"x": 2.7081383525,
				"y": 1.011741162,
				"z": 2.5527651738,
				"element": "H" 
			},
			{
				"x": 2.127424567,
				"y": -0.4979790278,
				"z": 3.2304094394,
				"element": "H" 
			},
			{
				"x": 0.2589975073,
				"y": 0.520683184,
				"z": 4.1667414497,
				"element": "H" 
			},
			{
				"x": 0.9240068758,
				"y": 2.0872840759,
				"z": 3.7305413029,
				"element": "H" 
			},
			{
				"x": -0.3063818936,
				"y": 2.1428612031,
				"z": 1.6479942877,
				"element": "H" 
			},
			{
				"x": -1.4693092132,
				"y": 1.2790849288,
				"z": 2.658339063,
				"element": "H" 
			}
		],
		 "valence_orbital": [ 
			{
				"type": "occ",
				"energy": -0.31776,
				"method": "rhf"
			},
			{
				"type": "occ",
				"energy": -0.30272,
				"method": "rhf"
			},
			{
				"type": "occ",
				"energy": -0.28194,
				"method": "rhf"
			},
			{
				"type": "occ",
				"energy": -0.26427,
				"method": "rhf"
			},
			{
				"type": "occ",
				"energy": -0.2593,
				"method": "rhf"
			},
			{
				"type": "unocc",
				"energy": -0.00278,
				"method": "rhf"
			},
			{
				"type": "unocc",
				"energy": 0.03115,
				"method": "rhf"
			},
			{
				"type": "unocc",
				"energy": 0.05642,
				"method": "rhf"
			},
			{
				"type": "unocc",
				"energy": 0.07535,
				"method": "rhf"
			},
			{
				"type": "unocc",
				"energy": 0.09026,
				"method": "rhf"
			}
		],
		"cosmo_sigma_profile": { 
			"-0.025": 0.0,
			"-0.024": 0.0,
			"-0.023": 0.0,
			"-0.022": 0.0,
			"-0.021": 0.0,
			"-0.02": 0.0,
			"-0.019": 0.0,
			"-0.018": 0.0,
			"-0.017": 0.0,
			"-0.016": 0.0,
			"-0.015": 0.0149352889309,
			"-0.014": 1.34912347067,
			"-0.013": 2.41597199941,
			"-0.012": 3.17156134605,
			"-0.011": 2.21042686084,
			"-0.01": 4.70490128781,
			"-0.009": 7.7033329083,
			"-0.008": 5.81241393037,
			"-0.007": 6.78676446629,
			"-0.006": 7.31192853153,
			"-0.005": 7.00280804402,
			"-0.004": 9.77387792768,
			"-0.003": 14.6951760501,
			"-0.002": 28.6079807292,
			"-0.001": 33.1782558114,
			"0.0": 27.8520268499,
			"0.001": 17.9103072535,
			"0.002": 11.731334113,
			"0.003": 4.57084382368,
			"0.004": 3.72686461293,
			"0.005": 4.65462433967,
			"0.006": 4.13795127594,
			"0.007": 3.29072190209,
			"0.008": 4.22436131621,
			"0.009": 5.05470617687,
			"0.01": 5.30954136117,
			"0.011": 6.4152045281,
			"0.012": 7.16977807435,
			"0.013": 5.65045179353,
			"0.014": 5.00641599576,
			"0.015": 0.18320921666,
			"0.016": 0.0,
			"0.017": 0.0,
			"0.018": 0.0,
			"0.019": 0.0,
			"0.02": 0.0,
			"0.021": 0.0,
			"0.022": 0.0,
			"0.023": 0.0,
			"0.024": 0.0,
			"0.025": 0.0
		}
	}
}
