{
	 "smiles": "CC(=O)C1=CC=C(CCC2=CC=CC=C2)C=C1", 
	 "Tm": 342.15, 
	 "num_atms": 33, 
	 "gaussian": { 
		 "optdone": 1, 
		 "sigma_profile": "yes", 
		 "theory": "DFT", 
		 "functional": "B3LYP", 
		 "basiset": "6-31G**", 
		 "properties": { 
			 "R2extent": 5877.1051, 
			 "electric_dipole_moment_norm": 3.29316472865, 
			 "electric_quadrupole_moment_norm": 19.9759271119, 
			 "total_energy": -694.586933106, 
			 "HOMO_LUMO_gap": 0.18828, 
			 "cosmo_polarized_energy": -10.68, 
			 "cosmo_cavitation_energy": 36.61, 
			 "cosmo_dispersion_energy": -24.97, 
			 "cosmo_repulsion_energy": 1.95, 
			 "cosmo_total_nonelectrostatic_energy": 13.58, 
			 "SMD_solvation_energy": 6.39 
		},
		"coords": [
			{
				"x": 2.846118423,
				"y": 3.2053950648,
				"z": -0.5671838331,
				"element": "C" 
			},
			{
				"x": 3.0186956716,
				"y": 1.6994582582,
				"z": -0.4458185097,
				"element": "C" 
			},
			{
				"x": 4.0379920391,
				"y": 1.2314072468,
				"z": 0.0404629475,
				"element": "O" 
			},
			{
				"x": 1.9203910394,
				"y": 0.8045076421,
				"z": -0.93096799,
				"element": "C" 
			},
			{
				"x": 0.7324026951,
				"y": 1.2908754596,
				"z": -1.4975840058,
				"element": "C" 
			},
			{
				"x": -0.2530253577,
				"y": 0.4092699444,
				"z": -1.936009101,
				"element": "C" 
			},
			{
				"x": -0.0857798968,
				"y": -0.9786033215,
				"z": -1.822401588,
				"element": "C" 
			},
			{
				"x": -1.1745063801,
				"y": -1.9219981659,
				"z": -2.2815793192,
				"element": "C" 
			},
			{
				"x": -2.278671555,
				"y": -2.1810030851,
				"z": -1.2177356855,
				"element": "C" 
			},
			{
				"x": -1.8039101817,
				"y": -2.9549339698,
				"z": -0.0065472772,
				"element": "C" 
			},
			{
				"x": -1.6962705055,
				"y": -4.3526780298,
				"z": -0.0547397504,
				"element": "C" 
			},
			{
				"x": -1.2389310225,
				"y": -5.0764539543,
				"z": 1.0466539162,
				"element": "C" 
			},
			{
				"x": -0.881369595,
				"y": -4.4115145955,
				"z": 2.2216936272,
				"element": "C" 
			},
			{
				"x": -0.9855445598,
				"y": -3.0213366568,
				"z": 2.2844489846,
				"element": "C" 
			},
			{
				"x": -1.442410595,
				"y": -2.3014122828,
				"z": 1.1788729631,
				"element": "C" 
			},
			{
				"x": 1.1045544502,
				"y": -1.4591975574,
				"z": -1.2540911236,
				"element": "C" 
			},
			{
				"x": 2.0915669089,
				"y": -0.5837846591,
				"z": -0.8159434369,
				"element": "C" 
			},
			{
				"x": 2.7107827825,
				"y": 3.5030831846,
				"z": -1.6128909012,
				"element": "H" 
			},
			{
				"x": 1.9639857952,
				"y": 3.546830678,
				"z": -0.014297506,
				"element": "H" 
			},
			{
				"x": 3.735545855,
				"y": 3.6912203438,
				"z": -0.1651104625,
				"element": "H" 
			},
			{
				"x": 0.5725490468,
				"y": 2.3590486745,
				"z": -1.6056763864,
				"element": "H" 
			},
			{
				"x": -1.1643766188,
				"y": 0.8026326974,
				"z": -2.3804580271,
				"element": "H" 
			},
			{
				"x": -0.7342209258,
				"y": -2.8822697238,
				"z": -2.5727377581,
				"element": "H" 
			},
			{
				"x": -1.656613672,
				"y": -1.5091970412,
				"z": -3.1758379128,
				"element": "H" 
			},
			{
				"x": -3.0895374927,
				"y": -2.7337927607,
				"z": -1.7073812497,
				"element": "H" 
			},
			{
				"x": -2.6983575161,
				"y": -1.218551802,
				"z": -0.9035936948,
				"element": "H" 
			},
			{
				"x": -1.9810010851,
				"y": -4.8790787563,
				"z": -0.9633842624,
				"element": "H" 
			},
			{
				"x": -1.1676739467,
				"y": -6.1591875231,
				"z": 0.9899869338,
				"element": "H" 
			},
			{
				"x": -0.5282639975,
				"y": -4.9730938329,
				"z": 3.0818203933,
				"element": "H" 
			},
			{
				"x": -0.7118869434,
				"y": -2.4950339047,
				"z": 3.1946393252,
				"element": "H" 
			},
			{
				"x": -1.5197458465,
				"y": -1.2187518357,
				"z": 1.2353245804,
				"element": "H" 
			},
			{
				"x": 1.2524483955,
				"y": -2.5310618736,
				"z": -1.1563678137,
				"element": "H" 
			},
			{
				"x": 3.0140645913,
				"y": -0.9505938624,
				"z": -0.3782660764,
				"element": "H" 
			}
		],
		 "valence_orbital": [ 
			{
				"type": "occ",
				"energy": -0.25702,
				"method": "rhf"
			},
			{
				"type": "occ",
				"energy": -0.25048,
				"method": "rhf"
			},
			{
				"type": "occ",
				"energy": -0.246,
				"method": "rhf"
			},
			{
				"type": "occ",
				"energy": -0.24316,
				"method": "rhf"
			},
			{
				"type": "occ",
				"energy": -0.23886,
				"method": "rhf"
			},
			{
				"type": "unocc",
				"energy": -0.05058,
				"method": "rhf"
			},
			{
				"type": "unocc",
				"energy": -0.00772,
				"method": "rhf"
			},
			{
				"type": "unocc",
				"energy": 0.00011,
				"method": "rhf"
			},
			{
				"type": "unocc",
				"energy": 0.00152,
				"method": "rhf"
			},
			{
				"type": "unocc",
				"energy": 0.04154,
				"method": "rhf"
			}
		],
		"cosmo_sigma_profile": { 
			"-0.025": 0.0,
			"-0.024": 0.0,
			"-0.023": 0.0,
			"-0.022": 0.0,
			"-0.021": 0.0,
			"-0.02": 0.0,
			"-0.019": 0.0,
			"-0.018": 0.0,
			"-0.017": 0.0,
			"-0.016": 0.0,
			"-0.015": 0.0,
			"-0.014": 0.0,
			"-0.013": 0.0,
			"-0.012": 0.0,
			"-0.011": 0.0,
			"-0.01": 0.0,
			"-0.009": 0.0,
			"-0.008": 0.0,
			"-0.007": 0.391913927931,
			"-0.006": 10.0469917392,
			"-0.005": 23.2754405002,
			"-0.004": 32.063720243,
			"-0.003": 37.245490436,
			"-0.002": 26.829251875,
			"-0.001": 26.7654753273,
			"0.0": 21.3955726365,
			"0.001": 15.5010940331,
			"0.002": 16.1310016849,
			"0.003": 17.1952718581,
			"0.004": 20.270834382,
			"0.005": 14.5085734189,
			"0.006": 10.3527404224,
			"0.007": 4.11329613537,
			"0.008": 0.948078859919,
			"0.009": 1.98346584435,
			"0.01": 1.90503242251,
			"0.011": 2.54864958282,
			"0.012": 4.34017338898,
			"0.013": 2.02157718959,
			"0.014": 0.41067285677,
			"0.015": 0.0,
			"0.016": 0.0,
			"0.017": 0.0,
			"0.018": 0.0,
			"0.019": 0.0,
			"0.02": 0.0,
			"0.021": 0.0,
			"0.022": 0.0,
			"0.023": 0.0,
			"0.024": 0.0,
			"0.025": 0.0
		}
	}
}
