{
	 "smiles": "ClCC1=C(Cl)C=C(Cl)C=C1", 
	 "Tm": 270.35, 
	 "num_atms": 15, 
	 "gaussian": { 
		 "optdone": 1, 
		 "sigma_profile": "yes", 
		 "theory": "DFT", 
		 "functional": "B3LYP", 
		 "basiset": "6-31G**", 
		 "properties": { 
			 "R2extent": 3882.0998, 
			 "electric_dipole_moment_norm": 2.32092226065, 
			 "electric_quadrupole_moment_norm": 4.57946067567, 
			 "total_energy": -1650.3396654, 
			 "HOMO_LUMO_gap": 0.21009, 
			 "cosmo_polarized_energy": -6.53, 
			 "cosmo_cavitation_energy": 24.53, 
			 "cosmo_dispersion_energy": -18.24, 
			 "cosmo_repulsion_energy": 1.49, 
			 "cosmo_total_nonelectrostatic_energy": 7.78, 
			 "SMD_solvation_energy": 3.28 
		},
		"coords": [
			{
				"x": -0.9582200142,
				"y": 1.6516046571,
				"z": 0.736910507,
				"element": "Cl" 
			},
			{
				"x": -0.8401512563,
				"y": 0.0216020002,
				"z": -0.09309142,
				"element": "C" 
			},
			{
				"x": 0.4888006309,
				"y": -0.1829227289,
				"z": -0.7532113332,
				"element": "C" 
			},
			{
				"x": 0.7580954124,
				"y": 0.2259443468,
				"z": -2.0692163715,
				"element": "C" 
			},
			{
				"x": -0.4796874458,
				"y": 1.0183372595,
				"z": -3.0294653798,
				"element": "Cl" 
			},
			{
				"x": 2.0018268063,
				"y": 0.019554976,
				"z": -2.6650239811,
				"element": "C" 
			},
			{
				"x": 3.0036869247,
				"y": -0.605940235,
				"z": -1.9260288186,
				"element": "C" 
			},
			{
				"x": 4.5699475646,
				"y": -0.8702920929,
				"z": -2.6669333655,
				"element": "Cl" 
			},
			{
				"x": 2.7803701919,
				"y": -1.0250016607,
				"z": -0.6150312498,
				"element": "C" 
			},
			{
				"x": 1.528074767,
				"y": -0.8074819467,
				"z": -0.0488312556,
				"element": "C" 
			},
			{
				"x": -1.6640579374,
				"y": -0.0059086317,
				"z": -0.8036850505,
				"element": "H" 
			},
			{
				"x": -1.0056893169,
				"y": -0.7174443449,
				"z": 0.6901806892,
				"element": "H" 
			},
			{
				"x": 2.1822901367,
				"y": 0.3411047163,
				"z": -3.6831285656,
				"element": "H" 
			},
			{
				"x": 3.5697581048,
				"y": -1.5108380682,
				"z": -0.0535058038,
				"element": "H" 
			},
			{
				"x": 1.3459554313,
				"y": -1.1271182469,
				"z": 0.973361399,
				"element": "H" 
			}
		],
		 "valence_orbital": [ 
			{
				"type": "occ",
				"energy": -0.32492,
				"method": "rhf"
			},
			{
				"type": "occ",
				"energy": -0.30251,
				"method": "rhf"
			},
			{
				"type": "occ",
				"energy": -0.29894,
				"method": "rhf"
			},
			{
				"type": "occ",
				"energy": -0.2729,
				"method": "rhf"
			},
			{
				"type": "occ",
				"energy": -0.25931,
				"method": "rhf"
			},
			{
				"type": "unocc",
				"energy": -0.04922,
				"method": "rhf"
			},
			{
				"type": "unocc",
				"energy": -0.03462,
				"method": "rhf"
			},
			{
				"type": "unocc",
				"energy": -0.00145,
				"method": "rhf"
			},
			{
				"type": "unocc",
				"energy": 0.03006,
				"method": "rhf"
			},
			{
				"type": "unocc",
				"energy": 0.04208,
				"method": "rhf"
			}
		],
		"cosmo_sigma_profile": { 
			"-0.025": 0.0,
			"-0.024": 0.0,
			"-0.023": 0.0,
			"-0.022": 0.0,
			"-0.021": 0.0,
			"-0.02": 0.0,
			"-0.019": 0.0,
			"-0.018": 0.0,
			"-0.017": 0.0,
			"-0.016": 0.0,
			"-0.015": 0.0,
			"-0.014": 0.0,
			"-0.013": 0.0,
			"-0.012": 0.0,
			"-0.011": 0.0,
			"-0.01": 0.0,
			"-0.009": 2.13507385312,
			"-0.008": 7.59893897927,
			"-0.007": 9.53523779792,
			"-0.006": 8.09635443886,
			"-0.005": 8.64273131508,
			"-0.004": 8.44610729786,
			"-0.003": 8.47978664466,
			"-0.002": 10.4207033841,
			"-0.001": 12.9645212337,
			"0.0": 19.4325045543,
			"0.001": 26.6081559115,
			"0.002": 20.8307725356,
			"0.003": 18.6878349492,
			"0.004": 20.4257820709,
			"0.005": 8.03791314506,
			"0.006": 10.2509141852,
			"0.007": 3.00181691149,
			"0.008": 0.0,
			"0.009": 0.0,
			"0.01": 0.0,
			"0.011": 0.0,
			"0.012": 0.0,
			"0.013": 0.0,
			"0.014": 0.0,
			"0.015": 0.0,
			"0.016": 0.0,
			"0.017": 0.0,
			"0.018": 0.0,
			"0.019": 0.0,
			"0.02": 0.0,
			"0.021": 0.0,
			"0.022": 0.0,
			"0.023": 0.0,
			"0.024": 0.0,
			"0.025": 0.0
		}
	}
}
