{
	 "smiles": "ClC1=C(Cl)C2=C(C=C1)C(=O)CCCO2", 
	 "Tm": 377.15, 
	 "num_atms": 22, 
	 "gaussian": { 
		 "optdone": 1, 
		 "sigma_profile": "yes", 
		 "theory": "DFT", 
		 "functional": "B3LYP", 
		 "basiset": "6-31G**", 
		 "properties": { 
			 "R2extent": 4008.8006, 
			 "electric_dipole_moment_norm": 3.05448204938, 
			 "electric_quadrupole_moment_norm": 14.5483105146, 
			 "total_energy": -1456.69868702, 
			 "HOMO_LUMO_gap": 0.17543, 
			 "cosmo_polarized_energy": -9.61, 
			 "cosmo_cavitation_energy": 28.49, 
			 "cosmo_dispersion_energy": -21.6, 
			 "cosmo_repulsion_energy": 1.7, 
			 "cosmo_total_nonelectrostatic_energy": 8.59, 
			 "SMD_solvation_energy": 4.72 
		},
		"coords": [
			{
				"x": -4.0201690858,
				"y": 0.968613791,
				"z": -2.0885446931,
				"element": "Cl" 
			},
			{
				"x": -2.725551832,
				"y": 0.1251633751,
				"z": -1.2807810617,
				"element": "C" 
			},
			{
				"x": -1.5348772041,
				"y": 0.7719980741,
				"z": -0.9555218086,
				"element": "C" 
			},
			{
				"x": -1.2819196061,
				"y": 2.4447173287,
				"z": -1.3696529592,
				"element": "Cl" 
			},
			{
				"x": -0.4908488679,
				"y": 0.0729221963,
				"z": -0.2907176145,
				"element": "C" 
			},
			{
				"x": -0.6778388833,
				"y": -1.2859955792,
				"z": 0.0579507535,
				"element": "C" 
			},
			{
				"x": -1.8866744494,
				"y": -1.9050454139,
				"z": -0.3273892824,
				"element": "C" 
			},
			{
				"x": -2.9017998492,
				"y": -1.2285091663,
				"z": -0.9717332077,
				"element": "C" 
			},
			{
				"x": 0.2547699502,
				"y": -2.2054756601,
				"z": 0.8059793943,
				"element": "C" 
			},
			{
				"x": 0.1251285465,
				"y": -3.4138027414,
				"z": 0.6711551239,
				"element": "O" 
			},
			{
				"x": 1.2824991329,
				"y": -1.7241907221,
				"z": 1.8291763069,
				"element": "C" 
			},
			{
				"x": 1.7067206885,
				"y": -0.2560213701,
				"z": 1.8070434785,
				"element": "C" 
			},
			{
				"x": 1.8377135037,
				"y": 0.2824626015,
				"z": 0.3880526042,
				"element": "C" 
			},
			{
				"x": 0.6086792274,
				"y": 0.8296799615,
				"z": -0.0939889081,
				"element": "O" 
			},
			{
				"x": -1.9982131656,
				"y": -2.9542605955,
				"z": -0.0807394695,
				"element": "H" 
			},
			{
				"x": -3.8293642221,
				"y": -1.7223955462,
				"z": -1.23526883,
				"element": "H" 
			},
			{
				"x": 2.1501275849,
				"y": -2.378573221,
				"z": 1.6930311185,
				"element": "H" 
			},
			{
				"x": 0.8675050531,
				"y": -1.9911629737,
				"z": 2.8095478215,
				"element": "H" 
			},
			{
				"x": 2.6671728801,
				"y": -0.156405203,
				"z": 2.3244904815,
				"element": "H" 
			},
			{
				"x": 0.9981606595,
				"y": 0.3842038192,
				"z": 2.3441907069,
				"element": "H" 
			},
			{
				"x": 2.5283546139,
				"y": 1.1266451747,
				"z": 0.3380672546,
				"element": "H" 
			},
			{
				"x": 2.193125325,
				"y": -0.4932681295,
				"z": -0.3061472095,
				"element": "H" 
			}
		],
		 "valence_orbital": [ 
			{
				"type": "occ",
				"energy": -0.31939,
				"method": "rhf"
			},
			{
				"type": "occ",
				"energy": -0.30504,
				"method": "rhf"
			},
			{
				"type": "occ",
				"energy": -0.26051,
				"method": "rhf"
			},
			{
				"type": "occ",
				"energy": -0.25223,
				"method": "rhf"
			},
			{
				"type": "occ",
				"energy": -0.24004,
				"method": "rhf"
			},
			{
				"type": "unocc",
				"energy": -0.06461,
				"method": "rhf"
			},
			{
				"type": "unocc",
				"energy": -0.01818,
				"method": "rhf"
			},
			{
				"type": "unocc",
				"energy": 0.00072,
				"method": "rhf"
			},
			{
				"type": "unocc",
				"energy": 0.01564,
				"method": "rhf"
			},
			{
				"type": "unocc",
				"energy": 0.06265,
				"method": "rhf"
			}
		],
		"cosmo_sigma_profile": { 
			"-0.025": 0.0,
			"-0.024": 0.0,
			"-0.023": 0.0,
			"-0.022": 0.0,
			"-0.021": 0.0,
			"-0.02": 0.0,
			"-0.019": 0.0,
			"-0.018": 0.0,
			"-0.017": 0.0,
			"-0.016": 0.0,
			"-0.015": 0.0,
			"-0.014": 0.0,
			"-0.013": 0.0,
			"-0.012": 0.0,
			"-0.011": 0.0,
			"-0.01": 0.0,
			"-0.009": 0.0,
			"-0.008": 1.35775601248,
			"-0.007": 6.56189397679,
			"-0.006": 14.150046495,
			"-0.005": 20.9574757347,
			"-0.004": 18.2606243583,
			"-0.003": 16.4070014915,
			"-0.002": 15.7233308292,
			"-0.001": 16.0952208746,
			"0.0": 23.2272508879,
			"0.001": 17.4002946511,
			"0.002": 17.4802076526,
			"0.003": 15.9270946172,
			"0.004": 16.7517523434,
			"0.005": 8.52583317439,
			"0.006": 3.93357092612,
			"0.007": 2.70257694011,
			"0.008": 2.81214128329,
			"0.009": 3.44485132506,
			"0.01": 2.05573792326,
			"0.011": 3.09882743891,
			"0.012": 3.62393969416,
			"0.013": 1.05446566817,
			"0.014": 0.0158453205598,
			"0.015": 0.0,
			"0.016": 0.0,
			"0.017": 0.0,
			"0.018": 0.0,
			"0.019": 0.0,
			"0.02": 0.0,
			"0.021": 0.0,
			"0.022": 0.0,
			"0.023": 0.0,
			"0.024": 0.0,
			"0.025": 0.0
		}
	}
}
