{
	 "smiles": "CC1=C(C=C(N)C=C1)S(=O)(=O)N1CCCCC1", 
	 "Tm": 379.15, 
	 "num_atms": 35, 
	 "gaussian": { 
		 "optdone": 1, 
		 "sigma_profile": "yes", 
		 "theory": "DFT", 
		 "functional": "B3LYP", 
		 "basiset": "6-31G**", 
		 "properties": { 
			 "R2extent": 5026.1028, 
			 "electric_dipole_moment_norm": 5.57571032067, 
			 "electric_quadrupole_moment_norm": 15.0646068117, 
			 "total_energy": -1126.20987928, 
			 "HOMO_LUMO_gap": 0.18672, 
			 "cosmo_polarized_energy": -17.32, 
			 "cosmo_cavitation_energy": 36.77, 
			 "cosmo_dispersion_energy": -26.38, 
			 "cosmo_repulsion_energy": 2.0, 
			 "cosmo_total_nonelectrostatic_energy": 12.38, 
			 "SMD_solvation_energy": 4.72 
		},
		"coords": [
			{
				"x": 1.91164145,
				"y": 2.1007783434,
				"z": -2.899212725,
				"element": "C" 
			},
			{
				"x": 2.0973810092,
				"y": 1.4674106347,
				"z": -1.5400463104,
				"element": "C" 
			},
			{
				"x": 1.2723085162,
				"y": 0.4453752077,
				"z": -1.0278674709,
				"element": "C" 
			},
			{
				"x": 1.4893257673,
				"y": -0.135448484,
				"z": 0.2202660146,
				"element": "C" 
			},
			{
				"x": 2.5464944736,
				"y": 0.3014564458,
				"z": 1.0344988125,
				"element": "C" 
			},
			{
				"x": 2.7994786594,
				"y": -0.3134385862,
				"z": 2.2618613139,
				"element": "N" 
			},
			{
				"x": 3.372445294,
				"y": 1.3250325127,
				"z": 0.549156585,
				"element": "C" 
			},
			{
				"x": 3.1452499441,
				"y": 1.8790112137,
				"z": -0.7073282981,
				"element": "C" 
			},
			{
				"x": -0.0797682278,
				"y": -0.1592611432,
				"z": -2.0627546302,
				"element": "S" 
			},
			{
				"x": -0.9020303012,
				"y": 0.9989113922,
				"z": -2.4465242821,
				"element": "O" 
			},
			{
				"x": 0.4828129423,
				"y": -1.0259025446,
				"z": -3.1073786557,
				"element": "O" 
			},
			{
				"x": -0.9685134277,
				"y": -1.1572260969,
				"z": -1.0099443913,
				"element": "N" 
			},
			{
				"x": -2.0323653344,
				"y": -0.4592722378,
				"z": -0.2577443328,
				"element": "C" 
			},
			{
				"x": -2.5106129934,
				"y": -1.3451144128,
				"z": 0.897532084,
				"element": "C" 
			},
			{
				"x": -2.9573777916,
				"y": -2.724953304,
				"z": 0.396418577,
				"element": "C" 
			},
			{
				"x": -1.8469293402,
				"y": -3.3772743385,
				"z": -0.4382416511,
				"element": "C" 
			},
			{
				"x": -1.3922869185,
				"y": -2.457048106,
				"z": -1.5748408478,
				"element": "C" 
			},
			{
				"x": 1.8841198957,
				"y": 1.3457699472,
				"z": -3.6912383143,
				"element": "H" 
			},
			{
				"x": 0.9716095204,
				"y": 2.6562270792,
				"z": -2.9580678763,
				"element": "H" 
			},
			{
				"x": 2.7375132874,
				"y": 2.7851328931,
				"z": -3.1101438549,
				"element": "H" 
			},
			{
				"x": 0.83900255,
				"y": -0.9379152958,
				"z": 0.54934463,
				"element": "H" 
			},
			{
				"x": 2.0040012969,
				"y": -0.7659162642,
				"z": 2.6902360491,
				"element": "H" 
			},
			{
				"x": 3.3169593155,
				"y": 0.2468114887,
				"z": 2.9249268411,
				"element": "H" 
			},
			{
				"x": 4.2024489315,
				"y": 1.6805532917,
				"z": 1.1547159452,
				"element": "H" 
			},
			{
				"x": 3.8076130371,
				"y": 2.6650990895,
				"z": -1.0603756636,
				"element": "H" 
			},
			{
				"x": -2.8727736999,
				"y": -0.209476229,
				"z": -0.9222388348,
				"element": "H" 
			},
			{
				"x": -1.6310254857,
				"y": 0.4830334851,
				"z": 0.1223558726,
				"element": "H" 
			},
			{
				"x": -3.3299280588,
				"y": -0.8350268728,
				"z": 1.4172324506,
				"element": "H" 
			},
			{
				"x": -1.6934055375,
				"y": -1.462778647,
				"z": 1.621113157,
				"element": "H" 
			},
			{
				"x": -3.2346344191,
				"y": -3.3678258592,
				"z": 1.2393717241,
				"element": "H" 
			},
			{
				"x": -3.8576916613,
				"y": -2.611276795,
				"z": -0.2233713127,
				"element": "H" 
			},
			{
				"x": -0.9850475772,
				"y": -3.6051533477,
				"z": 0.2017378259,
				"element": "H" 
			},
			{
				"x": -2.1902827211,
				"y": -4.3251781908,
				"z": -0.8684716174,
				"element": "H" 
			},
			{
				"x": -0.5504413589,
				"y": -2.8839895791,
				"z": -2.1193437985,
				"element": "H" 
			},
			{
				"x": -2.2168910362,
				"y": -2.3164266902,
				"z": -2.2922330148,
				"element": "H" 
			}
		],
		 "valence_orbital": [ 
			{
				"type": "occ",
				"energy": -0.29262,
				"method": "rhf"
			},
			{
				"type": "occ",
				"energy": -0.28713,
				"method": "rhf"
			},
			{
				"type": "occ",
				"energy": -0.25553,
				"method": "rhf"
			},
			{
				"type": "occ",
				"energy": -0.24797,
				"method": "rhf"
			},
			{
				"type": "occ",
				"energy": -0.20776,
				"method": "rhf"
			},
			{
				"type": "unocc",
				"energy": -0.02104,
				"method": "rhf"
			},
			{
				"type": "unocc",
				"energy": 0.0056,
				"method": "rhf"
			},
			{
				"type": "unocc",
				"energy": 0.05888,
				"method": "rhf"
			},
			{
				"type": "unocc",
				"energy": 0.07057,
				"method": "rhf"
			},
			{
				"type": "unocc",
				"energy": 0.07723,
				"method": "rhf"
			}
		],
		"cosmo_sigma_profile": { 
			"-0.025": 0.0,
			"-0.024": 0.0,
			"-0.023": 0.0,
			"-0.022": 0.0,
			"-0.021": 0.0,
			"-0.02": 0.0,
			"-0.019": 0.0,
			"-0.018": 0.0,
			"-0.017": 0.0,
			"-0.016": 0.0,
			"-0.015": 0.0,
			"-0.014": 0.0,
			"-0.013": 0.676703146375,
			"-0.012": 3.05404127971,
			"-0.011": 3.05010689901,
			"-0.01": 3.25184750932,
			"-0.009": 3.47775621729,
			"-0.008": 2.74223152976,
			"-0.007": 3.07649268401,
			"-0.006": 6.30256838533,
			"-0.005": 8.43157166379,
			"-0.004": 21.0639861703,
			"-0.003": 36.9523967368,
			"-0.002": 36.4654323533,
			"-0.001": 28.4905865016,
			"0.0": 28.7194503968,
			"0.001": 14.9921161139,
			"0.002": 10.7473872491,
			"0.003": 10.4105935997,
			"0.004": 15.2012015054,
			"0.005": 11.2961260576,
			"0.006": 4.93466016582,
			"0.007": 3.18908811736,
			"0.008": 3.55207414068,
			"0.009": 4.93712769667,
			"0.01": 6.27472856155,
			"0.011": 9.44878817429,
			"0.012": 5.46577126671,
			"0.013": 0.916932292808,
			"0.014": 0.457891502757,
			"0.015": 0.0459220091474,
			"0.016": 0.0,
			"0.017": 0.0,
			"0.018": 0.0,
			"0.019": 0.0,
			"0.02": 0.0,
			"0.021": 0.0,
			"0.022": 0.0,
			"0.023": 0.0,
			"0.024": 0.0,
			"0.025": 0.0
		}
	}
}
