{
	 "smiles": "CCCCOC1=CC(=C(N)C=C1)[N+]([O-])=O", 
	 "Tm": 338.15, 
	 "num_atms": 29, 
	 "gaussian": { 
		 "optdone": 1, 
		 "sigma_profile": "yes", 
		 "theory": "DFT", 
		 "functional": "B3LYP", 
		 "basiset": "6-31G**", 
		 "properties": { 
			 "R2extent": 5229.8434, 
			 "electric_dipole_moment_norm": 4.08790748672, 
			 "electric_quadrupole_moment_norm": 25.4326831929, 
			 "total_energy": -724.586647282, 
			 "HOMO_LUMO_gap": 0.12603, 
			 "cosmo_polarized_energy": -12.3, 
			 "cosmo_cavitation_energy": 32.46, 
			 "cosmo_dispersion_energy": -23.61, 
			 "cosmo_repulsion_energy": 1.88, 
			 "cosmo_total_nonelectrostatic_energy": 10.73, 
			 "SMD_solvation_energy": 7.49 
		},
		"coords": [
			{
				"x": -2.4984181935,
				"y": 1.8698243508,
				"z": 1.7812959074,
				"element": "C" 
			},
			{
				"x": -2.870063012,
				"y": 2.0153695762,
				"z": 0.3011311875,
				"element": "C" 
			},
			{
				"x": -2.9824849364,
				"y": 0.6837326617,
				"z": -0.4593122782,
				"element": "C" 
			},
			{
				"x": -1.6754503363,
				"y": -0.0885409079,
				"z": -0.5940691179,
				"element": "C" 
			},
			{
				"x": -0.7598476341,
				"y": 0.7188943746,
				"z": -1.3365386867,
				"element": "O" 
			},
			{
				"x": 0.4901070084,
				"y": 0.2257184008,
				"z": -1.5724266485,
				"element": "C" 
			},
			{
				"x": 0.9551273655,
				"y": -1.0099903198,
				"z": -1.1630964427,
				"element": "C" 
			},
			{
				"x": 2.2731449205,
				"y": -1.4112304651,
				"z": -1.4689961469,
				"element": "C" 
			},
			{
				"x": 3.1596865316,
				"y": -0.5819311849,
				"z": -2.2019091073,
				"element": "C" 
			},
			{
				"x": 4.4277769064,
				"y": -0.9304156976,
				"z": -2.5576324176,
				"element": "N" 
			},
			{
				"x": 2.641498379,
				"y": 0.6797350502,
				"z": -2.5998752325,
				"element": "C" 
			},
			{
				"x": 1.3574913767,
				"y": 1.0725426612,
				"z": -2.2979822342,
				"element": "C" 
			},
			{
				"x": 2.6778726674,
				"y": -2.7110123121,
				"z": -0.9809752259,
				"element": "N" 
			},
			{
				"x": 1.860057351,
				"y": -3.3870648661,
				"z": -0.3516488683,
				"element": "O" 
			},
			{
				"x": 3.8390532711,
				"y": -3.1064872776,
				"z": -1.2072960169,
				"element": "O" 
			},
			{
				"x": -2.4858575192,
				"y": 2.8450693271,
				"z": 2.2784950763,
				"element": "H" 
			},
			{
				"x": -1.505559559,
				"y": 1.4269917247,
				"z": 1.9135120576,
				"element": "H" 
			},
			{
				"x": -3.2183613727,
				"y": 1.2362071443,
				"z": 2.3126117126,
				"element": "H" 
			},
			{
				"x": -3.8323391778,
				"y": 2.5359953739,
				"z": 0.2220941552,
				"element": "H" 
			},
			{
				"x": -2.1334528036,
				"y": 2.6497021598,
				"z": -0.2045987096,
				"element": "H" 
			},
			{
				"x": -3.3742383341,
				"y": 0.8690092694,
				"z": -1.4665583719,
				"element": "H" 
			},
			{
				"x": -3.704024937,
				"y": 0.0258109415,
				"z": 0.0433818941,
				"element": "H" 
			},
			{
				"x": -1.8441026013,
				"y": -1.0382148766,
				"z": -1.1213745982,
				"element": "H" 
			},
			{
				"x": -1.2461304213,
				"y": -0.3256409887,
				"z": 0.3893900996,
				"element": "H" 
			},
			{
				"x": 0.3483048978,
				"y": -1.7060846317,
				"z": -0.6030287226,
				"element": "H" 
			},
			{
				"x": 4.8063530623,
				"y": -1.7793822133,
				"z": -2.1631836773,
				"element": "H" 
			},
			{
				"x": 5.0394733825,
				"y": -0.2218268318,
				"z": -2.9273577954,
				"element": "H" 
			},
			{
				"x": 3.289212134,
				"y": 1.344852682,
				"z": -3.164380357,
				"element": "H" 
			},
			{
				"x": 0.986471584,
				"y": 2.0422668752,
				"z": -2.6141714346,
				"element": "H" 
			}
		],
		 "valence_orbital": [ 
			{
				"type": "occ",
				"energy": -0.29805,
				"method": "rhf"
			},
			{
				"type": "occ",
				"energy": -0.28762,
				"method": "rhf"
			},
			{
				"type": "occ",
				"energy": -0.27846,
				"method": "rhf"
			},
			{
				"type": "occ",
				"energy": -0.27217,
				"method": "rhf"
			},
			{
				"type": "occ",
				"energy": -0.2036,
				"method": "rhf"
			},
			{
				"type": "unocc",
				"energy": -0.07757,
				"method": "rhf"
			},
			{
				"type": "unocc",
				"energy": 0.00039,
				"method": "rhf"
			},
			{
				"type": "unocc",
				"energy": 0.02178,
				"method": "rhf"
			},
			{
				"type": "unocc",
				"energy": 0.07843,
				"method": "rhf"
			},
			{
				"type": "unocc",
				"energy": 0.08421,
				"method": "rhf"
			}
		],
		"cosmo_sigma_profile": { 
			"-0.025": 0.0,
			"-0.024": 0.0,
			"-0.023": 0.0,
			"-0.022": 0.0,
			"-0.021": 0.0,
			"-0.02": 0.0,
			"-0.019": 0.0,
			"-0.018": 0.0,
			"-0.017": 0.0,
			"-0.016": 0.0,
			"-0.015": 0.127285814843,
			"-0.014": 1.40109477083,
			"-0.013": 1.726578126,
			"-0.012": 1.32581233647,
			"-0.011": 1.13535619405,
			"-0.01": 2.47195017889,
			"-0.009": 2.71421112931,
			"-0.008": 2.95183822652,
			"-0.007": 4.06025196469,
			"-0.006": 6.10661670191,
			"-0.005": 9.80032420528,
			"-0.004": 14.3202363394,
			"-0.003": 22.4015754139,
			"-0.002": 23.3924310932,
			"-0.001": 25.7061312778,
			"0.0": 24.6608693394,
			"0.001": 28.609533806,
			"0.002": 23.445848269,
			"0.003": 13.3383003097,
			"0.004": 6.44067233519,
			"0.005": 5.9527661767,
			"0.006": 6.27441576274,
			"0.007": 4.53355130833,
			"0.008": 6.58568645099,
			"0.009": 7.16865590024,
			"0.01": 4.1745444954,
			"0.011": 3.9428799424,
			"0.012": 0.908833322652,
			"0.013": 0.0,
			"0.014": 0.0,
			"0.015": 0.0,
			"0.016": 0.0,
			"0.017": 0.0,
			"0.018": 0.0,
			"0.019": 0.0,
			"0.02": 0.0,
			"0.021": 0.0,
			"0.022": 0.0,
			"0.023": 0.0,
			"0.024": 0.0,
			"0.025": 0.0
		}
	}
}
