{
	 "smiles": "NCC1=C(Cl)C(=CC=C1)C(F)(F)F", 
	 "Tm": 309.15, 
	 "num_atms": 20, 
	 "gaussian": { 
		 "optdone": 1, 
		 "sigma_profile": "yes", 
		 "theory": "DFT", 
		 "functional": "B3LYP", 
		 "basiset": "6-31G**", 
		 "properties": { 
			 "R2extent": 3108.1771, 
			 "electric_dipole_moment_norm": 3.09792978294, 
			 "electric_quadrupole_moment_norm": 10.7206852985, 
			 "total_energy": -1123.53425892, 
			 "HOMO_LUMO_gap": 0.20171, 
			 "cosmo_polarized_energy": -7.74, 
			 "cosmo_cavitation_energy": 26.35, 
			 "cosmo_dispersion_energy": -19.02, 
			 "cosmo_repulsion_energy": 1.45, 
			 "cosmo_total_nonelectrostatic_energy": 8.77, 
			 "SMD_solvation_energy": 3.9 
		},
		"coords": [
			{
				"x": -0.7788983778,
				"y": 2.4625819361,
				"z": -0.5471360213,
				"element": "N" 
			},
			{
				"x": 0.6355791136,
				"y": 2.1283837612,
				"z": -0.3577141106,
				"element": "C" 
			},
			{
				"x": 1.0199344018,
				"y": 0.6752003692,
				"z": -0.6059307506,
				"element": "C" 
			},
			{
				"x": 0.7088803079,
				"y": -0.3580394549,
				"z": 0.2920110404,
				"element": "C" 
			},
			{
				"x": -0.1231388153,
				"y": 0.0564600275,
				"z": 1.7895238049,
				"element": "Cl" 
			},
			{
				"x": 1.046657385,
				"y": -1.6943395489,
				"z": 0.0251089543,
				"element": "C" 
			},
			{
				"x": 1.7094107903,
				"y": -1.9996200656,
				"z": -1.1675810432,
				"element": "C" 
			},
			{
				"x": 2.0310080782,
				"y": -0.9926696388,
				"z": -2.07286041,
				"element": "C" 
			},
			{
				"x": 1.6884004963,
				"y": 0.3258827982,
				"z": -1.7872573537,
				"element": "C" 
			},
			{
				"x": 0.7187765374,
				"y": -2.8175349245,
				"z": 0.9851792234,
				"element": "C" 
			},
			{
				"x": 1.1452037035,
				"y": -4.009096624,
				"z": 0.5086327756,
				"element": "F" 
			},
			{
				"x": -0.6091418385,
				"y": -2.9315918113,
				"z": 1.1939129382,
				"element": "F" 
			},
			{
				"x": 1.3049117343,
				"y": -2.643168374,
				"z": 2.1870527234,
				"element": "F" 
			},
			{
				"x": -1.093138071,
				"y": 2.1396463375,
				"z": -1.4592140465,
				"element": "H" 
			},
			{
				"x": -1.3442684751,
				"y": 1.9770399112,
				"z": 0.1443345079,
				"element": "H" 
			},
			{
				"x": 1.2258782965,
				"y": 2.7552419102,
				"z": -1.0347891325,
				"element": "H" 
			},
			{
				"x": 0.9136340729,
				"y": 2.4171107034,
				"z": 0.6603396753,
				"element": "H" 
			},
			{
				"x": 1.9692373113,
				"y": -3.0305129025,
				"z": -1.3735452076,
				"element": "H" 
			},
			{
				"x": 2.5494268141,
				"y": -1.2369843842,
				"z": -2.9945663645,
				"element": "H" 
			},
			{
				"x": 1.9434465346,
				"y": 1.1152099741,
				"z": -2.4899012029,
				"element": "H" 
			}
		],
		 "valence_orbital": [ 
			{
				"type": "occ",
				"energy": -0.34623,
				"method": "rhf"
			},
			{
				"type": "occ",
				"energy": -0.32358,
				"method": "rhf"
			},
			{
				"type": "occ",
				"energy": -0.27991,
				"method": "rhf"
			},
			{
				"type": "occ",
				"energy": -0.26371,
				"method": "rhf"
			},
			{
				"type": "occ",
				"energy": -0.24139,
				"method": "rhf"
			},
			{
				"type": "unocc",
				"energy": -0.03968,
				"method": "rhf"
			},
			{
				"type": "unocc",
				"energy": -0.02981,
				"method": "rhf"
			},
			{
				"type": "unocc",
				"energy": 0.01882,
				"method": "rhf"
			},
			{
				"type": "unocc",
				"energy": 0.08651,
				"method": "rhf"
			},
			{
				"type": "unocc",
				"energy": 0.09704,
				"method": "rhf"
			}
		],
		"cosmo_sigma_profile": { 
			"-0.025": 0.0,
			"-0.024": 0.0,
			"-0.023": 0.0,
			"-0.022": 0.0,
			"-0.021": 0.0,
			"-0.02": 0.0,
			"-0.019": 0.0,
			"-0.018": 0.0,
			"-0.017": 0.0,
			"-0.016": 0.0,
			"-0.015": 0.0,
			"-0.014": 0.0,
			"-0.013": 0.0,
			"-0.012": 0.0,
			"-0.011": 0.00176216105403,
			"-0.01": 0.844121418399,
			"-0.009": 1.5001508799,
			"-0.008": 2.05398618856,
			"-0.007": 8.62929147018,
			"-0.006": 11.3752586724,
			"-0.005": 10.8823750644,
			"-0.004": 10.1731056823,
			"-0.003": 13.6614635953,
			"-0.002": 15.2404562255,
			"-0.001": 15.213262695,
			"0.0": 17.7966978018,
			"0.001": 19.978683225,
			"0.002": 29.1109301177,
			"0.003": 32.0000087298,
			"0.004": 11.7908667049,
			"0.005": 2.16899798826,
			"0.006": 0.40778982324,
			"0.007": 1.1822839265,
			"0.008": 0.840184428268,
			"0.009": 0.711647051438,
			"0.01": 1.03984875934,
			"0.011": 0.338753902862,
			"0.012": 0.565491526135,
			"0.013": 0.495589611944,
			"0.014": 0.517150576751,
			"0.015": 1.00007716563,
			"0.016": 0.649378598148,
			"0.017": 0.412881985235,
			"0.018": 0.790298193516,
			"0.019": 0.508722508252,
			"0.02": 0.0343118321264,
			"0.021": 0.0,
			"0.022": 0.0,
			"0.023": 0.0,
			"0.024": 0.0,
			"0.025": 0.0
		}
	}
}
