{
	 "smiles": "ClCC(=O)C1=CC=C(CC(=O)N2CCOCC2)S1", 
	 "Tm": 410.15, 
	 "num_atms": 32, 
	 "gaussian": { 
		 "optdone": 1, 
		 "sigma_profile": "yes", 
		 "theory": "DFT", 
		 "functional": "B3LYP", 
		 "basiset": "6-31G**", 
		 "properties": { 
			 "R2extent": 8005.8931, 
			 "electric_dipole_moment_norm": 4.82960456559, 
			 "electric_quadrupole_moment_norm": 23.096235093, 
			 "total_energy": -1604.49798822, 
			 "HOMO_LUMO_gap": 0.16778, 
			 "cosmo_polarized_energy": -20.36, 
			 "cosmo_cavitation_energy": 38.58, 
			 "cosmo_dispersion_energy": -27.43, 
			 "cosmo_repulsion_energy": 2.11, 
			 "cosmo_total_nonelectrostatic_energy": 13.25, 
			 "SMD_solvation_energy": 6.2 
		},
		"coords": [
			{
				"x": 0.9725831969,
				"y": -0.1620870653,
				"z": -5.934243385,
				"element": "Cl" 
			},
			{
				"x": 0.7517061405,
				"y": 0.3402644026,
				"z": -4.2328432569,
				"element": "C" 
			},
			{
				"x": -0.2705001292,
				"y": -0.5159617576,
				"z": -3.4751549803,
				"element": "C" 
			},
			{
				"x": -0.8934548197,
				"y": -1.4190705943,
				"z": -4.0008125084,
				"element": "O" 
			},
			{
				"x": -0.4715526997,
				"y": -0.1805430329,
				"z": -2.0509956723,
				"element": "C" 
			},
			{
				"x": -1.3684769685,
				"y": -0.8102653613,
				"z": -1.2143346042,
				"element": "C" 
			},
			{
				"x": -1.3693595629,
				"y": -0.2978683134,
				"z": 0.1062096848,
				"element": "C" 
			},
			{
				"x": -0.4716630011,
				"y": 0.7291701616,
				"z": 0.2910796945,
				"element": "C" 
			},
			{
				"x": -0.2231612637,
				"y": 1.5177587268,
				"z": 1.5525881762,
				"element": "C" 
			},
			{
				"x": -0.181793566,
				"y": 0.6029040445,
				"z": 2.7878018194,
				"element": "C" 
			},
			{
				"x": -1.2215805616,
				"y": 0.3809310279,
				"z": 3.4022093802,
				"element": "O" 
			},
			{
				"x": 1.019427484,
				"y": 0.0532102696,
				"z": 3.1508049162,
				"element": "N" 
			},
			{
				"x": 2.2871588224,
				"y": 0.153739528,
				"z": 2.4290387345,
				"element": "C" 
			},
			{
				"x": 2.8410177839,
				"y": -1.2514608469,
				"z": 2.1612064935,
				"element": "C" 
			},
			{
				"x": 2.956333991,
				"y": -1.9990055315,
				"z": 3.3603310927,
				"element": "O" 
			},
			{
				"x": 1.6905211209,
				"y": -2.1498214272,
				"z": 3.9943290047,
				"element": "C" 
			},
			{
				"x": 1.0871389792,
				"y": -0.7913095003,
				"z": 4.3478018439,
				"element": "C" 
			},
			{
				"x": 0.387868175,
				"y": 1.0773261296,
				"z": -1.1816008086,
				"element": "S" 
			},
			{
				"x": 0.4296392969,
				"y": 1.385523624,
				"z": -4.2301871666,
				"element": "H" 
			},
			{
				"x": 1.725050866,
				"y": 0.2848546163,
				"z": -3.7373252465,
				"element": "H" 
			},
			{
				"x": -1.9979158392,
				"y": -1.6171664005,
				"z": -1.570069299,
				"element": "H" 
			},
			{
				"x": -2.0041895186,
				"y": -0.6582351099,
				"z": 0.9075768779,
				"element": "H" 
			},
			{
				"x": 0.6725898909,
				"y": 2.1369904345,
				"z": 1.4583034855,
				"element": "H" 
			},
			{
				"x": -1.0658345414,
				"y": 2.1921519082,
				"z": 1.7331297611,
				"element": "H" 
			},
			{
				"x": 3.0099993001,
				"y": 0.7173434978,
				"z": 3.0358781165,
				"element": "H" 
			},
			{
				"x": 2.1528703817,
				"y": 0.6744303966,
				"z": 1.4812049752,
				"element": "H" 
			},
			{
				"x": 3.8447468803,
				"y": -1.1866572313,
				"z": 1.7310756563,
				"element": "H" 
			},
			{
				"x": 2.1824187745,
				"y": -1.770213002,
				"z": 1.4453463526,
				"element": "H" 
			},
			{
				"x": 1.0005839749,
				"y": -2.7041943652,
				"z": 3.3378213337,
				"element": "H" 
			},
			{
				"x": 1.8627742901,
				"y": -2.7402979199,
				"z": 4.89850774,
				"element": "H" 
			},
			{
				"x": 0.0762375646,
				"y": -0.889929869,
				"z": 4.7441836037,
				"element": "H" 
			},
			{
				"x": 1.7199155579,
				"y": -0.2963114394,
				"z": 5.0971381844,
				"element": "H" 
			}
		],
		 "valence_orbital": [ 
			{
				"type": "occ",
				"energy": -0.27682,
				"method": "rhf"
			},
			{
				"type": "occ",
				"energy": -0.26964,
				"method": "rhf"
			},
			{
				"type": "occ",
				"energy": -0.26573,
				"method": "rhf"
			},
			{
				"type": "occ",
				"energy": -0.25087,
				"method": "rhf"
			},
			{
				"type": "occ",
				"energy": -0.24335,
				"method": "rhf"
			},
			{
				"type": "unocc",
				"energy": -0.07557,
				"method": "rhf"
			},
			{
				"type": "unocc",
				"energy": -0.0125,
				"method": "rhf"
			},
			{
				"type": "unocc",
				"energy": 0.00609,
				"method": "rhf"
			},
			{
				"type": "unocc",
				"energy": 0.01628,
				"method": "rhf"
			},
			{
				"type": "unocc",
				"energy": 0.02792,
				"method": "rhf"
			}
		],
		"cosmo_sigma_profile": { 
			"-0.025": 0.0,
			"-0.024": 0.0,
			"-0.023": 0.0,
			"-0.022": 0.0,
			"-0.021": 0.0,
			"-0.02": 0.0,
			"-0.019": 0.0,
			"-0.018": 0.0,
			"-0.017": 0.0,
			"-0.016": 0.0,
			"-0.015": 0.0,
			"-0.014": 0.0,
			"-0.013": 0.0,
			"-0.012": 0.0,
			"-0.011": 0.000790456141937,
			"-0.01": 1.25111597147,
			"-0.009": 6.86462615683,
			"-0.008": 7.52462097447,
			"-0.007": 9.82250330109,
			"-0.006": 14.4722385247,
			"-0.005": 26.8964697678,
			"-0.004": 35.5394389152,
			"-0.003": 27.3520960269,
			"-0.002": 18.3586551088,
			"-0.001": 16.4293650904,
			"0.0": 18.9495779472,
			"0.001": 19.3306402887,
			"0.002": 20.7686589577,
			"0.003": 13.8389152798,
			"0.004": 8.70222676631,
			"0.005": 9.74074339503,
			"0.006": 11.253891786,
			"0.007": 4.89097119787,
			"0.008": 5.19714007202,
			"0.009": 4.36158833051,
			"0.01": 5.23707384759,
			"0.011": 7.00231026815,
			"0.012": 6.2649244679,
			"0.013": 6.27547447818,
			"0.014": 2.9833168284,
			"0.015": 0.260059251718,
			"0.016": 0.0,
			"0.017": 0.0,
			"0.018": 0.0,
			"0.019": 0.0,
			"0.02": 0.0,
			"0.021": 0.0,
			"0.022": 0.0,
			"0.023": 0.0,
			"0.024": 0.0,
			"0.025": 0.0
		}
	}
}
