{
	 "smiles": "CC1=CC=C(NCCC#N)C=C1", 
	 "Tm": 384.15, 
	 "num_atms": 24, 
	 "gaussian": { 
		 "optdone": 1, 
		 "sigma_profile": "yes", 
		 "theory": "DFT", 
		 "functional": "B3LYP", 
		 "basiset": "6-31G**", 
		 "properties": { 
			 "R2extent": 3154.7716, 
			 "electric_dipole_moment_norm": 2.97414310516, 
			 "electric_quadrupole_moment_norm": 17.9976111429, 
			 "total_energy": -497.789574976, 
			 "HOMO_LUMO_gap": 0.19768, 
			 "cosmo_polarized_energy": -12.8, 
			 "cosmo_cavitation_energy": 28.14, 
			 "cosmo_dispersion_energy": -19.6, 
			 "cosmo_repulsion_energy": 1.58, 
			 "cosmo_total_nonelectrostatic_energy": 10.12, 
			 "SMD_solvation_energy": 5.18 
		},
		"coords": [
			{
				"x": -1.5628880958,
				"y": 4.0148106437,
				"z": 2.6395688671,
				"element": "C" 
			},
			{
				"x": -1.2978416775,
				"y": 2.6992108839,
				"z": 1.9459867294,
				"element": "C" 
			},
			{
				"x": -0.2044761124,
				"y": 2.5232860402,
				"z": 1.0948733953,
				"element": "C" 
			},
			{
				"x": 0.0507080586,
				"y": 1.306252306,
				"z": 0.4579996149,
				"element": "C" 
			},
			{
				"x": -0.8017029658,
				"y": 0.2081989218,
				"z": 0.6549574652,
				"element": "C" 
			},
			{
				"x": -0.6281308609,
				"y": -1.0181767405,
				"z": -0.0007794366,
				"element": "N" 
			},
			{
				"x": 0.6510579103,
				"y": -1.4362337859,
				"z": -0.5285235699,
				"element": "C" 
			},
			{
				"x": 1.7428920287,
				"y": -1.7191022717,
				"z": 0.5428134372,
				"element": "C" 
			},
			{
				"x": 1.3566705604,
				"y": -2.8216005916,
				"z": 1.4246738396,
				"element": "C" 
			},
			{
				"x": 1.0071141249,
				"y": -3.7006089875,
				"z": 2.097932615,
				"element": "N" 
			},
			{
				"x": -1.9051631657,
				"y": 0.3774993886,
				"z": 1.5135200565,
				"element": "C" 
			},
			{
				"x": -2.1430079271,
				"y": 1.5946669634,
				"z": 2.1381590809,
				"element": "C" 
			},
			{
				"x": -1.5004754922,
				"y": 3.9170203123,
				"z": 3.7302556994,
				"element": "H" 
			},
			{
				"x": -0.8395803355,
				"y": 4.7769562396,
				"z": 2.3354860216,
				"element": "H" 
			},
			{
				"x": -2.5641505499,
				"y": 4.3978654827,
				"z": 2.4098280169,
				"element": "H" 
			},
			{
				"x": 0.4737116368,
				"y": 3.3552982512,
				"z": 0.9198798206,
				"element": "H" 
			},
			{
				"x": 0.9096247164,
				"y": 1.2295931644,
				"z": -0.2007480192,
				"element": "H" 
			},
			{
				"x": -1.1593705013,
				"y": -1.7729638672,
				"z": 0.4137052292,
				"element": "H" 
			},
			{
				"x": 1.0347735167,
				"y": -0.6731334918,
				"z": -1.2121830114,
				"element": "H" 
			},
			{
				"x": 0.491852473,
				"y": -2.3395036997,
				"z": -1.1245893837,
				"element": "H" 
			},
			{
				"x": 2.6937223582,
				"y": -1.9679753001,
				"z": 0.056931965,
				"element": "H" 
			},
			{
				"x": 1.9064980572,
				"y": -0.822116188,
				"z": 1.1499183033,
				"element": "H" 
			},
			{
				"x": -2.5798074827,
				"y": -0.4586163597,
				"z": 1.6837337667,
				"element": "H" 
			},
			{
				"x": -3.0051302742,
				"y": 1.6882726858,
				"z": 2.794799497,
				"element": "H" 
			}
		],
		 "valence_orbital": [ 
			{
				"type": "occ",
				"energy": -0.32997,
				"method": "rhf"
			},
			{
				"type": "occ",
				"energy": -0.3257,
				"method": "rhf"
			},
			{
				"type": "occ",
				"energy": -0.29092,
				"method": "rhf"
			},
			{
				"type": "occ",
				"energy": -0.24768,
				"method": "rhf"
			},
			{
				"type": "occ",
				"energy": -0.19844,
				"method": "rhf"
			},
			{
				"type": "unocc",
				"energy": -0.00076,
				"method": "rhf"
			},
			{
				"type": "unocc",
				"energy": 0.01517,
				"method": "rhf"
			},
			{
				"type": "unocc",
				"energy": 0.02826,
				"method": "rhf"
			},
			{
				"type": "unocc",
				"energy": 0.03764,
				"method": "rhf"
			},
			{
				"type": "unocc",
				"energy": 0.081,
				"method": "rhf"
			}
		],
		"cosmo_sigma_profile": { 
			"-0.025": 0.0,
			"-0.024": 0.0,
			"-0.023": 0.0,
			"-0.022": 0.0,
			"-0.021": 0.0,
			"-0.02": 0.0,
			"-0.019": 0.0,
			"-0.018": 0.0,
			"-0.017": 0.0,
			"-0.016": 0.0,
			"-0.015": 0.0,
			"-0.014": 0.0,
			"-0.013": 0.0278662576626,
			"-0.012": 0.78436312093,
			"-0.011": 1.05074645498,
			"-0.01": 1.74586824321,
			"-0.009": 1.84660572041,
			"-0.008": 4.86253165822,
			"-0.007": 10.2357096568,
			"-0.006": 15.3718921507,
			"-0.005": 14.7139114199,
			"-0.004": 17.0876736042,
			"-0.003": 18.3989519745,
			"-0.002": 16.0945078047,
			"-0.001": 16.0945828683,
			"0.0": 14.1091923668,
			"0.001": 12.5907832749,
			"0.002": 9.37704554736,
			"0.003": 7.61816933026,
			"0.004": 9.2481888162,
			"0.005": 8.22356380029,
			"0.006": 11.3203957765,
			"0.007": 10.4483230916,
			"0.008": 5.03785511994,
			"0.009": 3.86426259335,
			"0.01": 4.27004120037,
			"0.011": 3.30687739974,
			"0.012": 3.02160031843,
			"0.013": 2.093137157,
			"0.014": 0.583644428894,
			"0.015": 0.0,
			"0.016": 0.0,
			"0.017": 0.0,
			"0.018": 0.0,
			"0.019": 0.0,
			"0.02": 0.0,
			"0.021": 0.0,
			"0.022": 0.0,
			"0.023": 0.0,
			"0.024": 0.0,
			"0.025": 0.0
		}
	}
}
