{
	 "smiles": "CC12C3CCC(O3)C1(C)C(=O)OC2=O", 
	 "Tm": 491.15, 
	 "num_atms": 26, 
	 "gaussian": { 
		 "optdone": 1, 
		 "sigma_profile": "yes", 
		 "theory": "DFT", 
		 "functional": "B3LYP", 
		 "basiset": "6-31G**", 
		 "properties": { 
			 "R2extent": 2143.5438, 
			 "electric_dipole_moment_norm": 5.86878605335, 
			 "electric_quadrupole_moment_norm": 7.35410814647, 
			 "total_energy": -689.200152128, 
			 "HOMO_LUMO_gap": 0.24845, 
			 "cosmo_polarized_energy": -13.88, 
			 "cosmo_cavitation_energy": 26.93, 
			 "cosmo_dispersion_energy": -19.74, 
			 "cosmo_repulsion_energy": 1.51, 
			 "cosmo_total_nonelectrostatic_energy": 8.7, 
			 "SMD_solvation_energy": 5.91 
		},
		"coords": [
			{
				"x": 1.7879159579,
				"y": -1.286164161,
				"z": 0.019272982,
				"element": "C" 
			},
			{
				"x": 0.8490165772,
				"y": -0.145635509,
				"z": -0.3847034141,
				"element": "C" 
			},
			{
				"x": 0.0302880009,
				"y": -0.3637709147,
				"z": -1.7000464104,
				"element": "C" 
			},
			{
				"x": -0.8158341461,
				"y": -1.6523311867,
				"z": -1.6389214696,
				"element": "C" 
			},
			{
				"x": -1.9471182221,
				"y": -1.2232066854,
				"z": -0.6578339351,
				"element": "C" 
			},
			{
				"x": -1.5336340176,
				"y": 0.2293724581,
				"z": -0.3432931502,
				"element": "C" 
			},
			{
				"x": -0.9669734645,
				"y": 0.6676201287,
				"z": -1.5911052268,
				"element": "O" 
			},
			{
				"x": -0.2876080317,
				"y": 0.2850248752,
				"z": 0.6016196492,
				"element": "C" 
			},
			{
				"x": -0.4251656524,
				"y": -0.4485052599,
				"z": 1.9388839974,
				"element": "C" 
			},
			{
				"x": 0.011477596,
				"y": 1.7593143603,
				"z": 0.8734513924,
				"element": "C" 
			},
			{
				"x": -0.6032062985,
				"y": 2.5158500839,
				"z": 1.5713466656,
				"element": "O" 
			},
			{
				"x": 1.1484489397,
				"y": 2.1629956031,
				"z": 0.1946813705,
				"element": "O" 
			},
			{
				"x": 1.6700148123,
				"y": 1.131051592,
				"z": -0.566590683,
				"element": "C" 
			},
			{
				"x": 2.6440800622,
				"y": 1.2857978447,
				"z": -1.2481185427,
				"element": "O" 
			},
			{
				"x": 2.3365546836,
				"y": -1.0426013124,
				"z": 0.9339397233,
				"element": "H" 
			},
			{
				"x": 2.5248464932,
				"y": -1.4537338383,
				"z": -0.7708409473,
				"element": "H" 
			},
			{
				"x": 1.24530505,
				"y": -2.2174853292,
				"z": 0.194476311,
				"element": "H" 
			},
			{
				"x": 0.61713997,
				"y": -0.2217466383,
				"z": -2.6081990838,
				"element": "H" 
			},
			{
				"x": -0.2574301355,
				"y": -2.529376747,
				"z": -1.3053645019,
				"element": "H" 
			},
			{
				"x": -1.2134862909,
				"y": -1.8720137025,
				"z": -2.6325609693,
				"element": "H" 
			},
			{
				"x": -2.0236885089,
				"y": -1.8596510938,
				"z": 0.2261147371,
				"element": "H" 
			},
			{
				"x": -2.9221511559,
				"y": -1.223584627,
				"z": -1.1508068994,
				"element": "H" 
			},
			{
				"x": -2.339638841,
				"y": 0.8997938342,
				"z": -0.0429674618,
				"element": "H" 
			},
			{
				"x": -0.6067540846,
				"y": -1.5163871104,
				"z": 1.8006514063,
				"element": "H" 
			},
			{
				"x": 0.4788965988,
				"y": -0.3395930615,
				"z": 2.5453069044,
				"element": "H" 
			},
			{
				"x": -1.2557958922,
				"y": -0.0230336031,
				"z": 2.5085075562,
				"element": "H" 
			}
		],
		 "valence_orbital": [ 
			{
				"type": "occ",
				"energy": -0.33802,
				"method": "rhf"
			},
			{
				"type": "occ",
				"energy": -0.32863,
				"method": "rhf"
			},
			{
				"type": "occ",
				"energy": -0.30004,
				"method": "rhf"
			},
			{
				"type": "occ",
				"energy": -0.28198,
				"method": "rhf"
			},
			{
				"type": "occ",
				"energy": -0.27423,
				"method": "rhf"
			},
			{
				"type": "unocc",
				"energy": -0.02578,
				"method": "rhf"
			},
			{
				"type": "unocc",
				"energy": -0.005,
				"method": "rhf"
			},
			{
				"type": "unocc",
				"energy": 0.05577,
				"method": "rhf"
			},
			{
				"type": "unocc",
				"energy": 0.08586,
				"method": "rhf"
			},
			{
				"type": "unocc",
				"energy": 0.08724,
				"method": "rhf"
			}
		],
		"cosmo_sigma_profile": { 
			"-0.025": 0.0,
			"-0.024": 0.0,
			"-0.023": 0.0,
			"-0.022": 0.0,
			"-0.021": 0.0,
			"-0.02": 0.0,
			"-0.019": 0.0,
			"-0.018": 0.0,
			"-0.017": 0.0,
			"-0.016": 0.0,
			"-0.015": 0.0,
			"-0.014": 0.0,
			"-0.013": 0.0,
			"-0.012": 0.11083073898,
			"-0.011": 0.632182441468,
			"-0.01": 0.611089278151,
			"-0.009": 1.15390385593,
			"-0.008": 1.83364513303,
			"-0.007": 4.57651182824,
			"-0.006": 12.6941790533,
			"-0.005": 17.4794967326,
			"-0.004": 24.2036467574,
			"-0.003": 22.8797398688,
			"-0.002": 20.7386416506,
			"-0.001": 20.9790993514,
			"0.0": 12.8360655003,
			"0.001": 5.31331568488,
			"0.002": 5.63527399938,
			"0.003": 5.46967057577,
			"0.004": 4.59010475433,
			"0.005": 4.88130766058,
			"0.006": 6.08931549268,
			"0.007": 7.13120276353,
			"0.008": 5.64656719889,
			"0.009": 7.36245453988,
			"0.01": 10.9884919104,
			"0.011": 5.2298540626,
			"0.012": 1.62848519548,
			"0.013": 0.191671980335,
			"0.014": 0.0,
			"0.015": 0.0,
			"0.016": 0.0,
			"0.017": 0.0,
			"0.018": 0.0,
			"0.019": 0.0,
			"0.02": 0.0,
			"0.021": 0.0,
			"0.022": 0.0,
			"0.023": 0.0,
			"0.024": 0.0,
			"0.025": 0.0
		}
	}
}
