{
	 "smiles": "COC1=NN(CSP(=S)(OC)OC)C(=O)S1", 
	 "Tm": 312.65, 
	 "num_atms": 27, 
	 "gaussian": { 
		 "optdone": 1, 
		 "sigma_profile": "yes", 
		 "theory": "DFT", 
		 "functional": "B3LYP", 
		 "basiset": "6-31G**", 
		 "properties": { 
			 "R2extent": 7123.077, 
			 "electric_dipole_moment_norm": 5.5728831102, 
			 "electric_quadrupole_moment_norm": 22.9895680897, 
			 "total_energy": -2181.5975483, 
			 "HOMO_LUMO_gap": 0.21626, 
			 "cosmo_polarized_energy": -15.12, 
			 "cosmo_cavitation_energy": 38.43, 
			 "cosmo_dispersion_energy": -27.75, 
			 "cosmo_repulsion_energy": 2.07, 
			 "cosmo_total_nonelectrostatic_energy": 12.75, 
			 "SMD_solvation_energy": 8.04 
		},
		"coords": [
			{
				"x": -2.7198180185,
				"y": -1.8157205713,
				"z": -3.9788457642,
				"element": "C" 
			},
			{
				"x": -3.6122331647,
				"y": -1.3456967681,
				"z": -2.9503807063,
				"element": "O" 
			},
			{
				"x": -3.0817981173,
				"y": -0.5102587375,
				"z": -2.0603994279,
				"element": "C" 
			},
			{
				"x": -1.85841097,
				"y": -0.1060975913,
				"z": -2.0655985957,
				"element": "N" 
			},
			{
				"x": -1.6468132305,
				"y": 0.7672310942,
				"z": -1.0122095167,
				"element": "N" 
			},
			{
				"x": -0.3224737592,
				"y": 1.2609093505,
				"z": -0.7825396262,
				"element": "C" 
			},
			{
				"x": 0.7072141912,
				"y": -0.0401000692,
				"z": 0.0968327106,
				"element": "S" 
			},
			{
				"x": 2.4585108939,
				"y": 1.0811544147,
				"z": 0.5569569518,
				"element": "P" 
			},
			{
				"x": 2.2436961136,
				"y": 2.9989018557,
				"z": 0.7139035116,
				"element": "S" 
			},
			{
				"x": 3.5803808061,
				"y": 0.6748503015,
				"z": -0.5278360613,
				"element": "O" 
			},
			{
				"x": 4.0114569872,
				"y": -0.687103319,
				"z": -0.7179964808,
				"element": "C" 
			},
			{
				"x": 2.9981403764,
				"y": 0.2515500756,
				"z": 1.8451949994,
				"element": "O" 
			},
			{
				"x": 2.4142024263,
				"y": 0.46110248,
				"z": 3.1463678856,
				"element": "C" 
			},
			{
				"x": -2.6889414892,
				"y": 1.02138499,
				"z": -0.1355116086,
				"element": "C" 
			},
			{
				"x": -2.663632249,
				"y": 1.7230311573,
				"z": 0.8464116071,
				"element": "O" 
			},
			{
				"x": -4.1282832335,
				"y": 0.0940716651,
				"z": -0.7791872972,
				"element": "S" 
			},
			{
				"x": -3.3217544798,
				"y": -2.477092042,
				"z": -4.6005276543,
				"element": "H" 
			},
			{
				"x": -1.8801630483,
				"y": -2.3577349891,
				"z": -3.5357940534,
				"element": "H" 
			},
			{
				"x": -2.3373530811,
				"y": -0.9754028926,
				"z": -4.5642947798,
				"element": "H" 
			},
			{
				"x": 0.1451238435,
				"y": 1.4982354046,
				"z": -1.7365316955,
				"element": "H" 
			},
			{
				"x": -0.378284135,
				"y": 2.1384171398,
				"z": -0.1404040583,
				"element": "H" 
			},
			{
				"x": 4.7368280149,
				"y": -0.6580508153,
				"z": -1.5317303496,
				"element": "H" 
			},
			{
				"x": 3.1663776736,
				"y": -1.3229461906,
				"z": -1.0003364002,
				"element": "H" 
			},
			{
				"x": 4.4803889925,
				"y": -1.0687959163,
				"z": 0.1915115951,
				"element": "H" 
			},
			{
				"x": 1.3626757996,
				"y": 0.1590319826,
				"z": 3.1487101196,
				"element": "H" 
			},
			{
				"x": 2.5004860568,
				"y": 1.5113899762,
				"z": 3.4356624056,
				"element": "H" 
			},
			{
				"x": 2.9817768003,
				"y": -0.1660619855,
				"z": 3.8346722898,
				"element": "H" 
			}
		],
		 "valence_orbital": [ 
			{
				"type": "occ",
				"energy": -0.28579,
				"method": "rhf"
			},
			{
				"type": "occ",
				"energy": -0.27087,
				"method": "rhf"
			},
			{
				"type": "occ",
				"energy": -0.24897,
				"method": "rhf"
			},
			{
				"type": "occ",
				"energy": -0.24324,
				"method": "rhf"
			},
			{
				"type": "occ",
				"energy": -0.23928,
				"method": "rhf"
			},
			{
				"type": "unocc",
				"energy": -0.02302,
				"method": "rhf"
			},
			{
				"type": "unocc",
				"energy": -0.01417,
				"method": "rhf"
			},
			{
				"type": "unocc",
				"energy": -0.01025,
				"method": "rhf"
			},
			{
				"type": "unocc",
				"energy": 0.00164,
				"method": "rhf"
			},
			{
				"type": "unocc",
				"energy": 0.02877,
				"method": "rhf"
			}
		],
		"cosmo_sigma_profile": { 
			"-0.025": 0.0,
			"-0.024": 0.0,
			"-0.023": 0.0,
			"-0.022": 0.0,
			"-0.021": 0.0,
			"-0.02": 0.0,
			"-0.019": 0.0,
			"-0.018": 0.0,
			"-0.017": 0.0,
			"-0.016": 0.0,
			"-0.015": 0.0,
			"-0.014": 0.0,
			"-0.013": 0.0,
			"-0.012": 0.0,
			"-0.011": 0.0,
			"-0.01": 0.0228226345061,
			"-0.009": 1.89333039697,
			"-0.008": 1.87025635797,
			"-0.007": 8.61845310981,
			"-0.006": 18.9600536991,
			"-0.005": 25.6478892715,
			"-0.004": 33.8622032981,
			"-0.003": 25.1645723949,
			"-0.002": 23.4322963859,
			"-0.001": 23.6415958235,
			"0.0": 19.3116178317,
			"0.001": 18.8327034251,
			"0.002": 17.8444212731,
			"0.003": 16.0764511889,
			"0.004": 14.44833431,
			"0.005": 13.8011627326,
			"0.006": 11.1893768152,
			"0.007": 10.5132587487,
			"0.008": 8.92173309616,
			"0.009": 7.80141366749,
			"0.01": 4.29508977318,
			"0.011": 5.10485307077,
			"0.012": 0.363820233681,
			"0.013": 0.0,
			"0.014": 0.0,
			"0.015": 0.0,
			"0.016": 0.0,
			"0.017": 0.0,
			"0.018": 0.0,
			"0.019": 0.0,
			"0.02": 0.0,
			"0.021": 0.0,
			"0.022": 0.0,
			"0.023": 0.0,
			"0.024": 0.0,
			"0.025": 0.0
		}
	}
}
