{
	 "smiles": "CC1=C(OC2=C1C=C(C)C=C2)C(O)=O", 
	 "Tm": 454.15, 
	 "num_atms": 24, 
	 "gaussian": { 
		 "optdone": 1, 
		 "sigma_profile": "yes", 
		 "theory": "DFT", 
		 "functional": "B3LYP", 
		 "basiset": "6-31G**", 
		 "properties": { 
			 "R2extent": 3696.3952, 
			 "electric_dipole_moment_norm": 5.91260507898, 
			 "electric_quadrupole_moment_norm": 20.5179666161, 
			 "total_energy": -650.876520122, 
			 "HOMO_LUMO_gap": 0.17752, 
			 "cosmo_polarized_energy": -15.47, 
			 "cosmo_cavitation_energy": 28.29, 
			 "cosmo_dispersion_energy": -20.72, 
			 "cosmo_repulsion_energy": 1.62, 
			 "cosmo_total_nonelectrostatic_energy": 9.18, 
			 "SMD_solvation_energy": 6.32 
		},
		"coords": [
			{
				"x": -1.7917086044,
				"y": -0.6313692285,
				"z": 2.0823890935,
				"element": "C" 
			},
			{
				"x": -0.877542809,
				"y": -1.1592318688,
				"z": 1.0154852776,
				"element": "C" 
			},
			{
				"x": 0.0017299962,
				"y": -2.214866907,
				"z": 1.0611902309,
				"element": "C" 
			},
			{
				"x": 0.7082029256,
				"y": -2.347177882,
				"z": -0.1129821949,
				"element": "O" 
			},
			{
				"x": 0.2598160106,
				"y": -1.3646417373,
				"z": -0.9407106419,
				"element": "C" 
			},
			{
				"x": -0.72249912,
				"y": -0.5912431371,
				"z": -0.3022921405,
				"element": "C" 
			},
			{
				"x": -1.3064543723,
				"y": 0.4852975235,
				"z": -0.9927401528,
				"element": "C" 
			},
			{
				"x": -0.9006111829,
				"y": 0.7571946312,
				"z": -2.2969753427,
				"element": "C" 
			},
			{
				"x": -1.5030830122,
				"y": 1.9031233852,
				"z": -3.0774328387,
				"element": "C" 
			},
			{
				"x": 0.0919605253,
				"y": -0.0546582921,
				"z": -2.9019280918,
				"element": "C" 
			},
			{
				"x": 0.6879665853,
				"y": -1.1238610385,
				"z": -2.2433514219,
				"element": "C" 
			},
			{
				"x": 0.3909437838,
				"y": -3.1721568166,
				"z": 2.1214740105,
				"element": "C" 
			},
			{
				"x": -0.5328611733,
				"y": -3.3608004974,
				"z": 3.1083387291,
				"element": "O" 
			},
			{
				"x": 1.4490094047,
				"y": -3.7491349069,
				"z": 2.1499408828,
				"element": "O" 
			},
			{
				"x": -1.4980972985,
				"y": -0.962694224,
				"z": 3.0816966088,
				"element": "H" 
			},
			{
				"x": -2.8338379093,
				"y": -0.9290969817,
				"z": 1.9090587905,
				"element": "H" 
			},
			{
				"x": -1.7729437323,
				"y": 0.463060643,
				"z": 2.0870605555,
				"element": "H" 
			},
			{
				"x": -2.0687291023,
				"y": 1.0987988796,
				"z": -0.5199351552,
				"element": "H" 
			},
			{
				"x": -2.2484826238,
				"y": 2.4408832482,
				"z": -2.4853505429,
				"element": "H" 
			},
			{
				"x": -0.7365404519,
				"y": 2.6243572202,
				"z": -3.3835283006,
				"element": "H" 
			},
			{
				"x": -1.9944891409,
				"y": 1.5497317508,
				"z": -3.9913279288,
				"element": "H" 
			},
			{
				"x": 0.3986477558,
				"y": 0.1711056783,
				"z": -3.9199561713,
				"element": "H" 
			},
			{
				"x": 1.4487678749,
				"y": -1.7390020218,
				"z": -2.710755033,
				"element": "H" 
			},
			{
				"x": -1.3892643291,
				"y": -3.0045174203,
				"z": 2.8348317777,
				"element": "H" 
			}
		],
		 "valence_orbital": [ 
			{
				"type": "occ",
				"energy": -0.31769,
				"method": "rhf"
			},
			{
				"type": "occ",
				"energy": -0.29781,
				"method": "rhf"
			},
			{
				"type": "occ",
				"energy": -0.27654,
				"method": "rhf"
			},
			{
				"type": "occ",
				"energy": -0.24093,
				"method": "rhf"
			},
			{
				"type": "occ",
				"energy": -0.23463,
				"method": "rhf"
			},
			{
				"type": "unocc",
				"energy": -0.05711,
				"method": "rhf"
			},
			{
				"type": "unocc",
				"energy": 0.00132,
				"method": "rhf"
			},
			{
				"type": "unocc",
				"energy": 0.00963,
				"method": "rhf"
			},
			{
				"type": "unocc",
				"energy": 0.05568,
				"method": "rhf"
			},
			{
				"type": "unocc",
				"energy": 0.08164,
				"method": "rhf"
			}
		],
		"cosmo_sigma_profile": { 
			"-0.025": 0.0,
			"-0.024": 0.0,
			"-0.023": 0.0,
			"-0.022": 0.0,
			"-0.021": 0.0,
			"-0.02": 0.0,
			"-0.019": 0.0,
			"-0.018": 0.0473921061266,
			"-0.017": 0.614040601689,
			"-0.016": 1.29859073748,
			"-0.015": 0.475526979371,
			"-0.014": 1.24013108182,
			"-0.013": 0.823943457532,
			"-0.012": 1.04982862925,
			"-0.011": 1.10007360492,
			"-0.01": 0.941963657598,
			"-0.009": 1.07031006699,
			"-0.008": 0.878957785644,
			"-0.007": 3.88588155088,
			"-0.006": 10.0115949628,
			"-0.005": 16.1606825096,
			"-0.004": 20.131280568,
			"-0.003": 18.9448222717,
			"-0.002": 19.9298937336,
			"-0.001": 17.1871944403,
			"0.0": 18.2340934347,
			"0.001": 15.9032722591,
			"0.002": 11.6277987145,
			"0.003": 12.3722802357,
			"0.004": 12.139663546,
			"0.005": 6.02093356996,
			"0.006": 3.21469140602,
			"0.007": 3.0116204716,
			"0.008": 3.79279938672,
			"0.009": 4.21521026205,
			"0.01": 6.01511553336,
			"0.011": 6.44055765136,
			"0.012": 5.52643528023,
			"0.013": 1.31975822538,
			"0.014": 0.0,
			"0.015": 0.0,
			"0.016": 0.0,
			"0.017": 0.0,
			"0.018": 0.0,
			"0.019": 0.0,
			"0.02": 0.0,
			"0.021": 0.0,
			"0.022": 0.0,
			"0.023": 0.0,
			"0.024": 0.0,
			"0.025": 0.0
		}
	}
}
