{
	 "smiles": "CC1=CC(C(O)=O)=C(C)N1C1=NC=CS1", 
	 "Tm": 447.15, 
	 "num_atms": 25, 
	 "gaussian": { 
		 "optdone": 1, 
		 "sigma_profile": "yes", 
		 "theory": "DFT", 
		 "functional": "B3LYP", 
		 "basiset": "6-31G**", 
		 "properties": { 
			 "R2extent": 4144.8196, 
			 "electric_dipole_moment_norm": 6.09749157851, 
			 "electric_quadrupole_moment_norm": 13.1574439512, 
			 "total_energy": -1045.22514058, 
			 "HOMO_LUMO_gap": 0.16589, 
			 "cosmo_polarized_energy": -16.24, 
			 "cosmo_cavitation_energy": 30.57, 
			 "cosmo_dispersion_energy": -22.36, 
			 "cosmo_repulsion_energy": 1.69, 
			 "cosmo_total_nonelectrostatic_energy": 9.9, 
			 "SMD_solvation_energy": 5.22 
		},
		"coords": [
			{
				"x": -3.7016338289,
				"y": -0.1050017503,
				"z": -0.0199061956,
				"element": "C" 
			},
			{
				"x": -2.3936060508,
				"y": 0.6043233477,
				"z": 0.1064083241,
				"element": "C" 
			},
			{
				"x": -2.0843413799,
				"y": 1.9257581636,
				"z": -0.0551458216,
				"element": "C" 
			},
			{
				"x": -0.6692749198,
				"y": 2.0921737248,
				"z": 0.1369508415,
				"element": "C" 
			},
			{
				"x": 0.1053880723,
				"y": 3.346495444,
				"z": 0.0860487751,
				"element": "C" 
			},
			{
				"x": -0.6293363067,
				"y": 4.4963409086,
				"z": 0.1026404688,
				"element": "O" 
			},
			{
				"x": 1.3152918516,
				"y": 3.4211765042,
				"z": 0.0300286974,
				"element": "O" 
			},
			{
				"x": -0.132702729,
				"y": 0.843822933,
				"z": 0.4106157268,
				"element": "C" 
			},
			{
				"x": 1.2708723745,
				"y": 0.4527464083,
				"z": 0.7411776861,
				"element": "C" 
			},
			{
				"x": -1.1896902107,
				"y": -0.0613259631,
				"z": 0.3936750859,
				"element": "N" 
			},
			{
				"x": -1.1030061882,
				"y": -1.4376147178,
				"z": 0.6553122884,
				"element": "C" 
			},
			{
				"x": -1.8267695152,
				"y": -2.0471721418,
				"z": 1.5488412743,
				"element": "N" 
			},
			{
				"x": -1.5818393203,
				"y": -3.3994457233,
				"z": 1.5350946362,
				"element": "C" 
			},
			{
				"x": -0.6616215052,
				"y": -3.8352996394,
				"z": 0.6256199011,
				"element": "C" 
			},
			{
				"x": -0.0681474479,
				"y": -2.4969620011,
				"z": -0.2997891943,
				"element": "S" 
			},
			{
				"x": -3.6732824378,
				"y": -0.883936648,
				"z": -0.7913499543,
				"element": "H" 
			},
			{
				"x": -3.9956436185,
				"y": -0.5866227501,
				"z": 0.9170486526,
				"element": "H" 
			},
			{
				"x": -4.4729105798,
				"y": 0.6161881026,
				"z": -0.3003902861,
				"element": "H" 
			},
			{
				"x": -2.8044219113,
				"y": 2.6838811102,
				"z": -0.3363741735,
				"element": "H" 
			},
			{
				"x": -1.5578281204,
				"y": 4.2909748858,
				"z": 0.2774417201,
				"element": "H" 
			},
			{
				"x": 1.8514867842,
				"y": 1.3597482694,
				"z": 0.9059876945,
				"element": "H" 
			},
			{
				"x": 1.3125827415,
				"y": -0.1813460022,
				"z": 1.6334510136,
				"element": "H" 
			},
			{
				"x": 1.750336502,
				"y": -0.095936684,
				"z": -0.0778204135,
				"element": "H" 
			},
			{
				"x": -2.1052768978,
				"y": -4.0353173908,
				"z": 2.2388969284,
				"element": "H" 
			},
			{
				"x": -0.2919253581,
				"y": -4.8379483903,
				"z": 0.4645363239,
				"element": "H" 
			}
		],
		 "valence_orbital": [ 
			{
				"type": "occ",
				"energy": -0.29917,
				"method": "rhf"
			},
			{
				"type": "occ",
				"energy": -0.28286,
				"method": "rhf"
			},
			{
				"type": "occ",
				"energy": -0.25974,
				"method": "rhf"
			},
			{
				"type": "occ",
				"energy": -0.24792,
				"method": "rhf"
			},
			{
				"type": "occ",
				"energy": -0.2196,
				"method": "rhf"
			},
			{
				"type": "unocc",
				"energy": -0.05371,
				"method": "rhf"
			},
			{
				"type": "unocc",
				"energy": -0.01427,
				"method": "rhf"
			},
			{
				"type": "unocc",
				"energy": 0.00057,
				"method": "rhf"
			},
			{
				"type": "unocc",
				"energy": 0.021,
				"method": "rhf"
			},
			{
				"type": "unocc",
				"energy": 0.03483,
				"method": "rhf"
			}
		],
		"cosmo_sigma_profile": { 
			"-0.025": 0.0,
			"-0.024": 0.0,
			"-0.023": 0.0,
			"-0.022": 0.0,
			"-0.021": 0.0,
			"-0.02": 0.0,
			"-0.019": 0.0,
			"-0.018": 0.178078838723,
			"-0.017": 0.921132376861,
			"-0.016": 0.895383020537,
			"-0.015": 0.639206291726,
			"-0.014": 0.968918996058,
			"-0.013": 0.72222273718,
			"-0.012": 1.2592164801,
			"-0.011": 1.53626326839,
			"-0.01": 2.18455816337,
			"-0.009": 3.19534568152,
			"-0.008": 5.1108480076,
			"-0.007": 5.76801479526,
			"-0.006": 6.77126900567,
			"-0.005": 14.7073951302,
			"-0.004": 16.0721502198,
			"-0.003": 17.3397901829,
			"-0.002": 18.1579177869,
			"-0.001": 26.8624698067,
			"0.0": 24.0093028935,
			"0.001": 16.9602755375,
			"0.002": 15.8372448841,
			"0.003": 13.9701251679,
			"0.004": 8.80265593558,
			"0.005": 7.0979762308,
			"0.006": 4.59429986215,
			"0.007": 3.90318272679,
			"0.008": 3.09853356858,
			"0.009": 4.70529582717,
			"0.01": 3.67683169075,
			"0.011": 5.72350418682,
			"0.012": 5.73302127209,
			"0.013": 3.63647128342,
			"0.014": 1.40507876533,
			"0.015": 0.0291839929288,
			"0.016": 0.0,
			"0.017": 0.0,
			"0.018": 0.0,
			"0.019": 0.0,
			"0.02": 0.0,
			"0.021": 0.0,
			"0.022": 0.0,
			"0.023": 0.0,
			"0.024": 0.0,
			"0.025": 0.0
		}
	}
}
