{
	 "smiles": "NC1=C(Cl)C=CC(=C1)S(=O)(=O)NCCCN1CCOCC1", 
	 "Tm": 290.15, 
	 "num_atms": 41, 
	 "gaussian": { 
		 "optdone": 1, 
		 "sigma_profile": "yes", 
		 "theory": "DFT", 
		 "functional": "B3LYP", 
		 "basiset": "6-31G**", 
		 "properties": { 
			 "R2extent": 11918.4876, 
			 "electric_dipole_moment_norm": 5.05760144041, 
			 "electric_quadrupole_moment_norm": 34.0249919597, 
			 "total_energy": -1755.64757269, 
			 "HOMO_LUMO_gap": 0.17407, 
			 "cosmo_polarized_energy": -22.17, 
			 "cosmo_cavitation_energy": 46.08, 
			 "cosmo_dispersion_energy": -32.73, 
			 "cosmo_repulsion_energy": 2.53, 
			 "cosmo_total_nonelectrostatic_energy": 15.89, 
			 "SMD_solvation_energy": 3.65 
		},
		"coords": [
			{
				"x": 2.3440173639,
				"y": -3.1152699691,
				"z": 4.344770377,
				"element": "N" 
			},
			{
				"x": 1.3526468975,
				"y": -3.0411040964,
				"z": 3.3885838371,
				"element": "C" 
			},
			{
				"x": 0.0128002037,
				"y": -2.7518549964,
				"z": 3.7183420913,
				"element": "C" 
			},
			{
				"x": -0.3905843163,
				"y": -2.3923945312,
				"z": 5.393543864,
				"element": "Cl" 
			},
			{
				"x": -1.0014305867,
				"y": -2.7418634609,
				"z": 2.7622584587,
				"element": "C" 
			},
			{
				"x": -0.7114708104,
				"y": -3.0130708624,
				"z": 1.4289358912,
				"element": "C" 
			},
			{
				"x": 0.615825054,
				"y": -3.2859127241,
				"z": 1.088430969,
				"element": "C" 
			},
			{
				"x": 1.6332185483,
				"y": -3.3066841384,
				"z": 2.033663243,
				"element": "C" 
			},
			{
				"x": 1.0264454526,
				"y": -3.6602499495,
				"z": -0.6182466902,
				"element": "S" 
			},
			{
				"x": 0.0065178593,
				"y": -4.5526435894,
				"z": -1.1769372102,
				"element": "O" 
			},
			{
				"x": 2.4510788375,
				"y": -4.0174512665,
				"z": -0.6572449924,
				"element": "O" 
			},
			{
				"x": 0.7558519458,
				"y": -2.1727415177,
				"z": -1.379271169,
				"element": "N" 
			},
			{
				"x": 1.8660103175,
				"y": -1.2018908218,
				"z": -1.3972658927,
				"element": "C" 
			},
			{
				"x": 1.411597353,
				"y": 0.1144607117,
				"z": -2.0335110084,
				"element": "C" 
			},
			{
				"x": 0.3180624236,
				"y": 0.8315624079,
				"z": -1.2317620964,
				"element": "C" 
			},
			{
				"x": -0.1916501286,
				"y": 2.0125751438,
				"z": -1.9143566723,
				"element": "N" 
			},
			{
				"x": 0.8032335793,
				"y": 3.0872676517,
				"z": -2.047957624,
				"element": "C" 
			},
			{
				"x": 0.1089270367,
				"y": 4.4504310313,
				"z": -2.2220209391,
				"element": "C" 
			},
			{
				"x": -1.0654974155,
				"y": 4.3265252883,
				"z": -3.0001871064,
				"element": "O" 
			},
			{
				"x": -2.0546832707,
				"y": 3.5235356606,
				"z": -2.3572133203,
				"element": "C" 
			},
			{
				"x": -1.4456257778,
				"y": 2.5152051484,
				"z": -1.3680322325,
				"element": "C" 
			},
			{
				"x": 2.1635132028,
				"y": -2.6615413662,
				"z": 5.2279277892,
				"element": "H" 
			},
			{
				"x": 3.2954503239,
				"y": -3.0420713598,
				"z": 4.0185177615,
				"element": "H" 
			},
			{
				"x": -2.0166178091,
				"y": -2.5212504784,
				"z": 3.0732701218,
				"element": "H" 
			},
			{
				"x": -1.4910951221,
				"y": -3.0199282831,
				"z": 0.6769222546,
				"element": "H" 
			},
			{
				"x": 2.6443389934,
				"y": -3.5488310644,
				"z": 1.7230573344,
				"element": "H" 
			},
			{
				"x": 0.3861040752,
				"y": -2.3841960224,
				"z": -2.305149011,
				"element": "H" 
			},
			{
				"x": 2.1655695929,
				"y": -1.0293909222,
				"z": -0.3572552166,
				"element": "H" 
			},
			{
				"x": 2.7413412509,
				"y": -1.600654307,
				"z": -1.9242814974,
				"element": "H" 
			},
			{
				"x": 2.2962899065,
				"y": 0.7535579331,
				"z": -2.1339344947,
				"element": "H" 
			},
			{
				"x": 1.043680399,
				"y": -0.066459349,
				"z": -3.052010193,
				"element": "H" 
			},
			{
				"x": 0.7138176361,
				"y": 1.0740193274,
				"z": -0.2227666965,
				"element": "H" 
			},
			{
				"x": -0.5156917871,
				"y": 0.1380749016,
				"z": -1.0818837004,
				"element": "H" 
			},
			{
				"x": 1.4677462299,
				"y": 3.144973526,
				"z": -1.1630514861,
				"element": "H" 
			},
			{
				"x": 1.4379128718,
				"y": 2.8802538878,
				"z": -2.9174174955,
				"element": "H" 
			},
			{
				"x": -0.1167800044,
				"y": 4.8964261855,
				"z": -1.2399193619,
				"element": "H" 
			},
			{
				"x": 0.766825542,
				"y": 5.1459952009,
				"z": -2.7504440685,
				"element": "H" 
			},
			{
				"x": -2.5784209277,
				"y": 2.9928824549,
				"z": -3.1587974228,
				"element": "H" 
			},
			{
				"x": -2.7833153314,
				"y": 4.1627180071,
				"z": -1.8327581331,
				"element": "H" 
			},
			{
				"x": -2.1418167648,
				"y": 1.6793199736,
				"z": -1.2409566479,
				"element": "H" 
			},
			{
				"x": -1.3235428445,
				"y": 2.9737706348,
				"z": -0.3669916132,
				"element": "H" 
			}
		],
		 "valence_orbital": [ 
			{
				"type": "occ",
				"energy": -0.27739,
				"method": "rhf"
			},
			{
				"type": "occ",
				"energy": -0.26284,
				"method": "rhf"
			},
			{
				"type": "occ",
				"energy": -0.24885,
				"method": "rhf"
			},
			{
				"type": "occ",
				"energy": -0.22506,
				"method": "rhf"
			},
			{
				"type": "occ",
				"energy": -0.21401,
				"method": "rhf"
			},
			{
				"type": "unocc",
				"energy": -0.03994,
				"method": "rhf"
			},
			{
				"type": "unocc",
				"energy": -0.01381,
				"method": "rhf"
			},
			{
				"type": "unocc",
				"energy": 0.01771,
				"method": "rhf"
			},
			{
				"type": "unocc",
				"energy": 0.05879,
				"method": "rhf"
			},
			{
				"type": "unocc",
				"energy": 0.07103,
				"method": "rhf"
			}
		],
		"cosmo_sigma_profile": { 
			"-0.025": 0.0,
			"-0.024": 0.0,
			"-0.023": 0.0,
			"-0.022": 0.0,
			"-0.021": 0.0,
			"-0.02": 0.0,
			"-0.019": 0.0,
			"-0.018": 0.0,
			"-0.017": 0.0,
			"-0.016": 0.0,
			"-0.015": 0.0,
			"-0.014": 1.78623855894,
			"-0.013": 2.28710793728,
			"-0.012": 4.14142687366,
			"-0.011": 3.74835700574,
			"-0.01": 4.39711152414,
			"-0.009": 2.35920957512,
			"-0.008": 5.34419013224,
			"-0.007": 6.19589828491,
			"-0.006": 7.63204575025,
			"-0.005": 12.1509088669,
			"-0.004": 28.8646145482,
			"-0.003": 45.9882216176,
			"-0.002": 40.9538165077,
			"-0.001": 30.9114411602,
			"0.0": 22.7326452631,
			"0.001": 21.1272832992,
			"0.002": 24.5933518194,
			"0.003": 18.2670447045,
			"0.004": 15.4356829588,
			"0.005": 8.65892414742,
			"0.006": 6.23286496352,
			"0.007": 5.85452644484,
			"0.008": 5.68932608055,
			"0.009": 6.20262772258,
			"0.01": 7.93552798426,
			"0.011": 13.2177077114,
			"0.012": 6.59813895901,
			"0.013": 2.55346752137,
			"0.014": 1.23272252611,
			"0.015": 0.287769571128,
			"0.016": 0.0111208448669,
			"0.017": 0.0,
			"0.018": 0.0,
			"0.019": 0.0,
			"0.02": 0.0,
			"0.021": 0.0,
			"0.022": 0.0,
			"0.023": 0.0,
			"0.024": 0.0,
			"0.025": 0.0
		}
	}
}
