{
	 "smiles": "CC(=O)OC1=CC=C(Cl)C=C1", 
	 "Tm": 282.15, 
	 "num_atms": 18, 
	 "gaussian": { 
		 "optdone": 1, 
		 "sigma_profile": "yes", 
		 "theory": "DFT", 
		 "functional": "B3LYP", 
		 "basiset": "6-31G**", 
		 "properties": { 
			 "R2extent": 3458.986, 
			 "electric_dipole_moment_norm": 2.89533653657, 
			 "electric_quadrupole_moment_norm": 6.10088621759, 
			 "total_energy": -919.719244243, 
			 "HOMO_LUMO_gap": 0.21648, 
			 "cosmo_polarized_energy": -7.31, 
			 "cosmo_cavitation_energy": 24.66, 
			 "cosmo_dispersion_energy": -18.29, 
			 "cosmo_repulsion_energy": 1.49, 
			 "cosmo_total_nonelectrostatic_energy": 7.86, 
			 "SMD_solvation_energy": 5.36 
		},
		"coords": [
			{
				"x": 0.1696280987,
				"y": 3.1904440651,
				"z": -1.4395171359,
				"element": "C" 
			},
			{
				"x": 0.6970518619,
				"y": 1.7799550483,
				"z": -1.5252050829,
				"element": "C" 
			},
			{
				"x": 1.7712119824,
				"y": 1.4500403529,
				"z": -1.9630420711,
				"element": "O" 
			},
			{
				"x": -0.2392444242,
				"y": 0.912979227,
				"z": -1.0213175296,
				"element": "O" 
			},
			{
				"x": -0.0190664688,
				"y": -0.4609828047,
				"z": -0.9485519966,
				"element": "C" 
			},
			{
				"x": 0.6493526893,
				"y": -1.197890938,
				"z": -1.9281687566,
				"element": "C" 
			},
			{
				"x": 0.7487964455,
				"y": -2.5825837265,
				"z": -1.7865422943,
				"element": "C" 
			},
			{
				"x": 0.1803842629,
				"y": -3.2113907649,
				"z": -0.6799357394,
				"element": "C" 
			},
			{
				"x": 0.3112667973,
				"y": -4.9564325276,
				"z": -0.5119711603,
				"element": "Cl" 
			},
			{
				"x": -0.4926645121,
				"y": -2.4762403669,
				"z": 0.2954952865,
				"element": "C" 
			},
			{
				"x": -0.5895842502,
				"y": -1.0935861403,
				"z": 0.1563445906,
				"element": "C" 
			},
			{
				"x": -0.0358969295,
				"y": 3.451175749,
				"z": -0.3971152205,
				"element": "H" 
			},
			{
				"x": -0.7733613741,
				"y": 3.2723342081,
				"z": -1.9878950898,
				"element": "H" 
			},
			{
				"x": 0.9060689952,
				"y": 3.8761466936,
				"z": -1.8567016476,
				"element": "H" 
			},
			{
				"x": 1.0967835747,
				"y": -0.7044681567,
				"z": -2.7793579992,
				"element": "H" 
			},
			{
				"x": 1.2672369582,
				"y": -3.1689950748,
				"z": -2.5368257889,
				"element": "H" 
			},
			{
				"x": -0.9332627818,
				"y": -2.9765132233,
				"z": 1.1504177321,
				"element": "H" 
			},
			{
				"x": -1.1097009255,
				"y": -0.4952916202,
				"z": 0.8967899035,
				"element": "H" 
			}
		],
		 "valence_orbital": [ 
			{
				"type": "occ",
				"energy": -0.31779,
				"method": "rhf"
			},
			{
				"type": "occ",
				"energy": -0.31355,
				"method": "rhf"
			},
			{
				"type": "occ",
				"energy": -0.28617,
				"method": "rhf"
			},
			{
				"type": "occ",
				"energy": -0.26723,
				"method": "rhf"
			},
			{
				"type": "occ",
				"energy": -0.2399,
				"method": "rhf"
			},
			{
				"type": "unocc",
				"energy": -0.02342,
				"method": "rhf"
			},
			{
				"type": "unocc",
				"energy": -0.0183,
				"method": "rhf"
			},
			{
				"type": "unocc",
				"energy": 0.00993,
				"method": "rhf"
			},
			{
				"type": "unocc",
				"energy": 0.02841,
				"method": "rhf"
			},
			{
				"type": "unocc",
				"energy": 0.10009,
				"method": "rhf"
			}
		],
		"cosmo_sigma_profile": { 
			"-0.025": 0.0,
			"-0.024": 0.0,
			"-0.023": 0.0,
			"-0.022": 0.0,
			"-0.021": 0.0,
			"-0.02": 0.0,
			"-0.019": 0.0,
			"-0.018": 0.0,
			"-0.017": 0.0,
			"-0.016": 0.0,
			"-0.015": 0.0,
			"-0.014": 0.0,
			"-0.013": 0.0,
			"-0.012": 0.0,
			"-0.011": 0.0,
			"-0.01": 0.0,
			"-0.009": 0.0,
			"-0.008": 1.64131925164,
			"-0.007": 8.74491678422,
			"-0.006": 14.1942931977,
			"-0.005": 13.1747852174,
			"-0.004": 13.0176624898,
			"-0.003": 13.6531435885,
			"-0.002": 16.4577226469,
			"-0.001": 11.7201302695,
			"0.0": 12.4063833609,
			"0.001": 15.8586906881,
			"0.002": 20.5222399179,
			"0.003": 20.1106700282,
			"0.004": 12.509301845,
			"0.005": 10.2196175809,
			"0.006": 2.36556012955,
			"0.007": 1.62742264784,
			"0.008": 1.93707523726,
			"0.009": 1.94993132977,
			"0.01": 2.95434374573,
			"0.011": 3.49541158403,
			"0.012": 1.3971042749,
			"0.013": 0.0353836682496,
			"0.014": 0.0,
			"0.015": 0.0,
			"0.016": 0.0,
			"0.017": 0.0,
			"0.018": 0.0,
			"0.019": 0.0,
			"0.02": 0.0,
			"0.021": 0.0,
			"0.022": 0.0,
			"0.023": 0.0,
			"0.024": 0.0,
			"0.025": 0.0
		}
	}
}
