{
	 "smiles": "OC(=O)C1=CC=CN=C1N1CCOCC1", 
	 "Tm": 404.15, 
	 "num_atms": 27, 
	 "gaussian": { 
		 "optdone": 1, 
		 "sigma_profile": "yes", 
		 "theory": "DFT", 
		 "functional": "B3LYP", 
		 "basiset": "6-31G**", 
		 "properties": { 
			 "R2extent": 3900.5808, 
			 "electric_dipole_moment_norm": 3.97022721264, 
			 "electric_quadrupole_moment_norm": 17.905941336, 
			 "total_energy": -723.454121326, 
			 "HOMO_LUMO_gap": 0.16413, 
			 "cosmo_polarized_energy": -16.81, 
			 "cosmo_cavitation_energy": 29.29, 
			 "cosmo_dispersion_energy": -21.76, 
			 "cosmo_repulsion_energy": 1.7, 
			 "cosmo_total_nonelectrostatic_energy": 9.23, 
			 "SMD_solvation_energy": 4.39 
		},
		"coords": [
			{
				"x": 3.8987184842,
				"y": -0.2488750996,
				"z": -1.7566555628,
				"element": "O" 
			},
			{
				"x": 2.6137353643,
				"y": -0.0533572252,
				"z": -2.1787805618,
				"element": "C" 
			},
			{
				"x": 2.2323673993,
				"y": -0.5885114435,
				"z": -3.1938960577,
				"element": "O" 
			},
			{
				"x": 1.7952348791,
				"y": 0.8831374506,
				"z": -1.3524490589,
				"element": "C" 
			},
			{
				"x": 2.3891482164,
				"y": 2.0783165648,
				"z": -0.9236985606,
				"element": "C" 
			},
			{
				"x": 1.6188114389,
				"y": 3.122897769,
				"z": -0.4263569376,
				"element": "C" 
			},
			{
				"x": 0.2349334411,
				"y": 2.9389349202,
				"z": -0.4295381187,
				"element": "C" 
			},
			{
				"x": -0.3639037626,
				"y": 1.80482889,
				"z": -0.776992173,
				"element": "N" 
			},
			{
				"x": 0.3789374175,
				"y": 0.7511684069,
				"z": -1.1791159328,
				"element": "C" 
			},
			{
				"x": -0.3062113913,
				"y": -0.4242320863,
				"z": -1.3648363544,
				"element": "N" 
			},
			{
				"x": 0.3016482147,
				"y": -1.7508522108,
				"z": -1.3883799509,
				"element": "C" 
			},
			{
				"x": -0.5400062354,
				"y": -2.7204082271,
				"z": -0.5485269257,
				"element": "C" 
			},
			{
				"x": -1.9014574717,
				"y": -2.7349522532,
				"z": -0.9419065904,
				"element": "O" 
			},
			{
				"x": -2.4743373336,
				"y": -1.441294106,
				"z": -0.7978080249,
				"element": "C" 
			},
			{
				"x": -1.7428971292,
				"y": -0.4204537568,
				"z": -1.6633255214,
				"element": "C" 
			},
			{
				"x": 4.0068864506,
				"y": 0.1213423011,
				"z": -0.8691991074,
				"element": "H" 
			},
			{
				"x": 3.4594782027,
				"y": 2.2162134532,
				"z": -1.0574435983,
				"element": "H" 
			},
			{
				"x": 2.0615148666,
				"y": 4.0603849692,
				"z": -0.1104920798,
				"element": "H" 
			},
			{
				"x": -0.4279934046,
				"y": 3.750989228,
				"z": -0.1329715116,
				"element": "H" 
			},
			{
				"x": 1.3016593782,
				"y": -1.7063268229,
				"z": -0.9524850127,
				"element": "H" 
			},
			{
				"x": 0.4058297485,
				"y": -2.1148332891,
				"z": -2.4178704366,
				"element": "H" 
			},
			{
				"x": -0.4573338583,
				"y": -2.4453118804,
				"z": 0.5167833626,
				"element": "H" 
			},
			{
				"x": -0.1627369496,
				"y": -3.7395869266,
				"z": -0.674807836,
				"element": "H" 
			},
			{
				"x": -2.4438486829,
				"y": -1.1267680927,
				"z": 0.2583801698,
				"element": "H" 
			},
			{
				"x": -3.5197890247,
				"y": -1.5240428428,
				"z": -1.1088730692,
				"element": "H" 
			},
			{
				"x": -1.8813669898,
				"y": -0.6859940103,
				"z": -2.7218754507,
				"element": "H" 
			},
			{
				"x": -2.1291212683,
				"y": 0.5830863205,
				"z": -1.4920790984,
				"element": "H" 
			}
		],
		 "valence_orbital": [ 
			{
				"type": "occ",
				"energy": -0.29224,
				"method": "rhf"
			},
			{
				"type": "occ",
				"energy": -0.27791,
				"method": "rhf"
			},
			{
				"type": "occ",
				"energy": -0.26299,
				"method": "rhf"
			},
			{
				"type": "occ",
				"energy": -0.2603,
				"method": "rhf"
			},
			{
				"type": "occ",
				"energy": -0.21082,
				"method": "rhf"
			},
			{
				"type": "unocc",
				"energy": -0.04669,
				"method": "rhf"
			},
			{
				"type": "unocc",
				"energy": -0.01892,
				"method": "rhf"
			},
			{
				"type": "unocc",
				"energy": 0.03065,
				"method": "rhf"
			},
			{
				"type": "unocc",
				"energy": 0.06328,
				"method": "rhf"
			},
			{
				"type": "unocc",
				"energy": 0.09715,
				"method": "rhf"
			}
		],
		"cosmo_sigma_profile": { 
			"-0.025": 0.0,
			"-0.024": 0.0,
			"-0.023": 0.0,
			"-0.022": 0.0,
			"-0.021": 0.0,
			"-0.02": 0.0,
			"-0.019": 0.0860817872498,
			"-0.018": 0.745550825224,
			"-0.017": 0.955054328695,
			"-0.016": 0.816796235592,
			"-0.015": 1.12449919071,
			"-0.014": 0.868490762854,
			"-0.013": 0.4787417698,
			"-0.012": 1.58260780858,
			"-0.011": 1.24730460462,
			"-0.01": 1.39497854673,
			"-0.009": 1.50177690343,
			"-0.008": 2.4708039945,
			"-0.007": 5.47727520971,
			"-0.006": 11.3421051073,
			"-0.005": 17.4669997839,
			"-0.004": 24.4454502116,
			"-0.003": 23.2446390126,
			"-0.002": 16.2260810007,
			"-0.001": 13.3406663985,
			"0.0": 10.3409627846,
			"0.001": 12.9440512421,
			"0.002": 14.4468404151,
			"0.003": 10.9470934975,
			"0.004": 7.03865582131,
			"0.005": 5.54411449595,
			"0.006": 5.40171952026,
			"0.007": 5.52373329171,
			"0.008": 5.57326122062,
			"0.009": 5.11385170606,
			"0.01": 6.89668085723,
			"0.011": 6.80718087556,
			"0.012": 6.47253352282,
			"0.013": 3.63593735516,
			"0.014": 0.176722742866,
			"0.015": 0.0,
			"0.016": 0.0,
			"0.017": 0.0,
			"0.018": 0.0,
			"0.019": 0.0,
			"0.02": 0.0,
			"0.021": 0.0,
			"0.022": 0.0,
			"0.023": 0.0,
			"0.024": 0.0,
			"0.025": 0.0
		}
	}
}
