{
	 "smiles": "CCC1=C(C=NC(C)=N1)C(O)=O", 
	 "Tm": 432.15, 
	 "num_atms": 22, 
	 "gaussian": { 
		 "optdone": 1, 
		 "sigma_profile": "yes", 
		 "theory": "DFT", 
		 "functional": "B3LYP", 
		 "basiset": "6-31G**", 
		 "properties": { 
			 "R2extent": 2765.7814, 
			 "electric_dipole_moment_norm": 0.829151005547, 
			 "electric_quadrupole_moment_norm": 7.21320327802, 
			 "total_energy": -570.858287837, 
			 "HOMO_LUMO_gap": 0.18763, 
			 "cosmo_polarized_energy": -9.83, 
			 "cosmo_cavitation_energy": 25.93, 
			 "cosmo_dispersion_energy": -19.0, 
			 "cosmo_repulsion_energy": 1.53, 
			 "cosmo_total_nonelectrostatic_energy": 8.46, 
			 "SMD_solvation_energy": 3.04 
		},
		"coords": [
			{
				"x": -3.3970727308,
				"y": -0.2384099545,
				"z": -1.0750628481,
				"element": "C" 
			},
			{
				"x": -2.024801787,
				"y": 0.4126628905,
				"z": -0.8140840524,
				"element": "C" 
			},
			{
				"x": -1.0937213075,
				"y": -0.5163662657,
				"z": -0.0749830602,
				"element": "C" 
			},
			{
				"x": -0.2558467159,
				"y": -1.478153127,
				"z": -0.6830295928,
				"element": "C" 
			},
			{
				"x": 0.5409924311,
				"y": -2.2467726066,
				"z": 0.180106738,
				"element": "C" 
			},
			{
				"x": 0.5216715906,
				"y": -2.121714997,
				"z": 1.503726623,
				"element": "N" 
			},
			{
				"x": -0.3205283566,
				"y": -1.1920620865,
				"z": 1.9932834827,
				"element": "C" 
			},
			{
				"x": -0.3652090877,
				"y": -1.0387634267,
				"z": 3.4877343711,
				"element": "C" 
			},
			{
				"x": -1.1095233681,
				"y": -0.3941159007,
				"z": 1.2636524672,
				"element": "N" 
			},
			{
				"x": -0.1918089731,
				"y": -1.692356559,
				"z": -2.1501499772,
				"element": "C" 
			},
			{
				"x": 0.7889815393,
				"y": -2.5635158509,
				"z": -2.5008776659,
				"element": "O" 
			},
			{
				"x": -0.9116914328,
				"y": -1.1800230253,
				"z": -2.9861489238,
				"element": "O" 
			},
			{
				"x": -4.067258684,
				"y": 0.4808839209,
				"z": -1.5552764333,
				"element": "H" 
			},
			{
				"x": -3.8596079686,
				"y": -0.5628133854,
				"z": -0.1377946484,
				"element": "H" 
			},
			{
				"x": -3.2968812461,
				"y": -1.1010221597,
				"z": -1.7383671635,
				"element": "H" 
			},
			{
				"x": -1.5851979445,
				"y": 0.7132562545,
				"z": -1.7662872791,
				"element": "H" 
			},
			{
				"x": -2.1542726196,
				"y": 1.2945293551,
				"z": -0.1803477998,
				"element": "H" 
			},
			{
				"x": 1.2155838407,
				"y": -2.9933655851,
				"z": -0.2302333164,
				"element": "H" 
			},
			{
				"x": -1.1011071138,
				"y": -0.2867739171,
				"z": 3.7726709387,
				"element": "H" 
			},
			{
				"x": -0.6119439833,
				"y": -1.9966729472,
				"z": 3.9566233512,
				"element": "H" 
			},
			{
				"x": 0.6211980434,
				"y": -0.7473549256,
				"z": 3.8640205019,
				"element": "H" 
			},
			{
				"x": 0.7349458742,
				"y": -2.6437757008,
				"z": -3.4673757131,
				"element": "H" 
			}
		],
		 "valence_orbital": [ 
			{
				"type": "occ",
				"energy": -0.31325,
				"method": "rhf"
			},
			{
				"type": "occ",
				"energy": -0.31109,
				"method": "rhf"
			},
			{
				"type": "occ",
				"energy": -0.28415,
				"method": "rhf"
			},
			{
				"type": "occ",
				"energy": -0.27834,
				"method": "rhf"
			},
			{
				"type": "occ",
				"energy": -0.25061,
				"method": "rhf"
			},
			{
				"type": "unocc",
				"energy": -0.06298,
				"method": "rhf"
			},
			{
				"type": "unocc",
				"energy": -0.04135,
				"method": "rhf"
			},
			{
				"type": "unocc",
				"energy": 0.03409,
				"method": "rhf"
			},
			{
				"type": "unocc",
				"energy": 0.07185,
				"method": "rhf"
			},
			{
				"type": "unocc",
				"energy": 0.11823,
				"method": "rhf"
			}
		],
		"cosmo_sigma_profile": { 
			"-0.025": 0.0,
			"-0.024": 0.0,
			"-0.023": 0.0,
			"-0.022": 0.0,
			"-0.021": 0.0,
			"-0.02": 0.0,
			"-0.019": 0.294493339989,
			"-0.018": 0.709186674837,
			"-0.017": 0.807737404628,
			"-0.016": 1.01675175882,
			"-0.015": 0.655146243616,
			"-0.014": 1.17878445337,
			"-0.013": 0.262794025796,
			"-0.012": 0.648222571044,
			"-0.011": 0.692013141422,
			"-0.01": 0.453229114144,
			"-0.009": 0.504309626426,
			"-0.008": 0.843780325447,
			"-0.007": 2.4422512494,
			"-0.006": 3.40933578754,
			"-0.005": 5.55735348142,
			"-0.004": 11.1422555347,
			"-0.003": 23.6448464876,
			"-0.002": 32.5965450359,
			"-0.001": 29.4149742014,
			"0.0": 19.1978314014,
			"0.001": 13.2700877784,
			"0.002": 8.21196101541,
			"0.003": 5.70929928814,
			"0.004": 5.83442229046,
			"0.005": 5.98262788324,
			"0.006": 6.2318452679,
			"0.007": 3.3494485642,
			"0.008": 3.94022536003,
			"0.009": 3.94127579534,
			"0.01": 3.04689893134,
			"0.011": 4.28253944812,
			"0.012": 3.43853213045,
			"0.013": 1.1499698976,
			"0.014": 1.04714911386,
			"0.015": 0.510663629708,
			"0.016": 0.0626159558046,
			"0.017": 0.0,
			"0.018": 0.0,
			"0.019": 0.0,
			"0.02": 0.0,
			"0.021": 0.0,
			"0.022": 0.0,
			"0.023": 0.0,
			"0.024": 0.0,
			"0.025": 0.0
		}
	}
}
