{
	 "smiles": "COC(=O)C1=CC=C(OC2=C(N)C=C(Cl)C=C2)C=C1", 
	 "Tm": 357.15, 
	 "num_atms": 31, 
	 "gaussian": { 
		 "optdone": 1, 
		 "sigma_profile": "yes", 
		 "theory": "DFT", 
		 "functional": "B3LYP", 
		 "basiset": "6-31G**", 
		 "properties": { 
			 "R2extent": 10006.0825, 
			 "electric_dipole_moment_norm": 2.83665991441, 
			 "electric_quadrupole_moment_norm": 16.0810212347, 
			 "total_energy": -1281.34611768, 
			 "HOMO_LUMO_gap": 0.17126, 
			 "cosmo_polarized_energy": -13.58, 
			 "cosmo_cavitation_energy": 38.23, 
			 "cosmo_dispersion_energy": -27.47, 
			 "cosmo_repulsion_energy": 2.13, 
			 "cosmo_total_nonelectrostatic_energy": 12.89, 
			 "SMD_solvation_energy": 7.85 
		},
		"coords": [
			{
				"x": -2.2020409847,
				"y": -0.6585803986,
				"z": 5.2093526268,
				"element": "C" 
			},
			{
				"x": -1.3629094409,
				"y": -0.4355877906,
				"z": 4.0668635102,
				"element": "O" 
			},
			{
				"x": -1.9008108814,
				"y": -0.8002562742,
				"z": 2.8778568678,
				"element": "C" 
			},
			{
				"x": -3.0138084942,
				"y": -1.2810920119,
				"z": 2.7759083109,
				"element": "O" 
			},
			{
				"x": -0.9835442501,
				"y": -0.5451563483,
				"z": 1.7375132566,
				"element": "C" 
			},
			{
				"x": 0.2944595482,
				"y": 0.0123333355,
				"z": 1.9002588504,
				"element": "C" 
			},
			{
				"x": 1.1121660854,
				"y": 0.2267963639,
				"z": 0.7982482297,
				"element": "C" 
			},
			{
				"x": 0.6572569784,
				"y": -0.1134722985,
				"z": -0.4819417459,
				"element": "C" 
			},
			{
				"x": 1.5210207269,
				"y": 0.1748884711,
				"z": -1.5151879629,
				"element": "O" 
			},
			{
				"x": 1.3354242647,
				"y": -0.3946138763,
				"z": -2.7722956717,
				"element": "C" 
			},
			{
				"x": 1.1569274621,
				"y": 0.496541607,
				"z": -3.8498703389,
				"element": "C" 
			},
			{
				"x": 1.1688474982,
				"y": 1.8637812587,
				"z": -3.6336459454,
				"element": "N" 
			},
			{
				"x": 1.027892934,
				"y": -0.0486437277,
				"z": -5.1385478052,
				"element": "C" 
			},
			{
				"x": 1.0831933748,
				"y": -1.4271973501,
				"z": -5.3188656988,
				"element": "C" 
			},
			{
				"x": 0.9092677063,
				"y": -2.0741308434,
				"z": -6.9462389803,
				"element": "Cl" 
			},
			{
				"x": 1.2763390944,
				"y": -2.3060280314,
				"z": -4.2536848417,
				"element": "C" 
			},
			{
				"x": 1.4095086436,
				"y": -1.7683256476,
				"z": -2.9728272431,
				"element": "C" 
			},
			{
				"x": -0.6159764524,
				"y": -0.6670979101,
				"z": -0.6618094641,
				"element": "C" 
			},
			{
				"x": -1.4247466282,
				"y": -0.8784945358,
				"z": 0.4502511434,
				"element": "C" 
			},
			{
				"x": -1.625905924,
				"y": -0.316641323,
				"z": 6.0692748312,
				"element": "H" 
			},
			{
				"x": -3.132746778,
				"y": -0.0922900117,
				"z": 5.1212302483,
				"element": "H" 
			},
			{
				"x": -2.4458238136,
				"y": -1.719458074,
				"z": 5.3080714891,
				"element": "H" 
			},
			{
				"x": 0.6426757938,
				"y": 0.2716282042,
				"z": 2.8933288519,
				"element": "H" 
			},
			{
				"x": 2.104260632,
				"y": 0.6529477179,
				"z": 0.9037254164,
				"element": "H" 
			},
			{
				"x": 1.0444651416,
				"y": 2.150471265,
				"z": -2.6738492053,
				"element": "H" 
			},
			{
				"x": 0.6768961723,
				"y": 2.4324985222,
				"z": -4.3062410746,
				"element": "H" 
			},
			{
				"x": 0.8919246179,
				"y": 0.6074640028,
				"z": -5.9916737095,
				"element": "H" 
			},
			{
				"x": 1.3265212001,
				"y": -3.3751331549,
				"z": -4.419490625,
				"element": "H" 
			},
			{
				"x": 1.5646242186,
				"y": -2.4182590739,
				"z": -2.117673658,
				"element": "H" 
			},
			{
				"x": -0.9646677846,
				"y": -0.9263762105,
				"z": -1.6544860649,
				"element": "H" 
			},
			{
				"x": -2.4163906611,
				"y": -1.3038158556,
				"z": 0.3378464028,
				"element": "H" 
			}
		],
		 "valence_orbital": [ 
			{
				"type": "occ",
				"energy": -0.27223,
				"method": "rhf"
			},
			{
				"type": "occ",
				"energy": -0.26586,
				"method": "rhf"
			},
			{
				"type": "occ",
				"energy": -0.25351,
				"method": "rhf"
			},
			{
				"type": "occ",
				"energy": -0.23693,
				"method": "rhf"
			},
			{
				"type": "occ",
				"energy": -0.21304,
				"method": "rhf"
			},
			{
				"type": "unocc",
				"energy": -0.04178,
				"method": "rhf"
			},
			{
				"type": "unocc",
				"energy": -0.01954,
				"method": "rhf"
			},
			{
				"type": "unocc",
				"energy": -0.00952,
				"method": "rhf"
			},
			{
				"type": "unocc",
				"energy": 0.0022,
				"method": "rhf"
			},
			{
				"type": "unocc",
				"energy": 0.0294,
				"method": "rhf"
			}
		],
		"cosmo_sigma_profile": { 
			"-0.025": 0.0,
			"-0.024": 0.0,
			"-0.023": 0.0,
			"-0.022": 0.0,
			"-0.021": 0.0,
			"-0.02": 0.0,
			"-0.019": 0.0,
			"-0.018": 0.0,
			"-0.017": 0.0,
			"-0.016": 0.0,
			"-0.015": 0.0,
			"-0.014": 0.0953619519053,
			"-0.013": 1.32060238229,
			"-0.012": 1.79171480502,
			"-0.011": 2.7267823796,
			"-0.01": 2.88298242653,
			"-0.009": 2.63568419721,
			"-0.008": 2.69735287259,
			"-0.007": 9.1520134821,
			"-0.006": 15.1558360121,
			"-0.005": 19.7672044702,
			"-0.004": 19.4987966275,
			"-0.003": 20.7206234043,
			"-0.002": 21.147317299,
			"-0.001": 18.1073993327,
			"0.0": 17.5807799077,
			"0.001": 23.3319818258,
			"0.002": 28.7705625061,
			"0.003": 34.1942457722,
			"0.004": 25.9923960945,
			"0.005": 14.9117807038,
			"0.006": 5.52727544451,
			"0.007": 3.15239351975,
			"0.008": 2.78030984345,
			"0.009": 1.89806091629,
			"0.01": 2.74983755291,
			"0.011": 3.30844452581,
			"0.012": 5.10729276028,
			"0.013": 1.07514082797,
			"0.014": 0.0,
			"0.015": 0.0,
			"0.016": 0.0,
			"0.017": 0.0,
			"0.018": 0.0,
			"0.019": 0.0,
			"0.02": 0.0,
			"0.021": 0.0,
			"0.022": 0.0,
			"0.023": 0.0,
			"0.024": 0.0,
			"0.025": 0.0
		}
	}
}
