{
	 "smiles": "CC(C)(C)SC1(CC1(SC(C)(C)C)C#N)C#N", 
	 "Tm": 377.15, 
	 "num_atms": 37, 
	 "gaussian": { 
		 "optdone": 1, 
		 "sigma_profile": "yes", 
		 "theory": "DFT", 
		 "functional": "B3LYP", 
		 "basiset": "6-31G**", 
		 "properties": { 
			 "R2extent": 6321.8206, 
			 "electric_dipole_moment_norm": 5.45690845534, 
			 "electric_quadrupole_moment_norm": 25.5131508385, 
			 "total_energy": -1413.2521557, 
			 "HOMO_LUMO_gap": 0.20514, 
			 "cosmo_polarized_energy": -14.43, 
			 "cosmo_cavitation_energy": 40.85, 
			 "cosmo_dispersion_energy": -26.77, 
			 "cosmo_repulsion_energy": 1.99, 
			 "cosmo_total_nonelectrostatic_energy": 16.07, 
			 "SMD_solvation_energy": 8.41 
		},
		"coords": [
			{
				"x": 4.4756606931,
				"y": 0.4620545132,
				"z": 1.754330139,
				"element": "C" 
			},
			{
				"x": 3.8365533126,
				"y": 0.7743510679,
				"z": 0.3970216851,
				"element": "C" 
			},
			{
				"x": 4.2723201174,
				"y": -0.2412111088,
				"z": -0.669178827,
				"element": "C" 
			},
			{
				"x": 4.2042556444,
				"y": 2.1998373568,
				"z": -0.0518622653,
				"element": "C" 
			},
			{
				"x": 1.9530590016,
				"y": 0.859152321,
				"z": 0.5172940512,
				"element": "S" 
			},
			{
				"x": 1.4723771067,
				"y": -0.572636572,
				"z": 1.5264911967,
				"element": "C" 
			},
			{
				"x": 1.4431230254,
				"y": -0.4552759949,
				"z": 3.037707301,
				"element": "C" 
			},
			{
				"x": 0.112817473,
				"y": -0.4706539883,
				"z": 2.3168068162,
				"element": "C" 
			},
			{
				"x": -0.8530982028,
				"y": 1.0579608798,
				"z": 2.3832444612,
				"element": "S" 
			},
			{
				"x": -2.1865162949,
				"y": 0.9307767248,
				"z": 1.0454782805,
				"element": "C" 
			},
			{
				"x": -1.6604106184,
				"y": 0.2560910339,
				"z": -0.2254591292,
				"element": "C" 
			},
			{
				"x": -3.4138353841,
				"y": 0.1931530361,
				"z": 1.6014542213,
				"element": "C" 
			},
			{
				"x": -2.5319582942,
				"y": 2.4044278265,
				"z": 0.7698052065,
				"element": "C" 
			},
			{
				"x": -0.6513817644,
				"y": -1.6940480507,
				"z": 2.4199224521,
				"element": "C" 
			},
			{
				"x": -1.2932168589,
				"y": -2.6593242418,
				"z": 2.5081726229,
				"element": "N" 
			},
			{
				"x": 1.7741467638,
				"y": -1.8674184185,
				"z": 0.962027905,
				"element": "C" 
			},
			{
				"x": 2.0443015015,
				"y": -2.8999173579,
				"z": 0.4998568358,
				"element": "N" 
			},
			{
				"x": 4.1682483013,
				"y": 1.1807730619,
				"z": 2.5195993933,
				"element": "H" 
			},
			{
				"x": 4.2317758861,
				"y": -0.5464232997,
				"z": 2.0996133633,
				"element": "H" 
			},
			{
				"x": 5.5663490921,
				"y": 0.5181439234,
				"z": 1.6577801187,
				"element": "H" 
			},
			{
				"x": 3.9989560974,
				"y": -1.2633621853,
				"z": -0.4009383264,
				"element": "H" 
			},
			{
				"x": 3.8213646322,
				"y": -0.0107702271,
				"z": -1.6381993621,
				"element": "H" 
			},
			{
				"x": 5.36291546,
				"y": -0.202199637,
				"z": -0.7823444238,
				"element": "H" 
			},
			{
				"x": 3.9364326476,
				"y": 2.9428964591,
				"z": 0.7045739937,
				"element": "H" 
			},
			{
				"x": 5.2853335143,
				"y": 2.2545885874,
				"z": -0.2219677629,
				"element": "H" 
			},
			{
				"x": 3.7079923676,
				"y": 2.4666679888,
				"z": -0.9907405015,
				"element": "H" 
			},
			{
				"x": 1.7584587366,
				"y": 0.5002770582,
				"z": 3.4421431472,
				"element": "H" 
			},
			{
				"x": 1.6989839032,
				"y": -1.32760566,
				"z": 3.6310648538,
				"element": "H" 
			},
			{
				"x": -0.7741717545,
				"y": 0.7610178849,
				"z": -0.6178258159,
				"element": "H" 
			},
			{
				"x": -2.4425472583,
				"y": 0.2943928039,
				"z": -0.9929895654,
				"element": "H" 
			},
			{
				"x": -1.4201895579,
				"y": -0.7980280778,
				"z": -0.062831956,
				"element": "H" 
			},
			{
				"x": -4.2109328119,
				"y": 0.1980793526,
				"z": 0.8477261931,
				"element": "H" 
			},
			{
				"x": -3.1894620805,
				"y": -0.8469446878,
				"z": 1.8458631875,
				"element": "H" 
			},
			{
				"x": -3.7945345351,
				"y": 0.6839562124,
				"z": 2.5015959532,
				"element": "H" 
			},
			{
				"x": -3.3669978397,
				"y": 2.4498843884,
				"z": 0.0616592919,
				"element": "H" 
			},
			{
				"x": -2.8446460948,
				"y": 2.9242282134,
				"z": 1.681780478,
				"element": "H" 
			},
			{
				"x": -1.6831259276,
				"y": 2.9418088129,
				"z": 0.3384247873,
				"element": "H" 
			}
		],
		 "valence_orbital": [ 
			{
				"type": "occ",
				"energy": -0.32157,
				"method": "rhf"
			},
			{
				"type": "occ",
				"energy": -0.3089,
				"method": "rhf"
			},
			{
				"type": "occ",
				"energy": -0.29468,
				"method": "rhf"
			},
			{
				"type": "occ",
				"energy": -0.25626,
				"method": "rhf"
			},
			{
				"type": "occ",
				"energy": -0.23558,
				"method": "rhf"
			},
			{
				"type": "unocc",
				"energy": -0.03044,
				"method": "rhf"
			},
			{
				"type": "unocc",
				"energy": -0.01443,
				"method": "rhf"
			},
			{
				"type": "unocc",
				"energy": 0.01126,
				"method": "rhf"
			},
			{
				"type": "unocc",
				"energy": 0.02467,
				"method": "rhf"
			},
			{
				"type": "unocc",
				"energy": 0.02895,
				"method": "rhf"
			}
		],
		"cosmo_sigma_profile": { 
			"-0.025": 0.0,
			"-0.024": 0.0,
			"-0.023": 0.0,
			"-0.022": 0.0,
			"-0.021": 0.0,
			"-0.02": 0.0,
			"-0.019": 0.0,
			"-0.018": 0.0,
			"-0.017": 0.0,
			"-0.016": 0.0,
			"-0.015": 0.0,
			"-0.014": 0.0,
			"-0.013": 0.0,
			"-0.012": 0.0,
			"-0.011": 0.00944024012917,
			"-0.01": 1.43262361146,
			"-0.009": 3.0250017316,
			"-0.008": 3.77474010326,
			"-0.007": 3.29375671218,
			"-0.006": 5.27079622608,
			"-0.005": 13.2893651146,
			"-0.004": 34.9993785754,
			"-0.003": 34.5828837959,
			"-0.002": 33.5463609487,
			"-0.001": 39.0973066121,
			"0.0": 45.6033641278,
			"0.001": 20.5374262293,
			"0.002": 10.6969641233,
			"0.003": 10.7912063074,
			"0.004": 10.4376229247,
			"0.005": 7.49447636303,
			"0.006": 8.83146991084,
			"0.007": 8.04270415254,
			"0.008": 7.37049285799,
			"0.009": 6.62491550338,
			"0.01": 5.28496226518,
			"0.011": 5.11040092465,
			"0.012": 3.68189121285,
			"0.013": 0.397021347695,
			"0.014": 0.0,
			"0.015": 0.0,
			"0.016": 0.0,
			"0.017": 0.0,
			"0.018": 0.0,
			"0.019": 0.0,
			"0.02": 0.0,
			"0.021": 0.0,
			"0.022": 0.0,
			"0.023": 0.0,
			"0.024": 0.0,
			"0.025": 0.0
		}
	}
}
