{
	 "smiles": "CN1CCN(CC1)C1=C(CO)C=C(Br)C=N1", 
	 "Tm": 414.15, 
	 "num_atms": 32, 
	 "gaussian": { 
		 "optdone": 1, 
		 "sigma_profile": "yes", 
		 "theory": "DFT", 
		 "functional": "B3LYP", 
		 "basiset": "6-31G**", 
		 "properties": { 
			 "R2extent": 8694.0787, 
			 "electric_dipole_moment_norm": 4.34154914403, 
			 "electric_quadrupole_moment_norm": 15.5594354618, 
			 "total_energy": -3239.66191053, 
			 "HOMO_LUMO_gap": 0.16463, 
			 "cosmo_polarized_energy": -12.11, 
			 "cosmo_cavitation_energy": 34.94, 
			 "cosmo_dispersion_energy": -25.92, 
			 "cosmo_repulsion_energy": 2.03, 
			 "cosmo_total_nonelectrostatic_energy": 11.05, 
			 "SMD_solvation_energy": 0.39 
		},
		"coords": [
			{
				"x": 2.2594537536,
				"y": -0.5993948224,
				"z": -2.3343613957,
				"element": "C" 
			},
			{
				"x": 1.6935185732,
				"y": 0.2138117622,
				"z": -1.2645540125,
				"element": "N" 
			},
			{
				"x": 0.2888654728,
				"y": 0.5689176768,
				"z": -1.4618359543,
				"element": "C" 
			},
			{
				"x": -0.696945136,
				"y": -0.5788612629,
				"z": -1.1570418151,
				"element": "C" 
			},
			{
				"x": -0.4851933655,
				"y": -1.1224113142,
				"z": 0.195930179,
				"element": "N" 
			},
			{
				"x": 0.9238468437,
				"y": -1.4914455253,
				"z": 0.4129764251,
				"element": "C" 
			},
			{
				"x": 1.8886341302,
				"y": -0.3390460223,
				"z": 0.0815277194,
				"element": "C" 
			},
			{
				"x": -1.197287762,
				"y": -0.5814663894,
				"z": 1.2761091357,
				"element": "C" 
			},
			{
				"x": -2.6196780845,
				"y": -0.6051984698,
				"z": 1.3008174466,
				"element": "C" 
			},
			{
				"x": -3.4405701131,
				"y": -1.2971114396,
				"z": 0.237094658,
				"element": "C" 
			},
			{
				"x": -4.6791481826,
				"y": -1.7045991468,
				"z": 0.8031854494,
				"element": "O" 
			},
			{
				"x": -3.2584804542,
				"y": -0.0528237987,
				"z": 2.4067493285,
				"element": "C" 
			},
			{
				"x": -2.4965344723,
				"y": 0.4573290018,
				"z": 3.4560052773,
				"element": "C" 
			},
			{
				"x": -3.3357073777,
				"y": 1.2235388901,
				"z": 4.9900815088,
				"element": "Br" 
			},
			{
				"x": -1.1118035002,
				"y": 0.3683237598,
				"z": 3.3877794188,
				"element": "C" 
			},
			{
				"x": -0.4839399197,
				"y": -0.1262319181,
				"z": 2.3188714154,
				"element": "N" 
			},
			{
				"x": 1.8190930528,
				"y": -1.6053403938,
				"z": -2.4580073569,
				"element": "H" 
			},
			{
				"x": 2.1448251044,
				"y": -0.0708934997,
				"z": -3.2870808375,
				"element": "H" 
			},
			{
				"x": 3.3316221233,
				"y": -0.7315055623,
				"z": -2.1541518909,
				"element": "H" 
			},
			{
				"x": 0.147552723,
				"y": 0.9161472687,
				"z": -2.492685148,
				"element": "H" 
			},
			{
				"x": 0.0545430878,
				"y": 1.4106689287,
				"z": -0.7957498919,
				"element": "H" 
			},
			{
				"x": -1.7190894816,
				"y": -0.2110348333,
				"z": -1.2576926253,
				"element": "H" 
			},
			{
				"x": -0.5701517199,
				"y": -1.3944836227,
				"z": -1.8810690896,
				"element": "H" 
			},
			{
				"x": 1.0469608594,
				"y": -1.8042612537,
				"z": 1.4503819292,
				"element": "H" 
			},
			{
				"x": 1.1308703235,
				"y": -2.356358234,
				"z": -0.2318622474,
				"element": "H" 
			},
			{
				"x": 2.9271739823,
				"y": -0.6764204528,
				"z": 0.178333055,
				"element": "H" 
			},
			{
				"x": 1.7276160369,
				"y": 0.4625424162,
				"z": 0.8108182573,
				"element": "H" 
			},
			{
				"x": -2.8615078357,
				"y": -2.1525559242,
				"z": -0.1444046975,
				"element": "H" 
			},
			{
				"x": -3.6204841906,
				"y": -0.6229146663,
				"z": -0.6173220871,
				"element": "H" 
			},
			{
				"x": -5.2381541888,
				"y": -2.0323022192,
				"z": 0.0885321651,
				"element": "H" 
			},
			{
				"x": -4.3398237278,
				"y": -0.0763122794,
				"z": 2.4601260094,
				"element": "H" 
			},
			{
				"x": -0.4898765546,
				"y": 0.7107933466,
				"z": 4.2110996718,
				"element": "H" 
			}
		],
		 "valence_orbital": [ 
			{
				"type": "occ",
				"energy": -0.27026,
				"method": "rhf"
			},
			{
				"type": "occ",
				"energy": -0.26795,
				"method": "rhf"
			},
			{
				"type": "occ",
				"energy": -0.25853,
				"method": "rhf"
			},
			{
				"type": "occ",
				"energy": -0.22466,
				"method": "rhf"
			},
			{
				"type": "occ",
				"energy": -0.18682,
				"method": "rhf"
			},
			{
				"type": "unocc",
				"energy": -0.02219,
				"method": "rhf"
			},
			{
				"type": "unocc",
				"energy": -0.00726,
				"method": "rhf"
			},
			{
				"type": "unocc",
				"energy": 0.01527,
				"method": "rhf"
			},
			{
				"type": "unocc",
				"energy": 0.0662,
				"method": "rhf"
			},
			{
				"type": "unocc",
				"energy": 0.07507,
				"method": "rhf"
			}
		],
		"cosmo_sigma_profile": { 
			"-0.025": 0.0,
			"-0.024": 0.0,
			"-0.023": 0.0,
			"-0.022": 0.0,
			"-0.021": 0.0,
			"-0.02": 0.0,
			"-0.019": 0.0,
			"-0.018": 0.0,
			"-0.017": 0.0,
			"-0.016": 0.792278195319,
			"-0.015": 1.19950820335,
			"-0.014": 1.11499710189,
			"-0.013": 0.646951614654,
			"-0.012": 1.17349107816,
			"-0.011": 0.821995860705,
			"-0.01": 1.16047177926,
			"-0.009": 0.881385387214,
			"-0.008": 0.853087861246,
			"-0.007": 3.55980768821,
			"-0.006": 6.27650519381,
			"-0.005": 7.09837386877,
			"-0.004": 23.7862454693,
			"-0.003": 34.6424696108,
			"-0.002": 28.4479046356,
			"-0.001": 26.1093110617,
			"0.0": 24.8359351901,
			"0.001": 18.7396288554,
			"0.002": 24.2142907665,
			"0.003": 14.998314008,
			"0.004": 15.9580790211,
			"0.005": 13.5750862553,
			"0.006": 4.63893539822,
			"0.007": 5.05135395323,
			"0.008": 3.19838548751,
			"0.009": 3.73973749833,
			"0.01": 2.44437322341,
			"0.011": 2.6922295187,
			"0.012": 1.40601717472,
			"0.013": 1.51741269228,
			"0.014": 0.513835855378,
			"0.015": 0.652350373503,
			"0.016": 0.554315233907,
			"0.017": 0.0591645473923,
			"0.018": 0.0,
			"0.019": 0.0,
			"0.02": 0.0,
			"0.021": 0.0,
			"0.022": 0.0,
			"0.023": 0.0,
			"0.024": 0.0,
			"0.025": 0.0
		}
	}
}
