{
	 "smiles": "CC1(C)CCCC(C)(C)N1", 
	 "Tm": 301.15, 
	 "num_atms": 29, 
	 "gaussian": { 
		 "optdone": 1, 
		 "sigma_profile": "yes", 
		 "theory": "DFT", 
		 "functional": "B3LYP", 
		 "basiset": "6-31G**", 
		 "properties": { 
			 "R2extent": 1737.7116, 
			 "electric_dipole_moment_norm": 0.905512882294, 
			 "electric_quadrupole_moment_norm": 3.0623067188, 
			 "total_energy": -409.173366112, 
			 "HOMO_LUMO_gap": 0.26621, 
			 "cosmo_polarized_energy": -3.3, 
			 "cosmo_cavitation_energy": 27.1, 
			 "cosmo_dispersion_energy": -19.44, 
			 "cosmo_repulsion_energy": 1.54, 
			 "cosmo_total_nonelectrostatic_energy": 9.2, 
			 "SMD_solvation_energy": 3.45 
		},
		"coords": [
			{
				"x": 2.1928092241,
				"y": 0.2823016736,
				"z": 1.5994585639,
				"element": "C" 
			},
			{
				"x": 1.7771593044,
				"y": 0.6711610222,
				"z": 0.1594406659,
				"element": "C" 
			},
			{
				"x": 2.9180017087,
				"y": 1.4974270108,
				"z": -0.4650623109,
				"element": "C" 
			},
			{
				"x": 0.4849010594,
				"y": 1.5086980001,
				"z": 0.1702980424,
				"element": "C" 
			},
			{
				"x": -0.7619788985,
				"y": 0.7336733876,
				"z": 0.653984204,
				"element": "C" 
			},
			{
				"x": -0.6764519972,
				"y": -0.7846636418,
				"z": 0.3749343808,
				"element": "C" 
			},
			{
				"x": 0.2268866039,
				"y": -1.1365448065,
				"z": -0.8283292326,
				"element": "C" 
			},
			{
				"x": -0.4316678624,
				"y": -0.6787248704,
				"z": -2.1501946566,
				"element": "C" 
			},
			{
				"x": 0.4247396476,
				"y": -2.6596672715,
				"z": -0.8918524375,
				"element": "C" 
			},
			{
				"x": 1.568454822,
				"y": -0.5100767589,
				"z": -0.7092301501,
				"element": "N" 
			},
			{
				"x": 3.1011919661,
				"y": -0.3323415923,
				"z": 1.5792346978,
				"element": "H" 
			},
			{
				"x": 1.4179610657,
				"y": -0.2877533098,
				"z": 2.118287713,
				"element": "H" 
			},
			{
				"x": 2.4141246339,
				"y": 1.1718988632,
				"z": 2.2005617693,
				"element": "H" 
			},
			{
				"x": 3.1294457701,
				"y": 2.3979970707,
				"z": 0.1233449826,
				"element": "H" 
			},
			{
				"x": 3.839458348,
				"y": 0.9058704454,
				"z": -0.5157548684,
				"element": "H" 
			},
			{
				"x": 2.6567724082,
				"y": 1.7938374403,
				"z": -1.4846506933,
				"element": "H" 
			},
			{
				"x": 0.6424633671,
				"y": 2.3975752562,
				"z": 0.7915128057,
				"element": "H" 
			},
			{
				"x": 0.3210829235,
				"y": 1.875001502,
				"z": -0.8492098478,
				"element": "H" 
			},
			{
				"x": -1.6480497811,
				"y": 1.1576100708,
				"z": 0.1687947131,
				"element": "H" 
			},
			{
				"x": -0.9087651011,
				"y": 0.8878191126,
				"z": 1.7288293446,
				"element": "H" 
			},
			{
				"x": -0.279818435,
				"y": -1.3012531407,
				"z": 1.2566558494,
				"element": "H" 
			},
			{
				"x": -1.6800747228,
				"y": -1.1952911986,
				"z": 0.2108287942,
				"element": "H" 
			},
			{
				"x": -0.6019016041,
				"y": 0.4007586957,
				"z": -2.1679494807,
				"element": "H" 
			},
			{
				"x": 0.221837742,
				"y": -0.9217768179,
				"z": -2.9931351185,
				"element": "H" 
			},
			{
				"x": -1.3981195866,
				"y": -1.174198757,
				"z": -2.3017502427,
				"element": "H" 
			},
			{
				"x": 1.0963201224,
				"y": -2.9254805109,
				"z": -1.71619287,
				"element": "H" 
			},
			{
				"x": 0.8581297989,
				"y": -3.0391224253,
				"z": 0.0409006043,
				"element": "H" 
			},
			{
				"x": -0.5273555437,
				"y": -3.1743492047,
				"z": -1.0555383446,
				"element": "H" 
			},
			{
				"x": 2.2631430165,
				"y": -1.2146852446,
				"z": -0.4846168774,
				"element": "H" 
			}
		],
		 "valence_orbital": [ 
			{
				"type": "occ",
				"energy": -0.31891,
				"method": "rhf"
			},
			{
				"type": "occ",
				"energy": -0.31642,
				"method": "rhf"
			},
			{
				"type": "occ",
				"energy": -0.299,
				"method": "rhf"
			},
			{
				"type": "occ",
				"energy": -0.29311,
				"method": "rhf"
			},
			{
				"type": "occ",
				"energy": -0.20035,
				"method": "rhf"
			},
			{
				"type": "unocc",
				"energy": 0.06586,
				"method": "rhf"
			},
			{
				"type": "unocc",
				"energy": 0.10655,
				"method": "rhf"
			},
			{
				"type": "unocc",
				"energy": 0.11032,
				"method": "rhf"
			},
			{
				"type": "unocc",
				"energy": 0.11314,
				"method": "rhf"
			},
			{
				"type": "unocc",
				"energy": 0.12654,
				"method": "rhf"
			}
		],
		"cosmo_sigma_profile": { 
			"-0.025": 0.0,
			"-0.024": 0.0,
			"-0.023": 0.0,
			"-0.022": 0.0,
			"-0.021": 0.0,
			"-0.02": 0.0,
			"-0.019": 0.0,
			"-0.018": 0.0,
			"-0.017": 0.0,
			"-0.016": 0.0,
			"-0.015": 0.0,
			"-0.014": 0.0,
			"-0.013": 0.0,
			"-0.012": 0.0,
			"-0.011": 0.0,
			"-0.01": 0.0,
			"-0.009": 0.0,
			"-0.008": 0.426407659073,
			"-0.007": 1.12792704963,
			"-0.006": 1.43894993657,
			"-0.005": 1.39144228647,
			"-0.004": 2.36937405702,
			"-0.003": 12.2901341283,
			"-0.002": 38.7164079831,
			"-0.001": 38.4679429281,
			"0.0": 34.7857523635,
			"0.001": 36.119763075,
			"0.002": 25.3799952181,
			"0.003": 4.23852371284,
			"0.004": 1.26481966461,
			"0.005": 0.968334760208,
			"0.006": 1.14028567326,
			"0.007": 1.19724560975,
			"0.008": 0.933661545482,
			"0.009": 0.416686995663,
			"0.01": 0.448751111118,
			"0.011": 0.701423135146,
			"0.012": 0.601218592639,
			"0.013": 0.846718459804,
			"0.014": 0.434050834716,
			"0.015": 0.603846393266,
			"0.016": 0.201457484856,
			"0.017": 0.247090491799,
			"0.018": 0.0,
			"0.019": 0.0,
			"0.02": 0.0,
			"0.021": 0.0,
			"0.022": 0.0,
			"0.023": 0.0,
			"0.024": 0.0,
			"0.025": 0.0
		}
	}
}
