{
	 "smiles": "O=CC1=CN(CC2=CC=CC=C2)N=C1", 
	 "Tm": 317.15, 
	 "num_atms": 24, 
	 "gaussian": { 
		 "optdone": 1, 
		 "sigma_profile": "yes", 
		 "theory": "DFT", 
		 "functional": "B3LYP", 
		 "basiset": "6-31G**", 
		 "properties": { 
			 "R2extent": 3743.7581, 
			 "electric_dipole_moment_norm": 5.11785466187, 
			 "electric_quadrupole_moment_norm": 22.2061085107, 
			 "total_energy": -609.892724916, 
			 "HOMO_LUMO_gap": 0.20605, 
			 "cosmo_polarized_energy": -13.58, 
			 "cosmo_cavitation_energy": 29.2, 
			 "cosmo_dispersion_energy": -20.59, 
			 "cosmo_repulsion_energy": 1.62, 
			 "cosmo_total_nonelectrostatic_energy": 10.23, 
			 "SMD_solvation_energy": 5.58 
		},
		"coords": [
			{
				"x": 1.2397088663,
				"y": 1.4933930642,
				"z": -5.0819002632,
				"element": "O" 
			},
			{
				"x": 1.3994659144,
				"y": 0.7875659591,
				"z": -4.1007348284,
				"element": "C" 
			},
			{
				"x": 0.9639693972,
				"y": 1.1384948516,
				"z": -2.7535952503,
				"element": "C" 
			},
			{
				"x": 1.1132035302,
				"y": 0.3895189482,
				"z": -1.5893602359,
				"element": "C" 
			},
			{
				"x": 0.5777665654,
				"y": 1.1141852772,
				"z": -0.5847609662,
				"element": "N" 
			},
			{
				"x": 0.4179524297,
				"y": 0.7343429748,
				"z": 0.818405354,
				"element": "C" 
			},
			{
				"x": -0.8130396697,
				"y": -0.1135476412,
				"z": 1.082153481,
				"element": "C" 
			},
			{
				"x": -0.6929949718,
				"y": -1.3563935109,
				"z": 1.7113874877,
				"element": "C" 
			},
			{
				"x": -1.8256773662,
				"y": -2.1301337164,
				"z": 1.9762118476,
				"element": "C" 
			},
			{
				"x": -3.0878749698,
				"y": -1.6665798444,
				"z": 1.6062554103,
				"element": "C" 
			},
			{
				"x": -3.2140949366,
				"y": -0.4262359051,
				"z": 0.973842293,
				"element": "C" 
			},
			{
				"x": -2.0846465247,
				"y": 0.3483433252,
				"z": 0.7152750864,
				"element": "C" 
			},
			{
				"x": 0.0673188285,
				"y": 2.3024716837,
				"z": -1.0172187052,
				"element": "N" 
			},
			{
				"x": 0.3016233815,
				"y": 2.3190131,
				"z": -2.3218251212,
				"element": "C" 
			},
			{
				"x": 1.9047606931,
				"y": -0.2007676906,
				"z": -4.1857785593,
				"element": "H" 
			},
			{
				"x": 1.5530761844,
				"y": -0.5833168403,
				"z": -1.4202290781,
				"element": "H" 
			},
			{
				"x": 1.3212463262,
				"y": 0.2025127941,
				"z": 1.1305977937,
				"element": "H" 
			},
			{
				"x": 0.3741047594,
				"y": 1.6760963864,
				"z": 1.3715932862,
				"element": "H" 
			},
			{
				"x": 0.2899780366,
				"y": -1.7222175079,
				"z": 1.9994740345,
				"element": "H" 
			},
			{
				"x": -1.719249849,
				"y": -3.0936756335,
				"z": 2.4661632019,
				"element": "H" 
			},
			{
				"x": -3.9699362466,
				"y": -2.267276343,
				"z": 1.8082649503,
				"element": "H" 
			},
			{
				"x": -4.1952279116,
				"y": -0.0612107141,
				"z": 0.6840984892,
				"element": "H" 
			},
			{
				"x": -2.1791136122,
				"y": 1.3111679877,
				"z": 0.2212176855,
				"element": "H" 
			},
			{
				"x": 0.0054811453,
				"y": 3.1659489952,
				"z": -2.9247373936,
				"element": "H" 
			}
		],
		 "valence_orbital": [ 
			{
				"type": "occ",
				"energy": -0.27124,
				"method": "rhf"
			},
			{
				"type": "occ",
				"energy": -0.26147,
				"method": "rhf"
			},
			{
				"type": "occ",
				"energy": -0.26003,
				"method": "rhf"
			},
			{
				"type": "occ",
				"energy": -0.25415,
				"method": "rhf"
			},
			{
				"type": "occ",
				"energy": -0.24667,
				"method": "rhf"
			},
			{
				"type": "unocc",
				"energy": -0.04062,
				"method": "rhf"
			},
			{
				"type": "unocc",
				"energy": -0.01846,
				"method": "rhf"
			},
			{
				"type": "unocc",
				"energy": -0.01174,
				"method": "rhf"
			},
			{
				"type": "unocc",
				"energy": 0.00829,
				"method": "rhf"
			},
			{
				"type": "unocc",
				"energy": 0.08039,
				"method": "rhf"
			}
		],
		"cosmo_sigma_profile": { 
			"-0.025": 0.0,
			"-0.024": 0.0,
			"-0.023": 0.0,
			"-0.022": 0.0,
			"-0.021": 0.0,
			"-0.02": 0.0,
			"-0.019": 0.0,
			"-0.018": 0.0,
			"-0.017": 0.0,
			"-0.016": 0.0,
			"-0.015": 0.0,
			"-0.014": 0.0,
			"-0.013": 0.0,
			"-0.012": 0.0,
			"-0.011": 0.221770502932,
			"-0.01": 2.34865726696,
			"-0.009": 3.18685874553,
			"-0.008": 6.14642700173,
			"-0.007": 8.99080834477,
			"-0.006": 14.4212408048,
			"-0.005": 19.4427659387,
			"-0.004": 17.5523363142,
			"-0.003": 16.054412151,
			"-0.002": 13.3494143996,
			"-0.001": 13.876191427,
			"0.0": 13.7050199877,
			"0.001": 16.7913596364,
			"0.002": 17.5055330865,
			"0.003": 14.4031451595,
			"0.004": 11.1057028629,
			"0.005": 12.7270696899,
			"0.006": 8.44748052088,
			"0.007": 2.29995722705,
			"0.008": 2.25071323404,
			"0.009": 2.25570641935,
			"0.01": 3.11906344554,
			"0.011": 4.61842036502,
			"0.012": 5.55414619266,
			"0.013": 2.96425948734,
			"0.014": 0.710593107711,
			"0.015": 0.239773859207,
			"0.016": 0.0,
			"0.017": 0.0,
			"0.018": 0.0,
			"0.019": 0.0,
			"0.02": 0.0,
			"0.021": 0.0,
			"0.022": 0.0,
			"0.023": 0.0,
			"0.024": 0.0,
			"0.025": 0.0
		}
	}
}
