{
	 "smiles": "CC1=C(N)C=C(C=C1)C(=O)N1CCOCC1", 
	 "Tm": 427.15, 
	 "num_atms": 32, 
	 "gaussian": { 
		 "optdone": 1, 
		 "sigma_profile": "yes", 
		 "theory": "DFT", 
		 "functional": "B3LYP", 
		 "basiset": "6-31G**", 
		 "properties": { 
			 "R2extent": 4946.4548, 
			 "electric_dipole_moment_norm": 3.80963551275, 
			 "electric_quadrupole_moment_norm": 20.2933339341, 
			 "total_energy": -726.871297343, 
			 "HOMO_LUMO_gap": 0.18382, 
			 "cosmo_polarized_energy": -17.04, 
			 "cosmo_cavitation_energy": 33.7, 
			 "cosmo_dispersion_energy": -24.75, 
			 "cosmo_repulsion_energy": 1.93, 
			 "cosmo_total_nonelectrostatic_energy": 10.89, 
			 "SMD_solvation_energy": 5.11 
		},
		"coords": [
			{
				"x": 0.757306498,
				"y": 3.0717420901,
				"z": 3.5510348037,
				"element": "C" 
			},
			{
				"x": 0.903194738,
				"y": 2.1269932071,
				"z": 2.3854134466,
				"element": "C" 
			},
			{
				"x": 1.488284166,
				"y": 2.5737536092,
				"z": 1.1758407143,
				"element": "C" 
			},
			{
				"x": 1.9737362155,
				"y": 3.8794923964,
				"z": 1.0722349691,
				"element": "N" 
			},
			{
				"x": 1.638625546,
				"y": 1.6770270811,
				"z": 0.1109820778,
				"element": "C" 
			},
			{
				"x": 1.2011814541,
				"y": 0.3530471602,
				"z": 0.2088585048,
				"element": "C" 
			},
			{
				"x": 0.6279879272,
				"y": -0.0936217857,
				"z": 1.4063943236,
				"element": "C" 
			},
			{
				"x": 0.4925944583,
				"y": 0.7954227641,
				"z": 2.4728972456,
				"element": "C" 
			},
			{
				"x": 1.4744539343,
				"y": -0.5414196394,
				"z": -0.9686352037,
				"element": "C" 
			},
			{
				"x": 2.5064461377,
				"y": -0.4116383955,
				"z": -1.627304351,
				"element": "O" 
			},
			{
				"x": 0.566179868,
				"y": -1.5281982867,
				"z": -1.2856981459,
				"element": "N" 
			},
			{
				"x": 0.9296114916,
				"y": -2.4052566683,
				"z": -2.4078921035,
				"element": "C" 
			},
			{
				"x": -0.0520546178,
				"y": -3.5669620427,
				"z": -2.4880337581,
				"element": "C" 
			},
			{
				"x": -1.4021344425,
				"y": -3.1475247761,
				"z": -2.6853374708,
				"element": "O" 
			},
			{
				"x": -1.7096619707,
				"y": -1.8770497796,
				"z": -2.1209041896,
				"element": "C" 
			},
			{
				"x": -0.8507857513,
				"y": -1.5460560469,
				"z": -0.9011776423,
				"element": "C" 
			},
			{
				"x": 0.352097429,
				"y": 2.5584093263,
				"z": 4.4264813668,
				"element": "H" 
			},
			{
				"x": 0.0795586135,
				"y": 3.9071496213,
				"z": 3.3226654559,
				"element": "H" 
			},
			{
				"x": 1.7226247865,
				"y": 3.5111796307,
				"z": 3.8315247913,
				"element": "H" 
			},
			{
				"x": 2.1505353386,
				"y": 4.1926627934,
				"z": 0.1278121374,
				"element": "H" 
			},
			{
				"x": 1.4850058924,
				"y": 4.5763433399,
				"z": 1.6163555588,
				"element": "H" 
			},
			{
				"x": 2.1202859715,
				"y": 1.9961808031,
				"z": -0.8087722086,
				"element": "H" 
			},
			{
				"x": 0.3235414503,
				"y": -1.1279040784,
				"z": 1.5230842408,
				"element": "H" 
			},
			{
				"x": 0.0623537491,
				"y": 0.4447347372,
				"z": 3.4079588993,
				"element": "H" 
			},
			{
				"x": 1.9476951182,
				"y": -2.7731650291,
				"z": -2.2544791287,
				"element": "H" 
			},
			{
				"x": 0.9375627365,
				"y": -1.842763999,
				"z": -3.3512396625,
				"element": "H" 
			},
			{
				"x": 0.2052415269,
				"y": -4.2101258526,
				"z": -3.3355502952,
				"element": "H" 
			},
			{
				"x": 0.0236789337,
				"y": -4.1760050477,
				"z": -1.5734900649,
				"element": "H" 
			},
			{
				"x": -2.7663921622,
				"y": -1.902518606,
				"z": -1.8328421512,
				"element": "H" 
			},
			{
				"x": -1.5862332233,
				"y": -1.0845260696,
				"z": -2.875569883,
				"element": "H" 
			},
			{
				"x": -1.1376256636,
				"y": -0.570552306,
				"z": -0.5044791508,
				"element": "H" 
			},
			{
				"x": -1.0392961496,
				"y": -2.2900501509,
				"z": -0.1146331262,
				"element": "H" 
			}
		],
		 "valence_orbital": [ 
			{
				"type": "occ",
				"energy": -0.25513,
				"method": "rhf"
			},
			{
				"type": "occ",
				"energy": -0.2507,
				"method": "rhf"
			},
			{
				"type": "occ",
				"energy": -0.23543,
				"method": "rhf"
			},
			{
				"type": "occ",
				"energy": -0.23026,
				"method": "rhf"
			},
			{
				"type": "occ",
				"energy": -0.20488,
				"method": "rhf"
			},
			{
				"type": "unocc",
				"energy": -0.02106,
				"method": "rhf"
			},
			{
				"type": "unocc",
				"energy": 0.01117,
				"method": "rhf"
			},
			{
				"type": "unocc",
				"energy": 0.06102,
				"method": "rhf"
			},
			{
				"type": "unocc",
				"energy": 0.07343,
				"method": "rhf"
			},
			{
				"type": "unocc",
				"energy": 0.08243,
				"method": "rhf"
			}
		],
		"cosmo_sigma_profile": { 
			"-0.025": 0.0,
			"-0.024": 0.0,
			"-0.023": 0.0,
			"-0.022": 0.0,
			"-0.021": 0.0,
			"-0.02": 0.0,
			"-0.019": 0.0,
			"-0.018": 0.0,
			"-0.017": 0.0,
			"-0.016": 0.0,
			"-0.015": 0.0,
			"-0.014": 0.0,
			"-0.013": 0.125927613994,
			"-0.012": 1.68715624186,
			"-0.011": 2.65048291541,
			"-0.01": 2.75289496204,
			"-0.009": 3.12172247187,
			"-0.008": 3.33104451676,
			"-0.007": 3.05112881093,
			"-0.006": 7.00229745082,
			"-0.005": 24.3132132821,
			"-0.004": 36.827721366,
			"-0.003": 25.8469819668,
			"-0.002": 20.5844540403,
			"-0.001": 16.9144227013,
			"0.0": 17.3887738249,
			"0.001": 12.7170540261,
			"0.002": 10.7691368234,
			"0.003": 10.0802677404,
			"0.004": 9.29441448741,
			"0.005": 11.9518267925,
			"0.006": 9.49493925219,
			"0.007": 4.07288911172,
			"0.008": 3.7746215827,
			"0.009": 3.06018160379,
			"0.01": 3.56974494807,
			"0.011": 3.87539401418,
			"0.012": 3.14416862616,
			"0.013": 5.22311486913,
			"0.014": 5.91351580823,
			"0.015": 1.70660194442,
			"0.016": 0.054013601496,
			"0.017": 0.0,
			"0.018": 0.0,
			"0.019": 0.0,
			"0.02": 0.0,
			"0.021": 0.0,
			"0.022": 0.0,
			"0.023": 0.0,
			"0.024": 0.0,
			"0.025": 0.0
		}
	}
}
