{
	 "smiles": "CCN(CC)[Si](C)(C)C", 
	 "Tm": 263.15, 
	 "num_atms": 28, 
	 "gaussian": { 
		 "optdone": 1, 
		 "sigma_profile": "yes", 
		 "theory": "DFT", 
		 "functional": "B3LYP", 
		 "basiset": "6-31G**", 
		 "properties": { 
			 "R2extent": 1977.5368, 
			 "electric_dipole_moment_norm": 0.242942894525, 
			 "electric_quadrupole_moment_norm": 1.68345618001, 
			 "total_energy": -622.506596038, 
			 "HOMO_LUMO_gap": 0.26585, 
			 "cosmo_polarized_energy": -1.92, 
			 "cosmo_cavitation_energy": 30.04, 
			 "cosmo_dispersion_energy": -18.33, 
			 "cosmo_repulsion_energy": 1.61, 
			 "cosmo_total_nonelectrostatic_energy": 13.32, 
			 "SMD_solvation_energy": 6.5 
		},
		"coords": [
			{
				"x": 2.6682057782,
				"y": -0.854758078,
				"z": -0.8966570852,
				"element": "C" 
			},
			{
				"x": 1.4006165921,
				"y": -0.0283930081,
				"z": -1.1558381902,
				"element": "C" 
			},
			{
				"x": 0.9987898534,
				"y": 0.809620269,
				"z": -0.0227655686,
				"element": "N" 
			},
			{
				"x": 1.7249439162,
				"y": 2.0741867842,
				"z": 0.0955115292,
				"element": "C" 
			},
			{
				"x": 1.2223028081,
				"y": 3.1961250639,
				"z": -0.8273540548,
				"element": "C" 
			},
			{
				"x": -0.4550322213,
				"y": 0.435613476,
				"z": 0.8804280573,
				"element": "Si" 
			},
			{
				"x": -0.5241023734,
				"y": 1.536798427,
				"z": 2.4153801053,
				"element": "C" 
			},
			{
				"x": -2.0319276125,
				"y": 0.7056916136,
				"z": -0.1409604805,
				"element": "C" 
			},
			{
				"x": -0.416516584,
				"y": -1.3810591377,
				"z": 1.4130529405,
				"element": "C" 
			},
			{
				"x": 2.9409430299,
				"y": -1.4383122991,
				"z": -1.7838828666,
				"element": "H" 
			},
			{
				"x": 3.5193816535,
				"y": -0.2128846824,
				"z": -0.6470317181,
				"element": "H" 
			},
			{
				"x": 2.5147871716,
				"y": -1.5455168915,
				"z": -0.0619903955,
				"element": "H" 
			},
			{
				"x": 0.5800640711,
				"y": -0.7115930046,
				"z": -1.4087516463,
				"element": "H" 
			},
			{
				"x": 1.5481361413,
				"y": 0.5914004306,
				"z": -2.0533614391,
				"element": "H" 
			},
			{
				"x": 2.7904903797,
				"y": 1.89599912,
				"z": -0.1069570699,
				"element": "H" 
			},
			{
				"x": 1.6775927148,
				"y": 2.4183646718,
				"z": 1.1340597197,
				"element": "H" 
			},
			{
				"x": 0.189096034,
				"y": 3.4683747313,
				"z": -0.5867780054,
				"element": "H" 
			},
			{
				"x": 1.2501091086,
				"y": 2.8930159259,
				"z": -1.8792475634,
				"element": "H" 
			},
			{
				"x": 1.8430551304,
				"y": 4.0938645623,
				"z": -0.7227036728,
				"element": "H" 
			},
			{
				"x": 0.3582969106,
				"y": 1.4052132509,
				"z": 3.0506659584,
				"element": "H" 
			},
			{
				"x": -1.4031399602,
				"y": 1.2746925053,
				"z": 3.0153282377,
				"element": "H" 
			},
			{
				"x": -0.6062104478,
				"y": 2.600456574,
				"z": 2.168324479,
				"element": "H" 
			},
			{
				"x": -2.1468838071,
				"y": 1.7573837702,
				"z": -0.4258011608,
				"element": "H" 
			},
			{
				"x": -2.9268449532,
				"y": 0.4123235998,
				"z": 0.4209129102,
				"element": "H" 
			},
			{
				"x": -2.0194969358,
				"y": 0.1162239011,
				"z": -1.0649558755,
				"element": "H" 
			},
			{
				"x": -0.3262982127,
				"y": -2.0613143792,
				"z": 0.558924532,
				"element": "H" 
			},
			{
				"x": 0.4271565417,
				"y": -1.5777075955,
				"z": 2.0830773601,
				"element": "H" 
			},
			{
				"x": -1.3372147272,
				"y": -1.6499096006,
				"z": 1.944070963,
				"element": "H" 
			}
		],
		 "valence_orbital": [ 
			{
				"type": "occ",
				"energy": -0.33324,
				"method": "rhf"
			},
			{
				"type": "occ",
				"energy": -0.30855,
				"method": "rhf"
			},
			{
				"type": "occ",
				"energy": -0.29251,
				"method": "rhf"
			},
			{
				"type": "occ",
				"energy": -0.29115,
				"method": "rhf"
			},
			{
				"type": "occ",
				"energy": -0.19858,
				"method": "rhf"
			},
			{
				"type": "unocc",
				"energy": 0.06727,
				"method": "rhf"
			},
			{
				"type": "unocc",
				"energy": 0.09282,
				"method": "rhf"
			},
			{
				"type": "unocc",
				"energy": 0.09934,
				"method": "rhf"
			},
			{
				"type": "unocc",
				"energy": 0.10352,
				"method": "rhf"
			},
			{
				"type": "unocc",
				"energy": 0.11013,
				"method": "rhf"
			}
		],
		"cosmo_sigma_profile": { 
			"-0.025": 0.0,
			"-0.024": 0.0,
			"-0.023": 0.0,
			"-0.022": 0.0,
			"-0.021": 0.0,
			"-0.02": 0.0,
			"-0.019": 0.0,
			"-0.018": 0.0,
			"-0.017": 0.0,
			"-0.016": 0.0,
			"-0.015": 0.0,
			"-0.014": 0.0,
			"-0.013": 0.0,
			"-0.012": 0.0,
			"-0.011": 0.0,
			"-0.01": 0.0,
			"-0.009": 0.0,
			"-0.008": 0.0,
			"-0.007": 0.0,
			"-0.006": 0.0,
			"-0.005": 0.0,
			"-0.004": 1.08232751145,
			"-0.003": 20.8173501836,
			"-0.002": 38.9205063994,
			"-0.001": 39.8366105115,
			"0.0": 40.629748925,
			"0.001": 34.4974405255,
			"0.002": 30.221956267,
			"0.003": 10.9786422646,
			"0.004": 4.15929090571,
			"0.005": 1.96287202854,
			"0.006": 1.06254136455,
			"0.007": 0.909255211433,
			"0.008": 0.426968595909,
			"0.009": 0.686445798372,
			"0.01": 0.495105417827,
			"0.011": 0.0280437685122,
			"0.012": 0.0,
			"0.013": 0.0,
			"0.014": 0.0,
			"0.015": 0.0,
			"0.016": 0.0,
			"0.017": 0.0,
			"0.018": 0.0,
			"0.019": 0.0,
			"0.02": 0.0,
			"0.021": 0.0,
			"0.022": 0.0,
			"0.023": 0.0,
			"0.024": 0.0,
			"0.025": 0.0
		}
	}
}
