{
	 "smiles": "FC(F)(F)C1=CC2=C(N=C(S)N2)C(Cl)=C1", 
	 "Tm": 584.15, 
	 "num_atms": 19, 
	 "gaussian": { 
		 "optdone": 1, 
		 "sigma_profile": "yes", 
		 "theory": "DFT", 
		 "functional": "B3LYP", 
		 "basiset": "6-31G**", 
		 "properties": { 
			 "R2extent": 5360.6608, 
			 "electric_dipole_moment_norm": 4.2371392401, 
			 "electric_quadrupole_moment_norm": 5.42839816889, 
			 "total_energy": -1574.67762853, 
			 "HOMO_LUMO_gap": 0.19255, 
			 "cosmo_polarized_energy": -14.05, 
			 "cosmo_cavitation_energy": 29.17, 
			 "cosmo_dispersion_energy": -21.74, 
			 "cosmo_repulsion_energy": 1.6, 
			 "cosmo_total_nonelectrostatic_energy": 9.03, 
			 "SMD_solvation_energy": 3.31 
		},
		"coords": [
			{
				"x": 1.7428099546,
				"y": 3.4331705885,
				"z": 2.4658415002,
				"element": "F" 
			},
			{
				"x": 2.2632287108,
				"y": 2.2090264666,
				"z": 2.709622104,
				"element": "C" 
			},
			{
				"x": 2.0779105794,
				"y": 1.9418640026,
				"z": 4.021043616,
				"element": "F" 
			},
			{
				"x": 3.5996915456,
				"y": 2.3049723323,
				"z": 2.5178411843,
				"element": "F" 
			},
			{
				"x": 1.6493779899,
				"y": 1.1524071466,
				"z": 1.8315869767,
				"element": "C" 
			},
			{
				"x": 1.0352734511,
				"y": 1.5224572803,
				"z": 0.635434573,
				"element": "C" 
			},
			{
				"x": 0.5416064316,
				"y": 0.4857574959,
				"z": -0.1496791158,
				"element": "C" 
			},
			{
				"x": 0.6379302844,
				"y": -0.8811517622,
				"z": 0.2109358644,
				"element": "C" 
			},
			{
				"x": 0.0599009017,
				"y": -1.6870103235,
				"z": -0.7521892236,
				"element": "N" 
			},
			{
				"x": -0.3719059549,
				"y": -0.8509241906,
				"z": -1.664061015,
				"element": "C" 
			},
			{
				"x": -1.2060419496,
				"y": -1.2912991639,
				"z": -3.1546972249,
				"element": "S" 
			},
			{
				"x": -0.1194570211,
				"y": 0.4702614076,
				"z": -1.3687827262,
				"element": "N" 
			},
			{
				"x": 1.2621104215,
				"y": -1.2112968912,
				"z": 1.4226026315,
				"element": "C" 
			},
			{
				"x": 1.3979470881,
				"y": -2.8796340675,
				"z": 1.9140864272,
				"element": "Cl" 
			},
			{
				"x": 1.7639864524,
				"y": -0.1947415562,
				"z": 2.225246278,
				"element": "C" 
			},
			{
				"x": 0.9496134508,
				"y": 2.5642844688,
				"z": 0.3508666657,
				"element": "H" 
			},
			{
				"x": -1.1480645559,
				"y": -2.6088100243,
				"z": -2.8870744883,
				"element": "H" 
			},
			{
				"x": -0.36138043,
				"y": 1.2699240241,
				"z": -1.9338401952,
				"element": "H" 
			},
			{
				"x": 2.2394626497,
				"y": -0.4418572338,
				"z": 3.1667161682,
				"element": "H" 
			}
		],
		 "valence_orbital": [ 
			{
				"type": "occ",
				"energy": -0.31427,
				"method": "rhf"
			},
			{
				"type": "occ",
				"energy": -0.3043,
				"method": "rhf"
			},
			{
				"type": "occ",
				"energy": -0.29941,
				"method": "rhf"
			},
			{
				"type": "occ",
				"energy": -0.24836,
				"method": "rhf"
			},
			{
				"type": "occ",
				"energy": -0.23613,
				"method": "rhf"
			},
			{
				"type": "unocc",
				"energy": -0.04358,
				"method": "rhf"
			},
			{
				"type": "unocc",
				"energy": -0.0134,
				"method": "rhf"
			},
			{
				"type": "unocc",
				"energy": -0.01318,
				"method": "rhf"
			},
			{
				"type": "unocc",
				"energy": 0.02737,
				"method": "rhf"
			},
			{
				"type": "unocc",
				"energy": 0.03035,
				"method": "rhf"
			}
		],
		"cosmo_sigma_profile": { 
			"-0.025": 0.0,
			"-0.024": 0.0,
			"-0.023": 0.0,
			"-0.022": 0.0,
			"-0.021": 0.0,
			"-0.02": 0.0,
			"-0.019": 0.0,
			"-0.018": 0.989093695714,
			"-0.017": 1.87664846388,
			"-0.016": 1.29482485672,
			"-0.015": 1.52908990833,
			"-0.014": 1.45738716599,
			"-0.013": 1.8104091603,
			"-0.012": 2.48756915749,
			"-0.011": 2.44914424306,
			"-0.01": 3.03880465571,
			"-0.009": 3.08569125212,
			"-0.008": 3.7513879887,
			"-0.007": 4.39636537238,
			"-0.006": 4.47267518829,
			"-0.005": 5.74532927274,
			"-0.004": 7.11672777468,
			"-0.003": 7.1187279882,
			"-0.002": 9.73223871807,
			"-0.001": 15.9855867796,
			"0.0": 20.1434524666,
			"0.001": 31.6740266633,
			"0.002": 36.0126880502,
			"0.003": 36.3624832658,
			"0.004": 14.2106738945,
			"0.005": 7.90492582656,
			"0.006": 4.35462533808,
			"0.007": 2.31046565971,
			"0.008": 1.43264078774,
			"0.009": 1.16771987551,
			"0.01": 1.59702384677,
			"0.011": 1.48464276122,
			"0.012": 0.699434636245,
			"0.013": 0.951581659813,
			"0.014": 1.04460113246,
			"0.015": 0.484107114514,
			"0.016": 0.0,
			"0.017": 0.0,
			"0.018": 0.0,
			"0.019": 0.0,
			"0.02": 0.0,
			"0.021": 0.0,
			"0.022": 0.0,
			"0.023": 0.0,
			"0.024": 0.0,
			"0.025": 0.0
		}
	}
}
