{
	 "smiles": "O=C(CC1CCOCC1)C1=CC=CC=C1", 
	 "Tm": 334.15, 
	 "num_atms": 31, 
	 "gaussian": { 
		 "optdone": 1, 
		 "sigma_profile": "yes", 
		 "theory": "DFT", 
		 "functional": "B3LYP", 
		 "basiset": "6-31G**", 
		 "properties": { 
			 "R2extent": 4336.0402, 
			 "electric_dipole_moment_norm": 2.21749675535, 
			 "electric_quadrupole_moment_norm": 16.9523046489, 
			 "total_energy": -655.464305273, 
			 "HOMO_LUMO_gap": 0.18276, 
			 "cosmo_polarized_energy": -10.39, 
			 "cosmo_cavitation_energy": 32.62, 
			 "cosmo_dispersion_energy": -23.42, 
			 "cosmo_repulsion_energy": 1.83, 
			 "cosmo_total_nonelectrostatic_energy": 11.03, 
			 "SMD_solvation_energy": 5.4 
		},
		"coords": [
			{
				"x": 0.4021450541,
				"y": 2.2069837867,
				"z": 1.9321979555,
				"element": "O" 
			},
			{
				"x": -0.3140043167,
				"y": 1.3212825864,
				"z": 1.4826381337,
				"element": "C" 
			},
			{
				"x": 0.2678055749,
				"y": -0.0601713278,
				"z": 1.2118186672,
				"element": "C" 
			},
			{
				"x": 0.7302046676,
				"y": -0.235838307,
				"z": -0.254257956,
				"element": "C" 
			},
			{
				"x": 1.9155647597,
				"y": 0.6694498017,
				"z": -0.6239914735,
				"element": "C" 
			},
			{
				"x": 2.2157484019,
				"y": 0.5389797661,
				"z": -2.1324597373,
				"element": "C" 
			},
			{
				"x": 1.7913675577,
				"y": -0.7125967313,
				"z": -2.6726210804,
				"element": "O" 
			},
			{
				"x": 2.0405105235,
				"y": -1.7881628274,
				"z": -1.7801768498,
				"element": "C" 
			},
			{
				"x": 1.119207665,
				"y": -1.7052669113,
				"z": -0.5412183001,
				"element": "C" 
			},
			{
				"x": -1.7524938491,
				"y": 1.6047434222,
				"z": 1.1587903377,
				"element": "C" 
			},
			{
				"x": -2.2321234902,
				"y": 2.904085151,
				"z": 1.3947143901,
				"element": "C" 
			},
			{
				"x": -3.5546982076,
				"y": 3.2323444123,
				"z": 1.115821698,
				"element": "C" 
			},
			{
				"x": -4.4193844009,
				"y": 2.2657530616,
				"z": 0.592242691,
				"element": "C" 
			},
			{
				"x": -3.9543734257,
				"y": 0.9719727306,
				"z": 0.3510817711,
				"element": "C" 
			},
			{
				"x": -2.6287237753,
				"y": 0.6416578616,
				"z": 0.6340360841,
				"element": "C" 
			},
			{
				"x": -0.4559487888,
				"y": -0.8446724682,
				"z": 1.4603953363,
				"element": "H" 
			},
			{
				"x": 1.1270902124,
				"y": -0.176223477,
				"z": 1.8798784079,
				"element": "H" 
			},
			{
				"x": -0.1064160025,
				"y": 0.0237575494,
				"z": -0.9155425311,
				"element": "H" 
			},
			{
				"x": 1.7187030455,
				"y": 1.715146128,
				"z": -0.3698074317,
				"element": "H" 
			},
			{
				"x": 2.7870675465,
				"y": 0.3691139404,
				"z": -0.0274411961,
				"element": "H" 
			},
			{
				"x": 3.2913760545,
				"y": 0.6865699296,
				"z": -2.3226723564,
				"element": "H" 
			},
			{
				"x": 1.6692093192,
				"y": 1.2974825282,
				"z": -2.7023918083,
				"element": "H" 
			},
			{
				"x": 3.099399219,
				"y": -1.7911920973,
				"z": -1.47342434,
				"element": "H" 
			},
			{
				"x": 1.864050039,
				"y": -2.7067601585,
				"z": -2.3468727767,
				"element": "H" 
			},
			{
				"x": 0.2120153406,
				"y": -2.3012908909,
				"z": -0.6937143576,
				"element": "H" 
			},
			{
				"x": 1.6385536289,
				"y": -2.1326667072,
				"z": 0.3267927258,
				"element": "H" 
			},
			{
				"x": -1.5412303619,
				"y": 3.6358242064,
				"z": 1.7997234901,
				"element": "H" 
			},
			{
				"x": -3.9152099289,
				"y": 4.2395269635,
				"z": 1.3040388692,
				"element": "H" 
			},
			{
				"x": -5.4524228037,
				"y": 2.5209126886,
				"z": 0.3733998905,
				"element": "H" 
			},
			{
				"x": -4.6233284552,
				"y": 0.2195310281,
				"z": -0.0561256905,
				"element": "H" 
			},
			{
				"x": -2.2841608038,
				"y": -0.3687756385,
				"z": 0.4412474372,
				"element": "H" 
			}
		],
		 "valence_orbital": [ 
			{
				"type": "occ",
				"energy": -0.29402,
				"method": "rhf"
			},
			{
				"type": "occ",
				"energy": -0.26208,
				"method": "rhf"
			},
			{
				"type": "occ",
				"energy": -0.2585,
				"method": "rhf"
			},
			{
				"type": "occ",
				"energy": -0.24839,
				"method": "rhf"
			},
			{
				"type": "occ",
				"energy": -0.24009,
				"method": "rhf"
			},
			{
				"type": "unocc",
				"energy": -0.05733,
				"method": "rhf"
			},
			{
				"type": "unocc",
				"energy": -0.01087,
				"method": "rhf"
			},
			{
				"type": "unocc",
				"energy": 0.03697,
				"method": "rhf"
			},
			{
				"type": "unocc",
				"energy": 0.07625,
				"method": "rhf"
			},
			{
				"type": "unocc",
				"energy": 0.08883,
				"method": "rhf"
			}
		],
		"cosmo_sigma_profile": { 
			"-0.025": 0.0,
			"-0.024": 0.0,
			"-0.023": 0.0,
			"-0.022": 0.0,
			"-0.021": 0.0,
			"-0.02": 0.0,
			"-0.019": 0.0,
			"-0.018": 0.0,
			"-0.017": 0.0,
			"-0.016": 0.0,
			"-0.015": 0.0,
			"-0.014": 0.0,
			"-0.013": 0.0,
			"-0.012": 0.0,
			"-0.011": 0.0,
			"-0.01": 0.0,
			"-0.009": 0.0,
			"-0.008": 0.0495505671818,
			"-0.007": 2.51740419639,
			"-0.006": 9.61065208957,
			"-0.005": 12.4719384969,
			"-0.004": 22.1186778425,
			"-0.003": 43.9106273971,
			"-0.002": 36.4658001867,
			"-0.001": 24.2225250067,
			"0.0": 15.4955567341,
			"0.001": 12.5299595941,
			"0.002": 13.7320975741,
			"0.003": 12.8850537221,
			"0.004": 15.2196548,
			"0.005": 6.83739283558,
			"0.006": 3.06495265838,
			"0.007": 2.84716121706,
			"0.008": 3.14577978923,
			"0.009": 2.4658127965,
			"0.01": 3.33213170314,
			"0.011": 2.90055988973,
			"0.012": 5.24639662493,
			"0.013": 3.26957900321,
			"0.014": 1.73009757613,
			"0.015": 0.086647655537,
			"0.016": 0.0,
			"0.017": 0.0,
			"0.018": 0.0,
			"0.019": 0.0,
			"0.02": 0.0,
			"0.021": 0.0,
			"0.022": 0.0,
			"0.023": 0.0,
			"0.024": 0.0,
			"0.025": 0.0
		}
	}
}
