{
	 "smiles": "CC(O)CN1C(=O)N(C)C2=C(N(C)C=N2)C1=O", 
	 "Tm": 414.15, 
	 "num_atms": 31, 
	 "gaussian": { 
		 "optdone": 1, 
		 "sigma_profile": "yes", 
		 "theory": "DFT", 
		 "functional": "B3LYP", 
		 "basiset": "6-31G**", 
		 "properties": { 
			 "R2extent": 4139.015, 
			 "electric_dipole_moment_norm": 4.08123023732, 
			 "electric_quadrupole_moment_norm": 13.1945453196, 
			 "total_energy": -834.218286613, 
			 "HOMO_LUMO_gap": 0.18559, 
			 "cosmo_polarized_energy": -20.2, 
			 "cosmo_cavitation_energy": 33.44, 
			 "cosmo_dispersion_energy": -23.97, 
			 "cosmo_repulsion_energy": 1.84, 
			 "cosmo_total_nonelectrostatic_energy": 11.31, 
			 "SMD_solvation_energy": 5.66 
		},
		"coords": [
			{
				"x": 3.0169805843,
				"y": -0.8228871852,
				"z": 1.3336286035,
				"element": "C" 
			},
			{
				"x": 1.9851161596,
				"y": -1.899804926,
				"z": 0.99649727,
				"element": "C" 
			},
			{
				"x": 2.1847125949,
				"y": -2.4074452695,
				"z": -0.3188156113,
				"element": "O" 
			},
			{
				"x": 0.5205160211,
				"y": -1.4473887539,
				"z": 1.0927963742,
				"element": "C" 
			},
			{
				"x": 0.1612884085,
				"y": -0.3332704681,
				"z": 0.2004072852,
				"element": "N" 
			},
			{
				"x": -0.4117699579,
				"y": -0.6858900053,
				"z": -1.0468274392,
				"element": "C" 
			},
			{
				"x": -0.6605038709,
				"y": -1.8404063275,
				"z": -1.3506608822,
				"element": "O" 
			},
			{
				"x": -0.6932284337,
				"y": 0.3610209725,
				"z": -1.9245765556,
				"element": "N" 
			},
			{
				"x": -1.2740175831,
				"y": 0.025862167,
				"z": -3.2240677675,
				"element": "C" 
			},
			{
				"x": -0.524469927,
				"y": 1.6639221809,
				"z": -1.5193459699,
				"element": "C" 
			},
			{
				"x": -0.0531452339,
				"y": 1.9672304538,
				"z": -0.2567157331,
				"element": "C" 
			},
			{
				"x": -0.0415597909,
				"y": 3.353952906,
				"z": -0.1975145531,
				"element": "N" 
			},
			{
				"x": 0.420656752,
				"y": 4.1722620257,
				"z": 0.9162113883,
				"element": "C" 
			},
			{
				"x": -0.4895681376,
				"y": 3.7755330149,
				"z": -1.4068586584,
				"element": "C" 
			},
			{
				"x": -0.7982569583,
				"y": 2.7848865729,
				"z": -2.2393386648,
				"element": "N" 
			},
			{
				"x": 0.297640913,
				"y": 0.9775714157,
				"z": 0.7177701315,
				"element": "C" 
			},
			{
				"x": 0.6797450583,
				"y": 1.1931632508,
				"z": 1.8678587943,
				"element": "O" 
			},
			{
				"x": 2.8381384237,
				"y": -0.3864414273,
				"z": 2.3189693982,
				"element": "H" 
			},
			{
				"x": 4.0252519114,
				"y": -1.2557488426,
				"z": 1.3243936577,
				"element": "H" 
			},
			{
				"x": 2.9874880558,
				"y": -0.0191998096,
				"z": 0.5926629934,
				"element": "H" 
			},
			{
				"x": 2.0775616952,
				"y": -2.7146482147,
				"z": 1.7372061553,
				"element": "H" 
			},
			{
				"x": 3.1219476213,
				"y": -2.620769061,
				"z": -0.4120252906,
				"element": "H" 
			},
			{
				"x": -0.1200176364,
				"y": -2.2874190849,
				"z": 0.8257600728,
				"element": "H" 
			},
			{
				"x": 0.3139156472,
				"y": -1.1239006947,
				"z": 2.1140717568,
				"element": "H" 
			},
			{
				"x": -2.2696705852,
				"y": -0.4083117536,
				"z": -3.098131681,
				"element": "H" 
			},
			{
				"x": -1.3388646702,
				"y": 0.9438465043,
				"z": -3.8063105812,
				"element": "H" 
			},
			{
				"x": -0.6414476642,
				"y": -0.7054535628,
				"z": -3.7298591681,
				"element": "H" 
			},
			{
				"x": 0.0926595765,
				"y": 5.2006074178,
				"z": 0.7539203972,
				"element": "H" 
			},
			{
				"x": 1.5114835204,
				"y": 4.1447827235,
				"z": 0.9883756462,
				"element": "H" 
			},
			{
				"x": 0.0055831893,
				"y": 3.7886582008,
				"z": 1.8482667591,
				"element": "H" 
			},
			{
				"x": -0.5800656833,
				"y": 4.8273855801,
				"z": -1.643248128,
				"element": "H" 
			}
		],
		 "valence_orbital": [ 
			{
				"type": "occ",
				"energy": -0.27736,
				"method": "rhf"
			},
			{
				"type": "occ",
				"energy": -0.26115,
				"method": "rhf"
			},
			{
				"type": "occ",
				"energy": -0.25818,
				"method": "rhf"
			},
			{
				"type": "occ",
				"energy": -0.25426,
				"method": "rhf"
			},
			{
				"type": "occ",
				"energy": -0.21494,
				"method": "rhf"
			},
			{
				"type": "unocc",
				"energy": -0.02935,
				"method": "rhf"
			},
			{
				"type": "unocc",
				"energy": 0.02846,
				"method": "rhf"
			},
			{
				"type": "unocc",
				"energy": 0.037,
				"method": "rhf"
			},
			{
				"type": "unocc",
				"energy": 0.07912,
				"method": "rhf"
			},
			{
				"type": "unocc",
				"energy": 0.09077,
				"method": "rhf"
			}
		],
		"cosmo_sigma_profile": { 
			"-0.025": 0.0,
			"-0.024": 0.0,
			"-0.023": 0.0,
			"-0.022": 0.0,
			"-0.021": 0.0,
			"-0.02": 0.0,
			"-0.019": 0.0,
			"-0.018": 0.0,
			"-0.017": 0.0,
			"-0.016": 0.0360589770761,
			"-0.015": 0.698865701125,
			"-0.014": 0.934888680004,
			"-0.013": 1.05615046665,
			"-0.012": 0.926565599379,
			"-0.011": 1.62751449665,
			"-0.01": 3.8914144513,
			"-0.009": 3.69693889809,
			"-0.008": 3.59163805602,
			"-0.007": 5.38695371851,
			"-0.006": 9.10748655639,
			"-0.005": 17.0579258198,
			"-0.004": 27.203116046,
			"-0.003": 33.0122410798,
			"-0.002": 26.8875398376,
			"-0.001": 22.0684722296,
			"0.0": 17.5897475136,
			"0.001": 12.0200930327,
			"0.002": 7.90217412598,
			"0.003": 6.02991605347,
			"0.004": 6.29262704397,
			"0.005": 5.55609888297,
			"0.006": 5.52372072046,
			"0.007": 5.93452821825,
			"0.008": 4.4698512947,
			"0.009": 4.1386945223,
			"0.01": 5.67097263282,
			"0.011": 4.6892521711,
			"0.012": 6.97961197402,
			"0.013": 8.1880832227,
			"0.014": 2.4508473701,
			"0.015": 1.89870580608,
			"0.016": 1.20595957473,
			"0.017": 0.241674451046,
			"0.018": 0.0,
			"0.019": 0.0,
			"0.02": 0.0,
			"0.021": 0.0,
			"0.022": 0.0,
			"0.023": 0.0,
			"0.024": 0.0,
			"0.025": 0.0
		}
	}
}
