{
	 "smiles": "CC(C)(C)CS(N)(=O)=O", 
	 "Tm": 393.15, 
	 "num_atms": 22, 
	 "gaussian": { 
		 "optdone": 1, 
		 "sigma_profile": "yes", 
		 "theory": "DFT", 
		 "functional": "B3LYP", 
		 "basiset": "6-31G**", 
		 "properties": { 
			 "R2extent": 1684.0843, 
			 "electric_dipole_moment_norm": 3.43476055206, 
			 "electric_quadrupole_moment_norm": 13.3088590661, 
			 "total_energy": -801.704543777, 
			 "HOMO_LUMO_gap": 0.33579, 
			 "cosmo_polarized_energy": -13.58, 
			 "cosmo_cavitation_energy": 24.54, 
			 "cosmo_dispersion_energy": -18.23, 
			 "cosmo_repulsion_energy": 1.43, 
			 "cosmo_total_nonelectrostatic_energy": 7.74, 
			 "SMD_solvation_energy": 3.92 
		},
		"coords": [
			{
				"x": -0.5299607852,
				"y": 2.4950031666,
				"z": -0.8507506848,
				"element": "C" 
			},
			{
				"x": -0.9902818389,
				"y": 1.6146756135,
				"z": 0.3280801385,
				"element": "C" 
			},
			{
				"x": -1.8450542601,
				"y": 0.4433571337,
				"z": -0.1920887062,
				"element": "C" 
			},
			{
				"x": -1.8412893508,
				"y": 2.4691708241,
				"z": 1.2932160504,
				"element": "C" 
			},
			{
				"x": 0.2261824878,
				"y": 1.1326057077,
				"z": 1.1564044357,
				"element": "C" 
			},
			{
				"x": 1.3430784934,
				"y": -0.1300204978,
				"z": 0.470953472,
				"element": "S" 
			},
			{
				"x": 0.5127021623,
				"y": -1.5857796132,
				"z": 0.7705341759,
				"element": "N" 
			},
			{
				"x": 2.5279626184,
				"y": -0.1380175302,
				"z": 1.336795721,
				"element": "O" 
			},
			{
				"x": 1.4614321842,
				"y": 0.0231013232,
				"z": -0.9851375313,
				"element": "O" 
			},
			{
				"x": -1.3995638473,
				"y": 2.8643374846,
				"z": -1.4050442418,
				"element": "H" 
			},
			{
				"x": 0.1087885774,
				"y": 1.9374051881,
				"z": -1.5384052068,
				"element": "H" 
			},
			{
				"x": 0.0306915211,
				"y": 3.3666659827,
				"z": -0.4935535121,
				"element": "H" 
			},
			{
				"x": -2.7582832772,
				"y": 0.8300650458,
				"z": -0.6566071318,
				"element": "H" 
			},
			{
				"x": -2.1354996372,
				"y": -0.2358363715,
				"z": 0.6155097569,
				"element": "H" 
			},
			{
				"x": -1.3097781034,
				"y": -0.1336122199,
				"z": -0.9514709629,
				"element": "H" 
			},
			{
				"x": -2.6973950691,
				"y": 2.8977967827,
				"z": 0.7616203125,
				"element": "H" 
			},
			{
				"x": -1.2610079333,
				"y": 3.2985834034,
				"z": 1.7127970847,
				"element": "H" 
			},
			{
				"x": -2.2281342628,
				"y": 1.8706663069,
				"z": 2.1255972366,
				"element": "H" 
			},
			{
				"x": -0.0836562579,
				"y": 0.7072191278,
				"z": 2.1152471906,
				"element": "H" 
			},
			{
				"x": 0.9035079007,
				"y": 1.9676395589,
				"z": 1.3628217576,
				"element": "H" 
			},
			{
				"x": 0.318876236,
				"y": -2.0445434251,
				"z": -0.1159824255,
				"element": "H" 
			},
			{
				"x": 1.1050824417,
				"y": -2.1713829921,
				"z": 1.3548630707,
				"element": "H" 
			}
		],
		 "valence_orbital": [ 
			{
				"type": "occ",
				"energy": -0.33396,
				"method": "rhf"
			},
			{
				"type": "occ",
				"energy": -0.31309,
				"method": "rhf"
			},
			{
				"type": "occ",
				"energy": -0.30463,
				"method": "rhf"
			},
			{
				"type": "occ",
				"energy": -0.29924,
				"method": "rhf"
			},
			{
				"type": "occ",
				"energy": -0.28634,
				"method": "rhf"
			},
			{
				"type": "unocc",
				"energy": 0.04945,
				"method": "rhf"
			},
			{
				"type": "unocc",
				"energy": 0.06708,
				"method": "rhf"
			},
			{
				"type": "unocc",
				"energy": 0.0761,
				"method": "rhf"
			},
			{
				"type": "unocc",
				"energy": 0.08753,
				"method": "rhf"
			},
			{
				"type": "unocc",
				"energy": 0.09837,
				"method": "rhf"
			}
		],
		"cosmo_sigma_profile": { 
			"-0.025": 0.0,
			"-0.024": 0.0,
			"-0.023": 0.0,
			"-0.022": 0.0,
			"-0.021": 0.0,
			"-0.02": 0.0,
			"-0.019": 0.0,
			"-0.018": 0.0,
			"-0.017": 0.0,
			"-0.016": 0.0,
			"-0.015": 0.0416086543143,
			"-0.014": 2.11265778942,
			"-0.013": 1.96233364395,
			"-0.012": 2.94588213868,
			"-0.011": 2.40925144416,
			"-0.01": 1.72800655281,
			"-0.009": 1.78656220555,
			"-0.008": 2.28806417533,
			"-0.007": 5.15864923508,
			"-0.006": 5.56390954478,
			"-0.005": 7.76154719145,
			"-0.004": 10.2364524056,
			"-0.003": 20.2284473249,
			"-0.002": 15.8353049231,
			"-0.001": 16.3770787965,
			"0.0": 18.1769658503,
			"0.001": 21.7000279017,
			"0.002": 7.37390501873,
			"0.003": 3.54089400079,
			"0.004": 3.27525710221,
			"0.005": 3.4706581347,
			"0.006": 3.28682226658,
			"0.007": 3.2461259864,
			"0.008": 3.35150590764,
			"0.009": 4.12527678283,
			"0.01": 4.5075633461,
			"0.011": 9.41879781074,
			"0.012": 7.36879805951,
			"0.013": 0.492247099161,
			"0.014": 0.0,
			"0.015": 0.0,
			"0.016": 0.0,
			"0.017": 0.0,
			"0.018": 0.0,
			"0.019": 0.0,
			"0.02": 0.0,
			"0.021": 0.0,
			"0.022": 0.0,
			"0.023": 0.0,
			"0.024": 0.0,
			"0.025": 0.0
		}
	}
}
