{
	 "smiles": "C1C2=C(C=CC=C2)C2=C1C1=C(C=CC=C1)C=C2", 
	 "Tm": 463.15, 
	 "num_atms": 29, 
	 "gaussian": { 
		 "optdone": 1, 
		 "sigma_profile": "yes", 
		 "theory": "DFT", 
		 "functional": "B3LYP", 
		 "basiset": "6-31G**", 
		 "properties": { 
			 "R2extent": 4456.5075, 
			 "electric_dipole_moment_norm": 0.450615057449, 
			 "electric_quadrupole_moment_norm": 9.80368998031, 
			 "total_energy": -655.071471872, 
			 "HOMO_LUMO_gap": 0.15848, 
			 "cosmo_polarized_energy": -6.56, 
			 "cosmo_cavitation_energy": 31.91, 
			 "cosmo_dispersion_energy": -23.71, 
			 "cosmo_repulsion_energy": 1.77, 
			 "cosmo_total_nonelectrostatic_energy": 9.97, 
			 "SMD_solvation_energy": 4.28 
		},
		"coords": [
			{
				"x": 1.4001645467,
				"y": -1.1302932549,
				"z": -0.1439072345,
				"element": "C" 
			},
			{
				"x": 1.0288733466,
				"y": -1.813359951,
				"z": 1.1566369104,
				"element": "C" 
			},
			{
				"x": 0.1400002319,
				"y": -0.9955851369,
				"z": 1.8862003804,
				"element": "C" 
			},
			{
				"x": -0.3478861798,
				"y": -1.4114061073,
				"z": 3.1269471627,
				"element": "C" 
			},
			{
				"x": 0.0601860325,
				"y": -2.6492395383,
				"z": 3.6301229203,
				"element": "C" 
			},
			{
				"x": 0.9414980201,
				"y": -3.4592424388,
				"z": 2.905993638,
				"element": "C" 
			},
			{
				"x": 1.4315844352,
				"y": -3.0435688517,
				"z": 1.6615934311,
				"element": "C" 
			},
			{
				"x": -0.1029957016,
				"y": 0.229081097,
				"z": 1.1128238494,
				"element": "C" 
			},
			{
				"x": 0.6233454895,
				"y": 0.1679399818,
				"z": -0.0732523661,
				"element": "C" 
			},
			{
				"x": 0.5762616334,
				"y": 1.2231206612,
				"z": -1.0177801659,
				"element": "C" 
			},
			{
				"x": -0.247486277,
				"y": 2.360803884,
				"z": -0.7107594908,
				"element": "C" 
			},
			{
				"x": -0.309833084,
				"y": 3.4301558277,
				"z": -1.6429055933,
				"element": "C" 
			},
			{
				"x": 0.4015566374,
				"y": 3.3879598642,
				"z": -2.8217232007,
				"element": "C" 
			},
			{
				"x": 1.2126142619,
				"y": 2.2669629133,
				"z": -3.1231825386,
				"element": "C" 
			},
			{
				"x": 1.2976181434,
				"y": 1.2110497239,
				"z": -2.2429389208,
				"element": "C" 
			},
			{
				"x": -0.9773837692,
				"y": 2.3899965501,
				"z": 0.5124276296,
				"element": "C" 
			},
			{
				"x": -0.913300508,
				"y": 1.3511060689,
				"z": 1.4120118828,
				"element": "C" 
			},
			{
				"x": 2.482747224,
				"y": -0.9603304667,
				"z": -0.2224033987,
				"element": "H" 
			},
			{
				"x": 1.1183453721,
				"y": -1.7334084059,
				"z": -1.0178998605,
				"element": "H" 
			},
			{
				"x": -1.0326506403,
				"y": -0.787734366,
				"z": 3.695137265,
				"element": "H" 
			},
			{
				"x": -0.3106553633,
				"y": -2.986607776,
				"z": 4.5939002734,
				"element": "H" 
			},
			{
				"x": 1.2482400891,
				"y": -4.4187333691,
				"z": 3.3124181703,
				"element": "H" 
			},
			{
				"x": 2.1162076189,
				"y": -3.6777152215,
				"z": 1.1038297714,
				"element": "H" 
			},
			{
				"x": -0.9334008721,
				"y": 4.2894535409,
				"z": -1.4085914188,
				"element": "H" 
			},
			{
				"x": 0.3429589012,
				"y": 4.2142871155,
				"z": -3.5241511231,
				"element": "H" 
			},
			{
				"x": 1.7699324026,
				"y": 2.2428077292,
				"z": -4.0553278031,
				"element": "H" 
			},
			{
				"x": 1.921616111,
				"y": 0.3540842984,
				"z": -2.4801911904,
				"element": "H" 
			},
			{
				"x": -1.5941231639,
				"y": 3.2595539132,
				"z": 0.7250357056,
				"element": "H" 
			},
			{
				"x": -1.4770349384,
				"y": 1.3911617147,
				"z": 2.3397353149,
				"element": "H" 
			}
		],
		 "valence_orbital": [ 
			{
				"type": "occ",
				"energy": -0.28149,
				"method": "rhf"
			},
			{
				"type": "occ",
				"energy": -0.26332,
				"method": "rhf"
			},
			{
				"type": "occ",
				"energy": -0.24348,
				"method": "rhf"
			},
			{
				"type": "occ",
				"energy": -0.22652,
				"method": "rhf"
			},
			{
				"type": "occ",
				"energy": -0.20076,
				"method": "rhf"
			},
			{
				"type": "unocc",
				"energy": -0.04228,
				"method": "rhf"
			},
			{
				"type": "unocc",
				"energy": -0.02368,
				"method": "rhf"
			},
			{
				"type": "unocc",
				"energy": 0.00244,
				"method": "rhf"
			},
			{
				"type": "unocc",
				"energy": 0.02647,
				"method": "rhf"
			},
			{
				"type": "unocc",
				"energy": 0.03982,
				"method": "rhf"
			}
		],
		"cosmo_sigma_profile": { 
			"-0.025": 0.0,
			"-0.024": 0.0,
			"-0.023": 0.0,
			"-0.022": 0.0,
			"-0.021": 0.0,
			"-0.02": 0.0,
			"-0.019": 0.0,
			"-0.018": 0.0,
			"-0.017": 0.0,
			"-0.016": 0.0,
			"-0.015": 0.0,
			"-0.014": 0.0,
			"-0.013": 0.0,
			"-0.012": 0.0,
			"-0.011": 0.0,
			"-0.01": 0.0,
			"-0.009": 0.0,
			"-0.008": 0.0,
			"-0.007": 0.0,
			"-0.006": 10.5090495235,
			"-0.005": 28.2970343579,
			"-0.004": 25.0195423949,
			"-0.003": 26.2058496474,
			"-0.002": 17.4790579711,
			"-0.001": 15.210411287,
			"0.0": 14.0968208706,
			"0.001": 14.0711900999,
			"0.002": 16.1881825868,
			"0.003": 21.1207748838,
			"0.004": 30.853932381,
			"0.005": 25.1914993608,
			"0.006": 11.1475222738,
			"0.007": 0.886074014512,
			"0.008": 0.0,
			"0.009": 0.0,
			"0.01": 0.0,
			"0.011": 0.0,
			"0.012": 0.0,
			"0.013": 0.0,
			"0.014": 0.0,
			"0.015": 0.0,
			"0.016": 0.0,
			"0.017": 0.0,
			"0.018": 0.0,
			"0.019": 0.0,
			"0.02": 0.0,
			"0.021": 0.0,
			"0.022": 0.0,
			"0.023": 0.0,
			"0.024": 0.0,
			"0.025": 0.0
		}
	}
}
