{
	 "smiles": "OC(=O)CCOC1=CN=CC=C1", 
	 "Tm": 448.15, 
	 "num_atms": 21, 
	 "gaussian": { 
		 "optdone": 1, 
		 "sigma_profile": "yes", 
		 "theory": "DFT", 
		 "functional": "B3LYP", 
		 "basiset": "6-31G**", 
		 "properties": { 
			 "R2extent": 2570.8041, 
			 "electric_dipole_moment_norm": 4.09775529284, 
			 "electric_quadrupole_moment_norm": 12.9976032945, 
			 "total_energy": -590.692222095, 
			 "HOMO_LUMO_gap": 0.20929, 
			 "cosmo_polarized_energy": -15.65, 
			 "cosmo_cavitation_energy": 25.71, 
			 "cosmo_dispersion_energy": -18.51, 
			 "cosmo_repulsion_energy": 1.5, 
			 "cosmo_total_nonelectrostatic_energy": 8.7, 
			 "SMD_solvation_energy": 4.56 
		},
		"coords": [
			{
				"x": 1.878873621,
				"y": 2.6310558938,
				"z": -0.518633219,
				"element": "O" 
			},
			{
				"x": 1.2160770151,
				"y": 1.9659880971,
				"z": 0.4594099656,
				"element": "C" 
			},
			{
				"x": 0.47519045,
				"y": 2.5161108634,
				"z": 1.2403404709,
				"element": "O" 
			},
			{
				"x": 1.5490479571,
				"y": 0.4864894017,
				"z": 0.457552013,
				"element": "C" 
			},
			{
				"x": 1.3955793681,
				"y": -0.1700239104,
				"z": -0.9186475583,
				"element": "C" 
			},
			{
				"x": 0.0701181488,
				"y": -0.0545957069,
				"z": -1.4310362664,
				"element": "O" 
			},
			{
				"x": -0.9027629429,
				"y": -0.9114658077,
				"z": -1.0017472521,
				"element": "C" 
			},
			{
				"x": -2.1825857027,
				"y": -0.6950613532,
				"z": -1.5438516089,
				"element": "C" 
			},
			{
				"x": -3.2426179001,
				"y": -1.4446487241,
				"z": -1.2544720284,
				"element": "N" 
			},
			{
				"x": -3.075184592,
				"y": -2.4622528139,
				"z": -0.3952078024,
				"element": "C" 
			},
			{
				"x": -1.8503622017,
				"y": -2.7573249835,
				"z": 0.1955892049,
				"element": "C" 
			},
			{
				"x": -0.7356837801,
				"y": -1.9705952993,
				"z": -0.106771123,
				"element": "C" 
			},
			{
				"x": 1.6048729048,
				"y": 3.5608841773,
				"z": -0.4482932578,
				"element": "H" 
			},
			{
				"x": 2.5936259242,
				"y": 0.3746788131,
				"z": 0.7756737166,
				"element": "H" 
			},
			{
				"x": 0.9143264905,
				"y": 0.0122661606,
				"z": 1.2079923946,
				"element": "H" 
			},
			{
				"x": 1.7097290228,
				"y": -1.2200930464,
				"z": -0.8809664232,
				"element": "H" 
			},
			{
				"x": 2.0231278132,
				"y": 0.3465816613,
				"z": -1.6470545801,
				"element": "H" 
			},
			{
				"x": -2.3189444501,
				"y": 0.1291204169,
				"z": -2.241336964,
				"element": "H" 
			},
			{
				"x": -3.9574929188,
				"y": -3.0585654662,
				"z": -0.1739406704,
				"element": "H" 
			},
			{
				"x": -1.7604252763,
				"y": -3.5890753261,
				"z": 0.8877342627,
				"element": "H" 
			},
			{
				"x": 0.2224910491,
				"y": -2.1896730475,
				"z": 0.3503667258,
				"element": "H" 
			}
		],
		 "valence_orbital": [ 
			{
				"type": "occ",
				"energy": -0.32513,
				"method": "rhf"
			},
			{
				"type": "occ",
				"energy": -0.28212,
				"method": "rhf"
			},
			{
				"type": "occ",
				"energy": -0.28061,
				"method": "rhf"
			},
			{
				"type": "occ",
				"energy": -0.25124,
				"method": "rhf"
			},
			{
				"type": "occ",
				"energy": -0.23213,
				"method": "rhf"
			},
			{
				"type": "unocc",
				"energy": -0.02284,
				"method": "rhf"
			},
			{
				"type": "unocc",
				"energy": -0.00034,
				"method": "rhf"
			},
			{
				"type": "unocc",
				"energy": 0.00064,
				"method": "rhf"
			},
			{
				"type": "unocc",
				"energy": 0.06577,
				"method": "rhf"
			},
			{
				"type": "unocc",
				"energy": 0.08686,
				"method": "rhf"
			}
		],
		"cosmo_sigma_profile": { 
			"-0.025": 0.0,
			"-0.024": 0.0,
			"-0.023": 0.0,
			"-0.022": 0.0,
			"-0.021": 0.0,
			"-0.02": 0.0,
			"-0.019": 0.0946526179317,
			"-0.018": 0.789699587835,
			"-0.017": 1.03884471284,
			"-0.016": 1.06793892282,
			"-0.015": 0.135417892409,
			"-0.014": 0.440628551013,
			"-0.013": 1.02884696012,
			"-0.012": 0.786945695041,
			"-0.011": 0.645739576244,
			"-0.01": 1.11023687171,
			"-0.009": 1.77472441686,
			"-0.008": 4.77111339972,
			"-0.007": 10.0212661481,
			"-0.006": 17.4223328531,
			"-0.005": 15.8488312264,
			"-0.004": 12.5777242192,
			"-0.003": 10.9361389072,
			"-0.002": 10.1041424507,
			"-0.001": 9.0299741102,
			"0.0": 8.68853725553,
			"0.001": 14.0455489642,
			"0.002": 15.4513942444,
			"0.003": 14.2780086339,
			"0.004": 7.28108756239,
			"0.005": 7.83495415463,
			"0.006": 5.69900128937,
			"0.007": 3.23395705676,
			"0.008": 5.51578007903,
			"0.009": 4.65468297737,
			"0.01": 3.13946886946,
			"0.011": 5.14049632519,
			"0.012": 5.04370749961,
			"0.013": 2.06684777276,
			"0.014": 0.533739267552,
			"0.015": 1.16261361805,
			"0.016": 0.767090516541,
			"0.017": 0.321667409807,
			"0.018": 0.0,
			"0.019": 0.0,
			"0.02": 0.0,
			"0.021": 0.0,
			"0.022": 0.0,
			"0.023": 0.0,
			"0.024": 0.0,
			"0.025": 0.0
		}
	}
}
