{
	 "smiles": "COC1C(CC2CN3CCC4=C(NC5=CC=CC=C45)C3CC2C1C(=O)OC)OC(=O)C1=CC(OC)=C(OC)C(OC)=C1", 
	 "Tm": 503.15, 
	 "num_atms": 80, 
	 "gaussian": { 
		 "optdone": 1, 
		 "sigma_profile": "yes", 
		 "theory": "DFT", 
		 "functional": "B3LYP", 
		 "basiset": "6-31G**", 
		 "properties": { 
			 "R2extent": 32488.168, 
			 "electric_dipole_moment_norm": 2.05120125536, 
			 "electric_quadrupole_moment_norm": 42.1878504851, 
			 "total_energy": -1953.5524935, 
			 "HOMO_LUMO_gap": 0.14386, 
			 "cosmo_polarized_energy": -25.66, 
			 "cosmo_cavitation_energy": 78.08, 
			 "cosmo_dispersion_energy": -51.32, 
			 "cosmo_repulsion_energy": 3.83, 
			 "cosmo_total_nonelectrostatic_energy": 30.59, 
			 "SMD_solvation_energy": 13.87 
		},
		"coords": [
			{
				"x": -0.5837045278,
				"y": -2.6056456806,
				"z": -2.2340333513,
				"element": "C" 
			},
			{
				"x": -0.5615664992,
				"y": -3.2131439881,
				"z": -0.9503937895,
				"element": "O" 
			},
			{
				"x": -1.0282837414,
				"y": -2.4545750383,
				"z": 0.1564094463,
				"element": "C" 
			},
			{
				"x": -0.2374129949,
				"y": -1.1647610956,
				"z": 0.4207254912,
				"element": "C" 
			},
			{
				"x": -0.6711543294,
				"y": -0.5149174565,
				"z": 1.7408690857,
				"element": "C" 
			},
			{
				"x": -2.2156949549,
				"y": -0.4309979878,
				"z": 1.9200723842,
				"element": "C" 
			},
			{
				"x": -2.725410722,
				"y": 0.9195597858,
				"z": 2.4551590252,
				"element": "C" 
			},
			{
				"x": -2.7339429636,
				"y": 2.0209048438,
				"z": 1.4723460489,
				"element": "N" 
			},
			{
				"x": -3.9659170684,
				"y": 2.8162926205,
				"z": 1.5231697264,
				"element": "C" 
			},
			{
				"x": -3.8021512875,
				"y": 4.1713137038,
				"z": 0.8193674943,
				"element": "C" 
			},
			{
				"x": -3.1661215152,
				"y": 3.9572909876,
				"z": -0.519260635,
				"element": "C" 
			},
			{
				"x": -2.4852146309,
				"y": 2.8037947948,
				"z": -0.8008565101,
				"element": "C" 
			},
			{
				"x": -1.9862377683,
				"y": 2.8547754027,
				"z": -2.0937701543,
				"element": "N" 
			},
			{
				"x": -2.3268557577,
				"y": 4.071927443,
				"z": -2.6568804337,
				"element": "C" 
			},
			{
				"x": -2.0448029565,
				"y": 4.5938052403,
				"z": -3.9221212022,
				"element": "C" 
			},
			{
				"x": -2.5334604096,
				"y": 5.8627603135,
				"z": -4.2192254125,
				"element": "C" 
			},
			{
				"x": -3.2876764029,
				"y": 6.5927957619,
				"z": -3.2791651016,
				"element": "C" 
			},
			{
				"x": -3.5657936729,
				"y": 6.0704578945,
				"z": -2.0208987488,
				"element": "C" 
			},
			{
				"x": -3.0830302364,
				"y": 4.7935873412,
				"z": -1.6886537083,
				"element": "C" 
			},
			{
				"x": -2.2865097675,
				"y": 1.6417108404,
				"z": 0.1230981047,
				"element": "C" 
			},
			{
				"x": -2.9439254076,
				"y": 0.342466669,
				"z": -0.424195219,
				"element": "C" 
			},
			{
				"x": -2.9990185488,
				"y": -0.7924183277,
				"z": 0.6401203881,
				"element": "C" 
			},
			{
				"x": -2.5609456084,
				"y": -2.1845076078,
				"z": 0.0828948821,
				"element": "C" 
			},
			{
				"x": -3.3108537238,
				"y": -3.268452293,
				"z": 0.8439611303,
				"element": "C" 
			},
			{
				"x": -2.95762645,
				"y": -3.7655848466,
				"z": 1.8941684535,
				"element": "O" 
			},
			{
				"x": -4.4735991041,
				"y": -3.578541188,
				"z": 0.2318393822,
				"element": "O" 
			},
			{
				"x": -5.2889888539,
				"y": -4.5497033182,
				"z": 0.9109635628,
				"element": "C" 
			},
			{
				"x": 1.1611732072,
				"y": -1.5070934175,
				"z": 0.5514554743,
				"element": "O" 
			},
			{
				"x": 2.0332985162,
				"y": -0.9960976649,
				"z": -0.3461842967,
				"element": "C" 
			},
			{
				"x": 1.7120143091,
				"y": -0.2550624179,
				"z": -1.2607314544,
				"element": "O" 
			},
			{
				"x": 3.4322359903,
				"y": -1.4320129152,
				"z": -0.0857495642,
				"element": "C" 
			},
			{
				"x": 3.7604019964,
				"y": -2.2938589864,
				"z": 0.9677769237,
				"element": "C" 
			},
			{
				"x": 5.0851460556,
				"y": -2.68216903,
				"z": 1.1655571201,
				"element": "C" 
			},
			{
				"x": 5.3639237704,
				"y": -3.5950480886,
				"z": 2.1507979965,
				"element": "O" 
			},
			{
				"x": 6.1720898882,
				"y": -3.1210276431,
				"z": 3.2331687612,
				"element": "C" 
			},
			{
				"x": 6.0948917064,
				"y": -2.1993090796,
				"z": 0.3117165461,
				"element": "C" 
			},
			{
				"x": 7.3977631929,
				"y": -2.5859521257,
				"z": 0.513404823,
				"element": "O" 
			},
			{
				"x": 7.8694949308,
				"y": -3.5741289027,
				"z": -0.4163017397,
				"element": "C" 
			},
			{
				"x": 5.7594066067,
				"y": -1.3140837441,
				"z": -0.7310741057,
				"element": "C" 
			},
			{
				"x": 6.7232723289,
				"y": -0.8675072473,
				"z": -1.6052459912,
				"element": "O" 
			},
			{
				"x": 7.6570064219,
				"y": 0.0685480519,
				"z": -1.0531019422,
				"element": "C" 
			},
			{
				"x": 4.4350350012,
				"y": -0.935993696,
				"z": -0.9283221214,
				"element": "C" 
			},
			{
				"x": 0.0790314728,
				"y": -1.7348329852,
				"z": -2.299377985,
				"element": "H" 
			},
			{
				"x": -1.5953608469,
				"y": -2.3066352386,
				"z": -2.5466500529,
				"element": "H" 
			},
			{
				"x": -0.2293245247,
				"y": -3.3687105054,
				"z": -2.9311744208,
				"element": "H" 
			},
			{
				"x": -0.848347097,
				"y": -3.1120929508,
				"z": 1.0127669704,
				"element": "H" 
			},
			{
				"x": -0.3224351639,
				"y": -0.4671580523,
				"z": -0.4125758184,
				"element": "H" 
			},
			{
				"x": -0.2063876032,
				"y": 0.4734413391,
				"z": 1.8148641345,
				"element": "H" 
			},
			{
				"x": -0.2463906208,
				"y": -1.1153951121,
				"z": 2.5525002699,
				"element": "H" 
			},
			{
				"x": -2.4891638346,
				"y": -1.1778132639,
				"z": 2.6726645666,
				"element": "H" 
			},
			{
				"x": -3.7513566616,
				"y": 0.7453211766,
				"z": 2.8154499683,
				"element": "H" 
			},
			{
				"x": -2.1345530805,
				"y": 1.2124277392,
				"z": 3.3360526951,
				"element": "H" 
			},
			{
				"x": -4.2054078498,
				"y": 2.9809694556,
				"z": 2.5786934276,
				"element": "H" 
			},
			{
				"x": -4.8288020898,
				"y": 2.2793745349,
				"z": 1.0818101341,
				"element": "H" 
			},
			{
				"x": -3.1859224272,
				"y": 4.8354332154,
				"z": 1.4410927876,
				"element": "H" 
			},
			{
				"x": -4.7860496543,
				"y": 4.6489056614,
				"z": 0.7260447059,
				"element": "H" 
			},
			{
				"x": -1.3626014638,
				"y": 2.1788683515,
				"z": -2.5052108949,
				"element": "H" 
			},
			{
				"x": -1.4643016893,
				"y": 4.0314366968,
				"z": -4.6484379451,
				"element": "H" 
			},
			{
				"x": -2.3298539003,
				"y": 6.2968670395,
				"z": -5.1938317978,
				"element": "H" 
			},
			{
				"x": -3.655123619,
				"y": 7.5798998888,
				"z": -3.5447858433,
				"element": "H" 
			},
			{
				"x": -4.1465482441,
				"y": 6.6433165565,
				"z": -1.3028779011,
				"element": "H" 
			},
			{
				"x": -1.2046207921,
				"y": 1.4627593279,
				"z": 0.1852374241,
				"element": "H" 
			},
			{
				"x": -3.9589429494,
				"y": 0.5730278324,
				"z": -0.7641042215,
				"element": "H" 
			},
			{
				"x": -2.3958443297,
				"y": 0.0195725069,
				"z": -1.3180330525,
				"element": "H" 
			},
			{
				"x": -4.0494324426,
				"y": -0.8860502568,
				"z": 0.9406631384,
				"element": "H" 
			},
			{
				"x": -2.889137515,
				"y": -2.2427260233,
				"z": -0.9574627564,
				"element": "H" 
			},
			{
				"x": -5.5744133813,
				"y": -4.1877388661,
				"z": 1.9019290419,
				"element": "H" 
			},
			{
				"x": -6.1698573397,
				"y": -4.6843741809,
				"z": 0.2835837544,
				"element": "H" 
			},
			{
				"x": -4.7481748033,
				"y": -5.492430016,
				"z": 1.0226492394,
				"element": "H" 
			},
			{
				"x": 2.9955805911,
				"y": -2.6887155273,
				"z": 1.6244336821,
				"element": "H" 
			},
			{
				"x": 7.1606595436,
				"y": -2.8077641232,
				"z": 2.8863225562,
				"element": "H" 
			},
			{
				"x": 6.2731828256,
				"y": -3.9601870781,
				"z": 3.9243202654,
				"element": "H" 
			},
			{
				"x": 5.6801002818,
				"y": -2.2867539794,
				"z": 3.7496475563,
				"element": "H" 
			},
			{
				"x": 7.8220435698,
				"y": -3.1967897364,
				"z": -1.4424051816,
				"element": "H" 
			},
			{
				"x": 7.2823532847,
				"y": -4.4951281269,
				"z": -0.3288650274,
				"element": "H" 
			},
			{
				"x": 8.9072456319,
				"y": -3.7767233631,
				"z": -0.1447801578,
				"element": "H" 
			},
			{
				"x": 8.3443969464,
				"y": 0.3254153655,
				"z": -1.8614881537,
				"element": "H" 
			},
			{
				"x": 7.141931242,
				"y": 0.9763098935,
				"z": -0.7148100164,
				"element": "H" 
			},
			{
				"x": 8.2145570801,
				"y": -0.3693848289,
				"z": -0.2195740791,
				"element": "H" 
			},
			{
				"x": 4.1808174354,
				"y": -0.2649402747,
				"z": -1.7402577813,
				"element": "H" 
			}
		],
		 "valence_orbital": [ 
			{
				"type": "occ",
				"energy": -0.23993,
				"method": "rhf"
			},
			{
				"type": "occ",
				"energy": -0.23587,
				"method": "rhf"
			},
			{
				"type": "occ",
				"energy": -0.21139,
				"method": "rhf"
			},
			{
				"type": "occ",
				"energy": -0.20032,
				"method": "rhf"
			},
			{
				"type": "occ",
				"energy": -0.18934,
				"method": "rhf"
			},
			{
				"type": "unocc",
				"energy": -0.04548,
				"method": "rhf"
			},
			{
				"type": "unocc",
				"energy": -0.00094,
				"method": "rhf"
			},
			{
				"type": "unocc",
				"energy": -0.00063,
				"method": "rhf"
			},
			{
				"type": "unocc",
				"energy": 0.00628,
				"method": "rhf"
			},
			{
				"type": "unocc",
				"energy": 0.03491,
				"method": "rhf"
			}
		],
		"cosmo_sigma_profile": { 
			"-0.025": 0.0,
			"-0.024": 0.0,
			"-0.023": 0.0,
			"-0.022": 0.0,
			"-0.021": 0.0,
			"-0.02": 0.0,
			"-0.019": 0.0,
			"-0.018": 0.0,
			"-0.017": 0.0,
			"-0.016": 0.0,
			"-0.015": 0.27409337222,
			"-0.014": 0.891840447907,
			"-0.013": 1.21089273054,
			"-0.012": 1.33424214518,
			"-0.011": 1.67962428606,
			"-0.01": 1.73297757899,
			"-0.009": 2.13341760453,
			"-0.008": 1.99266683759,
			"-0.007": 4.04086847466,
			"-0.006": 16.9322920373,
			"-0.005": 35.5768861744,
			"-0.004": 57.0522853231,
			"-0.003": 82.4636583575,
			"-0.002": 75.4352371491,
			"-0.001": 55.5232030322,
			"0.0": 45.9948292317,
			"0.001": 35.5741981641,
			"0.002": 35.3838956176,
			"0.003": 26.5532259072,
			"0.004": 22.0007408752,
			"0.005": 23.6806090819,
			"0.006": 22.8649781762,
			"0.007": 17.671832707,
			"0.008": 12.1203243685,
			"0.009": 7.52293838357,
			"0.01": 8.19057068189,
			"0.011": 8.54365662959,
			"0.012": 6.90452928573,
			"0.013": 1.64807547183,
			"0.014": 0.707087394448,
			"0.015": 0.347345660218,
			"0.016": 0.0,
			"0.017": 0.0,
			"0.018": 0.0,
			"0.019": 0.0,
			"0.02": 0.0,
			"0.021": 0.0,
			"0.022": 0.0,
			"0.023": 0.0,
			"0.024": 0.0,
			"0.025": 0.0
		}
	}
}
