{
	 "smiles": "CCOC(=O)C1=C(N)SC2=C1C=CC=C2", 
	 "Tm": 379.15, 
	 "num_atms": 26, 
	 "gaussian": { 
		 "optdone": 1, 
		 "sigma_profile": "yes", 
		 "theory": "DFT", 
		 "functional": "B3LYP", 
		 "basiset": "6-31G**", 
		 "properties": { 
			 "R2extent": 4505.5971, 
			 "electric_dipole_moment_norm": 3.7486388463, 
			 "electric_quadrupole_moment_norm": 15.1357596892, 
			 "total_energy": -1029.21589406, 
			 "HOMO_LUMO_gap": 0.17608, 
			 "cosmo_polarized_energy": -12.47, 
			 "cosmo_cavitation_energy": 31.1, 
			 "cosmo_dispersion_energy": -23.48, 
			 "cosmo_repulsion_energy": 1.79, 
			 "cosmo_total_nonelectrostatic_energy": 9.4, 
			 "SMD_solvation_energy": 5.57 
		},
		"coords": [
			{
				"x": 3.9698518402,
				"y": 2.6373289372,
				"z": -0.985583321,
				"element": "C" 
			},
			{
				"x": 3.0117524055,
				"y": 1.4870850172,
				"z": -1.2341171079,
				"element": "C" 
			},
			{
				"x": 1.8214336051,
				"y": 1.7313516847,
				"z": -0.4525023025,
				"element": "O" 
			},
			{
				"x": 0.8437208815,
				"y": 0.7688060771,
				"z": -0.5482460118,
				"element": "C" 
			},
			{
				"x": 0.9948604916,
				"y": -0.2124161263,
				"z": -1.2559518594,
				"element": "O" 
			},
			{
				"x": -0.3352583947,
				"y": 1.0648286724,
				"z": 0.2618071797,
				"element": "C" 
			},
			{
				"x": -0.4964887372,
				"y": 2.1876603509,
				"z": 1.0652884662,
				"element": "C" 
			},
			{
				"x": 0.3887176918,
				"y": 3.185592776,
				"z": 1.3327704071,
				"element": "N" 
			},
			{
				"x": -2.0611767018,
				"y": 2.2265382074,
				"z": 1.873437023,
				"element": "S" 
			},
			{
				"x": -2.5362893231,
				"y": 0.7022358161,
				"z": 1.1147725241,
				"element": "C" 
			},
			{
				"x": -1.5081454502,
				"y": 0.1981879383,
				"z": 0.2878710785,
				"element": "C" 
			},
			{
				"x": -1.7389601172,
				"y": -1.0164898127,
				"z": -0.3818515261,
				"element": "C" 
			},
			{
				"x": -2.9538662067,
				"y": -1.6757101957,
				"z": -0.2138247488,
				"element": "C" 
			},
			{
				"x": -3.9584936927,
				"y": -1.1531327995,
				"z": 0.6121398232,
				"element": "C" 
			},
			{
				"x": -3.7549046399,
				"y": 0.0492693148,
				"z": 1.2872246055,
				"element": "C" 
			},
			{
				"x": 4.8888602658,
				"y": 2.4852424995,
				"z": -1.5599765131,
				"element": "H" 
			},
			{
				"x": 4.2377041883,
				"y": 2.70467031,
				"z": 0.0733421472,
				"element": "H" 
			},
			{
				"x": 3.5307108748,
				"y": 3.5909064457,
				"z": -1.2954820205,
				"element": "H" 
			},
			{
				"x": 3.4398429638,
				"y": 0.5259317316,
				"z": -0.9343885972,
				"element": "H" 
			},
			{
				"x": 2.7330276209,
				"y": 1.4067256026,
				"z": -2.289249629,
				"element": "H" 
			},
			{
				"x": 1.2126616636,
				"y": 3.2071502848,
				"z": 0.7475102766,
				"element": "H" 
			},
			{
				"x": 0.0422418027,
				"y": 4.0612414201,
				"z": 1.6916925849,
				"element": "H" 
			},
			{
				"x": -0.9637009232,
				"y": -1.4199557863,
				"z": -1.0204978817,
				"element": "H" 
			},
			{
				"x": -3.1237896486,
				"y": -2.6137564547,
				"z": -0.734612078,
				"element": "H" 
			},
			{
				"x": -4.8989934063,
				"y": -1.6829224678,
				"z": 0.729934504,
				"element": "H" 
			},
			{
				"x": -4.5247190539,
				"y": 0.4648305566,
				"z": 1.930392977,
				"element": "H" 
			}
		],
		 "valence_orbital": [ 
			{
				"type": "occ",
				"energy": -0.29313,
				"method": "rhf"
			},
			{
				"type": "occ",
				"energy": -0.27093,
				"method": "rhf"
			},
			{
				"type": "occ",
				"energy": -0.26567,
				"method": "rhf"
			},
			{
				"type": "occ",
				"energy": -0.2235,
				"method": "rhf"
			},
			{
				"type": "occ",
				"energy": -0.19984,
				"method": "rhf"
			},
			{
				"type": "unocc",
				"energy": -0.02376,
				"method": "rhf"
			},
			{
				"type": "unocc",
				"energy": 0.00265,
				"method": "rhf"
			},
			{
				"type": "unocc",
				"energy": 0.00543,
				"method": "rhf"
			},
			{
				"type": "unocc",
				"energy": 0.00774,
				"method": "rhf"
			},
			{
				"type": "unocc",
				"energy": 0.07593,
				"method": "rhf"
			}
		],
		"cosmo_sigma_profile": { 
			"-0.025": 0.0,
			"-0.024": 0.0,
			"-0.023": 0.0,
			"-0.022": 0.0,
			"-0.021": 0.0,
			"-0.02": 0.0,
			"-0.019": 0.0,
			"-0.018": 0.0,
			"-0.017": 0.0,
			"-0.016": 0.0526130284252,
			"-0.015": 1.23832096877,
			"-0.014": 1.04569500556,
			"-0.013": 1.62230976364,
			"-0.012": 1.2181450471,
			"-0.011": 1.7064756053,
			"-0.01": 2.20582352556,
			"-0.009": 1.50191557959,
			"-0.008": 2.07025669793,
			"-0.007": 3.28333245358,
			"-0.006": 5.59929899398,
			"-0.005": 12.3411550495,
			"-0.004": 21.3909070783,
			"-0.003": 22.9572448319,
			"-0.002": 19.4793303484,
			"-0.001": 18.8617976768,
			"0.0": 18.7665203481,
			"0.001": 18.4407522724,
			"0.002": 19.2034408881,
			"0.003": 19.5997706675,
			"0.004": 18.3305702769,
			"0.005": 14.2287849326,
			"0.006": 9.66113070601,
			"0.007": 2.98949290019,
			"0.008": 1.99042154654,
			"0.009": 2.42248991983,
			"0.01": 1.43252717514,
			"0.011": 2.13425478125,
			"0.012": 2.86803457551,
			"0.013": 1.48551958042,
			"0.014": 0.0,
			"0.015": 0.0,
			"0.016": 0.0,
			"0.017": 0.0,
			"0.018": 0.0,
			"0.019": 0.0,
			"0.02": 0.0,
			"0.021": 0.0,
			"0.022": 0.0,
			"0.023": 0.0,
			"0.024": 0.0,
			"0.025": 0.0
		}
	}
}
