{
	 "smiles": "C(C1=CC=CC=C1)C1=NC2=CC=CC=C2N=C1CC1=CC=CC=C1", 
	 "Tm": 391.15, 
	 "num_atms": 42, 
	 "gaussian": { 
		 "optdone": 1, 
		 "sigma_profile": "yes", 
		 "theory": "DFT", 
		 "functional": "B3LYP", 
		 "basiset": "6-31G**", 
		 "properties": { 
			 "R2extent": 8574.2662, 
			 "electric_dipole_moment_norm": 0.363619292667, 
			 "electric_quadrupole_moment_norm": 10.7243447567, 
			 "total_energy": -958.709464206, 
			 "HOMO_LUMO_gap": 0.16557, 
			 "cosmo_polarized_energy": -10.72, 
			 "cosmo_cavitation_energy": 45.25, 
			 "cosmo_dispersion_energy": -30.52, 
			 "cosmo_repulsion_energy": 2.3, 
			 "cosmo_total_nonelectrostatic_energy": 17.03, 
			 "SMD_solvation_energy": 4.51 
		},
		"coords": [
			{
				"x": 1.6308877559,
				"y": 0.1473079125,
				"z": 0.7725499753,
				"element": "C" 
			},
			{
				"x": 1.3867008861,
				"y": -1.2288882761,
				"z": 1.3764271101,
				"element": "C" 
			},
			{
				"x": 0.5312084051,
				"y": -1.3888884946,
				"z": 2.4756138173,
				"element": "C" 
			},
			{
				"x": 0.3353267959,
				"y": -2.6459487496,
				"z": 3.0474317343,
				"element": "C" 
			},
			{
				"x": 0.9924560056,
				"y": -3.7653318937,
				"z": 2.5310466766,
				"element": "C" 
			},
			{
				"x": 1.8501031182,
				"y": -3.6170280233,
				"z": 1.4401012407,
				"element": "C" 
			},
			{
				"x": 2.0429643975,
				"y": -2.3573224654,
				"z": 0.8680626612,
				"element": "C" 
			},
			{
				"x": 0.3835398441,
				"y": 0.9880096004,
				"z": 0.567374643,
				"element": "C" 
			},
			{
				"x": 0.2090642579,
				"y": 1.9780740893,
				"z": 1.4233848662,
				"element": "N" 
			},
			{
				"x": -0.8805068506,
				"y": 2.781532889,
				"z": 1.2664133936,
				"element": "C" 
			},
			{
				"x": -1.1062610648,
				"y": 3.8510940662,
				"z": 2.169602275,
				"element": "C" 
			},
			{
				"x": -2.1977445142,
				"y": 4.6739644109,
				"z": 1.9974919408,
				"element": "C" 
			},
			{
				"x": -3.0993722742,
				"y": 4.4633005366,
				"z": 0.9226193473,
				"element": "C" 
			},
			{
				"x": -2.9022620708,
				"y": 3.4306806498,
				"z": 0.0322644341,
				"element": "C" 
			},
			{
				"x": -1.7891581793,
				"y": 2.5660847925,
				"z": 0.1901556637,
				"element": "C" 
			},
			{
				"x": -1.5971979488,
				"y": 1.5378435912,
				"z": -0.6808971844,
				"element": "N" 
			},
			{
				"x": -0.5578924497,
				"y": 0.7485839823,
				"z": -0.5006566715,
				"element": "C" 
			},
			{
				"x": -0.4073543269,
				"y": -0.3992141753,
				"z": -1.4926427896,
				"element": "C" 
			},
			{
				"x": -1.5959317425,
				"y": -1.3491656701,
				"z": -1.5064961774,
				"element": "C" 
			},
			{
				"x": -1.5450862884,
				"y": -2.5649420629,
				"z": -0.8130023086,
				"element": "C" 
			},
			{
				"x": -2.6372532505,
				"y": -3.4352029268,
				"z": -0.8216428687,
				"element": "C" 
			},
			{
				"x": -3.7957918498,
				"y": -3.1010911568,
				"z": -1.5237449948,
				"element": "C" 
			},
			{
				"x": -3.8554093954,
				"y": -1.8901894908,
				"z": -2.2171389088,
				"element": "C" 
			},
			{
				"x": -2.7641551534,
				"y": -1.0213480911,
				"z": -2.2080035801,
				"element": "C" 
			},
			{
				"x": 2.1715203211,
				"y": 0.0347567117,
				"z": -0.1738346268,
				"element": "H" 
			},
			{
				"x": 2.2766216027,
				"y": 0.7273405571,
				"z": 1.4403712818,
				"element": "H" 
			},
			{
				"x": 0.0198912242,
				"y": -0.521827581,
				"z": 2.8838387113,
				"element": "H" 
			},
			{
				"x": -0.3329218231,
				"y": -2.7517226213,
				"z": 3.8974238551,
				"element": "H" 
			},
			{
				"x": 0.8380668925,
				"y": -4.7439720451,
				"z": 2.9762218016,
				"element": "H" 
			},
			{
				"x": 2.3680204477,
				"y": -4.4800865788,
				"z": 1.0311454104,
				"element": "H" 
			},
			{
				"x": 2.7135389738,
				"y": -2.2490264091,
				"z": 0.0185876679,
				"element": "H" 
			},
			{
				"x": -0.3992883157,
				"y": 3.9928273001,
				"z": 2.9808558015,
				"element": "H" 
			},
			{
				"x": -2.3733980535,
				"y": 5.4942035474,
				"z": 2.6873863234,
				"element": "H" 
			},
			{
				"x": -3.952724045,
				"y": 5.124957557,
				"z": 0.8058063961,
				"element": "H" 
			},
			{
				"x": -3.5791621815,
				"y": 3.2458427875,
				"z": -0.7956533027,
				"element": "H" 
			},
			{
				"x": -0.2909836896,
				"y": 0.0464276116,
				"z": -2.4880347304,
				"element": "H" 
			},
			{
				"x": 0.5026401596,
				"y": -0.9639196664,
				"z": -1.2861038704,
				"element": "H" 
			},
			{
				"x": -0.6468722436,
				"y": -2.8340513261,
				"z": -0.2644503587,
				"element": "H" 
			},
			{
				"x": -2.5794453199,
				"y": -4.3752409237,
				"z": -0.2797433289,
				"element": "H" 
			},
			{
				"x": -4.6446135785,
				"y": -3.779175097,
				"z": -1.5335892381,
				"element": "H" 
			},
			{
				"x": -4.7523589192,
				"y": -1.6224553138,
				"z": -2.7690623544,
				"element": "H" 
			},
			{
				"x": -2.8167055591,
				"y": -0.0758935544,
				"z": -2.7383797338,
				"element": "H" 
			}
		],
		 "valence_orbital": [ 
			{
				"type": "occ",
				"energy": -0.24591,
				"method": "rhf"
			},
			{
				"type": "occ",
				"energy": -0.24142,
				"method": "rhf"
			},
			{
				"type": "occ",
				"energy": -0.23946,
				"method": "rhf"
			},
			{
				"type": "occ",
				"energy": -0.23657,
				"method": "rhf"
			},
			{
				"type": "occ",
				"energy": -0.23122,
				"method": "rhf"
			},
			{
				"type": "unocc",
				"energy": -0.06565,
				"method": "rhf"
			},
			{
				"type": "unocc",
				"energy": -0.02162,
				"method": "rhf"
			},
			{
				"type": "unocc",
				"energy": -0.00554,
				"method": "rhf"
			},
			{
				"type": "unocc",
				"energy": -0.00291,
				"method": "rhf"
			},
			{
				"type": "unocc",
				"energy": 0.00864,
				"method": "rhf"
			}
		],
		"cosmo_sigma_profile": { 
			"-0.025": 0.0,
			"-0.024": 0.0,
			"-0.023": 0.0,
			"-0.022": 0.0,
			"-0.021": 0.0,
			"-0.02": 0.0,
			"-0.019": 0.0,
			"-0.018": 0.0,
			"-0.017": 0.0,
			"-0.016": 0.0,
			"-0.015": 0.0,
			"-0.014": 0.0,
			"-0.013": 0.0,
			"-0.012": 0.0,
			"-0.011": 0.0,
			"-0.01": 0.0,
			"-0.009": 0.0,
			"-0.008": 0.0,
			"-0.007": 2.48741955325,
			"-0.006": 16.414648644,
			"-0.005": 29.5917042482,
			"-0.004": 34.5630155581,
			"-0.003": 33.5116650109,
			"-0.002": 29.8454805216,
			"-0.001": 27.4882233108,
			"0.0": 25.3052226504,
			"0.001": 27.7578816194,
			"0.002": 33.1404470254,
			"0.003": 30.1296995436,
			"0.004": 25.9565013867,
			"0.005": 15.9893554843,
			"0.006": 14.6682825112,
			"0.007": 6.32684702264,
			"0.008": 2.40280230228,
			"0.009": 2.13380470915,
			"0.01": 2.80818999237,
			"0.011": 0.76387922742,
			"0.012": 0.282379187901,
			"0.013": 0.80909675644,
			"0.014": 0.328263418745,
			"0.015": 0.0,
			"0.016": 0.0,
			"0.017": 0.0,
			"0.018": 0.0,
			"0.019": 0.0,
			"0.02": 0.0,
			"0.021": 0.0,
			"0.022": 0.0,
			"0.023": 0.0,
			"0.024": 0.0,
			"0.025": 0.0
		}
	}
}
