{
	 "smiles": "CC1=CC(Br)=C(O)N=C1", 
	 "Tm": 430.15, 
	 "num_atms": 15, 
	 "gaussian": { 
		 "optdone": 1, 
		 "sigma_profile": "yes", 
		 "theory": "DFT", 
		 "functional": "B3LYP", 
		 "basiset": "6-31G**", 
		 "properties": { 
			 "R2extent": 2364.3772, 
			 "electric_dipole_moment_norm": 2.36281607198, 
			 "electric_quadrupole_moment_norm": 5.75938243304, 
			 "total_energy": -2933.63934924, 
			 "HOMO_LUMO_gap": 0.19821, 
			 "cosmo_polarized_energy": -7.63, 
			 "cosmo_cavitation_energy": 21.45, 
			 "cosmo_dispersion_energy": -16.51, 
			 "cosmo_repulsion_energy": 1.36, 
			 "cosmo_total_nonelectrostatic_energy": 6.3, 
			 "SMD_solvation_energy": 1.87 
		},
		"coords": [
			{
				"x": -2.2714133055,
				"y": 1.3516499797,
				"z": -0.5160967183,
				"element": "C" 
			},
			{
				"x": -0.8928507742,
				"y": 0.9882526627,
				"z": -0.0233661637,
				"element": "C" 
			},
			{
				"x": -0.651920715,
				"y": -0.2042536692,
				"z": 0.6791364826,
				"element": "C" 
			},
			{
				"x": 0.6270794607,
				"y": -0.5074676782,
				"z": 1.1171753077,
				"element": "C" 
			},
			{
				"x": 0.9739115011,
				"y": -2.1164837698,
				"z": 2.0700417341,
				"element": "Br" 
			},
			{
				"x": 1.6645779663,
				"y": 0.4016318276,
				"z": 0.841628488,
				"element": "C" 
			},
			{
				"x": 2.9196655494,
				"y": 0.1350225497,
				"z": 1.2543204852,
				"element": "O" 
			},
			{
				"x": 1.452462983,
				"y": 1.5320826489,
				"z": 0.1793341522,
				"element": "N" 
			},
			{
				"x": 0.2098622677,
				"y": 1.8132581643,
				"z": -0.2388349955,
				"element": "C" 
			},
			{
				"x": -2.260998963,
				"y": 2.3132184658,
				"z": -1.0366977149,
				"element": "H" 
			},
			{
				"x": -2.660150715,
				"y": 0.6001797947,
				"z": -1.2126059039,
				"element": "H" 
			},
			{
				"x": -2.9864834587,
				"y": 1.4284385977,
				"z": 0.3107430062,
				"element": "H" 
			},
			{
				"x": -1.4624970029,
				"y": -0.8966290853,
				"z": 0.8845057453,
				"element": "H" 
			},
			{
				"x": 3.4583990022,
				"y": 0.8863046886,
				"z": 0.9590253333,
				"element": "H" 
			},
			{
				"x": 0.0941562039,
				"y": 2.7527948228,
				"z": -0.7764092384,
				"element": "H" 
			}
		],
		 "valence_orbital": [ 
			{
				"type": "occ",
				"energy": -0.32933,
				"method": "rhf"
			},
			{
				"type": "occ",
				"energy": -0.29261,
				"method": "rhf"
			},
			{
				"type": "occ",
				"energy": -0.27232,
				"method": "rhf"
			},
			{
				"type": "occ",
				"energy": -0.27097,
				"method": "rhf"
			},
			{
				"type": "occ",
				"energy": -0.23134,
				"method": "rhf"
			},
			{
				"type": "unocc",
				"energy": -0.03313,
				"method": "rhf"
			},
			{
				"type": "unocc",
				"energy": -0.00403,
				"method": "rhf"
			},
			{
				"type": "unocc",
				"energy": 0.00851,
				"method": "rhf"
			},
			{
				"type": "unocc",
				"energy": 0.08693,
				"method": "rhf"
			},
			{
				"type": "unocc",
				"energy": 0.10014,
				"method": "rhf"
			}
		],
		"cosmo_sigma_profile": { 
			"-0.025": 0.0,
			"-0.024": 0.0,
			"-0.023": 0.0,
			"-0.022": 0.0,
			"-0.021": 0.0,
			"-0.02": 0.0,
			"-0.019": 0.0,
			"-0.018": 0.0347306225245,
			"-0.017": 0.795775491523,
			"-0.016": 0.776123251691,
			"-0.015": 0.782109026295,
			"-0.014": 0.631078210232,
			"-0.013": 0.578415514273,
			"-0.012": 1.07220545034,
			"-0.011": 0.615086103076,
			"-0.01": 0.549552549444,
			"-0.009": 0.438421978269,
			"-0.008": 1.15857533225,
			"-0.007": 3.35301825651,
			"-0.006": 5.05043031131,
			"-0.005": 9.22864799372,
			"-0.004": 13.3795354938,
			"-0.003": 10.9901457295,
			"-0.002": 12.1595691103,
			"-0.001": 13.9140319282,
			"0.0": 19.7022246823,
			"0.001": 16.9004091676,
			"0.002": 15.818554638,
			"0.003": 8.79632754711,
			"0.004": 12.7987827724,
			"0.005": 6.46609463259,
			"0.006": 3.4196182201,
			"0.007": 3.42581616118,
			"0.008": 2.57561755969,
			"0.009": 2.61105971017,
			"0.01": 3.36484055701,
			"0.011": 1.36688139681,
			"0.012": 1.04994473162,
			"0.013": 0.546206447757,
			"0.014": 0.0339945464175,
			"0.015": 0.0,
			"0.016": 0.0,
			"0.017": 0.0,
			"0.018": 0.0,
			"0.019": 0.0,
			"0.02": 0.0,
			"0.021": 0.0,
			"0.022": 0.0,
			"0.023": 0.0,
			"0.024": 0.0,
			"0.025": 0.0
		}
	}
}
