{
	 "smiles": "COC1=CC(CC=C)=CC=C1OC(C)=O", 
	 "Tm": 303.65, 
	 "num_atms": 29, 
	 "gaussian": { 
		 "optdone": 1, 
		 "sigma_profile": "yes", 
		 "theory": "DFT", 
		 "functional": "B3LYP", 
		 "basiset": "6-31G**", 
		 "properties": { 
			 "R2extent": 4310.6051, 
			 "electric_dipole_moment_norm": 1.7893729125, 
			 "electric_quadrupole_moment_norm": 13.529119294, 
			 "total_energy": -691.361511377, 
			 "HOMO_LUMO_gap": 0.21336, 
			 "cosmo_polarized_energy": -11.1, 
			 "cosmo_cavitation_energy": 33.63, 
			 "cosmo_dispersion_energy": -22.95, 
			 "cosmo_repulsion_energy": 1.86, 
			 "cosmo_total_nonelectrostatic_energy": 12.53, 
			 "SMD_solvation_energy": 8.26 
		},
		"coords": [
			{
				"x": -1.093250954,
				"y": 0.4462945375,
				"z": 2.0303140607,
				"element": "C" 
			},
			{
				"x": -0.7432186866,
				"y": -0.7790087673,
				"z": 1.4050012517,
				"element": "O" 
			},
			{
				"x": -0.2623905465,
				"y": -0.7345955091,
				"z": 0.1328883051,
				"element": "C" 
			},
			{
				"x": -0.0009721295,
				"y": 0.4311142927,
				"z": -0.5890082306,
				"element": "C" 
			},
			{
				"x": 0.5164705284,
				"y": 0.3722288426,
				"z": -1.893502323,
				"element": "C" 
			},
			{
				"x": 0.7667746565,
				"y": 1.6591507531,
				"z": -2.6666050236,
				"element": "C" 
			},
			{
				"x": 1.5798447085,
				"y": 2.6745562511,
				"z": -1.9042826113,
				"element": "C" 
			},
			{
				"x": 1.1761099632,
				"y": 3.9114074626,
				"z": -1.6113665852,
				"element": "C" 
			},
			{
				"x": 0.7786394113,
				"y": -0.8727062531,
				"z": -2.4659337884,
				"element": "C" 
			},
			{
				"x": 0.5125538686,
				"y": -2.0467674366,
				"z": -1.7540792593,
				"element": "C" 
			},
			{
				"x": -0.004306273,
				"y": -1.9796438775,
				"z": -0.4718774174,
				"element": "C" 
			},
			{
				"x": -0.1909699049,
				"y": -3.1534035057,
				"z": 0.2558620408,
				"element": "O" 
			},
			{
				"x": -1.4810481953,
				"y": -3.554572515,
				"z": 0.5069185526,
				"element": "C" 
			},
			{
				"x": -1.4708148858,
				"y": -4.7543990409,
				"z": 1.4206233109,
				"element": "C" 
			},
			{
				"x": -2.4550787219,
				"y": -3.011824326,
				"z": 0.0515864765,
				"element": "O" 
			},
			{
				"x": -1.8678223739,
				"y": 0.9788376751,
				"z": 1.4648681153,
				"element": "H" 
			},
			{
				"x": -0.2212776925,
				"y": 1.1013657188,
				"z": 2.1525103298,
				"element": "H" 
			},
			{
				"x": -1.4833916225,
				"y": 0.1802856834,
				"z": 3.0137453581,
				"element": "H" 
			},
			{
				"x": -0.184223681,
				"y": 1.4022768922,
				"z": -0.1438979834,
				"element": "H" 
			},
			{
				"x": -0.1916015461,
				"y": 2.1109577577,
				"z": -2.9552393651,
				"element": "H" 
			},
			{
				"x": 1.2840069468,
				"y": 1.4063033553,
				"z": -3.6015149409,
				"element": "H" 
			},
			{
				"x": 2.5645946408,
				"y": 2.3410181958,
				"z": -1.5762543583,
				"element": "H" 
			},
			{
				"x": 0.1997008001,
				"y": 4.2798827678,
				"z": -1.9183877497,
				"element": "H" 
			},
			{
				"x": 1.8078945932,
				"y": 4.6041285605,
				"z": -1.0631109178,
				"element": "H" 
			},
			{
				"x": 1.1833700485,
				"y": -0.933852534,
				"z": -3.4720060815,
				"element": "H" 
			},
			{
				"x": 0.70791614,
				"y": -3.0232103242,
				"z": -2.1855071629,
				"element": "H" 
			},
			{
				"x": -1.1126576942,
				"y": -4.4528580762,
				"z": 2.4099743106,
				"element": "H" 
			},
			{
				"x": -0.7857387967,
				"y": -5.5181960157,
				"z": 1.0432889597,
				"element": "H" 
			},
			{
				"x": -2.4801126014,
				"y": -5.1563705648,
				"z": 1.5027927263,
				"element": "H" 
			}
		],
		 "valence_orbital": [ 
			{
				"type": "occ",
				"energy": -0.30352,
				"method": "rhf"
			},
			{
				"type": "occ",
				"energy": -0.26862,
				"method": "rhf"
			},
			{
				"type": "occ",
				"energy": -0.26171,
				"method": "rhf"
			},
			{
				"type": "occ",
				"energy": -0.23963,
				"method": "rhf"
			},
			{
				"type": "occ",
				"energy": -0.2164,
				"method": "rhf"
			},
			{
				"type": "unocc",
				"energy": -0.00304,
				"method": "rhf"
			},
			{
				"type": "unocc",
				"energy": 0.00542,
				"method": "rhf"
			},
			{
				"type": "unocc",
				"energy": 0.01844,
				"method": "rhf"
			},
			{
				"type": "unocc",
				"energy": 0.02634,
				"method": "rhf"
			},
			{
				"type": "unocc",
				"energy": 0.09168,
				"method": "rhf"
			}
		],
		"cosmo_sigma_profile": { 
			"-0.025": 0.0,
			"-0.024": 0.0,
			"-0.023": 0.0,
			"-0.022": 0.0,
			"-0.021": 0.0,
			"-0.02": 0.0,
			"-0.019": 0.0,
			"-0.018": 0.0,
			"-0.017": 0.0,
			"-0.016": 0.0,
			"-0.015": 0.0,
			"-0.014": 0.0,
			"-0.013": 0.0,
			"-0.012": 0.0,
			"-0.011": 0.0,
			"-0.01": 0.0,
			"-0.009": 0.0,
			"-0.008": 0.0,
			"-0.007": 2.96228164882,
			"-0.006": 12.2598958898,
			"-0.005": 25.9070897781,
			"-0.004": 29.556358556,
			"-0.003": 29.8301605518,
			"-0.002": 25.9440993169,
			"-0.001": 20.5556346546,
			"0.0": 15.1083189192,
			"0.001": 12.5569830672,
			"0.002": 14.5812110206,
			"0.003": 15.431158872,
			"0.004": 14.7433482287,
			"0.005": 13.7845786027,
			"0.006": 7.38292424622,
			"0.007": 5.85138458236,
			"0.008": 4.12338146349,
			"0.009": 3.47250365703,
			"0.01": 3.43459818936,
			"0.011": 4.96420497461,
			"0.012": 3.71771991149,
			"0.013": 0.389805580027,
			"0.014": 0.0,
			"0.015": 0.0,
			"0.016": 0.0,
			"0.017": 0.0,
			"0.018": 0.0,
			"0.019": 0.0,
			"0.02": 0.0,
			"0.021": 0.0,
			"0.022": 0.0,
			"0.023": 0.0,
			"0.024": 0.0,
			"0.025": 0.0
		}
	}
}
