{
	 "smiles": "CCCOC1=CC=C(C=C1N)N(=O)=O", 
	 "Tm": 322.15, 
	 "num_atms": 26, 
	 "gaussian": { 
		 "optdone": 1, 
		 "sigma_profile": "yes", 
		 "theory": "DFT", 
		 "functional": "B3LYP", 
		 "basiset": "6-31G**", 
		 "properties": { 
			 "R2extent": 4656.4885, 
			 "electric_dipole_moment_norm": 7.20329597129, 
			 "electric_quadrupole_moment_norm": 28.4101356095, 
			 "total_energy": -685.271496703, 
			 "HOMO_LUMO_gap": 0.13929, 
			 "cosmo_polarized_energy": -13.47, 
			 "cosmo_cavitation_energy": 30.3, 
			 "cosmo_dispersion_energy": -22.14, 
			 "cosmo_repulsion_energy": 1.77, 
			 "cosmo_total_nonelectrostatic_energy": 9.93, 
			 "SMD_solvation_energy": 7.54 
		},
		"coords": [
			{
				"x": -0.9280916682,
				"y": -4.231995089,
				"z": -0.1887856843,
				"element": "C" 
			},
			{
				"x": -0.3689872886,
				"y": -3.0637095966,
				"z": 0.6293217938,
				"element": "C" 
			},
			{
				"x": -0.5399089759,
				"y": -1.7314292406,
				"z": -0.0866701095,
				"element": "C" 
			},
			{
				"x": 0.0045458279,
				"y": -0.7087326696,
				"z": 0.7517750473,
				"element": "O" 
			},
			{
				"x": -0.0299284825,
				"y": 0.5863690979,
				"z": 0.3287330001,
				"element": "C" 
			},
			{
				"x": -0.5597685694,
				"y": 1.0193742817,
				"z": -0.8871009262,
				"element": "C" 
			},
			{
				"x": -0.5318410946,
				"y": 2.3727056754,
				"z": -1.2290533957,
				"element": "C" 
			},
			{
				"x": 0.0377365825,
				"y": 3.2680599687,
				"z": -0.3324881468,
				"element": "C" 
			},
			{
				"x": 0.5740476717,
				"y": 2.8601015501,
				"z": 0.8917493853,
				"element": "C" 
			},
			{
				"x": 0.5450261047,
				"y": 1.5124390123,
				"z": 1.2431018064,
				"element": "C" 
			},
			{
				"x": 1.006859427,
				"y": 1.0494156365,
				"z": 2.4668129279,
				"element": "N" 
			},
			{
				"x": 0.082793852,
				"y": 4.6896236335,
				"z": -0.6779791923,
				"element": "N" 
			},
			{
				"x": 0.6016506989,
				"y": 5.4627498277,
				"z": 0.1308554364,
				"element": "O" 
			},
			{
				"x": -0.3989321212,
				"y": 5.0363802986,
				"z": -1.7585221155,
				"element": "O" 
			},
			{
				"x": -0.7945430347,
				"y": -5.1778257166,
				"z": 0.3436394153,
				"element": "H" 
			},
			{
				"x": -1.9994616278,
				"y": -4.1092976727,
				"z": -0.3822587773,
				"element": "H" 
			},
			{
				"x": -0.4226219713,
				"y": -4.3224044256,
				"z": -1.156654798,
				"element": "H" 
			},
			{
				"x": -0.8715099874,
				"y": -3.0050073612,
				"z": 1.6015959116,
				"element": "H" 
			},
			{
				"x": 0.6972151479,
				"y": -3.218326143,
				"z": 0.8323079429,
				"element": "H" 
			},
			{
				"x": -0.0160175533,
				"y": -1.7365173407,
				"z": -1.0530948873,
				"element": "H" 
			},
			{
				"x": -1.6021670917,
				"y": -1.5245775779,
				"z": -0.2778835033,
				"element": "H" 
			},
			{
				"x": -0.9946932982,
				"y": 0.3074883807,
				"z": -1.5777283058,
				"element": "H" 
			},
			{
				"x": -0.9362835429,
				"y": 2.7306676288,
				"z": -2.1662778289,
				"element": "H" 
			},
			{
				"x": 1.0016745377,
				"y": 3.6017413754,
				"z": 1.5554654287,
				"element": "H" 
			},
			{
				"x": 1.2115762652,
				"y": 0.0609363538,
				"z": 2.4939925504,
				"element": "H" 
			},
			{
				"x": 1.7009301923,
				"y": 1.6247701124,
				"z": 2.9209470245,
				"element": "H" 
			}
		],
		 "valence_orbital": [ 
			{
				"type": "occ",
				"energy": -0.29339,
				"method": "rhf"
			},
			{
				"type": "occ",
				"energy": -0.29239,
				"method": "rhf"
			},
			{
				"type": "occ",
				"energy": -0.27426,
				"method": "rhf"
			},
			{
				"type": "occ",
				"energy": -0.25265,
				"method": "rhf"
			},
			{
				"type": "occ",
				"energy": -0.21044,
				"method": "rhf"
			},
			{
				"type": "unocc",
				"energy": -0.07115,
				"method": "rhf"
			},
			{
				"type": "unocc",
				"energy": -0.00518,
				"method": "rhf"
			},
			{
				"type": "unocc",
				"energy": 0.02753,
				"method": "rhf"
			},
			{
				"type": "unocc",
				"energy": 0.07068,
				"method": "rhf"
			},
			{
				"type": "unocc",
				"energy": 0.07875,
				"method": "rhf"
			}
		],
		"cosmo_sigma_profile": { 
			"-0.025": 0.0,
			"-0.024": 0.0,
			"-0.023": 0.0,
			"-0.022": 0.0,
			"-0.021": 0.0,
			"-0.02": 0.0,
			"-0.019": 0.0,
			"-0.018": 0.0,
			"-0.017": 0.0,
			"-0.016": 0.0,
			"-0.015": 0.0,
			"-0.014": 0.0243281116127,
			"-0.013": 1.15420623219,
			"-0.012": 1.70254098836,
			"-0.011": 2.29600905398,
			"-0.01": 2.32197837419,
			"-0.009": 2.78560494026,
			"-0.008": 2.93032323784,
			"-0.007": 5.06572715905,
			"-0.006": 8.6189668027,
			"-0.005": 11.6226304825,
			"-0.004": 15.0052796694,
			"-0.003": 22.1271403231,
			"-0.002": 19.8244918079,
			"-0.001": 20.1746579454,
			"0.0": 21.6564815937,
			"0.001": 22.3896934508,
			"0.002": 15.6499180873,
			"0.003": 14.5358699954,
			"0.004": 7.60536904661,
			"0.005": 4.73641474407,
			"0.006": 5.03385821601,
			"0.007": 5.36134858571,
			"0.008": 10.010953183,
			"0.009": 7.42520611834,
			"0.01": 5.05764355162,
			"0.011": 2.70404899035,
			"0.012": 0.77610921024,
			"0.013": 0.539148441532,
			"0.014": 0.0662785038413,
			"0.015": 0.0,
			"0.016": 0.0,
			"0.017": 0.0,
			"0.018": 0.0,
			"0.019": 0.0,
			"0.02": 0.0,
			"0.021": 0.0,
			"0.022": 0.0,
			"0.023": 0.0,
			"0.024": 0.0,
			"0.025": 0.0
		}
	}
}
