{
	 "smiles": "CC1=C(C=C(C=C1)S(N)(=O)=O)C(N)=O", 
	 "Tm": 466.15, 
	 "num_atms": 24, 
	 "gaussian": { 
		 "optdone": 1, 
		 "sigma_profile": "yes", 
		 "theory": "DFT", 
		 "functional": "B3LYP", 
		 "basiset": "6-31G**", 
		 "properties": { 
			 "R2extent": 5024.9116, 
			 "electric_dipole_moment_norm": 6.08332873434, 
			 "electric_quadrupole_moment_norm": 37.0005719446, 
			 "total_energy": -1044.19246871, 
			 "HOMO_LUMO_gap": 0.20312, 
			 "cosmo_polarized_energy": -26.47, 
			 "cosmo_cavitation_energy": 29.62, 
			 "cosmo_dispersion_energy": -21.96, 
			 "cosmo_repulsion_energy": 1.7, 
			 "cosmo_total_nonelectrostatic_energy": 9.35, 
			 "SMD_solvation_energy": 5.46 
		},
		"coords": [
			{
				"x": 2.2728373745,
				"y": 0.6688230597,
				"z": 0.5073620068,
				"element": "C" 
			},
			{
				"x": 0.8769890801,
				"y": 0.7804691574,
				"z": -0.0552273685,
				"element": "C" 
			},
			{
				"x": 0.0548700116,
				"y": 1.9170245766,
				"z": 0.1370738511,
				"element": "C" 
			},
			{
				"x": -1.2388592335,
				"y": 1.9424161238,
				"z": -0.4019789534,
				"element": "C" 
			},
			{
				"x": -1.7190362013,
				"y": 0.8611420948,
				"z": -1.1370301387,
				"element": "C" 
			},
			{
				"x": -0.9262110599,
				"y": -0.2692784738,
				"z": -1.3348503349,
				"element": "C" 
			},
			{
				"x": 0.358511816,
				"y": -0.2901407504,
				"z": -0.7994352403,
				"element": "C" 
			},
			{
				"x": -3.3772572378,
				"y": 0.9263819961,
				"z": -1.829625301,
				"element": "S" 
			},
			{
				"x": -3.2181586802,
				"y": 1.4015190554,
				"z": -3.4353619898,
				"element": "N" 
			},
			{
				"x": -3.8860905112,
				"y": -0.442475412,
				"z": -1.8786263377,
				"element": "O" 
			},
			{
				"x": -4.0819994086,
				"y": 2.0216167943,
				"z": -1.1652643274,
				"element": "O" 
			},
			{
				"x": 0.5359649727,
				"y": 3.0813360453,
				"z": 0.9653632453,
				"element": "C" 
			},
			{
				"x": -0.0030566209,
				"y": 4.3015175733,
				"z": 0.6455612262,
				"element": "N" 
			},
			{
				"x": 1.3341942903,
				"y": 2.9554148181,
				"z": 1.885948751,
				"element": "O" 
			},
			{
				"x": 2.2456699021,
				"y": 0.5948875763,
				"z": 1.5972284397,
				"element": "H" 
			},
			{
				"x": 2.8738989173,
				"y": 1.5540454899,
				"z": 0.2836687232,
				"element": "H" 
			},
			{
				"x": 2.7762953757,
				"y": -0.2123458498,
				"z": 0.100837731,
				"element": "H" 
			},
			{
				"x": -1.9031926418,
				"y": 2.7780134069,
				"z": -0.2094762291,
				"element": "H" 
			},
			{
				"x": -1.3186901961,
				"y": -1.1250880955,
				"z": -1.8745012214,
				"element": "H" 
			},
			{
				"x": 0.9789602206,
				"y": -1.1692320876,
				"z": -0.9490257091,
				"element": "H" 
			},
			{
				"x": -2.8506780833,
				"y": 2.3417088661,
				"z": -3.5386349272,
				"element": "H" 
			},
			{
				"x": -2.7349051616,
				"y": 0.7162422325,
				"z": -4.0070094887,
				"element": "H" 
			},
			{
				"x": 0.3543171518,
				"y": 5.0950622327,
				"z": 1.1568190812,
				"element": "H" 
			},
			{
				"x": -0.4481740766,
				"y": 4.4715395699,
				"z": -0.241415488,
				"element": "H" 
			}
		],
		 "valence_orbital": [ 
			{
				"type": "occ",
				"energy": -0.30817,
				"method": "rhf"
			},
			{
				"type": "occ",
				"energy": -0.28155,
				"method": "rhf"
			},
			{
				"type": "occ",
				"energy": -0.28081,
				"method": "rhf"
			},
			{
				"type": "occ",
				"energy": -0.26712,
				"method": "rhf"
			},
			{
				"type": "occ",
				"energy": -0.25952,
				"method": "rhf"
			},
			{
				"type": "unocc",
				"energy": -0.0564,
				"method": "rhf"
			},
			{
				"type": "unocc",
				"energy": -0.0406,
				"method": "rhf"
			},
			{
				"type": "unocc",
				"energy": 0.03355,
				"method": "rhf"
			},
			{
				"type": "unocc",
				"energy": 0.04483,
				"method": "rhf"
			},
			{
				"type": "unocc",
				"energy": 0.06848,
				"method": "rhf"
			}
		],
		"cosmo_sigma_profile": { 
			"-0.025": 0.0,
			"-0.024": 0.0,
			"-0.023": 0.0,
			"-0.022": 0.0,
			"-0.021": 0.0,
			"-0.02": 0.0,
			"-0.019": 0.0,
			"-0.018": 0.0,
			"-0.017": 0.0,
			"-0.016": 0.214097837802,
			"-0.015": 2.29905428388,
			"-0.014": 5.18972407561,
			"-0.013": 5.12554790607,
			"-0.012": 5.50210851408,
			"-0.011": 5.36009963246,
			"-0.01": 3.94798209174,
			"-0.009": 3.67139447247,
			"-0.008": 5.09073338691,
			"-0.007": 8.16505175823,
			"-0.006": 8.6582108166,
			"-0.005": 8.81431597727,
			"-0.004": 10.0058408973,
			"-0.003": 11.7138526864,
			"-0.002": 13.0888764366,
			"-0.001": 14.0319880354,
			"0.0": 18.2774943251,
			"0.001": 14.3992063568,
			"0.002": 15.6500717698,
			"0.003": 8.04426286542,
			"0.004": 4.94257003625,
			"0.005": 4.88449546763,
			"0.006": 5.96321433859,
			"0.007": 5.12804995286,
			"0.008": 6.16431657572,
			"0.009": 5.97973088768,
			"0.01": 9.47250309427,
			"0.011": 12.4727629668,
			"0.012": 6.30621577945,
			"0.013": 3.91681035393,
			"0.014": 2.2996895712,
			"0.015": 0.0849566456658,
			"0.016": 0.0,
			"0.017": 0.0,
			"0.018": 0.0,
			"0.019": 0.0,
			"0.02": 0.0,
			"0.021": 0.0,
			"0.022": 0.0,
			"0.023": 0.0,
			"0.024": 0.0,
			"0.025": 0.0
		}
	}
}
