{
	 "smiles": "CC1CN(CC(C)O1)C1=C(F)C=C(N)C=C1", 
	 "Tm": 390.15, 
	 "num_atms": 33, 
	 "gaussian": { 
		 "optdone": 1, 
		 "sigma_profile": "yes", 
		 "theory": "DFT", 
		 "functional": "B3LYP", 
		 "basiset": "6-31G**", 
		 "properties": { 
			 "R2extent": 4877.1867, 
			 "electric_dipole_moment_norm": 3.60051955418, 
			 "electric_quadrupole_moment_norm": 15.4851037304, 
			 "total_energy": -752.070467284, 
			 "HOMO_LUMO_gap": 0.20245, 
			 "cosmo_polarized_energy": -11.04, 
			 "cosmo_cavitation_energy": 34.65, 
			 "cosmo_dispersion_energy": -24.7, 
			 "cosmo_repulsion_energy": 1.93, 
			 "cosmo_total_nonelectrostatic_energy": 11.88, 
			 "SMD_solvation_energy": 4.66 
		},
		"coords": [
			{
				"x": 1.4490885737,
				"y": -2.3263836558,
				"z": 2.0234740196,
				"element": "C" 
			},
			{
				"x": 0.8835040205,
				"y": -1.0090875203,
				"z": 1.5103040364,
				"element": "C" 
			},
			{
				"x": 0.1569524855,
				"y": -1.165281683,
				"z": 0.1712783713,
				"element": "C" 
			},
			{
				"x": -0.3074541508,
				"y": 0.1272803546,
				"z": -0.3741367615,
				"element": "N" 
			},
			{
				"x": 0.3335706076,
				"y": 1.2941765857,
				"z": 0.2449019536,
				"element": "C" 
			},
			{
				"x": 1.8121008925,
				"y": 0.9988504974,
				"z": 0.4914960353,
				"element": "C" 
			},
			{
				"x": 2.5584598867,
				"y": 2.1904323174,
				"z": 1.0786068876,
				"element": "C" 
			},
			{
				"x": 1.9867653104,
				"y": -0.1009118168,
				"z": 1.3956371747,
				"element": "O" 
			},
			{
				"x": -1.7095835433,
				"y": 0.2671963548,
				"z": -0.59382668,
				"element": "C" 
			},
			{
				"x": -2.6580702918,
				"y": 0.2296186554,
				"z": 0.4376685248,
				"element": "C" 
			},
			{
				"x": -2.2252581562,
				"y": 0.0337255863,
				"z": 1.7087691071,
				"element": "F" 
			},
			{
				"x": -4.0207617415,
				"y": 0.3772608698,
				"z": 0.2337569051,
				"element": "C" 
			},
			{
				"x": -4.5021212594,
				"y": 0.5875063809,
				"z": -1.0699388675,
				"element": "C" 
			},
			{
				"x": -5.8721372915,
				"y": 0.6840731347,
				"z": -1.3102768047,
				"element": "N" 
			},
			{
				"x": -3.5767840857,
				"y": 0.6381023503,
				"z": -2.1276444193,
				"element": "C" 
			},
			{
				"x": -2.2157542739,
				"y": 0.4772189616,
				"z": -1.8825849808,
				"element": "C" 
			},
			{
				"x": 0.6451701829,
				"y": -3.0360751813,
				"z": 2.2446324973,
				"element": "H" 
			},
			{
				"x": 2.0212319776,
				"y": -2.1551347606,
				"z": 2.9394884878,
				"element": "H" 
			},
			{
				"x": 2.1199536368,
				"y": -2.7727127767,
				"z": 1.2821846223,
				"element": "H" 
			},
			{
				"x": 0.1651528614,
				"y": -0.6149880091,
				"z": 2.244168505,
				"element": "H" 
			},
			{
				"x": 0.8419058039,
				"y": -1.6466171746,
				"z": -0.5435331308,
				"element": "H" 
			},
			{
				"x": -0.696408219,
				"y": -1.8382517747,
				"z": 0.3015758024,
				"element": "H" 
			},
			{
				"x": 0.2434091113,
				"y": 2.1484276601,
				"z": -0.4363108135,
				"element": "H" 
			},
			{
				"x": -0.1383646081,
				"y": 1.586857364,
				"z": 1.199096644,
				"element": "H" 
			},
			{
				"x": 2.2630279326,
				"y": 0.7304882056,
				"z": -0.4782200932,
				"element": "H" 
			},
			{
				"x": 2.5761045942,
				"y": 3.0281955104,
				"z": 0.3735467328,
				"element": "H" 
			},
			{
				"x": 3.5899533092,
				"y": 1.9072117427,
				"z": 1.3053860248,
				"element": "H" 
			},
			{
				"x": 2.0850916678,
				"y": 2.5216439722,
				"z": 2.0085893595,
				"element": "H" 
			},
			{
				"x": -4.6923382241,
				"y": 0.3261689309,
				"z": 1.0851586075,
				"element": "H" 
			},
			{
				"x": -6.4305331923,
				"y": 0.99057312,
				"z": -0.5259186061,
				"element": "H" 
			},
			{
				"x": -6.1263346751,
				"y": 1.1583837525,
				"z": -2.1654768102,
				"element": "H" 
			},
			{
				"x": -3.93151943,
				"y": 0.7940547786,
				"z": -3.1429491093,
				"element": "H" 
			},
			{
				"x": -1.5033197118,
				"y": 0.5124972668,
				"z": -2.7012032219,
				"element": "H" 
			}
		],
		 "valence_orbital": [ 
			{
				"type": "occ",
				"energy": -0.28663,
				"method": "rhf"
			},
			{
				"type": "occ",
				"energy": -0.2443,
				"method": "rhf"
			},
			{
				"type": "occ",
				"energy": -0.23649,
				"method": "rhf"
			},
			{
				"type": "occ",
				"energy": -0.20819,
				"method": "rhf"
			},
			{
				"type": "occ",
				"energy": -0.20044,
				"method": "rhf"
			},
			{
				"type": "unocc",
				"energy": 0.00201,
				"method": "rhf"
			},
			{
				"type": "unocc",
				"energy": 0.01384,
				"method": "rhf"
			},
			{
				"type": "unocc",
				"energy": 0.07507,
				"method": "rhf"
			},
			{
				"type": "unocc",
				"energy": 0.08881,
				"method": "rhf"
			},
			{
				"type": "unocc",
				"energy": 0.10067,
				"method": "rhf"
			}
		],
		"cosmo_sigma_profile": { 
			"-0.025": 0.0,
			"-0.024": 0.0,
			"-0.023": 0.0,
			"-0.022": 0.0,
			"-0.021": 0.0,
			"-0.02": 0.0,
			"-0.019": 0.0,
			"-0.018": 0.0,
			"-0.017": 0.0,
			"-0.016": 0.0,
			"-0.015": 0.0,
			"-0.014": 0.0,
			"-0.013": 0.707229092739,
			"-0.012": 2.9163729825,
			"-0.011": 2.46756745955,
			"-0.01": 3.3677900858,
			"-0.009": 3.34500410288,
			"-0.008": 2.59968260506,
			"-0.007": 3.20781569011,
			"-0.006": 5.69142330839,
			"-0.005": 6.52959876218,
			"-0.004": 14.8632342031,
			"-0.003": 25.0750741949,
			"-0.002": 29.8740503483,
			"-0.001": 30.3159855639,
			"0.0": 29.7743042022,
			"0.001": 24.7217152858,
			"0.002": 15.475322838,
			"0.003": 13.0389168616,
			"0.004": 14.6071639887,
			"0.005": 15.5896489351,
			"0.006": 7.66844308949,
			"0.007": 2.62572293396,
			"0.008": 3.73194351427,
			"0.009": 2.85972771702,
			"0.01": 2.6170571654,
			"0.011": 1.54720284661,
			"0.012": 2.22142484829,
			"0.013": 2.42723355968,
			"0.014": 0.90453167265,
			"0.015": 0.0400432777929,
			"0.016": 0.0,
			"0.017": 0.0,
			"0.018": 0.0,
			"0.019": 0.0,
			"0.02": 0.0,
			"0.021": 0.0,
			"0.022": 0.0,
			"0.023": 0.0,
			"0.024": 0.0,
			"0.025": 0.0
		}
	}
}
