{
	 "smiles": "OC(=O)C1=CC=C(C=CC2=NC3=C(C=CC=C3)C=C2)C=C1", 
	 "Tm": 537.15, 
	 "num_atms": 34, 
	 "gaussian": { 
		 "optdone": 1, 
		 "sigma_profile": "yes", 
		 "theory": "DFT", 
		 "functional": "B3LYP", 
		 "basiset": "6-31G**", 
		 "properties": { 
			 "R2extent": 9316.4385, 
			 "electric_dipole_moment_norm": 7.36523708104, 
			 "electric_quadrupole_moment_norm": 33.5522448645, 
			 "total_energy": -898.955620745, 
			 "HOMO_LUMO_gap": 0.1385, 
			 "cosmo_polarized_energy": -17.46, 
			 "cosmo_cavitation_energy": 39.07, 
			 "cosmo_dispersion_energy": -28.12, 
			 "cosmo_repulsion_energy": 2.07, 
			 "cosmo_total_nonelectrostatic_energy": 13.02, 
			 "SMD_solvation_energy": 6.78 
		},
		"coords": [
			{
				"x": 0.9442530144,
				"y": 5.2483745951,
				"z": -2.6414808481,
				"element": "O" 
			},
			{
				"x": -0.0179684859,
				"y": 5.41079326,
				"z": -1.6922092824,
				"element": "C" 
			},
			{
				"x": -0.4713081665,
				"y": 6.5110378006,
				"z": -1.4771626757,
				"element": "O" 
			},
			{
				"x": -0.4556841823,
				"y": 4.1806013213,
				"z": -0.9594455299,
				"element": "C" 
			},
			{
				"x": -1.1185041656,
				"y": 4.3483785429,
				"z": 0.264226924,
				"element": "C" 
			},
			{
				"x": -1.5430217558,
				"y": 3.2416068513,
				"z": 0.983646093,
				"element": "C" 
			},
			{
				"x": -1.3418778096,
				"y": 1.9247859782,
				"z": 0.5084138999,
				"element": "C" 
			},
			{
				"x": -1.8349483241,
				"y": 0.8425110515,
				"z": 1.3635006727,
				"element": "C" 
			},
			{
				"x": -1.8613043996,
				"y": -0.5158474144,
				"z": 1.3283507267,
				"element": "C" 
			},
			{
				"x": -1.4069413692,
				"y": -1.561923558,
				"z": 0.403891862,
				"element": "C" 
			},
			{
				"x": -0.8100376118,
				"y": -1.286926257,
				"z": -0.7511363777,
				"element": "N" 
			},
			{
				"x": -0.4174229311,
				"y": -2.309154025,
				"z": -1.5603652323,
				"element": "C" 
			},
			{
				"x": -0.6181381016,
				"y": -3.6857060833,
				"z": -1.2211622318,
				"element": "C" 
			},
			{
				"x": -0.1818772444,
				"y": -4.6965219115,
				"z": -2.1144793346,
				"element": "C" 
			},
			{
				"x": 0.4306890802,
				"y": -4.3612163354,
				"z": -3.3018572058,
				"element": "C" 
			},
			{
				"x": 0.6303767754,
				"y": -2.9999219219,
				"z": -3.6416609113,
				"element": "C" 
			},
			{
				"x": 0.21755417,
				"y": -1.9968782685,
				"z": -2.7937364626,
				"element": "C" 
			},
			{
				"x": -1.2566886545,
				"y": -3.9555404185,
				"z": 0.0162059384,
				"element": "C" 
			},
			{
				"x": -1.6461270394,
				"y": -2.9144020413,
				"z": 0.8163099704,
				"element": "C" 
			},
			{
				"x": -0.6977855343,
				"y": 1.7682563829,
				"z": -0.7349084836,
				"element": "C" 
			},
			{
				"x": -0.2641850241,
				"y": 2.8801199559,
				"z": -1.4496437312,
				"element": "C" 
			},
			{
				"x": 1.3141519263,
				"y": 4.3563647436,
				"z": -2.5881931987,
				"element": "H" 
			},
			{
				"x": -1.2854444159,
				"y": 5.3556212953,
				"z": 0.6301872566,
				"element": "H" 
			},
			{
				"x": -2.0451609365,
				"y": 3.3885632885,
				"z": 1.9363311446,
				"element": "H" 
			},
			{
				"x": -2.2992201342,
				"y": 1.2402461495,
				"z": 2.2657138836,
				"element": "H" 
			},
			{
				"x": -2.337967723,
				"y": -0.9511284747,
				"z": 2.2049756785,
				"element": "H" 
			},
			{
				"x": -0.3392602813,
				"y": -5.7382832492,
				"z": -1.846775711,
				"element": "H" 
			},
			{
				"x": 0.7627818536,
				"y": -5.1389946689,
				"z": -3.9829250821,
				"element": "H" 
			},
			{
				"x": 1.1138559673,
				"y": -2.7498332804,
				"z": -4.5815286572,
				"element": "H" 
			},
			{
				"x": 0.3632004173,
				"y": -0.9506573222,
				"z": -3.0420949677,
				"element": "H" 
			},
			{
				"x": -1.431096443,
				"y": -4.9857290682,
				"z": 0.3165079442,
				"element": "H" 
			},
			{
				"x": -2.1368935031,
				"y": -3.1012871597,
				"z": 1.7661099369,
				"element": "H" 
			},
			{
				"x": -0.5551880911,
				"y": 0.7656235918,
				"z": -1.119206221,
				"element": "H" 
			},
			{
				"x": 0.1939891232,
				"y": 2.7180666498,
				"z": -2.4233997866,
				"element": "H" 
			}
		],
		 "valence_orbital": [ 
			{
				"type": "occ",
				"energy": -0.26787,
				"method": "rhf"
			},
			{
				"type": "occ",
				"energy": -0.26226,
				"method": "rhf"
			},
			{
				"type": "occ",
				"energy": -0.26009,
				"method": "rhf"
			},
			{
				"type": "occ",
				"energy": -0.24429,
				"method": "rhf"
			},
			{
				"type": "occ",
				"energy": -0.22345,
				"method": "rhf"
			},
			{
				"type": "unocc",
				"energy": -0.08495,
				"method": "rhf"
			},
			{
				"type": "unocc",
				"energy": -0.04999,
				"method": "rhf"
			},
			{
				"type": "unocc",
				"energy": -0.02501,
				"method": "rhf"
			},
			{
				"type": "unocc",
				"energy": -0.01185,
				"method": "rhf"
			},
			{
				"type": "unocc",
				"energy": 0.00651,
				"method": "rhf"
			}
		],
		"cosmo_sigma_profile": { 
			"-0.025": 0.0,
			"-0.024": 0.0,
			"-0.023": 0.0,
			"-0.022": 0.0,
			"-0.021": 0.0,
			"-0.02": 0.0,
			"-0.019": 0.0709756771988,
			"-0.018": 0.612794260617,
			"-0.017": 1.49287728138,
			"-0.016": 0.567758487438,
			"-0.015": 1.05385170605,
			"-0.014": 0.797279736914,
			"-0.013": 1.03832676689,
			"-0.012": 1.21406582297,
			"-0.011": 1.34225914098,
			"-0.01": 0.844117083909,
			"-0.009": 0.994519705332,
			"-0.008": 2.68972407483,
			"-0.007": 12.0104275274,
			"-0.006": 21.1333270098,
			"-0.005": 20.7780136472,
			"-0.004": 19.7958579283,
			"-0.003": 17.9072099959,
			"-0.002": 17.3321225965,
			"-0.001": 14.1987824398,
			"0.0": 17.3465039639,
			"0.001": 25.3555963329,
			"0.002": 30.7470353259,
			"0.003": 41.6427563865,
			"0.004": 24.5550170221,
			"0.005": 7.76774210156,
			"0.006": 5.06833312697,
			"0.007": 3.76419984236,
			"0.008": 2.90127774546,
			"0.009": 2.88318810154,
			"0.01": 4.72871778207,
			"0.011": 5.33752773407,
			"0.012": 4.99300720053,
			"0.013": 1.85523989977,
			"0.014": 0.124071092931,
			"0.015": 0.0,
			"0.016": 0.0,
			"0.017": 0.0,
			"0.018": 0.0,
			"0.019": 0.0,
			"0.02": 0.0,
			"0.021": 0.0,
			"0.022": 0.0,
			"0.023": 0.0,
			"0.024": 0.0,
			"0.025": 0.0
		}
	}
}
