{
	 "smiles": "CC1=CC(C(=O)CCl)=C(C)N1C1=NC=CS1", 
	 "Tm": 363.15, 
	 "num_atms": 27, 
	 "gaussian": { 
		 "optdone": 1, 
		 "sigma_profile": "yes", 
		 "theory": "DFT", 
		 "functional": "B3LYP", 
		 "basiset": "6-31G**", 
		 "properties": { 
			 "R2extent": 6353.1409, 
			 "electric_dipole_moment_norm": 5.80594733528, 
			 "electric_quadrupole_moment_norm": 10.2720020191, 
			 "total_energy": -1468.89250452, 
			 "HOMO_LUMO_gap": 0.1602, 
			 "cosmo_polarized_energy": -12.34, 
			 "cosmo_cavitation_energy": 34.22, 
			 "cosmo_dispersion_energy": -24.56, 
			 "cosmo_repulsion_energy": 1.87, 
			 "cosmo_total_nonelectrostatic_energy": 11.53, 
			 "SMD_solvation_energy": 4.85 
		},
		"coords": [
			{
				"x": 3.0355505635,
				"y": -0.620249834,
				"z": 2.8472686012,
				"element": "C" 
			},
			{
				"x": 2.3860461402,
				"y": -0.4995056607,
				"z": 1.5065686889,
				"element": "C" 
			},
			{
				"x": 2.9141970117,
				"y": -0.6429753764,
				"z": 0.256963412,
				"element": "C" 
			},
			{
				"x": 1.8878141677,
				"y": -0.3605618303,
				"z": -0.7121046391,
				"element": "C" 
			},
			{
				"x": 2.0094130502,
				"y": -0.4306690377,
				"z": -2.1691824808,
				"element": "C" 
			},
			{
				"x": 1.0912949851,
				"y": -0.2193737047,
				"z": -2.9547538717,
				"element": "O" 
			},
			{
				"x": 3.3650128944,
				"y": -0.8459257851,
				"z": -2.7584768345,
				"element": "C" 
			},
			{
				"x": 4.6301623308,
				"y": 0.4424262827,
				"z": -2.547608782,
				"element": "Cl" 
			},
			{
				"x": 0.729030192,
				"y": -0.0362090686,
				"z": -0.0105073508,
				"element": "C" 
			},
			{
				"x": -0.6361230483,
				"y": 0.3272094452,
				"z": -0.4917384736,
				"element": "C" 
			},
			{
				"x": 1.0370356014,
				"y": -0.1272609008,
				"z": 1.3383533946,
				"element": "N" 
			},
			{
				"x": 0.126582632,
				"y": 0.1387504954,
				"z": 2.3735491131,
				"element": "C" 
			},
			{
				"x": -0.4893147362,
				"y": 1.2739261683,
				"z": 2.526472991,
				"element": "N" 
			},
			{
				"x": -1.3583326494,
				"y": 1.2182883811,
				"z": 3.5896712894,
				"element": "C" 
			},
			{
				"x": -1.4099053456,
				"y": 0.0320761347,
				"z": 4.2642610162,
				"element": "C" 
			},
			{
				"x": -0.3354491646,
				"y": -1.1100545767,
				"z": 3.5294434224,
				"element": "S" 
			},
			{
				"x": 4.1092147233,
				"y": -0.7642341688,
				"z": 2.7065720482,
				"element": "H" 
			},
			{
				"x": 2.8946862936,
				"y": 0.2820804751,
				"z": 3.4535286864,
				"element": "H" 
			},
			{
				"x": 2.6609450874,
				"y": -1.4685675346,
				"z": 3.4315932315,
				"element": "H" 
			},
			{
				"x": 3.9456341709,
				"y": -0.8880678951,
				"z": 0.0494877637,
				"element": "H" 
			},
			{
				"x": 3.2362777533,
				"y": -0.9948218663,
				"z": -3.8288493963,
				"element": "H" 
			},
			{
				"x": 3.7563544343,
				"y": -1.7503576077,
				"z": -2.2884537426,
				"element": "H" 
			},
			{
				"x": -1.3958944364,
				"y": -0.347391231,
				"z": -0.0783307944,
				"element": "H" 
			},
			{
				"x": -0.9038401786,
				"y": 1.342582096,
				"z": -0.1832526603,
				"element": "H" 
			},
			{
				"x": -0.6519562326,
				"y": 0.260738079,
				"z": -1.5780306005,
				"element": "H" 
			},
			{
				"x": -1.9348449685,
				"y": 2.099642008,
				"z": 3.8436314238,
				"element": "H" 
			},
			{
				"x": -1.9915912715,
				"y": -0.2237934866,
				"z": 5.1384245445,
				"element": "H" 
			}
		],
		 "valence_orbital": [ 
			{
				"type": "occ",
				"energy": -0.29717,
				"method": "rhf"
			},
			{
				"type": "occ",
				"energy": -0.27759,
				"method": "rhf"
			},
			{
				"type": "occ",
				"energy": -0.24814,
				"method": "rhf"
			},
			{
				"type": "occ",
				"energy": -0.2452,
				"method": "rhf"
			},
			{
				"type": "occ",
				"energy": -0.21738,
				"method": "rhf"
			},
			{
				"type": "unocc",
				"energy": -0.05718,
				"method": "rhf"
			},
			{
				"type": "unocc",
				"energy": -0.04037,
				"method": "rhf"
			},
			{
				"type": "unocc",
				"energy": -0.00437,
				"method": "rhf"
			},
			{
				"type": "unocc",
				"energy": 0.0182,
				"method": "rhf"
			},
			{
				"type": "unocc",
				"energy": 0.03266,
				"method": "rhf"
			}
		],
		"cosmo_sigma_profile": { 
			"-0.025": 0.0,
			"-0.024": 0.0,
			"-0.023": 0.0,
			"-0.022": 0.0,
			"-0.021": 0.0,
			"-0.02": 0.0,
			"-0.019": 0.0,
			"-0.018": 0.0,
			"-0.017": 0.0,
			"-0.016": 0.0,
			"-0.015": 0.0,
			"-0.014": 0.0,
			"-0.013": 0.0,
			"-0.012": 0.0,
			"-0.011": 0.0,
			"-0.01": 1.37990665318,
			"-0.009": 2.3571038564,
			"-0.008": 6.79793264911,
			"-0.007": 8.81365494978,
			"-0.006": 9.75819631221,
			"-0.005": 18.7401103275,
			"-0.004": 19.8555719795,
			"-0.003": 20.130149238,
			"-0.002": 18.5925662237,
			"-0.001": 26.8091503632,
			"0.0": 23.0753828241,
			"0.001": 23.8096295073,
			"0.002": 22.3912656987,
			"0.003": 15.9442762508,
			"0.004": 13.247957656,
			"0.005": 15.7535271356,
			"0.006": 11.3036807216,
			"0.007": 2.07243422487,
			"0.008": 2.6584829628,
			"0.009": 3.03616521664,
			"0.01": 2.92985671325,
			"0.011": 3.30009973749,
			"0.012": 2.97525964294,
			"0.013": 1.77770784163,
			"0.014": 0.0730239066915,
			"0.015": 0.0,
			"0.016": 0.0,
			"0.017": 0.0,
			"0.018": 0.0,
			"0.019": 0.0,
			"0.02": 0.0,
			"0.021": 0.0,
			"0.022": 0.0,
			"0.023": 0.0,
			"0.024": 0.0,
			"0.025": 0.0
		}
	}
}
