{
	 "smiles": "CC1=CC=CC=C1N=NC1=C(C)C=CC=C1", 
	 "Tm": 328.65, 
	 "num_atms": 30, 
	 "gaussian": { 
		 "optdone": 1, 
		 "sigma_profile": "yes", 
		 "theory": "DFT", 
		 "functional": "B3LYP", 
		 "basiset": "6-31G**", 
		 "properties": { 
			 "R2extent": 5333.2145, 
			 "electric_dipole_moment_norm": 0.0, 
			 "electric_quadrupole_moment_norm": 11.7499747859, 
			 "total_energy": -651.403434563, 
			 "HOMO_LUMO_gap": 0.13903, 
			 "cosmo_polarized_energy": -5.94, 
			 "cosmo_cavitation_energy": 34.0, 
			 "cosmo_dispersion_energy": -24.14, 
			 "cosmo_repulsion_energy": 1.86, 
			 "cosmo_total_nonelectrostatic_energy": 11.73, 
			 "SMD_solvation_energy": 4.98 
		},
		"coords": [
			{
				"x": 1.9591191992,
				"y": -1.6112302058,
				"z": -1.4584122503,
				"element": "C" 
			},
			{
				"x": 0.4740275408,
				"y": -1.7306154634,
				"z": -1.7017268958,
				"element": "C" 
			},
			{
				"x": -0.0703063024,
				"y": -2.9109577012,
				"z": -2.2212345544,
				"element": "C" 
			},
			{
				"x": -1.439431664,
				"y": -3.0404589763,
				"z": -2.4528598949,
				"element": "C" 
			},
			{
				"x": -2.3016433617,
				"y": -1.9769485377,
				"z": -2.1651635553,
				"element": "C" 
			},
			{
				"x": -1.7872799349,
				"y": -0.7949391626,
				"z": -1.6490504869,
				"element": "C" 
			},
			{
				"x": -0.4072701719,
				"y": -0.6632153331,
				"z": -1.4151557609,
				"element": "C" 
			},
			{
				"x": 0.1914893019,
				"y": 0.5091658445,
				"z": -0.8914510588,
				"element": "N" 
			},
			{
				"x": -0.6055826238,
				"y": 1.4544015778,
				"z": -0.6398755025,
				"element": "N" 
			},
			{
				"x": -0.0068364187,
				"y": 2.6267843185,
				"z": -0.1161552901,
				"element": "C" 
			},
			{
				"x": -0.8881511546,
				"y": 3.6941627734,
				"z": 0.1704432354,
				"element": "C" 
			},
			{
				"x": -2.3732421953,
				"y": 3.5747562199,
				"z": -0.0728655107,
				"element": "C" 
			},
			{
				"x": -0.3438369519,
				"y": 4.8745036407,
				"z": 0.6899743573,
				"element": "C" 
			},
			{
				"x": 1.0252850684,
				"y": 5.0040191997,
				"z": 0.9216120754,
				"element": "C" 
			},
			{
				"x": 1.8875119118,
				"y": 3.9405243094,
				"z": 0.6339047075,
				"element": "C" 
			},
			{
				"x": 1.3731696719,
				"y": 2.7585222222,
				"z": 0.117753056,
				"element": "C" 
			},
			{
				"x": 2.4703026239,
				"y": -2.5359541438,
				"z": -1.7400524273,
				"element": "H" 
			},
			{
				"x": 2.3940268104,
				"y": -0.7886510577,
				"z": -2.0342699546,
				"element": "H" 
			},
			{
				"x": 2.176730034,
				"y": -1.4046236108,
				"z": -0.4061093519,
				"element": "H" 
			},
			{
				"x": 0.5939459036,
				"y": -3.7410917457,
				"z": -2.4469472374,
				"element": "H" 
			},
			{
				"x": -1.8337412155,
				"y": -3.9686404428,
				"z": -2.8568833701,
				"element": "H" 
			},
			{
				"x": -3.3686586229,
				"y": -2.0738454687,
				"z": -2.3441346697,
				"element": "H" 
			},
			{
				"x": -2.4295181081,
				"y": 0.0464732397,
				"z": -1.416120233,
				"element": "H" 
			},
			{
				"x": -2.8844287325,
				"y": 4.4994973142,
				"z": 0.2087127576,
				"element": "H" 
			},
			{
				"x": -2.8081397223,
				"y": 2.7522185918,
				"z": 0.503062007,
				"element": "H" 
			},
			{
				"x": -2.5908632516,
				"y": 3.3680663218,
				"z": -1.125148511,
				"element": "H" 
			},
			{
				"x": -1.008101423,
				"y": 5.7046264524,
				"z": 0.9156923989,
				"element": "H" 
			},
			{
				"x": 1.419578514,
				"y": 5.9321979257,
				"z": 1.3256575666,
				"element": "H" 
			},
			{
				"x": 2.9545232937,
				"y": 4.0374270321,
				"z": 0.8128958201,
				"element": "H" 
			},
			{
				"x": 2.0154219816,
				"y": 1.9171248659,
				"z": -0.115191466,
				"element": "H" 
			}
		],
		 "valence_orbital": [ 
			{
				"type": "occ",
				"energy": -0.26847,
				"method": "rhf"
			},
			{
				"type": "occ",
				"energy": -0.24588,
				"method": "rhf"
			},
			{
				"type": "occ",
				"energy": -0.24526,
				"method": "rhf"
			},
			{
				"type": "occ",
				"energy": -0.22003,
				"method": "rhf"
			},
			{
				"type": "occ",
				"energy": -0.21964,
				"method": "rhf"
			},
			{
				"type": "unocc",
				"energy": -0.08061,
				"method": "rhf"
			},
			{
				"type": "unocc",
				"energy": 0.00161,
				"method": "rhf"
			},
			{
				"type": "unocc",
				"energy": 0.00181,
				"method": "rhf"
			},
			{
				"type": "unocc",
				"energy": 0.011,
				"method": "rhf"
			},
			{
				"type": "unocc",
				"energy": 0.04971,
				"method": "rhf"
			}
		],
		"cosmo_sigma_profile": { 
			"-0.025": 0.0,
			"-0.024": 0.0,
			"-0.023": 0.0,
			"-0.022": 0.0,
			"-0.021": 0.0,
			"-0.02": 0.0,
			"-0.019": 0.0,
			"-0.018": 0.0,
			"-0.017": 0.0,
			"-0.016": 0.0,
			"-0.015": 0.0,
			"-0.014": 0.0,
			"-0.013": 0.0,
			"-0.012": 0.0,
			"-0.011": 0.0,
			"-0.01": 0.0,
			"-0.009": 0.0,
			"-0.008": 0.0,
			"-0.007": 0.287727656072,
			"-0.006": 9.05165627673,
			"-0.005": 16.8247501013,
			"-0.004": 24.9041444097,
			"-0.003": 23.7784258444,
			"-0.002": 21.176743142,
			"-0.001": 22.0413002718,
			"0.0": 26.2965593699,
			"0.001": 24.0840635399,
			"0.002": 27.8506547098,
			"0.003": 26.9363492572,
			"0.004": 24.8705672503,
			"0.005": 19.1027792433,
			"0.006": 3.83944789659,
			"0.007": 0.198823578159,
			"0.008": 0.0,
			"0.009": 0.0,
			"0.01": 0.0,
			"0.011": 0.0,
			"0.012": 0.0,
			"0.013": 0.0,
			"0.014": 0.0,
			"0.015": 0.0,
			"0.016": 0.0,
			"0.017": 0.0,
			"0.018": 0.0,
			"0.019": 0.0,
			"0.02": 0.0,
			"0.021": 0.0,
			"0.022": 0.0,
			"0.023": 0.0,
			"0.024": 0.0,
			"0.025": 0.0
		}
	}
}
