{
	 "smiles": "COC(=O)C1=CC(=C(C=C1)S(Cl)(=O)=O)[N+]([O-])=O", 
	 "Tm": 374.15, 
	 "num_atms": 23, 
	 "gaussian": { 
		 "optdone": 1, 
		 "sigma_profile": "yes", 
		 "theory": "DFT", 
		 "functional": "B3LYP", 
		 "basiset": "6-31G**", 
		 "properties": { 
			 "R2extent": 5900.5087, 
			 "electric_dipole_moment_norm": 7.68437756686, 
			 "electric_quadrupole_moment_norm": 9.43032802982, 
			 "total_energy": -1672.75722495, 
			 "HOMO_LUMO_gap": 0.18075, 
			 "cosmo_polarized_energy": -15.58, 
			 "cosmo_cavitation_energy": 32.51, 
			 "cosmo_dispersion_energy": -23.95, 
			 "cosmo_repulsion_energy": 1.81, 
			 "cosmo_total_nonelectrostatic_energy": 10.36, 
			 "SMD_solvation_energy": 8.12 
		},
		"coords": [
			{
				"x": -0.6870253786,
				"y": -2.9309155639,
				"z": -4.3179774933,
				"element": "C" 
			},
			{
				"x": -0.8872579733,
				"y": -2.1082314131,
				"z": -3.1518475547,
				"element": "O" 
			},
			{
				"x": 0.2016507684,
				"y": -1.4490245564,
				"z": -2.7185616432,
				"element": "C" 
			},
			{
				"x": 1.2937749061,
				"y": -1.5130307159,
				"z": -3.242473265,
				"element": "O" 
			},
			{
				"x": -0.0891303611,
				"y": -0.6188001028,
				"z": -1.5050801473,
				"element": "C" 
			},
			{
				"x": 0.9718450391,
				"y": 0.1035434481,
				"z": -0.9507775494,
				"element": "C" 
			},
			{
				"x": 0.759983866,
				"y": 0.9073061559,
				"z": 0.1608755866,
				"element": "C" 
			},
			{
				"x": -0.5098683003,
				"y": 0.9743039616,
				"z": 0.7574818701,
				"element": "C" 
			},
			{
				"x": -1.5600329369,
				"y": 0.2328290684,
				"z": 0.2142637412,
				"element": "C" 
			},
			{
				"x": -1.3567341151,
				"y": -0.5494225161,
				"z": -0.922290381,
				"element": "C" 
			},
			{
				"x": -0.894425826,
				"y": 1.809095002,
				"z": 2.3242517907,
				"element": "S" 
			},
			{
				"x": -1.2302050852,
				"y": 3.7974186646,
				"z": 1.7241284823,
				"element": "Cl" 
			},
			{
				"x": -2.1958607112,
				"y": 1.3120967258,
				"z": 2.7547841781,
				"element": "O" 
			},
			{
				"x": 0.2629743713,
				"y": 1.7630625021,
				"z": 3.2022662994,
				"element": "O" 
			},
			{
				"x": 1.9179471662,
				"y": 1.7008327464,
				"z": 0.6224533103,
				"element": "N" 
			},
			{
				"x": 1.6895402904,
				"y": 2.8322742556,
				"z": 1.0323986015,
				"element": "O" 
			},
			{
				"x": 3.0226543635,
				"y": 1.1793656655,
				"z": 0.513339845,
				"element": "O" 
			},
			{
				"x": -1.6558187205,
				"y": -3.3833294588,
				"z": -4.52529565,
				"element": "H" 
			},
			{
				"x": 0.0639827253,
				"y": -3.6979873076,
				"z": -4.1165339734,
				"element": "H" 
			},
			{
				"x": -0.3559200852,
				"y": -2.3201773099,
				"z": -5.1608355754,
				"element": "H" 
			},
			{
				"x": 1.9587734289,
				"y": 0.0426754804,
				"z": -1.3932739713,
				"element": "H" 
			},
			{
				"x": -2.5284874127,
				"y": 0.2627431175,
				"z": 0.6986530679,
				"element": "H" 
			},
			{
				"x": -2.177860019,
				"y": -1.1145278494,
				"z": -1.346449569,
				"element": "H" 
			}
		],
		 "valence_orbital": [ 
			{
				"type": "occ",
				"energy": -0.32483,
				"method": "rhf"
			},
			{
				"type": "occ",
				"energy": -0.32031,
				"method": "rhf"
			},
			{
				"type": "occ",
				"energy": -0.31337,
				"method": "rhf"
			},
			{
				"type": "occ",
				"energy": -0.30898,
				"method": "rhf"
			},
			{
				"type": "occ",
				"energy": -0.30222,
				"method": "rhf"
			},
			{
				"type": "unocc",
				"energy": -0.12147,
				"method": "rhf"
			},
			{
				"type": "unocc",
				"energy": -0.09466,
				"method": "rhf"
			},
			{
				"type": "unocc",
				"energy": -0.08244,
				"method": "rhf"
			},
			{
				"type": "unocc",
				"energy": -0.04569,
				"method": "rhf"
			},
			{
				"type": "unocc",
				"energy": -0.00036,
				"method": "rhf"
			}
		],
		"cosmo_sigma_profile": { 
			"-0.025": 0.0,
			"-0.024": 0.0,
			"-0.023": 0.0,
			"-0.022": 0.0,
			"-0.021": 0.0,
			"-0.02": 0.0,
			"-0.019": 0.0,
			"-0.018": 0.0,
			"-0.017": 0.0,
			"-0.016": 0.0,
			"-0.015": 0.0,
			"-0.014": 0.0,
			"-0.013": 0.0,
			"-0.012": 0.0,
			"-0.011": 0.000408126895378,
			"-0.01": 1.54034522921,
			"-0.009": 4.49444373658,
			"-0.008": 4.58144612571,
			"-0.007": 10.0904458941,
			"-0.006": 13.8131368622,
			"-0.005": 19.4705584769,
			"-0.004": 24.5051155128,
			"-0.003": 27.4928099225,
			"-0.002": 18.9112328533,
			"-0.001": 13.0896473502,
			"0.0": 11.2443750232,
			"0.001": 12.1847989496,
			"0.002": 16.8109682835,
			"0.003": 13.2606453372,
			"0.004": 9.61062166571,
			"0.005": 9.75660165874,
			"0.006": 14.1293753224,
			"0.007": 16.1535893384,
			"0.008": 12.8836856468,
			"0.009": 3.89880136338,
			"0.01": 2.95820856668,
			"0.011": 3.20182322389,
			"0.012": 0.0980992230062,
			"0.013": 0.0,
			"0.014": 0.0,
			"0.015": 0.0,
			"0.016": 0.0,
			"0.017": 0.0,
			"0.018": 0.0,
			"0.019": 0.0,
			"0.02": 0.0,
			"0.021": 0.0,
			"0.022": 0.0,
			"0.023": 0.0,
			"0.024": 0.0,
			"0.025": 0.0
		}
	}
}
