{
	 "smiles": "CC(NC(=O)C1CCOCC1)C(O)=O", 
	 "Tm": 452.15, 
	 "num_atms": 29, 
	 "gaussian": { 
		 "optdone": 1, 
		 "sigma_profile": "yes", 
		 "theory": "DFT", 
		 "functional": "B3LYP", 
		 "basiset": "6-31G**", 
		 "properties": { 
			 "R2extent": 3403.8567, 
			 "electric_dipole_moment_norm": 6.75895963962, 
			 "electric_quadrupole_moment_norm": 18.1364400575, 
			 "total_energy": -707.663839444, 
			 "HOMO_LUMO_gap": 0.24131, 
			 "cosmo_polarized_energy": -19.53, 
			 "cosmo_cavitation_energy": 30.07, 
			 "cosmo_dispersion_energy": -21.75, 
			 "cosmo_repulsion_energy": 1.72, 
			 "cosmo_total_nonelectrostatic_energy": 10.04, 
			 "SMD_solvation_energy": 5.78 
		},
		"coords": [
			{
				"x": -2.0147765737,
				"y": -1.0613855643,
				"z": 0.5669648837,
				"element": "C" 
			},
			{
				"x": -1.8324734039,
				"y": 0.4654679214,
				"z": 0.5820042287,
				"element": "C" 
			},
			{
				"x": -0.4666922693,
				"y": 0.8702129498,
				"z": 0.1933530282,
				"element": "N" 
			},
			{
				"x": 0.6779278352,
				"y": 0.496997271,
				"z": 0.8135161807,
				"element": "C" 
			},
			{
				"x": 0.6662101587,
				"y": -0.1037834196,
				"z": 1.9004259668,
				"element": "O" 
			},
			{
				"x": 2.0024477226,
				"y": 0.9321968034,
				"z": 0.1688422937,
				"element": "C" 
			},
			{
				"x": 2.094355713,
				"y": 0.7253179964,
				"z": -1.3660588543,
				"element": "C" 
			},
			{
				"x": 2.5933713679,
				"y": -0.7067051055,
				"z": -1.6790464921,
				"element": "C" 
			},
			{
				"x": 2.2911399178,
				"y": -1.5848829107,
				"z": -0.6088497672,
				"element": "O" 
			},
			{
				"x": 3.102871765,
				"y": -1.3116843563,
				"z": 0.5350823862,
				"element": "C" 
			},
			{
				"x": 3.1782471251,
				"y": 0.2025610079,
				"z": 0.8405177765,
				"element": "C" 
			},
			{
				"x": -2.3098250444,
				"y": 1.0711966847,
				"z": 1.9245186823,
				"element": "C" 
			},
			{
				"x": -1.5365129575,
				"y": 0.8547623584,
				"z": 2.9910013558,
				"element": "O" 
			},
			{
				"x": -3.3633787883,
				"y": 1.6632299399,
				"z": 1.9929327902,
				"element": "O" 
			},
			{
				"x": -3.0536756158,
				"y": -1.3058966409,
				"z": 0.8057574019,
				"element": "H" 
			},
			{
				"x": -1.780537127,
				"y": -1.4582657345,
				"z": -0.4248116425,
				"element": "H" 
			},
			{
				"x": -1.3625937828,
				"y": -1.5454827366,
				"z": 1.2954318323,
				"element": "H" 
			},
			{
				"x": -2.4935248697,
				"y": 0.9110898449,
				"z": -0.1628578242,
				"element": "H" 
			},
			{
				"x": -0.3877643288,
				"y": 1.4193932905,
				"z": -0.6485318023,
				"element": "H" 
			},
			{
				"x": 2.0813813137,
				"y": 2.0075199629,
				"z": 0.3802805906,
				"element": "H" 
			},
			{
				"x": 1.1291144517,
				"y": 0.8980810259,
				"z": -1.8532628788,
				"element": "H" 
			},
			{
				"x": 2.7866514423,
				"y": 1.4625008222,
				"z": -1.7877294911,
				"element": "H" 
			},
			{
				"x": 3.677843039,
				"y": -0.7023975608,
				"z": -1.875181363,
				"element": "H" 
			},
			{
				"x": 2.1014105843,
				"y": -1.1124146899,
				"z": -2.5672062407,
				"element": "H" 
			},
			{
				"x": 4.1127395009,
				"y": -1.7239811502,
				"z": 0.3815873799,
				"element": "H" 
			},
			{
				"x": 2.6269612457,
				"y": -1.8445791728,
				"z": 1.3592300552,
				"element": "H" 
			},
			{
				"x": 4.1081821421,
				"y": 0.6340172755,
				"z": 0.4531624211,
				"element": "H" 
			},
			{
				"x": 3.1640543018,
				"y": 0.3654506716,
				"z": 1.9200320901,
				"element": "H" 
			},
			{
				"x": -0.7045548655,
				"y": 0.3810632156,
				"z": 2.7251950121,
				"element": "H" 
			}
		],
		 "valence_orbital": [ 
			{
				"type": "occ",
				"energy": -0.29468,
				"method": "rhf"
			},
			{
				"type": "occ",
				"energy": -0.29273,
				"method": "rhf"
			},
			{
				"type": "occ",
				"energy": -0.27611,
				"method": "rhf"
			},
			{
				"type": "occ",
				"energy": -0.26116,
				"method": "rhf"
			},
			{
				"type": "occ",
				"energy": -0.24735,
				"method": "rhf"
			},
			{
				"type": "unocc",
				"energy": -0.00604,
				"method": "rhf"
			},
			{
				"type": "unocc",
				"energy": 0.02139,
				"method": "rhf"
			},
			{
				"type": "unocc",
				"energy": 0.04305,
				"method": "rhf"
			},
			{
				"type": "unocc",
				"energy": 0.06934,
				"method": "rhf"
			},
			{
				"type": "unocc",
				"energy": 0.10318,
				"method": "rhf"
			}
		],
		"cosmo_sigma_profile": { 
			"-0.025": 0.0,
			"-0.024": 0.0,
			"-0.023": 0.0,
			"-0.022": 0.0,
			"-0.021": 0.0,
			"-0.02": 0.0,
			"-0.019": 0.0,
			"-0.018": 0.0,
			"-0.017": 0.0,
			"-0.016": 0.110261683579,
			"-0.015": 1.5649548119,
			"-0.014": 1.24676331116,
			"-0.013": 1.51410880242,
			"-0.012": 1.32299799186,
			"-0.011": 1.45584180592,
			"-0.01": 1.7730332307,
			"-0.009": 1.49828135715,
			"-0.008": 2.45059378085,
			"-0.007": 3.74529509111,
			"-0.006": 5.67950003737,
			"-0.005": 10.1596496716,
			"-0.004": 29.724279814,
			"-0.003": 34.7650933965,
			"-0.002": 29.8339024923,
			"-0.001": 19.648890075,
			"0.0": 11.9750413532,
			"0.001": 6.59873100405,
			"0.002": 4.92446169161,
			"0.003": 6.30747636229,
			"0.004": 4.11430140802,
			"0.005": 4.97737880199,
			"0.006": 5.0101437845,
			"0.007": 6.17055368935,
			"0.008": 5.51477827698,
			"0.009": 4.52626229559,
			"0.01": 5.40859383309,
			"0.011": 8.10085378512,
			"0.012": 7.73846912672,
			"0.013": 5.20326406348,
			"0.014": 1.30123130367,
			"0.015": 0.0,
			"0.016": 0.0,
			"0.017": 0.0,
			"0.018": 0.0,
			"0.019": 0.0,
			"0.02": 0.0,
			"0.021": 0.0,
			"0.022": 0.0,
			"0.023": 0.0,
			"0.024": 0.0,
			"0.025": 0.0
		}
	}
}
