{
	 "smiles": "CC(CC(O)=O)NS(=O)(=O)C1=C(Cl)N=CC=C1", 
	 "Tm": 418.15, 
	 "num_atms": 28, 
	 "gaussian": { 
		 "optdone": 1, 
		 "sigma_profile": "yes", 
		 "theory": "DFT", 
		 "functional": "B3LYP", 
		 "basiset": "6-31G**", 
		 "properties": { 
			 "R2extent": 5690.2767, 
			 "electric_dipole_moment_norm": 6.96757282703, 
			 "electric_quadrupole_moment_norm": 17.3264968802, 
			 "total_energy": -1618.29604583, 
			 "HOMO_LUMO_gap": 0.21058, 
			 "cosmo_polarized_energy": -24.04, 
			 "cosmo_cavitation_energy": 34.92, 
			 "cosmo_dispersion_energy": -24.65, 
			 "cosmo_repulsion_energy": 1.88, 
			 "cosmo_total_nonelectrostatic_energy": 12.15, 
			 "SMD_solvation_energy": 4.6 
		},
		"coords": [
			{
				"x": -1.7420572418,
				"y": -0.1469696267,
				"z": -1.8569858427,
				"element": "C" 
			},
			{
				"x": -1.818969278,
				"y": -0.8811240089,
				"z": -0.5170240983,
				"element": "C" 
			},
			{
				"x": -3.2680640855,
				"y": -1.0534013099,
				"z": -0.0245969406,
				"element": "C" 
			},
			{
				"x": -3.3569331841,
				"y": -1.9596967698,
				"z": 1.1960241253,
				"element": "C" 
			},
			{
				"x": -4.6010256173,
				"y": -2.1658840728,
				"z": 1.6888153264,
				"element": "O" 
			},
			{
				"x": -2.4049818354,
				"y": -2.4919383415,
				"z": 1.7193338008,
				"element": "O" 
			},
			{
				"x": -0.9285907421,
				"y": -0.2900198069,
				"z": 0.507464335,
				"element": "N" 
			},
			{
				"x": -1.0638579743,
				"y": 1.2880095941,
				"z": 1.0394057742,
				"element": "S" 
			},
			{
				"x": -2.2933096748,
				"y": 1.894382888,
				"z": 0.5024553318,
				"element": "O" 
			},
			{
				"x": -0.7955718429,
				"y": 1.2847835489,
				"z": 2.4759809778,
				"element": "O" 
			},
			{
				"x": 0.2919826921,
				"y": 2.1480359727,
				"z": 0.2075462375,
				"element": "C" 
			},
			{
				"x": 1.6562493797,
				"y": 1.8294587558,
				"z": 0.3445771518,
				"element": "C" 
			},
			{
				"x": 2.1834353601,
				"y": 0.4780425764,
				"z": 1.3217557337,
				"element": "Cl" 
			},
			{
				"x": 2.6216379206,
				"y": 2.5100183778,
				"z": -0.2487164376,
				"element": "N" 
			},
			{
				"x": 2.2888359058,
				"y": 3.5642329405,
				"z": -1.0050018075,
				"element": "C" 
			},
			{
				"x": 0.9743830976,
				"y": 3.978808343,
				"z": -1.1994019626,
				"element": "C" 
			},
			{
				"x": -0.0393459196,
				"y": 3.2527813889,
				"z": -0.5775131448,
				"element": "C" 
			},
			{
				"x": -2.1920321582,
				"y": 0.8464675941,
				"z": -1.7985970444,
				"element": "H" 
			},
			{
				"x": -2.2759194104,
				"y": -0.7192681439,
				"z": -2.6218586262,
				"element": "H" 
			},
			{
				"x": -0.7005359284,
				"y": -0.0456081337,
				"z": -2.1733943227,
				"element": "H" 
			},
			{
				"x": -1.3989523625,
				"y": -1.883276107,
				"z": -0.651826159,
				"element": "H" 
			},
			{
				"x": -3.700412452,
				"y": -0.0738239447,
				"z": 0.210261247,
				"element": "H" 
			},
			{
				"x": -3.8793250245,
				"y": -1.4940879672,
				"z": -0.8243168554,
				"element": "H" 
			},
			{
				"x": -5.2520263024,
				"y": -1.6556597245,
				"z": 1.1856397998,
				"element": "H" 
			},
			{
				"x": -0.8122115003,
				"y": -0.903046814,
				"z": 1.3126296373,
				"element": "H" 
			},
			{
				"x": 3.1180633704,
				"y": 4.093121858,
				"z": -1.4691519193,
				"element": "H" 
			},
			{
				"x": 0.749276794,
				"y": 4.8420319964,
				"z": -1.8161065347,
				"element": "H" 
			},
			{
				"x": -1.0842419856,
				"y": 3.521528937,
				"z": -0.6849977826,
				"element": "H" 
			}
		],
		 "valence_orbital": [ 
			{
				"type": "occ",
				"energy": -0.30361,
				"method": "rhf"
			},
			{
				"type": "occ",
				"energy": -0.28838,
				"method": "rhf"
			},
			{
				"type": "occ",
				"energy": -0.28463,
				"method": "rhf"
			},
			{
				"type": "occ",
				"energy": -0.28066,
				"method": "rhf"
			},
			{
				"type": "occ",
				"energy": -0.26954,
				"method": "rhf"
			},
			{
				"type": "unocc",
				"energy": -0.05896,
				"method": "rhf"
			},
			{
				"type": "unocc",
				"energy": -0.04711,
				"method": "rhf"
			},
			{
				"type": "unocc",
				"energy": -0.0043,
				"method": "rhf"
			},
			{
				"type": "unocc",
				"energy": 0.01998,
				"method": "rhf"
			},
			{
				"type": "unocc",
				"energy": 0.04717,
				"method": "rhf"
			}
		],
		"cosmo_sigma_profile": { 
			"-0.025": 0.0,
			"-0.024": 0.0,
			"-0.023": 0.0,
			"-0.022": 0.0,
			"-0.021": 0.0,
			"-0.02": 0.160201407715,
			"-0.019": 1.29496972984,
			"-0.018": 0.68968794707,
			"-0.017": 1.29569104284,
			"-0.016": 0.905434983508,
			"-0.015": 0.744685356725,
			"-0.014": 1.09016861374,
			"-0.013": 1.02914083462,
			"-0.012": 2.0092918846,
			"-0.011": 1.26482032554,
			"-0.01": 0.980705314253,
			"-0.009": 2.84428114822,
			"-0.008": 10.26023767,
			"-0.007": 12.5575776827,
			"-0.006": 12.6091075312,
			"-0.005": 14.1802024676,
			"-0.004": 14.1530150228,
			"-0.003": 18.6707914627,
			"-0.002": 25.7103110023,
			"-0.001": 25.0012720152,
			"0.0": 20.8463848016,
			"0.001": 11.4849323053,
			"0.002": 8.80762967519,
			"0.003": 12.6947353237,
			"0.004": 10.0221429012,
			"0.005": 8.10487277108,
			"0.006": 8.94497668401,
			"0.007": 6.65508286801,
			"0.008": 6.70057099179,
			"0.009": 9.37024560589,
			"0.01": 14.2037090861,
			"0.011": 9.57987768458,
			"0.012": 3.30118062027,
			"0.013": 1.58328315724,
			"0.014": 0.105268879554,
			"0.015": 0.0,
			"0.016": 0.0,
			"0.017": 0.0,
			"0.018": 0.0,
			"0.019": 0.0,
			"0.02": 0.0,
			"0.021": 0.0,
			"0.022": 0.0,
			"0.023": 0.0,
			"0.024": 0.0,
			"0.025": 0.0
		}
	}
}
