{
	 "smiles": "CC(C)(C)OC(=O)N1CCC2=C(C1)C=C(C(=O)N2)S(C)(=O)=O", 
	 "Tm": 503.15, 
	 "num_atms": 42, 
	 "gaussian": { 
		 "optdone": 1, 
		 "sigma_profile": "yes", 
		 "theory": "DFT", 
		 "functional": "B3LYP", 
		 "basiset": "6-31G**", 
		 "properties": { 
			 "R2extent": 12727.2655, 
			 "electric_dipole_moment_norm": 6.06490814028, 
			 "electric_quadrupole_moment_norm": 41.1998358016, 
			 "total_energy": -1429.34185755, 
			 "HOMO_LUMO_gap": 0.16755, 
			 "cosmo_polarized_energy": -28.1, 
			 "cosmo_cavitation_energy": 45.01, 
			 "cosmo_dispersion_energy": -32.15, 
			 "cosmo_repulsion_energy": 2.42, 
			 "cosmo_total_nonelectrostatic_energy": 15.27, 
			 "SMD_solvation_energy": 8.05 
		},
		"coords": [
			{
				"x": 4.0844592246,
				"y": 2.2484913646,
				"z": -1.7654245204,
				"element": "C" 
			},
			{
				"x": 3.7273034806,
				"y": 0.7758102761,
				"z": -1.9893867025,
				"element": "C" 
			},
			{
				"x": 3.2788898543,
				"y": 0.4953714435,
				"z": -3.4269625553,
				"element": "C" 
			},
			{
				"x": 4.8939574647,
				"y": -0.1332928347,
				"z": -1.5953603689,
				"element": "C" 
			},
			{
				"x": 2.6718915585,
				"y": 0.3656585875,
				"z": -1.0422128247,
				"element": "O" 
			},
			{
				"x": 1.4496980933,
				"y": 0.9402358241,
				"z": -1.0717249259,
				"element": "C" 
			},
			{
				"x": 1.0959106062,
				"y": 1.8341669526,
				"z": -1.8269256395,
				"element": "O" 
			},
			{
				"x": 0.6210241698,
				"y": 0.3786292824,
				"z": -0.1250588153,
				"element": "N" 
			},
			{
				"x": -0.7088119963,
				"y": 0.9372876855,
				"z": 0.0701174473,
				"element": "C" 
			},
			{
				"x": -1.7642888489,
				"y": -0.1635320103,
				"z": -0.0888317318,
				"element": "C" 
			},
			{
				"x": -1.3759879164,
				"y": -1.3765188114,
				"z": 0.7142317053,
				"element": "C" 
			},
			{
				"x": -0.0896618824,
				"y": -1.6023466334,
				"z": 1.1426454818,
				"element": "C" 
			},
			{
				"x": 1.0417360329,
				"y": -0.64483285,
				"z": 0.8232038345,
				"element": "C" 
			},
			{
				"x": 0.1556226611,
				"y": -2.7695189089,
				"z": 1.9158845958,
				"element": "C" 
			},
			{
				"x": -0.8386674975,
				"y": -3.6593716451,
				"z": 2.2207538067,
				"element": "C" 
			},
			{
				"x": -2.2026805384,
				"y": -3.4733339527,
				"z": 1.7539501883,
				"element": "C" 
			},
			{
				"x": -3.164295895,
				"y": -4.2194282926,
				"z": 1.917835224,
				"element": "O" 
			},
			{
				"x": -2.3529210001,
				"y": -2.2843385413,
				"z": 1.014985633,
				"element": "N" 
			},
			{
				"x": -0.4526119545,
				"y": -5.0202623124,
				"z": 3.3333812421,
				"element": "S" 
			},
			{
				"x": -1.0652009212,
				"y": -6.4792562168,
				"z": 2.4741122001,
				"element": "C" 
			},
			{
				"x": 1.0188101404,
				"y": -5.0933887241,
				"z": 3.3959419199,
				"element": "O" 
			},
			{
				"x": -1.2300923253,
				"y": -4.8532480544,
				"z": 4.568405083,
				"element": "O" 
			},
			{
				"x": 4.358618899,
				"y": 2.4182938508,
				"z": -0.7194007692,
				"element": "H" 
			},
			{
				"x": 4.9445148262,
				"y": 2.5144083708,
				"z": -2.3883609631,
				"element": "H" 
			},
			{
				"x": 3.2479352089,
				"y": 2.8980530414,
				"z": -2.0232274791,
				"element": "H" 
			},
			{
				"x": 2.9893570376,
				"y": -0.5545715145,
				"z": -3.5372430449,
				"element": "H" 
			},
			{
				"x": 2.4356780308,
				"y": 1.1278088433,
				"z": -3.7050200351,
				"element": "H" 
			},
			{
				"x": 4.1091877368,
				"y": 0.6910166031,
				"z": -4.1130909054,
				"element": "H" 
			},
			{
				"x": 5.1797934624,
				"y": 0.0333416636,
				"z": -0.5527631993,
				"element": "H" 
			},
			{
				"x": 5.761000284,
				"y": 0.0750322532,
				"z": -2.2289151741,
				"element": "H" 
			},
			{
				"x": 4.6234615688,
				"y": -1.1864011406,
				"z": -1.7161596609,
				"element": "H" 
			},
			{
				"x": -0.7833849852,
				"y": 1.378402403,
				"z": 1.074383005,
				"element": "H" 
			},
			{
				"x": -0.8489228504,
				"y": 1.7285819248,
				"z": -0.6648366061,
				"element": "H" 
			},
			{
				"x": -2.7462665692,
				"y": 0.2033301971,
				"z": 0.2355790371,
				"element": "H" 
			},
			{
				"x": -1.8555759806,
				"y": -0.4382632233,
				"z": -1.1479361162,
				"element": "H" 
			},
			{
				"x": 1.8819380048,
				"y": -1.1909249819,
				"z": 0.3927001054,
				"element": "H" 
			},
			{
				"x": 1.4075240856,
				"y": -0.1832221086,
				"z": 1.7556216903,
				"element": "H" 
			},
			{
				"x": 1.1566921157,
				"y": -2.9787708603,
				"z": 2.2870323197,
				"element": "H" 
			},
			{
				"x": -3.3021943951,
				"y": -2.1246274475,
				"z": 0.6956396401,
				"element": "H" 
			},
			{
				"x": -0.9231175668,
				"y": -7.3153229522,
				"z": 3.161751598,
				"element": "H" 
			},
			{
				"x": -0.4799769948,
				"y": -6.6265218654,
				"z": 1.5651687924,
				"element": "H" 
			},
			{
				"x": -2.1214444289,
				"y": -6.3175246851,
				"z": 2.2576174876,
				"element": "H" 
			}
		],
		 "valence_orbital": [ 
			{
				"type": "occ",
				"energy": -0.2848,
				"method": "rhf"
			},
			{
				"type": "occ",
				"energy": -0.27478,
				"method": "rhf"
			},
			{
				"type": "occ",
				"energy": -0.27153,
				"method": "rhf"
			},
			{
				"type": "occ",
				"energy": -0.25625,
				"method": "rhf"
			},
			{
				"type": "occ",
				"energy": -0.23599,
				"method": "rhf"
			},
			{
				"type": "unocc",
				"energy": -0.06844,
				"method": "rhf"
			},
			{
				"type": "unocc",
				"energy": -0.00937,
				"method": "rhf"
			},
			{
				"type": "unocc",
				"energy": 0.03794,
				"method": "rhf"
			},
			{
				"type": "unocc",
				"energy": 0.05718,
				"method": "rhf"
			},
			{
				"type": "unocc",
				"energy": 0.07223,
				"method": "rhf"
			}
		],
		"cosmo_sigma_profile": { 
			"-0.025": 0.0,
			"-0.024": 0.0,
			"-0.023": 0.0,
			"-0.022": 0.0,
			"-0.021": 0.0,
			"-0.02": 0.0,
			"-0.019": 0.0,
			"-0.018": 0.0,
			"-0.017": 0.233991792285,
			"-0.016": 1.08421538397,
			"-0.015": 1.16538913198,
			"-0.014": 0.988768884618,
			"-0.013": 1.1073860181,
			"-0.012": 1.21696545402,
			"-0.011": 1.49272758942,
			"-0.01": 1.13322192235,
			"-0.009": 3.61935476037,
			"-0.008": 7.43507307853,
			"-0.007": 9.96108106288,
			"-0.006": 16.2843431009,
			"-0.005": 23.364573078,
			"-0.004": 31.4527407717,
			"-0.003": 34.9954272813,
			"-0.002": 30.6860306484,
			"-0.001": 31.3188206231,
			"0.0": 36.2271741144,
			"0.001": 22.6496942385,
			"0.002": 9.97547252073,
			"0.003": 7.80283046693,
			"0.004": 6.58340442748,
			"0.005": 6.58023128886,
			"0.006": 5.33354832945,
			"0.007": 5.67013086839,
			"0.008": 4.36570178524,
			"0.009": 6.05879399797,
			"0.01": 8.22243241458,
			"0.011": 13.502111103,
			"0.012": 14.4924639264,
			"0.013": 7.96081922991,
			"0.014": 1.08627567111,
			"0.015": 0.0,
			"0.016": 0.0,
			"0.017": 0.0,
			"0.018": 0.0,
			"0.019": 0.0,
			"0.02": 0.0,
			"0.021": 0.0,
			"0.022": 0.0,
			"0.023": 0.0,
			"0.024": 0.0,
			"0.025": 0.0
		}
	}
}
