{
	 "smiles": "OC(=O)CC1=C(Cl)C=C(F)C=C1", 
	 "Tm": 376.65, 
	 "num_atms": 18, 
	 "gaussian": { 
		 "optdone": 1, 
		 "sigma_profile": "yes", 
		 "theory": "DFT", 
		 "functional": "B3LYP", 
		 "basiset": "6-31G**", 
		 "properties": { 
			 "R2extent": 4061.3083, 
			 "electric_dipole_moment_norm": 4.61871409377, 
			 "electric_quadrupole_moment_norm": 17.9442136281, 
			 "total_energy": -1018.94920857, 
			 "HOMO_LUMO_gap": 0.21386, 
			 "cosmo_polarized_energy": -13.88, 
			 "cosmo_cavitation_energy": 24.97, 
			 "cosmo_dispersion_energy": -17.84, 
			 "cosmo_repulsion_energy": 1.4, 
			 "cosmo_total_nonelectrostatic_energy": 8.54, 
			 "SMD_solvation_energy": 5.65 
		},
		"coords": [
			{
				"x": -2.3332103808,
				"y": 2.2219751265,
				"z": -0.9535033246,
				"element": "O" 
			},
			{
				"x": -2.4055135742,
				"y": 1.8098393503,
				"z": 0.3330423738,
				"element": "C" 
			},
			{
				"x": -3.4356206092,
				"y": 1.8819647506,
				"z": 0.9519598197,
				"element": "O" 
			},
			{
				"x": -1.1291235291,
				"y": 1.1961771706,
				"z": 0.9395561251,
				"element": "C" 
			},
			{
				"x": 0.1637218096,
				"y": 1.4533756883,
				"z": 0.2029677322,
				"element": "C" 
			},
			{
				"x": 0.870520597,
				"y": 2.6659841366,
				"z": 0.313294284,
				"element": "C" 
			},
			{
				"x": 0.2510457895,
				"y": 3.9529267304,
				"z": 1.3324468598,
				"element": "Cl" 
			},
			{
				"x": 2.0653131982,
				"y": 2.8932656495,
				"z": -0.3678030851,
				"element": "C" 
			},
			{
				"x": 2.5621789656,
				"y": 1.8831341638,
				"z": -1.1832039327,
				"element": "C" 
			},
			{
				"x": 3.7137008926,
				"y": 2.0964933755,
				"z": -1.842687251,
				"element": "F" 
			},
			{
				"x": 1.9047692736,
				"y": 0.6683119709,
				"z": -1.3352492204,
				"element": "C" 
			},
			{
				"x": 0.7149104421,
				"y": 0.471253856,
				"z": -0.6377040933,
				"element": "C" 
			},
			{
				"x": -1.428415717,
				"y": 2.1085717031,
				"z": -1.2840860283,
				"element": "H" 
			},
			{
				"x": -1.0838240938,
				"y": 1.5532028731,
				"z": 1.9707205378,
				"element": "H" 
			},
			{
				"x": -1.311757434,
				"y": 0.1170306675,
				"z": 0.9909911614,
				"element": "H" 
			},
			{
				"x": 2.6004736164,
				"y": 3.8298595517,
				"z": -0.2706236887,
				"element": "H" 
			},
			{
				"x": 2.3238217319,
				"y": -0.0971600283,
				"z": -1.9782093974,
				"element": "H" 
			},
			{
				"x": 0.1957090215,
				"y": -0.4780067362,
				"z": -0.7373088723,
				"element": "H" 
			}
		],
		 "valence_orbital": [ 
			{
				"type": "occ",
				"energy": -0.33401,
				"method": "rhf"
			},
			{
				"type": "occ",
				"energy": -0.31394,
				"method": "rhf"
			},
			{
				"type": "occ",
				"energy": -0.28886,
				"method": "rhf"
			},
			{
				"type": "occ",
				"energy": -0.27772,
				"method": "rhf"
			},
			{
				"type": "occ",
				"energy": -0.2583,
				"method": "rhf"
			},
			{
				"type": "unocc",
				"energy": -0.04444,
				"method": "rhf"
			},
			{
				"type": "unocc",
				"energy": -0.03592,
				"method": "rhf"
			},
			{
				"type": "unocc",
				"energy": 0.00503,
				"method": "rhf"
			},
			{
				"type": "unocc",
				"energy": 0.01383,
				"method": "rhf"
			},
			{
				"type": "unocc",
				"energy": 0.07627,
				"method": "rhf"
			}
		],
		"cosmo_sigma_profile": { 
			"-0.025": 0.0,
			"-0.024": 0.0,
			"-0.023": 0.0,
			"-0.022": 0.0,
			"-0.021": 0.0,
			"-0.02": 0.0,
			"-0.019": 0.0,
			"-0.018": 0.0,
			"-0.017": 0.0,
			"-0.016": 0.0815148504514,
			"-0.015": 0.485267595032,
			"-0.014": 0.584565970593,
			"-0.013": 0.50174297053,
			"-0.012": 0.96957199024,
			"-0.011": 1.36992481405,
			"-0.01": 1.45061344813,
			"-0.009": 4.6214481736,
			"-0.008": 9.54652035377,
			"-0.007": 8.74635718336,
			"-0.006": 9.23740571373,
			"-0.005": 8.53423567057,
			"-0.004": 8.61160295834,
			"-0.003": 10.5189258934,
			"-0.002": 10.1730502764,
			"-0.001": 14.5863361585,
			"0.0": 19.8548063294,
			"0.001": 19.357934303,
			"0.002": 13.9143596932,
			"0.003": 13.9401442544,
			"0.004": 14.8540139861,
			"0.005": 2.10959864616,
			"0.006": 1.68510627864,
			"0.007": 2.60690995626,
			"0.008": 2.98551051957,
			"0.009": 3.3494658331,
			"0.01": 5.06610068382,
			"0.011": 4.56715374196,
			"0.012": 6.03378869577,
			"0.013": 1.85199167125,
			"0.014": 0.0240069936556,
			"0.015": 0.0,
			"0.016": 0.0,
			"0.017": 0.0,
			"0.018": 0.0,
			"0.019": 0.0,
			"0.02": 0.0,
			"0.021": 0.0,
			"0.022": 0.0,
			"0.023": 0.0,
			"0.024": 0.0,
			"0.025": 0.0
		}
	}
}
