{
	 "smiles": "OCC(Br)C(Br)CO", 
	 "Tm": 358.15, 
	 "num_atms": 16, 
	 "gaussian": { 
		 "optdone": 1, 
		 "sigma_profile": "yes", 
		 "theory": "DFT", 
		 "functional": "B3LYP", 
		 "basiset": "6-31G**", 
		 "properties": { 
			 "R2extent": 3361.4988, 
			 "electric_dipole_moment_norm": 2.23226782443, 
			 "electric_quadrupole_moment_norm": 8.50717297168, 
			 "total_energy": -5450.48324128, 
			 "HOMO_LUMO_gap": 0.2443, 
			 "cosmo_polarized_energy": -15.32, 
			 "cosmo_cavitation_energy": 23.15, 
			 "cosmo_dispersion_energy": -17.54, 
			 "cosmo_repulsion_energy": 1.46, 
			 "cosmo_total_nonelectrostatic_energy": 7.07, 
			 "SMD_solvation_energy": 1.76 
		},
		"coords": [
			{
				"x": -1.2950763219,
				"y": -1.3099920746,
				"z": -2.1022034601,
				"element": "O" 
			},
			{
				"x": -0.8791992327,
				"y": -0.6605924913,
				"z": -0.9254377277,
				"element": "C" 
			},
			{
				"x": 0.4152446048,
				"y": -1.2363632314,
				"z": -0.3240568968,
				"element": "C" 
			},
			{
				"x": 1.8875084226,
				"y": -1.1103755204,
				"z": -1.6504526112,
				"element": "Br" 
			},
			{
				"x": 0.7725296679,
				"y": -0.584293704,
				"z": 1.0083845734,
				"element": "C" 
			},
			{
				"x": 2.1187523514,
				"y": -1.6873370547,
				"z": 1.9965913704,
				"element": "Br" 
			},
			{
				"x": 1.2714199204,
				"y": 0.8623567882,
				"z": 0.9677445043,
				"element": "C" 
			},
			{
				"x": 1.3582693216,
				"y": 1.432151638,
				"z": 2.2538846199,
				"element": "O" 
			},
			{
				"x": -1.4795416932,
				"y": -2.2364263045,
				"z": -1.8985381417,
				"element": "H" 
			},
			{
				"x": -0.7399606716,
				"y": 0.3894432637,
				"z": -1.1941060696,
				"element": "H" 
			},
			{
				"x": -1.6527408405,
				"y": -0.7048512974,
				"z": -0.1388642179,
				"element": "H" 
			},
			{
				"x": 0.2957754588,
				"y": -2.3112314774,
				"z": -0.1745460113,
				"element": "H" 
			},
			{
				"x": -0.1017516831,
				"y": -0.6351186672,
				"z": 1.6627310869,
				"element": "H" 
			},
			{
				"x": 0.5367887015,
				"y": 1.4627974787,
				"z": 0.4177306524,
				"element": "H" 
			},
			{
				"x": 2.2186313471,
				"y": 0.909146366,
				"z": 0.4170215676,
				"element": "H" 
			},
			{
				"x": 2.0312506469,
				"y": 0.9346862882,
				"z": 2.7412167612,
				"element": "H" 
			}
		],
		 "valence_orbital": [ 
			{
				"type": "occ",
				"energy": -0.29746,
				"method": "rhf"
			},
			{
				"type": "occ",
				"energy": -0.29048,
				"method": "rhf"
			},
			{
				"type": "occ",
				"energy": -0.28563,
				"method": "rhf"
			},
			{
				"type": "occ",
				"energy": -0.27664,
				"method": "rhf"
			},
			{
				"type": "occ",
				"energy": -0.27139,
				"method": "rhf"
			},
			{
				"type": "unocc",
				"energy": -0.02709,
				"method": "rhf"
			},
			{
				"type": "unocc",
				"energy": -0.00693,
				"method": "rhf"
			},
			{
				"type": "unocc",
				"energy": 0.05349,
				"method": "rhf"
			},
			{
				"type": "unocc",
				"energy": 0.07956,
				"method": "rhf"
			},
			{
				"type": "unocc",
				"energy": 0.08633,
				"method": "rhf"
			}
		],
		"cosmo_sigma_profile": { 
			"-0.025": 0.0,
			"-0.024": 0.0,
			"-0.023": 0.0,
			"-0.022": 0.0,
			"-0.021": 0.0,
			"-0.02": 0.0,
			"-0.019": 0.0,
			"-0.018": 0.0,
			"-0.017": 0.27685012277,
			"-0.016": 1.12462200621,
			"-0.015": 1.58444818047,
			"-0.014": 1.31631926515,
			"-0.013": 1.63510739513,
			"-0.012": 2.50695024487,
			"-0.011": 1.10035116659,
			"-0.01": 2.35502911604,
			"-0.009": 6.12935499395,
			"-0.008": 9.72486080789,
			"-0.007": 8.22463462245,
			"-0.006": 7.7576907459,
			"-0.005": 6.84434891005,
			"-0.004": 7.54846913358,
			"-0.003": 9.33120409384,
			"-0.002": 9.5066447921,
			"-0.001": 8.85880958178,
			"0.0": 9.56793286745,
			"0.001": 8.96751433588,
			"0.002": 9.71008565307,
			"0.003": 10.8806552396,
			"0.004": 11.3008923492,
			"0.005": 14.4092694634,
			"0.006": 9.94688809942,
			"0.007": 5.42445081565,
			"0.008": 2.6826991864,
			"0.009": 2.16802381605,
			"0.01": 3.37864854348,
			"0.011": 3.05644774412,
			"0.012": 3.22308980832,
			"0.013": 4.42253633786,
			"0.014": 1.90946968431,
			"0.015": 0.0,
			"0.016": 0.0,
			"0.017": 0.0,
			"0.018": 0.0,
			"0.019": 0.0,
			"0.02": 0.0,
			"0.021": 0.0,
			"0.022": 0.0,
			"0.023": 0.0,
			"0.024": 0.0,
			"0.025": 0.0
		}
	}
}
