{
	 "smiles": "NC1=CC2=C(C=C1)C(=O)CC2", 
	 "Tm": 458.15, 
	 "num_atms": 20, 
	 "gaussian": { 
		 "optdone": 1, 
		 "sigma_profile": "yes", 
		 "theory": "DFT", 
		 "functional": "B3LYP", 
		 "basiset": "6-31G**", 
		 "properties": { 
			 "R2extent": 1974.0074, 
			 "electric_dipole_moment_norm": 5.39086921099, 
			 "electric_quadrupole_moment_norm": 12.6970611615, 
			 "total_energy": -478.372434854, 
			 "HOMO_LUMO_gap": 0.17762, 
			 "cosmo_polarized_energy": -14.43, 
			 "cosmo_cavitation_energy": 23.48, 
			 "cosmo_dispersion_energy": -17.65, 
			 "cosmo_repulsion_energy": 1.43, 
			 "cosmo_total_nonelectrostatic_energy": 7.25, 
			 "SMD_solvation_energy": 4.16 
		},
		"coords": [
			{
				"x": -0.0327325415,
				"y": 4.1881104762,
				"z": -1.0760310872,
				"element": "N" 
			},
			{
				"x": -0.2650034436,
				"y": 2.8829212368,
				"z": -0.674560173,
				"element": "C" 
			},
			{
				"x": 0.7618090363,
				"y": 1.9205537876,
				"z": -0.7457415771,
				"element": "C" 
			},
			{
				"x": 0.5170231798,
				"y": 0.6321477948,
				"z": -0.2886457121,
				"element": "C" 
			},
			{
				"x": -0.7352505767,
				"y": 0.2885882131,
				"z": 0.2354420516,
				"element": "C" 
			},
			{
				"x": -1.7635088143,
				"y": 1.2364170478,
				"z": 0.3107139592,
				"element": "C" 
			},
			{
				"x": -1.5284659192,
				"y": 2.5239462356,
				"z": -0.1412189602,
				"element": "C" 
			},
			{
				"x": -0.758492576,
				"y": -1.1236647771,
				"z": 0.6481471205,
				"element": "C" 
			},
			{
				"x": -1.691426114,
				"y": -1.7377238406,
				"z": 1.1381633104,
				"element": "O" 
			},
			{
				"x": 0.6359286574,
				"y": -1.7077855875,
				"z": 0.3460101404,
				"element": "C" 
			},
			{
				"x": 1.4645539711,
				"y": -0.5541970925,
				"z": -0.2693755492,
				"element": "C" 
			},
			{
				"x": -0.8439639789,
				"y": 4.7476497325,
				"z": -1.2942037123,
				"element": "H" 
			},
			{
				"x": 0.7415642427,
				"y": 4.339297753,
				"z": -1.7056669198,
				"element": "H" 
			},
			{
				"x": 1.7319525946,
				"y": 2.1981808716,
				"z": -1.1527357028,
				"element": "H" 
			},
			{
				"x": -2.7289344192,
				"y": 0.951258825,
				"z": 0.7186439935,
				"element": "H" 
			},
			{
				"x": -2.3105045941,
				"y": 3.2773959546,
				"z": -0.0884163614,
				"element": "H" 
			},
			{
				"x": 0.5266081695,
				"y": -2.5626211602,
				"z": -0.3291523324,
				"element": "H" 
			},
			{
				"x": 1.068683466,
				"y": -2.0955980259,
				"z": 1.2738653439,
				"element": "H" 
			},
			{
				"x": 1.8139747004,
				"y": -0.7924749058,
				"z": -1.2808361924,
				"element": "H" 
			},
			{
				"x": 2.3600849598,
				"y": -0.329402539,
				"z": 0.3215983606,
				"element": "H" 
			}
		],
		 "valence_orbital": [ 
			{
				"type": "occ",
				"energy": -0.33822,
				"method": "rhf"
			},
			{
				"type": "occ",
				"energy": -0.30147,
				"method": "rhf"
			},
			{
				"type": "occ",
				"energy": -0.25068,
				"method": "rhf"
			},
			{
				"type": "occ",
				"energy": -0.22604,
				"method": "rhf"
			},
			{
				"type": "occ",
				"energy": -0.21194,
				"method": "rhf"
			},
			{
				"type": "unocc",
				"energy": -0.03432,
				"method": "rhf"
			},
			{
				"type": "unocc",
				"energy": -0.00457,
				"method": "rhf"
			},
			{
				"type": "unocc",
				"energy": 0.05973,
				"method": "rhf"
			},
			{
				"type": "unocc",
				"energy": 0.075,
				"method": "rhf"
			},
			{
				"type": "unocc",
				"energy": 0.10443,
				"method": "rhf"
			}
		],
		"cosmo_sigma_profile": { 
			"-0.025": 0.0,
			"-0.024": 0.0,
			"-0.023": 0.0,
			"-0.022": 0.0,
			"-0.021": 0.0,
			"-0.02": 0.0,
			"-0.019": 0.0,
			"-0.018": 0.0,
			"-0.017": 0.0,
			"-0.016": 0.0,
			"-0.015": 0.0,
			"-0.014": 0.128154134244,
			"-0.013": 2.23440175293,
			"-0.012": 3.0304220582,
			"-0.011": 2.46472036247,
			"-0.01": 3.70997162018,
			"-0.009": 2.71089978484,
			"-0.008": 2.65532191981,
			"-0.007": 3.60526970165,
			"-0.006": 5.55921048448,
			"-0.005": 11.2556641819,
			"-0.004": 16.1669979345,
			"-0.003": 18.0433554779,
			"-0.002": 14.233785728,
			"-0.001": 13.0754850026,
			"0.0": 8.9468991037,
			"0.001": 8.16467919272,
			"0.002": 8.16054709208,
			"0.003": 10.2322129307,
			"0.004": 12.1810557021,
			"0.005": 12.4382078013,
			"0.006": 2.4193847927,
			"0.007": 2.79367022757,
			"0.008": 2.22446867904,
			"0.009": 2.6660525202,
			"0.01": 2.47175102697,
			"0.011": 2.33441220347,
			"0.012": 2.90756140722,
			"0.013": 5.73449578251,
			"0.014": 3.01711634146,
			"0.015": 0.448256948496,
			"0.016": 0.0,
			"0.017": 0.0,
			"0.018": 0.0,
			"0.019": 0.0,
			"0.02": 0.0,
			"0.021": 0.0,
			"0.022": 0.0,
			"0.023": 0.0,
			"0.024": 0.0,
			"0.025": 0.0
		}
	}
}
