{
	 "smiles": "OC(=O)C1=CC=C2OCCC2=C1", 
	 "Tm": 459.15, 
	 "num_atms": 20, 
	 "gaussian": { 
		 "optdone": 1, 
		 "sigma_profile": "yes", 
		 "theory": "DFT", 
		 "functional": "B3LYP", 
		 "basiset": "6-31G**", 
		 "properties": { 
			 "R2extent": 2503.5184, 
			 "electric_dipole_moment_norm": 3.62430436498, 
			 "electric_quadrupole_moment_norm": 3.86751731476, 
			 "total_energy": -573.464696223, 
			 "HOMO_LUMO_gap": 0.18809, 
			 "cosmo_polarized_energy": -10.99, 
			 "cosmo_cavitation_energy": 24.06, 
			 "cosmo_dispersion_energy": -18.3, 
			 "cosmo_repulsion_energy": 1.46, 
			 "cosmo_total_nonelectrostatic_energy": 7.21, 
			 "SMD_solvation_energy": 5.38 
		},
		"coords": [
			{
				"x": -1.3956000604,
				"y": 1.4645889184,
				"z": 1.7640555214,
				"element": "O" 
			},
			{
				"x": -0.0998388193,
				"y": 1.7861078706,
				"z": 1.4984682868,
				"element": "C" 
			},
			{
				"x": 0.4143234242,
				"y": 2.7878095991,
				"z": 1.960763669,
				"element": "O" 
			},
			{
				"x": 0.5735724831,
				"y": 0.8075705099,
				"z": 0.6169332155,
				"element": "C" 
			},
			{
				"x": 1.9155306334,
				"y": 1.0459641131,
				"z": 0.2768478262,
				"element": "C" 
			},
			{
				"x": 2.6193609614,
				"y": 0.1754549887,
				"z": -0.5518200698,
				"element": "C" 
			},
			{
				"x": 1.9385201436,
				"y": -0.9426176489,
				"z": -1.0308562377,
				"element": "C" 
			},
			{
				"x": 2.4886020256,
				"y": -1.8804320887,
				"z": -1.8441074489,
				"element": "O" 
			},
			{
				"x": 1.4273906042,
				"y": -2.7782221576,
				"z": -2.2714471501,
				"element": "C" 
			},
			{
				"x": 0.2126098096,
				"y": -2.5160828819,
				"z": -1.3469870975,
				"element": "C" 
			},
			{
				"x": 0.6020000465,
				"y": -1.2039708756,
				"z": -0.7022005624,
				"element": "C" 
			},
			{
				"x": -0.0886552753,
				"y": -0.3347032051,
				"z": 0.1242681035,
				"element": "C" 
			},
			{
				"x": -1.7216388296,
				"y": 2.171888268,
				"z": 2.3437949253,
				"element": "H" 
			},
			{
				"x": 2.3921436785,
				"y": 1.9351072355,
				"z": 0.6754952482,
				"element": "H" 
			},
			{
				"x": 3.653852109,
				"y": 0.3535996397,
				"z": -0.8231892563,
				"element": "H" 
			},
			{
				"x": 1.8160185145,
				"y": -3.7969249202,
				"z": -2.2120920657,
				"element": "H" 
			},
			{
				"x": 1.1993923834,
				"y": -2.5469688306,
				"z": -3.3180726604,
				"element": "H" 
			},
			{
				"x": -0.7225694854,
				"y": -2.4617994004,
				"z": -1.9124441558,
				"element": "H" 
			},
			{
				"x": 0.0967462418,
				"y": -3.3079240743,
				"z": -0.5969818538,
				"element": "H" 
			},
			{
				"x": -1.1224605889,
				"y": -0.5168450599,
				"z": 0.3967717624,
				"element": "H" 
			}
		],
		 "valence_orbital": [ 
			{
				"type": "occ",
				"energy": -0.32385,
				"method": "rhf"
			},
			{
				"type": "occ",
				"energy": -0.30719,
				"method": "rhf"
			},
			{
				"type": "occ",
				"energy": -0.26858,
				"method": "rhf"
			},
			{
				"type": "occ",
				"energy": -0.25745,
				"method": "rhf"
			},
			{
				"type": "occ",
				"energy": -0.2229,
				"method": "rhf"
			},
			{
				"type": "unocc",
				"energy": -0.03481,
				"method": "rhf"
			},
			{
				"type": "unocc",
				"energy": -0.0112,
				"method": "rhf"
			},
			{
				"type": "unocc",
				"energy": 0.06913,
				"method": "rhf"
			},
			{
				"type": "unocc",
				"energy": 0.08382,
				"method": "rhf"
			},
			{
				"type": "unocc",
				"energy": 0.08676,
				"method": "rhf"
			}
		],
		"cosmo_sigma_profile": { 
			"-0.025": 0.0,
			"-0.024": 0.0,
			"-0.023": 0.0,
			"-0.022": 0.0,
			"-0.021": 0.0,
			"-0.02": 0.0,
			"-0.019": 0.0,
			"-0.018": 0.260222713983,
			"-0.017": 1.12567885477,
			"-0.016": 0.7175015147,
			"-0.015": 0.812498785746,
			"-0.014": 1.04565979542,
			"-0.013": 0.36734045759,
			"-0.012": 0.522392492989,
			"-0.011": 0.518837977643,
			"-0.01": 0.978988889295,
			"-0.009": 0.970104793612,
			"-0.008": 0.13363430993,
			"-0.007": 2.17768445953,
			"-0.006": 10.3712853635,
			"-0.005": 19.789435458,
			"-0.004": 16.6097521933,
			"-0.003": 14.6595192616,
			"-0.002": 12.3856831522,
			"-0.001": 9.58026159048,
			"0.0": 11.3828326616,
			"0.001": 11.8669509121,
			"0.002": 16.1324434658,
			"0.003": 15.0106876168,
			"0.004": 11.1579811499,
			"0.005": 4.50594539641,
			"0.006": 4.82729368399,
			"0.007": 3.91213610598,
			"0.008": 4.06138750608,
			"0.009": 2.20113463444,
			"0.01": 3.89821649575,
			"0.011": 3.36883222901,
			"0.012": 5.11095980138,
			"0.013": 1.26678107944,
			"0.014": 0.0,
			"0.015": 0.0,
			"0.016": 0.0,
			"0.017": 0.0,
			"0.018": 0.0,
			"0.019": 0.0,
			"0.02": 0.0,
			"0.021": 0.0,
			"0.022": 0.0,
			"0.023": 0.0,
			"0.024": 0.0,
			"0.025": 0.0
		}
	}
}
