{
	 "smiles": "OC1=CC=CC2=C1C(=O)C=CC2=O", 
	 "Tm": 435.15, 
	 "num_atms": 19, 
	 "gaussian": { 
		 "optdone": 1, 
		 "sigma_profile": "yes", 
		 "theory": "DFT", 
		 "functional": "B3LYP", 
		 "basiset": "6-31G**", 
		 "properties": { 
			 "R2extent": 2610.7005, 
			 "electric_dipole_moment_norm": 0.351095613758, 
			 "electric_quadrupole_moment_norm": 15.6143040921, 
			 "total_energy": -610.348109029, 
			 "HOMO_LUMO_gap": 0.11913, 
			 "cosmo_polarized_energy": -9.03, 
			 "cosmo_cavitation_energy": 23.51, 
			 "cosmo_dispersion_energy": -17.88, 
			 "cosmo_repulsion_energy": 1.37, 
			 "cosmo_total_nonelectrostatic_energy": 7.0, 
			 "SMD_solvation_energy": 5.27 
		},
		"coords": [
			{
				"x": 0.6121535879,
				"y": -1.4848975647,
				"z": 3.1056909458,
				"element": "O" 
			},
			{
				"x": 0.4391636398,
				"y": -0.2201304812,
				"z": 2.7094690158,
				"element": "C" 
			},
			{
				"x": 0.2213832009,
				"y": 0.7680492908,
				"z": 3.6906355929,
				"element": "C" 
			},
			{
				"x": 0.0376690639,
				"y": 2.0908124968,
				"z": 3.3182930189,
				"element": "C" 
			},
			{
				"x": 0.0639474664,
				"y": 2.4736507847,
				"z": 1.9678640694,
				"element": "C" 
			},
			{
				"x": 0.277478628,
				"y": 1.5119995475,
				"z": 0.988596211,
				"element": "C" 
			},
			{
				"x": 0.4680130333,
				"y": 0.1532667886,
				"z": 1.3432996843,
				"element": "C" 
			},
			{
				"x": 0.6933386971,
				"y": -0.8642267149,
				"z": 0.3157801066,
				"element": "C" 
			},
			{
				"x": 0.8639323868,
				"y": -2.0654161854,
				"z": 0.5970147069,
				"element": "O" 
			},
			{
				"x": 0.7162326892,
				"y": -0.4353608108,
				"z": -1.0995753326,
				"element": "C" 
			},
			{
				"x": 0.5371544993,
				"y": 0.8487921126,
				"z": -1.4522074625,
				"element": "C" 
			},
			{
				"x": 0.3053720395,
				"y": 1.9184216425,
				"z": -0.4473512413,
				"element": "C" 
			},
			{
				"x": 0.1456549989,
				"y": 3.0800067184,
				"z": -0.8053565788,
				"element": "O" 
			},
			{
				"x": 0.7491281778,
				"y": -2.0240763731,
				"z": 2.2838949555,
				"element": "H" 
			},
			{
				"x": 0.2031015245,
				"y": 0.4605399668,
				"z": 4.7307906098,
				"element": "H" 
			},
			{
				"x": -0.1291917175,
				"y": 2.8414416888,
				"z": 4.0853250193,
				"element": "H" 
			},
			{
				"x": -0.0786879141,
				"y": 3.5051196856,
				"z": 1.6660738165,
				"element": "H" 
			},
			{
				"x": 0.8863595483,
				"y": -1.2242391673,
				"z": -1.8264432829,
				"element": "H" 
			},
			{
				"x": 0.5519964501,
				"y": 1.1744465741,
				"z": -2.4881938546,
				"element": "H" 
			}
		],
		 "valence_orbital": [ 
			{
				"type": "occ",
				"energy": -0.30584,
				"method": "rhf"
			},
			{
				"type": "occ",
				"energy": -0.28442,
				"method": "rhf"
			},
			{
				"type": "occ",
				"energy": -0.27939,
				"method": "rhf"
			},
			{
				"type": "occ",
				"energy": -0.2679,
				"method": "rhf"
			},
			{
				"type": "occ",
				"energy": -0.24255,
				"method": "rhf"
			},
			{
				"type": "unocc",
				"energy": -0.12342,
				"method": "rhf"
			},
			{
				"type": "unocc",
				"energy": -0.03718,
				"method": "rhf"
			},
			{
				"type": "unocc",
				"energy": -0.02885,
				"method": "rhf"
			},
			{
				"type": "unocc",
				"energy": 0.03906,
				"method": "rhf"
			},
			{
				"type": "unocc",
				"energy": 0.07881,
				"method": "rhf"
			}
		],
		"cosmo_sigma_profile": { 
			"-0.025": 0.0,
			"-0.024": 0.0,
			"-0.023": 0.0,
			"-0.022": 0.0,
			"-0.021": 0.0,
			"-0.02": 0.0,
			"-0.019": 0.0,
			"-0.018": 0.0,
			"-0.017": 0.0,
			"-0.016": 0.0,
			"-0.015": 0.0,
			"-0.014": 0.0,
			"-0.013": 0.0,
			"-0.012": 0.0,
			"-0.011": 0.0,
			"-0.01": 0.0,
			"-0.009": 0.830483557092,
			"-0.008": 5.05168415391,
			"-0.007": 8.94854536533,
			"-0.006": 11.1220791135,
			"-0.005": 11.5566560882,
			"-0.004": 14.5900028107,
			"-0.003": 16.5788925109,
			"-0.002": 14.9099811437,
			"-0.001": 13.9316354363,
			"0.0": 16.4826154836,
			"0.001": 16.5442854941,
			"0.002": 13.7270771026,
			"0.003": 4.85177953997,
			"0.004": 5.38595167723,
			"0.005": 3.98660963081,
			"0.006": 4.467901532,
			"0.007": 2.66040471272,
			"0.008": 5.04072423546,
			"0.009": 5.20143806366,
			"0.01": 5.97612075564,
			"0.011": 6.49538897179,
			"0.012": 1.74193365336,
			"0.013": 0.0731231583997,
			"0.014": 0.0,
			"0.015": 0.0,
			"0.016": 0.0,
			"0.017": 0.0,
			"0.018": 0.0,
			"0.019": 0.0,
			"0.02": 0.0,
			"0.021": 0.0,
			"0.022": 0.0,
			"0.023": 0.0,
			"0.024": 0.0,
			"0.025": 0.0
		}
	}
}
