{
	 "smiles": "CCCCCCCCCC(C)C", 
	 "Tm": 226.15, 
	 "num_atms": 38, 
	 "gaussian": { 
		 "optdone": 1, 
		 "sigma_profile": "yes", 
		 "theory": "DFT", 
		 "functional": "B3LYP", 
		 "basiset": "6-31G**", 
		 "properties": { 
			 "R2extent": 4402.1332, 
			 "electric_dipole_moment_norm": 0.0775782185926, 
			 "electric_quadrupole_moment_norm": 1.00310385803, 
			 "total_energy": -472.98934112, 
			 "HOMO_LUMO_gap": 0.36484, 
			 "cosmo_polarized_energy": -0.89, 
			 "cosmo_cavitation_energy": 37.11, 
			 "cosmo_dispersion_energy": -25.08, 
			 "cosmo_repulsion_energy": 2.07, 
			 "cosmo_total_nonelectrostatic_energy": 14.09, 
			 "SMD_solvation_energy": 5.38 
		},
		"coords": [
			{
				"x": 3.507569141,
				"y": 1.6669850197,
				"z": -2.3045575333,
				"element": "C" 
			},
			{
				"x": 2.4259144843,
				"y": 1.3239690145,
				"z": -1.2748201334,
				"element": "C" 
			},
			{
				"x": 2.3165696758,
				"y": 2.3658811015,
				"z": -0.1523720051,
				"element": "C" 
			},
			{
				"x": 1.1951631593,
				"y": 2.1021582841,
				"z": 0.8665363822,
				"element": "C" 
			},
			{
				"x": 1.3989263365,
				"y": 0.84525085,
				"z": 1.7262132507,
				"element": "C" 
			},
			{
				"x": 0.359086569,
				"y": 0.6683736204,
				"z": 2.8475825799,
				"element": "C" 
			},
			{
				"x": -1.0970239546,
				"y": 0.4642862528,
				"z": 2.3910309404,
				"element": "C" 
			},
			{
				"x": -1.3303617341,
				"y": -0.8170516521,
				"z": 1.576125329,
				"element": "C" 
			},
			{
				"x": -2.8098290739,
				"y": -1.1264441161,
				"z": 1.2871532355,
				"element": "C" 
			},
			{
				"x": -3.5741277164,
				"y": -0.1035745664,
				"z": 0.4204352646,
				"element": "C" 
			},
			{
				"x": -2.9669058145,
				"y": 0.0455933355,
				"z": -0.9827292022,
				"element": "C" 
			},
			{
				"x": -5.0573208828,
				"y": -0.4930289869,
				"z": 0.3264600221,
				"element": "C" 
			},
			{
				"x": 3.5638100673,
				"y": 0.9113803412,
				"z": -3.0951304799,
				"element": "H" 
			},
			{
				"x": 4.495845205,
				"y": 1.7298738354,
				"z": -1.834543582,
				"element": "H" 
			},
			{
				"x": 3.3085368425,
				"y": 2.6336422545,
				"z": -2.7815455394,
				"element": "H" 
			},
			{
				"x": 2.6356526183,
				"y": 0.3352447238,
				"z": -0.8480645114,
				"element": "H" 
			},
			{
				"x": 1.453695584,
				"y": 1.2372984953,
				"z": -1.7801034731,
				"element": "H" 
			},
			{
				"x": 3.2790793033,
				"y": 2.4299210239,
				"z": 0.3759133162,
				"element": "H" 
			},
			{
				"x": 2.1559339988,
				"y": 3.3533972917,
				"z": -0.6065694719,
				"element": "H" 
			},
			{
				"x": 0.2375800936,
				"y": 2.0399309784,
				"z": 0.3315965133,
				"element": "H" 
			},
			{
				"x": 1.1119570881,
				"y": 2.9721664277,
				"z": 1.5327921883,
				"element": "H" 
			},
			{
				"x": 1.4082536099,
				"y": -0.047531577,
				"z": 1.0891811444,
				"element": "H" 
			},
			{
				"x": 2.3960045165,
				"y": 0.8941577576,
				"z": 2.1857890834,
				"element": "H" 
			},
			{
				"x": 0.6547951527,
				"y": -0.1890023528,
				"z": 3.4679022165,
				"element": "H" 
			},
			{
				"x": 0.4007512806,
				"y": 1.5469825407,
				"z": 3.5061633371,
				"element": "H" 
			},
			{
				"x": -1.4291089585,
				"y": 1.3389248151,
				"z": 1.8180877417,
				"element": "H" 
			},
			{
				"x": -1.7366058367,
				"y": 0.4335427073,
				"z": 3.2841939239,
				"element": "H" 
			},
			{
				"x": -0.9055489899,
				"y": -1.6660085829,
				"z": 2.1298960947,
				"element": "H" 
			},
			{
				"x": -0.7713155064,
				"y": -0.7694835762,
				"z": 0.6336051043,
				"element": "H" 
			},
			{
				"x": -2.8759940094,
				"y": -2.1088453601,
				"z": 0.7972425286,
				"element": "H" 
			},
			{
				"x": -3.3377937267,
				"y": -1.2318103795,
				"z": 2.2456754249,
				"element": "H" 
			},
			{
				"x": -3.5213360109,
				"y": 0.8757858145,
				"z": 0.9169670589,
				"element": "H" 
			},
			{
				"x": -2.9739624428,
				"y": -0.9140851533,
				"z": -1.5148167067,
				"element": "H" 
			},
			{
				"x": -3.5392767405,
				"y": 0.7609132692,
				"z": -1.5834983457,
				"element": "H" 
			},
			{
				"x": -1.9314560665,
				"y": 0.3990341389,
				"z": -0.9500170197,
				"element": "H" 
			},
			{
				"x": -5.6266716667,
				"y": 0.2413500856,
				"z": -0.2538628529,
				"element": "H" 
			},
			{
				"x": -5.515853722,
				"y": -0.5643954995,
				"z": 1.3189907925,
				"element": "H" 
			},
			{
				"x": -5.1759318731,
				"y": -1.4670821761,
				"z": -0.1644026162,
				"element": "H" 
			}
		],
		 "valence_orbital": [ 
			{
				"type": "occ",
				"energy": -0.31196,
				"method": "rhf"
			},
			{
				"type": "occ",
				"energy": -0.30666,
				"method": "rhf"
			},
			{
				"type": "occ",
				"energy": -0.30113,
				"method": "rhf"
			},
			{
				"type": "occ",
				"energy": -0.29999,
				"method": "rhf"
			},
			{
				"type": "occ",
				"energy": -0.29662,
				"method": "rhf"
			},
			{
				"type": "unocc",
				"energy": 0.06822,
				"method": "rhf"
			},
			{
				"type": "unocc",
				"energy": 0.09532,
				"method": "rhf"
			},
			{
				"type": "unocc",
				"energy": 0.10267,
				"method": "rhf"
			},
			{
				"type": "unocc",
				"energy": 0.10669,
				"method": "rhf"
			},
			{
				"type": "unocc",
				"energy": 0.11203,
				"method": "rhf"
			}
		],
		"cosmo_sigma_profile": { 
			"-0.025": 0.0,
			"-0.024": 0.0,
			"-0.023": 0.0,
			"-0.022": 0.0,
			"-0.021": 0.0,
			"-0.02": 0.0,
			"-0.019": 0.0,
			"-0.018": 0.0,
			"-0.017": 0.0,
			"-0.016": 0.0,
			"-0.015": 0.0,
			"-0.014": 0.0,
			"-0.013": 0.0,
			"-0.012": 0.0,
			"-0.011": 0.0,
			"-0.01": 0.0,
			"-0.009": 0.0,
			"-0.008": 0.0,
			"-0.007": 0.0,
			"-0.006": 0.0,
			"-0.005": 0.0,
			"-0.004": 0.0,
			"-0.003": 2.6087517511,
			"-0.002": 32.5571975535,
			"-0.001": 72.9359082841,
			"0.0": 69.5808957817,
			"0.001": 67.1150381965,
			"0.002": 36.4434448962,
			"0.003": 1.79870243798,
			"0.004": 0.0,
			"0.005": 0.0,
			"0.006": 0.0,
			"0.007": 0.0,
			"0.008": 0.0,
			"0.009": 0.0,
			"0.01": 0.0,
			"0.011": 0.0,
			"0.012": 0.0,
			"0.013": 0.0,
			"0.014": 0.0,
			"0.015": 0.0,
			"0.016": 0.0,
			"0.017": 0.0,
			"0.018": 0.0,
			"0.019": 0.0,
			"0.02": 0.0,
			"0.021": 0.0,
			"0.022": 0.0,
			"0.023": 0.0,
			"0.024": 0.0,
			"0.025": 0.0
		}
	}
}
