{
	 "smiles": "CS(=O)(=O)C1(CCCC1)C(O)=O", 
	 "Tm": 391.15, 
	 "num_atms": 24, 
	 "gaussian": { 
		 "optdone": 1, 
		 "sigma_profile": "yes", 
		 "theory": "DFT", 
		 "functional": "B3LYP", 
		 "basiset": "6-31G**", 
		 "properties": { 
			 "R2extent": 2259.6609, 
			 "electric_dipole_moment_norm": 2.29088198954, 
			 "electric_quadrupole_moment_norm": 18.4073190123, 
			 "total_energy": -973.018264646, 
			 "HOMO_LUMO_gap": 0.26285, 
			 "cosmo_polarized_energy": -15.56, 
			 "cosmo_cavitation_energy": 26.56, 
			 "cosmo_dispersion_energy": -19.7, 
			 "cosmo_repulsion_energy": 1.5, 
			 "cosmo_total_nonelectrostatic_energy": 8.36, 
			 "SMD_solvation_energy": 4.78 
		},
		"coords": [
			{
				"x": -0.6093899828,
				"y": 0.4443190233,
				"z": 3.2394289463,
				"element": "C" 
			},
			{
				"x": 0.2750781788,
				"y": -0.6501833126,
				"z": 2.1083428701,
				"element": "S" 
			},
			{
				"x": -0.3710987741,
				"y": -1.989019883,
				"z": 2.1898198014,
				"element": "O" 
			},
			{
				"x": 1.7153829586,
				"y": -0.5367739027,
				"z": 2.3743715954,
				"element": "O" 
			},
			{
				"x": -0.0848999042,
				"y": -0.0017168493,
				"z": 0.4140487139,
				"element": "C" 
			},
			{
				"x": 0.6841840248,
				"y": -0.9290222331,
				"z": -0.6030897502,
				"element": "C" 
			},
			{
				"x": 1.8291827616,
				"y": -0.0571024243,
				"z": -1.1448132673,
				"element": "C" 
			},
			{
				"x": 1.2450705063,
				"y": 1.3616823473,
				"z": -1.1219054036,
				"element": "C" 
			},
			{
				"x": 0.5067960402,
				"y": 1.4194706232,
				"z": 0.2281589715,
				"element": "C" 
			},
			{
				"x": -1.6014941453,
				"y": -0.0527111904,
				"z": 0.1051151493,
				"element": "C" 
			},
			{
				"x": -2.2498697411,
				"y": -1.1772395501,
				"z": 0.4350783627,
				"element": "O" 
			},
			{
				"x": -2.1550708051,
				"y": 0.8522873978,
				"z": -0.47431858,
				"element": "O" 
			},
			{
				"x": -0.4082453342,
				"y": 0.062797247,
				"z": 4.2422485291,
				"element": "H" 
			},
			{
				"x": -0.2261078793,
				"y": 1.4598152916,
				"z": 3.1352920221,
				"element": "H" 
			},
			{
				"x": -1.677607955,
				"y": 0.3974785949,
				"z": 3.0220997859,
				"element": "H" 
			},
			{
				"x": 1.0204214929,
				"y": -1.8632790504,
				"z": -0.1463087745,
				"element": "H" 
			},
			{
				"x": -0.0044894532,
				"y": -1.1998674454,
				"z": -1.4097022346,
				"element": "H" 
			},
			{
				"x": 2.6906788694,
				"y": -0.1203433684,
				"z": -0.4712525503,
				"element": "H" 
			},
			{
				"x": 2.1533425983,
				"y": -0.3787479533,
				"z": -2.1389835345,
				"element": "H" 
			},
			{
				"x": 0.5261750378,
				"y": 1.4914403044,
				"z": -1.9388353225,
				"element": "H" 
			},
			{
				"x": 2.0028837948,
				"y": 2.1451381391,
				"z": -1.2135857314,
				"element": "H" 
			},
			{
				"x": -0.2813362425,
				"y": 2.1729615669,
				"z": 0.2557180881,
				"element": "H" 
			},
			{
				"x": 1.2323736587,
				"y": 1.6254567326,
				"z": 1.0216961505,
				"element": "H" 
			},
			{
				"x": -1.6759597053,
				"y": -1.7620401051,
				"z": 0.9822761626,
				"element": "H" 
			}
		],
		 "valence_orbital": [ 
			{
				"type": "occ",
				"energy": -0.33438,
				"method": "rhf"
			},
			{
				"type": "occ",
				"energy": -0.32453,
				"method": "rhf"
			},
			{
				"type": "occ",
				"energy": -0.31907,
				"method": "rhf"
			},
			{
				"type": "occ",
				"energy": -0.30644,
				"method": "rhf"
			},
			{
				"type": "occ",
				"energy": -0.27797,
				"method": "rhf"
			},
			{
				"type": "unocc",
				"energy": -0.01512,
				"method": "rhf"
			},
			{
				"type": "unocc",
				"energy": 0.03587,
				"method": "rhf"
			},
			{
				"type": "unocc",
				"energy": 0.04673,
				"method": "rhf"
			},
			{
				"type": "unocc",
				"energy": 0.0648,
				"method": "rhf"
			},
			{
				"type": "unocc",
				"energy": 0.07157,
				"method": "rhf"
			}
		],
		"cosmo_sigma_profile": { 
			"-0.025": 0.0,
			"-0.024": 0.0,
			"-0.023": 0.0,
			"-0.022": 0.0,
			"-0.021": 0.0,
			"-0.02": 0.0,
			"-0.019": 0.0,
			"-0.018": 0.0,
			"-0.017": 0.0,
			"-0.016": 0.0,
			"-0.015": 0.0,
			"-0.014": 0.0,
			"-0.013": 0.0,
			"-0.012": 0.0,
			"-0.011": 0.00973162344504,
			"-0.01": 1.47800721465,
			"-0.009": 6.58048545661,
			"-0.008": 8.59030464794,
			"-0.007": 9.85050647138,
			"-0.006": 10.2463302849,
			"-0.005": 13.5007122151,
			"-0.004": 17.9984037828,
			"-0.003": 20.7381810434,
			"-0.002": 18.5314785583,
			"-0.001": 15.6631044782,
			"0.0": 12.5498798202,
			"0.001": 5.661629386,
			"0.002": 4.51599514146,
			"0.003": 4.91092101954,
			"0.004": 3.8407682913,
			"0.005": 3.18409631073,
			"0.006": 5.06143197815,
			"0.007": 5.36161221839,
			"0.008": 5.86289945758,
			"0.009": 7.37535630921,
			"0.01": 11.5907975642,
			"0.011": 11.4056178784,
			"0.012": 3.33868443479,
			"0.013": 0.212856055378,
			"0.014": 0.0,
			"0.015": 0.0,
			"0.016": 0.0,
			"0.017": 0.0,
			"0.018": 0.0,
			"0.019": 0.0,
			"0.02": 0.0,
			"0.021": 0.0,
			"0.022": 0.0,
			"0.023": 0.0,
			"0.024": 0.0,
			"0.025": 0.0
		}
	}
}
