{
	 "smiles": "OC(=O)C1=CC=C(O)C=C1O", 
	 "Tm": 499.15, 
	 "num_atms": 17, 
	 "gaussian": { 
		 "optdone": 1, 
		 "sigma_profile": "yes", 
		 "theory": "DFT", 
		 "functional": "B3LYP", 
		 "basiset": "6-31G**", 
		 "properties": { 
			 "R2extent": 2744.8298, 
			 "electric_dipole_moment_norm": 6.21754537177, 
			 "electric_quadrupole_moment_norm": 29.4534033124, 
			 "total_energy": -571.263854956, 
			 "HOMO_LUMO_gap": 0.20304, 
			 "cosmo_polarized_energy": -21.15, 
			 "cosmo_cavitation_energy": 21.63, 
			 "cosmo_dispersion_energy": -16.58, 
			 "cosmo_repulsion_energy": 1.32, 
			 "cosmo_total_nonelectrostatic_energy": 6.37, 
			 "SMD_solvation_energy": 5.62 
		},
		"coords": [
			{
				"x": -2.7738969795,
				"y": -1.7403718444,
				"z": -2.6531537034,
				"element": "O" 
			},
			{
				"x": -1.5536048488,
				"y": -1.3931882559,
				"z": -3.1116426021,
				"element": "C" 
			},
			{
				"x": -1.1718619025,
				"y": -1.7930750122,
				"z": -4.1912331874,
				"element": "O" 
			},
			{
				"x": -0.6991515375,
				"y": -0.507484252,
				"z": -2.250372307,
				"element": "C" 
			},
			{
				"x": 0.5639086935,
				"y": -0.1653624048,
				"z": -2.7552671453,
				"element": "C" 
			},
			{
				"x": 1.447754914,
				"y": 0.645343993,
				"z": -2.0581133223,
				"element": "C" 
			},
			{
				"x": 1.0725429483,
				"y": 1.1445845481,
				"z": -0.8034641377,
				"element": "C" 
			},
			{
				"x": 1.8771140687,
				"y": 1.9443456269,
				"z": -0.0552799428,
				"element": "O" 
			},
			{
				"x": -0.1781886274,
				"y": 0.8253251783,
				"z": -0.2677725055,
				"element": "C" 
			},
			{
				"x": -1.0482099261,
				"y": 0.0096862007,
				"z": -0.986219769,
				"element": "C" 
			},
			{
				"x": -2.2814675621,
				"y": -0.3125803079,
				"z": -0.4715933579,
				"element": "O" 
			},
			{
				"x": -2.9346933378,
				"y": -1.3440350908,
				"z": -1.7791004315,
				"element": "H" 
			},
			{
				"x": 0.8249955449,
				"y": -0.5670753301,
				"z": -3.7282731809,
				"element": "H" 
			},
			{
				"x": 2.4198666567,
				"y": 0.8919132384,
				"z": -2.4774155419,
				"element": "H" 
			},
			{
				"x": 2.7074859989,
				"y": 2.0931724093,
				"z": -0.5267314736,
				"element": "H" 
			},
			{
				"x": -0.4518702068,
				"y": 1.2213682663,
				"z": 0.706032415,
				"element": "H" 
			},
			{
				"x": -2.4072238965,
				"y": 0.0966330373,
				"z": 0.3938001935,
				"element": "H" 
			}
		],
		 "valence_orbital": [ 
			{
				"type": "occ",
				"energy": -0.33585,
				"method": "rhf"
			},
			{
				"type": "occ",
				"energy": -0.29424,
				"method": "rhf"
			},
			{
				"type": "occ",
				"energy": -0.25923,
				"method": "rhf"
			},
			{
				"type": "occ",
				"energy": -0.25826,
				"method": "rhf"
			},
			{
				"type": "occ",
				"energy": -0.23904,
				"method": "rhf"
			},
			{
				"type": "unocc",
				"energy": -0.036,
				"method": "rhf"
			},
			{
				"type": "unocc",
				"energy": -0.01163,
				"method": "rhf"
			},
			{
				"type": "unocc",
				"energy": 0.03974,
				"method": "rhf"
			},
			{
				"type": "unocc",
				"energy": 0.05433,
				"method": "rhf"
			},
			{
				"type": "unocc",
				"energy": 0.06657,
				"method": "rhf"
			}
		],
		"cosmo_sigma_profile": { 
			"-0.025": 0.0,
			"-0.024": 0.0,
			"-0.023": 0.0,
			"-0.022": 0.0,
			"-0.021": 0.0,
			"-0.02": 0.210174000311,
			"-0.019": 1.39319934659,
			"-0.018": 2.20775882875,
			"-0.017": 2.24174751471,
			"-0.016": 2.14458658907,
			"-0.015": 2.46461392114,
			"-0.014": 1.25835219597,
			"-0.013": 2.12201482937,
			"-0.012": 1.77101791771,
			"-0.011": 2.22739780449,
			"-0.01": 2.5258989075,
			"-0.009": 2.03768512103,
			"-0.008": 3.83658108315,
			"-0.007": 4.58725640358,
			"-0.006": 5.2708684837,
			"-0.005": 6.54271390513,
			"-0.004": 6.76173457201,
			"-0.003": 6.53458246908,
			"-0.002": 7.59370554159,
			"-0.001": 8.25737408023,
			"0.0": 9.1959750057,
			"0.001": 12.2187376677,
			"0.002": 15.737772085,
			"0.003": 15.1769434227,
			"0.004": 8.11403235118,
			"0.005": 2.91629629179,
			"0.006": 3.88082454545,
			"0.007": 4.40134091446,
			"0.008": 2.87386239621,
			"0.009": 4.62151872445,
			"0.01": 5.06940307084,
			"0.011": 4.98994470878,
			"0.012": 6.22967304644,
			"0.013": 3.76447790344,
			"0.014": 1.57206639301,
			"0.015": 0.0298765296745,
			"0.016": 0.0,
			"0.017": 0.0,
			"0.018": 0.0,
			"0.019": 0.0,
			"0.02": 0.0,
			"0.021": 0.0,
			"0.022": 0.0,
			"0.023": 0.0,
			"0.024": 0.0,
			"0.025": 0.0
		}
	}
}
