{
	 "smiles": "CC1(C)C2CCC1(C)C(=O)C(Br)(Br)C2=O", 
	 "Tm": 428.15, 
	 "num_atms": 29, 
	 "gaussian": { 
		 "optdone": 1, 
		 "sigma_profile": "yes", 
		 "theory": "DFT", 
		 "functional": "B3LYP", 
		 "basiset": "6-31G**", 
		 "properties": { 
			 "R2extent": 5831.6695, 
			 "electric_dipole_moment_norm": 4.72536960036, 
			 "electric_quadrupole_moment_norm": 8.94483298447, 
			 "total_energy": -5720.8471414, 
			 "HOMO_LUMO_gap": 0.16945, 
			 "cosmo_polarized_energy": -11.12, 
			 "cosmo_cavitation_energy": 32.21, 
			 "cosmo_dispersion_energy": -23.33, 
			 "cosmo_repulsion_energy": 1.75, 
			 "cosmo_total_nonelectrostatic_energy": 10.63, 
			 "SMD_solvation_energy": 4.3 
		},
		"coords": [
			{
				"x": 0.7453342761,
				"y": 1.402661677,
				"z": 1.0794126074,
				"element": "C" 
			},
			{
				"x": 0.6470919349,
				"y": 0.3032544155,
				"z": 0.00488745,
				"element": "C" 
			},
			{
				"x": 1.885103698,
				"y": 0.431553493,
				"z": -0.906321709,
				"element": "C" 
			},
			{
				"x": -0.646901826,
				"y": 0.3859304852,
				"z": -0.8600587727,
				"element": "C" 
			},
			{
				"x": -0.6865078547,
				"y": -0.9787683434,
				"z": -1.6057804569,
				"element": "C" 
			},
			{
				"x": 0.0349784376,
				"y": -1.9778662238,
				"z": -0.6647638838,
				"element": "C" 
			},
			{
				"x": 0.4952940913,
				"y": -1.1534570116,
				"z": 0.5837467117,
				"element": "C" 
			},
			{
				"x": 1.7463742235,
				"y": -1.7394022719,
				"z": 1.2427154038,
				"element": "C" 
			},
			{
				"x": -0.643122175,
				"y": -1.143827037,
				"z": 1.6234389258,
				"element": "C" 
			},
			{
				"x": -0.5419053371,
				"y": -1.6637282853,
				"z": 2.709080385,
				"element": "O" 
			},
			{
				"x": -1.970927191,
				"y": -0.4184744564,
				"z": 1.2298083444,
				"element": "C" 
			},
			{
				"x": -2.7154438325,
				"y": 0.5011105272,
				"z": 2.7861652927,
				"element": "Br" 
			},
			{
				"x": -3.236946049,
				"y": -1.8553730201,
				"z": 0.6605438517,
				"element": "Br" 
			},
			{
				"x": -1.867295017,
				"y": 0.5662337873,
				"z": 0.027754654,
				"element": "C" 
			},
			{
				"x": -2.7025570907,
				"y": 1.4187136425,
				"z": -0.1584650975,
				"element": "O" 
			},
			{
				"x": 0.7955695001,
				"y": 2.3894447278,
				"z": 0.6074457222,
				"element": "H" 
			},
			{
				"x": -0.0989942022,
				"y": 1.4207017386,
				"z": 1.7751267886,
				"element": "H" 
			},
			{
				"x": 1.654579151,
				"y": 1.2760932198,
				"z": 1.6755356017,
				"element": "H" 
			},
			{
				"x": 1.8643260597,
				"y": 1.3983202956,
				"z": -1.4204209717,
				"element": "H" 
			},
			{
				"x": 1.9445235885,
				"y": -0.3488147385,
				"z": -1.6689497361,
				"element": "H" 
			},
			{
				"x": 2.8062502643,
				"y": 0.3938127664,
				"z": -0.3180035148,
				"element": "H" 
			},
			{
				"x": -0.6469206319,
				"y": 1.2384381961,
				"z": -1.5444926099,
				"element": "H" 
			},
			{
				"x": -1.7064989921,
				"y": -1.2863932823,
				"z": -1.8444114877,
				"element": "H" 
			},
			{
				"x": -0.1550990091,
				"y": -0.8796843304,
				"z": -2.5559008432,
				"element": "H" 
			},
			{
				"x": -0.600037019,
				"y": -2.8204281076,
				"z": -0.38183811,
				"element": "H" 
			},
			{
				"x": 0.9211654258,
				"y": -2.4012903385,
				"z": -1.1462556193,
				"element": "H" 
			},
			{
				"x": 1.5407199415,
				"y": -2.740913616,
				"z": 1.6272588986,
				"element": "H" 
			},
			{
				"x": 2.0786240672,
				"y": -1.1332348683,
				"z": 2.0898705018,
				"element": "H" 
			},
			{
				"x": 2.5624215681,
				"y": -1.8090130409,
				"z": 0.5191716732,
				"element": "H" 
			}
		],
		 "valence_orbital": [ 
			{
				"type": "occ",
				"energy": -0.3023,
				"method": "rhf"
			},
			{
				"type": "occ",
				"energy": -0.28405,
				"method": "rhf"
			},
			{
				"type": "occ",
				"energy": -0.28038,
				"method": "rhf"
			},
			{
				"type": "occ",
				"energy": -0.27586,
				"method": "rhf"
			},
			{
				"type": "occ",
				"energy": -0.25648,
				"method": "rhf"
			},
			{
				"type": "unocc",
				"energy": -0.08703,
				"method": "rhf"
			},
			{
				"type": "unocc",
				"energy": -0.03999,
				"method": "rhf"
			},
			{
				"type": "unocc",
				"energy": -0.03278,
				"method": "rhf"
			},
			{
				"type": "unocc",
				"energy": 0.0435,
				"method": "rhf"
			},
			{
				"type": "unocc",
				"energy": 0.05902,
				"method": "rhf"
			}
		],
		"cosmo_sigma_profile": { 
			"-0.025": 0.0,
			"-0.024": 0.0,
			"-0.023": 0.0,
			"-0.022": 0.0,
			"-0.021": 0.0,
			"-0.02": 0.0,
			"-0.019": 0.0,
			"-0.018": 0.0,
			"-0.017": 0.0,
			"-0.016": 0.0,
			"-0.015": 0.0,
			"-0.014": 0.0,
			"-0.013": 0.0,
			"-0.012": 0.0,
			"-0.011": 0.0,
			"-0.01": 0.0,
			"-0.009": 0.0,
			"-0.008": 0.0,
			"-0.007": 0.227627705252,
			"-0.006": 3.6008327351,
			"-0.005": 16.5204840572,
			"-0.004": 32.5003436507,
			"-0.003": 32.2271035249,
			"-0.002": 29.7296191175,
			"-0.001": 30.34228698,
			"0.0": 24.1461402925,
			"0.001": 13.3528155973,
			"0.002": 11.8005477936,
			"0.003": 19.1085650873,
			"0.004": 7.00937742939,
			"0.005": 4.56212324842,
			"0.006": 4.52286455092,
			"0.007": 4.14391815287,
			"0.008": 5.23126885666,
			"0.009": 6.09337996447,
			"0.01": 8.96888995278,
			"0.011": 3.35134482828,
			"0.012": 0.0494318929096,
			"0.013": 0.0,
			"0.014": 0.0,
			"0.015": 0.0,
			"0.016": 0.0,
			"0.017": 0.0,
			"0.018": 0.0,
			"0.019": 0.0,
			"0.02": 0.0,
			"0.021": 0.0,
			"0.022": 0.0,
			"0.023": 0.0,
			"0.024": 0.0,
			"0.025": 0.0
		}
	}
}
