{
	 "smiles": "CCOC1=CC=C(C=C1)C#N", 
	 "Tm": 334.95, 
	 "num_atms": 20, 
	 "gaussian": { 
		 "optdone": 1, 
		 "sigma_profile": "yes", 
		 "theory": "DFT", 
		 "functional": "B3LYP", 
		 "basiset": "6-31G**", 
		 "properties": { 
			 "R2extent": 2753.9858, 
			 "electric_dipole_moment_norm": 6.06965210947, 
			 "electric_quadrupole_moment_norm": 22.7048739215, 
			 "total_energy": -478.339372937, 
			 "HOMO_LUMO_gap": 0.19899, 
			 "cosmo_polarized_energy": -10.47, 
			 "cosmo_cavitation_energy": 25.09, 
			 "cosmo_dispersion_energy": -17.97, 
			 "cosmo_repulsion_energy": 1.46, 
			 "cosmo_total_nonelectrostatic_energy": 8.59, 
			 "SMD_solvation_energy": 6.16 
		},
		"coords": [
			{
				"x": 1.7145496411,
				"y": 0.7095193035,
				"z": -3.2056524628,
				"element": "C" 
			},
			{
				"x": 0.6276772423,
				"y": 1.1453775908,
				"z": -2.2396236697,
				"element": "C" 
			},
			{
				"x": 0.733176827,
				"y": 0.3217388691,
				"z": -1.0735459974,
				"element": "O" 
			},
			{
				"x": -0.1339819961,
				"y": 0.5119264699,
				"z": -0.0487322405,
				"element": "C" 
			},
			{
				"x": -1.154199979,
				"y": 1.4752052736,
				"z": -0.0350234178,
				"element": "C" 
			},
			{
				"x": -1.9886477668,
				"y": 1.5812858888,
				"z": 1.0749821399,
				"element": "C" 
			},
			{
				"x": -1.8216231914,
				"y": 0.7356761423,
				"z": 2.1814365762,
				"element": "C" 
			},
			{
				"x": -0.7944571474,
				"y": -0.2290750285,
				"z": 2.1595511857,
				"element": "C" 
			},
			{
				"x": 0.0373964523,
				"y": -0.3382246588,
				"z": 1.0584428846,
				"element": "C" 
			},
			{
				"x": -2.6836716535,
				"y": 0.8513649709,
				"z": 3.3183092655,
				"element": "C" 
			},
			{
				"x": -3.3845105661,
				"y": 0.9451946393,
				"z": 4.2429361862,
				"element": "N" 
			},
			{
				"x": 1.5871228501,
				"y": -0.3407844353,
				"z": -3.4814904453,
				"element": "H" 
			},
			{
				"x": 1.6708380898,
				"y": 1.3154870529,
				"z": -4.115622111,
				"element": "H" 
			},
			{
				"x": 2.7031193546,
				"y": 0.8311743827,
				"z": -2.7546632394,
				"element": "H" 
			},
			{
				"x": -0.3683657637,
				"y": 1.0263188788,
				"z": -2.6875616161,
				"element": "H" 
			},
			{
				"x": 0.7498071188,
				"y": 2.2005706038,
				"z": -1.9593141108,
				"element": "H" 
			},
			{
				"x": -1.3048782207,
				"y": 2.1405452003,
				"z": -0.8759548892,
				"element": "H" 
			},
			{
				"x": -2.7777122617,
				"y": 2.3259883727,
				"z": 1.0860723555,
				"element": "H" 
			},
			{
				"x": -0.659403819,
				"y": -0.8865498189,
				"z": 3.0119243523,
				"element": "H" 
			},
			{
				"x": 0.8326647894,
				"y": -1.0750396978,
				"z": 1.0251292541,
				"element": "H" 
			}
		],
		 "valence_orbital": [ 
			{
				"type": "occ",
				"energy": -0.34376,
				"method": "rhf"
			},
			{
				"type": "occ",
				"energy": -0.32183,
				"method": "rhf"
			},
			{
				"type": "occ",
				"energy": -0.31596,
				"method": "rhf"
			},
			{
				"type": "occ",
				"energy": -0.27403,
				"method": "rhf"
			},
			{
				"type": "occ",
				"energy": -0.23598,
				"method": "rhf"
			},
			{
				"type": "unocc",
				"energy": -0.03699,
				"method": "rhf"
			},
			{
				"type": "unocc",
				"energy": -0.02162,
				"method": "rhf"
			},
			{
				"type": "unocc",
				"energy": 0.04391,
				"method": "rhf"
			},
			{
				"type": "unocc",
				"energy": 0.07821,
				"method": "rhf"
			},
			{
				"type": "unocc",
				"energy": 0.08626,
				"method": "rhf"
			}
		],
		"cosmo_sigma_profile": { 
			"-0.025": 0.0,
			"-0.024": 0.0,
			"-0.023": 0.0,
			"-0.022": 0.0,
			"-0.021": 0.0,
			"-0.02": 0.0,
			"-0.019": 0.0,
			"-0.018": 0.0,
			"-0.017": 0.0,
			"-0.016": 0.0,
			"-0.015": 0.0,
			"-0.014": 0.0,
			"-0.013": 0.0,
			"-0.012": 0.0,
			"-0.011": 0.0,
			"-0.01": 0.0,
			"-0.009": 0.0,
			"-0.008": 2.37992178545,
			"-0.007": 9.37448077845,
			"-0.006": 11.1152594466,
			"-0.005": 15.1217205885,
			"-0.004": 18.2138428699,
			"-0.003": 15.8753946373,
			"-0.002": 14.8069062555,
			"-0.001": 14.2478049972,
			"0.0": 18.9677377075,
			"0.001": 13.8647226781,
			"0.002": 16.4081149349,
			"0.003": 13.1714624703,
			"0.004": 4.96839245528,
			"0.005": 3.35410248563,
			"0.006": 4.12363842869,
			"0.007": 3.55018279458,
			"0.008": 4.8753072804,
			"0.009": 4.55321405933,
			"0.01": 3.39087364474,
			"0.011": 3.27187112099,
			"0.012": 2.5092257336,
			"0.013": 2.21393321422,
			"0.014": 0.544077300761,
			"0.015": 0.0,
			"0.016": 0.0,
			"0.017": 0.0,
			"0.018": 0.0,
			"0.019": 0.0,
			"0.02": 0.0,
			"0.021": 0.0,
			"0.022": 0.0,
			"0.023": 0.0,
			"0.024": 0.0,
			"0.025": 0.0
		}
	}
}
