{
	 "smiles": "OC(=O)C=CC1=CC=C(SC2=CC=C(Br)C=C2)C(=C1)[N+]([O-])=O", 
	 "Tm": 506.15, 
	 "num_atms": 32, 
	 "gaussian": { 
		 "optdone": 1, 
		 "sigma_profile": "yes", 
		 "theory": "DFT", 
		 "functional": "B3LYP", 
		 "basiset": "6-31G**", 
		 "properties": { 
			 "R2extent": 12953.2003, 
			 "electric_dipole_moment_norm": 4.35106848946, 
			 "electric_quadrupole_moment_norm": 17.482481394, 
			 "total_energy": -3902.73871816, 
			 "HOMO_LUMO_gap": 0.13639, 
			 "cosmo_polarized_energy": -17.41, 
			 "cosmo_cavitation_energy": 42.84, 
			 "cosmo_dispersion_energy": -30.16, 
			 "cosmo_repulsion_energy": 2.29, 
			 "cosmo_total_nonelectrostatic_energy": 14.96, 
			 "SMD_solvation_energy": 9.13 
		},
		"coords": [
			{
				"x": -2.4656020251,
				"y": -2.1879601841,
				"z": -3.6901606984,
				"element": "O" 
			},
			{
				"x": -1.9880625831,
				"y": -2.6167592999,
				"z": -4.8848636745,
				"element": "C" 
			},
			{
				"x": -2.6436380902,
				"y": -3.3269293863,
				"z": -5.6213669639,
				"element": "O" 
			},
			{
				"x": -0.6050742665,
				"y": -2.2040599154,
				"z": -5.2118686154,
				"element": "C" 
			},
			{
				"x": 0.2576029135,
				"y": -1.35666448,
				"z": -4.6142141953,
				"element": "C" 
			},
			{
				"x": 0.148283688,
				"y": -0.442514872,
				"z": -3.4657545582,
				"element": "C" 
			},
			{
				"x": 1.3165995196,
				"y": -0.1707872721,
				"z": -2.7280734274,
				"element": "C" 
			},
			{
				"x": 1.3094933751,
				"y": 0.7214194348,
				"z": -1.6626526492,
				"element": "C" 
			},
			{
				"x": 0.1342693978,
				"y": 1.3772583106,
				"z": -1.2696842614,
				"element": "C" 
			},
			{
				"x": 0.2108126064,
				"y": 2.6416168243,
				"z": 0.0037474254,
				"element": "S" 
			},
			{
				"x": 0.4408221294,
				"y": 1.6524134043,
				"z": 1.4870471334,
				"element": "C" 
			},
			{
				"x": -0.4875378726,
				"y": 0.6720824276,
				"z": 1.862197988,
				"element": "C" 
			},
			{
				"x": -0.3033462106,
				"y": -0.0478429565,
				"z": 3.0411465673,
				"element": "C" 
			},
			{
				"x": 0.79515882,
				"y": 0.2356164383,
				"z": 3.8538439223,
				"element": "C" 
			},
			{
				"x": 1.0411476562,
				"y": -0.7446922965,
				"z": 5.4745173123,
				"element": "Br" 
			},
			{
				"x": 1.7148136252,
				"y": 1.2217625787,
				"z": 3.5040286114,
				"element": "C" 
			},
			{
				"x": 1.5390907544,
				"y": 1.9242049547,
				"z": 2.3106054473,
				"element": "C" 
			},
			{
				"x": -1.0223671187,
				"y": 1.1016377573,
				"z": -2.0161052325,
				"element": "C" 
			},
			{
				"x": -1.0219474168,
				"y": 0.2392441713,
				"z": -3.108014237,
				"element": "C" 
			},
			{
				"x": -2.3346126936,
				"y": 1.6881766279,
				"z": -1.6760036662,
				"element": "N" 
			},
			{
				"x": -2.6966791059,
				"y": 1.6409760849,
				"z": -0.5029111307,
				"element": "O" 
			},
			{
				"x": -2.9988183708,
				"y": 2.1403617171,
				"z": -2.6051243364,
				"element": "O" 
			},
			{
				"x": -3.3599343479,
				"y": -2.5622401585,
				"z": -3.6161566837,
				"element": "H" 
			},
			{
				"x": -0.2508535487,
				"y": -2.7339497396,
				"z": -6.0904569442,
				"element": "H" 
			},
			{
				"x": 1.2511908702,
				"y": -1.3426422177,
				"z": -5.0623784271,
				"element": "H" 
			},
			{
				"x": 2.2464704002,
				"y": -0.6596504514,
				"z": -3.0053047376,
				"element": "H" 
			},
			{
				"x": 2.2285205512,
				"y": 0.9369752411,
				"z": -1.1283924781,
				"element": "H" 
			},
			{
				"x": -1.354068586,
				"y": 0.4853235287,
				"z": 1.2375753042,
				"element": "H" 
			},
			{
				"x": -1.0149752271,
				"y": -0.8116513962,
				"z": 3.3335831908,
				"element": "H" 
			},
			{
				"x": 2.5631593104,
				"y": 1.4314129499,
				"z": 4.1454556633,
				"element": "H" 
			},
			{
				"x": 2.2601118923,
				"y": 2.6819350918,
				"z": 2.0205693943,
				"element": "H" 
			},
			{
				"x": -1.939630046,
				"y": 0.1007270825,
				"z": -3.6602310427,
				"element": "H" 
			}
		],
		 "valence_orbital": [ 
			{
				"type": "occ",
				"energy": -0.28269,
				"method": "rhf"
			},
			{
				"type": "occ",
				"energy": -0.27427,
				"method": "rhf"
			},
			{
				"type": "occ",
				"energy": -0.27154,
				"method": "rhf"
			},
			{
				"type": "occ",
				"energy": -0.2643,
				"method": "rhf"
			},
			{
				"type": "occ",
				"energy": -0.2329,
				"method": "rhf"
			},
			{
				"type": "unocc",
				"energy": -0.09651,
				"method": "rhf"
			},
			{
				"type": "unocc",
				"energy": -0.08334,
				"method": "rhf"
			},
			{
				"type": "unocc",
				"energy": -0.03603,
				"method": "rhf"
			},
			{
				"type": "unocc",
				"energy": -0.02986,
				"method": "rhf"
			},
			{
				"type": "unocc",
				"energy": -0.02709,
				"method": "rhf"
			}
		],
		"cosmo_sigma_profile": { 
			"-0.025": 0.0,
			"-0.024": 0.0,
			"-0.023": 0.0,
			"-0.022": 0.0,
			"-0.021": 0.0,
			"-0.02": 0.0,
			"-0.019": 0.0605737645159,
			"-0.018": 0.711106049339,
			"-0.017": 1.18327914344,
			"-0.016": 0.523245075931,
			"-0.015": 0.655235797854,
			"-0.014": 0.912268518283,
			"-0.013": 0.556971374872,
			"-0.012": 0.717539438017,
			"-0.011": 0.716399536585,
			"-0.01": 0.944242112336,
			"-0.009": 1.74699177963,
			"-0.008": 8.18289953065,
			"-0.007": 18.0348764067,
			"-0.006": 15.9734091451,
			"-0.005": 16.2537528228,
			"-0.004": 17.1834304519,
			"-0.003": 19.7301558161,
			"-0.002": 23.5942857771,
			"-0.001": 26.8753756948,
			"0.0": 29.8922997274,
			"0.001": 33.6412662512,
			"0.002": 29.9627419554,
			"0.003": 25.3497987444,
			"0.004": 19.9173401628,
			"0.005": 11.2286231854,
			"0.006": 8.4456082297,
			"0.007": 12.1630756233,
			"0.008": 8.3343288615,
			"0.009": 4.4282576162,
			"0.01": 2.89592230485,
			"0.011": 3.82843773715,
			"0.012": 4.49589921744,
			"0.013": 0.703131179344,
			"0.014": 0.0,
			"0.015": 0.0,
			"0.016": 0.0,
			"0.017": 0.0,
			"0.018": 0.0,
			"0.019": 0.0,
			"0.02": 0.0,
			"0.021": 0.0,
			"0.022": 0.0,
			"0.023": 0.0,
			"0.024": 0.0,
			"0.025": 0.0
		}
	}
}
