{
	 "smiles": "COC(=O)CCC(C)C1CCC2C3C(CC(=O)C12C)C1(C)CCCCC1CC3=O", 
	 "Tm": 413.15, 
	 "num_atms": 67, 
	 "gaussian": { 
		 "optdone": 1, 
		 "sigma_profile": "yes", 
		 "theory": "DFT", 
		 "functional": "B3LYP", 
		 "basiset": "6-31G**", 
		 "properties": { 
			 "R2extent": 13404.58, 
			 "electric_dipole_moment_norm": 4.35949572887, 
			 "electric_quadrupole_moment_norm": 24.810753521, 
			 "total_energy": -1276.46551783, 
			 "HOMO_LUMO_gap": 0.21285, 
			 "cosmo_polarized_energy": -18.13, 
			 "cosmo_cavitation_energy": 57.04, 
			 "cosmo_dispersion_energy": -38.27, 
			 "cosmo_repulsion_energy": 2.82, 
			 "cosmo_total_nonelectrostatic_energy": 21.6, 
			 "SMD_solvation_energy": 10.42 
		},
		"coords": [
			{
				"x": 7.2537541822,
				"y": 0.467961095,
				"z": 2.3108548595,
				"element": "C" 
			},
			{
				"x": 6.0910156154,
				"y": -0.1267179272,
				"z": 1.7157327812,
				"element": "O" 
			},
			{
				"x": 5.1632662296,
				"y": -0.5833310064,
				"z": 2.5947382916,
				"element": "C" 
			},
			{
				"x": 5.3026572775,
				"y": -0.5032787576,
				"z": 3.795794826,
				"element": "O" 
			},
			{
				"x": 3.9849079126,
				"y": -1.2308618941,
				"z": 1.8923555028,
				"element": "C" 
			},
			{
				"x": 3.4496813126,
				"y": -0.450861791,
				"z": 0.6816189942,
				"element": "C" 
			},
			{
				"x": 2.4589694063,
				"y": -1.2340054117,
				"z": -0.2148036462,
				"element": "C" 
			},
			{
				"x": 2.0584818095,
				"y": -0.3523873583,
				"z": -1.4086385152,
				"element": "C" 
			},
			{
				"x": 1.2912026417,
				"y": -1.9812342541,
				"z": 0.507841581,
				"element": "C" 
			},
			{
				"x": 0.6019502622,
				"y": -3.0100694548,
				"z": -0.4266675257,
				"element": "C" 
			},
			{
				"x": -0.6445065037,
				"y": -2.3202423709,
				"z": -1.0024397485,
				"element": "C" 
			},
			{
				"x": -1.1265785229,
				"y": -1.3254472443,
				"z": 0.0853586879,
				"element": "C" 
			},
			{
				"x": -1.6758907141,
				"y": -0.0106681899,
				"z": -0.505618673,
				"element": "C" 
			},
			{
				"x": -1.7790972049,
				"y": 1.1269170319,
				"z": 0.5488657068,
				"element": "C" 
			},
			{
				"x": -0.3803003554,
				"y": 1.4016979895,
				"z": 1.1223755365,
				"element": "C" 
			},
			{
				"x": 0.3495494855,
				"y": 0.1801735892,
				"z": 1.6695567287,
				"element": "C" 
			},
			{
				"x": 1.1625085128,
				"y": 0.3336899902,
				"z": 2.5672551542,
				"element": "O" 
			},
			{
				"x": 0.0434118628,
				"y": -1.2237276382,
				"z": 1.1371060343,
				"element": "C" 
			},
			{
				"x": -0.3790045796,
				"y": -2.0289268805,
				"z": 2.4013413147,
				"element": "C" 
			},
			{
				"x": -2.5911080955,
				"y": 2.4156998428,
				"z": 0.0771146407,
				"element": "C" 
			},
			{
				"x": -3.824434656,
				"y": 2.5140781417,
				"z": 1.0100474055,
				"element": "C" 
			},
			{
				"x": -1.8460577863,
				"y": 3.776308253,
				"z": 0.2137260178,
				"element": "C" 
			},
			{
				"x": -0.7676328511,
				"y": 4.1147345146,
				"z": -0.8528251152,
				"element": "C" 
			},
			{
				"x": -0.6569482485,
				"y": 3.0728629371,
				"z": -1.9733616405,
				"element": "C" 
			},
			{
				"x": -2.0222696107,
				"y": 2.6119759209,
				"z": -2.4981323619,
				"element": "C" 
			},
			{
				"x": -3.0948710302,
				"y": 2.3071553273,
				"z": -1.4001609725,
				"element": "C" 
			},
			{
				"x": -3.8009627782,
				"y": 0.9675740631,
				"z": -1.653660612,
				"element": "C" 
			},
			{
				"x": -3.0354009958,
				"y": -0.2578094389,
				"z": -1.1677343861,
				"element": "C" 
			},
			{
				"x": -3.5171867045,
				"y": -1.3701637622,
				"z": -1.2861085789,
				"element": "O" 
			},
			{
				"x": 6.9758278065,
				"y": 1.3236317069,
				"z": 2.9315200343,
				"element": "H" 
			},
			{
				"x": 7.8822627858,
				"y": 0.7867461341,
				"z": 1.4788483136,
				"element": "H" 
			},
			{
				"x": 7.7830591666,
				"y": -0.257317864,
				"z": 2.9345177711,
				"element": "H" 
			},
			{
				"x": 4.3194982906,
				"y": -2.2289139201,
				"z": 1.5729528,
				"element": "H" 
			},
			{
				"x": 3.2126941247,
				"y": -1.3605895784,
				"z": 2.6515270795,
				"element": "H" 
			},
			{
				"x": 4.297267848,
				"y": -0.1708522911,
				"z": 0.0474236609,
				"element": "H" 
			},
			{
				"x": 3.0041810623,
				"y": 0.4829192958,
				"z": 1.0350981247,
				"element": "H" 
			},
			{
				"x": 3.0503674798,
				"y": -2.063437735,
				"z": -0.6335830648,
				"element": "H" 
			},
			{
				"x": 2.9525795276,
				"y": 0.0629473337,
				"z": -1.8860341064,
				"element": "H" 
			},
			{
				"x": 1.4389739866,
				"y": 0.4963817378,
				"z": -1.1014298495,
				"element": "H" 
			},
			{
				"x": 1.5112394837,
				"y": -0.9097743952,
				"z": -2.1726086824,
				"element": "H" 
			},
			{
				"x": 1.7732120731,
				"y": -2.524066477,
				"z": 1.3262788597,
				"element": "H" 
			},
			{
				"x": 0.3013738524,
				"y": -3.8886143317,
				"z": 0.155311032,
				"element": "H" 
			},
			{
				"x": 1.2792685178,
				"y": -3.3740557923,
				"z": -1.2069604848,
				"element": "H" 
			},
			{
				"x": -0.393709658,
				"y": -1.7778747937,
				"z": -1.9206959429,
				"element": "H" 
			},
			{
				"x": -1.4336403678,
				"y": -3.0253389679,
				"z": -1.2702416666,
				"element": "H" 
			},
			{
				"x": -1.9784958701,
				"y": -1.7820506431,
				"z": 0.6000535247,
				"element": "H" 
			},
			{
				"x": -1.0115650561,
				"y": 0.3362809534,
				"z": -1.3107560468,
				"element": "H" 
			},
			{
				"x": -2.3599757013,
				"y": 0.6993090587,
				"z": 1.3774383496,
				"element": "H" 
			},
			{
				"x": 0.2741508597,
				"y": 1.8349117763,
				"z": 0.3558665578,
				"element": "H" 
			},
			{
				"x": -0.4047290878,
				"y": 2.1230546132,
				"z": 1.9430943676,
				"element": "H" 
			},
			{
				"x": -0.5781666601,
				"y": -3.0729097818,
				"z": 2.1420643965,
				"element": "H" 
			},
			{
				"x": 0.407637843,
				"y": -1.9904525384,
				"z": 3.1574652906,
				"element": "H" 
			},
			{
				"x": -1.2947753757,
				"y": -1.6184445468,
				"z": 2.8412186087,
				"element": "H" 
			},
			{
				"x": -4.4196949273,
				"y": 1.5955946686,
				"z": 1.0090395142,
				"element": "H" 
			},
			{
				"x": -4.4813830571,
				"y": 3.3406390511,
				"z": 0.7180438107,
				"element": "H" 
			},
			{
				"x": -3.506423288,
				"y": 2.6920595482,
				"z": 2.0437976385,
				"element": "H" 
			},
			{
				"x": -2.6280805666,
				"y": 4.542723243,
				"z": 0.1592670011,
				"element": "H" 
			},
			{
				"x": -1.4289249018,
				"y": 3.8693962293,
				"z": 1.2209091453,
				"element": "H" 
			},
			{
				"x": -1.0069911485,
				"y": 5.0876393558,
				"z": -1.2984783566,
				"element": "H" 
			},
			{
				"x": 0.2128292058,
				"y": 4.2386149834,
				"z": -0.3795152902,
				"element": "H" 
			},
			{
				"x": -0.0971461816,
				"y": 2.2044471779,
				"z": -1.610983339,
				"element": "H" 
			},
			{
				"x": -0.0621309069,
				"y": 3.4771913571,
				"z": -2.8006393781,
				"element": "H" 
			},
			{
				"x": -1.8754010528,
				"y": 1.7306752751,
				"z": -3.134624842,
				"element": "H" 
			},
			{
				"x": -2.4263921737,
				"y": 3.3861827536,
				"z": -3.1618372006,
				"element": "H" 
			},
			{
				"x": -3.8581771251,
				"y": 3.0898013397,
				"z": -1.4918629061,
				"element": "H" 
			},
			{
				"x": -4.0096441795,
				"y": 0.8276278481,
				"z": -2.7215368225,
				"element": "H" 
			},
			{
				"x": -4.7801825016,
				"y": 0.9283228996,
				"z": -1.1624801896,
				"element": "H" 
			}
		],
		 "valence_orbital": [ 
			{
				"type": "occ",
				"energy": -0.29276,
				"method": "rhf"
			},
			{
				"type": "occ",
				"energy": -0.29026,
				"method": "rhf"
			},
			{
				"type": "occ",
				"energy": -0.25516,
				"method": "rhf"
			},
			{
				"type": "occ",
				"energy": -0.24415,
				"method": "rhf"
			},
			{
				"type": "occ",
				"energy": -0.23626,
				"method": "rhf"
			},
			{
				"type": "unocc",
				"energy": -0.02341,
				"method": "rhf"
			},
			{
				"type": "unocc",
				"energy": -0.02027,
				"method": "rhf"
			},
			{
				"type": "unocc",
				"energy": 0.02299,
				"method": "rhf"
			},
			{
				"type": "unocc",
				"energy": 0.05475,
				"method": "rhf"
			},
			{
				"type": "unocc",
				"energy": 0.06311,
				"method": "rhf"
			}
		],
		"cosmo_sigma_profile": { 
			"-0.025": 0.0,
			"-0.024": 0.0,
			"-0.023": 0.0,
			"-0.022": 0.0185692170469,
			"-0.021": 0.0806411573119,
			"-0.02": 0.00913239264123,
			"-0.019": 0.0301474381343,
			"-0.018": 0.0133010198657,
			"-0.017": 1.78753768065e-05,
			"-0.016": 0.0219055166232,
			"-0.015": 0.0827499141334,
			"-0.014": 0.177944956948,
			"-0.013": 0.161289882264,
			"-0.012": 0.147807011983,
			"-0.011": 0.123775645472,
			"-0.01": 0.0907402142,
			"-0.009": 0.00310104631385,
			"-0.008": 0.0316101555032,
			"-0.007": 0.488806442489,
			"-0.006": 6.88517142468,
			"-0.005": 21.2278381983,
			"-0.004": 34.6705855889,
			"-0.003": 55.8051267278,
			"-0.002": 73.4606451385,
			"-0.001": 61.6070828603,
			"0.0": 46.5739243041,
			"0.001": 44.5978942963,
			"0.002": 16.6623361176,
			"0.003": 8.34107776486,
			"0.004": 6.89759619953,
			"0.005": 8.31051310886,
			"0.006": 7.32535951579,
			"0.007": 5.45638924804,
			"0.008": 5.32209590566,
			"0.009": 5.75463636348,
			"0.01": 4.72912791664,
			"0.011": 6.76345226153,
			"0.012": 10.1337279298,
			"0.013": 5.95487243781,
			"0.014": 1.04017678716,
			"0.015": 0.0,
			"0.016": 0.0,
			"0.017": 0.0,
			"0.018": 0.0,
			"0.019": 0.0,
			"0.02": 0.0,
			"0.021": 0.0,
			"0.022": 0.0,
			"0.023": 0.0,
			"0.024": 0.0,
			"0.025": 0.0
		}
	}
}
