{
	 "smiles": "C[C@@]12CCCC1C1CC[C@H]3C[C@H](CC[C@]3(C)C1CC2)OCC1=CC=CC=C1", 
	 "Tm": 421.15, 
	 "num_atms": 65, 
	 "gaussian": { 
		 "optdone": 1, 
		 "sigma_profile": "yes", 
		 "theory": "DFT", 
		 "functional": "B3LYP", 
		 "basiset": "6-31G**", 
		 "properties": { 
			 "R2extent": 12280.8056, 
			 "electric_dipole_moment_norm": 1.08112394294, 
			 "electric_quadrupole_moment_norm": 9.12993365474, 
			 "total_energy": -1088.89496472, 
			 "HOMO_LUMO_gap": 0.23606, 
			 "cosmo_polarized_energy": -5.45, 
			 "cosmo_cavitation_energy": 54.78, 
			 "cosmo_dispersion_energy": -37.57, 
			 "cosmo_repulsion_energy": 2.78, 
			 "cosmo_total_nonelectrostatic_energy": 19.99, 
			 "SMD_solvation_energy": 7.21 
		},
		"coords": [
			{
				"x": -2.2446710571,
				"y": -1.3174376501,
				"z": 3.9906379438,
				"element": "C" 
			},
			{
				"x": -2.1893298085,
				"y": -0.8758096294,
				"z": 2.5095621114,
				"element": "C" 
			},
			{
				"x": -3.6197316202,
				"y": -0.9310693739,
				"z": 1.927203989,
				"element": "C" 
			},
			{
				"x": -4.3023689095,
				"y": 0.3762072462,
				"z": 2.4257368989,
				"element": "C" 
			},
			{
				"x": -3.1443347284,
				"y": 1.3419863984,
				"z": 2.826949079,
				"element": "C" 
			},
			{
				"x": -1.8688000915,
				"y": 0.6367490622,
				"z": 2.324434824,
				"element": "C" 
			},
			{
				"x": -0.4984482876,
				"y": 1.0227650855,
				"z": 2.9032664033,
				"element": "C" 
			},
			{
				"x": -0.2186372,
				"y": 2.5582260164,
				"z": 2.9794625177,
				"element": "C" 
			},
			{
				"x": 0.9341390385,
				"y": 3.0357582964,
				"z": 2.0805674866,
				"element": "C" 
			},
			{
				"x": 0.8326316735,
				"y": 2.3390070578,
				"z": 0.7228268318,
				"element": "C" 
			},
			{
				"x": 1.6021252296,
				"y": 3.0428486022,
				"z": -0.4086836307,
				"element": "C" 
			},
			{
				"x": 1.5459250877,
				"y": 2.2765832563,
				"z": -1.7565366755,
				"element": "C" 
			},
			{
				"x": 0.5292674067,
				"y": 1.1272617848,
				"z": -1.6915340923,
				"element": "C" 
			},
			{
				"x": 0.6867212373,
				"y": 0.1557214727,
				"z": -0.4946820379,
				"element": "C" 
			},
			{
				"x": 1.197045261,
				"y": 0.8291833253,
				"z": 0.8238481738,
				"element": "C" 
			},
			{
				"x": 2.7335768742,
				"y": 0.6274727851,
				"z": 0.886730219,
				"element": "C" 
			},
			{
				"x": 0.6378158925,
				"y": 0.224589535,
				"z": 2.1826639549,
				"element": "C" 
			},
			{
				"x": 0.3102405872,
				"y": -1.2978854964,
				"z": 2.1458514416,
				"element": "C" 
			},
			{
				"x": -1.1333858317,
				"y": -1.698860293,
				"z": 1.7550982248,
				"element": "C" 
			},
			{
				"x": 2.884314534,
				"y": 1.8554217423,
				"z": -2.0750443763,
				"element": "O" 
			},
			{
				"x": 3.1541291151,
				"y": 1.6012217716,
				"z": -3.4454622479,
				"element": "C" 
			},
			{
				"x": 2.8941783358,
				"y": 0.1767205651,
				"z": -3.9054124305,
				"element": "C" 
			},
			{
				"x": 2.2658102926,
				"y": -0.076847184,
				"z": -5.1295931819,
				"element": "C" 
			},
			{
				"x": 2.0764724773,
				"y": -1.3864661939,
				"z": -5.5781527353,
				"element": "C" 
			},
			{
				"x": 2.5109034277,
				"y": -2.4601858093,
				"z": -4.8007129956,
				"element": "C" 
			},
			{
				"x": 3.1379402211,
				"y": -2.2169939617,
				"z": -3.5753722024,
				"element": "C" 
			},
			{
				"x": 3.3310219407,
				"y": -0.9087352716,
				"z": -3.1331670842,
				"element": "C" 
			},
			{
				"x": -1.2769059674,
				"y": -1.2493831074,
				"z": 4.4942207092,
				"element": "H" 
			},
			{
				"x": -2.9582719395,
				"y": -0.7287076549,
				"z": 4.5747771282,
				"element": "H" 
			},
			{
				"x": -2.5651866714,
				"y": -2.3641500851,
				"z": 4.0442059308,
				"element": "H" 
			},
			{
				"x": -3.5662300658,
				"y": -0.9338109942,
				"z": 0.8312986752,
				"element": "H" 
			},
			{
				"x": -4.1678789368,
				"y": -1.8324743376,
				"z": 2.2229181914,
				"element": "H" 
			},
			{
				"x": -4.935291342,
				"y": 0.8102681013,
				"z": 1.6455287748,
				"element": "H" 
			},
			{
				"x": -4.9581292442,
				"y": 0.1787469549,
				"z": 3.2795959964,
				"element": "H" 
			},
			{
				"x": -3.1083623735,
				"y": 1.4806287037,
				"z": 3.9139827102,
				"element": "H" 
			},
			{
				"x": -3.2725444849,
				"y": 2.3369767893,
				"z": 2.3905352221,
				"element": "H" 
			},
			{
				"x": -1.832595803,
				"y": 0.8009001104,
				"z": 1.2353239465,
				"element": "H" 
			},
			{
				"x": -0.4923143901,
				"y": 0.6607525108,
				"z": 3.9391700504,
				"element": "H" 
			},
			{
				"x": -1.1232125146,
				"y": 3.1030464876,
				"z": 2.6860714273,
				"element": "H" 
			},
			{
				"x": -0.0216692112,
				"y": 2.8473687854,
				"z": 4.0182134434,
				"element": "H" 
			},
			{
				"x": 1.9075722294,
				"y": 2.8298525087,
				"z": 2.5436369333,
				"element": "H" 
			},
			{
				"x": 0.8798519874,
				"y": 4.1254767828,
				"z": 1.9616478154,
				"element": "H" 
			},
			{
				"x": -0.2325886729,
				"y": 2.3863859172,
				"z": 0.4494118905,
				"element": "H" 
			},
			{
				"x": 1.1854288712,
				"y": 4.0486147854,
				"z": -0.5412288336,
				"element": "H" 
			},
			{
				"x": 2.6551545619,
				"y": 3.1795096793,
				"z": -0.1433268425,
				"element": "H" 
			},
			{
				"x": 1.2282675489,
				"y": 2.9651867597,
				"z": -2.5554516791,
				"element": "H" 
			},
			{
				"x": -0.4600549375,
				"y": 1.6012497998,
				"z": -1.6425428529,
				"element": "H" 
			},
			{
				"x": 0.5411923439,
				"y": 0.5626486791,
				"z": -2.6285120989,
				"element": "H" 
			},
			{
				"x": -0.2884017802,
				"y": -0.3080871418,
				"z": -0.3420134715,
				"element": "H" 
			},
			{
				"x": 1.3670185869,
				"y": -0.6551316928,
				"z": -0.776141604,
				"element": "H" 
			},
			{
				"x": 3.2243763608,
				"y": 0.890940159,
				"z": -0.0509446756,
				"element": "H" 
			},
			{
				"x": 2.9547239758,
				"y": -0.4263453539,
				"z": 1.0941457098,
				"element": "H" 
			},
			{
				"x": 3.1892378982,
				"y": 1.216446514,
				"z": 1.6909234442,
				"element": "H" 
			},
			{
				"x": 1.4924163113,
				"y": 0.3074158656,
				"z": 2.865736026,
				"element": "H" 
			},
			{
				"x": 1.0180004325,
				"y": -1.8113290379,
				"z": 1.4842757962,
				"element": "H" 
			},
			{
				"x": 0.5090440877,
				"y": -1.69937863,
				"z": 3.147318895,
				"element": "H" 
			},
			{
				"x": -1.2924477014,
				"y": -1.5694035851,
				"z": 0.679127782,
				"element": "H" 
			},
			{
				"x": -1.2658572695,
				"y": -2.7716933076,
				"z": 1.9507412256,
				"element": "H" 
			},
			{
				"x": 4.2208690643,
				"y": 1.827376071,
				"z": -3.5734040552,
				"element": "H" 
			},
			{
				"x": 2.5966393964,
				"y": 2.3041934731,
				"z": -4.0837213413,
				"element": "H" 
			},
			{
				"x": 1.9195554764,
				"y": 0.7565436769,
				"z": -5.7370427056,
				"element": "H" 
			},
			{
				"x": 1.5847524223,
				"y": -1.5659363159,
				"z": -6.5302548636,
				"element": "H" 
			},
			{
				"x": 2.3617991345,
				"y": -3.4796312285,
				"z": -5.1449522896,
				"element": "H" 
			},
			{
				"x": 3.4797204302,
				"y": -3.0489740236,
				"z": -2.9657225435,
				"element": "H" 
			},
			{
				"x": 3.8184710879,
				"y": -0.7197257586,
				"z": -2.1813342758,
				"element": "H" 
			}
		],
		 "valence_orbital": [ 
			{
				"type": "occ",
				"energy": -0.26376,
				"method": "rhf"
			},
			{
				"type": "occ",
				"energy": -0.26235,
				"method": "rhf"
			},
			{
				"type": "occ",
				"energy": -0.24888,
				"method": "rhf"
			},
			{
				"type": "occ",
				"energy": -0.24685,
				"method": "rhf"
			},
			{
				"type": "occ",
				"energy": -0.23965,
				"method": "rhf"
			},
			{
				"type": "unocc",
				"energy": -0.00359,
				"method": "rhf"
			},
			{
				"type": "unocc",
				"energy": 0.00046,
				"method": "rhf"
			},
			{
				"type": "unocc",
				"energy": 0.06617,
				"method": "rhf"
			},
			{
				"type": "unocc",
				"energy": 0.08326,
				"method": "rhf"
			},
			{
				"type": "unocc",
				"energy": 0.09074,
				"method": "rhf"
			}
		],
		"cosmo_sigma_profile": { 
			"-0.025": 0.0,
			"-0.024": 0.0,
			"-0.023": 0.0,
			"-0.022": 0.0,
			"-0.021": 0.0,
			"-0.02": 0.0,
			"-0.019": 0.0,
			"-0.018": 0.0,
			"-0.017": 0.0,
			"-0.016": 0.0,
			"-0.015": 0.0,
			"-0.014": 0.0,
			"-0.013": 0.0,
			"-0.012": 0.0,
			"-0.011": 0.0,
			"-0.01": 0.0,
			"-0.009": 0.0,
			"-0.008": 0.0,
			"-0.007": 0.0,
			"-0.006": 2.16533776828,
			"-0.005": 12.4270116575,
			"-0.004": 15.1619639858,
			"-0.003": 25.1508869424,
			"-0.002": 58.6979849149,
			"-0.001": 73.7116478801,
			"0.0": 73.8841612514,
			"0.001": 63.1749938144,
			"0.002": 45.8146507982,
			"0.003": 17.2218335403,
			"0.004": 10.0274079129,
			"0.005": 10.1180454761,
			"0.006": 8.43636029976,
			"0.007": 1.79228509718,
			"0.008": 1.13158017342,
			"0.009": 0.930152812312,
			"0.01": 0.739057246904,
			"0.011": 0.857035296422,
			"0.012": 0.424382303995,
			"0.013": 0.0185676637896,
			"0.014": 0.0,
			"0.015": 0.0,
			"0.016": 0.0,
			"0.017": 0.0,
			"0.018": 0.0,
			"0.019": 0.0,
			"0.02": 0.0,
			"0.021": 0.0,
			"0.022": 0.0,
			"0.023": 0.0,
			"0.024": 0.0,
			"0.025": 0.0
		}
	}
}
