{
	 "smiles": "NC1=CC=CC=C1N", 
	 "Tm": 375.15, 
	 "num_atms": 16, 
	 "gaussian": { 
		 "optdone": 1, 
		 "sigma_profile": "yes", 
		 "theory": "DFT", 
		 "functional": "B3LYP", 
		 "basiset": "6-31G**", 
		 "properties": { 
			 "R2extent": 1125.6034, 
			 "electric_dipole_moment_norm": 1.32072147329, 
			 "electric_quadrupole_moment_norm": 7.91000078066, 
			 "total_energy": -342.967759145, 
			 "HOMO_LUMO_gap": 0.20459, 
			 "cosmo_polarized_energy": -9.79, 
			 "cosmo_cavitation_energy": 19.08, 
			 "cosmo_dispersion_energy": -14.62, 
			 "cosmo_repulsion_energy": 1.22, 
			 "cosmo_total_nonelectrostatic_energy": 5.68, 
			 "SMD_solvation_energy": 3.27 
		},
		"coords": [
			{
				"x": 0.1326278772,
				"y": -0.0943138733,
				"z": 1.1820771536,
				"element": "N" 
			},
			{
				"x": -0.1671777734,
				"y": 0.0136403394,
				"z": -0.1916974782,
				"element": "C" 
			},
			{
				"x": -0.6456540346,
				"y": 1.1885679634,
				"z": -0.7755895766,
				"element": "C" 
			},
			{
				"x": -0.8960718128,
				"y": 1.256878083,
				"z": -2.1488944171,
				"element": "C" 
			},
			{
				"x": -0.6799826644,
				"y": 0.1363876974,
				"z": -2.948593065,
				"element": "C" 
			},
			{
				"x": -0.1863122446,
				"y": -1.0397073215,
				"z": -2.3772504125,
				"element": "C" 
			},
			{
				"x": 0.082228142,
				"y": -1.1141156822,
				"z": -1.0087925833,
				"element": "C" 
			},
			{
				"x": 0.5484580743,
				"y": -2.2873727982,
				"z": -0.3803965351,
				"element": "N" 
			},
			{
				"x": -0.2032687011,
				"y": -0.9689289601,
				"z": 1.5758238577,
				"element": "H" 
			},
			{
				"x": -0.215610137,
				"y": 0.6869431962,
				"z": 1.7246121623,
				"element": "H" 
			},
			{
				"x": -0.8308310344,
				"y": 2.0543963935,
				"z": -0.1432582752,
				"element": "H" 
			},
			{
				"x": -1.2708889967,
				"y": 2.1790980732,
				"z": -2.5826320187,
				"element": "H" 
			},
			{
				"x": -0.8792937596,
				"y": 0.1743480536,
				"z": -4.0153353809,
				"element": "H" 
			},
			{
				"x": 0.0025214676,
				"y": -1.9116384179,
				"z": -3.0000436947,
				"element": "H" 
			},
			{
				"x": 1.2900060491,
				"y": -2.0913083538,
				"z": 0.2862962211,
				"element": "H" 
			},
			{
				"x": 0.8521495484,
				"y": -2.9940743926,
				"z": -1.0394259573,
				"element": "H" 
			}
		],
		 "valence_orbital": [ 
			{
				"type": "occ",
				"energy": -0.33613,
				"method": "rhf"
			},
			{
				"type": "occ",
				"energy": -0.30454,
				"method": "rhf"
			},
			{
				"type": "occ",
				"energy": -0.29374,
				"method": "rhf"
			},
			{
				"type": "occ",
				"energy": -0.21761,
				"method": "rhf"
			},
			{
				"type": "occ",
				"energy": -0.18502,
				"method": "rhf"
			},
			{
				"type": "unocc",
				"energy": 0.01957,
				"method": "rhf"
			},
			{
				"type": "unocc",
				"energy": 0.02976,
				"method": "rhf"
			},
			{
				"type": "unocc",
				"energy": 0.079,
				"method": "rhf"
			},
			{
				"type": "unocc",
				"energy": 0.10652,
				"method": "rhf"
			},
			{
				"type": "unocc",
				"energy": 0.10794,
				"method": "rhf"
			}
		],
		"cosmo_sigma_profile": { 
			"-0.025": 0.0,
			"-0.024": 0.0,
			"-0.023": 0.0,
			"-0.022": 0.0,
			"-0.021": 0.0,
			"-0.02": 0.0,
			"-0.019": 0.0,
			"-0.018": 0.0,
			"-0.017": 0.0,
			"-0.016": 0.0,
			"-0.015": 0.0,
			"-0.014": 0.0,
			"-0.013": 0.0,
			"-0.012": 0.826627576659,
			"-0.011": 3.47785103655,
			"-0.01": 5.10162213937,
			"-0.009": 4.8724534565,
			"-0.008": 6.23377959775,
			"-0.007": 3.83977453557,
			"-0.006": 5.79492637679,
			"-0.005": 8.30661837164,
			"-0.004": 9.48005483778,
			"-0.003": 9.01462591131,
			"-0.002": 10.3098996851,
			"-0.001": 7.42288969665,
			"0.0": 7.10196836519,
			"0.001": 6.67640273257,
			"0.002": 5.69749291918,
			"0.003": 7.279004393,
			"0.004": 7.40609841093,
			"0.005": 7.0541116431,
			"0.006": 9.21503008276,
			"0.007": 9.17358761858,
			"0.008": 7.54059399588,
			"0.009": 1.83440735925,
			"0.01": 1.33547341926,
			"0.011": 1.02455516497,
			"0.012": 1.38610231553,
			"0.013": 1.33796435894,
			"0.014": 0.777181750321,
			"0.015": 0.925140966853,
			"0.016": 0.0910719180549,
			"0.017": 0.0,
			"0.018": 0.0,
			"0.019": 0.0,
			"0.02": 0.0,
			"0.021": 0.0,
			"0.022": 0.0,
			"0.023": 0.0,
			"0.024": 0.0,
			"0.025": 0.0
		}
	}
}
