{
	 "smiles": "CC1=CC2=C(NC(=C2)C(O)=O)C=C1", 
	 "Tm": 492.15, 
	 "num_atms": 22, 
	 "gaussian": { 
		 "optdone": 1, 
		 "sigma_profile": "yes", 
		 "theory": "DFT", 
		 "functional": "B3LYP", 
		 "basiset": "6-31G**", 
		 "properties": { 
			 "R2extent": 4373.4103, 
			 "electric_dipole_moment_norm": 3.73748719463, 
			 "electric_quadrupole_moment_norm": 22.0130681935, 
			 "total_energy": -591.712245463, 
			 "HOMO_LUMO_gap": 0.1681, 
			 "cosmo_polarized_energy": -14.65, 
			 "cosmo_cavitation_energy": 26.41, 
			 "cosmo_dispersion_energy": -19.7, 
			 "cosmo_repulsion_energy": 1.55, 
			 "cosmo_total_nonelectrostatic_energy": 8.26, 
			 "SMD_solvation_energy": 5.36 
		},
		"coords": [
			{
				"x": 2.0429740125,
				"y": -0.1178811783,
				"z": 1.332137523,
				"element": "C" 
			},
			{
				"x": 0.7819296633,
				"y": 0.0273055595,
				"z": 0.5116732121,
				"element": "C" 
			},
			{
				"x": 0.8334292194,
				"y": 0.3751301626,
				"z": -0.8307029528,
				"element": "C" 
			},
			{
				"x": -0.3609235885,
				"y": 0.5027830734,
				"z": -1.5695105569,
				"element": "C" 
			},
			{
				"x": -1.6079466177,
				"y": 0.2708047939,
				"z": -0.9202258729,
				"element": "C" 
			},
			{
				"x": -2.5984326201,
				"y": 0.4583116412,
				"z": -1.8497621608,
				"element": "N" 
			},
			{
				"x": -2.0340854909,
				"y": 0.7995656204,
				"z": -3.0623915584,
				"element": "C" 
			},
			{
				"x": -0.6581098255,
				"y": 0.8363167701,
				"z": -2.9266404629,
				"element": "C" 
			},
			{
				"x": -2.9508484868,
				"y": 1.0414853331,
				"z": -4.187985843,
				"element": "C" 
			},
			{
				"x": -2.3945348926,
				"y": 1.376122547,
				"z": -5.3778544924,
				"element": "O" 
			},
			{
				"x": -4.1555238145,
				"y": 0.9494940816,
				"z": -4.0721490232,
				"element": "O" 
			},
			{
				"x": -1.6757147482,
				"y": -0.0813893351,
				"z": 0.4357153339,
				"element": "C" 
			},
			{
				"x": -0.4807611158,
				"y": -0.1964487737,
				"z": 1.1257441517,
				"element": "C" 
			},
			{
				"x": 2.0501211967,
				"y": 0.5747804363,
				"z": 2.1820693665,
				"element": "H" 
			},
			{
				"x": 2.1393909501,
				"y": -1.1297821782,
				"z": 1.743210593,
				"element": "H" 
			},
			{
				"x": 2.93440587,
				"y": 0.0833752126,
				"z": 0.7317455166,
				"element": "H" 
			},
			{
				"x": 1.7923493726,
				"y": 0.5490059065,
				"z": -1.3123258137,
				"element": "H" 
			},
			{
				"x": -3.5974416896,
				"y": 0.3756640199,
				"z": -1.7312445354,
				"element": "H" 
			},
			{
				"x": 0.0666529751,
				"y": 1.0720457464,
				"z": -3.6954624599,
				"element": "H" 
			},
			{
				"x": -1.4304256659,
				"y": 1.4059450669,
				"z": -5.3024451506,
				"element": "H" 
			},
			{
				"x": -2.6278296557,
				"y": -0.2574352786,
				"z": 0.9272452008,
				"element": "H" 
			},
			{
				"x": -0.5052750481,
				"y": -0.4682992276,
				"z": 2.1780599853,
				"element": "H" 
			}
		],
		 "valence_orbital": [ 
			{
				"type": "occ",
				"energy": -0.31549,
				"method": "rhf"
			},
			{
				"type": "occ",
				"energy": -0.29183,
				"method": "rhf"
			},
			{
				"type": "occ",
				"energy": -0.28021,
				"method": "rhf"
			},
			{
				"type": "occ",
				"energy": -0.22819,
				"method": "rhf"
			},
			{
				"type": "occ",
				"energy": -0.22011,
				"method": "rhf"
			},
			{
				"type": "unocc",
				"energy": -0.05201,
				"method": "rhf"
			},
			{
				"type": "unocc",
				"energy": 0.01319,
				"method": "rhf"
			},
			{
				"type": "unocc",
				"energy": 0.01987,
				"method": "rhf"
			},
			{
				"type": "unocc",
				"energy": 0.05295,
				"method": "rhf"
			},
			{
				"type": "unocc",
				"energy": 0.09597,
				"method": "rhf"
			}
		],
		"cosmo_sigma_profile": { 
			"-0.025": 0.0,
			"-0.024": 0.0,
			"-0.023": 0.0,
			"-0.022": 0.0,
			"-0.021": 0.0,
			"-0.02": 0.0,
			"-0.019": 0.247102010028,
			"-0.018": 0.935203394218,
			"-0.017": 0.982345434997,
			"-0.016": 1.5164559846,
			"-0.015": 1.32684433405,
			"-0.014": 2.07844642006,
			"-0.013": 1.43767081367,
			"-0.012": 1.96412149177,
			"-0.011": 2.32607023434,
			"-0.01": 1.72041694225,
			"-0.009": 2.32413687331,
			"-0.008": 3.06570694952,
			"-0.007": 3.14099928615,
			"-0.006": 5.23878317336,
			"-0.005": 9.00553175442,
			"-0.004": 13.8697412252,
			"-0.003": 15.7699188084,
			"-0.002": 15.6119233545,
			"-0.001": 15.7590211161,
			"0.0": 16.0927319506,
			"0.001": 12.0986031003,
			"0.002": 11.9738463292,
			"0.003": 13.6406254123,
			"0.004": 13.8097876367,
			"0.005": 13.4765595172,
			"0.006": 7.78136907484,
			"0.007": 2.3731182776,
			"0.008": 2.12777389309,
			"0.009": 3.78537030918,
			"0.01": 4.38807288685,
			"0.011": 5.0348420236,
			"0.012": 3.78407413211,
			"0.013": 1.8898548753,
			"0.014": 0.179233713187,
			"0.015": 0.0,
			"0.016": 0.0,
			"0.017": 0.0,
			"0.018": 0.0,
			"0.019": 0.0,
			"0.02": 0.0,
			"0.021": 0.0,
			"0.022": 0.0,
			"0.023": 0.0,
			"0.024": 0.0,
			"0.025": 0.0
		}
	}
}
