{
	 "smiles": "OC(=O)C1=CSC(=N1)C1=CC(Cl)=C(Cl)C=C1", 
	 "Tm": 486.15, 
	 "num_atms": 21, 
	 "gaussian": { 
		 "optdone": 1, 
		 "sigma_profile": "yes", 
		 "theory": "DFT", 
		 "functional": "B3LYP", 
		 "basiset": "6-31G**", 
		 "properties": { 
			 "R2extent": 6750.7512, 
			 "electric_dipole_moment_norm": 6.39012533836, 
			 "electric_quadrupole_moment_norm": 20.6861358958, 
			 "total_energy": -1907.84221898, 
			 "HOMO_LUMO_gap": 0.16351, 
			 "cosmo_polarized_energy": -19.87, 
			 "cosmo_cavitation_energy": 32.21, 
			 "cosmo_dispersion_energy": -24.33, 
			 "cosmo_repulsion_energy": 1.84, 
			 "cosmo_total_nonelectrostatic_energy": 9.73, 
			 "SMD_solvation_energy": 4.82 
		},
		"coords": [
			{
				"x": 3.16678479,
				"y": 2.2972471939,
				"z": 4.0288084341,
				"element": "O" 
			},
			{
				"x": 2.9801330913,
				"y": 1.3959816126,
				"z": 3.0248898607,
				"element": "C" 
			},
			{
				"x": 3.8909374699,
				"y": 0.7249939427,
				"z": 2.6164339721,
				"element": "O" 
			},
			{
				"x": 1.5741768216,
				"y": 1.2876625922,
				"z": 2.5163271654,
				"element": "C" 
			},
			{
				"x": 0.4399505485,
				"y": 1.5477796901,
				"z": 3.2475205193,
				"element": "C" 
			},
			{
				"x": -0.9667203784,
				"y": 1.2120609856,
				"z": 2.3065717822,
				"element": "S" 
			},
			{
				"x": 0.0906635324,
				"y": 0.7437744631,
				"z": 0.9609463466,
				"element": "C" 
			},
			{
				"x": 1.360707378,
				"y": 0.8329071073,
				"z": 1.2406080751,
				"element": "N" 
			},
			{
				"x": -0.4328940146,
				"y": 0.2980634308,
				"z": -0.336540123,
				"element": "C" 
			},
			{
				"x": 0.4816314455,
				"y": -0.0972285224,
				"z": -1.3245302162,
				"element": "C" 
			},
			{
				"x": 0.0349461214,
				"y": -0.5289871943,
				"z": -2.5700735353,
				"element": "C" 
			},
			{
				"x": 1.2141685693,
				"y": -1.0091302943,
				"z": -3.762144745,
				"element": "Cl" 
			},
			{
				"x": -1.3411168041,
				"y": -0.5720175527,
				"z": -2.8461918542,
				"element": "C" 
			},
			{
				"x": -1.9467930624,
				"y": -1.1049184205,
				"z": -4.3901991849,
				"element": "Cl" 
			},
			{
				"x": -2.2529569478,
				"y": -0.1786453718,
				"z": -1.8632496554,
				"element": "C" 
			},
			{
				"x": -1.8057327095,
				"y": 0.2529163442,
				"z": -0.6205774251,
				"element": "C" 
			},
			{
				"x": 2.4002349609,
				"y": 2.8840465807,
				"z": 4.0946610358,
				"element": "H" 
			},
			{
				"x": 0.3531856794,
				"y": 1.8579670367,
				"z": 4.2798761638,
				"element": "H" 
			},
			{
				"x": 1.5428712287,
				"y": -0.0650262928,
				"z": -1.1088584823,
				"element": "H" 
			},
			{
				"x": -3.3134714652,
				"y": -0.213992115,
				"z": -2.0850441348,
				"element": "H" 
			},
			{
				"x": -2.5365062548,
				"y": 0.5557447838,
				"z": 0.1232660009,
				"element": "H" 
			}
		],
		 "valence_orbital": [ 
			{
				"type": "occ",
				"energy": -0.30113,
				"method": "rhf"
			},
			{
				"type": "occ",
				"energy": -0.29655,
				"method": "rhf"
			},
			{
				"type": "occ",
				"energy": -0.28022,
				"method": "rhf"
			},
			{
				"type": "occ",
				"energy": -0.27164,
				"method": "rhf"
			},
			{
				"type": "occ",
				"energy": -0.248,
				"method": "rhf"
			},
			{
				"type": "unocc",
				"energy": -0.08449,
				"method": "rhf"
			},
			{
				"type": "unocc",
				"energy": -0.04787,
				"method": "rhf"
			},
			{
				"type": "unocc",
				"energy": -0.03537,
				"method": "rhf"
			},
			{
				"type": "unocc",
				"energy": -0.01155,
				"method": "rhf"
			},
			{
				"type": "unocc",
				"energy": -0.00544,
				"method": "rhf"
			}
		],
		"cosmo_sigma_profile": { 
			"-0.025": 0.0,
			"-0.024": 0.0,
			"-0.023": 0.0,
			"-0.022": 0.0,
			"-0.021": 0.0,
			"-0.02": 0.0,
			"-0.019": 0.629681223782,
			"-0.018": 0.883404107083,
			"-0.017": 1.13774945599,
			"-0.016": 1.34109654867,
			"-0.015": 1.35518383182,
			"-0.014": 0.984746515311,
			"-0.013": 1.47131122665,
			"-0.012": 2.00906591192,
			"-0.011": 2.43940202807,
			"-0.01": 2.33747000737,
			"-0.009": 3.11803409744,
			"-0.008": 6.66375571512,
			"-0.007": 7.16401009023,
			"-0.006": 7.10588472572,
			"-0.005": 6.95703851636,
			"-0.004": 9.82398276911,
			"-0.003": 13.3483119587,
			"-0.002": 18.9142348837,
			"-0.001": 25.9882818899,
			"0.0": 34.0713277696,
			"0.001": 27.7329124319,
			"0.002": 17.223413161,
			"0.003": 18.1776888197,
			"0.004": 15.5108719774,
			"0.005": 6.86509695439,
			"0.006": 2.44609385157,
			"0.007": 2.85897399165,
			"0.008": 4.29217937731,
			"0.009": 4.21689048319,
			"0.01": 6.10719490206,
			"0.011": 6.53539886722,
			"0.012": 4.84390450104,
			"0.013": 1.98859684081,
			"0.014": 0.523838383297,
			"0.015": 0.0,
			"0.016": 0.0,
			"0.017": 0.0,
			"0.018": 0.0,
			"0.019": 0.0,
			"0.02": 0.0,
			"0.021": 0.0,
			"0.022": 0.0,
			"0.023": 0.0,
			"0.024": 0.0,
			"0.025": 0.0
		}
	}
}
