{
	 "smiles": "COC(=O)C1=C(Cl)C(N)=CC(Br)=C1", 
	 "Tm": 347.15, 
	 "num_atms": 20, 
	 "gaussian": { 
		 "optdone": 1, 
		 "sigma_profile": "yes", 
		 "theory": "DFT", 
		 "functional": "B3LYP", 
		 "basiset": "6-31G**", 
		 "properties": { 
			 "R2extent": 5124.0819, 
			 "electric_dipole_moment_norm": 1.93190186345, 
			 "electric_quadrupole_moment_norm": 21.8208442231, 
			 "total_energy": -3545.87127883, 
			 "HOMO_LUMO_gap": 0.16749, 
			 "cosmo_polarized_energy": -12.0, 
			 "cosmo_cavitation_energy": 28.58, 
			 "cosmo_dispersion_energy": -21.66, 
			 "cosmo_repulsion_energy": 1.73, 
			 "cosmo_total_nonelectrostatic_energy": 8.65, 
			 "SMD_solvation_energy": 4.98 
		},
		"coords": [
			{
				"x": -0.357870355,
				"y": -0.4331561876,
				"z": 4.094722498,
				"element": "C" 
			},
			{
				"x": -0.6391241563,
				"y": -0.1844435111,
				"z": 2.7082810363,
				"element": "O" 
			},
			{
				"x": 0.1423114306,
				"y": 0.7568223013,
				"z": 2.1264831846,
				"element": "C" 
			},
			{
				"x": 1.0319810447,
				"y": 1.3293165534,
				"z": 2.7166234978,
				"element": "O" 
			},
			{
				"x": -0.2654204861,
				"y": 0.9909636931,
				"z": 0.7015010455,
				"element": "C" 
			},
			{
				"x": 0.6023223996,
				"y": 1.5558751762,
				"z": -0.2478548669,
				"element": "C" 
			},
			{
				"x": 2.274561986,
				"y": 1.9389441123,
				"z": 0.1205424014,
				"element": "Cl" 
			},
			{
				"x": 0.1720689377,
				"y": 1.8029519013,
				"z": -1.5726859879,
				"element": "C" 
			},
			{
				"x": 1.0002123652,
				"y": 2.395539627,
				"z": -2.5044250571,
				"element": "N" 
			},
			{
				"x": -1.1509621121,
				"y": 1.4728554495,
				"z": -1.9163341331,
				"element": "C" 
			},
			{
				"x": -1.9978396343,
				"y": 0.9122079421,
				"z": -0.9720899808,
				"element": "C" 
			},
			{
				"x": -3.7869575848,
				"y": 0.4732349154,
				"z": -1.4781676303,
				"element": "Br" 
			},
			{
				"x": -1.5778962985,
				"y": 0.6617696682,
				"z": 0.3274003488,
				"element": "C" 
			},
			{
				"x": -1.0628783722,
				"y": -1.2052844011,
				"z": 4.4020057496,
				"element": "H" 
			},
			{
				"x": -0.4989253529,
				"y": 0.4751337625,
				"z": 4.6860916936,
				"element": "H" 
			},
			{
				"x": 0.671085905,
				"y": -0.778395766,
				"z": 4.2212944743,
				"element": "H" 
			},
			{
				"x": 1.9899459582,
				"y": 2.3696868289,
				"z": -2.3078592083,
				"element": "H" 
			},
			{
				"x": 0.7599255802,
				"y": 2.2536053052,
				"z": -3.4736516186,
				"element": "H" 
			},
			{
				"x": -1.5031438919,
				"y": 1.6632844274,
				"z": -2.9243597452,
				"element": "H" 
			},
			{
				"x": -2.2456973632,
				"y": 0.2226882018,
				"z": 1.0541822986,
				"element": "H" 
			}
		],
		 "valence_orbital": [ 
			{
				"type": "occ",
				"energy": -0.29825,
				"method": "rhf"
			},
			{
				"type": "occ",
				"energy": -0.29236,
				"method": "rhf"
			},
			{
				"type": "occ",
				"energy": -0.27166,
				"method": "rhf"
			},
			{
				"type": "occ",
				"energy": -0.25156,
				"method": "rhf"
			},
			{
				"type": "occ",
				"energy": -0.22138,
				"method": "rhf"
			},
			{
				"type": "unocc",
				"energy": -0.05389,
				"method": "rhf"
			},
			{
				"type": "unocc",
				"energy": -0.01059,
				"method": "rhf"
			},
			{
				"type": "unocc",
				"energy": 0.00028,
				"method": "rhf"
			},
			{
				"type": "unocc",
				"energy": 0.03034,
				"method": "rhf"
			},
			{
				"type": "unocc",
				"energy": 0.04508,
				"method": "rhf"
			}
		],
		"cosmo_sigma_profile": { 
			"-0.025": 0.0,
			"-0.024": 0.0,
			"-0.023": 0.0,
			"-0.022": 0.0,
			"-0.021": 0.0,
			"-0.02": 0.0,
			"-0.019": 0.0,
			"-0.018": 0.0,
			"-0.017": 0.0,
			"-0.016": 0.0,
			"-0.015": 0.0168275052684,
			"-0.014": 1.20484778904,
			"-0.013": 1.7594651101,
			"-0.012": 1.80350733041,
			"-0.011": 2.21699134147,
			"-0.01": 4.14085040098,
			"-0.009": 2.55148456089,
			"-0.008": 2.21413094263,
			"-0.007": 4.01379471614,
			"-0.006": 8.35227329861,
			"-0.005": 11.243203605,
			"-0.004": 14.804687031,
			"-0.003": 17.2955539986,
			"-0.002": 14.0300431102,
			"-0.001": 14.1154109054,
			"0.0": 16.285350852,
			"0.001": 25.0914788115,
			"0.002": 25.8002081538,
			"0.003": 16.5174762713,
			"0.004": 19.6278236966,
			"0.005": 7.57250912816,
			"0.006": 3.35036096032,
			"0.007": 3.79268052645,
			"0.008": 2.42166402449,
			"0.009": 2.57773226823,
			"0.01": 3.16170935208,
			"0.011": 4.64061934757,
			"0.012": 3.19624272711,
			"0.013": 0.106040103808,
			"0.014": 0.0,
			"0.015": 0.0,
			"0.016": 0.0,
			"0.017": 0.0,
			"0.018": 0.0,
			"0.019": 0.0,
			"0.02": 0.0,
			"0.021": 0.0,
			"0.022": 0.0,
			"0.023": 0.0,
			"0.024": 0.0,
			"0.025": 0.0
		}
	}
}
