{
	 "smiles": "CC1=CC=C(C=C1C)C(O)=O", 
	 "Tm": 439.15, 
	 "num_atms": 21, 
	 "gaussian": { 
		 "optdone": 1, 
		 "sigma_profile": "yes", 
		 "theory": "DFT", 
		 "functional": "B3LYP", 
		 "basiset": "6-31G**", 
		 "properties": { 
			 "R2extent": 2594.0874, 
			 "electric_dipole_moment_norm": 5.61160323348, 
			 "electric_quadrupole_moment_norm": 19.7312748843, 
			 "total_energy": -499.456199192, 
			 "HOMO_LUMO_gap": 0.20507, 
			 "cosmo_polarized_energy": -13.68, 
			 "cosmo_cavitation_energy": 24.62, 
			 "cosmo_dispersion_energy": -18.04, 
			 "cosmo_repulsion_energy": 1.44, 
			 "cosmo_total_nonelectrostatic_energy": 8.02, 
			 "SMD_solvation_energy": 5.44 
		},
		"coords": [
			{
				"x": -1.3240315701,
				"y": 0.3147830607,
				"z": 1.710834874,
				"element": "C" 
			},
			{
				"x": -0.466030026,
				"y": -0.3068128102,
				"z": 0.6365341778,
				"element": "C" 
			},
			{
				"x": 0.7597686039,
				"y": -0.8992696752,
				"z": 0.9672763937,
				"element": "C" 
			},
			{
				"x": 1.5708668499,
				"y": -1.4841051983,
				"z": 0.0004524475,
				"element": "C" 
			},
			{
				"x": 1.1737853402,
				"y": -1.4703538739,
				"z": -1.3401718959,
				"element": "C" 
			},
			{
				"x": -0.0576574781,
				"y": -0.8903031446,
				"z": -1.6761506803,
				"element": "C" 
			},
			{
				"x": -0.8862740376,
				"y": -0.3103956486,
				"z": -0.7119916321,
				"element": "C" 
			},
			{
				"x": -2.2114663951,
				"y": 0.2925405537,
				"z": -1.1123282494,
				"element": "C" 
			},
			{
				"x": 2.0788197929,
				"y": -2.1114223724,
				"z": -2.3464221351,
				"element": "C" 
			},
			{
				"x": 1.902927302,
				"y": -1.7492377869,
				"z": -3.6475920558,
				"element": "O" 
			},
			{
				"x": 2.9365995547,
				"y": -2.9126707028,
				"z": -2.0568612988,
				"element": "O" 
			},
			{
				"x": -1.5072678255,
				"y": 1.3783232895,
				"z": 1.5159040606,
				"element": "H" 
			},
			{
				"x": -0.8502335217,
				"y": 0.2310805294,
				"z": 2.691891955,
				"element": "H" 
			},
			{
				"x": -2.3071289702,
				"y": -0.1675936495,
				"z": 1.7707327304,
				"element": "H" 
			},
			{
				"x": 1.0794873027,
				"y": -0.9027062269,
				"z": 2.0060691568,
				"element": "H" 
			},
			{
				"x": 2.5137983915,
				"y": -1.9522865932,
				"z": 0.2609810978,
				"element": "H" 
			},
			{
				"x": -0.4161973831,
				"y": -0.9191147017,
				"z": -2.703635445,
				"element": "H" 
			},
			{
				"x": -2.3810071957,
				"y": 0.1983353669,
				"z": -2.1880966782,
				"element": "H" 
			},
			{
				"x": -3.0488804978,
				"y": -0.1950847904,
				"z": -0.5992569674,
				"element": "H" 
			},
			{
				"x": -2.2638438001,
				"y": 1.3579958824,
				"z": -0.8581438091,
				"element": "H" 
			},
			{
				"x": 1.3049655632,
				"y": -0.991101508,
				"z": -3.7010260464,
				"element": "H" 
			}
		],
		 "valence_orbital": [ 
			{
				"type": "occ",
				"energy": -0.34951,
				"method": "rhf"
			},
			{
				"type": "occ",
				"energy": -0.3101,
				"method": "rhf"
			},
			{
				"type": "occ",
				"energy": -0.26937,
				"method": "rhf"
			},
			{
				"type": "occ",
				"energy": -0.26252,
				"method": "rhf"
			},
			{
				"type": "occ",
				"energy": -0.24979,
				"method": "rhf"
			},
			{
				"type": "unocc",
				"energy": -0.04472,
				"method": "rhf"
			},
			{
				"type": "unocc",
				"energy": -0.01463,
				"method": "rhf"
			},
			{
				"type": "unocc",
				"energy": 0.0516,
				"method": "rhf"
			},
			{
				"type": "unocc",
				"energy": 0.06654,
				"method": "rhf"
			},
			{
				"type": "unocc",
				"energy": 0.08182,
				"method": "rhf"
			}
		],
		"cosmo_sigma_profile": { 
			"-0.025": 0.0,
			"-0.024": 0.0,
			"-0.023": 0.0,
			"-0.022": 0.0,
			"-0.021": 0.0,
			"-0.02": 0.0,
			"-0.019": 0.0374297629156,
			"-0.018": 0.772974186272,
			"-0.017": 1.05191146457,
			"-0.016": 0.656020781623,
			"-0.015": 0.558094063446,
			"-0.014": 0.500535166087,
			"-0.013": 1.35615211962,
			"-0.012": 1.4627548716,
			"-0.011": 1.28364005632,
			"-0.01": 0.810756688934,
			"-0.009": 1.04804651285,
			"-0.008": 1.22793132573,
			"-0.007": 2.0048728379,
			"-0.006": 4.76688293567,
			"-0.005": 11.8407470698,
			"-0.004": 19.4802774261,
			"-0.003": 14.5190904525,
			"-0.002": 17.7188897529,
			"-0.001": 19.3693372296,
			"0.0": 20.1443603432,
			"0.001": 10.8567368228,
			"0.002": 9.19988541576,
			"0.003": 10.3379399184,
			"0.004": 11.6268851353,
			"0.005": 3.78350379792,
			"0.006": 2.29103331856,
			"0.007": 3.15957310702,
			"0.008": 2.3705610804,
			"0.009": 2.90606335239,
			"0.01": 4.41926908616,
			"0.011": 5.13413140519,
			"0.012": 5.73333859731,
			"0.013": 2.32828869679,
			"0.014": 0.259292441554,
			"0.015": 0.0,
			"0.016": 0.0,
			"0.017": 0.0,
			"0.018": 0.0,
			"0.019": 0.0,
			"0.02": 0.0,
			"0.021": 0.0,
			"0.022": 0.0,
			"0.023": 0.0,
			"0.024": 0.0,
			"0.025": 0.0
		}
	}
}
