{
	 "smiles": "OC(=O)C(NC(=O)OCC1=CC=CC=C1)C1=CC=CC=C1", 
	 "Tm": 404.15, 
	 "num_atms": 36, 
	 "gaussian": { 
		 "optdone": 1, 
		 "sigma_profile": "yes", 
		 "theory": "DFT", 
		 "functional": "B3LYP", 
		 "basiset": "6-31G**", 
		 "properties": { 
			 "R2extent": 6742.5578, 
			 "electric_dipole_moment_norm": 3.52465485828, 
			 "electric_quadrupole_moment_norm": 15.3512929201, 
			 "total_energy": -974.417249384, 
			 "HOMO_LUMO_gap": 0.22991, 
			 "cosmo_polarized_energy": -19.68, 
			 "cosmo_cavitation_energy": 40.73, 
			 "cosmo_dispersion_energy": -26.86, 
			 "cosmo_repulsion_energy": 2.09, 
			 "cosmo_total_nonelectrostatic_energy": 15.96, 
			 "SMD_solvation_energy": 8.21 
		},
		"coords": [
			{
				"x": -0.9793313802,
				"y": -0.2453830774,
				"z": 3.9518107818,
				"element": "O" 
			},
			{
				"x": -0.7696875717,
				"y": 0.6060204022,
				"z": 2.9245341293,
				"element": "C" 
			},
			{
				"x": -1.5797154905,
				"y": 1.4344624076,
				"z": 2.5777490387,
				"element": "O" 
			},
			{
				"x": 0.6395089517,
				"y": 0.4254928584,
				"z": 2.3367773138,
				"element": "C" 
			},
			{
				"x": 0.9304119826,
				"y": 1.4135759612,
				"z": 1.3074872541,
				"element": "N" 
			},
			{
				"x": 0.2484774152,
				"y": 1.6092103132,
				"z": 0.1284731953,
				"element": "C" 
			},
			{
				"x": 0.3968827466,
				"y": 2.594023008,
				"z": -0.5700303056,
				"element": "O" 
			},
			{
				"x": -0.5597488593,
				"y": 0.5629063145,
				"z": -0.160000736,
				"element": "O" 
			},
			{
				"x": -1.3130019295,
				"y": 0.6664012613,
				"z": -1.3879308366,
				"element": "C" 
			},
			{
				"x": -2.6049300485,
				"y": -0.0970318398,
				"z": -1.2423035243,
				"element": "C" 
			},
			{
				"x": -3.4440140948,
				"y": 0.1216778972,
				"z": -0.1394830289,
				"element": "C" 
			},
			{
				"x": -4.6579812594,
				"y": -0.5565302483,
				"z": -0.0356748226,
				"element": "C" 
			},
			{
				"x": -5.0538538536,
				"y": -1.4532113981,
				"z": -1.0322975163,
				"element": "C" 
			},
			{
				"x": -4.2242903739,
				"y": -1.6738076927,
				"z": -2.1316778752,
				"element": "C" 
			},
			{
				"x": -3.003546151,
				"y": -1.0022313909,
				"z": -2.2311954335,
				"element": "C" 
			},
			{
				"x": 0.9827188592,
				"y": -1.0129564627,
				"z": 1.9441850675,
				"element": "C" 
			},
			{
				"x": 2.3161060766,
				"y": -1.4267286003,
				"z": 2.0490910436,
				"element": "C" 
			},
			{
				"x": 2.692809741,
				"y": -2.7205114116,
				"z": 1.6899304031,
				"element": "C" 
			},
			{
				"x": 1.7329549907,
				"y": -3.6210244991,
				"z": 1.2251748585,
				"element": "C" 
			},
			{
				"x": 0.4011346624,
				"y": -3.2169330242,
				"z": 1.119864645,
				"element": "C" 
			},
			{
				"x": 0.0272016346,
				"y": -1.9204725465,
				"z": 1.474725437,
				"element": "C" 
			},
			{
				"x": -1.8681217706,
				"y": -0.0493973621,
				"z": 4.2935556461,
				"element": "H" 
			},
			{
				"x": 1.3068601367,
				"y": 0.6768615718,
				"z": 3.1700958468,
				"element": "H" 
			},
			{
				"x": 1.4059506348,
				"y": 2.2539853268,
				"z": 1.6003771162,
				"element": "H" 
			},
			{
				"x": -1.4841451815,
				"y": 1.7268240789,
				"z": -1.5937779196,
				"element": "H" 
			},
			{
				"x": -0.7067862918,
				"y": 0.2604559878,
				"z": -2.2048046757,
				"element": "H" 
			},
			{
				"x": -3.1352465594,
				"y": 0.8141103524,
				"z": 0.6381189339,
				"element": "H" 
			},
			{
				"x": -5.3004978983,
				"y": -0.3811828786,
				"z": 0.8228924827,
				"element": "H" 
			},
			{
				"x": -6.0018992788,
				"y": -1.9772096366,
				"z": -0.9499001637,
				"element": "H" 
			},
			{
				"x": -4.521100016,
				"y": -2.3728706718,
				"z": -2.9084665757,
				"element": "H" 
			},
			{
				"x": -2.355072553,
				"y": -1.1839702454,
				"z": -3.0848890809,
				"element": "H" 
			},
			{
				"x": 3.0672653857,
				"y": -0.7289770815,
				"z": 2.4116917734,
				"element": "H" 
			},
			{
				"x": 3.7316447755,
				"y": -3.0250324733,
				"z": 1.7788474741,
				"element": "H" 
			},
			{
				"x": 2.0206789855,
				"y": -4.631250105,
				"z": 0.9485095525,
				"element": "H" 
			},
			{
				"x": -0.3517136295,
				"y": -3.9103925375,
				"z": 0.7564382502,
				"element": "H" 
			},
			{
				"x": -1.0083227876,
				"y": -1.615402558,
				"z": 1.371802251,
				"element": "H" 
			}
		],
		 "valence_orbital": [ 
			{
				"type": "occ",
				"energy": -0.26381,
				"method": "rhf"
			},
			{
				"type": "occ",
				"energy": -0.25113,
				"method": "rhf"
			},
			{
				"type": "occ",
				"energy": -0.24933,
				"method": "rhf"
			},
			{
				"type": "occ",
				"energy": -0.24705,
				"method": "rhf"
			},
			{
				"type": "occ",
				"energy": -0.24118,
				"method": "rhf"
			},
			{
				"type": "unocc",
				"energy": -0.01127,
				"method": "rhf"
			},
			{
				"type": "unocc",
				"energy": -0.00768,
				"method": "rhf"
			},
			{
				"type": "unocc",
				"energy": -0.00506,
				"method": "rhf"
			},
			{
				"type": "unocc",
				"energy": -0.00164,
				"method": "rhf"
			},
			{
				"type": "unocc",
				"energy": 0.00015,
				"method": "rhf"
			}
		],
		"cosmo_sigma_profile": { 
			"-0.025": 0.0,
			"-0.024": 0.0,
			"-0.023": 0.0,
			"-0.022": 0.0,
			"-0.021": 0.0,
			"-0.02": 0.0,
			"-0.019": 0.34064173594,
			"-0.018": 0.850445896699,
			"-0.017": 0.850329518237,
			"-0.016": 1.20983808733,
			"-0.015": 1.17902868301,
			"-0.014": 2.23619286586,
			"-0.013": 1.86389405287,
			"-0.012": 2.35507824761,
			"-0.011": 2.63949400361,
			"-0.01": 2.4646558105,
			"-0.009": 3.1078190212,
			"-0.008": 3.42637995881,
			"-0.007": 4.66034636746,
			"-0.006": 16.9083043763,
			"-0.005": 22.5996663926,
			"-0.004": 24.8826287082,
			"-0.003": 24.6007985647,
			"-0.002": 19.3466894431,
			"-0.001": 17.7579005547,
			"0.0": 18.0956061731,
			"0.001": 18.9522825364,
			"0.002": 19.7856576177,
			"0.003": 20.5293723809,
			"0.004": 21.6716962134,
			"0.005": 24.9494142853,
			"0.006": 16.1767726762,
			"0.007": 4.99126593012,
			"0.008": 4.1489136562,
			"0.009": 4.37907881307,
			"0.01": 4.28148433148,
			"0.011": 4.33599412122,
			"0.012": 2.88581395094,
			"0.013": 5.61948343519,
			"0.014": 0.371399365182,
			"0.015": 0.0,
			"0.016": 0.0,
			"0.017": 0.0,
			"0.018": 0.0,
			"0.019": 0.0,
			"0.02": 0.0,
			"0.021": 0.0,
			"0.022": 0.0,
			"0.023": 0.0,
			"0.024": 0.0,
			"0.025": 0.0
		}
	}
}
