{
	 "smiles": "CC1=C(C2COCCN2)C(C)=NN1", 
	 "Tm": 401.15, 
	 "num_atms": 28, 
	 "gaussian": { 
		 "optdone": 1, 
		 "sigma_profile": "yes", 
		 "theory": "DFT", 
		 "functional": "B3LYP", 
		 "basiset": "6-31G**", 
		 "properties": { 
			 "R2extent": 2778.2911, 
			 "electric_dipole_moment_norm": 3.09580912041, 
			 "electric_quadrupole_moment_norm": 15.1399311445, 
			 "total_energy": -591.438282597, 
			 "HOMO_LUMO_gap": 0.24492, 
			 "cosmo_polarized_energy": -14.12, 
			 "cosmo_cavitation_energy": 29.36, 
			 "cosmo_dispersion_energy": -21.26, 
			 "cosmo_repulsion_energy": 1.71, 
			 "cosmo_total_nonelectrostatic_energy": 9.81, 
			 "SMD_solvation_energy": 3.19 
		},
		"coords": [
			{
				"x": 0.4970618427,
				"y": -0.3532939155,
				"z": 2.5742485645,
				"element": "C" 
			},
			{
				"x": -0.1950210376,
				"y": -0.9256126153,
				"z": 1.3766107277,
				"element": "C" 
			},
			{
				"x": -0.4612348247,
				"y": -0.409425084,
				"z": 0.1137136227,
				"element": "C" 
			},
			{
				"x": -0.0742756543,
				"y": 0.95435867,
				"z": -0.3911712621,
				"element": "C" 
			},
			{
				"x": -1.2669645281,
				"y": 1.9194220924,
				"z": -0.4694842902,
				"element": "C" 
			},
			{
				"x": -0.8694963079,
				"y": 3.2550786763,
				"z": -0.7780741488,
				"element": "O" 
			},
			{
				"x": 0.2624275181,
				"y": 3.359264495,
				"z": -1.6415614179,
				"element": "C" 
			},
			{
				"x": 0.4209855073,
				"y": 2.1186842795,
				"z": -2.5184123734,
				"element": "C" 
			},
			{
				"x": 0.5413953768,
				"y": 0.8794097626,
				"z": -1.7332318255,
				"element": "N" 
			},
			{
				"x": -1.1744832114,
				"y": -1.4469170317,
				"z": -0.5635867817,
				"element": "C" 
			},
			{
				"x": -1.7179733704,
				"y": -1.4635960296,
				"z": -1.9608103241,
				"element": "C" 
			},
			{
				"x": -1.3302609815,
				"y": -2.514606094,
				"z": 0.2178550142,
				"element": "N" 
			},
			{
				"x": -0.7358519253,
				"y": -2.1735140551,
				"z": 1.3852439532,
				"element": "N" 
			},
			{
				"x": 1.0240638143,
				"y": -1.131133331,
				"z": 3.1376285917,
				"element": "H" 
			},
			{
				"x": -0.2039566055,
				"y": 0.1357658867,
				"z": 3.2616009371,
				"element": "H" 
			},
			{
				"x": 1.2354876036,
				"y": 0.3955815407,
				"z": 2.2758384674,
				"element": "H" 
			},
			{
				"x": 0.6155223876,
				"y": 1.4035989409,
				"z": 0.3457670249,
				"element": "H" 
			},
			{
				"x": -1.7746399873,
				"y": 1.9605262606,
				"z": 0.4982223155,
				"element": "H" 
			},
			{
				"x": -1.9893372631,
				"y": 1.5461768975,
				"z": -1.2115150336,
				"element": "H" 
			},
			{
				"x": 0.1151392449,
				"y": 4.2553235546,
				"z": -2.2562932875,
				"element": "H" 
			},
			{
				"x": 1.1769236899,
				"y": 3.513093542,
				"z": -1.0450752241,
				"element": "H" 
			},
			{
				"x": -0.4498329851,
				"y": 2.0475761845,
				"z": -3.1842753765,
				"element": "H" 
			},
			{
				"x": 1.2991850065,
				"y": 2.2256575468,
				"z": -3.1638584703,
				"element": "H" 
			},
			{
				"x": 1.5123656856,
				"y": 0.6004299833,
				"z": -1.6438178913,
				"element": "H" 
			},
			{
				"x": -0.9572814245,
				"y": -1.1336313528,
				"z": -2.6724695509,
				"element": "H" 
			},
			{
				"x": -2.5764968097,
				"y": -0.7895653125,
				"z": -2.0681219127,
				"element": "H" 
			},
			{
				"x": -2.0500263431,
				"y": -2.473858894,
				"z": -2.2118362782,
				"element": "H" 
			},
			{
				"x": -0.7159244178,
				"y": -2.8437945979,
				"z": 2.1377662299,
				"element": "H" 
			}
		],
		 "valence_orbital": [ 
			{
				"type": "occ",
				"energy": -0.2727,
				"method": "rhf"
			},
			{
				"type": "occ",
				"energy": -0.2461,
				"method": "rhf"
			},
			{
				"type": "occ",
				"energy": -0.23088,
				"method": "rhf"
			},
			{
				"type": "occ",
				"energy": -0.22554,
				"method": "rhf"
			},
			{
				"type": "occ",
				"energy": -0.21501,
				"method": "rhf"
			},
			{
				"type": "unocc",
				"energy": 0.02991,
				"method": "rhf"
			},
			{
				"type": "unocc",
				"energy": 0.06498,
				"method": "rhf"
			},
			{
				"type": "unocc",
				"energy": 0.07009,
				"method": "rhf"
			},
			{
				"type": "unocc",
				"energy": 0.0837,
				"method": "rhf"
			},
			{
				"type": "unocc",
				"energy": 0.10576,
				"method": "rhf"
			}
		],
		"cosmo_sigma_profile": { 
			"-0.025": 0.0,
			"-0.024": 0.0,
			"-0.023": 0.0,
			"-0.022": 0.0,
			"-0.021": 0.0,
			"-0.02": 0.0,
			"-0.019": 0.0,
			"-0.018": 0.0,
			"-0.017": 0.0,
			"-0.016": 0.264327192248,
			"-0.015": 1.30765764367,
			"-0.014": 1.21419061208,
			"-0.013": 1.48425925534,
			"-0.012": 0.83391752383,
			"-0.011": 1.13940803446,
			"-0.01": 2.00777596735,
			"-0.009": 2.51064845283,
			"-0.008": 2.30777699986,
			"-0.007": 2.51568105386,
			"-0.006": 4.15244274131,
			"-0.005": 11.18512026,
			"-0.004": 18.9986416441,
			"-0.003": 30.4628791085,
			"-0.002": 26.1000063271,
			"-0.001": 24.5229338462,
			"0.0": 16.4851409781,
			"0.001": 12.0032388261,
			"0.002": 10.0517327428,
			"0.003": 6.77820579597,
			"0.004": 7.32439574758,
			"0.005": 7.02314335742,
			"0.006": 7.55969524657,
			"0.007": 4.87455681019,
			"0.008": 4.52869555768,
			"0.009": 4.47304888722,
			"0.01": 3.601609975,
			"0.011": 2.58577461892,
			"0.012": 1.66966388545,
			"0.013": 2.99667362861,
			"0.014": 2.68375677224,
			"0.015": 1.54183529843,
			"0.016": 0.791418774214,
			"0.017": 0.772206871899,
			"0.018": 0.0813896598533,
			"0.019": 0.0,
			"0.02": 0.0,
			"0.021": 0.0,
			"0.022": 0.0,
			"0.023": 0.0,
			"0.024": 0.0,
			"0.025": 0.0
		}
	}
}
