{
	 "smiles": "NC1=CC=C(C=C1)C1=NNC=C1", 
	 "Tm": 373.15, 
	 "num_atms": 21, 
	 "gaussian": { 
		 "optdone": 1, 
		 "sigma_profile": "yes", 
		 "theory": "DFT", 
		 "functional": "B3LYP", 
		 "basiset": "6-31G**", 
		 "properties": { 
			 "R2extent": 2972.2557, 
			 "electric_dipole_moment_norm": 1.36853232698, 
			 "electric_quadrupole_moment_norm": 20.7328894166, 
			 "total_energy": -512.621966104, 
			 "HOMO_LUMO_gap": 0.18277, 
			 "cosmo_polarized_energy": -15.86, 
			 "cosmo_cavitation_energy": 25.08, 
			 "cosmo_dispersion_energy": -18.97, 
			 "cosmo_repulsion_energy": 1.5, 
			 "cosmo_total_nonelectrostatic_energy": 7.61, 
			 "SMD_solvation_energy": 3.68 
		},
		"coords": [
			{
				"x": -2.5238477762,
				"y": 1.2931577482,
				"z": -1.5119261315,
				"element": "N" 
			},
			{
				"x": -1.5098742609,
				"y": 0.5165271985,
				"z": -0.9456841464,
				"element": "C" 
			},
			{
				"x": -1.8077139378,
				"y": -0.4779332829,
				"z": 0.0034196235,
				"element": "C" 
			},
			{
				"x": -0.8066369971,
				"y": -1.2873307367,
				"z": 0.5233973683,
				"element": "C" 
			},
			{
				"x": 0.5327502971,
				"y": -1.1426664363,
				"z": 0.1226173905,
				"element": "C" 
			},
			{
				"x": 0.8230872425,
				"y": -0.149073339,
				"z": -0.8244420542,
				"element": "C" 
			},
			{
				"x": -0.1733706471,
				"y": 0.6664718309,
				"z": -1.3507435863,
				"element": "C" 
			},
			{
				"x": 1.5840609966,
				"y": -2.0050054492,
				"z": 0.6837608896,
				"element": "C" 
			},
			{
				"x": 1.2919099871,
				"y": -2.9242860292,
				"z": 1.6144963113,
				"element": "N" 
			},
			{
				"x": 2.4694441264,
				"y": -3.5196590681,
				"z": 1.8926094289,
				"element": "N" 
			},
			{
				"x": 3.506368141,
				"y": -3.0152633704,
				"z": 1.1744674667,
				"element": "C" 
			},
			{
				"x": 2.9743175014,
				"y": -2.0269884217,
				"z": 0.3749384533,
				"element": "C" 
			},
			{
				"x": -2.2225864339,
				"y": 2.1826477678,
				"z": -1.8860357052,
				"element": "H" 
			},
			{
				"x": -3.3552479282,
				"y": 1.3883350662,
				"z": -0.9447855368,
				"element": "H" 
			},
			{
				"x": -2.8366164745,
				"y": -0.6149033425,
				"z": 0.3284903336,
				"element": "H" 
			},
			{
				"x": -1.0519663816,
				"y": -2.048634422,
				"z": 1.2563214812,
				"element": "H" 
			},
			{
				"x": 1.8462247983,
				"y": -0.0013050846,
				"z": -1.1577935356,
				"element": "H" 
			},
			{
				"x": 0.0819537216,
				"y": 1.4260847925,
				"z": -2.0859310323,
				"element": "H" 
			},
			{
				"x": 2.4922410666,
				"y": -4.2572548484,
				"z": 2.578460872,
				"element": "H" 
			},
			{
				"x": 4.5141706259,
				"y": -3.3886227407,
				"z": 1.2840092889,
				"element": "H" 
			},
			{
				"x": 3.5121323328,
				"y": -1.4135978323,
				"z": -0.3314471794,
				"element": "H" 
			}
		],
		 "valence_orbital": [ 
			{
				"type": "occ",
				"energy": -0.2781,
				"method": "rhf"
			},
			{
				"type": "occ",
				"energy": -0.25223,
				"method": "rhf"
			},
			{
				"type": "occ",
				"energy": -0.24203,
				"method": "rhf"
			},
			{
				"type": "occ",
				"energy": -0.23637,
				"method": "rhf"
			},
			{
				"type": "occ",
				"energy": -0.183,
				"method": "rhf"
			},
			{
				"type": "unocc",
				"energy": -0.00023,
				"method": "rhf"
			},
			{
				"type": "unocc",
				"energy": 0.01121,
				"method": "rhf"
			},
			{
				"type": "unocc",
				"energy": 0.04011,
				"method": "rhf"
			},
			{
				"type": "unocc",
				"energy": 0.08263,
				"method": "rhf"
			},
			{
				"type": "unocc",
				"energy": 0.08532,
				"method": "rhf"
			}
		],
		"cosmo_sigma_profile": { 
			"-0.025": 0.0,
			"-0.024": 0.0,
			"-0.023": 0.0,
			"-0.022": 0.0,
			"-0.021": 0.0,
			"-0.02": 0.0,
			"-0.019": 0.0,
			"-0.018": 0.0,
			"-0.017": 0.0511047234001,
			"-0.016": 1.59902875724,
			"-0.015": 1.39060394449,
			"-0.014": 1.44284830586,
			"-0.013": 1.55135603878,
			"-0.012": 3.0798723539,
			"-0.011": 3.37502199538,
			"-0.01": 3.735492538,
			"-0.009": 6.15575647587,
			"-0.008": 5.60899076855,
			"-0.007": 6.585185415,
			"-0.006": 9.06632807885,
			"-0.005": 9.70071629543,
			"-0.004": 10.1514464056,
			"-0.003": 10.5442335109,
			"-0.002": 8.58723389374,
			"-0.001": 8.87639113854,
			"0.0": 7.86969449656,
			"0.001": 7.47148163632,
			"0.002": 8.90429868709,
			"0.003": 9.75913907574,
			"0.004": 11.4773905209,
			"0.005": 20.1527816934,
			"0.006": 19.0119201331,
			"0.007": 8.28752204585,
			"0.008": 3.38355191524,
			"0.009": 2.33274145493,
			"0.01": 1.98958658191,
			"0.011": 2.09659053196,
			"0.012": 1.93603943844,
			"0.013": 1.89972101322,
			"0.014": 1.44376008041,
			"0.015": 0.696930249533,
			"0.016": 0.0,
			"0.017": 0.0,
			"0.018": 0.0,
			"0.019": 0.0,
			"0.02": 0.0,
			"0.021": 0.0,
			"0.022": 0.0,
			"0.023": 0.0,
			"0.024": 0.0,
			"0.025": 0.0
		}
	}
}
