{
	 "smiles": "OC1CCCCC1S(Cl)(=O)=O", 
	 "Tm": 323.15, 
	 "num_atms": 22, 
	 "gaussian": { 
		 "optdone": 1, 
		 "sigma_profile": "yes", 
		 "theory": "DFT", 
		 "functional": "B3LYP", 
		 "basiset": "6-31G**", 
		 "properties": { 
			 "R2extent": 2767.9495, 
			 "electric_dipole_moment_norm": 4.98792842571, 
			 "electric_quadrupole_moment_norm": 11.2502720389, 
			 "total_energy": -1319.25556418, 
			 "HOMO_LUMO_gap": 0.20617, 
			 "cosmo_polarized_energy": -11.75, 
			 "cosmo_cavitation_energy": 26.5, 
			 "cosmo_dispersion_energy": -19.93, 
			 "cosmo_repulsion_energy": 1.55, 
			 "cosmo_total_nonelectrostatic_energy": 8.12, 
			 "SMD_solvation_energy": 2.51 
		},
		"coords": [
			{
				"x": 0.2148149293,
				"y": 1.5541542245,
				"z": 1.6736166871,
				"element": "O" 
			},
			{
				"x": 1.0956649411,
				"y": 0.5829354854,
				"z": 1.106010484,
				"element": "C" 
			},
			{
				"x": 2.0515729774,
				"y": 1.1987166554,
				"z": 0.0803466544,
				"element": "C" 
			},
			{
				"x": 1.3017277652,
				"y": 1.9218336424,
				"z": -1.0607589292,
				"element": "C" 
			},
			{
				"x": -0.0358763943,
				"y": 1.2296851389,
				"z": -1.4132301378,
				"element": "C" 
			},
			{
				"x": 0.0063829267,
				"y": -0.2720251048,
				"z": -1.0906499426,
				"element": "C" 
			},
			{
				"x": 0.1508836111,
				"y": -0.4463470972,
				"z": 0.436859713,
				"element": "C" 
			},
			{
				"x": 0.6965914761,
				"y": -2.1670462317,
				"z": 0.7462375774,
				"element": "S" 
			},
			{
				"x": 0.3938906042,
				"y": -2.3096730496,
				"z": 2.8637798187,
				"element": "Cl" 
			},
			{
				"x": 2.1353703378,
				"y": -2.282389661,
				"z": 0.5194251061,
				"element": "O" 
			},
			{
				"x": -0.2468861971,
				"y": -3.0889394279,
				"z": 0.1248103505,
				"element": "O" 
			},
			{
				"x": 0.7552274298,
				"y": 2.2161509464,
				"z": 2.1249846754,
				"element": "H" 
			},
			{
				"x": 1.6758360332,
				"y": 0.0927085097,
				"z": 1.8990314154,
				"element": "H" 
			},
			{
				"x": 2.6774624637,
				"y": 0.3899245317,
				"z": -0.3141554946,
				"element": "H" 
			},
			{
				"x": 2.7365432082,
				"y": 1.8877526008,
				"z": 0.5894116803,
				"element": "H" 
			},
			{
				"x": 1.9531814421,
				"y": 1.9554520161,
				"z": -1.9408889705,
				"element": "H" 
			},
			{
				"x": 1.1046643402,
				"y": 2.9609358736,
				"z": -0.7806827019,
				"element": "H" 
			},
			{
				"x": -0.2720251075,
				"y": 1.3657590768,
				"z": -2.4734820277,
				"element": "H" 
			},
			{
				"x": -0.850147255,
				"y": 1.6882733926,
				"z": -0.8425957375,
				"element": "H" 
			},
			{
				"x": 0.8554801804,
				"y": -0.7335578726,
				"z": -1.6086637906,
				"element": "H" 
			},
			{
				"x": -0.8951998089,
				"y": -0.7862610501,
				"z": -1.4307964801,
				"element": "H" 
			},
			{
				"x": -0.8212599039,
				"y": -0.3816425994,
				"z": 0.9321900502,
				"element": "H" 
			}
		],
		 "valence_orbital": [ 
			{
				"type": "occ",
				"energy": -0.32978,
				"method": "rhf"
			},
			{
				"type": "occ",
				"energy": -0.32834,
				"method": "rhf"
			},
			{
				"type": "occ",
				"energy": -0.32054,
				"method": "rhf"
			},
			{
				"type": "occ",
				"energy": -0.31224,
				"method": "rhf"
			},
			{
				"type": "occ",
				"energy": -0.28656,
				"method": "rhf"
			},
			{
				"type": "unocc",
				"energy": -0.08039,
				"method": "rhf"
			},
			{
				"type": "unocc",
				"energy": 0.02987,
				"method": "rhf"
			},
			{
				"type": "unocc",
				"energy": 0.05577,
				"method": "rhf"
			},
			{
				"type": "unocc",
				"energy": 0.06767,
				"method": "rhf"
			},
			{
				"type": "unocc",
				"energy": 0.07536,
				"method": "rhf"
			}
		],
		"cosmo_sigma_profile": { 
			"-0.025": 0.0,
			"-0.024": 0.0,
			"-0.023": 0.0,
			"-0.022": 0.0,
			"-0.021": 0.0,
			"-0.02": 0.0,
			"-0.019": 0.0,
			"-0.018": 0.0,
			"-0.017": 0.0362575635609,
			"-0.016": 0.802334144844,
			"-0.015": 1.1008129779,
			"-0.014": 1.10564087542,
			"-0.013": 0.967245875898,
			"-0.012": 1.09807666881,
			"-0.011": 0.784212015848,
			"-0.01": 1.07575373909,
			"-0.009": 2.07346100531,
			"-0.008": 3.39171175479,
			"-0.007": 2.96421048087,
			"-0.006": 4.40928249675,
			"-0.005": 10.6769460108,
			"-0.004": 12.5694569766,
			"-0.003": 20.7665738817,
			"-0.002": 24.290747391,
			"-0.001": 19.0147327626,
			"0.0": 17.0903041281,
			"0.001": 11.0116721249,
			"0.002": 10.7463235655,
			"0.003": 12.8360945205,
			"0.004": 11.8417189699,
			"0.005": 4.72902360199,
			"0.006": 4.83449235337,
			"0.007": 5.24976397262,
			"0.008": 10.2470475614,
			"0.009": 8.91600116513,
			"0.01": 1.37258509495,
			"0.011": 1.22446162389,
			"0.012": 1.43305203608,
			"0.013": 0.20290384196,
			"0.014": 0.0,
			"0.015": 0.0,
			"0.016": 0.0,
			"0.017": 0.0,
			"0.018": 0.0,
			"0.019": 0.0,
			"0.02": 0.0,
			"0.021": 0.0,
			"0.022": 0.0,
			"0.023": 0.0,
			"0.024": 0.0,
			"0.025": 0.0
		}
	}
}
