{
	 "smiles": "CC(=O)C1C2CCC(C)(C1=O)C2(C)C", 
	 "Tm": 474.15, 
	 "num_atms": 32, 
	 "gaussian": { 
		 "optdone": 1, 
		 "sigma_profile": "yes", 
		 "theory": "DFT", 
		 "functional": "B3LYP", 
		 "basiset": "6-31G**", 
		 "properties": { 
			 "R2extent": 2654.2585, 
			 "electric_dipole_moment_norm": 4.56993237258, 
			 "electric_quadrupole_moment_norm": 9.68520670043, 
			 "total_energy": -618.571115841, 
			 "HOMO_LUMO_gap": 0.20924, 
			 "cosmo_polarized_energy": -13.07, 
			 "cosmo_cavitation_energy": 31.16, 
			 "cosmo_dispersion_energy": -21.68, 
			 "cosmo_repulsion_energy": 1.67, 
			 "cosmo_total_nonelectrostatic_energy": 11.15, 
			 "SMD_solvation_energy": 6.37 
		},
		"coords": [
			{
				"x": -3.8594375982,
				"y": 1.0621354846,
				"z": -0.5201420092,
				"element": "C" 
			},
			{
				"x": -2.7713780583,
				"y": 0.0372870896,
				"z": -0.2458653431,
				"element": "C" 
			},
			{
				"x": -3.0242306647,
				"y": -1.1492981247,
				"z": -0.1887460766,
				"element": "O" 
			},
			{
				"x": -1.3686648036,
				"y": 0.6203209338,
				"z": -0.0303803895,
				"element": "C" 
			},
			{
				"x": -0.534869375,
				"y": 0.9603113492,
				"z": -1.3094607034,
				"element": "C" 
			},
			{
				"x": 0.4867155643,
				"y": 2.0346766167,
				"z": -0.8620616521,
				"element": "C" 
			},
			{
				"x": 1.4498478576,
				"y": 1.2212833081,
				"z": 0.057865554,
				"element": "C" 
			},
			{
				"x": 0.9423533115,
				"y": -0.2581540392,
				"z": -0.0529873059,
				"element": "C" 
			},
			{
				"x": 1.936031861,
				"y": -1.3141579721,
				"z": 0.3978206802,
				"element": "C" 
			},
			{
				"x": -0.365291543,
				"y": -0.2571974344,
				"z": 0.7530007608,
				"element": "C" 
			},
			{
				"x": -0.5656697855,
				"y": -0.7860097278,
				"z": 1.8221185553,
				"element": "O" 
			},
			{
				"x": 0.37577063,
				"y": -0.3009457338,
				"z": -1.5161603348,
				"element": "C" 
			},
			{
				"x": 1.4375658631,
				"y": -0.1062284807,
				"z": -2.6136281887,
				"element": "C" 
			},
			{
				"x": -0.3792336046,
				"y": -1.6030330062,
				"z": -1.8349563119,
				"element": "C" 
			},
			{
				"x": -4.0660334286,
				"y": 1.6263006634,
				"z": 0.3977653377,
				"element": "H" 
			},
			{
				"x": -3.5441784787,
				"y": 1.7882016318,
				"z": -1.2773672775,
				"element": "H" 
			},
			{
				"x": -4.7712082229,
				"y": 0.5562321502,
				"z": -0.8403952806,
				"element": "H" 
			},
			{
				"x": -1.5234689458,
				"y": 1.5378835934,
				"z": 0.55286308,
				"element": "H" 
			},
			{
				"x": -1.1376899143,
				"y": 1.2428767798,
				"z": -2.1780460867,
				"element": "H" 
			},
			{
				"x": 0.0028060643,
				"y": 2.8643223376,
				"z": -0.3379151989,
				"element": "H" 
			},
			{
				"x": 1.0144096399,
				"y": 2.4653328254,
				"z": -1.7168988414,
				"element": "H" 
			},
			{
				"x": 1.4435445678,
				"y": 1.5706345737,
				"z": 1.0952236856,
				"element": "H" 
			},
			{
				"x": 2.4868249435,
				"y": 1.2787628007,
				"z": -0.2865212393,
				"element": "H" 
			},
			{
				"x": 2.1638343326,
				"y": -1.1913472141,
				"z": 1.4610126516,
				"element": "H" 
			},
			{
				"x": 1.5303111678,
				"y": -2.322131795,
				"z": 0.2706876059,
				"element": "H" 
			},
			{
				"x": 2.8727916065,
				"y": -1.2445871812,
				"z": -0.1647146857,
				"element": "H" 
			},
			{
				"x": 0.9504333802,
				"y": 0.0181827419,
				"z": -3.5878051078,
				"element": "H" 
			},
			{
				"x": 2.0909150778,
				"y": 0.7545710451,
				"z": -2.4593972222,
				"element": "H" 
			},
			{
				"x": 2.0756396334,
				"y": -0.9932720952,
				"z": -2.68275271,
				"element": "H" 
			},
			{
				"x": -1.1116453806,
				"y": -1.8841343301,
				"z": -1.0764934677,
				"element": "H" 
			},
			{
				"x": 0.3313707136,
				"y": -2.4301317275,
				"z": -1.93721952,
				"element": "H" 
			},
			{
				"x": -0.9100664112,
				"y": -1.5137870629,
				"z": -2.7899429582,
				"element": "H" 
			}
		],
		 "valence_orbital": [ 
			{
				"type": "occ",
				"energy": -0.32383,
				"method": "rhf"
			},
			{
				"type": "occ",
				"energy": -0.31795,
				"method": "rhf"
			},
			{
				"type": "occ",
				"energy": -0.29844,
				"method": "rhf"
			},
			{
				"type": "occ",
				"energy": -0.25311,
				"method": "rhf"
			},
			{
				"type": "occ",
				"energy": -0.23232,
				"method": "rhf"
			},
			{
				"type": "unocc",
				"energy": -0.02308,
				"method": "rhf"
			},
			{
				"type": "unocc",
				"energy": -0.01532,
				"method": "rhf"
			},
			{
				"type": "unocc",
				"energy": 0.06825,
				"method": "rhf"
			},
			{
				"type": "unocc",
				"energy": 0.09001,
				"method": "rhf"
			},
			{
				"type": "unocc",
				"energy": 0.10215,
				"method": "rhf"
			}
		],
		"cosmo_sigma_profile": { 
			"-0.025": 0.0,
			"-0.024": 0.0,
			"-0.023": 0.0,
			"-0.022": 0.0,
			"-0.021": 0.0,
			"-0.02": 0.0,
			"-0.019": 0.0,
			"-0.018": 0.0,
			"-0.017": 0.0,
			"-0.016": 0.0,
			"-0.015": 0.0,
			"-0.014": 0.0,
			"-0.013": 0.0,
			"-0.012": 0.0,
			"-0.011": 0.0,
			"-0.01": 0.0,
			"-0.009": 0.0,
			"-0.008": 0.799914124032,
			"-0.007": 5.00513569037,
			"-0.006": 8.48114870608,
			"-0.005": 11.5705141594,
			"-0.004": 17.5318479452,
			"-0.003": 29.7259364796,
			"-0.002": 38.8265108989,
			"-0.001": 30.9359013226,
			"0.0": 26.3955636712,
			"0.001": 19.5670546998,
			"0.002": 7.71155555416,
			"0.003": 3.38190201042,
			"0.004": 2.91800381725,
			"0.005": 3.0748905689,
			"0.006": 2.85228760215,
			"0.007": 3.66349449809,
			"0.008": 2.86703153664,
			"0.009": 3.95374031677,
			"0.01": 5.18576987062,
			"0.011": 8.75429298704,
			"0.012": 6.60007120179,
			"0.013": 1.41713479708,
			"0.014": 0.0,
			"0.015": 0.0,
			"0.016": 0.0,
			"0.017": 0.0,
			"0.018": 0.0,
			"0.019": 0.0,
			"0.02": 0.0,
			"0.021": 0.0,
			"0.022": 0.0,
			"0.023": 0.0,
			"0.024": 0.0,
			"0.025": 0.0
		}
	}
}
