{
	 "smiles": "ClS(=O)(=O)C1=C2C=CC=C3C(=O)NC(C=C1)=C23", 
	 "Tm": 471.15, 
	 "num_atms": 23, 
	 "gaussian": { 
		 "optdone": 1, 
		 "sigma_profile": "yes", 
		 "theory": "DFT", 
		 "functional": "B3LYP", 
		 "basiset": "6-31G**", 
		 "properties": { 
			 "R2extent": 5125.3632, 
			 "electric_dipole_moment_norm": 3.69985256463, 
			 "electric_quadrupole_moment_norm": 31.7119994215, 
			 "total_energy": -1561.54446882, 
			 "HOMO_LUMO_gap": 0.14003, 
			 "cosmo_polarized_energy": -15.86, 
			 "cosmo_cavitation_energy": 30.98, 
			 "cosmo_dispersion_energy": -23.38, 
			 "cosmo_repulsion_energy": 1.73, 
			 "cosmo_total_nonelectrostatic_energy": 9.34, 
			 "SMD_solvation_energy": 4.2 
		},
		"coords": [
			{
				"x": 2.2082564578,
				"y": 2.0701211372,
				"z": -2.778815444,
				"element": "Cl" 
			},
			{
				"x": 3.1107515554,
				"y": 1.2126755348,
				"z": -1.033520497,
				"element": "S" 
			},
			{
				"x": 4.1668251935,
				"y": 0.3319057787,
				"z": -1.5177890502,
				"element": "O" 
			},
			{
				"x": 3.3949467014,
				"y": 2.3400479507,
				"z": -0.1513890991,
				"element": "O" 
			},
			{
				"x": 1.7762531044,
				"y": 0.2445049962,
				"z": -0.3752903521,
				"element": "C" 
			},
			{
				"x": 0.6767240264,
				"y": 0.8520417558,
				"z": 0.3216829842,
				"element": "C" 
			},
			{
				"x": 0.4087102232,
				"y": 2.2128473742,
				"z": 0.6400227059,
				"element": "C" 
			},
			{
				"x": -0.7462355552,
				"y": 2.5570831039,
				"z": 1.3334573783,
				"element": "C" 
			},
			{
				"x": -1.702579717,
				"y": 1.602443309,
				"z": 1.7623552164,
				"element": "C" 
			},
			{
				"x": -1.4525877556,
				"y": 0.2794581534,
				"z": 1.464000745,
				"element": "C" 
			},
			{
				"x": -2.1869121863,
				"y": -0.9976021709,
				"z": 1.7315471553,
				"element": "C" 
			},
			{
				"x": -3.2360825322,
				"y": -1.2007126613,
				"z": 2.3045681198,
				"element": "O" 
			},
			{
				"x": -1.3706736961,
				"y": -2.002685954,
				"z": 1.1481729805,
				"element": "N" 
			},
			{
				"x": -0.2346017474,
				"y": -1.4686020285,
				"z": 0.5633537848,
				"element": "C" 
			},
			{
				"x": 0.8363952208,
				"y": -2.0176663355,
				"z": -0.1107171328,
				"element": "C" 
			},
			{
				"x": 1.8337084144,
				"y": -1.1262276946,
				"z": -0.5828649795,
				"element": "C" 
			},
			{
				"x": -0.290184752,
				"y": -0.0624212795,
				"z": 0.76036496,
				"element": "C" 
			},
			{
				"x": 1.110126874,
				"y": 2.9855549093,
				"z": 0.3504925823,
				"element": "H" 
			},
			{
				"x": -0.9186829804,
				"y": 3.6050761487,
				"z": 1.5585269703,
				"element": "H" 
			},
			{
				"x": -2.5920258338,
				"y": 1.9069077375,
				"z": 2.304511321,
				"element": "H" 
			},
			{
				"x": -1.6262736725,
				"y": -2.9782943843,
				"z": 1.1787723428,
				"element": "H" 
			},
			{
				"x": 0.9351739913,
				"y": -3.0827090387,
				"z": -0.2885804201,
				"element": "H" 
			},
			{
				"x": 2.6830686659,
				"y": -1.5291463421,
				"z": -1.1232622718,
				"element": "H" 
			}
		],
		 "valence_orbital": [ 
			{
				"type": "occ",
				"energy": -0.31257,
				"method": "rhf"
			},
			{
				"type": "occ",
				"energy": -0.29143,
				"method": "rhf"
			},
			{
				"type": "occ",
				"energy": -0.28706,
				"method": "rhf"
			},
			{
				"type": "occ",
				"energy": -0.28255,
				"method": "rhf"
			},
			{
				"type": "occ",
				"energy": -0.24726,
				"method": "rhf"
			},
			{
				"type": "unocc",
				"energy": -0.10723,
				"method": "rhf"
			},
			{
				"type": "unocc",
				"energy": -0.07795,
				"method": "rhf"
			},
			{
				"type": "unocc",
				"energy": -0.04646,
				"method": "rhf"
			},
			{
				"type": "unocc",
				"energy": -0.01855,
				"method": "rhf"
			},
			{
				"type": "unocc",
				"energy": 0.02477,
				"method": "rhf"
			}
		],
		"cosmo_sigma_profile": { 
			"-0.025": 0.0,
			"-0.024": 0.0,
			"-0.023": 0.0,
			"-0.022": 0.0,
			"-0.021": 0.0,
			"-0.02": 0.0,
			"-0.019": 0.0,
			"-0.018": 0.0,
			"-0.017": 0.563661545246,
			"-0.016": 1.44774474211,
			"-0.015": 1.11059809224,
			"-0.014": 1.43588427817,
			"-0.013": 1.36785399192,
			"-0.012": 0.962734441751,
			"-0.011": 0.966219185283,
			"-0.01": 1.31193587667,
			"-0.009": 2.85760677856,
			"-0.008": 8.16465122083,
			"-0.007": 9.04745832439,
			"-0.006": 9.8898939049,
			"-0.005": 8.84292655635,
			"-0.004": 10.9498598928,
			"-0.003": 12.662924413,
			"-0.002": 16.5301337099,
			"-0.001": 25.4001230388,
			"0.0": 29.1893655948,
			"0.001": 23.2460586796,
			"0.002": 15.4865619666,
			"0.003": 13.5752084873,
			"0.004": 13.9681246588,
			"0.005": 4.78185100965,
			"0.006": 4.80323675657,
			"0.007": 6.12280323695,
			"0.008": 9.88586134124,
			"0.009": 6.84106282935,
			"0.01": 2.49060126826,
			"0.011": 4.81881499436,
			"0.012": 4.14087139128,
			"0.013": 0.382176461302,
			"0.014": 0.0,
			"0.015": 0.0,
			"0.016": 0.0,
			"0.017": 0.0,
			"0.018": 0.0,
			"0.019": 0.0,
			"0.02": 0.0,
			"0.021": 0.0,
			"0.022": 0.0,
			"0.023": 0.0,
			"0.024": 0.0,
			"0.025": 0.0
		}
	}
}
