{
	 "smiles": "COC1=CC=C(OC2=CC=C(C=C2[N+]([O-])=O)C(N)=NO)C=C1", 
	 "Tm": 449.15, 
	 "num_atms": 35, 
	 "gaussian": { 
		 "optdone": 1, 
		 "sigma_profile": "yes", 
		 "theory": "DFT", 
		 "functional": "B3LYP", 
		 "basiset": "6-31G**", 
		 "properties": { 
			 "R2extent": 9996.4415, 
			 "electric_dipole_moment_norm": 6.04061712824, 
			 "electric_quadrupole_moment_norm": 27.6888119138, 
			 "total_energy": -1081.50943871, 
			 "HOMO_LUMO_gap": 0.13993, 
			 "cosmo_polarized_energy": -20.35, 
			 "cosmo_cavitation_energy": 41.3, 
			 "cosmo_dispersion_energy": -29.29, 
			 "cosmo_repulsion_energy": 2.27, 
			 "cosmo_total_nonelectrostatic_energy": 14.28, 
			 "SMD_solvation_energy": 10.35 
		},
		"coords": [
			{
				"x": 3.887616077,
				"y": 2.7514418824,
				"z": 3.2292940646,
				"element": "C" 
			},
			{
				"x": 3.9436851873,
				"y": 1.7598499522,
				"z": 2.2152165055,
				"element": "O" 
			},
			{
				"x": 2.8442743181,
				"y": 1.5741777349,
				"z": 1.4308384193,
				"element": "C" 
			},
			{
				"x": 1.6446793594,
				"y": 2.2860663735,
				"z": 1.5590656527,
				"element": "C" 
			},
			{
				"x": 0.5793165573,
				"y": 2.0124001986,
				"z": 0.6963649057,
				"element": "C" 
			},
			{
				"x": 0.7133693811,
				"y": 1.0332955987,
				"z": -0.2811093867,
				"element": "C" 
			},
			{
				"x": -0.315945774,
				"y": 0.821214815,
				"z": -1.2002104671,
				"element": "O" 
			},
			{
				"x": -1.329168836,
				"y": -0.0275537032,
				"z": -0.8994207923,
				"element": "C" 
			},
			{
				"x": -1.3738873755,
				"y": -0.7809232889,
				"z": 0.2840412246,
				"element": "C" 
			},
			{
				"x": -2.446827843,
				"y": -1.6146811255,
				"z": 0.5668732411,
				"element": "C" 
			},
			{
				"x": -3.5339664761,
				"y": -1.7278811672,
				"z": -0.3192672721,
				"element": "C" 
			},
			{
				"x": -3.4979672739,
				"y": -0.9753833216,
				"z": -1.4965524926,
				"element": "C" 
			},
			{
				"x": -2.4158621601,
				"y": -0.1491204769,
				"z": -1.7929915281,
				"element": "C" 
			},
			{
				"x": -2.4646384878,
				"y": 0.5720471381,
				"z": -3.0719039168,
				"element": "N" 
			},
			{
				"x": -3.5799278347,
				"y": 0.7687345741,
				"z": -3.5611367419,
				"element": "O" 
			},
			{
				"x": -1.4050206178,
				"y": 0.911599191,
				"z": -3.5914394453,
				"element": "O" 
			},
			{
				"x": -4.6793069728,
				"y": -2.6390681546,
				"z": -0.0737112754,
				"element": "C" 
			},
			{
				"x": -5.3271931656,
				"y": -3.114390811,
				"z": -1.2205422341,
				"element": "N" 
			},
			{
				"x": -5.1905923534,
				"y": -3.0115112603,
				"z": 1.0523107884,
				"element": "N" 
			},
			{
				"x": -4.6293023696,
				"y": -2.3462755806,
				"z": 2.1681760209,
				"element": "O" 
			},
			{
				"x": 1.9072053677,
				"y": 0.3225923978,
				"z": -0.4207215812,
				"element": "C" 
			},
			{
				"x": 2.9682643024,
				"y": 0.592619023,
				"z": 0.4343426555,
				"element": "C" 
			},
			{
				"x": 3.1054198115,
				"y": 2.532090214,
				"z": 3.9675219945,
				"element": "H" 
			},
			{
				"x": 4.8605595631,
				"y": 2.7329578306,
				"z": 3.7222569441,
				"element": "H" 
			},
			{
				"x": 3.715024469,
				"y": 3.7505839411,
				"z": 2.8091654152,
				"element": "H" 
			},
			{
				"x": 1.52792994,
				"y": 3.0538413234,
				"z": 2.3141236103,
				"element": "H" 
			},
			{
				"x": -0.3506505521,
				"y": 2.5656687368,
				"z": 0.7776073326,
				"element": "H" 
			},
			{
				"x": -0.5518334828,
				"y": -0.7016955698,
				"z": 0.9846537003,
				"element": "H" 
			},
			{
				"x": -2.4512587719,
				"y": -2.1809410175,
				"z": 1.488594789,
				"element": "H" 
			},
			{
				"x": -4.3206871478,
				"y": -1.0092455774,
				"z": -2.1991418581,
				"element": "H" 
			},
			{
				"x": -6.0771571966,
				"y": -3.7554233103,
				"z": -0.9870019365,
				"element": "H" 
			},
			{
				"x": -4.702858378,
				"y": -3.5002836328,
				"z": -1.9198858626,
				"element": "H" 
			},
			{
				"x": -5.1576203571,
				"y": -2.7096515541,
				"z": 2.8899192555,
				"element": "H" 
			},
			{
				"x": 1.9963116264,
				"y": -0.4237648176,
				"z": -1.2031205809,
				"element": "H" 
			},
			{
				"x": 3.9089174663,
				"y": 0.0595134443,
				"z": 0.3467908519,
				"element": "H" 
			}
		],
		 "valence_orbital": [ 
			{
				"type": "occ",
				"energy": -0.26944,
				"method": "rhf"
			},
			{
				"type": "occ",
				"energy": -0.26605,
				"method": "rhf"
			},
			{
				"type": "occ",
				"energy": -0.2511,
				"method": "rhf"
			},
			{
				"type": "occ",
				"energy": -0.22816,
				"method": "rhf"
			},
			{
				"type": "occ",
				"energy": -0.21543,
				"method": "rhf"
			},
			{
				"type": "unocc",
				"energy": -0.0755,
				"method": "rhf"
			},
			{
				"type": "unocc",
				"energy": -0.0359,
				"method": "rhf"
			},
			{
				"type": "unocc",
				"energy": -0.01985,
				"method": "rhf"
			},
			{
				"type": "unocc",
				"energy": -0.00162,
				"method": "rhf"
			},
			{
				"type": "unocc",
				"energy": -0.00011,
				"method": "rhf"
			}
		],
		"cosmo_sigma_profile": { 
			"-0.025": 0.0,
			"-0.024": 0.0,
			"-0.023": 0.0,
			"-0.022": 0.0,
			"-0.021": 0.0,
			"-0.02": 0.0,
			"-0.019": 0.0,
			"-0.018": 0.0,
			"-0.017": 0.325163791371,
			"-0.016": 1.31925392449,
			"-0.015": 0.60790297823,
			"-0.014": 0.678040859655,
			"-0.013": 1.64668787681,
			"-0.012": 3.41973107245,
			"-0.011": 3.27248942876,
			"-0.01": 2.74146731921,
			"-0.009": 3.34351358527,
			"-0.008": 2.98107795137,
			"-0.007": 10.7432840734,
			"-0.006": 19.9789681813,
			"-0.005": 23.7734769961,
			"-0.004": 20.3944857109,
			"-0.003": 24.1010776778,
			"-0.002": 19.9670410391,
			"-0.001": 20.8186145313,
			"0.0": 21.715772302,
			"0.001": 19.2488129129,
			"0.002": 18.6804113068,
			"0.003": 21.8020434223,
			"0.004": 15.8031944339,
			"0.005": 9.99661413164,
			"0.006": 9.80891710118,
			"0.007": 12.0542169532,
			"0.008": 14.5188466058,
			"0.009": 11.2868210533,
			"0.01": 8.70620477746,
			"0.011": 3.782711006,
			"0.012": 0.938694922395,
			"0.013": 0.926662725652,
			"0.014": 0.349763687884,
			"0.015": 0.0,
			"0.016": 0.0,
			"0.017": 0.0,
			"0.018": 0.0,
			"0.019": 0.0,
			"0.02": 0.0,
			"0.021": 0.0,
			"0.022": 0.0,
			"0.023": 0.0,
			"0.024": 0.0,
			"0.025": 0.0
		}
	}
}
