{
	 "smiles": "OC(=O)C1=C(C=CC(=C1)S(=O)(=O)N1CCCCC1)N1CCOCC1", 
	 "Tm": 447.15, 
	 "num_atms": 46, 
	 "gaussian": { 
		 "optdone": 1, 
		 "sigma_profile": "yes", 
		 "theory": "DFT", 
		 "functional": "B3LYP", 
		 "basiset": "6-31G**", 
		 "properties": { 
			 "R2extent": 10472.8162, 
			 "electric_dipole_moment_norm": 7.42204583387, 
			 "electric_quadrupole_moment_norm": 30.3287853774, 
			 "total_energy": -1506.68504532, 
			 "HOMO_LUMO_gap": 0.18328, 
			 "cosmo_polarized_energy": -26.84, 
			 "cosmo_cavitation_energy": 47.04, 
			 "cosmo_dispersion_energy": -32.84, 
			 "cosmo_repulsion_energy": 2.45, 
			 "cosmo_total_nonelectrostatic_energy": 16.65, 
			 "SMD_solvation_energy": 6.49 
		},
		"coords": [
			{
				"x": -1.9254878672,
				"y": -3.4921741978,
				"z": 2.2557791719,
				"element": "O" 
			},
			{
				"x": -1.501218708,
				"y": -3.2283424775,
				"z": 1.0156272913,
				"element": "C" 
			},
			{
				"x": -1.9276033679,
				"y": -3.8177889713,
				"z": 0.0457775153,
				"element": "O" 
			},
			{
				"x": -0.4448459253,
				"y": -2.1459066242,
				"z": 0.877705114,
				"element": "C" 
			},
			{
				"x": 0.0205968858,
				"y": -1.3332503959,
				"z": 1.9341339945,
				"element": "C" 
			},
			{
				"x": 1.0201139797,
				"y": -0.3826709383,
				"z": 1.6867404811,
				"element": "C" 
			},
			{
				"x": 1.5653981565,
				"y": -0.2315679276,
				"z": 0.4143841216,
				"element": "C" 
			},
			{
				"x": 1.0961156538,
				"y": -1.0350892371,
				"z": -0.6282625934,
				"element": "C" 
			},
			{
				"x": 0.1060430875,
				"y": -1.9867194518,
				"z": -0.3992979107,
				"element": "C" 
			},
			{
				"x": 1.7735803275,
				"y": -0.8196130733,
				"z": -2.2887186779,
				"element": "S" 
			},
			{
				"x": 1.7045839897,
				"y": -2.1222776369,
				"z": -2.9514936481,
				"element": "O" 
			},
			{
				"x": 3.03084415,
				"y": -0.086035441,
				"z": -2.1200236206,
				"element": "O" 
			},
			{
				"x": 0.7373685316,
				"y": 0.1995715784,
				"z": -3.1078008613,
				"element": "N" 
			},
			{
				"x": 0.7245428226,
				"y": 1.6209192099,
				"z": -2.7012065021,
				"element": "C" 
			},
			{
				"x": -0.2348844478,
				"y": 2.3911952303,
				"z": -3.6110753659,
				"element": "C" 
			},
			{
				"x": -1.6883817727,
				"y": 1.8824942699,
				"z": -3.4816411854,
				"element": "C" 
			},
			{
				"x": -1.7379097953,
				"y": 0.3644085853,
				"z": -3.1815906131,
				"element": "C" 
			},
			{
				"x": -0.4952621923,
				"y": -0.3508207746,
				"z": -3.7185050256,
				"element": "C" 
			},
			{
				"x": -0.5570090525,
				"y": -1.4843761648,
				"z": 3.2515224891,
				"element": "N" 
			},
			{
				"x": -1.6427264181,
				"y": -0.5010017356,
				"z": 3.5123924014,
				"element": "C" 
			},
			{
				"x": -2.0515257155,
				"y": -0.5727741031,
				"z": 4.9778073326,
				"element": "C" 
			},
			{
				"x": -0.9921178515,
				"y": -0.2174517354,
				"z": 5.8656482202,
				"element": "O" 
			},
			{
				"x": 0.3144826155,
				"y": -0.389402374,
				"z": 5.3309774396,
				"element": "C" 
			},
			{
				"x": 0.4022759413,
				"y": -1.5889552843,
				"z": 4.3900822605,
				"element": "C" 
			},
			{
				"x": -1.428823887,
				"y": -2.8809719065,
				"z": 2.8761483588,
				"element": "H" 
			},
			{
				"x": 1.3780545333,
				"y": 0.2436146097,
				"z": 2.4982377651,
				"element": "H" 
			},
			{
				"x": 2.3586651301,
				"y": 0.4833894876,
				"z": 0.2263382625,
				"element": "H" 
			},
			{
				"x": -0.2396656121,
				"y": -2.6451996781,
				"z": -1.1880573365,
				"element": "H" 
			},
			{
				"x": 1.7417800274,
				"y": 2.0081758374,
				"z": -2.7828722072,
				"element": "H" 
			},
			{
				"x": 0.4059275057,
				"y": 1.7317919787,
				"z": -1.6513598459,
				"element": "H" 
			},
			{
				"x": -0.1743018032,
				"y": 3.4569676773,
				"z": -3.3676792511,
				"element": "H" 
			},
			{
				"x": 0.1142960581,
				"y": 2.2871933264,
				"z": -4.6446199129,
				"element": "H" 
			},
			{
				"x": -2.2070612804,
				"y": 2.42749678,
				"z": -2.6849406655,
				"element": "H" 
			},
			{
				"x": -2.2290701036,
				"y": 2.1035821454,
				"z": -4.408342131,
				"element": "H" 
			},
			{
				"x": -2.6340851262,
				"y": -0.0893797475,
				"z": -3.6175588864,
				"element": "H" 
			},
			{
				"x": -1.7974541164,
				"y": 0.1922320128,
				"z": -2.1005912211,
				"element": "H" 
			},
			{
				"x": -0.5311568946,
				"y": -1.4241554961,
				"z": -3.527860374,
				"element": "H" 
			},
			{
				"x": -0.4257368216,
				"y": -0.2316532866,
				"z": -4.8072989506,
				"element": "H" 
			},
			{
				"x": -1.3231072658,
				"y": 0.5205923503,
				"z": 3.2603490123,
				"element": "H" 
			},
			{
				"x": -2.4968007907,
				"y": -0.7496299007,
				"z": 2.8741045787,
				"element": "H" 
			},
			{
				"x": -2.8775497722,
				"y": 0.1211435136,
				"z": 5.1646485717,
				"element": "H" 
			},
			{
				"x": -2.4090925626,
				"y": -1.5882929959,
				"z": 5.2068224977,
				"element": "H" 
			},
			{
				"x": 0.9861341274,
				"y": -0.537359866,
				"z": 6.1827121991,
				"element": "H" 
			},
			{
				"x": 0.6401178926,
				"y": 0.5263586053,
				"z": 4.8116771052,
				"element": "H" 
			},
			{
				"x": 1.4188075025,
				"y": -1.6943734359,
				"z": 4.0026007324,
				"element": "H" 
			},
			{
				"x": 0.1720502321,
				"y": -2.5009923409,
				"z": 4.9533798702,
				"element": "H" 
			}
		],
		 "valence_orbital": [ 
			{
				"type": "occ",
				"energy": -0.28208,
				"method": "rhf"
			},
			{
				"type": "occ",
				"energy": -0.27445,
				"method": "rhf"
			},
			{
				"type": "occ",
				"energy": -0.26916,
				"method": "rhf"
			},
			{
				"type": "occ",
				"energy": -0.26262,
				"method": "rhf"
			},
			{
				"type": "occ",
				"energy": -0.24657,
				"method": "rhf"
			},
			{
				"type": "unocc",
				"energy": -0.06329,
				"method": "rhf"
			},
			{
				"type": "unocc",
				"energy": -0.04832,
				"method": "rhf"
			},
			{
				"type": "unocc",
				"energy": 0.03524,
				"method": "rhf"
			},
			{
				"type": "unocc",
				"energy": 0.04743,
				"method": "rhf"
			},
			{
				"type": "unocc",
				"energy": 0.06163,
				"method": "rhf"
			}
		],
		"cosmo_sigma_profile": { 
			"-0.025": 0.0,
			"-0.024": 0.0,
			"-0.023": 0.0,
			"-0.022": 0.0,
			"-0.021": 0.0,
			"-0.02": 0.0,
			"-0.019": 0.0,
			"-0.018": 0.0,
			"-0.017": 0.0,
			"-0.016": 0.0,
			"-0.015": 0.0,
			"-0.014": 0.0,
			"-0.013": 0.0,
			"-0.012": 0.0,
			"-0.011": 0.0,
			"-0.01": 0.0127393062822,
			"-0.009": 0.465245741196,
			"-0.008": 4.36333304389,
			"-0.007": 9.75551739085,
			"-0.006": 20.017235255,
			"-0.005": 31.5888525601,
			"-0.004": 41.195513121,
			"-0.003": 51.0725939059,
			"-0.002": 42.310374103,
			"-0.001": 27.5373747632,
			"0.0": 25.9275248673,
			"0.001": 14.3514177855,
			"0.002": 8.05838682264,
			"0.003": 7.12285824596,
			"0.004": 6.46931895073,
			"0.005": 7.33352999527,
			"0.006": 7.65417800362,
			"0.007": 7.08311273294,
			"0.008": 7.44007510364,
			"0.009": 6.89982229187,
			"0.01": 10.6022748261,
			"0.011": 15.0475090964,
			"0.012": 12.2078473289,
			"0.013": 3.93890159989,
			"0.014": 0.978217828772,
			"0.015": 0.0,
			"0.016": 0.0,
			"0.017": 0.0,
			"0.018": 0.0,
			"0.019": 0.0,
			"0.02": 0.0,
			"0.021": 0.0,
			"0.022": 0.0,
			"0.023": 0.0,
			"0.024": 0.0,
			"0.025": 0.0
		}
	}
}
