{
	 "smiles": "FC(F)(F)C(=O)CC(=O)C1=CC=CO1", 
	 "Tm": 293.65, 
	 "num_atms": 19, 
	 "gaussian": { 
		 "optdone": 1, 
		 "sigma_profile": "yes", 
		 "theory": "DFT", 
		 "functional": "B3LYP", 
		 "basiset": "6-31G**", 
		 "properties": { 
			 "R2extent": 4282.726, 
			 "electric_dipole_moment_norm": 3.66412612774, 
			 "electric_quadrupole_moment_norm": 10.980425035, 
			 "total_energy": -833.012341039, 
			 "HOMO_LUMO_gap": 0.18323, 
			 "cosmo_polarized_energy": -10.99, 
			 "cosmo_cavitation_energy": 26.78, 
			 "cosmo_dispersion_energy": -18.19, 
			 "cosmo_repulsion_energy": 1.39, 
			 "cosmo_total_nonelectrostatic_energy": 9.98, 
			 "SMD_solvation_energy": 8.03 
		},
		"coords": [
			{
				"x": 0.5582007319,
				"y": -1.8382431593,
				"z": -4.810744228,
				"element": "F" 
			},
			{
				"x": 1.2130276584,
				"y": -1.9822756078,
				"z": -3.660893357,
				"element": "C" 
			},
			{
				"x": 2.4537715771,
				"y": -1.4643109752,
				"z": -3.7991724557,
				"element": "F" 
			},
			{
				"x": 1.3446868982,
				"y": -3.2995251494,
				"z": -3.3959706667,
				"element": "F" 
			},
			{
				"x": 0.4807963886,
				"y": -1.2799568202,
				"z": -2.4868935706,
				"element": "C" 
			},
			{
				"x": -0.5673949402,
				"y": -0.7170906152,
				"z": -2.6844648018,
				"element": "O" 
			},
			{
				"x": 1.1932498826,
				"y": -1.3879709974,
				"z": -1.1516311345,
				"element": "C" 
			},
			{
				"x": 0.3987006181,
				"y": -0.7697555339,
				"z": -0.0027902661,
				"element": "C" 
			},
			{
				"x": -0.1873971734,
				"y": -1.4700587172,
				"z": 0.8083196304,
				"element": "O" 
			},
			{
				"x": 0.3739041169,
				"y": 0.6866997337,
				"z": 0.0937306784,
				"element": "C" 
			},
			{
				"x": -0.2581721279,
				"y": 1.5312566285,
				"z": 0.9715184542,
				"element": "C" 
			},
			{
				"x": 0.073981866,
				"y": 2.8550222447,
				"z": 0.5695217456,
				"element": "C" 
			},
			{
				"x": 0.8858593256,
				"y": 2.7264275957,
				"z": -0.5238609183,
				"element": "C" 
			},
			{
				"x": 1.0816660068,
				"y": 1.4215708252,
				"z": -0.827389981,
				"element": "O" 
			},
			{
				"x": 2.1779163526,
				"y": -0.9175861853,
				"z": -1.2611905694,
				"element": "H" 
			},
			{
				"x": 1.3545172952,
				"y": -2.4470082061,
				"z": -0.925651391,
				"element": "H" 
			},
			{
				"x": -0.8836570331,
				"y": 1.2198720152,
				"z": 1.7947960668,
				"element": "H" 
			},
			{
				"x": -0.2446321451,
				"y": 3.7809682874,
				"z": 1.0256105107,
				"element": "H" 
			},
			{
				"x": 1.3812747019,
				"y": 3.4399646367,
				"z": -1.1646437461,
				"element": "H" 
			}
		],
		 "valence_orbital": [ 
			{
				"type": "occ",
				"energy": -0.38403,
				"method": "rhf"
			},
			{
				"type": "occ",
				"energy": -0.30194,
				"method": "rhf"
			},
			{
				"type": "occ",
				"energy": -0.29048,
				"method": "rhf"
			},
			{
				"type": "occ",
				"energy": -0.26502,
				"method": "rhf"
			},
			{
				"type": "occ",
				"energy": -0.25098,
				"method": "rhf"
			},
			{
				"type": "unocc",
				"energy": -0.06775,
				"method": "rhf"
			},
			{
				"type": "unocc",
				"energy": -0.0595,
				"method": "rhf"
			},
			{
				"type": "unocc",
				"energy": 0.02245,
				"method": "rhf"
			},
			{
				"type": "unocc",
				"energy": 0.07714,
				"method": "rhf"
			},
			{
				"type": "unocc",
				"energy": 0.1011,
				"method": "rhf"
			}
		],
		"cosmo_sigma_profile": { 
			"-0.025": 0.0,
			"-0.024": 0.0,
			"-0.023": 0.0,
			"-0.022": 0.0,
			"-0.021": 0.0,
			"-0.02": 0.0,
			"-0.019": 0.0,
			"-0.018": 0.0,
			"-0.017": 0.0,
			"-0.016": 0.0,
			"-0.015": 0.0,
			"-0.014": 0.0,
			"-0.013": 0.0,
			"-0.012": 0.0,
			"-0.011": 0.0696696038361,
			"-0.01": 1.86964829428,
			"-0.009": 3.69848148937,
			"-0.008": 9.06310334313,
			"-0.007": 10.5900898418,
			"-0.006": 12.9186387628,
			"-0.005": 10.301469239,
			"-0.004": 9.73632504588,
			"-0.003": 8.48947497587,
			"-0.002": 10.4849232804,
			"-0.001": 11.2247918177,
			"0.0": 15.6891741972,
			"0.001": 25.8625073583,
			"0.002": 35.2837197352,
			"0.003": 12.3482381917,
			"0.004": 6.19133813727,
			"0.005": 4.40816934493,
			"0.006": 3.2145796204,
			"0.007": 4.11502857887,
			"0.008": 4.76536697831,
			"0.009": 5.13508322628,
			"0.01": 2.64689253014,
			"0.011": 4.42123387449,
			"0.012": 2.88021807131,
			"0.013": 0.20446280638,
			"0.014": 0.0,
			"0.015": 0.0,
			"0.016": 0.0,
			"0.017": 0.0,
			"0.018": 0.0,
			"0.019": 0.0,
			"0.02": 0.0,
			"0.021": 0.0,
			"0.022": 0.0,
			"0.023": 0.0,
			"0.024": 0.0,
			"0.025": 0.0
		}
	}
}
