{
	 "smiles": "OC(=O)C1=CN=C(S1)C1CC1", 
	 "Tm": 461.15, 
	 "num_atms": 18, 
	 "gaussian": { 
		 "optdone": 1, 
		 "sigma_profile": "yes", 
		 "theory": "DFT", 
		 "functional": "B3LYP", 
		 "basiset": "6-31G**", 
		 "properties": { 
			 "R2extent": 2938.2698, 
			 "electric_dipole_moment_norm": 5.53931055186, 
			 "electric_quadrupole_moment_norm": 14.510907719, 
			 "total_energy": -874.318484442, 
			 "HOMO_LUMO_gap": 0.18357, 
			 "cosmo_polarized_energy": -14.21, 
			 "cosmo_cavitation_energy": 24.26, 
			 "cosmo_dispersion_energy": -18.4, 
			 "cosmo_repulsion_energy": 1.44, 
			 "cosmo_total_nonelectrostatic_energy": 7.3, 
			 "SMD_solvation_energy": 3.61 
		},
		"coords": [
			{
				"x": -4.061892435,
				"y": -0.8192366854,
				"z": -0.0747454042,
				"element": "O" 
			},
			{
				"x": -3.3536337618,
				"y": -0.1900472091,
				"z": -1.0497053365,
				"element": "C" 
			},
			{
				"x": -3.7823469026,
				"y": -0.1503961963,
				"z": -2.1796738597,
				"element": "O" 
			},
			{
				"x": -2.064023987,
				"y": 0.4298335533,
				"z": -0.6750775162,
				"element": "C" 
			},
			{
				"x": -1.2447104892,
				"y": 1.1001298723,
				"z": -1.5500687249,
				"element": "C" 
			},
			{
				"x": -0.0879319815,
				"y": 1.6130363705,
				"z": -1.0395422306,
				"element": "N" 
			},
			{
				"x": 0.028880169,
				"y": 1.3602307889,
				"z": 0.2386267256,
				"element": "C" 
			},
			{
				"x": -1.3204300583,
				"y": 0.4469764855,
				"z": 0.9109097331,
				"element": "S" 
			},
			{
				"x": 1.1619085698,
				"y": 1.7772423303,
				"z": 1.0813354128,
				"element": "C" 
			},
			{
				"x": 1.8474898785,
				"y": 3.1040181756,
				"z": 0.7808566351,
				"element": "C" 
			},
			{
				"x": 2.5536696785,
				"y": 1.8257379153,
				"z": 0.4638822558,
				"element": "C" 
			},
			{
				"x": -3.6119204071,
				"y": -0.7778874492,
				"z": 0.7809823069,
				"element": "H" 
			},
			{
				"x": -1.4847887332,
				"y": 1.2278418921,
				"z": -2.5986703767,
				"element": "H" 
			},
			{
				"x": 1.0943801667,
				"y": 1.4815470906,
				"z": 2.1234566398,
				"element": "H" 
			},
			{
				"x": 2.1763061358,
				"y": 3.6908792806,
				"z": 1.6328315902,
				"element": "H" 
			},
			{
				"x": 1.4398556075,
				"y": 3.6730012857,
				"z": -0.0479122048,
				"element": "H" 
			},
			{
				"x": 3.3808934292,
				"y": 1.5104553695,
				"z": 1.0921150349,
				"element": "H" 
			},
			{
				"x": 2.6218951206,
				"y": 1.5332371296,
				"z": -0.5785006805,
				"element": "H" 
			}
		],
		 "valence_orbital": [ 
			{
				"type": "occ",
				"energy": -0.31758,
				"method": "rhf"
			},
			{
				"type": "occ",
				"energy": -0.30209,
				"method": "rhf"
			},
			{
				"type": "occ",
				"energy": -0.29192,
				"method": "rhf"
			},
			{
				"type": "occ",
				"energy": -0.27861,
				"method": "rhf"
			},
			{
				"type": "occ",
				"energy": -0.24945,
				"method": "rhf"
			},
			{
				"type": "unocc",
				"energy": -0.06588,
				"method": "rhf"
			},
			{
				"type": "unocc",
				"energy": -0.02,
				"method": "rhf"
			},
			{
				"type": "unocc",
				"energy": 0.00484,
				"method": "rhf"
			},
			{
				"type": "unocc",
				"energy": 0.05637,
				"method": "rhf"
			},
			{
				"type": "unocc",
				"energy": 0.08168,
				"method": "rhf"
			}
		],
		"cosmo_sigma_profile": { 
			"-0.025": 0.0,
			"-0.024": 0.0,
			"-0.023": 0.0,
			"-0.022": 0.0,
			"-0.021": 0.0,
			"-0.02": 0.0,
			"-0.019": 0.166441832337,
			"-0.018": 0.600400386382,
			"-0.017": 0.892305020553,
			"-0.016": 0.877344448408,
			"-0.015": 0.712415602396,
			"-0.014": 0.914184021907,
			"-0.013": 1.35975777933,
			"-0.012": 1.36862044262,
			"-0.011": 0.771573691855,
			"-0.01": 0.779682006981,
			"-0.009": 1.61719424571,
			"-0.008": 3.93233506344,
			"-0.007": 4.23320131734,
			"-0.006": 10.0497673377,
			"-0.005": 11.4339453758,
			"-0.004": 10.581992478,
			"-0.003": 11.1662198159,
			"-0.002": 13.5655258143,
			"-0.001": 17.8339204341,
			"0.0": 20.2071190788,
			"0.001": 19.4104867091,
			"0.002": 13.8504340205,
			"0.003": 7.07342918136,
			"0.004": 5.36303320367,
			"0.005": 3.5257683901,
			"0.006": 3.52675758415,
			"0.007": 4.61946037918,
			"0.008": 3.42247977693,
			"0.009": 3.58894377584,
			"0.01": 6.14260293391,
			"0.011": 6.06519087582,
			"0.012": 4.83382946169,
			"0.013": 1.59739579981,
			"0.014": 0.0,
			"0.015": 0.0,
			"0.016": 0.0,
			"0.017": 0.0,
			"0.018": 0.0,
			"0.019": 0.0,
			"0.02": 0.0,
			"0.021": 0.0,
			"0.022": 0.0,
			"0.023": 0.0,
			"0.024": 0.0,
			"0.025": 0.0
		}
	}
}
