{
	 "smiles": "CCC(C)CN1C(O)=NN=C1S", 
	 "Tm": 422.15, 
	 "num_atms": 25, 
	 "gaussian": { 
		 "optdone": 1, 
		 "sigma_profile": "yes", 
		 "theory": "DFT", 
		 "functional": "B3LYP", 
		 "basiset": "6-31G**", 
		 "properties": { 
			 "R2extent": 3069.2539, 
			 "electric_dipole_moment_norm": 3.98745896656, 
			 "electric_quadrupole_moment_norm": 13.4637636536, 
			 "total_energy": -912.226088583, 
			 "HOMO_LUMO_gap": 0.22372, 
			 "cosmo_polarized_energy": -15.47, 
			 "cosmo_cavitation_energy": 29.15, 
			 "cosmo_dispersion_energy": -20.93, 
			 "cosmo_repulsion_energy": 1.64, 
			 "cosmo_total_nonelectrostatic_energy": 9.86, 
			 "SMD_solvation_energy": 2.97 
		},
		"coords": [
			{
				"x": -1.9837390342,
				"y": 2.546558861,
				"z": -0.7462737581,
				"element": "C" 
			},
			{
				"x": -1.104325182,
				"y": 1.6136587094,
				"z": -1.5906096354,
				"element": "C" 
			},
			{
				"x": -0.3634709464,
				"y": 0.4945085229,
				"z": -0.8231595317,
				"element": "C" 
			},
			{
				"x": -1.3167579466,
				"y": -0.4844047606,
				"z": -0.1231617507,
				"element": "C" 
			},
			{
				"x": 0.6635701207,
				"y": 1.0999602996,
				"z": 0.1554549158,
				"element": "C" 
			},
			{
				"x": 1.5421846976,
				"y": 0.1106901641,
				"z": 0.7804458289,
				"element": "N" 
			},
			{
				"x": 1.4592462933,
				"y": -0.4048971726,
				"z": 2.0456204626,
				"element": "C" 
			},
			{
				"x": 0.470805228,
				"y": -0.013162956,
				"z": 2.869248324,
				"element": "O" 
			},
			{
				"x": 2.411684314,
				"y": -1.2556771034,
				"z": 2.304763288,
				"element": "N" 
			},
			{
				"x": 3.1936324413,
				"y": -1.3329890878,
				"z": 1.1502908299,
				"element": "N" 
			},
			{
				"x": 2.6627253701,
				"y": -0.5214900577,
				"z": 0.2738222114,
				"element": "C" 
			},
			{
				"x": 3.2683137785,
				"y": -0.2044151518,
				"z": -1.3588106224,
				"element": "S" 
			},
			{
				"x": -1.4043713395,
				"y": 3.099975654,
				"z": 0.0005086414,
				"element": "H" 
			},
			{
				"x": -2.4747524547,
				"y": 3.2868003948,
				"z": -1.3857721066,
				"element": "H" 
			},
			{
				"x": -2.7699750621,
				"y": 1.9987001466,
				"z": -0.2177795355,
				"element": "H" 
			},
			{
				"x": -1.7266000918,
				"y": 1.1364809401,
				"z": -2.3577303194,
				"element": "H" 
			},
			{
				"x": -0.3639050311,
				"y": 2.2144286958,
				"z": -2.1356962967,
				"element": "H" 
			},
			{
				"x": 0.2049805735,
				"y": -0.0725871215,
				"z": -1.5732828377,
				"element": "H" 
			},
			{
				"x": -2.0438130907,
				"y": -0.8875900364,
				"z": -0.8357028262,
				"element": "H" 
			},
			{
				"x": -1.8702241422,
				"y": -0.0028298753,
				"z": 0.6894267292,
				"element": "H" 
			},
			{
				"x": -0.7719346218,
				"y": -1.3300869424,
				"z": 0.3063096747,
				"element": "H" 
			},
			{
				"x": 1.2986230574,
				"y": 1.8268217047,
				"z": -0.3633185346,
				"element": "H" 
			},
			{
				"x": 0.161110734,
				"y": 1.6234126574,
				"z": 0.9723773694,
				"element": "H" 
			},
			{
				"x": 0.614311659,
				"y": -0.4787769401,
				"z": 3.7069960204,
				"element": "H" 
			},
			{
				"x": 4.4062806758,
				"y": -0.8893895449,
				"z": -1.1391665409,
				"element": "H" 
			}
		],
		 "valence_orbital": [ 
			{
				"type": "occ",
				"energy": -0.30645,
				"method": "rhf"
			},
			{
				"type": "occ",
				"energy": -0.29661,
				"method": "rhf"
			},
			{
				"type": "occ",
				"energy": -0.28042,
				"method": "rhf"
			},
			{
				"type": "occ",
				"energy": -0.25746,
				"method": "rhf"
			},
			{
				"type": "occ",
				"energy": -0.21772,
				"method": "rhf"
			},
			{
				"type": "unocc",
				"energy": 0.006,
				"method": "rhf"
			},
			{
				"type": "unocc",
				"energy": 0.02959,
				"method": "rhf"
			},
			{
				"type": "unocc",
				"energy": 0.05398,
				"method": "rhf"
			},
			{
				"type": "unocc",
				"energy": 0.06166,
				"method": "rhf"
			},
			{
				"type": "unocc",
				"energy": 0.06852,
				"method": "rhf"
			}
		],
		"cosmo_sigma_profile": { 
			"-0.025": 0.0,
			"-0.024": 0.0,
			"-0.023": 0.0,
			"-0.022": 0.0,
			"-0.021": 0.0,
			"-0.02": 0.102934003711,
			"-0.019": 0.745483176698,
			"-0.018": 0.891455515038,
			"-0.017": 1.02379794953,
			"-0.016": 0.634427942556,
			"-0.015": 0.703756273385,
			"-0.014": 0.84826244173,
			"-0.013": 0.37822268617,
			"-0.012": 2.24584740511,
			"-0.011": 1.86808847142,
			"-0.01": 1.98010365884,
			"-0.009": 1.63031811267,
			"-0.008": 2.02654461277,
			"-0.007": 2.00832321275,
			"-0.006": 4.3972522158,
			"-0.005": 8.875911373,
			"-0.004": 11.7370298296,
			"-0.003": 24.7817796991,
			"-0.002": 28.4281234792,
			"-0.001": 25.3675275261,
			"0.0": 24.9678638033,
			"0.001": 21.6540479638,
			"0.002": 11.3411832196,
			"0.003": 6.80918679785,
			"0.004": 6.92706810314,
			"0.005": 5.93917988527,
			"0.006": 5.79347061625,
			"0.007": 4.07994845706,
			"0.008": 1.72804354546,
			"0.009": 1.39620680062,
			"0.01": 2.13478763096,
			"0.011": 2.21902143661,
			"0.012": 2.67468588439,
			"0.013": 3.20414726089,
			"0.014": 3.64602520944,
			"0.015": 2.90309942963,
			"0.016": 2.0835848376,
			"0.017": 0.598761053025,
			"0.018": 0.0,
			"0.019": 0.0,
			"0.02": 0.0,
			"0.021": 0.0,
			"0.022": 0.0,
			"0.023": 0.0,
			"0.024": 0.0,
			"0.025": 0.0
		}
	}
}
