{
	 "smiles": "CC(C)NC(=O)NC1=CC=C(CN)C=C1", 
	 "Tm": 407.15, 
	 "num_atms": 32, 
	 "gaussian": { 
		 "optdone": 1, 
		 "sigma_profile": "yes", 
		 "theory": "DFT", 
		 "functional": "B3LYP", 
		 "basiset": "6-31G**", 
		 "properties": { 
			 "R2extent": 5438.2452, 
			 "electric_dipole_moment_norm": 5.25846730236, 
			 "electric_quadrupole_moment_norm": 4.36285599808, 
			 "total_energy": -668.928335394, 
			 "HOMO_LUMO_gap": 0.20668, 
			 "cosmo_polarized_energy": -18.06, 
			 "cosmo_cavitation_energy": 34.92, 
			 "cosmo_dispersion_energy": -24.8, 
			 "cosmo_repulsion_energy": 1.97, 
			 "cosmo_total_nonelectrostatic_energy": 12.09, 
			 "SMD_solvation_energy": 4.64 
		},
		"coords": [
			{
				"x": 2.286256558,
				"y": 1.431645168,
				"z": -2.6256860071,
				"element": "C" 
			},
			{
				"x": 1.5354843333,
				"y": 0.1719835257,
				"z": -3.0884558035,
				"element": "C" 
			},
			{
				"x": 1.9509131269,
				"y": -0.2514539366,
				"z": -4.5009690834,
				"element": "C" 
			},
			{
				"x": 0.0790794901,
				"y": 0.3356633059,
				"z": -3.0651258523,
				"element": "N" 
			},
			{
				"x": -0.7407038675,
				"y": 0.5225074754,
				"z": -1.9618186156,
				"element": "C" 
			},
			{
				"x": -1.856293639,
				"y": 1.0172988423,
				"z": -2.0824571049,
				"element": "O" 
			},
			{
				"x": -0.2115821178,
				"y": 0.0743717177,
				"z": -0.7619579059,
				"element": "N" 
			},
			{
				"x": -0.8169019278,
				"y": 0.0789406394,
				"z": 0.51101202,
				"element": "C" 
			},
			{
				"x": -2.0949238745,
				"y": 0.6003981048,
				"z": 0.7677830936,
				"element": "C" 
			},
			{
				"x": -2.6016169011,
				"y": 0.5610825287,
				"z": 2.0657150894,
				"element": "C" 
			},
			{
				"x": -1.8801937111,
				"y": 0.0184735943,
				"z": 3.1368353706,
				"element": "C" 
			},
			{
				"x": -2.429346346,
				"y": 0.0457807157,
				"z": 4.5514368762,
				"element": "C" 
			},
			{
				"x": -2.1414860865,
				"y": 1.2664211358,
				"z": 5.3270896735,
				"element": "N" 
			},
			{
				"x": -0.6099614935,
				"y": -0.5032475354,
				"z": 2.8604677524,
				"element": "C" 
			},
			{
				"x": -0.083076747,
				"y": -0.4741637623,
				"z": 1.573046695,
				"element": "C" 
			},
			{
				"x": 2.0857883082,
				"y": 2.2657012744,
				"z": -3.3068552569,
				"element": "H" 
			},
			{
				"x": 1.9714559363,
				"y": 1.7335396187,
				"z": -1.6225644227,
				"element": "H" 
			},
			{
				"x": 3.3675302002,
				"y": 1.2576801203,
				"z": -2.608338364,
				"element": "H" 
			},
			{
				"x": 1.7914503549,
				"y": -0.6611868975,
				"z": -2.4177015156,
				"element": "H" 
			},
			{
				"x": 1.4313352838,
				"y": -1.1645116548,
				"z": -4.8039403896,
				"element": "H" 
			},
			{
				"x": 3.0288807822,
				"y": -0.4295892167,
				"z": -4.5481556377,
				"element": "H" 
			},
			{
				"x": 1.7129253015,
				"y": 0.5368720263,
				"z": -5.2252863347,
				"element": "H" 
			},
			{
				"x": -0.3280947138,
				"y": 0.7849262617,
				"z": -3.8754341745,
				"element": "H" 
			},
			{
				"x": 0.6855448615,
				"y": -0.3846763334,
				"z": -0.798961939,
				"element": "H" 
			},
			{
				"x": -2.6695203121,
				"y": 1.0153024341,
				"z": -0.0478467869,
				"element": "H" 
			},
			{
				"x": -3.5975354125,
				"y": 0.9618523494,
				"z": 2.2447871459,
				"element": "H" 
			},
			{
				"x": -3.5183458932,
				"y": -0.0769638158,
				"z": 4.5270025204,
				"element": "H" 
			},
			{
				"x": -2.0319184718,
				"y": -0.8046574572,
				"z": 5.117810951,
				"element": "H" 
			},
			{
				"x": -1.1331430949,
				"y": 1.4092913552,
				"z": 5.3542939324,
				"element": "H" 
			},
			{
				"x": -2.5117414186,
				"y": 2.0712120862,
				"z": 4.8240425465,
				"element": "H" 
			},
			{
				"x": -0.0230385164,
				"y": -0.9454287564,
				"z": 3.6628465183,
				"element": "H" 
			},
			{
				"x": 0.9050800083,
				"y": -0.8905649139,
				"z": 1.3859850094,
				"element": "H" 
			}
		],
		 "valence_orbital": [ 
			{
				"type": "occ",
				"energy": -0.2603,
				"method": "rhf"
			},
			{
				"type": "occ",
				"energy": -0.24929,
				"method": "rhf"
			},
			{
				"type": "occ",
				"energy": -0.24564,
				"method": "rhf"
			},
			{
				"type": "occ",
				"energy": -0.23534,
				"method": "rhf"
			},
			{
				"type": "occ",
				"energy": -0.20549,
				"method": "rhf"
			},
			{
				"type": "unocc",
				"energy": 0.00119,
				"method": "rhf"
			},
			{
				"type": "unocc",
				"energy": 0.00278,
				"method": "rhf"
			},
			{
				"type": "unocc",
				"energy": 0.05551,
				"method": "rhf"
			},
			{
				"type": "unocc",
				"energy": 0.06772,
				"method": "rhf"
			},
			{
				"type": "unocc",
				"energy": 0.07985,
				"method": "rhf"
			}
		],
		"cosmo_sigma_profile": { 
			"-0.025": 0.0,
			"-0.024": 0.0,
			"-0.023": 0.0,
			"-0.022": 0.0,
			"-0.021": 0.0,
			"-0.02": 0.0,
			"-0.019": 0.0,
			"-0.018": 0.0,
			"-0.017": 0.0,
			"-0.016": 0.0,
			"-0.015": 0.0858291721307,
			"-0.014": 0.928398817313,
			"-0.013": 1.25953955133,
			"-0.012": 2.13557840281,
			"-0.011": 2.19189406235,
			"-0.01": 2.51166461151,
			"-0.009": 4.0743626251,
			"-0.008": 5.66766777353,
			"-0.007": 6.0443518437,
			"-0.006": 7.70032310141,
			"-0.005": 13.8548015673,
			"-0.004": 23.306520559,
			"-0.003": 27.5067957479,
			"-0.002": 23.1387821514,
			"-0.001": 23.2870639303,
			"0.0": 25.7321078315,
			"0.001": 17.445380979,
			"0.002": 9.41660934816,
			"0.003": 11.8089545654,
			"0.004": 12.5733560375,
			"0.005": 12.5734645158,
			"0.006": 11.4832866458,
			"0.007": 4.52066968358,
			"0.008": 2.95469937821,
			"0.009": 2.28978863229,
			"0.01": 2.11223744142,
			"0.011": 2.0766342718,
			"0.012": 2.25194339125,
			"0.013": 3.47918254065,
			"0.014": 4.63897139068,
			"0.015": 1.50249376236,
			"0.016": 0.743964935473,
			"0.017": 0.459124567447,
			"0.018": 0.631457006245,
			"0.019": 0.877352783031,
			"0.02": 0.332745535298,
			"0.021": 0.0,
			"0.022": 0.0,
			"0.023": 0.0,
			"0.024": 0.0,
			"0.025": 0.0
		}
	}
}
