{
	 "smiles": "CC(C)(O)CCl", 
	 "Tm": 253.15, 
	 "num_atms": 15, 
	 "gaussian": { 
		 "optdone": 1, 
		 "sigma_profile": "yes", 
		 "theory": "DFT", 
		 "functional": "B3LYP", 
		 "basiset": "6-31G**", 
		 "properties": { 
			 "R2extent": 1417.6452, 
			 "electric_dipole_moment_norm": 1.68142756014, 
			 "electric_quadrupole_moment_norm": 5.93026438028, 
			 "total_energy": -693.276499785, 
			 "HOMO_LUMO_gap": 0.29152, 
			 "cosmo_polarized_energy": -6.43, 
			 "cosmo_cavitation_energy": 18.73, 
			 "cosmo_dispersion_energy": -13.93, 
			 "cosmo_repulsion_energy": 1.19, 
			 "cosmo_total_nonelectrostatic_energy": 5.99, 
			 "SMD_solvation_energy": 3.11 
		},
		"coords": [
			{
				"x": 2.3229575606,
				"y": -0.7501202263,
				"z": 0.4279697858,
				"element": "C" 
			},
			{
				"x": 0.9148962528,
				"y": -1.2629615406,
				"z": 0.0987830225,
				"element": "C" 
			},
			{
				"x": -0.1465881351,
				"y": -0.2120441778,
				"z": 0.453773859,
				"element": "C" 
			},
			{
				"x": 0.7433485392,
				"y": -2.4364523799,
				"z": 0.887678496,
				"element": "O" 
			},
			{
				"x": 0.8898326017,
				"y": -1.628382758,
				"z": -1.3964312274,
				"element": "C" 
			},
			{
				"x": -0.6814272045,
				"y": -2.4115754089,
				"z": -1.8977862108,
				"element": "Cl" 
			},
			{
				"x": 2.3812613119,
				"y": -0.5154928218,
				"z": 1.4942035445,
				"element": "H" 
			},
			{
				"x": 3.0716225323,
				"y": -1.5166897668,
				"z": 0.2086033169,
				"element": "H" 
			},
			{
				"x": 2.5610166005,
				"y": 0.1537799095,
				"z": -0.1406392719,
				"element": "H" 
			},
			{
				"x": 0.0045909192,
				"y": 0.7168373853,
				"z": -0.1066026107,
				"element": "H" 
			},
			{
				"x": -1.1527739203,
				"y": -0.5793439502,
				"z": 0.2318092044,
				"element": "H" 
			},
			{
				"x": -0.0901457887,
				"y": 0.0130681232,
				"z": 1.5221297924,
				"element": "H" 
			},
			{
				"x": -0.110393532,
				"y": -2.8247716451,
				"z": 0.6469193212,
				"element": "H" 
			},
			{
				"x": 1.665107754,
				"y": -2.3618979691,
				"z": -1.6191576507,
				"element": "H" 
			},
			{
				"x": 1.0094945082,
				"y": -0.7512527733,
				"z": -2.0341533713,
				"element": "H" 
			}
		],
		 "valence_orbital": [ 
			{
				"type": "occ",
				"energy": -0.3639,
				"method": "rhf"
			},
			{
				"type": "occ",
				"energy": -0.32895,
				"method": "rhf"
			},
			{
				"type": "occ",
				"energy": -0.30743,
				"method": "rhf"
			},
			{
				"type": "occ",
				"energy": -0.30096,
				"method": "rhf"
			},
			{
				"type": "occ",
				"energy": -0.2721,
				"method": "rhf"
			},
			{
				"type": "unocc",
				"energy": 0.01942,
				"method": "rhf"
			},
			{
				"type": "unocc",
				"energy": 0.07191,
				"method": "rhf"
			},
			{
				"type": "unocc",
				"energy": 0.10775,
				"method": "rhf"
			},
			{
				"type": "unocc",
				"energy": 0.12593,
				"method": "rhf"
			},
			{
				"type": "unocc",
				"energy": 0.13952,
				"method": "rhf"
			}
		],
		"cosmo_sigma_profile": { 
			"-0.025": 0.0,
			"-0.024": 0.0,
			"-0.023": 0.0,
			"-0.022": 0.0,
			"-0.021": 0.0,
			"-0.02": 0.0,
			"-0.019": 0.0,
			"-0.018": 0.0,
			"-0.017": 0.0,
			"-0.016": 0.0,
			"-0.015": 0.0,
			"-0.014": 0.0,
			"-0.013": 0.242797000224,
			"-0.012": 0.599707975964,
			"-0.011": 0.769352792016,
			"-0.01": 0.677687776098,
			"-0.009": 0.599216152308,
			"-0.008": 0.506489122156,
			"-0.007": 4.41715927065,
			"-0.006": 6.48048428517,
			"-0.005": 7.43259495748,
			"-0.004": 12.6159918191,
			"-0.003": 14.3225434214,
			"-0.002": 13.2169008934,
			"-0.001": 11.5473383544,
			"0.0": 17.4877470126,
			"0.001": 11.622700238,
			"0.002": 6.33361489476,
			"0.003": 6.09418130609,
			"0.004": 6.0756411006,
			"0.005": 6.21803767137,
			"0.006": 7.55814805526,
			"0.007": 3.0911931532,
			"0.008": 1.00022221212,
			"0.009": 1.48600679904,
			"0.01": 0.850661514328,
			"0.011": 1.08235786132,
			"0.012": 1.63932081068,
			"0.013": 1.56409748062,
			"0.014": 1.75749346445,
			"0.015": 0.0636399631801,
			"0.016": 0.0,
			"0.017": 0.0,
			"0.018": 0.0,
			"0.019": 0.0,
			"0.02": 0.0,
			"0.021": 0.0,
			"0.022": 0.0,
			"0.023": 0.0,
			"0.024": 0.0,
			"0.025": 0.0
		}
	}
}
