{
	 "smiles": "OC1=CC=C2C(=O)C3=C(C=CC(O)=C3O)C(=O)C2=C1O", 
	 "Tm": 613.15, 
	 "num_atms": 28, 
	 "gaussian": { 
		 "optdone": 1, 
		 "sigma_profile": "yes", 
		 "theory": "DFT", 
		 "functional": "B3LYP", 
		 "basiset": "6-31G**", 
		 "properties": { 
			 "R2extent": 6187.4967, 
			 "electric_dipole_moment_norm": 0.000728010988928, 
			 "electric_quadrupole_moment_norm": 37.5237013106, 
			 "total_energy": -989.676852496, 
			 "HOMO_LUMO_gap": 0.11569, 
			 "cosmo_polarized_energy": -22.04, 
			 "cosmo_cavitation_energy": 32.34, 
			 "cosmo_dispersion_energy": -24.99, 
			 "cosmo_repulsion_energy": 1.82, 
			 "cosmo_total_nonelectrostatic_energy": 9.18, 
			 "SMD_solvation_energy": 7.25 
		},
		"coords": [
			{
				"x": -2.9682999657,
				"y": -3.7849937368,
				"z": -1.5515079814,
				"element": "O" 
			},
			{
				"x": -2.1944195729,
				"y": -2.8052717974,
				"z": -1.0261033063,
				"element": "C" 
			},
			{
				"x": -1.8372623439,
				"y": -2.7345501016,
				"z": 0.3161054983,
				"element": "C" 
			},
			{
				"x": -1.0340241355,
				"y": -1.694224224,
				"z": 0.7935909095,
				"element": "C" 
			},
			{
				"x": -0.5784028058,
				"y": -0.7088949269,
				"z": -0.0750941976,
				"element": "C" 
			},
			{
				"x": 0.2675916543,
				"y": 0.3810400748,
				"z": 0.4442211576,
				"element": "C" 
			},
			{
				"x": 0.5780152083,
				"y": 0.4277394874,
				"z": 1.6538155676,
				"element": "O" 
			},
			{
				"x": 0.7344176056,
				"y": 1.4084319093,
				"z": -0.4962004138,
				"element": "C" 
			},
			{
				"x": 0.3822649405,
				"y": 1.3572843118,
				"z": -1.8727388171,
				"element": "C" 
			},
			{
				"x": 0.8377312834,
				"y": 2.3427167581,
				"z": -2.7413879358,
				"element": "C" 
			},
			{
				"x": 1.6408572235,
				"y": 3.3831175798,
				"z": -2.2638768756,
				"element": "C" 
			},
			{
				"x": 1.9980723954,
				"y": 3.4538010684,
				"z": -0.9216815464,
				"element": "C" 
			},
			{
				"x": 2.7718812127,
				"y": 4.4335706994,
				"z": -0.3962603073,
				"element": "O" 
			},
			{
				"x": 1.5440517938,
				"y": 2.4563612879,
				"z": -0.0123908155,
				"element": "C" 
			},
			{
				"x": 1.9113527301,
				"y": 2.5646805286,
				"z": 1.2646329855,
				"element": "O" 
			},
			{
				"x": -0.4636222742,
				"y": 0.2672776966,
				"z": -2.3920788692,
				"element": "C" 
			},
			{
				"x": -0.7744108239,
				"y": 0.2208204118,
				"z": -3.6015887384,
				"element": "O" 
			},
			{
				"x": -0.9305218674,
				"y": -0.7600644137,
				"z": -1.4516399963,
				"element": "C" 
			},
			{
				"x": -1.7402335847,
				"y": -1.8079419546,
				"z": -1.9354318878,
				"element": "C" 
			},
			{
				"x": -2.1074110042,
				"y": -1.9163427708,
				"z": -3.2124844483,
				"element": "O" 
			},
			{
				"x": -3.218136157,
				"y": -4.4031702049,
				"z": -0.8516594954,
				"element": "H" 
			},
			{
				"x": -2.1915911528,
				"y": -3.5034923469,
				"z": 0.9994475941,
				"element": "H" 
			},
			{
				"x": -0.7557413814,
				"y": -1.6392302605,
				"z": 1.8395671381,
				"element": "H" 
			},
			{
				"x": 0.5594156936,
				"y": 2.2877445242,
				"z": -3.7873566349,
				"element": "H" 
			},
			{
				"x": 1.995066196,
				"y": 4.1521393678,
				"z": -2.9471916156,
				"element": "H" 
			},
			{
				"x": 3.0216182504,
				"y": 5.0518130106,
				"z": -1.0960860152,
				"element": "H" 
			},
			{
				"x": 1.4984632574,
				"y": 1.7835894999,
				"z": 1.7279191766,
				"element": "H" 
			},
			{
				"x": -1.6942223757,
				"y": -1.1354514782,
				"z": -3.6758401294,
				"element": "H" 
			}
		],
		 "valence_orbital": [ 
			{
				"type": "occ",
				"energy": -0.27181,
				"method": "rhf"
			},
			{
				"type": "occ",
				"energy": -0.26405,
				"method": "rhf"
			},
			{
				"type": "occ",
				"energy": -0.2558,
				"method": "rhf"
			},
			{
				"type": "occ",
				"energy": -0.22897,
				"method": "rhf"
			},
			{
				"type": "occ",
				"energy": -0.22055,
				"method": "rhf"
			},
			{
				"type": "unocc",
				"energy": -0.10486,
				"method": "rhf"
			},
			{
				"type": "unocc",
				"energy": -0.05111,
				"method": "rhf"
			},
			{
				"type": "unocc",
				"energy": -0.01529,
				"method": "rhf"
			},
			{
				"type": "unocc",
				"energy": 0.00076,
				"method": "rhf"
			},
			{
				"type": "unocc",
				"energy": 0.05328,
				"method": "rhf"
			}
		],
		"cosmo_sigma_profile": { 
			"-0.025": 0.0,
			"-0.024": 0.0,
			"-0.023": 0.0,
			"-0.022": 0.0,
			"-0.021": 0.0,
			"-0.02": 0.0,
			"-0.019": 1.05427864217,
			"-0.018": 3.35784298683,
			"-0.017": 2.04305892711,
			"-0.016": 2.32871132103,
			"-0.015": 2.46665164395,
			"-0.014": 2.04057818647,
			"-0.013": 2.11706950871,
			"-0.012": 1.50428709244,
			"-0.011": 2.08444336937,
			"-0.01": 2.54216221358,
			"-0.009": 2.18909945917,
			"-0.008": 3.75116932498,
			"-0.007": 5.03429230364,
			"-0.006": 9.94158741011,
			"-0.005": 6.98717724438,
			"-0.004": 9.53912197551,
			"-0.003": 15.8594144685,
			"-0.002": 16.4810333165,
			"-0.001": 21.8806971049,
			"0.0": 25.2068307385,
			"0.001": 25.6595508075,
			"0.002": 20.4022128692,
			"0.003": 10.6904108986,
			"0.004": 6.18411429888,
			"0.005": 8.04262684353,
			"0.006": 6.82046464593,
			"0.007": 7.3201948294,
			"0.008": 7.030472027,
			"0.009": 7.68546304223,
			"0.01": 8.58541531768,
			"0.011": 6.53137756423,
			"0.012": 4.05879081057,
			"0.013": 3.11096076111,
			"0.014": 0.112882423252,
			"0.015": 0.0,
			"0.016": 0.0,
			"0.017": 0.0,
			"0.018": 0.0,
			"0.019": 0.0,
			"0.02": 0.0,
			"0.021": 0.0,
			"0.022": 0.0,
			"0.023": 0.0,
			"0.024": 0.0,
			"0.025": 0.0
		}
	}
}
