{
	 "smiles": "CS(=O)(=O)N1CCC2=C(C1)C=CC=C2N", 
	 "Tm": 429.15, 
	 "num_atms": 29, 
	 "gaussian": { 
		 "optdone": 1, 
		 "sigma_profile": "yes", 
		 "theory": "DFT", 
		 "functional": "B3LYP", 
		 "basiset": "6-31G**", 
		 "properties": { 
			 "R2extent": 4614.6696, 
			 "electric_dipole_moment_norm": 5.61398902297, 
			 "electric_quadrupole_moment_norm": 9.51781664406, 
			 "total_energy": -1047.58155716, 
			 "HOMO_LUMO_gap": 0.20707, 
			 "cosmo_polarized_energy": -18.62, 
			 "cosmo_cavitation_energy": 31.98, 
			 "cosmo_dispersion_energy": -23.87, 
			 "cosmo_repulsion_energy": 1.8, 
			 "cosmo_total_nonelectrostatic_energy": 9.91, 
			 "SMD_solvation_energy": 3.44 
		},
		"coords": [
			{
				"x": 3.4997441542,
				"y": -0.3286232689,
				"z": 0.4438040668,
				"element": "C" 
			},
			{
				"x": 2.3400590078,
				"y": -1.5051061117,
				"z": 1.1632594329,
				"element": "S" 
			},
			{
				"x": 2.1935035825,
				"y": -1.1677781702,
				"z": 2.5854869282,
				"element": "O" 
			},
			{
				"x": 2.7447051501,
				"y": -2.8529417836,
				"z": 0.7522801026,
				"element": "O" 
			},
			{
				"x": 0.9181423581,
				"y": -1.127320049,
				"z": 0.3082266409,
				"element": "N" 
			},
			{
				"x": 0.0637694884,
				"y": -0.0956703905,
				"z": 0.9209900458,
				"element": "C" 
			},
			{
				"x": -0.814546991,
				"y": 0.5161475543,
				"z": -0.1710615431,
				"element": "C" 
			},
			{
				"x": -1.4686784864,
				"y": -0.5346997482,
				"z": -1.0418179787,
				"element": "C" 
			},
			{
				"x": -1.0158121578,
				"y": -1.8598403234,
				"z": -1.0332193134,
				"element": "C" 
			},
			{
				"x": 0.1363795777,
				"y": -2.2922055839,
				"z": -0.146000888,
				"element": "C" 
			},
			{
				"x": -1.6450472696,
				"y": -2.8309933361,
				"z": -1.8224891427,
				"element": "C" 
			},
			{
				"x": -2.726629631,
				"y": -2.4784656606,
				"z": -2.6244610668,
				"element": "C" 
			},
			{
				"x": -3.1743461002,
				"y": -1.1600078009,
				"z": -2.6622955765,
				"element": "C" 
			},
			{
				"x": -2.5494819131,
				"y": -0.1780340151,
				"z": -1.8815905211,
				"element": "C" 
			},
			{
				"x": -3.0290284788,
				"y": 1.1385732542,
				"z": -1.8811985394,
				"element": "N" 
			},
			{
				"x": 4.4519096275,
				"y": -0.4693913376,
				"z": 0.9586037054,
				"element": "H" 
			},
			{
				"x": 3.1337611833,
				"y": 0.6861797774,
				"z": 0.605501918,
				"element": "H" 
			},
			{
				"x": 3.5965100973,
				"y": -0.5447470798,
				"z": -0.6197589592,
				"element": "H" 
			},
			{
				"x": -0.5557647068,
				"y": -0.5305824751,
				"z": 1.718716853,
				"element": "H" 
			},
			{
				"x": 0.6891871299,
				"y": 0.6700023272,
				"z": 1.3846931981,
				"element": "H" 
			},
			{
				"x": -0.1980673552,
				"y": 1.1897869097,
				"z": -0.7863015107,
				"element": "H" 
			},
			{
				"x": -1.5836844221,
				"y": 1.1395845645,
				"z": 0.3031860062,
				"element": "H" 
			},
			{
				"x": 0.8025980693,
				"y": -2.9626673054,
				"z": -0.6907910782,
				"element": "H" 
			},
			{
				"x": -0.2585087,
				"y": -2.8597420313,
				"z": 0.7129761058,
				"element": "H" 
			},
			{
				"x": -1.284416685,
				"y": -3.8558750708,
				"z": -1.805928258,
				"element": "H" 
			},
			{
				"x": -3.2163317635,
				"y": -3.2290527401,
				"z": -3.238334029,
				"element": "H" 
			},
			{
				"x": -4.0102286434,
				"y": -0.8831101922,
				"z": -3.3004324281,
				"element": "H" 
			},
			{
				"x": -3.6433914837,
				"y": 1.3539240868,
				"z": -2.6550661679,
				"element": "H" 
			},
			{
				"x": -2.3254046382,
				"y": 1.8553560002,
				"z": -1.7659780029,
				"element": "H" 
			}
		],
		 "valence_orbital": [ 
			{
				"type": "occ",
				"energy": -0.30073,
				"method": "rhf"
			},
			{
				"type": "occ",
				"energy": -0.29434,
				"method": "rhf"
			},
			{
				"type": "occ",
				"energy": -0.25414,
				"method": "rhf"
			},
			{
				"type": "occ",
				"energy": -0.23894,
				"method": "rhf"
			},
			{
				"type": "occ",
				"energy": -0.2057,
				"method": "rhf"
			},
			{
				"type": "unocc",
				"energy": 0.00137,
				"method": "rhf"
			},
			{
				"type": "unocc",
				"energy": 0.01057,
				"method": "rhf"
			},
			{
				"type": "unocc",
				"energy": 0.06035,
				"method": "rhf"
			},
			{
				"type": "unocc",
				"energy": 0.07261,
				"method": "rhf"
			},
			{
				"type": "unocc",
				"energy": 0.07537,
				"method": "rhf"
			}
		],
		"cosmo_sigma_profile": { 
			"-0.025": 0.0,
			"-0.024": 0.0,
			"-0.023": 0.0,
			"-0.022": 0.0,
			"-0.021": 0.0,
			"-0.02": 0.0,
			"-0.019": 0.0,
			"-0.018": 0.0,
			"-0.017": 0.0,
			"-0.016": 0.0,
			"-0.015": 0.0,
			"-0.014": 0.0,
			"-0.013": 0.0790798290992,
			"-0.012": 1.64239646285,
			"-0.011": 2.50094221415,
			"-0.01": 2.78366023017,
			"-0.009": 5.91282023474,
			"-0.008": 9.57891052515,
			"-0.007": 7.59801388912,
			"-0.006": 10.7296284212,
			"-0.005": 21.4734933129,
			"-0.004": 28.3905343664,
			"-0.003": 22.6502906969,
			"-0.002": 14.6964257513,
			"-0.001": 11.1421935929,
			"0.0": 9.60127868339,
			"0.001": 8.43455090014,
			"0.002": 8.63417451084,
			"0.003": 8.79673488086,
			"0.004": 10.0711617525,
			"0.005": 10.9713501902,
			"0.006": 10.5724451971,
			"0.007": 10.6503926244,
			"0.008": 4.25312509328,
			"0.009": 4.80383301468,
			"0.01": 5.76740190081,
			"0.011": 10.8410663253,
			"0.012": 7.34824261331,
			"0.013": 0.994360415557,
			"0.014": 0.463988008127,
			"0.015": 0.221378033627,
			"0.016": 0.0,
			"0.017": 0.0,
			"0.018": 0.0,
			"0.019": 0.0,
			"0.02": 0.0,
			"0.021": 0.0,
			"0.022": 0.0,
			"0.023": 0.0,
			"0.024": 0.0,
			"0.025": 0.0
		}
	}
}
