{
	 "smiles": "CN(C1=C(Br)C=C(Br)C=C1Br)C1=C(C=C(C=C1C(F)(F)F)N(=O)=O)N(=O)=O", 
	 "Tm": 423.15, 
	 "num_atms": 34, 
	 "gaussian": { 
		 "optdone": 1, 
		 "sigma_profile": "yes", 
		 "theory": "DFT", 
		 "functional": "B3LYP", 
		 "basiset": "6-31G**", 
		 "properties": { 
			 "R2extent": 16847.0627, 
			 "electric_dipole_moment_norm": 4.7273794908, 
			 "electric_quadrupole_moment_norm": 14.6937310697, 
			 "total_energy": -9016.34822991, 
			 "HOMO_LUMO_gap": 0.14225, 
			 "cosmo_polarized_energy": -13.13, 
			 "cosmo_cavitation_energy": 45.95, 
			 "cosmo_dispersion_energy": -31.81, 
			 "cosmo_repulsion_energy": 2.3, 
			 "cosmo_total_nonelectrostatic_energy": 16.45, 
			 "SMD_solvation_energy": 10.46 
		},
		"coords": [
			{
				"x": 2.0420341282,
				"y": 0.0568116302,
				"z": 0.3102163162,
				"element": "C" 
			},
			{
				"x": 0.6427075184,
				"y": 0.4885109466,
				"z": 0.4769778428,
				"element": "N" 
			},
			{
				"x": 0.1950571,
				"y": 0.6031930617,
				"z": 1.8277887289,
				"element": "C" 
			},
			{
				"x": 0.0855309437,
				"y": -0.5168186299,
				"z": 2.6852617514,
				"element": "C" 
			},
			{
				"x": 0.4661606191,
				"y": -2.2879953864,
				"z": 2.0972599036,
				"element": "Br" 
			},
			{
				"x": -0.3196037749,
				"y": -0.3948067244,
				"z": 4.0120989961,
				"element": "C" 
			},
			{
				"x": -0.6406782461,
				"y": 0.8610801751,
				"z": 4.5156487343,
				"element": "C" 
			},
			{
				"x": -1.2125537425,
				"y": 1.0300313901,
				"z": 6.3202463633,
				"element": "Br" 
			},
			{
				"x": -0.5382702306,
				"y": 1.9948385924,
				"z": 3.718475795,
				"element": "C" 
			},
			{
				"x": -0.1077152078,
				"y": 1.8588904072,
				"z": 2.4010963821,
				"element": "C" 
			},
			{
				"x": 0.0962478694,
				"y": 3.4752828302,
				"z": 1.4140562358,
				"element": "Br" 
			},
			{
				"x": -0.1430461019,
				"y": 0.9447982644,
				"z": -0.5778221011,
				"element": "C" 
			},
			{
				"x": -1.5592416165,
				"y": 0.7939904489,
				"z": -0.5289220224,
				"element": "C" 
			},
			{
				"x": -2.4305208999,
				"y": 1.2566176667,
				"z": -1.4970720357,
				"element": "C" 
			},
			{
				"x": -1.8974365685,
				"y": 1.8369188185,
				"z": -2.637424871,
				"element": "C" 
			},
			{
				"x": -0.5277927512,
				"y": 2.0057352089,
				"z": -2.7645175326,
				"element": "C" 
			},
			{
				"x": 0.3479740556,
				"y": 1.6097897697,
				"z": -1.7536239603,
				"element": "C" 
			},
			{
				"x": 1.7876811962,
				"y": 2.0435146692,
				"z": -1.9826971467,
				"element": "C" 
			},
			{
				"x": 2.5907842168,
				"y": 1.0278117635,
				"z": -2.3840237911,
				"element": "F" 
			},
			{
				"x": 1.8649945382,
				"y": 2.9794698534,
				"z": -2.9507333545,
				"element": "F" 
			},
			{
				"x": 2.3399412393,
				"y": 2.591199352,
				"z": -0.8800348585,
				"element": "F" 
			},
			{
				"x": -2.7892433192,
				"y": 2.2955230981,
				"z": -3.7025047453,
				"element": "N" 
			},
			{
				"x": -2.271829281,
				"y": 2.7891000598,
				"z": -4.7040218237,
				"element": "O" 
			},
			{
				"x": -3.9989040334,
				"y": 2.1550117163,
				"z": -3.5249696744,
				"element": "O" 
			},
			{
				"x": -2.2385166931,
				"y": 0.029587143,
				"z": 0.5394182505,
				"element": "N" 
			},
			{
				"x": -1.9987556717,
				"y": -1.1717896062,
				"z": 0.5928778295,
				"element": "O" 
			},
			{
				"x": -3.0487668545,
				"y": 0.6357214235,
				"z": 1.2343340912,
				"element": "O" 
			},
			{
				"x": 2.1849918763,
				"y": -0.3388662231,
				"z": -0.6921353279,
				"element": "H" 
			},
			{
				"x": 2.2430816712,
				"y": -0.7460881775,
				"z": 1.0164185297,
				"element": "H" 
			},
			{
				"x": 2.7417950838,
				"y": 0.8750338333,
				"z": 0.4868124188,
				"element": "H" 
			},
			{
				"x": -0.3979614653,
				"y": -1.2760792696,
				"z": 4.634558608,
				"element": "H" 
			},
			{
				"x": -0.7706004755,
				"y": 2.9744912533,
				"z": 4.1140241269,
				"element": "H" 
			},
			{
				"x": -3.5002385878,
				"y": 1.129420946,
				"z": -1.3889262265,
				"element": "H" 
			},
			{
				"x": -0.1515065348,
				"y": 2.5039696952,
				"z": -3.6465414324,
				"element": "H" 
			}
		],
		 "valence_orbital": [ 
			{
				"type": "occ",
				"energy": -0.30347,
				"method": "rhf"
			},
			{
				"type": "occ",
				"energy": -0.29666,
				"method": "rhf"
			},
			{
				"type": "occ",
				"energy": -0.28096,
				"method": "rhf"
			},
			{
				"type": "occ",
				"energy": -0.2698,
				"method": "rhf"
			},
			{
				"type": "occ",
				"energy": -0.24865,
				"method": "rhf"
			},
			{
				"type": "unocc",
				"energy": -0.1064,
				"method": "rhf"
			},
			{
				"type": "unocc",
				"energy": -0.09566,
				"method": "rhf"
			},
			{
				"type": "unocc",
				"energy": -0.06322,
				"method": "rhf"
			},
			{
				"type": "unocc",
				"energy": -0.05768,
				"method": "rhf"
			},
			{
				"type": "unocc",
				"energy": -0.05292,
				"method": "rhf"
			}
		],
		"cosmo_sigma_profile": { 
			"-0.025": 0.0,
			"-0.024": 0.0,
			"-0.023": 0.0,
			"-0.022": 0.0,
			"-0.021": 0.0,
			"-0.02": 0.0,
			"-0.019": 0.0,
			"-0.018": 0.0,
			"-0.017": 0.0,
			"-0.016": 0.0,
			"-0.015": 0.0,
			"-0.014": 0.0,
			"-0.013": 0.0,
			"-0.012": 0.0892507611643,
			"-0.011": 0.750131311865,
			"-0.01": 1.54497041073,
			"-0.009": 2.84395800899,
			"-0.008": 4.66159548501,
			"-0.007": 8.1909014749,
			"-0.006": 12.2582085732,
			"-0.005": 21.2433600327,
			"-0.004": 27.6116979106,
			"-0.003": 32.2883126889,
			"-0.002": 32.0515284115,
			"-0.001": 31.8898171576,
			"0.0": 33.3748979516,
			"0.001": 33.1982672539,
			"0.002": 40.521352108,
			"0.003": 30.9615027675,
			"0.004": 12.7021094554,
			"0.005": 6.62255036569,
			"0.006": 12.815708185,
			"0.007": 16.8213423346,
			"0.008": 10.5670248121,
			"0.009": 5.18523359291,
			"0.01": 1.18136185533,
			"0.011": 0.0,
			"0.012": 0.0,
			"0.013": 0.0,
			"0.014": 0.0,
			"0.015": 0.0,
			"0.016": 0.0,
			"0.017": 0.0,
			"0.018": 0.0,
			"0.019": 0.0,
			"0.02": 0.0,
			"0.021": 0.0,
			"0.022": 0.0,
			"0.023": 0.0,
			"0.024": 0.0,
			"0.025": 0.0
		}
	}
}
