{
	 "smiles": "CC(C)(C)OC(=O)NC(CC(O)=O)C1CC1", 
	 "Tm": 385.15, 
	 "num_atms": 35, 
	 "gaussian": { 
		 "optdone": 1, 
		 "sigma_profile": "yes", 
		 "theory": "DFT", 
		 "functional": "B3LYP", 
		 "basiset": "6-31G**", 
		 "properties": { 
			 "R2extent": 5084.5458, 
			 "electric_dipole_moment_norm": 2.15616371827, 
			 "electric_quadrupole_moment_norm": 6.21871469035, 
			 "total_energy": -786.293781416, 
			 "HOMO_LUMO_gap": 0.24051, 
			 "cosmo_polarized_energy": -13.9, 
			 "cosmo_cavitation_energy": 36.88, 
			 "cosmo_dispersion_energy": -25.23, 
			 "cosmo_repulsion_energy": 2.01, 
			 "cosmo_total_nonelectrostatic_energy": 13.66, 
			 "SMD_solvation_energy": 7.46 
		},
		"coords": [
			{
				"x": 1.8876970447,
				"y": 0.3988551506,
				"z": 3.7541564644,
				"element": "C" 
			},
			{
				"x": 0.4729993527,
				"y": -0.1148538856,
				"z": 3.4641669826,
				"element": "C" 
			},
			{
				"x": -0.5761795003,
				"y": 0.782275644,
				"z": 4.1267498714,
				"element": "C" 
			},
			{
				"x": 0.2874425598,
				"y": -1.5747269874,
				"z": 3.8928815061,
				"element": "C" 
			},
			{
				"x": 0.1646872228,
				"y": 0.0354165753,
				"z": 2.03529111,
				"element": "O" 
			},
			{
				"x": 0.8937388822,
				"y": -0.6146498735,
				"z": 1.0932698012,
				"element": "C" 
			},
			{
				"x": 1.8300602856,
				"y": -1.3742568155,
				"z": 1.2993854569,
				"element": "O" 
			},
			{
				"x": 0.4325933035,
				"y": -0.2770562043,
				"z": -0.1470208087,
				"element": "N" 
			},
			{
				"x": 0.9303006197,
				"y": -0.9435687048,
				"z": -1.3457859779,
				"element": "C" 
			},
			{
				"x": 1.0752419603,
				"y": 0.0648799442,
				"z": -2.5097712141,
				"element": "C" 
			},
			{
				"x": -0.1922471088,
				"y": 0.6611175403,
				"z": -3.084029175,
				"element": "C" 
			},
			{
				"x": -0.9455913438,
				"y": 1.2924016764,
				"z": -2.1387780009,
				"element": "O" 
			},
			{
				"x": -0.5264374401,
				"y": 0.6280379283,
				"z": -4.2465045891,
				"element": "O" 
			},
			{
				"x": 0.1552552318,
				"y": -2.2286604932,
				"z": -1.6393244455,
				"element": "C" 
			},
			{
				"x": -0.0525842957,
				"y": -2.8100405046,
				"z": -3.017167077,
				"element": "C" 
			},
			{
				"x": -1.2324194373,
				"y": -2.2875767188,
				"z": -2.2323154032,
				"element": "C" 
			},
			{
				"x": 2.636132559,
				"y": -0.2246908148,
				"z": 3.2646081253,
				"element": "H" 
			},
			{
				"x": 1.9968069202,
				"y": 1.4291015684,
				"z": 3.4004340979,
				"element": "H" 
			},
			{
				"x": 2.0693470991,
				"y": 0.3895327001,
				"z": 4.8339225582,
				"element": "H" 
			},
			{
				"x": -0.4705864585,
				"y": 1.8163284938,
				"z": 3.7857575988,
				"element": "H" 
			},
			{
				"x": -0.4567395206,
				"y": 0.7615185132,
				"z": 5.2141157778,
				"element": "H" 
			},
			{
				"x": -1.5862182137,
				"y": 0.4403695858,
				"z": 3.8823652383,
				"element": "H" 
			},
			{
				"x": 0.4074435882,
				"y": -1.6581226491,
				"z": 4.9780570638,
				"element": "H" 
			},
			{
				"x": 1.0190972994,
				"y": -2.2195526886,
				"z": 3.4057658827,
				"element": "H" 
			},
			{
				"x": -0.7187835651,
				"y": -1.9206562736,
				"z": 3.6352392962,
				"element": "H" 
			},
			{
				"x": -0.4155276132,
				"y": 0.2675614837,
				"z": -0.2092743243,
				"element": "H" 
			},
			{
				"x": 1.9506211732,
				"y": -1.2476889305,
				"z": -1.0933887374,
				"element": "H" 
			},
			{
				"x": 1.6064954199,
				"y": -0.4007799058,
				"z": -3.3407263936,
				"element": "H" 
			},
			{
				"x": 1.6857714898,
				"y": 0.8969172844,
				"z": -2.1407525418,
				"element": "H" 
			},
			{
				"x": -1.7212579633,
				"y": 1.6481530331,
				"z": -2.6050250796,
				"element": "H" 
			},
			{
				"x": 0.3378955885,
				"y": -2.9597922415,
				"z": -0.8545823663,
				"element": "H" 
			},
			{
				"x": 0.2527355701,
				"y": -2.2296794381,
				"z": -3.8823641473,
				"element": "H" 
			},
			{
				"x": 0.062284927,
				"y": -3.8825815394,
				"z": -3.1417206069,
				"element": "H" 
			},
			{
				"x": -1.9301695893,
				"y": -2.9997621517,
				"z": -1.8018710381,
				"element": "H" 
			},
			{
				"x": -1.7052060481,
				"y": -1.3774703009,
				"z": -2.5858649051,
				"element": "H" 
			}
		],
		 "valence_orbital": [ 
			{
				"type": "occ",
				"energy": -0.29231,
				"method": "rhf"
			},
			{
				"type": "occ",
				"energy": -0.28367,
				"method": "rhf"
			},
			{
				"type": "occ",
				"energy": -0.28135,
				"method": "rhf"
			},
			{
				"type": "occ",
				"energy": -0.25947,
				"method": "rhf"
			},
			{
				"type": "occ",
				"energy": -0.24595,
				"method": "rhf"
			},
			{
				"type": "unocc",
				"energy": -0.00544,
				"method": "rhf"
			},
			{
				"type": "unocc",
				"energy": 0.05882,
				"method": "rhf"
			},
			{
				"type": "unocc",
				"energy": 0.05979,
				"method": "rhf"
			},
			{
				"type": "unocc",
				"energy": 0.08819,
				"method": "rhf"
			},
			{
				"type": "unocc",
				"energy": 0.09517,
				"method": "rhf"
			}
		],
		"cosmo_sigma_profile": { 
			"-0.025": 0.0,
			"-0.024": 0.0,
			"-0.023": 0.0,
			"-0.022": 0.0,
			"-0.021": 0.0,
			"-0.02": 0.0,
			"-0.019": 0.0848886392288,
			"-0.018": 0.9117323755,
			"-0.017": 0.743324820532,
			"-0.016": 0.942829224287,
			"-0.015": 1.1560631964,
			"-0.014": 0.637868000056,
			"-0.013": 0.107466277301,
			"-0.012": 0.780155511806,
			"-0.011": 0.782129334891,
			"-0.01": 0.662052839387,
			"-0.009": 0.666983857162,
			"-0.008": 1.52675217985,
			"-0.007": 3.82399911474,
			"-0.006": 5.63877322882,
			"-0.005": 11.2599583041,
			"-0.004": 24.4603752483,
			"-0.003": 30.7448952814,
			"-0.002": 26.5444024977,
			"-0.001": 28.7388741946,
			"0.0": 35.3845247493,
			"0.001": 31.0528668456,
			"0.002": 16.0289578418,
			"0.003": 11.9209095789,
			"0.004": 10.3593832395,
			"0.005": 7.07198718362,
			"0.006": 5.4102333995,
			"0.007": 5.56127448259,
			"0.008": 3.53596937341,
			"0.009": 2.65923969638,
			"0.01": 3.52297671616,
			"0.011": 6.1485761886,
			"0.012": 4.31236549542,
			"0.013": 2.93948840326,
			"0.014": 1.00976435183,
			"0.015": 0.0,
			"0.016": 0.0,
			"0.017": 0.0,
			"0.018": 0.0,
			"0.019": 0.0,
			"0.02": 0.0,
			"0.021": 0.0,
			"0.022": 0.0,
			"0.023": 0.0,
			"0.024": 0.0,
			"0.025": 0.0
		}
	}
}
