{
	 "smiles": "CCCN1C(N)=CC(=O)N(C)C1=O", 
	 "Tm": 440.15, 
	 "num_atms": 26, 
	 "gaussian": { 
		 "optdone": 1, 
		 "sigma_profile": "yes", 
		 "theory": "DFT", 
		 "functional": "B3LYP", 
		 "basiset": "6-31G**", 
		 "properties": { 
			 "R2extent": 2761.5275, 
			 "electric_dipole_moment_norm": 5.8115345125, 
			 "electric_quadrupole_moment_norm": 17.4439381958, 
			 "total_energy": -627.436198742, 
			 "HOMO_LUMO_gap": 0.20927, 
			 "cosmo_polarized_energy": -19.54, 
			 "cosmo_cavitation_energy": 28.58, 
			 "cosmo_dispersion_energy": -20.84, 
			 "cosmo_repulsion_energy": 1.65, 
			 "cosmo_total_nonelectrostatic_energy": 9.39, 
			 "SMD_solvation_energy": 6.2 
		},
		"coords": [
			{
				"x": 3.7441325209,
				"y": -1.0087737013,
				"z": -1.4405757752,
				"element": "C" 
			},
			{
				"x": 2.2827170036,
				"y": -1.2247015902,
				"z": -1.0357950287,
				"element": "C" 
			},
			{
				"x": 1.5609153909,
				"y": 0.1046803136,
				"z": -0.7837864499,
				"element": "C" 
			},
			{
				"x": 0.1529943502,
				"y": -0.0569073721,
				"z": -0.3836410516,
				"element": "N" 
			},
			{
				"x": -0.8613992914,
				"y": -0.3067454599,
				"z": -1.2937207584,
				"element": "C" 
			},
			{
				"x": -0.5020722944,
				"y": -0.3953094417,
				"z": -2.6248960192,
				"element": "N" 
			},
			{
				"x": -2.1451422356,
				"y": -0.5117617448,
				"z": -0.8733175826,
				"element": "C" 
			},
			{
				"x": -2.496315517,
				"y": -0.5059144498,
				"z": 0.5190840675,
				"element": "C" 
			},
			{
				"x": -3.622908786,
				"y": -0.687309059,
				"z": 0.9673969997,
				"element": "O" 
			},
			{
				"x": -1.4017151236,
				"y": -0.2556453727,
				"z": 1.4001967836,
				"element": "N" 
			},
			{
				"x": -1.651543109,
				"y": -0.2345280066,
				"z": 2.8432305664,
				"element": "C" 
			},
			{
				"x": -0.0973923747,
				"y": -0.0454865625,
				"z": 1.0055469843,
				"element": "C" 
			},
			{
				"x": 0.8087814194,
				"y": 0.1435696036,
				"z": 1.8077416748,
				"element": "O" 
			},
			{
				"x": 4.2504130032,
				"y": -1.9648304801,
				"z": -1.6024288318,
				"element": "H" 
			},
			{
				"x": 4.2962292956,
				"y": -0.4670016734,
				"z": -0.6649066517,
				"element": "H" 
			},
			{
				"x": 3.8235411678,
				"y": -0.4318821725,
				"z": -2.3696819624,
				"element": "H" 
			},
			{
				"x": 2.2319434945,
				"y": -1.8158372983,
				"z": -0.1147260024,
				"element": "H" 
			},
			{
				"x": 1.7537998703,
				"y": -1.7908359104,
				"z": -1.8104949737,
				"element": "H" 
			},
			{
				"x": 2.0400835879,
				"y": 0.638982388,
				"z": 0.0363711501,
				"element": "H" 
			},
			{
				"x": 1.6130302719,
				"y": 0.757608606,
				"z": -1.663229842,
				"element": "H" 
			},
			{
				"x": -1.2860309401,
				"y": -0.4040839304,
				"z": -3.2613797875,
				"element": "H" 
			},
			{
				"x": 0.2592466605,
				"y": 0.1845437073,
				"z": -2.9448179049,
				"element": "H" 
			},
			{
				"x": -2.9400033979,
				"y": -0.6932420422,
				"z": -1.5843888273,
				"element": "H" 
			},
			{
				"x": -1.0719704294,
				"y": -1.0174457004,
				"z": 3.3380298642,
				"element": "H" 
			},
			{
				"x": -1.3537628499,
				"y": 0.7295134055,
				"z": 3.2616166414,
				"element": "H" 
			},
			{
				"x": -2.7174716877,
				"y": -0.4016560559,
				"z": 2.9817727171,
				"element": "H" 
			}
		],
		 "valence_orbital": [ 
			{
				"type": "occ",
				"energy": -0.28649,
				"method": "rhf"
			},
			{
				"type": "occ",
				"energy": -0.28022,
				"method": "rhf"
			},
			{
				"type": "occ",
				"energy": -0.25677,
				"method": "rhf"
			},
			{
				"type": "occ",
				"energy": -0.24389,
				"method": "rhf"
			},
			{
				"type": "occ",
				"energy": -0.21829,
				"method": "rhf"
			},
			{
				"type": "unocc",
				"energy": -0.00902,
				"method": "rhf"
			},
			{
				"type": "unocc",
				"energy": 0.02293,
				"method": "rhf"
			},
			{
				"type": "unocc",
				"energy": 0.04527,
				"method": "rhf"
			},
			{
				"type": "unocc",
				"energy": 0.08123,
				"method": "rhf"
			},
			{
				"type": "unocc",
				"energy": 0.09858,
				"method": "rhf"
			}
		],
		"cosmo_sigma_profile": { 
			"-0.025": 0.0,
			"-0.024": 0.0,
			"-0.023": 0.0,
			"-0.022": 0.0,
			"-0.021": 0.0,
			"-0.02": 0.0,
			"-0.019": 0.0,
			"-0.018": 0.0,
			"-0.017": 0.0,
			"-0.016": 0.0,
			"-0.015": 1.01218859326,
			"-0.014": 3.15118032477,
			"-0.013": 2.41766208188,
			"-0.012": 4.12608284566,
			"-0.011": 2.66699924443,
			"-0.01": 2.44465406428,
			"-0.009": 2.24825316571,
			"-0.008": 2.98947510577,
			"-0.007": 2.71614330384,
			"-0.006": 3.73054845408,
			"-0.005": 6.87720877728,
			"-0.004": 12.4018945171,
			"-0.003": 24.9414673712,
			"-0.002": 28.0590994514,
			"-0.001": 24.9398788081,
			"0.0": 20.1014437144,
			"0.001": 13.709171205,
			"0.002": 8.01523314423,
			"0.003": 6.73709527839,
			"0.004": 7.97077345805,
			"0.005": 4.81468453048,
			"0.006": 4.11716477374,
			"0.007": 3.45202653319,
			"0.008": 2.71499427473,
			"0.009": 3.41332400877,
			"0.01": 3.14179000492,
			"0.011": 3.36685106662,
			"0.012": 4.14911189268,
			"0.013": 7.21631741267,
			"0.014": 5.1612987881,
			"0.015": 1.71874977495,
			"0.016": 0.0607043112708,
			"0.017": 0.0,
			"0.018": 0.0,
			"0.019": 0.0,
			"0.02": 0.0,
			"0.021": 0.0,
			"0.022": 0.0,
			"0.023": 0.0,
			"0.024": 0.0,
			"0.025": 0.0
		}
	}
}
