{
	 "smiles": "CC1=CC=C(C=C1)S(=O)(=O)OC1CCC2(C)C(CCC3C4CC(=O)CC4(C)CCC23)C1", 
	 "Tm": 439.15, 
	 "num_atms": 67, 
	 "gaussian": { 
		 "optdone": 1, 
		 "sigma_profile": "yes", 
		 "theory": "DFT", 
		 "functional": "B3LYP", 
		 "basiset": "6-31G**", 
		 "properties": { 
			 "R2extent": 22911.8063, 
			 "electric_dipole_moment_norm": 3.85314571876, 
			 "electric_quadrupole_moment_norm": 44.4067322134, 
			 "total_energy": -1711.50409305, 
			 "HOMO_LUMO_gap": 0.19459, 
			 "cosmo_polarized_energy": -18.35, 
			 "cosmo_cavitation_energy": 60.56, 
			 "cosmo_dispersion_energy": -42.61, 
			 "cosmo_repulsion_energy": 3.05, 
			 "cosmo_total_nonelectrostatic_energy": 21.0, 
			 "SMD_solvation_energy": 8.25 
		},
		"coords": [
			{
				"x": 6.011810636,
				"y": -3.8784080286,
				"z": -6.4860433624,
				"element": "C" 
			},
			{
				"x": 5.3214121971,
				"y": -2.91456582,
				"z": -5.551587827,
				"element": "C" 
			},
			{
				"x": 6.0652044431,
				"y": -2.0381911097,
				"z": -4.7479989554,
				"element": "C" 
			},
			{
				"x": 5.4370834204,
				"y": -1.1231993674,
				"z": -3.9059396606,
				"element": "C" 
			},
			{
				"x": 4.0429236971,
				"y": -1.0922290174,
				"z": -3.8644129329,
				"element": "C" 
			},
			{
				"x": 3.2743474441,
				"y": -1.9482119606,
				"z": -4.654217911,
				"element": "C" 
			},
			{
				"x": 3.9211038337,
				"y": -2.8544674965,
				"z": -5.4908964238,
				"element": "C" 
			},
			{
				"x": 3.2277025158,
				"y": 0.0788473879,
				"z": -2.7950634411,
				"element": "S" 
			},
			{
				"x": 4.1365269981,
				"y": 1.1930404235,
				"z": -2.5266137201,
				"element": "O" 
			},
			{
				"x": 1.8768644992,
				"y": 0.3488778333,
				"z": -3.2992518588,
				"element": "O" 
			},
			{
				"x": 3.1353744427,
				"y": -0.869947518,
				"z": -1.4642968717,
				"element": "O" 
			},
			{
				"x": 2.1953853295,
				"y": -0.5594596711,
				"z": -0.3732460583,
				"element": "C" 
			},
			{
				"x": 2.1522274063,
				"y": 0.9175775624,
				"z": 0.0182356365,
				"element": "C" 
			},
			{
				"x": 1.2087962018,
				"y": 1.0945490099,
				"z": 1.2205458796,
				"element": "C" 
			},
			{
				"x": -0.2358850163,
				"y": 0.5707687464,
				"z": 0.9849607966,
				"element": "C" 
			},
			{
				"x": -0.9078750866,
				"y": 1.4429448846,
				"z": -0.1029925173,
				"element": "C" 
			},
			{
				"x": -0.1449425053,
				"y": -0.9139618447,
				"z": 0.5250750533,
				"element": "C" 
			},
			{
				"x": -1.5341407987,
				"y": -1.5270189419,
				"z": 0.2351303163,
				"element": "C" 
			},
			{
				"x": -2.6427279743,
				"y": -1.0050237003,
				"z": 1.1790435207,
				"element": "C" 
			},
			{
				"x": -2.0490522098,
				"y": -0.5629479222,
				"z": 2.528944471,
				"element": "C" 
			},
			{
				"x": -3.0682047351,
				"y": -0.212069486,
				"z": 3.6413346187,
				"element": "C" 
			},
			{
				"x": -4.1308233381,
				"y": -1.3000888176,
				"z": 3.8861445817,
				"element": "C" 
			},
			{
				"x": -5.3957622988,
				"y": -0.8340742629,
				"z": 3.1608132603,
				"element": "C" 
			},
			{
				"x": -6.3850574381,
				"y": -1.5062349824,
				"z": 2.9652730919,
				"element": "O" 
			},
			{
				"x": -5.2031198854,
				"y": 0.6195181155,
				"z": 2.7220086309,
				"element": "C" 
			},
			{
				"x": -3.8923931383,
				"y": 1.1075478883,
				"z": 3.3834695319,
				"element": "C" 
			},
			{
				"x": -4.2234726698,
				"y": 1.7624670554,
				"z": 4.7409932075,
				"element": "C" 
			},
			{
				"x": -3.082721709,
				"y": 2.0996756081,
				"z": 2.5128319674,
				"element": "C" 
			},
			{
				"x": -1.5753323706,
				"y": 1.9710994983,
				"z": 2.7780020724,
				"element": "C" 
			},
			{
				"x": -0.9916876257,
				"y": 0.5882438423,
				"z": 2.3717931716,
				"element": "C" 
			},
			{
				"x": 0.8064791633,
				"y": -1.124431432,
				"z": -0.6686051111,
				"element": "C" 
			},
			{
				"x": 5.4160728867,
				"y": -4.7826183559,
				"z": -6.6406324287,
				"element": "H" 
			},
			{
				"x": 6.9918489619,
				"y": -4.1758420591,
				"z": -6.1021941754,
				"element": "H" 
			},
			{
				"x": 6.1718589359,
				"y": -3.4210182748,
				"z": -7.4703258559,
				"element": "H" 
			},
			{
				"x": 7.1508250469,
				"y": -2.070179169,
				"z": -4.7846829411,
				"element": "H" 
			},
			{
				"x": 6.0112709927,
				"y": -0.43571177,
				"z": -3.2947948337,
				"element": "H" 
			},
			{
				"x": 2.1919090457,
				"y": -1.8933359654,
				"z": -4.6169711015,
				"element": "H" 
			},
			{
				"x": 3.3298675365,
				"y": -3.5243724198,
				"z": -6.1094935843,
				"element": "H" 
			},
			{
				"x": 2.644118642,
				"y": -1.1245924508,
				"z": 0.4522678988,
				"element": "H" 
			},
			{
				"x": 3.1586949372,
				"y": 1.2655062356,
				"z": 0.2704060762,
				"element": "H" 
			},
			{
				"x": 1.8124345509,
				"y": 1.5213712942,
				"z": -0.8278986787,
				"element": "H" 
			},
			{
				"x": 1.6380804822,
				"y": 0.5582901342,
				"z": 2.0783768346,
				"element": "H" 
			},
			{
				"x": 1.181213079,
				"y": 2.1531895436,
				"z": 1.506009488,
				"element": "H" 
			},
			{
				"x": -1.9401569353,
				"y": 1.1502673062,
				"z": -0.3027774415,
				"element": "H" 
			},
			{
				"x": -0.3717894929,
				"y": 1.3782157832,
				"z": -1.0529113323,
				"element": "H" 
			},
			{
				"x": -0.9144702867,
				"y": 2.4988105784,
				"z": 0.1821707921,
				"element": "H" 
			},
			{
				"x": 0.2883610908,
				"y": -1.4624358456,
				"z": 1.3763611808,
				"element": "H" 
			},
			{
				"x": -1.4533758129,
				"y": -2.6175981654,
				"z": 0.3211541886,
				"element": "H" 
			},
			{
				"x": -1.8155681286,
				"y": -1.3279554679,
				"z": -0.8057525139,
				"element": "H" 
			},
			{
				"x": -3.3903795362,
				"y": -1.7918202661,
				"z": 1.3276131732,
				"element": "H" 
			},
			{
				"x": -3.1744583979,
				"y": -0.1752926668,
				"z": 0.7048354317,
				"element": "H" 
			},
			{
				"x": -1.5088210817,
				"y": -1.4421790451,
				"z": 2.9084787412,
				"element": "H" 
			},
			{
				"x": -2.4741726404,
				"y": -0.0678729844,
				"z": 4.5522471833,
				"element": "H" 
			},
			{
				"x": -4.3822646626,
				"y": -1.3790843488,
				"z": 4.9516655866,
				"element": "H" 
			},
			{
				"x": -3.8461468941,
				"y": -2.3062480512,
				"z": 3.5637899732,
				"element": "H" 
			},
			{
				"x": -6.0852207133,
				"y": 1.2143686914,
				"z": 2.9811297477,
				"element": "H" 
			},
			{
				"x": -5.137634054,
				"y": 0.6229020481,
				"z": 1.626620193,
				"element": "H" 
			},
			{
				"x": -4.740359065,
				"y": 1.0693458019,
				"z": 5.4144741835,
				"element": "H" 
			},
			{
				"x": -4.873473459,
				"y": 2.6335723991,
				"z": 4.6022566283,
				"element": "H" 
			},
			{
				"x": -3.3147651119,
				"y": 2.0999560087,
				"z": 5.2515458414,
				"element": "H" 
			},
			{
				"x": -3.4136374448,
				"y": 3.1256731789,
				"z": 2.7164206577,
				"element": "H" 
			},
			{
				"x": -3.2841882061,
				"y": 1.9245901289,
				"z": 1.4510818383,
				"element": "H" 
			},
			{
				"x": -1.0330689471,
				"y": 2.7791322299,
				"z": 2.2774540583,
				"element": "H" 
			},
			{
				"x": -1.399030299,
				"y": 2.1291511029,
				"z": 3.8492963684,
				"element": "H" 
			},
			{
				"x": -0.21439534,
				"y": 0.3604688156,
				"z": 3.1126440589,
				"element": "H" 
			},
			{
				"x": 0.8937142261,
				"y": -2.1959221768,
				"z": -0.8857968152,
				"element": "H" 
			},
			{
				"x": 0.4083626666,
				"y": -0.649758274,
				"z": -1.5697015782,
				"element": "H" 
			}
		],
		 "valence_orbital": [ 
			{
				"type": "occ",
				"energy": -0.27811,
				"method": "rhf"
			},
			{
				"type": "occ",
				"energy": -0.27266,
				"method": "rhf"
			},
			{
				"type": "occ",
				"energy": -0.26908,
				"method": "rhf"
			},
			{
				"type": "occ",
				"energy": -0.26192,
				"method": "rhf"
			},
			{
				"type": "occ",
				"energy": -0.23269,
				"method": "rhf"
			},
			{
				"type": "unocc",
				"energy": -0.0381,
				"method": "rhf"
			},
			{
				"type": "unocc",
				"energy": -0.01956,
				"method": "rhf"
			},
			{
				"type": "unocc",
				"energy": -0.01436,
				"method": "rhf"
			},
			{
				"type": "unocc",
				"energy": 0.0498,
				"method": "rhf"
			},
			{
				"type": "unocc",
				"energy": 0.05751,
				"method": "rhf"
			}
		],
		"cosmo_sigma_profile": { 
			"-0.025": 0.0,
			"-0.024": 0.0,
			"-0.023": 0.0,
			"-0.022": 0.0,
			"-0.021": 0.0,
			"-0.02": 0.0,
			"-0.019": 0.0,
			"-0.018": 0.0,
			"-0.017": 0.0,
			"-0.016": 0.0,
			"-0.015": 0.0,
			"-0.014": 0.0,
			"-0.013": 0.0,
			"-0.012": 0.0,
			"-0.011": 0.0,
			"-0.01": 0.0,
			"-0.009": 0.0,
			"-0.008": 0.192454971618,
			"-0.007": 3.70809442268,
			"-0.006": 11.3834111634,
			"-0.005": 26.9586040875,
			"-0.004": 28.7375854038,
			"-0.003": 49.6483444963,
			"-0.002": 72.586116291,
			"-0.001": 72.6756844563,
			"0.0": 51.1689327712,
			"0.001": 41.9265127762,
			"0.002": 23.5782002462,
			"0.003": 19.184103264,
			"0.004": 8.30091715072,
			"0.005": 5.91252166934,
			"0.006": 6.63740612021,
			"0.007": 7.34356891615,
			"0.008": 6.32187991328,
			"0.009": 5.67116756787,
			"0.01": 9.77071502173,
			"0.011": 8.01719392349,
			"0.012": 5.35386965381,
			"0.013": 3.74642877148,
			"0.014": 0.935273795674,
			"0.015": 0.0,
			"0.016": 0.0,
			"0.017": 0.0,
			"0.018": 0.0,
			"0.019": 0.0,
			"0.02": 0.0,
			"0.021": 0.0,
			"0.022": 0.0,
			"0.023": 0.0,
			"0.024": 0.0,
			"0.025": 0.0
		}
	}
}
