{
	 "smiles": "CC(CC1=CC=CC=C1)N(C)CC1=CC=CC=C1", 
	 "Tm": 425.65, 
	 "num_atms": 39, 
	 "gaussian": { 
		 "optdone": 1, 
		 "sigma_profile": "yes", 
		 "theory": "DFT", 
		 "functional": "B3LYP", 
		 "basiset": "6-31G**", 
		 "properties": { 
			 "R2extent": 6164.5875, 
			 "electric_dipole_moment_norm": 0.308149006164, 
			 "electric_quadrupole_moment_norm": 4.78923969749, 
			 "total_energy": -715.212529032, 
			 "HOMO_LUMO_gap": 0.19674, 
			 "cosmo_polarized_energy": -6.43, 
			 "cosmo_cavitation_energy": 39.69, 
			 "cosmo_dispersion_energy": -26.91, 
			 "cosmo_repulsion_energy": 2.07, 
			 "cosmo_total_nonelectrostatic_energy": 14.85, 
			 "SMD_solvation_energy": 5.66 
		},
		"coords": [
			{
				"x": -0.182033466,
				"y": 1.7889794921,
				"z": -1.216798048,
				"element": "C" 
			},
			{
				"x": -0.6150522628,
				"y": 0.7043602515,
				"z": -0.2232818768,
				"element": "C" 
			},
			{
				"x": -1.5025444582,
				"y": -0.4046159656,
				"z": -0.887389421,
				"element": "C" 
			},
			{
				"x": -0.9222945374,
				"y": -1.2391403219,
				"z": -2.0116198008,
				"element": "C" 
			},
			{
				"x": -0.488910881,
				"y": -2.5537658382,
				"z": -1.781170199,
				"element": "C" 
			},
			{
				"x": 0.0313496476,
				"y": -3.3374104078,
				"z": -2.8117070372,
				"element": "C" 
			},
			{
				"x": 0.1236475362,
				"y": -2.8217397705,
				"z": -4.1058508731,
				"element": "C" 
			},
			{
				"x": -0.3197059262,
				"y": -1.5225532801,
				"z": -4.3577907565,
				"element": "C" 
			},
			{
				"x": -0.841397707,
				"y": -0.7444613803,
				"z": -3.3228173097,
				"element": "C" 
			},
			{
				"x": 0.5195537968,
				"y": 0.2627514437,
				"z": 0.6046720539,
				"element": "N" 
			},
			{
				"x": 1.685496854,
				"y": -0.2893162249,
				"z": -0.0787492562,
				"element": "C" 
			},
			{
				"x": 0.153413491,
				"y": -0.5152327877,
				"z": 1.7847787786,
				"element": "C" 
			},
			{
				"x": -0.7077194023,
				"y": 0.2446059286,
				"z": 2.7793896113,
				"element": "C" 
			},
			{
				"x": -1.8200916261,
				"y": -0.360230321,
				"z": 3.3743232127,
				"element": "C" 
			},
			{
				"x": -2.5780981454,
				"y": 0.3187927207,
				"z": 4.3318349945,
				"element": "C" 
			},
			{
				"x": -2.2337921163,
				"y": 1.6190017282,
				"z": 4.701198378,
				"element": "C" 
			},
			{
				"x": -1.1277682659,
				"y": 2.2348734046,
				"z": 4.10802402,
				"element": "C" 
			},
			{
				"x": -0.370728316,
				"y": 1.5524291112,
				"z": 3.1570236778,
				"element": "C" 
			},
			{
				"x": -1.0629820867,
				"y": 2.2660006666,
				"z": -1.6590380821,
				"element": "H" 
			},
			{
				"x": 0.3993126162,
				"y": 2.5563979869,
				"z": -0.6977128542,
				"element": "H" 
			},
			{
				"x": 0.4229231748,
				"y": 1.3959808474,
				"z": -2.0383069658,
				"element": "H" 
			},
			{
				"x": -1.2947435843,
				"y": 1.1914401499,
				"z": 0.4862893576,
				"element": "H" 
			},
			{
				"x": -1.8557394631,
				"y": -1.0751509973,
				"z": -0.0960692118,
				"element": "H" 
			},
			{
				"x": -2.3976401683,
				"y": 0.1115729069,
				"z": -1.2585498611,
				"element": "H" 
			},
			{
				"x": -0.5651449539,
				"y": -2.9695919825,
				"z": -0.7791676484,
				"element": "H" 
			},
			{
				"x": 0.3582869804,
				"y": -4.3528596306,
				"z": -2.6048944574,
				"element": "H" 
			},
			{
				"x": 0.5262356193,
				"y": -3.4296011564,
				"z": -4.9110226988,
				"element": "H" 
			},
			{
				"x": -0.2685157978,
				"y": -1.1153224453,
				"z": -5.3639571374,
				"element": "H" 
			},
			{
				"x": -1.2041942653,
				"y": 0.2566844283,
				"z": -3.5392656637,
				"element": "H" 
			},
			{
				"x": 1.9672363074,
				"y": 0.3461509657,
				"z": -0.9206767085,
				"element": "H" 
			},
			{
				"x": 1.5509022656,
				"y": -1.3121161652,
				"z": -0.4624838014,
				"element": "H" 
			},
			{
				"x": 2.5309058728,
				"y": -0.3015632913,
				"z": 0.6194242453,
				"element": "H" 
			},
			{
				"x": 1.0938846126,
				"y": -0.7896545331,
				"z": 2.2816540221,
				"element": "H" 
			},
			{
				"x": -0.3412587029,
				"y": -1.4749893634,
				"z": 1.5416571582,
				"element": "H" 
			},
			{
				"x": -2.0947665163,
				"y": -1.3728598602,
				"z": 3.0872625898,
				"element": "H" 
			},
			{
				"x": -3.4390580538,
				"y": -0.1667515472,
				"z": 4.7830773937,
				"element": "H" 
			},
			{
				"x": -2.822984094,
				"y": 2.1508915099,
				"z": 5.4429298599,
				"element": "H" 
			},
			{
				"x": -0.854724147,
				"y": 3.2483251144,
				"z": 4.3897016424,
				"element": "H" 
			},
			{
				"x": 0.4840401689,
				"y": 2.0275886136,
				"z": 2.6844786733,
				"element": "H" 
			}
		],
		 "valence_orbital": [ 
			{
				"type": "occ",
				"energy": -0.24652,
				"method": "rhf"
			},
			{
				"type": "occ",
				"energy": -0.24519,
				"method": "rhf"
			},
			{
				"type": "occ",
				"energy": -0.24342,
				"method": "rhf"
			},
			{
				"type": "occ",
				"energy": -0.23732,
				"method": "rhf"
			},
			{
				"type": "occ",
				"energy": -0.19712,
				"method": "rhf"
			},
			{
				"type": "unocc",
				"energy": -0.00038,
				"method": "rhf"
			},
			{
				"type": "unocc",
				"energy": 0.00148,
				"method": "rhf"
			},
			{
				"type": "unocc",
				"energy": 0.0018,
				"method": "rhf"
			},
			{
				"type": "unocc",
				"energy": 0.00459,
				"method": "rhf"
			},
			{
				"type": "unocc",
				"energy": 0.07607,
				"method": "rhf"
			}
		],
		"cosmo_sigma_profile": { 
			"-0.025": 0.0,
			"-0.024": 0.0,
			"-0.023": 0.0,
			"-0.022": 0.0,
			"-0.021": 0.0,
			"-0.02": 0.0,
			"-0.019": 0.0,
			"-0.018": 0.0,
			"-0.017": 0.0,
			"-0.016": 0.0,
			"-0.015": 0.0,
			"-0.014": 0.0,
			"-0.013": 0.0,
			"-0.012": 0.0,
			"-0.011": 0.0,
			"-0.01": 0.0,
			"-0.009": 0.0,
			"-0.008": 0.0,
			"-0.007": 0.0,
			"-0.006": 2.31802769096,
			"-0.005": 14.9633693868,
			"-0.004": 28.475689093,
			"-0.003": 42.3358169301,
			"-0.002": 34.5744126166,
			"-0.001": 33.563517142,
			"0.0": 33.9617076615,
			"0.001": 26.7541031959,
			"0.002": 19.997232899,
			"0.003": 17.2743017964,
			"0.004": 16.8442201413,
			"0.005": 15.8700626539,
			"0.006": 16.4289774388,
			"0.007": 6.61803231337,
			"0.008": 1.20287017644,
			"0.009": 0.600923528229,
			"0.01": 0.313883782676,
			"0.011": 0.43446414157,
			"0.012": 0.0127433296432,
			"0.013": 0.0,
			"0.014": 0.0,
			"0.015": 0.0,
			"0.016": 0.0,
			"0.017": 0.0,
			"0.018": 0.0,
			"0.019": 0.0,
			"0.02": 0.0,
			"0.021": 0.0,
			"0.022": 0.0,
			"0.023": 0.0,
			"0.024": 0.0,
			"0.025": 0.0
		}
	}
}
