{
	 "smiles": "NNC1=C(Cl)C=C(C=C1Cl)C(F)(F)F", 
	 "Tm": 332.15, 
	 "num_atms": 19, 
	 "gaussian": { 
		 "optdone": 1, 
		 "sigma_profile": "yes", 
		 "theory": "DFT", 
		 "functional": "B3LYP", 
		 "basiset": "6-31G**", 
		 "properties": { 
			 "R2extent": 4135.7588, 
			 "electric_dipole_moment_norm": 1.39273544868, 
			 "electric_quadrupole_moment_norm": 5.66726518967, 
			 "total_energy": -1599.13286531, 
			 "HOMO_LUMO_gap": 0.19429, 
			 "cosmo_polarized_energy": -7.32, 
			 "cosmo_cavitation_energy": 28.12, 
			 "cosmo_dispersion_energy": -20.42, 
			 "cosmo_repulsion_energy": 1.55, 
			 "cosmo_total_nonelectrostatic_energy": 9.25, 
			 "SMD_solvation_energy": 5.64 
		},
		"coords": [
			{
				"x": 0.739712167,
				"y": 4.4390705337,
				"z": -0.0008313648,
				"element": "N" 
			},
			{
				"x": 1.3205610695,
				"y": 3.262036346,
				"z": 0.5420766749,
				"element": "N" 
			},
			{
				"x": 0.8906954119,
				"y": 1.9911991271,
				"z": 0.181310755,
				"element": "C" 
			},
			{
				"x": 1.8248262192,
				"y": 0.97679202,
				"z": -0.1490785036,
				"element": "C" 
			},
			{
				"x": 3.5437182107,
				"y": 1.3599824418,
				"z": -0.1322748445,
				"element": "Cl" 
			},
			{
				"x": 1.4503572229,
				"y": -0.3146231537,
				"z": -0.4884124522,
				"element": "C" 
			},
			{
				"x": 0.0969807125,
				"y": -0.6503411284,
				"z": -0.5219949768,
				"element": "C" 
			},
			{
				"x": -0.8596523281,
				"y": 0.3044381865,
				"z": -0.1822916428,
				"element": "C" 
			},
			{
				"x": -0.4655082412,
				"y": 1.5870011106,
				"z": 0.1804967697,
				"element": "C" 
			},
			{
				"x": -1.7292725124,
				"y": 2.6800066955,
				"z": 0.7335035304,
				"element": "Cl" 
			},
			{
				"x": -0.3286215628,
				"y": -2.0213900068,
				"z": -0.9673861343,
				"element": "C" 
			},
			{
				"x": -0.5063372593,
				"y": -2.0797191925,
				"z": -2.3077310138,
				"element": "F" 
			},
			{
				"x": -1.4978964837,
				"y": -2.3904130616,
				"z": -0.4007567957,
				"element": "F" 
			},
			{
				"x": 0.5949166262,
				"y": -2.9560979386,
				"z": -0.654088271,
				"element": "F" 
			},
			{
				"x": 0.42305007,
				"y": 4.2704184955,
				"z": -0.9555375988,
				"element": "H" 
			},
			{
				"x": -0.0739594543,
				"y": 4.685643437,
				"z": 0.5531780572,
				"element": "H" 
			},
			{
				"x": 2.3278527207,
				"y": 3.3493366751,
				"z": 0.5417723437,
				"element": "H" 
			},
			{
				"x": 2.2088083706,
				"y": -1.0485216938,
				"z": -0.7319034688,
				"element": "H" 
			},
			{
				"x": -1.9114309594,
				"y": 0.0461811065,
				"z": -0.1644510637,
				"element": "H" 
			}
		],
		 "valence_orbital": [ 
			{
				"type": "occ",
				"energy": -0.33536,
				"method": "rhf"
			},
			{
				"type": "occ",
				"energy": -0.32622,
				"method": "rhf"
			},
			{
				"type": "occ",
				"energy": -0.27798,
				"method": "rhf"
			},
			{
				"type": "occ",
				"energy": -0.26733,
				"method": "rhf"
			},
			{
				"type": "occ",
				"energy": -0.23548,
				"method": "rhf"
			},
			{
				"type": "unocc",
				"energy": -0.04119,
				"method": "rhf"
			},
			{
				"type": "unocc",
				"energy": -0.03891,
				"method": "rhf"
			},
			{
				"type": "unocc",
				"energy": -0.00832,
				"method": "rhf"
			},
			{
				"type": "unocc",
				"energy": 0.03368,
				"method": "rhf"
			},
			{
				"type": "unocc",
				"energy": 0.07887,
				"method": "rhf"
			}
		],
		"cosmo_sigma_profile": { 
			"-0.025": 0.0,
			"-0.024": 0.0,
			"-0.023": 0.0,
			"-0.022": 0.0,
			"-0.021": 0.0,
			"-0.02": 0.0,
			"-0.019": 0.0,
			"-0.018": 0.0,
			"-0.017": 0.0,
			"-0.016": 0.0,
			"-0.015": 0.0,
			"-0.014": 0.0,
			"-0.013": 0.0,
			"-0.012": 0.50149323656,
			"-0.011": 1.23752997341,
			"-0.01": 2.66286641013,
			"-0.009": 3.97204317772,
			"-0.008": 6.09375803493,
			"-0.007": 5.31085906593,
			"-0.006": 6.85738539928,
			"-0.005": 8.67336665498,
			"-0.004": 8.02635983645,
			"-0.003": 10.1711215665,
			"-0.002": 13.6811276255,
			"-0.001": 16.9299035013,
			"0.0": 26.2191699787,
			"0.001": 29.4950286945,
			"0.002": 28.4301496672,
			"0.003": 36.8891982481,
			"0.004": 12.7562595804,
			"0.005": 2.27238462099,
			"0.006": 1.25283595087,
			"0.007": 1.34441589441,
			"0.008": 0.9463549778,
			"0.009": 1.25798498798,
			"0.01": 0.860244282026,
			"0.011": 1.05963896936,
			"0.012": 0.650739574307,
			"0.013": 0.655603179135,
			"0.014": 0.208018836435,
			"0.015": 0.610618408866,
			"0.016": 0.650519999134,
			"0.017": 0.0,
			"0.018": 0.0,
			"0.019": 0.0,
			"0.02": 0.0,
			"0.021": 0.0,
			"0.022": 0.0,
			"0.023": 0.0,
			"0.024": 0.0,
			"0.025": 0.0
		}
	}
}
