{
	 "smiles": "OC(=O)C1CC2=C(O1)C(F)=CC=C2", 
	 "Tm": 400.15, 
	 "num_atms": 20, 
	 "gaussian": { 
		 "optdone": 1, 
		 "sigma_profile": "yes", 
		 "theory": "DFT", 
		 "functional": "B3LYP", 
		 "basiset": "6-31G**", 
		 "properties": { 
			 "R2extent": 2564.2047, 
			 "electric_dipole_moment_norm": 3.65802031706, 
			 "electric_quadrupole_moment_norm": 12.0251897278, 
			 "total_energy": -672.679256059, 
			 "HOMO_LUMO_gap": 0.21736, 
			 "cosmo_polarized_energy": -11.82, 
			 "cosmo_cavitation_energy": 24.78, 
			 "cosmo_dispersion_energy": -18.19, 
			 "cosmo_repulsion_energy": 1.42, 
			 "cosmo_total_nonelectrostatic_energy": 8.01, 
			 "SMD_solvation_energy": 5.85 
		},
		"coords": [
			{
				"x": -0.649589635,
				"y": -1.2038121021,
				"z": -2.2207433862,
				"element": "O" 
			},
			{
				"x": 0.327648139,
				"y": -1.3833031351,
				"z": -1.3199159192,
				"element": "C" 
			},
			{
				"x": 1.3713759854,
				"y": -1.9319423833,
				"z": -1.5760078337,
				"element": "O" 
			},
			{
				"x": 0.0045502513,
				"y": -0.8750465213,
				"z": 0.0966562643,
				"element": "C" 
			},
			{
				"x": 1.1486379658,
				"y": -0.0247608122,
				"z": 0.7001461861,
				"element": "C" 
			},
			{
				"x": 0.5865835996,
				"y": 1.3748409878,
				"z": 0.5840601616,
				"element": "C" 
			},
			{
				"x": -0.7524189366,
				"y": 1.2672179926,
				"z": 0.2183349196,
				"element": "C" 
			},
			{
				"x": -1.1830850086,
				"y": -0.0302701531,
				"z": 0.0475042015,
				"element": "O" 
			},
			{
				"x": -1.5478800101,
				"y": 2.3944083047,
				"z": 0.0583560517,
				"element": "C" 
			},
			{
				"x": -2.8377259376,
				"y": 2.2627857236,
				"z": -0.3059290446,
				"element": "F" 
			},
			{
				"x": -0.9915280775,
				"y": 3.6519594933,
				"z": 0.2720623452,
				"element": "C" 
			},
			{
				"x": 0.3532302309,
				"y": 3.7656400271,
				"z": 0.6394427392,
				"element": "C" 
			},
			{
				"x": 1.15314114,
				"y": 2.628093128,
				"z": 0.7992246243,
				"element": "C" 
			},
			{
				"x": -1.363917016,
				"y": -0.7058269163,
				"z": -1.7802191245,
				"element": "H" 
			},
			{
				"x": -0.2470757594,
				"y": -1.7455640121,
				"z": 0.7085673405,
				"element": "H" 
			},
			{
				"x": 2.0751923805,
				"y": -0.185375565,
				"z": 0.1430566001,
				"element": "H" 
			},
			{
				"x": 1.3362431463,
				"y": -0.2942683707,
				"z": 1.7454244651,
				"element": "H" 
			},
			{
				"x": -1.6191449653,
				"y": 4.5270137411,
				"z": 0.1415434403,
				"element": "H" 
			},
			{
				"x": 0.7770860023,
				"y": 4.7516399204,
				"z": 0.7996567357,
				"element": "H" 
			},
			{
				"x": 2.196376505,
				"y": 2.7237706526,
				"z": 1.0836792328,
				"element": "H" 
			}
		],
		 "valence_orbital": [ 
			{
				"type": "occ",
				"energy": -0.34644,
				"method": "rhf"
			},
			{
				"type": "occ",
				"energy": -0.31976,
				"method": "rhf"
			},
			{
				"type": "occ",
				"energy": -0.28048,
				"method": "rhf"
			},
			{
				"type": "occ",
				"energy": -0.25888,
				"method": "rhf"
			},
			{
				"type": "occ",
				"energy": -0.23795,
				"method": "rhf"
			},
			{
				"type": "unocc",
				"energy": -0.02059,
				"method": "rhf"
			},
			{
				"type": "unocc",
				"energy": -0.00857,
				"method": "rhf"
			},
			{
				"type": "unocc",
				"energy": 0.00264,
				"method": "rhf"
			},
			{
				"type": "unocc",
				"energy": 0.06135,
				"method": "rhf"
			},
			{
				"type": "unocc",
				"energy": 0.08416,
				"method": "rhf"
			}
		],
		"cosmo_sigma_profile": { 
			"-0.025": 0.0,
			"-0.024": 0.0,
			"-0.023": 0.0,
			"-0.022": 0.0,
			"-0.021": 0.0,
			"-0.02": 0.0,
			"-0.019": 0.0,
			"-0.018": 0.0,
			"-0.017": 0.0,
			"-0.016": 0.0,
			"-0.015": 0.237902041206,
			"-0.014": 0.358494566598,
			"-0.013": 0.995392762024,
			"-0.012": 0.714676410355,
			"-0.011": 0.482026076849,
			"-0.01": 2.57230066858,
			"-0.009": 5.09350539681,
			"-0.008": 4.72455591315,
			"-0.007": 7.0848705061,
			"-0.006": 13.1605461954,
			"-0.005": 13.666886288,
			"-0.004": 13.8802713431,
			"-0.003": 12.2424598385,
			"-0.002": 8.48170807901,
			"-0.001": 9.20324931138,
			"0.0": 11.4060209404,
			"0.001": 13.2712045258,
			"0.002": 10.8357874037,
			"0.003": 14.7556989323,
			"0.004": 19.127423744,
			"0.005": 7.1922868666,
			"0.006": 3.58996644409,
			"0.007": 3.4268059995,
			"0.008": 4.21540432317,
			"0.009": 4.38251062648,
			"0.01": 4.1767973687,
			"0.011": 5.07569128449,
			"0.012": 3.48531067697,
			"0.013": 0.621818816732,
			"0.014": 0.0,
			"0.015": 0.0,
			"0.016": 0.0,
			"0.017": 0.0,
			"0.018": 0.0,
			"0.019": 0.0,
			"0.02": 0.0,
			"0.021": 0.0,
			"0.022": 0.0,
			"0.023": 0.0,
			"0.024": 0.0,
			"0.025": 0.0
		}
	}
}
