{
	 "smiles": "COC(=O)C1=CC=C(C=C1C(=O)OC)[N+]([O-])=O", 
	 "Tm": 340.15, 
	 "num_atms": 26, 
	 "gaussian": { 
		 "optdone": 1, 
		 "sigma_profile": "yes", 
		 "theory": "DFT", 
		 "functional": "B3LYP", 
		 "basiset": "6-31G**", 
		 "properties": { 
			 "R2extent": 4772.1021, 
			 "electric_dipole_moment_norm": 3.75450180317, 
			 "electric_quadrupole_moment_norm": 19.6561704696, 
			 "total_energy": -892.490136017, 
			 "HOMO_LUMO_gap": 0.17505, 
			 "cosmo_polarized_energy": -14.09, 
			 "cosmo_cavitation_energy": 32.6, 
			 "cosmo_dispersion_energy": -22.82, 
			 "cosmo_repulsion_energy": 1.79, 
			 "cosmo_total_nonelectrostatic_energy": 11.57, 
			 "SMD_solvation_energy": 10.82 
		},
		"coords": [
			{
				"x": 0.8834504964,
				"y": 3.6840148401,
				"z": -1.4522437571,
				"element": "C" 
			},
			{
				"x": 0.2077080937,
				"y": 2.7048543215,
				"z": -0.6423013534,
				"element": "O" 
			},
			{
				"x": 0.9978581562,
				"y": 2.0064999425,
				"z": 0.1883335087,
				"element": "C" 
			},
			{
				"x": 2.1679394874,
				"y": 2.2408499834,
				"z": 0.3955585563,
				"element": "O" 
			},
			{
				"x": 0.2222422009,
				"y": 0.9521976851,
				"z": 0.9321214779,
				"element": "C" 
			},
			{
				"x": 0.272198054,
				"y": 1.002925814,
				"z": 2.3294929319,
				"element": "C" 
			},
			{
				"x": -0.4492665363,
				"y": 0.098784427,
				"z": 3.1030009184,
				"element": "C" 
			},
			{
				"x": -1.2147358946,
				"y": -0.8652521067,
				"z": 2.4523166882,
				"element": "C" 
			},
			{
				"x": -1.2639140936,
				"y": -0.9601149706,
				"z": 1.0662801927,
				"element": "C" 
			},
			{
				"x": -0.5340170926,
				"y": -0.051873718,
				"z": 0.2940252988,
				"element": "C" 
			},
			{
				"x": -0.4683780904,
				"y": -0.2228052178,
				"z": -1.1925424053,
				"element": "C" 
			},
			{
				"x": 0.4406865851,
				"y": 0.1804398668,
				"z": -1.8883319111,
				"element": "O" 
			},
			{
				"x": -1.5220539186,
				"y": -0.9165286744,
				"z": -1.6648269451,
				"element": "O" 
			},
			{
				"x": -1.499278511,
				"y": -1.1830992797,
				"z": -3.0788022664,
				"element": "C" 
			},
			{
				"x": -1.989012726,
				"y": -1.8271689272,
				"z": 3.2582946707,
				"element": "N" 
			},
			{
				"x": -1.9305325524,
				"y": -1.7167763718,
				"z": 4.4815884722,
				"element": "O" 
			},
			{
				"x": -2.6440817849,
				"y": -2.6760413161,
				"z": 2.6568680099,
				"element": "O" 
			},
			{
				"x": 1.5646145062,
				"y": 3.1840559665,
				"z": -2.1449935745,
				"element": "H" 
			},
			{
				"x": 1.4480511159,
				"y": 4.3784085737,
				"z": -0.8263389261,
				"element": "H" 
			},
			{
				"x": 0.0974430171,
				"y": 4.2054782322,
				"z": -1.9975392922,
				"element": "H" 
			},
			{
				"x": 0.8807891238,
				"y": 1.7642819185,
				"z": 2.8050641343,
				"element": "H" 
			},
			{
				"x": -0.4300281555,
				"y": 0.1274853811,
				"z": 4.185163245,
				"element": "H" 
			},
			{
				"x": -1.852245872,
				"y": -1.7388189335,
				"z": 0.6004972155,
				"element": "H" 
			},
			{
				"x": -2.4051851744,
				"y": -1.7526401297,
				"z": -3.2828109898,
				"element": "H" 
			},
			{
				"x": -1.4964465976,
				"y": -0.2471022254,
				"z": -3.6420894506,
				"element": "H" 
			},
			{
				"x": -0.6107038368,
				"y": -1.7604550815,
				"z": -3.3448844488,
				"element": "H" 
			}
		],
		 "valence_orbital": [ 
			{
				"type": "occ",
				"energy": -0.3043,
				"method": "rhf"
			},
			{
				"type": "occ",
				"energy": -0.30105,
				"method": "rhf"
			},
			{
				"type": "occ",
				"energy": -0.29627,
				"method": "rhf"
			},
			{
				"type": "occ",
				"energy": -0.28854,
				"method": "rhf"
			},
			{
				"type": "occ",
				"energy": -0.27833,
				"method": "rhf"
			},
			{
				"type": "unocc",
				"energy": -0.10328,
				"method": "rhf"
			},
			{
				"type": "unocc",
				"energy": -0.0678,
				"method": "rhf"
			},
			{
				"type": "unocc",
				"energy": -0.02938,
				"method": "rhf"
			},
			{
				"type": "unocc",
				"energy": 0.01373,
				"method": "rhf"
			},
			{
				"type": "unocc",
				"energy": 0.03681,
				"method": "rhf"
			}
		],
		"cosmo_sigma_profile": { 
			"-0.025": 0.0,
			"-0.024": 0.0,
			"-0.023": 0.0,
			"-0.022": 0.0,
			"-0.021": 0.0,
			"-0.02": 0.0,
			"-0.019": 0.0,
			"-0.018": 0.0,
			"-0.017": 0.0,
			"-0.016": 0.0,
			"-0.015": 0.0,
			"-0.014": 0.0,
			"-0.013": 0.0,
			"-0.012": 0.0,
			"-0.011": 0.0,
			"-0.01": 0.00896327113712,
			"-0.009": 1.56244447918,
			"-0.008": 4.52089718419,
			"-0.007": 9.24039654697,
			"-0.006": 17.4293447089,
			"-0.005": 21.7405230678,
			"-0.004": 26.5743041446,
			"-0.003": 23.9809122035,
			"-0.002": 22.9525832461,
			"-0.001": 20.4366165374,
			"0.0": 13.0956606535,
			"0.001": 10.4861786042,
			"0.002": 9.90173350684,
			"0.003": 6.99761731493,
			"0.004": 8.19871403406,
			"0.005": 10.9833192146,
			"0.006": 9.83807941882,
			"0.007": 13.2132455447,
			"0.008": 8.90928497461,
			"0.009": 6.78541375803,
			"0.01": 5.89109309924,
			"0.011": 6.48794895312,
			"0.012": 1.63844454053,
			"0.013": 0.0,
			"0.014": 0.0,
			"0.015": 0.0,
			"0.016": 0.0,
			"0.017": 0.0,
			"0.018": 0.0,
			"0.019": 0.0,
			"0.02": 0.0,
			"0.021": 0.0,
			"0.022": 0.0,
			"0.023": 0.0,
			"0.024": 0.0,
			"0.025": 0.0
		}
	}
}
