{
	 "smiles": "CC1CN(CC(C)O1)C1=CC=C(N)C=C1", 
	 "Tm": 347.15, 
	 "num_atms": 33, 
	 "gaussian": { 
		 "optdone": 1, 
		 "sigma_profile": "yes", 
		 "theory": "DFT", 
		 "functional": "B3LYP", 
		 "basiset": "6-31G**", 
		 "properties": { 
			 "R2extent": 4210.382, 
			 "electric_dipole_moment_norm": 1.57097817299, 
			 "electric_quadrupole_moment_norm": 10.5408517739, 
			 "total_energy": -652.847905608, 
			 "HOMO_LUMO_gap": 0.17229, 
			 "cosmo_polarized_energy": -11.56, 
			 "cosmo_cavitation_energy": 33.69, 
			 "cosmo_dispersion_energy": -24.38, 
			 "cosmo_repulsion_energy": 1.92, 
			 "cosmo_total_nonelectrostatic_energy": 11.23, 
			 "SMD_solvation_energy": 3.99 
		},
		"coords": [
			{
				"x": -3.3896861135,
				"y": -1.3345411294,
				"z": 1.2783346168,
				"element": "C" 
			},
			{
				"x": -2.3068373077,
				"y": -0.8783222677,
				"z": 0.3120146353,
				"element": "C" 
			},
			{
				"x": -1.1462713389,
				"y": -1.8800529977,
				"z": 0.1964613547,
				"element": "C" 
			},
			{
				"x": -0.1823798428,
				"y": -1.5128403165,
				"z": -0.8353461396,
				"element": "N" 
			},
			{
				"x": -0.8563855821,
				"y": -1.2872870297,
				"z": -2.1169748259,
				"element": "C" 
			},
			{
				"x": -2.0150093967,
				"y": -0.2853787491,
				"z": -1.9830638675,
				"element": "C" 
			},
			{
				"x": -2.8169998472,
				"y": -0.133051254,
				"z": -3.2670352635,
				"element": "C" 
			},
			{
				"x": -2.9236426511,
				"y": -0.7239892451,
				"z": -0.969557439,
				"element": "O" 
			},
			{
				"x": 0.9497269503,
				"y": -0.728168707,
				"z": -0.5056808385,
				"element": "C" 
			},
			{
				"x": 1.1196760071,
				"y": -0.0943711124,
				"z": 0.7374096223,
				"element": "C" 
			},
			{
				"x": 2.284822379,
				"y": 0.6100420415,
				"z": 1.0435987883,
				"element": "C" 
			},
			{
				"x": 3.3242876046,
				"y": 0.7366586778,
				"z": 0.11468948,
				"element": "C" 
			},
			{
				"x": 4.4646270622,
				"y": 1.5110431609,
				"z": 0.392143245,
				"element": "N" 
			},
			{
				"x": 3.1589734087,
				"y": 0.110981989,
				"z": -1.1318307011,
				"element": "C" 
			},
			{
				"x": 2.010025967,
				"y": -0.6125928869,
				"z": -1.4268542973,
				"element": "C" 
			},
			{
				"x": -2.9947444245,
				"y": -1.4129021564,
				"z": 2.2964858557,
				"element": "H" 
			},
			{
				"x": -4.2192367849,
				"y": -0.6223329727,
				"z": 1.280896508,
				"element": "H" 
			},
			{
				"x": -3.7813322182,
				"y": -2.3124954918,
				"z": 0.9800263228,
				"element": "H" 
			},
			{
				"x": -1.9073980229,
				"y": 0.0992823391,
				"z": 0.6320989194,
				"element": "H" 
			},
			{
				"x": -0.6330830297,
				"y": -2.0096251447,
				"z": 1.1527775158,
				"element": "H" 
			},
			{
				"x": -1.5777256875,
				"y": -2.8541577046,
				"z": -0.0779678965,
				"element": "H" 
			},
			{
				"x": -0.1391353446,
				"y": -0.9295068744,
				"z": -2.857811503,
				"element": "H" 
			},
			{
				"x": -1.2626835162,
				"y": -2.2437772864,
				"z": -2.476258014,
				"element": "H" 
			},
			{
				"x": -1.5915688463,
				"y": 0.6902785868,
				"z": -1.6862512794,
				"element": "H" 
			},
			{
				"x": -2.188311205,
				"y": 0.2570846648,
				"z": -4.0738662856,
				"element": "H" 
			},
			{
				"x": -3.6514695456,
				"y": 0.5562413918,
				"z": -3.1122660996,
				"element": "H" 
			},
			{
				"x": -3.226977466,
				"y": -1.0990668453,
				"z": -3.5793808701,
				"element": "H" 
			},
			{
				"x": 0.3373059551,
				"y": -0.1350235156,
				"z": 1.4868817017,
				"element": "H" 
			},
			{
				"x": 2.3742596876,
				"y": 1.0870636066,
				"z": 2.0171126882,
				"element": "H" 
			},
			{
				"x": 5.2864615534,
				"y": 1.2299522096,
				"z": -0.1273206323,
				"element": "H" 
			},
			{
				"x": 4.6785705863,
				"y": 1.5858798469,
				"z": 1.3783705138,
				"element": "H" 
			},
			{
				"x": 3.9511883076,
				"y": 0.1779390063,
				"z": -1.8743033029,
				"element": "H" 
			},
			{
				"x": 1.9460527027,
				"y": -1.1227638338,
				"z": -2.383032512,
				"element": "H" 
			}
		],
		 "valence_orbital": [ 
			{
				"type": "occ",
				"energy": -0.29982,
				"method": "rhf"
			},
			{
				"type": "occ",
				"energy": -0.26392,
				"method": "rhf"
			},
			{
				"type": "occ",
				"energy": -0.23946,
				"method": "rhf"
			},
			{
				"type": "occ",
				"energy": -0.22644,
				"method": "rhf"
			},
			{
				"type": "occ",
				"energy": -0.16533,
				"method": "rhf"
			},
			{
				"type": "unocc",
				"energy": 0.00696,
				"method": "rhf"
			},
			{
				"type": "unocc",
				"energy": 0.03204,
				"method": "rhf"
			},
			{
				"type": "unocc",
				"energy": 0.08595,
				"method": "rhf"
			},
			{
				"type": "unocc",
				"energy": 0.09105,
				"method": "rhf"
			},
			{
				"type": "unocc",
				"energy": 0.1058,
				"method": "rhf"
			}
		],
		"cosmo_sigma_profile": { 
			"-0.025": 0.0,
			"-0.024": 0.0,
			"-0.023": 0.0,
			"-0.022": 0.0,
			"-0.021": 0.0,
			"-0.02": 0.0,
			"-0.019": 0.0,
			"-0.018": 0.0,
			"-0.017": 0.0,
			"-0.016": 0.0,
			"-0.015": 0.0,
			"-0.014": 0.0,
			"-0.013": 0.0,
			"-0.012": 0.874830692542,
			"-0.011": 2.57251499969,
			"-0.01": 2.86834328294,
			"-0.009": 2.73337000556,
			"-0.008": 3.03580268333,
			"-0.007": 3.0272022154,
			"-0.006": 6.00534203839,
			"-0.005": 12.364912261,
			"-0.004": 20.9118758158,
			"-0.003": 31.3989978067,
			"-0.002": 31.1788224674,
			"-0.001": 27.9191528358,
			"0.0": 23.613589961,
			"0.001": 17.3453046914,
			"0.002": 9.71768333578,
			"0.003": 7.70238798123,
			"0.004": 7.4786714898,
			"0.005": 8.09622294269,
			"0.006": 10.0657116998,
			"0.007": 11.862790616,
			"0.008": 7.28420391177,
			"0.009": 3.09955283391,
			"0.01": 3.0047231887,
			"0.011": 1.75164668839,
			"0.012": 2.5487910831,
			"0.013": 2.09067187682,
			"0.014": 1.01534815403,
			"0.015": 0.668448628929,
			"0.016": 0.468232715438,
			"0.017": 0.0356166804862,
			"0.018": 0.0,
			"0.019": 0.0,
			"0.02": 0.0,
			"0.021": 0.0,
			"0.022": 0.0,
			"0.023": 0.0,
			"0.024": 0.0,
			"0.025": 0.0
		}
	}
}
