{
	 "smiles": "ONC(=O)OCC1=CC=CC=C1", 
	 "Tm": 341.15, 
	 "num_atms": 21, 
	 "gaussian": { 
		 "optdone": 1, 
		 "sigma_profile": "yes", 
		 "theory": "DFT", 
		 "functional": "B3LYP", 
		 "basiset": "6-31G**", 
		 "properties": { 
			 "R2extent": 2909.6919, 
			 "electric_dipole_moment_norm": 2.83247187806, 
			 "electric_quadrupole_moment_norm": 9.99938691671, 
			 "total_energy": -590.650409399, 
			 "HOMO_LUMO_gap": 0.21929, 
			 "cosmo_polarized_energy": -10.67, 
			 "cosmo_cavitation_energy": 25.57, 
			 "cosmo_dispersion_energy": -18.83, 
			 "cosmo_repulsion_energy": 1.52, 
			 "cosmo_total_nonelectrostatic_energy": 8.27, 
			 "SMD_solvation_energy": 6.34 
		},
		"coords": [
			{
				"x": -4.819359436,
				"y": -0.6059184329,
				"z": 0.9505474928,
				"element": "O" 
			},
			{
				"x": -3.5413095093,
				"y": -1.0829750498,
				"z": 1.3211837148,
				"element": "N" 
			},
			{
				"x": -2.5743854264,
				"y": -0.1066115752,
				"z": 1.365329767,
				"element": "C" 
			},
			{
				"x": -2.8534037589,
				"y": 1.0845859017,
				"z": 1.416887105,
				"element": "O" 
			},
			{
				"x": -1.3469208717,
				"y": -0.6507506442,
				"z": 1.4120241287,
				"element": "O" 
			},
			{
				"x": -0.2325739392,
				"y": 0.2837032416,
				"z": 1.5326904308,
				"element": "C" 
			},
			{
				"x": 0.325743093,
				"y": 0.6641687306,
				"z": 0.1850966936,
				"element": "C" 
			},
			{
				"x": 1.4042198298,
				"y": -0.0440061356,
				"z": -0.3591195456,
				"element": "C" 
			},
			{
				"x": 1.9191031402,
				"y": 0.2974876577,
				"z": -1.6103122605,
				"element": "C" 
			},
			{
				"x": 1.3566689799,
				"y": 1.3530359912,
				"z": -2.3303271703,
				"element": "C" 
			},
			{
				"x": 0.2801456728,
				"y": 2.0646705545,
				"z": -1.7952765122,
				"element": "C" 
			},
			{
				"x": -0.2330362481,
				"y": 1.7237921588,
				"z": -0.5439257861,
				"element": "C" 
			},
			{
				"x": -4.6930340141,
				"y": 0.3622546325,
				"z": 1.0168551477,
				"element": "H" 
			},
			{
				"x": -3.3208174582,
				"y": -1.9176905539,
				"z": 0.790711685,
				"element": "H" 
			},
			{
				"x": -0.5796261539,
				"y": 1.1580862786,
				"z": 2.0855984613,
				"element": "H" 
			},
			{
				"x": 0.5047582215,
				"y": -0.2593298763,
				"z": 2.1268866634,
				"element": "H" 
			},
			{
				"x": 1.8444270479,
				"y": -0.8648286237,
				"z": 0.2020592143,
				"element": "H" 
			},
			{
				"x": 2.7582269659,
				"y": -0.2569398611,
				"z": -2.0206171768,
				"element": "H" 
			},
			{
				"x": 1.7574670185,
				"y": 1.6222649505,
				"z": -3.3034367158,
				"element": "H" 
			},
			{
				"x": -0.1576502231,
				"y": 2.8884001412,
				"z": -2.3518402853,
				"element": "H" 
			},
			{
				"x": -1.0744429306,
				"y": 2.2681005137,
				"z": -0.1260150517,
				"element": "H" 
			}
		],
		 "valence_orbital": [ 
			{
				"type": "occ",
				"energy": -0.30929,
				"method": "rhf"
			},
			{
				"type": "occ",
				"energy": -0.29885,
				"method": "rhf"
			},
			{
				"type": "occ",
				"energy": -0.25693,
				"method": "rhf"
			},
			{
				"type": "occ",
				"energy": -0.25546,
				"method": "rhf"
			},
			{
				"type": "occ",
				"energy": -0.23734,
				"method": "rhf"
			},
			{
				"type": "unocc",
				"energy": -0.01805,
				"method": "rhf"
			},
			{
				"type": "unocc",
				"energy": -0.00784,
				"method": "rhf"
			},
			{
				"type": "unocc",
				"energy": 0.02809,
				"method": "rhf"
			},
			{
				"type": "unocc",
				"energy": 0.08299,
				"method": "rhf"
			},
			{
				"type": "unocc",
				"energy": 0.09071,
				"method": "rhf"
			}
		],
		"cosmo_sigma_profile": { 
			"-0.025": 0.0,
			"-0.024": 0.0,
			"-0.023": 0.0,
			"-0.022": 0.0,
			"-0.021": 0.0,
			"-0.02": 0.0,
			"-0.019": 0.0,
			"-0.018": 0.0,
			"-0.017": 0.105744191465,
			"-0.016": 0.904622980814,
			"-0.015": 1.19473597287,
			"-0.014": 1.17592035621,
			"-0.013": 1.30181972994,
			"-0.012": 0.93069466932,
			"-0.011": 1.18710296005,
			"-0.01": 1.57938232023,
			"-0.009": 1.61712785961,
			"-0.008": 1.73137494384,
			"-0.007": 4.04861607254,
			"-0.006": 11.3880675389,
			"-0.005": 14.4643856944,
			"-0.004": 18.1164650887,
			"-0.003": 14.9388828192,
			"-0.002": 11.8897987548,
			"-0.001": 11.3023447957,
			"0.0": 11.6341164267,
			"0.001": 11.2993534449,
			"0.002": 11.2722016474,
			"0.003": 12.7046032511,
			"0.004": 14.5584446382,
			"0.005": 15.1052412747,
			"0.006": 6.40720105817,
			"0.007": 3.74663311234,
			"0.008": 4.05551801093,
			"0.009": 3.81149508669,
			"0.01": 4.66930614209,
			"0.011": 4.40381135974,
			"0.012": 1.85992708864,
			"0.013": 0.0414861578622,
			"0.014": 0.0,
			"0.015": 0.0,
			"0.016": 0.0,
			"0.017": 0.0,
			"0.018": 0.0,
			"0.019": 0.0,
			"0.02": 0.0,
			"0.021": 0.0,
			"0.022": 0.0,
			"0.023": 0.0,
			"0.024": 0.0,
			"0.025": 0.0
		}
	}
}
