{
	 "smiles": "CC1=NN(N=C1C(=O)N1CCCC1)C1=CC=CC=C1", 
	 "Tm": 362.65, 
	 "num_atms": 35, 
	 "gaussian": { 
		 "optdone": 1, 
		 "sigma_profile": "yes", 
		 "theory": "DFT", 
		 "functional": "B3LYP", 
		 "basiset": "6-31G**", 
		 "properties": { 
			 "R2extent": 7143.3375, 
			 "electric_dipole_moment_norm": 3.48492250846, 
			 "electric_quadrupole_moment_norm": 9.93273276344, 
			 "total_energy": -837.360765963, 
			 "HOMO_LUMO_gap": 0.18113, 
			 "cosmo_polarized_energy": -10.63, 
			 "cosmo_cavitation_energy": 37.93, 
			 "cosmo_dispersion_energy": -27.57, 
			 "cosmo_repulsion_energy": 2.12, 
			 "cosmo_total_nonelectrostatic_energy": 12.48, 
			 "SMD_solvation_energy": 4.58 
		},
		"coords": [
			{
				"x": 4.0260283904,
				"y": -1.2885466866,
				"z": 0.5329200631,
				"element": "C" 
			},
			{
				"x": 2.7956864371,
				"y": -0.5850532266,
				"z": 1.0018615336,
				"element": "C" 
			},
			{
				"x": 2.7469809356,
				"y": 0.0304120158,
				"z": 2.1809692259,
				"element": "N" 
			},
			{
				"x": 1.5054101286,
				"y": 0.5398230777,
				"z": 2.2437128068,
				"element": "N" 
			},
			{
				"x": 0.7409172122,
				"y": 0.2936493802,
				"z": 1.1836604506,
				"element": "N" 
			},
			{
				"x": 1.5285935329,
				"y": -0.4220865348,
				"z": 0.3725316897,
				"element": "C" 
			},
			{
				"x": 1.16919169,
				"y": -0.9380339835,
				"z": -0.9754401774,
				"element": "C" 
			},
			{
				"x": 2.0517520977,
				"y": -1.4626564102,
				"z": -1.6650117365,
				"element": "O" 
			},
			{
				"x": -0.1080550513,
				"y": -0.8239087255,
				"z": -1.4343382325,
				"element": "N" 
			},
			{
				"x": -1.3067999045,
				"y": -0.3128163255,
				"z": -0.7471923351,
				"element": "C" 
			},
			{
				"x": -2.4570473326,
				"y": -0.7894351435,
				"z": -1.6476173608,
				"element": "C" 
			},
			{
				"x": -1.8307211554,
				"y": -0.7974103002,
				"z": -3.0510970517,
				"element": "C" 
			},
			{
				"x": -0.4052611975,
				"y": -1.3023569947,
				"z": -2.7951678833,
				"element": "C" 
			},
			{
				"x": 1.0489707783,
				"y": 1.2886448513,
				"z": 3.3626851793,
				"element": "C" 
			},
			{
				"x": 1.9022086467,
				"y": 1.4793359073,
				"z": 4.4539955501,
				"element": "C" 
			},
			{
				"x": 1.4490724833,
				"y": 2.2140398223,
				"z": 5.5480724465,
				"element": "C" 
			},
			{
				"x": 0.1613154586,
				"y": 2.754009736,
				"z": 5.5590129508,
				"element": "C" 
			},
			{
				"x": -0.6784511895,
				"y": 2.5549578372,
				"z": 4.4610289137,
				"element": "C" 
			},
			{
				"x": -0.242908349,
				"y": 1.823659512,
				"z": 3.3577184057,
				"element": "C" 
			},
			{
				"x": 4.3986641322,
				"y": -0.838880318,
				"z": -0.3909404504,
				"element": "H" 
			},
			{
				"x": 4.7969991092,
				"y": -1.2373510236,
				"z": 1.3048044118,
				"element": "H" 
			},
			{
				"x": 3.8098875273,
				"y": -2.3339402303,
				"z": 0.2976453261,
				"element": "H" 
			},
			{
				"x": -1.3720821515,
				"y": -0.6983855762,
				"z": 0.2716906088,
				"element": "H" 
			},
			{
				"x": -1.2776605376,
				"y": 0.7819948665,
				"z": -0.6792121478,
				"element": "H" 
			},
			{
				"x": -3.3380321733,
				"y": -0.1468471598,
				"z": -1.5664793232,
				"element": "H" 
			},
			{
				"x": -2.7560059143,
				"y": -1.8051050191,
				"z": -1.3637820626,
				"element": "H" 
			},
			{
				"x": -1.8024778764,
				"y": 0.2205245682,
				"z": -3.4567372104,
				"element": "H" 
			},
			{
				"x": -2.3729709258,
				"y": -1.425344848,
				"z": -3.7629012649,
				"element": "H" 
			},
			{
				"x": 0.3366289012,
				"y": -0.9179375258,
				"z": -3.4995788157,
				"element": "H" 
			},
			{
				"x": -0.344520736,
				"y": -2.3980470064,
				"z": -2.8301090919,
				"element": "H" 
			},
			{
				"x": 2.8978600876,
				"y": 1.0544620545,
				"z": 4.4304698525,
				"element": "H" 
			},
			{
				"x": 2.1100778616,
				"y": 2.3632354395,
				"z": 6.3966415603,
				"element": "H" 
			},
			{
				"x": -0.1847306798,
				"y": 3.3251298014,
				"z": 6.4150507584,
				"element": "H" 
			},
			{
				"x": -1.6813103394,
				"y": 2.9716703953,
				"z": 4.4590475266,
				"element": "H" 
			},
			{
				"x": -0.8835098966,
				"y": 1.6641937732,
				"z": 2.4993858839,
				"element": "H" 
			}
		],
		 "valence_orbital": [ 
			{
				"type": "occ",
				"energy": -0.28888,
				"method": "rhf"
			},
			{
				"type": "occ",
				"energy": -0.25962,
				"method": "rhf"
			},
			{
				"type": "occ",
				"energy": -0.24604,
				"method": "rhf"
			},
			{
				"type": "occ",
				"energy": -0.23342,
				"method": "rhf"
			},
			{
				"type": "occ",
				"energy": -0.22752,
				"method": "rhf"
			},
			{
				"type": "unocc",
				"energy": -0.04639,
				"method": "rhf"
			},
			{
				"type": "unocc",
				"energy": -0.0109,
				"method": "rhf"
			},
			{
				"type": "unocc",
				"energy": 0.00307,
				"method": "rhf"
			},
			{
				"type": "unocc",
				"energy": 0.03193,
				"method": "rhf"
			},
			{
				"type": "unocc",
				"energy": 0.08064,
				"method": "rhf"
			}
		],
		"cosmo_sigma_profile": { 
			"-0.025": 0.0,
			"-0.024": 0.0,
			"-0.023": 0.0,
			"-0.022": 0.0,
			"-0.021": 0.0,
			"-0.02": 0.0,
			"-0.019": 0.0,
			"-0.018": 0.0,
			"-0.017": 0.0,
			"-0.016": 0.0,
			"-0.015": 0.0,
			"-0.014": 0.0,
			"-0.013": 0.0,
			"-0.012": 0.0,
			"-0.011": 0.0,
			"-0.01": 0.0,
			"-0.009": 0.0,
			"-0.008": 0.0,
			"-0.007": 0.96835166524,
			"-0.006": 7.97403130156,
			"-0.005": 12.5136190527,
			"-0.004": 28.6729314987,
			"-0.003": 36.9759573008,
			"-0.002": 37.6467943508,
			"-0.001": 36.0940437722,
			"0.0": 33.3280291511,
			"0.001": 22.5139019466,
			"0.002": 18.7127153779,
			"0.003": 15.9095512957,
			"0.004": 16.8345966538,
			"0.005": 8.37872535257,
			"0.006": 3.27576366172,
			"0.007": 2.8315672821,
			"0.008": 2.74053772794,
			"0.009": 3.13681697018,
			"0.01": 2.78696716678,
			"0.011": 1.66270268063,
			"0.012": 1.52250310434,
			"0.013": 2.40100366097,
			"0.014": 3.19198130279,
			"0.015": 0.838361227825,
			"0.016": 0.0,
			"0.017": 0.0,
			"0.018": 0.0,
			"0.019": 0.0,
			"0.02": 0.0,
			"0.021": 0.0,
			"0.022": 0.0,
			"0.023": 0.0,
			"0.024": 0.0,
			"0.025": 0.0
		}
	}
}
