{
	 "smiles": "COC1=CC=C(C=C1F)C(C)=O", 
	 "Tm": 365.15, 
	 "num_atms": 21, 
	 "gaussian": { 
		 "optdone": 1, 
		 "sigma_profile": "yes", 
		 "theory": "DFT", 
		 "functional": "B3LYP", 
		 "basiset": "6-31G**", 
		 "properties": { 
			 "R2extent": 2487.7971, 
			 "electric_dipole_moment_norm": 3.20708685414, 
			 "electric_quadrupole_moment_norm": 10.9428968185, 
			 "total_energy": -598.649731002, 
			 "HOMO_LUMO_gap": 0.17952, 
			 "cosmo_polarized_energy": -8.8, 
			 "cosmo_cavitation_energy": 25.52, 
			 "cosmo_dispersion_energy": -18.66, 
			 "cosmo_repulsion_energy": 1.46, 
			 "cosmo_total_nonelectrostatic_energy": 8.31, 
			 "SMD_solvation_energy": 6.36 
		},
		"coords": [
			{
				"x": -2.8556843654,
				"y": 0.2128834308,
				"z": -2.367339065,
				"element": "C" 
			},
			{
				"x": -1.9300943137,
				"y": -0.787433764,
				"z": -1.9304820947,
				"element": "O" 
			},
			{
				"x": -0.9715598205,
				"y": -0.5224406976,
				"z": -1.0119289062,
				"element": "C" 
			},
			{
				"x": -0.1359727039,
				"y": -1.6020702844,
				"z": -0.6804572104,
				"element": "C" 
			},
			{
				"x": 0.8876318892,
				"y": -1.4665766947,
				"z": 0.2476047012,
				"element": "C" 
			},
			{
				"x": 1.117312224,
				"y": -0.2367912112,
				"z": 0.8852625966,
				"element": "C" 
			},
			{
				"x": 0.2886007735,
				"y": 0.846421254,
				"z": 0.5609742085,
				"element": "C" 
			},
			{
				"x": -0.7281872024,
				"y": 0.7039133906,
				"z": -0.363726318,
				"element": "C" 
			},
			{
				"x": -1.4994840298,
				"y": 1.786943438,
				"z": -0.6387051325,
				"element": "F" 
			},
			{
				"x": 2.1978440546,
				"y": -0.0164823118,
				"z": 1.8927620654,
				"element": "C" 
			},
			{
				"x": 3.1059339065,
				"y": -1.1802208328,
				"z": 2.2563491827,
				"element": "C" 
			},
			{
				"x": 2.3507622681,
				"y": 1.078188523,
				"z": 2.4162493679,
				"element": "O" 
			},
			{
				"x": -2.3443366418,
				"y": 1.0523427998,
				"z": -2.8455587968,
				"element": "H" 
			},
			{
				"x": -3.4660337386,
				"y": 0.5845357177,
				"z": -1.5401597923,
				"element": "H" 
			},
			{
				"x": -3.491982092,
				"y": -0.2925304901,
				"z": -3.0952037793,
				"element": "H" 
			},
			{
				"x": -0.3235715499,
				"y": -2.5467636125,
				"z": -1.1798668241,
				"element": "H" 
			},
			{
				"x": 1.5076727064,
				"y": -2.3277931426,
				"z": 0.4720963405,
				"element": "H" 
			},
			{
				"x": 0.4484933523,
				"y": 1.8052463229,
				"z": 1.0416672392,
				"element": "H" 
			},
			{
				"x": 2.5292447224,
				"y": -2.0162145782,
				"z": 2.6673907679,
				"element": "H" 
			},
			{
				"x": 3.8279100234,
				"y": -0.8395452617,
				"z": 2.9988647488,
				"element": "H" 
			},
			{
				"x": 3.6397005376,
				"y": -1.5534119952,
				"z": 1.3753067005,
				"element": "H" 
			}
		],
		 "valence_orbital": [ 
			{
				"type": "occ",
				"energy": -0.33454,
				"method": "rhf"
			},
			{
				"type": "occ",
				"energy": -0.32398,
				"method": "rhf"
			},
			{
				"type": "occ",
				"energy": -0.25898,
				"method": "rhf"
			},
			{
				"type": "occ",
				"energy": -0.2464,
				"method": "rhf"
			},
			{
				"type": "occ",
				"energy": -0.23088,
				"method": "rhf"
			},
			{
				"type": "unocc",
				"energy": -0.05136,
				"method": "rhf"
			},
			{
				"type": "unocc",
				"energy": -0.00933,
				"method": "rhf"
			},
			{
				"type": "unocc",
				"energy": 0.0462,
				"method": "rhf"
			},
			{
				"type": "unocc",
				"energy": 0.07182,
				"method": "rhf"
			},
			{
				"type": "unocc",
				"energy": 0.10007,
				"method": "rhf"
			}
		],
		"cosmo_sigma_profile": { 
			"-0.025": 0.0,
			"-0.024": 0.0,
			"-0.023": 0.0,
			"-0.022": 0.0,
			"-0.021": 0.0,
			"-0.02": 0.0,
			"-0.019": 0.0,
			"-0.018": 0.0,
			"-0.017": 0.0,
			"-0.016": 0.0,
			"-0.015": 0.0,
			"-0.014": 0.0,
			"-0.013": 0.0,
			"-0.012": 0.0,
			"-0.011": 0.0,
			"-0.01": 0.0,
			"-0.009": 0.0,
			"-0.008": 0.0501043494137,
			"-0.007": 3.04910871163,
			"-0.006": 14.4500605914,
			"-0.005": 18.6546216497,
			"-0.004": 19.1763044965,
			"-0.003": 17.2538969677,
			"-0.002": 14.7894126295,
			"-0.001": 15.0508373741,
			"0.0": 15.5270327944,
			"0.001": 15.9841535292,
			"0.002": 16.0513625597,
			"0.003": 16.1257645475,
			"0.004": 10.4821167769,
			"0.005": 3.75547261063,
			"0.006": 3.19837011898,
			"0.007": 3.39322160919,
			"0.008": 2.47948953442,
			"0.009": 2.74607868608,
			"0.01": 1.91393176972,
			"0.011": 2.96729322476,
			"0.012": 4.07638207942,
			"0.013": 1.84247819631,
			"0.014": 0.383228893829,
			"0.015": 0.0,
			"0.016": 0.0,
			"0.017": 0.0,
			"0.018": 0.0,
			"0.019": 0.0,
			"0.02": 0.0,
			"0.021": 0.0,
			"0.022": 0.0,
			"0.023": 0.0,
			"0.024": 0.0,
			"0.025": 0.0
		}
	}
}
