{
	 "smiles": "CCOC(=O)C1=NN(C=C1)C1=C(N)C=CC=C1", 
	 "Tm": 353.15, 
	 "num_atms": 30, 
	 "gaussian": { 
		 "optdone": 1, 
		 "sigma_profile": "yes", 
		 "theory": "DFT", 
		 "functional": "B3LYP", 
		 "basiset": "6-31G**", 
		 "properties": { 
			 "R2extent": 6311.8041, 
			 "electric_dipole_moment_norm": 1.88294008933, 
			 "electric_quadrupole_moment_norm": 17.7792703981, 
			 "total_energy": -779.813588183, 
			 "HOMO_LUMO_gap": 0.16362, 
			 "cosmo_polarized_energy": -13.86, 
			 "cosmo_cavitation_energy": 34.47, 
			 "cosmo_dispersion_energy": -25.0, 
			 "cosmo_repulsion_energy": 1.95, 
			 "cosmo_total_nonelectrostatic_energy": 11.41, 
			 "SMD_solvation_energy": 6.7 
		},
		"coords": [
			{
				"x": -3.8710299105,
				"y": 1.8737045814,
				"z": 0.9151640486,
				"element": "C" 
			},
			{
				"x": -3.3653138122,
				"y": 0.713321298,
				"z": 1.7597824197,
				"element": "C" 
			},
			{
				"x": -2.3018424647,
				"y": -0.0020616312,
				"z": 1.0899210998,
				"element": "O" 
			},
			{
				"x": -1.0506769583,
				"y": 0.495227091,
				"z": 1.2511501512,
				"element": "C" 
			},
			{
				"x": -0.7827251207,
				"y": 1.474620073,
				"z": 1.9155644263,
				"element": "O" 
			},
			{
				"x": -0.0709863909,
				"y": -0.3243729077,
				"z": 0.5046335755,
				"element": "C" 
			},
			{
				"x": 1.2312998312,
				"y": -0.0286062363,
				"z": 0.58596987,
				"element": "N" 
			},
			{
				"x": 1.8483517921,
				"y": -0.9183288633,
				"z": -0.2140093734,
				"element": "N" 
			},
			{
				"x": 0.9563170239,
				"y": -1.776151262,
				"z": -0.803386888,
				"element": "C" 
			},
			{
				"x": -0.2966641094,
				"y": -1.4263587249,
				"z": -0.3532291746,
				"element": "C" 
			},
			{
				"x": 3.2698178937,
				"y": -0.9261985897,
				"z": -0.3577687752,
				"element": "C" 
			},
			{
				"x": 4.0057812787,
				"y": 0.2865859768,
				"z": -0.354127039,
				"element": "C" 
			},
			{
				"x": 3.3971866038,
				"y": 1.5178774775,
				"z": -0.2183392766,
				"element": "N" 
			},
			{
				"x": 5.3972539163,
				"y": 0.1895328758,
				"z": -0.5584629861,
				"element": "C" 
			},
			{
				"x": 6.0271076709,
				"y": -1.0333896723,
				"z": -0.7522084299,
				"element": "C" 
			},
			{
				"x": 5.290350595,
				"y": -2.2204266505,
				"z": -0.7337942923,
				"element": "C" 
			},
			{
				"x": 3.9160055109,
				"y": -2.1542670585,
				"z": -0.5261232537,
				"element": "C" 
			},
			{
				"x": -3.0867168953,
				"y": 2.6233854122,
				"z": 0.7859046655,
				"element": "H" 
			},
			{
				"x": -4.1960802857,
				"y": 1.526606137,
				"z": -0.0701372152,
				"element": "H" 
			},
			{
				"x": -4.7236154464,
				"y": 2.3502678979,
				"z": 1.4105979342,
				"element": "H" 
			},
			{
				"x": -4.1432240191,
				"y": -0.038344191,
				"z": 1.9147954711,
				"element": "H" 
			},
			{
				"x": -2.999350343,
				"y": 1.0626224321,
				"z": 2.7282400432,
				"element": "H" 
			},
			{
				"x": 1.2820100376,
				"y": -2.532959038,
				"z": -1.499672062,
				"element": "H" 
			},
			{
				"x": -1.2427020358,
				"y": -1.8752062433,
				"z": -0.6101534953,
				"element": "H" 
			},
			{
				"x": 4.0153192794,
				"y": 2.2856421954,
				"z": -0.0015006484,
				"element": "H" 
			},
			{
				"x": 2.5210096802,
				"y": 1.5147394765,
				"z": 0.2921182324,
				"element": "H" 
			},
			{
				"x": 5.9793172562,
				"y": 1.1077002607,
				"z": -0.5671984527,
				"element": "H" 
			},
			{
				"x": 7.1020456189,
				"y": -1.0597988149,
				"z": -0.905699274,
				"element": "H" 
			},
			{
				"x": 5.7766442049,
				"y": -3.1814725323,
				"z": -0.8620585251,
				"element": "H" 
			},
			{
				"x": 3.3294095984,
				"y": -3.0659907693,
				"z": -0.4735727761,
				"element": "H" 
			}
		],
		 "valence_orbital": [ 
			{
				"type": "occ",
				"energy": -0.28797,
				"method": "rhf"
			},
			{
				"type": "occ",
				"energy": -0.26859,
				"method": "rhf"
			},
			{
				"type": "occ",
				"energy": -0.26002,
				"method": "rhf"
			},
			{
				"type": "occ",
				"energy": -0.23944,
				"method": "rhf"
			},
			{
				"type": "occ",
				"energy": -0.20085,
				"method": "rhf"
			},
			{
				"type": "unocc",
				"energy": -0.03723,
				"method": "rhf"
			},
			{
				"type": "unocc",
				"energy": -0.00444,
				"method": "rhf"
			},
			{
				"type": "unocc",
				"energy": 0.01049,
				"method": "rhf"
			},
			{
				"type": "unocc",
				"energy": 0.03404,
				"method": "rhf"
			},
			{
				"type": "unocc",
				"energy": 0.09198,
				"method": "rhf"
			}
		],
		"cosmo_sigma_profile": { 
			"-0.025": 0.0,
			"-0.024": 0.0,
			"-0.023": 0.0,
			"-0.022": 0.0,
			"-0.021": 0.0,
			"-0.02": 0.0,
			"-0.019": 0.0,
			"-0.018": 0.0,
			"-0.017": 0.0,
			"-0.016": 0.0,
			"-0.015": 0.0,
			"-0.014": 0.0,
			"-0.013": 0.50604442007,
			"-0.012": 1.68382826826,
			"-0.011": 1.07310041745,
			"-0.01": 1.95523407928,
			"-0.009": 4.26459012036,
			"-0.008": 5.65278784806,
			"-0.007": 6.81225563759,
			"-0.006": 10.3119696714,
			"-0.005": 16.1617149834,
			"-0.004": 21.9068282436,
			"-0.003": 22.4523943441,
			"-0.002": 20.9245389441,
			"-0.001": 19.3906164183,
			"0.0": 22.0268580825,
			"0.001": 19.5026609343,
			"0.002": 19.7713062035,
			"0.003": 18.426776679,
			"0.004": 14.0523480714,
			"0.005": 12.9312066715,
			"0.006": 10.0917380282,
			"0.007": 4.07841295884,
			"0.008": 2.60565716271,
			"0.009": 3.10976607852,
			"0.01": 3.04184923389,
			"0.011": 4.19429074344,
			"0.012": 5.23571777154,
			"0.013": 2.48669147333,
			"0.014": 0.214377795431,
			"0.015": 0.0,
			"0.016": 0.0,
			"0.017": 0.0,
			"0.018": 0.0,
			"0.019": 0.0,
			"0.02": 0.0,
			"0.021": 0.0,
			"0.022": 0.0,
			"0.023": 0.0,
			"0.024": 0.0,
			"0.025": 0.0
		}
	}
}
