{
	 "smiles": "CNC(C(N)=O)C1=CC(Br)=CC=C1", 
	 "Tm": 385.15, 
	 "num_atms": 24, 
	 "gaussian": { 
		 "optdone": 1, 
		 "sigma_profile": "yes", 
		 "theory": "DFT", 
		 "functional": "B3LYP", 
		 "basiset": "6-31G**", 
		 "properties": { 
			 "R2extent": 4795.1751, 
			 "electric_dipole_moment_norm": 4.38100553184, 
			 "electric_quadrupole_moment_norm": 17.5470523257, 
			 "total_energy": -3105.72863265, 
			 "HOMO_LUMO_gap": 0.21698, 
			 "cosmo_polarized_energy": -15.33, 
			 "cosmo_cavitation_energy": 29.96, 
			 "cosmo_dispersion_energy": -21.52, 
			 "cosmo_repulsion_energy": 1.76, 
			 "cosmo_total_nonelectrostatic_energy": 10.19, 
			 "SMD_solvation_energy": 4.08 
		},
		"coords": [
			{
				"x": 0.2272384642,
				"y": 2.6244276499,
				"z": -0.7182923516,
				"element": "C" 
			},
			{
				"x": 0.3699198906,
				"y": 1.665754349,
				"z": -1.8155673333,
				"element": "N" 
			},
			{
				"x": 1.2949084812,
				"y": 0.550583242,
				"z": -1.539820049,
				"element": "C" 
			},
			{
				"x": 1.7562609186,
				"y": -0.1243653581,
				"z": -2.8563208685,
				"element": "C" 
			},
			{
				"x": 1.6025642566,
				"y": 0.6597140252,
				"z": -3.9540654686,
				"element": "N" 
			},
			{
				"x": 2.2500577421,
				"y": -1.2422429035,
				"z": -2.8696709161,
				"element": "O" 
			},
			{
				"x": 0.7703323037,
				"y": -0.4609073814,
				"z": -0.5301511473,
				"element": "C" 
			},
			{
				"x": -0.2160560226,
				"y": -1.3856584071,
				"z": -0.9030838558,
				"element": "C" 
			},
			{
				"x": -0.754473936,
				"y": -2.2428147571,
				"z": 0.0501469992,
				"element": "C" 
			},
			{
				"x": -2.0999153442,
				"y": -3.4990085303,
				"z": -0.4752185845,
				"element": "Br" 
			},
			{
				"x": -0.3349074163,
				"y": -2.2130062884,
				"z": 1.380448435,
				"element": "C" 
			},
			{
				"x": 0.6504198794,
				"y": -1.2984628891,
				"z": 1.7477084707,
				"element": "C" 
			},
			{
				"x": 1.1974655555,
				"y": -0.4289707032,
				"z": 0.801286212,
				"element": "C" 
			},
			{
				"x": -0.0941838319,
				"y": 2.1776521579,
				"z": 0.2349966207,
				"element": "H" 
			},
			{
				"x": 1.1866670792,
				"y": 3.1257582015,
				"z": -0.5507447173,
				"element": "H" 
			},
			{
				"x": -0.5019406567,
				"y": 3.3877734638,
				"z": -1.0045482606,
				"element": "H" 
			},
			{
				"x": -0.5450341869,
				"y": 1.2783068504,
				"z": -2.0388823378,
				"element": "H" 
			},
			{
				"x": 2.2057946396,
				"y": 1.0020812538,
				"z": -1.1237187862,
				"element": "H" 
			},
			{
				"x": 1.1927568718,
				"y": 1.5763568069,
				"z": -3.842987793,
				"element": "H" 
			},
			{
				"x": 1.9393924378,
				"y": 0.3250162141,
				"z": -4.8429496037,
				"element": "H" 
			},
			{
				"x": -0.5454025477,
				"y": -1.4541522164,
				"z": -1.9342513687,
				"element": "H" 
			},
			{
				"x": -0.7660003113,
				"y": -2.8931159687,
				"z": 2.1059165616,
				"element": "H" 
			},
			{
				"x": 0.9933311953,
				"y": -1.266043415,
				"z": 2.7777280369,
				"element": "H" 
			},
			{
				"x": 1.970804538,
				"y": 0.2740246037,
				"z": 1.0990421058,
				"element": "H" 
			}
		],
		 "valence_orbital": [ 
			{
				"type": "occ",
				"energy": -0.26753,
				"method": "rhf"
			},
			{
				"type": "occ",
				"energy": -0.26233,
				"method": "rhf"
			},
			{
				"type": "occ",
				"energy": -0.25286,
				"method": "rhf"
			},
			{
				"type": "occ",
				"energy": -0.2409,
				"method": "rhf"
			},
			{
				"type": "occ",
				"energy": -0.23327,
				"method": "rhf"
			},
			{
				"type": "unocc",
				"energy": -0.01629,
				"method": "rhf"
			},
			{
				"type": "unocc",
				"energy": -0.01278,
				"method": "rhf"
			},
			{
				"type": "unocc",
				"energy": 0.009,
				"method": "rhf"
			},
			{
				"type": "unocc",
				"energy": 0.02769,
				"method": "rhf"
			},
			{
				"type": "unocc",
				"energy": 0.08447,
				"method": "rhf"
			}
		],
		"cosmo_sigma_profile": { 
			"-0.025": 0.0,
			"-0.024": 0.0,
			"-0.023": 0.0,
			"-0.022": 0.0,
			"-0.021": 0.0,
			"-0.02": 0.0,
			"-0.019": 0.0,
			"-0.018": 0.0,
			"-0.017": 0.0,
			"-0.016": 0.0,
			"-0.015": 0.0,
			"-0.014": 0.461727876012,
			"-0.013": 1.18241000883,
			"-0.012": 1.04615777819,
			"-0.011": 1.68333591768,
			"-0.01": 3.65327184141,
			"-0.009": 3.57961166329,
			"-0.008": 3.39996537325,
			"-0.007": 9.12889968906,
			"-0.006": 13.5886499699,
			"-0.005": 13.3164975424,
			"-0.004": 16.5010680065,
			"-0.003": 14.0767520628,
			"-0.002": 14.9989639079,
			"-0.001": 20.9314120753,
			"0.0": 15.4553845717,
			"0.001": 14.3005315993,
			"0.002": 17.0428994899,
			"0.003": 18.8561940857,
			"0.004": 21.3460062139,
			"0.005": 11.9803350387,
			"0.006": 1.49159645754,
			"0.007": 2.18068678616,
			"0.008": 2.33132804588,
			"0.009": 1.40573767368,
			"0.01": 1.52937106774,
			"0.011": 1.94135089809,
			"0.012": 1.74300293467,
			"0.013": 2.94258487643,
			"0.014": 5.88507121932,
			"0.015": 2.24826444577,
			"0.016": 0.00712448672611,
			"0.017": 0.0,
			"0.018": 0.0,
			"0.019": 0.0,
			"0.02": 0.0,
			"0.021": 0.0,
			"0.022": 0.0,
			"0.023": 0.0,
			"0.024": 0.0,
			"0.025": 0.0
		}
	}
}
