{
	 "smiles": "CNC(=O)OC1=CC=CC2=C1C=CC=C2", 
	 "Tm": 415.15, 
	 "num_atms": 26, 
	 "gaussian": { 
		 "optdone": 1, 
		 "sigma_profile": "yes", 
		 "theory": "DFT", 
		 "functional": "B3LYP", 
		 "basiset": "6-31G**", 
		 "properties": { 
			 "R2extent": 3854.986, 
			 "electric_dipole_moment_norm": 2.75543836258, 
			 "electric_quadrupole_moment_norm": 22.8526164907, 
			 "total_energy": -669.132086156, 
			 "HOMO_LUMO_gap": 0.17215, 
			 "cosmo_polarized_energy": -11.69, 
			 "cosmo_cavitation_energy": 30.19, 
			 "cosmo_dispersion_energy": -21.86, 
			 "cosmo_repulsion_energy": 1.7, 
			 "cosmo_total_nonelectrostatic_energy": 10.04, 
			 "SMD_solvation_energy": 5.75 
		},
		"coords": [
			{
				"x": 4.2134933371,
				"y": -1.6989176328,
				"z": -0.3155870623,
				"element": "C" 
			},
			{
				"x": 3.6722930643,
				"y": -1.5757856941,
				"z": -1.6596971776,
				"element": "N" 
			},
			{
				"x": 2.5069857704,
				"y": -0.9626414361,
				"z": -2.0096808438,
				"element": "C" 
			},
			{
				"x": 2.1363944039,
				"y": -0.777113914,
				"z": -3.1500143994,
				"element": "O" 
			},
			{
				"x": 1.8128561291,
				"y": -0.6027368124,
				"z": -0.8746752002,
				"element": "O" 
			},
			{
				"x": 0.5496147324,
				"y": -0.0251293448,
				"z": -0.9645626197,
				"element": "C" 
			},
			{
				"x": -0.4252688252,
				"y": -0.4949106675,
				"z": -1.8146264121,
				"element": "C" 
			},
			{
				"x": -1.7093809105,
				"y": 0.0983940635,
				"z": -1.7953033558,
				"element": "C" 
			},
			{
				"x": -1.9993300707,
				"y": 1.130505942,
				"z": -0.9334332817,
				"element": "C" 
			},
			{
				"x": -1.0088759934,
				"y": 1.6259707758,
				"z": -0.0442065917,
				"element": "C" 
			},
			{
				"x": 0.3013160632,
				"y": 1.0436322703,
				"z": -0.0549394632,
				"element": "C" 
			},
			{
				"x": 1.2895188879,
				"y": 1.5466379703,
				"z": 0.8330691226,
				"element": "C" 
			},
			{
				"x": 0.9968955383,
				"y": 2.5806224681,
				"z": 1.6940896539,
				"element": "C" 
			},
			{
				"x": -0.2961481474,
				"y": 3.1576238179,
				"z": 1.7103741086,
				"element": "C" 
			},
			{
				"x": -1.2725173502,
				"y": 2.6897511146,
				"z": 0.8608476827,
				"element": "C" 
			},
			{
				"x": 4.639690619,
				"y": -0.758358729,
				"z": 0.056822606,
				"element": "H" 
			},
			{
				"x": 3.4330941649,
				"y": -2.0215042704,
				"z": 0.3752299753,
				"element": "H" 
			},
			{
				"x": 5.0011085586,
				"y": -2.4558700791,
				"z": -0.3258916707,
				"element": "H" 
			},
			{
				"x": 4.2669667121,
				"y": -1.7734632864,
				"z": -2.4496091716,
				"element": "H" 
			},
			{
				"x": -0.2023638314,
				"y": -1.2990776001,
				"z": -2.5028402762,
				"element": "H" 
			},
			{
				"x": -2.4692730327,
				"y": -0.2765234015,
				"z": -2.474392778,
				"element": "H" 
			},
			{
				"x": -2.9882401996,
				"y": 1.5804520638,
				"z": -0.9214304026,
				"element": "H" 
			},
			{
				"x": 2.2783441743,
				"y": 1.102999087,
				"z": 0.8194140716,
				"element": "H" 
			},
			{
				"x": 1.7619913691,
				"y": 2.9583102576,
				"z": 2.3663495328,
				"element": "H" 
			},
			{
				"x": -0.5139059838,
				"y": 3.9717107637,
				"z": 2.3957063632,
				"element": "H" 
			},
			{
				"x": -2.2663591797,
				"y": 3.1299222736,
				"z": 0.8683875898,
				"element": "H" 
			}
		],
		 "valence_orbital": [ 
			{
				"type": "occ",
				"energy": -0.27535,
				"method": "rhf"
			},
			{
				"type": "occ",
				"energy": -0.27016,
				"method": "rhf"
			},
			{
				"type": "occ",
				"energy": -0.25872,
				"method": "rhf"
			},
			{
				"type": "occ",
				"energy": -0.2411,
				"method": "rhf"
			},
			{
				"type": "occ",
				"energy": -0.20804,
				"method": "rhf"
			},
			{
				"type": "unocc",
				"energy": -0.03589,
				"method": "rhf"
			},
			{
				"type": "unocc",
				"energy": -0.00676,
				"method": "rhf"
			},
			{
				"type": "unocc",
				"energy": 0.03253,
				"method": "rhf"
			},
			{
				"type": "unocc",
				"energy": 0.05543,
				"method": "rhf"
			},
			{
				"type": "unocc",
				"energy": 0.07455,
				"method": "rhf"
			}
		],
		"cosmo_sigma_profile": { 
			"-0.025": 0.0,
			"-0.024": 0.0,
			"-0.023": 0.0,
			"-0.022": 0.0,
			"-0.021": 0.0,
			"-0.02": 0.0,
			"-0.019": 0.0,
			"-0.018": 0.0,
			"-0.017": 0.0,
			"-0.016": 0.0,
			"-0.015": 0.253212935103,
			"-0.014": 1.35471079616,
			"-0.013": 1.15194829248,
			"-0.012": 0.801557532781,
			"-0.011": 0.796127110666,
			"-0.01": 1.04504234952,
			"-0.009": 1.32899428067,
			"-0.008": 0.716524970783,
			"-0.007": 1.90444967368,
			"-0.006": 12.5310732817,
			"-0.005": 18.6572935604,
			"-0.004": 20.6913715453,
			"-0.003": 21.4872771492,
			"-0.002": 20.8222504294,
			"-0.001": 16.6210688731,
			"0.0": 14.2454733312,
			"0.001": 12.7751344788,
			"0.002": 15.6237053014,
			"0.003": 21.844695251,
			"0.004": 24.1168389874,
			"0.005": 13.7716990629,
			"0.006": 2.0014679623,
			"0.007": 1.3176540606,
			"0.008": 1.69200847529,
			"0.009": 1.44755400284,
			"0.01": 1.67099956596,
			"0.011": 1.95604502684,
			"0.012": 3.09148947975,
			"0.013": 5.1510904593,
			"0.014": 0.491995722406,
			"0.015": 0.0,
			"0.016": 0.0,
			"0.017": 0.0,
			"0.018": 0.0,
			"0.019": 0.0,
			"0.02": 0.0,
			"0.021": 0.0,
			"0.022": 0.0,
			"0.023": 0.0,
			"0.024": 0.0,
			"0.025": 0.0
		}
	}
}
