{
	 "smiles": "SC1=NN=C(N1C1=CC=CC=C1)C1=CC=NC=C1", 
	 "Tm": 564.15, 
	 "num_atms": 28, 
	 "gaussian": { 
		 "optdone": 1, 
		 "sigma_profile": "yes", 
		 "theory": "DFT", 
		 "functional": "B3LYP", 
		 "basiset": "6-31G**", 
		 "properties": { 
			 "R2extent": 5358.5871, 
			 "electric_dipole_moment_norm": 6.67491915831, 
			 "electric_quadrupole_moment_norm": 17.5238519718, 
			 "total_energy": -1118.56658314, 
			 "HOMO_LUMO_gap": 0.17917, 
			 "cosmo_polarized_energy": -18.35, 
			 "cosmo_cavitation_energy": 34.56, 
			 "cosmo_dispersion_energy": -24.4, 
			 "cosmo_repulsion_energy": 1.84, 
			 "cosmo_total_nonelectrostatic_energy": 12.0, 
			 "SMD_solvation_energy": 2.09 
		},
		"coords": [
			{
				"x": -0.360751519,
				"y": -0.554763864,
				"z": -3.8141772908,
				"element": "S" 
			},
			{
				"x": 0.4195665683,
				"y": -1.4192583371,
				"z": -2.4877666443,
				"element": "C" 
			},
			{
				"x": 1.194734382,
				"y": -2.4624105505,
				"z": -2.6713019474,
				"element": "N" 
			},
			{
				"x": 1.6839452798,
				"y": -2.8268584175,
				"z": -1.4449120118,
				"element": "N" 
			},
			{
				"x": 1.1902479677,
				"y": -2.0110700195,
				"z": -0.534475531,
				"element": "C" 
			},
			{
				"x": 0.3779557312,
				"y": -1.0672102406,
				"z": -1.1508124743,
				"element": "N" 
			},
			{
				"x": -0.4387053677,
				"y": -0.04233941,
				"z": -0.5695273828,
				"element": "C" 
			},
			{
				"x": -1.6099547583,
				"y": -0.3933918069,
				"z": 0.1082114159,
				"element": "C" 
			},
			{
				"x": -2.4033130559,
				"y": 0.6078034904,
				"z": 0.6695136354,
				"element": "C" 
			},
			{
				"x": -2.0333930562,
				"y": 1.9487158179,
				"z": 0.5451590858,
				"element": "C" 
			},
			{
				"x": -0.8664599965,
				"y": 2.2921232077,
				"z": -0.1419712166,
				"element": "C" 
			},
			{
				"x": -0.0631445288,
				"y": 1.2981292465,
				"z": -0.7014636033,
				"element": "C" 
			},
			{
				"x": 1.4888860967,
				"y": -2.1346731993,
				"z": 0.8987438424,
				"element": "C" 
			},
			{
				"x": 1.3875632446,
				"y": -1.0869125905,
				"z": 1.8250841808,
				"element": "C" 
			},
			{
				"x": 1.7282023751,
				"y": -1.3323189262,
				"z": 3.1557858172,
				"element": "C" 
			},
			{
				"x": 2.1557713784,
				"y": -2.5120657755,
				"z": 3.6183181282,
				"element": "N" 
			},
			{
				"x": 2.2624191609,
				"y": -3.5049054177,
				"z": 2.7227929349,
				"element": "C" 
			},
			{
				"x": 1.9463361467,
				"y": -3.3747563708,
				"z": 1.3741586899,
				"element": "C" 
			},
			{
				"x": -1.4737411797,
				"y": -0.2148414947,
				"z": -3.132355408,
				"element": "H" 
			},
			{
				"x": -1.8851772999,
				"y": -1.4395151788,
				"z": 0.1959084156,
				"element": "H" 
			},
			{
				"x": -3.3104257847,
				"y": 0.3385680988,
				"z": 1.2016029609,
				"element": "H" 
			},
			{
				"x": -2.653817471,
				"y": 2.7252401759,
				"z": 0.982022917,
				"element": "H" 
			},
			{
				"x": -0.5781739086,
				"y": 3.3339917248,
				"z": -0.2414252579,
				"element": "H" 
			},
			{
				"x": 0.8475847173,
				"y": 1.548509188,
				"z": -1.2353753997,
				"element": "H" 
			},
			{
				"x": 1.0674488624,
				"y": -0.0954440564,
				"z": 1.5305753123,
				"element": "H" 
			},
			{
				"x": 1.6542831767,
				"y": -0.5286942628,
				"z": 3.8866621619,
				"element": "H" 
			},
			{
				"x": 2.616678414,
				"y": -4.4597902561,
				"z": 3.1066746988,
				"element": "H" 
			},
			{
				"x": 2.0512344245,
				"y": -4.2080607753,
				"z": 0.689249971,
				"element": "H" 
			}
		],
		 "valence_orbital": [ 
			{
				"type": "occ",
				"energy": -0.28022,
				"method": "rhf"
			},
			{
				"type": "occ",
				"energy": -0.26614,
				"method": "rhf"
			},
			{
				"type": "occ",
				"energy": -0.25879,
				"method": "rhf"
			},
			{
				"type": "occ",
				"energy": -0.25595,
				"method": "rhf"
			},
			{
				"type": "occ",
				"energy": -0.23478,
				"method": "rhf"
			},
			{
				"type": "unocc",
				"energy": -0.05561,
				"method": "rhf"
			},
			{
				"type": "unocc",
				"energy": -0.04174,
				"method": "rhf"
			},
			{
				"type": "unocc",
				"energy": -0.0381,
				"method": "rhf"
			},
			{
				"type": "unocc",
				"energy": -0.01375,
				"method": "rhf"
			},
			{
				"type": "unocc",
				"energy": 0.00467,
				"method": "rhf"
			}
		],
		"cosmo_sigma_profile": { 
			"-0.025": 0.0,
			"-0.024": 0.0,
			"-0.023": 0.0,
			"-0.022": 0.0,
			"-0.021": 0.0,
			"-0.02": 0.0,
			"-0.019": 0.0,
			"-0.018": 0.0,
			"-0.017": 0.0,
			"-0.016": 0.0,
			"-0.015": 0.0,
			"-0.014": 0.0,
			"-0.013": 0.0,
			"-0.012": 0.579627523578,
			"-0.011": 1.01521729983,
			"-0.01": 1.75307277809,
			"-0.009": 1.79035896971,
			"-0.008": 2.98415365601,
			"-0.007": 13.0700878328,
			"-0.006": 23.1836041629,
			"-0.005": 23.6747610017,
			"-0.004": 18.965703158,
			"-0.003": 17.5899739121,
			"-0.002": 15.9298138106,
			"-0.001": 16.8233106709,
			"0.0": 20.6149211838,
			"0.001": 27.9535139767,
			"0.002": 25.7176285225,
			"0.003": 13.7611283518,
			"0.004": 9.21456516132,
			"0.005": 6.92171728344,
			"0.006": 5.75782757906,
			"0.007": 5.19424601495,
			"0.008": 4.15591716756,
			"0.009": 2.71905118514,
			"0.01": 2.96971213398,
			"0.011": 3.94334637968,
			"0.012": 4.1219541899,
			"0.013": 3.38410930504,
			"0.014": 3.58573850238,
			"0.015": 2.71847506695,
			"0.016": 1.18512645404,
			"0.017": 0.221397587527,
			"0.018": 0.0,
			"0.019": 0.0,
			"0.02": 0.0,
			"0.021": 0.0,
			"0.022": 0.0,
			"0.023": 0.0,
			"0.024": 0.0,
			"0.025": 0.0
		}
	}
}
