{
	 "smiles": "OCC1=CC2=C(OC=C2)C=C1", 
	 "Tm": 308.65, 
	 "num_atms": 19, 
	 "gaussian": { 
		 "optdone": 1, 
		 "sigma_profile": "yes", 
		 "theory": "DFT", 
		 "functional": "B3LYP", 
		 "basiset": "6-31G**", 
		 "properties": { 
			 "R2extent": 1942.9457, 
			 "electric_dipole_moment_norm": 1.17809832357, 
			 "electric_quadrupole_moment_norm": 8.54774607075, 
			 "total_energy": -498.201766777, 
			 "HOMO_LUMO_gap": 0.20183, 
			 "cosmo_polarized_energy": -8.39, 
			 "cosmo_cavitation_energy": 22.91, 
			 "cosmo_dispersion_energy": -17.26, 
			 "cosmo_repulsion_energy": 1.38, 
			 "cosmo_total_nonelectrostatic_energy": 7.02, 
			 "SMD_solvation_energy": 4.68 
		},
		"coords": [
			{
				"x": 3.8454803777,
				"y": -0.2208488548,
				"z": 1.6313261944,
				"element": "O" 
			},
			{
				"x": 3.2567965943,
				"y": -0.9596804477,
				"z": 0.5703644442,
				"element": "C" 
			},
			{
				"x": 1.8640932451,
				"y": -0.4860998323,
				"z": 0.1921468023,
				"element": "C" 
			},
			{
				"x": 1.0434548743,
				"y": 0.1052003067,
				"z": 1.1536059091,
				"element": "C" 
			},
			{
				"x": -0.2491776389,
				"y": 0.507908846,
				"z": 0.7879340866,
				"element": "C" 
			},
			{
				"x": -0.6793046278,
				"y": 0.2991117227,
				"z": -0.5359339021,
				"element": "C" 
			},
			{
				"x": -1.9599518162,
				"y": 0.7564074097,
				"z": -0.6991295263,
				"element": "O" 
			},
			{
				"x": -2.3417588506,
				"y": 1.2536595835,
				"z": 0.5229982683,
				"element": "C" 
			},
			{
				"x": -1.3648977566,
				"y": 1.1365198081,
				"z": 1.4559996824,
				"element": "C" 
			},
			{
				"x": 0.1149562201,
				"y": -0.2853143239,
				"z": -1.5151713471,
				"element": "C" 
			},
			{
				"x": 1.3967223162,
				"y": -0.6695371902,
				"z": -1.1274098667,
				"element": "C" 
			},
			{
				"x": 3.8586547982,
				"y": 0.7075039832,
				"z": 1.3616424328,
				"element": "H" 
			},
			{
				"x": 3.8995444917,
				"y": -0.9624439512,
				"z": -0.3246251151,
				"element": "H" 
			},
			{
				"x": 3.2193816875,
				"y": -1.9944080847,
				"z": 0.9324509614,
				"element": "H" 
			},
			{
				"x": 1.4171904184,
				"y": 0.2450228787,
				"z": 2.1629757826,
				"element": "H" 
			},
			{
				"x": -3.3428835158,
				"y": 1.6560431302,
				"z": 0.5607481084,
				"element": "H" 
			},
			{
				"x": -1.4238890051,
				"y": 1.4516617296,
				"z": 2.4878280321,
				"element": "H" 
			},
			{
				"x": -0.2457323767,
				"y": -0.4224644884,
				"z": -2.5288065739,
				"element": "H" 
			},
			{
				"x": 2.0581205642,
				"y": -1.1210422253,
				"z": -1.8627443733,
				"element": "H" 
			}
		],
		 "valence_orbital": [ 
			{
				"type": "occ",
				"energy": -0.32507,
				"method": "rhf"
			},
			{
				"type": "occ",
				"energy": -0.29328,
				"method": "rhf"
			},
			{
				"type": "occ",
				"energy": -0.27551,
				"method": "rhf"
			},
			{
				"type": "occ",
				"energy": -0.23191,
				"method": "rhf"
			},
			{
				"type": "occ",
				"energy": -0.22212,
				"method": "rhf"
			},
			{
				"type": "unocc",
				"energy": -0.02029,
				"method": "rhf"
			},
			{
				"type": "unocc",
				"energy": 0.00955,
				"method": "rhf"
			},
			{
				"type": "unocc",
				"energy": 0.05321,
				"method": "rhf"
			},
			{
				"type": "unocc",
				"energy": 0.08822,
				"method": "rhf"
			},
			{
				"type": "unocc",
				"energy": 0.10588,
				"method": "rhf"
			}
		],
		"cosmo_sigma_profile": { 
			"-0.025": 0.0,
			"-0.024": 0.0,
			"-0.023": 0.0,
			"-0.022": 0.0,
			"-0.021": 0.0,
			"-0.02": 0.0,
			"-0.019": 0.0,
			"-0.018": 0.0,
			"-0.017": 0.0,
			"-0.016": 0.0423099063231,
			"-0.015": 0.923876191848,
			"-0.014": 0.567309427805,
			"-0.013": 1.01449398001,
			"-0.012": 1.03164053294,
			"-0.011": 0.329564612964,
			"-0.01": 0.704328525135,
			"-0.009": 2.43750677102,
			"-0.008": 3.43796427576,
			"-0.007": 5.31645999329,
			"-0.006": 7.42846383758,
			"-0.005": 12.1337662958,
			"-0.004": 16.4872540685,
			"-0.003": 12.5671379616,
			"-0.002": 11.9365097756,
			"-0.001": 9.74988850888,
			"0.0": 8.4840263922,
			"0.001": 11.235860842,
			"0.002": 15.0349134187,
			"0.003": 15.5615487329,
			"0.004": 15.2061592843,
			"0.005": 12.6687440282,
			"0.006": 3.80554277676,
			"0.007": 2.67137840133,
			"0.008": 2.49520586258,
			"0.009": 2.41399479341,
			"0.01": 1.24991590184,
			"0.011": 0.625721212914,
			"0.012": 1.45208517024,
			"0.013": 1.88736558271,
			"0.014": 1.92287730854,
			"0.015": 0.167675202274,
			"0.016": 0.0,
			"0.017": 0.0,
			"0.018": 0.0,
			"0.019": 0.0,
			"0.02": 0.0,
			"0.021": 0.0,
			"0.022": 0.0,
			"0.023": 0.0,
			"0.024": 0.0,
			"0.025": 0.0
		}
	}
}
