{
	 "smiles": "CC1=C(N=C(S1)C1=CC=NC=C1)C1=CC=CC=C1", 
	 "Tm": 357.15, 
	 "num_atms": 30, 
	 "gaussian": { 
		 "optdone": 1, 
		 "sigma_profile": "yes", 
		 "theory": "DFT", 
		 "functional": "B3LYP", 
		 "basiset": "6-31G**", 
		 "properties": { 
			 "R2extent": 6480.7902, 
			 "electric_dipole_moment_norm": 3.60250684524, 
			 "electric_quadrupole_moment_norm": 12.6169318128, 
			 "total_energy": -1086.52374379, 
			 "HOMO_LUMO_gap": 0.15367, 
			 "cosmo_polarized_energy": -9.79, 
			 "cosmo_cavitation_energy": 35.65, 
			 "cosmo_dispersion_energy": -26.36, 
			 "cosmo_repulsion_energy": 1.96, 
			 "cosmo_total_nonelectrostatic_energy": 11.25, 
			 "SMD_solvation_energy": 3.16 
		},
		"coords": [
			{
				"x": -2.4018409575,
				"y": -1.0439547136,
				"z": -0.8173961368,
				"element": "C" 
			},
			{
				"x": -1.2968226678,
				"y": -0.2198685716,
				"z": -0.2250691325,
				"element": "C" 
			},
			{
				"x": 0.0238773615,
				"y": -0.5426742823,
				"z": 0.0294880747,
				"element": "C" 
			},
			{
				"x": 0.753747086,
				"y": 0.4411267851,
				"z": 0.6635500946,
				"element": "N" 
			},
			{
				"x": 0.0569344984,
				"y": 1.5199190141,
				"z": 0.8877874571,
				"element": "C" 
			},
			{
				"x": -1.6099052089,
				"y": 1.4010534723,
				"z": 0.33071458,
				"element": "S" 
			},
			{
				"x": 0.5966714709,
				"y": 2.7239079356,
				"z": 1.5321188814,
				"element": "C" 
			},
			{
				"x": 1.9455092743,
				"y": 2.7616464426,
				"z": 1.919248343,
				"element": "C" 
			},
			{
				"x": 2.436574284,
				"y": 3.911085733,
				"z": 2.5312979351,
				"element": "C" 
			},
			{
				"x": 1.7006626989,
				"y": 5.0040553468,
				"z": 2.7807293887,
				"element": "N" 
			},
			{
				"x": 0.4157158077,
				"y": 4.9603944488,
				"z": 2.4076968227,
				"element": "C" 
			},
			{
				"x": -0.17972157,
				"y": 3.86262596,
				"z": 1.7891741421,
				"element": "C" 
			},
			{
				"x": 0.6993992919,
				"y": -1.8238845568,
				"z": -0.2737596141,
				"element": "C" 
			},
			{
				"x": 0.3964794178,
				"y": -2.5790894386,
				"z": -1.4186710002,
				"element": "C" 
			},
			{
				"x": 1.0514166992,
				"y": -3.7853910869,
				"z": -1.669877323,
				"element": "C" 
			},
			{
				"x": 2.0254791344,
				"y": -4.2536919719,
				"z": -0.7877079472,
				"element": "C" 
			},
			{
				"x": 2.3490410754,
				"y": -3.5006300454,
				"z": 0.3441064595,
				"element": "C" 
			},
			{
				"x": 1.6965341857,
				"y": -2.2968417543,
				"z": 0.597318001,
				"element": "C" 
			},
			{
				"x": -2.521062427,
				"y": -0.8617221545,
				"z": -1.8926072597,
				"element": "H" 
			},
			{
				"x": -3.3611871061,
				"y": -0.8211260311,
				"z": -0.3409546857,
				"element": "H" 
			},
			{
				"x": -2.1943005365,
				"y": -2.1078882271,
				"z": -0.6800958849,
				"element": "H" 
			},
			{
				"x": 2.5821606284,
				"y": 1.9038675092,
				"z": 1.7366588495,
				"element": "H" 
			},
			{
				"x": 3.4800881452,
				"y": 3.9578494471,
				"z": 2.8378370532,
				"element": "H" 
			},
			{
				"x": -0.1745690156,
				"y": 5.8515595889,
				"z": 2.6138142557,
				"element": "H" 
			},
			{
				"x": -1.2304876661,
				"y": 3.9034911511,
				"z": 1.5175734846,
				"element": "H" 
			},
			{
				"x": -0.3283251899,
				"y": -2.2082813697,
				"z": -2.1355212172,
				"element": "H" 
			},
			{
				"x": 0.8077605367,
				"y": -4.3521284384,
				"z": -2.5640542356,
				"element": "H" 
			},
			{
				"x": 2.5355916814,
				"y": -5.192171594,
				"z": -0.984599028,
				"element": "H" 
			},
			{
				"x": 3.1128727512,
				"y": -3.8528501668,
				"z": 1.031637869,
				"element": "H" 
			},
			{
				"x": 1.9505063167,
				"y": -1.7053884313,
				"z": 1.4703617729,
				"element": "H" 
			}
		],
		 "valence_orbital": [ 
			{
				"type": "occ",
				"energy": -0.26459,
				"method": "rhf"
			},
			{
				"type": "occ",
				"energy": -0.25858,
				"method": "rhf"
			},
			{
				"type": "occ",
				"energy": -0.25518,
				"method": "rhf"
			},
			{
				"type": "occ",
				"energy": -0.25284,
				"method": "rhf"
			},
			{
				"type": "occ",
				"energy": -0.21954,
				"method": "rhf"
			},
			{
				"type": "unocc",
				"energy": -0.06587,
				"method": "rhf"
			},
			{
				"type": "unocc",
				"energy": -0.02667,
				"method": "rhf"
			},
			{
				"type": "unocc",
				"energy": -0.01109,
				"method": "rhf"
			},
			{
				"type": "unocc",
				"energy": -0.00485,
				"method": "rhf"
			},
			{
				"type": "unocc",
				"energy": 0.01069,
				"method": "rhf"
			}
		],
		"cosmo_sigma_profile": { 
			"-0.025": 0.0,
			"-0.024": 0.0,
			"-0.023": 0.0,
			"-0.022": 0.0,
			"-0.021": 0.0,
			"-0.02": 0.0,
			"-0.019": 0.0,
			"-0.018": 0.0,
			"-0.017": 0.0,
			"-0.016": 0.0,
			"-0.015": 0.0,
			"-0.014": 0.0,
			"-0.013": 0.0,
			"-0.012": 0.0,
			"-0.011": 0.0,
			"-0.01": 0.0,
			"-0.009": 0.0,
			"-0.008": 0.652052348405,
			"-0.007": 3.89287616789,
			"-0.006": 15.4976024454,
			"-0.005": 23.5378541452,
			"-0.004": 24.0222046263,
			"-0.003": 24.9653326724,
			"-0.002": 21.130458752,
			"-0.001": 21.2794052494,
			"0.0": 23.0719166713,
			"0.001": 29.47567637,
			"0.002": 33.6449618784,
			"0.003": 16.381975308,
			"0.004": 13.929711015,
			"0.005": 15.2390804868,
			"0.006": 6.83710308396,
			"0.007": 2.95396074564,
			"0.008": 2.65568988307,
			"0.009": 2.27396811765,
			"0.01": 1.74428005451,
			"0.011": 0.849430783505,
			"0.012": 1.38403927418,
			"0.013": 0.772041230569,
			"0.014": 0.598171035473,
			"0.015": 1.08482592805,
			"0.016": 0.844238580708,
			"0.017": 0.241547135284,
			"0.018": 0.0,
			"0.019": 0.0,
			"0.02": 0.0,
			"0.021": 0.0,
			"0.022": 0.0,
			"0.023": 0.0,
			"0.024": 0.0,
			"0.025": 0.0
		}
	}
}
