{
	 "smiles": "CC(C)C1CCC(C)=C(O)C1=O", 
	 "Tm": 356.15, 
	 "num_atms": 28, 
	 "gaussian": { 
		 "optdone": 1, 
		 "sigma_profile": "yes", 
		 "theory": "DFT", 
		 "functional": "B3LYP", 
		 "basiset": "6-31G**", 
		 "properties": { 
			 "R2extent": 2666.3286, 
			 "electric_dipole_moment_norm": 2.79868941828, 
			 "electric_quadrupole_moment_norm": 6.14053491155, 
			 "total_energy": -541.169039262, 
			 "HOMO_LUMO_gap": 0.17166, 
			 "cosmo_polarized_energy": -7.35, 
			 "cosmo_cavitation_energy": 28.62, 
			 "cosmo_dispersion_energy": -20.78, 
			 "cosmo_repulsion_energy": 1.66, 
			 "cosmo_total_nonelectrostatic_energy": 9.5, 
			 "SMD_solvation_energy": 5.44 
		},
		"coords": [
			{
				"x": 1.4706646944,
				"y": -2.9635447074,
				"z": 0.363488757,
				"element": "C" 
			},
			{
				"x": -0.0474620711,
				"y": -2.7762061565,
				"z": 0.2131774085,
				"element": "C" 
			},
			{
				"x": -0.7907970057,
				"y": -3.2439344315,
				"z": 1.4729965998,
				"element": "C" 
			},
			{
				"x": -0.4450168517,
				"y": -1.3318775687,
				"z": -0.1811245604,
				"element": "C" 
			},
			{
				"x": 0.0339685041,
				"y": -0.2144399941,
				"z": 0.7622274843,
				"element": "C" 
			},
			{
				"x": -0.4650138638,
				"y": 1.1612311828,
				"z": 0.3025781458,
				"element": "C" 
			},
			{
				"x": -0.1651489809,
				"y": 1.4468244923,
				"z": -1.1494892183,
				"element": "C" 
			},
			{
				"x": -0.1491756415,
				"y": 2.8781963771,
				"z": -1.5997848964,
				"element": "C" 
			},
			{
				"x": 0.0587952025,
				"y": 0.4245196231,
				"z": -2.006792537,
				"element": "C" 
			},
			{
				"x": 0.3534978807,
				"y": 0.6092867234,
				"z": -3.321878086,
				"element": "O" 
			},
			{
				"x": -0.0402628887,
				"y": -0.9975024408,
				"z": -1.610481708,
				"element": "C" 
			},
			{
				"x": 0.1537739789,
				"y": -1.8500500998,
				"z": -2.4787230462,
				"element": "O" 
			},
			{
				"x": 2.0039135403,
				"y": -2.6489301488,
				"z": -0.5384079777,
				"element": "H" 
			},
			{
				"x": 1.8699487217,
				"y": -2.4000878523,
				"z": 1.2143775108,
				"element": "H" 
			},
			{
				"x": 1.7061562256,
				"y": -4.0192081532,
				"z": 0.5343802964,
				"element": "H" 
			},
			{
				"x": -0.3698266094,
				"y": -3.4061690443,
				"z": -0.6239173261,
				"element": "H" 
			},
			{
				"x": -1.8765791576,
				"y": -3.1467823473,
				"z": 1.3598893577,
				"element": "H" 
			},
			{
				"x": -0.571421631,
				"y": -4.2967353943,
				"z": 1.6795292209,
				"element": "H" 
			},
			{
				"x": -0.4942094129,
				"y": -2.6715555695,
				"z": 2.3595461069,
				"element": "H" 
			},
			{
				"x": -1.5488661173,
				"y": -1.2938149546,
				"z": -0.1938737538,
				"element": "H" 
			},
			{
				"x": 1.130063615,
				"y": -0.20141139,
				"z": 0.785848309,
				"element": "H" 
			},
			{
				"x": -0.3055357399,
				"y": -0.4115762788,
				"z": 1.7843597968,
				"element": "H" 
			},
			{
				"x": -0.015472448,
				"y": 1.9473532962,
				"z": 0.9231472419,
				"element": "H" 
			},
			{
				"x": -1.5518647361,
				"y": 1.2404675937,
				"z": 0.4725988634,
				"element": "H" 
			},
			{
				"x": 0.6546819305,
				"y": 3.4344565526,
				"z": -1.0990905502,
				"element": "H" 
			},
			{
				"x": -0.0071549195,
				"y": 2.9594231082,
				"z": -2.6782397385,
				"element": "H" 
			},
			{
				"x": -1.0884593273,
				"y": 3.3791592432,
				"z": -1.3300251042,
				"element": "H" 
			},
			{
				"x": 0.426603109,
				"y": -0.2977916609,
				"z": -3.6797165965,
				"element": "H" 
			}
		],
		 "valence_orbital": [ 
			{
				"type": "occ",
				"energy": -0.32994,
				"method": "rhf"
			},
			{
				"type": "occ",
				"energy": -0.32087,
				"method": "rhf"
			},
			{
				"type": "occ",
				"energy": -0.3113,
				"method": "rhf"
			},
			{
				"type": "occ",
				"energy": -0.258,
				"method": "rhf"
			},
			{
				"type": "occ",
				"energy": -0.22003,
				"method": "rhf"
			},
			{
				"type": "unocc",
				"energy": -0.04837,
				"method": "rhf"
			},
			{
				"type": "unocc",
				"energy": 0.06445,
				"method": "rhf"
			},
			{
				"type": "unocc",
				"energy": 0.09542,
				"method": "rhf"
			},
			{
				"type": "unocc",
				"energy": 0.09845,
				"method": "rhf"
			},
			{
				"type": "unocc",
				"energy": 0.10627,
				"method": "rhf"
			}
		],
		"cosmo_sigma_profile": { 
			"-0.025": 0.0,
			"-0.024": 0.0,
			"-0.023": 0.0,
			"-0.022": 0.0,
			"-0.021": 0.0,
			"-0.02": 0.0,
			"-0.019": 0.0,
			"-0.018": 0.0,
			"-0.017": 0.0,
			"-0.016": 0.0,
			"-0.015": 0.0,
			"-0.014": 0.0,
			"-0.013": 0.0,
			"-0.012": 0.130473881916,
			"-0.011": 0.469305177019,
			"-0.01": 0.609067611649,
			"-0.009": 0.669311792737,
			"-0.008": 0.32743548804,
			"-0.007": 0.978650406184,
			"-0.006": 0.578681708386,
			"-0.005": 5.11823302544,
			"-0.004": 15.1899805803,
			"-0.003": 30.0527100064,
			"-0.002": 36.9124618362,
			"-0.001": 33.7074727203,
			"0.0": 26.1325560597,
			"0.001": 21.2458863019,
			"0.002": 12.8792277905,
			"0.003": 5.3928989017,
			"0.004": 3.47902912834,
			"0.005": 4.50348390723,
			"0.006": 2.80701701932,
			"0.007": 3.80985278869,
			"0.008": 2.64247312891,
			"0.009": 2.68217072871,
			"0.01": 4.30473728053,
			"0.011": 4.13385868833,
			"0.012": 2.7035192335,
			"0.013": 0.494448333149,
			"0.014": 0.0,
			"0.015": 0.0,
			"0.016": 0.0,
			"0.017": 0.0,
			"0.018": 0.0,
			"0.019": 0.0,
			"0.02": 0.0,
			"0.021": 0.0,
			"0.022": 0.0,
			"0.023": 0.0,
			"0.024": 0.0,
			"0.025": 0.0
		}
	}
}
