{
	 "smiles": "CC1=C(C)N=C(S)O1", 
	 "Tm": 406.15, 
	 "num_atms": 15, 
	 "gaussian": { 
		 "optdone": 1, 
		 "sigma_profile": "yes", 
		 "theory": "DFT", 
		 "functional": "B3LYP", 
		 "basiset": "6-31G**", 
		 "properties": { 
			 "R2extent": 1335.2184, 
			 "electric_dipole_moment_norm": 1.64096761089, 
			 "electric_quadrupole_moment_norm": 6.36131040824, 
			 "total_energy": -722.902670712, 
			 "HOMO_LUMO_gap": 0.21858, 
			 "cosmo_polarized_energy": -6.29, 
			 "cosmo_cavitation_energy": 20.85, 
			 "cosmo_dispersion_energy": -16.01, 
			 "cosmo_repulsion_energy": 1.31, 
			 "cosmo_total_nonelectrostatic_energy": 6.14, 
			 "SMD_solvation_energy": 2.25 
		},
		"coords": [
			{
				"x": 0.9451533461,
				"y": 0.2563511522,
				"z": -2.3623722998,
				"element": "C" 
			},
			{
				"x": 0.2281462381,
				"y": -0.0399189289,
				"z": -1.0961976128,
				"element": "C" 
			},
			{
				"x": -0.0886768658,
				"y": -1.1673165119,
				"z": -0.4035208742,
				"element": "C" 
			},
			{
				"x": 0.208731721,
				"y": -2.6022862683,
				"z": -0.7203809655,
				"element": "C" 
			},
			{
				"x": -0.7930792176,
				"y": -0.8141105116,
				"z": 0.754251706,
				"element": "N" 
			},
			{
				"x": -0.8624328248,
				"y": 0.4777385288,
				"z": 0.7002041011,
				"element": "C" 
			},
			{
				"x": -1.6128291998,
				"y": 1.6025255159,
				"z": 1.8336203278,
				"element": "S" 
			},
			{
				"x": -0.2744963427,
				"y": 1.0394450684,
				"z": -0.3806933349,
				"element": "O" 
			},
			{
				"x": 1.2845351066,
				"y": -0.6770431475,
				"z": -2.8179859083,
				"element": "H" 
			},
			{
				"x": 1.8226957884,
				"y": 0.8909842733,
				"z": -2.1921902755,
				"element": "H" 
			},
			{
				"x": 0.2992549242,
				"y": 0.7717787536,
				"z": -3.0827531383,
				"element": "H" 
			},
			{
				"x": -0.2027316466,
				"y": -3.2356106501,
				"z": 0.0679577121,
				"element": "H" 
			},
			{
				"x": -0.2372128231,
				"y": -2.9124243844,
				"z": -1.6717829574,
				"element": "H" 
			},
			{
				"x": 1.2857584435,
				"y": -2.7934121543,
				"z": -0.7812757559,
				"element": "H" 
			},
			{
				"x": -2.0181166474,
				"y": 0.6184992647,
				"z": 2.6572192755,
				"element": "H" 
			}
		],
		 "valence_orbital": [ 
			{
				"type": "occ",
				"energy": -0.36237,
				"method": "rhf"
			},
			{
				"type": "occ",
				"energy": -0.3175,
				"method": "rhf"
			},
			{
				"type": "occ",
				"energy": -0.28595,
				"method": "rhf"
			},
			{
				"type": "occ",
				"energy": -0.28575,
				"method": "rhf"
			},
			{
				"type": "occ",
				"energy": -0.21202,
				"method": "rhf"
			},
			{
				"type": "unocc",
				"energy": 0.00656,
				"method": "rhf"
			},
			{
				"type": "unocc",
				"energy": 0.01113,
				"method": "rhf"
			},
			{
				"type": "unocc",
				"energy": 0.06059,
				"method": "rhf"
			},
			{
				"type": "unocc",
				"energy": 0.06825,
				"method": "rhf"
			},
			{
				"type": "unocc",
				"energy": 0.09574,
				"method": "rhf"
			}
		],
		"cosmo_sigma_profile": { 
			"-0.025": 0.0,
			"-0.024": 0.0,
			"-0.023": 0.0,
			"-0.022": 0.0,
			"-0.021": 0.0,
			"-0.02": 0.0,
			"-0.019": 0.0,
			"-0.018": 0.0,
			"-0.017": 0.0,
			"-0.016": 0.0,
			"-0.015": 0.0,
			"-0.014": 0.0,
			"-0.013": 0.0423183797042,
			"-0.012": 1.59239229025,
			"-0.011": 1.05631951437,
			"-0.01": 1.38172072541,
			"-0.009": 1.5388095321,
			"-0.008": 0.831699610619,
			"-0.007": 1.52847859189,
			"-0.006": 1.71834103005,
			"-0.005": 8.9156190678,
			"-0.004": 13.8144904368,
			"-0.003": 14.9161834392,
			"-0.002": 15.7725703723,
			"-0.001": 19.7348819935,
			"0.0": 16.9991244797,
			"0.001": 15.5431009657,
			"0.002": 12.8250766666,
			"0.003": 9.45678359476,
			"0.004": 6.88954851628,
			"0.005": 6.27439633972,
			"0.006": 5.71608286277,
			"0.007": 3.30815185564,
			"0.008": 1.44284812232,
			"0.009": 1.63983147774,
			"0.01": 1.20936274574,
			"0.011": 0.608497815673,
			"0.012": 0.596077980512,
			"0.013": 0.616291166624,
			"0.014": 1.36091156872,
			"0.015": 0.73461745619,
			"0.016": 0.177323119297,
			"0.017": 0.0,
			"0.018": 0.0,
			"0.019": 0.0,
			"0.02": 0.0,
			"0.021": 0.0,
			"0.022": 0.0,
			"0.023": 0.0,
			"0.024": 0.0,
			"0.025": 0.0
		}
	}
}
