{
	 "smiles": "CCCCCCOC=O", 
	 "Tm": 210.35, 
	 "num_atms": 23, 
	 "gaussian": { 
		 "optdone": 1, 
		 "sigma_profile": "yes", 
		 "theory": "DFT", 
		 "functional": "B3LYP", 
		 "basiset": "6-31G**", 
		 "properties": { 
			 "R2extent": 2623.0581, 
			 "electric_dipole_moment_norm": 2.01360673916, 
			 "electric_quadrupole_moment_norm": 6.4203287665, 
			 "total_energy": -425.64553317, 
			 "HOMO_LUMO_gap": 0.28738, 
			 "cosmo_polarized_energy": -5.91, 
			 "cosmo_cavitation_energy": 25.52, 
			 "cosmo_dispersion_energy": -18.21, 
			 "cosmo_repulsion_energy": 1.54, 
			 "cosmo_total_nonelectrostatic_energy": 8.84, 
			 "SMD_solvation_energy": 5.97 
		},
		"coords": [
			{
				"x": 3.1102944048,
				"y": 1.1403540758,
				"z": 0.5047834218,
				"element": "C" 
			},
			{
				"x": 2.8131956592,
				"y": 0.234745733,
				"z": -0.6965431152,
				"element": "C" 
			},
			{
				"x": 1.406220137,
				"y": 0.408535569,
				"z": -1.2927886515,
				"element": "C" 
			},
			{
				"x": 0.2666348374,
				"y": -0.0198893295,
				"z": -0.3541803989,
				"element": "C" 
			},
			{
				"x": -1.1310868143,
				"y": -0.0094563795,
				"z": -0.9967854468,
				"element": "C" 
			},
			{
				"x": -1.6165144903,
				"y": 1.3913962217,
				"z": -1.3601189181,
				"element": "C" 
			},
			{
				"x": -2.9252372921,
				"y": 1.3445809578,
				"z": -1.9871050424,
				"element": "O" 
			},
			{
				"x": -3.9851054174,
				"y": 1.3441262952,
				"z": -1.163526781,
				"element": "C" 
			},
			{
				"x": -3.9568313623,
				"y": 1.3824084472,
				"z": 0.0433401479,
				"element": "O" 
			},
			{
				"x": 4.1409719454,
				"y": 1.0093835561,
				"z": 0.8502127529,
				"element": "H" 
			},
			{
				"x": 2.9802609257,
				"y": 2.197256257,
				"z": 0.2436016254,
				"element": "H" 
			},
			{
				"x": 2.4519626832,
				"y": 0.9257646107,
				"z": 1.3527773102,
				"element": "H" 
			},
			{
				"x": 3.5527612931,
				"y": 0.4324528657,
				"z": -1.4828045301,
				"element": "H" 
			},
			{
				"x": 2.9529272347,
				"y": -0.81575362,
				"z": -0.4064169598,
				"element": "H" 
			},
			{
				"x": 1.2773053059,
				"y": 1.4583398606,
				"z": -1.5907061852,
				"element": "H" 
			},
			{
				"x": 1.3387491662,
				"y": -0.1806952751,
				"z": -2.2177694365,
				"element": "H" 
			},
			{
				"x": 0.2540741552,
				"y": 0.6159903982,
				"z": 0.540461067,
				"element": "H" 
			},
			{
				"x": 0.4703313229,
				"y": -1.0379232415,
				"z": 0.0029921912,
				"element": "H" 
			},
			{
				"x": -1.1339168471,
				"y": -0.6318340797,
				"z": -1.9006367813,
				"element": "H" 
			},
			{
				"x": -1.8531847508,
				"y": -0.4477765467,
				"z": -0.2997359797,
				"element": "H" 
			},
			{
				"x": -1.6725048583,
				"y": 2.0278179037,
				"z": -0.4726042779,
				"element": "H" 
			},
			{
				"x": -0.9780666716,
				"y": 1.86554385,
				"z": -2.10790193,
				"element": "H" 
			},
			{
				"x": -4.9044405667,
				"y": 1.3084318704,
				"z": -1.7693440821,
				"element": "H" 
			}
		],
		 "valence_orbital": [ 
			{
				"type": "occ",
				"energy": -0.32728,
				"method": "rhf"
			},
			{
				"type": "occ",
				"energy": -0.3254,
				"method": "rhf"
			},
			{
				"type": "occ",
				"energy": -0.31615,
				"method": "rhf"
			},
			{
				"type": "occ",
				"energy": -0.29704,
				"method": "rhf"
			},
			{
				"type": "occ",
				"energy": -0.27898,
				"method": "rhf"
			},
			{
				"type": "unocc",
				"energy": 0.0084,
				"method": "rhf"
			},
			{
				"type": "unocc",
				"energy": 0.07926,
				"method": "rhf"
			},
			{
				"type": "unocc",
				"energy": 0.10704,
				"method": "rhf"
			},
			{
				"type": "unocc",
				"energy": 0.1101,
				"method": "rhf"
			},
			{
				"type": "unocc",
				"energy": 0.11363,
				"method": "rhf"
			}
		],
		"cosmo_sigma_profile": { 
			"-0.025": 0.0,
			"-0.024": 0.0,
			"-0.023": 0.0,
			"-0.022": 0.0,
			"-0.021": 0.0,
			"-0.02": 0.0,
			"-0.019": 0.0,
			"-0.018": 0.0,
			"-0.017": 0.0,
			"-0.016": 0.0,
			"-0.015": 0.0,
			"-0.014": 0.0,
			"-0.013": 0.0,
			"-0.012": 0.0,
			"-0.011": 0.0,
			"-0.01": 0.0,
			"-0.009": 1.95655034625,
			"-0.008": 2.50005669932,
			"-0.007": 2.08113992099,
			"-0.006": 2.04199090837,
			"-0.005": 4.97716431127,
			"-0.004": 9.0339338117,
			"-0.003": 17.2979971526,
			"-0.002": 32.3348301819,
			"-0.001": 30.8481427666,
			"0.0": 32.5045722417,
			"0.001": 23.220785508,
			"0.002": 8.9742945406,
			"0.003": 3.71562502486,
			"0.004": 2.92073529851,
			"0.005": 2.56876762133,
			"0.006": 2.63902318995,
			"0.007": 2.32863189382,
			"0.008": 2.68933666745,
			"0.009": 2.62055099731,
			"0.01": 2.5172642935,
			"0.011": 4.00736709413,
			"0.012": 3.60182428478,
			"0.013": 0.467596415051,
			"0.014": 0.0,
			"0.015": 0.0,
			"0.016": 0.0,
			"0.017": 0.0,
			"0.018": 0.0,
			"0.019": 0.0,
			"0.02": 0.0,
			"0.021": 0.0,
			"0.022": 0.0,
			"0.023": 0.0,
			"0.024": 0.0,
			"0.025": 0.0
		}
	}
}
