{
	 "smiles": "COC1=CC(SCC(O)=O)=CC=C1", 
	 "Tm": 334.15, 
	 "num_atms": 23, 
	 "gaussian": { 
		 "optdone": 1, 
		 "sigma_profile": "yes", 
		 "theory": "DFT", 
		 "functional": "B3LYP", 
		 "basiset": "6-31G**", 
		 "properties": { 
			 "R2extent": 4316.9849, 
			 "electric_dipole_moment_norm": 1.60279974108, 
			 "electric_quadrupole_moment_norm": 10.9680634499, 
			 "total_energy": -972.840138596, 
			 "HOMO_LUMO_gap": 0.19005, 
			 "cosmo_polarized_energy": -12.34, 
			 "cosmo_cavitation_energy": 28.87, 
			 "cosmo_dispersion_energy": -21.47, 
			 "cosmo_repulsion_energy": 1.67, 
			 "cosmo_total_nonelectrostatic_energy": 9.07, 
			 "SMD_solvation_energy": 6.56 
		},
		"coords": [
			{
				"x": 3.0471730051,
				"y": 0.5179117721,
				"z": -1.5032284495,
				"element": "C" 
			},
			{
				"x": 2.4029269446,
				"y": -0.7247810943,
				"z": -1.7343553656,
				"element": "O" 
			},
			{
				"x": 1.0947386236,
				"y": -0.8555839046,
				"z": -1.3691037916,
				"element": "C" 
			},
			{
				"x": 0.3287716483,
				"y": 0.1695571678,
				"z": -0.8052139139,
				"element": "C" 
			},
			{
				"x": -1.0110878607,
				"y": -0.0750061884,
				"z": -0.461891495,
				"element": "C" 
			},
			{
				"x": -1.8734829114,
				"y": 1.2893573848,
				"z": 0.3226228055,
				"element": "S" 
			},
			{
				"x": -3.600774624,
				"y": 1.109674284,
				"z": -0.2950831326,
				"element": "C" 
			},
			{
				"x": -4.468870194,
				"y": 0.3149908236,
				"z": 0.6570162227,
				"element": "C" 
			},
			{
				"x": -5.0149562964,
				"y": 1.1055610393,
				"z": 1.6061968337,
				"element": "O" 
			},
			{
				"x": -4.6583893302,
				"y": -0.8817243813,
				"z": 0.6078143655,
				"element": "O" 
			},
			{
				"x": -1.5893808113,
				"y": -1.3270438377,
				"z": -0.6842162687,
				"element": "C" 
			},
			{
				"x": -0.8127684395,
				"y": -2.3297150757,
				"z": -1.2767279917,
				"element": "C" 
			},
			{
				"x": 0.5165247661,
				"y": -2.1104893461,
				"z": -1.6137390225,
				"element": "C" 
			},
			{
				"x": 3.0519950344,
				"y": 0.7799830151,
				"z": -0.4373547719,
				"element": "H" 
			},
			{
				"x": 2.5754275814,
				"y": 1.3313138033,
				"z": -2.0697182834,
				"element": "H" 
			},
			{
				"x": 4.075216328,
				"y": 0.3925779175,
				"z": -1.8465331805,
				"element": "H" 
			},
			{
				"x": 0.7465337507,
				"y": 1.1560559034,
				"z": -0.6449686933,
				"element": "H" 
			},
			{
				"x": -3.9896213839,
				"y": 2.1245654295,
				"z": -0.3978819593,
				"element": "H" 
			},
			{
				"x": -3.579626702,
				"y": 0.6178093009,
				"z": -1.2677544641,
				"element": "H" 
			},
			{
				"x": -5.5124765133,
				"y": 0.5185397914,
				"z": 2.2004676017,
				"element": "H" 
			},
			{
				"x": -2.6144462602,
				"y": -1.5282912929,
				"z": -0.3940387777,
				"element": "H" 
			},
			{
				"x": -1.2562516974,
				"y": -3.3041664281,
				"z": -1.4610512414,
				"element": "H" 
			},
			{
				"x": 1.1272253421,
				"y": -2.8855960837,
				"z": -2.0641570264,
				"element": "H" 
			}
		],
		 "valence_orbital": [ 
			{
				"type": "occ",
				"energy": -0.31672,
				"method": "rhf"
			},
			{
				"type": "occ",
				"energy": -0.29177,
				"method": "rhf"
			},
			{
				"type": "occ",
				"energy": -0.27013,
				"method": "rhf"
			},
			{
				"type": "occ",
				"energy": -0.23041,
				"method": "rhf"
			},
			{
				"type": "occ",
				"energy": -0.21182,
				"method": "rhf"
			},
			{
				"type": "unocc",
				"energy": -0.02177,
				"method": "rhf"
			},
			{
				"type": "unocc",
				"energy": -0.00437,
				"method": "rhf"
			},
			{
				"type": "unocc",
				"energy": 0.01062,
				"method": "rhf"
			},
			{
				"type": "unocc",
				"energy": 0.04101,
				"method": "rhf"
			},
			{
				"type": "unocc",
				"energy": 0.06954,
				"method": "rhf"
			}
		],
		"cosmo_sigma_profile": { 
			"-0.025": 0.0,
			"-0.024": 0.0,
			"-0.023": 0.0,
			"-0.022": 0.0,
			"-0.021": 0.0,
			"-0.02": 0.0,
			"-0.019": 0.185852466229,
			"-0.018": 1.12991158896,
			"-0.017": 0.899545989982,
			"-0.016": 0.97734109662,
			"-0.015": 0.32390934067,
			"-0.014": 0.422231727198,
			"-0.013": 0.554319678694,
			"-0.012": 1.29730995134,
			"-0.011": 1.40721453669,
			"-0.01": 0.15671902373,
			"-0.009": 1.05840742346,
			"-0.008": 3.82785351627,
			"-0.007": 5.00249264573,
			"-0.006": 14.6580711331,
			"-0.005": 19.641572224,
			"-0.004": 17.2351724353,
			"-0.003": 17.9913779118,
			"-0.002": 12.2943660184,
			"-0.001": 10.9351366568,
			"0.0": 10.3505220522,
			"0.001": 10.8215724519,
			"0.002": 14.8833571706,
			"0.003": 16.0558187223,
			"0.004": 20.1224918295,
			"0.005": 16.4832011551,
			"0.006": 7.76102034394,
			"0.007": 6.93696921109,
			"0.008": 5.4587039671,
			"0.009": 3.98865078502,
			"0.01": 3.79653093599,
			"0.011": 4.26079575891,
			"0.012": 0.736215114519,
			"0.013": 0.0,
			"0.014": 0.0,
			"0.015": 0.0,
			"0.016": 0.0,
			"0.017": 0.0,
			"0.018": 0.0,
			"0.019": 0.0,
			"0.02": 0.0,
			"0.021": 0.0,
			"0.022": 0.0,
			"0.023": 0.0,
			"0.024": 0.0,
			"0.025": 0.0
		}
	}
}
