{
	 "smiles": "NC(CC1=NC2=C(S1)C=CC=C2)=N/O", 
	 "Tm": 433.15, 
	 "num_atms": 23, 
	 "gaussian": { 
		 "optdone": 1, 
		 "sigma_profile": "yes", 
		 "theory": "DFT", 
		 "functional": "B3LYP", 
		 "basiset": "6-31G**", 
		 "properties": { 
			 "R2extent": 4053.7362, 
			 "electric_dipole_moment_norm": 2.34269590643, 
			 "electric_quadrupole_moment_norm": 6.3526502619, 
			 "total_energy": -986.005059219, 
			 "HOMO_LUMO_gap": 0.17176, 
			 "cosmo_polarized_energy": -14.1, 
			 "cosmo_cavitation_energy": 29.1, 
			 "cosmo_dispersion_energy": -21.99, 
			 "cosmo_repulsion_energy": 1.7, 
			 "cosmo_total_nonelectrostatic_energy": 8.81, 
			 "SMD_solvation_energy": 2.39 
		},
		"coords": [
			{
				"x": -1.5352822499,
				"y": -2.0542609849,
				"z": 0.3104257491,
				"element": "N" 
			},
			{
				"x": -2.1126460608,
				"y": -0.83075043,
				"z": 0.5621759923,
				"element": "C" 
			},
			{
				"x": -1.5648006038,
				"y": 0.3868692583,
				"z": -0.1522665833,
				"element": "C" 
			},
			{
				"x": -0.1079355666,
				"y": 0.6478263421,
				"z": 0.1326568048,
				"element": "C" 
			},
			{
				"x": 0.3312480484,
				"y": 1.303321479,
				"z": 1.1541880758,
				"element": "N" 
			},
			{
				"x": 1.717204089,
				"y": 1.3548090737,
				"z": 1.1723700473,
				"element": "C" 
			},
			{
				"x": 2.3658201318,
				"y": 0.6943218769,
				"z": 0.0994610989,
				"element": "C" 
			},
			{
				"x": 1.1537628672,
				"y": 0.003485223,
				"z": -0.9611056022,
				"element": "S" 
			},
			{
				"x": 3.7585939537,
				"y": 0.6694204868,
				"z": -0.006516803,
				"element": "C" 
			},
			{
				"x": 4.5015050345,
				"y": 1.3140699148,
				"z": 0.9794226507,
				"element": "C" 
			},
			{
				"x": 3.8703083371,
				"y": 1.9723535656,
				"z": 2.0494004189,
				"element": "C" 
			},
			{
				"x": 2.4849562653,
				"y": 1.9987446838,
				"z": 2.1536595016,
				"element": "C" 
			},
			{
				"x": -3.1518958891,
				"y": -0.6393583929,
				"z": 1.2999857355,
				"element": "N" 
			},
			{
				"x": -3.5620857735,
				"y": -1.8840338055,
				"z": 1.8666895977,
				"element": "O" 
			},
			{
				"x": -0.5521415439,
				"y": -2.0563244409,
				"z": 0.0784587672,
				"element": "H" 
			},
			{
				"x": -1.8282527851,
				"y": -2.7843261566,
				"z": 0.9457678142,
				"element": "H" 
			},
			{
				"x": -1.7150142396,
				"y": 0.2668504822,
				"z": -1.2319132452,
				"element": "H" 
			},
			{
				"x": -2.1428647617,
				"y": 1.2485323013,
				"z": 0.1860329397,
				"element": "H" 
			},
			{
				"x": 4.2507315392,
				"y": 0.1640416836,
				"z": -0.8311740447,
				"element": "H" 
			},
			{
				"x": 5.5856374967,
				"y": 1.3072504634,
				"z": 0.9182400668,
				"element": "H" 
			},
			{
				"x": 4.4753658368,
				"y": 2.4664557206,
				"z": 2.8034746052,
				"element": "H" 
			},
			{
				"x": 1.9824332386,
				"y": 2.5019440116,
				"z": 2.9729537472,
				"element": "H" 
			},
			{
				"x": -4.2869473646,
				"y": -1.6091423561,
				"z": 2.4406126655,
				"element": "H" 
			}
		],
		 "valence_orbital": [ 
			{
				"type": "occ",
				"energy": -0.27995,
				"method": "rhf"
			},
			{
				"type": "occ",
				"energy": -0.27102,
				"method": "rhf"
			},
			{
				"type": "occ",
				"energy": -0.24424,
				"method": "rhf"
			},
			{
				"type": "occ",
				"energy": -0.24085,
				"method": "rhf"
			},
			{
				"type": "occ",
				"energy": -0.21315,
				"method": "rhf"
			},
			{
				"type": "unocc",
				"energy": -0.04139,
				"method": "rhf"
			},
			{
				"type": "unocc",
				"energy": -0.012,
				"method": "rhf"
			},
			{
				"type": "unocc",
				"energy": -0.00034,
				"method": "rhf"
			},
			{
				"type": "unocc",
				"energy": 0.02691,
				"method": "rhf"
			},
			{
				"type": "unocc",
				"energy": 0.04081,
				"method": "rhf"
			}
		],
		"cosmo_sigma_profile": { 
			"-0.025": 0.0,
			"-0.024": 0.0,
			"-0.023": 0.0,
			"-0.022": 0.0,
			"-0.021": 0.0,
			"-0.02": 0.0,
			"-0.019": 0.0,
			"-0.018": 0.0,
			"-0.017": 0.273201355639,
			"-0.016": 1.04032445647,
			"-0.015": 0.738561695536,
			"-0.014": 0.94214389901,
			"-0.013": 0.888848037098,
			"-0.012": 0.839094298989,
			"-0.011": 2.67102097997,
			"-0.01": 2.40388630458,
			"-0.009": 1.96023608861,
			"-0.008": 4.77208477655,
			"-0.007": 10.8736327243,
			"-0.006": 14.5349244481,
			"-0.005": 15.572473432,
			"-0.004": 14.5294959388,
			"-0.003": 12.0123066191,
			"-0.002": 12.3975137922,
			"-0.001": 11.3579111354,
			"0.0": 13.7314735058,
			"0.001": 16.6627881314,
			"0.002": 18.7931498845,
			"0.003": 16.2471118542,
			"0.004": 15.3760720029,
			"0.005": 9.54830882598,
			"0.006": 5.71136058246,
			"0.007": 6.26324882805,
			"0.008": 5.27728906404,
			"0.009": 5.10969329697,
			"0.01": 4.21492629872,
			"0.011": 3.87715724035,
			"0.012": 1.87574466934,
			"0.013": 1.54007855662,
			"0.014": 1.69053283527,
			"0.015": 0.758425741049,
			"0.016": 0.0,
			"0.017": 0.0,
			"0.018": 0.0,
			"0.019": 0.0,
			"0.02": 0.0,
			"0.021": 0.0,
			"0.022": 0.0,
			"0.023": 0.0,
			"0.024": 0.0,
			"0.025": 0.0
		}
	}
}
