{
	 "smiles": "N#CC(N1CCOCC1)C1=CC=CC=C1", 
	 "Tm": 343.15, 
	 "num_atms": 29, 
	 "gaussian": { 
		 "optdone": 1, 
		 "sigma_profile": "yes", 
		 "theory": "DFT", 
		 "functional": "B3LYP", 
		 "basiset": "6-31G**", 
		 "properties": { 
			 "R2extent": 3732.6972, 
			 "electric_dipole_moment_norm": 3.69659641562, 
			 "electric_quadrupole_moment_norm": 11.3047930437, 
			 "total_energy": -650.397848614, 
			 "HOMO_LUMO_gap": 0.2194, 
			 "cosmo_polarized_energy": -11.42, 
			 "cosmo_cavitation_energy": 31.51, 
			 "cosmo_dispersion_energy": -22.08, 
			 "cosmo_repulsion_energy": 1.73, 
			 "cosmo_total_nonelectrostatic_energy": 11.16, 
			 "SMD_solvation_energy": 5.08 
		},
		"coords": [
			{
				"x": 2.0867739274,
				"y": 1.697884863,
				"z": 0.1770356335,
				"element": "N" 
			},
			{
				"x": 1.3914017991,
				"y": 0.9557253665,
				"z": -0.3837366017,
				"element": "C" 
			},
			{
				"x": 0.4400549663,
				"y": 0.0828428077,
				"z": -1.1277445355,
				"element": "C" 
			},
			{
				"x": -0.8569099849,
				"y": 0.7278408753,
				"z": -1.3412762654,
				"element": "N" 
			},
			{
				"x": -0.7946050108,
				"y": 1.883181373,
				"z": -2.2450965586,
				"element": "C" 
			},
			{
				"x": -2.2141818508,
				"y": 2.3694755301,
				"z": -2.5344193348,
				"element": "C" 
			},
			{
				"x": -2.8979905999,
				"y": 2.7069813123,
				"z": -1.3373400646,
				"element": "O" 
			},
			{
				"x": -2.9641960353,
				"y": 1.5903773174,
				"z": -0.4608781496,
				"element": "C" 
			},
			{
				"x": -1.5703692762,
				"y": 1.0780779381,
				"z": -0.1045949124,
				"element": "C" 
			},
			{
				"x": 0.2992669979,
				"y": -1.303296462,
				"z": -0.4919270257,
				"element": "C" 
			},
			{
				"x": 1.0617597475,
				"y": -1.7110439755,
				"z": 0.6058348361,
				"element": "C" 
			},
			{
				"x": 0.9210355104,
				"y": -3.0033047607,
				"z": 1.1193797295,
				"element": "C" 
			},
			{
				"x": 0.0182674465,
				"y": -3.8947269542,
				"z": 0.5415135099,
				"element": "C" 
			},
			{
				"x": -0.7478911941,
				"y": -3.489463453,
				"z": -0.5551058003,
				"element": "C" 
			},
			{
				"x": -0.6080042509,
				"y": -2.2021801273,
				"z": -1.0695149122,
				"element": "C" 
			},
			{
				"x": 0.8820045203,
				"y": -0.0505424304,
				"z": -2.1254973127,
				"element": "H" 
			},
			{
				"x": -0.3119222153,
				"y": 1.5774807869,
				"z": -3.1813846642,
				"element": "H" 
			},
			{
				"x": -0.2067901322,
				"y": 2.7122723881,
				"z": -1.8137989901,
				"element": "H" 
			},
			{
				"x": -2.1897956157,
				"y": 3.2739137553,
				"z": -3.1489888763,
				"element": "H" 
			},
			{
				"x": -2.7639236724,
				"y": 1.5852198925,
				"z": -3.0804852961,
				"element": "H" 
			},
			{
				"x": -3.4869359369,
				"y": 1.9286493246,
				"z": 0.438176652,
				"element": "H" 
			},
			{
				"x": -3.5466738172,
				"y": 0.7770640358,
				"z": -0.923754142,
				"element": "H" 
			},
			{
				"x": -1.652723467,
				"y": 0.1859713109,
				"z": 0.5238096874,
				"element": "H" 
			},
			{
				"x": -1.0325087316,
				"y": 1.8536865357,
				"z": 0.4674925433,
				"element": "H" 
			},
			{
				"x": 1.7657069307,
				"y": -1.02242499,
				"z": 1.0632211469,
				"element": "H" 
			},
			{
				"x": 1.5177348312,
				"y": -3.3076786458,
				"z": 1.9742879473,
				"element": "H" 
			},
			{
				"x": -0.0905837291,
				"y": -4.8984284509,
				"z": 0.9420398024,
				"element": "H" 
			},
			{
				"x": -1.4545220483,
				"y": -4.1775655039,
				"z": -1.0102995768,
				"element": "H" 
			},
			{
				"x": -1.2101791088,
				"y": -1.8757896595,
				"z": -1.9116484697,
				"element": "H" 
			}
		],
		 "valence_orbital": [ 
			{
				"type": "occ",
				"energy": -0.31101,
				"method": "rhf"
			},
			{
				"type": "occ",
				"energy": -0.26421,
				"method": "rhf"
			},
			{
				"type": "occ",
				"energy": -0.26038,
				"method": "rhf"
			},
			{
				"type": "occ",
				"energy": -0.25764,
				"method": "rhf"
			},
			{
				"type": "occ",
				"energy": -0.23872,
				"method": "rhf"
			},
			{
				"type": "unocc",
				"energy": -0.01932,
				"method": "rhf"
			},
			{
				"type": "unocc",
				"energy": -0.01143,
				"method": "rhf"
			},
			{
				"type": "unocc",
				"energy": 0.02892,
				"method": "rhf"
			},
			{
				"type": "unocc",
				"energy": 0.03357,
				"method": "rhf"
			},
			{
				"type": "unocc",
				"energy": 0.08923,
				"method": "rhf"
			}
		],
		"cosmo_sigma_profile": { 
			"-0.025": 0.0,
			"-0.024": 0.0,
			"-0.023": 0.0,
			"-0.022": 0.0,
			"-0.021": 0.0,
			"-0.02": 0.0,
			"-0.019": 0.0,
			"-0.018": 0.0,
			"-0.017": 0.0,
			"-0.016": 0.0,
			"-0.015": 0.0,
			"-0.014": 0.0,
			"-0.013": 0.0,
			"-0.012": 0.0,
			"-0.011": 0.0,
			"-0.01": 0.0,
			"-0.009": 2.62465849336,
			"-0.008": 3.31984339344,
			"-0.007": 2.08464993703,
			"-0.006": 9.38079859596,
			"-0.005": 20.2611460126,
			"-0.004": 27.7447592306,
			"-0.003": 31.504816989,
			"-0.002": 26.5989934657,
			"-0.001": 17.3718842762,
			"0.0": 13.808849492,
			"0.001": 12.4113681518,
			"0.002": 11.4901066367,
			"0.003": 12.0432549366,
			"0.004": 12.2956433746,
			"0.005": 12.9372441739,
			"0.006": 5.06473995953,
			"0.007": 4.56910849029,
			"0.008": 3.88656221202,
			"0.009": 4.05446688084,
			"0.01": 4.47032567046,
			"0.011": 3.68541710489,
			"0.012": 4.38175510688,
			"0.013": 3.11692857405,
			"0.014": 0.256962940497,
			"0.015": 0.0,
			"0.016": 0.0,
			"0.017": 0.0,
			"0.018": 0.0,
			"0.019": 0.0,
			"0.02": 0.0,
			"0.021": 0.0,
			"0.022": 0.0,
			"0.023": 0.0,
			"0.024": 0.0,
			"0.025": 0.0
		}
	}
}
