{
	 "smiles": "COC1=C(Cl)C(Cl)=CC=C1", 
	 "Tm": 304.65, 
	 "num_atms": 16, 
	 "gaussian": { 
		 "optdone": 1, 
		 "sigma_profile": "yes", 
		 "theory": "DFT", 
		 "functional": "B3LYP", 
		 "basiset": "6-31G**", 
		 "properties": { 
			 "R2extent": 2252.9097, 
			 "electric_dipole_moment_norm": 2.95629152318, 
			 "electric_quadrupole_moment_norm": 7.99278405751, 
			 "total_energy": -1265.94624751, 
			 "HOMO_LUMO_gap": 0.22663, 
			 "cosmo_polarized_energy": -5.83, 
			 "cosmo_cavitation_energy": 23.43, 
			 "cosmo_dispersion_energy": -17.49, 
			 "cosmo_repulsion_energy": 1.42, 
			 "cosmo_total_nonelectrostatic_energy": 7.36, 
			 "SMD_solvation_energy": 4.36 
		},
		"coords": [
			{
				"x": -0.2230601591,
				"y": 2.5147588498,
				"z": -0.3782874155,
				"element": "C" 
			},
			{
				"x": 0.6295719639,
				"y": 1.3992952815,
				"z": -0.0981646018,
				"element": "O" 
			},
			{
				"x": 0.0752275349,
				"y": 0.4278627005,
				"z": 0.6911204785,
				"element": "C" 
			},
			{
				"x": -0.6490095568,
				"y": -0.6352537571,
				"z": 0.1182651102,
				"element": "C" 
			},
			{
				"x": -0.8728043429,
				"y": -0.6741849742,
				"z": -1.6091759666,
				"element": "Cl" 
			},
			{
				"x": -1.1561982288,
				"y": -1.6462876863,
				"z": 0.9471324317,
				"element": "C" 
			},
			{
				"x": -2.0552118788,
				"y": -2.9898293042,
				"z": 0.2807285511,
				"element": "Cl" 
			},
			{
				"x": -0.9501688483,
				"y": -1.6007439567,
				"z": 2.327456155,
				"element": "C" 
			},
			{
				"x": -0.2304339762,
				"y": -0.5463705091,
				"z": 2.8846840681,
				"element": "C" 
			},
			{
				"x": 0.2788239466,
				"y": 0.4640035023,
				"z": 2.0718683743,
				"element": "C" 
			},
			{
				"x": -0.5254409473,
				"y": 3.020697905,
				"z": 0.5472800603,
				"element": "H" 
			},
			{
				"x": 0.3638512621,
				"y": 3.1999404881,
				"z": -0.9921425721,
				"element": "H" 
			},
			{
				"x": -1.1165033356,
				"y": 2.205639461,
				"z": -0.9321315255,
				"element": "H" 
			},
			{
				"x": -1.3507066223,
				"y": -2.3947306809,
				"z": 2.9470776045,
				"element": "H" 
			},
			{
				"x": -0.0657778624,
				"y": -0.5166945722,
				"z": 3.9570865446,
				"element": "H" 
			},
			{
				"x": 0.8531410509,
				"y": 1.2875972524,
				"z": 2.4829027032,
				"element": "H" 
			}
		],
		 "valence_orbital": [ 
			{
				"type": "occ",
				"energy": -0.32633,
				"method": "rhf"
			},
			{
				"type": "occ",
				"energy": -0.30759,
				"method": "rhf"
			},
			{
				"type": "occ",
				"energy": -0.2848,
				"method": "rhf"
			},
			{
				"type": "occ",
				"energy": -0.25256,
				"method": "rhf"
			},
			{
				"type": "occ",
				"energy": -0.25088,
				"method": "rhf"
			},
			{
				"type": "unocc",
				"energy": -0.02425,
				"method": "rhf"
			},
			{
				"type": "unocc",
				"energy": -0.01948,
				"method": "rhf"
			},
			{
				"type": "unocc",
				"energy": 0.00138,
				"method": "rhf"
			},
			{
				"type": "unocc",
				"energy": 0.06433,
				"method": "rhf"
			},
			{
				"type": "unocc",
				"energy": 0.10347,
				"method": "rhf"
			}
		],
		"cosmo_sigma_profile": { 
			"-0.025": 0.0,
			"-0.024": 0.0,
			"-0.023": 0.0,
			"-0.022": 0.0,
			"-0.021": 0.0,
			"-0.02": 0.0,
			"-0.019": 0.0,
			"-0.018": 0.0,
			"-0.017": 0.0,
			"-0.016": 0.0,
			"-0.015": 0.0,
			"-0.014": 0.0,
			"-0.013": 0.0,
			"-0.012": 0.0,
			"-0.011": 0.0,
			"-0.01": 0.0,
			"-0.009": 0.0,
			"-0.008": 1.38203866866,
			"-0.007": 5.98208484849,
			"-0.006": 7.76050088012,
			"-0.005": 12.0820190726,
			"-0.004": 12.8270522023,
			"-0.003": 17.460533172,
			"-0.002": 12.8886507988,
			"-0.001": 11.9334222143,
			"0.0": 16.2061624666,
			"0.001": 21.1860068786,
			"0.002": 19.6958051575,
			"0.003": 18.7901329881,
			"0.004": 16.2085587324,
			"0.005": 7.38802754726,
			"0.006": 2.5309891266,
			"0.007": 1.96969840798,
			"0.008": 1.12938603878,
			"0.009": 1.51795659027,
			"0.01": 1.56895558096,
			"0.011": 1.34330592247,
			"0.012": 0.0796818442779,
			"0.013": 0.0,
			"0.014": 0.0,
			"0.015": 0.0,
			"0.016": 0.0,
			"0.017": 0.0,
			"0.018": 0.0,
			"0.019": 0.0,
			"0.02": 0.0,
			"0.021": 0.0,
			"0.022": 0.0,
			"0.023": 0.0,
			"0.024": 0.0,
			"0.025": 0.0
		}
	}
}
