{
	 "smiles": "CCNC1=NC(=CS1)C(O)=O", 
	 "Tm": 489.15, 
	 "num_atms": 19, 
	 "gaussian": { 
		 "optdone": 1, 
		 "sigma_profile": "yes", 
		 "theory": "DFT", 
		 "functional": "B3LYP", 
		 "basiset": "6-31G**", 
		 "properties": { 
			 "R2extent": 2772.1421, 
			 "electric_dipole_moment_norm": 6.01850960122, 
			 "electric_quadrupole_moment_norm": 17.7761248705, 
			 "total_energy": -891.596030704, 
			 "HOMO_LUMO_gap": 0.17825, 
			 "cosmo_polarized_energy": -20.86, 
			 "cosmo_cavitation_energy": 25.31, 
			 "cosmo_dispersion_energy": -18.92, 
			 "cosmo_repulsion_energy": 1.52, 
			 "cosmo_total_nonelectrostatic_energy": 7.9, 
			 "SMD_solvation_energy": 3.84 
		},
		"coords": [
			{
				"x": 0.8892112188,
				"y": 0.7719282532,
				"z": -2.2845437641,
				"element": "C" 
			},
			{
				"x": -0.041716492,
				"y": 1.4353766394,
				"z": -1.2661526491,
				"element": "C" 
			},
			{
				"x": -1.0930972362,
				"y": 0.5511857683,
				"z": -0.7563541723,
				"element": "N" 
			},
			{
				"x": -0.8206159144,
				"y": -0.3802223098,
				"z": 0.19774329,
				"element": "C" 
			},
			{
				"x": 0.3049390483,
				"y": -0.4663547096,
				"z": 0.8504989662,
				"element": "N" 
			},
			{
				"x": 0.2548830162,
				"y": -1.4814824234,
				"z": 1.7796559352,
				"element": "C" 
			},
			{
				"x": -0.912707156,
				"y": -2.1929544879,
				"z": 1.8469129624,
				"element": "C" 
			},
			{
				"x": -2.0600714637,
				"y": -1.5657967201,
				"z": 0.6934308794,
				"element": "S" 
			},
			{
				"x": 1.4341818972,
				"y": -1.6993628683,
				"z": 2.6755509424,
				"element": "C" 
			},
			{
				"x": 1.5566439384,
				"y": -2.9634987633,
				"z": 3.1730532036,
				"element": "O" 
			},
			{
				"x": 2.2205094311,
				"y": -0.8392176971,
				"z": 2.9777328768,
				"element": "O" 
			},
			{
				"x": 0.3349353411,
				"y": 0.4162467433,
				"z": -3.1600090112,
				"element": "H" 
			},
			{
				"x": 1.6422355914,
				"y": 1.4880498781,
				"z": -2.6295599171,
				"element": "H" 
			},
			{
				"x": 1.407995585,
				"y": -0.0759301987,
				"z": -1.8301528665,
				"element": "H" 
			},
			{
				"x": 0.5300640981,
				"y": 1.7818271028,
				"z": -0.4023778559,
				"element": "H" 
			},
			{
				"x": -0.5419312394,
				"y": 2.3051577424,
				"z": -1.7044710717,
				"element": "H" 
			},
			{
				"x": -1.8815074996,
				"y": 0.3737232938,
				"z": -1.360671414,
				"element": "H" 
			},
			{
				"x": -1.197482825,
				"y": -2.9803629445,
				"z": 2.5302392598,
				"element": "H" 
			},
			{
				"x": 0.9729306608,
				"y": -3.5598122986,
				"z": 2.682774406,
				"element": "H" 
			}
		],
		 "valence_orbital": [ 
			{
				"type": "occ",
				"energy": -0.31029,
				"method": "rhf"
			},
			{
				"type": "occ",
				"energy": -0.28957,
				"method": "rhf"
			},
			{
				"type": "occ",
				"energy": -0.28362,
				"method": "rhf"
			},
			{
				"type": "occ",
				"energy": -0.26622,
				"method": "rhf"
			},
			{
				"type": "occ",
				"energy": -0.22022,
				"method": "rhf"
			},
			{
				"type": "unocc",
				"energy": -0.04197,
				"method": "rhf"
			},
			{
				"type": "unocc",
				"energy": -0.00776,
				"method": "rhf"
			},
			{
				"type": "unocc",
				"energy": 0.01399,
				"method": "rhf"
			},
			{
				"type": "unocc",
				"energy": 0.05661,
				"method": "rhf"
			},
			{
				"type": "unocc",
				"energy": 0.07729,
				"method": "rhf"
			}
		],
		"cosmo_sigma_profile": { 
			"-0.025": 0.0,
			"-0.024": 0.0,
			"-0.023": 0.0,
			"-0.022": 0.0,
			"-0.021": 0.0,
			"-0.02": 0.0,
			"-0.019": 0.0333673787328,
			"-0.018": 0.527474685327,
			"-0.017": 1.1694583461,
			"-0.016": 1.21501317371,
			"-0.015": 1.77431805483,
			"-0.014": 2.16631404291,
			"-0.013": 3.07342465996,
			"-0.012": 3.13970522419,
			"-0.011": 3.30623631246,
			"-0.01": 2.74850706997,
			"-0.009": 3.2927601548,
			"-0.008": 3.56309300051,
			"-0.007": 3.80320400172,
			"-0.006": 4.88219422608,
			"-0.005": 5.55796810888,
			"-0.004": 9.6719501353,
			"-0.003": 14.3965636734,
			"-0.002": 14.8925639939,
			"-0.001": 14.7700057338,
			"0.0": 19.2258637785,
			"0.001": 18.2781104051,
			"0.002": 12.9176974038,
			"0.003": 8.85602385731,
			"0.004": 5.84418871965,
			"0.005": 4.71949928479,
			"0.006": 3.76667062329,
			"0.007": 3.95951289649,
			"0.008": 3.60164097458,
			"0.009": 4.16877824958,
			"0.01": 5.37631119586,
			"0.011": 6.38665401497,
			"0.012": 6.18119563415,
			"0.013": 3.18154154064,
			"0.014": 1.6288069155,
			"0.015": 0.981459255053,
			"0.016": 0.103568230231,
			"0.017": 0.0,
			"0.018": 0.0,
			"0.019": 0.0,
			"0.02": 0.0,
			"0.021": 0.0,
			"0.022": 0.0,
			"0.023": 0.0,
			"0.024": 0.0,
			"0.025": 0.0
		}
	}
}
