{
	 "smiles": "OC1(CCCCC1)C#CC#CC1(O)CCCCC1", 
	 "Tm": 448.15, 
	 "num_atms": 40, 
	 "gaussian": { 
		 "optdone": 1, 
		 "sigma_profile": "yes", 
		 "theory": "DFT", 
		 "functional": "B3LYP", 
		 "basiset": "6-31G**", 
		 "properties": { 
			 "R2extent": 8289.2391, 
			 "electric_dipole_moment_norm": 0.724486321472, 
			 "electric_quadrupole_moment_norm": 14.0294471024, 
			 "total_energy": -773.299376141, 
			 "HOMO_LUMO_gap": 0.21833, 
			 "cosmo_polarized_energy": -11.25, 
			 "cosmo_cavitation_energy": 41.14, 
			 "cosmo_dispersion_energy": -29.03, 
			 "cosmo_repulsion_energy": 2.33, 
			 "cosmo_total_nonelectrostatic_energy": 14.44, 
			 "SMD_solvation_energy": 5.96 
		},
		"coords": [
			{
				"x": 0.9608929605,
				"y": 1.2623301352,
				"z": -4.903122905,
				"element": "O" 
			},
			{
				"x": -0.1305227434,
				"y": 0.519961982,
				"z": -4.3392054409,
				"element": "C" 
			},
			{
				"x": -0.3534679261,
				"y": -0.8140398704,
				"z": -5.1263816008,
				"element": "C" 
			},
			{
				"x": -1.842281417,
				"y": -1.198783442,
				"z": -5.28424233,
				"element": "C" 
			},
			{
				"x": -2.6699953267,
				"y": -0.7604982345,
				"z": -4.0694071327,
				"element": "C" 
			},
			{
				"x": -2.6447411419,
				"y": 0.7789443655,
				"z": -3.9017125689,
				"element": "C" 
			},
			{
				"x": -1.3700948672,
				"y": 1.4211021207,
				"z": -4.4893584033,
				"element": "C" 
			},
			{
				"x": 0.1513474341,
				"y": 0.2480138474,
				"z": -2.9171534947,
				"element": "C" 
			},
			{
				"x": 0.4364996428,
				"y": 0.0190692926,
				"z": -1.7553083328,
				"element": "C" 
			},
			{
				"x": 0.7454120143,
				"y": -0.2377552739,
				"z": -0.4493426692,
				"element": "C" 
			},
			{
				"x": 1.0154405078,
				"y": -0.4619716287,
				"z": 0.7170054121,
				"element": "C" 
			},
			{
				"x": 1.3833120351,
				"y": -0.7745912962,
				"z": 2.1112482248,
				"element": "C" 
			},
			{
				"x": 1.6156913907,
				"y": -2.1825107423,
				"z": 2.2483005129,
				"element": "O" 
			},
			{
				"x": 0.2220562121,
				"y": -0.4507565093,
				"z": 3.0753643625,
				"element": "C" 
			},
			{
				"x": -0.0477804155,
				"y": 1.05613647,
				"z": 3.1832390778,
				"element": "C" 
			},
			{
				"x": 1.2169498241,
				"y": 1.8308572384,
				"z": 3.585084532,
				"element": "C" 
			},
			{
				"x": 2.3835848351,
				"y": 1.5328099974,
				"z": 2.6308755255,
				"element": "C" 
			},
			{
				"x": 2.6449595434,
				"y": 0.0231383064,
				"z": 2.5262271172,
				"element": "C" 
			},
			{
				"x": 1.770285003,
				"y": 0.7572054905,
				"z": -4.7438269671,
				"element": "H" 
			},
			{
				"x": 0.1014366191,
				"y": -0.6631125103,
				"z": -6.1109931613,
				"element": "H" 
			},
			{
				"x": 0.1981978248,
				"y": -1.6210194777,
				"z": -4.6318415854,
				"element": "H" 
			},
			{
				"x": -1.9272861771,
				"y": -2.2796273694,
				"z": -5.4410163652,
				"element": "H" 
			},
			{
				"x": -2.251350453,
				"y": -0.7262386382,
				"z": -6.186307035,
				"element": "H" 
			},
			{
				"x": -3.7028925866,
				"y": -1.113156849,
				"z": -4.1630331249,
				"element": "H" 
			},
			{
				"x": -2.2596877645,
				"y": -1.2362316236,
				"z": -3.1709327402,
				"element": "H" 
			},
			{
				"x": -2.7302099404,
				"y": 1.0309024615,
				"z": -2.8396694713,
				"element": "H" 
			},
			{
				"x": -3.5140426586,
				"y": 1.2254731219,
				"z": -4.3977590717,
				"element": "H" 
			},
			{
				"x": -1.4855350025,
				"y": 1.6046226115,
				"z": -5.5638290152,
				"element": "H" 
			},
			{
				"x": -1.1621351003,
				"y": 2.3883348705,
				"z": -4.0236252242,
				"element": "H" 
			},
			{
				"x": 2.2807981353,
				"y": -2.4336366791,
				"z": 1.5924176285,
				"element": "H" 
			},
			{
				"x": -0.6696133601,
				"y": -0.9943718775,
				"z": 2.7485087547,
				"element": "H" 
			},
			{
				"x": 0.5096862479,
				"y": -0.857706888,
				"z": 4.0527907785,
				"element": "H" 
			},
			{
				"x": -0.8492818174,
				"y": 1.2313494874,
				"z": 3.9100638696,
				"element": "H" 
			},
			{
				"x": -0.4135740041,
				"y": 1.428823059,
				"z": 2.2177163319,
				"element": "H" 
			},
			{
				"x": 1.0106341891,
				"y": 2.9073303099,
				"z": 3.6047025563,
				"element": "H" 
			},
			{
				"x": 1.5049766408,
				"y": 1.5479127363,
				"z": 4.6075713286,
				"element": "H" 
			},
			{
				"x": 3.2945035182,
				"y": 2.0404546392,
				"z": 2.9687714883,
				"element": "H" 
			},
			{
				"x": 2.1536255703,
				"y": 1.930814625,
				"z": 1.6342271585,
				"element": "H" 
			},
			{
				"x": 2.9557584783,
				"y": -0.3770609163,
				"z": 3.49932362,
				"element": "H" 
			},
			{
				"x": 3.4545440758,
				"y": -0.1834173419,
				"z": 1.81533036,
				"element": "H" 
			}
		],
		 "valence_orbital": [ 
			{
				"type": "occ",
				"energy": -0.30526,
				"method": "rhf"
			},
			{
				"type": "occ",
				"energy": -0.27927,
				"method": "rhf"
			},
			{
				"type": "occ",
				"energy": -0.27323,
				"method": "rhf"
			},
			{
				"type": "occ",
				"energy": -0.23659,
				"method": "rhf"
			},
			{
				"type": "occ",
				"energy": -0.23536,
				"method": "rhf"
			},
			{
				"type": "unocc",
				"energy": -0.01703,
				"method": "rhf"
			},
			{
				"type": "unocc",
				"energy": -0.01453,
				"method": "rhf"
			},
			{
				"type": "unocc",
				"energy": 0.08101,
				"method": "rhf"
			},
			{
				"type": "unocc",
				"energy": 0.08277,
				"method": "rhf"
			},
			{
				"type": "unocc",
				"energy": 0.08841,
				"method": "rhf"
			}
		],
		"cosmo_sigma_profile": { 
			"-0.025": 0.0,
			"-0.024": 0.0,
			"-0.023": 0.0,
			"-0.022": 0.0,
			"-0.021": 0.0,
			"-0.02": 0.0,
			"-0.019": 0.0,
			"-0.018": 0.0,
			"-0.017": 0.0,
			"-0.016": 0.52027776154,
			"-0.015": 1.51467793382,
			"-0.014": 2.16376037706,
			"-0.013": 1.35652489218,
			"-0.012": 1.66980139151,
			"-0.011": 1.66558675401,
			"-0.01": 1.7260840517,
			"-0.009": 1.91628393933,
			"-0.008": 1.51935711351,
			"-0.007": 1.60717858969,
			"-0.006": 1.97252261139,
			"-0.005": 2.50642847964,
			"-0.004": 6.39732236304,
			"-0.003": 32.2791965994,
			"-0.002": 46.4062547116,
			"-0.001": 54.1946080804,
			"0.0": 49.650519834,
			"0.001": 29.1332889128,
			"0.002": 9.9978598513,
			"0.003": 16.3568417329,
			"0.004": 21.2415083623,
			"0.005": 8.39276560793,
			"0.006": 4.68650690525,
			"0.007": 2.43268278631,
			"0.008": 2.08890650862,
			"0.009": 2.73842481872,
			"0.01": 2.95363122383,
			"0.011": 2.39778413374,
			"0.012": 2.77654829396,
			"0.013": 4.29548342944,
			"0.014": 1.02640836106,
			"0.015": 0.0,
			"0.016": 0.0,
			"0.017": 0.0,
			"0.018": 0.0,
			"0.019": 0.0,
			"0.02": 0.0,
			"0.021": 0.0,
			"0.022": 0.0,
			"0.023": 0.0,
			"0.024": 0.0,
			"0.025": 0.0
		}
	}
}
