{
	 "smiles": "CCCCCCC(=O)OC", 
	 "Tm": 217.15, 
	 "num_atms": 26, 
	 "gaussian": { 
		 "optdone": 1, 
		 "sigma_profile": "yes", 
		 "theory": "DFT", 
		 "functional": "B3LYP", 
		 "basiset": "6-31G**", 
		 "properties": { 
			 "R2extent": 3019.756, 
			 "electric_dipole_moment_norm": 1.85885904253, 
			 "electric_quadrupole_moment_norm": 11.2793646089, 
			 "total_energy": -464.969093327, 
			 "HOMO_LUMO_gap": 0.27841, 
			 "cosmo_polarized_energy": -6.4, 
			 "cosmo_cavitation_energy": 28.35, 
			 "cosmo_dispersion_energy": -19.9, 
			 "cosmo_repulsion_energy": 1.69, 
			 "cosmo_total_nonelectrostatic_energy": 10.14, 
			 "SMD_solvation_energy": 5.93 
		},
		"coords": [
			{
				"x": 1.8012905272,
				"y": 0.030865302,
				"z": -2.107568636,
				"element": "C" 
			},
			{
				"x": 2.1042477519,
				"y": -0.4923518827,
				"z": -0.6983335123,
				"element": "C" 
			},
			{
				"x": 1.4387229382,
				"y": 0.3059717039,
				"z": 0.4349545526,
				"element": "C" 
			},
			{
				"x": -0.0942499724,
				"y": 0.2308803378,
				"z": 0.4563726331,
				"element": "C" 
			},
			{
				"x": -0.7100844853,
				"y": 0.9842539027,
				"z": 1.642548301,
				"element": "C" 
			},
			{
				"x": -2.2497254767,
				"y": 0.9534728724,
				"z": 1.6647655196,
				"element": "C" 
			},
			{
				"x": -2.8361414212,
				"y": -0.437806267,
				"z": 1.8046762654,
				"element": "C" 
			},
			{
				"x": -3.6288246532,
				"y": -0.950486068,
				"z": 1.0444958362,
				"element": "O" 
			},
			{
				"x": -2.3684542828,
				"y": -1.0582233772,
				"z": 2.9155067662,
				"element": "O" 
			},
			{
				"x": -2.8755086273,
				"y": -2.3833444941,
				"z": 3.1371985261,
				"element": "C" 
			},
			{
				"x": 2.0991292907,
				"y": 1.081057914,
				"z": -2.2105246162,
				"element": "H" 
			},
			{
				"x": 2.3445442901,
				"y": -0.5431691801,
				"z": -2.8654239248,
				"element": "H" 
			},
			{
				"x": 0.7356231735,
				"y": -0.036099109,
				"z": -2.3491073732,
				"element": "H" 
			},
			{
				"x": 1.7978106735,
				"y": -1.5449581398,
				"z": -0.6255164369,
				"element": "H" 
			},
			{
				"x": 3.1904143019,
				"y": -0.4824164109,
				"z": -0.5411990876,
				"element": "H" 
			},
			{
				"x": 1.7489389028,
				"y": 1.3588232107,
				"z": 0.3654132015,
				"element": "H" 
			},
			{
				"x": 1.8223407027,
				"y": -0.0594901941,
				"z": 1.3973423662,
				"element": "H" 
			},
			{
				"x": -0.401459148,
				"y": -0.8239633319,
				"z": 0.4917404994,
				"element": "H" 
			},
			{
				"x": -0.5054603486,
				"y": 0.635757645,
				"z": -0.4773245621,
				"element": "H" 
			},
			{
				"x": -0.3316112743,
				"y": 0.5680910837,
				"z": 2.5831389808,
				"element": "H" 
			},
			{
				"x": -0.3899024354,
				"y": 2.0335780435,
				"z": 1.6129677762,
				"element": "H" 
			},
			{
				"x": -2.6656915446,
				"y": 1.3803424369,
				"z": 0.748345721,
				"element": "H" 
			},
			{
				"x": -2.6126005895,
				"y": 1.5526722982,
				"z": 2.5090135999,
				"element": "H" 
			},
			{
				"x": -2.6241058904,
				"y": -3.0388767639,
				"z": 2.299494612,
				"element": "H" 
			},
			{
				"x": -2.3988785053,
				"y": -2.7331916456,
				"z": 4.0530749327,
				"element": "H" 
			},
			{
				"x": -3.9622638974,
				"y": -2.3662898865,
				"z": 3.2533480593,
				"element": "H" 
			}
		],
		 "valence_orbital": [ 
			{
				"type": "occ",
				"energy": -0.32153,
				"method": "rhf"
			},
			{
				"type": "occ",
				"energy": -0.31832,
				"method": "rhf"
			},
			{
				"type": "occ",
				"energy": -0.3102,
				"method": "rhf"
			},
			{
				"type": "occ",
				"energy": -0.29779,
				"method": "rhf"
			},
			{
				"type": "occ",
				"energy": -0.26379,
				"method": "rhf"
			},
			{
				"type": "unocc",
				"energy": 0.01462,
				"method": "rhf"
			},
			{
				"type": "unocc",
				"energy": 0.08749,
				"method": "rhf"
			},
			{
				"type": "unocc",
				"energy": 0.10183,
				"method": "rhf"
			},
			{
				"type": "unocc",
				"energy": 0.11113,
				"method": "rhf"
			},
			{
				"type": "unocc",
				"energy": 0.12094,
				"method": "rhf"
			}
		],
		"cosmo_sigma_profile": { 
			"-0.025": 0.0,
			"-0.024": 0.0,
			"-0.023": 0.0,
			"-0.022": 0.0,
			"-0.021": 0.0,
			"-0.02": 0.0,
			"-0.019": 0.0,
			"-0.018": 0.0,
			"-0.017": 0.0,
			"-0.016": 0.0,
			"-0.015": 0.0,
			"-0.014": 0.0,
			"-0.013": 0.0,
			"-0.012": 0.0,
			"-0.011": 0.0,
			"-0.01": 0.0,
			"-0.009": 0.0,
			"-0.008": 0.0,
			"-0.007": 0.233142196863,
			"-0.006": 4.5455447247,
			"-0.005": 9.6081277177,
			"-0.004": 11.6404757567,
			"-0.003": 21.4434499331,
			"-0.002": 36.4115687733,
			"-0.001": 33.8916995392,
			"0.0": 31.4807470565,
			"0.001": 28.0636141987,
			"0.002": 10.9505161126,
			"0.003": 3.09671724373,
			"0.004": 3.62940487871,
			"0.005": 3.14760041268,
			"0.006": 2.92724571601,
			"0.007": 2.11778961169,
			"0.008": 2.3352273497,
			"0.009": 2.30693582682,
			"0.01": 1.73933827382,
			"0.011": 2.0801627413,
			"0.012": 5.22294767314,
			"0.013": 2.14417285954,
			"0.014": 0.19758483566,
			"0.015": 0.0,
			"0.016": 0.0,
			"0.017": 0.0,
			"0.018": 0.0,
			"0.019": 0.0,
			"0.02": 0.0,
			"0.021": 0.0,
			"0.022": 0.0,
			"0.023": 0.0,
			"0.024": 0.0,
			"0.025": 0.0
		}
	}
}
