{
	 "smiles": "CC(C)(C)C1=NC=CC(=O)N1", 
	 "Tm": 479.15, 
	 "num_atms": 23, 
	 "gaussian": { 
		 "optdone": 1, 
		 "sigma_profile": "yes", 
		 "theory": "DFT", 
		 "functional": "B3LYP", 
		 "basiset": "6-31G**", 
		 "properties": { 
			 "R2extent": 2189.2334, 
			 "electric_dipole_moment_norm": 3.22296992384, 
			 "electric_quadrupole_moment_norm": 17.9611037253, 
			 "total_energy": -496.834947413, 
			 "HOMO_LUMO_gap": 0.19474, 
			 "cosmo_polarized_energy": -12.44, 
			 "cosmo_cavitation_energy": 25.53, 
			 "cosmo_dispersion_energy": -18.31, 
			 "cosmo_repulsion_energy": 1.47, 
			 "cosmo_total_nonelectrostatic_energy": 8.69, 
			 "SMD_solvation_energy": 4.43 
		},
		"coords": [
			{
				"x": -1.7823080014,
				"y": -1.4469925166,
				"z": -1.5749948081,
				"element": "C" 
			},
			{
				"x": -1.400549444,
				"y": -0.5085502124,
				"z": -0.4048846597,
				"element": "C" 
			},
			{
				"x": -1.2127600903,
				"y": -1.3428853215,
				"z": 0.8731567838,
				"element": "C" 
			},
			{
				"x": -2.527485277,
				"y": 0.5276079933,
				"z": -0.1763741904,
				"element": "C" 
			},
			{
				"x": -0.0996965122,
				"y": 0.2238896641,
				"z": -0.7444110807,
				"element": "C" 
			},
			{
				"x": 0.9595344756,
				"y": 0.0984259402,
				"z": 0.0099596366,
				"element": "N" 
			},
			{
				"x": 2.0810885865,
				"y": 0.794650098,
				"z": -0.3738899686,
				"element": "C" 
			},
			{
				"x": 2.1668845091,
				"y": 1.5966858314,
				"z": -1.4718270297,
				"element": "C" 
			},
			{
				"x": 1.0134977392,
				"y": 1.7602577619,
				"z": -2.332292178,
				"element": "C" 
			},
			{
				"x": 0.9110085644,
				"y": 2.4331710521,
				"z": -3.3486708089,
				"element": "O" 
			},
			{
				"x": -0.0938401412,
				"y": 1.0092928192,
				"z": -1.8622112245,
				"element": "N" 
			},
			{
				"x": -1.9677280024,
				"y": -0.9033514386,
				"z": -2.5076678294,
				"element": "H" 
			},
			{
				"x": -0.9931774869,
				"y": -2.1812215102,
				"z": -1.764449399,
				"element": "H" 
			},
			{
				"x": -2.6990670765,
				"y": -1.9911141172,
				"z": -1.3270683033,
				"element": "H" 
			},
			{
				"x": -0.4211542081,
				"y": -2.0852919091,
				"z": 0.7496484355,
				"element": "H" 
			},
			{
				"x": -0.9395228148,
				"y": -0.7122489201,
				"z": 1.7220472067,
				"element": "H" 
			},
			{
				"x": -2.1476173204,
				"y": -1.8622454782,
				"z": 1.1080106841,
				"element": "H" 
			},
			{
				"x": -2.73308117,
				"y": 1.1293344087,
				"z": -1.0682173761,
				"element": "H" 
			},
			{
				"x": -3.455042249,
				"y": 0.0109971457,
				"z": 0.0896480251,
				"element": "H" 
			},
			{
				"x": -2.2741598742,
				"y": 1.2111765376,
				"z": 0.6398755902,
				"element": "H" 
			},
			{
				"x": 2.9420806253,
				"y": 0.6654079214,
				"z": 0.2786045485,
				"element": "H" 
			},
			{
				"x": 3.0751430604,
				"y": 2.1258107168,
				"z": -1.7332530883,
				"element": "H" 
			},
			{
				"x": -0.9243478921,
				"y": 1.0949935334,
				"z": -2.436238966,
				"element": "H" 
			}
		],
		 "valence_orbital": [ 
			{
				"type": "occ",
				"energy": -0.34479,
				"method": "rhf"
			},
			{
				"type": "occ",
				"energy": -0.31256,
				"method": "rhf"
			},
			{
				"type": "occ",
				"energy": -0.27543,
				"method": "rhf"
			},
			{
				"type": "occ",
				"energy": -0.25538,
				"method": "rhf"
			},
			{
				"type": "occ",
				"energy": -0.23774,
				"method": "rhf"
			},
			{
				"type": "unocc",
				"energy": -0.043,
				"method": "rhf"
			},
			{
				"type": "unocc",
				"energy": 0.00412,
				"method": "rhf"
			},
			{
				"type": "unocc",
				"energy": 0.05265,
				"method": "rhf"
			},
			{
				"type": "unocc",
				"energy": 0.09903,
				"method": "rhf"
			},
			{
				"type": "unocc",
				"energy": 0.11667,
				"method": "rhf"
			}
		],
		"cosmo_sigma_profile": { 
			"-0.025": 0.0,
			"-0.024": 0.0,
			"-0.023": 0.0,
			"-0.022": 0.0,
			"-0.021": 0.0,
			"-0.02": 0.0,
			"-0.019": 0.0,
			"-0.018": 0.0,
			"-0.017": 0.0,
			"-0.016": 0.0,
			"-0.015": 0.319401366999,
			"-0.014": 0.97788073002,
			"-0.013": 1.66088336656,
			"-0.012": 1.07842890732,
			"-0.011": 0.723429434216,
			"-0.01": 1.51032819527,
			"-0.009": 0.997306220039,
			"-0.008": 2.10574619259,
			"-0.007": 4.59870083529,
			"-0.006": 5.76874538718,
			"-0.005": 5.90589019082,
			"-0.004": 13.5271269829,
			"-0.003": 22.7523481066,
			"-0.002": 25.1004609084,
			"-0.001": 22.6363283716,
			"0.0": 24.2423595983,
			"0.001": 18.1235777879,
			"0.002": 8.9052772357,
			"0.003": 4.26795719327,
			"0.004": 3.67362403437,
			"0.005": 2.22959271759,
			"0.006": 2.4422451295,
			"0.007": 2.41669505619,
			"0.008": 2.99427245101,
			"0.009": 2.01126490678,
			"0.01": 2.49619849964,
			"0.011": 2.25655568223,
			"0.012": 3.15655568433,
			"0.013": 5.01100045626,
			"0.014": 5.56319484025,
			"0.015": 0.921612136937,
			"0.016": 0.0,
			"0.017": 0.0,
			"0.018": 0.0,
			"0.019": 0.0,
			"0.02": 0.0,
			"0.021": 0.0,
			"0.022": 0.0,
			"0.023": 0.0,
			"0.024": 0.0,
			"0.025": 0.0
		}
	}
}
