{
	 "smiles": "CC(=O)C1=CC(C(C)=O)=C(O)C=C1O", 
	 "Tm": 453.15, 
	 "num_atms": 24, 
	 "gaussian": { 
		 "optdone": 1, 
		 "sigma_profile": "yes", 
		 "theory": "DFT", 
		 "functional": "B3LYP", 
		 "basiset": "6-31G**", 
		 "properties": { 
			 "R2extent": 3276.9994, 
			 "electric_dipole_moment_norm": 3.44387954493, 
			 "electric_quadrupole_moment_norm": 18.1060666333, 
			 "total_energy": -687.979306749, 
			 "HOMO_LUMO_gap": 0.18734, 
			 "cosmo_polarized_energy": -19.96, 
			 "cosmo_cavitation_energy": 27.85, 
			 "cosmo_dispersion_energy": -20.66, 
			 "cosmo_repulsion_energy": 1.59, 
			 "cosmo_total_nonelectrostatic_energy": 8.78, 
			 "SMD_solvation_energy": 6.48 
		},
		"coords": [
			{
				"x": 1.9554641755,
				"y": 2.0619651282,
				"z": 2.5446166576,
				"element": "C" 
			},
			{
				"x": 1.5026745564,
				"y": 1.4741760882,
				"z": 1.2106627667,
				"element": "C" 
			},
			{
				"x": 2.029189283,
				"y": 1.8842217547,
				"z": 0.1868874316,
				"element": "O" 
			},
			{
				"x": 0.4405585401,
				"y": 0.4216685812,
				"z": 1.1528401385,
				"element": "C" 
			},
			{
				"x": 0.1070118677,
				"y": -0.0426653365,
				"z": -0.1235406346,
				"element": "C" 
			},
			{
				"x": -0.8570372007,
				"y": -1.0206602955,
				"z": -0.3884241765,
				"element": "C" 
			},
			{
				"x": -1.0566326286,
				"y": -1.371022357,
				"z": -1.8294677601,
				"element": "C" 
			},
			{
				"x": -2.0790238108,
				"y": -2.4242016298,
				"z": -2.2483850933,
				"element": "C" 
			},
			{
				"x": -0.4020155843,
				"y": -0.8183627529,
				"z": -2.7009697647,
				"element": "O" 
			},
			{
				"x": -1.5368241506,
				"y": -1.5706629304,
				"z": 0.7348118768,
				"element": "C" 
			},
			{
				"x": -2.4995400846,
				"y": -2.5245634581,
				"z": 0.680272574,
				"element": "O" 
			},
			{
				"x": -1.229940257,
				"y": -1.1316785487,
				"z": 2.0211717335,
				"element": "C" 
			},
			{
				"x": -0.2626109359,
				"y": -0.1547564519,
				"z": 2.2480946511,
				"element": "C" 
			},
			{
				"x": -0.0798856221,
				"y": 0.1639606968,
				"z": 3.5537525049,
				"element": "O" 
			},
			{
				"x": 1.1300147315,
				"y": 2.5658448146,
				"z": 3.0652022295,
				"element": "H" 
			},
			{
				"x": 2.7295672404,
				"y": 2.803393577,
				"z": 2.343852917,
				"element": "H" 
			},
			{
				"x": 2.3847732593,
				"y": 1.2924892388,
				"z": 3.2002961612,
				"element": "H" 
			},
			{
				"x": 0.6338012135,
				"y": 0.3864053443,
				"z": -0.9685565338,
				"element": "H" 
			},
			{
				"x": -2.0499397731,
				"y": -2.5125524958,
				"z": -3.3349425926,
				"element": "H" 
			},
			{
				"x": -3.0983765083,
				"y": -2.1353717707,
				"z": -1.9588538022,
				"element": "H" 
			},
			{
				"x": -1.8434893022,
				"y": -3.4083756103,
				"z": -1.82156169,
				"element": "H" 
			},
			{
				"x": -2.673558618,
				"y": -2.7912824483,
				"z": -0.2291509587,
				"element": "H" 
			},
			{
				"x": -1.756413494,
				"y": -1.5604160541,
				"z": 2.8656138413,
				"element": "H" 
			},
			{
				"x": 0.5978331025,
				"y": 0.8414469159,
				"z": 3.6546775225,
				"element": "H" 
			}
		],
		 "valence_orbital": [ 
			{
				"type": "occ",
				"energy": -0.31946,
				"method": "rhf"
			},
			{
				"type": "occ",
				"energy": -0.25714,
				"method": "rhf"
			},
			{
				"type": "occ",
				"energy": -0.25482,
				"method": "rhf"
			},
			{
				"type": "occ",
				"energy": -0.24834,
				"method": "rhf"
			},
			{
				"type": "occ",
				"energy": -0.24108,
				"method": "rhf"
			},
			{
				"type": "unocc",
				"energy": -0.05374,
				"method": "rhf"
			},
			{
				"type": "unocc",
				"energy": -0.05215,
				"method": "rhf"
			},
			{
				"type": "unocc",
				"energy": 0.01832,
				"method": "rhf"
			},
			{
				"type": "unocc",
				"energy": 0.05254,
				"method": "rhf"
			},
			{
				"type": "unocc",
				"energy": 0.06441,
				"method": "rhf"
			}
		],
		"cosmo_sigma_profile": { 
			"-0.025": 0.0,
			"-0.024": 0.0,
			"-0.023": 0.0,
			"-0.022": 0.0,
			"-0.021": 0.0,
			"-0.02": 0.0,
			"-0.019": 0.0,
			"-0.018": 0.0,
			"-0.017": 0.0,
			"-0.016": 0.0,
			"-0.015": 1.25697909586,
			"-0.014": 1.84804121489,
			"-0.013": 2.29194044993,
			"-0.012": 3.64542996563,
			"-0.011": 4.80804025378,
			"-0.01": 4.23243080099,
			"-0.009": 5.1006540744,
			"-0.008": 5.92084428537,
			"-0.007": 7.43315050554,
			"-0.006": 9.09992394789,
			"-0.005": 9.97867483875,
			"-0.004": 11.1676748937,
			"-0.003": 14.194136581,
			"-0.002": 13.9313498575,
			"-0.001": 9.09317027974,
			"0.0": 10.0984381463,
			"0.001": 19.3598411821,
			"0.002": 19.192133316,
			"0.003": 10.4207702195,
			"0.004": 5.6976722639,
			"0.005": 6.78575942765,
			"0.006": 5.71941898967,
			"0.007": 5.56685008025,
			"0.008": 5.74019006113,
			"0.009": 6.85471230206,
			"0.01": 6.76302462402,
			"0.011": 5.52891481029,
			"0.012": 7.87506403238,
			"0.013": 2.42889765954,
			"0.014": 0.0435908841254,
			"0.015": 0.0,
			"0.016": 0.0,
			"0.017": 0.0,
			"0.018": 0.0,
			"0.019": 0.0,
			"0.02": 0.0,
			"0.021": 0.0,
			"0.022": 0.0,
			"0.023": 0.0,
			"0.024": 0.0,
			"0.025": 0.0
		}
	}
}
