{
	 "smiles": "COC1=CC(OC)=C(NC(=O)C(C)Cl)C=C1", 
	 "Tm": 339.15, 
	 "num_atms": 30, 
	 "gaussian": { 
		 "optdone": 1, 
		 "sigma_profile": "yes", 
		 "theory": "DFT", 
		 "functional": "B3LYP", 
		 "basiset": "6-31G**", 
		 "properties": { 
			 "R2extent": 6070.2329, 
			 "electric_dipole_moment_norm": 5.58931329771, 
			 "electric_quadrupole_moment_norm": 20.5381151197, 
			 "total_energy": -1168.21773594, 
			 "HOMO_LUMO_gap": 0.18523, 
			 "cosmo_polarized_energy": -13.87, 
			 "cosmo_cavitation_energy": 35.05, 
			 "cosmo_dispersion_energy": -25.13, 
			 "cosmo_repulsion_energy": 1.99, 
			 "cosmo_total_nonelectrostatic_energy": 11.91, 
			 "SMD_solvation_energy": 7.87 
		},
		"coords": [
			{
				"x": 3.9581395697,
				"y": 0.0521672787,
				"z": 1.0929374282,
				"element": "C" 
			},
			{
				"x": 3.3470494489,
				"y": -0.0653884088,
				"z": -0.1828187779,
				"element": "O" 
			},
			{
				"x": 2.0067011364,
				"y": -0.3154671503,
				"z": -0.2320071628,
				"element": "C" 
			},
			{
				"x": 1.4680261295,
				"y": -0.4052669123,
				"z": -1.5270018627,
				"element": "C" 
			},
			{
				"x": 0.1155363016,
				"y": -0.6718596576,
				"z": -1.7012792772,
				"element": "C" 
			},
			{
				"x": -0.5037861773,
				"y": -0.7687532757,
				"z": -2.913722259,
				"element": "O" 
			},
			{
				"x": 0.2712860443,
				"y": -0.5595551732,
				"z": -4.0863893953,
				"element": "C" 
			},
			{
				"x": -0.7322003014,
				"y": -0.8490464207,
				"z": -0.5780614,
				"element": "C" 
			},
			{
				"x": -2.1056036929,
				"y": -1.0860344185,
				"z": -0.8265609312,
				"element": "N" 
			},
			{
				"x": -2.9900410882,
				"y": -2.0048368751,
				"z": -0.311003818,
				"element": "C" 
			},
			{
				"x": -4.1311047511,
				"y": -2.0819008432,
				"z": -0.7434272887,
				"element": "O" 
			},
			{
				"x": -2.4961236989,
				"y": -2.9579920504,
				"z": 0.7857944727,
				"element": "C" 
			},
			{
				"x": -3.1209877328,
				"y": -4.3342951629,
				"z": 0.6333078393,
				"element": "C" 
			},
			{
				"x": -2.9632721484,
				"y": -2.244258116,
				"z": 2.4154519627,
				"element": "Cl" 
			},
			{
				"x": -0.185259305,
				"y": -0.71202154,
				"z": 0.6944449479,
				"element": "C" 
			},
			{
				"x": 1.1810090469,
				"y": -0.4695670974,
				"z": 0.8820490459,
				"element": "C" 
			},
			{
				"x": 3.857435326,
				"y": -0.8720935734,
				"z": 1.6761306015,
				"element": "H" 
			},
			{
				"x": 3.5364695697,
				"y": 0.8864372347,
				"z": 1.6679056261,
				"element": "H" 
			},
			{
				"x": 5.0153228755,
				"y": 0.2443277551,
				"z": 0.903950574,
				"element": "H" 
			},
			{
				"x": 2.1379903564,
				"y": -0.2687503472,
				"z": -2.3661112865,
				"element": "H" 
			},
			{
				"x": -0.4175086201,
				"y": -0.6694829612,
				"z": -4.9249038179,
				"element": "H" 
			},
			{
				"x": 0.7099266944,
				"y": 0.4456670233,
				"z": -4.1033541139,
				"element": "H" 
			},
			{
				"x": 1.0718030586,
				"y": -1.3041920891,
				"z": -4.1742838286,
				"element": "H" 
			},
			{
				"x": -2.4807008053,
				"y": -0.6366127644,
				"z": -1.6542200586,
				"element": "H" 
			},
			{
				"x": -1.4076796502,
				"y": -3.0084537376,
				"z": 0.8093825095,
				"element": "H" 
			},
			{
				"x": -2.8241940739,
				"y": -4.9850633224,
				"z": 1.4586138628,
				"element": "H" 
			},
			{
				"x": -2.7799684362,
				"y": -4.7821991141,
				"z": -0.3068901046,
				"element": "H" 
			},
			{
				"x": -4.2077973439,
				"y": -4.2504392778,
				"z": 0.596572189,
				"element": "H" 
			},
			{
				"x": -0.8349178254,
				"y": -0.7845536276,
				"z": 1.5594976838,
				"element": "H" 
			},
			{
				"x": 1.567950093,
				"y": -0.3827153749,
				"z": 1.8892966395,
				"element": "H" 
			}
		],
		 "valence_orbital": [ 
			{
				"type": "occ",
				"energy": -0.29625,
				"method": "rhf"
			},
			{
				"type": "occ",
				"energy": -0.27634,
				"method": "rhf"
			},
			{
				"type": "occ",
				"energy": -0.25423,
				"method": "rhf"
			},
			{
				"type": "occ",
				"energy": -0.242,
				"method": "rhf"
			},
			{
				"type": "occ",
				"energy": -0.20728,
				"method": "rhf"
			},
			{
				"type": "unocc",
				"energy": -0.02205,
				"method": "rhf"
			},
			{
				"type": "unocc",
				"energy": -0.00419,
				"method": "rhf"
			},
			{
				"type": "unocc",
				"energy": 0.01136,
				"method": "rhf"
			},
			{
				"type": "unocc",
				"energy": 0.06729,
				"method": "rhf"
			},
			{
				"type": "unocc",
				"energy": 0.08339,
				"method": "rhf"
			}
		],
		"cosmo_sigma_profile": { 
			"-0.025": 0.0,
			"-0.024": 0.0,
			"-0.023": 0.0,
			"-0.022": 0.0,
			"-0.021": 0.0,
			"-0.02": 0.0,
			"-0.019": 0.0,
			"-0.018": 0.0,
			"-0.017": 0.0,
			"-0.016": 0.0,
			"-0.015": 0.0,
			"-0.014": 0.0,
			"-0.013": 0.156143791754,
			"-0.012": 0.320159419732,
			"-0.011": 1.25569140978,
			"-0.01": 0.369315814363,
			"-0.009": 0.28004875991,
			"-0.008": 0.742192057088,
			"-0.007": 5.46213008839,
			"-0.006": 17.6639049611,
			"-0.005": 26.7711065354,
			"-0.004": 28.2116720189,
			"-0.003": 26.5722952438,
			"-0.002": 18.652023508,
			"-0.001": 18.2136179593,
			"0.0": 17.153741818,
			"0.001": 15.7750581255,
			"0.002": 15.1332645787,
			"0.003": 18.5574626965,
			"0.004": 21.214559254,
			"0.005": 14.0586223149,
			"0.006": 8.93830317499,
			"0.007": 3.76396591383,
			"0.008": 3.21139090598,
			"0.009": 3.39372819946,
			"0.01": 3.03462333354,
			"0.011": 1.70282471437,
			"0.012": 3.72656868605,
			"0.013": 4.84404821669,
			"0.014": 0.411995805818,
			"0.015": 0.0,
			"0.016": 0.0,
			"0.017": 0.0,
			"0.018": 0.0,
			"0.019": 0.0,
			"0.02": 0.0,
			"0.021": 0.0,
			"0.022": 0.0,
			"0.023": 0.0,
			"0.024": 0.0,
			"0.025": 0.0
		}
	}
}
