{
	 "smiles": "N#CC1=CC2=C(NC=N2)C=C1", 
	 "Tm": 477.15, 
	 "num_atms": 16, 
	 "gaussian": { 
		 "optdone": 1, 
		 "sigma_profile": "yes", 
		 "theory": "DFT", 
		 "functional": "B3LYP", 
		 "basiset": "6-31G**", 
		 "properties": { 
			 "R2extent": 1977.7892, 
			 "electric_dipole_moment_norm": 7.64953802919, 
			 "electric_quadrupole_moment_norm": 15.0172668918, 
			 "total_energy": -472.109472509, 
			 "HOMO_LUMO_gap": 0.20322, 
			 "cosmo_polarized_energy": -18.31, 
			 "cosmo_cavitation_energy": 21.74, 
			 "cosmo_dispersion_energy": -15.87, 
			 "cosmo_repulsion_energy": 1.26, 
			 "cosmo_total_nonelectrostatic_energy": 7.13, 
			 "SMD_solvation_energy": 3.4 
		},
		"coords": [
			{
				"x": -1.548175638,
				"y": -0.9073524636,
				"z": 4.6518303569,
				"element": "N" 
			},
			{
				"x": -1.0787332084,
				"y": -0.6159729336,
				"z": 3.627721736,
				"element": "C" 
			},
			{
				"x": -0.5011564507,
				"y": -0.2477131938,
				"z": 2.3677465287,
				"element": "C" 
			},
			{
				"x": -0.0887595619,
				"y": -1.2454562092,
				"z": 1.4757860956,
				"element": "C" 
			},
			{
				"x": 0.468074803,
				"y": -0.8426192629,
				"z": 0.2606384938,
				"element": "C" 
			},
			{
				"x": 0.5999029515,
				"y": 0.5384657475,
				"z": -0.035021059,
				"element": "C" 
			},
			{
				"x": 1.175761492,
				"y": 0.5673311602,
				"z": -1.2891697347,
				"element": "N" 
			},
			{
				"x": 1.3569467816,
				"y": -0.7444999924,
				"z": -1.6755042288,
				"element": "C" 
			},
			{
				"x": 0.9519422093,
				"y": -1.6134710017,
				"z": -0.7882094212,
				"element": "N" 
			},
			{
				"x": 0.1911882952,
				"y": 1.5409216558,
				"z": 0.8488877393,
				"element": "C" 
			},
			{
				"x": -0.3608168198,
				"y": 1.1295770321,
				"z": 2.0536178983,
				"element": "C" 
			},
			{
				"x": -0.1967386631,
				"y": -2.2965859281,
				"z": 1.7174259702,
				"element": "H" 
			},
			{
				"x": 1.4190690024,
				"y": 1.3868817182,
				"z": -1.8239260907,
				"element": "H" 
			},
			{
				"x": 1.797475718,
				"y": -0.9907215357,
				"z": -2.6332207169,
				"element": "H" 
			},
			{
				"x": 0.2958322368,
				"y": 2.5954326701,
				"z": 0.6144897665,
				"element": "H" 
			},
			{
				"x": -0.6947131481,
				"y": 1.8659825371,
				"z": 2.7762066658,
				"element": "H" 
			}
		],
		 "valence_orbital": [ 
			{
				"type": "occ",
				"energy": -0.32545,
				"method": "rhf"
			},
			{
				"type": "occ",
				"energy": -0.32386,
				"method": "rhf"
			},
			{
				"type": "occ",
				"energy": -0.2913,
				"method": "rhf"
			},
			{
				"type": "occ",
				"energy": -0.24997,
				"method": "rhf"
			},
			{
				"type": "occ",
				"energy": -0.24759,
				"method": "rhf"
			},
			{
				"type": "unocc",
				"energy": -0.04437,
				"method": "rhf"
			},
			{
				"type": "unocc",
				"energy": -0.02695,
				"method": "rhf"
			},
			{
				"type": "unocc",
				"energy": 0.03252,
				"method": "rhf"
			},
			{
				"type": "unocc",
				"energy": 0.04375,
				"method": "rhf"
			},
			{
				"type": "unocc",
				"energy": 0.05758,
				"method": "rhf"
			}
		],
		"cosmo_sigma_profile": { 
			"-0.025": 0.0,
			"-0.024": 0.0,
			"-0.023": 0.0,
			"-0.022": 0.0,
			"-0.021": 0.0,
			"-0.02": 0.0,
			"-0.019": 0.0,
			"-0.018": 0.157241974975,
			"-0.017": 1.99677148003,
			"-0.016": 1.40181299999,
			"-0.015": 1.57246171494,
			"-0.014": 1.49937310174,
			"-0.013": 1.23255268716,
			"-0.012": 1.23230055588,
			"-0.011": 1.6437300596,
			"-0.01": 4.11061043515,
			"-0.009": 2.84893214453,
			"-0.008": 6.31744747562,
			"-0.007": 8.21713341626,
			"-0.006": 6.9668952289,
			"-0.005": 8.04317941897,
			"-0.004": 6.32287891541,
			"-0.003": 6.41844777315,
			"-0.002": 6.65853671779,
			"-0.001": 10.7084842809,
			"0.0": 15.579008544,
			"0.001": 13.8170609528,
			"0.002": 15.7009930851,
			"0.003": 9.99048807308,
			"0.004": 4.18511987023,
			"0.005": 3.44854939615,
			"0.006": 4.20978111437,
			"0.007": 4.17732276331,
			"0.008": 4.54889020275,
			"0.009": 4.37993960102,
			"0.01": 4.32936016348,
			"0.011": 4.58270487974,
			"0.012": 3.49674386386,
			"0.013": 3.10710243638,
			"0.014": 1.50542532177,
			"0.015": 0.839903266464,
			"0.016": 1.17857491827,
			"0.017": 0.413352614207,
			"0.018": 0.0,
			"0.019": 0.0,
			"0.02": 0.0,
			"0.021": 0.0,
			"0.022": 0.0,
			"0.023": 0.0,
			"0.024": 0.0,
			"0.025": 0.0
		}
	}
}
