{
	 "smiles": "[O-][N+](=O)C1=C(Cl)SC=C1", 
	 "Tm": 324.65, 
	 "num_atms": 11, 
	 "gaussian": { 
		 "optdone": 1, 
		 "sigma_profile": "yes", 
		 "theory": "DFT", 
		 "functional": "B3LYP", 
		 "basiset": "6-31G**", 
		 "properties": { 
			 "R2extent": 1741.0006, 
			 "electric_dipole_moment_norm": 4.40992227936, 
			 "electric_quadrupole_moment_norm": 8.36514091214, 
			 "total_energy": -1217.07348785, 
			 "HOMO_LUMO_gap": 0.17088, 
			 "cosmo_polarized_energy": -7.99, 
			 "cosmo_cavitation_energy": 19.66, 
			 "cosmo_dispersion_energy": -15.44, 
			 "cosmo_repulsion_energy": 1.21, 
			 "cosmo_total_nonelectrostatic_energy": 5.43, 
			 "SMD_solvation_energy": 5.5 
		},
		"coords": [
			{
				"x": -2.4799263686,
				"y": -0.9024855907,
				"z": -0.595641133,
				"element": "O" 
			},
			{
				"x": -1.6039796124,
				"y": -0.7110565717,
				"z": -1.4361054718,
				"element": "N" 
			},
			{
				"x": -1.8053858934,
				"y": -0.4861553314,
				"z": -2.6317035086,
				"element": "O" 
			},
			{
				"x": -0.2155284833,
				"y": -0.7476928891,
				"z": -1.0120756374,
				"element": "C" 
			},
			{
				"x": 0.2295957102,
				"y": -0.9815185282,
				"z": 0.2733097143,
				"element": "C" 
			},
			{
				"x": -0.6451496638,
				"y": -1.2885744503,
				"z": 1.7147016504,
				"element": "Cl" 
			},
			{
				"x": 1.9650917024,
				"y": -0.9367801499,
				"z": 0.3345915212,
				"element": "S" 
			},
			{
				"x": 2.068693833,
				"y": -0.6040184306,
				"z": -1.3694136942,
				"element": "C" 
			},
			{
				"x": 0.8411210609,
				"y": -0.5317618639,
				"z": -1.9503094011,
				"element": "C" 
			},
			{
				"x": 3.0377198198,
				"y": -0.4829497873,
				"z": -1.8327338536,
				"element": "H" 
			},
			{
				"x": 0.6525478952,
				"y": -0.3357064069,
				"z": -2.9964201864,
				"element": "H" 
			}
		],
		 "valence_orbital": [ 
			{
				"type": "occ",
				"energy": -0.31256,
				"method": "rhf"
			},
			{
				"type": "occ",
				"energy": -0.30845,
				"method": "rhf"
			},
			{
				"type": "occ",
				"energy": -0.29442,
				"method": "rhf"
			},
			{
				"type": "occ",
				"energy": -0.29281,
				"method": "rhf"
			},
			{
				"type": "occ",
				"energy": -0.26458,
				"method": "rhf"
			},
			{
				"type": "unocc",
				"energy": -0.0937,
				"method": "rhf"
			},
			{
				"type": "unocc",
				"energy": -0.03849,
				"method": "rhf"
			},
			{
				"type": "unocc",
				"energy": -0.01422,
				"method": "rhf"
			},
			{
				"type": "unocc",
				"energy": 0.00226,
				"method": "rhf"
			},
			{
				"type": "unocc",
				"energy": 0.05275,
				"method": "rhf"
			}
		],
		"cosmo_sigma_profile": { 
			"-0.025": 0.0,
			"-0.024": 0.0,
			"-0.023": 0.0,
			"-0.022": 0.0,
			"-0.021": 0.0,
			"-0.02": 0.0,
			"-0.019": 0.0,
			"-0.018": 0.0,
			"-0.017": 0.0,
			"-0.016": 0.0,
			"-0.015": 0.0,
			"-0.014": 0.0,
			"-0.013": 0.0,
			"-0.012": 0.0,
			"-0.011": 0.623598338245,
			"-0.01": 2.58644121976,
			"-0.009": 2.41854047184,
			"-0.008": 3.21996059412,
			"-0.007": 4.58557343978,
			"-0.006": 5.00959254395,
			"-0.005": 6.36139641953,
			"-0.004": 8.65755026061,
			"-0.003": 11.9991645216,
			"-0.002": 17.8457366752,
			"-0.001": 18.2402161977,
			"0.0": 15.679693494,
			"0.001": 15.7007224276,
			"0.002": 11.3465547516,
			"0.003": 4.41457982555,
			"0.004": 3.36466824789,
			"0.005": 3.23702223872,
			"0.006": 4.47725209328,
			"0.007": 8.35542688774,
			"0.008": 8.5176882747,
			"0.009": 4.61683120808,
			"0.01": 2.11880827059,
			"0.011": 0.0685570889913,
			"0.012": 0.0,
			"0.013": 0.0,
			"0.014": 0.0,
			"0.015": 0.0,
			"0.016": 0.0,
			"0.017": 0.0,
			"0.018": 0.0,
			"0.019": 0.0,
			"0.02": 0.0,
			"0.021": 0.0,
			"0.022": 0.0,
			"0.023": 0.0,
			"0.024": 0.0,
			"0.025": 0.0
		}
	}
}
