{
	 "smiles": "NNC(=O)C1SCCN1S(=O)(=O)C1=CC=C(Cl)C=C1", 
	 "Tm": 473.15, 
	 "num_atms": 31, 
	 "gaussian": { 
		 "optdone": 1, 
		 "sigma_profile": "yes", 
		 "theory": "DFT", 
		 "functional": "B3LYP", 
		 "basiset": "6-31G**", 
		 "properties": { 
			 "R2extent": 8536.3071, 
			 "electric_dipole_moment_norm": 3.39686074781, 
			 "electric_quadrupole_moment_norm": 9.97801652584, 
			 "total_energy": -2034.68606807, 
			 "HOMO_LUMO_gap": 0.17347, 
			 "cosmo_polarized_energy": -19.84, 
			 "cosmo_cavitation_energy": 39.16, 
			 "cosmo_dispersion_energy": -27.95, 
			 "cosmo_repulsion_energy": 2.07, 
			 "cosmo_total_nonelectrostatic_energy": 13.29, 
			 "SMD_solvation_energy": 5.08 
		},
		"coords": [
			{
				"x": -2.2514730935,
				"y": -0.5822455123,
				"z": 3.089786735,
				"element": "N" 
			},
			{
				"x": -1.8943355375,
				"y": 0.2390923701,
				"z": 1.9979390041,
				"element": "N" 
			},
			{
				"x": -0.665255736,
				"y": 0.8341103742,
				"z": 1.9537406951,
				"element": "C" 
			},
			{
				"x": 0.1232451887,
				"y": 0.8128990746,
				"z": 2.8900484103,
				"element": "O" 
			},
			{
				"x": -0.348642758,
				"y": 1.5061405004,
				"z": 0.5987139156,
				"element": "C" 
			},
			{
				"x": 0.5066694984,
				"y": 3.1206144325,
				"z": 0.8074158581,
				"element": "S" 
			},
			{
				"x": 2.1814292767,
				"y": 2.3698702971,
				"z": 0.5584261311,
				"element": "C" 
			},
			{
				"x": 1.9727566368,
				"y": 0.8587753579,
				"z": 0.3735023098,
				"element": "C" 
			},
			{
				"x": 0.6169167539,
				"y": 0.7245409004,
				"z": -0.1944264955,
				"element": "N" 
			},
			{
				"x": 0.1151310278,
				"y": -0.8031600121,
				"z": -0.7311922231,
				"element": "S" 
			},
			{
				"x": 0.6356932873,
				"y": -1.8765491452,
				"z": 0.1229730266,
				"element": "O" 
			},
			{
				"x": -1.3315147684,
				"y": -0.6641280543,
				"z": -0.959944435,
				"element": "O" 
			},
			{
				"x": 0.9503350431,
				"y": -0.9166127195,
				"z": -2.3119423539,
				"element": "C" 
			},
			{
				"x": 1.915380037,
				"y": -1.9060229292,
				"z": -2.4987399694,
				"element": "C" 
			},
			{
				"x": 2.5444113331,
				"y": -2.0219270623,
				"z": -3.7386713997,
				"element": "C" 
			},
			{
				"x": 2.1902080908,
				"y": -1.1462434514,
				"z": -4.7650438173,
				"element": "C" 
			},
			{
				"x": 2.9790282081,
				"y": -1.2866638872,
				"z": -6.3220947409,
				"element": "Cl" 
			},
			{
				"x": 1.2175365369,
				"y": -0.1584487137,
				"z": -4.5808993814,
				"element": "C" 
			},
			{
				"x": 0.5912285959,
				"y": -0.0447729976,
				"z": -3.3437243771,
				"element": "C" 
			},
			{
				"x": -1.4061866723,
				"y": -1.0725272155,
				"z": 3.3860867061,
				"element": "H" 
			},
			{
				"x": -2.4941584291,
				"y": 0.0353950905,
				"z": 3.8631760915,
				"element": "H" 
			},
			{
				"x": -2.3496059491,
				"y": -0.0061634072,
				"z": 1.1264702776,
				"element": "H" 
			},
			{
				"x": -1.2537351511,
				"y": 1.657342574,
				"z": 0.009136555,
				"element": "H" 
			},
			{
				"x": 2.6239168489,
				"y": 2.8265106675,
				"z": -0.3289058574,
				"element": "H" 
			},
			{
				"x": 2.810371045,
				"y": 2.573030493,
				"z": 1.4264766776,
				"element": "H" 
			},
			{
				"x": 2.0516651465,
				"y": 0.3389822431,
				"z": 1.3325605364,
				"element": "H" 
			},
			{
				"x": 2.6988488844,
				"y": 0.4394531994,
				"z": -0.3288970944,
				"element": "H" 
			},
			{
				"x": 2.1612319384,
				"y": -2.5772646783,
				"z": -1.6834222091,
				"element": "H" 
			},
			{
				"x": 3.2973091933,
				"y": -2.7832714689,
				"z": -3.9076885321,
				"element": "H" 
			},
			{
				"x": 0.9570362913,
				"y": 0.5061502321,
				"z": -5.3966872062,
				"element": "H" 
			},
			{
				"x": -0.1691407673,
				"y": 0.7111934478,
				"z": -3.1815728374,
				"element": "H" 
			}
		],
		 "valence_orbital": [ 
			{
				"type": "occ",
				"energy": -0.28389,
				"method": "rhf"
			},
			{
				"type": "occ",
				"energy": -0.27526,
				"method": "rhf"
			},
			{
				"type": "occ",
				"energy": -0.26185,
				"method": "rhf"
			},
			{
				"type": "occ",
				"energy": -0.24772,
				"method": "rhf"
			},
			{
				"type": "occ",
				"energy": -0.23389,
				"method": "rhf"
			},
			{
				"type": "unocc",
				"energy": -0.06042,
				"method": "rhf"
			},
			{
				"type": "unocc",
				"energy": -0.04153,
				"method": "rhf"
			},
			{
				"type": "unocc",
				"energy": -0.00499,
				"method": "rhf"
			},
			{
				"type": "unocc",
				"energy": 0.00696,
				"method": "rhf"
			},
			{
				"type": "unocc",
				"energy": 0.01051,
				"method": "rhf"
			}
		],
		"cosmo_sigma_profile": { 
			"-0.025": 0.0,
			"-0.024": 0.0,
			"-0.023": 0.0,
			"-0.022": 0.0,
			"-0.021": 0.0,
			"-0.02": 0.0,
			"-0.019": 0.0,
			"-0.018": 0.0,
			"-0.017": 0.0,
			"-0.016": 0.0,
			"-0.015": 0.0,
			"-0.014": 0.0,
			"-0.013": 0.0,
			"-0.012": 0.968883694352,
			"-0.011": 2.77869260742,
			"-0.01": 4.37402489802,
			"-0.009": 5.37650186625,
			"-0.008": 10.9168837209,
			"-0.007": 14.7052510491,
			"-0.006": 19.9004777571,
			"-0.005": 18.2637544369,
			"-0.004": 20.2672425588,
			"-0.003": 17.5024886751,
			"-0.002": 17.6300427101,
			"-0.001": 17.9880939602,
			"0.0": 26.3286673906,
			"0.001": 25.672321776,
			"0.002": 17.3288356643,
			"0.003": 17.3595627918,
			"0.004": 16.0630800981,
			"0.005": 7.35905539609,
			"0.006": 7.84919566782,
			"0.007": 7.24462787111,
			"0.008": 7.11112968679,
			"0.009": 8.28105779156,
			"0.01": 8.5838200257,
			"0.011": 5.5436855927,
			"0.012": 3.87069932575,
			"0.013": 4.48075344531,
			"0.014": 0.839863035753,
			"0.015": 0.432076633482,
			"0.016": 0.553735418092,
			"0.017": 0.0858237248439,
			"0.018": 0.0,
			"0.019": 0.0,
			"0.02": 0.0,
			"0.021": 0.0,
			"0.022": 0.0,
			"0.023": 0.0,
			"0.024": 0.0,
			"0.025": 0.0
		}
	}
}
