{
	 "smiles": "OC(=O)C1=C2C=CC=CC2=NC(NCC2=CC=CC=C2)=C1", 
	 "Tm": 613.15, 
	 "num_atms": 35, 
	 "gaussian": { 
		 "optdone": 1, 
		 "sigma_profile": "yes", 
		 "theory": "DFT", 
		 "functional": "B3LYP", 
		 "basiset": "6-31G**", 
		 "properties": { 
			 "R2extent": 8468.672, 
			 "electric_dipole_moment_norm": 3.41005183832, 
			 "electric_quadrupole_moment_norm": 34.709513202, 
			 "total_energy": -916.222968511, 
			 "HOMO_LUMO_gap": 0.14533, 
			 "cosmo_polarized_energy": -17.11, 
			 "cosmo_cavitation_energy": 39.44, 
			 "cosmo_dispersion_energy": -28.13, 
			 "cosmo_repulsion_energy": 2.13, 
			 "cosmo_total_nonelectrostatic_energy": 13.44, 
			 "SMD_solvation_energy": 6.0 
		},
		"coords": [
			{
				"x": 0.4074448949,
				"y": 1.9552047924,
				"z": -5.3267759734,
				"element": "O" 
			},
			{
				"x": 1.002095454,
				"y": 0.9304506792,
				"z": -4.6624032174,
				"element": "C" 
			},
			{
				"x": 1.6049773371,
				"y": 0.0803816817,
				"z": -5.2712499198,
				"element": "O" 
			},
			{
				"x": 0.8086516124,
				"y": 0.8980194398,
				"z": -3.167445031,
				"element": "C" 
			},
			{
				"x": 0.7646299911,
				"y": 2.06338068,
				"z": -2.3247066756,
				"element": "C" 
			},
			{
				"x": 1.0387718015,
				"y": 3.3908673413,
				"z": -2.7497462933,
				"element": "C" 
			},
			{
				"x": 0.9641416843,
				"y": 4.4482088557,
				"z": -1.8645903545,
				"element": "C" 
			},
			{
				"x": 0.6180755104,
				"y": 4.2210268865,
				"z": -0.5150275944,
				"element": "C" 
			},
			{
				"x": 0.3774276761,
				"y": 2.9409986566,
				"z": -0.0637708543,
				"element": "C" 
			},
			{
				"x": 0.4587823928,
				"y": 1.8297246284,
				"z": -0.9425671034,
				"element": "C" 
			},
			{
				"x": 0.2432330972,
				"y": 0.5894485787,
				"z": -0.4198041379,
				"element": "N" 
			},
			{
				"x": 0.363501127,
				"y": -0.4642975736,
				"z": -1.2114536885,
				"element": "C" 
			},
			{
				"x": 0.2311727455,
				"y": -1.7209155762,
				"z": -0.6806506267,
				"element": "N" 
			},
			{
				"x": -0.1912088171,
				"y": -1.9832046099,
				"z": 0.6937592591,
				"element": "C" 
			},
			{
				"x": -1.6801201572,
				"y": -2.2470642867,
				"z": 0.8383327425,
				"element": "C" 
			},
			{
				"x": -2.157367986,
				"y": -3.5469722207,
				"z": 1.0404004809,
				"element": "C" 
			},
			{
				"x": -3.5274935467,
				"y": -3.7961158469,
				"z": 1.1518411016,
				"element": "C" 
			},
			{
				"x": -4.43675753,
				"y": -2.7421991054,
				"z": 1.0612138528,
				"element": "C" 
			},
			{
				"x": -3.969878817,
				"y": -1.4396682032,
				"z": 0.8621535393,
				"element": "C" 
			},
			{
				"x": -2.6021286868,
				"y": -1.1928681187,
				"z": 0.752478603,
				"element": "C" 
			},
			{
				"x": 0.6441904572,
				"y": -0.3426346243,
				"z": -2.6117782543,
				"element": "C" 
			},
			{
				"x": -0.1119253862,
				"y": 2.4923448186,
				"z": -4.709726468,
				"element": "H" 
			},
			{
				"x": 1.3513428724,
				"y": 3.5780345678,
				"z": -3.7723106957,
				"element": "H" 
			},
			{
				"x": 1.1847110429,
				"y": 5.4547374724,
				"z": -2.2063778047,
				"element": "H" 
			},
			{
				"x": 0.5579029816,
				"y": 5.0588018174,
				"z": 0.1736796596,
				"element": "H" 
			},
			{
				"x": 0.1342922284,
				"y": 2.7388406373,
				"z": 0.9742235117,
				"element": "H" 
			},
			{
				"x": 0.1302262822,
				"y": -2.4783715094,
				"z": -1.3398795091,
				"element": "H" 
			},
			{
				"x": 0.1045382279,
				"y": -1.1109743623,
				"z": 1.2792854458,
				"element": "H" 
			},
			{
				"x": 0.3746513766,
				"y": -2.845943202,
				"z": 1.0624925873,
				"element": "H" 
			},
			{
				"x": -1.4513407111,
				"y": -4.3712241624,
				"z": 1.1173009822,
				"element": "H" 
			},
			{
				"x": -3.8818611833,
				"y": -4.8106809133,
				"z": 1.3112331925,
				"element": "H" 
			},
			{
				"x": -5.5026965734,
				"y": -2.9321558403,
				"z": 1.1490151637,
				"element": "H" 
			},
			{
				"x": -4.6738877766,
				"y": -0.614552369,
				"z": 0.7979449261,
				"element": "H" 
			},
			{
				"x": -2.2353676088,
				"y": -0.1814701184,
				"z": 0.6024716578,
				"element": "H" 
			},
			{
				"x": 0.7106739867,
				"y": -1.2225588914,
				"z": -3.2437625036,
				"element": "H" 
			}
		],
		 "valence_orbital": [ 
			{
				"type": "occ",
				"energy": -0.26732,
				"method": "rhf"
			},
			{
				"type": "occ",
				"energy": -0.25286,
				"method": "rhf"
			},
			{
				"type": "occ",
				"energy": -0.24958,
				"method": "rhf"
			},
			{
				"type": "occ",
				"energy": -0.2444,
				"method": "rhf"
			},
			{
				"type": "occ",
				"energy": -0.21369,
				"method": "rhf"
			},
			{
				"type": "unocc",
				"energy": -0.06836,
				"method": "rhf"
			},
			{
				"type": "unocc",
				"energy": -0.01884,
				"method": "rhf"
			},
			{
				"type": "unocc",
				"energy": -0.01097,
				"method": "rhf"
			},
			{
				"type": "unocc",
				"energy": -0.00558,
				"method": "rhf"
			},
			{
				"type": "unocc",
				"energy": -0.00335,
				"method": "rhf"
			}
		],
		"cosmo_sigma_profile": { 
			"-0.025": 0.0,
			"-0.024": 0.0,
			"-0.023": 0.0,
			"-0.022": 0.0,
			"-0.021": 0.0,
			"-0.02": 0.0,
			"-0.019": 0.0,
			"-0.018": 0.0207740150854,
			"-0.017": 0.422124992273,
			"-0.016": 1.05326561706,
			"-0.015": 0.626056314301,
			"-0.014": 1.56427716777,
			"-0.013": 2.53350298287,
			"-0.012": 2.98045342934,
			"-0.011": 2.76588787985,
			"-0.01": 2.10537828703,
			"-0.009": 2.34156574015,
			"-0.008": 3.32834656499,
			"-0.007": 3.23583692452,
			"-0.006": 13.7973752456,
			"-0.005": 23.812078234,
			"-0.004": 23.7926894498,
			"-0.003": 23.56434243,
			"-0.002": 19.4674647964,
			"-0.001": 18.748977583,
			"0.0": 20.2435606266,
			"0.001": 21.8917981846,
			"0.002": 22.7695104077,
			"0.003": 20.8537934835,
			"0.004": 25.0417333373,
			"0.005": 17.0159510041,
			"0.006": 12.7026795594,
			"0.007": 5.23910961002,
			"0.008": 4.00735024564,
			"0.009": 5.38024750211,
			"0.01": 5.82550788861,
			"0.011": 5.38274754247,
			"0.012": 3.14296880699,
			"0.013": 0.384984568,
			"0.014": 0.0,
			"0.015": 0.0,
			"0.016": 0.0,
			"0.017": 0.0,
			"0.018": 0.0,
			"0.019": 0.0,
			"0.02": 0.0,
			"0.021": 0.0,
			"0.022": 0.0,
			"0.023": 0.0,
			"0.024": 0.0,
			"0.025": 0.0
		}
	}
}
