{
	 "smiles": "OC1=C(C=C(C=N1)[N+]([O-])=O)[N+]([O-])=O", 
	 "Tm": 450.65, 
	 "num_atms": 16, 
	 "gaussian": { 
		 "optdone": 1, 
		 "sigma_profile": "yes", 
		 "theory": "DFT", 
		 "functional": "B3LYP", 
		 "basiset": "6-31G**", 
		 "properties": { 
			 "R2extent": 2565.0275, 
			 "electric_dipole_moment_norm": 3.75301089926, 
			 "electric_quadrupole_moment_norm": 14.416144957, 
			 "total_energy": -732.495345892, 
			 "HOMO_LUMO_gap": 0.18346, 
			 "cosmo_polarized_energy": -15.29, 
			 "cosmo_cavitation_energy": 22.98, 
			 "cosmo_dispersion_energy": -17.08, 
			 "cosmo_repulsion_energy": 1.35, 
			 "cosmo_total_nonelectrostatic_energy": 7.25, 
			 "SMD_solvation_energy": 7.88 
		},
		"coords": [
			{
				"x": 2.7469319224,
				"y": 1.0539652561,
				"z": 0.0170306385,
				"element": "O" 
			},
			{
				"x": 1.5734366803,
				"y": 0.4608290181,
				"z": -0.1711064614,
				"element": "C" 
			},
			{
				"x": 1.0950805246,
				"y": -0.5569417773,
				"z": 0.6926370835,
				"element": "C" 
			},
			{
				"x": -0.1404354624,
				"y": -1.1302392737,
				"z": 0.4316123912,
				"element": "C" 
			},
			{
				"x": -0.8563408618,
				"y": -0.6787355741,
				"z": -0.6692661043,
				"element": "C" 
			},
			{
				"x": -0.3244342011,
				"y": 0.3272962933,
				"z": -1.4773721887,
				"element": "C" 
			},
			{
				"x": 0.8599141131,
				"y": 0.8761729137,
				"z": -1.2267868485,
				"element": "N" 
			},
			{
				"x": -2.1641919897,
				"y": -1.25551959,
				"z": -0.9815186959,
				"element": "N" 
			},
			{
				"x": -2.7496094279,
				"y": -0.8147032921,
				"z": -1.9697750742,
				"element": "O" 
			},
			{
				"x": -2.5853787479,
				"y": -2.1375570775,
				"z": -0.2369225487,
				"element": "O" 
			},
			{
				"x": 1.8429448419,
				"y": -1.0450122848,
				"z": 1.8629204831,
				"element": "N" 
			},
			{
				"x": 1.3111580369,
				"y": -1.9373067443,
				"z": 2.5235996518,
				"element": "O" 
			},
			{
				"x": 2.9325822758,
				"y": -0.5385607882,
				"z": 2.1018091428,
				"element": "O" 
			},
			{
				"x": 2.8351967005,
				"y": 1.7034498279,
				"z": -0.7030021678,
				"element": "H" 
			},
			{
				"x": -0.5264096189,
				"y": -1.9089614109,
				"z": 1.0765681207,
				"element": "H" 
			},
			{
				"x": -0.8768447857,
				"y": 0.686024504,
				"z": -2.3396274223,
				"element": "H" 
			}
		],
		 "valence_orbital": [ 
			{
				"type": "occ",
				"energy": -0.32641,
				"method": "rhf"
			},
			{
				"type": "occ",
				"energy": -0.319,
				"method": "rhf"
			},
			{
				"type": "occ",
				"energy": -0.31377,
				"method": "rhf"
			},
			{
				"type": "occ",
				"energy": -0.30643,
				"method": "rhf"
			},
			{
				"type": "occ",
				"energy": -0.29839,
				"method": "rhf"
			},
			{
				"type": "unocc",
				"energy": -0.11493,
				"method": "rhf"
			},
			{
				"type": "unocc",
				"energy": -0.11154,
				"method": "rhf"
			},
			{
				"type": "unocc",
				"energy": -0.05523,
				"method": "rhf"
			},
			{
				"type": "unocc",
				"energy": -0.01396,
				"method": "rhf"
			},
			{
				"type": "unocc",
				"energy": 0.04835,
				"method": "rhf"
			}
		],
		"cosmo_sigma_profile": { 
			"-0.025": 0.0,
			"-0.024": 0.0,
			"-0.023": 0.0,
			"-0.022": 0.0,
			"-0.021": 0.0,
			"-0.02": 0.0269839085018,
			"-0.019": 0.91373130092,
			"-0.018": 0.902226335375,
			"-0.017": 0.909841271173,
			"-0.016": 0.43127838803,
			"-0.015": 0.200599963697,
			"-0.014": 1.26336718066,
			"-0.013": 1.05762146369,
			"-0.012": 0.408128961484,
			"-0.011": 0.499496851355,
			"-0.01": 1.346135239,
			"-0.009": 2.56702939318,
			"-0.008": 6.28311153729,
			"-0.007": 9.39430276931,
			"-0.006": 13.5566720647,
			"-0.005": 17.1404132044,
			"-0.004": 13.7727489759,
			"-0.003": 8.57808751797,
			"-0.002": 6.80955464321,
			"-0.001": 6.73645247116,
			"0.0": 6.0601981115,
			"0.001": 5.41537835779,
			"0.002": 4.63196577647,
			"0.003": 5.77918222049,
			"0.004": 6.80077382932,
			"0.005": 8.55847142045,
			"0.006": 11.5863005731,
			"0.007": 19.0526015232,
			"0.008": 12.3518657055,
			"0.009": 8.4805606606,
			"0.01": 2.93027773669,
			"0.011": 1.09688746638,
			"0.012": 0.0373914294882,
			"0.013": 0.0,
			"0.014": 0.0,
			"0.015": 0.0,
			"0.016": 0.0,
			"0.017": 0.0,
			"0.018": 0.0,
			"0.019": 0.0,
			"0.02": 0.0,
			"0.021": 0.0,
			"0.022": 0.0,
			"0.023": 0.0,
			"0.024": 0.0,
			"0.025": 0.0
		}
	}
}
