{
	 "smiles": "CN1C=C(C=N1)N1C(=O)C=CC1=O", 
	 "Tm": 425.15, 
	 "num_atms": 20, 
	 "gaussian": { 
		 "optdone": 1, 
		 "sigma_profile": "yes", 
		 "theory": "DFT", 
		 "functional": "B3LYP", 
		 "basiset": "6-31G**", 
		 "properties": { 
			 "R2extent": 3010.8539, 
			 "electric_dipole_moment_norm": 2.70846533299, 
			 "electric_quadrupole_moment_norm": 22.4255433062, 
			 "total_energy": -623.742553903, 
			 "HOMO_LUMO_gap": 0.1191, 
			 "cosmo_polarized_energy": -12.75, 
			 "cosmo_cavitation_energy": 25.22, 
			 "cosmo_dispersion_energy": -18.61, 
			 "cosmo_repulsion_energy": 1.44, 
			 "cosmo_total_nonelectrostatic_energy": 8.05, 
			 "SMD_solvation_energy": 5.62 
		},
		"coords": [
			{
				"x": 1.6480816749,
				"y": 0.5492062527,
				"z": -3.3597761273,
				"element": "C" 
			},
			{
				"x": 0.6590219248,
				"y": 0.9185888087,
				"z": -2.3647684757,
				"element": "N" 
			},
			{
				"x": 0.0531761241,
				"y": 0.1067243885,
				"z": -1.4586002248,
				"element": "C" 
			},
			{
				"x": -0.8059542538,
				"y": 0.922193589,
				"z": -0.7359062096,
				"element": "C" 
			},
			{
				"x": -0.6423161126,
				"y": 2.2157856408,
				"z": -1.2877214747,
				"element": "C" 
			},
			{
				"x": 0.2508495517,
				"y": 2.1991182879,
				"z": -2.2767299385,
				"element": "N" 
			},
			{
				"x": -1.6550268263,
				"y": 0.52965726,
				"z": 0.3209980215,
				"element": "N" 
			},
			{
				"x": -1.766461391,
				"y": -0.7796559919,
				"z": 0.8190950473,
				"element": "C" 
			},
			{
				"x": -1.1571115304,
				"y": -1.7510070544,
				"z": 0.418463274,
				"element": "O" 
			},
			{
				"x": -2.7762710385,
				"y": -0.7258445686,
				"z": 1.9275404642,
				"element": "C" 
			},
			{
				"x": -3.2105142949,
				"y": 0.5299945311,
				"z": 2.0519744294,
				"element": "C" 
			},
			{
				"x": -2.5152535972,
				"y": 1.3865263461,
				"z": 1.0335256314,
				"element": "C" 
			},
			{
				"x": -2.6562978765,
				"y": 2.5770683647,
				"z": 0.8503705734,
				"element": "O" 
			},
			{
				"x": 2.573913164,
				"y": 1.1063412236,
				"z": -3.1943890885,
				"element": "H" 
			},
			{
				"x": 1.8493803247,
				"y": -0.5199508083,
				"z": -3.2783571721,
				"element": "H" 
			},
			{
				"x": 1.2742463651,
				"y": 0.7726771736,
				"z": -4.3623833975,
				"element": "H" 
			},
			{
				"x": 0.2560938342,
				"y": -0.9479723072,
				"z": -1.3828212799,
				"element": "H" 
			},
			{
				"x": -1.1359136872,
				"y": 3.1299295705,
				"z": -0.9999109303,
				"element": "H" 
			},
			{
				"x": -3.0507913068,
				"y": -1.6108651152,
				"z": 2.4859451952,
				"element": "H" 
			},
			{
				"x": -3.9349510482,
				"y": 0.9461844084,
				"z": 2.7392516824,
				"element": "H" 
			}
		],
		 "valence_orbital": [ 
			{
				"type": "occ",
				"energy": -0.30366,
				"method": "rhf"
			},
			{
				"type": "occ",
				"energy": -0.28682,
				"method": "rhf"
			},
			{
				"type": "occ",
				"energy": -0.27666,
				"method": "rhf"
			},
			{
				"type": "occ",
				"energy": -0.25026,
				"method": "rhf"
			},
			{
				"type": "occ",
				"energy": -0.22124,
				"method": "rhf"
			},
			{
				"type": "unocc",
				"energy": -0.10214,
				"method": "rhf"
			},
			{
				"type": "unocc",
				"energy": 0.01457,
				"method": "rhf"
			},
			{
				"type": "unocc",
				"energy": 0.03268,
				"method": "rhf"
			},
			{
				"type": "unocc",
				"energy": 0.06053,
				"method": "rhf"
			},
			{
				"type": "unocc",
				"energy": 0.09513,
				"method": "rhf"
			}
		],
		"cosmo_sigma_profile": { 
			"-0.025": 0.0,
			"-0.024": 0.0,
			"-0.023": 0.0,
			"-0.022": 0.0,
			"-0.021": 0.0,
			"-0.02": 0.0,
			"-0.019": 0.0,
			"-0.018": 0.0,
			"-0.017": 0.0,
			"-0.016": 0.0,
			"-0.015": 0.0,
			"-0.014": 0.0,
			"-0.013": 0.0,
			"-0.012": 0.0,
			"-0.011": 0.0108262425714,
			"-0.01": 2.51568496292,
			"-0.009": 4.94441805962,
			"-0.008": 5.81371123119,
			"-0.007": 7.28320138081,
			"-0.006": 13.0895325607,
			"-0.005": 14.491309615,
			"-0.004": 16.5142795908,
			"-0.003": 20.2504870063,
			"-0.002": 12.7084048107,
			"-0.001": 10.7896784521,
			"0.0": 10.1233614172,
			"0.001": 11.2253681718,
			"0.002": 9.97910002834,
			"0.003": 11.2420865544,
			"0.004": 9.41609544391,
			"0.005": 4.38537832595,
			"0.006": 5.2288771176,
			"0.007": 5.21804345395,
			"0.008": 5.6137026277,
			"0.009": 5.79934433441,
			"0.01": 6.79269280191,
			"0.011": 4.68548239586,
			"0.012": 1.67125148738,
			"0.013": 1.15176548187,
			"0.014": 1.21664349439,
			"0.015": 0.776830392093,
			"0.016": 0.467985548588,
			"0.017": 0.0,
			"0.018": 0.0,
			"0.019": 0.0,
			"0.02": 0.0,
			"0.021": 0.0,
			"0.022": 0.0,
			"0.023": 0.0,
			"0.024": 0.0,
			"0.025": 0.0
		}
	}
}
