{
	 "smiles": "COC(=O)C(C)C", 
	 "Tm": 188.35, 
	 "num_atms": 17, 
	 "gaussian": { 
		 "optdone": 1, 
		 "sigma_profile": "yes", 
		 "theory": "DFT", 
		 "functional": "B3LYP", 
		 "basiset": "6-31G**", 
		 "properties": { 
			 "R2extent": 863.2282, 
			 "electric_dipole_moment_norm": 1.84452023573, 
			 "electric_quadrupole_moment_norm": 8.12535896192, 
			 "total_energy": -347.023441155, 
			 "HOMO_LUMO_gap": 0.27801, 
			 "cosmo_polarized_energy": -6.07, 
			 "cosmo_cavitation_energy": 20.05, 
			 "cosmo_dispersion_energy": -14.38, 
			 "cosmo_repulsion_energy": 1.25, 
			 "cosmo_total_nonelectrostatic_energy": 6.92, 
			 "SMD_solvation_energy": 5.33 
		},
		"coords": [
			{
				"x": -1.0426767566,
				"y": -1.1973422547,
				"z": 1.9046880275,
				"element": "C" 
			},
			{
				"x": -0.1523471426,
				"y": -0.6615393608,
				"z": 0.9137210456,
				"element": "O" 
			},
			{
				"x": -0.7340990819,
				"y": 0.1250568865,
				"z": -0.0242999595,
				"element": "C" 
			},
			{
				"x": -1.9218357412,
				"y": 0.3679578193,
				"z": -0.0382529684,
				"element": "O" 
			},
			{
				"x": 0.2847843411,
				"y": 0.6453221651,
				"z": -1.0286238834,
				"element": "C" 
			},
			{
				"x": 1.338118629,
				"y": 1.5298199818,
				"z": -0.3378526637,
				"element": "C" 
			},
			{
				"x": 0.9389251169,
				"y": -0.5138237053,
				"z": -1.8015907085,
				"element": "C" 
			},
			{
				"x": -1.8119036028,
				"y": -1.817741194,
				"z": 1.4376062849,
				"element": "H" 
			},
			{
				"x": -0.420008745,
				"y": -1.796213143,
				"z": 2.5695200192,
				"element": "H" 
			},
			{
				"x": -1.5322582505,
				"y": -0.3927232896,
				"z": 2.4593712388,
				"element": "H" 
			},
			{
				"x": -0.2979828766,
				"y": 1.2574026394,
				"z": -1.7242013606,
				"element": "H" 
			},
			{
				"x": 0.8723362285,
				"y": 2.3645432069,
				"z": 0.1956265156,
				"element": "H" 
			},
			{
				"x": 2.0243982695,
				"y": 1.9470347469,
				"z": -1.0818166145,
				"element": "H" 
			},
			{
				"x": 1.9230621128,
				"y": 0.9486795576,
				"z": 0.380701424,
				"element": "H" 
			},
			{
				"x": 0.189647036,
				"y": -1.1304707035,
				"z": -2.308189273,
				"element": "H" 
			},
			{
				"x": 1.6209666052,
				"y": -0.1203846845,
				"z": -2.562214038,
				"element": "H" 
			},
			{
				"x": 1.5113738582,
				"y": -1.1567786683,
				"z": -1.1269930859,
				"element": "H" 
			}
		],
		 "valence_orbital": [ 
			{
				"type": "occ",
				"energy": -0.34941,
				"method": "rhf"
			},
			{
				"type": "occ",
				"energy": -0.34188,
				"method": "rhf"
			},
			{
				"type": "occ",
				"energy": -0.33977,
				"method": "rhf"
			},
			{
				"type": "occ",
				"energy": -0.29777,
				"method": "rhf"
			},
			{
				"type": "occ",
				"energy": -0.26229,
				"method": "rhf"
			},
			{
				"type": "unocc",
				"energy": 0.01572,
				"method": "rhf"
			},
			{
				"type": "unocc",
				"energy": 0.08809,
				"method": "rhf"
			},
			{
				"type": "unocc",
				"energy": 0.11736,
				"method": "rhf"
			},
			{
				"type": "unocc",
				"energy": 0.13583,
				"method": "rhf"
			},
			{
				"type": "unocc",
				"energy": 0.14429,
				"method": "rhf"
			}
		],
		"cosmo_sigma_profile": { 
			"-0.025": 0.0,
			"-0.024": 0.0,
			"-0.023": 0.0,
			"-0.022": 0.0,
			"-0.021": 0.0,
			"-0.02": 0.0,
			"-0.019": 0.0,
			"-0.018": 0.0,
			"-0.017": 0.0,
			"-0.016": 0.0,
			"-0.015": 0.0,
			"-0.014": 0.0,
			"-0.013": 0.0,
			"-0.012": 0.0,
			"-0.011": 0.0,
			"-0.01": 0.0,
			"-0.009": 0.0,
			"-0.008": 0.0,
			"-0.007": 0.190471882303,
			"-0.006": 3.38269100621,
			"-0.005": 6.78651596416,
			"-0.004": 17.0776128722,
			"-0.003": 25.098812901,
			"-0.002": 21.0950622212,
			"-0.001": 17.9026415031,
			"0.0": 17.154740201,
			"0.001": 12.0559181199,
			"0.002": 5.09862286849,
			"0.003": 3.36829902425,
			"0.004": 3.69708803257,
			"0.005": 3.1680015215,
			"0.006": 2.73292293769,
			"0.007": 2.63747583751,
			"0.008": 1.55003828085,
			"0.009": 2.09083971403,
			"0.01": 0.974733332556,
			"0.011": 2.92315519782,
			"0.012": 4.87731957873,
			"0.013": 2.15756101008,
			"0.014": 0.18217982685,
			"0.015": 0.0,
			"0.016": 0.0,
			"0.017": 0.0,
			"0.018": 0.0,
			"0.019": 0.0,
			"0.02": 0.0,
			"0.021": 0.0,
			"0.022": 0.0,
			"0.023": 0.0,
			"0.024": 0.0,
			"0.025": 0.0
		}
	}
}
