{
	 "smiles": "NC1=CC=CC=C1N1C=CC=N1", 
	 "Tm": 318.15, 
	 "num_atms": 21, 
	 "gaussian": { 
		 "optdone": 1, 
		 "sigma_profile": "yes", 
		 "theory": "DFT", 
		 "functional": "B3LYP", 
		 "basiset": "6-31G**", 
		 "properties": { 
			 "R2extent": 2546.6439, 
			 "electric_dipole_moment_norm": 0.343963210242, 
			 "electric_quadrupole_moment_norm": 10.9461390755, 
			 "total_energy": -512.616577461, 
			 "HOMO_LUMO_gap": 0.18202, 
			 "cosmo_polarized_energy": -8.92, 
			 "cosmo_cavitation_energy": 24.55, 
			 "cosmo_dispersion_energy": -18.47, 
			 "cosmo_repulsion_energy": 1.45, 
			 "cosmo_total_nonelectrostatic_energy": 7.53, 
			 "SMD_solvation_energy": 4.11 
		},
		"coords": [
			{
				"x": -1.5139388555,
				"y": -0.94601277,
				"z": -0.7181652741,
				"element": "N" 
			},
			{
				"x": -0.3145293183,
				"y": -1.5065663602,
				"z": -1.1206569219,
				"element": "C" 
			},
			{
				"x": -0.1989918157,
				"y": -2.1552692901,
				"z": -2.3650483794,
				"element": "C" 
			},
			{
				"x": 1.0129855371,
				"y": -2.6697416773,
				"z": -2.8120095504,
				"element": "C" 
			},
			{
				"x": 2.1588619186,
				"y": -2.5695449239,
				"z": -2.0201899465,
				"element": "C" 
			},
			{
				"x": 2.0668365627,
				"y": -1.94368983,
				"z": -0.7793457589,
				"element": "C" 
			},
			{
				"x": 0.8592684388,
				"y": -1.4006238734,
				"z": -0.3333956175,
				"element": "C" 
			},
			{
				"x": 0.8358571949,
				"y": -0.7129703244,
				"z": 0.9169350534,
				"element": "N" 
			},
			{
				"x": 1.8165554875,
				"y": 0.0820098103,
				"z": 1.4349603337,
				"element": "C" 
			},
			{
				"x": 1.3959816869,
				"y": 0.4861625031,
				"z": 2.6861501276,
				"element": "C" 
			},
			{
				"x": 0.1286334698,
				"y": -0.1128530208,
				"z": 2.8418961651,
				"element": "C" 
			},
			{
				"x": -0.2096195665,
				"y": -0.8399860373,
				"z": 1.7784006482,
				"element": "N" 
			},
			{
				"x": -1.6208179424,
				"y": -0.8655207104,
				"z": 0.2873876623,
				"element": "H" 
			},
			{
				"x": -2.3307853268,
				"y": -1.2920353805,
				"z": -1.2003148364,
				"element": "H" 
			},
			{
				"x": -1.087573505,
				"y": -2.2402894184,
				"z": -2.9858645074,
				"element": "H" 
			},
			{
				"x": 1.0582781844,
				"y": -3.161151815,
				"z": -3.7796687997,
				"element": "H" 
			},
			{
				"x": 3.1043950824,
				"y": -2.9849994117,
				"z": -2.352238578,
				"element": "H" 
			},
			{
				"x": 2.9357719428,
				"y": -1.8844871051,
				"z": -0.1313458981,
				"element": "H" 
			},
			{
				"x": 2.7083860759,
				"y": 0.3087125367,
				"z": 0.8712961367,
				"element": "H" 
			},
			{
				"x": 1.920443147,
				"y": 1.1302522188,
				"z": 3.375539964,
				"element": "H" 
			},
			{
				"x": -0.5536983982,
				"y": -0.0440951206,
				"z": 3.6786779775,
				"element": "H" 
			}
		],
		 "valence_orbital": [ 
			{
				"type": "occ",
				"energy": -0.293,
				"method": "rhf"
			},
			{
				"type": "occ",
				"energy": -0.28047,
				"method": "rhf"
			},
			{
				"type": "occ",
				"energy": -0.24969,
				"method": "rhf"
			},
			{
				"type": "occ",
				"energy": -0.23302,
				"method": "rhf"
			},
			{
				"type": "occ",
				"energy": -0.19685,
				"method": "rhf"
			},
			{
				"type": "unocc",
				"energy": -0.01483,
				"method": "rhf"
			},
			{
				"type": "unocc",
				"energy": 0.01168,
				"method": "rhf"
			},
			{
				"type": "unocc",
				"energy": 0.03477,
				"method": "rhf"
			},
			{
				"type": "unocc",
				"energy": 0.06801,
				"method": "rhf"
			},
			{
				"type": "unocc",
				"energy": 0.09732,
				"method": "rhf"
			}
		],
		"cosmo_sigma_profile": { 
			"-0.025": 0.0,
			"-0.024": 0.0,
			"-0.023": 0.0,
			"-0.022": 0.0,
			"-0.021": 0.0,
			"-0.02": 0.0,
			"-0.019": 0.0,
			"-0.018": 0.0,
			"-0.017": 0.0,
			"-0.016": 0.0,
			"-0.015": 0.0,
			"-0.014": 0.0,
			"-0.013": 0.217140230592,
			"-0.012": 1.47713267276,
			"-0.011": 1.03755847626,
			"-0.01": 1.50270764153,
			"-0.009": 2.74875542149,
			"-0.008": 4.1036172031,
			"-0.007": 7.49581271184,
			"-0.006": 11.8762956385,
			"-0.005": 13.1024183225,
			"-0.004": 13.5945136523,
			"-0.003": 13.3907611453,
			"-0.002": 10.8183325794,
			"-0.001": 10.7082465437,
			"0.0": 9.7788134376,
			"0.001": 9.32926040928,
			"0.002": 12.7323087789,
			"0.003": 15.1730558902,
			"0.004": 17.6280320499,
			"0.005": 17.7235540816,
			"0.006": 10.6104119565,
			"0.007": 2.20060604333,
			"0.008": 1.49163772995,
			"0.009": 2.70617708038,
			"0.01": 1.31992189677,
			"0.011": 1.72011100027,
			"0.012": 0.968151650329,
			"0.013": 1.15041262003,
			"0.014": 0.303882881684,
			"0.015": 0.0,
			"0.016": 0.0,
			"0.017": 0.0,
			"0.018": 0.0,
			"0.019": 0.0,
			"0.02": 0.0,
			"0.021": 0.0,
			"0.022": 0.0,
			"0.023": 0.0,
			"0.024": 0.0,
			"0.025": 0.0
		}
	}
}
