{
	 "smiles": "FC1=C(C=CC=C1)C1=NN=C(S)N1", 
	 "Tm": 428.15, 
	 "num_atms": 19, 
	 "gaussian": { 
		 "optdone": 1, 
		 "sigma_profile": "yes", 
		 "theory": "DFT", 
		 "functional": "B3LYP", 
		 "basiset": "6-31G**", 
		 "properties": { 
			 "R2extent": 3420.824, 
			 "electric_dipole_moment_norm": 5.21258447414, 
			 "electric_quadrupole_moment_norm": 12.0806009068, 
			 "total_energy": -970.714455011, 
			 "HOMO_LUMO_gap": 0.18109, 
			 "cosmo_polarized_energy": -20.56, 
			 "cosmo_cavitation_energy": 26.36, 
			 "cosmo_dispersion_energy": -20.0, 
			 "cosmo_repulsion_energy": 1.51, 
			 "cosmo_total_nonelectrostatic_energy": 7.87, 
			 "SMD_solvation_energy": 2.4 
		},
		"coords": [
			{
				"x": 1.3951430963,
				"y": 1.5226598816,
				"z": 0.9577527904,
				"element": "F" 
			},
			{
				"x": 0.4607149762,
				"y": 2.0758773884,
				"z": 0.1721823875,
				"element": "C" 
			},
			{
				"x": -0.5225437221,
				"y": 1.2655857704,
				"z": -0.4178063323,
				"element": "C" 
			},
			{
				"x": -1.4656081161,
				"y": 1.9013069853,
				"z": -1.2457189651,
				"element": "C" 
			},
			{
				"x": -1.4236145227,
				"y": 3.2738473409,
				"z": -1.4767837116,
				"element": "C" 
			},
			{
				"x": -0.4313755406,
				"y": 4.049699658,
				"z": -0.8736921384,
				"element": "C" 
			},
			{
				"x": 0.5138861682,
				"y": 3.4477238488,
				"z": -0.0440878758,
				"element": "C" 
			},
			{
				"x": -0.5649278166,
				"y": -0.1806917053,
				"z": -0.1939724248,
				"element": "C" 
			},
			{
				"x": -0.1540162496,
				"y": -0.8476302006,
				"z": 0.8639536132,
				"element": "N" 
			},
			{
				"x": -0.4157981222,
				"y": -2.1864562272,
				"z": 0.6576236453,
				"element": "N" 
			},
			{
				"x": -0.9758506658,
				"y": -2.2948264553,
				"z": -0.5253533465,
				"element": "C" 
			},
			{
				"x": -1.5140618579,
				"y": -3.7831623313,
				"z": -1.3056813602,
				"element": "S" 
			},
			{
				"x": -1.1058684602,
				"y": -1.0657329969,
				"z": -1.1091836672,
				"element": "N" 
			},
			{
				"x": -2.263113765,
				"y": 1.3115782952,
				"z": -1.689212792,
				"element": "H" 
			},
			{
				"x": -2.1691096178,
				"y": 3.7367234439,
				"z": -2.1152872185,
				"element": "H" 
			},
			{
				"x": -0.3933401836,
				"y": 5.1211803794,
				"z": -1.0435849444,
				"element": "H" 
			},
			{
				"x": 1.3001301665,
				"y": 4.0183875344,
				"z": 0.4379925096,
				"element": "H" 
			},
			{
				"x": -1.0448571501,
				"y": -4.5578687711,
				"z": -0.3092756193,
				"element": "H" 
			},
			{
				"x": -1.4182886168,
				"y": -0.8627018387,
				"z": -2.0465645497,
				"element": "H" 
			}
		],
		 "valence_orbital": [ 
			{
				"type": "occ",
				"energy": -0.30827,
				"method": "rhf"
			},
			{
				"type": "occ",
				"energy": -0.2785,
				"method": "rhf"
			},
			{
				"type": "occ",
				"energy": -0.25968,
				"method": "rhf"
			},
			{
				"type": "occ",
				"energy": -0.25794,
				"method": "rhf"
			},
			{
				"type": "occ",
				"energy": -0.22455,
				"method": "rhf"
			},
			{
				"type": "unocc",
				"energy": -0.04346,
				"method": "rhf"
			},
			{
				"type": "unocc",
				"energy": -0.01421,
				"method": "rhf"
			},
			{
				"type": "unocc",
				"energy": -0.00326,
				"method": "rhf"
			},
			{
				"type": "unocc",
				"energy": 0.02562,
				"method": "rhf"
			},
			{
				"type": "unocc",
				"energy": 0.05152,
				"method": "rhf"
			}
		],
		"cosmo_sigma_profile": { 
			"-0.025": 0.0,
			"-0.024": 0.0,
			"-0.023": 0.0,
			"-0.022": 0.0,
			"-0.021": 0.0,
			"-0.02": 0.0,
			"-0.019": 0.0434508272862,
			"-0.018": 0.899976764318,
			"-0.017": 1.43079081738,
			"-0.016": 1.63019774788,
			"-0.015": 0.923749960795,
			"-0.014": 1.78039748062,
			"-0.013": 1.57089196755,
			"-0.012": 2.61153496265,
			"-0.011": 2.72710555953,
			"-0.01": 2.67885349096,
			"-0.009": 2.98433103873,
			"-0.008": 3.50797225654,
			"-0.007": 7.42518600401,
			"-0.006": 10.0163093468,
			"-0.005": 11.4957906705,
			"-0.004": 10.1347158982,
			"-0.003": 8.33418664526,
			"-0.002": 10.2723526597,
			"-0.001": 13.8099444493,
			"0.0": 15.6668667935,
			"0.001": 17.2340071988,
			"0.002": 17.4012890543,
			"0.003": 17.2273959908,
			"0.004": 15.1977050703,
			"0.005": 6.12777491911,
			"0.006": 5.1638760716,
			"0.007": 2.99402472835,
			"0.008": 3.11632906493,
			"0.009": 1.85334684202,
			"0.01": 2.04834184813,
			"0.011": 2.90387717155,
			"0.012": 2.89840453134,
			"0.013": 3.16307118567,
			"0.014": 3.27357021283,
			"0.015": 2.76895510144,
			"0.016": 1.69405651877,
			"0.017": 0.183946913648,
			"0.018": 0.0,
			"0.019": 0.0,
			"0.02": 0.0,
			"0.021": 0.0,
			"0.022": 0.0,
			"0.023": 0.0,
			"0.024": 0.0,
			"0.025": 0.0
		}
	}
}
