{
	 "smiles": "CC(C)(C)CNC(=O)C1=CC=C(C=C1)C(O)=O", 
	 "Tm": 475.15, 
	 "num_atms": 34, 
	 "gaussian": { 
		 "optdone": 1, 
		 "sigma_profile": "yes", 
		 "theory": "DFT", 
		 "functional": "B3LYP", 
		 "basiset": "6-31G**", 
		 "properties": { 
			 "R2extent": 7757.025, 
			 "electric_dipole_moment_norm": 5.88317850316, 
			 "electric_quadrupole_moment_norm": 24.1013723522, 
			 "total_energy": -786.096365044, 
			 "HOMO_LUMO_gap": 0.18911, 
			 "cosmo_polarized_energy": -22.08, 
			 "cosmo_cavitation_energy": 37.27, 
			 "cosmo_dispersion_energy": -25.84, 
			 "cosmo_repulsion_energy": 1.98, 
			 "cosmo_total_nonelectrostatic_energy": 13.42, 
			 "SMD_solvation_energy": 7.86 
		},
		"coords": [
			{
				"x": 0.7624716691,
				"y": -3.23776274,
				"z": 1.0801029596,
				"element": "C" 
			},
			{
				"x": 0.1681322169,
				"y": -2.2984181266,
				"z": 2.1459370666,
				"element": "C" 
			},
			{
				"x": 0.8209849792,
				"y": -2.5902506989,
				"z": 3.5100294385,
				"element": "C" 
			},
			{
				"x": -1.3530519497,
				"y": -2.5107052293,
				"z": 2.241289991,
				"element": "C" 
			},
			{
				"x": 0.4804962046,
				"y": -0.8215596621,
				"z": 1.7922391021,
				"element": "C" 
			},
			{
				"x": -0.0696560581,
				"y": -0.3652439363,
				"z": 0.5210026513,
				"element": "N" 
			},
			{
				"x": -1.099083761,
				"y": 0.534564936,
				"z": 0.4519688762,
				"element": "C" 
			},
			{
				"x": -1.6564764499,
				"y": 0.9911455135,
				"z": 1.4457319528,
				"element": "O" 
			},
			{
				"x": -1.5200914019,
				"y": 0.9532446689,
				"z": -0.9341682565,
				"element": "C" 
			},
			{
				"x": -2.1693981969,
				"y": 2.1894958636,
				"z": -1.0630501239,
				"element": "C" 
			},
			{
				"x": -2.5846867188,
				"y": 2.642072027,
				"z": -2.3089956704,
				"element": "C" 
			},
			{
				"x": -2.3958235806,
				"y": 1.8486048162,
				"z": -3.4497859097,
				"element": "C" 
			},
			{
				"x": -1.7584407437,
				"y": 0.6071088034,
				"z": -3.3222694398,
				"element": "C" 
			},
			{
				"x": -1.3212516819,
				"y": 0.1646069916,
				"z": -2.0748215096,
				"element": "C" 
			},
			{
				"x": -2.8644692908,
				"y": 2.3932148931,
				"z": -4.7672118713,
				"element": "C" 
			},
			{
				"x": -3.0972902465,
				"y": 1.4878954684,
				"z": -5.7555061517,
				"element": "O" 
			},
			{
				"x": -3.0342508986,
				"y": 3.5712423005,
				"z": -4.9729619733,
				"element": "O" 
			},
			{
				"x": 1.8482963597,
				"y": -3.1092044281,
				"z": 0.9931472557,
				"element": "H" 
			},
			{
				"x": 0.3175105413,
				"y": -3.0570185194,
				"z": 0.0949790806,
				"element": "H" 
			},
			{
				"x": 0.5726654655,
				"y": -4.2858559371,
				"z": 1.3351725822,
				"element": "H" 
			},
			{
				"x": 0.4158510237,
				"y": -1.9374759863,
				"z": 4.2912483725,
				"element": "H" 
			},
			{
				"x": 1.9064869921,
				"y": -2.4399363721,
				"z": 3.4756434798,
				"element": "H" 
			},
			{
				"x": 0.638647587,
				"y": -3.6265065288,
				"z": 3.8138567789,
				"element": "H" 
			},
			{
				"x": -1.8420745691,
				"y": -2.3129400115,
				"z": 1.2824524334,
				"element": "H" 
			},
			{
				"x": -1.8004968113,
				"y": -1.8441955455,
				"z": 2.9854731963,
				"element": "H" 
			},
			{
				"x": -1.5809482306,
				"y": -3.543623323,
				"z": 2.5268049472,
				"element": "H" 
			},
			{
				"x": 0.0671382045,
				"y": -0.1623084019,
				"z": 2.5596038091,
				"element": "H" 
			},
			{
				"x": 1.5684417043,
				"y": -0.6773961366,
				"z": 1.7723328975,
				"element": "H" 
			},
			{
				"x": 0.4458235548,
				"y": -0.5660503153,
				"z": -0.321503937,
				"element": "H" 
			},
			{
				"x": -2.3357016361,
				"y": 2.7770146526,
				"z": -0.1667991426,
				"element": "H" 
			},
			{
				"x": -3.064952917,
				"y": 3.6076679288,
				"z": -2.4245902496,
				"element": "H" 
			},
			{
				"x": -1.5659576167,
				"y": -0.012647095,
				"z": -4.1946899978,
				"element": "H" 
			},
			{
				"x": -0.8518453004,
				"y": -0.8116258263,
				"z": -1.9971015544,
				"element": "H" 
			},
			{
				"x": -3.087398443,
				"y": 0.5902459564,
				"z": -5.3956610839,
				"element": "H" 
			}
		],
		 "valence_orbital": [ 
			{
				"type": "occ",
				"energy": -0.28383,
				"method": "rhf"
			},
			{
				"type": "occ",
				"energy": -0.27911,
				"method": "rhf"
			},
			{
				"type": "occ",
				"energy": -0.27201,
				"method": "rhf"
			},
			{
				"type": "occ",
				"energy": -0.25962,
				"method": "rhf"
			},
			{
				"type": "occ",
				"energy": -0.25834,
				"method": "rhf"
			},
			{
				"type": "unocc",
				"energy": -0.06923,
				"method": "rhf"
			},
			{
				"type": "unocc",
				"energy": -0.03059,
				"method": "rhf"
			},
			{
				"type": "unocc",
				"energy": 0.01319,
				"method": "rhf"
			},
			{
				"type": "unocc",
				"energy": 0.04941,
				"method": "rhf"
			},
			{
				"type": "unocc",
				"energy": 0.05884,
				"method": "rhf"
			}
		],
		"cosmo_sigma_profile": { 
			"-0.025": 0.0,
			"-0.024": 0.0,
			"-0.023": 0.0,
			"-0.022": 0.0,
			"-0.021": 0.0,
			"-0.02": 0.0,
			"-0.019": 0.398130932283,
			"-0.018": 0.702099757062,
			"-0.017": 1.17701631212,
			"-0.016": 0.790292720986,
			"-0.015": 0.947655868143,
			"-0.014": 1.29913806878,
			"-0.013": 2.90603605402,
			"-0.012": 2.50981443312,
			"-0.011": 1.80144996626,
			"-0.01": 2.60270837738,
			"-0.009": 3.4733731115,
			"-0.008": 4.21848134619,
			"-0.007": 6.32342552024,
			"-0.006": 8.34929445738,
			"-0.005": 8.15385479017,
			"-0.004": 11.2632506061,
			"-0.003": 23.3878236392,
			"-0.002": 33.7994501213,
			"-0.001": 28.486020109,
			"0.0": 28.0100204514,
			"0.001": 31.1825924911,
			"0.002": 28.5659252259,
			"0.003": 8.220463965,
			"0.004": 4.36081958835,
			"0.005": 4.69987051188,
			"0.006": 3.12876633686,
			"0.007": 5.53914511451,
			"0.008": 4.55711134202,
			"0.009": 5.15977080975,
			"0.01": 6.20341672199,
			"0.011": 7.05121243855,
			"0.012": 6.21261503782,
			"0.013": 4.52916636986,
			"0.014": 2.93199174775,
			"0.015": 0.0155626410951,
			"0.016": 0.0,
			"0.017": 0.0,
			"0.018": 0.0,
			"0.019": 0.0,
			"0.02": 0.0,
			"0.021": 0.0,
			"0.022": 0.0,
			"0.023": 0.0,
			"0.024": 0.0,
			"0.025": 0.0
		}
	}
}
