{
	 "smiles": "OCC(=O)C1=CC=C(Cl)C=C1", 
	 "Tm": 398.15, 
	 "num_atms": 18, 
	 "gaussian": { 
		 "optdone": 1, 
		 "sigma_profile": "yes", 
		 "theory": "DFT", 
		 "functional": "B3LYP", 
		 "basiset": "6-31G**", 
		 "properties": { 
			 "R2extent": 2887.2345, 
			 "electric_dipole_moment_norm": 1.29692615827, 
			 "electric_quadrupole_moment_norm": 9.74550182443, 
			 "total_energy": -919.694537304, 
			 "HOMO_LUMO_gap": 0.18157, 
			 "cosmo_polarized_energy": -10.1, 
			 "cosmo_cavitation_energy": 24.27, 
			 "cosmo_dispersion_energy": -18.01, 
			 "cosmo_repulsion_energy": 1.46, 
			 "cosmo_total_nonelectrostatic_energy": 7.72, 
			 "SMD_solvation_energy": 4.64 
		},
		"coords": [
			{
				"x": 1.8171946538,
				"y": 3.3462956216,
				"z": 1.2820269518,
				"element": "O" 
			},
			{
				"x": 2.69465545,
				"y": 2.2309033197,
				"z": 1.3365680575,
				"element": "C" 
			},
			{
				"x": 2.6089627517,
				"y": 1.2497385106,
				"z": 0.1561537829,
				"element": "C" 
			},
			{
				"x": 3.6525528496,
				"y": 0.8092536447,
				"z": -0.3055783218,
				"element": "O" 
			},
			{
				"x": 1.2835780511,
				"y": 0.8065363432,
				"z": -0.3765501617,
				"element": "C" 
			},
			{
				"x": 1.2883054832,
				"y": -0.1105704001,
				"z": -1.4414900431,
				"element": "C" 
			},
			{
				"x": 0.1002957239,
				"y": -0.59926158,
				"z": -1.9704697773,
				"element": "C" 
			},
			{
				"x": -1.1106918151,
				"y": -0.1662869615,
				"z": -1.4232986975,
				"element": "C" 
			},
			{
				"x": -2.6172598531,
				"y": -0.7779892421,
				"z": -2.0815160108,
				"element": "Cl" 
			},
			{
				"x": -1.1452763713,
				"y": 0.7432457867,
				"z": -0.3663898694,
				"element": "C" 
			},
			{
				"x": 0.0531614132,
				"y": 1.2298606054,
				"z": 0.1530629622,
				"element": "C" 
			},
			{
				"x": 2.0598936106,
				"y": 3.8834592303,
				"z": 0.5167245896,
				"element": "H" 
			},
			{
				"x": 2.4328041129,
				"y": 1.6869287254,
				"z": 2.2525434585,
				"element": "H" 
			},
			{
				"x": 3.7481782825,
				"y": 2.5272628112,
				"z": 1.4145349302,
				"element": "H" 
			},
			{
				"x": 2.2455254979,
				"y": -0.432887873,
				"z": -1.8373595981,
				"element": "H" 
			},
			{
				"x": 0.1032759914,
				"y": -1.3073188203,
				"z": -2.7916926773,
				"element": "H" 
			},
			{
				"x": -2.09692539,
				"y": 1.0673065442,
				"z": 0.0397756781,
				"element": "H" 
			},
			{
				"x": 0.0315695577,
				"y": 1.957223734,
				"z": 0.955454746,
				"element": "H" 
			}
		],
		 "valence_orbital": [ 
			{
				"type": "occ",
				"energy": -0.3208,
				"method": "rhf"
			},
			{
				"type": "occ",
				"energy": -0.30502,
				"method": "rhf"
			},
			{
				"type": "occ",
				"energy": -0.27299,
				"method": "rhf"
			},
			{
				"type": "occ",
				"energy": -0.25761,
				"method": "rhf"
			},
			{
				"type": "occ",
				"energy": -0.2517,
				"method": "rhf"
			},
			{
				"type": "unocc",
				"energy": -0.07013,
				"method": "rhf"
			},
			{
				"type": "unocc",
				"energy": -0.02172,
				"method": "rhf"
			},
			{
				"type": "unocc",
				"energy": 0.0182,
				"method": "rhf"
			},
			{
				"type": "unocc",
				"energy": 0.02398,
				"method": "rhf"
			},
			{
				"type": "unocc",
				"energy": 0.07328,
				"method": "rhf"
			}
		],
		"cosmo_sigma_profile": { 
			"-0.025": 0.0,
			"-0.024": 0.0,
			"-0.023": 0.0,
			"-0.022": 0.0,
			"-0.021": 0.0,
			"-0.02": 0.0,
			"-0.019": 0.0,
			"-0.018": 0.0,
			"-0.017": 0.629308306345,
			"-0.016": 1.14073574863,
			"-0.015": 1.4174884506,
			"-0.014": 0.711911058673,
			"-0.013": 0.976806149125,
			"-0.012": 0.731499247412,
			"-0.011": 1.12156734561,
			"-0.01": 1.34128554796,
			"-0.009": 0.601234755444,
			"-0.008": 2.05101809082,
			"-0.007": 8.30812125422,
			"-0.006": 9.16534284668,
			"-0.005": 12.3920413723,
			"-0.004": 10.3835898339,
			"-0.003": 11.4045494906,
			"-0.002": 9.89190797248,
			"-0.001": 12.1728539543,
			"0.0": 13.5843899469,
			"0.001": 20.0803070287,
			"0.002": 22.7069693081,
			"0.003": 13.7736427948,
			"0.004": 13.8726542647,
			"0.005": 4.68349168694,
			"0.006": 1.68960959029,
			"0.007": 2.32003009912,
			"0.008": 2.98906153733,
			"0.009": 2.6730136713,
			"0.01": 3.31931971513,
			"0.011": 4.76433647501,
			"0.012": 3.51223075067,
			"0.013": 1.71110380114,
			"0.014": 0.0753323878025,
			"0.015": 0.0,
			"0.016": 0.0,
			"0.017": 0.0,
			"0.018": 0.0,
			"0.019": 0.0,
			"0.02": 0.0,
			"0.021": 0.0,
			"0.022": 0.0,
			"0.023": 0.0,
			"0.024": 0.0,
			"0.025": 0.0
		}
	}
}
