{
	 "smiles": "CC(C)C(NC(=O)COC1=CC=CC=C1)C(O)=O", 
	 "Tm": 439.15, 
	 "num_atms": 35, 
	 "gaussian": { 
		 "optdone": 1, 
		 "sigma_profile": "yes", 
		 "theory": "DFT", 
		 "functional": "B3LYP", 
		 "basiset": "6-31G**", 
		 "properties": { 
			 "R2extent": 6010.255, 
			 "electric_dipole_moment_norm": 2.45388643176, 
			 "electric_quadrupole_moment_norm": 20.5648957483, 
			 "total_energy": -861.294136874, 
			 "HOMO_LUMO_gap": 0.2184, 
			 "cosmo_polarized_energy": -17.6, 
			 "cosmo_cavitation_energy": 38.82, 
			 "cosmo_dispersion_energy": -25.82, 
			 "cosmo_repulsion_energy": 2.03, 
			 "cosmo_total_nonelectrostatic_energy": 15.04, 
			 "SMD_solvation_energy": 8.44 
		},
		"coords": [
			{
				"x": -1.2025433151,
				"y": 1.2919241136,
				"z": -2.481181923,
				"element": "C" 
			},
			{
				"x": -1.7789740899,
				"y": -0.0002671392,
				"z": -1.8865230683,
				"element": "C" 
			},
			{
				"x": -2.9603605716,
				"y": -0.5288292196,
				"z": -2.7114803886,
				"element": "C" 
			},
			{
				"x": -0.6686515244,
				"y": -1.0784092451,
				"z": -1.6504811283,
				"element": "C" 
			},
			{
				"x": -1.1363716609,
				"y": -2.2024774254,
				"z": -0.8503388672,
				"element": "N" 
			},
			{
				"x": -1.0378668134,
				"y": -2.4051281195,
				"z": 0.4982959573,
				"element": "C" 
			},
			{
				"x": -1.5913364209,
				"y": -3.3491864936,
				"z": 1.0466942572,
				"element": "O" 
			},
			{
				"x": -0.2455464408,
				"y": -1.3995878076,
				"z": 1.3400834529,
				"element": "C" 
			},
			{
				"x": 1.0614973391,
				"y": -1.2318289404,
				"z": 0.8039661652,
				"element": "O" 
			},
			{
				"x": 1.9373237415,
				"y": -0.4088848641,
				"z": 1.4706279751,
				"element": "C" 
			},
			{
				"x": 1.6366193197,
				"y": 0.270750772,
				"z": 2.6551442101,
				"element": "C" 
			},
			{
				"x": 2.6115382692,
				"y": 1.0848074335,
				"z": 3.2423253492,
				"element": "C" 
			},
			{
				"x": 3.8703836695,
				"y": 1.2251601604,
				"z": 2.6634420856,
				"element": "C" 
			},
			{
				"x": 4.1591504553,
				"y": 0.5393476265,
				"z": 1.4783275548,
				"element": "C" 
			},
			{
				"x": 3.2019813921,
				"y": -0.273754232,
				"z": 0.881514436,
				"element": "C" 
			},
			{
				"x": -0.0834340707,
				"y": -1.5596546787,
				"z": -2.9748817898,
				"element": "C" 
			},
			{
				"x": -0.6112375301,
				"y": -2.7374478002,
				"z": -3.3879171001,
				"element": "O" 
			},
			{
				"x": 0.7313350355,
				"y": -0.9459336779,
				"z": -3.6262174919,
				"element": "O" 
			},
			{
				"x": -0.3916831735,
				"y": 1.6903544499,
				"z": -1.8623632797,
				"element": "H" 
			},
			{
				"x": -0.8003524718,
				"y": 1.1287712373,
				"z": -3.4848302144,
				"element": "H" 
			},
			{
				"x": -1.9831807973,
				"y": 2.0566707532,
				"z": -2.5468590715,
				"element": "H" 
			},
			{
				"x": -2.1505270851,
				"y": 0.2255967228,
				"z": -0.8775071809,
				"element": "H" 
			},
			{
				"x": -3.386176955,
				"y": -1.4385779352,
				"z": -2.2769960347,
				"element": "H" 
			},
			{
				"x": -3.7569918173,
				"y": 0.2204547189,
				"z": -2.7526407055,
				"element": "H" 
			},
			{
				"x": -2.6646048987,
				"y": -0.7513943772,
				"z": -3.7427440259,
				"element": "H" 
			},
			{
				"x": 0.1601757458,
				"y": -0.6040695355,
				"z": -1.125124163,
				"element": "H" 
			},
			{
				"x": -1.6604320064,
				"y": -2.9265643335,
				"z": -1.3249328164,
				"element": "H" 
			},
			{
				"x": -0.2106053845,
				"y": -1.8173597999,
				"z": 2.3503828274,
				"element": "H" 
			},
			{
				"x": -0.7760692376,
				"y": -0.4350963261,
				"z": 1.3763535147,
				"element": "H" 
			},
			{
				"x": 0.6656114812,
				"y": 0.1749629433,
				"z": 3.1263458355,
				"element": "H" 
			},
			{
				"x": 2.3737651218,
				"y": 1.6098275158,
				"z": 4.1631669644,
				"element": "H" 
			},
			{
				"x": 4.619837106,
				"y": 1.8588881128,
				"z": 3.1270645442,
				"element": "H" 
			},
			{
				"x": 5.1366993674,
				"y": 0.6387121207,
				"z": 1.0152645901,
				"element": "H" 
			},
			{
				"x": 3.4086235186,
				"y": -0.8136456351,
				"z": -0.0368648858,
				"element": "H" 
			},
			{
				"x": -0.193595298,
				"y": -2.941231095,
				"z": -4.2418155849,
				"element": "H" 
			}
		],
		 "valence_orbital": [ 
			{
				"type": "occ",
				"energy": -0.29445,
				"method": "rhf"
			},
			{
				"type": "occ",
				"energy": -0.25632,
				"method": "rhf"
			},
			{
				"type": "occ",
				"energy": -0.25439,
				"method": "rhf"
			},
			{
				"type": "occ",
				"energy": -0.24986,
				"method": "rhf"
			},
			{
				"type": "occ",
				"energy": -0.22644,
				"method": "rhf"
			},
			{
				"type": "unocc",
				"energy": -0.00804,
				"method": "rhf"
			},
			{
				"type": "unocc",
				"energy": -0.00577,
				"method": "rhf"
			},
			{
				"type": "unocc",
				"energy": 0.00675,
				"method": "rhf"
			},
			{
				"type": "unocc",
				"energy": 0.01266,
				"method": "rhf"
			},
			{
				"type": "unocc",
				"energy": 0.05822,
				"method": "rhf"
			}
		],
		"cosmo_sigma_profile": { 
			"-0.025": 0.0,
			"-0.024": 0.0,
			"-0.023": 0.0,
			"-0.022": 0.0,
			"-0.021": 0.0,
			"-0.02": 0.0,
			"-0.019": 0.223734266132,
			"-0.018": 1.29600263721,
			"-0.017": 0.49794488597,
			"-0.016": 0.937783379317,
			"-0.015": 0.757427490723,
			"-0.014": 0.993599705163,
			"-0.013": 0.44507844706,
			"-0.012": 0.770662178691,
			"-0.011": 1.53062615827,
			"-0.01": 0.944767545966,
			"-0.009": 1.47182812147,
			"-0.008": 2.96713768606,
			"-0.007": 11.0753968514,
			"-0.006": 15.1179945758,
			"-0.005": 17.0673508104,
			"-0.004": 21.6086637867,
			"-0.003": 27.8381300677,
			"-0.002": 24.3527183025,
			"-0.001": 26.2723429454,
			"0.0": 23.9125360076,
			"0.001": 22.8567806324,
			"0.002": 15.0299046699,
			"0.003": 14.0251551192,
			"0.004": 14.9408113374,
			"0.005": 15.6463433936,
			"0.006": 10.3947165574,
			"0.007": 3.27784956468,
			"0.008": 3.36423387525,
			"0.009": 2.96377615181,
			"0.01": 3.47870196625,
			"0.011": 6.58033571409,
			"0.012": 4.30679659027,
			"0.013": 5.47018405168,
			"0.014": 3.18670347067,
			"0.015": 0.0688234977024,
			"0.016": 0.0,
			"0.017": 0.0,
			"0.018": 0.0,
			"0.019": 0.0,
			"0.02": 0.0,
			"0.021": 0.0,
			"0.022": 0.0,
			"0.023": 0.0,
			"0.024": 0.0,
			"0.025": 0.0
		}
	}
}
