{
	 "smiles": "CC1=CC(=C(C)C=C1)S(=O)(=O)N1CCN(CC1)C(=O)CCC(O)=O", 
	 "Tm": 417.15, 
	 "num_atms": 46, 
	 "gaussian": { 
		 "optdone": 1, 
		 "sigma_profile": "no", 
		 "theory": "DFT", 
		 "functional": "B3LYP", 
		 "basiset": "6-31G**", 
		 "properties": { 
			 "R2extent": 8127.2906, 
			 "electric_dipole_moment_norm": 4.27380204736, 
			 "electric_quadrupole_moment_norm": 50.5359395512, 
			 "total_energy": -1506.72152788, 
			 "HOMO_LUMO_gap": 0.19619, 
			 "cosmo_polarized_energy": -43.56, 
			 "cosmo_cavitation_energy": 47.38, 
			 "cosmo_dispersion_energy": -30.59, 
			 "cosmo_repulsion_energy": 2.23, 
			 "cosmo_total_nonelectrostatic_energy": 19.02, 
			 "SMD_solvation_energy": 6.74 
		},
		"coords": [
			{
				"x": 2.2019650969,
				"y": -4.3040860963,
				"z": -0.3057387006,
				"element": "C" 
			},
			{
				"x": 1.4952769078,
				"y": -3.1687948647,
				"z": -1.0070909566,
				"element": "C" 
			},
			{
				"x": 1.8441604188,
				"y": -1.8377957717,
				"z": -0.7697152662,
				"element": "C" 
			},
			{
				"x": 1.2264318464,
				"y": -0.7811052816,
				"z": -1.4539701713,
				"element": "C" 
			},
			{
				"x": 0.2431221004,
				"y": -1.0141323088,
				"z": -2.4372239286,
				"element": "C" 
			},
			{
				"x": -0.3990376563,
				"y": 0.0386649884,
				"z": -3.3133067696,
				"element": "C" 
			},
			{
				"x": -0.1109976101,
				"y": -2.360546322,
				"z": -2.6451495813,
				"element": "C" 
			},
			{
				"x": 0.4863725843,
				"y": -3.4112101717,
				"z": -1.9513186191,
				"element": "C" 
			},
			{
				"x": 1.7912726414,
				"y": 0.875393639,
				"z": -0.9637387875,
				"element": "S" 
			},
			{
				"x": 1.4770712184,
				"y": 1.7995977006,
				"z": -2.0534172164,
				"element": "O" 
			},
			{
				"x": 3.1560420182,
				"y": 0.7225054044,
				"z": -0.4494148124,
				"element": "O" 
			},
			{
				"x": 0.857471968,
				"y": 1.3402890989,
				"z": 0.3431794661,
				"element": "N" 
			},
			{
				"x": -0.5608463541,
				"y": 1.6852174751,
				"z": 0.1229901088,
				"element": "C" 
			},
			{
				"x": -1.3166003621,
				"y": 1.5727617948,
				"z": 1.4507887339,
				"element": "C" 
			},
			{
				"x": -1.0155402983,
				"y": 0.2976435268,
				"z": 2.0981236123,
				"element": "N" 
			},
			{
				"x": 0.3971332924,
				"y": 0.0480535696,
				"z": 2.4186703668,
				"element": "C" 
			},
			{
				"x": 1.285396921,
				"y": 1.0924364227,
				"z": 1.7197140801,
				"element": "C" 
			},
			{
				"x": -2.0072421982,
				"y": -0.6609044044,
				"z": 2.1468350448,
				"element": "C" 
			},
			{
				"x": -3.127040567,
				"y": -0.4568836578,
				"z": 1.6886599075,
				"element": "O" 
			},
			{
				"x": -1.6642454797,
				"y": -2.0084193294,
				"z": 2.7749239068,
				"element": "C" 
			},
			{
				"x": -1.3421727265,
				"y": -3.0656665528,
				"z": 1.69805999,
				"element": "C" 
			},
			{
				"x": -2.602756878,
				"y": -3.5461090703,
				"z": 0.9723285291,
				"element": "C" 
			},
			{
				"x": -2.5616277454,
				"y": -3.5451901196,
				"z": -0.3816556047,
				"element": "O" 
			},
			{
				"x": -3.5699588496,
				"y": -3.9609408825,
				"z": 1.5589358586,
				"element": "O" 
			},
			{
				"x": 1.4984674465,
				"y": -5.0823397112,
				"z": 0.0070900829,
				"element": "H" 
			},
			{
				"x": 2.9332614653,
				"y": -4.7791049181,
				"z": -0.970406236,
				"element": "H" 
			},
			{
				"x": 2.741646106,
				"y": -3.9558030297,
				"z": 0.5789112366,
				"element": "H" 
			},
			{
				"x": 2.6360028796,
				"y": -1.6058584499,
				"z": -0.0648604485,
				"element": "H" 
			},
			{
				"x": -1.1447259113,
				"y": -0.4272727116,
				"z": -3.9619755874,
				"element": "H" 
			},
			{
				"x": -0.8891703797,
				"y": 0.8304859293,
				"z": -2.7438668629,
				"element": "H" 
			},
			{
				"x": 0.3504004248,
				"y": 0.5341078295,
				"z": -3.9353596058,
				"element": "H" 
			},
			{
				"x": -0.8664893129,
				"y": -2.584382474,
				"z": -3.3934325019,
				"element": "H" 
			},
			{
				"x": 0.1819078844,
				"y": -4.4328441783,
				"z": -2.1659233426,
				"element": "H" 
			},
			{
				"x": -1.0128616569,
				"y": 0.9802156089,
				"z": -0.5825596474,
				"element": "H" 
			},
			{
				"x": -0.6507609169,
				"y": 2.6940091531,
				"z": -0.2951337468,
				"element": "H" 
			},
			{
				"x": -2.3905791347,
				"y": 1.5990621571,
				"z": 1.2687794993,
				"element": "H" 
			},
			{
				"x": -1.0597536803,
				"y": 2.4017020656,
				"z": 2.1201613829,
				"element": "H" 
			},
			{
				"x": 0.6851152119,
				"y": -0.9492877094,
				"z": 2.0739893801,
				"element": "H" 
			},
			{
				"x": 0.5802472471,
				"y": 0.0931603497,
				"z": 3.5021556453,
				"element": "H" 
			},
			{
				"x": 2.3245236939,
				"y": 0.7632679153,
				"z": 1.7070229759,
				"element": "H" 
			},
			{
				"x": 1.2631482973,
				"y": 2.0407868984,
				"z": 2.2694188498,
				"element": "H" 
			},
			{
				"x": -2.5550149107,
				"y": -2.3389093667,
				"z": 3.3142797801,
				"element": "H" 
			},
			{
				"x": -0.8383457243,
				"y": -1.9392149826,
				"z": 3.4869523719,
				"element": "H" 
			},
			{
				"x": -0.9251825235,
				"y": -3.9520518627,
				"z": 2.1899561392,
				"element": "H" 
			},
			{
				"x": -0.5807720254,
				"y": -2.6997589577,
				"z": 1.0006118748,
				"element": "H" 
			},
			{
				"x": -1.7371147688,
				"y": -3.1506483416,
				"z": -0.7052804299,
				"element": "H" 
			}
		],
		 "valence_orbital": [ 
			{
				"type": "occ",
				"energy": -0.27056,
				"method": "rhf"
			},
			{
				"type": "occ",
				"energy": -0.26582,
				"method": "rhf"
			},
			{
				"type": "occ",
				"energy": -0.26053,
				"method": "rhf"
			},
			{
				"type": "occ",
				"energy": -0.25382,
				"method": "rhf"
			},
			{
				"type": "occ",
				"energy": -0.2515,
				"method": "rhf"
			},
			{
				"type": "unocc",
				"energy": -0.05531,
				"method": "rhf"
			},
			{
				"type": "unocc",
				"energy": -0.03372,
				"method": "rhf"
			},
			{
				"type": "unocc",
				"energy": 0.0027,
				"method": "rhf"
			},
			{
				"type": "unocc",
				"energy": 0.01575,
				"method": "rhf"
			},
			{
				"type": "unocc",
				"energy": 0.04546,
				"method": "rhf"
			}
		],
		"cosmo_sigma_profile": { 
			"0.0": 0.0,
			"0.0": 0.0,
			"0.0": 0.0,
			"0.0": 0.0,
			"0.0": 0.0,
			"0.0": 0.0,
			"0.0": 0.0,
			"0.0": 0.0,
			"0.0": 0.0,
			"0.0": 0.0,
			"0.0": 0.0,
			"0.0": 0.0,
			"0.0": 0.0,
			"0.0": 0.0,
			"0.0": 0.0,
			"0.0": 0.0,
			"0.0": 0.0,
			"0.0": 0.0,
			"0.0": 0.0,
			"0.0": 0.0,
			"0.0": 0.0,
			"0.0": 0.0,
			"0.0": 0.0,
			"0.0": 0.0,
			"0.0": 0.0,
			"0.0": 0.0,
			"0.0": 0.0,
			"0.0": 0.0,
			"0.0": 0.0,
			"0.0": 0.0,
			"0.0": 0.0,
			"0.0": 0.0,
			"0.0": 0.0,
			"0.0": 0.0,
			"0.0": 0.0,
			"0.0": 0.0,
			"0.0": 0.0,
			"0.0": 0.0,
			"0.0": 0.0,
			"0.0": 0.0,
			"0.0": 0.0,
			"0.0": 0.0,
			"0.0": 0.0,
			"0.0": 0.0,
			"0.0": 0.0,
			"0.0": 0.0,
			"0.0": 0.0,
			"0.0": 0.0,
			"0.0": 0.0,
			"0.0": 0.0,
			"0.0": 0.0
		}
	}
}
