{
	 "smiles": "CC1CCN(C(=O)CCl)C2=C(S1)C=CC=C2", 
	 "Tm": 399.15, 
	 "num_atms": 30, 
	 "gaussian": { 
		 "optdone": 1, 
		 "sigma_profile": "yes", 
		 "theory": "DFT", 
		 "functional": "B3LYP", 
		 "basiset": "6-31G**", 
		 "properties": { 
			 "R2extent": 4991.4657, 
			 "electric_dipole_moment_norm": 4.68764812459, 
			 "electric_quadrupole_moment_norm": 14.6288425595, 
			 "total_energy": -1454.07709154, 
			 "HOMO_LUMO_gap": 0.19271, 
			 "cosmo_polarized_energy": -14.82, 
			 "cosmo_cavitation_energy": 34.17, 
			 "cosmo_dispersion_energy": -24.47, 
			 "cosmo_repulsion_energy": 1.86, 
			 "cosmo_total_nonelectrostatic_energy": 11.56, 
			 "SMD_solvation_energy": 5.36 
		},
		"coords": [
			{
				"x": 1.6738327391,
				"y": -0.6458230697,
				"z": -1.1485802536,
				"element": "C" 
			},
			{
				"x": 0.1725156022,
				"y": -0.3913805929,
				"z": -1.3084183151,
				"element": "C" 
			},
			{
				"x": -0.7215496502,
				"y": -1.3517046888,
				"z": -0.5116172075,
				"element": "C" 
			},
			{
				"x": -0.6154056108,
				"y": -1.2911977622,
				"z": 1.0202755344,
				"element": "C" 
			},
			{
				"x": -1.0812494813,
				"y": -0.0416966317,
				"z": 1.6441027994,
				"element": "N" 
			},
			{
				"x": -2.3040088916,
				"y": 0.1255671057,
				"z": 2.2652501742,
				"element": "C" 
			},
			{
				"x": -2.6334461365,
				"y": 1.1724830394,
				"z": 2.8029416898,
				"element": "O" 
			},
			{
				"x": -3.2633466722,
				"y": -1.0674250251,
				"z": 2.364913831,
				"element": "C" 
			},
			{
				"x": -4.0362623845,
				"y": -1.5603871669,
				"z": 0.7977614882,
				"element": "Cl" 
			},
			{
				"x": -0.1407879154,
				"y": 1.0415608286,
				"z": 1.7455950091,
				"element": "C" 
			},
			{
				"x": 0.3313142869,
				"y": 1.7158434076,
				"z": 0.6047230102,
				"element": "C" 
			},
			{
				"x": -0.2787958213,
				"y": 1.3882229854,
				"z": -1.0425257404,
				"element": "S" 
			},
			{
				"x": 1.2666575048,
				"y": 2.7505597014,
				"z": 0.7655362572,
				"element": "C" 
			},
			{
				"x": 1.7149494766,
				"y": 3.1223360969,
				"z": 2.0305819958,
				"element": "C" 
			},
			{
				"x": 1.2489713876,
				"y": 2.4440561241,
				"z": 3.158074508,
				"element": "C" 
			},
			{
				"x": 0.3337131746,
				"y": 1.4055252204,
				"z": 3.0109785682,
				"element": "C" 
			},
			{
				"x": 2.0186636395,
				"y": -0.4331620247,
				"z": -0.1325047798,
				"element": "H" 
			},
			{
				"x": 1.9052061303,
				"y": -1.694376866,
				"z": -1.3715859308,
				"element": "H" 
			},
			{
				"x": 2.2486314393,
				"y": -0.0150067624,
				"z": -1.8313115888,
				"element": "H" 
			},
			{
				"x": -0.0891655571,
				"y": -0.5129332482,
				"z": -2.3662429639,
				"element": "H" 
			},
			{
				"x": -0.4634371652,
				"y": -2.3788742211,
				"z": -0.8078095374,
				"element": "H" 
			},
			{
				"x": -1.7641057796,
				"y": -1.1907607033,
				"z": -0.7949450173,
				"element": "H" 
			},
			{
				"x": 0.4199241596,
				"y": -1.4475865876,
				"z": 1.3421221218,
				"element": "H" 
			},
			{
				"x": -1.1935877505,
				"y": -2.1215012484,
				"z": 1.4294370095,
				"element": "H" 
			},
			{
				"x": -2.7882683011,
				"y": -1.9589978406,
				"z": 2.7787145226,
				"element": "H" 
			},
			{
				"x": -4.0705161601,
				"y": -0.7431495487,
				"z": 3.0169657204,
				"element": "H" 
			},
			{
				"x": 1.6337921796,
				"y": 3.2612537847,
				"z": -0.1186840901,
				"element": "H" 
			},
			{
				"x": 2.4329273251,
				"y": 3.9305583328,
				"z": 2.1335989812,
				"element": "H" 
			},
			{
				"x": 1.5983811519,
				"y": 2.7186861285,
				"z": 4.148701021,
				"element": "H" 
			},
			{
				"x": -0.0401469197,
				"y": 0.8770112329,
				"z": 3.8812511827,
				"element": "H" 
			}
		],
		 "valence_orbital": [ 
			{
				"type": "occ",
				"energy": -0.27259,
				"method": "rhf"
			},
			{
				"type": "occ",
				"energy": -0.26578,
				"method": "rhf"
			},
			{
				"type": "occ",
				"energy": -0.2556,
				"method": "rhf"
			},
			{
				"type": "occ",
				"energy": -0.24034,
				"method": "rhf"
			},
			{
				"type": "occ",
				"energy": -0.22242,
				"method": "rhf"
			},
			{
				"type": "unocc",
				"energy": -0.02971,
				"method": "rhf"
			},
			{
				"type": "unocc",
				"energy": -0.01651,
				"method": "rhf"
			},
			{
				"type": "unocc",
				"energy": -0.009,
				"method": "rhf"
			},
			{
				"type": "unocc",
				"energy": 0.04722,
				"method": "rhf"
			},
			{
				"type": "unocc",
				"energy": 0.05137,
				"method": "rhf"
			}
		],
		"cosmo_sigma_profile": { 
			"-0.025": 0.0,
			"-0.024": 0.0,
			"-0.023": 0.0,
			"-0.022": 0.0,
			"-0.021": 0.0,
			"-0.02": 0.0,
			"-0.019": 0.0,
			"-0.018": 0.0,
			"-0.017": 0.0,
			"-0.016": 0.0,
			"-0.015": 0.0,
			"-0.014": 0.0,
			"-0.013": 0.0,
			"-0.012": 0.0,
			"-0.011": 0.0193748667754,
			"-0.01": 1.86828695602,
			"-0.009": 2.99966216729,
			"-0.008": 3.6025170872,
			"-0.007": 5.41665540111,
			"-0.006": 14.5133173557,
			"-0.005": 22.98011669,
			"-0.004": 27.4064241198,
			"-0.003": 22.0322803064,
			"-0.002": 19.1813975576,
			"-0.001": 16.4731218401,
			"0.0": 20.6767674054,
			"0.001": 18.7533763657,
			"0.002": 16.2355716764,
			"0.003": 16.1040635331,
			"0.004": 17.5229635902,
			"0.005": 14.6730245901,
			"0.006": 9.09384954177,
			"0.007": 4.13108492806,
			"0.008": 3.74519300928,
			"0.009": 3.41573864441,
			"0.01": 1.80952307196,
			"0.011": 2.44679548722,
			"0.012": 3.62021439462,
			"0.013": 4.73573504576,
			"0.014": 0.551603973923,
			"0.015": 0.0,
			"0.016": 0.0,
			"0.017": 0.0,
			"0.018": 0.0,
			"0.019": 0.0,
			"0.02": 0.0,
			"0.021": 0.0,
			"0.022": 0.0,
			"0.023": 0.0,
			"0.024": 0.0,
			"0.025": 0.0
		}
	}
}
