{
	 "smiles": "CCCCCCCCCCC1=CC=C(NC(=O)C2=CC=C(C)C=C2)C=C1", 
	 "Tm": 387.15, 
	 "num_atms": 59, 
	 "gaussian": { 
		 "optdone": 1, 
		 "sigma_profile": "yes", 
		 "theory": "DFT", 
		 "functional": "B3LYP", 
		 "basiset": "6-31G**", 
		 "properties": { 
			 "R2extent": 18870.4261, 
			 "electric_dipole_moment_norm": 3.4471640605, 
			 "electric_quadrupole_moment_norm": 27.614075366, 
			 "total_energy": -1064.48628203, 
			 "HOMO_LUMO_gap": 0.16919, 
			 "cosmo_polarized_energy": -13.28, 
			 "cosmo_cavitation_energy": 60.2, 
			 "cosmo_dispersion_energy": -41.11, 
			 "cosmo_repulsion_energy": 3.22, 
			 "cosmo_total_nonelectrostatic_energy": 22.31, 
			 "SMD_solvation_energy": 9.15 
		},
		"coords": [
			{
				"x": -3.8997646168,
				"y": -4.1497660059,
				"z": -3.3629618089,
				"element": "C" 
			},
			{
				"x": -2.3855254187,
				"y": -4.155570228,
				"z": -3.1282979273,
				"element": "C" 
			},
			{
				"x": -1.6537993991,
				"y": -3.0612799936,
				"z": -3.9185472263,
				"element": "C" 
			},
			{
				"x": -0.1233478904,
				"y": -3.0697564951,
				"z": -3.7700897776,
				"element": "C" 
			},
			{
				"x": 0.3902765948,
				"y": -2.7255989971,
				"z": -2.364697503,
				"element": "C" 
			},
			{
				"x": 1.9210089389,
				"y": -2.6713533312,
				"z": -2.2752207237,
				"element": "C" 
			},
			{
				"x": 2.4409571957,
				"y": -2.3252081748,
				"z": -0.8736054445,
				"element": "C" 
			},
			{
				"x": 3.9745891376,
				"y": -2.2838869537,
				"z": -0.8002798343,
				"element": "C" 
			},
			{
				"x": 4.5814005516,
				"y": -2.0460940042,
				"z": 0.5945907603,
				"element": "C" 
			},
			{
				"x": 4.5203005543,
				"y": -0.5984904432,
				"z": 1.1354381881,
				"element": "C" 
			},
			{
				"x": 3.1628473062,
				"y": -0.098701613,
				"z": 1.5885078262,
				"element": "C" 
			},
			{
				"x": 2.5363432367,
				"y": 0.9875333833,
				"z": 0.9650277896,
				"element": "C" 
			},
			{
				"x": 1.2973982842,
				"y": 1.4539825749,
				"z": 1.396327714,
				"element": "C" 
			},
			{
				"x": 0.641243819,
				"y": 0.8447450151,
				"z": 2.4761076137,
				"element": "C" 
			},
			{
				"x": -0.6054668419,
				"y": 1.3788875852,
				"z": 2.8639146737,
				"element": "N" 
			},
			{
				"x": -1.4749451657,
				"y": 0.9312254352,
				"z": 3.8356426491,
				"element": "C" 
			},
			{
				"x": -1.2814230113,
				"y": -0.0744717121,
				"z": 4.5119325494,
				"element": "O" 
			},
			{
				"x": -2.7163428482,
				"y": 1.7613495428,
				"z": 4.0067880501,
				"element": "C" 
			},
			{
				"x": -2.8100236703,
				"y": 3.1168977375,
				"z": 3.6631043845,
				"element": "C" 
			},
			{
				"x": -3.9965382698,
				"y": 3.8196860769,
				"z": 3.870061923,
				"element": "C" 
			},
			{
				"x": -5.1213005645,
				"y": 3.1939294933,
				"z": 4.4219140298,
				"element": "C" 
			},
			{
				"x": -6.4160720407,
				"y": 3.945611831,
				"z": 4.6159138115,
				"element": "C" 
			},
			{
				"x": -5.0137691535,
				"y": 1.8413179211,
				"z": 4.780607158,
				"element": "C" 
			},
			{
				"x": -3.8310670639,
				"y": 1.1372682115,
				"z": 4.5842038962,
				"element": "C" 
			},
			{
				"x": 1.256405867,
				"y": -0.2411895392,
				"z": 3.1198133239,
				"element": "C" 
			},
			{
				"x": 2.4969319529,
				"y": -0.6894041576,
				"z": 2.6716770187,
				"element": "C" 
			},
			{
				"x": -4.3431572444,
				"y": -3.1932539728,
				"z": -3.0627667104,
				"element": "H" 
			},
			{
				"x": -4.1376822532,
				"y": -4.3042299102,
				"z": -4.4218593661,
				"element": "H" 
			},
			{
				"x": -4.3979657022,
				"y": -4.9398866851,
				"z": -2.791441811,
				"element": "H" 
			},
			{
				"x": -1.9751697931,
				"y": -5.1358400149,
				"z": -3.4083823713,
				"element": "H" 
			},
			{
				"x": -2.1870516509,
				"y": -4.038496119,
				"z": -2.0557551028,
				"element": "H" 
			},
			{
				"x": -2.0418775963,
				"y": -2.077348826,
				"z": -3.6169464847,
				"element": "H" 
			},
			{
				"x": -1.9058110735,
				"y": -3.1707476808,
				"z": -4.9825097048,
				"element": "H" 
			},
			{
				"x": 0.2630908489,
				"y": -4.0558649179,
				"z": -4.0662049461,
				"element": "H" 
			},
			{
				"x": 0.3034381428,
				"y": -2.3528301614,
				"z": -4.4849970445,
				"element": "H" 
			},
			{
				"x": -0.0254604113,
				"y": -1.755504554,
				"z": -2.0559008252,
				"element": "H" 
			},
			{
				"x": 0.0169941494,
				"y": -3.4592353745,
				"z": -1.6382284965,
				"element": "H" 
			},
			{
				"x": 2.2997803669,
				"y": -1.9324698304,
				"z": -2.9965946947,
				"element": "H" 
			},
			{
				"x": 2.3372369904,
				"y": -3.6394445521,
				"z": -2.5902644625,
				"element": "H" 
			},
			{
				"x": 2.0672876526,
				"y": -3.067945029,
				"z": -0.1543539792,
				"element": "H" 
			},
			{
				"x": 2.0206407669,
				"y": -1.3639331819,
				"z": -0.5585857288,
				"element": "H" 
			},
			{
				"x": 4.3538716693,
				"y": -1.5174168398,
				"z": -1.4922151648,
				"element": "H" 
			},
			{
				"x": 4.3610264089,
				"y": -3.2407514529,
				"z": -1.1783162831,
				"element": "H" 
			},
			{
				"x": 4.1143457704,
				"y": -2.7275644298,
				"z": 1.3182659943,
				"element": "H" 
			},
			{
				"x": 5.6410277132,
				"y": -2.3298482064,
				"z": 0.5565911575,
				"element": "H" 
			},
			{
				"x": 4.9178163573,
				"y": 0.081008823,
				"z": 0.370834515,
				"element": "H" 
			},
			{
				"x": 5.2135305592,
				"y": -0.5334228655,
				"z": 1.985212803,
				"element": "H" 
			},
			{
				"x": 3.0240395143,
				"y": 1.4794390386,
				"z": 0.1269807954,
				"element": "H" 
			},
			{
				"x": 0.8357878462,
				"y": 2.3007391015,
				"z": 0.892019271,
				"element": "H" 
			},
			{
				"x": -0.9376479833,
				"y": 2.1386436766,
				"z": 2.2888201302,
				"element": "H" 
			},
			{
				"x": -1.9480164519,
				"y": 3.6521148624,
				"z": 3.2730556125,
				"element": "H" 
			},
			{
				"x": -4.0450224692,
				"y": 4.8739003056,
				"z": 3.6095292059,
				"element": "H" 
			},
			{
				"x": -7.1218431432,
				"y": 3.7302546277,
				"z": 3.803884601,
				"element": "H" 
			},
			{
				"x": -6.906448806,
				"y": 3.6618473472,
				"z": 5.5523868507,
				"element": "H" 
			},
			{
				"x": -6.2541594495,
				"y": 5.0270974331,
				"z": 4.630796603,
				"element": "H" 
			},
			{
				"x": -5.869163961,
				"y": 1.3375220934,
				"z": 5.2240733481,
				"element": "H" 
			},
			{
				"x": -3.7424819905,
				"y": 0.096411889,
				"z": 4.8764745077,
				"element": "H" 
			},
			{
				"x": 0.7573538893,
				"y": -0.7156960686,
				"z": 3.952402541,
				"element": "H" 
			},
			{
				"x": 2.9592738493,
				"y": -1.5270116838,
				"z": 3.1888221257,
				"element": "H" 
			}
		],
		 "valence_orbital": [ 
			{
				"type": "occ",
				"energy": -0.25947,
				"method": "rhf"
			},
			{
				"type": "occ",
				"energy": -0.25645,
				"method": "rhf"
			},
			{
				"type": "occ",
				"energy": -0.24701,
				"method": "rhf"
			},
			{
				"type": "occ",
				"energy": -0.24416,
				"method": "rhf"
			},
			{
				"type": "occ",
				"energy": -0.20913,
				"method": "rhf"
			},
			{
				"type": "unocc",
				"energy": -0.03994,
				"method": "rhf"
			},
			{
				"type": "unocc",
				"energy": -0.01065,
				"method": "rhf"
			},
			{
				"type": "unocc",
				"energy": 0.00116,
				"method": "rhf"
			},
			{
				"type": "unocc",
				"energy": 0.0115,
				"method": "rhf"
			},
			{
				"type": "unocc",
				"energy": 0.06423,
				"method": "rhf"
			}
		],
		"cosmo_sigma_profile": { 
			"-0.025": 0.0,
			"-0.024": 0.0,
			"-0.023": 0.0,
			"-0.022": 0.0,
			"-0.021": 0.0,
			"-0.02": 0.0,
			"-0.019": 0.0,
			"-0.018": 0.0,
			"-0.017": 0.0,
			"-0.016": 0.0,
			"-0.015": 0.314709758042,
			"-0.014": 1.02862886744,
			"-0.013": 1.66557146517,
			"-0.012": 1.20063675345,
			"-0.011": 1.53928543754,
			"-0.01": 1.26156717481,
			"-0.009": 1.40867874616,
			"-0.008": 2.37001913371,
			"-0.007": 2.53882699607,
			"-0.006": 5.19136613156,
			"-0.005": 15.3021039654,
			"-0.004": 23.0806193917,
			"-0.003": 26.0627261791,
			"-0.002": 48.9717964133,
			"-0.001": 73.6712509343,
			"0.0": 78.2614665422,
			"0.001": 66.1410406115,
			"0.002": 37.5933819984,
			"0.003": 20.2865770339,
			"0.004": 21.3568498931,
			"0.005": 19.2021419549,
			"0.006": 6.5257876439,
			"0.007": 1.86709651805,
			"0.008": 2.29111387429,
			"0.009": 1.32341026583,
			"0.01": 1.44107291759,
			"0.011": 2.23360669837,
			"0.012": 2.24908750239,
			"0.013": 3.0582785653,
			"0.014": 0.7052266283,
			"0.015": 0.0,
			"0.016": 0.0,
			"0.017": 0.0,
			"0.018": 0.0,
			"0.019": 0.0,
			"0.02": 0.0,
			"0.021": 0.0,
			"0.022": 0.0,
			"0.023": 0.0,
			"0.024": 0.0,
			"0.025": 0.0
		}
	}
}
