{
	 "smiles": "OC(=O)C1=NN(C=C1)C1=CC=C(Cl)C=C1", 
	 "Tm": 443.15, 
	 "num_atms": 22, 
	 "gaussian": { 
		 "optdone": 1, 
		 "sigma_profile": "yes", 
		 "theory": "DFT", 
		 "functional": "B3LYP", 
		 "basiset": "6-31G**", 
		 "properties": { 
			 "R2extent": 5356.3423, 
			 "electric_dipole_moment_norm": 1.68961464246, 
			 "electric_quadrupole_moment_norm": 19.4013109554, 
			 "total_energy": -1105.4181774, 
			 "HOMO_LUMO_gap": 0.1813, 
			 "cosmo_polarized_energy": -14.17, 
			 "cosmo_cavitation_energy": 29.64, 
			 "cosmo_dispersion_energy": -21.95, 
			 "cosmo_repulsion_energy": 1.7, 
			 "cosmo_total_nonelectrostatic_energy": 9.39, 
			 "SMD_solvation_energy": 5.79 
		},
		"coords": [
			{
				"x": 3.2962823864,
				"y": -0.6164300645,
				"z": 1.9755748596,
				"element": "O" 
			},
			{
				"x": 2.3587488521,
				"y": 0.0309305704,
				"z": 2.6998302063,
				"element": "C" 
			},
			{
				"x": 2.503914151,
				"y": 0.3159228686,
				"z": 3.8727354995,
				"element": "O" 
			},
			{
				"x": 1.1415222474,
				"y": 0.3593795708,
				"z": 1.9322645776,
				"element": "C" 
			},
			{
				"x": 0.9878681192,
				"y": 0.0441373075,
				"z": 0.6451655125,
				"element": "N" 
			},
			{
				"x": -0.2343879053,
				"y": 0.5067052036,
				"z": 0.3176963488,
				"element": "N" 
			},
			{
				"x": -0.8567891157,
				"y": 1.1118935897,
				"z": 1.3842842446,
				"element": "C" 
			},
			{
				"x": 0.0074522362,
				"y": 1.0341736627,
				"z": 2.447786409,
				"element": "C" 
			},
			{
				"x": -0.7208279271,
				"y": 0.3327491565,
				"z": -1.0076473233,
				"element": "C" 
			},
			{
				"x": 0.0833345265,
				"y": -0.3183565356,
				"z": -1.9506207299,
				"element": "C" 
			},
			{
				"x": -0.3765392574,
				"y": -0.4971330654,
				"z": -3.2516885015,
				"element": "C" 
			},
			{
				"x": -1.6395371987,
				"y": -0.0253464089,
				"z": -3.6100902034,
				"element": "C" 
			},
			{
				"x": -2.2193589665,
				"y": -0.2509041106,
				"z": -5.2511137157,
				"element": "Cl" 
			},
			{
				"x": -2.4466040819,
				"y": 0.6238443136,
				"z": -2.6778375887,
				"element": "C" 
			},
			{
				"x": -1.9861701702,
				"y": 0.8029073172,
				"z": -1.3748675428,
				"element": "C" 
			},
			{
				"x": 4.0355774131,
				"y": -0.7725323406,
				"z": 2.586591054,
				"element": "H" 
			},
			{
				"x": -1.8423796467,
				"y": 1.541221156,
				"z": 1.3079641738,
				"element": "H" 
			},
			{
				"x": -0.1326144838,
				"y": 1.3996139009,
				"z": 3.4527430057,
				"element": "H" 
			},
			{
				"x": 1.0600808261,
				"y": -0.6766711897,
				"z": -1.6517791407,
				"element": "H" 
			},
			{
				"x": 0.2438069002,
				"y": -1.0009539351,
				"z": -3.9843466713,
				"element": "H" 
			},
			{
				"x": -3.4268059689,
				"y": 0.9873922993,
				"z": -2.9645053427,
				"element": "H" 
			},
			{
				"x": -2.625572936,
				"y": 1.3095567337,
				"z": -0.6616391314,
				"element": "H" 
			}
		],
		 "valence_orbital": [ 
			{
				"type": "occ",
				"energy": -0.29516,
				"method": "rhf"
			},
			{
				"type": "occ",
				"energy": -0.27993,
				"method": "rhf"
			},
			{
				"type": "occ",
				"energy": -0.2794,
				"method": "rhf"
			},
			{
				"type": "occ",
				"energy": -0.26945,
				"method": "rhf"
			},
			{
				"type": "occ",
				"energy": -0.237,
				"method": "rhf"
			},
			{
				"type": "unocc",
				"energy": -0.0557,
				"method": "rhf"
			},
			{
				"type": "unocc",
				"energy": -0.0293,
				"method": "rhf"
			},
			{
				"type": "unocc",
				"energy": -0.01273,
				"method": "rhf"
			},
			{
				"type": "unocc",
				"energy": 0.02164,
				"method": "rhf"
			},
			{
				"type": "unocc",
				"energy": 0.02747,
				"method": "rhf"
			}
		],
		"cosmo_sigma_profile": { 
			"-0.025": 0.0,
			"-0.024": 0.0,
			"-0.023": 0.0,
			"-0.022": 0.0,
			"-0.021": 0.0,
			"-0.02": 0.0,
			"-0.019": 0.13529159714,
			"-0.018": 1.07456361486,
			"-0.017": 0.692350123431,
			"-0.016": 0.850566179076,
			"-0.015": 0.538465597299,
			"-0.014": 0.906512658528,
			"-0.013": 0.852419490824,
			"-0.012": 1.55145671299,
			"-0.011": 2.83279256425,
			"-0.01": 2.80251730002,
			"-0.009": 2.8299567571,
			"-0.008": 5.48265452583,
			"-0.007": 9.96173637079,
			"-0.006": 10.3555668365,
			"-0.005": 8.61824185688,
			"-0.004": 8.43812422673,
			"-0.003": 11.5795434436,
			"-0.002": 13.6491512996,
			"-0.001": 14.9527976853,
			"0.0": 19.0789539891,
			"0.001": 26.4836758528,
			"0.002": 29.9394280788,
			"0.003": 16.3067437044,
			"0.004": 13.5631219643,
			"0.005": 8.52716454446,
			"0.006": 3.70702102192,
			"0.007": 3.18783624976,
			"0.008": 3.00229807385,
			"0.009": 3.74828600534,
			"0.01": 3.94548133529,
			"0.011": 6.03102697691,
			"0.012": 4.98922452214,
			"0.013": 0.752170218173,
			"0.014": 0.0,
			"0.015": 0.0,
			"0.016": 0.0,
			"0.017": 0.0,
			"0.018": 0.0,
			"0.019": 0.0,
			"0.02": 0.0,
			"0.021": 0.0,
			"0.022": 0.0,
			"0.023": 0.0,
			"0.024": 0.0,
			"0.025": 0.0
		}
	}
}
