{
	 "smiles": "ClCCC(=O)NC(=O)NCC1=CC=CC=C1", 
	 "Tm": 391.15, 
	 "num_atms": 29, 
	 "gaussian": { 
		 "optdone": 1, 
		 "sigma_profile": "yes", 
		 "theory": "DFT", 
		 "functional": "B3LYP", 
		 "basiset": "6-31G**", 
		 "properties": { 
			 "R2extent": 6038.2672, 
			 "electric_dipole_moment_norm": 3.07857898875, 
			 "electric_quadrupole_moment_norm": 13.265695474, 
			 "total_energy": -1147.18917435, 
			 "HOMO_LUMO_gap": 0.23163, 
			 "cosmo_polarized_energy": -18.03, 
			 "cosmo_cavitation_energy": 35.63, 
			 "cosmo_dispersion_energy": -24.47, 
			 "cosmo_repulsion_energy": 1.96, 
			 "cosmo_total_nonelectrostatic_energy": 13.12, 
			 "SMD_solvation_energy": 6.85 
		},
		"coords": [
			{
				"x": 3.7944922856,
				"y": -0.700411762,
				"z": 0.6581147212,
				"element": "Cl" 
			},
			{
				"x": 3.2240620834,
				"y": -2.3683741367,
				"z": 0.2278183836,
				"element": "C" 
			},
			{
				"x": 1.7055271336,
				"y": -2.3897740499,
				"z": 0.0937077662,
				"element": "C" 
			},
			{
				"x": 1.2296578655,
				"y": -3.8016908829,
				"z": -0.2242853468,
				"element": "C" 
			},
			{
				"x": 1.9817047586,
				"y": -4.7597821642,
				"z": -0.1358917129,
				"element": "O" 
			},
			{
				"x": -0.0856243444,
				"y": -4.0115805402,
				"z": -0.6269990419,
				"element": "N" 
			},
			{
				"x": -1.1749860918,
				"y": -3.1915085881,
				"z": -1.0171325547,
				"element": "C" 
			},
			{
				"x": -2.0199514606,
				"y": -3.6498887872,
				"z": -1.7700430728,
				"element": "O" 
			},
			{
				"x": -1.2133519831,
				"y": -1.9210769869,
				"z": -0.5139018178,
				"element": "N" 
			},
			{
				"x": -2.3650820033,
				"y": -1.0611421281,
				"z": -0.8023979367,
				"element": "C" 
			},
			{
				"x": -2.0205810284,
				"y": 0.3980963708,
				"z": -0.5970422603,
				"element": "C" 
			},
			{
				"x": -2.6909634716,
				"y": 1.1591570886,
				"z": 0.3663545373,
				"element": "C" 
			},
			{
				"x": -2.3788896545,
				"y": 2.5081827208,
				"z": 0.5530907866,
				"element": "C" 
			},
			{
				"x": -1.3861106752,
				"y": 3.1082417136,
				"z": -0.2209089068,
				"element": "C" 
			},
			{
				"x": -0.7086009665,
				"y": 2.3557516871,
				"z": -1.1847347181,
				"element": "C" 
			},
			{
				"x": -1.0252322523,
				"y": 1.0115507325,
				"z": -1.3718200684,
				"element": "C" 
			},
			{
				"x": 3.7135134277,
				"y": -2.6410564901,
				"z": -0.7064571422,
				"element": "H" 
			},
			{
				"x": 3.5663393426,
				"y": -3.0408807786,
				"z": 1.0116577298,
				"element": "H" 
			},
			{
				"x": 1.259634257,
				"y": -2.0600526877,
				"z": 1.0415788789,
				"element": "H" 
			},
			{
				"x": 1.373317049,
				"y": -1.6861571942,
				"z": -0.6747209527,
				"element": "H" 
			},
			{
				"x": -0.2393608651,
				"y": -4.9711776777,
				"z": -0.9182538186,
				"element": "H" 
			},
			{
				"x": -0.6921953089,
				"y": -1.7073400209,
				"z": 0.3227449749,
				"element": "H" 
			},
			{
				"x": -2.6537965855,
				"y": -1.2640006376,
				"z": -1.8370389716,
				"element": "H" 
			},
			{
				"x": -3.223021531,
				"y": -1.3392218273,
				"z": -0.1763584876,
				"element": "H" 
			},
			{
				"x": -3.4647060128,
				"y": 0.6941971574,
				"z": 0.9725740782,
				"element": "H" 
			},
			{
				"x": -2.9094542718,
				"y": 3.0862324468,
				"z": 1.3041825009,
				"element": "H" 
			},
			{
				"x": -1.1399635765,
				"y": 4.1561116624,
				"z": -0.0761636543,
				"element": "H" 
			},
			{
				"x": 0.0638124714,
				"y": 2.8185135129,
				"z": -1.792180527,
				"element": "H" 
			},
			{
				"x": -0.5000885913,
				"y": 0.4293822471,
				"z": -2.1246933663,
				"element": "H" 
			}
		],
		 "valence_orbital": [ 
			{
				"type": "occ",
				"energy": -0.28463,
				"method": "rhf"
			},
			{
				"type": "occ",
				"energy": -0.27831,
				"method": "rhf"
			},
			{
				"type": "occ",
				"energy": -0.26974,
				"method": "rhf"
			},
			{
				"type": "occ",
				"energy": -0.26155,
				"method": "rhf"
			},
			{
				"type": "occ",
				"energy": -0.25324,
				"method": "rhf"
			},
			{
				"type": "unocc",
				"energy": -0.02161,
				"method": "rhf"
			},
			{
				"type": "unocc",
				"energy": -0.01833,
				"method": "rhf"
			},
			{
				"type": "unocc",
				"energy": -0.01176,
				"method": "rhf"
			},
			{
				"type": "unocc",
				"energy": 0.01897,
				"method": "rhf"
			},
			{
				"type": "unocc",
				"energy": 0.04087,
				"method": "rhf"
			}
		],
		"cosmo_sigma_profile": { 
			"-0.025": 0.0,
			"-0.024": 0.0,
			"-0.023": 0.0,
			"-0.022": 0.0,
			"-0.021": 0.0,
			"-0.02": 0.0,
			"-0.019": 0.0,
			"-0.018": 0.0,
			"-0.017": 0.0,
			"-0.016": 0.09477377428,
			"-0.015": 1.17807763988,
			"-0.014": 2.20310383217,
			"-0.013": 1.56495709884,
			"-0.012": 1.56298181087,
			"-0.011": 1.71085774602,
			"-0.01": 2.27968161118,
			"-0.009": 3.19116568351,
			"-0.008": 2.91499050381,
			"-0.007": 8.71526513139,
			"-0.006": 15.4034800919,
			"-0.005": 24.0080609071,
			"-0.004": 22.3668990084,
			"-0.003": 24.2036239366,
			"-0.002": 19.3758438287,
			"-0.001": 15.673288585,
			"0.0": 15.2603861799,
			"0.001": 14.2072382445,
			"0.002": 13.8664455832,
			"0.003": 14.0110358484,
			"0.004": 13.7018060306,
			"0.005": 17.670153139,
			"0.006": 17.5558604655,
			"0.007": 4.37091139644,
			"0.008": 3.14861750978,
			"0.009": 2.19131319397,
			"0.01": 4.08248286369,
			"0.011": 4.30726158794,
			"0.012": 7.30460532217,
			"0.013": 6.1824374009,
			"0.014": 0.466381331373,
			"0.015": 0.0,
			"0.016": 0.0,
			"0.017": 0.0,
			"0.018": 0.0,
			"0.019": 0.0,
			"0.02": 0.0,
			"0.021": 0.0,
			"0.022": 0.0,
			"0.023": 0.0,
			"0.024": 0.0,
			"0.025": 0.0
		}
	}
}
