{
	 "smiles": "FC(F)(F)C1=C(I)C=CC(Cl)=C1", 
	 "Tm": 303.15, 
	 "num_atms": 15, 
	 "gaussian": { 
		 "optdone": 1, 
		 "sigma_profile": "no", 
		 "theory": "DFT", 
		 "functional": "B3LYP", 
		 "basiset": "6-31G**", 
		 "properties": { 
			 "R2extent": 3029.2282, 
			 "electric_dipole_moment_norm": 2.02710307089, 
			 "electric_quadrupole_moment_norm": 3.26541826264, 
			 "total_energy": -1039.65045183, 
			 "HOMO_LUMO_gap": 0.19911, 
			 "cosmo_polarized_energy": -86832.99, 
			 "cosmo_cavitation_energy": 25.52, 
			 "cosmo_dispersion_energy": -19.85, 
			 "cosmo_repulsion_energy": 1.49, 
			 "cosmo_total_nonelectrostatic_energy": 7.16, 
			 "SMD_solvation_energy": 4.38 
		},
		"coords": [
			{
				"x": 0.11997629,
				"y": 0.0036094134,
				"z": -3.1564462081,
				"element": "F" 
			},
			{
				"x": -0.6550105848,
				"y": 0.5412374886,
				"z": -2.1935705954,
				"element": "C" 
			},
			{
				"x": -1.9101524768,
				"y": 0.6103846772,
				"z": -2.6872563224,
				"element": "F" 
			},
			{
				"x": -0.2379735777,
				"y": 1.8072495736,
				"z": -1.9934342395,
				"element": "F" 
			},
			{
				"x": -0.6076851917,
				"y": -0.2733904979,
				"z": -0.9154621475,
				"element": "C" 
			},
			{
				"x": 0.5773266067,
				"y": -0.4997894758,
				"z": -0.1948177953,
				"element": "C" 
			},
			{
				"x": 2.4716843821,
				"y": 0.2536819004,
				"z": -0.7738681655,
				"element": "I" 
			},
			{
				"x": 0.5418484598,
				"y": -1.2616679735,
				"z": 0.9763249554,
				"element": "C" 
			},
			{
				"x": -0.6560124736,
				"y": -1.8020273648,
				"z": 1.4409961194,
				"element": "C" 
			},
			{
				"x": -1.8261241631,
				"y": -1.5741608606,
				"z": 0.7221609875,
				"element": "C" 
			},
			{
				"x": -3.3412789923,
				"y": -2.2443761095,
				"z": 1.2888781332,
				"element": "Cl" 
			},
			{
				"x": -1.8079011054,
				"y": -0.817481539,
				"z": -0.445934992,
				"element": "C" 
			},
			{
				"x": 1.455052054,
				"y": -1.4369802868,
				"z": 1.5333066218,
				"element": "H" 
			},
			{
				"x": -0.6754475634,
				"y": -2.3920392773,
				"z": 2.3505099011,
				"element": "H" 
			},
			{
				"x": -2.7233016637,
				"y": -0.646249668,
				"z": -0.9970862526,
				"element": "H" 
			}
		],
		 "valence_orbital": [ 
			{
				"type": "occ",
				"energy": -0.33066,
				"method": "rhf"
			},
			{
				"type": "occ",
				"energy": -0.30061,
				"method": "rhf"
			},
			{
				"type": "occ",
				"energy": -0.29315,
				"method": "rhf"
			},
			{
				"type": "occ",
				"energy": -0.278,
				"method": "rhf"
			},
			{
				"type": "occ",
				"energy": -0.25269,
				"method": "rhf"
			},
			{
				"type": "unocc",
				"energy": -0.05358,
				"method": "rhf"
			},
			{
				"type": "unocc",
				"energy": -0.05256,
				"method": "rhf"
			},
			{
				"type": "unocc",
				"energy": -0.04194,
				"method": "rhf"
			},
			{
				"type": "unocc",
				"energy": 0.01386,
				"method": "rhf"
			},
			{
				"type": "unocc",
				"energy": 0.04381,
				"method": "rhf"
			}
		],
		"cosmo_sigma_profile": { 
			"0.0": 0.0,
			"0.0": 0.0,
			"0.0": 0.0,
			"0.0": 0.0,
			"0.0": 0.0,
			"0.0": 0.0,
			"0.0": 0.0,
			"0.0": 0.0,
			"0.0": 0.0,
			"0.0": 0.0,
			"0.0": 0.0,
			"0.0": 0.0,
			"0.0": 0.0,
			"0.0": 0.0,
			"0.0": 0.0,
			"0.0": 0.0,
			"0.0": 0.0,
			"0.0": 0.0,
			"0.0": 0.0,
			"0.0": 0.0,
			"0.0": 0.0,
			"0.0": 0.0,
			"0.0": 0.0,
			"0.0": 0.0,
			"0.0": 0.0,
			"0.0": 0.0,
			"0.0": 0.0,
			"0.0": 0.0,
			"0.0": 0.0,
			"0.0": 0.0,
			"0.0": 0.0,
			"0.0": 0.0,
			"0.0": 0.0,
			"0.0": 0.0,
			"0.0": 0.0,
			"0.0": 0.0,
			"0.0": 0.0,
			"0.0": 0.0,
			"0.0": 0.0,
			"0.0": 0.0,
			"0.0": 0.0,
			"0.0": 0.0,
			"0.0": 0.0,
			"0.0": 0.0,
			"0.0": 0.0,
			"0.0": 0.0,
			"0.0": 0.0,
			"0.0": 0.0,
			"0.0": 0.0,
			"0.0": 0.0,
			"0.0": 0.0
		}
	}
}
