{
	 "smiles": "OC(=O)C1=CC(SCC#C)=CC=C1", 
	 "Tm": 395.15, 
	 "num_atms": 21, 
	 "gaussian": { 
		 "optdone": 1, 
		 "sigma_profile": "yes", 
		 "theory": "DFT", 
		 "functional": "B3LYP", 
		 "basiset": "6-31G**", 
		 "properties": { 
			 "R2extent": 3958.043, 
			 "electric_dipole_moment_norm": 4.22644844048, 
			 "electric_quadrupole_moment_norm": 20.156253481, 
			 "total_energy": -934.446195198, 
			 "HOMO_LUMO_gap": 0.18274, 
			 "cosmo_polarized_energy": -17.11, 
			 "cosmo_cavitation_energy": 28.97, 
			 "cosmo_dispersion_energy": -20.47, 
			 "cosmo_repulsion_energy": 1.58, 
			 "cosmo_total_nonelectrostatic_energy": 10.08, 
			 "SMD_solvation_energy": 7.12 
		},
		"coords": [
			{
				"x": 1.8110054964,
				"y": 2.8866149508,
				"z": -2.9403335153,
				"element": "O" 
			},
			{
				"x": 0.8955816343,
				"y": 2.0608940622,
				"z": -3.5109097677,
				"element": "C" 
			},
			{
				"x": 0.6578902759,
				"y": 2.1473982681,
				"z": -4.6924120526,
				"element": "O" 
			},
			{
				"x": 0.2164201493,
				"y": 1.0677145405,
				"z": -2.6115721819,
				"element": "C" 
			},
			{
				"x": 0.7290491309,
				"y": 0.6893349259,
				"z": -1.3635543625,
				"element": "C" 
			},
			{
				"x": 0.0608104398,
				"y": -0.2563729164,
				"z": -0.5764676121,
				"element": "C" 
			},
			{
				"x": 0.7647746585,
				"y": -0.7697636748,
				"z": 0.9936453709,
				"element": "S" 
			},
			{
				"x": -0.2718448965,
				"y": 0.2644710549,
				"z": 2.1503490798,
				"element": "C" 
			},
			{
				"x": 0.1140212574,
				"y": 0.0048426892,
				"z": 3.5263648219,
				"element": "C" 
			},
			{
				"x": 0.4496367619,
				"y": -0.2230883644,
				"z": 4.6634361202,
				"element": "C" 
			},
			{
				"x": -1.1274531331,
				"y": -0.8288911126,
				"z": -1.050416409,
				"element": "C" 
			},
			{
				"x": -1.6400562833,
				"y": -0.4549877664,
				"z": -2.2944586944,
				"element": "C" 
			},
			{
				"x": -0.9682106108,
				"y": 0.4808876001,
				"z": -3.0764507435,
				"element": "C" 
			},
			{
				"x": 1.7888866712,
				"y": 2.8054324119,
				"z": -1.9770900353,
				"element": "H" 
			},
			{
				"x": 1.6726659672,
				"y": 1.0835182559,
				"z": -0.9951240582,
				"element": "H" 
			},
			{
				"x": -0.1259965604,
				"y": 1.319094431,
				"z": 1.8963301189,
				"element": "H" 
			},
			{
				"x": -1.3248973987,
				"y": 0.0146863889,
				"z": 1.9870378916,
				"element": "H" 
			},
			{
				"x": 0.7410567677,
				"y": -0.4216197845,
				"z": 5.6689116839,
				"element": "H" 
			},
			{
				"x": -1.6361272202,
				"y": -1.5757951977,
				"z": -0.4487819412,
				"element": "H" 
			},
			{
				"x": -2.558471991,
				"y": -0.9061250784,
				"z": -2.6577539076,
				"element": "H" 
			},
			{
				"x": -1.3374411163,
				"y": 0.7712543159,
				"z": -4.0539498059,
				"element": "H" 
			}
		],
		 "valence_orbital": [ 
			{
				"type": "occ",
				"energy": -0.28503,
				"method": "rhf"
			},
			{
				"type": "occ",
				"energy": -0.28095,
				"method": "rhf"
			},
			{
				"type": "occ",
				"energy": -0.27745,
				"method": "rhf"
			},
			{
				"type": "occ",
				"energy": -0.26949,
				"method": "rhf"
			},
			{
				"type": "occ",
				"energy": -0.24485,
				"method": "rhf"
			},
			{
				"type": "unocc",
				"energy": -0.06211,
				"method": "rhf"
			},
			{
				"type": "unocc",
				"energy": -0.04357,
				"method": "rhf"
			},
			{
				"type": "unocc",
				"energy": 0.00878,
				"method": "rhf"
			},
			{
				"type": "unocc",
				"energy": 0.02614,
				"method": "rhf"
			},
			{
				"type": "unocc",
				"energy": 0.03889,
				"method": "rhf"
			}
		],
		"cosmo_sigma_profile": { 
			"-0.025": 0.0,
			"-0.024": 0.0,
			"-0.023": 0.0,
			"-0.022": 0.0,
			"-0.021": 0.0,
			"-0.02": 0.0313398996094,
			"-0.019": 0.768973933227,
			"-0.018": 0.566056858429,
			"-0.017": 1.14186918097,
			"-0.016": 1.13027188451,
			"-0.015": 0.781014314044,
			"-0.014": 0.645992996673,
			"-0.013": 1.30331437555,
			"-0.012": 1.92259165027,
			"-0.011": 2.50631953154,
			"-0.01": 2.14350555276,
			"-0.009": 1.70628280567,
			"-0.008": 5.05798782872,
			"-0.007": 10.3930006196,
			"-0.006": 13.7111531041,
			"-0.005": 14.5836425118,
			"-0.004": 12.390689557,
			"-0.003": 10.5679458122,
			"-0.002": 12.1011592602,
			"-0.001": 13.5604549764,
			"0.0": 13.1769674217,
			"0.001": 14.847363941,
			"0.002": 19.9259706282,
			"0.003": 13.6965482729,
			"0.004": 9.83349434358,
			"0.005": 12.7978971762,
			"0.006": 12.8372701873,
			"0.007": 6.58832429102,
			"0.008": 4.67123138477,
			"0.009": 4.44563341333,
			"0.01": 4.92166576247,
			"0.011": 5.47110018794,
			"0.012": 3.97398046784,
			"0.013": 1.17003310949,
			"0.014": 0.00801447104334,
			"0.015": 0.0,
			"0.016": 0.0,
			"0.017": 0.0,
			"0.018": 0.0,
			"0.019": 0.0,
			"0.02": 0.0,
			"0.021": 0.0,
			"0.022": 0.0,
			"0.023": 0.0,
			"0.024": 0.0,
			"0.025": 0.0
		}
	}
}
