{
	 "smiles": "FC1=CC=C(C=C1)C(=O)C=CC1=CC=CC=C1", 
	 "Tm": 352.65, 
	 "num_atms": 28, 
	 "gaussian": { 
		 "optdone": 1, 
		 "sigma_profile": "yes", 
		 "theory": "DFT", 
		 "functional": "B3LYP", 
		 "basiset": "6-31G**", 
		 "properties": { 
			 "R2extent": 6096.6058, 
			 "electric_dipole_moment_norm": 3.66764911762, 
			 "electric_quadrupole_moment_norm": 12.0451362014, 
			 "total_energy": -753.271030748, 
			 "HOMO_LUMO_gap": 0.16134, 
			 "cosmo_polarized_energy": -10.61, 
			 "cosmo_cavitation_energy": 33.69, 
			 "cosmo_dispersion_energy": -23.96, 
			 "cosmo_repulsion_energy": 1.81, 
			 "cosmo_total_nonelectrostatic_energy": 11.54, 
			 "SMD_solvation_energy": 6.71 
		},
		"coords": [
			{
				"x": 4.013560457,
				"y": -3.3592422181,
				"z": 1.1571918054,
				"element": "F" 
			},
			{
				"x": 3.3071594146,
				"y": -2.5140170994,
				"z": 0.3821062467,
				"element": "C" 
			},
			{
				"x": 2.6727517131,
				"y": -1.4284722866,
				"z": 0.9752714578,
				"element": "C" 
			},
			{
				"x": 1.9341950611,
				"y": -0.5634977937,
				"z": 0.1684199995,
				"element": "C" 
			},
			{
				"x": 1.8380407276,
				"y": -0.7789214884,
				"z": -1.2155363551,
				"element": "C" 
			},
			{
				"x": 2.5173688445,
				"y": -1.870568889,
				"z": -1.7822955804,
				"element": "C" 
			},
			{
				"x": 3.2434393142,
				"y": -2.7514077214,
				"z": -0.9890564431,
				"element": "C" 
			},
			{
				"x": 1.1162887603,
				"y": 0.1498551082,
				"z": -2.1474074105,
				"element": "C" 
			},
			{
				"x": 1.4894311187,
				"y": 0.2573321394,
				"z": -3.3135386443,
				"element": "O" 
			},
			{
				"x": -0.0582682443,
				"y": 0.935639475,
				"z": -1.6991224213,
				"element": "C" 
			},
			{
				"x": -0.9125181223,
				"y": 0.5836272908,
				"z": -0.7163783192,
				"element": "C" 
			},
			{
				"x": -2.1477422771,
				"y": 1.2709498164,
				"z": -0.3269720109,
				"element": "C" 
			},
			{
				"x": -2.5759305932,
				"y": 2.479723722,
				"z": -0.9098748636,
				"element": "C" 
			},
			{
				"x": -3.7560768661,
				"y": 3.0886258466,
				"z": -0.4964519832,
				"element": "C" 
			},
			{
				"x": -4.5377200073,
				"y": 2.5077402594,
				"z": 0.5078660955,
				"element": "C" 
			},
			{
				"x": -4.1276645938,
				"y": 1.3110454269,
				"z": 1.0968404271,
				"element": "C" 
			},
			{
				"x": -2.9447265557,
				"y": 0.7016260704,
				"z": 0.6831615899,
				"element": "C" 
			},
			{
				"x": 2.769154628,
				"y": -1.2697087497,
				"z": 2.0437815638,
				"element": "H" 
			},
			{
				"x": 1.4562435913,
				"y": 0.300687613,
				"z": 0.616326342,
				"element": "H" 
			},
			{
				"x": 2.4637650177,
				"y": -2.0082140058,
				"z": -2.8568938095,
				"element": "H" 
			},
			{
				"x": 3.7620430001,
				"y": -3.6065795694,
				"z": -1.4087974161,
				"element": "H" 
			},
			{
				"x": -0.2628112219,
				"y": 1.7864381016,
				"z": -2.34399606,
				"element": "H" 
			},
			{
				"x": -0.6992913627,
				"y": -0.3205206418,
				"z": -0.1497377355,
				"element": "H" 
			},
			{
				"x": -1.9811007313,
				"y": 2.9461173026,
				"z": -1.6887406029,
				"element": "H" 
			},
			{
				"x": -4.0698860132,
				"y": 4.0206962645,
				"z": -0.9573809137,
				"element": "H" 
			},
			{
				"x": -5.458611654,
				"y": 2.9867175095,
				"z": 0.8272294629,
				"element": "H" 
			},
			{
				"x": -4.7277232601,
				"y": 0.8526050272,
				"z": 1.8774052912,
				"element": "H" 
			},
			{
				"x": -2.6282701449,
				"y": -0.2309765102,
				"z": 1.1435802876,
				"element": "H" 
			}
		],
		 "valence_orbital": [ 
			{
				"type": "occ",
				"energy": -0.26891,
				"method": "rhf"
			},
			{
				"type": "occ",
				"energy": -0.26346,
				"method": "rhf"
			},
			{
				"type": "occ",
				"energy": -0.25627,
				"method": "rhf"
			},
			{
				"type": "occ",
				"energy": -0.24518,
				"method": "rhf"
			},
			{
				"type": "occ",
				"energy": -0.23614,
				"method": "rhf"
			},
			{
				"type": "unocc",
				"energy": -0.0748,
				"method": "rhf"
			},
			{
				"type": "unocc",
				"energy": -0.02822,
				"method": "rhf"
			},
			{
				"type": "unocc",
				"energy": -0.0182,
				"method": "rhf"
			},
			{
				"type": "unocc",
				"energy": -0.01219,
				"method": "rhf"
			},
			{
				"type": "unocc",
				"energy": 0.02588,
				"method": "rhf"
			}
		],
		"cosmo_sigma_profile": { 
			"-0.025": 0.0,
			"-0.024": 0.0,
			"-0.023": 0.0,
			"-0.022": 0.0,
			"-0.021": 0.0,
			"-0.02": 0.0,
			"-0.019": 0.0,
			"-0.018": 0.0,
			"-0.017": 0.0,
			"-0.016": 0.0,
			"-0.015": 0.0,
			"-0.014": 0.0,
			"-0.013": 0.0,
			"-0.012": 0.0,
			"-0.011": 0.0,
			"-0.01": 0.0,
			"-0.009": 0.0,
			"-0.008": 2.86149828801,
			"-0.007": 9.57302981453,
			"-0.006": 18.1735922186,
			"-0.005": 21.4107229177,
			"-0.004": 19.602855498,
			"-0.003": 16.7263607401,
			"-0.002": 17.1585042141,
			"-0.001": 17.7779724883,
			"0.0": 21.3406046842,
			"0.001": 23.1996951369,
			"0.002": 26.4961101507,
			"0.003": 25.9009317185,
			"0.004": 23.4508605439,
			"0.005": 9.07260970705,
			"0.006": 1.86279377475,
			"0.007": 1.67943496388,
			"0.008": 1.6642608686,
			"0.009": 1.08365354708,
			"0.01": 2.23072534001,
			"0.011": 2.02676100698,
			"0.012": 4.03482043114,
			"0.013": 3.36281555642,
			"0.014": 0.647092052509,
			"0.015": 0.0,
			"0.016": 0.0,
			"0.017": 0.0,
			"0.018": 0.0,
			"0.019": 0.0,
			"0.02": 0.0,
			"0.021": 0.0,
			"0.022": 0.0,
			"0.023": 0.0,
			"0.024": 0.0,
			"0.025": 0.0
		}
	}
}
