{
	 "smiles": "CN(C)C1=CC=CC(N(C)C)=C1C#N", 
	 "Tm": 345.15, 
	 "num_atms": 29, 
	 "gaussian": { 
		 "optdone": 1, 
		 "sigma_profile": "yes", 
		 "theory": "DFT", 
		 "functional": "B3LYP", 
		 "basiset": "6-31G**", 
		 "properties": { 
			 "R2extent": 3301.3107, 
			 "electric_dipole_moment_norm": 3.92802144342, 
			 "electric_quadrupole_moment_norm": 21.0647081679, 
			 "total_energy": -592.428555338, 
			 "HOMO_LUMO_gap": 0.16822, 
			 "cosmo_polarized_energy": -10.67, 
			 "cosmo_cavitation_energy": 31.17, 
			 "cosmo_dispersion_energy": -21.88, 
			 "cosmo_repulsion_energy": 1.71, 
			 "cosmo_total_nonelectrostatic_energy": 10.99, 
			 "SMD_solvation_energy": 4.94 
		},
		"coords": [
			{
				"x": -0.9695123795,
				"y": 3.0715219856,
				"z": -0.4427332917,
				"element": "C" 
			},
			{
				"x": -1.4338825491,
				"y": 1.8171125021,
				"z": 0.1311372003,
				"element": "N" 
			},
			{
				"x": -2.2169537233,
				"y": 2.0371597881,
				"z": 1.3512721344,
				"element": "C" 
			},
			{
				"x": -0.5353822748,
				"y": 0.7318695697,
				"z": 0.1114768271,
				"element": "C" 
			},
			{
				"x": 0.8479318919,
				"y": 0.9232601238,
				"z": -0.0319731604,
				"element": "C" 
			},
			{
				"x": 1.7118782026,
				"y": -0.1674884684,
				"z": -0.0386584393,
				"element": "C" 
			},
			{
				"x": 1.2384404714,
				"y": -1.4709995911,
				"z": 0.0749244748,
				"element": "C" 
			},
			{
				"x": -0.139366316,
				"y": -1.718910105,
				"z": 0.1798414968,
				"element": "C" 
			},
			{
				"x": -0.6489991385,
				"y": -3.0282233983,
				"z": 0.2866464956,
				"element": "N" 
			},
			{
				"x": -1.526451591,
				"y": -3.5121206332,
				"z": -0.78399308,
				"element": "C" 
			},
			{
				"x": 0.2716181995,
				"y": -4.0624100228,
				"z": 0.7354285323,
				"element": "C" 
			},
			{
				"x": -1.0241587269,
				"y": -0.6027731874,
				"z": 0.2074495553,
				"element": "C" 
			},
			{
				"x": -2.4293075163,
				"y": -0.8262062709,
				"z": 0.3338002411,
				"element": "C" 
			},
			{
				"x": -3.5756148745,
				"y": -1.0083458374,
				"z": 0.4368249468,
				"element": "N" 
			},
			{
				"x": -0.4854799736,
				"y": 2.8905316372,
				"z": -1.4052104118,
				"element": "H" 
			},
			{
				"x": -1.8373670603,
				"y": 3.7161001316,
				"z": -0.613174939,
				"element": "H" 
			},
			{
				"x": -0.2678924404,
				"y": 3.624255023,
				"z": 0.2068230686,
				"element": "H" 
			},
			{
				"x": -2.5914957461,
				"y": 1.0994845384,
				"z": 1.7561745481,
				"element": "H" 
			},
			{
				"x": -1.6216199669,
				"y": 2.5455359292,
				"z": 2.1284854721,
				"element": "H" 
			},
			{
				"x": -3.0815326998,
				"y": 2.6647499135,
				"z": 1.1142966189,
				"element": "H" 
			},
			{
				"x": 1.2514135808,
				"y": 1.9258132507,
				"z": -0.1000120296,
				"element": "H" 
			},
			{
				"x": 2.7808663279,
				"y": 0.0025644454,
				"z": -0.1348199719,
				"element": "H" 
			},
			{
				"x": 1.9364008439,
				"y": -2.2982831312,
				"z": 0.0437510319,
				"element": "H" 
			},
			{
				"x": -0.9486673663,
				"y": -3.8330695023,
				"z": -1.6672104453,
				"element": "H" 
			},
			{
				"x": -2.2364817917,
				"y": -2.7470573161,
				"z": -1.0905869524,
				"element": "H" 
			},
			{
				"x": -2.1001096614,
				"y": -4.3690481668,
				"z": -0.4177831145,
				"element": "H" 
			},
			{
				"x": 0.8362956453,
				"y": -3.7148631365,
				"z": 1.603622256,
				"element": "H" 
			},
			{
				"x": 0.9849210088,
				"y": -4.3897073574,
				"z": -0.0416107954,
				"element": "H" 
			},
			{
				"x": -0.3118903758,
				"y": -4.9380527133,
				"z": 1.0362117311,
				"element": "H" 
			}
		],
		 "valence_orbital": [ 
			{
				"type": "occ",
				"energy": -0.3105,
				"method": "rhf"
			},
			{
				"type": "occ",
				"energy": -0.28765,
				"method": "rhf"
			},
			{
				"type": "occ",
				"energy": -0.26531,
				"method": "rhf"
			},
			{
				"type": "occ",
				"energy": -0.21316,
				"method": "rhf"
			},
			{
				"type": "occ",
				"energy": -0.20533,
				"method": "rhf"
			},
			{
				"type": "unocc",
				"energy": -0.03711,
				"method": "rhf"
			},
			{
				"type": "unocc",
				"energy": 0.00048,
				"method": "rhf"
			},
			{
				"type": "unocc",
				"energy": 0.04682,
				"method": "rhf"
			},
			{
				"type": "unocc",
				"energy": 0.0846,
				"method": "rhf"
			},
			{
				"type": "unocc",
				"energy": 0.08734,
				"method": "rhf"
			}
		],
		"cosmo_sigma_profile": { 
			"-0.025": 0.0,
			"-0.024": 0.0,
			"-0.023": 0.0,
			"-0.022": 0.0,
			"-0.021": 0.0,
			"-0.02": 0.0,
			"-0.019": 0.0,
			"-0.018": 0.0,
			"-0.017": 0.0,
			"-0.016": 0.0,
			"-0.015": 0.0,
			"-0.014": 0.0,
			"-0.013": 0.0,
			"-0.012": 0.0,
			"-0.011": 0.0,
			"-0.01": 0.0,
			"-0.009": 0.0,
			"-0.008": 0.0,
			"-0.007": 0.564171765071,
			"-0.006": 4.34769367968,
			"-0.005": 15.9675440734,
			"-0.004": 27.3571560322,
			"-0.003": 35.657433052,
			"-0.002": 35.0416215847,
			"-0.001": 33.9872645242,
			"0.0": 11.0019172233,
			"0.001": 9.95863534605,
			"0.002": 11.0305000779,
			"0.003": 12.7555879056,
			"0.004": 10.8433736899,
			"0.005": 7.44533822279,
			"0.006": 4.53752383779,
			"0.007": 5.65101351374,
			"0.008": 3.88578663018,
			"0.009": 4.03908611497,
			"0.01": 3.51815504754,
			"0.011": 2.68305514876,
			"0.012": 2.69662183637,
			"0.013": 2.53370019749,
			"0.014": 0.866689448446,
			"0.015": 0.0,
			"0.016": 0.0,
			"0.017": 0.0,
			"0.018": 0.0,
			"0.019": 0.0,
			"0.02": 0.0,
			"0.021": 0.0,
			"0.022": 0.0,
			"0.023": 0.0,
			"0.024": 0.0,
			"0.025": 0.0
		}
	}
}
