{
	 "smiles": "OC(=O)C1=CC2=C(N1)C=C(SC(F)(F)F)C=C2", 
	 "Tm": 459.15, 
	 "num_atms": 23, 
	 "gaussian": { 
		 "optdone": 1, 
		 "sigma_profile": "yes", 
		 "theory": "DFT", 
		 "functional": "B3LYP", 
		 "basiset": "6-31G**", 
		 "properties": { 
			 "R2extent": 6165.8714, 
			 "electric_dipole_moment_norm": 2.40149495523, 
			 "electric_quadrupole_moment_norm": 29.8011979071, 
			 "total_energy": -1287.58813194, 
			 "HOMO_LUMO_gap": 0.16798, 
			 "cosmo_polarized_energy": -18.62, 
			 "cosmo_cavitation_energy": 31.92, 
			 "cosmo_dispersion_energy": -22.9, 
			 "cosmo_repulsion_energy": 1.67, 
			 "cosmo_total_nonelectrostatic_energy": 10.69, 
			 "SMD_solvation_energy": 7.02 
		},
		"coords": [
			{
				"x": -1.6428343248,
				"y": 2.782250049,
				"z": 3.5237994651,
				"element": "O" 
			},
			{
				"x": -1.8965520516,
				"y": 1.4484315174,
				"z": 3.3636356774,
				"element": "C" 
			},
			{
				"x": -2.7728679146,
				"y": 0.905433679,
				"z": 3.9903886408,
				"element": "O" 
			},
			{
				"x": -1.0421210719,
				"y": 0.7545311488,
				"z": 2.3781444724,
				"element": "C" 
			},
			{
				"x": -0.759384831,
				"y": -0.5876818141,
				"z": 2.3105410782,
				"element": "C" 
			},
			{
				"x": 0.143156647,
				"y": -0.7788049264,
				"z": 1.2165428806,
				"element": "C" 
			},
			{
				"x": 0.3679565202,
				"y": 0.5015623571,
				"z": 0.6361564649,
				"element": "C" 
			},
			{
				"x": -0.3278287127,
				"y": 1.4335696596,
				"z": 1.3865768817,
				"element": "N" 
			},
			{
				"x": 1.1819598501,
				"y": 0.6834914998,
				"z": -0.483852098,
				"element": "C" 
			},
			{
				"x": 1.7819839445,
				"y": -0.4524346893,
				"z": -1.0254176031,
				"element": "C" 
			},
			{
				"x": 2.8775200006,
				"y": -0.283449831,
				"z": -2.4363594791,
				"element": "S" 
			},
			{
				"x": 1.6383356456,
				"y": -0.1890211091,
				"z": -3.7731427312,
				"element": "C" 
			},
			{
				"x": 0.8201740444,
				"y": 0.873446033,
				"z": -3.6481215264,
				"element": "F" 
			},
			{
				"x": 2.3049671433,
				"y": -0.0693884744,
				"z": -4.9326070138,
				"element": "F" 
			},
			{
				"x": 0.8588852879,
				"y": -1.2794653006,
				"z": -3.8414989034,
				"element": "F" 
			},
			{
				"x": 1.5882587229,
				"y": -1.7336248707,
				"z": -0.4548463517,
				"element": "C" 
			},
			{
				"x": 0.7818591097,
				"y": -1.9022490563,
				"z": 0.6594873473,
				"element": "C" 
			},
			{
				"x": -0.7599195215,
				"y": 2.9934664405,
				"z": 3.1859442869,
				"element": "H" 
			},
			{
				"x": -1.1395708523,
				"y": -1.332257603,
				"z": 2.994491658,
				"element": "H" 
			},
			{
				"x": -0.6072879552,
				"y": 2.3335193494,
				"z": 1.0225146922,
				"element": "H" 
			},
			{
				"x": 1.3492127795,
				"y": 1.6617687691,
				"z": -0.9209016057,
				"element": "H" 
			},
			{
				"x": 2.0804960771,
				"y": -2.5869482648,
				"z": -0.9079740051,
				"element": "H" 
			},
			{
				"x": 0.6353014629,
				"y": -2.888744563,
				"z": 1.0883977719,
				"element": "H" 
			}
		],
		 "valence_orbital": [ 
			{
				"type": "occ",
				"energy": -0.30872,
				"method": "rhf"
			},
			{
				"type": "occ",
				"energy": -0.2883,
				"method": "rhf"
			},
			{
				"type": "occ",
				"energy": -0.26949,
				"method": "rhf"
			},
			{
				"type": "occ",
				"energy": -0.25536,
				"method": "rhf"
			},
			{
				"type": "occ",
				"energy": -0.23935,
				"method": "rhf"
			},
			{
				"type": "unocc",
				"energy": -0.07137,
				"method": "rhf"
			},
			{
				"type": "unocc",
				"energy": -0.01448,
				"method": "rhf"
			},
			{
				"type": "unocc",
				"energy": -0.01129,
				"method": "rhf"
			},
			{
				"type": "unocc",
				"energy": 0.0181,
				"method": "rhf"
			},
			{
				"type": "unocc",
				"energy": 0.03298,
				"method": "rhf"
			}
		],
		"cosmo_sigma_profile": { 
			"-0.025": 0.0,
			"-0.024": 0.0,
			"-0.023": 0.0,
			"-0.022": 0.0,
			"-0.021": 0.0,
			"-0.02": 0.0,
			"-0.019": 0.635331329799,
			"-0.018": 1.700833058,
			"-0.017": 2.57452415716,
			"-0.016": 2.51851720501,
			"-0.015": 1.20118571385,
			"-0.014": 2.25050273378,
			"-0.013": 2.50978116983,
			"-0.012": 1.74976979783,
			"-0.011": 2.01640143842,
			"-0.01": 1.76266004631,
			"-0.009": 2.27776107446,
			"-0.008": 3.19404029813,
			"-0.007": 6.18690877938,
			"-0.006": 7.7199329115,
			"-0.005": 8.58845628687,
			"-0.004": 7.94940036382,
			"-0.003": 8.70384276272,
			"-0.002": 11.8189066376,
			"-0.001": 16.4991445842,
			"0.0": 18.8667861096,
			"0.001": 28.2974885017,
			"0.002": 51.0801851445,
			"0.003": 25.416688708,
			"0.004": 9.5898709972,
			"0.005": 4.13553134059,
			"0.006": 4.23930823431,
			"0.007": 2.22880753402,
			"0.008": 3.39094652696,
			"0.009": 3.49568973775,
			"0.01": 4.9752053498,
			"0.011": 6.18017725044,
			"0.012": 4.24766150299,
			"0.013": 0.654838063476,
			"0.014": 0.0,
			"0.015": 0.0,
			"0.016": 0.0,
			"0.017": 0.0,
			"0.018": 0.0,
			"0.019": 0.0,
			"0.02": 0.0,
			"0.021": 0.0,
			"0.022": 0.0,
			"0.023": 0.0,
			"0.024": 0.0,
			"0.025": 0.0
		}
	}
}
