{
	 "smiles": "NC(=O)C1=CC=C(Br)C=C1", 
	 "Tm": 465.15, 
	 "num_atms": 16, 
	 "gaussian": { 
		 "optdone": 1, 
		 "sigma_profile": "yes", 
		 "theory": "DFT", 
		 "functional": "B3LYP", 
		 "basiset": "6-31G**", 
		 "properties": { 
			 "R2extent": 3192.4599, 
			 "electric_dipole_moment_norm": 3.20124605427, 
			 "electric_quadrupole_moment_norm": 12.6664300547, 
			 "total_energy": -2971.75894911, 
			 "HOMO_LUMO_gap": 0.2011, 
			 "cosmo_polarized_energy": -12.67, 
			 "cosmo_cavitation_energy": 22.89, 
			 "cosmo_dispersion_energy": -17.48, 
			 "cosmo_repulsion_energy": 1.42, 
			 "cosmo_total_nonelectrostatic_energy": 6.84, 
			 "SMD_solvation_energy": 3.6 
		},
		"coords": [
			{
				"x": -2.1742585234,
				"y": -2.4006110096,
				"z": 0.9671338837,
				"element": "N" 
			},
			{
				"x": -1.3699923421,
				"y": -1.9431841845,
				"z": -0.049955655,
				"element": "C" 
			},
			{
				"x": -1.277490541,
				"y": -2.5362357194,
				"z": -1.1173655084,
				"element": "O" 
			},
			{
				"x": -0.6312989079,
				"y": -0.6603955618,
				"z": 0.2094151768,
				"element": "C" 
			},
			{
				"x": -0.9762851892,
				"y": 0.2416430264,
				"z": 1.22492384,
				"element": "C" 
			},
			{
				"x": -0.2516579766,
				"y": 1.4187323934,
				"z": 1.4085042138,
				"element": "C" 
			},
			{
				"x": 0.8258998811,
				"y": 1.6892466697,
				"z": 0.5662076695,
				"element": "C" 
			},
			{
				"x": 1.8282799951,
				"y": 3.2947446753,
				"z": 0.8170486229,
				"element": "Br" 
			},
			{
				"x": 1.1797908566,
				"y": 0.8126427068,
				"z": -0.4603566633,
				"element": "C" 
			},
			{
				"x": 0.4429217356,
				"y": -0.3549647133,
				"z": -0.6361738039,
				"element": "C" 
			},
			{
				"x": -2.5686310263,
				"y": -3.3190869721,
				"z": 0.8219331944,
				"element": "H" 
			},
			{
				"x": -1.9958560771,
				"y": -2.129336334,
				"z": 1.9214276203,
				"element": "H" 
			},
			{
				"x": -1.8356997375,
				"y": 0.0539534742,
				"z": 1.8616648242,
				"element": "H" 
			},
			{
				"x": -0.5240167495,
				"y": 2.1201407767,
				"z": 2.1886732597,
				"element": "H" 
			},
			{
				"x": 2.0158398738,
				"y": 1.043844034,
				"z": -1.1104148074,
				"element": "H" 
			},
			{
				"x": 0.6843547283,
				"y": -1.0509332619,
				"z": -1.4323658674,
				"element": "H" 
			}
		],
		 "valence_orbital": [ 
			{
				"type": "occ",
				"energy": -0.29367,
				"method": "rhf"
			},
			{
				"type": "occ",
				"energy": -0.27965,
				"method": "rhf"
			},
			{
				"type": "occ",
				"energy": -0.27243,
				"method": "rhf"
			},
			{
				"type": "occ",
				"energy": -0.2584,
				"method": "rhf"
			},
			{
				"type": "occ",
				"energy": -0.24938,
				"method": "rhf"
			},
			{
				"type": "unocc",
				"energy": -0.04828,
				"method": "rhf"
			},
			{
				"type": "unocc",
				"energy": -0.02301,
				"method": "rhf"
			},
			{
				"type": "unocc",
				"energy": 0.0009,
				"method": "rhf"
			},
			{
				"type": "unocc",
				"energy": 0.0481,
				"method": "rhf"
			},
			{
				"type": "unocc",
				"energy": 0.075,
				"method": "rhf"
			}
		],
		"cosmo_sigma_profile": { 
			"-0.025": 0.0,
			"-0.024": 0.0,
			"-0.023": 0.0,
			"-0.022": 0.0,
			"-0.021": 0.0,
			"-0.02": 0.0,
			"-0.019": 0.0,
			"-0.018": 0.0,
			"-0.017": 0.0,
			"-0.016": 0.0,
			"-0.015": 0.228796235563,
			"-0.014": 1.80607884765,
			"-0.013": 2.2958944524,
			"-0.012": 2.51904430998,
			"-0.011": 2.87210771931,
			"-0.01": 2.90734004846,
			"-0.009": 2.28736830667,
			"-0.008": 4.04224986583,
			"-0.007": 5.42885256604,
			"-0.006": 8.43695117012,
			"-0.005": 8.20878452244,
			"-0.004": 8.33144154484,
			"-0.003": 8.12658230564,
			"-0.002": 8.49598675077,
			"-0.001": 11.2080309881,
			"0.0": 13.3895901313,
			"0.001": 16.9562790083,
			"0.002": 22.4269017673,
			"0.003": 16.3862503201,
			"0.004": 14.322561511,
			"0.005": 5.218875757,
			"0.006": 1.96895938078,
			"0.007": 2.10053894202,
			"0.008": 1.83581571779,
			"0.009": 1.22653044503,
			"0.01": 2.12072587746,
			"0.011": 1.26776913634,
			"0.012": 2.20218028802,
			"0.013": 5.16920695359,
			"0.014": 2.7479198013,
			"0.015": 0.0854376998594,
			"0.016": 0.0,
			"0.017": 0.0,
			"0.018": 0.0,
			"0.019": 0.0,
			"0.02": 0.0,
			"0.021": 0.0,
			"0.022": 0.0,
			"0.023": 0.0,
			"0.024": 0.0,
			"0.025": 0.0
		}
	}
}
