{
	 "smiles": "CC(NC(=O)C1=CC(C)=CC=C1)C(O)=O", 
	 "Tm": 391.15, 
	 "num_atms": 28, 
	 "gaussian": { 
		 "optdone": 1, 
		 "sigma_profile": "yes", 
		 "theory": "DFT", 
		 "functional": "B3LYP", 
		 "basiset": "6-31G**", 
		 "properties": { 
			 "R2extent": 3865.5267, 
			 "electric_dipole_moment_norm": 4.55342949984, 
			 "electric_quadrupole_moment_norm": 18.010546155, 
			 "total_energy": -707.457902294, 
			 "HOMO_LUMO_gap": 0.2066, 
			 "cosmo_polarized_energy": -17.48, 
			 "cosmo_cavitation_energy": 31.55, 
			 "cosmo_dispersion_energy": -21.83, 
			 "cosmo_repulsion_energy": 1.74, 
			 "cosmo_total_nonelectrostatic_energy": 11.46, 
			 "SMD_solvation_energy": 6.99 
		},
		"coords": [
			{
				"x": -1.3429170201,
				"y": 1.1739431659,
				"z": -0.7400014259,
				"element": "C" 
			},
			{
				"x": -0.7898245097,
				"y": 0.5190566999,
				"z": -2.0213741833,
				"element": "C" 
			},
			{
				"x": -1.2901502843,
				"y": -0.8172581683,
				"z": -2.3204552965,
				"element": "N" 
			},
			{
				"x": -1.816246598,
				"y": -1.8189768051,
				"z": -1.5208443379,
				"element": "C" 
			},
			{
				"x": -2.6184058503,
				"y": -2.6095311341,
				"z": -2.0082247089,
				"element": "O" 
			},
			{
				"x": -1.3757316638,
				"y": -1.9667348397,
				"z": -0.0950667636,
				"element": "C" 
			},
			{
				"x": -0.0329857324,
				"y": -1.862431958,
				"z": 0.2919132334,
				"element": "C" 
			},
			{
				"x": 0.3539823098,
				"y": -2.0924823323,
				"z": 1.6182938986,
				"element": "C" 
			},
			{
				"x": 1.8095672961,
				"y": -2.0248573631,
				"z": 2.0197179457,
				"element": "C" 
			},
			{
				"x": -0.6360583398,
				"y": -2.4133056654,
				"z": 2.5570185839,
				"element": "C" 
			},
			{
				"x": -1.9736773812,
				"y": -2.5336818122,
				"z": 2.1757104575,
				"element": "C" 
			},
			{
				"x": -2.3450413397,
				"y": -2.3291933959,
				"z": 0.8490147066,
				"element": "C" 
			},
			{
				"x": 0.7423297454,
				"y": 0.6033481423,
				"z": -2.0769934237,
				"element": "C" 
			},
			{
				"x": 1.1394611466,
				"y": 1.8992430108,
				"z": -2.0816690775,
				"element": "O" 
			},
			{
				"x": 1.5246664575,
				"y": -0.3171012175,
				"z": -2.1329311095,
				"element": "O" 
			},
			{
				"x": -2.4347896278,
				"y": 1.1233947796,
				"z": -0.7482495388,
				"element": "H" 
			},
			{
				"x": -0.980998704,
				"y": 0.6817128123,
				"z": 0.1627129479,
				"element": "H" 
			},
			{
				"x": -1.0390629396,
				"y": 2.2223647901,
				"z": -0.71228281,
				"element": "H" 
			},
			{
				"x": -1.1224377358,
				"y": 1.1516335639,
				"z": -2.8538225692,
				"element": "H" 
			},
			{
				"x": -1.633888571,
				"y": -0.9354355754,
				"z": -3.2650750774,
				"element": "H" 
			},
			{
				"x": 0.7187777117,
				"y": -1.6274420399,
				"z": -0.4545399391,
				"element": "H" 
			},
			{
				"x": 2.3993646106,
				"y": -1.4652814482,
				"z": 1.2884207866,
				"element": "H" 
			},
			{
				"x": 2.2462533033,
				"y": -3.0285588219,
				"z": 2.0926288188,
				"element": "H" 
			},
			{
				"x": 1.9341687192,
				"y": -1.5474351043,
				"z": 2.9972685513,
				"element": "H" 
			},
			{
				"x": -0.3548115723,
				"y": -2.5809228478,
				"z": 3.5941746791,
				"element": "H" 
			},
			{
				"x": -2.7256209841,
				"y": -2.7945083467,
				"z": 2.915115365,
				"element": "H" 
			},
			{
				"x": -3.3751103253,
				"y": -2.4466456451,
				"z": 0.5295226688,
				"element": "H" 
			},
			{
				"x": 2.1105878792,
				"y": 1.8874875559,
				"z": -2.1221823819,
				"element": "H" 
			}
		],
		 "valence_orbital": [ 
			{
				"type": "occ",
				"energy": -0.28995,
				"method": "rhf"
			},
			{
				"type": "occ",
				"energy": -0.25901,
				"method": "rhf"
			},
			{
				"type": "occ",
				"energy": -0.25439,
				"method": "rhf"
			},
			{
				"type": "occ",
				"energy": -0.24565,
				"method": "rhf"
			},
			{
				"type": "occ",
				"energy": -0.23437,
				"method": "rhf"
			},
			{
				"type": "unocc",
				"energy": -0.02777,
				"method": "rhf"
			},
			{
				"type": "unocc",
				"energy": -0.0074,
				"method": "rhf"
			},
			{
				"type": "unocc",
				"energy": 0.00105,
				"method": "rhf"
			},
			{
				"type": "unocc",
				"energy": 0.05036,
				"method": "rhf"
			},
			{
				"type": "unocc",
				"energy": 0.06388,
				"method": "rhf"
			}
		],
		"cosmo_sigma_profile": { 
			"-0.025": 0.0,
			"-0.024": 0.0,
			"-0.023": 0.0,
			"-0.022": 0.0,
			"-0.021": 0.0,
			"-0.02": 0.0,
			"-0.019": 0.29770533814,
			"-0.018": 0.999190501596,
			"-0.017": 0.637978957557,
			"-0.016": 0.910098309488,
			"-0.015": 0.593302694368,
			"-0.014": 1.75114723132,
			"-0.013": 1.83464262182,
			"-0.012": 2.34443627823,
			"-0.011": 1.53126765621,
			"-0.01": 1.9812021967,
			"-0.009": 2.54865912769,
			"-0.008": 3.97981657336,
			"-0.007": 3.81278083919,
			"-0.006": 5.91475526957,
			"-0.005": 10.3340786114,
			"-0.004": 19.8976322899,
			"-0.003": 22.5370068349,
			"-0.002": 23.2611630986,
			"-0.001": 24.5617268197,
			"0.0": 21.8892495968,
			"0.001": 13.0262159032,
			"0.002": 12.9561397071,
			"0.003": 11.700591302,
			"0.004": 10.9212858693,
			"0.005": 9.60794938564,
			"0.006": 5.64438078515,
			"0.007": 4.24071821667,
			"0.008": 3.75085151322,
			"0.009": 3.54542807632,
			"0.01": 3.82956015265,
			"0.011": 6.19106406501,
			"0.012": 3.32848000262,
			"0.013": 4.70248523672,
			"0.014": 3.73691905752,
			"0.015": 0.425983030454,
			"0.016": 0.0,
			"0.017": 0.0,
			"0.018": 0.0,
			"0.019": 0.0,
			"0.02": 0.0,
			"0.021": 0.0,
			"0.022": 0.0,
			"0.023": 0.0,
			"0.024": 0.0,
			"0.025": 0.0
		}
	}
}
