{
	 "smiles": "COC(=O)C1=CC=CC2=C1NC=C2", 
	 "Tm": 319.65, 
	 "num_atms": 22, 
	 "gaussian": { 
		 "optdone": 1, 
		 "sigma_profile": "yes", 
		 "theory": "DFT", 
		 "functional": "B3LYP", 
		 "basiset": "6-31G**", 
		 "properties": { 
			 "R2extent": 2468.689, 
			 "electric_dipole_moment_norm": 0.572911371854, 
			 "electric_quadrupole_moment_norm": 9.90508569978, 
			 "total_energy": -591.709387639, 
			 "HOMO_LUMO_gap": 0.16367, 
			 "cosmo_polarized_energy": -7.74, 
			 "cosmo_cavitation_energy": 25.96, 
			 "cosmo_dispersion_energy": -19.58, 
			 "cosmo_repulsion_energy": 1.53, 
			 "cosmo_total_nonelectrostatic_energy": 7.92, 
			 "SMD_solvation_energy": 5.8 
		},
		"coords": [
			{
				"x": -1.9504821878,
				"y": 3.7507160706,
				"z": 0.484170948,
				"element": "C" 
			},
			{
				"x": -0.9100572102,
				"y": 2.7752240105,
				"z": 0.6432742443,
				"element": "O" 
			},
			{
				"x": -1.0733100756,
				"y": 1.6336862566,
				"z": -0.0591162861,
				"element": "C" 
			},
			{
				"x": -2.0431300647,
				"y": 1.4418241353,
				"z": -0.7837052714,
				"element": "O" 
			},
			{
				"x": 0.0181933998,
				"y": 0.6626432008,
				"z": 0.135388864,
				"element": "C" 
			},
			{
				"x": 1.1236646374,
				"y": 0.8863423455,
				"z": 0.9639134892,
				"element": "C" 
			},
			{
				"x": 2.1312103106,
				"y": -0.0800831346,
				"z": 1.1070185867,
				"element": "C" 
			},
			{
				"x": 2.0683413983,
				"y": -1.2970802723,
				"z": 0.4301030623,
				"element": "C" 
			},
			{
				"x": 0.9771105288,
				"y": -1.5618812159,
				"z": -0.4107977902,
				"element": "C" 
			},
			{
				"x": -0.0370232214,
				"y": -0.5701357235,
				"z": -0.5449144012,
				"element": "C" 
			},
			{
				"x": -0.9823284609,
				"y": -1.0556811693,
				"z": -1.4072287054,
				"element": "N" 
			},
			{
				"x": -0.6082977712,
				"y": -2.3185723317,
				"z": -1.8268909931,
				"element": "C" 
			},
			{
				"x": 0.5820594635,
				"y": -2.6658923557,
				"z": -1.2423673593,
				"element": "C" 
			},
			{
				"x": -2.032640147,
				"y": 4.0612763394,
				"z": -0.5605448879,
				"element": "H" 
			},
			{
				"x": -1.6605441197,
				"y": 4.5932212891,
				"z": 1.1119688379,
				"element": "H" 
			},
			{
				"x": -2.9129206784,
				"y": 3.3453740123,
				"z": 0.806716046,
				"element": "H" 
			},
			{
				"x": 1.1924620335,
				"y": 1.8261257741,
				"z": 1.4996922192,
				"element": "H" 
			},
			{
				"x": 2.9742661027,
				"y": 0.1282939398,
				"z": 1.758639709,
				"element": "H" 
			},
			{
				"x": 2.858070801,
				"y": -2.0333389662,
				"z": 0.5534319708,
				"element": "H" 
			},
			{
				"x": -1.8031427394,
				"y": -0.5217940412,
				"z": -1.6562325415,
				"element": "H" 
			},
			{
				"x": -1.2298540476,
				"y": -2.8718813454,
				"z": -2.5162700585,
				"element": "H" 
			},
			{
				"x": 1.1145520484,
				"y": -3.5950868184,
				"z": -1.3855496827,
				"element": "H" 
			}
		],
		 "valence_orbital": [ 
			{
				"type": "occ",
				"energy": -0.3025,
				"method": "rhf"
			},
			{
				"type": "occ",
				"energy": -0.27761,
				"method": "rhf"
			},
			{
				"type": "occ",
				"energy": -0.27654,
				"method": "rhf"
			},
			{
				"type": "occ",
				"energy": -0.22397,
				"method": "rhf"
			},
			{
				"type": "occ",
				"energy": -0.20822,
				"method": "rhf"
			},
			{
				"type": "unocc",
				"energy": -0.04455,
				"method": "rhf"
			},
			{
				"type": "unocc",
				"energy": 0.02459,
				"method": "rhf"
			},
			{
				"type": "unocc",
				"energy": 0.03918,
				"method": "rhf"
			},
			{
				"type": "unocc",
				"energy": 0.09046,
				"method": "rhf"
			},
			{
				"type": "unocc",
				"energy": 0.10664,
				"method": "rhf"
			}
		],
		"cosmo_sigma_profile": { 
			"-0.025": 0.0,
			"-0.024": 0.0,
			"-0.023": 0.0,
			"-0.022": 0.0,
			"-0.021": 0.0,
			"-0.02": 0.0,
			"-0.019": 0.0,
			"-0.018": 0.0,
			"-0.017": 0.0,
			"-0.016": 0.0,
			"-0.015": 0.0,
			"-0.014": 0.0,
			"-0.013": 0.372141239544,
			"-0.012": 0.691095642519,
			"-0.011": 0.870897470706,
			"-0.01": 0.664551540752,
			"-0.009": 1.09437419201,
			"-0.008": 2.77290860953,
			"-0.007": 3.52706906353,
			"-0.006": 10.6088061842,
			"-0.005": 15.6695497566,
			"-0.004": 18.2624218869,
			"-0.003": 18.1452480463,
			"-0.002": 14.5276166655,
			"-0.001": 11.405059586,
			"0.0": 12.5914863698,
			"0.001": 12.6382909979,
			"0.002": 14.1540824562,
			"0.003": 16.0367760058,
			"0.004": 18.0323350284,
			"0.005": 16.0166039031,
			"0.006": 9.4619909261,
			"0.007": 2.92426188296,
			"0.008": 1.07769788406,
			"0.009": 1.32782656477,
			"0.01": 1.83312481643,
			"0.011": 1.93562058932,
			"0.012": 1.436863383,
			"0.013": 0.0810956201754,
			"0.014": 0.0,
			"0.015": 0.0,
			"0.016": 0.0,
			"0.017": 0.0,
			"0.018": 0.0,
			"0.019": 0.0,
			"0.02": 0.0,
			"0.021": 0.0,
			"0.022": 0.0,
			"0.023": 0.0,
			"0.024": 0.0,
			"0.025": 0.0
		}
	}
}
