{
	 "smiles": "[O-][N+](=O)C1=C(NC(=O)CCCl)C=CC=C1", 
	 "Tm": 360.15, 
	 "num_atms": 24, 
	 "gaussian": { 
		 "optdone": 1, 
		 "sigma_profile": "yes", 
		 "theory": "DFT", 
		 "functional": "B3LYP", 
		 "basiset": "6-31G**", 
		 "properties": { 
			 "R2extent": 4819.0549, 
			 "electric_dipole_moment_norm": 2.65687738708, 
			 "electric_quadrupole_moment_norm": 19.7590759146, 
			 "total_energy": -1143.67642473, 
			 "HOMO_LUMO_gap": 0.14684, 
			 "cosmo_polarized_energy": -13.12, 
			 "cosmo_cavitation_energy": 30.56, 
			 "cosmo_dispersion_energy": -22.28, 
			 "cosmo_repulsion_energy": 1.75, 
			 "cosmo_total_nonelectrostatic_energy": 10.03, 
			 "SMD_solvation_energy": 7.17 
		},
		"coords": [
			{
				"x": 0.920349923,
				"y": 4.5958031092,
				"z": -0.7179075967,
				"element": "O" 
			},
			{
				"x": 0.6221822332,
				"y": 3.43195829,
				"z": -0.4682972679,
				"element": "N" 
			},
			{
				"x": 1.4019977265,
				"y": 2.6559182187,
				"z": 0.117467011,
				"element": "O" 
			},
			{
				"x": -0.6971948225,
				"y": 2.9497117091,
				"z": -0.8751450276,
				"element": "C" 
			},
			{
				"x": -1.1513544224,
				"y": 1.6236593647,
				"z": -0.6243980657,
				"element": "C" 
			},
			{
				"x": -0.340163208,
				"y": 0.7007316633,
				"z": 0.0313791547,
				"element": "N" 
			},
			{
				"x": -0.6218383667,
				"y": -0.6054003523,
				"z": 0.3761812393,
				"element": "C" 
			},
			{
				"x": -1.6712251519,
				"y": -1.1856161647,
				"z": 0.1413810471,
				"element": "O" 
			},
			{
				"x": 0.5073557243,
				"y": -1.2921772616,
				"z": 1.1477709565,
				"element": "C" 
			},
			{
				"x": 0.659858867,
				"y": -2.7504355161,
				"z": 0.7423708315,
				"element": "C" 
			},
			{
				"x": 1.4055572155,
				"y": -2.9085849097,
				"z": -0.9074630345,
				"element": "Cl" 
			},
			{
				"x": -2.4480051114,
				"y": 1.2936819637,
				"z": -1.0697466221,
				"element": "C" 
			},
			{
				"x": -3.2379579052,
				"y": 2.2295637934,
				"z": -1.7233978364,
				"element": "C" 
			},
			{
				"x": -2.7776414218,
				"y": 3.5293912872,
				"z": -1.9633681995,
				"element": "C" 
			},
			{
				"x": -1.5085737779,
				"y": 3.8812406958,
				"z": -1.5371968297,
				"element": "C" 
			},
			{
				"x": 0.5737752752,
				"y": 1.0781666686,
				"z": 0.2699549649,
				"element": "H" 
			},
			{
				"x": 0.224401672,
				"y": -1.2685990551,
				"z": 2.2096241243,
				"element": "H" 
			},
			{
				"x": 1.4589542271,
				"y": -0.7611698487,
				"z": 1.0529857118,
				"element": "H" 
			},
			{
				"x": -0.315521319,
				"y": -3.2334813832,
				"z": 0.6910161961,
				"element": "H" 
			},
			{
				"x": 1.3136549355,
				"y": -3.2886853293,
				"z": 1.4284188327,
				"element": "H" 
			},
			{
				"x": -2.8051846654,
				"y": 0.2907585215,
				"z": -0.8879725222,
				"element": "H" 
			},
			{
				"x": -4.2306305632,
				"y": 1.9363789654,
				"z": -2.0522307493,
				"element": "H" 
			},
			{
				"x": -3.4003295187,
				"y": 4.254690833,
				"z": -2.4757724164,
				"element": "H" 
			},
			{
				"x": -1.1099675451,
				"y": 4.8737947372,
				"z": -1.700353902,
				"element": "H" 
			}
		],
		 "valence_orbital": [ 
			{
				"type": "occ",
				"energy": -0.30125,
				"method": "rhf"
			},
			{
				"type": "occ",
				"energy": -0.29775,
				"method": "rhf"
			},
			{
				"type": "occ",
				"energy": -0.28589,
				"method": "rhf"
			},
			{
				"type": "occ",
				"energy": -0.27445,
				"method": "rhf"
			},
			{
				"type": "occ",
				"energy": -0.24905,
				"method": "rhf"
			},
			{
				"type": "unocc",
				"energy": -0.10221,
				"method": "rhf"
			},
			{
				"type": "unocc",
				"energy": -0.03709,
				"method": "rhf"
			},
			{
				"type": "unocc",
				"energy": -0.00762,
				"method": "rhf"
			},
			{
				"type": "unocc",
				"energy": 0.0184,
				"method": "rhf"
			},
			{
				"type": "unocc",
				"energy": 0.02615,
				"method": "rhf"
			}
		],
		"cosmo_sigma_profile": { 
			"-0.025": 0.0,
			"-0.024": 0.0,
			"-0.023": 0.0,
			"-0.022": 0.0,
			"-0.021": 0.0,
			"-0.02": 0.0,
			"-0.019": 0.0,
			"-0.018": 0.0,
			"-0.017": 0.0,
			"-0.016": 0.0,
			"-0.015": 0.0,
			"-0.014": 0.0,
			"-0.013": 0.0,
			"-0.012": 0.0331094128167,
			"-0.011": 0.472907271004,
			"-0.01": 1.25147287497,
			"-0.009": 1.35861168489,
			"-0.008": 5.20325297785,
			"-0.007": 16.0076203048,
			"-0.006": 19.9286997773,
			"-0.005": 18.7929562217,
			"-0.004": 15.8383264625,
			"-0.003": 11.2643243414,
			"-0.002": 11.8678591702,
			"-0.001": 15.6350080576,
			"0.0": 17.3046838578,
			"0.001": 16.9851533109,
			"0.002": 19.0004852292,
			"0.003": 10.6050539536,
			"0.004": 8.82234652169,
			"0.005": 11.8349206239,
			"0.006": 13.727106834,
			"0.007": 10.5066722022,
			"0.008": 6.67111427206,
			"0.009": 4.82901381753,
			"0.01": 4.55962475882,
			"0.011": 2.4186158427,
			"0.012": 1.92707165867,
			"0.013": 0.0823291988805,
			"0.014": 0.0,
			"0.015": 0.0,
			"0.016": 0.0,
			"0.017": 0.0,
			"0.018": 0.0,
			"0.019": 0.0,
			"0.02": 0.0,
			"0.021": 0.0,
			"0.022": 0.0,
			"0.023": 0.0,
			"0.024": 0.0,
			"0.025": 0.0
		}
	}
}
