{
	 "smiles": "NNC(=S)NC1=CC=C(OCC2=CC=CC=C2)C=C1", 
	 "Tm": 441.15, 
	 "num_atms": 34, 
	 "gaussian": { 
		 "optdone": 1, 
		 "sigma_profile": "yes", 
		 "theory": "DFT", 
		 "functional": "B3LYP", 
		 "basiset": "6-31G**", 
		 "properties": { 
			 "R2extent": 12153.6231, 
			 "electric_dipole_moment_norm": 5.99422273443, 
			 "electric_quadrupole_moment_norm": 37.3308240145, 
			 "total_energy": -1180.16301421, 
			 "HOMO_LUMO_gap": 0.1714, 
			 "cosmo_polarized_energy": -19.93, 
			 "cosmo_cavitation_energy": 40.02, 
			 "cosmo_dispersion_energy": -29.12, 
			 "cosmo_repulsion_energy": 2.21, 
			 "cosmo_total_nonelectrostatic_energy": 13.11, 
			 "SMD_solvation_energy": 6.12 
		},
		"coords": [
			{
				"x": -2.8101878705,
				"y": -3.4494411852,
				"z": -3.8616136463,
				"element": "N" 
			},
			{
				"x": -3.5577333058,
				"y": -2.619151185,
				"z": -4.7258384074,
				"element": "N" 
			},
			{
				"x": -4.5242581466,
				"y": -1.7351225504,
				"z": -4.3234092023,
				"element": "C" 
			},
			{
				"x": -5.8390228688,
				"y": -1.3821998304,
				"z": -5.3059807944,
				"element": "S" 
			},
			{
				"x": -4.3886311484,
				"y": -1.1690371047,
				"z": -3.078915093,
				"element": "N" 
			},
			{
				"x": -3.196475919,
				"y": -0.7931327247,
				"z": -2.3950899191,
				"element": "C" 
			},
			{
				"x": -2.0025918851,
				"y": -0.49863267,
				"z": -3.0603697428,
				"element": "C" 
			},
			{
				"x": -0.8677253834,
				"y": -0.0990528571,
				"z": -2.3475239304,
				"element": "C" 
			},
			{
				"x": -0.9270723851,
				"y": 0.0429186106,
				"z": -0.9562764609,
				"element": "C" 
			},
			{
				"x": 0.1127422425,
				"y": 0.4308524855,
				"z": -0.164297374,
				"element": "O" 
			},
			{
				"x": 1.3495167261,
				"y": 0.7827350639,
				"z": -0.7869823947,
				"element": "C" 
			},
			{
				"x": 2.3170512047,
				"y": 1.2488832668,
				"z": 0.2732599305,
				"element": "C" 
			},
			{
				"x": 1.9006363613,
				"y": 2.1226908479,
				"z": 1.2858142176,
				"element": "C" 
			},
			{
				"x": 2.8104035481,
				"y": 2.583471666,
				"z": 2.2363532482,
				"element": "C" 
			},
			{
				"x": 4.1483616235,
				"y": 2.1841727625,
				"z": 2.1813195086,
				"element": "C" 
			},
			{
				"x": 4.5697167545,
				"y": 1.3151726979,
				"z": 1.174656846,
				"element": "C" 
			},
			{
				"x": 3.6555404767,
				"y": 0.8461896442,
				"z": 0.2290107318,
				"element": "C" 
			},
			{
				"x": -2.1315505969,
				"y": -0.2322602349,
				"z": -0.2896243745,
				"element": "C" 
			},
			{
				"x": -3.2468430114,
				"y": -0.6532494647,
				"z": -0.9989478273,
				"element": "C" 
			},
			{
				"x": -2.032462622,
				"y": -2.9172915568,
				"z": -3.4777300421,
				"element": "H" 
			},
			{
				"x": -3.3964207318,
				"y": -3.7405212812,
				"z": -3.0803432125,
				"element": "H" 
			},
			{
				"x": -3.7604988394,
				"y": -3.0477506046,
				"z": -5.6192901997,
				"element": "H" 
			},
			{
				"x": -5.2141799191,
				"y": -0.6403523637,
				"z": -2.8268576426,
				"element": "H" 
			},
			{
				"x": -1.957063117,
				"y": -0.5707364352,
				"z": -4.1424242768,
				"element": "H" 
			},
			{
				"x": 0.0436668827,
				"y": 0.1126632594,
				"z": -2.893348897,
				"element": "H" 
			},
			{
				"x": 1.1689675803,
				"y": 1.5810584732,
				"z": -1.5230916919,
				"element": "H" 
			},
			{
				"x": 1.7618737246,
				"y": -0.079947566,
				"z": -1.3281003111,
				"element": "H" 
			},
			{
				"x": 0.8595464545,
				"y": 2.4264259833,
				"z": 1.3316882949,
				"element": "H" 
			},
			{
				"x": 2.4758284809,
				"y": 3.2564762359,
				"z": 3.020700543,
				"element": "H" 
			},
			{
				"x": 4.8562483722,
				"y": 2.5456845041,
				"z": 2.9215617443,
				"element": "H" 
			},
			{
				"x": 5.6062985459,
				"y": 0.9939027482,
				"z": 1.1290234283,
				"element": "H" 
			},
			{
				"x": 3.9859247901,
				"y": 0.1597735996,
				"z": -0.54698933,
				"element": "H" 
			},
			{
				"x": -2.1644643487,
				"y": -0.1192112739,
				"z": 0.7888544944,
				"element": "H" 
			},
			{
				"x": -4.1696416694,
				"y": -0.8804809604,
				"z": -0.4724982169,
				"element": "H" 
			}
		],
		 "valence_orbital": [ 
			{
				"type": "occ",
				"energy": -0.2581,
				"method": "rhf"
			},
			{
				"type": "occ",
				"energy": -0.25385,
				"method": "rhf"
			},
			{
				"type": "occ",
				"energy": -0.23212,
				"method": "rhf"
			},
			{
				"type": "occ",
				"energy": -0.21509,
				"method": "rhf"
			},
			{
				"type": "occ",
				"energy": -0.20268,
				"method": "rhf"
			},
			{
				"type": "unocc",
				"energy": -0.03128,
				"method": "rhf"
			},
			{
				"type": "unocc",
				"energy": -0.023,
				"method": "rhf"
			},
			{
				"type": "unocc",
				"energy": -0.01326,
				"method": "rhf"
			},
			{
				"type": "unocc",
				"energy": -0.00895,
				"method": "rhf"
			},
			{
				"type": "unocc",
				"energy": 0.01228,
				"method": "rhf"
			}
		],
		"cosmo_sigma_profile": { 
			"-0.025": 0.0,
			"-0.024": 0.0,
			"-0.023": 0.0,
			"-0.022": 0.0,
			"-0.021": 0.0,
			"-0.02": 0.0,
			"-0.019": 0.0,
			"-0.018": 0.0,
			"-0.017": 0.0,
			"-0.016": 0.0,
			"-0.015": 0.0570018854113,
			"-0.014": 0.931445980196,
			"-0.013": 1.70238204657,
			"-0.012": 2.65582877527,
			"-0.011": 3.10422391665,
			"-0.01": 2.89892151601,
			"-0.009": 3.81682233342,
			"-0.008": 4.09384153915,
			"-0.007": 9.84356296159,
			"-0.006": 22.0872564673,
			"-0.005": 26.8493098497,
			"-0.004": 24.578201272,
			"-0.003": 20.5567716942,
			"-0.002": 17.5794735385,
			"-0.001": 16.7571807991,
			"0.0": 17.7720283796,
			"0.001": 16.9163390659,
			"0.002": 19.0386132619,
			"0.003": 20.6374973548,
			"0.004": 21.7320709585,
			"0.005": 16.6286656379,
			"0.006": 11.8000148776,
			"0.007": 5.43651899089,
			"0.008": 5.96742249749,
			"0.009": 6.063912237,
			"0.01": 8.11582451895,
			"0.011": 7.37244492317,
			"0.012": 4.29909886882,
			"0.013": 0.574658540394,
			"0.014": 0.61103621231,
			"0.015": 0.725244791157,
			"0.016": 0.17089712168,
			"0.017": 0.0,
			"0.018": 0.0,
			"0.019": 0.0,
			"0.02": 0.0,
			"0.021": 0.0,
			"0.022": 0.0,
			"0.023": 0.0,
			"0.024": 0.0,
			"0.025": 0.0
		}
	}
}
