{
	 "smiles": "OC(=O)C1=CC2=C(O1)C=CC(F)=C2", 
	 "Tm": 537.15, 
	 "num_atms": 18, 
	 "gaussian": { 
		 "optdone": 1, 
		 "sigma_profile": "yes", 
		 "theory": "DFT", 
		 "functional": "B3LYP", 
		 "basiset": "6-31G**", 
		 "properties": { 
			 "R2extent": 3497.7674, 
			 "electric_dipole_moment_norm": 3.95961547754, 
			 "electric_quadrupole_moment_norm": 24.0985744197, 
			 "total_energy": -671.465043022, 
			 "HOMO_LUMO_gap": 0.17818, 
			 "cosmo_polarized_energy": -16.67, 
			 "cosmo_cavitation_energy": 24.11, 
			 "cosmo_dispersion_energy": -17.89, 
			 "cosmo_repulsion_energy": 1.38, 
			 "cosmo_total_nonelectrostatic_energy": 7.59, 
			 "SMD_solvation_energy": 6.27 
		},
		"coords": [
			{
				"x": -0.0597877049,
				"y": 2.185964335,
				"z": -3.49628136,
				"element": "O" 
			},
			{
				"x": 0.3105130977,
				"y": 2.8504886664,
				"z": -2.3698052489,
				"element": "C" 
			},
			{
				"x": 0.6226527901,
				"y": 4.0139160718,
				"z": -2.410754645,
				"element": "O" 
			},
			{
				"x": 0.2993680708,
				"y": 2.0510381216,
				"z": -1.1218089704,
				"element": "C" 
			},
			{
				"x": -0.0124559535,
				"y": 0.7472464363,
				"z": -0.8457054479,
				"element": "C" 
			},
			{
				"x": 0.1759291932,
				"y": 0.5747331176,
				"z": 0.5665406405,
				"element": "C" 
			},
			{
				"x": 0.6000095032,
				"y": 1.8343030232,
				"z": 1.0357359827,
				"element": "C" 
			},
			{
				"x": 0.6738567104,
				"y": 2.7276743032,
				"z": 0.0090574945,
				"element": "O" 
			},
			{
				"x": 0.8947418616,
				"y": 2.0961137903,
				"z": 2.371031735,
				"element": "C" 
			},
			{
				"x": 0.7520470763,
				"y": 1.0361471405,
				"z": 3.2596743238,
				"element": "C" 
			},
			{
				"x": 0.329374673,
				"y": -0.2226438785,
				"z": 2.7979126019,
				"element": "C" 
			},
			{
				"x": 0.2082205406,
				"y": -1.2149421255,
				"z": 3.7047774975,
				"element": "F" 
			},
			{
				"x": 0.034806066,
				"y": -0.4903360363,
				"z": 1.4730255267,
				"element": "C" 
			},
			{
				"x": -0.2805674771,
				"y": 1.2641391989,
				"z": -3.305210607,
				"element": "H" 
			},
			{
				"x": -0.3376279146,
				"y": -0.0128588162,
				"z": -1.5436603182,
				"element": "H" 
			},
			{
				"x": 1.21858075,
				"y": 3.0780331642,
				"z": 2.6962529782,
				"element": "H" 
			},
			{
				"x": 0.9615892722,
				"y": 1.1569482984,
				"z": 4.3165346918,
				"element": "H" 
			},
			{
				"x": -0.287350555,
				"y": -1.4804648111,
				"z": 1.1714831247,
				"element": "H" 
			}
		],
		 "valence_orbital": [ 
			{
				"type": "occ",
				"energy": -0.32568,
				"method": "rhf"
			},
			{
				"type": "occ",
				"energy": -0.32068,
				"method": "rhf"
			},
			{
				"type": "occ",
				"energy": -0.285,
				"method": "rhf"
			},
			{
				"type": "occ",
				"energy": -0.2526,
				"method": "rhf"
			},
			{
				"type": "occ",
				"energy": -0.25078,
				"method": "rhf"
			},
			{
				"type": "unocc",
				"energy": -0.0726,
				"method": "rhf"
			},
			{
				"type": "unocc",
				"energy": -0.00942,
				"method": "rhf"
			},
			{
				"type": "unocc",
				"energy": 0.00561,
				"method": "rhf"
			},
			{
				"type": "unocc",
				"energy": 0.04124,
				"method": "rhf"
			},
			{
				"type": "unocc",
				"energy": 0.0807,
				"method": "rhf"
			}
		],
		"cosmo_sigma_profile": { 
			"-0.025": 0.0,
			"-0.024": 0.0,
			"-0.023": 0.0,
			"-0.022": 0.0,
			"-0.021": 0.0,
			"-0.02": 0.333109320211,
			"-0.019": 1.08923079811,
			"-0.018": 1.4384051831,
			"-0.017": 0.851155212956,
			"-0.016": 0.881573208873,
			"-0.015": 0.623083579857,
			"-0.014": 1.00259769693,
			"-0.013": 1.83645795484,
			"-0.012": 1.3576100908,
			"-0.011": 1.01029443531,
			"-0.01": 1.83062662218,
			"-0.009": 2.24796157923,
			"-0.008": 6.13629261302,
			"-0.007": 7.94812884394,
			"-0.006": 7.67720410079,
			"-0.005": 7.82326205119,
			"-0.004": 7.03388631611,
			"-0.003": 8.08117232801,
			"-0.002": 9.61075728055,
			"-0.001": 11.4148688065,
			"0.0": 17.7605507243,
			"0.001": 21.7179401237,
			"0.002": 16.5833357563,
			"0.003": 8.65090772779,
			"0.004": 12.5244910565,
			"0.005": 5.19802297884,
			"0.006": 2.96306595566,
			"0.007": 3.36916592397,
			"0.008": 3.52877313961,
			"0.009": 4.65488238392,
			"0.01": 5.99310406677,
			"0.011": 6.42246436014,
			"0.012": 4.60214939963,
			"0.013": 0.798534753385,
			"0.014": 0.0,
			"0.015": 0.0,
			"0.016": 0.0,
			"0.017": 0.0,
			"0.018": 0.0,
			"0.019": 0.0,
			"0.02": 0.0,
			"0.021": 0.0,
			"0.022": 0.0,
			"0.023": 0.0,
			"0.024": 0.0,
			"0.025": 0.0
		}
	}
}
