{
	 "smiles": "CN1C=C(C=O)C(=N1)C1=CC2=C(OCCCO2)C=C1", 
	 "Tm": 373.15, 
	 "num_atms": 33, 
	 "gaussian": { 
		 "optdone": 1, 
		 "sigma_profile": "yes", 
		 "theory": "DFT", 
		 "functional": "B3LYP", 
		 "basiset": "6-31G**", 
		 "properties": { 
			 "R2extent": 6694.7743, 
			 "electric_dipole_moment_norm": 2.59281524216, 
			 "electric_quadrupole_moment_norm": 35.8270995555, 
			 "total_energy": -877.056221594, 
			 "HOMO_LUMO_gap": 0.16809, 
			 "cosmo_polarized_energy": -15.74, 
			 "cosmo_cavitation_energy": 36.61, 
			 "cosmo_dispersion_energy": -26.76, 
			 "cosmo_repulsion_energy": 2.06, 
			 "cosmo_total_nonelectrostatic_energy": 11.91, 
			 "SMD_solvation_energy": 6.71 
		},
		"coords": [
			{
				"x": 2.0573314807,
				"y": -3.1084511899,
				"z": 4.5132518606,
				"element": "C" 
			},
			{
				"x": 1.3851048375,
				"y": -2.9229768268,
				"z": 3.2402104492,
				"element": "N" 
			},
			{
				"x": 0.956938247,
				"y": -3.8627771854,
				"z": 2.3785401448,
				"element": "C" 
			},
			{
				"x": 0.3944721395,
				"y": -3.1951284239,
				"z": 1.293977717,
				"element": "C" 
			},
			{
				"x": -0.2856101892,
				"y": -3.859343282,
				"z": 0.1854072169,
				"element": "C" 
			},
			{
				"x": -0.3183389703,
				"y": -5.0726292091,
				"z": 0.0400753937,
				"element": "O" 
			},
			{
				"x": 0.5530891621,
				"y": -1.8059587584,
				"z": 1.6112615017,
				"element": "C" 
			},
			{
				"x": 1.1550508892,
				"y": -1.6608759213,
				"z": 2.7957282038,
				"element": "N" 
			},
			{
				"x": 0.1502286316,
				"y": -0.6139558961,
				"z": 0.8454463365,
				"element": "C" 
			},
			{
				"x": 0.1962098196,
				"y": -0.5944944193,
				"z": -0.5549848669,
				"element": "C" 
			},
			{
				"x": -0.1791139122,
				"y": 0.5367205722,
				"z": -1.281336197,
				"element": "C" 
			},
			{
				"x": -0.627414802,
				"y": 1.6850657845,
				"z": -0.596155737,
				"element": "C" 
			},
			{
				"x": -1.0390729384,
				"y": 2.8395267069,
				"z": -1.2171671286,
				"element": "O" 
			},
			{
				"x": -1.7557753902,
				"y": 2.6823411994,
				"z": -2.4506159495,
				"element": "C" 
			},
			{
				"x": -0.8112795996,
				"y": 2.5731141733,
				"z": -3.6487453498,
				"element": "C" 
			},
			{
				"x": 0.3539512407,
				"y": 1.6326489609,
				"z": -3.3333822183,
				"element": "C" 
			},
			{
				"x": -0.0874552961,
				"y": 0.44984981,
				"z": -2.6520395333,
				"element": "O" 
			},
			{
				"x": -0.6376914214,
				"y": 1.6779924911,
				"z": 0.802606101,
				"element": "C" 
			},
			{
				"x": -0.250542298,
				"y": 0.5523175211,
				"z": 1.5186436522,
				"element": "C" 
			},
			{
				"x": 1.4944990325,
				"y": -2.6064000754,
				"z": 5.3036577044,
				"element": "H" 
			},
			{
				"x": 3.0642118137,
				"y": -2.6851584981,
				"z": 4.4707136233,
				"element": "H" 
			},
			{
				"x": 2.1187183813,
				"y": -4.1759347929,
				"z": 4.7292570206,
				"element": "H" 
			},
			{
				"x": 1.0471423425,
				"y": -4.9217468429,
				"z": 2.5699972287,
				"element": "H" 
			},
			{
				"x": -0.8045529,
				"y": -3.1900931263,
				"z": -0.5297531825,
				"element": "H" 
			},
			{
				"x": 0.5693530151,
				"y": -1.4425349277,
				"z": -1.1183536712,
				"element": "H" 
			},
			{
				"x": -2.3971236458,
				"y": 3.5640891973,
				"z": -2.5344623924,
				"element": "H" 
			},
			{
				"x": -2.3990976225,
				"y": 1.7975136142,
				"z": -2.386385844,
				"element": "H" 
			},
			{
				"x": -1.3825112965,
				"y": 2.2088723985,
				"z": -4.5108533557,
				"element": "H" 
			},
			{
				"x": -0.4065021123,
				"y": 3.5564829608,
				"z": -3.9157121899,
				"element": "H" 
			},
			{
				"x": 1.1072857425,
				"y": 2.144165086,
				"z": -2.7234069231,
				"element": "H" 
			},
			{
				"x": 0.8381813903,
				"y": 1.284968186,
				"z": -4.2502236212,
				"element": "H" 
			},
			{
				"x": -0.9796131264,
				"y": 2.5754588584,
				"z": 1.3080908144,
				"element": "H" 
			},
			{
				"x": -0.2739726449,
				"y": 0.5565318552,
				"z": 2.6025131918,
				"element": "H" 
			}
		],
		 "valence_orbital": [ 
			{
				"type": "occ",
				"energy": -0.26704,
				"method": "rhf"
			},
			{
				"type": "occ",
				"energy": -0.25118,
				"method": "rhf"
			},
			{
				"type": "occ",
				"energy": -0.24228,
				"method": "rhf"
			},
			{
				"type": "occ",
				"energy": -0.23221,
				"method": "rhf"
			},
			{
				"type": "occ",
				"energy": -0.20763,
				"method": "rhf"
			},
			{
				"type": "unocc",
				"energy": -0.03954,
				"method": "rhf"
			},
			{
				"type": "unocc",
				"energy": -0.0149,
				"method": "rhf"
			},
			{
				"type": "unocc",
				"energy": 0.00242,
				"method": "rhf"
			},
			{
				"type": "unocc",
				"energy": 0.03792,
				"method": "rhf"
			},
			{
				"type": "unocc",
				"energy": 0.07567,
				"method": "rhf"
			}
		],
		"cosmo_sigma_profile": { 
			"-0.025": 0.0,
			"-0.024": 0.0,
			"-0.023": 0.0,
			"-0.022": 0.0,
			"-0.021": 0.0,
			"-0.02": 0.0,
			"-0.019": 0.0,
			"-0.018": 0.0,
			"-0.017": 0.0,
			"-0.016": 0.0,
			"-0.015": 0.0,
			"-0.014": 0.0,
			"-0.013": 0.0,
			"-0.012": 0.0,
			"-0.011": 0.205842922456,
			"-0.01": 2.5495232043,
			"-0.009": 2.34089993499,
			"-0.008": 2.46997869728,
			"-0.007": 6.71769922169,
			"-0.006": 15.8135119997,
			"-0.005": 25.3173312516,
			"-0.004": 37.3936975866,
			"-0.003": 29.2480649499,
			"-0.002": 18.5252510199,
			"-0.001": 14.7383015519,
			"0.0": 14.3528789505,
			"0.001": 17.8223946011,
			"0.002": 18.7481810217,
			"0.003": 16.455106895,
			"0.004": 14.3703416908,
			"0.005": 11.7480883561,
			"0.006": 6.88562974655,
			"0.007": 4.39411568582,
			"0.008": 4.56087558993,
			"0.009": 4.84172544865,
			"0.01": 6.07649708577,
			"0.011": 5.87098016212,
			"0.012": 5.6974208323,
			"0.013": 2.86806848101,
			"0.014": 1.28090167395,
			"0.015": 0.130736104482,
			"0.016": 0.0,
			"0.017": 0.0,
			"0.018": 0.0,
			"0.019": 0.0,
			"0.02": 0.0,
			"0.021": 0.0,
			"0.022": 0.0,
			"0.023": 0.0,
			"0.024": 0.0,
			"0.025": 0.0
		}
	}
}
