{
	 "smiles": "O=C(NC1=C(C=CC=C1)C#N)C1=NC=CC=C1", 
	 "Tm": 410.15, 
	 "num_atms": 26, 
	 "gaussian": { 
		 "optdone": 1, 
		 "sigma_profile": "yes", 
		 "theory": "DFT", 
		 "functional": "B3LYP", 
		 "basiset": "6-31G**", 
		 "properties": { 
			 "R2extent": 4612.231, 
			 "electric_dipole_moment_norm": 4.71105347242, 
			 "electric_quadrupole_moment_norm": 20.8337137189, 
			 "total_energy": -740.272646889, 
			 "HOMO_LUMO_gap": 0.18416, 
			 "cosmo_polarized_energy": -17.62, 
			 "cosmo_cavitation_energy": 32.14, 
			 "cosmo_dispersion_energy": -21.69, 
			 "cosmo_repulsion_energy": 1.69, 
			 "cosmo_total_nonelectrostatic_energy": 12.15, 
			 "SMD_solvation_energy": 6.74 
		},
		"coords": [
			{
				"x": 0.5465029508,
				"y": 2.7388124927,
				"z": 3.2663176403,
				"element": "O" 
			},
			{
				"x": 0.5968415122,
				"y": 2.0429468365,
				"z": 2.2602525851,
				"element": "C" 
			},
			{
				"x": -0.3005441938,
				"y": 1.0000310058,
				"z": 2.1039814209,
				"element": "N" 
			},
			{
				"x": -0.3519974055,
				"y": -0.0940679037,
				"z": 1.2079463508,
				"element": "C" 
			},
			{
				"x": 0.733606129,
				"y": -0.9832497523,
				"z": 1.0372429874,
				"element": "C" 
			},
			{
				"x": 0.6091788612,
				"y": -2.0842605548,
				"z": 0.1736308801,
				"element": "C" 
			},
			{
				"x": -0.5900249633,
				"y": -2.3313948478,
				"z": -0.4864230113,
				"element": "C" 
			},
			{
				"x": -1.6753616463,
				"y": -1.4749446872,
				"z": -0.2876514395,
				"element": "C" 
			},
			{
				"x": -1.5536450119,
				"y": -0.3662489594,
				"z": 0.5473365865,
				"element": "C" 
			},
			{
				"x": 1.959016505,
				"y": -0.7983570787,
				"z": 1.7544655421,
				"element": "C" 
			},
			{
				"x": 2.9591837538,
				"y": -0.6753409152,
				"z": 2.3361777575,
				"element": "N" 
			},
			{
				"x": 1.5670902809,
				"y": 2.3612812041,
				"z": 1.1540525439,
				"element": "C" 
			},
			{
				"x": 1.2993537998,
				"y": 1.9255144058,
				"z": -0.0840071251,
				"element": "N" 
			},
			{
				"x": 2.1443611456,
				"y": 2.2744468445,
				"z": -1.0593633705,
				"element": "C" 
			},
			{
				"x": 3.2814886937,
				"y": 3.0564440856,
				"z": -0.8476666465,
				"element": "C" 
			},
			{
				"x": 3.548399746,
				"y": 3.5067595388,
				"z": 0.4455707598,
				"element": "C" 
			},
			{
				"x": 2.6713871055,
				"y": 3.1606361953,
				"z": 1.4691769825,
				"element": "C" 
			},
			{
				"x": -0.9973295018,
				"y": 1.010909173,
				"z": 2.8395302878,
				"element": "H" 
			},
			{
				"x": 1.4580596257,
				"y": -2.747706106,
				"z": 0.0463840752,
				"element": "H" 
			},
			{
				"x": -0.6795525397,
				"y": -3.1897610658,
				"z": -1.1442456912,
				"element": "H" 
			},
			{
				"x": -2.6175309342,
				"y": -1.6625989651,
				"z": -0.7938308386,
				"element": "H" 
			},
			{
				"x": -2.3870365577,
				"y": 0.315874119,
				"z": 0.6832907085,
				"element": "H" 
			},
			{
				"x": 1.9008086503,
				"y": 1.9128666953,
				"z": -2.0566446387,
				"element": "H" 
			},
			{
				"x": 3.9362255592,
				"y": 3.3042662557,
				"z": -1.6771736794,
				"element": "H" 
			},
			{
				"x": 4.4226087894,
				"y": 4.1172306259,
				"z": 0.6512649663,
				"element": "H" 
			},
			{
				"x": 2.8116096461,
				"y": 3.488511358,
				"z": 2.4920843663,
				"element": "H" 
			}
		],
		 "valence_orbital": [ 
			{
				"type": "occ",
				"energy": -0.27938,
				"method": "rhf"
			},
			{
				"type": "occ",
				"energy": -0.26994,
				"method": "rhf"
			},
			{
				"type": "occ",
				"energy": -0.26675,
				"method": "rhf"
			},
			{
				"type": "occ",
				"energy": -0.25376,
				"method": "rhf"
			},
			{
				"type": "occ",
				"energy": -0.24183,
				"method": "rhf"
			},
			{
				"type": "unocc",
				"energy": -0.05767,
				"method": "rhf"
			},
			{
				"type": "unocc",
				"energy": -0.04778,
				"method": "rhf"
			},
			{
				"type": "unocc",
				"energy": -0.03028,
				"method": "rhf"
			},
			{
				"type": "unocc",
				"energy": -0.01846,
				"method": "rhf"
			},
			{
				"type": "unocc",
				"energy": 0.03658,
				"method": "rhf"
			}
		],
		"cosmo_sigma_profile": { 
			"-0.025": 0.0,
			"-0.024": 0.0,
			"-0.023": 0.0,
			"-0.022": 0.0,
			"-0.021": 0.0,
			"-0.02": 0.0,
			"-0.019": 0.0,
			"-0.018": 0.0,
			"-0.017": 0.0,
			"-0.016": 0.00291139207823,
			"-0.015": 0.690535129128,
			"-0.014": 1.09930085093,
			"-0.013": 1.18766771741,
			"-0.012": 0.870575484693,
			"-0.011": 1.25611642591,
			"-0.01": 0.83628312333,
			"-0.009": 0.825291317635,
			"-0.008": 5.62852826275,
			"-0.007": 18.1272336311,
			"-0.006": 20.1225265263,
			"-0.005": 16.674706587,
			"-0.004": 13.6948222347,
			"-0.003": 12.0083450107,
			"-0.002": 13.4578064492,
			"-0.001": 15.7567944422,
			"0.0": 18.4323262216,
			"0.001": 25.5615026012,
			"0.002": 21.8149607147,
			"0.003": 13.2737990516,
			"0.004": 8.80041566524,
			"0.005": 5.69417090754,
			"0.006": 5.02723023912,
			"0.007": 5.46434923923,
			"0.008": 5.0106570973,
			"0.009": 5.81886093087,
			"0.01": 5.49290965653,
			"0.011": 5.23766044304,
			"0.012": 7.05899783817,
			"0.013": 4.58123118352,
			"0.014": 0.0965793922541,
			"0.015": 0.0,
			"0.016": 0.0,
			"0.017": 0.0,
			"0.018": 0.0,
			"0.019": 0.0,
			"0.02": 0.0,
			"0.021": 0.0,
			"0.022": 0.0,
			"0.023": 0.0,
			"0.024": 0.0,
			"0.025": 0.0
		}
	}
}
