{
	 "smiles": "CC(C)CCN1C=C(N=N1)C(O)=O", 
	 "Tm": 461.15, 
	 "num_atms": 26, 
	 "gaussian": { 
		 "optdone": 1, 
		 "sigma_profile": "yes", 
		 "theory": "DFT", 
		 "functional": "B3LYP", 
		 "basiset": "6-31G**", 
		 "properties": { 
			 "R2extent": 3464.2113, 
			 "electric_dipole_moment_norm": 6.20912345263, 
			 "electric_quadrupole_moment_norm": 20.4070071049, 
			 "total_energy": -627.374679483, 
			 "HOMO_LUMO_gap": 0.23811, 
			 "cosmo_polarized_energy": -15.65, 
			 "cosmo_cavitation_energy": 29.31, 
			 "cosmo_dispersion_energy": -20.58, 
			 "cosmo_repulsion_energy": 1.65, 
			 "cosmo_total_nonelectrostatic_energy": 10.38, 
			 "SMD_solvation_energy": 5.3 
		},
		"coords": [
			{
				"x": -0.8297495632,
				"y": 2.8559609453,
				"z": 0.7938760807,
				"element": "C" 
			},
			{
				"x": -1.5301571197,
				"y": 1.4905612661,
				"z": 0.87467098,
				"element": "C" 
			},
			{
				"x": -0.9590459011,
				"y": 0.6368862724,
				"z": 2.01902272,
				"element": "C" 
			},
			{
				"x": -1.5717900777,
				"y": 0.7623571184,
				"z": -0.4888042081,
				"element": "C" 
			},
			{
				"x": -0.2401220143,
				"y": 0.4671962575,
				"z": -1.1939900654,
				"element": "C" 
			},
			{
				"x": 0.5518317254,
				"y": -0.5953774279,
				"z": -0.56201723,
				"element": "N" 
			},
			{
				"x": 1.8362359101,
				"y": -0.566476256,
				"z": -0.1421031353,
				"element": "C" 
			},
			{
				"x": 2.0642186582,
				"y": -1.8424320532,
				"z": 0.3322253034,
				"element": "C" 
			},
			{
				"x": 0.922616464,
				"y": -2.5700606481,
				"z": 0.1720335154,
				"element": "N" 
			},
			{
				"x": 0.0063427546,
				"y": -1.8208964763,
				"z": -0.3715288191,
				"element": "N" 
			},
			{
				"x": 3.2859958815,
				"y": -2.4298083342,
				"z": 0.9268479747,
				"element": "C" 
			},
			{
				"x": 3.1504123697,
				"y": -3.7243555132,
				"z": 1.2820723919,
				"element": "O" 
			},
			{
				"x": 4.3154100459,
				"y": -1.8142351059,
				"z": 1.0837718185,
				"element": "O" 
			},
			{
				"x": 0.2474058941,
				"y": 2.7534887657,
				"z": 0.6152105061,
				"element": "H" 
			},
			{
				"x": -1.2453725962,
				"y": 3.4778796483,
				"z": -0.0071487193,
				"element": "H" 
			},
			{
				"x": -0.943999805,
				"y": 3.4048403097,
				"z": 1.7340985709,
				"element": "H" 
			},
			{
				"x": -2.5845245529,
				"y": 1.6841639416,
				"z": 1.1177562314,
				"element": "H" 
			},
			{
				"x": 0.1195815446,
				"y": 0.4807603157,
				"z": 1.9168007686,
				"element": "H" 
			},
			{
				"x": -1.4350158805,
				"y": -0.3477571398,
				"z": 2.0612825321,
				"element": "H" 
			},
			{
				"x": -1.1238918318,
				"y": 1.1323353811,
				"z": 2.9816709282,
				"element": "H" 
			},
			{
				"x": -2.116733641,
				"y": -0.1819406713,
				"z": -0.3869779969,
				"element": "H" 
			},
			{
				"x": -2.147558144,
				"y": 1.379580746,
				"z": -1.1905094181,
				"element": "H" 
			},
			{
				"x": 0.4017541731,
				"y": 1.3501509679,
				"z": -1.2362498648,
				"element": "H" 
			},
			{
				"x": -0.4373824334,
				"y": 0.1521130799,
				"z": -2.2232125456,
				"element": "H" 
			},
			{
				"x": 2.4679128745,
				"y": 0.3051603483,
				"z": -0.2022905996,
				"element": "H" 
			},
			{
				"x": 2.2438252651,
				"y": -4.008495738,
				"z": 1.0631922802,
				"element": "H" 
			}
		],
		 "valence_orbital": [ 
			{
				"type": "occ",
				"energy": -0.31201,
				"method": "rhf"
			},
			{
				"type": "occ",
				"energy": -0.30738,
				"method": "rhf"
			},
			{
				"type": "occ",
				"energy": -0.29571,
				"method": "rhf"
			},
			{
				"type": "occ",
				"energy": -0.27846,
				"method": "rhf"
			},
			{
				"type": "occ",
				"energy": -0.27112,
				"method": "rhf"
			},
			{
				"type": "unocc",
				"energy": -0.03301,
				"method": "rhf"
			},
			{
				"type": "unocc",
				"energy": -0.02487,
				"method": "rhf"
			},
			{
				"type": "unocc",
				"energy": 0.05547,
				"method": "rhf"
			},
			{
				"type": "unocc",
				"energy": 0.0792,
				"method": "rhf"
			},
			{
				"type": "unocc",
				"energy": 0.10278,
				"method": "rhf"
			}
		],
		"cosmo_sigma_profile": { 
			"-0.025": 0.0,
			"-0.024": 0.0,
			"-0.023": 0.0,
			"-0.022": 0.0,
			"-0.021": 0.0,
			"-0.02": 0.0,
			"-0.019": 0.0,
			"-0.018": 0.0,
			"-0.017": 0.0,
			"-0.016": 0.0,
			"-0.015": 0.316897674131,
			"-0.014": 0.59707335253,
			"-0.013": 0.454576675864,
			"-0.012": 0.746635880062,
			"-0.011": 3.62585048565,
			"-0.01": 2.80966667307,
			"-0.009": 2.61713214459,
			"-0.008": 2.75915244015,
			"-0.007": 6.5653800367,
			"-0.006": 8.58846213352,
			"-0.005": 10.7015818311,
			"-0.004": 13.6652835407,
			"-0.003": 18.9446640917,
			"-0.002": 27.3931715731,
			"-0.001": 27.4848913654,
			"0.0": 19.2029988718,
			"0.001": 18.9961787922,
			"0.002": 11.0133385504,
			"0.003": 3.22073990566,
			"0.004": 4.60441206454,
			"0.005": 4.35974417183,
			"0.006": 4.27141005,
			"0.007": 3.03994210259,
			"0.008": 5.44357991883,
			"0.009": 7.51406274536,
			"0.01": 8.01773633184,
			"0.011": 6.80152711676,
			"0.012": 5.076306615,
			"0.013": 1.52853304905,
			"0.014": 0.045941042791,
			"0.015": 0.0,
			"0.016": 0.0,
			"0.017": 0.0,
			"0.018": 0.0,
			"0.019": 0.0,
			"0.02": 0.0,
			"0.021": 0.0,
			"0.022": 0.0,
			"0.023": 0.0,
			"0.024": 0.0,
			"0.025": 0.0
		}
	}
}
