{
	 "smiles": "[O-][N+](=O)C1=CNC(=O)NC1=O", 
	 "Tm": 573.15, 
	 "num_atms": 14, 
	 "gaussian": { 
		 "optdone": 1, 
		 "sigma_profile": "yes", 
		 "theory": "DFT", 
		 "functional": "B3LYP", 
		 "basiset": "6-31G**", 
		 "properties": { 
			 "R2extent": 1667.9409, 
			 "electric_dipole_moment_norm": 4.94260920061, 
			 "electric_quadrupole_moment_norm": 15.7873450852, 
			 "total_energy": -619.300288087, 
			 "HOMO_LUMO_gap": 0.18086, 
			 "cosmo_polarized_energy": -24.62, 
			 "cosmo_cavitation_energy": 20.25, 
			 "cosmo_dispersion_energy": -15.27, 
			 "cosmo_repulsion_energy": 1.23, 
			 "cosmo_total_nonelectrostatic_energy": 6.21, 
			 "SMD_solvation_energy": 7.81 
		},
		"coords": [
			{
				"x": 1.5484457398,
				"y": 2.6121956562,
				"z": 0.0361254978,
				"element": "O" 
			},
			{
				"x": 0.8858310824,
				"y": 1.9659787872,
				"z": -0.7635977175,
				"element": "N" 
			},
			{
				"x": 0.7268921563,
				"y": 2.259440875,
				"z": -1.9554667896,
				"element": "O" 
			},
			{
				"x": 0.2265343619,
				"y": 0.7544331514,
				"z": -0.2923794785,
				"element": "C" 
			},
			{
				"x": -0.5018154982,
				"y": 0.0517047008,
				"z": -1.2013613817,
				"element": "C" 
			},
			{
				"x": -1.155052236,
				"y": -1.0880234743,
				"z": -0.872672492,
				"element": "N" 
			},
			{
				"x": -1.1456205322,
				"y": -1.6484222779,
				"z": 0.4178858492,
				"element": "C" 
			},
			{
				"x": -1.7408189001,
				"y": -2.6714376191,
				"z": 0.6816341977,
				"element": "O" 
			},
			{
				"x": -0.3973887949,
				"y": -0.9067830179,
				"z": 1.3089513491,
				"element": "N" 
			},
			{
				"x": 0.331993836,
				"y": 0.2938412106,
				"z": 1.103668394,
				"element": "C" 
			},
			{
				"x": 0.9319396406,
				"y": 0.7956321878,
				"z": 2.0280327318,
				"element": "O" 
			},
			{
				"x": -0.5725819167,
				"y": 0.3998968858,
				"z": -2.224736695,
				"element": "H" 
			},
			{
				"x": -1.6925319773,
				"y": -1.5999166027,
				"z": -1.5594349662,
				"element": "H" 
			},
			{
				"x": -0.3589269614,
				"y": -1.2692404628,
				"z": 2.2549515008,
				"element": "H" 
			}
		],
		 "valence_orbital": [ 
			{
				"type": "occ",
				"energy": -0.31684,
				"method": "rhf"
			},
			{
				"type": "occ",
				"energy": -0.3118,
				"method": "rhf"
			},
			{
				"type": "occ",
				"energy": -0.30051,
				"method": "rhf"
			},
			{
				"type": "occ",
				"energy": -0.28809,
				"method": "rhf"
			},
			{
				"type": "occ",
				"energy": -0.28293,
				"method": "rhf"
			},
			{
				"type": "unocc",
				"energy": -0.10207,
				"method": "rhf"
			},
			{
				"type": "unocc",
				"energy": -0.05242,
				"method": "rhf"
			},
			{
				"type": "unocc",
				"energy": -0.00813,
				"method": "rhf"
			},
			{
				"type": "unocc",
				"energy": 0.02866,
				"method": "rhf"
			},
			{
				"type": "unocc",
				"energy": 0.08203,
				"method": "rhf"
			}
		],
		"cosmo_sigma_profile": { 
			"-0.025": 0.0,
			"-0.024": 0.0,
			"-0.023": 0.0,
			"-0.022": 0.0,
			"-0.021": 0.0,
			"-0.02": 0.00426562133401,
			"-0.019": 1.02392942271,
			"-0.018": 1.96204091442,
			"-0.017": 2.30752734314,
			"-0.016": 1.95007429855,
			"-0.015": 2.1327732837,
			"-0.014": 2.41597711783,
			"-0.013": 2.69174956101,
			"-0.012": 2.52786629389,
			"-0.011": 2.08481238537,
			"-0.01": 2.51888568997,
			"-0.009": 3.54743646114,
			"-0.008": 4.03262994406,
			"-0.007": 6.59069111981,
			"-0.006": 8.71175057765,
			"-0.005": 14.111781795,
			"-0.004": 8.95949563673,
			"-0.003": 6.71884194009,
			"-0.002": 3.63676054136,
			"-0.001": 3.45114622963,
			"0.0": 3.91727017686,
			"0.001": 3.79077976572,
			"0.002": 3.17805535041,
			"0.003": 3.2922141068,
			"0.004": 4.42596310099,
			"0.005": 3.91159626297,
			"0.006": 5.1529393459,
			"0.007": 8.11210849804,
			"0.008": 9.76002538113,
			"0.009": 8.44247098879,
			"0.01": 8.78533387057,
			"0.011": 11.2683891513,
			"0.012": 4.39158578283,
			"0.013": 1.73972651239,
			"0.014": 1.14989490575,
			"0.015": 0.120211337117,
			"0.016": 0.0,
			"0.017": 0.0,
			"0.018": 0.0,
			"0.019": 0.0,
			"0.02": 0.0,
			"0.021": 0.0,
			"0.022": 0.0,
			"0.023": 0.0,
			"0.024": 0.0,
			"0.025": 0.0
		}
	}
}
