{
	 "smiles": "CCCCOC(=O)C(=O)OCCCC", 
	 "Tm": 244.15, 
	 "num_atms": 32, 
	 "gaussian": { 
		 "optdone": 1, 
		 "sigma_profile": "yes", 
		 "theory": "DFT", 
		 "functional": "B3LYP", 
		 "basiset": "6-31G**", 
		 "properties": { 
			 "R2extent": 4571.5998, 
			 "electric_dipole_moment_norm": 4.26018942537, 
			 "electric_quadrupole_moment_norm": 21.0739647615, 
			 "total_energy": -692.833940369, 
			 "HOMO_LUMO_gap": 0.2229, 
			 "cosmo_polarized_energy": -11.12, 
			 "cosmo_cavitation_energy": 35.86, 
			 "cosmo_dispersion_energy": -23.93, 
			 "cosmo_repulsion_energy": 1.99, 
			 "cosmo_total_nonelectrostatic_energy": 13.92, 
			 "SMD_solvation_energy": 8.18 
		},
		"coords": [
			{
				"x": 2.5186241899,
				"y": -2.0556493366,
				"z": 2.8775045366,
				"element": "C" 
			},
			{
				"x": 2.4605149365,
				"y": -0.740105322,
				"z": 2.0956181355,
				"element": "C" 
			},
			{
				"x": 1.3342343218,
				"y": 0.1861173741,
				"z": 2.5731104922,
				"element": "C" 
			},
			{
				"x": 1.2545673983,
				"y": 1.5018572158,
				"z": 1.816789658,
				"element": "C" 
			},
			{
				"x": 0.9362739732,
				"y": 1.2003508885,
				"z": 0.4325225782,
				"element": "O" 
			},
			{
				"x": 0.861441511,
				"y": 2.255211029,
				"z": -0.3881008979,
				"element": "C" 
			},
			{
				"x": 1.0247042445,
				"y": 3.4084012776,
				"z": -0.0702449824,
				"element": "O" 
			},
			{
				"x": 0.5201656166,
				"y": 1.8533186136,
				"z": -1.8373385952,
				"element": "C" 
			},
			{
				"x": 0.2352952648,
				"y": 2.6755530148,
				"z": -2.6742118027,
				"element": "O" 
			},
			{
				"x": 0.5914039087,
				"y": 0.5311389068,
				"z": -2.0330031737,
				"element": "O" 
			},
			{
				"x": 0.2816154705,
				"y": 0.0758138917,
				"z": -3.3765677126,
				"element": "C" 
			},
			{
				"x": 0.3699624888,
				"y": -1.4427770584,
				"z": -3.3822973774,
				"element": "C" 
			},
			{
				"x": -0.6233846921,
				"y": -2.1519961806,
				"z": -2.4464999755,
				"element": "C" 
			},
			{
				"x": -2.095874382,
				"y": -1.971262226,
				"z": -2.833144256,
				"element": "C" 
			},
			{
				"x": 2.6842143927,
				"y": -1.8775941849,
				"z": 3.946317239,
				"element": "H" 
			},
			{
				"x": 3.3302094046,
				"y": -2.69623768,
				"z": 2.5181334024,
				"element": "H" 
			},
			{
				"x": 1.5830947464,
				"y": -2.6177405341,
				"z": 2.7777092424,
				"element": "H" 
			},
			{
				"x": 2.3225407839,
				"y": -0.9466748257,
				"z": 1.0282432024,
				"element": "H" 
			},
			{
				"x": 3.4208326439,
				"y": -0.214319954,
				"z": 2.1868936487,
				"element": "H" 
			},
			{
				"x": 0.3678027101,
				"y": -0.3281740574,
				"z": 2.4951808044,
				"element": "H" 
			},
			{
				"x": 1.4739062409,
				"y": 0.4268258386,
				"z": 3.6356093308,
				"element": "H" 
			},
			{
				"x": 2.2018175797,
				"y": 2.0510295549,
				"z": 1.8422760799,
				"element": "H" 
			},
			{
				"x": 0.4767950699,
				"y": 2.160948795,
				"z": 2.2149737462,
				"element": "H" 
			},
			{
				"x": -0.712745125,
				"y": 0.4437767608,
				"z": -3.6458155992,
				"element": "H" 
			},
			{
				"x": 0.9983854028,
				"y": 0.5273788153,
				"z": -4.0695902737,
				"element": "H" 
			},
			{
				"x": 0.2096850435,
				"y": -1.7739696598,
				"z": -4.4172489607,
				"element": "H" 
			},
			{
				"x": 1.3941653143,
				"y": -1.7310608808,
				"z": -3.1170349605,
				"element": "H" 
			},
			{
				"x": -0.4619872381,
				"y": -1.7942089274,
				"z": -1.423124808,
				"element": "H" 
			},
			{
				"x": -0.3821301898,
				"y": -3.2219082258,
				"z": -2.4410098495,
				"element": "H" 
			},
			{
				"x": -2.748002244,
				"y": -2.5393249724,
				"z": -2.1621132981,
				"element": "H" 
			},
			{
				"x": -2.4100945847,
				"y": -0.923573552,
				"z": -2.7781432845,
				"element": "H" 
			},
			{
				"x": -2.2854342018,
				"y": -2.3214443986,
				"z": -3.8545922894,
				"element": "H" 
			}
		],
		 "valence_orbital": [ 
			{
				"type": "occ",
				"energy": -0.33326,
				"method": "rhf"
			},
			{
				"type": "occ",
				"energy": -0.3123,
				"method": "rhf"
			},
			{
				"type": "occ",
				"energy": -0.30516,
				"method": "rhf"
			},
			{
				"type": "occ",
				"energy": -0.29525,
				"method": "rhf"
			},
			{
				"type": "occ",
				"energy": -0.27615,
				"method": "rhf"
			},
			{
				"type": "unocc",
				"energy": -0.05325,
				"method": "rhf"
			},
			{
				"type": "unocc",
				"energy": 0.07843,
				"method": "rhf"
			},
			{
				"type": "unocc",
				"energy": 0.07968,
				"method": "rhf"
			},
			{
				"type": "unocc",
				"energy": 0.08716,
				"method": "rhf"
			},
			{
				"type": "unocc",
				"energy": 0.10763,
				"method": "rhf"
			}
		],
		"cosmo_sigma_profile": { 
			"-0.025": 0.0,
			"-0.024": 0.0,
			"-0.023": 0.0,
			"-0.022": 0.0,
			"-0.021": 0.0,
			"-0.02": 0.0,
			"-0.019": 0.0,
			"-0.018": 0.0,
			"-0.017": 0.0,
			"-0.016": 0.0,
			"-0.015": 0.0,
			"-0.014": 0.0,
			"-0.013": 0.0,
			"-0.012": 0.0,
			"-0.011": 0.0,
			"-0.01": 0.0,
			"-0.009": 0.00055525657005,
			"-0.008": 0.789550633179,
			"-0.007": 1.67514878696,
			"-0.006": 7.88526315324,
			"-0.005": 15.1733225436,
			"-0.004": 24.5726270955,
			"-0.003": 30.4528136093,
			"-0.002": 37.5703594599,
			"-0.001": 34.1999608212,
			"0.0": 34.7318469497,
			"0.001": 29.541012746,
			"0.002": 11.8063214144,
			"0.003": 5.37255180416,
			"0.004": 5.23062566543,
			"0.005": 3.56562884669,
			"0.006": 4.03602226249,
			"0.007": 4.19819165515,
			"0.008": 4.77556982769,
			"0.009": 4.9349186953,
			"0.01": 7.99564092848,
			"0.011": 7.08118820285,
			"0.012": 2.84686435315,
			"0.013": 0.684551355921,
			"0.014": 0.0,
			"0.015": 0.0,
			"0.016": 0.0,
			"0.017": 0.0,
			"0.018": 0.0,
			"0.019": 0.0,
			"0.02": 0.0,
			"0.021": 0.0,
			"0.022": 0.0,
			"0.023": 0.0,
			"0.024": 0.0,
			"0.025": 0.0
		}
	}
}
