{
	 "smiles": "CC1=C(C=CC(F)=C1)S(=O)(=O)NC1=CC=C(C=C1)C(O)=O", 
	 "Tm": 473.15, 
	 "num_atms": 33, 
	 "gaussian": { 
		 "optdone": 1, 
		 "sigma_profile": "yes", 
		 "theory": "DFT", 
		 "functional": "B3LYP", 
		 "basiset": "6-31G**", 
		 "properties": { 
			 "R2extent": 8326.0683, 
			 "electric_dipole_moment_norm": 5.28337229712, 
			 "electric_quadrupole_moment_norm": 35.1371587677, 
			 "total_energy": -1394.33198865, 
			 "HOMO_LUMO_gap": 0.18531, 
			 "cosmo_polarized_energy": -24.97, 
			 "cosmo_cavitation_energy": 39.14, 
			 "cosmo_dispersion_energy": -27.7, 
			 "cosmo_repulsion_energy": 2.03, 
			 "cosmo_total_nonelectrostatic_energy": 13.48, 
			 "SMD_solvation_energy": 7.6 
		},
		"coords": [
			{
				"x": 1.4038398388,
				"y": 0.7122115179,
				"z": 0.1868446169,
				"element": "C" 
			},
			{
				"x": 1.1907188643,
				"y": -0.1999189183,
				"z": 1.3722975417,
				"element": "C" 
			},
			{
				"x": 0.2029670054,
				"y": -0.018876554,
				"z": 2.3677752132,
				"element": "C" 
			},
			{
				"x": 0.0999206605,
				"y": -0.8868961713,
				"z": 3.4632704353,
				"element": "C" 
			},
			{
				"x": 0.9594476504,
				"y": -1.9719191538,
				"z": 3.5955203669,
				"element": "C" 
			},
			{
				"x": 1.9209006078,
				"y": -2.157903017,
				"z": 2.6107005029,
				"element": "C" 
			},
			{
				"x": 2.766447487,
				"y": -3.1976322341,
				"z": 2.7097870832,
				"element": "F" 
			},
			{
				"x": 2.0464929067,
				"y": -1.2981242372,
				"z": 1.5263033778,
				"element": "C" 
			},
			{
				"x": -1.0092609554,
				"y": 1.3196207325,
				"z": 2.3453647803,
				"element": "S" 
			},
			{
				"x": -0.4628963862,
				"y": 2.4644954215,
				"z": 1.6210063248,
				"element": "O" 
			},
			{
				"x": -1.5404846672,
				"y": 1.4392174807,
				"z": 3.702099276,
				"element": "O" 
			},
			{
				"x": -2.353883689,
				"y": 0.7574110127,
				"z": 1.4575900806,
				"element": "N" 
			},
			{
				"x": -2.4105267677,
				"y": 0.5663947351,
				"z": 0.0585146748,
				"element": "C" 
			},
			{
				"x": -2.0560363714,
				"y": 1.5958573422,
				"z": -0.8314109427,
				"element": "C" 
			},
			{
				"x": -2.1674931572,
				"y": 1.3899341218,
				"z": -2.2003464375,
				"element": "C" 
			},
			{
				"x": -2.6765429198,
				"y": 0.1879487957,
				"z": -2.7148681756,
				"element": "C" 
			},
			{
				"x": -3.0371403648,
				"y": -0.8291480468,
				"z": -1.8207601446,
				"element": "C" 
			},
			{
				"x": -2.8931716883,
				"y": -0.6494183899,
				"z": -0.4483358472,
				"element": "C" 
			},
			{
				"x": -2.7708942861,
				"y": 0.0474746693,
				"z": -4.2020215098,
				"element": "C" 
			},
			{
				"x": -3.6203087484,
				"y": -0.9052149586,
				"z": -4.6759728637,
				"element": "O" 
			},
			{
				"x": -2.1364294555,
				"y": 0.7274381306,
				"z": -4.9739250191,
				"element": "O" 
			},
			{
				"x": 0.5232195661,
				"y": 0.7565043621,
				"z": -0.4584999981,
				"element": "H" 
			},
			{
				"x": 2.2440711867,
				"y": 0.3537433698,
				"z": -0.4117846636,
				"element": "H" 
			},
			{
				"x": 1.6081650524,
				"y": 1.7351002238,
				"z": 0.5101420207,
				"element": "H" 
			},
			{
				"x": -0.6471553317,
				"y": -0.6893169402,
				"z": 4.2233428801,
				"element": "H" 
			},
			{
				"x": 0.8993603947,
				"y": -2.6510626057,
				"z": 4.438132958,
				"element": "H" 
			},
			{
				"x": 2.8285974805,
				"y": -1.4870919503,
				"z": 0.7987808423,
				"element": "H" 
			},
			{
				"x": -2.8647022566,
				"y": 0.0776667448,
				"z": 2.0112725671,
				"element": "H" 
			},
			{
				"x": -1.6995756664,
				"y": 2.5391656988,
				"z": -0.4371111113,
				"element": "H" 
			},
			{
				"x": -1.8827844316,
				"y": 2.1687783475,
				"z": -2.8995469186,
				"element": "H" 
			},
			{
				"x": -3.383754222,
				"y": -1.7940866003,
				"z": -2.1826368023,
				"element": "H" 
			},
			{
				"x": -3.1470369462,
				"y": -1.4558210591,
				"z": 0.2343034645,
				"element": "H" 
			},
			{
				"x": -4.1844703899,
				"y": -1.2347318705,
				"z": -3.9631285728,
				"element": "H" 
			}
		],
		 "valence_orbital": [ 
			{
				"type": "occ",
				"energy": -0.28346,
				"method": "rhf"
			},
			{
				"type": "occ",
				"energy": -0.28013,
				"method": "rhf"
			},
			{
				"type": "occ",
				"energy": -0.27926,
				"method": "rhf"
			},
			{
				"type": "occ",
				"energy": -0.27348,
				"method": "rhf"
			},
			{
				"type": "occ",
				"energy": -0.24903,
				"method": "rhf"
			},
			{
				"type": "unocc",
				"energy": -0.06372,
				"method": "rhf"
			},
			{
				"type": "unocc",
				"energy": -0.04314,
				"method": "rhf"
			},
			{
				"type": "unocc",
				"energy": -0.03511,
				"method": "rhf"
			},
			{
				"type": "unocc",
				"energy": -0.03272,
				"method": "rhf"
			},
			{
				"type": "unocc",
				"energy": 0.032,
				"method": "rhf"
			}
		],
		"cosmo_sigma_profile": { 
			"-0.025": 0.0,
			"-0.024": 0.0,
			"-0.023": 0.0,
			"-0.022": 0.0,
			"-0.021": 0.0,
			"-0.02": 0.0,
			"-0.019": 0.146500268905,
			"-0.018": 1.05205802162,
			"-0.017": 0.978618868557,
			"-0.016": 1.52042597729,
			"-0.015": 2.46363436825,
			"-0.014": 2.46731523449,
			"-0.013": 1.95511521304,
			"-0.012": 2.60255057927,
			"-0.011": 3.00760725895,
			"-0.01": 2.72456446737,
			"-0.009": 3.3243945438,
			"-0.008": 6.69078062517,
			"-0.007": 11.194149778,
			"-0.006": 12.3229976873,
			"-0.005": 13.6002018617,
			"-0.004": 13.4834500382,
			"-0.003": 15.7861803439,
			"-0.002": 19.9072422865,
			"-0.001": 29.2120483472,
			"0.0": 26.8440657601,
			"0.001": 27.4033120943,
			"0.002": 23.6720653746,
			"0.003": 17.1312107618,
			"0.004": 14.2935314691,
			"0.005": 5.86730782489,
			"0.006": 6.27501566984,
			"0.007": 6.03345409385,
			"0.008": 6.38288098789,
			"0.009": 7.13283971684,
			"0.01": 11.1148488416,
			"0.011": 10.099907177,
			"0.012": 5.66436167464,
			"0.013": 1.64733646963,
			"0.014": 0.0742798743805,
			"0.015": 0.0,
			"0.016": 0.0,
			"0.017": 0.0,
			"0.018": 0.0,
			"0.019": 0.0,
			"0.02": 0.0,
			"0.021": 0.0,
			"0.022": 0.0,
			"0.023": 0.0,
			"0.024": 0.0,
			"0.0": 0.0
		}
	}
}
