{
	 "smiles": "OC1=CC=C(OC(=O)C2=CC=CC=C2)C=C1", 
	 "Tm": 438.65, 
	 "num_atms": 26, 
	 "gaussian": { 
		 "optdone": 1, 
		 "sigma_profile": "yes", 
		 "theory": "DFT", 
		 "functional": "B3LYP", 
		 "basiset": "6-31G**", 
		 "properties": { 
			 "R2extent": 5236.2805, 
			 "electric_dipole_moment_norm": 1.39807005905, 
			 "electric_quadrupole_moment_norm": 20.3030034847, 
			 "total_energy": -727.086844406, 
			 "HOMO_LUMO_gap": 0.1664, 
			 "cosmo_polarized_energy": -12.56, 
			 "cosmo_cavitation_energy": 31.37, 
			 "cosmo_dispersion_energy": -22.94, 
			 "cosmo_repulsion_energy": 1.77, 
			 "cosmo_total_nonelectrostatic_energy": 10.19, 
			 "SMD_solvation_energy": 6.63 
		},
		"coords": [
			{
				"x": -4.1349381518,
				"y": 3.4536905306,
				"z": 1.6049773329,
				"element": "O" 
			},
			{
				"x": -3.0432765245,
				"y": 2.7146219021,
				"z": 1.2432461598,
				"element": "C" 
			},
			{
				"x": -3.106336724,
				"y": 1.3387562688,
				"z": 0.9995162239,
				"element": "C" 
			},
			{
				"x": -1.9621251403,
				"y": 0.6297414619,
				"z": 0.632795484,
				"element": "C" 
			},
			{
				"x": -0.7528265334,
				"y": 1.3105767808,
				"z": 0.5057256745,
				"element": "C" 
			},
			{
				"x": 0.4586650539,
				"y": 0.675688891,
				"z": 0.2186107382,
				"element": "O" 
			},
			{
				"x": 0.5499791317,
				"y": -0.2607939821,
				"z": -0.7732021075,
				"element": "C" 
			},
			{
				"x": -0.3862657126,
				"y": -0.6276962475,
				"z": -1.4497443111,
				"element": "O" 
			},
			{
				"x": 1.9427079074,
				"y": -0.7707617898,
				"z": -0.91096252,
				"element": "C" 
			},
			{
				"x": 2.1851003928,
				"y": -1.7297004485,
				"z": -1.9049367682,
				"element": "C" 
			},
			{
				"x": 3.4669898232,
				"y": -2.2435164061,
				"z": -2.0819735565,
				"element": "C" 
			},
			{
				"x": 4.5138793754,
				"y": -1.8042731368,
				"z": -1.2668150397,
				"element": "C" 
			},
			{
				"x": 4.2761112203,
				"y": -0.8496093818,
				"z": -0.2748534234,
				"element": "C" 
			},
			{
				"x": 2.9948563664,
				"y": -0.3311978364,
				"z": -0.0946174475,
				"element": "C" 
			},
			{
				"x": -0.6804479308,
				"y": 2.6820811361,
				"z": 0.7499666439,
				"element": "C" 
			},
			{
				"x": -1.8218423269,
				"y": 3.3861918013,
				"z": 1.1199173952,
				"element": "C" 
			},
			{
				"x": -4.9075917718,
				"y": 2.8759867575,
				"z": 1.6498630326,
				"element": "H" 
			},
			{
				"x": -4.0535757198,
				"y": 0.8123038342,
				"z": 1.0950144571,
				"element": "H" 
			},
			{
				"x": -2.0171422877,
				"y": -0.432665619,
				"z": 0.4368726114,
				"element": "H" 
			},
			{
				"x": 1.3562343426,
				"y": -2.0551674144,
				"z": -2.5242959337,
				"element": "H" 
			},
			{
				"x": 3.6513686211,
				"y": -2.9854643842,
				"z": -2.8532242921,
				"element": "H" 
			},
			{
				"x": 5.5140035752,
				"y": -2.205507795,
				"z": -1.4044636123,
				"element": "H" 
			},
			{
				"x": 5.08982542,
				"y": -0.5088723328,
				"z": 0.3585329364,
				"element": "H" 
			},
			{
				"x": 2.8031812033,
				"y": 0.4096075458,
				"z": 0.6726732387,
				"element": "H" 
			},
			{
				"x": 0.2750936852,
				"y": 3.1863217501,
				"z": 0.6500413548,
				"element": "H" 
			},
			{
				"x": -1.7845272948,
				"y": 4.4526581142,
				"z": 1.3140357286,
				"element": "H" 
			}
		],
		 "valence_orbital": [ 
			{
				"type": "occ",
				"energy": -0.27766,
				"method": "rhf"
			},
			{
				"type": "occ",
				"energy": -0.26193,
				"method": "rhf"
			},
			{
				"type": "occ",
				"energy": -0.25969,
				"method": "rhf"
			},
			{
				"type": "occ",
				"energy": -0.25497,
				"method": "rhf"
			},
			{
				"type": "occ",
				"energy": -0.21606,
				"method": "rhf"
			},
			{
				"type": "unocc",
				"energy": -0.04966,
				"method": "rhf"
			},
			{
				"type": "unocc",
				"energy": -0.0091,
				"method": "rhf"
			},
			{
				"type": "unocc",
				"energy": -0.00612,
				"method": "rhf"
			},
			{
				"type": "unocc",
				"energy": 0.01489,
				"method": "rhf"
			},
			{
				"type": "unocc",
				"energy": 0.05825,
				"method": "rhf"
			}
		],
		"cosmo_sigma_profile": { 
			"-0.025": 0.0,
			"-0.024": 0.0,
			"-0.023": 0.0,
			"-0.022": 0.0,
			"-0.021": 0.0,
			"-0.02": 0.0,
			"-0.019": 0.0,
			"-0.018": 0.550441995651,
			"-0.017": 1.08872924443,
			"-0.016": 1.17378087185,
			"-0.015": 1.30471275374,
			"-0.014": 0.824357030406,
			"-0.013": 0.66192744276,
			"-0.012": 0.791226930588,
			"-0.011": 0.827293646693,
			"-0.01": 1.54209972584,
			"-0.009": 1.5640925178,
			"-0.008": 0.853236063128,
			"-0.007": 4.89999347565,
			"-0.006": 14.9635449094,
			"-0.005": 18.5314905672,
			"-0.004": 17.1908236314,
			"-0.003": 13.6651941642,
			"-0.002": 16.6640781344,
			"-0.001": 13.098015248,
			"0.0": 16.0728369485,
			"0.001": 19.4759376241,
			"0.002": 20.7811303722,
			"0.003": 24.4811785277,
			"0.004": 26.9527617725,
			"0.005": 9.00106623503,
			"0.006": 3.56496219014,
			"0.007": 2.98087987398,
			"0.008": 3.22516561379,
			"0.009": 3.2917610931,
			"0.01": 4.01950757506,
			"0.011": 5.88534236986,
			"0.012": 2.07484556687,
			"0.013": 0.0,
			"0.014": 0.0,
			"0.015": 0.0,
			"0.016": 0.0,
			"0.017": 0.0,
			"0.018": 0.0,
			"0.019": 0.0,
			"0.02": 0.0,
			"0.021": 0.0,
			"0.022": 0.0,
			"0.023": 0.0,
			"0.024": 0.0,
			"0.025": 0.0
		}
	}
}
