{
	 "smiles": "OC(=O)C1=C(Cl)C=CC(=C1)C1=NC=CC=C1", 
	 "Tm": 489.15, 
	 "num_atms": 24, 
	 "gaussian": { 
		 "optdone": 1, 
		 "sigma_profile": "yes", 
		 "theory": "DFT", 
		 "functional": "B3LYP", 
		 "basiset": "6-31G**", 
		 "properties": { 
			 "R2extent": 5338.8254, 
			 "electric_dipole_moment_norm": 7.50315290728, 
			 "electric_quadrupole_moment_norm": 20.068554281, 
			 "total_energy": -1127.4949172, 
			 "HOMO_LUMO_gap": 0.17724, 
			 "cosmo_polarized_energy": -16.87, 
			 "cosmo_cavitation_energy": 30.92, 
			 "cosmo_dispersion_energy": -22.76, 
			 "cosmo_repulsion_energy": 1.75, 
			 "cosmo_total_nonelectrostatic_energy": 9.91, 
			 "SMD_solvation_energy": 5.07 
		},
		"coords": [
			{
				"x": -0.9760452344,
				"y": 3.7187760887,
				"z": 1.4732704995,
				"element": "O" 
			},
			{
				"x": -1.6373968275,
				"y": 2.7375111776,
				"z": 2.1454836328,
				"element": "C" 
			},
			{
				"x": -2.2357571981,
				"y": 2.9901580656,
				"z": 3.1595345751,
				"element": "O" 
			},
			{
				"x": -1.5081527084,
				"y": 1.3606383111,
				"z": 1.5478510948,
				"element": "C" 
			},
			{
				"x": -2.5691526504,
				"y": 0.4380869404,
				"z": 1.5150632916,
				"element": "C" 
			},
			{
				"x": -4.1759165553,
				"y": 0.8535712346,
				"z": 2.0624887694,
				"element": "Cl" 
			},
			{
				"x": -2.3707565706,
				"y": -0.8391078781,
				"z": 0.9898421502,
				"element": "C" 
			},
			{
				"x": -1.1179553023,
				"y": -1.219974689,
				"z": 0.5175714713,
				"element": "C" 
			},
			{
				"x": -0.0343887702,
				"y": -0.3306511464,
				"z": 0.5504795389,
				"element": "C" 
			},
			{
				"x": -0.2605137754,
				"y": 0.9555884494,
				"z": 1.0580836121,
				"element": "C" 
			},
			{
				"x": 1.3217018489,
				"y": -0.6956434906,
				"z": 0.0600665109,
				"element": "C" 
			},
			{
				"x": 2.1590821616,
				"y": 0.3306181112,
				"z": -0.1854093597,
				"element": "N" 
			},
			{
				"x": 3.3885704952,
				"y": 0.0603874161,
				"z": -0.6284802522,
				"element": "C" 
			},
			{
				"x": 3.8619710394,
				"y": -1.2324946769,
				"z": -0.8582212334,
				"element": "C" 
			},
			{
				"x": 3.0023909213,
				"y": -2.2971580426,
				"z": -0.5934499266,
				"element": "C" 
			},
			{
				"x": 1.718997974,
				"y": -2.0299980457,
				"z": -0.1243845937,
				"element": "C" 
			},
			{
				"x": -0.6464916294,
				"y": 3.378387328,
				"z": 0.6291478165,
				"element": "H" 
			},
			{
				"x": -3.2062517629,
				"y": -1.5286783197,
				"z": 0.9454632234,
				"element": "H" 
			},
			{
				"x": -1.0036011984,
				"y": -2.2146928365,
				"z": 0.0997163106,
				"element": "H" 
			},
			{
				"x": 0.5834535953,
				"y": 1.6366099631,
				"z": 1.0902310727,
				"element": "H" 
			},
			{
				"x": 4.0290050968,
				"y": 0.9215240306,
				"z": -0.811655132,
				"element": "H" 
			},
			{
				"x": 4.870682115,
				"y": -1.3940870575,
				"z": -1.2237423047,
				"element": "H" 
			},
			{
				"x": 3.3274789057,
				"y": -3.3229455682,
				"z": -0.740916054,
				"element": "H" 
			},
			{
				"x": 1.04774603,
				"y": -2.8475253652,
				"z": 0.1133652867,
				"element": "H" 
			}
		],
		 "valence_orbital": [ 
			{
				"type": "occ",
				"energy": -0.28999,
				"method": "rhf"
			},
			{
				"type": "occ",
				"energy": -0.28184,
				"method": "rhf"
			},
			{
				"type": "occ",
				"energy": -0.27431,
				"method": "rhf"
			},
			{
				"type": "occ",
				"energy": -0.26574,
				"method": "rhf"
			},
			{
				"type": "occ",
				"energy": -0.24304,
				"method": "rhf"
			},
			{
				"type": "unocc",
				"energy": -0.0658,
				"method": "rhf"
			},
			{
				"type": "unocc",
				"energy": -0.05011,
				"method": "rhf"
			},
			{
				"type": "unocc",
				"energy": -0.03176,
				"method": "rhf"
			},
			{
				"type": "unocc",
				"energy": -0.00084,
				"method": "rhf"
			},
			{
				"type": "unocc",
				"energy": 0.02641,
				"method": "rhf"
			}
		],
		"cosmo_sigma_profile": { 
			"-0.025": 0.0,
			"-0.024": 0.0,
			"-0.023": 0.0,
			"-0.022": 0.0,
			"-0.021": 0.0,
			"-0.02": 0.0,
			"-0.019": 0.14287698151,
			"-0.018": 0.679484414672,
			"-0.017": 0.772997658855,
			"-0.016": 1.50616939098,
			"-0.015": 0.337070106415,
			"-0.014": 1.04727636379,
			"-0.013": 0.796159620066,
			"-0.012": 1.02270068158,
			"-0.011": 1.23542356618,
			"-0.01": 1.00649057038,
			"-0.009": 2.19302445263,
			"-0.008": 5.50019680196,
			"-0.007": 12.2300297093,
			"-0.006": 14.4973040139,
			"-0.005": 13.9565462013,
			"-0.004": 10.396184618,
			"-0.003": 12.6714052188,
			"-0.002": 11.6454202428,
			"-0.001": 15.5651724001,
			"0.0": 19.3439774775,
			"0.001": 29.4898180377,
			"0.002": 27.3825780682,
			"0.003": 14.6707086238,
			"0.004": 10.6799341029,
			"0.005": 5.37022958165,
			"0.006": 5.15597559866,
			"0.007": 4.3096973521,
			"0.008": 4.60548339855,
			"0.009": 5.64194910216,
			"0.01": 6.24432479327,
			"0.011": 6.52220202577,
			"0.012": 4.44695233895,
			"0.013": 0.449058976428,
			"0.014": 0.0,
			"0.015": 0.0,
			"0.016": 0.0,
			"0.017": 0.0,
			"0.018": 0.0,
			"0.019": 0.0,
			"0.02": 0.0,
			"0.021": 0.0,
			"0.022": 0.0,
			"0.023": 0.0,
			"0.024": 0.0,
			"0.025": 0.0
		}
	}
}
