{
	 "smiles": "[O-][N+](=O)C1=CC(=CC=C1C#N)C(F)(F)F", 
	 "Tm": 317.15, 
	 "num_atms": 18, 
	 "gaussian": { 
		 "optdone": 1, 
		 "sigma_profile": "yes", 
		 "theory": "DFT", 
		 "functional": "B3LYP", 
		 "basiset": "6-31G**", 
		 "properties": { 
			 "R2extent": 3709.4142, 
			 "electric_dipole_moment_norm": 4.67130188705, 
			 "electric_quadrupole_moment_norm": 17.1898551216, 
			 "total_energy": -866.003867072, 
			 "HOMO_LUMO_gap": 0.18125, 
			 "cosmo_polarized_energy": -13.46, 
			 "cosmo_cavitation_energy": 26.48, 
			 "cosmo_dispersion_energy": -18.21, 
			 "cosmo_repulsion_energy": 1.35, 
			 "cosmo_total_nonelectrostatic_energy": 9.62, 
			 "SMD_solvation_energy": 9.08 
		},
		"coords": [
			{
				"x": -2.8896311544,
				"y": 0.2237766239,
				"z": 2.0523809017,
				"element": "O" 
			},
			{
				"x": -1.7398038356,
				"y": -0.1368339427,
				"z": 2.2796342941,
				"element": "N" 
			},
			{
				"x": -1.3696855779,
				"y": -0.7463465615,
				"z": 3.2801357208,
				"element": "O" 
			},
			{
				"x": -0.7116411418,
				"y": 0.1882296096,
				"z": 1.2693671459,
				"element": "C" 
			},
			{
				"x": 0.5934163234,
				"y": -0.2099989083,
				"z": 1.5360315712,
				"element": "C" 
			},
			{
				"x": 1.5984574964,
				"y": 0.0699195574,
				"z": 0.6138362937,
				"element": "C" 
			},
			{
				"x": 1.2948798606,
				"y": 0.7433918464,
				"z": -0.5723718709,
				"element": "C" 
			},
			{
				"x": -0.0124499483,
				"y": 1.1379597104,
				"z": -0.8321622892,
				"element": "C" 
			},
			{
				"x": -1.0455661571,
				"y": 0.8698468559,
				"z": 0.0845201942,
				"element": "C" 
			},
			{
				"x": -2.3614345699,
				"y": 1.3143154466,
				"z": -0.273250721,
				"element": "C" 
			},
			{
				"x": -3.3546782646,
				"y": 1.7346083004,
				"z": -0.7076795291,
				"element": "N" 
			},
			{
				"x": 3.0282974199,
				"y": -0.3095153679,
				"z": 0.9186226624,
				"element": "C" 
			},
			{
				"x": 3.6902379394,
				"y": 0.7204885827,
				"z": 1.4856442771,
				"element": "F" 
			},
			{
				"x": 3.693965096,
				"y": -0.6432341531,
				"z": -0.205948754,
				"element": "F" 
			},
			{
				"x": 3.0953731137,
				"y": -1.3518467447,
				"z": 1.7681657215,
				"element": "F" 
			},
			{
				"x": 0.8002612447,
				"y": -0.7386124276,
				"z": 2.457228252,
				"element": "H" 
			},
			{
				"x": 2.0772531571,
				"y": 0.950747624,
				"z": -1.2939404609,
				"element": "H" 
			},
			{
				"x": -0.2562510017,
				"y": 1.6581039485,
				"z": -1.7514134095,
				"element": "H" 
			}
		],
		 "valence_orbital": [ 
			{
				"type": "occ",
				"energy": -0.33447,
				"method": "rhf"
			},
			{
				"type": "occ",
				"energy": -0.32998,
				"method": "rhf"
			},
			{
				"type": "occ",
				"energy": -0.32143,
				"method": "rhf"
			},
			{
				"type": "occ",
				"energy": -0.31259,
				"method": "rhf"
			},
			{
				"type": "occ",
				"energy": -0.30616,
				"method": "rhf"
			},
			{
				"type": "unocc",
				"energy": -0.12491,
				"method": "rhf"
			},
			{
				"type": "unocc",
				"energy": -0.08683,
				"method": "rhf"
			},
			{
				"type": "unocc",
				"energy": -0.03761,
				"method": "rhf"
			},
			{
				"type": "unocc",
				"energy": 0.01627,
				"method": "rhf"
			},
			{
				"type": "unocc",
				"energy": 0.03651,
				"method": "rhf"
			}
		],
		"cosmo_sigma_profile": { 
			"-0.025": 0.0,
			"-0.024": 0.0,
			"-0.023": 0.0,
			"-0.022": 0.0,
			"-0.021": 0.0,
			"-0.02": 0.0,
			"-0.019": 0.0,
			"-0.018": 0.0,
			"-0.017": 0.0,
			"-0.016": 0.0,
			"-0.015": 0.0,
			"-0.014": 0.0,
			"-0.013": 0.0,
			"-0.012": 0.0,
			"-0.011": 0.0590152123329,
			"-0.01": 3.50018412861,
			"-0.009": 6.33861760162,
			"-0.008": 7.83407668027,
			"-0.007": 6.83931144999,
			"-0.006": 9.51520595734,
			"-0.005": 10.5602854124,
			"-0.004": 17.9712215599,
			"-0.003": 16.9970970083,
			"-0.002": 13.8736691654,
			"-0.001": 9.34526623443,
			"0.0": 8.39331159776,
			"0.001": 13.4783709842,
			"0.002": 29.5919167103,
			"0.003": 9.25442301925,
			"0.004": 4.83554130229,
			"0.005": 5.52433327809,
			"0.006": 10.0430717725,
			"0.007": 11.9548897784,
			"0.008": 7.84739801042,
			"0.009": 5.09859036565,
			"0.01": 2.27854394403,
			"0.011": 2.56582658428,
			"0.012": 1.588904013,
			"0.013": 0.0135908913198,
			"0.014": 0.0,
			"0.015": 0.0,
			"0.016": 0.0,
			"0.017": 0.0,
			"0.018": 0.0,
			"0.019": 0.0,
			"0.02": 0.0,
			"0.021": 0.0,
			"0.022": 0.0,
			"0.023": 0.0,
			"0.024": 0.0,
			"0.025": 0.0
		}
	}
}
