{
	 "smiles": "NS(=O)(=O)C1=CC=C(Cl)C=C1", 
	 "Tm": 419.15, 
	 "num_atms": 17, 
	 "gaussian": { 
		 "optdone": 1, 
		 "sigma_profile": "yes", 
		 "theory": "DFT", 
		 "functional": "B3LYP", 
		 "basiset": "6-31G**", 
		 "properties": { 
			 "R2extent": 3264.6045, 
			 "electric_dipole_moment_norm": 4.66910584373, 
			 "electric_quadrupole_moment_norm": 24.1580339513, 
			 "total_energy": -1295.76174757, 
			 "HOMO_LUMO_gap": 0.21513, 
			 "cosmo_polarized_energy": -17.85, 
			 "cosmo_cavitation_energy": 24.73, 
			 "cosmo_dispersion_energy": -18.94, 
			 "cosmo_repulsion_energy": 1.48, 
			 "cosmo_total_nonelectrostatic_energy": 7.27, 
			 "SMD_solvation_energy": 3.67 
		},
		"coords": [
			{
				"x": 1.5576732791,
				"y": -1.2454053035,
				"z": 2.7435167161,
				"element": "N" 
			},
			{
				"x": 0.3159900571,
				"y": -0.1166065571,
				"z": 2.8123330762,
				"element": "S" 
			},
			{
				"x": 0.7533331238,
				"y": 0.890863452,
				"z": 3.7761266659,
				"element": "O" 
			},
			{
				"x": -0.9131983597,
				"y": -0.8923350759,
				"z": 2.9624306908,
				"element": "O" 
			},
			{
				"x": 0.2465903649,
				"y": 0.6832081935,
				"z": 1.2013717459,
				"element": "C" 
			},
			{
				"x": -0.5662782851,
				"y": 0.1447604021,
				"z": 0.2013730041,
				"element": "C" 
			},
			{
				"x": -0.6029461573,
				"y": 0.7486988704,
				"z": -1.0541542639,
				"element": "C" 
			},
			{
				"x": 0.1732124996,
				"y": 1.8861503261,
				"z": -1.2855717446,
				"element": "C" 
			},
			{
				"x": 0.1303208177,
				"y": 2.6462118375,
				"z": -2.8639080951,
				"element": "Cl" 
			},
			{
				"x": 0.9748758042,
				"y": 2.4372990761,
				"z": -0.2839060065,
				"element": "C" 
			},
			{
				"x": 1.0088579349,
				"y": 1.830477985,
				"z": 0.9703131629,
				"element": "C" 
			},
			{
				"x": 1.3757912737,
				"y": -2.0028822845,
				"z": 2.0932250102,
				"element": "H" 
			},
			{
				"x": 2.4750550981,
				"y": -0.8263614659,
				"z": 2.6314778298,
				"element": "H" 
			},
			{
				"x": -1.1804565353,
				"y": -0.7238403494,
				"z": 0.4138348713,
				"element": "H" 
			},
			{
				"x": -1.2316038199,
				"y": 0.3500638301,
				"z": -1.8423604031,
				"element": "H" 
			},
			{
				"x": 1.554502337,
				"y": 3.3317656289,
				"z": -0.4823085945,
				"element": "H" 
			},
			{
				"x": 1.6029805672,
				"y": 2.2549314346,
				"z": 1.7726063345,
				"element": "H" 
			}
		],
		 "valence_orbital": [ 
			{
				"type": "occ",
				"energy": -0.31845,
				"method": "rhf"
			},
			{
				"type": "occ",
				"energy": -0.31077,
				"method": "rhf"
			},
			{
				"type": "occ",
				"energy": -0.31039,
				"method": "rhf"
			},
			{
				"type": "occ",
				"energy": -0.28883,
				"method": "rhf"
			},
			{
				"type": "occ",
				"energy": -0.26807,
				"method": "rhf"
			},
			{
				"type": "unocc",
				"energy": -0.05294,
				"method": "rhf"
			},
			{
				"type": "unocc",
				"energy": -0.03905,
				"method": "rhf"
			},
			{
				"type": "unocc",
				"energy": 0.01181,
				"method": "rhf"
			},
			{
				"type": "unocc",
				"energy": 0.04765,
				"method": "rhf"
			},
			{
				"type": "unocc",
				"energy": 0.07509,
				"method": "rhf"
			}
		],
		"cosmo_sigma_profile": { 
			"-0.025": 0.0,
			"-0.024": 0.0,
			"-0.023": 0.0,
			"-0.022": 0.0,
			"-0.021": 0.0,
			"-0.02": 0.0,
			"-0.019": 0.0,
			"-0.018": 0.0,
			"-0.017": 0.0,
			"-0.016": 0.210697755946,
			"-0.015": 2.53384516476,
			"-0.014": 2.63692139453,
			"-0.013": 2.91097151826,
			"-0.012": 3.7643233397,
			"-0.011": 1.98854368611,
			"-0.01": 2.29230057596,
			"-0.009": 1.83455994732,
			"-0.008": 6.80291520262,
			"-0.007": 10.9114702132,
			"-0.006": 8.7695573457,
			"-0.005": 5.97463979365,
			"-0.004": 6.40686894092,
			"-0.003": 8.06313778373,
			"-0.002": 8.81837398481,
			"-0.001": 10.2171266747,
			"0.0": 16.5843530127,
			"0.001": 22.6800831232,
			"0.002": 13.1596698667,
			"0.003": 8.99982543626,
			"0.004": 11.9411275145,
			"0.005": 4.11174827906,
			"0.006": 3.11326071947,
			"0.007": 4.5943349218,
			"0.008": 4.38992734687,
			"0.009": 4.46419032278,
			"0.01": 7.86805731849,
			"0.011": 10.3388355831,
			"0.012": 3.88933658941,
			"0.013": 0.0850847406849,
			"0.014": 0.0,
			"0.015": 0.0,
			"0.016": 0.0,
			"0.017": 0.0,
			"0.018": 0.0,
			"0.019": 0.0,
			"0.02": 0.0,
			"0.021": 0.0,
			"0.022": 0.0,
			"0.023": 0.0,
			"0.024": 0.0,
			"0.025": 0.0
		}
	}
}
