{
	 "smiles": "COC(=O)C1=CC(N)=C(N)C=C1", 
	 "Tm": 381.15, 
	 "num_atms": 22, 
	 "gaussian": { 
		 "optdone": 1, 
		 "sigma_profile": "yes", 
		 "theory": "DFT", 
		 "functional": "B3LYP", 
		 "basiset": "6-31G**", 
		 "properties": { 
			 "R2extent": 2682.4503, 
			 "electric_dipole_moment_norm": 2.81730226635, 
			 "electric_quadrupole_moment_norm": 13.8040825584, 
			 "total_energy": -570.849811008, 
			 "HOMO_LUMO_gap": 0.17317, 
			 "cosmo_polarized_energy": -14.75, 
			 "cosmo_cavitation_energy": 26.09, 
			 "cosmo_dispersion_energy": -19.45, 
			 "cosmo_repulsion_energy": 1.56, 
			 "cosmo_total_nonelectrostatic_energy": 8.2, 
			 "SMD_solvation_energy": 6.02 
		},
		"coords": [
			{
				"x": 1.9485648006,
				"y": 3.4980393528,
				"z": -1.0004943548,
				"element": "C" 
			},
			{
				"x": 1.4939200964,
				"y": 2.2059215452,
				"z": -0.5801417554,
				"element": "O" 
			},
			{
				"x": 0.1446817181,
				"y": 2.0592181886,
				"z": -0.5300382702,
				"element": "C" 
			},
			{
				"x": -0.6223218313,
				"y": 2.9602021418,
				"z": -0.8208547851,
				"element": "O" 
			},
			{
				"x": -0.2656307791,
				"y": 0.7059939996,
				"z": -0.0900043489,
				"element": "C" 
			},
			{
				"x": -1.6416245954,
				"y": 0.4435698712,
				"z": 0.0138559131,
				"element": "C" 
			},
			{
				"x": -2.1067619878,
				"y": -0.8011970325,
				"z": 0.4179765652,
				"element": "C" 
			},
			{
				"x": -3.4794374972,
				"y": -1.1261967988,
				"z": 0.4979073429,
				"element": "N" 
			},
			{
				"x": -1.1736795606,
				"y": -1.827461138,
				"z": 0.7164021497,
				"element": "C" 
			},
			{
				"x": -1.6719772001,
				"y": -3.0659131742,
				"z": 1.1248046026,
				"element": "N" 
			},
			{
				"x": 0.1968712453,
				"y": -1.5523059376,
				"z": 0.6349145634,
				"element": "C" 
			},
			{
				"x": 0.6530256686,
				"y": -0.298296512,
				"z": 0.238505106,
				"element": "C" 
			},
			{
				"x": 3.0377181152,
				"y": 3.4469617732,
				"z": -0.9867068659,
				"element": "H" 
			},
			{
				"x": 1.5935064368,
				"y": 4.2754843681,
				"z": -0.318680555,
				"element": "H" 
			},
			{
				"x": 1.5891086727,
				"y": 3.7277907481,
				"z": -2.0071447355,
				"element": "H" 
			},
			{
				"x": -2.3380961745,
				"y": 1.2422165654,
				"z": -0.2244930403,
				"element": "H" 
			},
			{
				"x": -4.0780029079,
				"y": -0.3268565341,
				"z": 0.3264514367,
				"element": "H" 
			},
			{
				"x": -3.7215788965,
				"y": -1.5460953446,
				"z": 1.3915468922,
				"element": "H" 
			},
			{
				"x": -2.5268682145,
				"y": -3.3253831696,
				"z": 0.6434083957,
				"element": "H" 
			},
			{
				"x": -0.992310743,
				"y": -3.8151031531,
				"z": 1.1126379061,
				"element": "H" 
			},
			{
				"x": 0.9084211216,
				"y": -2.3395603592,
				"z": 0.8723886971,
				"element": "H" 
			},
			{
				"x": 1.7159725126,
				"y": -0.1001294002,
				"z": 0.1704591406,
				"element": "H" 
			}
		],
		 "valence_orbital": [ 
			{
				"type": "occ",
				"energy": -0.30137,
				"method": "rhf"
			},
			{
				"type": "occ",
				"energy": -0.28792,
				"method": "rhf"
			},
			{
				"type": "occ",
				"energy": -0.25928,
				"method": "rhf"
			},
			{
				"type": "occ",
				"energy": -0.22863,
				"method": "rhf"
			},
			{
				"type": "occ",
				"energy": -0.19713,
				"method": "rhf"
			},
			{
				"type": "unocc",
				"energy": -0.02396,
				"method": "rhf"
			},
			{
				"type": "unocc",
				"energy": 0.01174,
				"method": "rhf"
			},
			{
				"type": "unocc",
				"energy": 0.06671,
				"method": "rhf"
			},
			{
				"type": "unocc",
				"energy": 0.08425,
				"method": "rhf"
			},
			{
				"type": "unocc",
				"energy": 0.10104,
				"method": "rhf"
			}
		],
		"cosmo_sigma_profile": { 
			"-0.025": 0.0,
			"-0.024": 0.0,
			"-0.023": 0.0,
			"-0.022": 0.0,
			"-0.021": 0.0,
			"-0.02": 0.0,
			"-0.019": 0.0,
			"-0.018": 0.0,
			"-0.017": 0.0,
			"-0.016": 0.0,
			"-0.015": 0.0,
			"-0.014": 0.0,
			"-0.013": 0.415397711156,
			"-0.012": 2.86371895294,
			"-0.011": 4.79433745441,
			"-0.01": 5.94924421035,
			"-0.009": 5.93990845013,
			"-0.008": 4.58121730333,
			"-0.007": 5.96025823085,
			"-0.006": 7.15105386578,
			"-0.005": 12.6531349586,
			"-0.004": 14.0683415091,
			"-0.003": 15.0901652533,
			"-0.002": 9.5654670976,
			"-0.001": 10.7832620298,
			"0.0": 9.78984545186,
			"0.001": 8.64679972014,
			"0.002": 11.0752997613,
			"0.003": 12.9955554988,
			"0.004": 14.8950188059,
			"0.005": 14.1746732529,
			"0.006": 8.84155574793,
			"0.007": 4.70661285883,
			"0.008": 3.05142260313,
			"0.009": 2.62799933915,
			"0.01": 2.95730684568,
			"0.011": 2.81117066195,
			"0.012": 5.26525370867,
			"0.013": 3.98846119568,
			"0.014": 0.600757860442,
			"0.015": 0.0992050384122,
			"0.016": 0.0,
			"0.017": 0.0,
			"0.018": 0.0,
			"0.019": 0.0,
			"0.02": 0.0,
			"0.021": 0.0,
			"0.022": 0.0,
			"0.023": 0.0,
			"0.024": 0.0,
			"0.025": 0.0
		}
	}
}
