{
	 "smiles": "CCOC(=O)C1=CNC2=C(CNN2C)C1=O", 
	 "Tm": 412.15, 
	 "num_atms": 29, 
	 "gaussian": { 
		 "optdone": 1, 
		 "sigma_profile": "yes", 
		 "theory": "DFT", 
		 "functional": "B3LYP", 
		 "basiset": "6-31G**", 
		 "properties": { 
			 "R2extent": 5601.8254, 
			 "electric_dipole_moment_norm": 7.70170917459, 
			 "electric_quadrupole_moment_norm": 16.8571510081, 
			 "total_energy": -778.782073169, 
			 "HOMO_LUMO_gap": 0.17179, 
			 "cosmo_polarized_energy": -30.31, 
			 "cosmo_cavitation_energy": 32.99, 
			 "cosmo_dispersion_energy": -23.98, 
			 "cosmo_repulsion_energy": 1.89, 
			 "cosmo_total_nonelectrostatic_energy": 10.9, 
			 "SMD_solvation_energy": 5.48 
		},
		"coords": [
			{
				"x": 6.1535571012,
				"y": -2.0614917711,
				"z": -1.5906876766,
				"element": "C" 
			},
			{
				"x": 5.6880353742,
				"y": -0.8770375136,
				"z": -0.7641123278,
				"element": "C" 
			},
			{
				"x": 4.252251283,
				"y": -0.8035408458,
				"z": -0.8797138563,
				"element": "O" 
			},
			{
				"x": 3.6621407504,
				"y": 0.2190052522,
				"z": -0.1867325828,
				"element": "C" 
			},
			{
				"x": 4.3018867296,
				"y": 1.018618444,
				"z": 0.4575091606,
				"element": "O" 
			},
			{
				"x": 2.1813013483,
				"y": 0.194607535,
				"z": -0.3322360895,
				"element": "C" 
			},
			{
				"x": 1.5998875768,
				"y": -0.9054301502,
				"z": -0.9009920932,
				"element": "C" 
			},
			{
				"x": 0.2436878614,
				"y": -1.0349095723,
				"z": -1.0485004785,
				"element": "N" 
			},
			{
				"x": -0.5673261433,
				"y": -0.0121863527,
				"z": -0.6299292558,
				"element": "C" 
			},
			{
				"x": -0.0712243684,
				"y": 1.1134180099,
				"z": -0.0617481965,
				"element": "C" 
			},
			{
				"x": -1.2453204173,
				"y": 1.9692304559,
				"z": 0.3321937872,
				"element": "C" 
			},
			{
				"x": -2.4133346742,
				"y": 1.2743678655,
				"z": -0.2989300169,
				"element": "N" 
			},
			{
				"x": -1.9654388428,
				"y": -0.0402344439,
				"z": -0.7565551702,
				"element": "N" 
			},
			{
				"x": -2.6601006831,
				"y": -1.1147642843,
				"z": -0.0321250492,
				"element": "C" 
			},
			{
				"x": 1.3498056997,
				"y": 1.3444725976,
				"z": 0.146739129,
				"element": "C" 
			},
			{
				"x": 1.7862805755,
				"y": 2.3705090273,
				"z": 0.6653560158,
				"element": "O" 
			},
			{
				"x": 5.7133990226,
				"y": -2.9938785081,
				"z": -1.2240656248,
				"element": "H" 
			},
			{
				"x": 5.8761263648,
				"y": -1.9390236522,
				"z": -2.6419168098,
				"element": "H" 
			},
			{
				"x": 7.2427734817,
				"y": -2.1513976643,
				"z": -1.5319503435,
				"element": "H" 
			},
			{
				"x": 6.1215149628,
				"y": 0.0641895852,
				"z": -1.1166706043,
				"element": "H" 
			},
			{
				"x": 5.9573030531,
				"y": -0.9826765805,
				"z": 0.2919326221,
				"element": "H" 
			},
			{
				"x": 2.192922951,
				"y": -1.7355208572,
				"z": -1.2618986427,
				"element": "H" 
			},
			{
				"x": -0.1406492997,
				"y": -1.8192631702,
				"z": -1.5535392463,
				"element": "H" 
			},
			{
				"x": -1.1752046143,
				"y": 2.9952067315,
				"z": -0.0422803704,
				"element": "H" 
			},
			{
				"x": -1.3608363566,
				"y": 2.0314636184,
				"z": 1.4225041887,
				"element": "H" 
			},
			{
				"x": -2.6459486375,
				"y": 1.7689552013,
				"z": -1.1568043935,
				"element": "H" 
			},
			{
				"x": -3.7265024584,
				"y": -1.0451831118,
				"z": -0.2496216101,
				"element": "H" 
			},
			{
				"x": -2.5106804821,
				"y": -1.0546407655,
				"z": 1.0546402506,
				"element": "H" 
			},
			{
				"x": -2.2999071584,
				"y": -2.08516508,
				"z": -0.3887647152,
				"element": "H" 
			}
		],
		 "valence_orbital": [ 
			{
				"type": "occ",
				"energy": -0.27101,
				"method": "rhf"
			},
			{
				"type": "occ",
				"energy": -0.26308,
				"method": "rhf"
			},
			{
				"type": "occ",
				"energy": -0.23862,
				"method": "rhf"
			},
			{
				"type": "occ",
				"energy": -0.21707,
				"method": "rhf"
			},
			{
				"type": "occ",
				"energy": -0.2106,
				"method": "rhf"
			},
			{
				"type": "unocc",
				"energy": -0.03881,
				"method": "rhf"
			},
			{
				"type": "unocc",
				"energy": -0.01219,
				"method": "rhf"
			},
			{
				"type": "unocc",
				"energy": 0.0396,
				"method": "rhf"
			},
			{
				"type": "unocc",
				"energy": 0.05778,
				"method": "rhf"
			},
			{
				"type": "unocc",
				"energy": 0.07965,
				"method": "rhf"
			}
		],
		"cosmo_sigma_profile": { 
			"-0.025": 0.0,
			"-0.024": 0.0,
			"-0.023": 0.0,
			"-0.022": 0.0,
			"-0.021": 0.0,
			"-0.02": 0.0,
			"-0.019": 0.00412591482143,
			"-0.018": 0.901621893027,
			"-0.017": 1.80806765339,
			"-0.016": 1.32581940996,
			"-0.015": 1.11455852148,
			"-0.014": 1.60141430125,
			"-0.013": 1.45961875979,
			"-0.012": 2.62945313118,
			"-0.011": 3.31156022542,
			"-0.01": 3.24945848219,
			"-0.009": 2.96962860594,
			"-0.008": 3.0073600919,
			"-0.007": 4.26629008144,
			"-0.006": 5.25338860276,
			"-0.005": 11.8675457799,
			"-0.004": 24.0155273918,
			"-0.003": 25.28236013,
			"-0.002": 29.272471182,
			"-0.001": 25.2598057729,
			"0.0": 22.4320125735,
			"0.001": 15.9923272622,
			"0.002": 8.05576916431,
			"0.003": 6.91243128273,
			"0.004": 5.86238390589,
			"0.005": 5.21812000638,
			"0.006": 4.21268607648,
			"0.007": 3.35349031146,
			"0.008": 3.65270397344,
			"0.009": 2.92963973389,
			"0.01": 3.34169360358,
			"0.011": 3.88626137343,
			"0.012": 5.67047234153,
			"0.013": 4.06518369489,
			"0.014": 4.27568491371,
			"0.015": 6.3671574065,
			"0.016": 1.79266836851,
			"0.017": 1.71661485338,
			"0.018": 1.04322373133,
			"0.019": 1.01611290263,
			"0.02": 0.0681539011207,
			"0.021": 0.0,
			"0.022": 0.0,
			"0.023": 0.0,
			"0.024": 0.0,
			"0.025": 0.0
		}
	}
}
