{
	 "smiles": "CCC(OC(N)=O)C1CCCCC1", 
	 "Tm": 401.15, 
	 "num_atms": 32, 
	 "gaussian": { 
		 "optdone": 1, 
		 "sigma_profile": "yes", 
		 "theory": "DFT", 
		 "functional": "B3LYP", 
		 "basiset": "6-31G**", 
		 "properties": { 
			 "R2extent": 2771.6248, 
			 "electric_dipole_moment_norm": 2.30007402272, 
			 "electric_quadrupole_moment_norm": 11.302385477, 
			 "total_energy": -597.767798591, 
			 "HOMO_LUMO_gap": 0.323, 
			 "cosmo_polarized_energy": -9.97, 
			 "cosmo_cavitation_energy": 31.34, 
			 "cosmo_dispersion_energy": -22.28, 
			 "cosmo_repulsion_energy": 1.8, 
			 "cosmo_total_nonelectrostatic_energy": 10.87, 
			 "SMD_solvation_energy": 5.31 
		},
		"coords": [
			{
				"x": -0.3710197226,
				"y": 0.4535583773,
				"z": -3.5221806605,
				"element": "C" 
			},
			{
				"x": 0.5004022665,
				"y": 0.8844989595,
				"z": -2.3378125524,
				"element": "C" 
			},
			{
				"x": -0.1066533644,
				"y": 0.5476691165,
				"z": -0.9717394932,
				"element": "C" 
			},
			{
				"x": -1.3956001803,
				"y": 1.2224589833,
				"z": -0.9018924529,
				"element": "O" 
			},
			{
				"x": -2.5022284473,
				"y": 0.4502038278,
				"z": -0.7465712894,
				"element": "C" 
			},
			{
				"x": -3.61032477,
				"y": 1.2474976683,
				"z": -0.6573029877,
				"element": "N" 
			},
			{
				"x": -2.518420732,
				"y": -0.7650377294,
				"z": -0.6684579823,
				"element": "O" 
			},
			{
				"x": 0.7385795392,
				"y": 1.0254876786,
				"z": 0.230286409,
				"element": "C" 
			},
			{
				"x": 0.0178889098,
				"y": 0.8340883742,
				"z": 1.5851904742,
				"element": "C" 
			},
			{
				"x": -0.0783873748,
				"y": -0.638874793,
				"z": 2.0180251729,
				"element": "C" 
			},
			{
				"x": 1.3059637239,
				"y": -1.3048574122,
				"z": 2.0526754483,
				"element": "C" 
			},
			{
				"x": 2.045205067,
				"y": -1.1389783922,
				"z": 0.7157642721,
				"element": "C" 
			},
			{
				"x": 2.1246018301,
				"y": 0.3398663552,
				"z": 0.298425722,
				"element": "C" 
			},
			{
				"x": 0.1275073828,
				"y": 0.6726357151,
				"z": -4.4717420215,
				"element": "H" 
			},
			{
				"x": -0.580228578,
				"y": -0.6211301477,
				"z": -3.4916044055,
				"element": "H" 
			},
			{
				"x": -1.3297677273,
				"y": 0.9798582442,
				"z": -3.5190829658,
				"element": "H" 
			},
			{
				"x": 0.6905486898,
				"y": 1.9649802286,
				"z": -2.3849883457,
				"element": "H" 
			},
			{
				"x": 1.4761119395,
				"y": 0.392400583,
				"z": -2.4118619404,
				"element": "H" 
			},
			{
				"x": -0.3068272598,
				"y": -0.5246365159,
				"z": -0.9117308634,
				"element": "H" 
			},
			{
				"x": -3.541881463,
				"y": 2.2159746468,
				"z": -0.9260695531,
				"element": "H" 
			},
			{
				"x": -4.5026556278,
				"y": 0.786654622,
				"z": -0.7261166402,
				"element": "H" 
			},
			{
				"x": 0.8982499,
				"y": 2.1034134363,
				"z": 0.0840523839,
				"element": "H" 
			},
			{
				"x": -0.9764222671,
				"y": 1.2896753197,
				"z": 1.5488727027,
				"element": "H" 
			},
			{
				"x": 0.5845156878,
				"y": 1.3911003193,
				"z": 2.3444762041,
				"element": "H" 
			},
			{
				"x": -0.5489568393,
				"y": -0.698995699,
				"z": 3.0069983137,
				"element": "H" 
			},
			{
				"x": -0.7382480072,
				"y": -1.1830056952,
				"z": 1.3311917113,
				"element": "H" 
			},
			{
				"x": 1.21278826,
				"y": -2.3678091998,
				"z": 2.3058511633,
				"element": "H" 
			},
			{
				"x": 1.9074559571,
				"y": -0.8454884154,
				"z": 2.8508108805,
				"element": "H" 
			},
			{
				"x": 3.0576898337,
				"y": -1.5546729102,
				"z": 0.7876421987,
				"element": "H" 
			},
			{
				"x": 1.5303360007,
				"y": -1.7220181114,
				"z": -0.0597201447,
				"element": "H" 
			},
			{
				"x": 2.6634679653,
				"y": 0.4407418443,
				"z": -0.6497871707,
				"element": "H" 
			},
			{
				"x": 2.7244094075,
				"y": 0.8806407212,
				"z": 1.0431984128,
				"element": "H" 
			}
		],
		 "valence_orbital": [ 
			{
				"type": "occ",
				"energy": -0.29108,
				"method": "rhf"
			},
			{
				"type": "occ",
				"energy": -0.28841,
				"method": "rhf"
			},
			{
				"type": "occ",
				"energy": -0.27834,
				"method": "rhf"
			},
			{
				"type": "occ",
				"energy": -0.27331,
				"method": "rhf"
			},
			{
				"type": "occ",
				"energy": -0.2665,
				"method": "rhf"
			},
			{
				"type": "unocc",
				"energy": 0.0565,
				"method": "rhf"
			},
			{
				"type": "unocc",
				"energy": 0.07856,
				"method": "rhf"
			},
			{
				"type": "unocc",
				"energy": 0.08465,
				"method": "rhf"
			},
			{
				"type": "unocc",
				"energy": 0.10325,
				"method": "rhf"
			},
			{
				"type": "unocc",
				"energy": 0.11667,
				"method": "rhf"
			}
		],
		"cosmo_sigma_profile": { 
			"-0.025": 0.0,
			"-0.024": 0.0,
			"-0.023": 0.0,
			"-0.022": 0.0,
			"-0.021": 0.0,
			"-0.02": 0.0,
			"-0.019": 0.0,
			"-0.018": 0.0,
			"-0.017": 0.0,
			"-0.016": 0.0,
			"-0.015": 0.139392623494,
			"-0.014": 1.62421545349,
			"-0.013": 2.26863735865,
			"-0.012": 2.17298454102,
			"-0.011": 2.10259792794,
			"-0.01": 2.07943529613,
			"-0.009": 1.4418176349,
			"-0.008": 2.18666398568,
			"-0.007": 1.41942180977,
			"-0.006": 1.56332136753,
			"-0.005": 1.42637416805,
			"-0.004": 4.59032987699,
			"-0.003": 13.7261807512,
			"-0.002": 33.3249739657,
			"-0.001": 40.8002755619,
			"0.0": 41.9608215101,
			"0.001": 37.1238009155,
			"0.002": 13.9937766713,
			"0.003": 4.82571304694,
			"0.004": 4.61955039041,
			"0.005": 5.31136086246,
			"0.006": 3.37055770044,
			"0.007": 3.11936943227,
			"0.008": 3.07398543455,
			"0.009": 1.91361683257,
			"0.01": 1.38687356357,
			"0.011": 1.38997891187,
			"0.012": 1.9575367531,
			"0.013": 3.73470642088,
			"0.014": 2.60024139994,
			"0.015": 0.0219675775725,
			"0.016": 0.0,
			"0.017": 0.0,
			"0.018": 0.0,
			"0.019": 0.0,
			"0.02": 0.0,
			"0.021": 0.0,
			"0.022": 0.0,
			"0.023": 0.0,
			"0.024": 0.0,
			"0.025": 0.0
		}
	}
}
