{
	 "smiles": "NC1=CC=C(C=C1)C1=CN2CCSC2=N1", 
	 "Tm": 499.15, 
	 "num_atms": 26, 
	 "gaussian": { 
		 "optdone": 1, 
		 "sigma_profile": "yes", 
		 "theory": "DFT", 
		 "functional": "B3LYP", 
		 "basiset": "6-31G**", 
		 "properties": { 
			 "R2extent": 5546.7606, 
			 "electric_dipole_moment_norm": 4.0853660448, 
			 "electric_quadrupole_moment_norm": 25.4737400666, 
			 "total_energy": -988.239936815, 
			 "HOMO_LUMO_gap": 0.17407, 
			 "cosmo_polarized_energy": -19.06, 
			 "cosmo_cavitation_energy": 31.11, 
			 "cosmo_dispersion_energy": -23.95, 
			 "cosmo_repulsion_energy": 1.81, 
			 "cosmo_total_nonelectrostatic_energy": 8.97, 
			 "SMD_solvation_energy": 2.89 
		},
		"coords": [
			{
				"x": -0.5687917339,
				"y": -4.4600601169,
				"z": -2.5170680015,
				"element": "N" 
			},
			{
				"x": -0.7171225822,
				"y": -3.2606808394,
				"z": -1.8135844049,
				"element": "C" 
			},
			{
				"x": 0.3040095755,
				"y": -2.7833920768,
				"z": -0.9745994709,
				"element": "C" 
			},
			{
				"x": 0.1318805028,
				"y": -1.620688909,
				"z": -0.2331171418,
				"element": "C" 
			},
			{
				"x": -1.0631600948,
				"y": -0.8850075254,
				"z": -0.295457476,
				"element": "C" 
			},
			{
				"x": -2.0801378893,
				"y": -1.3673904257,
				"z": -1.136004512,
				"element": "C" 
			},
			{
				"x": -1.9157421999,
				"y": -2.5292791156,
				"z": -1.8807745428,
				"element": "C" 
			},
			{
				"x": -1.2200289899,
				"y": 0.3383025102,
				"z": 0.4988443333,
				"element": "C" 
			},
			{
				"x": -2.3065026146,
				"y": 1.1912964986,
				"z": 0.5797811297,
				"element": "C" 
			},
			{
				"x": -1.9164475941,
				"y": 2.2057348274,
				"z": 1.4372743069,
				"element": "N" 
			},
			{
				"x": -2.5824223271,
				"y": 3.3008179747,
				"z": 2.1189172572,
				"element": "C" 
			},
			{
				"x": -1.4319830564,
				"y": 4.1747360152,
				"z": 2.6604296651,
				"element": "C" 
			},
			{
				"x": -0.0250532442,
				"y": 3.0307016863,
				"z": 3.056118999,
				"element": "S" 
			},
			{
				"x": -0.6509813066,
				"y": 1.896895269,
				"z": 1.8477477457,
				"element": "C" 
			},
			{
				"x": -0.1838648602,
				"y": 0.8028913545,
				"z": 1.3091686282,
				"element": "N" 
			},
			{
				"x": -1.145137721,
				"y": -4.5424828371,
				"z": -3.3436533984,
				"element": "H" 
			},
			{
				"x": 0.388640389,
				"y": -4.7258598079,
				"z": -2.7039834909,
				"element": "H" 
			},
			{
				"x": 1.2390017957,
				"y": -3.334748443,
				"z": -0.9041754323,
				"element": "H" 
			},
			{
				"x": 0.9282343872,
				"y": -1.2598666282,
				"z": 0.4087789465,
				"element": "H" 
			},
			{
				"x": -3.0197619163,
				"y": -0.8271260222,
				"z": -1.2166416727,
				"element": "H" 
			},
			{
				"x": -2.7225301257,
				"y": -2.8806105801,
				"z": -2.519968499,
				"element": "H" 
			},
			{
				"x": -3.2706826607,
				"y": 1.1909455502,
				"z": 0.0967679996,
				"element": "H" 
			},
			{
				"x": -3.2086220362,
				"y": 2.9177404608,
				"z": 2.935517365,
				"element": "H" 
			},
			{
				"x": -3.2156102725,
				"y": 3.8684126201,
				"z": 1.4303767866,
				"element": "H" 
			},
			{
				"x": -1.0972159972,
				"y": 4.8881446526,
				"z": 1.9036306154,
				"element": "H" 
			},
			{
				"x": -1.7175674272,
				"y": 4.7146739074,
				"z": 3.5638742651,
				"element": "H" 
			}
		],
		 "valence_orbital": [ 
			{
				"type": "occ",
				"energy": -0.26631,
				"method": "rhf"
			},
			{
				"type": "occ",
				"energy": -0.26176,
				"method": "rhf"
			},
			{
				"type": "occ",
				"energy": -0.23584,
				"method": "rhf"
			},
			{
				"type": "occ",
				"energy": -0.2149,
				"method": "rhf"
			},
			{
				"type": "occ",
				"energy": -0.17286,
				"method": "rhf"
			},
			{
				"type": "unocc",
				"energy": 0.00121,
				"method": "rhf"
			},
			{
				"type": "unocc",
				"energy": 0.00804,
				"method": "rhf"
			},
			{
				"type": "unocc",
				"energy": 0.01423,
				"method": "rhf"
			},
			{
				"type": "unocc",
				"energy": 0.03998,
				"method": "rhf"
			},
			{
				"type": "unocc",
				"energy": 0.07444,
				"method": "rhf"
			}
		],
		"cosmo_sigma_profile": { 
			"-0.025": 0.0,
			"-0.024": 0.0,
			"-0.023": 0.0,
			"-0.022": 0.0,
			"-0.021": 0.0,
			"-0.02": 0.0,
			"-0.019": 0.0,
			"-0.018": 0.0,
			"-0.017": 0.0,
			"-0.016": 0.0,
			"-0.015": 0.0,
			"-0.014": 0.0,
			"-0.013": 0.111074839649,
			"-0.012": 2.25201189129,
			"-0.011": 2.51154815556,
			"-0.01": 2.78654256192,
			"-0.009": 3.74064074831,
			"-0.008": 7.29871343653,
			"-0.007": 17.0528255341,
			"-0.006": 19.6430055638,
			"-0.005": 18.5283855217,
			"-0.004": 15.4424055774,
			"-0.003": 13.0137386351,
			"-0.002": 8.87843559898,
			"-0.001": 9.33352151777,
			"0.0": 10.5540458755,
			"0.001": 9.65758504148,
			"0.002": 11.7646817773,
			"0.003": 13.8244767534,
			"0.004": 14.7950808212,
			"0.005": 19.1662051437,
			"0.006": 18.3617036738,
			"0.007": 13.7078683668,
			"0.008": 3.20423125197,
			"0.009": 3.40832543872,
			"0.01": 2.74912026484,
			"0.011": 1.6814638394,
			"0.012": 1.85922148903,
			"0.013": 1.91516856288,
			"0.014": 1.97522323148,
			"0.015": 1.0799741832,
			"0.016": 0.000920017186836,
			"0.017": 0.0,
			"0.018": 0.0,
			"0.019": 0.0,
			"0.02": 0.0,
			"0.021": 0.0,
			"0.022": 0.0,
			"0.023": 0.0,
			"0.024": 0.0,
			"0.025": 0.0
		}
	}
}
