{
	 "smiles": "C1CC2=C(CN1)C=CC=C2", 
	 "Tm": 243.15, 
	 "num_atms": 21, 
	 "gaussian": { 
		 "optdone": 1, 
		 "sigma_profile": "yes", 
		 "theory": "DFT", 
		 "functional": "B3LYP", 
		 "basiset": "6-31G**", 
		 "properties": { 
			 "R2extent": 1631.216, 
			 "electric_dipole_moment_norm": 0.839933491415, 
			 "electric_quadrupole_moment_norm": 4.42676695456, 
			 "total_energy": -404.338857705, 
			 "HOMO_LUMO_gap": 0.21877, 
			 "cosmo_polarized_energy": -5.92, 
			 "cosmo_cavitation_energy": 22.65, 
			 "cosmo_dispersion_energy": -17.32, 
			 "cosmo_repulsion_energy": 1.39, 
			 "cosmo_total_nonelectrostatic_energy": 6.72, 
			 "SMD_solvation_energy": 0.56 
		},
		"coords": [
			{
				"x": -0.467704835,
				"y": 0.6171134996,
				"z": -1.8512406797,
				"element": "C" 
			},
			{
				"x": -0.1960403093,
				"y": -0.8524747674,
				"z": -1.4921601993,
				"element": "C" 
			},
			{
				"x": -0.318127616,
				"y": -1.1097384139,
				"z": -0.0000172266,
				"element": "C" 
			},
			{
				"x": -0.9767931899,
				"y": -0.1879266745,
				"z": 0.8314346035,
				"element": "C" 
			},
			{
				"x": -1.5285126234,
				"y": 1.1129421461,
				"z": 0.2590704963,
				"element": "C" 
			},
			{
				"x": -1.6629088174,
				"y": 1.1547989275,
				"z": -1.1971944536,
				"element": "N" 
			},
			{
				"x": -1.0917718826,
				"y": -0.457271242,
				"z": 2.2014392659,
				"element": "C" 
			},
			{
				"x": -0.5684839389,
				"y": -1.6247767048,
				"z": 2.7522089112,
				"element": "C" 
			},
			{
				"x": 0.0860772458,
				"y": -2.5430079568,
				"z": 1.9269546639,
				"element": "C" 
			},
			{
				"x": 0.2065590444,
				"y": -2.280996575,
				"z": 0.5641954284,
				"element": "C" 
			},
			{
				"x": 0.3830485041,
				"y": 1.2394149225,
				"z": -1.5439116523,
				"element": "H" 
			},
			{
				"x": -0.5709900826,
				"y": 0.7335470066,
				"z": -2.9356901295,
				"element": "H" 
			},
			{
				"x": -0.9150129878,
				"y": -1.4897550288,
				"z": -2.029013684,
				"element": "H" 
			},
			{
				"x": 0.7971506018,
				"y": -1.15768094,
				"z": -1.84609,
				"element": "H" 
			},
			{
				"x": -0.8666875341,
				"y": 1.9397964324,
				"z": 0.5586182253,
				"element": "H" 
			},
			{
				"x": -2.5050973575,
				"y": 1.333752562,
				"z": 0.7051851391,
				"element": "H" 
			},
			{
				"x": -2.4668347553,
				"y": 0.5928456396,
				"z": -1.4716527226,
				"element": "H" 
			},
			{
				"x": -1.6014973337,
				"y": 0.2601957827,
				"z": 2.8418395579,
				"element": "H" 
			},
			{
				"x": -0.6715678957,
				"y": -1.8198694472,
				"z": 3.8160214458,
				"element": "H" 
			},
			{
				"x": 0.5009748848,
				"y": -3.4562276117,
				"z": 2.3442580991,
				"element": "H" 
			},
			{
				"x": 0.7182208783,
				"y": -2.9935815569,
				"z": -0.0794550886,
				"element": "H" 
			}
		],
		 "valence_orbital": [ 
			{
				"type": "occ",
				"energy": -0.33733,
				"method": "rhf"
			},
			{
				"type": "occ",
				"energy": -0.32087,
				"method": "rhf"
			},
			{
				"type": "occ",
				"energy": -0.23946,
				"method": "rhf"
			},
			{
				"type": "occ",
				"energy": -0.23339,
				"method": "rhf"
			},
			{
				"type": "occ",
				"energy": -0.21794,
				"method": "rhf"
			},
			{
				"type": "unocc",
				"energy": 0.00083,
				"method": "rhf"
			},
			{
				"type": "unocc",
				"energy": 0.00663,
				"method": "rhf"
			},
			{
				"type": "unocc",
				"energy": 0.08972,
				"method": "rhf"
			},
			{
				"type": "unocc",
				"energy": 0.10498,
				"method": "rhf"
			},
			{
				"type": "unocc",
				"energy": 0.12325,
				"method": "rhf"
			}
		],
		"cosmo_sigma_profile": { 
			"-0.025": 0.0,
			"-0.024": 0.0,
			"-0.023": 0.0,
			"-0.022": 0.0,
			"-0.021": 0.0,
			"-0.02": 0.0,
			"-0.019": 0.0,
			"-0.018": 0.0,
			"-0.017": 0.0,
			"-0.016": 0.0,
			"-0.015": 0.0,
			"-0.014": 0.0,
			"-0.013": 0.0,
			"-0.012": 0.0,
			"-0.011": 0.0,
			"-0.01": 0.581988680679,
			"-0.009": 1.50294111757,
			"-0.008": 1.26992084529,
			"-0.007": 1.60179260792,
			"-0.006": 1.69848780725,
			"-0.005": 9.07781403767,
			"-0.004": 17.9749319189,
			"-0.003": 25.4613892735,
			"-0.002": 23.2415142952,
			"-0.001": 19.4727332286,
			"0.0": 13.726550138,
			"0.001": 8.43040218228,
			"0.002": 7.53500648072,
			"0.003": 8.09140891792,
			"0.004": 8.02401060503,
			"0.005": 7.88693660244,
			"0.006": 8.54410333875,
			"0.007": 6.51031688578,
			"0.008": 0.747208107868,
			"0.009": 0.644582127138,
			"0.01": 1.03738302987,
			"0.011": 0.628796311549,
			"0.012": 0.522652291278,
			"0.013": 1.15257860344,
			"0.014": 0.355011094379,
			"0.015": 0.282412437592,
			"0.016": 0.517383364115,
			"0.017": 0.801926004493,
			"0.018": 0.431186317968,
			"0.019": 0.217128061832,
			"0.02": 0.0,
			"0.021": 0.0,
			"0.022": 0.0,
			"0.023": 0.0,
			"0.024": 0.0,
			"0.025": 0.0
		}
	}
}
