{
	 "smiles": "SCC1=CC(=O)N2C=CC=CC2=N1", 
	 "Tm": 393.15, 
	 "num_atms": 21, 
	 "gaussian": { 
		 "optdone": 1, 
		 "sigma_profile": "yes", 
		 "theory": "DFT", 
		 "functional": "B3LYP", 
		 "basiset": "6-31G**", 
		 "properties": { 
			 "R2extent": 3184.9308, 
			 "electric_dipole_moment_norm": 3.19720717189, 
			 "electric_quadrupole_moment_norm": 14.0740274588, 
			 "total_energy": -930.6978689, 
			 "HOMO_LUMO_gap": 0.15645, 
			 "cosmo_polarized_energy": -13.98, 
			 "cosmo_cavitation_energy": 27.08, 
			 "cosmo_dispersion_energy": -20.44, 
			 "cosmo_repulsion_energy": 1.56, 
			 "cosmo_total_nonelectrostatic_energy": 8.2, 
			 "SMD_solvation_energy": 3.62 
		},
		"coords": [
			{
				"x": 2.8008751427,
				"y": -0.4249374452,
				"z": 3.477236356,
				"element": "S" 
			},
			{
				"x": 0.9797497096,
				"y": -0.7371197968,
				"z": 3.3889246093,
				"element": "C" 
			},
			{
				"x": 0.3948815085,
				"y": -0.4613920823,
				"z": 2.0277558288,
				"element": "C" 
			},
			{
				"x": 0.1546345454,
				"y": -1.4974937985,
				"z": 1.1465160729,
				"element": "C" 
			},
			{
				"x": -0.3725638137,
				"y": -1.2619673168,
				"z": -0.1563602713,
				"element": "C" 
			},
			{
				"x": -0.6309661077,
				"y": -2.0712609077,
				"z": -1.0373331637,
				"element": "O" 
			},
			{
				"x": -0.616710678,
				"y": 0.1617492639,
				"z": -0.4116705445,
				"element": "N" 
			},
			{
				"x": -1.1269337625,
				"y": 0.4923209083,
				"z": -1.6467674496,
				"element": "C" 
			},
			{
				"x": -1.3935865672,
				"y": 1.7869410042,
				"z": -1.9753992031,
				"element": "C" 
			},
			{
				"x": -1.1388011662,
				"y": 2.8111402152,
				"z": -1.0211216293,
				"element": "C" 
			},
			{
				"x": -0.6320638539,
				"y": 2.4867105566,
				"z": 0.2067288528,
				"element": "C" 
			},
			{
				"x": -0.3481621593,
				"y": 1.130977588,
				"z": 0.556669028,
				"element": "C" 
			},
			{
				"x": 0.1437994538,
				"y": 0.8388011468,
				"z": 1.7513716818,
				"element": "N" 
			},
			{
				"x": 3.1612032755,
				"y": -1.3911794385,
				"z": 2.6079070504,
				"element": "H" 
			},
			{
				"x": 0.7731140229,
				"y": -1.7584849781,
				"z": 3.7138876097,
				"element": "H" 
			},
			{
				"x": 0.5540140797,
				"y": -0.0406907155,
				"z": 4.1142105482,
				"element": "H" 
			},
			{
				"x": 0.356906768,
				"y": -2.5291886196,
				"z": 1.4087276165,
				"element": "H" 
			},
			{
				"x": -1.282560615,
				"y": -0.3631899241,
				"z": -2.2912672283,
				"element": "H" 
			},
			{
				"x": -1.7944404224,
				"y": 2.018861024,
				"z": -2.9549692478,
				"element": "H" 
			},
			{
				"x": -1.3462110048,
				"y": 3.8471483257,
				"z": -1.2703968968,
				"element": "H" 
			},
			{
				"x": -0.4179783553,
				"y": 3.2275549906,
				"z": 0.96745038,
				"element": "H" 
			}
		],
		 "valence_orbital": [ 
			{
				"type": "occ",
				"energy": -0.27934,
				"method": "rhf"
			},
			{
				"type": "occ",
				"energy": -0.2776,
				"method": "rhf"
			},
			{
				"type": "occ",
				"energy": -0.26831,
				"method": "rhf"
			},
			{
				"type": "occ",
				"energy": -0.23951,
				"method": "rhf"
			},
			{
				"type": "occ",
				"energy": -0.2208,
				"method": "rhf"
			},
			{
				"type": "unocc",
				"energy": -0.06435,
				"method": "rhf"
			},
			{
				"type": "unocc",
				"energy": -0.0529,
				"method": "rhf"
			},
			{
				"type": "unocc",
				"energy": 0.00563,
				"method": "rhf"
			},
			{
				"type": "unocc",
				"energy": 0.0309,
				"method": "rhf"
			},
			{
				"type": "unocc",
				"energy": 0.06739,
				"method": "rhf"
			}
		],
		"cosmo_sigma_profile": { 
			"-0.025": 0.0,
			"-0.024": 0.0,
			"-0.023": 0.0,
			"-0.022": 0.0,
			"-0.021": 0.0,
			"-0.02": 0.0,
			"-0.019": 0.0,
			"-0.018": 0.0,
			"-0.017": 0.0,
			"-0.016": 0.0,
			"-0.015": 0.0,
			"-0.014": 0.0,
			"-0.013": 0.0,
			"-0.012": 0.0,
			"-0.011": 0.0,
			"-0.01": 0.294370294707,
			"-0.009": 2.22439445354,
			"-0.008": 8.57915979377,
			"-0.007": 16.8473300961,
			"-0.006": 14.0608290068,
			"-0.005": 11.8772111271,
			"-0.004": 15.3703921904,
			"-0.003": 15.4313535238,
			"-0.002": 14.3980987926,
			"-0.001": 15.8023986727,
			"0.0": 15.0041629595,
			"0.001": 19.859489941,
			"0.002": 11.5991070797,
			"0.003": 6.69369890507,
			"0.004": 5.73863816817,
			"0.005": 5.6414043778,
			"0.006": 5.15760891427,
			"0.007": 5.33203575774,
			"0.008": 5.08063142202,
			"0.009": 4.62297140545,
			"0.01": 3.99328263281,
			"0.011": 4.45516133419,
			"0.012": 4.29075701551,
			"0.013": 4.93265293196,
			"0.014": 2.35037047376,
			"0.015": 0.212786553501,
			"0.016": 0.0,
			"0.017": 0.0,
			"0.018": 0.0,
			"0.019": 0.0,
			"0.02": 0.0,
			"0.021": 0.0,
			"0.022": 0.0,
			"0.023": 0.0,
			"0.024": 0.0,
			"0.025": 0.0
		}
	}
}
