{
	 "smiles": "O=C1CCCN1C1=CC=C(C=C1)C#N", 
	 "Tm": 380.15, 
	 "num_atms": 24, 
	 "gaussian": { 
		 "optdone": 1, 
		 "sigma_profile": "yes", 
		 "theory": "DFT", 
		 "functional": "B3LYP", 
		 "basiset": "6-31G**", 
		 "properties": { 
			 "R2extent": 4699.4972, 
			 "electric_dipole_moment_norm": 7.42520098449, 
			 "electric_quadrupole_moment_norm": 20.143995596, 
			 "total_energy": -609.930451181, 
			 "HOMO_LUMO_gap": 0.1842, 
			 "cosmo_polarized_energy": -15.04, 
			 "cosmo_cavitation_energy": 28.31, 
			 "cosmo_dispersion_energy": -20.6, 
			 "cosmo_repulsion_energy": 1.61, 
			 "cosmo_total_nonelectrostatic_energy": 9.31, 
			 "SMD_solvation_energy": 6.16 
		},
		"coords": [
			{
				"x": -3.3813969401,
				"y": 1.5872782923,
				"z": -0.7689679348,
				"element": "O" 
			},
			{
				"x": -2.5187935384,
				"y": 1.1238387673,
				"z": -1.4924786682,
				"element": "C" 
			},
			{
				"x": -2.7494320117,
				"y": 0.4572572829,
				"z": -2.8446114167,
				"element": "C" 
			},
			{
				"x": -1.4465553266,
				"y": -0.2969909145,
				"z": -3.124518262,
				"element": "C" 
			},
			{
				"x": -0.3883751159,
				"y": 0.5134641401,
				"z": -2.3555873298,
				"element": "C" 
			},
			{
				"x": -1.1417713224,
				"y": 1.127496929,
				"z": -1.2519990208,
				"element": "N" 
			},
			{
				"x": -0.4890988979,
				"y": 1.7606329116,
				"z": -0.1768994335,
				"element": "C" 
			},
			{
				"x": -1.194156769,
				"y": 2.21361394,
				"z": 0.9576245506,
				"element": "C" 
			},
			{
				"x": -0.5140662201,
				"y": 2.8197533631,
				"z": 2.00436096,
				"element": "C" 
			},
			{
				"x": 0.8801283998,
				"y": 2.9929047005,
				"z": 1.9587673857,
				"element": "C" 
			},
			{
				"x": 1.5821031741,
				"y": 2.5452768692,
				"z": 0.8295882259,
				"element": "C" 
			},
			{
				"x": 0.9075606686,
				"y": 1.9393419889,
				"z": -0.2227269002,
				"element": "C" 
			},
			{
				"x": 1.5745262003,
				"y": 3.6161387681,
				"z": 3.0448500317,
				"element": "C" 
			},
			{
				"x": 2.1408030967,
				"y": 4.1220614237,
				"z": 3.926890565,
				"element": "N" 
			},
			{
				"x": -3.6435369202,
				"y": -0.1678604961,
				"z": -2.806783854,
				"element": "H" 
			},
			{
				"x": -2.9339856731,
				"y": 1.249918997,
				"z": -3.5806976533,
				"element": "H" 
			},
			{
				"x": -1.5027388661,
				"y": -1.3102445323,
				"z": -2.7148707291,
				"element": "H" 
			},
			{
				"x": -1.203327821,
				"y": -0.3783021507,
				"z": -4.1861385297,
				"element": "H" 
			},
			{
				"x": 0.0677590994,
				"y": 1.2892456207,
				"z": -2.9861210328,
				"element": "H" 
			},
			{
				"x": 0.4142058387,
				"y": -0.1178150843,
				"z": -1.9641363323,
				"element": "H" 
			},
			{
				"x": -2.2663651511,
				"y": 2.0927963591,
				"z": 0.9981076515,
				"element": "H" 
			},
			{
				"x": -1.0664929131,
				"y": 3.1627424979,
				"z": 2.8728985585,
				"element": "H" 
			},
			{
				"x": 2.6577026725,
				"y": 2.676590717,
				"z": 0.7774452608,
				"element": "H" 
			},
			{
				"x": 1.4776043368,
				"y": 1.6162596094,
				"z": -1.0847960924,
				"element": "H" 
			}
		],
		 "valence_orbital": [ 
			{
				"type": "occ",
				"energy": -0.32345,
				"method": "rhf"
			},
			{
				"type": "occ",
				"energy": -0.30198,
				"method": "rhf"
			},
			{
				"type": "occ",
				"energy": -0.27333,
				"method": "rhf"
			},
			{
				"type": "occ",
				"energy": -0.26487,
				"method": "rhf"
			},
			{
				"type": "occ",
				"energy": -0.23419,
				"method": "rhf"
			},
			{
				"type": "unocc",
				"energy": -0.04999,
				"method": "rhf"
			},
			{
				"type": "unocc",
				"energy": -0.02118,
				"method": "rhf"
			},
			{
				"type": "unocc",
				"energy": 0.01276,
				"method": "rhf"
			},
			{
				"type": "unocc",
				"energy": 0.04277,
				"method": "rhf"
			},
			{
				"type": "unocc",
				"energy": 0.06761,
				"method": "rhf"
			}
		],
		"cosmo_sigma_profile": { 
			"-0.025": 0.0,
			"-0.024": 0.0,
			"-0.023": 0.0,
			"-0.022": 0.0,
			"-0.021": 0.0,
			"-0.02": 0.0,
			"-0.019": 0.0,
			"-0.018": 0.0,
			"-0.017": 0.0,
			"-0.016": 0.0,
			"-0.015": 0.0,
			"-0.014": 0.0,
			"-0.013": 0.0,
			"-0.012": 0.0,
			"-0.011": 0.0,
			"-0.01": 0.0,
			"-0.009": 0.0167746055865,
			"-0.008": 3.23943971758,
			"-0.007": 8.26741389351,
			"-0.006": 16.8558202115,
			"-0.005": 23.5658793275,
			"-0.004": 25.0898668524,
			"-0.003": 16.5848527228,
			"-0.002": 15.448398091,
			"-0.001": 16.7802816545,
			"0.0": 14.2426944932,
			"0.001": 11.4992052905,
			"0.002": 14.6729115909,
			"0.003": 13.1822626725,
			"0.004": 4.99409867723,
			"0.005": 3.0804637811,
			"0.006": 4.67078454131,
			"0.007": 3.67071517698,
			"0.008": 4.40370593846,
			"0.009": 5.54075685119,
			"0.01": 5.52266178342,
			"0.011": 5.00317198352,
			"0.012": 5.40912266454,
			"0.013": 4.49289478567,
			"0.014": 0.729938090157,
			"0.015": 0.0,
			"0.016": 0.0,
			"0.017": 0.0,
			"0.018": 0.0,
			"0.019": 0.0,
			"0.02": 0.0,
			"0.021": 0.0,
			"0.022": 0.0,
			"0.023": 0.0,
			"0.024": 0.0,
			"0.025": 0.0
		}
	}
}
