{
	 "smiles": "OC(=O)C1=CN=C2SC=C(N2C1=O)C1=CC=CC=C1", 
	 "Tm": 518.15, 
	 "num_atms": 27, 
	 "gaussian": { 
		 "optdone": 1, 
		 "sigma_profile": "yes", 
		 "theory": "DFT", 
		 "functional": "B3LYP", 
		 "basiset": "6-31G**", 
		 "properties": { 
			 "R2extent": 5609.615, 
			 "electric_dipole_moment_norm": 4.63999353556, 
			 "electric_quadrupole_moment_norm": 8.93981561723, 
			 "total_energy": -1233.57110893, 
			 "HOMO_LUMO_gap": 0.15647, 
			 "cosmo_polarized_energy": -18.55, 
			 "cosmo_cavitation_energy": 34.07, 
			 "cosmo_dispersion_energy": -25.21, 
			 "cosmo_repulsion_energy": 1.87, 
			 "cosmo_total_nonelectrostatic_energy": 10.74, 
			 "SMD_solvation_energy": 5.67 
		},
		"coords": [
			{
				"x": 3.2620003905,
				"y": -2.8518458092,
				"z": 0.368440265,
				"element": "O" 
			},
			{
				"x": 3.7020842803,
				"y": -1.6390955206,
				"z": 0.7582918664,
				"element": "C" 
			},
			{
				"x": 4.8330493385,
				"y": -1.4673292573,
				"z": 1.1808392234,
				"element": "O" 
			},
			{
				"x": 2.7007359611,
				"y": -0.5499488886,
				"z": 0.6469081876,
				"element": "C" 
			},
			{
				"x": 3.1114239375,
				"y": 0.7038806705,
				"z": 1.0656769425,
				"element": "C" 
			},
			{
				"x": 2.3631826139,
				"y": 1.8251713155,
				"z": 1.0296873773,
				"element": "N" 
			},
			{
				"x": 1.1355112465,
				"y": 1.661092528,
				"z": 0.601075859,
				"element": "C" 
			},
			{
				"x": 0.0176112328,
				"y": 2.9941655799,
				"z": 0.4326074354,
				"element": "S" 
			},
			{
				"x": -1.2075208328,
				"y": 1.8913618988,
				"z": -0.1361757793,
				"element": "C" 
			},
			{
				"x": -0.7929554907,
				"y": 0.601716654,
				"z": -0.1986208354,
				"element": "C" 
			},
			{
				"x": 0.5591458717,
				"y": 0.4741199559,
				"z": 0.2085541396,
				"element": "N" 
			},
			{
				"x": 1.3711349627,
				"y": -0.7477430583,
				"z": 0.0983717096,
				"element": "C" 
			},
			{
				"x": 0.8864768037,
				"y": -1.7367976009,
				"z": -0.4098887745,
				"element": "O" 
			},
			{
				"x": -1.696270723,
				"y": -0.511240414,
				"z": -0.5725601158,
				"element": "C" 
			},
			{
				"x": -2.4471229056,
				"y": -0.3998841445,
				"z": -1.7514281538,
				"element": "C" 
			},
			{
				"x": -3.3950812826,
				"y": -1.3697776922,
				"z": -2.0810260142,
				"element": "C" 
			},
			{
				"x": -3.6050695026,
				"y": -2.4565961221,
				"z": -1.2335979864,
				"element": "C" 
			},
			{
				"x": -2.8623909696,
				"y": -2.5710977519,
				"z": -0.0545408482,
				"element": "C" 
			},
			{
				"x": -1.9153006519,
				"y": -1.6074859016,
				"z": 0.2768346518,
				"element": "C" 
			},
			{
				"x": 4.0163485951,
				"y": -3.449538375,
				"z": 0.5061266355,
				"element": "H" 
			},
			{
				"x": 4.1239942661,
				"y": 0.8082994447,
				"z": 1.4446014465,
				"element": "H" 
			},
			{
				"x": -2.2072560896,
				"y": 2.2389495684,
				"z": -0.3489500704,
				"element": "H" 
			},
			{
				"x": -2.2712831492,
				"y": 0.4386006393,
				"z": -2.4186132201,
				"element": "H" 
			},
			{
				"x": -3.9618565885,
				"y": -1.2764114655,
				"z": -3.0026338185,
				"element": "H" 
			},
			{
				"x": -4.3401987248,
				"y": -3.2139734978,
				"z": -1.4893512621,
				"element": "H" 
			},
			{
				"x": -3.0215447265,
				"y": -3.4156877409,
				"z": 0.6090907005,
				"element": "H" 
			},
			{
				"x": -1.3420478632,
				"y": -1.7052050147,
				"z": 1.1919804389,
				"element": "H" 
			}
		],
		 "valence_orbital": [ 
			{
				"type": "occ",
				"energy": -0.27656,
				"method": "rhf"
			},
			{
				"type": "occ",
				"energy": -0.27178,
				"method": "rhf"
			},
			{
				"type": "occ",
				"energy": -0.26174,
				"method": "rhf"
			},
			{
				"type": "occ",
				"energy": -0.24953,
				"method": "rhf"
			},
			{
				"type": "occ",
				"energy": -0.22878,
				"method": "rhf"
			},
			{
				"type": "unocc",
				"energy": -0.07231,
				"method": "rhf"
			},
			{
				"type": "unocc",
				"energy": -0.04172,
				"method": "rhf"
			},
			{
				"type": "unocc",
				"energy": -0.01871,
				"method": "rhf"
			},
			{
				"type": "unocc",
				"energy": -0.01192,
				"method": "rhf"
			},
			{
				"type": "unocc",
				"energy": -0.00493,
				"method": "rhf"
			}
		],
		"cosmo_sigma_profile": { 
			"-0.025": 0.0,
			"-0.024": 0.0,
			"-0.023": 0.0,
			"-0.022": 0.0,
			"-0.021": 0.0,
			"-0.02": 0.0,
			"-0.019": 0.0,
			"-0.018": 0.610727586159,
			"-0.017": 0.809641399913,
			"-0.016": 1.06616768279,
			"-0.015": 0.872415137392,
			"-0.014": 0.661349970315,
			"-0.013": 0.565493211533,
			"-0.012": 0.384855956534,
			"-0.011": 2.60233601993,
			"-0.01": 2.80479118203,
			"-0.009": 2.21635797133,
			"-0.008": 2.15744818415,
			"-0.007": 6.98082461543,
			"-0.006": 16.8585557627,
			"-0.005": 21.0103549512,
			"-0.004": 18.9986540148,
			"-0.003": 18.7053931099,
			"-0.002": 24.9994207145,
			"-0.001": 26.1382542433,
			"0.0": 20.3720923137,
			"0.001": 16.3110113193,
			"0.002": 12.8671853666,
			"0.003": 10.7458221112,
			"0.004": 11.3470571249,
			"0.005": 10.9520356406,
			"0.006": 5.58641064999,
			"0.007": 4.46664448493,
			"0.008": 4.78159096285,
			"0.009": 4.4627331273,
			"0.01": 4.95736722916,
			"0.011": 7.08315238609,
			"0.012": 9.22074342088,
			"0.013": 2.79397923498,
			"0.014": 1.58589947308,
			"0.015": 1.2316457517,
			"0.016": 0.0930678608069,
			"0.017": 0.0,
			"0.018": 0.0,
			"0.019": 0.0,
			"0.02": 0.0,
			"0.021": 0.0,
			"0.022": 0.0,
			"0.023": 0.0,
			"0.024": 0.0,
			"0.025": 0.0
		}
	}
}
