{
	 "smiles": "CC(C)CN1N=C(C)C(CC(O)=O)=C1C", 
	 "Tm": 381.15, 
	 "num_atms": 33, 
	 "gaussian": { 
		 "optdone": 1, 
		 "sigma_profile": "yes", 
		 "theory": "DFT", 
		 "functional": "B3LYP", 
		 "basiset": "6-31G**", 
		 "properties": { 
			 "R2extent": 4590.371, 
			 "electric_dipole_moment_norm": 5.74210895142, 
			 "electric_quadrupole_moment_norm": 27.2387566139, 
			 "total_energy": -689.991406969, 
			 "HOMO_LUMO_gap": 0.24095, 
			 "cosmo_polarized_energy": -15.77, 
			 "cosmo_cavitation_energy": 34.85, 
			 "cosmo_dispersion_energy": -23.59, 
			 "cosmo_repulsion_energy": 1.87, 
			 "cosmo_total_nonelectrostatic_energy": 13.14, 
			 "SMD_solvation_energy": 6.36 
		},
		"coords": [
			{
				"x": -1.6113433826,
				"y": 0.7298308058,
				"z": 2.8327270635,
				"element": "C" 
			},
			{
				"x": -0.78468052,
				"y": -0.5607751743,
				"z": 2.9226974162,
				"element": "C" 
			},
			{
				"x": -1.6762804148,
				"y": -1.8075106509,
				"z": 2.8422646764,
				"element": "C" 
			},
			{
				"x": 0.3731925347,
				"y": -0.5992374545,
				"z": 1.8992012867,
				"element": "C" 
			},
			{
				"x": -0.0294470732,
				"y": -0.6814143132,
				"z": 0.4974910003,
				"element": "N" 
			},
			{
				"x": -0.4668024918,
				"y": 0.442812471,
				"z": -0.1273767449,
				"element": "N" 
			},
			{
				"x": -0.7460095834,
				"y": 0.0712024716,
				"z": -1.3743374049,
				"element": "C" 
			},
			{
				"x": -1.2666819068,
				"y": 1.0611437506,
				"z": -2.3722267838,
				"element": "C" 
			},
			{
				"x": -0.474267897,
				"y": -1.3141505977,
				"z": -1.5701831939,
				"element": "C" 
			},
			{
				"x": -0.6578811825,
				"y": -2.1002526702,
				"z": -2.8346552022,
				"element": "C" 
			},
			{
				"x": 0.4342586971,
				"y": -1.9365595031,
				"z": -3.9086164759,
				"element": "C" 
			},
			{
				"x": 1.4593073715,
				"y": -1.1121803528,
				"z": -3.5958000601,
				"element": "O" 
			},
			{
				"x": 0.3866179684,
				"y": -2.5028263041,
				"z": -4.9723896397,
				"element": "O" 
			},
			{
				"x": -0.0080183288,
				"y": -1.763440915,
				"z": -0.3350823955,
				"element": "C" 
			},
			{
				"x": 0.4601226594,
				"y": -3.1230117639,
				"z": 0.0814613301,
				"element": "C" 
			},
			{
				"x": -2.3655158557,
				"y": 0.7538356126,
				"z": 3.6265703428,
				"element": "H" 
			},
			{
				"x": -0.977970975,
				"y": 1.6164020852,
				"z": 2.9404838587,
				"element": "H" 
			},
			{
				"x": -2.119723432,
				"y": 0.8087485091,
				"z": 1.8684940116,
				"element": "H" 
			},
			{
				"x": -0.2823432865,
				"y": -0.569675937,
				"z": 3.9014072579,
				"element": "H" 
			},
			{
				"x": -2.1790250775,
				"y": -1.8725462442,
				"z": 1.8711155697,
				"element": "H" 
			},
			{
				"x": -1.1012064571,
				"y": -2.7283649079,
				"z": 2.992146096,
				"element": "H" 
			},
			{
				"x": -2.4527308051,
				"y": -1.7754015793,
				"z": 3.6130912719,
				"element": "H" 
			},
			{
				"x": 0.9839612719,
				"y": 0.3026808532,
				"z": 2.0008937754,
				"element": "H" 
			},
			{
				"x": 1.0148262489,
				"y": -1.4612578408,
				"z": 2.1026475014,
				"element": "H" 
			},
			{
				"x": -0.6101514943,
				"y": 1.1343035353,
				"z": -3.2467141333,
				"element": "H" 
			},
			{
				"x": -1.3384004063,
				"y": 2.0479633461,
				"z": -1.910456101,
				"element": "H" 
			},
			{
				"x": -2.2612766368,
				"y": 0.7784887254,
				"z": -2.7369176651,
				"element": "H" 
			},
			{
				"x": -1.6000071123,
				"y": -1.8358201741,
				"z": -3.3284815787,
				"element": "H" 
			},
			{
				"x": -0.7272904407,
				"y": -3.1744778522,
				"z": -2.6345968396,
				"element": "H" 
			},
			{
				"x": 1.3155432315,
				"y": -0.7781571715,
				"z": -2.6926062184,
				"element": "H" 
			},
			{
				"x": 1.4991278446,
				"y": -3.1089673767,
				"z": 0.4309366885,
				"element": "H" 
			},
			{
				"x": 0.4122691786,
				"y": -3.810003457,
				"z": -0.7661548186,
				"element": "H" 
			},
			{
				"x": -0.1537722467,
				"y": -3.5435799253,
				"z": 0.8843661085,
				"element": "H" 
			}
		],
		 "valence_orbital": [ 
			{
				"type": "occ",
				"energy": -0.30363,
				"method": "rhf"
			},
			{
				"type": "occ",
				"energy": -0.28797,
				"method": "rhf"
			},
			{
				"type": "occ",
				"energy": -0.27296,
				"method": "rhf"
			},
			{
				"type": "occ",
				"energy": -0.2464,
				"method": "rhf"
			},
			{
				"type": "occ",
				"energy": -0.2361,
				"method": "rhf"
			},
			{
				"type": "unocc",
				"energy": 0.00485,
				"method": "rhf"
			},
			{
				"type": "unocc",
				"energy": 0.02104,
				"method": "rhf"
			},
			{
				"type": "unocc",
				"energy": 0.04806,
				"method": "rhf"
			},
			{
				"type": "unocc",
				"energy": 0.0616,
				"method": "rhf"
			},
			{
				"type": "unocc",
				"energy": 0.08385,
				"method": "rhf"
			}
		],
		"cosmo_sigma_profile": { 
			"-0.025": 0.0,
			"-0.024": 0.0,
			"-0.023": 0.0,
			"-0.022": 0.0,
			"-0.021": 0.0,
			"-0.02": 0.0,
			"-0.019": 0.0,
			"-0.018": 0.0,
			"-0.017": 0.0,
			"-0.016": 0.0,
			"-0.015": 0.0,
			"-0.014": 0.0890412412131,
			"-0.013": 0.450426228892,
			"-0.012": 0.143766107342,
			"-0.011": 0.635105887465,
			"-0.01": 1.18173990765,
			"-0.009": 0.987672898532,
			"-0.008": 1.93024279688,
			"-0.007": 4.91926674764,
			"-0.006": 11.0630636168,
			"-0.005": 18.264006795,
			"-0.004": 24.4004930168,
			"-0.003": 31.5086861831,
			"-0.002": 32.0749070096,
			"-0.001": 29.4587867427,
			"0.0": 25.8977208978,
			"0.001": 19.2501558698,
			"0.002": 11.7887240892,
			"0.003": 5.6910796992,
			"0.004": 6.10142274519,
			"0.005": 4.45236923762,
			"0.006": 5.05216440566,
			"0.007": 3.86005747581,
			"0.008": 3.82371699802,
			"0.009": 3.91305042846,
			"0.01": 5.46763390811,
			"0.011": 5.76876747681,
			"0.012": 7.32562763983,
			"0.013": 4.56119311834,
			"0.014": 1.26115450312,
			"0.015": 0.61224342995,
			"0.016": 0.242563137507,
			"0.017": 0.0,
			"0.018": 0.0,
			"0.019": 0.0,
			"0.02": 0.0,
			"0.021": 0.0,
			"0.022": 0.0,
			"0.023": 0.0,
			"0.024": 0.0,
			"0.025": 0.0
		}
	}
}
