{
	 "smiles": "OC(=O)CSC1=CC=NC2=CC(Cl)=CC=C12", 
	 "Tm": 497.15, 
	 "num_atms": 24, 
	 "gaussian": { 
		 "optdone": 1, 
		 "sigma_profile": "yes", 
		 "theory": "DFT", 
		 "functional": "B3LYP", 
		 "basiset": "6-31G**", 
		 "properties": { 
			 "R2extent": 6404.2858, 
			 "electric_dipole_moment_norm": 3.45028671417, 
			 "electric_quadrupole_moment_norm": 21.1603298249, 
			 "total_energy": -1487.58074707, 
			 "HOMO_LUMO_gap": 0.17068, 
			 "cosmo_polarized_energy": -16.12, 
			 "cosmo_cavitation_energy": 31.82, 
			 "cosmo_dispersion_energy": -23.9, 
			 "cosmo_repulsion_energy": 1.8, 
			 "cosmo_total_nonelectrostatic_energy": 9.72, 
			 "SMD_solvation_energy": 4.36 
		},
		"coords": [
			{
				"x": -3.9311970797,
				"y": 0.8674353542,
				"z": -1.1470060677,
				"element": "O" 
			},
			{
				"x": -3.7233015292,
				"y": 0.5086246885,
				"z": 0.1316488097,
				"element": "C" 
			},
			{
				"x": -4.4562102858,
				"y": -0.2537171322,
				"z": 0.7108557939,
				"element": "O" 
			},
			{
				"x": -2.531251767,
				"y": 1.1615807457,
				"z": 0.8469365217,
				"element": "C" 
			},
			{
				"x": -1.11221331,
				"y": 1.6461584555,
				"z": -0.1941569505,
				"element": "S" 
			},
			{
				"x": -0.3587726094,
				"y": 0.0800222982,
				"z": -0.6154706895,
				"element": "C" 
			},
			{
				"x": -0.8873290115,
				"y": -1.1468705586,
				"z": -0.2687724721,
				"element": "C" 
			},
			{
				"x": -0.201074015,
				"y": -2.3243736469,
				"z": -0.6564435521,
				"element": "C" 
			},
			{
				"x": 0.922520225,
				"y": -2.3485395639,
				"z": -1.3390181749,
				"element": "N" 
			},
			{
				"x": 1.461289083,
				"y": -1.1456176601,
				"z": -1.6934759316,
				"element": "C" 
			},
			{
				"x": 2.6738529753,
				"y": -1.1691201142,
				"z": -2.4316921936,
				"element": "C" 
			},
			{
				"x": 3.2651351237,
				"y": 0.0106808448,
				"z": -2.8144866392,
				"element": "C" 
			},
			{
				"x": 4.7632304223,
				"y": -0.0137858491,
				"z": -3.727266439,
				"element": "Cl" 
			},
			{
				"x": 2.6936347393,
				"y": 1.261985282,
				"z": -2.487025424,
				"element": "C" 
			},
			{
				"x": 1.5183893366,
				"y": 1.3043960458,
				"z": -1.7719871688,
				"element": "C" 
			},
			{
				"x": 0.8662411731,
				"y": 0.1138108389,
				"z": -1.3567685156,
				"element": "C" 
			},
			{
				"x": -3.1916728468,
				"y": 1.4233456961,
				"z": -1.4530377754,
				"element": "H" 
			},
			{
				"x": -2.8758844336,
				"y": 2.1071169164,
				"z": 1.280382731,
				"element": "H" 
			},
			{
				"x": -2.2192536573,
				"y": 0.5180551752,
				"z": 1.6703117694,
				"element": "H" 
			},
			{
				"x": -1.8141558575,
				"y": -1.2503335905,
				"z": 0.2818547323,
				"element": "H" 
			},
			{
				"x": -0.6242644702,
				"y": -3.2891269615,
				"z": -0.3798334036,
				"element": "H" 
			},
			{
				"x": 3.103115573,
				"y": -2.1336439665,
				"z": -2.6744772536,
				"element": "H" 
			},
			{
				"x": 3.1867733871,
				"y": 2.1752099481,
				"z": -2.8000490881,
				"element": "H" 
			},
			{
				"x": 1.0920988346,
				"y": 2.2707067539,
				"z": -1.5219226186,
				"element": "H" 
			}
		],
		 "valence_orbital": [ 
			{
				"type": "occ",
				"energy": -0.29545,
				"method": "rhf"
			},
			{
				"type": "occ",
				"energy": -0.27517,
				"method": "rhf"
			},
			{
				"type": "occ",
				"energy": -0.27085,
				"method": "rhf"
			},
			{
				"type": "occ",
				"energy": -0.26085,
				"method": "rhf"
			},
			{
				"type": "occ",
				"energy": -0.2436,
				"method": "rhf"
			},
			{
				"type": "unocc",
				"energy": -0.07292,
				"method": "rhf"
			},
			{
				"type": "unocc",
				"energy": -0.03792,
				"method": "rhf"
			},
			{
				"type": "unocc",
				"energy": -0.01854,
				"method": "rhf"
			},
			{
				"type": "unocc",
				"energy": -0.00014,
				"method": "rhf"
			},
			{
				"type": "unocc",
				"energy": 0.00888,
				"method": "rhf"
			}
		],
		"cosmo_sigma_profile": { 
			"-0.025": 0.0,
			"-0.024": 0.0,
			"-0.023": 0.0,
			"-0.022": 0.0,
			"-0.021": 0.0,
			"-0.02": 0.0,
			"-0.019": 0.0,
			"-0.018": 0.0,
			"-0.017": 0.0,
			"-0.016": 0.00771858799406,
			"-0.015": 0.413541961263,
			"-0.014": 1.10872070141,
			"-0.013": 1.19354195549,
			"-0.012": 1.08373722487,
			"-0.011": 3.45434534421,
			"-0.01": 3.79115256745,
			"-0.009": 4.27093835802,
			"-0.008": 6.61326889732,
			"-0.007": 14.0148593662,
			"-0.006": 12.3812125585,
			"-0.005": 10.9960184351,
			"-0.004": 10.55479612,
			"-0.003": 12.4820347576,
			"-0.002": 10.7308082265,
			"-0.001": 16.9211716012,
			"0.0": 24.2222574041,
			"0.001": 31.8116613102,
			"0.002": 22.2610663976,
			"0.003": 13.3111855456,
			"0.004": 15.0478864199,
			"0.005": 7.6164450524,
			"0.006": 3.92920484344,
			"0.007": 3.49144293492,
			"0.008": 4.68167747015,
			"0.009": 5.41182164494,
			"0.01": 4.92894450215,
			"0.011": 5.98812999103,
			"0.012": 4.48253747513,
			"0.013": 1.07705557061,
			"0.014": 0.700630971215,
			"0.015": 0.827118695575,
			"0.016": 0.242441392034,
			"0.017": 0.0,
			"0.018": 0.0,
			"0.019": 0.0,
			"0.02": 0.0,
			"0.021": 0.0,
			"0.022": 0.0,
			"0.023": 0.0,
			"0.024": 0.0,
			"0.025": 0.0
		}
	}
}
