{
	 "smiles": "CCN1C=CN=C1C(O)CCC1=CC=CC=C1", 
	 "Tm": 351.15, 
	 "num_atms": 35, 
	 "gaussian": { 
		 "optdone": 1, 
		 "sigma_profile": "yes", 
		 "theory": "DFT", 
		 "functional": "B3LYP", 
		 "basiset": "6-31G**", 
		 "properties": { 
			 "R2extent": 5131.2357, 
			 "electric_dipole_moment_norm": 2.37306622116, 
			 "electric_quadrupole_moment_norm": 9.99363664939, 
			 "total_energy": -729.069672213, 
			 "HOMO_LUMO_gap": 0.2199, 
			 "cosmo_polarized_energy": -12.48, 
			 "cosmo_cavitation_energy": 37.24, 
			 "cosmo_dispersion_energy": -24.87, 
			 "cosmo_repulsion_energy": 1.94, 
			 "cosmo_total_nonelectrostatic_energy": 14.32, 
			 "SMD_solvation_energy": 4.99 
		},
		"coords": [
			{
				"x": -1.9895197134,
				"y": -2.7868478906,
				"z": 2.5899529085,
				"element": "C" 
			},
			{
				"x": -1.7403021573,
				"y": -2.3986303332,
				"z": 1.1304887608,
				"element": "C" 
			},
			{
				"x": -1.6573198147,
				"y": -0.9501522118,
				"z": 0.9345933449,
				"element": "N" 
			},
			{
				"x": -2.7124495374,
				"y": -0.1277886906,
				"z": 0.5949518821,
				"element": "C" 
			},
			{
				"x": -2.2152067987,
				"y": 1.1515273611,
				"z": 0.6136529485,
				"element": "C" 
			},
			{
				"x": -0.8867937163,
				"y": 1.1419104269,
				"z": 0.9601520728,
				"element": "N" 
			},
			{
				"x": -0.5733981342,
				"y": -0.1307618415,
				"z": 1.1505439064,
				"element": "C" 
			},
			{
				"x": 0.7645113783,
				"y": -0.6162723197,
				"z": 1.6400426506,
				"element": "C" 
			},
			{
				"x": 0.7434906644,
				"y": -0.8018339384,
				"z": 3.0679478705,
				"element": "O" 
			},
			{
				"x": 1.9123345637,
				"y": 0.3139786919,
				"z": 1.2304264769,
				"element": "C" 
			},
			{
				"x": 2.1570843577,
				"y": 0.4044457042,
				"z": -0.2911906028,
				"element": "C" 
			},
			{
				"x": 2.4761481242,
				"y": -0.9239934535,
				"z": -0.9480259646,
				"element": "C" 
			},
			{
				"x": 1.5346692008,
				"y": -1.5759276301,
				"z": -1.756860035,
				"element": "C" 
			},
			{
				"x": 1.8221958255,
				"y": -2.8095331925,
				"z": -2.3463348666,
				"element": "C" 
			},
			{
				"x": 3.0619332447,
				"y": -3.4143753166,
				"z": -2.1364777583,
				"element": "C" 
			},
			{
				"x": 4.011383609,
				"y": -2.7753255529,
				"z": -1.3353255758,
				"element": "C" 
			},
			{
				"x": 3.7192692187,
				"y": -1.5438628785,
				"z": -0.7490946013,
				"element": "C" 
			},
			{
				"x": -2.9394890864,
				"y": -2.3745078688,
				"z": 2.9440358156,
				"element": "H" 
			},
			{
				"x": -2.0309087872,
				"y": -3.8766109659,
				"z": 2.6866813601,
				"element": "H" 
			},
			{
				"x": -1.1842610718,
				"y": -2.4049510066,
				"z": 3.2223057947,
				"element": "H" 
			},
			{
				"x": -0.8111310428,
				"y": -2.8459791926,
				"z": 0.766130617,
				"element": "H" 
			},
			{
				"x": -2.5433316739,
				"y": -2.7649885585,
				"z": 0.4837853795,
				"element": "H" 
			},
			{
				"x": -3.6894953938,
				"y": -0.526524888,
				"z": 0.365923474,
				"element": "H" 
			},
			{
				"x": -2.7356825138,
				"y": 2.0719612557,
				"z": 0.3870386018,
				"element": "H" 
			},
			{
				"x": 0.9635930545,
				"y": -1.6166380478,
				"z": 1.2436496262,
				"element": "H" 
			},
			{
				"x": 0.4831977414,
				"y": 0.0479843757,
				"z": 3.4516384163,
				"element": "H" 
			},
			{
				"x": 1.6989500886,
				"y": 1.3196620479,
				"z": 1.6093622346,
				"element": "H" 
			},
			{
				"x": 2.8121127223,
				"y": -0.0513024573,
				"z": 1.7378765188,
				"element": "H" 
			},
			{
				"x": 1.2763984223,
				"y": 0.8513098301,
				"z": -0.7619293283,
				"element": "H" 
			},
			{
				"x": 2.9882923656,
				"y": 1.1010015773,
				"z": -0.4563280027,
				"element": "H" 
			},
			{
				"x": 0.5694562102,
				"y": -1.1063821366,
				"z": -1.9310547124,
				"element": "H" 
			},
			{
				"x": 1.0789221709,
				"y": -3.2939024573,
				"z": -2.9740277119,
				"element": "H" 
			},
			{
				"x": 3.2894554671,
				"y": -4.3718685242,
				"z": -2.5963306021,
				"element": "H" 
			},
			{
				"x": 4.9823124604,
				"y": -3.2347288768,
				"z": -1.1709625853,
				"element": "H" 
			},
			{
				"x": 4.4679785511,
				"y": -1.0516910401,
				"z": -0.1323383135,
				"element": "H" 
			}
		],
		 "valence_orbital": [ 
			{
				"type": "occ",
				"energy": -0.2658,
				"method": "rhf"
			},
			{
				"type": "occ",
				"energy": -0.2602,
				"method": "rhf"
			},
			{
				"type": "occ",
				"energy": -0.24651,
				"method": "rhf"
			},
			{
				"type": "occ",
				"energy": -0.23692,
				"method": "rhf"
			},
			{
				"type": "occ",
				"energy": -0.21963,
				"method": "rhf"
			},
			{
				"type": "unocc",
				"energy": 0.00027,
				"method": "rhf"
			},
			{
				"type": "unocc",
				"energy": 0.00267,
				"method": "rhf"
			},
			{
				"type": "unocc",
				"energy": 0.02181,
				"method": "rhf"
			},
			{
				"type": "unocc",
				"energy": 0.06729,
				"method": "rhf"
			},
			{
				"type": "unocc",
				"energy": 0.08264,
				"method": "rhf"
			}
		],
		"cosmo_sigma_profile": { 
			"-0.025": 0.0,
			"-0.024": 0.0,
			"-0.023": 0.0,
			"-0.022": 0.0,
			"-0.021": 0.0,
			"-0.02": 0.0,
			"-0.019": 0.0,
			"-0.018": 0.0,
			"-0.017": 0.0,
			"-0.016": 0.0,
			"-0.015": 0.479950471713,
			"-0.014": 0.619067873903,
			"-0.013": 1.01468042695,
			"-0.012": 0.552468077006,
			"-0.011": 0.418096120393,
			"-0.01": 1.09340482142,
			"-0.009": 0.584645867198,
			"-0.008": 2.70370802113,
			"-0.007": 3.88244316772,
			"-0.006": 9.9001049712,
			"-0.005": 16.7303206303,
			"-0.004": 25.0719302001,
			"-0.003": 35.12364205,
			"-0.002": 28.3355091022,
			"-0.001": 26.8887385802,
			"0.0": 25.3649860443,
			"0.001": 20.140879418,
			"0.002": 16.4891778064,
			"0.003": 13.6900524155,
			"0.004": 14.4257234644,
			"0.005": 13.3175560219,
			"0.006": 13.1611103219,
			"0.007": 5.85899569979,
			"0.008": 2.78495201647,
			"0.009": 2.09785630477,
			"0.01": 2.8125575616,
			"0.011": 2.36186259479,
			"0.012": 1.74910673552,
			"0.013": 1.63993336686,
			"0.014": 1.85411894701,
			"0.015": 1.02006595632,
			"0.016": 0.843291732876,
			"0.017": 0.427757932613,
			"0.018": 0.0266920345194,
			"0.019": 0.0,
			"0.02": 0.0,
			"0.021": 0.0,
			"0.022": 0.0,
			"0.023": 0.0,
			"0.024": 0.0,
			"0.025": 0.0
		}
	}
}
