{
	 "smiles": "CC1=C(CN)C(=NO1)C1=CC=CC=C1", 
	 "Tm": 340.15, 
	 "num_atms": 26, 
	 "gaussian": { 
		 "optdone": 1, 
		 "sigma_profile": "yes", 
		 "theory": "DFT", 
		 "functional": "B3LYP", 
		 "basiset": "6-31G**", 
		 "properties": { 
			 "R2extent": 3173.8346, 
			 "electric_dipole_moment_norm": 4.31231554156, 
			 "electric_quadrupole_moment_norm": 11.518278927, 
			 "total_energy": -611.086185204, 
			 "HOMO_LUMO_gap": 0.20599, 
			 "cosmo_polarized_energy": -12.4, 
			 "cosmo_cavitation_energy": 29.35, 
			 "cosmo_dispersion_energy": -21.41, 
			 "cosmo_repulsion_energy": 1.7, 
			 "cosmo_total_nonelectrostatic_energy": 9.64, 
			 "SMD_solvation_energy": 4.5 
		},
		"coords": [
			{
				"x": 3.1954739809,
				"y": 0.7490531016,
				"z": -2.4593401837,
				"element": "C" 
			},
			{
				"x": 2.0818034877,
				"y": 0.1234927644,
				"z": -1.6908476642,
				"element": "C" 
			},
			{
				"x": 0.8376192327,
				"y": 0.546301363,
				"z": -1.3142128357,
				"element": "C" 
			},
			{
				"x": 0.1995152696,
				"y": 1.8695253203,
				"z": -1.6198463369,
				"element": "C" 
			},
			{
				"x": 0.2219147956,
				"y": 2.7696695073,
				"z": -0.4540562453,
				"element": "N" 
			},
			{
				"x": 0.2977572577,
				"y": -0.5885823727,
				"z": -0.6062594094,
				"element": "C" 
			},
			{
				"x": 1.1592326035,
				"y": -1.5865018005,
				"z": -0.5748486656,
				"element": "N" 
			},
			{
				"x": 2.290195484,
				"y": -1.1385892215,
				"z": -1.2609804939,
				"element": "O" 
			},
			{
				"x": -1.0364686278,
				"y": -0.7694865321,
				"z": 0.0019273503,
				"element": "C" 
			},
			{
				"x": -1.614625668,
				"y": -2.0504583452,
				"z": 0.0319162036,
				"element": "C" 
			},
			{
				"x": -2.8668235268,
				"y": -2.2448048348,
				"z": 0.6089613366,
				"element": "C" 
			},
			{
				"x": -3.5614885818,
				"y": -1.1648750998,
				"z": 1.1608022289,
				"element": "C" 
			},
			{
				"x": -2.9910587505,
				"y": 0.1084260541,
				"z": 1.1374552499,
				"element": "C" 
			},
			{
				"x": -1.7344529807,
				"y": 0.3115867841,
				"z": 0.5644395459,
				"element": "C" 
			},
			{
				"x": 2.912162839,
				"y": 1.7445104943,
				"z": -2.8077173739,
				"element": "H" 
			},
			{
				"x": 4.0941198895,
				"y": 0.8420908737,
				"z": -1.8399443318,
				"element": "H" 
			},
			{
				"x": 3.4580121435,
				"y": 0.1387244064,
				"z": -3.3296544208,
				"element": "H" 
			},
			{
				"x": 0.6868186534,
				"y": 2.2942251314,
				"z": -2.5131966133,
				"element": "H" 
			},
			{
				"x": -0.8511837076,
				"y": 1.7080110146,
				"z": -1.888297347,
				"element": "H" 
			},
			{
				"x": -0.1711356984,
				"y": 3.6734942356,
				"z": -0.7071452951,
				"element": "H" 
			},
			{
				"x": 1.1825649315,
				"y": 2.9334356627,
				"z": -0.1628783304,
				"element": "H" 
			},
			{
				"x": -1.0715380792,
				"y": -2.8826512112,
				"z": -0.4033770385,
				"element": "H" 
			},
			{
				"x": -3.3042728042,
				"y": -3.2391094429,
				"z": 0.6239004469,
				"element": "H" 
			},
			{
				"x": -4.5402919505,
				"y": -1.3170750011,
				"z": 1.6071399381,
				"element": "H" 
			},
			{
				"x": -3.5221443342,
				"y": 0.9496826068,
				"z": 1.5744253992,
				"element": "H" 
			},
			{
				"x": -1.2758058592,
				"y": 1.2972045414,
				"z": 0.5723348859,
				"element": "H" 
			}
		],
		 "valence_orbital": [ 
			{
				"type": "occ",
				"energy": -0.29093,
				"method": "rhf"
			},
			{
				"type": "occ",
				"energy": -0.24922,
				"method": "rhf"
			},
			{
				"type": "occ",
				"energy": -0.24727,
				"method": "rhf"
			},
			{
				"type": "occ",
				"energy": -0.24351,
				"method": "rhf"
			},
			{
				"type": "occ",
				"energy": -0.23048,
				"method": "rhf"
			},
			{
				"type": "unocc",
				"energy": -0.02449,
				"method": "rhf"
			},
			{
				"type": "unocc",
				"energy": 0.00535,
				"method": "rhf"
			},
			{
				"type": "unocc",
				"energy": 0.01239,
				"method": "rhf"
			},
			{
				"type": "unocc",
				"energy": 0.06197,
				"method": "rhf"
			},
			{
				"type": "unocc",
				"energy": 0.08515,
				"method": "rhf"
			}
		],
		"cosmo_sigma_profile": { 
			"-0.025": 0.0,
			"-0.024": 0.0,
			"-0.023": 0.0,
			"-0.022": 0.0,
			"-0.021": 0.0,
			"-0.02": 0.0,
			"-0.019": 0.0,
			"-0.018": 0.0,
			"-0.017": 0.0,
			"-0.016": 0.0,
			"-0.015": 0.0,
			"-0.014": 0.0,
			"-0.013": 0.0,
			"-0.012": 0.0,
			"-0.011": 0.066593088543,
			"-0.01": 2.07395137789,
			"-0.009": 2.48473349904,
			"-0.008": 2.88887726483,
			"-0.007": 3.652130015,
			"-0.006": 13.371866769,
			"-0.005": 18.9285623639,
			"-0.004": 20.5570745722,
			"-0.003": 21.5201078692,
			"-0.002": 21.0159272967,
			"-0.001": 15.1068771362,
			"0.0": 10.4663407806,
			"0.001": 15.2051234025,
			"0.002": 14.3365000599,
			"0.003": 14.1521235526,
			"0.004": 13.4990988116,
			"0.005": 14.3502766633,
			"0.006": 6.46992367731,
			"0.007": 3.65365690602,
			"0.008": 5.27847106419,
			"0.009": 4.78060530157,
			"0.01": 2.59248239208,
			"0.011": 1.87596104027,
			"0.012": 2.51338952128,
			"0.013": 1.26069021748,
			"0.014": 0.8151492578,
			"0.015": 0.327697600086,
			"0.016": 0.0,
			"0.017": 0.0,
			"0.018": 0.0,
			"0.019": 0.0,
			"0.02": 0.0,
			"0.021": 0.0,
			"0.022": 0.0,
			"0.023": 0.0,
			"0.024": 0.0,
			"0.025": 0.0
		}
	}
}
