{
	 "smiles": "OC(=O)C1=CC2=C(N1)C=CC(F)=C2F", 
	 "Tm": 483.15, 
	 "num_atms": 19, 
	 "gaussian": { 
		 "optdone": 1, 
		 "sigma_profile": "yes", 
		 "theory": "DFT", 
		 "functional": "B3LYP", 
		 "basiset": "6-31G**", 
		 "properties": { 
			 "R2extent": 3278.2538, 
			 "electric_dipole_moment_norm": 2.11782635974, 
			 "electric_quadrupole_moment_norm": 12.7074721987, 
			 "total_energy": -750.854750488, 
			 "HOMO_LUMO_gap": 0.16143, 
			 "cosmo_polarized_energy": -11.38, 
			 "cosmo_cavitation_energy": 25.61, 
			 "cosmo_dispersion_energy": -18.69, 
			 "cosmo_repulsion_energy": 1.41, 
			 "cosmo_total_nonelectrostatic_energy": 8.33, 
			 "SMD_solvation_energy": 6.29 
		},
		"coords": [
			{
				"x": -1.8648980231,
				"y": -1.4425429852,
				"z": -3.3029211382,
				"element": "O" 
			},
			{
				"x": -2.0637911573,
				"y": -0.4134419994,
				"z": -2.4509476434,
				"element": "C" 
			},
			{
				"x": -2.8512132161,
				"y": 0.4925778249,
				"z": -2.6650014208,
				"element": "O" 
			},
			{
				"x": -1.2394848106,
				"y": -0.4979470011,
				"z": -1.2460594707,
				"element": "C" 
			},
			{
				"x": -0.30662871,
				"y": -1.4213330976,
				"z": -0.8212799688,
				"element": "C" 
			},
			{
				"x": 0.1650161891,
				"y": -0.9623230108,
				"z": 0.4432240595,
				"element": "C" 
			},
			{
				"x": -0.5177922996,
				"y": 0.2546554442,
				"z": 0.7459638993,
				"element": "C" 
			},
			{
				"x": -1.3642534773,
				"y": 0.5063270849,
				"z": -0.3040208471,
				"element": "N" 
			},
			{
				"x": -0.2829447538,
				"y": 0.9710636922,
				"z": 1.9287080088,
				"element": "C" 
			},
			{
				"x": 0.6505181527,
				"y": 0.4542484272,
				"z": 2.8151939612,
				"element": "C" 
			},
			{
				"x": 1.3322452899,
				"y": -0.7431024383,
				"z": 2.5329465675,
				"element": "C" 
			},
			{
				"x": 2.2322649347,
				"y": -1.2126649615,
				"z": 3.4201706564,
				"element": "F" 
			},
			{
				"x": 1.1013658927,
				"y": -1.4497056615,
				"z": 1.3675801296,
				"element": "C" 
			},
			{
				"x": 1.7649206298,
				"y": -2.5913918843,
				"z": 1.1196912984,
				"element": "F" 
			},
			{
				"x": -2.4561352858,
				"y": -1.2861088635,
				"z": -4.0577057521,
				"element": "H" 
			},
			{
				"x": -0.0053329893,
				"y": -2.3100683892,
				"z": -1.3536385417,
				"element": "H" 
			},
			{
				"x": -1.9966910747,
				"y": 1.2838234289,
				"z": -0.4204001749,
				"element": "H" 
			},
			{
				"x": -0.8078291132,
				"y": 1.8946982153,
				"z": 2.1479644273,
				"element": "H" 
			},
			{
				"x": 0.8795638216,
				"y": 0.9581361749,
				"z": 3.7478319498,
				"element": "H" 
			}
		],
		 "valence_orbital": [ 
			{
				"type": "occ",
				"energy": -0.32608,
				"method": "rhf"
			},
			{
				"type": "occ",
				"energy": -0.29463,
				"method": "rhf"
			},
			{
				"type": "occ",
				"energy": -0.29229,
				"method": "rhf"
			},
			{
				"type": "occ",
				"energy": -0.23865,
				"method": "rhf"
			},
			{
				"type": "occ",
				"energy": -0.22108,
				"method": "rhf"
			},
			{
				"type": "unocc",
				"energy": -0.05965,
				"method": "rhf"
			},
			{
				"type": "unocc",
				"energy": 0.00958,
				"method": "rhf"
			},
			{
				"type": "unocc",
				"energy": 0.01606,
				"method": "rhf"
			},
			{
				"type": "unocc",
				"energy": 0.06886,
				"method": "rhf"
			},
			{
				"type": "unocc",
				"energy": 0.07459,
				"method": "rhf"
			}
		],
		"cosmo_sigma_profile": { 
			"-0.025": 0.0,
			"-0.024": 0.0,
			"-0.023": 0.0,
			"-0.022": 0.0,
			"-0.021": 0.0,
			"-0.02": 0.0,
			"-0.019": 0.393231516498,
			"-0.018": 0.808162413531,
			"-0.017": 0.962514253233,
			"-0.016": 1.23961821475,
			"-0.015": 1.72306682702,
			"-0.014": 1.51408740167,
			"-0.013": 1.58304102866,
			"-0.012": 2.029845159,
			"-0.011": 1.48042710967,
			"-0.01": 1.40556626589,
			"-0.009": 1.55188046469,
			"-0.008": 4.66830407213,
			"-0.007": 7.42459829842,
			"-0.006": 5.50060212556,
			"-0.005": 6.38365042571,
			"-0.004": 5.32403074635,
			"-0.003": 8.74818390139,
			"-0.002": 9.01205410596,
			"-0.001": 10.0859196444,
			"0.0": 19.5299542453,
			"0.001": 21.9811561957,
			"0.002": 24.2350300098,
			"0.003": 22.0648150481,
			"0.004": 23.3928694131,
			"0.005": 5.1549301732,
			"0.006": 1.51834729928,
			"0.007": 3.92450188729,
			"0.008": 2.73697239795,
			"0.009": 1.0408043611,
			"0.01": 2.69749413484,
			"0.011": 4.07688308115,
			"0.012": 2.18005225521,
			"0.013": 0.0501741285992,
			"0.014": 0.0,
			"0.015": 0.0,
			"0.016": 0.0,
			"0.017": 0.0,
			"0.018": 0.0,
			"0.019": 0.0,
			"0.02": 0.0,
			"0.021": 0.0,
			"0.022": 0.0,
			"0.023": 0.0,
			"0.024": 0.0,
			"0.025": 0.0
		}
	}
}
