{
	 "smiles": "CC(C)C1=C2C=CC=CC2=CC=C1", 
	 "Tm": 257.15, 
	 "num_atms": 27, 
	 "gaussian": { 
		 "optdone": 1, 
		 "sigma_profile": "yes", 
		 "theory": "DFT", 
		 "functional": "B3LYP", 
		 "basiset": "6-31G**", 
		 "properties": { 
			 "R2extent": 2581.9695, 
			 "electric_dipole_moment_norm": 0.273207796375, 
			 "electric_quadrupole_moment_norm": 7.30994868655, 
			 "total_energy": -503.840836296, 
			 "HOMO_LUMO_gap": 0.17441, 
			 "cosmo_polarized_energy": -4.49, 
			 "cosmo_cavitation_energy": 28.41, 
			 "cosmo_dispersion_energy": -20.74, 
			 "cosmo_repulsion_energy": 1.62, 
			 "cosmo_total_nonelectrostatic_energy": 9.29, 
			 "SMD_solvation_energy": 4.72 
		},
		"coords": [
			{
				"x": 1.7368555252,
				"y": -1.4898725194,
				"z": -0.164868593,
				"element": "C" 
			},
			{
				"x": 0.3199923752,
				"y": -1.7740366122,
				"z": 0.3768104496,
				"element": "C" 
			},
			{
				"x": -0.5038827169,
				"y": -2.6653204321,
				"z": -0.5763514348,
				"element": "C" 
			},
			{
				"x": -0.4231336518,
				"y": -0.5224772426,
				"z": 0.8493782491,
				"element": "C" 
			},
			{
				"x": -0.8308658795,
				"y": 0.5559274311,
				"z": -0.0134725858,
				"element": "C" 
			},
			{
				"x": -0.5886201047,
				"y": 0.5841181219,
				"z": -1.4177355477,
				"element": "C" 
			},
			{
				"x": -0.9978697943,
				"y": 1.6386011148,
				"z": -2.2042635459,
				"element": "C" 
			},
			{
				"x": -1.6790912434,
				"y": 2.7386256345,
				"z": -1.6351731347,
				"element": "C" 
			},
			{
				"x": -1.9337764099,
				"y": 2.7527743422,
				"z": -0.2840098577,
				"element": "C" 
			},
			{
				"x": -1.525182339,
				"y": 1.6809611569,
				"z": 0.5556161315,
				"element": "C" 
			},
			{
				"x": -1.7973563124,
				"y": 1.7136770275,
				"z": 1.9488748142,
				"element": "C" 
			},
			{
				"x": -1.4009797533,
				"y": 0.6765498574,
				"z": 2.7558459576,
				"element": "C" 
			},
			{
				"x": -0.7190818524,
				"y": -0.4289400204,
				"z": 2.1984557766,
				"element": "C" 
			},
			{
				"x": 2.264283881,
				"y": -2.4330305875,
				"z": -0.3462401654,
				"element": "H" 
			},
			{
				"x": 2.3190519098,
				"y": -0.9113618952,
				"z": 0.5591510446,
				"element": "H" 
			},
			{
				"x": 1.7303200556,
				"y": -0.9303019263,
				"z": -1.1036613815,
				"element": "H" 
			},
			{
				"x": 0.4675570554,
				"y": -2.373119642,
				"z": 1.2844115613,
				"element": "H" 
			},
			{
				"x": -1.4780638613,
				"y": -2.9034774185,
				"z": -0.1380837582,
				"element": "H" 
			},
			{
				"x": 0.0246459551,
				"y": -3.6078737437,
				"z": -0.7576631192,
				"element": "H" 
			},
			{
				"x": -0.6856849119,
				"y": -2.1975392356,
				"z": -1.5472321773,
				"element": "H" 
			},
			{
				"x": -0.0699880645,
				"y": -0.2407735018,
				"z": -1.8868810658,
				"element": "H" 
			},
			{
				"x": -0.7948583925,
				"y": 1.6239046704,
				"z": -3.2713769319,
				"element": "H" 
			},
			{
				"x": -1.9976351084,
				"y": 3.5651317366,
				"z": -2.2637870417,
				"element": "H" 
			},
			{
				"x": -2.4566874479,
				"y": 3.5915250432,
				"z": 0.1688855895,
				"element": "H" 
			},
			{
				"x": -2.3227698227,
				"y": 2.5717928591,
				"z": 2.3600085833,
				"element": "H" 
			},
			{
				"x": -1.6067918023,
				"y": 0.6967971911,
				"z": 3.8222783377,
				"element": "H" 
			},
			{
				"x": -0.4154872881,
				"y": -1.2379614093,
				"z": 2.8583838455,
				"element": "H" 
			}
		],
		 "valence_orbital": [ 
			{
				"type": "occ",
				"energy": -0.31839,
				"method": "rhf"
			},
			{
				"type": "occ",
				"energy": -0.30927,
				"method": "rhf"
			},
			{
				"type": "occ",
				"energy": -0.27306,
				"method": "rhf"
			},
			{
				"type": "occ",
				"energy": -0.23849,
				"method": "rhf"
			},
			{
				"type": "occ",
				"energy": -0.20832,
				"method": "rhf"
			},
			{
				"type": "unocc",
				"energy": -0.03391,
				"method": "rhf"
			},
			{
				"type": "unocc",
				"energy": -0.00488,
				"method": "rhf"
			},
			{
				"type": "unocc",
				"energy": 0.03503,
				"method": "rhf"
			},
			{
				"type": "unocc",
				"energy": 0.08699,
				"method": "rhf"
			},
			{
				"type": "unocc",
				"energy": 0.10171,
				"method": "rhf"
			}
		],
		"cosmo_sigma_profile": { 
			"-0.025": 0.0,
			"-0.024": 0.0,
			"-0.023": 0.0,
			"-0.022": 0.0,
			"-0.021": 0.0,
			"-0.02": 0.0,
			"-0.019": 0.0,
			"-0.018": 0.0,
			"-0.017": 0.0,
			"-0.016": 0.0,
			"-0.015": 0.0,
			"-0.014": 0.0,
			"-0.013": 0.0,
			"-0.012": 0.0,
			"-0.011": 0.0,
			"-0.01": 0.0,
			"-0.009": 0.0,
			"-0.008": 0.0,
			"-0.007": 0.0,
			"-0.006": 4.95166530173,
			"-0.005": 16.4456988809,
			"-0.004": 15.7290899715,
			"-0.003": 23.854935981,
			"-0.002": 21.4447329282,
			"-0.001": 24.2217844295,
			"0.0": 20.8431279216,
			"0.001": 24.4121483445,
			"0.002": 15.0324855554,
			"0.003": 12.1935491357,
			"0.004": 17.2710749824,
			"0.005": 20.5502398199,
			"0.006": 8.09359915568,
			"0.007": 0.0,
			"0.008": 0.0,
			"0.009": 0.0,
			"0.01": 0.0,
			"0.011": 0.0,
			"0.012": 0.0,
			"0.013": 0.0,
			"0.014": 0.0,
			"0.015": 0.0,
			"0.016": 0.0,
			"0.017": 0.0,
			"0.018": 0.0,
			"0.019": 0.0,
			"0.02": 0.0,
			"0.021": 0.0,
			"0.022": 0.0,
			"0.023": 0.0,
			"0.024": 0.0,
			"0.025": 0.0
		}
	}
}
