{
	 "smiles": "NC1=NN(C2=NC3=C(C=CC=C3)N=C12)C1=CC=CC=C1", 
	 "Tm": 483.15, 
	 "num_atms": 31, 
	 "gaussian": { 
		 "optdone": 1, 
		 "sigma_profile": "yes", 
		 "theory": "DFT", 
		 "functional": "B3LYP", 
		 "basiset": "6-31G**", 
		 "properties": { 
			 "R2extent": 6208.6376, 
			 "electric_dipole_moment_norm": 2.22379780106, 
			 "electric_quadrupole_moment_norm": 14.3707655805, 
			 "total_energy": -851.976490584, 
			 "HOMO_LUMO_gap": 0.11059, 
			 "cosmo_polarized_energy": -11.67, 
			 "cosmo_cavitation_energy": 35.51, 
			 "cosmo_dispersion_energy": -26.58, 
			 "cosmo_repulsion_energy": 1.99, 
			 "cosmo_total_nonelectrostatic_energy": 10.92, 
			 "SMD_solvation_energy": 2.38 
		},
		"coords": [
			{
				"x": 1.6014297356,
				"y": -2.9953023016,
				"z": -1.9784079576,
				"element": "N" 
			},
			{
				"x": 0.799466888,
				"y": -2.0279301361,
				"z": -1.426591976,
				"element": "C" 
			},
			{
				"x": -0.308886226,
				"y": -2.2812194993,
				"z": -0.77313106,
				"element": "N" 
			},
			{
				"x": -0.8125189789,
				"y": -1.0637152233,
				"z": -0.2960380004,
				"element": "N" 
			},
			{
				"x": 0.0004644588,
				"y": -0.027835335,
				"z": -0.6770143101,
				"element": "C" 
			},
			{
				"x": -0.1100853262,
				"y": 1.2688659656,
				"z": -0.4519448125,
				"element": "N" 
			},
			{
				"x": 0.8912216036,
				"y": 2.0134705046,
				"z": -0.9984570316,
				"element": "C" 
			},
			{
				"x": 1.9716663762,
				"y": 1.4284622116,
				"z": -1.7604667846,
				"element": "C" 
			},
			{
				"x": 2.9766379942,
				"y": 2.2732613348,
				"z": -2.3045798823,
				"element": "C" 
			},
			{
				"x": 2.9252445199,
				"y": 3.6323270397,
				"z": -2.1082286982,
				"element": "C" 
			},
			{
				"x": 1.8648147791,
				"y": 4.2088803224,
				"z": -1.3583528866,
				"element": "C" 
			},
			{
				"x": 0.8741554982,
				"y": 3.4237565269,
				"z": -0.8176683785,
				"element": "C" 
			},
			{
				"x": 2.0521715464,
				"y": 0.0842778434,
				"z": -1.9710569665,
				"element": "N" 
			},
			{
				"x": 1.0787319652,
				"y": -0.609773065,
				"z": -1.4262495343,
				"element": "C" 
			},
			{
				"x": -2.0113321392,
				"y": -1.0691575105,
				"z": 0.4558093464,
				"element": "C" 
			},
			{
				"x": -2.6476078244,
				"y": -2.2917174353,
				"z": 0.7184739577,
				"element": "C" 
			},
			{
				"x": -3.8283478493,
				"y": -2.3093052688,
				"z": 1.4568327013,
				"element": "C" 
			},
			{
				"x": -4.387491012,
				"y": -1.1247431025,
				"z": 1.9402403806,
				"element": "C" 
			},
			{
				"x": -3.7469871971,
				"y": 0.0860916248,
				"z": 1.6744939168,
				"element": "C" 
			},
			{
				"x": -2.5643355543,
				"y": 0.1278202451,
				"z": 0.9369475415,
				"element": "C" 
			},
			{
				"x": 1.1587547527,
				"y": -3.8884531012,
				"z": -2.1424828229,
				"element": "H" 
			},
			{
				"x": 2.2019298416,
				"y": -2.6739948128,
				"z": -2.7242031,
				"element": "H" 
			},
			{
				"x": 3.7743908171,
				"y": 1.8037420517,
				"z": -2.8712546666,
				"element": "H" 
			},
			{
				"x": 3.696174053,
				"y": 4.2730651825,
				"z": -2.5252673563,
				"element": "H" 
			},
			{
				"x": 1.8397705865,
				"y": 5.2848762334,
				"z": -1.2124180413,
				"element": "H" 
			},
			{
				"x": 0.0571659241,
				"y": 3.8478370802,
				"z": -0.2430195144,
				"element": "H" 
			},
			{
				"x": -2.2090684457,
				"y": -3.2064446261,
				"z": 0.3422712227,
				"element": "H" 
			},
			{
				"x": -4.3128317464,
				"y": -3.2613638441,
				"z": 1.6547561359,
				"element": "H" 
			},
			{
				"x": -5.3080978351,
				"y": -1.145554995,
				"z": 2.5155977828,
				"element": "H" 
			},
			{
				"x": -4.1681990085,
				"y": 1.0170973071,
				"z": 2.0434399786,
				"element": "H" 
			},
			{
				"x": -2.0710021972,
				"y": 1.0687787828,
				"z": 0.7336708166,
				"element": "H" 
			}
		],
		 "valence_orbital": [ 
			{
				"type": "occ",
				"energy": -0.25596,
				"method": "rhf"
			},
			{
				"type": "occ",
				"energy": -0.25273,
				"method": "rhf"
			},
			{
				"type": "occ",
				"energy": -0.2463,
				"method": "rhf"
			},
			{
				"type": "occ",
				"energy": -0.24262,
				"method": "rhf"
			},
			{
				"type": "occ",
				"energy": -0.19462,
				"method": "rhf"
			},
			{
				"type": "unocc",
				"energy": -0.08403,
				"method": "rhf"
			},
			{
				"type": "unocc",
				"energy": -0.02512,
				"method": "rhf"
			},
			{
				"type": "unocc",
				"energy": 0.00445,
				"method": "rhf"
			},
			{
				"type": "unocc",
				"energy": 0.00551,
				"method": "rhf"
			},
			{
				"type": "unocc",
				"energy": 0.01509,
				"method": "rhf"
			}
		],
		"cosmo_sigma_profile": { 
			"-0.025": 0.0,
			"-0.024": 0.0,
			"-0.023": 0.0,
			"-0.022": 0.0,
			"-0.021": 0.0,
			"-0.02": 0.0,
			"-0.019": 0.0,
			"-0.018": 0.0,
			"-0.017": 0.0,
			"-0.016": 0.0,
			"-0.015": 0.0,
			"-0.014": 0.961549566382,
			"-0.013": 2.29123714069,
			"-0.012": 1.84450495287,
			"-0.011": 2.43615717696,
			"-0.01": 2.35423695725,
			"-0.009": 2.13077045858,
			"-0.008": 1.55508896948,
			"-0.007": 4.28229632255,
			"-0.006": 12.5210199775,
			"-0.005": 17.1676674524,
			"-0.004": 19.1712645289,
			"-0.003": 21.3790102967,
			"-0.002": 19.1973987874,
			"-0.001": 17.4767915316,
			"0.0": 19.7361053939,
			"0.001": 22.0621786378,
			"0.002": 26.674831312,
			"0.003": 27.9146204256,
			"0.004": 20.5953902513,
			"0.005": 16.6002177717,
			"0.006": 11.9840283086,
			"0.007": 5.30427135574,
			"0.008": 3.53870104934,
			"0.009": 2.36358566033,
			"0.01": 3.28060610007,
			"0.011": 1.39449868086,
			"0.012": 0.430561034416,
			"0.013": 0.0,
			"0.014": 0.0,
			"0.015": 0.0,
			"0.016": 0.0,
			"0.017": 0.0,
			"0.018": 0.0,
			"0.019": 0.0,
			"0.02": 0.0,
			"0.021": 0.0,
			"0.022": 0.0,
			"0.023": 0.0,
			"0.024": 0.0,
			"0.025": 0.0
		}
	}
}
