{
	 "smiles": "CSC1=CC=C(C=C1)C#N", 
	 "Tm": 335.15, 
	 "num_atms": 17, 
	 "gaussian": { 
		 "optdone": 1, 
		 "sigma_profile": "yes", 
		 "theory": "DFT", 
		 "functional": "B3LYP", 
		 "basiset": "6-31G**", 
		 "properties": { 
			 "R2extent": 3022.2278, 
			 "electric_dipole_moment_norm": 5.19822407078, 
			 "electric_quadrupole_moment_norm": 19.7063265788, 
			 "total_energy": -761.993317288, 
			 "HOMO_LUMO_gap": 0.17857, 
			 "cosmo_polarized_energy": -10.71, 
			 "cosmo_cavitation_energy": 23.68, 
			 "cosmo_dispersion_energy": -17.39, 
			 "cosmo_repulsion_energy": 1.35, 
			 "cosmo_total_nonelectrostatic_energy": 7.64, 
			 "SMD_solvation_energy": 5.5 
		},
		"coords": [
			{
				"x": 2.9598253374,
				"y": -0.5998451592,
				"z": -0.0744710441,
				"element": "C" 
			},
			{
				"x": 1.9453574751,
				"y": -2.1124678788,
				"z": -0.054712413,
				"element": "S" 
			},
			{
				"x": 0.4635003193,
				"y": -1.6167896479,
				"z": 0.7870693667,
				"element": "C" 
			},
			{
				"x": -0.5242151801,
				"y": -2.6062636809,
				"z": 0.9522825481,
				"element": "C" 
			},
			{
				"x": -1.7163267611,
				"y": -2.3147530295,
				"z": 1.5973113659,
				"element": "C" 
			},
			{
				"x": -1.9536873803,
				"y": -1.0203641513,
				"z": 2.0964927531,
				"element": "C" 
			},
			{
				"x": -0.9706061772,
				"y": -0.0326915724,
				"z": 1.9330678926,
				"element": "C" 
			},
			{
				"x": 0.2257653756,
				"y": -0.326923634,
				"z": 1.2853334415,
				"element": "C" 
			},
			{
				"x": -3.1834618684,
				"y": -0.7147601409,
				"z": 2.7632689358,
				"element": "C" 
			},
			{
				"x": -4.1829196773,
				"y": -0.4661598299,
				"z": 3.3052858402,
				"element": "N" 
			},
			{
				"x": 3.2052274698,
				"y": -0.2678303791,
				"z": 0.9368137702,
				"element": "H" 
			},
			{
				"x": 3.882450282,
				"y": -0.8764436784,
				"z": -0.5885435321,
				"element": "H" 
			},
			{
				"x": 2.4724006817,
				"y": 0.2031792118,
				"z": -0.6318985975,
				"element": "H" 
			},
			{
				"x": -0.352038251,
				"y": -3.6085456268,
				"z": 0.5712143637,
				"element": "H" 
			},
			{
				"x": -2.4715633041,
				"y": -3.0838908208,
				"z": 1.7198639307,
				"element": "H" 
			},
			{
				"x": -1.1470548824,
				"y": 0.9672505849,
				"z": 2.3155857809,
				"element": "H" 
			},
			{
				"x": 0.9656465409,
				"y": 0.4565994333,
				"z": 1.1744355974,
				"element": "H" 
			}
		],
		 "valence_orbital": [ 
			{
				"type": "occ",
				"energy": -0.33951,
				"method": "rhf"
			},
			{
				"type": "occ",
				"energy": -0.32685,
				"method": "rhf"
			},
			{
				"type": "occ",
				"energy": -0.29509,
				"method": "rhf"
			},
			{
				"type": "occ",
				"energy": -0.27835,
				"method": "rhf"
			},
			{
				"type": "occ",
				"energy": -0.2282,
				"method": "rhf"
			},
			{
				"type": "unocc",
				"energy": -0.04963,
				"method": "rhf"
			},
			{
				"type": "unocc",
				"energy": -0.02632,
				"method": "rhf"
			},
			{
				"type": "unocc",
				"energy": 0.01869,
				"method": "rhf"
			},
			{
				"type": "unocc",
				"energy": 0.04025,
				"method": "rhf"
			},
			{
				"type": "unocc",
				"energy": 0.05677,
				"method": "rhf"
			}
		],
		"cosmo_sigma_profile": { 
			"-0.025": 0.0,
			"-0.024": 0.0,
			"-0.023": 0.0,
			"-0.022": 0.0,
			"-0.021": 0.0,
			"-0.02": 0.0,
			"-0.019": 0.0,
			"-0.018": 0.0,
			"-0.017": 0.0,
			"-0.016": 0.0,
			"-0.015": 0.0,
			"-0.014": 0.0,
			"-0.013": 0.0,
			"-0.012": 0.0,
			"-0.011": 0.0,
			"-0.01": 0.0,
			"-0.009": 0.0243123230023,
			"-0.008": 4.12982678778,
			"-0.007": 12.6466391735,
			"-0.006": 17.8071573781,
			"-0.005": 12.8823097461,
			"-0.004": 11.7412225752,
			"-0.003": 12.3474645871,
			"-0.002": 12.2815494937,
			"-0.001": 11.7308100629,
			"0.0": 12.2519454233,
			"0.001": 10.8476667434,
			"0.002": 17.5104054708,
			"0.003": 14.4610892934,
			"0.004": 6.23991695842,
			"0.005": 5.73637685374,
			"0.006": 5.11495982336,
			"0.007": 5.86130293687,
			"0.008": 4.49621414011,
			"0.009": 3.71891993828,
			"0.01": 3.20034886688,
			"0.011": 3.02671641232,
			"0.012": 2.47898889649,
			"0.013": 1.99324346306,
			"0.014": 0.269731158151,
			"0.015": 0.0,
			"0.016": 0.0,
			"0.017": 0.0,
			"0.018": 0.0,
			"0.019": 0.0,
			"0.02": 0.0,
			"0.021": 0.0,
			"0.022": 0.0,
			"0.023": 0.0,
			"0.024": 0.0,
			"0.025": 0.0
		}
	}
}
