{
	 "smiles": "OC(=O)C1CCCCC1C(F)(F)F", 
	 "Tm": 499.15, 
	 "num_atms": 24, 
	 "gaussian": { 
		 "optdone": 1, 
		 "sigma_profile": "yes", 
		 "theory": "DFT", 
		 "functional": "B3LYP", 
		 "basiset": "6-31G**", 
		 "properties": { 
			 "R2extent": 2349.2141, 
			 "electric_dipole_moment_norm": 3.2378795376, 
			 "electric_quadrupole_moment_norm": 8.59129606404, 
			 "total_energy": -761.485372395, 
			 "HOMO_LUMO_gap": 0.27805, 
			 "cosmo_polarized_energy": -9.17, 
			 "cosmo_cavitation_energy": 26.75, 
			 "cosmo_dispersion_energy": -18.95, 
			 "cosmo_repulsion_energy": 1.46, 
			 "cosmo_total_nonelectrostatic_energy": 9.26, 
			 "SMD_solvation_energy": 6.07 
		},
		"coords": [
			{
				"x": -1.3224016097,
				"y": -0.0687818542,
				"z": -2.5247018179,
				"element": "O" 
			},
			{
				"x": -0.9423916504,
				"y": 1.1171489433,
				"z": -1.9801699274,
				"element": "C" 
			},
			{
				"x": -1.3490171954,
				"y": 2.1769499562,
				"z": -2.3991695156,
				"element": "O" 
			},
			{
				"x": 0.0845511971,
				"y": 0.9579026675,
				"z": -0.8712642173,
				"element": "C" 
			},
			{
				"x": 1.5094267747,
				"y": 0.8033800012,
				"z": -1.4927090662,
				"element": "C" 
			},
			{
				"x": 1.9090891086,
				"y": -0.6681634621,
				"z": -1.6467700356,
				"element": "C" 
			},
			{
				"x": 1.9976970114,
				"y": -1.3668166447,
				"z": -0.2683949898,
				"element": "C" 
			},
			{
				"x": 1.0519705562,
				"y": -0.7298229352,
				"z": 0.7743061137,
				"element": "C" 
			},
			{
				"x": -0.230205978,
				"y": -0.2103572662,
				"z": 0.1038551101,
				"element": "C" 
			},
			{
				"x": -1.2647151516,
				"y": 0.2175401492,
				"z": 1.1270342389,
				"element": "C" 
			},
			{
				"x": -2.3844984498,
				"y": 0.6924510856,
				"z": 0.5308562045,
				"element": "F" 
			},
			{
				"x": -0.8016458903,
				"y": 1.1965977214,
				"z": 1.9401024664,
				"element": "F" 
			},
			{
				"x": -1.6390951748,
				"y": -0.813041649,
				"z": 1.9174696314,
				"element": "F" 
			},
			{
				"x": -1.9441561078,
				"y": 0.1522800661,
				"z": -3.2385862409,
				"element": "H" 
			},
			{
				"x": 0.0534950147,
				"y": 1.9031820764,
				"z": -0.3233563415,
				"element": "H" 
			},
			{
				"x": 2.2271644252,
				"y": 1.3117004561,
				"z": -0.8384785199,
				"element": "H" 
			},
			{
				"x": 1.549071414,
				"y": 1.3292833801,
				"z": -2.4520670743,
				"element": "H" 
			},
			{
				"x": 1.1678697952,
				"y": -1.1704374154,
				"z": -2.2787879128,
				"element": "H" 
			},
			{
				"x": 2.8663322481,
				"y": -0.745229157,
				"z": -2.1730426991,
				"element": "H" 
			},
			{
				"x": 1.7598018309,
				"y": -2.4303996857,
				"z": -0.3828542277,
				"element": "H" 
			},
			{
				"x": 3.0238974832,
				"y": -1.3200460786,
				"z": 0.1127415054,
				"element": "H" 
			},
			{
				"x": 1.5456870996,
				"y": 0.1072923155,
				"z": 1.2808471515,
				"element": "H" 
			},
			{
				"x": 0.7963979159,
				"y": -1.4550285113,
				"z": 1.5521406632,
				"element": "H" 
			},
			{
				"x": -0.6950246672,
				"y": -1.0292841591,
				"z": -0.4542004991,
				"element": "H" 
			}
		],
		 "valence_orbital": [ 
			{
				"type": "occ",
				"energy": -0.33222,
				"method": "rhf"
			},
			{
				"type": "occ",
				"energy": -0.3268,
				"method": "rhf"
			},
			{
				"type": "occ",
				"energy": -0.32169,
				"method": "rhf"
			},
			{
				"type": "occ",
				"energy": -0.31436,
				"method": "rhf"
			},
			{
				"type": "occ",
				"energy": -0.27334,
				"method": "rhf"
			},
			{
				"type": "unocc",
				"energy": 0.00471,
				"method": "rhf"
			},
			{
				"type": "unocc",
				"energy": 0.06416,
				"method": "rhf"
			},
			{
				"type": "unocc",
				"energy": 0.08316,
				"method": "rhf"
			},
			{
				"type": "unocc",
				"energy": 0.09654,
				"method": "rhf"
			},
			{
				"type": "unocc",
				"energy": 0.12404,
				"method": "rhf"
			}
		],
		"cosmo_sigma_profile": { 
			"-0.025": 0.0,
			"-0.024": 0.0,
			"-0.023": 0.0,
			"-0.022": 0.0,
			"-0.021": 0.0,
			"-0.02": 0.0,
			"-0.019": 0.0,
			"-0.018": 0.782997527705,
			"-0.017": 0.865898784705,
			"-0.016": 0.515413212805,
			"-0.015": 0.85635962486,
			"-0.014": 1.35309055437,
			"-0.013": 0.407244169404,
			"-0.012": 0.524832233097,
			"-0.011": 1.08258099812,
			"-0.01": 0.619494892873,
			"-0.009": 0.36833384246,
			"-0.008": 0.737282119415,
			"-0.007": 0.623054977562,
			"-0.006": 2.16513478439,
			"-0.005": 6.60275268574,
			"-0.004": 13.9112971423,
			"-0.003": 20.9376565345,
			"-0.002": 26.0546995223,
			"-0.001": 24.0147832626,
			"0.0": 19.3258243506,
			"0.001": 13.5126028155,
			"0.002": 15.3668577264,
			"0.003": 30.7803945508,
			"0.004": 6.2154806512,
			"0.005": 2.57183379787,
			"0.006": 2.44389969549,
			"0.007": 1.86679397937,
			"0.008": 1.26150307349,
			"0.009": 1.63075637365,
			"0.01": 2.09652837046,
			"0.011": 3.52604183585,
			"0.012": 4.65696709183,
			"0.013": 0.853538537233,
			"0.014": 0.0,
			"0.015": 0.0,
			"0.016": 0.0,
			"0.017": 0.0,
			"0.018": 0.0,
			"0.019": 0.0,
			"0.02": 0.0,
			"0.021": 0.0,
			"0.022": 0.0,
			"0.023": 0.0,
			"0.024": 0.0,
			"0.025": 0.0
		}
	}
}
