{
	 "smiles": "OC(=O)CC(C1=CC=CC=C1)(C1=CC=CC=C1)C1=CC=CC=C1", 
	 "Tm": 454.65, 
	 "num_atms": 41, 
	 "gaussian": { 
		 "optdone": 1, 
		 "sigma_profile": "yes", 
		 "theory": "DFT", 
		 "functional": "B3LYP", 
		 "basiset": "6-31G**", 
		 "properties": { 
			 "R2extent": 6484.7172, 
			 "electric_dipole_moment_norm": 1.51634277787, 
			 "electric_quadrupole_moment_norm": 13.228975689, 
			 "total_energy": -961.53436072, 
			 "HOMO_LUMO_gap": 0.21848, 
			 "cosmo_polarized_energy": -13.51, 
			 "cosmo_cavitation_energy": 42.48, 
			 "cosmo_dispersion_energy": -28.62, 
			 "cosmo_repulsion_energy": 2.2, 
			 "cosmo_total_nonelectrostatic_energy": 16.06, 
			 "SMD_solvation_energy": 8.21 
		},
		"coords": [
			{
				"x": 2.9422243012,
				"y": 0.5421904936,
				"z": -1.1474342368,
				"element": "O" 
			},
			{
				"x": 2.2744971498,
				"y": -0.0432928604,
				"z": -2.1701996995,
				"element": "C" 
			},
			{
				"x": 2.5537298054,
				"y": 0.178395765,
				"z": -3.3281326117,
				"element": "O" 
			},
			{
				"x": 1.200802911,
				"y": -1.0198664866,
				"z": -1.7265318393,
				"element": "C" 
			},
			{
				"x": 0.081162602,
				"y": -0.502634834,
				"z": -0.7413430946,
				"element": "C" 
			},
			{
				"x": -1.1710870972,
				"y": -1.3897877352,
				"z": -0.9986259326,
				"element": "C" 
			},
			{
				"x": -2.4539593772,
				"y": -0.8616075244,
				"z": -1.1922057669,
				"element": "C" 
			},
			{
				"x": -3.5572571591,
				"y": -1.6992673897,
				"z": -1.3833824545,
				"element": "C" 
			},
			{
				"x": -3.4020492437,
				"y": -3.0835191017,
				"z": -1.3850821112,
				"element": "C" 
			},
			{
				"x": -2.1310011642,
				"y": -3.6253730362,
				"z": -1.1807873916,
				"element": "C" 
			},
			{
				"x": -1.0347021973,
				"y": -2.7885462978,
				"z": -0.98429282,
				"element": "C" 
			},
			{
				"x": -0.1892059537,
				"y": 0.9825560557,
				"z": -1.0850997526,
				"element": "C" 
			},
			{
				"x": -0.5570230599,
				"y": 1.3286003166,
				"z": -2.3984455506,
				"element": "C" 
			},
			{
				"x": -0.7705183817,
				"y": 2.6563411234,
				"z": -2.7641627233,
				"element": "C" 
			},
			{
				"x": -0.6163154152,
				"y": 3.6774926399,
				"z": -1.8242160759,
				"element": "C" 
			},
			{
				"x": -0.2423969236,
				"y": 3.3516368326,
				"z": -0.5220964624,
				"element": "C" 
			},
			{
				"x": -0.0283343193,
				"y": 2.019245572,
				"z": -0.1577378121,
				"element": "C" 
			},
			{
				"x": 0.4517060701,
				"y": -0.6949937446,
				"z": 0.7514444889,
				"element": "C" 
			},
			{
				"x": 1.7415602355,
				"y": -1.0074550181,
				"z": 1.1983454898,
				"element": "C" 
			},
			{
				"x": 2.0108029831,
				"y": -1.1915968125,
				"z": 2.5584955611,
				"element": "C" 
			},
			{
				"x": 0.9983013916,
				"y": -1.0597961072,
				"z": 3.5051483603,
				"element": "C" 
			},
			{
				"x": -0.2925020891,
				"y": -0.7403409749,
				"z": 3.0774895962,
				"element": "C" 
			},
			{
				"x": -0.5591271014,
				"y": -0.5664853207,
				"z": 1.7215847467,
				"element": "C" 
			},
			{
				"x": 3.5869312906,
				"y": 1.142151119,
				"z": -1.5594961441,
				"element": "H" 
			},
			{
				"x": 0.7298489999,
				"y": -1.3515220143,
				"z": -2.6515797331,
				"element": "H" 
			},
			{
				"x": 1.699668756,
				"y": -1.8948705564,
				"z": -1.2974764343,
				"element": "H" 
			},
			{
				"x": -2.6006455403,
				"y": 0.212099089,
				"z": -1.1978104585,
				"element": "H" 
			},
			{
				"x": -4.5397776038,
				"y": -1.2598685342,
				"z": -1.532234809,
				"element": "H" 
			},
			{
				"x": -4.2585100413,
				"y": -3.7337403099,
				"z": -1.5379085667,
				"element": "H" 
			},
			{
				"x": -1.9921596508,
				"y": -4.7028541882,
				"z": -1.1681615027,
				"element": "H" 
			},
			{
				"x": -0.0620954436,
				"y": -3.2351620246,
				"z": -0.8012165519,
				"element": "H" 
			},
			{
				"x": -0.6843825638,
				"y": 0.5513832686,
				"z": -3.1455704789,
				"element": "H" 
			},
			{
				"x": -1.0546637299,
				"y": 2.8912752965,
				"z": -3.7859649587,
				"element": "H" 
			},
			{
				"x": -0.782319542,
				"y": 4.7131595954,
				"z": -2.106630907,
				"element": "H" 
			},
			{
				"x": -0.1106988024,
				"y": 4.1343368208,
				"z": 0.219936087,
				"element": "H" 
			},
			{
				"x": 0.2726321003,
				"y": 1.7917384933,
				"z": 0.8576118044,
				"element": "H" 
			},
			{
				"x": 2.5622051248,
				"y": -1.0874748125,
				"z": 0.4979480027,
				"element": "H" 
			},
			{
				"x": 3.0222260907,
				"y": -1.4361020663,
				"z": 2.8713052547,
				"element": "H" 
			},
			{
				"x": 1.2086092971,
				"y": -1.2040041291,
				"z": 4.5610142219,
				"element": "H" 
			},
			{
				"x": -1.0974546511,
				"y": -0.6350196045,
				"z": 3.7995761234,
				"element": "H" 
			},
			{
				"x": -1.5723220575,
				"y": -0.3368209977,
				"z": 1.4082271434,
				"element": "H" 
			}
		],
		 "valence_orbital": [ 
			{
				"type": "occ",
				"energy": -0.25186,
				"method": "rhf"
			},
			{
				"type": "occ",
				"energy": -0.24883,
				"method": "rhf"
			},
			{
				"type": "occ",
				"energy": -0.24381,
				"method": "rhf"
			},
			{
				"type": "occ",
				"energy": -0.24048,
				"method": "rhf"
			},
			{
				"type": "occ",
				"energy": -0.23201,
				"method": "rhf"
			},
			{
				"type": "unocc",
				"energy": -0.01353,
				"method": "rhf"
			},
			{
				"type": "unocc",
				"energy": -0.01084,
				"method": "rhf"
			},
			{
				"type": "unocc",
				"energy": -0.00449,
				"method": "rhf"
			},
			{
				"type": "unocc",
				"energy": -0.00206,
				"method": "rhf"
			},
			{
				"type": "unocc",
				"energy": 0.00804,
				"method": "rhf"
			}
		],
		"cosmo_sigma_profile": { 
			"-0.025": 0.0,
			"-0.024": 0.0,
			"-0.023": 0.0,
			"-0.022": 0.0,
			"-0.021": 0.0,
			"-0.02": 0.0,
			"-0.019": 0.0815144132979,
			"-0.018": 0.794192553643,
			"-0.017": 0.89681953732,
			"-0.016": 0.696142527826,
			"-0.015": 0.999529268639,
			"-0.014": 0.429260348043,
			"-0.013": 0.390007848502,
			"-0.012": 0.410329527516,
			"-0.011": 0.989972550346,
			"-0.01": 0.588006963602,
			"-0.009": 1.13796913837,
			"-0.008": 1.12906909345,
			"-0.007": 4.27714614495,
			"-0.006": 13.5625393124,
			"-0.005": 26.1127143313,
			"-0.004": 32.3441984725,
			"-0.003": 34.215914319,
			"-0.002": 23.5687478262,
			"-0.001": 24.0186461164,
			"0.0": 19.3898695017,
			"0.001": 21.5746724656,
			"0.002": 20.3024127375,
			"0.003": 21.8785132253,
			"0.004": 23.3605309285,
			"0.005": 28.7221913168,
			"0.006": 18.0413161129,
			"0.007": 4.00869514159,
			"0.008": 2.18011066501,
			"0.009": 1.45513095535,
			"0.01": 1.97467564936,
			"0.011": 3.8276443682,
			"0.012": 4.21722371707,
			"0.013": 0.921452233613,
			"0.014": 0.0,
			"0.015": 0.0,
			"0.016": 0.0,
			"0.017": 0.0,
			"0.018": 0.0,
			"0.019": 0.0,
			"0.02": 0.0,
			"0.021": 0.0,
			"0.022": 0.0,
			"0.023": 0.0,
			"0.024": 0.0,
			"0.025": 0.0
		}
	}
}
