{
	 "smiles": "OC(=O)CCC1=CC=C(Cl)C(Cl)=C1", 
	 "Tm": 371.15, 
	 "num_atms": 21, 
	 "gaussian": { 
		 "optdone": 1, 
		 "sigma_profile": "yes", 
		 "theory": "DFT", 
		 "functional": "B3LYP", 
		 "basiset": "6-31G**", 
		 "properties": { 
			 "R2extent": 5260.5738, 
			 "electric_dipole_moment_norm": 6.0800384234, 
			 "electric_quadrupole_moment_norm": 10.2989979047, 
			 "total_energy": -1418.62346266, 
			 "HOMO_LUMO_gap": 0.22239, 
			 "cosmo_polarized_energy": -16.55, 
			 "cosmo_cavitation_energy": 28.93, 
			 "cosmo_dispersion_energy": -21.01, 
			 "cosmo_repulsion_energy": 1.69, 
			 "cosmo_total_nonelectrostatic_energy": 9.62, 
			 "SMD_solvation_energy": 5.27 
		},
		"coords": [
			{
				"x": -3.1122063629,
				"y": 1.0343106606,
				"z": 1.9945249196,
				"element": "O" 
			},
			{
				"x": -3.0643327244,
				"y": 0.8708380434,
				"z": 0.6478563401,
				"element": "C" 
			},
			{
				"x": -3.4423626765,
				"y": 1.75604546,
				"z": -0.0795641735,
				"element": "O" 
			},
			{
				"x": -2.5649069106,
				"y": -0.4895350874,
				"z": 0.1688061956,
				"element": "C" 
			},
			{
				"x": -2.2410301311,
				"y": -0.5235454916,
				"z": -1.3364610691,
				"element": "C" 
			},
			{
				"x": -0.9140820391,
				"y": 0.117779348,
				"z": -1.6915461051,
				"element": "C" 
			},
			{
				"x": 0.2457895083,
				"y": -0.6605112846,
				"z": -1.799293419,
				"element": "C" 
			},
			{
				"x": 1.4733923017,
				"y": -0.0804288009,
				"z": -2.1067874541,
				"element": "C" 
			},
			{
				"x": 1.5666996162,
				"y": 1.2966329743,
				"z": -2.3158711233,
				"element": "C" 
			},
			{
				"x": 3.1236092978,
				"y": 1.988212039,
				"z": -2.7049510646,
				"element": "Cl" 
			},
			{
				"x": 0.4139763636,
				"y": 2.0868374926,
				"z": -2.2134323294,
				"element": "C" 
			},
			{
				"x": 0.4715852384,
				"y": 3.8140172965,
				"z": -2.4716741133,
				"element": "Cl" 
			},
			{
				"x": -0.8131873173,
				"y": 1.497762036,
				"z": -1.9027470323,
				"element": "C" 
			},
			{
				"x": -2.7656573395,
				"y": 0.2497657521,
				"z": 2.4428898461,
				"element": "H" 
			},
			{
				"x": -1.6904004608,
				"y": -0.7925788683,
				"z": 0.7588635649,
				"element": "H" 
			},
			{
				"x": -3.3598900769,
				"y": -1.2139717844,
				"z": 0.3951887686,
				"element": "H" 
			},
			{
				"x": -2.2296853543,
				"y": -1.5689558665,
				"z": -1.661379071,
				"element": "H" 
			},
			{
				"x": -3.0559028276,
				"y": -0.024677472,
				"z": -1.8686214527,
				"element": "H" 
			},
			{
				"x": 0.191665357,
				"y": -1.735773664,
				"z": -1.6501161943,
				"element": "H" 
			},
			{
				"x": 2.3674376912,
				"y": -0.6879960367,
				"z": -2.1937610409,
				"element": "H" 
			},
			{
				"x": -1.6941111533,
				"y": 2.1234732537,
				"z": -1.8157239925,
				"element": "H" 
			}
		],
		 "valence_orbital": [ 
			{
				"type": "occ",
				"energy": -0.32382,
				"method": "rhf"
			},
			{
				"type": "occ",
				"energy": -0.30502,
				"method": "rhf"
			},
			{
				"type": "occ",
				"energy": -0.28401,
				"method": "rhf"
			},
			{
				"type": "occ",
				"energy": -0.25921,
				"method": "rhf"
			},
			{
				"type": "occ",
				"energy": -0.24592,
				"method": "rhf"
			},
			{
				"type": "unocc",
				"energy": -0.02353,
				"method": "rhf"
			},
			{
				"type": "unocc",
				"energy": -0.02339,
				"method": "rhf"
			},
			{
				"type": "unocc",
				"energy": -0.00218,
				"method": "rhf"
			},
			{
				"type": "unocc",
				"energy": 0.00727,
				"method": "rhf"
			},
			{
				"type": "unocc",
				"energy": 0.0463,
				"method": "rhf"
			}
		],
		"cosmo_sigma_profile": { 
			"-0.025": 0.0,
			"-0.024": 0.0,
			"-0.023": 0.0,
			"-0.022": 0.0,
			"-0.021": 0.0,
			"-0.02": 0.0,
			"-0.019": 0.544376271398,
			"-0.018": 1.27598521425,
			"-0.017": 1.06903477477,
			"-0.016": 0.961580658754,
			"-0.015": 1.14606365579,
			"-0.014": 1.56349559775,
			"-0.013": 1.04680515617,
			"-0.012": 0.925005800793,
			"-0.011": 1.11115905753,
			"-0.01": 0.988697591756,
			"-0.009": 2.0578570105,
			"-0.008": 3.01222929452,
			"-0.007": 7.49930301634,
			"-0.006": 9.95275269489,
			"-0.005": 12.3588349558,
			"-0.004": 11.9247144548,
			"-0.003": 14.3851806639,
			"-0.002": 13.1605419351,
			"-0.001": 12.9871759794,
			"0.0": 15.5921188873,
			"0.001": 22.6483796894,
			"0.002": 22.7146039933,
			"0.003": 21.529450767,
			"0.004": 19.9497497309,
			"0.005": 8.85000930582,
			"0.006": 3.87842672525,
			"0.007": 2.58895234985,
			"0.008": 2.65966212436,
			"0.009": 2.48261718235,
			"0.01": 4.60989344218,
			"0.011": 4.69002261844,
			"0.012": 3.00475155308,
			"0.013": 1.53688357281,
			"0.014": 0.0616756906808,
			"0.015": 0.0,
			"0.016": 0.0,
			"0.017": 0.0,
			"0.018": 0.0,
			"0.019": 0.0,
			"0.02": 0.0,
			"0.021": 0.0,
			"0.022": 0.0,
			"0.023": 0.0,
			"0.024": 0.0,
			"0.025": 0.0
		}
	}
}
