{
	 "smiles": "CCCCCCCCCCCCCCCCC(=O)OCC", 
	 "Tm": 301.15, 
	 "num_atms": 59, 
	 "gaussian": { 
		 "optdone": 1, 
		 "sigma_profile": "yes", 
		 "theory": "DFT", 
		 "functional": "B3LYP", 
		 "basiset": "6-31G**", 
		 "properties": { 
			 "R2extent": 11810.2706, 
			 "electric_dipole_moment_norm": 1.62770086318, 
			 "electric_quadrupole_moment_norm": 10.4333243116, 
			 "total_energy": -897.433051343, 
			 "HOMO_LUMO_gap": 0.28185, 
			 "cosmo_polarized_energy": -6.59, 
			 "cosmo_cavitation_energy": 56.87, 
			 "cosmo_dispersion_energy": -36.66, 
			 "cosmo_repulsion_energy": 2.99, 
			 "cosmo_total_nonelectrostatic_energy": 23.2, 
			 "SMD_solvation_energy": 8.38 
		},
		"coords": [
			{
				"x": 5.5808559315,
				"y": 2.2700881707,
				"z": 0.0082472707,
				"element": "C" 
			},
			{
				"x": 5.936462698,
				"y": 2.0367366276,
				"z": -1.4651587946,
				"element": "C" 
			},
			{
				"x": 5.1312319007,
				"y": 0.9164035685,
				"z": -2.145003709,
				"element": "C" 
			},
			{
				"x": 3.6296627187,
				"y": 1.2090306534,
				"z": -2.2835840129,
				"element": "C" 
			},
			{
				"x": 2.8526394729,
				"y": 0.1637872646,
				"z": -3.1042581663,
				"element": "C" 
			},
			{
				"x": 2.817795783,
				"y": -1.2611660102,
				"z": -2.5232633254,
				"element": "C" 
			},
			{
				"x": 2.1187601031,
				"y": -1.3829413252,
				"z": -1.1616467322,
				"element": "C" 
			},
			{
				"x": 2.0422798734,
				"y": -2.8344604218,
				"z": -0.6617848044,
				"element": "C" 
			},
			{
				"x": 1.4116654941,
				"y": -3.0372706903,
				"z": 0.7333516175,
				"element": "C" 
			},
			{
				"x": -0.116549665,
				"y": -3.2362571015,
				"z": 0.7724559377,
				"element": "C" 
			},
			{
				"x": -1.0012527137,
				"y": -2.0448589599,
				"z": 0.3608125914,
				"element": "C" 
			},
			{
				"x": -0.8497733324,
				"y": -0.7660853344,
				"z": 1.2039072182,
				"element": "C" 
			},
			{
				"x": -1.2048612981,
				"y": -0.9447621831,
				"z": 2.6899035808,
				"element": "C" 
			},
			{
				"x": -1.1849121696,
				"y": 0.3580502831,
				"z": 3.5211987662,
				"element": "C" 
			},
			{
				"x": -2.5107642678,
				"y": 1.1352796699,
				"z": 3.6347142436,
				"element": "C" 
			},
			{
				"x": -3.0677977135,
				"y": 1.7481561736,
				"z": 2.3412731854,
				"element": "C" 
			},
			{
				"x": -3.8659402131,
				"y": 0.780503802,
				"z": 1.4862845,
				"element": "C" 
			},
			{
				"x": -4.4209219744,
				"y": -0.2231322145,
				"z": 1.8837233282,
				"element": "O" 
			},
			{
				"x": -3.9268486749,
				"y": 1.2043058353,
				"z": 0.2037007204,
				"element": "O" 
			},
			{
				"x": -4.7242667727,
				"y": 0.3962232303,
				"z": -0.6930218148,
				"element": "C" 
			},
			{
				"x": -4.672116877,
				"y": 1.0477496424,
				"z": -2.0619327778,
				"element": "C" 
			},
			{
				"x": 4.5432641417,
				"y": 2.5967960878,
				"z": 0.1318114,
				"element": "H" 
			},
			{
				"x": 5.7109867923,
				"y": 1.3528937096,
				"z": 0.5948834202,
				"element": "H" 
			},
			{
				"x": 6.2212709266,
				"y": 3.0400297174,
				"z": 0.451290372,
				"element": "H" 
			},
			{
				"x": 7.0047181736,
				"y": 1.7953243334,
				"z": -1.5383635228,
				"element": "H" 
			},
			{
				"x": 5.7982189743,
				"y": 2.9713794845,
				"z": -2.0263002306,
				"element": "H" 
			},
			{
				"x": 5.548254412,
				"y": 0.7395384073,
				"z": -3.1463552441,
				"element": "H" 
			},
			{
				"x": 5.2812727106,
				"y": -0.017123323,
				"z": -1.5856249393,
				"element": "H" 
			},
			{
				"x": 3.5070629529,
				"y": 2.1876615302,
				"z": -2.768533643,
				"element": "H" 
			},
			{
				"x": 3.1744847841,
				"y": 1.3094905855,
				"z": -1.2907216035,
				"element": "H" 
			},
			{
				"x": 3.2835621834,
				"y": 0.1198114088,
				"z": -4.1140884709,
				"element": "H" 
			},
			{
				"x": 1.8196019972,
				"y": 0.5157295279,
				"z": -3.2319678455,
				"element": "H" 
			},
			{
				"x": 2.3030852249,
				"y": -1.9128033669,
				"z": -3.2427326907,
				"element": "H" 
			},
			{
				"x": 3.8387981682,
				"y": -1.6580582619,
				"z": -2.4426978745,
				"element": "H" 
			},
			{
				"x": 1.1139416218,
				"y": -0.9489170202,
				"z": -1.2361193557,
				"element": "H" 
			},
			{
				"x": 2.6532453744,
				"y": -0.7829523464,
				"z": -0.4127959961,
				"element": "H" 
			},
			{
				"x": 1.5016934051,
				"y": -3.4476761091,
				"z": -1.3974369945,
				"element": "H" 
			},
			{
				"x": 3.0660729686,
				"y": -3.2324327764,
				"z": -0.6422919482,
				"element": "H" 
			},
			{
				"x": 1.7034284567,
				"y": -2.2058069115,
				"z": 1.3894879175,
				"element": "H" 
			},
			{
				"x": 1.858367369,
				"y": -3.9332036281,
				"z": 1.1830106747,
				"element": "H" 
			},
			{
				"x": -0.3677659273,
				"y": -4.0876266073,
				"z": 0.124737908,
				"element": "H" 
			},
			{
				"x": -0.3931646891,
				"y": -3.5491859463,
				"z": 1.787355997,
				"element": "H" 
			},
			{
				"x": -0.8172989789,
				"y": -1.8003506135,
				"z": -0.6928464648,
				"element": "H" 
			},
			{
				"x": -2.0501074464,
				"y": -2.368441325,
				"z": 0.4125701998,
				"element": "H" 
			},
			{
				"x": 0.1776223001,
				"y": -0.3848554004,
				"z": 1.1282609017,
				"element": "H" 
			},
			{
				"x": -1.4817767851,
				"y": 0.0084099789,
				"z": 0.7535333866,
				"element": "H" 
			},
			{
				"x": -2.1908483039,
				"y": -1.4175899834,
				"z": 2.7773725721,
				"element": "H" 
			},
			{
				"x": -0.488041278,
				"y": -1.646197328,
				"z": 3.1336752579,
				"element": "H" 
			},
			{
				"x": -0.8793167646,
				"y": 0.1133393721,
				"z": 4.5461716233,
				"element": "H" 
			},
			{
				"x": -0.403346788,
				"y": 1.0273811066,
				"z": 3.1326927505,
				"element": "H" 
			},
			{
				"x": -3.2810597844,
				"y": 0.4832172457,
				"z": 4.0617666052,
				"element": "H" 
			},
			{
				"x": -2.3580114225,
				"y": 1.9508189209,
				"z": 4.3517524048,
				"element": "H" 
			},
			{
				"x": -2.2846017868,
				"y": 2.2068355058,
				"z": 1.7291317179,
				"element": "H" 
			},
			{
				"x": -3.7653090607,
				"y": 2.5602151737,
				"z": 2.5902380826,
				"element": "H" 
			},
			{
				"x": -5.7454829157,
				"y": 0.3377565755,
				"z": -0.303043194,
				"element": "H" 
			},
			{
				"x": -4.3194988148,
				"y": -0.620586948,
				"z": -0.7057849829,
				"element": "H" 
			},
			{
				"x": -5.2652925491,
				"y": 0.4651144674,
				"z": -2.7737010919,
				"element": "H" 
			},
			{
				"x": -3.6439970961,
				"y": 1.0989283382,
				"z": -2.4318058988,
				"element": "H" 
			},
			{
				"x": -5.0761808492,
				"y": 2.0636557375,
				"z": -2.0277500225,
				"element": "H" 
			}
		],
		 "valence_orbital": [ 
			{
				"type": "occ",
				"energy": -0.30048,
				"method": "rhf"
			},
			{
				"type": "occ",
				"energy": -0.29745,
				"method": "rhf"
			},
			{
				"type": "occ",
				"energy": -0.2953,
				"method": "rhf"
			},
			{
				"type": "occ",
				"energy": -0.28878,
				"method": "rhf"
			},
			{
				"type": "occ",
				"energy": -0.26649,
				"method": "rhf"
			},
			{
				"type": "unocc",
				"energy": 0.01536,
				"method": "rhf"
			},
			{
				"type": "unocc",
				"energy": 0.07401,
				"method": "rhf"
			},
			{
				"type": "unocc",
				"energy": 0.08296,
				"method": "rhf"
			},
			{
				"type": "unocc",
				"energy": 0.09207,
				"method": "rhf"
			},
			{
				"type": "unocc",
				"energy": 0.0995,
				"method": "rhf"
			}
		],
		"cosmo_sigma_profile": { 
			"-0.025": 0.0,
			"-0.024": 0.0,
			"-0.023": 0.0,
			"-0.022": 0.0,
			"-0.021": 0.0,
			"-0.02": 0.0,
			"-0.019": 0.0,
			"-0.018": 0.0,
			"-0.017": 0.0,
			"-0.016": 0.0,
			"-0.015": 0.0,
			"-0.014": 0.0,
			"-0.013": 0.0,
			"-0.012": 0.0,
			"-0.011": 0.0,
			"-0.01": 0.0,
			"-0.009": 0.0,
			"-0.008": 0.0,
			"-0.007": 0.200821336604,
			"-0.006": 2.26102412326,
			"-0.005": 6.19732408887,
			"-0.004": 14.277186642,
			"-0.003": 22.5646595623,
			"-0.002": 51.7293482065,
			"-0.001": 94.1867022837,
			"0.0": 100.949962239,
			"0.001": 79.6986710304,
			"0.002": 32.3306673468,
			"0.003": 4.85792659838,
			"0.004": 3.53355853079,
			"0.005": 3.68995858674,
			"0.006": 2.42335915614,
			"0.007": 2.9216805458,
			"0.008": 2.97844032907,
			"0.009": 2.29225622247,
			"0.01": 1.46935846269,
			"0.011": 1.94705277744,
			"0.012": 3.68798070633,
			"0.013": 1.38892163257,
			"0.014": 0.0,
			"0.015": 0.0,
			"0.016": 0.0,
			"0.017": 0.0,
			"0.018": 0.0,
			"0.019": 0.0,
			"0.02": 0.0,
			"0.021": 0.0,
			"0.022": 0.0,
			"0.023": 0.0,
			"0.024": 0.0,
			"0.025": 0.0
		}
	}
}
