{
	 "smiles": "CCOC1=C(C=CC=N1)C(O)=O", 
	 "Tm": 364.15, 
	 "num_atms": 21, 
	 "gaussian": { 
		 "optdone": 1, 
		 "sigma_profile": "yes", 
		 "theory": "DFT", 
		 "functional": "B3LYP", 
		 "basiset": "6-31G**", 
		 "properties": { 
			 "R2extent": 2240.5371, 
			 "electric_dipole_moment_norm": 5.04440492625, 
			 "electric_quadrupole_moment_norm": 17.4890583746, 
			 "total_energy": -590.715166743, 
			 "HOMO_LUMO_gap": 0.19763, 
			 "cosmo_polarized_energy": -11.78, 
			 "cosmo_cavitation_energy": 25.22, 
			 "cosmo_dispersion_energy": -18.63, 
			 "cosmo_repulsion_energy": 1.49, 
			 "cosmo_total_nonelectrostatic_energy": 8.09, 
			 "SMD_solvation_energy": 5.14 
		},
		"coords": [
			{
				"x": -0.4710633214,
				"y": -0.5645511956,
				"z": 3.4485391108,
				"element": "C" 
			},
			{
				"x": -1.044354067,
				"y": -0.0193212684,
				"z": 2.1545600883,
				"element": "C" 
			},
			{
				"x": -0.1555114593,
				"y": -0.4264824174,
				"z": 1.085836372,
				"element": "O" 
			},
			{
				"x": -0.456481272,
				"y": -0.056040232,
				"z": -0.1892499238,
				"element": "C" 
			},
			{
				"x": 0.4245918499,
				"y": -0.4634902277,
				"z": -1.2195224027,
				"element": "C" 
			},
			{
				"x": 0.086268386,
				"y": -0.0666970663,
				"z": -2.5138826491,
				"element": "C" 
			},
			{
				"x": -1.0630352795,
				"y": 0.6883317243,
				"z": -2.7418527917,
				"element": "C" 
			},
			{
				"x": -1.8475156306,
				"y": 1.0254088861,
				"z": -1.6435594936,
				"element": "C" 
			},
			{
				"x": -1.5535497526,
				"y": 0.6618275699,
				"z": -0.3865783319,
				"element": "N" 
			},
			{
				"x": 1.6812658716,
				"y": -1.2775650036,
				"z": -1.050415235,
				"element": "C" 
			},
			{
				"x": 2.0124205356,
				"y": -1.6624328851,
				"z": 0.1944736529,
				"element": "O" 
			},
			{
				"x": 2.3722508264,
				"y": -1.5768444072,
				"z": -2.0003138491,
				"element": "O" 
			},
			{
				"x": -0.4106298445,
				"y": -1.6565504132,
				"z": 3.4239869583,
				"element": "H" 
			},
			{
				"x": -1.1166356207,
				"y": -0.2770486353,
				"z": 4.2838546237,
				"element": "H" 
			},
			{
				"x": 0.5292883277,
				"y": -0.1637364948,
				"z": 3.6365970651,
				"element": "H" 
			},
			{
				"x": -1.1100847122,
				"y": 1.0724130476,
				"z": 2.1584019679,
				"element": "H" 
			},
			{
				"x": -2.0440290281,
				"y": -0.4114483833,
				"z": 1.9469808821,
				"element": "H" 
			},
			{
				"x": 0.748516025,
				"y": -0.3686433893,
				"z": -3.3185469969,
				"element": "H" 
			},
			{
				"x": -1.3425176054,
				"y": 1.0060399268,
				"z": -3.7402076228,
				"element": "H" 
			},
			{
				"x": -2.7549466852,
				"y": 1.6132953358,
				"z": -1.7652343015,
				"element": "H" 
			},
			{
				"x": 1.3472524563,
				"y": -1.3345644712,
				"z": 0.829332877,
				"element": "H" 
			}
		],
		 "valence_orbital": [ 
			{
				"type": "occ",
				"energy": -0.31017,
				"method": "rhf"
			},
			{
				"type": "occ",
				"energy": -0.29395,
				"method": "rhf"
			},
			{
				"type": "occ",
				"energy": -0.29166,
				"method": "rhf"
			},
			{
				"type": "occ",
				"energy": -0.26342,
				"method": "rhf"
			},
			{
				"type": "occ",
				"energy": -0.25511,
				"method": "rhf"
			},
			{
				"type": "unocc",
				"energy": -0.05748,
				"method": "rhf"
			},
			{
				"type": "unocc",
				"energy": -0.02115,
				"method": "rhf"
			},
			{
				"type": "unocc",
				"energy": 0.05006,
				"method": "rhf"
			},
			{
				"type": "unocc",
				"energy": 0.08516,
				"method": "rhf"
			},
			{
				"type": "unocc",
				"energy": 0.09669,
				"method": "rhf"
			}
		],
		"cosmo_sigma_profile": { 
			"-0.025": 0.0,
			"-0.024": 0.0,
			"-0.023": 0.0,
			"-0.022": 0.0,
			"-0.021": 0.0,
			"-0.02": 0.0,
			"-0.019": 0.0,
			"-0.018": 0.0,
			"-0.017": 0.0,
			"-0.016": 0.0,
			"-0.015": 0.0,
			"-0.014": 0.0,
			"-0.013": 0.0,
			"-0.012": 0.0,
			"-0.011": 0.0,
			"-0.01": 0.0,
			"-0.009": 0.0,
			"-0.008": 1.82927373122,
			"-0.007": 6.7706443799,
			"-0.006": 10.1796568286,
			"-0.005": 15.1311994218,
			"-0.004": 21.2467349779,
			"-0.003": 20.4907729868,
			"-0.002": 19.219519963,
			"-0.001": 19.9131030504,
			"0.0": 18.9223616018,
			"0.001": 13.5536792245,
			"0.002": 8.45115525084,
			"0.003": 4.71079261209,
			"0.004": 3.75926373399,
			"0.005": 3.20865134807,
			"0.006": 2.98954205121,
			"0.007": 4.14672270615,
			"0.008": 4.17466953279,
			"0.009": 3.27424703309,
			"0.01": 4.46775376563,
			"0.011": 6.47766369815,
			"0.012": 5.53821315096,
			"0.013": 2.3459880833,
			"0.014": 0.365586189735,
			"0.015": 0.0,
			"0.016": 0.0,
			"0.017": 0.0,
			"0.018": 0.0,
			"0.019": 0.0,
			"0.02": 0.0,
			"0.021": 0.0,
			"0.022": 0.0,
			"0.023": 0.0,
			"0.024": 0.0,
			"0.025": 0.0
		}
	}
}
