{
	 "smiles": "[O-][N+](=O)C1=CC(C=CC2=CC=CC=C2)=CC=C1", 
	 "Tm": 375.15, 
	 "num_atms": 28, 
	 "gaussian": { 
		 "optdone": 1, 
		 "sigma_profile": "yes", 
		 "theory": "DFT", 
		 "functional": "B3LYP", 
		 "basiset": "6-31G**", 
		 "properties": { 
			 "R2extent": 7591.0382, 
			 "electric_dipole_moment_norm": 5.20031065034, 
			 "electric_quadrupole_moment_norm": 24.4222435743, 
			 "total_energy": -745.213554686, 
			 "HOMO_LUMO_gap": 0.13168, 
			 "cosmo_polarized_energy": -10.63, 
			 "cosmo_cavitation_energy": 33.59, 
			 "cosmo_dispersion_energy": -24.43, 
			 "cosmo_repulsion_energy": 1.85, 
			 "cosmo_total_nonelectrostatic_energy": 11.01, 
			 "SMD_solvation_energy": 7.85 
		},
		"coords": [
			{
				"x": 4.3954335024,
				"y": 3.9671999604,
				"z": -2.3269643539,
				"element": "O" 
			},
			{
				"x": 4.2434438892,
				"y": 2.8378315369,
				"z": -1.8627928146,
				"element": "N" 
			},
			{
				"x": 5.1587811715,
				"y": 2.0536201344,
				"z": -1.614907952,
				"element": "O" 
			},
			{
				"x": 2.8659564487,
				"y": 2.3940710667,
				"z": -1.5843457478,
				"element": "C" 
			},
			{
				"x": 2.6678749184,
				"y": 1.1218648285,
				"z": -1.0586047794,
				"element": "C" 
			},
			{
				"x": 1.3661465066,
				"y": 0.6708929184,
				"z": -0.7825419298,
				"element": "C" 
			},
			{
				"x": 1.1959201741,
				"y": -0.6753532663,
				"z": -0.2278710738,
				"element": "C" 
			},
			{
				"x": 0.0334420995,
				"y": -1.2667994596,
				"z": 0.1143616264,
				"element": "C" 
			},
			{
				"x": -0.1461737817,
				"y": -2.6115542893,
				"z": 0.6686905148,
				"element": "C" 
			},
			{
				"x": 0.9183620666,
				"y": -3.5025883644,
				"z": 0.911244653,
				"element": "C" 
			},
			{
				"x": 0.6831518696,
				"y": -4.7672615468,
				"z": 1.4402948454,
				"element": "C" 
			},
			{
				"x": -0.6192222029,
				"y": -5.1789985591,
				"z": 1.741726476,
				"element": "C" 
			},
			{
				"x": -1.6857321329,
				"y": -4.3104161788,
				"z": 1.5075174398,
				"element": "C" 
			},
			{
				"x": -1.4497572327,
				"y": -3.0434887886,
				"z": 0.9775240942,
				"element": "C" 
			},
			{
				"x": 0.296357865,
				"y": 1.5484606607,
				"z": -1.0592628342,
				"element": "C" 
			},
			{
				"x": 0.5177042422,
				"y": 2.8183112735,
				"z": -1.5854933071,
				"element": "C" 
			},
			{
				"x": 1.8123750725,
				"y": 3.2623803796,
				"z": -1.8570756397,
				"element": "C" 
			},
			{
				"x": 3.5293614067,
				"y": 0.4930660637,
				"z": -0.8681039082,
				"element": "H" 
			},
			{
				"x": 2.1265067394,
				"y": -1.2218446877,
				"z": -0.0906754566,
				"element": "H" 
			},
			{
				"x": -0.8950676551,
				"y": -0.7143003712,
				"z": -0.0201324413,
				"element": "H" 
			},
			{
				"x": 1.9377403744,
				"y": -3.206603176,
				"z": 0.6841924369,
				"element": "H" 
			},
			{
				"x": 1.5190420155,
				"y": -5.4376148274,
				"z": 1.6188904748,
				"element": "H" 
			},
			{
				"x": -0.7978315899,
				"y": -6.167463242,
				"z": 2.1544515115,
				"element": "H" 
			},
			{
				"x": -2.7017017749,
				"y": -4.6184984381,
				"z": 1.7370677734,
				"element": "H" 
			},
			{
				"x": -2.2850957095,
				"y": -2.3712556596,
				"z": 0.797409525,
				"element": "H" 
			},
			{
				"x": -0.7233851373,
				"y": 1.2345188936,
				"z": -0.8619963722,
				"element": "H" 
			},
			{
				"x": -0.3257257671,
				"y": 3.471028547,
				"z": -1.7879958026,
				"element": "H" 
			},
			{
				"x": 2.0147926214,
				"y": 4.2435945913,
				"z": -2.2664069579,
				"element": "H" 
			}
		],
		 "valence_orbital": [ 
			{
				"type": "occ",
				"energy": -0.2892,
				"method": "rhf"
			},
			{
				"type": "occ",
				"energy": -0.28144,
				"method": "rhf"
			},
			{
				"type": "occ",
				"energy": -0.27967,
				"method": "rhf"
			},
			{
				"type": "occ",
				"energy": -0.26002,
				"method": "rhf"
			},
			{
				"type": "occ",
				"energy": -0.22031,
				"method": "rhf"
			},
			{
				"type": "unocc",
				"energy": -0.08863,
				"method": "rhf"
			},
			{
				"type": "unocc",
				"energy": -0.06468,
				"method": "rhf"
			},
			{
				"type": "unocc",
				"energy": -0.01185,
				"method": "rhf"
			},
			{
				"type": "unocc",
				"energy": -0.00806,
				"method": "rhf"
			},
			{
				"type": "unocc",
				"energy": 0.00765,
				"method": "rhf"
			}
		],
		"cosmo_sigma_profile": { 
			"-0.025": 0.0,
			"-0.024": 0.0,
			"-0.023": 0.0,
			"-0.022": 0.0,
			"-0.021": 0.0,
			"-0.02": 0.0,
			"-0.019": 0.0,
			"-0.018": 0.0,
			"-0.017": 0.0,
			"-0.016": 0.0,
			"-0.015": 0.0,
			"-0.014": 0.0,
			"-0.013": 0.0,
			"-0.012": 0.0,
			"-0.011": 0.0,
			"-0.01": 0.0,
			"-0.009": 0.371019733922,
			"-0.008": 4.74099161302,
			"-0.007": 11.7044513038,
			"-0.006": 17.1161959297,
			"-0.005": 19.9415543663,
			"-0.004": 18.9229568808,
			"-0.003": 17.5823473909,
			"-0.002": 15.6668628625,
			"-0.001": 18.4952991079,
			"0.0": 18.211470249,
			"0.001": 22.3331520194,
			"0.002": 25.6530221939,
			"0.003": 16.944994456,
			"0.004": 16.7300312736,
			"0.005": 15.755041153,
			"0.006": 7.35976795191,
			"0.007": 7.18675198354,
			"0.008": 8.3989893164,
			"0.009": 4.3541671211,
			"0.01": 2.89193624095,
			"0.011": 0.0500162002959,
			"0.012": 0.0,
			"0.013": 0.0,
			"0.014": 0.0,
			"0.015": 0.0,
			"0.016": 0.0,
			"0.017": 0.0,
			"0.018": 0.0,
			"0.019": 0.0,
			"0.02": 0.0,
			"0.021": 0.0,
			"0.022": 0.0,
			"0.023": 0.0,
			"0.024": 0.0,
			"0.025": 0.0
		}
	}
}
