{
	 "smiles": "CC[C@H]1CCN[C@@H](C1)C(=O)N[C@H]([C@H](C)Cl)[C@H]1O[C@H](SC)[C@H](O)[C@@H](O)[C@H]1O", 
	 "Tm": 484.15, 
	 "num_atms": 57, 
	 "gaussian": { 
		 "optdone": 1, 
		 "sigma_profile": "yes", 
		 "theory": "DFT", 
		 "functional": "B3LYP", 
		 "basiset": "6-31G**", 
		 "properties": { 
			 "R2extent": 16654.7774, 
			 "electric_dipole_moment_norm": 6.63671133846, 
			 "electric_quadrupole_moment_norm": 33.7784263451, 
			 "total_energy": -2010.4801583, 
			 "HOMO_LUMO_gap": 0.2274, 
			 "cosmo_polarized_energy": -31.16, 
			 "cosmo_cavitation_energy": 57.25, 
			 "cosmo_dispersion_energy": -37.99, 
			 "cosmo_repulsion_energy": 2.9, 
			 "cosmo_total_nonelectrostatic_energy": 22.16, 
			 "SMD_solvation_energy": 6.94 
		},
		"coords": [
			{
				"x": -0.8630728415,
				"y": 3.3431193591,
				"z": 2.721019004,
				"element": "C" 
			},
			{
				"x": 0.6596906797,
				"y": 3.2400257188,
				"z": 2.882177784,
				"element": "C" 
			},
			{
				"x": 1.2419538729,
				"y": 1.8161163462,
				"z": 2.994968053,
				"element": "C" 
			},
			{
				"x": 0.633004125,
				"y": 0.9838355104,
				"z": 4.1366439275,
				"element": "C" 
			},
			{
				"x": 1.4126628227,
				"y": -0.3402622782,
				"z": 4.333760284,
				"element": "C" 
			},
			{
				"x": 2.0923608555,
				"y": -0.7096512156,
				"z": 3.0915201086,
				"element": "N" 
			},
			{
				"x": 1.2568941575,
				"y": -0.5023646363,
				"z": 1.9233534449,
				"element": "C" 
			},
			{
				"x": 1.1522381765,
				"y": 1.0224774465,
				"z": 1.6641152896,
				"element": "C" 
			},
			{
				"x": 1.8180548051,
				"y": -1.340189543,
				"z": 0.7656414767,
				"element": "C" 
			},
			{
				"x": 2.4857872102,
				"y": -2.3464805822,
				"z": 0.9700626814,
				"element": "O" 
			},
			{
				"x": 1.4649097144,
				"y": -0.9345096473,
				"z": -0.4944536303,
				"element": "N" 
			},
			{
				"x": 1.8819639117,
				"y": -1.6590481364,
				"z": -1.6946995363,
				"element": "C" 
			},
			{
				"x": 3.2800398179,
				"y": -1.1442117936,
				"z": -2.1292319093,
				"element": "C" 
			},
			{
				"x": 3.2937190687,
				"y": 0.2040373903,
				"z": -2.8375116019,
				"element": "C" 
			},
			{
				"x": 4.1687098612,
				"y": -2.3853672014,
				"z": -3.1407705957,
				"element": "Cl" 
			},
			{
				"x": 0.7457614262,
				"y": -1.5227553277,
				"z": -2.7295395381,
				"element": "C" 
			},
			{
				"x": 1.2234115686,
				"y": -2.013183007,
				"z": -3.9738862317,
				"element": "O" 
			},
			{
				"x": 0.3424487278,
				"y": -1.9176894293,
				"z": -5.0701195852,
				"element": "C" 
			},
			{
				"x": 0.2456578869,
				"y": -0.2311743047,
				"z": -5.8586050378,
				"element": "S" 
			},
			{
				"x": -1.2644763649,
				"y": 0.622890523,
				"z": -5.2687627439,
				"element": "C" 
			},
			{
				"x": -0.9819631123,
				"y": -2.641901161,
				"z": -4.7344709306,
				"element": "C" 
			},
			{
				"x": -2.0149677473,
				"y": -2.4920051593,
				"z": -5.6999786425,
				"element": "O" 
			},
			{
				"x": -1.5753449908,
				"y": -2.1933203197,
				"z": -3.3992818974,
				"element": "C" 
			},
			{
				"x": -2.6436954319,
				"y": -3.0554776375,
				"z": -3.0241852836,
				"element": "O" 
			},
			{
				"x": -0.5248008604,
				"y": -2.2683438562,
				"z": -2.2862982971,
				"element": "C" 
			},
			{
				"x": -0.1980883735,
				"y": -3.615646952,
				"z": -2.0120825258,
				"element": "O" 
			},
			{
				"x": -1.3919636653,
				"y": 2.933812134,
				"z": 3.587641148,
				"element": "H" 
			},
			{
				"x": -1.1671346625,
				"y": 4.3897114607,
				"z": 2.6166855853,
				"element": "H" 
			},
			{
				"x": -1.2235194818,
				"y": 2.8115238239,
				"z": 1.8334048225,
				"element": "H" 
			},
			{
				"x": 1.1454134168,
				"y": 3.7471730908,
				"z": 2.0371061414,
				"element": "H" 
			},
			{
				"x": 0.9553566295,
				"y": 3.8020318489,
				"z": 3.7778614475,
				"element": "H" 
			},
			{
				"x": 2.3093049533,
				"y": 1.9279073922,
				"z": 3.2192112513,
				"element": "H" 
			},
			{
				"x": -0.4173493617,
				"y": 0.7645712712,
				"z": 3.9085262896,
				"element": "H" 
			},
			{
				"x": 0.6296347923,
				"y": 1.5572458068,
				"z": 5.0707907487,
				"element": "H" 
			},
			{
				"x": 0.7126631472,
				"y": -1.1182268075,
				"z": 4.6902884361,
				"element": "H" 
			},
			{
				"x": 2.1758760319,
				"y": -0.2173463482,
				"z": 5.1117402762,
				"element": "H" 
			},
			{
				"x": 2.4359023704,
				"y": -1.6655757502,
				"z": 3.0960146039,
				"element": "H" 
			},
			{
				"x": 0.2272907609,
				"y": -0.8969671979,
				"z": 2.0685192846,
				"element": "H" 
			},
			{
				"x": 1.9658120861,
				"y": 1.3529761164,
				"z": 1.0066291185,
				"element": "H" 
			},
			{
				"x": 0.2056646074,
				"y": 1.2436671631,
				"z": 1.1530500929,
				"element": "H" 
			},
			{
				"x": 1.0274071402,
				"y": -0.0309257483,
				"z": -0.6012259578,
				"element": "H" 
			},
			{
				"x": 1.9801720505,
				"y": -2.707766659,
				"z": -1.4107194678,
				"element": "H" 
			},
			{
				"x": 3.8726144962,
				"y": -1.1019058601,
				"z": -1.2142095885,
				"element": "H" 
			},
			{
				"x": 2.8048466991,
				"y": 0.958193588,
				"z": -2.2077450758,
				"element": "H" 
			},
			{
				"x": 2.775200286,
				"y": 0.1548207995,
				"z": -3.797456329,
				"element": "H" 
			},
			{
				"x": 4.3206540369,
				"y": 0.5331690286,
				"z": -3.0116037833,
				"element": "H" 
			},
			{
				"x": 0.4883487317,
				"y": -0.454222998,
				"z": -2.841546431,
				"element": "H" 
			},
			{
				"x": 0.8555850311,
				"y": -2.4702130073,
				"z": -5.8633985646,
				"element": "H" 
			},
			{
				"x": -1.316098157,
				"y": 1.5362139118,
				"z": -5.867190927,
				"element": "H" 
			},
			{
				"x": -1.2096834239,
				"y": 0.9049797886,
				"z": -4.2152090231,
				"element": "H" 
			},
			{
				"x": -2.150344335,
				"y": 0.0191778084,
				"z": -5.4640224638,
				"element": "H" 
			},
			{
				"x": -0.7111322886,
				"y": -3.7006037007,
				"z": -4.6142452715,
				"element": "H" 
			},
			{
				"x": -1.7096368175,
				"y": -2.8407752022,
				"z": -6.54742815,
				"element": "H" 
			},
			{
				"x": -1.9371845188,
				"y": -1.1609098506,
				"z": -3.4853130757,
				"element": "H" 
			},
			{
				"x": -3.1811948497,
				"y": -3.1899817697,
				"z": -3.818218689,
				"element": "H" 
			},
			{
				"x": -0.9304490368,
				"y": -1.7735763631,
				"z": -1.389635797,
				"element": "H" 
			},
			{
				"x": -1.0439156346,
				"y": -4.0877978761,
				"z": -1.9766847179,
				"element": "H" 
			}
		],
		 "valence_orbital": [ 
			{
				"type": "occ",
				"energy": -0.26566,
				"method": "rhf"
			},
			{
				"type": "occ",
				"energy": -0.25641,
				"method": "rhf"
			},
			{
				"type": "occ",
				"energy": -0.25387,
				"method": "rhf"
			},
			{
				"type": "occ",
				"energy": -0.23685,
				"method": "rhf"
			},
			{
				"type": "occ",
				"energy": -0.21068,
				"method": "rhf"
			},
			{
				"type": "unocc",
				"energy": 0.01672,
				"method": "rhf"
			},
			{
				"type": "unocc",
				"energy": 0.03048,
				"method": "rhf"
			},
			{
				"type": "unocc",
				"energy": 0.04128,
				"method": "rhf"
			},
			{
				"type": "unocc",
				"energy": 0.04299,
				"method": "rhf"
			},
			{
				"type": "unocc",
				"energy": 0.05306,
				"method": "rhf"
			}
		],
		"cosmo_sigma_profile": { 
			"-0.025": 0.0,
			"-0.024": 0.0,
			"-0.023": 0.0,
			"-0.022": 0.0,
			"-0.021": 0.0,
			"-0.02": 0.0,
			"-0.019": 0.0,
			"-0.018": 0.0,
			"-0.017": 0.416058626723,
			"-0.016": 1.2671471415,
			"-0.015": 0.658587114803,
			"-0.014": 1.30633132064,
			"-0.013": 2.93686518735,
			"-0.012": 4.11679621388,
			"-0.011": 4.18981600494,
			"-0.01": 3.55937779203,
			"-0.009": 3.85225622661,
			"-0.008": 5.90403867235,
			"-0.007": 9.5651206286,
			"-0.006": 15.9545761996,
			"-0.005": 18.0989008536,
			"-0.004": 27.7136228366,
			"-0.003": 34.6593241213,
			"-0.002": 46.2947634103,
			"-0.001": 52.4842231426,
			"0.0": 43.5997980076,
			"0.001": 30.5831340579,
			"0.002": 18.6657991616,
			"0.003": 12.422495628,
			"0.004": 14.5481416471,
			"0.005": 15.5252886308,
			"0.006": 16.6519920958,
			"0.007": 15.1821533333,
			"0.008": 9.43790676753,
			"0.009": 9.06053496198,
			"0.01": 7.38584240337,
			"0.011": 7.32658014447,
			"0.012": 4.79793434435,
			"0.013": 5.43822714269,
			"0.014": 1.06135844683,
			"0.015": 0.424402915305,
			"0.016": 0.391461059276,
			"0.017": 0.218315693816,
			"0.018": 0.0,
			"0.019": 0.0,
			"0.02": 0.0,
			"0.021": 0.0,
			"0.022": 0.0,
			"0.023": 0.0,
			"0.024": 0.0,
			"0.025": 0.0
		}
	}
}
