{
	 "smiles": "NNC(=O)C1=CC(=CC=C1)S(=O)(=O)NC1=CC=C(Cl)C=C1", 
	 "Tm": 465.15, 
	 "num_atms": 33, 
	 "gaussian": { 
		 "optdone": 1, 
		 "sigma_profile": "yes", 
		 "theory": "DFT", 
		 "functional": "B3LYP", 
		 "basiset": "6-31G**", 
		 "properties": { 
			 "R2extent": 8963.5022, 
			 "electric_dipole_moment_norm": 2.72392594613, 
			 "electric_quadrupole_moment_norm": 17.5621099903, 
			 "total_energy": -1750.82458418, 
			 "HOMO_LUMO_gap": 0.17236, 
			 "cosmo_polarized_energy": -23.89, 
			 "cosmo_cavitation_energy": 41.59, 
			 "cosmo_dispersion_energy": -29.16, 
			 "cosmo_repulsion_energy": 2.22, 
			 "cosmo_total_nonelectrostatic_energy": 14.65, 
			 "SMD_solvation_energy": 6.94 
		},
		"coords": [
			{
				"x": 2.6007782207,
				"y": 3.5149799454,
				"z": 0.4780286544,
				"element": "N" 
			},
			{
				"x": 3.055571475,
				"y": 2.8610957329,
				"z": -0.6860159271,
				"element": "N" 
			},
			{
				"x": 3.3554493565,
				"y": 1.5229831045,
				"z": -0.8219624591,
				"element": "C" 
			},
			{
				"x": 4.1442899351,
				"y": 1.1450409693,
				"z": -1.6803092194,
				"element": "O" 
			},
			{
				"x": 2.6827938414,
				"y": 0.5326982559,
				"z": 0.0918362403,
				"element": "C" 
			},
			{
				"x": 1.3566496192,
				"y": 0.6592366189,
				"z": 0.524955911,
				"element": "C" 
			},
			{
				"x": 0.7956168119,
				"y": -0.3474148552,
				"z": 1.3084007558,
				"element": "C" 
			},
			{
				"x": 1.5274085021,
				"y": -1.4735540986,
				"z": 1.6919777925,
				"element": "C" 
			},
			{
				"x": 2.8410186359,
				"y": -1.6027065223,
				"z": 1.2431636016,
				"element": "C" 
			},
			{
				"x": 3.4085137171,
				"y": -0.6149996177,
				"z": 0.4375903432,
				"element": "C" 
			},
			{
				"x": -0.8910907641,
				"y": -0.1455306685,
				"z": 1.8862344786,
				"element": "S" 
			},
			{
				"x": -0.9503878772,
				"y": -0.5665388661,
				"z": 3.2887862238,
				"element": "O" 
			},
			{
				"x": -1.3418563479,
				"y": 1.1776671777,
				"z": 1.4507881652,
				"element": "O" 
			},
			{
				"x": -1.7522877574,
				"y": -1.3761892772,
				"z": 1.0693636027,
				"element": "N" 
			},
			{
				"x": -2.4610897712,
				"y": -1.1318720238,
				"z": -0.1397181222,
				"element": "C" 
			},
			{
				"x": -1.7887299039,
				"y": -0.6854492346,
				"z": -1.2837372186,
				"element": "C" 
			},
			{
				"x": -2.4832813666,
				"y": -0.4864833231,
				"z": -2.4741417977,
				"element": "C" 
			},
			{
				"x": -3.8495239457,
				"y": -0.7620475829,
				"z": -2.5289629886,
				"element": "C" 
			},
			{
				"x": -4.7221123254,
				"y": -0.5298965452,
				"z": -4.0354543491,
				"element": "Cl" 
			},
			{
				"x": -4.5296774761,
				"y": -1.2235179649,
				"z": -1.4033051949,
				"element": "C" 
			},
			{
				"x": -3.8345506393,
				"y": -1.3937438214,
				"z": -0.2077140945,
				"element": "C" 
			},
			{
				"x": 2.9653455799,
				"y": 3.0631255117,
				"z": 1.3122662433,
				"element": "H" 
			},
			{
				"x": 1.5861194982,
				"y": 3.5031340325,
				"z": 0.5178181765,
				"element": "H" 
			},
			{
				"x": 3.6291456908,
				"y": 3.4475164866,
				"z": -1.2814531945,
				"element": "H" 
			},
			{
				"x": 0.7442214537,
				"y": 1.5085153832,
				"z": 0.2489359144,
				"element": "H" 
			},
			{
				"x": 1.075598488,
				"y": -2.2281894369,
				"z": 2.3264903374,
				"element": "H" 
			},
			{
				"x": 3.4218786222,
				"y": -2.477024324,
				"z": 1.5194832002,
				"element": "H" 
			},
			{
				"x": 4.4200012553,
				"y": -0.7175247326,
				"z": 0.0592564309,
				"element": "H" 
			},
			{
				"x": -2.2841186263,
				"y": -1.8736587064,
				"z": 1.7782830953,
				"element": "H" 
			},
			{
				"x": -0.7200853482,
				"y": -0.505195984,
				"z": -1.2507860075,
				"element": "H" 
			},
			{
				"x": -1.9636423156,
				"y": -0.1363319225,
				"z": -3.3589395611,
				"element": "H" 
			},
			{
				"x": -5.5920527736,
				"y": -1.4334609197,
				"z": -1.4555515194,
				"element": "H" 
			},
			{
				"x": -4.3661134644,
				"y": -1.7310627912,
				"z": 0.6779924866,
				"element": "H" 
			}
		],
		 "valence_orbital": [ 
			{
				"type": "occ",
				"energy": -0.28659,
				"method": "rhf"
			},
			{
				"type": "occ",
				"energy": -0.27462,
				"method": "rhf"
			},
			{
				"type": "occ",
				"energy": -0.26428,
				"method": "rhf"
			},
			{
				"type": "occ",
				"energy": -0.25884,
				"method": "rhf"
			},
			{
				"type": "occ",
				"energy": -0.23751,
				"method": "rhf"
			},
			{
				"type": "unocc",
				"energy": -0.06515,
				"method": "rhf"
			},
			{
				"type": "unocc",
				"energy": -0.04947,
				"method": "rhf"
			},
			{
				"type": "unocc",
				"energy": -0.02586,
				"method": "rhf"
			},
			{
				"type": "unocc",
				"energy": -0.02455,
				"method": "rhf"
			},
			{
				"type": "unocc",
				"energy": 0.02021,
				"method": "rhf"
			}
		],
		"cosmo_sigma_profile": { 
			"-0.025": 0.0,
			"-0.024": 0.0,
			"-0.023": 0.0,
			"-0.022": 0.0,
			"-0.021": 0.0,
			"-0.02": 0.0,
			"-0.019": 0.0,
			"-0.018": 0.0,
			"-0.017": 0.0,
			"-0.016": 0.203149685195,
			"-0.015": 0.971067186836,
			"-0.014": 1.39906225153,
			"-0.013": 2.21631292314,
			"-0.012": 4.33221994254,
			"-0.011": 6.14454517754,
			"-0.01": 5.09059497187,
			"-0.009": 5.51437849006,
			"-0.008": 9.5739717086,
			"-0.007": 16.030345579,
			"-0.006": 16.6477215339,
			"-0.005": 18.5765260619,
			"-0.004": 14.8554272907,
			"-0.003": 17.4683686134,
			"-0.002": 16.5396995336,
			"-0.001": 15.6932821135,
			"0.0": 21.129471564,
			"0.001": 25.0600011705,
			"0.002": 27.9105281804,
			"0.003": 24.6337645438,
			"0.004": 16.9910040196,
			"0.005": 12.3951976538,
			"0.006": 5.73824821671,
			"0.007": 7.00126829618,
			"0.008": 5.37832720301,
			"0.009": 5.99453122476,
			"0.01": 11.6834744186,
			"0.011": 8.07901132479,
			"0.012": 3.29724610661,
			"0.013": 6.02459671257,
			"0.014": 1.71818567106,
			"0.015": 0.673843363852,
			"0.016": 0.113367302599,
			"0.017": 0.0,
			"0.018": 0.0,
			"0.019": 0.0,
			"0.02": 0.0,
			"0.021": 0.0,
			"0.022": 0.0,
			"0.023": 0.0,
			"0.024": 0.0,
			"0.025": 0.0
		}
	}
}
