{
	 "smiles": "C1CNCCOCCNCCN1", 
	 "Tm": 356.15, 
	 "num_atms": 31, 
	 "gaussian": { 
		 "optdone": 1, 
		 "sigma_profile": "yes", 
		 "theory": "DFT", 
		 "functional": "B3LYP", 
		 "basiset": "6-31G**", 
		 "properties": { 
			 "R2extent": 2541.454, 
			 "electric_dipole_moment_norm": 2.27312653849, 
			 "electric_quadrupole_moment_norm": 6.34491409713, 
			 "total_energy": -555.730825517, 
			 "HOMO_LUMO_gap": 0.27294, 
			 "cosmo_polarized_energy": -11.94, 
			 "cosmo_cavitation_energy": 29.14, 
			 "cosmo_dispersion_energy": -21.79, 
			 "cosmo_repulsion_energy": 1.73, 
			 "cosmo_total_nonelectrostatic_energy": 9.08, 
			 "SMD_solvation_energy": -1.5 
		},
		"coords": [
			{
				"x": -0.6986712703,
				"y": 3.0227612839,
				"z": 1.1697545133,
				"element": "C" 
			},
			{
				"x": -1.4749841881,
				"y": 2.7028512815,
				"z": -0.114455112,
				"element": "C" 
			},
			{
				"x": -0.6034478969,
				"y": 2.4193509179,
				"z": -1.2630976305,
				"element": "N" 
			},
			{
				"x": -1.0286336135,
				"y": 1.339699453,
				"z": -2.1456201465,
				"element": "C" 
			},
			{
				"x": -1.0991177894,
				"y": -0.0579437532,
				"z": -1.5162516227,
				"element": "C" 
			},
			{
				"x": 0.1536608049,
				"y": -0.3497606621,
				"z": -0.9190939903,
				"element": "O" 
			},
			{
				"x": 0.1813512628,
				"y": -1.5933130943,
				"z": -0.2395735572,
				"element": "C" 
			},
			{
				"x": 1.3445754027,
				"y": -1.6460264194,
				"z": 0.7525448833,
				"element": "C" 
			},
			{
				"x": 1.0839863088,
				"y": -0.951449219,
				"z": 2.0179675574,
				"element": "N" 
			},
			{
				"x": 1.7891386467,
				"y": 0.30825842,
				"z": 2.2448298565,
				"element": "C" 
			},
			{
				"x": 1.2374712652,
				"y": 1.4965383025,
				"z": 1.4539222526,
				"element": "C" 
			},
			{
				"x": -0.1332267529,
				"y": 1.8364053593,
				"z": 1.8232150363,
				"element": "N" 
			},
			{
				"x": 0.0673009417,
				"y": 3.7900500878,
				"z": 0.9471605647,
				"element": "H" 
			},
			{
				"x": -1.4044594884,
				"y": 3.4847448624,
				"z": 1.869450483,
				"element": "H" 
			},
			{
				"x": -2.1158302158,
				"y": 3.56442372,
				"z": -0.3588154618,
				"element": "H" 
			},
			{
				"x": -2.1441974351,
				"y": 1.8634936161,
				"z": 0.1223504651,
				"element": "H" 
			},
			{
				"x": 0.3339154888,
				"y": 2.2106995375,
				"z": -0.9433024943,
				"element": "H" 
			},
			{
				"x": -2.0159451005,
				"y": 1.5778377485,
				"z": -2.5633225029,
				"element": "H" 
			},
			{
				"x": -0.3295034753,
				"y": 1.3063851265,
				"z": -2.9899747749,
				"element": "H" 
			},
			{
				"x": -1.3464952178,
				"y": -0.799220093,
				"z": -2.2961845989,
				"element": "H" 
			},
			{
				"x": -1.8923956789,
				"y": -0.1101701568,
				"z": -0.7544665639,
				"element": "H" 
			},
			{
				"x": 0.2840949202,
				"y": -2.4139149532,
				"z": -0.9715575919,
				"element": "H" 
			},
			{
				"x": -0.7545043415,
				"y": -1.7491161397,
				"z": 0.3168227832,
				"element": "H" 
			},
			{
				"x": 1.5257822092,
				"y": -2.7073855811,
				"z": 0.9655227972,
				"element": "H" 
			},
			{
				"x": 2.2522136419,
				"y": -1.2691104818,
				"z": 0.2532563924,
				"element": "H" 
			},
			{
				"x": 1.2842217771,
				"y": -1.575937573,
				"z": 2.7896684786,
				"element": "H" 
			},
			{
				"x": 1.720217701,
				"y": 0.530672594,
				"z": 3.3187505846,
				"element": "H" 
			},
			{
				"x": 2.8693624059,
				"y": 0.2382302515,
				"z": 2.0100280738,
				"element": "H" 
			},
			{
				"x": 1.2599090361,
				"y": 1.2256349678,
				"z": 0.3959605517,
				"element": "H" 
			},
			{
				"x": 1.9410687872,
				"y": 2.3428036543,
				"z": 1.590963451,
				"element": "H" 
			},
			{
				"x": -0.1777581359,
				"y": 1.9568069419,
				"z": 2.8307473229,
				"element": "H" 
			}
		],
		 "valence_orbital": [ 
			{
				"type": "occ",
				"energy": -0.31025,
				"method": "rhf"
			},
			{
				"type": "occ",
				"energy": -0.24808,
				"method": "rhf"
			},
			{
				"type": "occ",
				"energy": -0.21665,
				"method": "rhf"
			},
			{
				"type": "occ",
				"energy": -0.21049,
				"method": "rhf"
			},
			{
				"type": "occ",
				"energy": -0.19613,
				"method": "rhf"
			},
			{
				"type": "unocc",
				"energy": 0.07681,
				"method": "rhf"
			},
			{
				"type": "unocc",
				"energy": 0.09499,
				"method": "rhf"
			},
			{
				"type": "unocc",
				"energy": 0.09686,
				"method": "rhf"
			},
			{
				"type": "unocc",
				"energy": 0.11276,
				"method": "rhf"
			},
			{
				"type": "unocc",
				"energy": 0.12532,
				"method": "rhf"
			}
		],
		"cosmo_sigma_profile": { 
			"-0.025": 0.0,
			"-0.024": 0.0,
			"-0.023": 0.0,
			"-0.022": 0.0,
			"-0.021": 0.0,
			"-0.02": 0.0,
			"-0.019": 0.0,
			"-0.018": 0.0,
			"-0.017": 0.0,
			"-0.016": 0.0,
			"-0.015": 0.0,
			"-0.014": 0.0,
			"-0.013": 0.0,
			"-0.012": 0.0,
			"-0.011": 0.0132405192001,
			"-0.01": 1.08281046001,
			"-0.009": 2.8766393806,
			"-0.008": 2.520630055,
			"-0.007": 2.9939593321,
			"-0.006": 4.88223993242,
			"-0.005": 5.4107086884,
			"-0.004": 14.3170953148,
			"-0.003": 29.1588403116,
			"-0.002": 37.9306978966,
			"-0.001": 41.7212777452,
			"0.0": 27.8155205047,
			"0.001": 9.28770691552,
			"0.002": 3.85083359784,
			"0.003": 4.428294706,
			"0.004": 3.35198037123,
			"0.005": 3.77520431903,
			"0.006": 1.95679222138,
			"0.007": 2.84400292758,
			"0.008": 2.58268641653,
			"0.009": 2.80731019626,
			"0.01": 1.93968899447,
			"0.011": 1.82363199319,
			"0.012": 1.52423139153,
			"0.013": 2.06529343691,
			"0.014": 2.27683377501,
			"0.015": 1.97262290935,
			"0.016": 1.38147127757,
			"0.017": 1.39275057415,
			"0.018": 1.27272017988,
			"0.019": 0.819298231437,
			"0.02": 0.678207538494,
			"0.021": 0.540257271705,
			"0.022": 0.0115692882837,
			"0.023": 0.0,
			"0.024": 0.0,
			"0.025": 0.0
		}
	}
}
