{
	 "smiles": "CN(C)C=C(Br)C=O", 
	 "Tm": 322.15, 
	 "num_atms": 16, 
	 "gaussian": { 
		 "optdone": 1, 
		 "sigma_profile": "yes", 
		 "theory": "DFT", 
		 "functional": "B3LYP", 
		 "basiset": "6-31G**", 
		 "properties": { 
			 "R2extent": 3277.7671, 
			 "electric_dipole_moment_norm": 7.12230374387, 
			 "electric_quadrupole_moment_norm": 22.2287146596, 
			 "total_energy": -2896.69803548, 
			 "HOMO_LUMO_gap": 0.18305, 
			 "cosmo_polarized_energy": -15.74, 
			 "cosmo_cavitation_energy": 21.83, 
			 "cosmo_dispersion_energy": -16.34, 
			 "cosmo_repulsion_energy": 1.35, 
			 "cosmo_total_nonelectrostatic_energy": 6.84, 
			 "SMD_solvation_energy": 4.5 
		},
		"coords": [
			{
				"x": 0.7532845524,
				"y": -2.1332741028,
				"z": 0.1705171245,
				"element": "C" 
			},
			{
				"x": 0.9897877553,
				"y": -0.7467474159,
				"z": -0.2111184718,
				"element": "N" 
			},
			{
				"x": 0.1238972544,
				"y": -0.2744041792,
				"z": -1.2848876423,
				"element": "C" 
			},
			{
				"x": 1.9438168733,
				"y": -0.0322325191,
				"z": 0.426070302,
				"element": "C" 
			},
			{
				"x": 2.4323547662,
				"y": 1.2437277609,
				"z": 0.3492538613,
				"element": "C" 
			},
			{
				"x": 1.8672873699,
				"y": 2.6361759651,
				"z": -0.8305840122,
				"element": "Br" 
			},
			{
				"x": 3.5084541871,
				"y": 1.6152071179,
				"z": 1.2592818504,
				"element": "C" 
			},
			{
				"x": 4.060206989,
				"y": 2.6977933045,
				"z": 1.3311144254,
				"element": "O" 
			},
			{
				"x": 1.4289324135,
				"y": -2.4294791703,
				"z": 0.9743335881,
				"element": "H" 
			},
			{
				"x": 0.9149944422,
				"y": -2.8015025464,
				"z": -0.6848553933,
				"element": "H" 
			},
			{
				"x": -0.2796732271,
				"y": -2.2674976222,
				"z": 0.5160821115,
				"element": "H" 
			},
			{
				"x": -0.9268571376,
				"y": -0.3554467897,
				"z": -0.9790802792,
				"element": "H" 
			},
			{
				"x": 0.2684054855,
				"y": -0.8938711993,
				"z": -2.1790061466,
				"element": "H" 
			},
			{
				"x": 0.3435059112,
				"y": 0.759881861,
				"z": -1.5301374661,
				"element": "H" 
			},
			{
				"x": 2.4483037275,
				"y": -0.6211758282,
				"z": 1.1907678518,
				"element": "H" 
			},
			{
				"x": 3.8083986372,
				"y": 0.7758453636,
				"z": 1.9302482965,
				"element": "H" 
			}
		],
		 "valence_orbital": [ 
			{
				"type": "occ",
				"energy": -0.33917,
				"method": "rhf"
			},
			{
				"type": "occ",
				"energy": -0.2955,
				"method": "rhf"
			},
			{
				"type": "occ",
				"energy": -0.27575,
				"method": "rhf"
			},
			{
				"type": "occ",
				"energy": -0.23883,
				"method": "rhf"
			},
			{
				"type": "occ",
				"energy": -0.21239,
				"method": "rhf"
			},
			{
				"type": "unocc",
				"energy": -0.02934,
				"method": "rhf"
			},
			{
				"type": "unocc",
				"energy": 0.01173,
				"method": "rhf"
			},
			{
				"type": "unocc",
				"energy": 0.06768,
				"method": "rhf"
			},
			{
				"type": "unocc",
				"energy": 0.07374,
				"method": "rhf"
			},
			{
				"type": "unocc",
				"energy": 0.09602,
				"method": "rhf"
			}
		],
		"cosmo_sigma_profile": { 
			"-0.025": 0.0,
			"-0.024": 0.0,
			"-0.023": 0.0,
			"-0.022": 0.0,
			"-0.021": 0.0,
			"-0.02": 0.0,
			"-0.019": 0.0,
			"-0.018": 0.0,
			"-0.017": 0.0,
			"-0.016": 0.0,
			"-0.015": 0.0,
			"-0.014": 0.0,
			"-0.013": 0.0,
			"-0.012": 0.0,
			"-0.011": 0.111482756281,
			"-0.01": 2.85362992772,
			"-0.009": 3.01828618046,
			"-0.008": 3.09984993494,
			"-0.007": 3.05362236473,
			"-0.006": 10.3568939666,
			"-0.005": 16.2898565112,
			"-0.004": 14.8736166463,
			"-0.003": 19.9176598781,
			"-0.002": 15.721329856,
			"-0.001": 11.1025499184,
			"0.0": 10.1970563007,
			"0.001": 7.94050079358,
			"0.002": 7.17034159137,
			"0.003": 8.2321691238,
			"0.004": 6.36752132004,
			"0.005": 7.22816916649,
			"0.006": 5.03344731658,
			"0.007": 2.31959738849,
			"0.008": 1.74432507155,
			"0.009": 1.98376096024,
			"0.01": 2.4715062979,
			"0.011": 2.06806740242,
			"0.012": 3.33657696257,
			"0.013": 5.62085903988,
			"0.014": 3.70730070642,
			"0.015": 0.530385476287,
			"0.016": 0.0,
			"0.017": 0.0,
			"0.018": 0.0,
			"0.019": 0.0,
			"0.02": 0.0,
			"0.021": 0.0,
			"0.022": 0.0,
			"0.023": 0.0,
			"0.024": 0.0,
			"0.025": 0.0
		}
	}
}
