{
	 "smiles": "OC(=O)CCCOC1=C(F)C=CC=C1", 
	 "Tm": 350.15, 
	 "num_atms": 25, 
	 "gaussian": { 
		 "optdone": 1, 
		 "sigma_profile": "yes", 
		 "theory": "DFT", 
		 "functional": "B3LYP", 
		 "basiset": "6-31G**", 
		 "properties": { 
			 "R2extent": 3675.5673, 
			 "electric_dipole_moment_norm": 1.67444631446, 
			 "electric_quadrupole_moment_norm": 7.76652536273, 
			 "total_energy": -713.204177007, 
			 "HOMO_LUMO_gap": 0.2309, 
			 "cosmo_polarized_energy": -11.25, 
			 "cosmo_cavitation_energy": 29.92, 
			 "cosmo_dispersion_energy": -20.78, 
			 "cosmo_repulsion_energy": 1.63, 
			 "cosmo_total_nonelectrostatic_energy": 10.78, 
			 "SMD_solvation_energy": 6.48 
		},
		"coords": [
			{
				"x": 1.4246304062,
				"y": 0.5795777636,
				"z": 3.0910372774,
				"element": "O" 
			},
			{
				"x": 0.2347453205,
				"y": 1.0381874394,
				"z": 2.6229669973,
				"element": "C" 
			},
			{
				"x": -0.8179375401,
				"y": 0.5161082529,
				"z": 2.9213410064,
				"element": "O" 
			},
			{
				"x": 0.4114335968,
				"y": 2.2265401583,
				"z": 1.7045122646,
				"element": "C" 
			},
			{
				"x": 1.171115834,
				"y": 1.8785350324,
				"z": 0.4078026425,
				"element": "C" 
			},
			{
				"x": 0.5089069926,
				"y": 0.7671661613,
				"z": -0.3970325613,
				"element": "C" 
			},
			{
				"x": -0.8488351858,
				"y": 1.1580689312,
				"z": -0.6491174801,
				"element": "O" 
			},
			{
				"x": -1.6878604705,
				"y": 0.1627037374,
				"z": -1.0843759579,
				"element": "C" 
			},
			{
				"x": -1.5840648308,
				"y": -0.3618514108,
				"z": -2.3776149332,
				"element": "C" 
			},
			{
				"x": -0.5950460386,
				"y": 0.0900158367,
				"z": -3.1824570669,
				"element": "F" 
			},
			{
				"x": -2.4628480694,
				"y": -1.328361374,
				"z": -2.8463844423,
				"element": "C" 
			},
			{
				"x": -3.4788701099,
				"y": -1.7862556592,
				"z": -2.0033669785,
				"element": "C" 
			},
			{
				"x": -3.5957736588,
				"y": -1.2791674984,
				"z": -0.7077326196,
				"element": "C" 
			},
			{
				"x": -2.6987525654,
				"y": -0.3126918399,
				"z": -0.2472328426,
				"element": "C" 
			},
			{
				"x": 1.2150746824,
				"y": -0.1848360068,
				"z": 3.6539217888,
				"element": "H" 
			},
			{
				"x": 0.9628686205,
				"y": 3.0025967527,
				"z": 2.2466385002,
				"element": "H" 
			},
			{
				"x": -0.5841144479,
				"y": 2.6008847904,
				"z": 1.466262636,
				"element": "H" 
			},
			{
				"x": 2.1961808167,
				"y": 1.5715119453,
				"z": 0.6416088805,
				"element": "H" 
			},
			{
				"x": 1.2326191188,
				"y": 2.7824158363,
				"z": -0.2077842533,
				"element": "H" 
			},
			{
				"x": 0.5168027797,
				"y": -0.177441064,
				"z": 0.1648710368,
				"element": "H" 
			},
			{
				"x": 1.0378220001,
				"y": 0.6039095061,
				"z": -1.3436646683,
				"element": "H" 
			},
			{
				"x": -2.3437399327,
				"y": -1.7021379896,
				"z": -3.8579294113,
				"element": "H" 
			},
			{
				"x": -4.173711622,
				"y": -2.5391057425,
				"z": -2.3624285043,
				"element": "H" 
			},
			{
				"x": -4.3805737359,
				"y": -1.6399083433,
				"z": -0.0501037105,
				"element": "H" 
			},
			{
				"x": -2.7512719607,
				"y": 0.0851347844,
				"z": 0.7614623997,
				"element": "H" 
			}
		],
		 "valence_orbital": [ 
			{
				"type": "occ",
				"energy": -0.32042,
				"method": "rhf"
			},
			{
				"type": "occ",
				"energy": -0.27904,
				"method": "rhf"
			},
			{
				"type": "occ",
				"energy": -0.2743,
				"method": "rhf"
			},
			{
				"type": "occ",
				"energy": -0.24885,
				"method": "rhf"
			},
			{
				"type": "occ",
				"energy": -0.23377,
				"method": "rhf"
			},
			{
				"type": "unocc",
				"energy": -0.00287,
				"method": "rhf"
			},
			{
				"type": "unocc",
				"energy": 0.00372,
				"method": "rhf"
			},
			{
				"type": "unocc",
				"energy": 0.00559,
				"method": "rhf"
			},
			{
				"type": "unocc",
				"energy": 0.07079,
				"method": "rhf"
			},
			{
				"type": "unocc",
				"energy": 0.08127,
				"method": "rhf"
			}
		],
		"cosmo_sigma_profile": { 
			"-0.025": 0.0,
			"-0.024": 0.0,
			"-0.023": 0.0,
			"-0.022": 0.0,
			"-0.021": 0.0,
			"-0.02": 0.0,
			"-0.019": 0.0,
			"-0.018": 0.54719666752,
			"-0.017": 1.04938960385,
			"-0.016": 0.482327514975,
			"-0.015": 0.866939860014,
			"-0.014": 1.04277295704,
			"-0.013": 0.646161330553,
			"-0.012": 0.391278266708,
			"-0.011": 1.1846685095,
			"-0.01": 0.740347825187,
			"-0.009": 0.334219020438,
			"-0.008": 0.616883630552,
			"-0.007": 3.04342385598,
			"-0.006": 9.89181862013,
			"-0.005": 15.019446217,
			"-0.004": 24.8825579119,
			"-0.003": 22.1290623542,
			"-0.002": 18.7334554741,
			"-0.001": 13.5240764366,
			"0.0": 12.9472753029,
			"0.001": 14.1005662422,
			"0.002": 15.2762672386,
			"0.003": 18.1773033492,
			"0.004": 23.1859371652,
			"0.005": 12.7715592807,
			"0.006": 4.88359477783,
			"0.007": 3.81491720469,
			"0.008": 3.40566512159,
			"0.009": 3.94837285641,
			"0.01": 3.01492198973,
			"0.011": 3.45048035754,
			"0.012": 2.80474541913,
			"0.013": 0.129211108076,
			"0.014": 0.0,
			"0.015": 0.0,
			"0.016": 0.0,
			"0.017": 0.0,
			"0.018": 0.0,
			"0.019": 0.0,
			"0.02": 0.0,
			"0.021": 0.0,
			"0.022": 0.0,
			"0.023": 0.0,
			"0.024": 0.0,
			"0.025": 0.0
		}
	}
}
