{
	 "smiles": "CC(C)C(NC(=O)C1=CC=C(C)C=C1)C(O)=O", 
	 "Tm": 429.15, 
	 "num_atms": 34, 
	 "gaussian": { 
		 "optdone": 1, 
		 "sigma_profile": "yes", 
		 "theory": "DFT", 
		 "functional": "B3LYP", 
		 "basiset": "6-31G**", 
		 "properties": { 
			 "R2extent": 5510.3893, 
			 "electric_dipole_moment_norm": 2.79971237451, 
			 "electric_quadrupole_moment_norm": 18.332400882, 
			 "total_energy": -786.095079617, 
			 "HOMO_LUMO_gap": 0.20576, 
			 "cosmo_polarized_energy": -16.46, 
			 "cosmo_cavitation_energy": 37.27, 
			 "cosmo_dispersion_energy": -24.97, 
			 "cosmo_repulsion_energy": 1.97, 
			 "cosmo_total_nonelectrostatic_energy": 14.27, 
			 "SMD_solvation_energy": 8.1 
		},
		"coords": [
			{
				"x": -1.8696593093,
				"y": -0.6251079596,
				"z": -3.6918745315,
				"element": "C" 
			},
			{
				"x": -0.5686574452,
				"y": -1.4274990601,
				"z": -3.8234140302,
				"element": "C" 
			},
			{
				"x": 0.3102885912,
				"y": -0.8663368542,
				"z": -4.9517899829,
				"element": "C" 
			},
			{
				"x": 0.1979574588,
				"y": -1.471049433,
				"z": -2.4728920824,
				"element": "C" 
			},
			{
				"x": -0.6121000061,
				"y": -2.1007463361,
				"z": -1.4273209405,
				"element": "N" 
			},
			{
				"x": -0.4926273061,
				"y": -1.8968877268,
				"z": -0.0573946922,
				"element": "C" 
			},
			{
				"x": -0.7022877128,
				"y": -2.8213134598,
				"z": 0.7198927732,
				"element": "O" 
			},
			{
				"x": -0.166992321,
				"y": -0.5226601967,
				"z": 0.4451397617,
				"element": "C" 
			},
			{
				"x": 0.5926306246,
				"y": -0.4231319411,
				"z": 1.6192868744,
				"element": "C" 
			},
			{
				"x": 0.8824490789,
				"y": 0.8206599922,
				"z": 2.1696240575,
				"element": "C" 
			},
			{
				"x": 0.4029115145,
				"y": 2.0020583959,
				"z": 1.5833147721,
				"element": "C" 
			},
			{
				"x": 0.7397054255,
				"y": 3.3503169355,
				"z": 2.1732844979,
				"element": "C" 
			},
			{
				"x": -0.385306683,
				"y": 1.8932916907,
				"z": 0.4307438695,
				"element": "C" 
			},
			{
				"x": -0.6643193962,
				"y": 0.6505428309,
				"z": -0.1372836897,
				"element": "C" 
			},
			{
				"x": 1.5342495422,
				"y": -2.2011845653,
				"z": -2.6303888582,
				"element": "C" 
			},
			{
				"x": 1.3563010841,
				"y": -3.5378380215,
				"z": -2.7780372789,
				"element": "O" 
			},
			{
				"x": 2.6247368127,
				"y": -1.6781761166,
				"z": -2.6384658841,
				"element": "O" 
			},
			{
				"x": -2.4474682788,
				"y": -0.6823283572,
				"z": -4.6198881598,
				"element": "H" 
			},
			{
				"x": -2.4929476574,
				"y": -1.0026107143,
				"z": -2.8774457175,
				"element": "H" 
			},
			{
				"x": -1.6581311947,
				"y": 0.4341657432,
				"z": -3.5014844535,
				"element": "H" 
			},
			{
				"x": -0.8265245306,
				"y": -2.4662623662,
				"z": -4.0737386943,
				"element": "H" 
			},
			{
				"x": 1.2077791175,
				"y": -1.4679407749,
				"z": -5.1223628568,
				"element": "H" 
			},
			{
				"x": -0.2530639495,
				"y": -0.8384804787,
				"z": -5.8895610459,
				"element": "H" 
			},
			{
				"x": 0.6346803938,
				"y": 0.1559497345,
				"z": -4.7261103628,
				"element": "H" 
			},
			{
				"x": 0.4524352947,
				"y": -0.4568834601,
				"z": -2.1636800691,
				"element": "H" 
			},
			{
				"x": -0.8123490269,
				"y": -3.0804366936,
				"z": -1.6057582071,
				"element": "H" 
			},
			{
				"x": 0.9414487125,
				"y": -1.3351974384,
				"z": 2.0921916921,
				"element": "H" 
			},
			{
				"x": 1.4821633734,
				"y": 0.8792651776,
				"z": 3.0745919981,
				"element": "H" 
			},
			{
				"x": 0.01961662,
				"y": 4.1140368639,
				"z": 1.8659661742,
				"element": "H" 
			},
			{
				"x": 0.7540535764,
				"y": 3.3160499959,
				"z": 3.2671217624,
				"element": "H" 
			},
			{
				"x": 1.7323861195,
				"y": 3.6854112191,
				"z": 1.847331808,
				"element": "H" 
			},
			{
				"x": -0.7927687236,
				"y": 2.7924730441,
				"z": -0.0245603722,
				"element": "H" 
			},
			{
				"x": -1.3019567319,
				"y": 0.593026581,
				"z": -1.0135258731,
				"element": "H" 
			},
			{
				"x": 2.2426669327,
				"y": -3.9290762502,
				"z": -2.8553122584,
				"element": "H" 
			}
		],
		 "valence_orbital": [ 
			{
				"type": "occ",
				"energy": -0.29784,
				"method": "rhf"
			},
			{
				"type": "occ",
				"energy": -0.26114,
				"method": "rhf"
			},
			{
				"type": "occ",
				"energy": -0.25493,
				"method": "rhf"
			},
			{
				"type": "occ",
				"energy": -0.247,
				"method": "rhf"
			},
			{
				"type": "occ",
				"energy": -0.23769,
				"method": "rhf"
			},
			{
				"type": "unocc",
				"energy": -0.03193,
				"method": "rhf"
			},
			{
				"type": "unocc",
				"energy": -0.00749,
				"method": "rhf"
			},
			{
				"type": "unocc",
				"energy": -0.00136,
				"method": "rhf"
			},
			{
				"type": "unocc",
				"energy": 0.04837,
				"method": "rhf"
			},
			{
				"type": "unocc",
				"energy": 0.0609,
				"method": "rhf"
			}
		],
		"cosmo_sigma_profile": { 
			"-0.025": 0.0,
			"-0.024": 0.0,
			"-0.023": 0.0,
			"-0.022": 0.0,
			"-0.021": 0.0,
			"-0.02": 0.0,
			"-0.019": 0.185019071974,
			"-0.018": 0.907512967338,
			"-0.017": 1.05089829584,
			"-0.016": 0.887949738059,
			"-0.015": 0.627852261756,
			"-0.014": 0.794508346056,
			"-0.013": 0.365940152017,
			"-0.012": 1.07550817282,
			"-0.011": 1.78571359441,
			"-0.01": 1.19653186204,
			"-0.009": 1.27250265386,
			"-0.008": 1.60327525459,
			"-0.007": 2.42450385401,
			"-0.006": 5.9690451182,
			"-0.005": 14.9284056975,
			"-0.004": 27.8165318596,
			"-0.003": 29.4773661165,
			"-0.002": 31.5731383638,
			"-0.001": 29.8077041106,
			"0.0": 30.0679251384,
			"0.001": 23.2480588494,
			"0.002": 13.4676671149,
			"0.003": 13.3327809892,
			"0.004": 13.2551863083,
			"0.005": 8.92431868259,
			"0.006": 3.51601115439,
			"0.007": 3.81731586049,
			"0.008": 2.98113038198,
			"0.009": 2.87044543066,
			"0.01": 3.11116676592,
			"0.011": 7.12025953597,
			"0.012": 5.33323819092,
			"0.013": 5.55782943094,
			"0.014": 2.31053650339,
			"0.015": 0.0374912325917,
			"0.016": 0.0,
			"0.017": 0.0,
			"0.018": 0.0,
			"0.019": 0.0,
			"0.02": 0.0,
			"0.021": 0.0,
			"0.022": 0.0,
			"0.023": 0.0,
			"0.024": 0.0,
			"0.0": 0.0
		}
	}
}
