{
	 "smiles": "CCOC(=O)C1=C(C)N(OC)C2=C1C1=NON=C1C=C2", 
	 "Tm": 421.15, 
	 "num_atms": 33, 
	 "gaussian": { 
		 "optdone": 1, 
		 "sigma_profile": "yes", 
		 "theory": "DFT", 
		 "functional": "B3LYP", 
		 "basiset": "6-31G**", 
		 "properties": { 
			 "R2extent": 7698.2594, 
			 "electric_dipole_moment_norm": 8.60654634101, 
			 "electric_quadrupole_moment_norm": 30.7341096554, 
			 "total_energy": -968.234841555, 
			 "HOMO_LUMO_gap": 0.15124, 
			 "cosmo_polarized_energy": -19.87, 
			 "cosmo_cavitation_energy": 37.66, 
			 "cosmo_dispersion_energy": -26.57, 
			 "cosmo_repulsion_energy": 2.01, 
			 "cosmo_total_nonelectrostatic_energy": 13.11, 
			 "SMD_solvation_energy": 7.92 
		},
		"coords": [
			{
				"x": 3.4236851487,
				"y": -2.6230406031,
				"z": -2.5942296434,
				"element": "C" 
			},
			{
				"x": 2.0126626411,
				"y": -2.3909626982,
				"z": -3.1012803427,
				"element": "C" 
			},
			{
				"x": 1.3490043201,
				"y": -1.515868168,
				"z": -2.1624534498,
				"element": "O" 
			},
			{
				"x": 0.0593213936,
				"y": -1.2056129388,
				"z": -2.4735126689,
				"element": "C" 
			},
			{
				"x": -0.5010492187,
				"y": -1.6337927568,
				"z": -3.461222512,
				"element": "O" 
			},
			{
				"x": -0.5540529288,
				"y": -0.3123249675,
				"z": -1.4807187012,
				"element": "C" 
			},
			{
				"x": 0.0631797548,
				"y": 0.2451469531,
				"z": -0.3556633415,
				"element": "C" 
			},
			{
				"x": 1.4548320132,
				"y": 0.1616842615,
				"z": 0.1799644675,
				"element": "C" 
			},
			{
				"x": -0.8910160015,
				"y": 0.9982842014,
				"z": 0.2807841917,
				"element": "N" 
			},
			{
				"x": -0.6631636798,
				"y": 1.7600247643,
				"z": 1.4074667558,
				"element": "O" 
			},
			{
				"x": -0.9466583022,
				"y": 1.0085208994,
				"z": 2.6061557513,
				"element": "C" 
			},
			{
				"x": -2.0961509373,
				"y": 0.9820483092,
				"z": -0.3877843266,
				"element": "C" 
			},
			{
				"x": -1.9135635121,
				"y": 0.1504909918,
				"z": -1.5039360596,
				"element": "C" 
			},
			{
				"x": -3.0754958691,
				"y": -0.0080353593,
				"z": -2.3332960427,
				"element": "C" 
			},
			{
				"x": -3.3015336522,
				"y": -0.7016311095,
				"z": -3.4341749804,
				"element": "N" 
			},
			{
				"x": -4.6140767146,
				"y": -0.4451313956,
				"z": -3.7451074451,
				"element": "O" 
			},
			{
				"x": -5.2240412281,
				"y": 0.399623038,
				"z": -2.8607888088,
				"element": "N" 
			},
			{
				"x": -4.2917288389,
				"y": 0.6869843301,
				"z": -1.9726858309,
				"element": "C" 
			},
			{
				"x": -4.3970143821,
				"y": 1.5384745518,
				"z": -0.8251849111,
				"element": "C" 
			},
			{
				"x": -3.2903431797,
				"y": 1.6807531692,
				"z": -0.0379849802,
				"element": "C" 
			},
			{
				"x": 3.958625014,
				"y": -3.2886490888,
				"z": -3.2787868176,
				"element": "H" 
			},
			{
				"x": 3.413808499,
				"y": -3.0871752574,
				"z": -1.6035265423,
				"element": "H" 
			},
			{
				"x": 3.9786649463,
				"y": -1.6822914427,
				"z": -2.5293923801,
				"element": "H" 
			},
			{
				"x": 2.003404596,
				"y": -1.9232907218,
				"z": -4.0908300803,
				"element": "H" 
			},
			{
				"x": 1.4453617395,
				"y": -3.3238636891,
				"z": -3.1775050406,
				"element": "H" 
			},
			{
				"x": 1.6513359682,
				"y": -0.8170541647,
				"z": 0.6311352845,
				"element": "H" 
			},
			{
				"x": 2.1787891397,
				"y": 0.2864761291,
				"z": -0.6261497792,
				"element": "H" 
			},
			{
				"x": 1.6134607514,
				"y": 0.9371317922,
				"z": 0.9320094405,
				"element": "H" 
			},
			{
				"x": -0.7682864573,
				"y": 1.710446147,
				"z": 3.4222759752,
				"element": "H" 
			},
			{
				"x": -1.9880593964,
				"y": 0.6730451926,
				"z": 2.6180713325,
				"element": "H" 
			},
			{
				"x": -0.2752808633,
				"y": 0.1490481256,
				"z": 2.6971651997,
				"element": "H" 
			},
			{
				"x": -5.3285882538,
				"y": 2.0483213486,
				"z": -0.6110658713,
				"element": "H" 
			},
			{
				"x": -3.2945325094,
				"y": 2.3236201564,
				"z": 0.8354521577,
				"element": "H" 
			}
		],
		 "valence_orbital": [ 
			{
				"type": "occ",
				"energy": -0.29356,
				"method": "rhf"
			},
			{
				"type": "occ",
				"energy": -0.28236,
				"method": "rhf"
			},
			{
				"type": "occ",
				"energy": -0.26305,
				"method": "rhf"
			},
			{
				"type": "occ",
				"energy": -0.24788,
				"method": "rhf"
			},
			{
				"type": "occ",
				"energy": -0.21897,
				"method": "rhf"
			},
			{
				"type": "unocc",
				"energy": -0.06773,
				"method": "rhf"
			},
			{
				"type": "unocc",
				"energy": -0.02741,
				"method": "rhf"
			},
			{
				"type": "unocc",
				"energy": 0.0159,
				"method": "rhf"
			},
			{
				"type": "unocc",
				"energy": 0.03116,
				"method": "rhf"
			},
			{
				"type": "unocc",
				"energy": 0.04675,
				"method": "rhf"
			}
		],
		"cosmo_sigma_profile": { 
			"-0.025": 0.0,
			"-0.024": 0.0,
			"-0.023": 0.0,
			"-0.022": 0.0,
			"-0.021": 0.0,
			"-0.02": 0.0,
			"-0.019": 0.0,
			"-0.018": 0.0,
			"-0.017": 0.0,
			"-0.016": 0.0,
			"-0.015": 0.0,
			"-0.014": 0.0,
			"-0.013": 0.0,
			"-0.012": 0.0,
			"-0.011": 0.0,
			"-0.01": 0.0,
			"-0.009": 0.129382898208,
			"-0.008": 3.31394050849,
			"-0.007": 7.13813898514,
			"-0.006": 14.1868970213,
			"-0.005": 22.8823515335,
			"-0.004": 29.8107283055,
			"-0.003": 27.6916077553,
			"-0.002": 28.0437975053,
			"-0.001": 31.7259695345,
			"0.0": 28.8036714125,
			"0.001": 22.6964048447,
			"0.002": 14.3248947665,
			"0.003": 8.73372915906,
			"0.004": 7.18768919223,
			"0.005": 9.32935725675,
			"0.006": 10.2959252984,
			"0.007": 6.57568299687,
			"0.008": 4.60160138201,
			"0.009": 4.00758028309,
			"0.01": 3.56814748873,
			"0.011": 3.1458177839,
			"0.012": 4.31519403327,
			"0.013": 3.13985269049,
			"0.014": 2.00437931534,
			"0.015": 1.33798198699,
			"0.016": 1.34174663108,
			"0.017": 0.20802260783,
			"0.018": 0.0,
			"0.019": 0.0,
			"0.02": 0.0,
			"0.021": 0.0,
			"0.022": 0.0,
			"0.023": 0.0,
			"0.024": 0.0,
			"0.025": 0.0
		}
	}
}
