{
	 "smiles": "ClC1=C(C=O)C(=CC=C1)N1CCOCC1", 
	 "Tm": 348.15, 
	 "num_atms": 27, 
	 "gaussian": { 
		 "optdone": 1, 
		 "sigma_profile": "yes", 
		 "theory": "DFT", 
		 "functional": "B3LYP", 
		 "basiset": "6-31G**", 
		 "properties": { 
			 "R2extent": 4398.4899, 
			 "electric_dipole_moment_norm": 4.83253590882, 
			 "electric_quadrupole_moment_norm": 14.923162124, 
			 "total_energy": -1091.75015039, 
			 "HOMO_LUMO_gap": 0.1509, 
			 "cosmo_polarized_energy": -13.51, 
			 "cosmo_cavitation_energy": 30.59, 
			 "cosmo_dispersion_energy": -22.54, 
			 "cosmo_repulsion_energy": 1.75, 
			 "cosmo_total_nonelectrostatic_energy": 9.79, 
			 "SMD_solvation_energy": 5.15 
		},
		"coords": [
			{
				"x": 3.154398057,
				"y": 3.5507036342,
				"z": 0.8706165863,
				"element": "Cl" 
			},
			{
				"x": 2.1243602716,
				"y": 2.6385151181,
				"z": -0.214694264,
				"element": "C" 
			},
			{
				"x": 1.199307953,
				"y": 1.688810786,
				"z": 0.2654384562,
				"element": "C" 
			},
			{
				"x": 0.8480260797,
				"y": 1.550086362,
				"z": 1.703957984,
				"element": "C" 
			},
			{
				"x": 1.5489865934,
				"y": 1.825862701,
				"z": 2.6581535123,
				"element": "O" 
			},
			{
				"x": 0.4285898747,
				"y": 0.9520537037,
				"z": -0.6859057615,
				"element": "C" 
			},
			{
				"x": 0.5266682197,
				"y": 1.2788152354,
				"z": -2.0499431216,
				"element": "C" 
			},
			{
				"x": 1.4073317436,
				"y": 2.2668214911,
				"z": -2.4755222043,
				"element": "C" 
			},
			{
				"x": 2.229412186,
				"y": 2.9372332179,
				"z": -1.5707446359,
				"element": "C" 
			},
			{
				"x": -0.4247892348,
				"y": -0.0620331555,
				"z": -0.2258102137,
				"element": "N" 
			},
			{
				"x": -1.5873023024,
				"y": -0.480685523,
				"z": -1.0144634203,
				"element": "C" 
			},
			{
				"x": -1.3174357172,
				"y": -1.7561370048,
				"z": -1.8201670132,
				"element": "C" 
			},
			{
				"x": -0.8608600335,
				"y": -2.7972350627,
				"z": -0.9667374369,
				"element": "O" 
			},
			{
				"x": 0.3287618774,
				"y": -2.4191792406,
				"z": -0.2854083611,
				"element": "C" 
			},
			{
				"x": 0.1033196634,
				"y": -1.1759476529,
				"z": 0.5814566659,
				"element": "C" 
			},
			{
				"x": -0.1888608399,
				"y": 1.1836764599,
				"z": 1.8504204344,
				"element": "H" 
			},
			{
				"x": -0.0522344562,
				"y": 0.7321106844,
				"z": -2.7845490741,
				"element": "H" 
			},
			{
				"x": 1.4818816362,
				"y": 2.4959567327,
				"z": -3.5346793195,
				"element": "H" 
			},
			{
				"x": 2.9398501686,
				"y": 3.6843050548,
				"z": -1.9039750837,
				"element": "H" 
			},
			{
				"x": -1.9120100797,
				"y": 0.339987186,
				"z": -1.6583283809,
				"element": "H" 
			},
			{
				"x": -2.4045887721,
				"y": -0.6902000636,
				"z": -0.3107527895,
				"element": "H" 
			},
			{
				"x": -0.5750451638,
				"y": -1.5646105916,
				"z": -2.6125728312,
				"element": "H" 
			},
			{
				"x": -2.2377113883,
				"y": -2.1174054473,
				"z": -2.2895370894,
				"element": "H" 
			},
			{
				"x": 1.1381873938,
				"y": -2.2259345006,
				"z": -1.0092691728,
				"element": "H" 
			},
			{
				"x": 0.6166088,
				"y": -3.2718757301,
				"z": 0.3370928696,
				"element": "H" 
			},
			{
				"x": 1.0409018799,
				"y": -0.8813174183,
				"z": 1.0562633029,
				"element": "H" 
			},
			{
				"x": -0.6185544102,
				"y": -1.413776976,
				"z": 1.3735603622,
				"element": "H" 
			}
		],
		 "valence_orbital": [ 
			{
				"type": "occ",
				"energy": -0.29693,
				"method": "rhf"
			},
			{
				"type": "occ",
				"energy": -0.27232,
				"method": "rhf"
			},
			{
				"type": "occ",
				"energy": -0.25461,
				"method": "rhf"
			},
			{
				"type": "occ",
				"energy": -0.24375,
				"method": "rhf"
			},
			{
				"type": "occ",
				"energy": -0.21221,
				"method": "rhf"
			},
			{
				"type": "unocc",
				"energy": -0.06131,
				"method": "rhf"
			},
			{
				"type": "unocc",
				"energy": -0.01545,
				"method": "rhf"
			},
			{
				"type": "unocc",
				"energy": 0.02445,
				"method": "rhf"
			},
			{
				"type": "unocc",
				"energy": 0.03616,
				"method": "rhf"
			},
			{
				"type": "unocc",
				"energy": 0.07971,
				"method": "rhf"
			}
		],
		"cosmo_sigma_profile": { 
			"-0.025": 0.0,
			"-0.024": 0.0,
			"-0.023": 0.0,
			"-0.022": 0.0,
			"-0.021": 0.0,
			"-0.02": 0.0,
			"-0.019": 0.0,
			"-0.018": 0.0,
			"-0.017": 0.0,
			"-0.016": 0.0,
			"-0.015": 0.0,
			"-0.014": 0.0,
			"-0.013": 0.0,
			"-0.012": 0.0,
			"-0.011": 0.0,
			"-0.01": 0.0,
			"-0.009": 0.0,
			"-0.008": 0.983887720818,
			"-0.007": 7.44669292687,
			"-0.006": 12.2542463285,
			"-0.005": 24.877614416,
			"-0.004": 31.1914272396,
			"-0.003": 23.4763180192,
			"-0.002": 17.3876782034,
			"-0.001": 13.0725183811,
			"0.0": 12.8317517139,
			"0.001": 15.0648578669,
			"0.002": 18.2482157667,
			"0.003": 16.1927783017,
			"0.004": 12.7778132565,
			"0.005": 6.62393569545,
			"0.006": 3.31563322361,
			"0.007": 3.64820080822,
			"0.008": 3.29656395345,
			"0.009": 3.38765521665,
			"0.01": 3.67598926576,
			"0.011": 4.50124802424,
			"0.012": 6.48031411905,
			"0.013": 3.61370219947,
			"0.014": 0.186849098922,
			"0.015": 0.0,
			"0.016": 0.0,
			"0.017": 0.0,
			"0.018": 0.0,
			"0.019": 0.0,
			"0.02": 0.0,
			"0.021": 0.0,
			"0.022": 0.0,
			"0.023": 0.0,
			"0.024": 0.0,
			"0.025": 0.0
		}
	}
}
