{
	 "smiles": "O=CC1=CC=CN1", 
	 "Tm": 317.95, 
	 "num_atms": 12, 
	 "gaussian": { 
		 "optdone": 1, 
		 "sigma_profile": "yes", 
		 "theory": "DFT", 
		 "functional": "B3LYP", 
		 "basiset": "6-31G**", 
		 "properties": { 
			 "R2extent": 787.2568, 
			 "electric_dipole_moment_norm": 4.44421531544, 
			 "electric_quadrupole_moment_norm": 9.75412501509, 
			 "total_energy": -323.49880642, 
			 "HOMO_LUMO_gap": 0.18473, 
			 "cosmo_polarized_energy": -13.02, 
			 "cosmo_cavitation_energy": 16.58, 
			 "cosmo_dispersion_energy": -12.27, 
			 "cosmo_repulsion_energy": 1.04, 
			 "cosmo_total_nonelectrostatic_energy": 5.35, 
			 "SMD_solvation_energy": 4.36 
		},
		"coords": [
			{
				"x": 0.942475586,
				"y": 0.6337016036,
				"z": 2.4524752104,
				"element": "O" 
			},
			{
				"x": -0.0090457436,
				"y": 0.996591993,
				"z": 1.7804218513,
				"element": "C" 
			},
			{
				"x": -0.1911072098,
				"y": 0.7044771879,
				"z": 0.3717022196,
				"element": "C" 
			},
			{
				"x": 0.601897551,
				"y": -0.0089822877,
				"z": -0.5232913556,
				"element": "C" 
			},
			{
				"x": -0.0423425527,
				"y": 0.0112544651,
				"z": -1.7775150795,
				"element": "C" 
			},
			{
				"x": -1.2178640881,
				"y": 0.7361894544,
				"z": -1.6277853397,
				"element": "C" 
			},
			{
				"x": -1.2986320672,
				"y": 1.1488844401,
				"z": -0.3324552697,
				"element": "N" 
			},
			{
				"x": -0.8314278675,
				"y": 1.602149957,
				"z": 2.232946884,
				"element": "H" 
			},
			{
				"x": 1.5390821956,
				"y": -0.4806176705,
				"z": -0.2657149152,
				"element": "H" 
			},
			{
				"x": 0.300474737,
				"y": -0.4466979769,
				"z": -2.6944768245,
				"element": "H" 
			},
			{
				"x": -1.9882040823,
				"y": 0.9812311314,
				"z": -2.3445150354,
				"element": "H" 
			},
			{
				"x": -2.0491064585,
				"y": 1.6959177025,
				"z": 0.0612076542,
				"element": "H" 
			}
		],
		 "valence_orbital": [ 
			{
				"type": "occ",
				"energy": -0.39215,
				"method": "rhf"
			},
			{
				"type": "occ",
				"energy": -0.37029,
				"method": "rhf"
			},
			{
				"type": "occ",
				"energy": -0.26199,
				"method": "rhf"
			},
			{
				"type": "occ",
				"energy": -0.24752,
				"method": "rhf"
			},
			{
				"type": "occ",
				"energy": -0.22922,
				"method": "rhf"
			},
			{
				"type": "unocc",
				"energy": -0.04449,
				"method": "rhf"
			},
			{
				"type": "unocc",
				"energy": 0.04865,
				"method": "rhf"
			},
			{
				"type": "unocc",
				"energy": 0.06385,
				"method": "rhf"
			},
			{
				"type": "unocc",
				"energy": 0.10893,
				"method": "rhf"
			},
			{
				"type": "unocc",
				"energy": 0.11801,
				"method": "rhf"
			}
		],
		"cosmo_sigma_profile": { 
			"-0.025": 0.0,
			"-0.024": 0.0,
			"-0.023": 0.0,
			"-0.022": 0.0,
			"-0.021": 0.0,
			"-0.02": 0.0,
			"-0.019": 0.0,
			"-0.018": 0.0,
			"-0.017": 0.250775065323,
			"-0.016": 1.57660113767,
			"-0.015": 1.55172544836,
			"-0.014": 1.9046241658,
			"-0.013": 1.27065684759,
			"-0.012": 1.6506578484,
			"-0.011": 1.34419186852,
			"-0.01": 0.967171293766,
			"-0.009": 3.15416374628,
			"-0.008": 3.28598257267,
			"-0.007": 4.21318707922,
			"-0.006": 7.43773252434,
			"-0.005": 5.93281836143,
			"-0.004": 7.12667990625,
			"-0.003": 7.60984024921,
			"-0.002": 6.38723219451,
			"-0.001": 7.37419646677,
			"0.0": 5.56654286498,
			"0.001": 6.72428642064,
			"0.002": 7.44626119909,
			"0.003": 7.37537479282,
			"0.004": 9.28468938118,
			"0.005": 7.97136157393,
			"0.006": 5.99722169124,
			"0.007": 1.72753593773,
			"0.008": 1.65702968729,
			"0.009": 2.23489075994,
			"0.01": 1.6984106896,
			"0.011": 2.54296755099,
			"0.012": 4.84504144145,
			"0.013": 3.72219012922,
			"0.014": 1.08936306624,
			"0.015": 0.01363101156,
			"0.016": 0.0,
			"0.017": 0.0,
			"0.018": 0.0,
			"0.019": 0.0,
			"0.02": 0.0,
			"0.021": 0.0,
			"0.022": 0.0,
			"0.023": 0.0,
			"0.024": 0.0,
			"0.025": 0.0
		}
	}
}
