{
	 "smiles": "O=C(C(C1=CC=CC=C1)C1=CC=CC=C1)C1C(=O)C2=C(C=CC=C2)C1=O", 
	 "Tm": 419.15, 
	 "num_atms": 42, 
	 "gaussian": { 
		 "optdone": 1, 
		 "sigma_profile": "yes", 
		 "theory": "DFT", 
		 "functional": "B3LYP", 
		 "basiset": "6-31G**", 
		 "properties": { 
			 "R2extent": 10130.2946, 
			 "electric_dipole_moment_norm": 3.03070128848, 
			 "electric_quadrupole_moment_norm": 25.2678550835, 
			 "total_energy": -1111.75800467, 
			 "HOMO_LUMO_gap": 0.14848, 
			 "cosmo_polarized_energy": -17.5, 
			 "cosmo_cavitation_energy": 47.46, 
			 "cosmo_dispersion_energy": -31.31, 
			 "cosmo_repulsion_energy": 2.36, 
			 "cosmo_total_nonelectrostatic_energy": 18.51, 
			 "SMD_solvation_energy": 9.19 
		},
		"coords": [
			{
				"x": -0.1008536069,
				"y": 1.7555433836,
				"z": -1.4588790707,
				"element": "O" 
			},
			{
				"x": -0.2482155576,
				"y": 0.6657157471,
				"z": -0.9523860393,
				"element": "C" 
			},
			{
				"x": 0.8907315059,
				"y": -0.1807147823,
				"z": -0.3668409875,
				"element": "C" 
			},
			{
				"x": 1.1807695731,
				"y": -1.3717094168,
				"z": -1.2843137007,
				"element": "C" 
			},
			{
				"x": 1.0202026739,
				"y": -1.2968346711,
				"z": -2.6750951995,
				"element": "C" 
			},
			{
				"x": 1.3218673721,
				"y": -2.3951447906,
				"z": -3.484570075,
				"element": "C" 
			},
			{
				"x": 1.788964069,
				"y": -3.5799005306,
				"z": -2.9166763539,
				"element": "C" 
			},
			{
				"x": 1.9485127622,
				"y": -3.6649673172,
				"z": -1.5310793958,
				"element": "C" 
			},
			{
				"x": 1.6427474614,
				"y": -2.5712366069,
				"z": -0.7232442567,
				"element": "C" 
			},
			{
				"x": 2.1184476463,
				"y": 0.6534522305,
				"z": -0.0288999393,
				"element": "C" 
			},
			{
				"x": 2.3738422591,
				"y": 0.9882994712,
				"z": 1.3063565194,
				"element": "C" 
			},
			{
				"x": 3.4833335136,
				"y": 1.7635756363,
				"z": 1.6484271429,
				"element": "C" 
			},
			{
				"x": 4.3507756466,
				"y": 2.2170635276,
				"z": 0.6544794836,
				"element": "C" 
			},
			{
				"x": 4.1008929755,
				"y": 1.891094995,
				"z": -0.6806435005,
				"element": "C" 
			},
			{
				"x": 2.9937169285,
				"y": 1.1146015299,
				"z": -1.0199939159,
				"element": "C" 
			},
			{
				"x": -1.649099864,
				"y": 0.0331927806,
				"z": -0.8221538045,
				"element": "C" 
			},
			{
				"x": -2.6554885271,
				"y": 0.6063793584,
				"z": -1.8335025336,
				"element": "C" 
			},
			{
				"x": -2.6050075296,
				"y": 0.4798589297,
				"z": -3.0388644973,
				"element": "O" 
			},
			{
				"x": -3.7100544968,
				"y": 1.3167635432,
				"z": -1.0590205087,
				"element": "C" 
			},
			{
				"x": -3.478759018,
				"y": 1.1801703337,
				"z": 0.3154061194,
				"element": "C" 
			},
			{
				"x": -4.3411212193,
				"y": 1.7477219557,
				"z": 1.25458443,
				"element": "C" 
			},
			{
				"x": -5.442304501,
				"y": 2.4594598183,
				"z": 0.7794836383,
				"element": "C" 
			},
			{
				"x": -5.6748557646,
				"y": 2.5971722157,
				"z": -0.6008734578,
				"element": "C" 
			},
			{
				"x": -4.8121670517,
				"y": 2.0257269772,
				"z": -1.5363901174,
				"element": "C" 
			},
			{
				"x": -2.2501342671,
				"y": 0.3810706036,
				"z": 0.5574407743,
				"element": "C" 
			},
			{
				"x": -1.7859088083,
				"y": 0.065432104,
				"z": 1.636425898,
				"element": "O" 
			},
			{
				"x": 0.4893226497,
				"y": -0.5857285906,
				"z": 0.5714403481,
				"element": "H" 
			},
			{
				"x": 0.6451597666,
				"y": -0.3854972513,
				"z": -3.1324811369,
				"element": "H" 
			},
			{
				"x": 1.1863752266,
				"y": -2.320924119,
				"z": -4.559679954,
				"element": "H" 
			},
			{
				"x": 2.0231456866,
				"y": -4.4330922015,
				"z": -3.5466866992,
				"element": "H" 
			},
			{
				"x": 2.3078083746,
				"y": -4.58510615,
				"z": -1.0789488386,
				"element": "H" 
			},
			{
				"x": 1.7705557694,
				"y": -2.6415162556,
				"z": 0.353941832,
				"element": "H" 
			},
			{
				"x": 1.6953978357,
				"y": 0.6433405221,
				"z": 2.0830551342,
				"element": "H" 
			},
			{
				"x": 3.6682562058,
				"y": 2.0106557966,
				"z": 2.6901024368,
				"element": "H" 
			},
			{
				"x": 5.2160694614,
				"y": 2.8191364106,
				"z": 0.9169388304,
				"element": "H" 
			},
			{
				"x": 4.7709748502,
				"y": 2.2415897602,
				"z": -1.4606563482,
				"element": "H" 
			},
			{
				"x": 2.8130010073,
				"y": 0.859319994,
				"z": -2.0590950134,
				"element": "H" 
			},
			{
				"x": -1.560071428,
				"y": -1.0535816564,
				"z": -0.9250890661,
				"element": "H" 
			},
			{
				"x": -4.1488400792,
				"y": 1.6328132012,
				"z": 2.3164866614,
				"element": "H" 
			},
			{
				"x": -6.1331441985,
				"y": 2.9160321504,
				"z": 1.4821475973,
				"element": "H" 
			},
			{
				"x": -6.5414876432,
				"y": 3.1578215486,
				"z": -0.9388444999,
				"element": "H" 
			},
			{
				"x": -4.9796576601,
				"y": 2.1231498149,
				"z": -2.6042079359,
				"element": "H" 
			}
		],
		 "valence_orbital": [ 
			{
				"type": "occ",
				"energy": -0.25424,
				"method": "rhf"
			},
			{
				"type": "occ",
				"energy": -0.25302,
				"method": "rhf"
			},
			{
				"type": "occ",
				"energy": -0.24896,
				"method": "rhf"
			},
			{
				"type": "occ",
				"energy": -0.24044,
				"method": "rhf"
			},
			{
				"type": "occ",
				"energy": -0.23426,
				"method": "rhf"
			},
			{
				"type": "unocc",
				"energy": -0.08578,
				"method": "rhf"
			},
			{
				"type": "unocc",
				"energy": -0.0677,
				"method": "rhf"
			},
			{
				"type": "unocc",
				"energy": -0.03037,
				"method": "rhf"
			},
			{
				"type": "unocc",
				"energy": -0.01088,
				"method": "rhf"
			},
			{
				"type": "unocc",
				"energy": -0.00388,
				"method": "rhf"
			}
		],
		"cosmo_sigma_profile": { 
			"-0.025": 0.0,
			"-0.024": 0.0,
			"-0.023": 0.0,
			"-0.022": 0.0,
			"-0.021": 0.0,
			"-0.02": 0.0,
			"-0.019": 0.0,
			"-0.018": 0.0,
			"-0.017": 0.0,
			"-0.016": 0.0,
			"-0.015": 0.0,
			"-0.014": 0.0,
			"-0.013": 0.0,
			"-0.012": 0.0,
			"-0.011": 0.0,
			"-0.01": 0.465383147444,
			"-0.009": 2.72118202646,
			"-0.008": 5.59302452224,
			"-0.007": 11.427720497,
			"-0.006": 23.763324537,
			"-0.005": 30.662084443,
			"-0.004": 32.3604604374,
			"-0.003": 30.2392963659,
			"-0.002": 25.5618806285,
			"-0.001": 27.2292189769,
			"0.0": 28.3814682993,
			"0.001": 29.6916282414,
			"0.002": 22.3290444398,
			"0.003": 17.8165286843,
			"0.004": 20.5925452227,
			"0.005": 20.3765272277,
			"0.006": 12.5204543831,
			"0.007": 6.5992464159,
			"0.008": 5.7396550446,
			"0.009": 7.78539656326,
			"0.01": 11.0952550452,
			"0.011": 7.93943794375,
			"0.012": 0.323557631031,
			"0.013": 0.0,
			"0.014": 0.0,
			"0.015": 0.0,
			"0.016": 0.0,
			"0.017": 0.0,
			"0.018": 0.0,
			"0.019": 0.0,
			"0.02": 0.0,
			"0.021": 0.0,
			"0.022": 0.0,
			"0.023": 0.0,
			"0.024": 0.0,
			"0.025": 0.0
		}
	}
}
