{
	 "smiles": "NC1=C(N)C=C(Br)C(F)=C1", 
	 "Tm": 378.15, 
	 "num_atms": 16, 
	 "gaussian": { 
		 "optdone": 1, 
		 "sigma_profile": "yes", 
		 "theory": "DFT", 
		 "functional": "B3LYP", 
		 "basiset": "6-31G**", 
		 "properties": { 
			 "R2extent": 4182.9286, 
			 "electric_dipole_moment_norm": 4.15930027889, 
			 "electric_quadrupole_moment_norm": 10.9761442884, 
			 "total_energy": -3012.99740405, 
			 "HOMO_LUMO_gap": 0.1933, 
			 "cosmo_polarized_energy": -11.49, 
			 "cosmo_cavitation_energy": 22.66, 
			 "cosmo_dispersion_energy": -17.36, 
			 "cosmo_repulsion_energy": 1.4, 
			 "cosmo_total_nonelectrostatic_energy": 6.69, 
			 "SMD_solvation_energy": 3.23 
		},
		"coords": [
			{
				"x": -0.7104348396,
				"y": -1.1860986649,
				"z": -0.6948707412,
				"element": "N" 
			},
			{
				"x": 0.1941540666,
				"y": -0.1420602051,
				"z": -0.4657569819,
				"element": "C" 
			},
			{
				"x": -0.3232081042,
				"y": 1.1728007836,
				"z": -0.3564708632,
				"element": "C" 
			},
			{
				"x": -1.7105940972,
				"y": 1.3461007262,
				"z": -0.5537354851,
				"element": "N" 
			},
			{
				"x": 0.5470806277,
				"y": 2.2337960238,
				"z": -0.1130552426,
				"element": "C" 
			},
			{
				"x": 1.9198741092,
				"y": 2.0165126238,
				"z": 0.0341676221,
				"element": "C" 
			},
			{
				"x": 3.100590934,
				"y": 3.4720791295,
				"z": 0.3613788742,
				"element": "Br" 
			},
			{
				"x": 2.4129145041,
				"y": 0.7207660727,
				"z": -0.0444647964,
				"element": "C" 
			},
			{
				"x": 3.7290214763,
				"y": 0.4810747017,
				"z": 0.105658902,
				"element": "F" 
			},
			{
				"x": 1.5636491782,
				"y": -0.3530411528,
				"z": -0.2952341718,
				"element": "C" 
			},
			{
				"x": -0.274014972,
				"y": -2.0586671511,
				"z": -0.9633167812,
				"element": "H" 
			},
			{
				"x": -1.4429121783,
				"y": -0.9261000794,
				"z": -1.3480925043,
				"element": "H" 
			},
			{
				"x": -2.2586391722,
				"y": 0.711889605,
				"z": 0.0215973011,
				"element": "H" 
			},
			{
				"x": -2.015377713,
				"y": 2.2989801564,
				"z": -0.394943403,
				"element": "H" 
			},
			{
				"x": 0.1594216759,
				"y": 3.2438836578,
				"z": -0.0279079828,
				"element": "H" 
			},
			{
				"x": 1.9915745045,
				"y": -1.347816227,
				"z": -0.3707537457,
				"element": "H" 
			}
		],
		 "valence_orbital": [ 
			{
				"type": "occ",
				"energy": -0.31707,
				"method": "rhf"
			},
			{
				"type": "occ",
				"energy": -0.28017,
				"method": "rhf"
			},
			{
				"type": "occ",
				"energy": -0.27528,
				"method": "rhf"
			},
			{
				"type": "occ",
				"energy": -0.23276,
				"method": "rhf"
			},
			{
				"type": "occ",
				"energy": -0.19683,
				"method": "rhf"
			},
			{
				"type": "unocc",
				"energy": -0.00353,
				"method": "rhf"
			},
			{
				"type": "unocc",
				"energy": 0.01079,
				"method": "rhf"
			},
			{
				"type": "unocc",
				"energy": 0.01539,
				"method": "rhf"
			},
			{
				"type": "unocc",
				"energy": 0.06621,
				"method": "rhf"
			},
			{
				"type": "unocc",
				"energy": 0.09543,
				"method": "rhf"
			}
		],
		"cosmo_sigma_profile": { 
			"-0.025": 0.0,
			"-0.024": 0.0,
			"-0.023": 0.0,
			"-0.022": 0.0,
			"-0.021": 0.0,
			"-0.02": 0.0,
			"-0.019": 0.0,
			"-0.018": 0.0,
			"-0.017": 0.0,
			"-0.016": 0.0,
			"-0.015": 0.0,
			"-0.014": 0.0,
			"-0.013": 0.643964134702,
			"-0.012": 3.38491213195,
			"-0.011": 4.84261858877,
			"-0.01": 5.96560649144,
			"-0.009": 5.89047136849,
			"-0.008": 6.66354456901,
			"-0.007": 5.83951679487,
			"-0.006": 5.14436979889,
			"-0.005": 4.93500243185,
			"-0.004": 6.70451646417,
			"-0.003": 6.56283208902,
			"-0.002": 6.42581751761,
			"-0.001": 6.387473728,
			"0.0": 7.43439704829,
			"0.001": 11.8856503903,
			"0.002": 14.2965518003,
			"0.003": 19.2354283537,
			"0.004": 28.8500084425,
			"0.005": 18.7012503947,
			"0.006": 4.6786031744,
			"0.007": 1.52541384576,
			"0.008": 1.51480459138,
			"0.009": 0.951175980577,
			"0.01": 0.983178409538,
			"0.011": 0.92409690695,
			"0.012": 1.19287970281,
			"0.013": 1.32465840378,
			"0.014": 0.62457816213,
			"0.015": 0.0,
			"0.016": 0.0,
			"0.017": 0.0,
			"0.018": 0.0,
			"0.019": 0.0,
			"0.02": 0.0,
			"0.021": 0.0,
			"0.022": 0.0,
			"0.023": 0.0,
			"0.024": 0.0,
			"0.025": 0.0
		}
	}
}
