{
	 "smiles": "NNC(=S)NC1=CC=CC(=C1)C(F)(F)F", 
	 "Tm": 394.15, 
	 "num_atms": 23, 
	 "gaussian": { 
		 "optdone": 1, 
		 "sigma_profile": "yes", 
		 "theory": "DFT", 
		 "functional": "B3LYP", 
		 "basiset": "6-31G**", 
		 "properties": { 
			 "R2extent": 5031.4912, 
			 "electric_dipole_moment_norm": 5.11117051956, 
			 "electric_quadrupole_moment_norm": 31.2656298145, 
			 "total_energy": -1171.62593696, 
			 "HOMO_LUMO_gap": 0.18067, 
			 "cosmo_polarized_energy": -18.34, 
			 "cosmo_cavitation_energy": 30.49, 
			 "cosmo_dispersion_energy": -22.48, 
			 "cosmo_repulsion_energy": 1.69, 
			 "cosmo_total_nonelectrostatic_energy": 9.7, 
			 "SMD_solvation_energy": 6.18 
		},
		"coords": [
			{
				"x": -2.145173396,
				"y": -2.9944831569,
				"z": 0.408191986,
				"element": "N" 
			},
			{
				"x": -2.6245266718,
				"y": -2.187655883,
				"z": 1.4459799792,
				"element": "N" 
			},
			{
				"x": -2.002738446,
				"y": -1.0128250504,
				"z": 1.8055644053,
				"element": "C" 
			},
			{
				"x": -2.6667767585,
				"y": -0.1259313427,
				"z": 3.0683054809,
				"element": "S" 
			},
			{
				"x": -0.9059583729,
				"y": -0.7514365658,
				"z": 1.0478897659,
				"element": "N" 
			},
			{
				"x": 0.0278898593,
				"y": 0.300390325,
				"z": 1.0407448384,
				"element": "C" 
			},
			{
				"x": -0.0024843028,
				"y": 1.4108833899,
				"z": 1.8973325959,
				"element": "C" 
			},
			{
				"x": 0.9889573563,
				"y": 2.3871003857,
				"z": 1.7916577168,
				"element": "C" 
			},
			{
				"x": 2.0116380063,
				"y": 2.2880534941,
				"z": 0.8518230499,
				"element": "C" 
			},
			{
				"x": 2.0363855716,
				"y": 1.1804258336,
				"z": -0.0004892443,
				"element": "C" 
			},
			{
				"x": 1.0571937647,
				"y": 0.1961073166,
				"z": 0.0902881063,
				"element": "C" 
			},
			{
				"x": 3.0960655521,
				"y": 1.0803392141,
				"z": -1.0639009711,
				"element": "C" 
			},
			{
				"x": 4.2799242077,
				"y": 1.57496337,
				"z": -0.6403896279,
				"element": "F" 
			},
			{
				"x": 3.3065269473,
				"y": -0.1980184796,
				"z": -1.4544613507,
				"element": "F" 
			},
			{
				"x": 2.757091831,
				"y": 1.7770740748,
				"z": -2.1742464577,
				"element": "F" 
			},
			{
				"x": -2.8417222514,
				"y": -3.0856472604,
				"z": -0.3277317673,
				"element": "H" 
			},
			{
				"x": -1.8968022606,
				"y": -3.917834034,
				"z": 0.7557539333,
				"element": "H" 
			},
			{
				"x": -3.449377321,
				"y": -2.4286220142,
				"z": 1.9810812401,
				"element": "H" 
			},
			{
				"x": -0.7494148084,
				"y": -1.4802925638,
				"z": 0.3535667571,
				"element": "H" 
			},
			{
				"x": -0.7911597588,
				"y": 1.4958551108,
				"z": 2.6317968203,
				"element": "H" 
			},
			{
				"x": 0.9570325949,
				"y": 3.2393763367,
				"z": 2.4636675787,
				"element": "H" 
			},
			{
				"x": 2.7825034012,
				"y": 3.0472865714,
				"z": 0.7823828099,
				"element": "H" 
			},
			{
				"x": 1.0993252557,
				"y": -0.6614090717,
				"z": -0.574407645,
				"element": "H" 
			}
		],
		 "valence_orbital": [ 
			{
				"type": "occ",
				"energy": -0.31459,
				"method": "rhf"
			},
			{
				"type": "occ",
				"energy": -0.26585,
				"method": "rhf"
			},
			{
				"type": "occ",
				"energy": -0.23835,
				"method": "rhf"
			},
			{
				"type": "occ",
				"energy": -0.21726,
				"method": "rhf"
			},
			{
				"type": "occ",
				"energy": -0.21267,
				"method": "rhf"
			},
			{
				"type": "unocc",
				"energy": -0.032,
				"method": "rhf"
			},
			{
				"type": "unocc",
				"energy": -0.02089,
				"method": "rhf"
			},
			{
				"type": "unocc",
				"energy": 0.02284,
				"method": "rhf"
			},
			{
				"type": "unocc",
				"energy": 0.04163,
				"method": "rhf"
			},
			{
				"type": "unocc",
				"energy": 0.0756,
				"method": "rhf"
			}
		],
		"cosmo_sigma_profile": { 
			"-0.025": 0.0,
			"-0.024": 0.0,
			"-0.023": 0.0,
			"-0.022": 0.0,
			"-0.021": 0.0,
			"-0.02": 0.0,
			"-0.019": 0.0,
			"-0.018": 0.0,
			"-0.017": 0.0,
			"-0.016": 0.0,
			"-0.015": 0.153790151486,
			"-0.014": 1.13451092064,
			"-0.013": 4.21304268707,
			"-0.012": 6.22364798782,
			"-0.011": 5.93424649093,
			"-0.01": 5.5770932778,
			"-0.009": 4.59257388128,
			"-0.008": 4.06839178226,
			"-0.007": 4.31282162929,
			"-0.006": 7.48949529895,
			"-0.005": 7.69685281798,
			"-0.004": 9.77073246708,
			"-0.003": 9.30087715167,
			"-0.002": 10.1040232124,
			"-0.001": 10.0933427363,
			"0.0": 13.7353046686,
			"0.001": 21.115389931,
			"0.002": 29.809021977,
			"0.003": 44.1605409708,
			"0.004": 11.9023241743,
			"0.005": 5.06361322668,
			"0.006": 4.24116329796,
			"0.007": 4.71784092843,
			"0.008": 3.92241708126,
			"0.009": 4.2801605284,
			"0.01": 5.34931928972,
			"0.011": 6.28036141532,
			"0.012": 1.07989092949,
			"0.013": 0.0,
			"0.014": 0.0,
			"0.015": 0.0,
			"0.016": 0.0,
			"0.017": 0.0,
			"0.018": 0.0,
			"0.019": 0.0,
			"0.02": 0.0,
			"0.021": 0.0,
			"0.022": 0.0,
			"0.023": 0.0,
			"0.024": 0.0,
			"0.025": 0.0
		}
	}
}
