{
	 "smiles": "ICCI", 
	 "Tm": 354.65, 
	 "num_atms": 8, 
	 "gaussian": { 
		 "optdone": 1, 
		 "sigma_profile": "yes", 
		 "theory": "DFT", 
		 "functional": "B3LYP", 
		 "basiset": "6-31G**", 
		 "properties": { 
			 "R2extent": 503.9137, 
			 "electric_dipole_moment_norm": 2.4050701549, 
			 "electric_quadrupole_moment_norm": 3.26926149153, 
			 "total_energy": -101.403067161, 
			 "HOMO_LUMO_gap": 0.19656, 
			 "cosmo_polarized_energy": -6.64, 
			 "cosmo_cavitation_energy": 17.43, 
			 "cosmo_dispersion_energy": -15.85, 
			 "cosmo_repulsion_energy": 1.32, 
			 "cosmo_total_nonelectrostatic_energy": 2.9, 
			 "SMD_solvation_energy": 1.23 
		},
		"coords": [
			{
				"x": -0.3139303053,
				"y": 1.0460161454,
				"z": -2.5455953028,
				"element": "I" 
			},
			{
				"x": 0.4695893099,
				"y": 0.9625421761,
				"z": -0.5161495539,
				"element": "C" 
			},
			{
				"x": 0.1936907134,
				"y": -0.3357399424,
				"z": 0.2126637159,
				"element": "C" 
			},
			{
				"x": -1.8892655329,
				"y": -0.6365552011,
				"z": 0.7697292573,
				"element": "I" 
			},
			{
				"x": 0.0546203229,
				"y": 1.8290293204,
				"z": -0.0041528231,
				"element": "H" 
			},
			{
				"x": 1.5476545333,
				"y": 1.090336554,
				"z": -0.6352848404,
				"element": "H" 
			},
			{
				"x": 0.4727150191,
				"y": -1.2125440277,
				"z": -0.3691506013,
				"element": "H" 
			},
			{
				"x": 0.7328259395,
				"y": -0.3408850247,
				"z": 1.1624401483,
				"element": "H" 
			}
		],
		 "valence_orbital": [ 
			{
				"type": "occ",
				"energy": -0.34679,
				"method": "rhf"
			},
			{
				"type": "occ",
				"energy": -0.27414,
				"method": "rhf"
			},
			{
				"type": "occ",
				"energy": -0.26932,
				"method": "rhf"
			},
			{
				"type": "occ",
				"energy": -0.26572,
				"method": "rhf"
			},
			{
				"type": "occ",
				"energy": -0.25734,
				"method": "rhf"
			},
			{
				"type": "unocc",
				"energy": -0.06078,
				"method": "rhf"
			},
			{
				"type": "unocc",
				"energy": -0.04094,
				"method": "rhf"
			},
			{
				"type": "unocc",
				"energy": 0.0266,
				"method": "rhf"
			},
			{
				"type": "unocc",
				"energy": 0.03125,
				"method": "rhf"
			},
			{
				"type": "unocc",
				"energy": 0.03352,
				"method": "rhf"
			}
		],
		"cosmo_sigma_profile": { 
			"-0.025": 0.0,
			"-0.024": 0.0,
			"-0.023": 0.0,
			"-0.022": 0.0,
			"-0.021": 0.0,
			"-0.02": 0.0,
			"-0.019": 0.0,
			"-0.018": 0.0,
			"-0.017": 0.0,
			"-0.016": 0.0,
			"-0.015": 0.0,
			"-0.014": 0.0,
			"-0.013": 0.0,
			"-0.012": 0.0,
			"-0.011": 0.0,
			"-0.01": 0.0,
			"-0.009": 0.45317697225,
			"-0.008": 5.97887699248,
			"-0.007": 10.0591384922,
			"-0.006": 10.2979446942,
			"-0.005": 10.7820061806,
			"-0.004": 9.55166102265,
			"-0.003": 6.93405192556,
			"-0.002": 7.21974666643,
			"-0.001": 5.55939680194,
			"0.0": 6.37768216058,
			"0.001": 6.83336767918,
			"0.002": 8.81589394012,
			"0.003": 7.94320724129,
			"0.004": 11.5817696298,
			"0.005": 18.9156535556,
			"0.006": 19.8371342031,
			"0.007": 0.942487993081,
			"0.008": 0.0,
			"0.009": 0.0,
			"0.01": 0.0,
			"0.011": 0.0,
			"0.012": 0.0,
			"0.013": 0.0,
			"0.014": 0.0,
			"0.015": 0.0,
			"0.016": 0.0,
			"0.017": 0.0,
			"0.018": 0.0,
			"0.019": 0.0,
			"0.02": 0.0,
			"0.021": 0.0,
			"0.022": 0.0,
			"0.023": 0.0,
			"0.024": 0.0,
			"0.025": 0.0
		}
	}
}
