{
	 "smiles": "OC(=O)C1=CC(=CC=C1)N1C(=O)CSC1=S", 
	 "Tm": 534.15, 
	 "num_atms": 23, 
	 "gaussian": { 
		 "optdone": 1, 
		 "sigma_profile": "yes", 
		 "theory": "DFT", 
		 "functional": "B3LYP", 
		 "basiset": "6-31G**", 
		 "properties": { 
			 "R2extent": 6478.257, 
			 "electric_dipole_moment_norm": 5.32209389714, 
			 "electric_quadrupole_moment_norm": 16.4783415937, 
			 "total_energy": -1462.09556015, 
			 "HOMO_LUMO_gap": 0.1588, 
			 "cosmo_polarized_energy": -21.86, 
			 "cosmo_cavitation_energy": 31.83, 
			 "cosmo_dispersion_energy": -23.35, 
			 "cosmo_repulsion_energy": 1.74, 
			 "cosmo_total_nonelectrostatic_energy": 10.22, 
			 "SMD_solvation_energy": 6.04 
		},
		"coords": [
			{
				"x": 1.7170098804,
				"y": -0.6221545911,
				"z": 1.3577312476,
				"element": "O" 
			},
			{
				"x": 0.4942173657,
				"y": -1.0643521518,
				"z": 1.7541059792,
				"element": "C" 
			},
			{
				"x": 0.3871798541,
				"y": -1.7699867029,
				"z": 2.72826443,
				"element": "O" 
			},
			{
				"x": -0.6774686648,
				"y": -0.6273653105,
				"z": 0.9243929636,
				"element": "C" 
			},
			{
				"x": -0.5470937067,
				"y": -0.2640574294,
				"z": -0.4208327736,
				"element": "C" 
			},
			{
				"x": -1.6706291947,
				"y": 0.1416781195,
				"z": -1.138589663,
				"element": "C" 
			},
			{
				"x": -2.9256924187,
				"y": 0.1907910764,
				"z": -0.5312005637,
				"element": "C" 
			},
			{
				"x": -3.0569676299,
				"y": -0.2013260838,
				"z": 0.8016776491,
				"element": "C" 
			},
			{
				"x": -1.9425155748,
				"y": -0.6170531258,
				"z": 1.5254012415,
				"element": "C" 
			},
			{
				"x": -1.5155773925,
				"y": 0.549820446,
				"z": -2.5101719489,
				"element": "N" 
			},
			{
				"x": -0.6705977621,
				"y": 1.6354124253,
				"z": -2.8170981988,
				"element": "C" 
			},
			{
				"x": -0.0176902088,
				"y": 2.2417694187,
				"z": -1.9986503333,
				"element": "O" 
			},
			{
				"x": -0.6840847337,
				"y": 1.942014275,
				"z": -4.3062776398,
				"element": "C" 
			},
			{
				"x": -1.7560515859,
				"y": 0.698800145,
				"z": -5.1029915207,
				"element": "S" 
			},
			{
				"x": -2.1454650279,
				"y": -0.0994752025,
				"z": -3.5722431178,
				"element": "C" 
			},
			{
				"x": -3.1095357315,
				"y": -1.4253638444,
				"z": -3.4950286855,
				"element": "S" 
			},
			{
				"x": 1.6240274015,
				"y": 0.0803197186,
				"z": 0.698539927,
				"element": "H" 
			},
			{
				"x": 0.4106885028,
				"y": -0.3173294272,
				"z": -0.9273487562,
				"element": "H" 
			},
			{
				"x": -3.7878778115,
				"y": 0.5203417899,
				"z": -1.0992395537,
				"element": "H" 
			},
			{
				"x": -4.0340650635,
				"y": -0.1778682271,
				"z": 1.2732697395,
				"element": "H" 
			},
			{
				"x": -2.0258709095,
				"y": -0.9311286781,
				"z": 2.5600740736,
				"element": "H" 
			},
			{
				"x": -1.0672079265,
				"y": 2.9544914612,
				"z": -4.4585022223,
				"element": "H" 
			},
			{
				"x": 0.3364683386,
				"y": 1.8956218988,
				"z": -4.6939822738,
				"element": "H" 
			}
		],
		 "valence_orbital": [ 
			{
				"type": "occ",
				"energy": -0.28612,
				"method": "rhf"
			},
			{
				"type": "occ",
				"energy": -0.27755,
				"method": "rhf"
			},
			{
				"type": "occ",
				"energy": -0.27361,
				"method": "rhf"
			},
			{
				"type": "occ",
				"energy": -0.25859,
				"method": "rhf"
			},
			{
				"type": "occ",
				"energy": -0.24118,
				"method": "rhf"
			},
			{
				"type": "unocc",
				"energy": -0.08238,
				"method": "rhf"
			},
			{
				"type": "unocc",
				"energy": -0.06091,
				"method": "rhf"
			},
			{
				"type": "unocc",
				"energy": -0.04455,
				"method": "rhf"
			},
			{
				"type": "unocc",
				"energy": -0.01521,
				"method": "rhf"
			},
			{
				"type": "unocc",
				"energy": -0.00564,
				"method": "rhf"
			}
		],
		"cosmo_sigma_profile": { 
			"-0.025": 0.0,
			"-0.024": 0.0,
			"-0.023": 0.0,
			"-0.022": 0.0,
			"-0.021": 0.0,
			"-0.02": 0.0,
			"-0.019": 0.0150797075523,
			"-0.018": 0.649808883527,
			"-0.017": 1.06150058937,
			"-0.016": 1.27261348351,
			"-0.015": 1.12656483425,
			"-0.014": 0.312166456389,
			"-0.013": 1.45064735883,
			"-0.012": 1.20305068449,
			"-0.011": 1.6403595725,
			"-0.01": 5.93199673304,
			"-0.009": 9.68959831285,
			"-0.008": 9.77286773715,
			"-0.007": 14.8727382208,
			"-0.006": 14.4937226747,
			"-0.005": 10.8628766236,
			"-0.004": 9.85485608831,
			"-0.003": 10.1790008317,
			"-0.002": 11.3127327121,
			"-0.001": 9.73259318711,
			"0.0": 12.5490018184,
			"0.001": 18.9384618902,
			"0.002": 19.8177017986,
			"0.003": 14.5838807675,
			"0.004": 12.5726828038,
			"0.005": 11.4533436837,
			"0.006": 9.77227096309,
			"0.007": 8.52705859471,
			"0.008": 8.19940447383,
			"0.009": 7.41297626819,
			"0.01": 9.59158975514,
			"0.011": 7.13455705417,
			"0.012": 3.95395376057,
			"0.013": 0.836634405136,
			"0.014": 0.0,
			"0.015": 0.0,
			"0.016": 0.0,
			"0.017": 0.0,
			"0.018": 0.0,
			"0.019": 0.0,
			"0.02": 0.0,
			"0.021": 0.0,
			"0.022": 0.0,
			"0.023": 0.0,
			"0.024": 0.0,
			"0.0": 0.0
		}
	}
}
