{
	 "smiles": "OC1=C(OC(F)(F)F)C=C(Br)C=C1", 
	 "Tm": 326.15, 
	 "num_atms": 17, 
	 "gaussian": { 
		 "optdone": 1, 
		 "sigma_profile": "yes", 
		 "theory": "DFT", 
		 "functional": "B3LYP", 
		 "basiset": "6-31G**", 
		 "properties": { 
			 "R2extent": 3974.779, 
			 "electric_dipole_moment_norm": 1.09913708426, 
			 "electric_quadrupole_moment_norm": 3.53398561967, 
			 "total_energy": -3290.52249486, 
			 "HOMO_LUMO_gap": 0.20568, 
			 "cosmo_polarized_energy": -5.71, 
			 "cosmo_cavitation_energy": 25.58, 
			 "cosmo_dispersion_energy": -18.92, 
			 "cosmo_repulsion_energy": 1.45, 
			 "cosmo_total_nonelectrostatic_energy": 8.11, 
			 "SMD_solvation_energy": 5.12 
		},
		"coords": [
			{
				"x": -0.6469949264,
				"y": -2.3069416454,
				"z": -2.0354084367,
				"element": "O" 
			},
			{
				"x": -0.4404337191,
				"y": -1.4164539587,
				"z": -1.0319026112,
				"element": "C" 
			},
			{
				"x": 0.0410657094,
				"y": -0.1213612344,
				"z": -1.2818168064,
				"element": "C" 
			},
			{
				"x": 0.2689260138,
				"y": 0.1163433475,
				"z": -2.6446659207,
				"element": "O" 
			},
			{
				"x": 0.7378898775,
				"y": 1.3126608885,
				"z": -3.0899009053,
				"element": "C" 
			},
			{
				"x": 0.8462954094,
				"y": 1.223865934,
				"z": -4.413693654,
				"element": "F" 
			},
			{
				"x": 1.943571364,
				"y": 1.6096609841,
				"z": -2.575388888,
				"element": "F" 
			},
			{
				"x": -0.0910116767,
				"y": 2.3274240697,
				"z": -2.7901597709,
				"element": "F" 
			},
			{
				"x": 0.2527920216,
				"y": 0.7911976903,
				"z": -0.2548226064,
				"element": "C" 
			},
			{
				"x": -0.0272321742,
				"y": 0.3883637597,
				"z": 1.0518233138,
				"element": "C" 
			},
			{
				"x": 0.2562855882,
				"y": 1.6265431127,
				"z": 2.478279471,
				"element": "Br" 
			},
			{
				"x": -0.5055672965,
				"y": -0.8892102989,
				"z": 1.3305922678,
				"element": "C" 
			},
			{
				"x": -0.7105350467,
				"y": -1.7881673078,
				"z": 0.2848215209,
				"element": "C" 
			},
			{
				"x": -0.4103132597,
				"y": -1.8859765307,
				"z": -2.8747918741,
				"element": "H" 
			},
			{
				"x": 0.6233419872,
				"y": 1.7870347714,
				"z": -0.4518545525,
				"element": "H" 
			},
			{
				"x": -0.7167345074,
				"y": -1.1821056252,
				"z": 2.3520890318,
				"element": "H" 
			},
			{
				"x": -1.0822453643,
				"y": -2.7896779569,
				"z": 0.4724004208,
				"element": "H" 
			}
		],
		 "valence_orbital": [ 
			{
				"type": "occ",
				"energy": -0.36858,
				"method": "rhf"
			},
			{
				"type": "occ",
				"energy": -0.30001,
				"method": "rhf"
			},
			{
				"type": "occ",
				"energy": -0.2923,
				"method": "rhf"
			},
			{
				"type": "occ",
				"energy": -0.26839,
				"method": "rhf"
			},
			{
				"type": "occ",
				"energy": -0.22933,
				"method": "rhf"
			},
			{
				"type": "unocc",
				"energy": -0.02365,
				"method": "rhf"
			},
			{
				"type": "unocc",
				"energy": -0.01074,
				"method": "rhf"
			},
			{
				"type": "unocc",
				"energy": -0.00143,
				"method": "rhf"
			},
			{
				"type": "unocc",
				"energy": 0.06888,
				"method": "rhf"
			},
			{
				"type": "unocc",
				"energy": 0.11078,
				"method": "rhf"
			}
		],
		"cosmo_sigma_profile": { 
			"-0.025": 0.0,
			"-0.024": 0.0,
			"-0.023": 0.0,
			"-0.022": 0.0,
			"-0.021": 0.0,
			"-0.02": 0.0,
			"-0.019": 0.0,
			"-0.018": 0.0,
			"-0.017": 0.0875144614637,
			"-0.016": 0.462720864939,
			"-0.015": 0.895146295586,
			"-0.014": 0.359732558353,
			"-0.013": 0.321329527011,
			"-0.012": 0.377959110787,
			"-0.011": 1.38824905722,
			"-0.01": 1.01502540485,
			"-0.009": 0.884798358869,
			"-0.008": 2.30025075746,
			"-0.007": 5.02656789412,
			"-0.006": 6.67464773554,
			"-0.005": 6.76861285539,
			"-0.004": 7.49157423883,
			"-0.003": 9.5931561071,
			"-0.002": 12.9300559286,
			"-0.001": 18.2162575233,
			"0.0": 21.5297059177,
			"0.001": 37.7272474702,
			"0.002": 35.0675788389,
			"0.003": 13.6790941713,
			"0.004": 12.5927985247,
			"0.005": 6.03264024222,
			"0.006": 1.14530812128,
			"0.007": 1.00993707775,
			"0.008": 1.7214926119,
			"0.009": 1.75727406561,
			"0.01": 1.53216233037,
			"0.011": 0.687402768615,
			"0.012": 0.0,
			"0.013": 0.0,
			"0.014": 0.0,
			"0.015": 0.0,
			"0.016": 0.0,
			"0.017": 0.0,
			"0.018": 0.0,
			"0.019": 0.0,
			"0.02": 0.0,
			"0.021": 0.0,
			"0.022": 0.0,
			"0.023": 0.0,
			"0.024": 0.0,
			"0.025": 0.0
		}
	}
}
