{
	 "smiles": "ClC1=NN2C(=O)NN=C2C=C1", 
	 "Tm": 543.15, 
	 "num_atms": 14, 
	 "gaussian": { 
		 "optdone": 1, 
		 "sigma_profile": "yes", 
		 "theory": "DFT", 
		 "functional": "B3LYP", 
		 "basiset": "6-31G**", 
		 "properties": { 
			 "R2extent": 2505.4407, 
			 "electric_dipole_moment_norm": 4.61808200555, 
			 "electric_quadrupole_moment_norm": 13.6598342794, 
			 "total_energy": -946.707298867, 
			 "HOMO_LUMO_gap": 0.13553, 
			 "cosmo_polarized_energy": -16.12, 
			 "cosmo_cavitation_energy": 21.29, 
			 "cosmo_dispersion_energy": -16.44, 
			 "cosmo_repulsion_energy": 1.32, 
			 "cosmo_total_nonelectrostatic_energy": 6.18, 
			 "SMD_solvation_energy": 2.72 
		},
		"coords": [
			{
				"x": -4.3696311454,
				"y": 0.881563175,
				"z": -0.9747277912,
				"element": "Cl" 
			},
			{
				"x": -2.7926513509,
				"y": 0.3738698812,
				"z": -0.4229704823,
				"element": "C" 
			},
			{
				"x": -1.7855342444,
				"y": 1.0886638438,
				"z": -0.8081098247,
				"element": "N" 
			},
			{
				"x": -0.5908126446,
				"y": 0.6510781186,
				"z": -0.3525101504,
				"element": "N" 
			},
			{
				"x": 0.6552101296,
				"y": 1.2706863225,
				"z": -0.6410944717,
				"element": "C" 
			},
			{
				"x": 0.8892709746,
				"y": 2.2530903755,
				"z": -1.3100236886,
				"element": "O" 
			},
			{
				"x": 1.5035189114,
				"y": 0.4310023561,
				"z": 0.0579633862,
				"element": "N" 
			},
			{
				"x": 0.9096543412,
				"y": -0.6148777528,
				"z": 0.7282642469,
				"element": "N" 
			},
			{
				"x": -0.3624008011,
				"y": -0.4597792029,
				"z": 0.4637503604,
				"element": "C" 
			},
			{
				"x": -1.5041952067,
				"y": -1.2163023189,
				"z": 0.8621294622,
				"element": "C" 
			},
			{
				"x": -2.720606435,
				"y": -0.8005466646,
				"z": 0.4193600486,
				"element": "C" 
			},
			{
				"x": 2.5040236816,
				"y": 0.5460095542,
				"z": 0.0978143095,
				"element": "H" 
			},
			{
				"x": -1.3726583808,
				"y": -2.0860643335,
				"z": 1.495481366,
				"element": "H" 
			},
			{
				"x": -3.6351878294,
				"y": -1.3195933542,
				"z": 0.6767732292,
				"element": "H" 
			}
		],
		 "valence_orbital": [ 
			{
				"type": "occ",
				"energy": -0.33116,
				"method": "rhf"
			},
			{
				"type": "occ",
				"energy": -0.32196,
				"method": "rhf"
			},
			{
				"type": "occ",
				"energy": -0.2989,
				"method": "rhf"
			},
			{
				"type": "occ",
				"energy": -0.2751,
				"method": "rhf"
			},
			{
				"type": "occ",
				"energy": -0.22524,
				"method": "rhf"
			},
			{
				"type": "unocc",
				"energy": -0.08971,
				"method": "rhf"
			},
			{
				"type": "unocc",
				"energy": -0.02308,
				"method": "rhf"
			},
			{
				"type": "unocc",
				"energy": 0.0082,
				"method": "rhf"
			},
			{
				"type": "unocc",
				"energy": 0.0469,
				"method": "rhf"
			},
			{
				"type": "unocc",
				"energy": 0.0777,
				"method": "rhf"
			}
		],
		"cosmo_sigma_profile": { 
			"-0.025": 0.0,
			"-0.024": 0.0,
			"-0.023": 0.0,
			"-0.022": 0.0,
			"-0.021": 0.0,
			"-0.02": 0.0,
			"-0.019": 0.0,
			"-0.018": 0.435529561213,
			"-0.017": 1.46100367081,
			"-0.016": 0.918564117261,
			"-0.015": 1.296526934,
			"-0.014": 0.724225876864,
			"-0.013": 0.684906869398,
			"-0.012": 1.3852804161,
			"-0.011": 0.971389046952,
			"-0.01": 4.32601482689,
			"-0.009": 5.01656530897,
			"-0.008": 4.44291841244,
			"-0.007": 4.63027780277,
			"-0.006": 6.92450882902,
			"-0.005": 8.70801831174,
			"-0.004": 9.67747460351,
			"-0.003": 14.0906321778,
			"-0.002": 14.1368532333,
			"-0.001": 11.8196179214,
			"0.0": 7.99706992859,
			"0.001": 8.56105632355,
			"0.002": 10.3933771661,
			"0.003": 10.6664860244,
			"0.004": 6.47516097679,
			"0.005": 3.67244777042,
			"0.006": 3.53697800614,
			"0.007": 3.76384305076,
			"0.008": 1.77889311817,
			"0.009": 2.63521335427,
			"0.01": 4.07958082644,
			"0.011": 4.30095623013,
			"0.012": 7.50974893781,
			"0.013": 6.76102113326,
			"0.014": 1.09679821277,
			"0.015": 0.0,
			"0.016": 0.0,
			"0.017": 0.0,
			"0.018": 0.0,
			"0.019": 0.0,
			"0.02": 0.0,
			"0.021": 0.0,
			"0.022": 0.0,
			"0.023": 0.0,
			"0.024": 0.0,
			"0.025": 0.0
		}
	}
}
