{
	 "smiles": "COC(=O)C1=CC=C(C=C1)C(O)=O", 
	 "Tm": 495.15, 
	 "num_atms": 21, 
	 "gaussian": { 
		 "optdone": 1, 
		 "sigma_profile": "yes", 
		 "theory": "DFT", 
		 "functional": "B3LYP", 
		 "basiset": "6-31G**", 
		 "properties": { 
			 "R2extent": 3991.9622, 
			 "electric_dipole_moment_norm": 3.66064696604, 
			 "electric_quadrupole_moment_norm": 26.8560440374, 
			 "total_energy": -648.692877177, 
			 "HOMO_LUMO_gap": 0.19415, 
			 "cosmo_polarized_energy": -16.13, 
			 "cosmo_cavitation_energy": 26.42, 
			 "cosmo_dispersion_energy": -19.41, 
			 "cosmo_repulsion_energy": 1.53, 
			 "cosmo_total_nonelectrostatic_energy": 8.53, 
			 "SMD_solvation_energy": 7.37 
		},
		"coords": [
			{
				"x": -1.0753593764,
				"y": -3.0668890452,
				"z": -0.0434781219,
				"element": "C" 
			},
			{
				"x": -1.0502498817,
				"y": -1.6327998088,
				"z": 0.0535969902,
				"element": "O" 
			},
			{
				"x": 0.1249722474,
				"y": -1.1030799439,
				"z": 0.4528751975,
				"element": "C" 
			},
			{
				"x": 1.1049199915,
				"y": -1.7709829313,
				"z": 0.718707386,
				"element": "O" 
			},
			{
				"x": 0.0804627147,
				"y": 0.3881982694,
				"z": 0.5299703512,
				"element": "C" 
			},
			{
				"x": 1.2464860609,
				"y": 1.0523469093,
				"z": 0.9300210975,
				"element": "C" 
			},
			{
				"x": 1.2599118461,
				"y": 2.4400770937,
				"z": 1.0265773892,
				"element": "C" 
			},
			{
				"x": 0.1080556814,
				"y": 3.1813450697,
				"z": 0.7221276643,
				"element": "C" 
			},
			{
				"x": -1.0494549411,
				"y": 2.513721705,
				"z": 0.2992729239,
				"element": "C" 
			},
			{
				"x": -1.0688328628,
				"y": 1.1259852529,
				"z": 0.211491843,
				"element": "C" 
			},
			{
				"x": 0.0586168349,
				"y": 4.6807951656,
				"z": 0.7916036869,
				"element": "C" 
			},
			{
				"x": 0.9835890026,
				"y": 5.2879947125,
				"z": 1.5812216228,
				"element": "O" 
			},
			{
				"x": -0.7512365395,
				"y": 5.3433121892,
				"z": 0.1879913787,
				"element": "O" 
			},
			{
				"x": -0.332770895,
				"y": -3.4149418387,
				"z": -0.7655336592,
				"element": "H" 
			},
			{
				"x": -0.8628071935,
				"y": -3.5203365711,
				"z": 0.92771389,
				"element": "H" 
			},
			{
				"x": -2.0819971903,
				"y": -3.3207018095,
				"z": -0.3744025124,
				"element": "H" 
			},
			{
				"x": 2.1292655375,
				"y": 0.463426725,
				"z": 1.1534762657,
				"element": "H" 
			},
			{
				"x": 2.1866466029,
				"y": 2.9377117114,
				"z": 1.3017770403,
				"element": "H" 
			},
			{
				"x": -1.9226335696,
				"y": 3.1046954268,
				"z": 0.0455473269,
				"element": "H" 
			},
			{
				"x": -1.9664211125,
				"y": 0.6077691197,
				"z": -0.1048596502,
				"element": "H" 
			},
			{
				"x": 1.4511370426,
				"y": 4.6323525983,
				"z": 2.1169018893,
				"element": "H" 
			}
		],
		 "valence_orbital": [ 
			{
				"type": "occ",
				"energy": -0.31396,
				"method": "rhf"
			},
			{
				"type": "occ",
				"energy": -0.28716,
				"method": "rhf"
			},
			{
				"type": "occ",
				"energy": -0.28457,
				"method": "rhf"
			},
			{
				"type": "occ",
				"energy": -0.28039,
				"method": "rhf"
			},
			{
				"type": "occ",
				"energy": -0.27214,
				"method": "rhf"
			},
			{
				"type": "unocc",
				"energy": -0.07799,
				"method": "rhf"
			},
			{
				"type": "unocc",
				"energy": -0.02937,
				"method": "rhf"
			},
			{
				"type": "unocc",
				"energy": 0.00426,
				"method": "rhf"
			},
			{
				"type": "unocc",
				"energy": 0.05559,
				"method": "rhf"
			},
			{
				"type": "unocc",
				"energy": 0.07141,
				"method": "rhf"
			}
		],
		"cosmo_sigma_profile": { 
			"-0.025": 0.0,
			"-0.024": 0.0,
			"-0.023": 0.0,
			"-0.022": 0.0,
			"-0.021": 0.0,
			"-0.02": 0.0,
			"-0.019": 0.463023493556,
			"-0.018": 0.934874304902,
			"-0.017": 1.15005911744,
			"-0.016": 0.889237617008,
			"-0.015": 1.00179377027,
			"-0.014": 0.668354114931,
			"-0.013": 1.34214342921,
			"-0.012": 1.08738920845,
			"-0.011": 1.09650273047,
			"-0.01": 1.54846535253,
			"-0.009": 1.62952253159,
			"-0.008": 2.04372831822,
			"-0.007": 5.80292405175,
			"-0.006": 12.4161322005,
			"-0.005": 13.5783172078,
			"-0.004": 15.9169884718,
			"-0.003": 17.1174964883,
			"-0.002": 13.6312970168,
			"-0.001": 12.9820491151,
			"0.0": 14.5140051651,
			"0.001": 18.4338977377,
			"0.002": 15.3076848999,
			"0.003": 5.29550374747,
			"0.004": 5.85886912315,
			"0.005": 6.13234811255,
			"0.006": 4.33279877403,
			"0.007": 2.96333989649,
			"0.008": 4.91096867278,
			"0.009": 4.99464966266,
			"0.01": 6.89858539794,
			"0.011": 9.59425672644,
			"0.012": 6.24398098832,
			"0.013": 0.750025904783,
			"0.014": 0.0,
			"0.015": 0.0,
			"0.016": 0.0,
			"0.017": 0.0,
			"0.018": 0.0,
			"0.019": 0.0,
			"0.02": 0.0,
			"0.021": 0.0,
			"0.022": 0.0,
			"0.023": 0.0,
			"0.024": 0.0,
			"0.025": 0.0
		}
	}
}
