{
	 "smiles": "CC1=CC2=C(O1)C1=C(CCC2(C)C2=CC=CC=C2)OC2=C1C=C(I)C=C2I", 
	 "Tm": 448.15, 
	 "num_atms": 45, 
	 "gaussian": { 
		 "optdone": 1, 
		 "sigma_profile": "no", 
		 "theory": "DFT", 
		 "functional": "B3LYP", 
		 "basiset": "6-31G**", 
		 "properties": { 
			 "R2extent": 11949.3852, 
			 "electric_dipole_moment_norm": 4.2235943863, 
			 "electric_quadrupole_moment_norm": 9.25107528723, 
			 "total_energy": -1060.51266464, 
			 "HOMO_LUMO_gap": 0.14319, 
			 "cosmo_polarized_energy": -255289.71, 
			 "cosmo_cavitation_energy": 52.97, 
			 "cosmo_dispersion_energy": -39.34, 
			 "cosmo_repulsion_energy": 2.93, 
			 "cosmo_total_nonelectrostatic_energy": 16.57, 
			 "SMD_solvation_energy": 7.08 
		},
		"coords": [
			{
				"x": 2.5966593395,
				"y": 2.0693832652,
				"z": 1.8344411123,
				"element": "C" 
			},
			{
				"x": 1.489390356,
				"y": 1.2091807608,
				"z": 1.3375183878,
				"element": "C" 
			},
			{
				"x": 0.1676560073,
				"y": 1.0975278929,
				"z": 1.6477103713,
				"element": "C" 
			},
			{
				"x": -0.3874195872,
				"y": 0.0607475075,
				"z": 0.8203215087,
				"element": "C" 
			},
			{
				"x": 0.65654655,
				"y": -0.3846425556,
				"z": 0.04406397,
				"element": "C" 
			},
			{
				"x": 1.8030078219,
				"y": 0.3060823101,
				"z": 0.3576557319,
				"element": "O" 
			},
			{
				"x": 0.7622969826,
				"y": -1.3642895601,
				"z": -1.0119599381,
				"element": "C" 
			},
			{
				"x": -0.2618561919,
				"y": -2.1288426129,
				"z": -1.5028899139,
				"element": "C" 
			},
			{
				"x": -1.7023164333,
				"y": -2.2306160629,
				"z": -1.1425626259,
				"element": "C" 
			},
			{
				"x": -2.0297402934,
				"y": -1.8513697075,
				"z": 0.3137293321,
				"element": "C" 
			},
			{
				"x": -1.8496905295,
				"y": -0.3626680935,
				"z": 0.7629324141,
				"element": "C" 
			},
			{
				"x": -2.5716542467,
				"y": 0.5722639923,
				"z": -0.2364389061,
				"element": "C" 
			},
			{
				"x": -2.4636677406,
				"y": -0.2797891532,
				"z": 2.1776488396,
				"element": "C" 
			},
			{
				"x": -1.8122989073,
				"y": -0.9118861006,
				"z": 3.2508625615,
				"element": "C" 
			},
			{
				"x": -2.3583980305,
				"y": -0.909708038,
				"z": 4.5327076705,
				"element": "C" 
			},
			{
				"x": -3.5760432924,
				"y": -0.2699442712,
				"z": 4.7766877208,
				"element": "C" 
			},
			{
				"x": -4.2338481269,
				"y": 0.3635289534,
				"z": 3.7245540855,
				"element": "C" 
			},
			{
				"x": -3.6836274632,
				"y": 0.3568045109,
				"z": 2.4390077581,
				"element": "C" 
			},
			{
				"x": 0.1655269049,
				"y": -2.9471271572,
				"z": -2.5286616118,
				"element": "O" 
			},
			{
				"x": 1.4927861029,
				"y": -2.700797235,
				"z": -2.7000755506,
				"element": "C" 
			},
			{
				"x": 1.9369910864,
				"y": -1.7247917133,
				"z": -1.7877223484,
				"element": "C" 
			},
			{
				"x": 3.2808058981,
				"y": -1.3265098685,
				"z": -1.7974806797,
				"element": "C" 
			},
			{
				"x": 4.1217373761,
				"y": -1.930582166,
				"z": -2.7276857133,
				"element": "C" 
			},
			{
				"x": 6.1678071473,
				"y": -1.3625255813,
				"z": -2.7847848534,
				"element": "I" 
			},
			{
				"x": 3.6767316154,
				"y": -2.90599761,
				"z": -3.6380032784,
				"element": "C" 
			},
			{
				"x": 2.3380755384,
				"y": -3.3002817965,
				"z": -3.6259620488,
				"element": "C" 
			},
			{
				"x": 1.6199409783,
				"y": -4.7568480965,
				"z": -4.9689923194,
				"element": "I" 
			},
			{
				"x": 3.0267342273,
				"y": 2.6762811871,
				"z": 1.0290389366,
				"element": "H" 
			},
			{
				"x": 2.2230324545,
				"y": 2.7435512901,
				"z": 2.6084014826,
				"element": "H" 
			},
			{
				"x": 3.4089709714,
				"y": 1.4712085567,
				"z": 2.2638085814,
				"element": "H" 
			},
			{
				"x": -0.3607324889,
				"y": 1.6727345015,
				"z": 2.3940706693,
				"element": "H" 
			},
			{
				"x": -2.3055346247,
				"y": -1.6358598879,
				"z": -1.8424336552,
				"element": "H" 
			},
			{
				"x": -2.0114071517,
				"y": -3.2705060199,
				"z": -1.3028337659,
				"element": "H" 
			},
			{
				"x": -1.4503565371,
				"y": -2.4934456456,
				"z": 0.9849936018,
				"element": "H" 
			},
			{
				"x": -3.0821413945,
				"y": -2.1044870957,
				"z": 0.480538707,
				"element": "H" 
			},
			{
				"x": -3.6081948343,
				"y": 0.2598562845,
				"z": -0.4070874444,
				"element": "H" 
			},
			{
				"x": -2.5756952712,
				"y": 1.6044132578,
				"z": 0.1247638117,
				"element": "H" 
			},
			{
				"x": -2.055347419,
				"y": 0.5676394762,
				"z": -1.1992006063,
				"element": "H" 
			},
			{
				"x": -0.8569802918,
				"y": -1.4000281148,
				"z": 3.0806737469,
				"element": "H" 
			},
			{
				"x": -1.8303217907,
				"y": -1.4052673687,
				"z": 5.3426959636,
				"element": "H" 
			},
			{
				"x": -4.0031639349,
				"y": -0.2641628505,
				"z": 5.7753244967,
				"element": "H" 
			},
			{
				"x": -5.180150807,
				"y": 0.8685485466,
				"z": 3.8978541921,
				"element": "H" 
			},
			{
				"x": -4.2214115069,
				"y": 0.8586937015,
				"z": 1.6426068628,
				"element": "H" 
			},
			{
				"x": 3.6395076338,
				"y": -0.5773807598,
				"z": -1.1051773468,
				"element": "H" 
			},
			{
				"x": 4.3651939036,
				"y": -3.3502908726,
				"z": -4.3451599103,
				"element": "H" 
			}
		],
		 "valence_orbital": [ 
			{
				"type": "occ",
				"energy": -0.25239,
				"method": "rhf"
			},
			{
				"type": "occ",
				"energy": -0.24493,
				"method": "rhf"
			},
			{
				"type": "occ",
				"energy": -0.24336,
				"method": "rhf"
			},
			{
				"type": "occ",
				"energy": -0.23224,
				"method": "rhf"
			},
			{
				"type": "occ",
				"energy": -0.19569,
				"method": "rhf"
			},
			{
				"type": "unocc",
				"energy": -0.0525,
				"method": "rhf"
			},
			{
				"type": "unocc",
				"energy": -0.03977,
				"method": "rhf"
			},
			{
				"type": "unocc",
				"energy": -0.02474,
				"method": "rhf"
			},
			{
				"type": "unocc",
				"energy": -0.01129,
				"method": "rhf"
			},
			{
				"type": "unocc",
				"energy": -0.00835,
				"method": "rhf"
			}
		],
		"cosmo_sigma_profile": { 
			"0.0": 0.0,
			"0.0": 0.0,
			"0.0": 0.0,
			"0.0": 0.0,
			"0.0": 0.0,
			"0.0": 0.0,
			"0.0": 0.0,
			"0.0": 0.0,
			"0.0": 0.0,
			"0.0": 0.0,
			"0.0": 0.0,
			"0.0": 0.0,
			"0.0": 0.0,
			"0.0": 0.0,
			"0.0": 0.0,
			"0.0": 0.0,
			"0.0": 0.0,
			"0.0": 0.0,
			"0.0": 0.0,
			"0.0": 0.0,
			"0.0": 0.0,
			"0.0": 0.0,
			"0.0": 0.0,
			"0.0": 0.0,
			"0.0": 0.0,
			"0.0": 0.0,
			"0.0": 0.0,
			"0.0": 0.0,
			"0.0": 0.0,
			"0.0": 0.0,
			"0.0": 0.0,
			"0.0": 0.0,
			"0.0": 0.0,
			"0.0": 0.0,
			"0.0": 0.0,
			"0.0": 0.0,
			"0.0": 0.0,
			"0.0": 0.0,
			"0.0": 0.0,
			"0.0": 0.0,
			"0.0": 0.0,
			"0.0": 0.0,
			"0.0": 0.0,
			"0.0": 0.0,
			"0.0": 0.0,
			"0.0": 0.0,
			"0.0": 0.0,
			"0.0": 0.0,
			"0.0": 0.0,
			"0.0": 0.0,
			"0.0": 0.0
		}
	}
}
