{
	 "smiles": "O(P(OC1=CC=CC=C1)OC1=CC=CC=C1)C1=CC=CC=C1", 
	 "Tm": 297.15, 
	 "num_atms": 37, 
	 "gaussian": { 
		 "optdone": 1, 
		 "sigma_profile": "yes", 
		 "theory": "DFT", 
		 "functional": "B3LYP", 
		 "basiset": "6-31G**", 
		 "properties": { 
			 "R2extent": 8438.4913, 
			 "electric_dipole_moment_norm": 1.0109939713, 
			 "electric_quadrupole_moment_norm": 12.8964690168, 
			 "total_energy": -1262.01256639, 
			 "HOMO_LUMO_gap": 0.21773, 
			 "cosmo_polarized_energy": -9.04, 
			 "cosmo_cavitation_energy": 43.85, 
			 "cosmo_dispersion_energy": -30.51, 
			 "cosmo_repulsion_energy": 2.47, 
			 "cosmo_total_nonelectrostatic_energy": 15.81, 
			 "SMD_solvation_energy": 8.19 
		},
		"coords": [
			{
				"x": 1.5935158166,
				"y": 0.0756687407,
				"z": -0.6759578528,
				"element": "O" 
			},
			{
				"x": 0.883472539,
				"y": 1.4597288733,
				"z": -0.1443884457,
				"element": "P" 
			},
			{
				"x": -0.1745848771,
				"y": 1.7056388229,
				"z": -1.4130815888,
				"element": "O" 
			},
			{
				"x": -0.7548127061,
				"y": 2.9528713326,
				"z": -1.6061518268,
				"element": "C" 
			},
			{
				"x": -1.5321721269,
				"y": 3.5550467074,
				"z": -0.6137670298,
				"element": "C" 
			},
			{
				"x": -2.1216738745,
				"y": 4.7950982112,
				"z": -0.8701832787,
				"element": "C" 
			},
			{
				"x": -1.9469417636,
				"y": 5.4218590395,
				"z": -2.1046383262,
				"element": "C" 
			},
			{
				"x": -1.175033028,
				"y": 4.8025675546,
				"z": -3.0915176609,
				"element": "C" 
			},
			{
				"x": -0.5728313873,
				"y": 3.5693401862,
				"z": -2.8458921178,
				"element": "C" 
			},
			{
				"x": -0.2773934893,
				"y": 0.88233791,
				"z": 0.925777425,
				"element": "O" 
			},
			{
				"x": 0.0677924757,
				"y": 0.6816559234,
				"z": 2.2593002501,
				"element": "C" 
			},
			{
				"x": 0.0352399431,
				"y": -0.6201237696,
				"z": 2.7621857513,
				"element": "C" 
			},
			{
				"x": 0.3215336174,
				"y": -0.8389955039,
				"z": 4.1100062514,
				"element": "C" 
			},
			{
				"x": 0.6468567949,
				"y": 0.2309972811,
				"z": 4.9470946536,
				"element": "C" 
			},
			{
				"x": 0.6791530493,
				"y": 1.527988493,
				"z": 4.4313366784,
				"element": "C" 
			},
			{
				"x": 0.3862074026,
				"y": 1.7613977884,
				"z": 3.0866037269,
				"element": "C" 
			},
			{
				"x": 1.0675827498,
				"y": -1.1800991176,
				"z": -0.965576272,
				"element": "C" 
			},
			{
				"x": 1.9901621741,
				"y": -2.228998488,
				"z": -0.963722201,
				"element": "C" 
			},
			{
				"x": 1.563327651,
				"y": -3.5215356227,
				"z": -1.2635428231,
				"element": "C" 
			},
			{
				"x": 0.220905254,
				"y": -3.7697374608,
				"z": -1.5592294279,
				"element": "C" 
			},
			{
				"x": -0.6895203774,
				"y": -2.7120440262,
				"z": -1.5565339875,
				"element": "C" 
			},
			{
				"x": -0.2778762519,
				"y": -1.4095368171,
				"z": -1.2640421628,
				"element": "C" 
			},
			{
				"x": -1.6879475882,
				"y": 3.044216184,
				"z": 0.3300684991,
				"element": "H" 
			},
			{
				"x": -2.7268074667,
				"y": 5.2660844565,
				"z": -0.1008113126,
				"element": "H" 
			},
			{
				"x": -2.4116197604,
				"y": 6.3836614325,
				"z": -2.2991596037,
				"element": "H" 
			},
			{
				"x": -1.0362813187,
				"y": 5.2826292404,
				"z": -4.0559187077,
				"element": "H" 
			},
			{
				"x": 0.0332155156,
				"y": 3.0731033225,
				"z": -3.5966312871,
				"element": "H" 
			},
			{
				"x": -0.216781998,
				"y": -1.4368142782,
				"z": 2.0941968363,
				"element": "H" 
			},
			{
				"x": 0.2928022252,
				"y": -1.8504496858,
				"z": 4.5048595602,
				"element": "H" 
			},
			{
				"x": 0.8713059892,
				"y": 0.0554138417,
				"z": 5.9948069197,
				"element": "H" 
			},
			{
				"x": 0.9276775954,
				"y": 2.3655080041,
				"z": 5.0767569076,
				"element": "H" 
			},
			{
				"x": 0.3948592086,
				"y": 2.7674842588,
				"z": 2.6796691667,
				"element": "H" 
			},
			{
				"x": 3.0272273991,
				"y": -2.0136576899,
				"z": -0.7289144795,
				"element": "H" 
			},
			{
				"x": 2.2831179497,
				"y": -4.3350454841,
				"z": -1.2640461232,
				"element": "H" 
			},
			{
				"x": -0.1113721736,
				"y": -4.7769235876,
				"z": -1.7916526356,
				"element": "H" 
			},
			{
				"x": -1.7349777425,
				"y": -2.8939847833,
				"z": -1.7889434919,
				"element": "H" 
			},
			{
				"x": -0.9833274199,
				"y": -0.5894512901,
				"z": -1.2737599831,
				"element": "H" 
			}
		],
		 "valence_orbital": [ 
			{
				"type": "occ",
				"energy": -0.25486,
				"method": "rhf"
			},
			{
				"type": "occ",
				"energy": -0.25022,
				"method": "rhf"
			},
			{
				"type": "occ",
				"energy": -0.24249,
				"method": "rhf"
			},
			{
				"type": "occ",
				"energy": -0.23614,
				"method": "rhf"
			},
			{
				"type": "occ",
				"energy": -0.22853,
				"method": "rhf"
			},
			{
				"type": "unocc",
				"energy": -0.0108,
				"method": "rhf"
			},
			{
				"type": "unocc",
				"energy": -0.00985,
				"method": "rhf"
			},
			{
				"type": "unocc",
				"energy": -0.0019,
				"method": "rhf"
			},
			{
				"type": "unocc",
				"energy": -0.00106,
				"method": "rhf"
			},
			{
				"type": "unocc",
				"energy": -0.00028,
				"method": "rhf"
			}
		],
		"cosmo_sigma_profile": { 
			"-0.025": 0.0,
			"-0.024": 0.0,
			"-0.023": 0.0,
			"-0.022": 0.0,
			"-0.021": 0.0,
			"-0.02": 0.0,
			"-0.019": 0.0,
			"-0.018": 0.0,
			"-0.017": 0.0,
			"-0.016": 0.0,
			"-0.015": 0.0,
			"-0.014": 0.0,
			"-0.013": 0.0,
			"-0.012": 0.0,
			"-0.011": 0.0,
			"-0.01": 0.0,
			"-0.009": 0.0,
			"-0.008": 0.0,
			"-0.007": 1.4703831601,
			"-0.006": 20.4820719017,
			"-0.005": 30.1131691644,
			"-0.004": 32.8741861137,
			"-0.003": 27.736019308,
			"-0.002": 22.8635461366,
			"-0.001": 25.9435981549,
			"0.0": 21.9018085966,
			"0.001": 26.0893684065,
			"0.002": 28.9819474245,
			"0.003": 36.0553871703,
			"0.004": 35.0817191918,
			"0.005": 31.5837947591,
			"0.006": 7.44026959657,
			"0.007": 2.74641809042,
			"0.008": 1.52600306503,
			"0.009": 0.255606812768,
			"0.01": 0.0,
			"0.011": 0.0,
			"0.012": 0.0,
			"0.013": 0.0,
			"0.014": 0.0,
			"0.015": 0.0,
			"0.016": 0.0,
			"0.017": 0.0,
			"0.018": 0.0,
			"0.019": 0.0,
			"0.02": 0.0,
			"0.021": 0.0,
			"0.022": 0.0,
			"0.023": 0.0,
			"0.024": 0.0,
			"0.025": 0.0
		}
	}
}
