{
	 "smiles": "ClCCOCCOCCCl", 
	 "Tm": 241.35, 
	 "num_atms": 22, 
	 "gaussian": { 
		 "optdone": 1, 
		 "sigma_profile": "yes", 
		 "theory": "DFT", 
		 "functional": "B3LYP", 
		 "basiset": "6-31G**", 
		 "properties": { 
			 "R2extent": 3654.8943, 
			 "electric_dipole_moment_norm": 3.01337474769, 
			 "electric_quadrupole_moment_norm": 10.0741569563, 
			 "total_energy": -1306.68062167, 
			 "HOMO_LUMO_gap": 0.27893, 
			 "cosmo_polarized_energy": -9.27, 
			 "cosmo_cavitation_energy": 28.45, 
			 "cosmo_dispersion_energy": -20.59, 
			 "cosmo_repulsion_energy": 1.76, 
			 "cosmo_total_nonelectrostatic_energy": 9.62, 
			 "SMD_solvation_energy": 4.25 
		},
		"coords": [
			{
				"x": 0.1481005195,
				"y": -3.5878273093,
				"z": 1.2679308345,
				"element": "Cl" 
			},
			{
				"x": 0.2904281269,
				"y": -2.7600783518,
				"z": -0.3378883438,
				"element": "C" 
			},
			{
				"x": 0.4686651082,
				"y": -1.2607142351,
				"z": -0.1459857009,
				"element": "C" 
			},
			{
				"x": 0.5524020636,
				"y": -0.7120723551,
				"z": -1.4534346254,
				"element": "O" 
			},
			{
				"x": 0.949337601,
				"y": 0.647311771,
				"z": -1.517890676,
				"element": "C" 
			},
			{
				"x": -0.165599248,
				"y": 1.6408523383,
				"z": -1.2218071647,
				"element": "C" 
			},
			{
				"x": -0.4203866277,
				"y": 1.6488059271,
				"z": 0.181783251,
				"element": "O" 
			},
			{
				"x": -1.2302294492,
				"y": 2.698082248,
				"z": 0.6684968587,
				"element": "C" 
			},
			{
				"x": -2.7173050963,
				"y": 2.3718164177,
				"z": 0.7385686584,
				"element": "C" 
			},
			{
				"x": -3.5532412615,
				"y": 2.3988776934,
				"z": -0.8772489769,
				"element": "Cl" 
			},
			{
				"x": -0.6203093366,
				"y": -2.9780487151,
				"z": -0.8965737194,
				"element": "H" 
			},
			{
				"x": 1.14562073,
				"y": -3.1963422012,
				"z": -0.8547261712,
				"element": "H" 
			},
			{
				"x": 1.3884709393,
				"y": -1.0588111574,
				"z": 0.4234963067,
				"element": "H" 
			},
			{
				"x": -0.3715767939,
				"y": -0.8403351505,
				"z": 0.4176251384,
				"element": "H" 
			},
			{
				"x": 1.2860971819,
				"y": 0.8096638036,
				"z": -2.547945958,
				"element": "H" 
			},
			{
				"x": 1.7975956995,
				"y": 0.8405144897,
				"z": -0.8428056201,
				"element": "H" 
			},
			{
				"x": 0.1546177155,
				"y": 2.6436257505,
				"z": -1.5501787587,
				"element": "H" 
			},
			{
				"x": -1.0624114695,
				"y": 1.3672066809,
				"z": -1.7901912281,
				"element": "H" 
			},
			{
				"x": -1.0697316512,
				"y": 3.6252179099,
				"z": 0.0993170551,
				"element": "H" 
			},
			{
				"x": -0.9053195411,
				"y": 2.8790111403,
				"z": 1.7022266229,
				"element": "H" 
			},
			{
				"x": -3.235602695,
				"y": 3.1063183237,
				"z": 1.3585963979,
				"element": "H" 
			},
			{
				"x": -2.8699225153,
				"y": 1.3733249815,
				"z": 1.1503358197,
				"element": "H" 
			}
		],
		 "valence_orbital": [ 
			{
				"type": "occ",
				"energy": -0.30166,
				"method": "rhf"
			},
			{
				"type": "occ",
				"energy": -0.2951,
				"method": "rhf"
			},
			{
				"type": "occ",
				"energy": -0.29308,
				"method": "rhf"
			},
			{
				"type": "occ",
				"energy": -0.2665,
				"method": "rhf"
			},
			{
				"type": "occ",
				"energy": -0.25987,
				"method": "rhf"
			},
			{
				"type": "unocc",
				"energy": 0.01906,
				"method": "rhf"
			},
			{
				"type": "unocc",
				"energy": 0.02727,
				"method": "rhf"
			},
			{
				"type": "unocc",
				"energy": 0.08131,
				"method": "rhf"
			},
			{
				"type": "unocc",
				"energy": 0.09351,
				"method": "rhf"
			},
			{
				"type": "unocc",
				"energy": 0.10762,
				"method": "rhf"
			}
		],
		"cosmo_sigma_profile": { 
			"-0.025": 0.0,
			"-0.024": 0.0,
			"-0.023": 0.0,
			"-0.022": 0.0,
			"-0.021": 0.0,
			"-0.02": 0.0,
			"-0.019": 0.0,
			"-0.018": 0.0,
			"-0.017": 0.0,
			"-0.016": 0.0,
			"-0.015": 0.0,
			"-0.014": 0.0,
			"-0.013": 0.0,
			"-0.012": 0.0,
			"-0.011": 0.0,
			"-0.01": 0.0,
			"-0.009": 0.0,
			"-0.008": 0.752809320096,
			"-0.007": 9.23437765389,
			"-0.006": 12.8054689368,
			"-0.005": 22.0861682551,
			"-0.004": 25.3377936612,
			"-0.003": 18.9753050381,
			"-0.002": 14.3155658519,
			"-0.001": 10.6086346299,
			"0.0": 11.5954930001,
			"0.001": 12.144017801,
			"0.002": 12.6880191846,
			"0.003": 13.410745091,
			"0.004": 11.9543040193,
			"0.005": 14.7320532631,
			"0.006": 18.2665059073,
			"0.007": 10.0541531377,
			"0.008": 1.99994897324,
			"0.009": 1.07351626941,
			"0.01": 2.17384476879,
			"0.011": 1.69638220793,
			"0.012": 0.848583627312,
			"0.013": 0.0127735312232,
			"0.014": 0.0,
			"0.015": 0.0,
			"0.016": 0.0,
			"0.017": 0.0,
			"0.018": 0.0,
			"0.019": 0.0,
			"0.02": 0.0,
			"0.021": 0.0,
			"0.022": 0.0,
			"0.023": 0.0,
			"0.024": 0.0,
			"0.025": 0.0
		}
	}
}
