{
	 "smiles": "CC(=O)C1=CC=C(S1)[N+]([O-])=O", 
	 "Tm": 379.15, 
	 "num_atms": 16, 
	 "gaussian": { 
		 "optdone": 1, 
		 "sigma_profile": "yes", 
		 "theory": "DFT", 
		 "functional": "B3LYP", 
		 "basiset": "6-31G**", 
		 "properties": { 
			 "R2extent": 2846.1174, 
			 "electric_dipole_moment_norm": 2.38853697062, 
			 "electric_quadrupole_moment_norm": 23.6428404725, 
			 "total_energy": -910.139887362, 
			 "HOMO_LUMO_gap": 0.15742, 
			 "cosmo_polarized_energy": -10.74, 
			 "cosmo_cavitation_energy": 23.36, 
			 "cosmo_dispersion_energy": -17.42, 
			 "cosmo_repulsion_energy": 1.35, 
			 "cosmo_total_nonelectrostatic_energy": 7.29, 
			 "SMD_solvation_energy": 7.07 
		},
		"coords": [
			{
				"x": -2.3001875012,
				"y": 1.5031869986,
				"z": 1.3600172877,
				"element": "C" 
			},
			{
				"x": -1.2068840206,
				"y": 1.2665267072,
				"z": 0.3385609314,
				"element": "C" 
			},
			{
				"x": -0.892647397,
				"y": 2.1074037159,
				"z": -0.4875989242,
				"element": "O" 
			},
			{
				"x": -0.4926305762,
				"y": -0.0415896528,
				"z": 0.3472732745,
				"element": "C" 
			},
			{
				"x": 0.5213200758,
				"y": -0.3854544171,
				"z": -0.5271877736,
				"element": "C" 
			},
			{
				"x": 1.0306027538,
				"y": -1.6844804328,
				"z": -0.3061794624,
				"element": "C" 
			},
			{
				"x": 0.3840231541,
				"y": -2.2986177053,
				"z": 0.7399624129,
				"element": "C" 
			},
			{
				"x": -0.8445312883,
				"y": -1.3266468033,
				"z": 1.4739196456,
				"element": "S" 
			},
			{
				"x": 0.6440385479,
				"y": -3.6232426345,
				"z": 1.240441459,
				"element": "N" 
			},
			{
				"x": 1.5282576203,
				"y": -4.2721838408,
				"z": 0.6826950812,
				"element": "O" 
			},
			{
				"x": -0.0411303992,
				"y": -4.0068073987,
				"z": 2.1923618441,
				"element": "O" 
			},
			{
				"x": -3.0987195016,
				"y": 0.7598061556,
				"z": 1.2548792334,
				"element": "H" 
			},
			{
				"x": -2.7130192531,
				"y": 2.501473264,
				"z": 1.2135781105,
				"element": "H" 
			},
			{
				"x": -1.9059275891,
				"y": 1.4179714014,
				"z": 2.3791410391,
				"element": "H" 
			},
			{
				"x": 0.8650476896,
				"y": 0.2987086665,
				"z": -1.2929939952,
				"element": "H" 
			},
			{
				"x": 1.8228876847,
				"y": -2.1634540239,
				"z": -0.8661701639,
				"element": "H" 
			}
		],
		 "valence_orbital": [ 
			{
				"type": "occ",
				"energy": -0.32189,
				"method": "rhf"
			},
			{
				"type": "occ",
				"energy": -0.30557,
				"method": "rhf"
			},
			{
				"type": "occ",
				"energy": -0.29438,
				"method": "rhf"
			},
			{
				"type": "occ",
				"energy": -0.27906,
				"method": "rhf"
			},
			{
				"type": "occ",
				"energy": -0.27553,
				"method": "rhf"
			},
			{
				"type": "unocc",
				"energy": -0.11811,
				"method": "rhf"
			},
			{
				"type": "unocc",
				"energy": -0.05747,
				"method": "rhf"
			},
			{
				"type": "unocc",
				"energy": -0.00563,
				"method": "rhf"
			},
			{
				"type": "unocc",
				"energy": 0.01352,
				"method": "rhf"
			},
			{
				"type": "unocc",
				"energy": 0.05373,
				"method": "rhf"
			}
		],
		"cosmo_sigma_profile": { 
			"-0.025": 0.0,
			"-0.024": 0.0,
			"-0.023": 0.0,
			"-0.022": 0.0,
			"-0.021": 0.0,
			"-0.02": 0.0,
			"-0.019": 0.0,
			"-0.018": 0.0,
			"-0.017": 0.0,
			"-0.016": 0.0,
			"-0.015": 0.0,
			"-0.014": 0.0,
			"-0.013": 0.0,
			"-0.012": 0.0,
			"-0.011": 0.0,
			"-0.01": 0.602965692175,
			"-0.009": 1.93307914348,
			"-0.008": 4.92452000083,
			"-0.007": 10.4232766955,
			"-0.006": 11.4227704301,
			"-0.005": 11.9590606731,
			"-0.004": 11.0090722737,
			"-0.003": 15.097003853,
			"-0.002": 19.0464883911,
			"-0.001": 17.9291906559,
			"0.0": 16.3775517263,
			"0.001": 9.49917530856,
			"0.002": 4.90861829025,
			"0.003": 4.02400316019,
			"0.004": 4.19899551837,
			"0.005": 5.83576840666,
			"0.006": 5.06424450205,
			"0.007": 12.7389860539,
			"0.008": 7.33020970144,
			"0.009": 5.69118800944,
			"0.01": 3.87275739937,
			"0.011": 4.15611233427,
			"0.012": 1.31544405066,
			"0.013": 0.101011278821,
			"0.014": 0.0,
			"0.015": 0.0,
			"0.016": 0.0,
			"0.017": 0.0,
			"0.018": 0.0,
			"0.019": 0.0,
			"0.02": 0.0,
			"0.021": 0.0,
			"0.022": 0.0,
			"0.023": 0.0,
			"0.024": 0.0,
			"0.025": 0.0
		}
	}
}
