{
	 "smiles": "CC(C)(C)OC(=O)N1CCC(CC1)OC(=O)C1=C(N)C=CC=C1", 
	 "Tm": 394.15, 
	 "num_atms": 47, 
	 "gaussian": { 
		 "optdone": 1, 
		 "sigma_profile": "yes", 
		 "theory": "DFT", 
		 "functional": "B3LYP", 
		 "basiset": "6-31G**", 
		 "properties": { 
			 "R2extent": 13024.2747, 
			 "electric_dipole_moment_norm": 1.26692244435, 
			 "electric_quadrupole_moment_norm": 24.0368638651, 
			 "total_energy": -1072.73630748, 
			 "HOMO_LUMO_gap": 0.16947, 
			 "cosmo_polarized_energy": -16.38, 
			 "cosmo_cavitation_energy": 47.94, 
			 "cosmo_dispersion_energy": -33.36, 
			 "cosmo_repulsion_energy": 2.53, 
			 "cosmo_total_nonelectrostatic_energy": 17.11, 
			 "SMD_solvation_energy": 8.53 
		},
		"coords": [
			{
				"x": 3.5910474402,
				"y": -3.4830379596,
				"z": -2.8658631368,
				"element": "C" 
			},
			{
				"x": 2.4151930784,
				"y": -3.8982755852,
				"z": -1.9748933265,
				"element": "C" 
			},
			{
				"x": 1.4352979746,
				"y": -4.784173978,
				"z": -2.7492897519,
				"element": "C" 
			},
			{
				"x": 2.8774566068,
				"y": -4.5947590905,
				"z": -0.6903588699,
				"element": "C" 
			},
			{
				"x": 1.5924089438,
				"y": -2.7242869307,
				"z": -1.647090029,
				"element": "O" 
			},
			{
				"x": 2.1065343722,
				"y": -1.6922798952,
				"z": -0.9311691683,
				"element": "C" 
			},
			{
				"x": 3.2593066222,
				"y": -1.6095574652,
				"z": -0.5264515384,
				"element": "O" 
			},
			{
				"x": 1.1516738703,
				"y": -0.7344891811,
				"z": -0.715011684,
				"element": "N" 
			},
			{
				"x": -0.2187553298,
				"y": -0.8410329709,
				"z": -1.2353271781,
				"element": "C" 
			},
			{
				"x": -1.1408167187,
				"y": 0.1225279926,
				"z": -0.4844750622,
				"element": "C" 
			},
			{
				"x": -0.6851567697,
				"y": 1.5850433836,
				"z": -0.622109879,
				"element": "C" 
			},
			{
				"x": 0.8466617944,
				"y": 1.6979819397,
				"z": -0.69714955,
				"element": "C" 
			},
			{
				"x": 1.551804845,
				"y": 0.5067840382,
				"z": -0.0452880887,
				"element": "C" 
			},
			{
				"x": -1.1201980735,
				"y": 2.3432914706,
				"z": 0.5415720599,
				"element": "O" 
			},
			{
				"x": -2.4175500553,
				"y": 2.7803768427,
				"z": 0.5350655329,
				"element": "C" 
			},
			{
				"x": -3.1695230085,
				"y": 2.5228038556,
				"z": -0.3880432247,
				"element": "O" 
			},
			{
				"x": -2.8000668757,
				"y": 3.5705797642,
				"z": 1.7297898753,
				"element": "C" 
			},
			{
				"x": -1.9436104662,
				"y": 3.9165773545,
				"z": 2.8147434517,
				"element": "C" 
			},
			{
				"x": -0.6052119591,
				"y": 3.6035623992,
				"z": 2.8620977335,
				"element": "N" 
			},
			{
				"x": -2.4978892099,
				"y": 4.662471393,
				"z": 3.881365488,
				"element": "C" 
			},
			{
				"x": -3.8250587376,
				"y": 5.0561302305,
				"z": 3.8803172565,
				"element": "C" 
			},
			{
				"x": -4.6677415025,
				"y": 4.7233052269,
				"z": 2.8100262277,
				"element": "C" 
			},
			{
				"x": -4.1459049943,
				"y": 3.9903546371,
				"z": 1.758224187,
				"element": "C" 
			},
			{
				"x": 4.277800113,
				"y": -2.8320246894,
				"z": -2.3248936407,
				"element": "H" 
			},
			{
				"x": 3.226472237,
				"y": -2.9565727216,
				"z": -3.7538063874,
				"element": "H" 
			},
			{
				"x": 4.1330122794,
				"y": -4.374340011,
				"z": -3.1987294985,
				"element": "H" 
			},
			{
				"x": 0.5763928483,
				"y": -5.0485558963,
				"z": -2.1253479193,
				"element": "H" 
			},
			{
				"x": 1.068060775,
				"y": -4.2666094113,
				"z": -3.6403291302,
				"element": "H" 
			},
			{
				"x": 1.9311333201,
				"y": -5.7071240714,
				"z": -3.0643678151,
				"element": "H" 
			},
			{
				"x": 3.5594981858,
				"y": -3.9588600452,
				"z": -0.1258571029,
				"element": "H" 
			},
			{
				"x": 3.389469986,
				"y": -5.5290842135,
				"z": -0.9428920735,
				"element": "H" 
			},
			{
				"x": 2.0160842437,
				"y": -4.839914284,
				"z": -0.0606447503,
				"element": "H" 
			},
			{
				"x": -0.5677614956,
				"y": -1.8673033897,
				"z": -1.1088734612,
				"element": "H" 
			},
			{
				"x": -0.2418266501,
				"y": -0.6307575817,
				"z": -2.315117219,
				"element": "H" 
			},
			{
				"x": -2.1684470273,
				"y": 0.0173485487,
				"z": -0.8396569555,
				"element": "H" 
			},
			{
				"x": -1.136499324,
				"y": -0.1383047359,
				"z": 0.5802253078,
				"element": "H" 
			},
			{
				"x": -1.1514314981,
				"y": 2.0460177498,
				"z": -1.4953552559,
				"element": "H" 
			},
			{
				"x": 1.1640548893,
				"y": 2.6359317981,
				"z": -0.2310717244,
				"element": "H" 
			},
			{
				"x": 1.1461836691,
				"y": 1.7479920499,
				"z": -1.7501374255,
				"element": "H" 
			},
			{
				"x": 2.6360464539,
				"y": 0.589832834,
				"z": -0.1271494607,
				"element": "H" 
			},
			{
				"x": 1.3126359394,
				"y": 0.4612330784,
				"z": 1.0276007425,
				"element": "H" 
			},
			{
				"x": -0.1540040203,
				"y": 3.6592992755,
				"z": 3.7615229755,
				"element": "H" 
			},
			{
				"x": -0.2689152999,
				"y": 2.9007311477,
				"z": 2.2234204608,
				"element": "H" 
			},
			{
				"x": -1.8513106719,
				"y": 4.932622763,
				"z": 4.7127937937,
				"element": "H" 
			},
			{
				"x": -4.2095464453,
				"y": 5.627980214,
				"z": 4.7206642882,
				"element": "H" 
			},
			{
				"x": -5.7079313317,
				"y": 5.0313988228,
				"z": 2.8060887762,
				"element": "H" 
			},
			{
				"x": -4.7647730228,
				"y": 3.708665297,
				"z": 0.9134321506,
				"element": "H" 
			}
		],
		 "valence_orbital": [ 
			{
				"type": "occ",
				"energy": -0.27223,
				"method": "rhf"
			},
			{
				"type": "occ",
				"energy": -0.25771,
				"method": "rhf"
			},
			{
				"type": "occ",
				"energy": -0.25252,
				"method": "rhf"
			},
			{
				"type": "occ",
				"energy": -0.23422,
				"method": "rhf"
			},
			{
				"type": "occ",
				"energy": -0.20653,
				"method": "rhf"
			},
			{
				"type": "unocc",
				"energy": -0.03706,
				"method": "rhf"
			},
			{
				"type": "unocc",
				"energy": 0.01233,
				"method": "rhf"
			},
			{
				"type": "unocc",
				"energy": 0.05491,
				"method": "rhf"
			},
			{
				"type": "unocc",
				"energy": 0.06131,
				"method": "rhf"
			},
			{
				"type": "unocc",
				"energy": 0.07072,
				"method": "rhf"
			}
		],
		"cosmo_sigma_profile": { 
			"-0.025": 0.0,
			"-0.024": 0.0,
			"-0.023": 0.0,
			"-0.022": 0.0,
			"-0.021": 0.0,
			"-0.02": 0.0,
			"-0.019": 0.0,
			"-0.018": 0.0,
			"-0.017": 0.0,
			"-0.016": 0.0,
			"-0.015": 0.0,
			"-0.014": 0.0739526125223,
			"-0.013": 0.948030701391,
			"-0.012": 1.52466507575,
			"-0.011": 1.74560588191,
			"-0.01": 1.04080397857,
			"-0.009": 1.58008687969,
			"-0.008": 2.9187048927,
			"-0.007": 2.73268418841,
			"-0.006": 6.25058938941,
			"-0.005": 19.1880461329,
			"-0.004": 39.6716733288,
			"-0.003": 43.2196252815,
			"-0.002": 38.7809274443,
			"-0.001": 34.9930492648,
			"0.0": 37.9731810891,
			"0.001": 31.2489540392,
			"0.002": 19.2185715014,
			"0.003": 17.2541460593,
			"0.004": 17.4587759861,
			"0.005": 16.7467769911,
			"0.006": 9.82206445509,
			"0.007": 4.16455826121,
			"0.008": 4.0414819588,
			"0.009": 3.80774435279,
			"0.01": 3.76755735389,
			"0.011": 4.54201236045,
			"0.012": 4.95746673944,
			"0.013": 3.66087426802,
			"0.014": 2.13758702855,
			"0.015": 0.0,
			"0.016": 0.0,
			"0.017": 0.0,
			"0.018": 0.0,
			"0.019": 0.0,
			"0.02": 0.0,
			"0.021": 0.0,
			"0.022": 0.0,
			"0.023": 0.0,
			"0.024": 0.0,
			"0.025": 0.0
		}
	}
}
