{
	 "smiles": "CS(=O)(=O)C1=CC=CC=C1C(O)=O", 
	 "Tm": 412.15, 
	 "num_atms": 21, 
	 "gaussian": { 
		 "optdone": 1, 
		 "sigma_profile": "yes", 
		 "theory": "DFT", 
		 "functional": "B3LYP", 
		 "basiset": "6-31G**", 
		 "properties": { 
			 "R2extent": 3697.883, 
			 "electric_dipole_moment_norm": 8.44698490469, 
			 "electric_quadrupole_moment_norm": 22.0710146613, 
			 "total_energy": -1008.6922624, 
			 "HOMO_LUMO_gap": 0.19798, 
			 "cosmo_polarized_energy": -21.81, 
			 "cosmo_cavitation_energy": 26.14, 
			 "cosmo_dispersion_energy": -19.78, 
			 "cosmo_repulsion_energy": 1.48, 
			 "cosmo_total_nonelectrostatic_energy": 7.85, 
			 "SMD_solvation_energy": 5.38 
		},
		"coords": [
			{
				"x": -2.7255877475,
				"y": -2.3977638779,
				"z": -2.2284258853,
				"element": "C" 
			},
			{
				"x": -1.221626355,
				"y": -2.5024565311,
				"z": -1.2383184911,
				"element": "S" 
			},
			{
				"x": -1.6683007421,
				"y": -2.2564930148,
				"z": 0.1603064156,
				"element": "O" 
			},
			{
				"x": -0.5382066383,
				"y": -3.7583129241,
				"z": -1.5654212931,
				"element": "O" 
			},
			{
				"x": -0.1798784804,
				"y": -1.0981788992,
				"z": -1.7033094075,
				"element": "C" 
			},
			{
				"x": -0.5145284946,
				"y": -0.3871418272,
				"z": -2.8608274615,
				"element": "C" 
			},
			{
				"x": 0.2663782311,
				"y": 0.6861769014,
				"z": -3.2852259435,
				"element": "C" 
			},
			{
				"x": 1.4028331516,
				"y": 1.0361469343,
				"z": -2.5609612345,
				"element": "C" 
			},
			{
				"x": 1.7506702248,
				"y": 0.308625044,
				"z": -1.4268313342,
				"element": "C" 
			},
			{
				"x": 0.9751538356,
				"y": -0.7628109382,
				"z": -0.9584527283,
				"element": "C" 
			},
			{
				"x": 1.5680708819,
				"y": -1.4354029789,
				"z": 0.2825637806,
				"element": "C" 
			},
			{
				"x": 0.7768018036,
				"y": -2.0376906122,
				"z": 1.1666857169,
				"element": "O" 
			},
			{
				"x": 2.7647052647,
				"y": -1.3665776537,
				"z": 0.4654902678,
				"element": "O" 
			},
			{
				"x": -3.2084966432,
				"y": -1.4317698318,
				"z": -2.0814722589,
				"element": "H" 
			},
			{
				"x": -2.5071811126,
				"y": -2.5975689723,
				"z": -3.2772356671,
				"element": "H" 
			},
			{
				"x": -3.3509382001,
				"y": -3.1946961428,
				"z": -1.8208005752,
				"element": "H" 
			},
			{
				"x": -1.3824984111,
				"y": -0.6618829074,
				"z": -3.4468426287,
				"element": "H" 
			},
			{
				"x": -0.01295868,
				"y": 1.2332981547,
				"z": -4.1800871961,
				"element": "H" 
			},
			{
				"x": 2.0251672587,
				"y": 1.8656117351,
				"z": -2.8818447332,
				"element": "H" 
			},
			{
				"x": 2.6507522044,
				"y": 0.5429150251,
				"z": -0.8706682675,
				"element": "H" 
			},
			{
				"x": -0.1812313517,
				"y": -2.026126683,
				"z": 0.9328789248,
				"element": "H" 
			}
		],
		 "valence_orbital": [ 
			{
				"type": "occ",
				"energy": -0.31239,
				"method": "rhf"
			},
			{
				"type": "occ",
				"energy": -0.30591,
				"method": "rhf"
			},
			{
				"type": "occ",
				"energy": -0.28966,
				"method": "rhf"
			},
			{
				"type": "occ",
				"energy": -0.28694,
				"method": "rhf"
			},
			{
				"type": "occ",
				"energy": -0.26613,
				"method": "rhf"
			},
			{
				"type": "unocc",
				"energy": -0.06815,
				"method": "rhf"
			},
			{
				"type": "unocc",
				"energy": -0.04583,
				"method": "rhf"
			},
			{
				"type": "unocc",
				"energy": 0.02441,
				"method": "rhf"
			},
			{
				"type": "unocc",
				"energy": 0.03674,
				"method": "rhf"
			},
			{
				"type": "unocc",
				"energy": 0.04329,
				"method": "rhf"
			}
		],
		"cosmo_sigma_profile": { 
			"-0.025": 0.0,
			"-0.024": 0.0,
			"-0.023": 0.0,
			"-0.022": 0.0,
			"-0.021": 0.0,
			"-0.02": 0.0,
			"-0.019": 0.0,
			"-0.018": 0.0,
			"-0.017": 0.0,
			"-0.016": 0.0,
			"-0.015": 0.0,
			"-0.014": 0.0,
			"-0.013": 0.0,
			"-0.012": 0.0967099574446,
			"-0.011": 2.16581057594,
			"-0.01": 7.00327019825,
			"-0.009": 7.82738232906,
			"-0.008": 9.18441346545,
			"-0.007": 13.2459250874,
			"-0.006": 13.691848474,
			"-0.005": 11.4172939442,
			"-0.004": 11.2531504961,
			"-0.003": 8.51836392892,
			"-0.002": 9.93133918154,
			"-0.001": 10.2224098603,
			"0.0": 14.6698210412,
			"0.001": 16.130241072,
			"0.002": 10.0439092351,
			"0.003": 4.49345366729,
			"0.004": 4.33101930077,
			"0.005": 4.58557356834,
			"0.006": 5.57710901525,
			"0.007": 4.97601605054,
			"0.008": 4.87527985271,
			"0.009": 7.15221852072,
			"0.01": 13.2561143829,
			"0.011": 9.41791448851,
			"0.012": 4.09112209622,
			"0.013": 1.55252210055,
			"0.014": 0.0503282002034,
			"0.015": 0.0,
			"0.016": 0.0,
			"0.017": 0.0,
			"0.018": 0.0,
			"0.019": 0.0,
			"0.02": 0.0,
			"0.021": 0.0,
			"0.022": 0.0,
			"0.023": 0.0,
			"0.024": 0.0,
			"0.025": 0.0
		}
	}
}
