{
	 "smiles": "O=C1C2=C(OC3=C1C=CC=N3)C=CC=C2", 
	 "Tm": 454.15, 
	 "num_atms": 22, 
	 "gaussian": { 
		 "optdone": 1, 
		 "sigma_profile": "yes", 
		 "theory": "DFT", 
		 "functional": "B3LYP", 
		 "basiset": "6-31G**", 
		 "properties": { 
			 "R2extent": 2990.356, 
			 "electric_dipole_moment_norm": 0.862322689021, 
			 "electric_quadrupole_moment_norm": 18.0632405177, 
			 "total_energy": -666.705227831, 
			 "HOMO_LUMO_gap": 0.16486, 
			 "cosmo_polarized_energy": -10.41, 
			 "cosmo_cavitation_energy": 26.67, 
			 "cosmo_dispersion_energy": -20.23, 
			 "cosmo_repulsion_energy": 1.52, 
			 "cosmo_total_nonelectrostatic_energy": 7.95, 
			 "SMD_solvation_energy": 3.76 
		},
		"coords": [
			{
				"x": 1.6339314246,
				"y": 1.4804962872,
				"z": -0.1495938942,
				"element": "O" 
			},
			{
				"x": 0.7129418765,
				"y": 0.6760490496,
				"z": -0.0329660977,
				"element": "C" 
			},
			{
				"x": 0.9163895546,
				"y": -0.7635691612,
				"z": 0.2165866161,
				"element": "C" 
			},
			{
				"x": -0.1871677914,
				"y": -1.6245730367,
				"z": 0.3388460322,
				"element": "C" 
			},
			{
				"x": -1.4825306412,
				"y": -1.1907371901,
				"z": 0.2364863917,
				"element": "O" 
			},
			{
				"x": -1.7405141646,
				"y": 0.127592866,
				"z": 0.0061438522,
				"element": "C" 
			},
			{
				"x": -0.7076454577,
				"y": 1.0720056002,
				"z": -0.1318603812,
				"element": "C" 
			},
			{
				"x": -1.0860320602,
				"y": 2.4006697167,
				"z": -0.3666982638,
				"element": "C" 
			},
			{
				"x": -2.4333482585,
				"y": 2.7182510721,
				"z": -0.4507801744,
				"element": "C" 
			},
			{
				"x": -3.3653771927,
				"y": 1.6823554113,
				"z": -0.2949498953,
				"element": "C" 
			},
			{
				"x": -3.0369704125,
				"y": 0.4089372735,
				"z": -0.0706016707,
				"element": "N" 
			},
			{
				"x": -0.0129451494,
				"y": -2.9920497726,
				"z": 0.5753416765,
				"element": "C" 
			},
			{
				"x": 1.2757674548,
				"y": -3.4978769367,
				"z": 0.6896622438,
				"element": "C" 
			},
			{
				"x": 2.3932619309,
				"y": -2.6548301678,
				"z": 0.57076484,
				"element": "C" 
			},
			{
				"x": 2.2096342054,
				"y": -1.3010598385,
				"z": 0.3364431731,
				"element": "C" 
			},
			{
				"x": -0.3008468302,
				"y": 3.1422102331,
				"z": -0.475644157,
				"element": "H" 
			},
			{
				"x": -2.7680228253,
				"y": 3.7339652913,
				"z": -0.6313492282,
				"element": "H" 
			},
			{
				"x": -4.4318998302,
				"y": 1.8913052617,
				"z": -0.3542793406,
				"element": "H" 
			},
			{
				"x": -0.8883723643,
				"y": -3.6259286916,
				"z": 0.6639508852,
				"element": "H" 
			},
			{
				"x": 1.4150371676,
				"y": -4.5591867586,
				"z": 0.8732583818,
				"element": "H" 
			},
			{
				"x": 3.3944583058,
				"y": -3.0636261208,
				"z": 0.6622800447,
				"element": "H" 
			},
			{
				"x": 3.046051058,
				"y": -0.6166003881,
				"z": 0.238358966,
				"element": "H" 
			}
		],
		 "valence_orbital": [ 
			{
				"type": "occ",
				"energy": -0.28445,
				"method": "rhf"
			},
			{
				"type": "occ",
				"energy": -0.27601,
				"method": "rhf"
			},
			{
				"type": "occ",
				"energy": -0.26815,
				"method": "rhf"
			},
			{
				"type": "occ",
				"energy": -0.25351,
				"method": "rhf"
			},
			{
				"type": "occ",
				"energy": -0.2411,
				"method": "rhf"
			},
			{
				"type": "unocc",
				"energy": -0.07624,
				"method": "rhf"
			},
			{
				"type": "unocc",
				"energy": -0.03025,
				"method": "rhf"
			},
			{
				"type": "unocc",
				"energy": -0.02375,
				"method": "rhf"
			},
			{
				"type": "unocc",
				"energy": -0.00338,
				"method": "rhf"
			},
			{
				"type": "unocc",
				"energy": 0.05241,
				"method": "rhf"
			}
		],
		"cosmo_sigma_profile": { 
			"-0.025": 0.0,
			"-0.024": 0.0,
			"-0.023": 0.0,
			"-0.022": 0.0,
			"-0.021": 0.0,
			"-0.02": 0.0,
			"-0.019": 0.0,
			"-0.018": 0.0,
			"-0.017": 0.0,
			"-0.016": 0.0,
			"-0.015": 0.0,
			"-0.014": 0.0,
			"-0.013": 0.0,
			"-0.012": 0.0,
			"-0.011": 0.0,
			"-0.01": 0.0,
			"-0.009": 0.0,
			"-0.008": 3.351016732,
			"-0.007": 11.9510004401,
			"-0.006": 14.9021968229,
			"-0.005": 15.7695904812,
			"-0.004": 13.4155928587,
			"-0.003": 13.3702183831,
			"-0.002": 14.5983035762,
			"-0.001": 18.3170293619,
			"0.0": 21.9980550562,
			"0.001": 20.8626609423,
			"0.002": 15.9261113691,
			"0.003": 13.9598307094,
			"0.004": 4.72048122811,
			"0.005": 3.75266239294,
			"0.006": 3.59321463755,
			"0.007": 2.99592183631,
			"0.008": 2.99801167497,
			"0.009": 3.36510186284,
			"0.01": 3.39976464353,
			"0.011": 3.67202368614,
			"0.012": 5.45088889011,
			"0.013": 2.50879105944,
			"0.014": 0.915623747204,
			"0.015": 0.399576874758,
			"0.016": 0.0,
			"0.017": 0.0,
			"0.018": 0.0,
			"0.019": 0.0,
			"0.02": 0.0,
			"0.021": 0.0,
			"0.022": 0.0,
			"0.023": 0.0,
			"0.024": 0.0,
			"0.025": 0.0
		}
	}
}
