{
	 "smiles": "CC1=C(C=CC=C1Cl)N1C(=O)C=CC1=O", 
	 "Tm": 342.15, 
	 "num_atms": 23, 
	 "gaussian": { 
		 "optdone": 1, 
		 "sigma_profile": "yes", 
		 "theory": "DFT", 
		 "functional": "B3LYP", 
		 "basiset": "6-31G**", 
		 "properties": { 
			 "R2extent": 3572.2008, 
			 "electric_dipole_moment_norm": 2.60264449551, 
			 "electric_quadrupole_moment_norm": 21.3172284467, 
			 "total_energy": -1089.38570759, 
			 "HOMO_LUMO_gap": 0.14416, 
			 "cosmo_polarized_energy": -11.59, 
			 "cosmo_cavitation_energy": 29.47, 
			 "cosmo_dispersion_energy": -20.94, 
			 "cosmo_repulsion_energy": 1.63, 
			 "cosmo_total_nonelectrostatic_energy": 10.16, 
			 "SMD_solvation_energy": 6.65 
		},
		"coords": [
			{
				"x": -0.6100456397,
				"y": -0.7016695473,
				"z": -2.0763573815,
				"element": "C" 
			},
			{
				"x": 0.3656387804,
				"y": -0.6026186752,
				"z": -0.9334733378,
				"element": "C" 
			},
			{
				"x": -0.0459501383,
				"y": -0.2509131052,
				"z": 0.3681574552,
				"element": "C" 
			},
			{
				"x": 0.8616110267,
				"y": -0.1119183511,
				"z": 1.4206436497,
				"element": "C" 
			},
			{
				"x": 2.2167743716,
				"y": -0.3368995893,
				"z": 1.2027428554,
				"element": "C" 
			},
			{
				"x": 2.6601636288,
				"y": -0.7207039212,
				"z": -0.0604702399,
				"element": "C" 
			},
			{
				"x": 1.7383161331,
				"y": -0.8521777808,
				"z": -1.0974256267,
				"element": "C" 
			},
			{
				"x": 2.3583470953,
				"y": -1.348903542,
				"z": -2.6717852891,
				"element": "Cl" 
			},
			{
				"x": -1.4295758841,
				"y": -0.0164732494,
				"z": 0.6388661803,
				"element": "N" 
			},
			{
				"x": -2.4486047402,
				"y": -0.9857659948,
				"z": 0.5443985289,
				"element": "C" 
			},
			{
				"x": -2.3135327686,
				"y": -2.1297243285,
				"z": 0.1684355928,
				"element": "O" 
			},
			{
				"x": -3.7070805779,
				"y": -0.3089471336,
				"z": 1.0026420286,
				"element": "C" 
			},
			{
				"x": -3.4211237799,
				"y": 0.9469293003,
				"z": 1.3566670499,
				"element": "C" 
			},
			{
				"x": -1.953011012,
				"y": 1.187066859,
				"z": 1.1597745693,
				"element": "C" 
			},
			{
				"x": -1.3254702644,
				"y": 2.1949809893,
				"z": 1.3979599167,
				"element": "O" 
			},
			{
				"x": -0.9930889915,
				"y": -1.7228181784,
				"z": -2.1746897073,
				"element": "H" 
			},
			{
				"x": -1.465823639,
				"y": -0.0426496151,
				"z": -1.9147916299,
				"element": "H" 
			},
			{
				"x": -0.1355651581,
				"y": -0.4260859194,
				"z": -3.0192570844,
				"element": "H" 
			},
			{
				"x": 0.4973242172,
				"y": 0.173410096,
				"z": 2.4009318665,
				"element": "H" 
			},
			{
				"x": 2.9265740562,
				"y": -0.2266812472,
				"z": 2.0161598613,
				"element": "H" 
			},
			{
				"x": 3.7094459991,
				"y": -0.9175803606,
				"z": -0.2487699155,
				"element": "H" 
			},
			{
				"x": -4.6555738121,
				"y": -0.8295342269,
				"z": 1.0187969977,
				"element": "H" 
			},
			{
				"x": -4.0752489027,
				"y": 1.7210775218,
				"z": 1.7357436598,
				"element": "H" 
			}
		],
		 "valence_orbital": [ 
			{
				"type": "occ",
				"energy": -0.30411,
				"method": "rhf"
			},
			{
				"type": "occ",
				"energy": -0.29898,
				"method": "rhf"
			},
			{
				"type": "occ",
				"energy": -0.27818,
				"method": "rhf"
			},
			{
				"type": "occ",
				"energy": -0.254,
				"method": "rhf"
			},
			{
				"type": "occ",
				"energy": -0.24738,
				"method": "rhf"
			},
			{
				"type": "unocc",
				"energy": -0.10322,
				"method": "rhf"
			},
			{
				"type": "unocc",
				"energy": -0.02352,
				"method": "rhf"
			},
			{
				"type": "unocc",
				"energy": -0.01575,
				"method": "rhf"
			},
			{
				"type": "unocc",
				"energy": 0.02716,
				"method": "rhf"
			},
			{
				"type": "unocc",
				"energy": 0.04943,
				"method": "rhf"
			}
		],
		"cosmo_sigma_profile": { 
			"-0.025": 0.0,
			"-0.024": 0.0,
			"-0.023": 0.0,
			"-0.022": 0.0,
			"-0.021": 0.0,
			"-0.02": 0.0,
			"-0.019": 0.0,
			"-0.018": 0.0,
			"-0.017": 0.0,
			"-0.016": 0.0,
			"-0.015": 0.0,
			"-0.014": 0.0,
			"-0.013": 0.0,
			"-0.012": 0.0,
			"-0.011": 0.0,
			"-0.01": 2.18781659741,
			"-0.009": 4.17122240329,
			"-0.008": 3.68453477276,
			"-0.007": 10.5605845638,
			"-0.006": 13.9214098064,
			"-0.005": 14.9803455354,
			"-0.004": 14.3898929566,
			"-0.003": 17.6838505629,
			"-0.002": 17.9031448254,
			"-0.001": 17.258849442,
			"0.0": 18.6558302023,
			"0.001": 16.2905664795,
			"0.002": 16.4465956346,
			"0.003": 17.7865077261,
			"0.004": 14.110202276,
			"0.005": 7.96434843274,
			"0.006": 3.23354672879,
			"0.007": 3.63338000271,
			"0.008": 4.25764082436,
			"0.009": 4.22919381848,
			"0.01": 8.11746210769,
			"0.011": 6.86706576117,
			"0.012": 0.957163939769,
			"0.013": 0.0,
			"0.014": 0.0,
			"0.015": 0.0,
			"0.016": 0.0,
			"0.017": 0.0,
			"0.018": 0.0,
			"0.019": 0.0,
			"0.02": 0.0,
			"0.021": 0.0,
			"0.022": 0.0,
			"0.023": 0.0,
			"0.024": 0.0,
			"0.025": 0.0
		}
	}
}
