{
	 "smiles": "CC(=O)C1=C(C)OC(CCC(O)=O)=C1", 
	 "Tm": 365.65, 
	 "num_atms": 26, 
	 "gaussian": { 
		 "optdone": 1, 
		 "sigma_profile": "yes", 
		 "theory": "DFT", 
		 "functional": "B3LYP", 
		 "basiset": "6-31G**", 
		 "properties": { 
			 "R2extent": 4183.0949, 
			 "electric_dipole_moment_norm": 4.75551088633, 
			 "electric_quadrupole_moment_norm": 29.0534138047, 
			 "total_energy": -689.197373927, 
			 "HOMO_LUMO_gap": 0.18843, 
			 "cosmo_polarized_energy": -17.41, 
			 "cosmo_cavitation_energy": 30.22, 
			 "cosmo_dispersion_energy": -21.43, 
			 "cosmo_repulsion_energy": 1.71, 
			 "cosmo_total_nonelectrostatic_energy": 10.49, 
			 "SMD_solvation_energy": 7.26 
		},
		"coords": [
			{
				"x": -0.1328503934,
				"y": 1.640065981,
				"z": 2.9612339731,
				"element": "C" 
			},
			{
				"x": 0.6045984035,
				"y": 2.0351602628,
				"z": 1.6938407558,
				"element": "C" 
			},
			{
				"x": 1.4011471232,
				"y": 2.9652346813,
				"z": 1.6946639111,
				"element": "O" 
			},
			{
				"x": 0.3153285482,
				"y": 1.2487396032,
				"z": 0.4732065426,
				"element": "C" 
			},
			{
				"x": 0.8757747541,
				"y": 1.4517383894,
				"z": -0.766163269,
				"element": "C" 
			},
			{
				"x": 1.8689541049,
				"y": 2.4120572089,
				"z": -1.3094474035,
				"element": "C" 
			},
			{
				"x": 0.3588839633,
				"y": 0.5345649256,
				"z": -1.6410675263,
				"element": "O" 
			},
			{
				"x": -0.5391483166,
				"y": -0.2721147187,
				"z": -0.960656898,
				"element": "C" 
			},
			{
				"x": -1.2095273185,
				"y": -1.3472761682,
				"z": -1.7482157408,
				"element": "C" 
			},
			{
				"x": -0.2634083606,
				"y": -2.3953327936,
				"z": -2.3994669723,
				"element": "C" 
			},
			{
				"x": 0.2140168343,
				"y": -2.0959412564,
				"z": -3.823407664,
				"element": "C" 
			},
			{
				"x": 0.7122199112,
				"y": -0.864179382,
				"z": -4.0674281989,
				"element": "O" 
			},
			{
				"x": 0.1685316088,
				"y": -2.9222646939,
				"z": -4.7027974688,
				"element": "O" 
			},
			{
				"x": -0.5924790344,
				"y": 0.1318777068,
				"z": 0.3322631684,
				"element": "C" 
			},
			{
				"x": -1.2169206086,
				"y": 1.7176508432,
				"z": 2.8197434462,
				"element": "H" 
			},
			{
				"x": 0.0863156419,
				"y": 0.6002909191,
				"z": 3.2298046408,
				"element": "H" 
			},
			{
				"x": 0.1765502264,
				"y": 2.2987301439,
				"z": 3.773132336,
				"element": "H" 
			},
			{
				"x": 1.4365457105,
				"y": 3.0016107875,
				"z": -2.1261114841,
				"element": "H" 
			},
			{
				"x": 2.7443342059,
				"y": 1.8868014447,
				"z": -1.7093121111,
				"element": "H" 
			},
			{
				"x": 2.1834987657,
				"y": 3.0789491603,
				"z": -0.5076250062,
				"element": "H" 
			},
			{
				"x": -1.877375488,
				"y": -1.8682732596,
				"z": -1.0562839347,
				"element": "H" 
			},
			{
				"x": -1.8550731093,
				"y": -0.9060410386,
				"z": -2.5192303252,
				"element": "H" 
			},
			{
				"x": 0.6167505292,
				"y": -2.5447150997,
				"z": -1.7612368352,
				"element": "H" 
			},
			{
				"x": -0.7746419555,
				"y": -3.3569191005,
				"z": -2.4672593385,
				"element": "H" 
			},
			{
				"x": 0.7137631953,
				"y": -0.3075516381,
				"z": -3.2694136093,
				"element": "H" 
			},
			{
				"x": -1.2064889413,
				"y": -0.3078629084,
				"z": 1.1047350118,
				"element": "H" 
			}
		],
		 "valence_orbital": [ 
			{
				"type": "occ",
				"energy": -0.30625,
				"method": "rhf"
			},
			{
				"type": "occ",
				"energy": -0.30164,
				"method": "rhf"
			},
			{
				"type": "occ",
				"energy": -0.26245,
				"method": "rhf"
			},
			{
				"type": "occ",
				"energy": -0.25784,
				"method": "rhf"
			},
			{
				"type": "occ",
				"energy": -0.24212,
				"method": "rhf"
			},
			{
				"type": "unocc",
				"energy": -0.05369,
				"method": "rhf"
			},
			{
				"type": "unocc",
				"energy": -0.00453,
				"method": "rhf"
			},
			{
				"type": "unocc",
				"energy": 0.01463,
				"method": "rhf"
			},
			{
				"type": "unocc",
				"energy": 0.06684,
				"method": "rhf"
			},
			{
				"type": "unocc",
				"energy": 0.0892,
				"method": "rhf"
			}
		],
		"cosmo_sigma_profile": { 
			"-0.025": 0.0,
			"-0.024": 0.0,
			"-0.023": 0.0,
			"-0.022": 0.0,
			"-0.021": 0.0,
			"-0.02": 0.0,
			"-0.019": 0.0,
			"-0.018": 0.0,
			"-0.017": 0.0,
			"-0.016": 0.0,
			"-0.015": 0.0,
			"-0.014": 0.0,
			"-0.013": 0.0,
			"-0.012": 0.0,
			"-0.011": 0.0,
			"-0.01": 0.206488817866,
			"-0.009": 0.673671769864,
			"-0.008": 1.68219771466,
			"-0.007": 9.54950492773,
			"-0.006": 22.6303011596,
			"-0.005": 24.2477341085,
			"-0.004": 22.9517475938,
			"-0.003": 22.3099268924,
			"-0.002": 18.8094450843,
			"-0.001": 19.4078855302,
			"0.0": 13.9325511464,
			"0.001": 10.9075911488,
			"0.002": 9.63176730533,
			"0.003": 7.12151662326,
			"0.004": 5.8143282004,
			"0.005": 3.69847204742,
			"0.006": 4.50100650076,
			"0.007": 3.42581733112,
			"0.008": 4.02942277137,
			"0.009": 4.44558132485,
			"0.01": 5.64947952023,
			"0.011": 7.6025539818,
			"0.012": 9.22136844956,
			"0.013": 5.78890606258,
			"0.014": 1.09164725232,
			"0.015": 0.0,
			"0.016": 0.0,
			"0.017": 0.0,
			"0.018": 0.0,
			"0.019": 0.0,
			"0.02": 0.0,
			"0.021": 0.0,
			"0.022": 0.0,
			"0.023": 0.0,
			"0.024": 0.0,
			"0.025": 0.0
		}
	}
}
