{
	 "smiles": "OCCCC(Cl)(Cl)CO", 
	 "Tm": 314.15, 
	 "num_atms": 19, 
	 "gaussian": { 
		 "optdone": 1, 
		 "sigma_profile": "yes", 
		 "theory": "DFT", 
		 "functional": "B3LYP", 
		 "basiset": "6-31G**", 
		 "properties": { 
			 "R2extent": 2532.0363, 
			 "electric_dipole_moment_norm": 2.44830582444, 
			 "electric_quadrupole_moment_norm": 14.412973731, 
			 "total_energy": -1267.37648668, 
			 "HOMO_LUMO_gap": 0.2594, 
			 "cosmo_polarized_energy": -11.38, 
			 "cosmo_cavitation_energy": 24.46, 
			 "cosmo_dispersion_energy": -17.94, 
			 "cosmo_repulsion_energy": 1.49, 
			 "cosmo_total_nonelectrostatic_energy": 8.0, 
			 "SMD_solvation_energy": 3.5 
		},
		"coords": [
			{
				"x": 1.43604947,
				"y": 2.7533854755,
				"z": -2.8691690436,
				"element": "O" 
			},
			{
				"x": 2.2557830244,
				"y": 1.8427288584,
				"z": -2.1464714963,
				"element": "C" 
			},
			{
				"x": 1.5912234094,
				"y": 1.3422516718,
				"z": -0.8576644135,
				"element": "C" 
			},
			{
				"x": 0.2180998586,
				"y": 0.6720533936,
				"z": -1.0955158291,
				"element": "C" 
			},
			{
				"x": 0.1979127557,
				"y": -0.854668968,
				"z": -1.0187635191,
				"element": "C" 
			},
			{
				"x": 1.3996774058,
				"y": -1.6118507412,
				"z": -2.1533321491,
				"element": "Cl" 
			},
			{
				"x": -1.4827996868,
				"y": -1.4186430445,
				"z": -1.5082488577,
				"element": "Cl" 
			},
			{
				"x": 0.4712617376,
				"y": -1.4335254621,
				"z": 0.384364683,
				"element": "C" 
			},
			{
				"x": -0.4074886951,
				"y": -0.9170775412,
				"z": 1.3546850243,
				"element": "O" 
			},
			{
				"x": 1.3193307974,
				"y": 3.5440349763,
				"z": -2.3260035161,
				"element": "H" 
			},
			{
				"x": 2.4382296715,
				"y": 1.0085571231,
				"z": -2.8286749157,
				"element": "H" 
			},
			{
				"x": 3.2323873147,
				"y": 2.2896088712,
				"z": -1.9029428644,
				"element": "H" 
			},
			{
				"x": 1.4484504517,
				"y": 2.198093562,
				"z": -0.1849485922,
				"element": "H" 
			},
			{
				"x": 2.2870110802,
				"y": 0.6727881089,
				"z": -0.3389449565,
				"element": "H" 
			},
			{
				"x": -0.4953445092,
				"y": 0.9960729992,
				"z": -0.3322366836,
				"element": "H" 
			},
			{
				"x": -0.1735723019,
				"y": 0.9936199982,
				"z": -2.0634487499,
				"element": "H" 
			},
			{
				"x": 0.4422169452,
				"y": -2.5285554112,
				"z": 0.3213803582,
				"element": "H" 
			},
			{
				"x": 1.4809840564,
				"y": -1.1383222412,
				"z": 0.6835310914,
				"element": "H" 
			},
			{
				"x": -1.2926127855,
				"y": -1.2552516288,
				"z": 1.1572044299,
				"element": "H" 
			}
		],
		 "valence_orbital": [ 
			{
				"type": "occ",
				"energy": -0.32116,
				"method": "rhf"
			},
			{
				"type": "occ",
				"energy": -0.31186,
				"method": "rhf"
			},
			{
				"type": "occ",
				"energy": -0.30472,
				"method": "rhf"
			},
			{
				"type": "occ",
				"energy": -0.28875,
				"method": "rhf"
			},
			{
				"type": "occ",
				"energy": -0.27368,
				"method": "rhf"
			},
			{
				"type": "unocc",
				"energy": -0.01428,
				"method": "rhf"
			},
			{
				"type": "unocc",
				"energy": 0.01297,
				"method": "rhf"
			},
			{
				"type": "unocc",
				"energy": 0.06607,
				"method": "rhf"
			},
			{
				"type": "unocc",
				"energy": 0.07894,
				"method": "rhf"
			},
			{
				"type": "unocc",
				"energy": 0.10269,
				"method": "rhf"
			}
		],
		"cosmo_sigma_profile": { 
			"-0.025": 0.0,
			"-0.024": 0.0,
			"-0.023": 0.0,
			"-0.022": 0.0,
			"-0.021": 0.0,
			"-0.02": 0.0,
			"-0.019": 0.0,
			"-0.018": 0.0,
			"-0.017": 0.0,
			"-0.016": 0.100491094295,
			"-0.015": 1.0692296191,
			"-0.014": 1.86840351662,
			"-0.013": 1.67114470464,
			"-0.012": 1.99122613792,
			"-0.011": 1.38521637262,
			"-0.01": 1.29896461049,
			"-0.009": 1.8826880353,
			"-0.008": 2.87437158534,
			"-0.007": 3.82804824941,
			"-0.006": 7.57052888839,
			"-0.005": 7.43915523004,
			"-0.004": 13.7256747681,
			"-0.003": 16.2624697131,
			"-0.002": 16.2626868394,
			"-0.001": 18.0584507768,
			"0.0": 12.5860165713,
			"0.001": 11.9269267456,
			"0.002": 11.7165583142,
			"0.003": 10.0538903892,
			"0.004": 13.7675601757,
			"0.005": 14.4184073773,
			"0.006": 3.00342062402,
			"0.007": 2.92788533019,
			"0.008": 2.25709397201,
			"0.009": 1.36182325744,
			"0.01": 2.22295582885,
			"0.011": 2.84157490996,
			"0.012": 2.75469521327,
			"0.013": 2.70952031068,
			"0.014": 1.99258557404,
			"0.015": 0.637256968737,
			"0.016": 0.0,
			"0.017": 0.0,
			"0.018": 0.0,
			"0.019": 0.0,
			"0.02": 0.0,
			"0.021": 0.0,
			"0.022": 0.0,
			"0.023": 0.0,
			"0.024": 0.0,
			"0.025": 0.0
		}
	}
}
