{
	 "smiles": "CCC1=NC(=NN1C1=C(Cl)C=CC=C1Cl)C(O)=O", 
	 "Tm": 471.15, 
	 "num_atms": 27, 
	 "gaussian": { 
		 "optdone": 1, 
		 "sigma_profile": "yes", 
		 "theory": "DFT", 
		 "functional": "B3LYP", 
		 "basiset": "6-31G**", 
		 "properties": { 
			 "R2extent": 6063.2221, 
			 "electric_dipole_moment_norm": 9.12086959122, 
			 "electric_quadrupole_moment_norm": 27.8712771412, 
			 "total_energy": -1659.68043685, 
			 "HOMO_LUMO_gap": 0.20738, 
			 "cosmo_polarized_energy": -18.13, 
			 "cosmo_cavitation_energy": 36.34, 
			 "cosmo_dispersion_energy": -24.74, 
			 "cosmo_repulsion_energy": 1.96, 
			 "cosmo_total_nonelectrostatic_energy": 13.55, 
			 "SMD_solvation_energy": 5.37 
		},
		"coords": [
			{
				"x": -0.4250089939,
				"y": -3.0381414081,
				"z": 1.5896843417,
				"element": "C" 
			},
			{
				"x": 0.0656202044,
				"y": -1.9402354679,
				"z": 0.6419322148,
				"element": "C" 
			},
			{
				"x": 0.5317772262,
				"y": -0.7139064044,
				"z": 1.365251402,
				"element": "C" 
			},
			{
				"x": 0.5554235497,
				"y": -0.5110773035,
				"z": 2.6690296075,
				"element": "N" 
			},
			{
				"x": 1.0648363356,
				"y": 0.7541783662,
				"z": 2.795786189,
				"element": "C" 
			},
			{
				"x": 1.3607219632,
				"y": 1.354457526,
				"z": 1.6575425728,
				"element": "N" 
			},
			{
				"x": 1.0159833951,
				"y": 0.4063370584,
				"z": 0.7429968157,
				"element": "N" 
			},
			{
				"x": 1.1789743084,
				"y": 0.6537156129,
				"z": -0.6472494976,
				"element": "C" 
			},
			{
				"x": 2.3803854289,
				"y": 0.3292846742,
				"z": -1.2976182356,
				"element": "C" 
			},
			{
				"x": 3.6804376384,
				"y": -0.4119837328,
				"z": -0.3997763522,
				"element": "Cl" 
			},
			{
				"x": 2.552299455,
				"y": 0.5883751609,
				"z": -2.656317654,
				"element": "C" 
			},
			{
				"x": 1.5144513666,
				"y": 1.1778348652,
				"z": -3.3758069328,
				"element": "C" 
			},
			{
				"x": 0.3105721848,
				"y": 1.5067597249,
				"z": -2.755533179,
				"element": "C" 
			},
			{
				"x": 0.1482607748,
				"y": 1.2436568415,
				"z": -1.3964197366,
				"element": "C" 
			},
			{
				"x": -1.3616093835,
				"y": 1.6530876645,
				"z": -0.622933263,
				"element": "Cl" 
			},
			{
				"x": 1.2542831545,
				"y": 1.3697389878,
				"z": 4.1455075709,
				"element": "C" 
			},
			{
				"x": 0.8728076073,
				"y": 0.5440850802,
				"z": 5.1440764894,
				"element": "O" 
			},
			{
				"x": 1.6951278524,
				"y": 2.4742073845,
				"z": 4.3404105329,
				"element": "O" 
			},
			{
				"x": -1.2635353226,
				"y": -2.687329878,
				"z": 2.1963805313,
				"element": "H" 
			},
			{
				"x": -0.7533009881,
				"y": -3.9088366409,
				"z": 1.015691856,
				"element": "H" 
			},
			{
				"x": 0.3693538958,
				"y": -3.3523859082,
				"z": 2.271236691,
				"element": "H" 
			},
			{
				"x": -0.7330296373,
				"y": -1.6546138401,
				"z": -0.0547862896,
				"element": "H" 
			},
			{
				"x": 0.888753166,
				"y": -2.3149449577,
				"z": 0.019913103,
				"element": "H" 
			},
			{
				"x": 3.4901765751,
				"y": 0.3319329813,
				"z": -3.1346705097,
				"element": "H" 
			},
			{
				"x": 1.6456876945,
				"y": 1.3839189553,
				"z": -4.4333011129,
				"element": "H" 
			},
			{
				"x": -0.4984893964,
				"y": 1.9659266377,
				"z": -3.3112177096,
				"element": "H" 
			},
			{
				"x": 0.5535399451,
				"y": -0.2849419798,
				"z": 4.7414905545,
				"element": "H" 
			}
		],
		 "valence_orbital": [ 
			{
				"type": "occ",
				"energy": -0.30425,
				"method": "rhf"
			},
			{
				"type": "occ",
				"energy": -0.29011,
				"method": "rhf"
			},
			{
				"type": "occ",
				"energy": -0.27677,
				"method": "rhf"
			},
			{
				"type": "occ",
				"energy": -0.27487,
				"method": "rhf"
			},
			{
				"type": "occ",
				"energy": -0.2647,
				"method": "rhf"
			},
			{
				"type": "unocc",
				"energy": -0.05732,
				"method": "rhf"
			},
			{
				"type": "unocc",
				"energy": -0.05011,
				"method": "rhf"
			},
			{
				"type": "unocc",
				"energy": -0.03754,
				"method": "rhf"
			},
			{
				"type": "unocc",
				"energy": -0.01595,
				"method": "rhf"
			},
			{
				"type": "unocc",
				"energy": -0.00086,
				"method": "rhf"
			}
		],
		"cosmo_sigma_profile": { 
			"-0.025": 0.0,
			"-0.024": 0.0,
			"-0.023": 0.0,
			"-0.022": 0.0,
			"-0.021": 0.0,
			"-0.02": 0.0,
			"-0.019": 0.0,
			"-0.018": 0.0,
			"-0.017": 0.0,
			"-0.016": 0.0,
			"-0.015": 0.0,
			"-0.014": 0.313006100178,
			"-0.013": 0.457380095818,
			"-0.012": 0.83926589332,
			"-0.011": 0.742250514924,
			"-0.01": 0.611827290074,
			"-0.009": 2.30283118228,
			"-0.008": 7.43106890352,
			"-0.007": 8.2464755362,
			"-0.006": 10.7961497848,
			"-0.005": 14.0893588529,
			"-0.004": 21.6038329155,
			"-0.003": 25.5231338203,
			"-0.002": 22.8109091902,
			"-0.001": 31.5346045261,
			"0.0": 30.6951848015,
			"0.001": 26.5866380216,
			"0.002": 18.3551497465,
			"0.003": 18.8340121498,
			"0.004": 9.37622385963,
			"0.005": 5.12922675421,
			"0.006": 4.91720179676,
			"0.007": 4.13332510045,
			"0.008": 4.28165346392,
			"0.009": 5.19962666554,
			"0.01": 6.60044311195,
			"0.011": 7.54248113187,
			"0.012": 5.52498006607,
			"0.013": 1.06709348102,
			"0.014": 0.0,
			"0.015": 0.0,
			"0.016": 0.0,
			"0.017": 0.0,
			"0.018": 0.0,
			"0.019": 0.0,
			"0.02": 0.0,
			"0.021": 0.0,
			"0.022": 0.0,
			"0.023": 0.0,
			"0.024": 0.0,
			"0.025": 0.0
		}
	}
}
