{
	 "smiles": "[O-][N+](=O)C1=C(CC2CCCC2=O)C=CC=C1", 
	 "Tm": 312.15, 
	 "num_atms": 29, 
	 "gaussian": { 
		 "optdone": 1, 
		 "sigma_profile": "yes", 
		 "theory": "DFT", 
		 "functional": "B3LYP", 
		 "basiset": "6-31G**", 
		 "properties": { 
			 "R2extent": 3758.6954, 
			 "electric_dipole_moment_norm": 3.04490123649, 
			 "electric_quadrupole_moment_norm": 18.8673944176, 
			 "total_energy": -745.436750553, 
			 "HOMO_LUMO_gap": 0.15627, 
			 "cosmo_polarized_energy": -10.8, 
			 "cosmo_cavitation_energy": 31.29, 
			 "cosmo_dispersion_energy": -22.24, 
			 "cosmo_repulsion_energy": 1.73, 
			 "cosmo_total_nonelectrostatic_energy": 10.78, 
			 "SMD_solvation_energy": 7.15 
		},
		"coords": [
			{
				"x": -0.7527474501,
				"y": 2.9759516394,
				"z": -1.1495960536,
				"element": "O" 
			},
			{
				"x": 0.2469423644,
				"y": 2.8540519755,
				"z": -1.8620667132,
				"element": "N" 
			},
			{
				"x": 0.546770847,
				"y": 3.6391989148,
				"z": -2.7603152204,
				"element": "O" 
			},
			{
				"x": 1.1387445399,
				"y": 1.6966053866,
				"z": -1.6497121499,
				"element": "C" 
			},
			{
				"x": 1.2659104611,
				"y": 1.0584687006,
				"z": -0.3995533186,
				"element": "C" 
			},
			{
				"x": 0.5527497943,
				"y": 1.4498000391,
				"z": 0.8825549276,
				"element": "C" 
			},
			{
				"x": -0.6295219497,
				"y": 0.5329992416,
				"z": 1.3028168738,
				"element": "C" 
			},
			{
				"x": -1.702296349,
				"y": 0.1776212379,
				"z": 0.242251705,
				"element": "C" 
			},
			{
				"x": -1.5046943815,
				"y": -1.3254465516,
				"z": -0.0788258838,
				"element": "C" 
			},
			{
				"x": -1.0045267863,
				"y": -1.9356911327,
				"z": 1.2395439952,
				"element": "C" 
			},
			{
				"x": -0.1422712892,
				"y": -0.8299272681,
				"z": 1.8383302277,
				"element": "C" 
			},
			{
				"x": 0.7972456003,
				"y": -0.981373017,
				"z": 2.5925204738,
				"element": "O" 
			},
			{
				"x": 2.1938475788,
				"y": 0.0015457887,
				"z": -0.3450121889,
				"element": "C" 
			},
			{
				"x": 2.9127340422,
				"y": -0.418680481,
				"z": -1.4609024757,
				"element": "C" 
			},
			{
				"x": 2.7500900452,
				"y": 0.2302745379,
				"z": -2.6870739702,
				"element": "C" 
			},
			{
				"x": 1.8737126607,
				"y": 1.3030817413,
				"z": -2.7740759238,
				"element": "C" 
			},
			{
				"x": 1.282471696,
				"y": 1.3962284312,
				"z": 1.698053882,
				"element": "H" 
			},
			{
				"x": 0.191373147,
				"y": 2.4742272737,
				"z": 0.8203988304,
				"element": "H" 
			},
			{
				"x": -1.0928009949,
				"y": 1.0374784331,
				"z": 2.1613062266,
				"element": "H" 
			},
			{
				"x": -2.6999920993,
				"y": 0.3323649389,
				"z": 0.6678365073,
				"element": "H" 
			},
			{
				"x": -1.6357509369,
				"y": 0.8104677638,
				"z": -0.6428841766,
				"element": "H" 
			},
			{
				"x": -2.4182483555,
				"y": -1.7968285618,
				"z": -0.4511186283,
				"element": "H" 
			},
			{
				"x": -0.7370269378,
				"y": -1.4468934728,
				"z": -0.8518128813,
				"element": "H" 
			},
			{
				"x": -0.4446712855,
				"y": -2.8699171644,
				"z": 1.1524689906,
				"element": "H" 
			},
			{
				"x": -1.8434448518,
				"y": -2.1152473451,
				"z": 1.9279481017,
				"element": "H" 
			},
			{
				"x": 2.3524669709,
				"y": -0.4886060324,
				"z": 0.6099755288,
				"element": "H" 
			},
			{
				"x": 3.6105145831,
				"y": -1.2457530161,
				"z": -1.3686106866,
				"element": "H" 
			},
			{
				"x": 3.3089328053,
				"y": -0.0861316837,
				"z": -3.5618528003,
				"element": "H" 
			},
			{
				"x": 1.7402865313,
				"y": 1.8517296824,
				"z": -3.6977931995,
				"element": "H" 
			}
		],
		 "valence_orbital": [ 
			{
				"type": "occ",
				"energy": -0.30799,
				"method": "rhf"
			},
			{
				"type": "occ",
				"energy": -0.29754,
				"method": "rhf"
			},
			{
				"type": "occ",
				"energy": -0.27485,
				"method": "rhf"
			},
			{
				"type": "occ",
				"energy": -0.26806,
				"method": "rhf"
			},
			{
				"type": "occ",
				"energy": -0.2446,
				"method": "rhf"
			},
			{
				"type": "unocc",
				"energy": -0.08833,
				"method": "rhf"
			},
			{
				"type": "unocc",
				"energy": -0.0358,
				"method": "rhf"
			},
			{
				"type": "unocc",
				"energy": -0.01956,
				"method": "rhf"
			},
			{
				"type": "unocc",
				"energy": -0.00568,
				"method": "rhf"
			},
			{
				"type": "unocc",
				"energy": 0.08014,
				"method": "rhf"
			}
		],
		"cosmo_sigma_profile": { 
			"-0.025": 0.0,
			"-0.024": 0.0,
			"-0.023": 0.0,
			"-0.022": 0.0,
			"-0.021": 0.0,
			"-0.02": 0.0,
			"-0.019": 0.0,
			"-0.018": 0.0,
			"-0.017": 0.0,
			"-0.016": 0.0,
			"-0.015": 0.0,
			"-0.014": 0.0,
			"-0.013": 0.0,
			"-0.012": 0.0,
			"-0.011": 0.0,
			"-0.01": 0.0,
			"-0.009": 0.0,
			"-0.008": 0.498246900539,
			"-0.007": 6.41086209923,
			"-0.006": 14.7325679936,
			"-0.005": 17.2242034362,
			"-0.004": 19.047810597,
			"-0.003": 25.5953255042,
			"-0.002": 28.3854242002,
			"-0.001": 24.3524841445,
			"0.0": 21.628637128,
			"0.001": 16.7188915726,
			"0.002": 15.2549356391,
			"0.003": 9.50470727397,
			"0.004": 4.24446846716,
			"0.005": 5.29498966491,
			"0.006": 5.12227443344,
			"0.007": 6.7097804938,
			"0.008": 8.48696332855,
			"0.009": 6.00880106788,
			"0.01": 4.20237229354,
			"0.011": 3.24256093473,
			"0.012": 3.69740734923,
			"0.013": 1.28457476796,
			"0.014": 0.0658403735982,
			"0.015": 0.0,
			"0.016": 0.0,
			"0.017": 0.0,
			"0.018": 0.0,
			"0.019": 0.0,
			"0.02": 0.0,
			"0.021": 0.0,
			"0.022": 0.0,
			"0.023": 0.0,
			"0.024": 0.0,
			"0.025": 0.0
		}
	}
}
