{
	 "smiles": "OC(=O)C1=CC(O)=C(C=C1)[N+]([O-])=O", 
	 "Tm": 505.15, 
	 "num_atms": 18, 
	 "gaussian": { 
		 "optdone": 1, 
		 "sigma_profile": "yes", 
		 "theory": "DFT", 
		 "functional": "B3LYP", 
		 "basiset": "6-31G**", 
		 "properties": { 
			 "R2extent": 4021.6031, 
			 "electric_dipole_moment_norm": 2.16782766151, 
			 "electric_quadrupole_moment_norm": 29.2837213093, 
			 "total_energy": -700.519269102, 
			 "HOMO_LUMO_gap": 0.16635, 
			 "cosmo_polarized_energy": -23.01, 
			 "cosmo_cavitation_energy": 24.11, 
			 "cosmo_dispersion_energy": -17.91, 
			 "cosmo_repulsion_energy": 1.41, 
			 "cosmo_total_nonelectrostatic_energy": 7.61, 
			 "SMD_solvation_energy": 8.09 
		},
		"coords": [
			{
				"x": -2.3660949911,
				"y": 0.655601208,
				"z": -1.872400013,
				"element": "O" 
			},
			{
				"x": -1.1147788975,
				"y": 1.0015496002,
				"z": -1.4844098987,
				"element": "C" 
			},
			{
				"x": -0.8496521825,
				"y": 2.1515218578,
				"z": -1.2275590736,
				"element": "O" 
			},
			{
				"x": -0.1002918354,
				"y": -0.1071212769,
				"z": -1.3980800432,
				"element": "C" 
			},
			{
				"x": 1.2416437091,
				"y": 0.2665127671,
				"z": -1.4149663856,
				"element": "C" 
			},
			{
				"x": 2.2702531818,
				"y": -0.6814598448,
				"z": -1.3326800035,
				"element": "C" 
			},
			{
				"x": 3.5661415978,
				"y": -0.3173339238,
				"z": -1.3812486091,
				"element": "O" 
			},
			{
				"x": 1.9011335222,
				"y": -2.0408707261,
				"z": -1.2254686604,
				"element": "C" 
			},
			{
				"x": 0.5570998065,
				"y": -2.4164232726,
				"z": -1.199774076,
				"element": "C" 
			},
			{
				"x": -0.4470987587,
				"y": -1.4616874597,
				"z": -1.2790057654,
				"element": "C" 
			},
			{
				"x": 2.8960836453,
				"y": -3.1189920585,
				"z": -1.1239049656,
				"element": "N" 
			},
			{
				"x": 2.5074722566,
				"y": -4.2602420643,
				"z": -1.3832426159,
				"element": "O" 
			},
			{
				"x": 4.0349384323,
				"y": -2.8270569562,
				"z": -0.7755346445,
				"element": "O" 
			},
			{
				"x": -2.3860476843,
				"y": -0.2584182591,
				"z": -2.1885923288,
				"element": "H" 
			},
			{
				"x": 1.4797680376,
				"y": 1.324031548,
				"z": -1.490356908,
				"element": "H" 
			},
			{
				"x": 3.6182470686,
				"y": 0.6426486662,
				"z": -1.4921798094,
				"element": "H" 
			},
			{
				"x": 0.3303697812,
				"y": -3.4715112075,
				"z": -1.1122471535,
				"element": "H" 
			},
			{
				"x": -1.4827866896,
				"y": -1.7789485976,
				"z": -1.2038490459,
				"element": "H" 
			}
		],
		 "valence_orbital": [ 
			{
				"type": "occ",
				"energy": -0.31265,
				"method": "rhf"
			},
			{
				"type": "occ",
				"energy": -0.30653,
				"method": "rhf"
			},
			{
				"type": "occ",
				"energy": -0.2926,
				"method": "rhf"
			},
			{
				"type": "occ",
				"energy": -0.28913,
				"method": "rhf"
			},
			{
				"type": "occ",
				"energy": -0.27021,
				"method": "rhf"
			},
			{
				"type": "unocc",
				"energy": -0.10386,
				"method": "rhf"
			},
			{
				"type": "unocc",
				"energy": -0.04492,
				"method": "rhf"
			},
			{
				"type": "unocc",
				"energy": -0.03845,
				"method": "rhf"
			},
			{
				"type": "unocc",
				"energy": 0.03524,
				"method": "rhf"
			},
			{
				"type": "unocc",
				"energy": 0.04168,
				"method": "rhf"
			}
		],
		"cosmo_sigma_profile": { 
			"-0.025": 0.0,
			"-0.024": 0.0,
			"-0.023": 0.0,
			"-0.022": 0.0,
			"-0.021": 0.0,
			"-0.02": 0.419572472436,
			"-0.019": 1.87596544928,
			"-0.018": 2.21621824648,
			"-0.017": 2.46558335839,
			"-0.016": 2.17478900119,
			"-0.015": 2.56850479557,
			"-0.014": 1.37062090554,
			"-0.013": 1.965915526,
			"-0.012": 2.45839219282,
			"-0.011": 2.36561235513,
			"-0.01": 2.07345407413,
			"-0.009": 3.16047374523,
			"-0.008": 4.81593447733,
			"-0.007": 5.88761477348,
			"-0.006": 7.12036505178,
			"-0.005": 6.35772394243,
			"-0.004": 7.97704166602,
			"-0.003": 8.86792293754,
			"-0.002": 11.8634323251,
			"-0.001": 13.7713836607,
			"0.0": 12.5541009432,
			"0.001": 9.45210435136,
			"0.002": 5.73829663127,
			"0.003": 4.23208857293,
			"0.004": 5.86822207591,
			"0.005": 5.46075902642,
			"0.006": 5.79848723303,
			"0.007": 10.3043273642,
			"0.008": 12.5054438692,
			"0.009": 9.98839495786,
			"0.01": 9.14510738078,
			"0.011": 6.69921158365,
			"0.012": 3.55554666412,
			"0.013": 0.518191800472,
			"0.014": 0.0,
			"0.015": 0.0,
			"0.016": 0.0,
			"0.017": 0.0,
			"0.018": 0.0,
			"0.019": 0.0,
			"0.02": 0.0,
			"0.021": 0.0,
			"0.022": 0.0,
			"0.023": 0.0,
			"0.024": 0.0,
			"0.025": 0.0
		}
	}
}
