{
	 "smiles": "CC(OC1=C(Cl)C=CC=C1Cl)C1=NCCN1", 
	 "Tm": 399.15, 
	 "num_atms": 28, 
	 "gaussian": { 
		 "optdone": 1, 
		 "sigma_profile": "yes", 
		 "theory": "DFT", 
		 "functional": "B3LYP", 
		 "basiset": "6-31G**", 
		 "properties": { 
			 "R2extent": 5969.5188, 
			 "electric_dipole_moment_norm": 1.79578355322, 
			 "electric_quadrupole_moment_norm": 14.0925494425, 
			 "total_energy": -1531.49234031, 
			 "HOMO_LUMO_gap": 0.18994, 
			 "cosmo_polarized_energy": -10.01, 
			 "cosmo_cavitation_energy": 34.12, 
			 "cosmo_dispersion_energy": -24.16, 
			 "cosmo_repulsion_energy": 1.88, 
			 "cosmo_total_nonelectrostatic_energy": 11.84, 
			 "SMD_solvation_energy": 0.66 
		},
		"coords": [
			{
				"x": -2.199107039,
				"y": -0.5484758127,
				"z": 1.7226775662,
				"element": "C" 
			},
			{
				"x": -1.8511932811,
				"y": 0.0957961369,
				"z": 0.3864522173,
				"element": "C" 
			},
			{
				"x": -1.2629501806,
				"y": 1.4008525541,
				"z": 0.6942773349,
				"element": "O" 
			},
			{
				"x": -1.4788493431,
				"y": 2.4287568563,
				"z": -0.1706877953,
				"element": "C" 
			},
			{
				"x": -0.40321084,
				"y": 3.0103286867,
				"z": -0.8679459778,
				"element": "C" 
			},
			{
				"x": 1.2175527472,
				"y": 2.374388041,
				"z": -0.6510152302,
				"element": "Cl" 
			},
			{
				"x": -0.5763707923,
				"y": 4.1033623858,
				"z": -1.7146951503,
				"element": "C" 
			},
			{
				"x": -1.8474974753,
				"y": 4.6462376485,
				"z": -1.8853284996,
				"element": "C" 
			},
			{
				"x": -2.9324293761,
				"y": 4.1157092242,
				"z": -1.1912347181,
				"element": "C" 
			},
			{
				"x": -2.7421060803,
				"y": 3.0308827164,
				"z": -0.3377510157,
				"element": "C" 
			},
			{
				"x": -4.1140898294,
				"y": 2.4486569246,
				"z": 0.5873948924,
				"element": "Cl" 
			},
			{
				"x": -0.873568044,
				"y": -0.7286671579,
				"z": -0.4126413245,
				"element": "C" 
			},
			{
				"x": -1.2026303824,
				"y": -1.3341194543,
				"z": -1.4947872184,
				"element": "N" 
			},
			{
				"x": -0.0099820988,
				"y": -2.1017926079,
				"z": -1.9027797278,
				"element": "C" 
			},
			{
				"x": 1.1587316009,
				"y": -1.5528517438,
				"z": -1.0393082658,
				"element": "C" 
			},
			{
				"x": 0.4147607487,
				"y": -0.9407761352,
				"z": 0.074284049,
				"element": "N" 
			},
			{
				"x": -2.6247113488,
				"y": -1.5413536395,
				"z": 1.55245723,
				"element": "H" 
			},
			{
				"x": -1.3040406021,
				"y": -0.6577192819,
				"z": 2.3402405221,
				"element": "H" 
			},
			{
				"x": -2.9276192017,
				"y": 0.0667098362,
				"z": 2.2552732359,
				"element": "H" 
			},
			{
				"x": -2.7429321268,
				"y": 0.2270254192,
				"z": -0.2279903141,
				"element": "H" 
			},
			{
				"x": 0.2821677378,
				"y": 4.5150370045,
				"z": -2.2327441583,
				"element": "H" 
			},
			{
				"x": -1.9904460071,
				"y": 5.4928929549,
				"z": -2.5486713321,
				"element": "H" 
			},
			{
				"x": -3.9238678346,
				"y": 4.5421933406,
				"z": -1.2924956042,
				"element": "H" 
			},
			{
				"x": 0.1677678705,
				"y": -2.000554108,
				"z": -2.9776532025,
				"element": "H" 
			},
			{
				"x": -0.1872382398,
				"y": -3.1666907797,
				"z": -1.6996288372,
				"element": "H" 
			},
			{
				"x": 1.8395497805,
				"y": -2.3329388973,
				"z": -0.6871911718,
				"element": "H" 
			},
			{
				"x": 1.7438298971,
				"y": -0.7994324201,
				"z": -1.5853946912,
				"element": "H" 
			},
			{
				"x": 0.8399797407,
				"y": -0.1460576916,
				"z": 0.5369871872,
				"element": "H" 
			}
		],
		 "valence_orbital": [ 
			{
				"type": "occ",
				"energy": -0.30189,
				"method": "rhf"
			},
			{
				"type": "occ",
				"energy": -0.25987,
				"method": "rhf"
			},
			{
				"type": "occ",
				"energy": -0.25517,
				"method": "rhf"
			},
			{
				"type": "occ",
				"energy": -0.24796,
				"method": "rhf"
			},
			{
				"type": "occ",
				"energy": -0.21765,
				"method": "rhf"
			},
			{
				"type": "unocc",
				"energy": -0.02771,
				"method": "rhf"
			},
			{
				"type": "unocc",
				"energy": -0.02326,
				"method": "rhf"
			},
			{
				"type": "unocc",
				"energy": -0.001,
				"method": "rhf"
			},
			{
				"type": "unocc",
				"energy": 0.02214,
				"method": "rhf"
			},
			{
				"type": "unocc",
				"energy": 0.04588,
				"method": "rhf"
			}
		],
		"cosmo_sigma_profile": { 
			"-0.025": 0.0,
			"-0.024": 0.0,
			"-0.023": 0.0,
			"-0.022": 0.0,
			"-0.021": 0.0,
			"-0.02": 0.0,
			"-0.019": 0.0,
			"-0.018": 0.0,
			"-0.017": 0.0,
			"-0.016": 0.0,
			"-0.015": 0.0,
			"-0.014": 0.0,
			"-0.013": 0.0,
			"-0.012": 0.0,
			"-0.011": 0.0201614514226,
			"-0.01": 0.438748045812,
			"-0.009": 0.668438398078,
			"-0.008": 3.30605005921,
			"-0.007": 7.59588864134,
			"-0.006": 7.99194186775,
			"-0.005": 11.0216806038,
			"-0.004": 20.2218753524,
			"-0.003": 28.7280040304,
			"-0.002": 27.5884403433,
			"-0.001": 27.3435599577,
			"0.0": 28.4670072431,
			"0.001": 26.597297227,
			"0.002": 22.6535052088,
			"0.003": 18.8236867333,
			"0.004": 16.573180809,
			"0.005": 5.75085458253,
			"0.006": 3.3705075119,
			"0.007": 3.05962225557,
			"0.008": 2.5218660141,
			"0.009": 2.34181179095,
			"0.01": 1.62917521731,
			"0.011": 1.13841361198,
			"0.012": 1.50137834635,
			"0.013": 1.02277874724,
			"0.014": 1.02520020452,
			"0.015": 1.00379146169,
			"0.016": 0.838494702975,
			"0.017": 0.852387899789,
			"0.018": 0.904434831726,
			"0.019": 0.0595877979592,
			"0.02": 0.0,
			"0.021": 0.0,
			"0.022": 0.0,
			"0.023": 0.0,
			"0.024": 0.0,
			"0.025": 0.0
		}
	}
}
