{
	 "smiles": "CC(Cl)C(=O)NC1=C(C)N(C)N=C1C", 
	 "Tm": 394.15, 
	 "num_atms": 28, 
	 "gaussian": { 
		 "optdone": 1, 
		 "sigma_profile": "yes", 
		 "theory": "DFT", 
		 "functional": "B3LYP", 
		 "basiset": "6-31G**", 
		 "properties": { 
			 "R2extent": 3535.349, 
			 "electric_dipole_moment_norm": 3.65903542071, 
			 "electric_quadrupole_moment_norm": 15.4645869505, 
			 "total_energy": -1051.0797911, 
			 "HOMO_LUMO_gap": 0.22134, 
			 "cosmo_polarized_energy": -14.51, 
			 "cosmo_cavitation_energy": 33.12, 
			 "cosmo_dispersion_energy": -22.26, 
			 "cosmo_repulsion_energy": 1.78, 
			 "cosmo_total_nonelectrostatic_energy": 12.65, 
			 "SMD_solvation_energy": 5.42 
		},
		"coords": [
			{
				"x": 1.3667536851,
				"y": 1.7624092805,
				"z": 3.4659211642,
				"element": "C" 
			},
			{
				"x": 1.1475967253,
				"y": 0.8429972421,
				"z": 2.2790162915,
				"element": "C" 
			},
			{
				"x": 2.4387498981,
				"y": -0.4672481836,
				"z": 2.2532222749,
				"element": "Cl" 
			},
			{
				"x": -0.2194524761,
				"y": 0.1443889143,
				"z": 2.3488973043,
				"element": "C" 
			},
			{
				"x": -0.7674874096,
				"y": -0.0834506936,
				"z": 3.4162886885,
				"element": "O" 
			},
			{
				"x": -0.7987277161,
				"y": -0.2046163474,
				"z": 1.152043514,
				"element": "N" 
			},
			{
				"x": -0.3346828629,
				"y": 0.0580213838,
				"z": -0.1599599789,
				"element": "C" 
			},
			{
				"x": 0.4042582613,
				"y": -0.8015562805,
				"z": -0.9682746637,
				"element": "C" 
			},
			{
				"x": 0.9308078716,
				"y": -2.1731643877,
				"z": -0.7067200397,
				"element": "C" 
			},
			{
				"x": 0.5734175172,
				"y": -0.1373920577,
				"z": -2.1411150567,
				"element": "N" 
			},
			{
				"x": 1.2931888912,
				"y": -0.5841178829,
				"z": -3.3186367141,
				"element": "C" 
			},
			{
				"x": -0.0084104223,
				"y": 1.0926401965,
				"z": -2.1431792225,
				"element": "N" 
			},
			{
				"x": -0.5699401436,
				"y": 1.2204572571,
				"z": -0.9438381125,
				"element": "C" 
			},
			{
				"x": -1.3265921921,
				"y": 2.4580361429,
				"z": -0.5721881108,
				"element": "C" 
			},
			{
				"x": 2.3726103146,
				"y": 2.1870439943,
				"z": 3.4448079776,
				"element": "H" 
			},
			{
				"x": 0.639195564,
				"y": 2.5809204209,
				"z": 3.4264275595,
				"element": "H" 
			},
			{
				"x": 1.2117922849,
				"y": 1.2175028763,
				"z": 4.3981148944,
				"element": "H" 
			},
			{
				"x": 1.274217095,
				"y": 1.3602156402,
				"z": 1.3279887913,
				"element": "H" 
			},
			{
				"x": -1.7013554289,
				"y": -0.6498955871,
				"z": 1.2756910812,
				"element": "H" 
			},
			{
				"x": 0.6622731608,
				"y": -2.4785009285,
				"z": 0.3060750337,
				"element": "H" 
			},
			{
				"x": 0.5193819224,
				"y": -2.9071315442,
				"z": -1.4099354189,
				"element": "H" 
			},
			{
				"x": 2.0229271819,
				"y": -2.210660592,
				"z": -0.784987691,
				"element": "H" 
			},
			{
				"x": 0.8764041184,
				"y": -1.5212107191,
				"z": -3.7013223334,
				"element": "H" 
			},
			{
				"x": 2.3560190014,
				"y": -0.7313616616,
				"z": -3.1001705664,
				"element": "H" 
			},
			{
				"x": 1.1844449458,
				"y": 0.1942316976,
				"z": -4.0729026858,
				"element": "H" 
			},
			{
				"x": -0.8668788254,
				"y": 2.9766245421,
				"z": 0.2771136381,
				"element": "H" 
			},
			{
				"x": -1.3476959712,
				"y": 3.1444083708,
				"z": -1.4211361169,
				"element": "H" 
			},
			{
				"x": -2.3584149908,
				"y": 2.2263089065,
				"z": -0.2859415019,
				"element": "H" 
			}
		],
		 "valence_orbital": [ 
			{
				"type": "occ",
				"energy": -0.29522,
				"method": "rhf"
			},
			{
				"type": "occ",
				"energy": -0.26272,
				"method": "rhf"
			},
			{
				"type": "occ",
				"energy": -0.25838,
				"method": "rhf"
			},
			{
				"type": "occ",
				"energy": -0.24401,
				"method": "rhf"
			},
			{
				"type": "occ",
				"energy": -0.23984,
				"method": "rhf"
			},
			{
				"type": "unocc",
				"energy": -0.0185,
				"method": "rhf"
			},
			{
				"type": "unocc",
				"energy": 0.01385,
				"method": "rhf"
			},
			{
				"type": "unocc",
				"energy": 0.05214,
				"method": "rhf"
			},
			{
				"type": "unocc",
				"energy": 0.06138,
				"method": "rhf"
			},
			{
				"type": "unocc",
				"energy": 0.07856,
				"method": "rhf"
			}
		],
		"cosmo_sigma_profile": { 
			"-0.025": 0.0,
			"-0.024": 0.0,
			"-0.023": 0.0,
			"-0.022": 0.0,
			"-0.021": 0.0,
			"-0.02": 0.0,
			"-0.019": 0.0,
			"-0.018": 0.0,
			"-0.017": 0.0,
			"-0.016": 0.0,
			"-0.015": 0.0027351892841,
			"-0.014": 0.711050732651,
			"-0.013": 1.03189676594,
			"-0.012": 1.12210309496,
			"-0.011": 0.528383266175,
			"-0.01": 1.24637503326,
			"-0.009": 0.698552054404,
			"-0.008": 0.81829503326,
			"-0.007": 2.1070100676,
			"-0.006": 15.0369728939,
			"-0.005": 21.0311338786,
			"-0.004": 24.5472710074,
			"-0.003": 27.0496982427,
			"-0.002": 23.466739481,
			"-0.001": 25.1204084006,
			"0.0": 23.1762214449,
			"0.001": 12.2540252398,
			"0.002": 12.5728069538,
			"0.003": 11.8896694584,
			"0.004": 9.72469046575,
			"0.005": 9.87533632967,
			"0.006": 10.5418838235,
			"0.007": 3.49302963796,
			"0.008": 1.61700785758,
			"0.009": 3.24932820812,
			"0.01": 2.53106871739,
			"0.011": 3.37592051376,
			"0.012": 4.43657598926,
			"0.013": 6.25315103129,
			"0.014": 1.60711504921,
			"0.015": 0.686204430077,
			"0.016": 0.578763862039,
			"0.017": 0.00108653196582,
			"0.018": 0.0,
			"0.019": 0.0,
			"0.02": 0.0,
			"0.021": 0.0,
			"0.022": 0.0,
			"0.023": 0.0,
			"0.024": 0.0,
			"0.025": 0.0
		}
	}
}
