{
	 "smiles": "COC1=CC=C(OC)C(=C1)C(C)=O", 
	 "Tm": 292.65, 
	 "num_atms": 25, 
	 "gaussian": { 
		 "optdone": 1, 
		 "sigma_profile": "yes", 
		 "theory": "DFT", 
		 "functional": "B3LYP", 
		 "basiset": "6-31G**", 
		 "properties": { 
			 "R2extent": 3635.612, 
			 "electric_dipole_moment_norm": 3.32144545943, 
			 "electric_quadrupole_moment_norm": 15.5271023733, 
			 "total_energy": -613.94337669, 
			 "HOMO_LUMO_gap": 0.16025, 
			 "cosmo_polarized_energy": -10.16, 
			 "cosmo_cavitation_energy": 28.41, 
			 "cosmo_dispersion_energy": -20.62, 
			 "cosmo_repulsion_energy": 1.62, 
			 "cosmo_total_nonelectrostatic_energy": 9.41, 
			 "SMD_solvation_energy": 7.15 
		},
		"coords": [
			{
				"x": 2.0205326629,
				"y": 3.6156502358,
				"z": -0.0839824988,
				"element": "C" 
			},
			{
				"x": 2.123771632,
				"y": 2.2129845123,
				"z": 0.1065400434,
				"element": "O" 
			},
			{
				"x": 1.1314296807,
				"y": 1.4262172799,
				"z": -0.407958844,
				"element": "C" 
			},
			{
				"x": 1.2691784255,
				"y": 0.0475453393,
				"z": -0.1988429435,
				"element": "C" 
			},
			{
				"x": 0.3139248239,
				"y": -0.8366108004,
				"z": -0.6825466525,
				"element": "C" 
			},
			{
				"x": -0.806652653,
				"y": -0.3701164667,
				"z": -1.3890881425,
				"element": "C" 
			},
			{
				"x": -1.7675070092,
				"y": -1.2096840445,
				"z": -1.8804250187,
				"element": "O" 
			},
			{
				"x": -1.6310900731,
				"y": -2.6066219272,
				"z": -1.6705735832,
				"element": "C" 
			},
			{
				"x": -0.958411707,
				"y": 1.0174057962,
				"z": -1.6070511372,
				"element": "C" 
			},
			{
				"x": 0.0232384715,
				"y": 1.8927628533,
				"z": -1.1069657818,
				"element": "C" 
			},
			{
				"x": -2.0947594984,
				"y": 1.681756237,
				"z": -2.3407998768,
				"element": "C" 
			},
			{
				"x": -3.2293757573,
				"y": 0.8743556331,
				"z": -2.9375238014,
				"element": "C" 
			},
			{
				"x": -2.0995660015,
				"y": 2.9014022956,
				"z": -2.4562625421,
				"element": "O" 
			},
			{
				"x": 2.0208824188,
				"y": 3.8811413235,
				"z": -1.1489637669,
				"element": "H" 
			},
			{
				"x": 2.898865696,
				"y": 4.0504423074,
				"z": 0.395726699,
				"element": "H" 
			},
			{
				"x": 1.1142996364,
				"y": 4.0224596829,
				"z": 0.3828371765,
				"element": "H" 
			},
			{
				"x": 2.1341962792,
				"y": -0.3156191687,
				"z": 0.3468449986,
				"element": "H" 
			},
			{
				"x": 0.4485683962,
				"y": -1.8962801125,
				"z": -0.5047641981,
				"element": "H" 
			},
			{
				"x": -2.5007851008,
				"y": -3.0652049719,
				"z": -2.1436605757,
				"element": "H" 
			},
			{
				"x": -1.6275649697,
				"y": -2.858050511,
				"z": -0.6024924737,
				"element": "H" 
			},
			{
				"x": -0.718572304,
				"y": -2.9997134587,
				"z": -2.1361977708,
				"element": "H" 
			},
			{
				"x": -0.1380683133,
				"y": 2.9458805023,
				"z": -1.2997042032,
				"element": "H" 
			},
			{
				"x": -3.923506237,
				"y": 1.5692389602,
				"z": -3.412322347,
				"element": "H" 
			},
			{
				"x": -3.7425451317,
				"y": 0.2911307003,
				"z": -2.1675889023,
				"element": "H" 
			},
			{
				"x": -2.8544833672,
				"y": 0.1524278021,
				"z": -3.6686338574,
				"element": "H" 
			}
		],
		 "valence_orbital": [ 
			{
				"type": "occ",
				"energy": -0.32269,
				"method": "rhf"
			},
			{
				"type": "occ",
				"energy": -0.29213,
				"method": "rhf"
			},
			{
				"type": "occ",
				"energy": -0.25481,
				"method": "rhf"
			},
			{
				"type": "occ",
				"energy": -0.23951,
				"method": "rhf"
			},
			{
				"type": "occ",
				"energy": -0.20689,
				"method": "rhf"
			},
			{
				"type": "unocc",
				"energy": -0.04664,
				"method": "rhf"
			},
			{
				"type": "unocc",
				"energy": 0.01593,
				"method": "rhf"
			},
			{
				"type": "unocc",
				"energy": 0.0482,
				"method": "rhf"
			},
			{
				"type": "unocc",
				"energy": 0.0881,
				"method": "rhf"
			},
			{
				"type": "unocc",
				"energy": 0.09792,
				"method": "rhf"
			}
		],
		"cosmo_sigma_profile": { 
			"-0.025": 0.0,
			"-0.024": 0.0,
			"-0.023": 0.0,
			"-0.022": 0.0,
			"-0.021": 0.0,
			"-0.02": 0.0,
			"-0.019": 0.0,
			"-0.018": 0.0,
			"-0.017": 0.0,
			"-0.016": 0.0,
			"-0.015": 0.0,
			"-0.014": 0.0,
			"-0.013": 0.0,
			"-0.012": 0.0,
			"-0.011": 0.0,
			"-0.01": 0.0,
			"-0.009": 0.0,
			"-0.008": 0.0370566198285,
			"-0.007": 2.89607441166,
			"-0.006": 11.5550134821,
			"-0.005": 22.878616451,
			"-0.004": 25.2953413731,
			"-0.003": 24.666502863,
			"-0.002": 15.6693589307,
			"-0.001": 16.111867963,
			"0.0": 15.0763412466,
			"0.001": 12.0711318772,
			"0.002": 14.3657125471,
			"0.003": 19.040688188,
			"0.004": 15.7013801326,
			"0.005": 4.1315257456,
			"0.006": 3.56431163899,
			"0.007": 3.33911120683,
			"0.008": 2.67622274048,
			"0.009": 2.76925719981,
			"0.01": 3.48159852611,
			"0.011": 3.04497093514,
			"0.012": 3.69313187524,
			"0.013": 2.54404651021,
			"0.014": 0.587405570788,
			"0.015": 0.0,
			"0.016": 0.0,
			"0.017": 0.0,
			"0.018": 0.0,
			"0.019": 0.0,
			"0.02": 0.0,
			"0.021": 0.0,
			"0.022": 0.0,
			"0.023": 0.0,
			"0.024": 0.0,
			"0.025": 0.0
		}
	}
}
