{
	 "smiles": "CC(C)(C)P(C(C)(C)C)C(C)(C)C", 
	 "Tm": 303.15, 
	 "num_atms": 40, 
	 "gaussian": { 
		 "optdone": 1, 
		 "sigma_profile": "yes", 
		 "theory": "DFT", 
		 "functional": "B3LYP", 
		 "basiset": "6-31G**", 
		 "properties": { 
			 "R2extent": 3396.1224, 
			 "electric_dipole_moment_norm": 1.08626760055, 
			 "electric_quadrupole_moment_norm": 3.02828604329, 
			 "total_energy": -814.902618608, 
			 "HOMO_LUMO_gap": 0.2619, 
			 "cosmo_polarized_energy": -4.07, 
			 "cosmo_cavitation_energy": 34.99, 
			 "cosmo_dispersion_energy": -24.96, 
			 "cosmo_repulsion_energy": 1.89, 
			 "cosmo_total_nonelectrostatic_energy": 11.92, 
			 "SMD_solvation_energy": 6.31 
		},
		"coords": [
			{
				"x": 2.4455651651,
				"y": -0.0867695581,
				"z": 0.2728958017,
				"element": "C" 
			},
			{
				"x": 1.3820755565,
				"y": 0.7188064672,
				"z": 1.0606399686,
				"element": "C" 
			},
			{
				"x": 1.859483761,
				"y": 0.6943165656,
				"z": 2.5297197483,
				"element": "C" 
			},
			{
				"x": 1.3884007353,
				"y": 2.1813703494,
				"z": 0.5756209092,
				"element": "C" 
			},
			{
				"x": -0.2901105731,
				"y": -0.2759675234,
				"z": 0.9105963668,
				"element": "P" 
			},
			{
				"x": -1.0925255539,
				"y": 0.1769301185,
				"z": -0.8099599899,
				"element": "C" 
			},
			{
				"x": -2.1451781163,
				"y": -0.9203601394,
				"z": -1.1074153895,
				"element": "C" 
			},
			{
				"x": -0.0294887197,
				"y": 0.0317448495,
				"z": -1.9216430594,
				"element": "C" 
			},
			{
				"x": -1.7499390747,
				"y": 1.5637938758,
				"z": -0.9492801696,
				"element": "C" 
			},
			{
				"x": -1.4882679462,
				"y": 0.3726604047,
				"z": 2.3074274813,
				"element": "C" 
			},
			{
				"x": -1.0852252869,
				"y": -0.3626938908,
				"z": 3.6102668201,
				"element": "C" 
			},
			{
				"x": -2.9272339197,
				"y": -0.1000529639,
				"z": 2.0028306683,
				"element": "C" 
			},
			{
				"x": -1.5250370468,
				"y": 1.8907271937,
				"z": 2.5706253834,
				"element": "C" 
			},
			{
				"x": 2.4846584048,
				"y": -1.1260855704,
				"z": 0.6132086071,
				"element": "H" 
			},
			{
				"x": 2.274821869,
				"y": -0.0931903534,
				"z": -0.8030850552,
				"element": "H" 
			},
			{
				"x": 3.4338306028,
				"y": 0.3602673964,
				"z": 0.4427748204,
				"element": "H" 
			},
			{
				"x": 1.2623708028,
				"y": 1.3314620637,
				"z": 3.1845491946,
				"element": "H" 
			},
			{
				"x": 1.8645686203,
				"y": -0.3199849294,
				"z": 2.9405701912,
				"element": "H" 
			},
			{
				"x": 2.8902894841,
				"y": 1.0687701625,
				"z": 2.5708498393,
				"element": "H" 
			},
			{
				"x": 1.1765258309,
				"y": 2.2685071338,
				"z": -0.4921140398,
				"element": "H" 
			},
			{
				"x": 2.3830009932,
				"y": 2.6180043029,
				"z": 0.7409960095,
				"element": "H" 
			},
			{
				"x": 0.6671726506,
				"y": 2.8008716182,
				"z": 1.113527465,
				"element": "H" 
			},
			{
				"x": -2.5249647426,
				"y": -0.7866246578,
				"z": -2.1288073645,
				"element": "H" 
			},
			{
				"x": -1.7028513384,
				"y": -1.9191559207,
				"z": -1.0422299156,
				"element": "H" 
			},
			{
				"x": -3.0037635515,
				"y": -0.8901775067,
				"z": -0.437432941,
				"element": "H" 
			},
			{
				"x": 0.4852267523,
				"y": -0.9326706289,
				"z": -1.8707770758,
				"element": "H" 
			},
			{
				"x": 0.7187759682,
				"y": 0.8260914067,
				"z": -1.9050078365,
				"element": "H" 
			},
			{
				"x": -0.5307581633,
				"y": 0.0836672773,
				"z": -2.8965718635,
				"element": "H" 
			},
			{
				"x": -2.5984025085,
				"y": 1.6947256001,
				"z": -0.2740655777,
				"element": "H" 
			},
			{
				"x": -2.1335262589,
				"y": 1.6859603237,
				"z": -1.9716110151,
				"element": "H" 
			},
			{
				"x": -1.0455679053,
				"y": 2.3784978008,
				"z": -0.766373338,
				"element": "H" 
			},
			{
				"x": -0.1072169178,
				"y": -0.068100151,
				"z": 3.9892228335,
				"element": "H" 
			},
			{
				"x": -1.8197613979,
				"y": -0.1345148988,
				"z": 4.3937003871,
				"element": "H" 
			},
			{
				"x": -1.0765724972,
				"y": -1.4472080175,
				"z": 3.4644349986,
				"element": "H" 
			},
			{
				"x": -3.3857588139,
				"y": 0.4341865773,
				"z": 1.1688392461,
				"element": "H" 
			},
			{
				"x": -3.5527138069,
				"y": 0.085448212,
				"z": 2.8853247734,
				"element": "H" 
			},
			{
				"x": -2.9685535415,
				"y": -1.1734609924,
				"z": 1.7937594728,
				"element": "H" 
			},
			{
				"x": -0.564785304,
				"y": 2.2794314061,
				"z": 2.9167970833,
				"element": "H" 
			},
			{
				"x": -1.8189156294,
				"y": 2.4594410888,
				"z": 1.6854896911,
				"element": "H" 
			},
			{
				"x": -2.2597485826,
				"y": 2.1078355079,
				"z": 3.3582068705,
				"element": "H" 
			}
		],
		 "valence_orbital": [ 
			{
				"type": "occ",
				"energy": -0.32358,
				"method": "rhf"
			},
			{
				"type": "occ",
				"energy": -0.30731,
				"method": "rhf"
			},
			{
				"type": "occ",
				"energy": -0.2738,
				"method": "rhf"
			},
			{
				"type": "occ",
				"energy": -0.27377,
				"method": "rhf"
			},
			{
				"type": "occ",
				"energy": -0.20031,
				"method": "rhf"
			},
			{
				"type": "unocc",
				"energy": 0.06159,
				"method": "rhf"
			},
			{
				"type": "unocc",
				"energy": 0.06164,
				"method": "rhf"
			},
			{
				"type": "unocc",
				"energy": 0.07053,
				"method": "rhf"
			},
			{
				"type": "unocc",
				"energy": 0.08027,
				"method": "rhf"
			},
			{
				"type": "unocc",
				"energy": 0.11071,
				"method": "rhf"
			}
		],
		"cosmo_sigma_profile": { 
			"-0.025": 0.0,
			"-0.024": 0.0,
			"-0.023": 0.0,
			"-0.022": 0.0,
			"-0.021": 0.0,
			"-0.02": 0.0,
			"-0.019": 0.0,
			"-0.018": 0.0,
			"-0.017": 0.0,
			"-0.016": 0.0,
			"-0.015": 0.0,
			"-0.014": 0.0,
			"-0.013": 0.0,
			"-0.012": 0.0,
			"-0.011": 0.0,
			"-0.01": 0.0,
			"-0.009": 0.0,
			"-0.008": 0.0,
			"-0.007": 0.0,
			"-0.006": 0.0,
			"-0.005": 0.274593233755,
			"-0.004": 5.3346096892,
			"-0.003": 19.2448840639,
			"-0.002": 52.0735606445,
			"-0.001": 48.0010658714,
			"0.0": 42.8839415044,
			"0.001": 55.0165560255,
			"0.002": 29.2265535931,
			"0.003": 2.45842030531,
			"0.004": 2.75998186306,
			"0.005": 1.04574781265,
			"0.006": 1.31417539233,
			"0.007": 1.25030687261,
			"0.008": 1.15887165708,
			"0.009": 0.332827855723,
			"0.01": 1.03918257352,
			"0.011": 0.633908200758,
			"0.012": 0.385322882414,
			"0.013": 0.630545226961,
			"0.014": 0.478887216707,
			"0.015": 0.463228050011,
			"0.016": 0.591070588091,
			"0.017": 0.396097246673,
			"0.018": 0.224092179398,
			"0.019": 0.0,
			"0.02": 0.0,
			"0.021": 0.0,
			"0.022": 0.0,
			"0.023": 0.0,
			"0.024": 0.0,
			"0.025": 0.0
		}
	}
}
