{
	 "smiles": "ClC1=CC(Cl)=C(C=C1)C(=O)CC#N", 
	 "Tm": 336.15, 
	 "num_atms": 18, 
	 "gaussian": { 
		 "optdone": 1, 
		 "sigma_profile": "yes", 
		 "theory": "DFT", 
		 "functional": "B3LYP", 
		 "basiset": "6-31G**", 
		 "properties": { 
			 "R2extent": 4279.0419, 
			 "electric_dipole_moment_norm": 5.05488977031, 
			 "electric_quadrupole_moment_norm": 23.5746675902, 
			 "total_energy": -1396.29871779, 
			 "HOMO_LUMO_gap": 0.18848, 
			 "cosmo_polarized_energy": -13.79, 
			 "cosmo_cavitation_energy": 27.56, 
			 "cosmo_dispersion_energy": -19.83, 
			 "cosmo_repulsion_energy": 1.56, 
			 "cosmo_total_nonelectrostatic_energy": 9.29, 
			 "SMD_solvation_energy": 6.17 
		},
		"coords": [
			{
				"x": -1.3758839578,
				"y": 4.728105513,
				"z": 1.5523744142,
				"element": "Cl" 
			},
			{
				"x": -1.1214094323,
				"y": 3.0085060062,
				"z": 1.3782327699,
				"element": "C" 
			},
			{
				"x": -0.79663733,
				"y": 2.4945045956,
				"z": 0.1259699833,
				"element": "C" 
			},
			{
				"x": -0.58385595,
				"y": 1.1222626482,
				"z": -0.0175705293,
				"element": "C" 
			},
			{
				"x": -0.2195350439,
				"y": 0.5956335251,
				"z": -1.6574596107,
				"element": "Cl" 
			},
			{
				"x": -0.693650452,
				"y": 0.2404140355,
				"z": 1.0752152635,
				"element": "C" 
			},
			{
				"x": -1.0416249845,
				"y": 0.8105614978,
				"z": 2.3169070655,
				"element": "C" 
			},
			{
				"x": -1.250191855,
				"y": 2.1703294615,
				"z": 2.486722459,
				"element": "C" 
			},
			{
				"x": -0.4944132631,
				"y": -1.2552106252,
				"z": 1.117194201,
				"element": "C" 
			},
			{
				"x": -0.8833470596,
				"y": -1.88359743,
				"z": 2.0830185713,
				"element": "O" 
			},
			{
				"x": 0.2367861318,
				"y": -1.9903831543,
				"z": -0.0174624268,
				"element": "C" 
			},
			{
				"x": 0.5917499525,
				"y": -3.3601965376,
				"z": 0.3531979832,
				"element": "C" 
			},
			{
				"x": 0.9001779664,
				"y": -4.4494210424,
				"z": 0.6033536022,
				"element": "N" 
			},
			{
				"x": -0.7137947543,
				"y": 3.1483063268,
				"z": -0.7331037438,
				"element": "H" 
			},
			{
				"x": -1.1422138238,
				"y": 0.1321586251,
				"z": 3.1565839477,
				"element": "H" 
			},
			{
				"x": -1.5079042317,
				"y": 2.5782712146,
				"z": 3.45709754,
				"element": "H" 
			},
			{
				"x": 1.1392272059,
				"y": -1.445261412,
				"z": -0.3133609652,
				"element": "H" 
			},
			{
				"x": -0.4039791186,
				"y": -2.0137832479,
				"z": -0.9060105251,
				"element": "H" 
			}
		],
		 "valence_orbital": [ 
			{
				"type": "occ",
				"energy": -0.33021,
				"method": "rhf"
			},
			{
				"type": "occ",
				"energy": -0.32853,
				"method": "rhf"
			},
			{
				"type": "occ",
				"energy": -0.29004,
				"method": "rhf"
			},
			{
				"type": "occ",
				"energy": -0.28547,
				"method": "rhf"
			},
			{
				"type": "occ",
				"energy": -0.27898,
				"method": "rhf"
			},
			{
				"type": "unocc",
				"energy": -0.0905,
				"method": "rhf"
			},
			{
				"type": "unocc",
				"energy": -0.04805,
				"method": "rhf"
			},
			{
				"type": "unocc",
				"energy": -0.01769,
				"method": "rhf"
			},
			{
				"type": "unocc",
				"energy": -0.00287,
				"method": "rhf"
			},
			{
				"type": "unocc",
				"energy": 0.02342,
				"method": "rhf"
			}
		],
		"cosmo_sigma_profile": { 
			"-0.025": 0.0,
			"-0.024": 0.0,
			"-0.023": 0.0,
			"-0.022": 0.0,
			"-0.021": 0.0,
			"-0.02": 0.0,
			"-0.019": 0.0,
			"-0.018": 0.0,
			"-0.017": 0.0,
			"-0.016": 0.0,
			"-0.015": 0.0,
			"-0.014": 0.0,
			"-0.013": 0.0,
			"-0.012": 0.0,
			"-0.011": 0.872968669442,
			"-0.01": 5.38940222844,
			"-0.009": 6.08300427386,
			"-0.008": 7.76066869835,
			"-0.007": 9.01149881742,
			"-0.006": 10.3431050945,
			"-0.005": 8.26366009484,
			"-0.004": 8.89751460989,
			"-0.003": 11.8577744925,
			"-0.002": 15.1557427478,
			"-0.001": 22.0164352434,
			"0.0": 27.0252651135,
			"0.001": 15.1733393475,
			"0.002": 14.4399276775,
			"0.003": 17.1204382612,
			"0.004": 8.36999635527,
			"0.005": 4.07272545737,
			"0.006": 3.75449196379,
			"0.007": 5.21924372911,
			"0.008": 6.08186786889,
			"0.009": 6.84312160961,
			"0.01": 6.50614082156,
			"0.011": 3.81348376607,
			"0.012": 2.30154816834,
			"0.013": 1.17489290518,
			"0.014": 0.00159878578724,
			"0.015": 0.0,
			"0.016": 0.0,
			"0.017": 0.0,
			"0.018": 0.0,
			"0.019": 0.0,
			"0.02": 0.0,
			"0.021": 0.0,
			"0.022": 0.0,
			"0.023": 0.0,
			"0.024": 0.0,
			"0.025": 0.0
		}
	}
}
