{
	 "smiles": "CC1=CC=C(NC(=O)C(O)=O)C=C1", 
	 "Tm": 444.15, 
	 "num_atms": 22, 
	 "gaussian": { 
		 "optdone": 1, 
		 "sigma_profile": "yes", 
		 "theory": "DFT", 
		 "functional": "B3LYP", 
		 "basiset": "6-31G**", 
		 "properties": { 
			 "R2extent": 3961.847, 
			 "electric_dipole_moment_norm": 3.62862565994, 
			 "electric_quadrupole_moment_norm": 9.74195752814, 
			 "total_energy": -628.842908256, 
			 "HOMO_LUMO_gap": 0.16501, 
			 "cosmo_polarized_energy": -11.38, 
			 "cosmo_cavitation_energy": 26.9, 
			 "cosmo_dispersion_energy": -19.95, 
			 "cosmo_repulsion_energy": 1.57, 
			 "cosmo_total_nonelectrostatic_energy": 8.53, 
			 "SMD_solvation_energy": 6.66 
		},
		"coords": [
			{
				"x": 3.4175292717,
				"y": 3.8642563328,
				"z": -1.2582177143,
				"element": "C" 
			},
			{
				"x": 2.2295340914,
				"y": 3.0372761343,
				"z": -0.8280808535,
				"element": "C" 
			},
			{
				"x": 2.1212472532,
				"y": 2.5484012575,
				"z": 0.4802372406,
				"element": "C" 
			},
			{
				"x": 1.0196675623,
				"y": 1.8082596932,
				"z": 0.9056035433,
				"element": "C" 
			},
			{
				"x": -0.0146596198,
				"y": 1.5398184514,
				"z": -0.0011996327,
				"element": "C" 
			},
			{
				"x": -1.1626875189,
				"y": 0.7956028991,
				"z": 0.347060535,
				"element": "N" 
			},
			{
				"x": -1.4898540526,
				"y": 0.231481981,
				"z": 1.5262558704,
				"element": "C" 
			},
			{
				"x": -0.8590286962,
				"y": 0.231514341,
				"z": 2.5858683664,
				"element": "O" 
			},
			{
				"x": -2.8480490144,
				"y": -0.4958673454,
				"z": 1.4684482326,
				"element": "C" 
			},
			{
				"x": -3.1532054637,
				"y": -1.0464456258,
				"z": 2.6395565046,
				"element": "O" 
			},
			{
				"x": -3.5347034148,
				"y": -0.5477055668,
				"z": 0.4723364002,
				"element": "O" 
			},
			{
				"x": 0.075508157,
				"y": 2.0160638588,
				"z": -1.3161130389,
				"element": "C" 
			},
			{
				"x": 1.1848322698,
				"y": 2.7527790364,
				"z": -1.7179996598,
				"element": "C" 
			},
			{
				"x": 3.242180092,
				"y": 4.9331662541,
				"z": -1.0823308983,
				"element": "H" 
			},
			{
				"x": 4.3189837135,
				"y": 3.5882147176,
				"z": -0.7030820447,
				"element": "H" 
			},
			{
				"x": 3.6262313833,
				"y": 3.7413091511,
				"z": -2.3252475291,
				"element": "H" 
			},
			{
				"x": 2.9197474296,
				"y": 2.7481133784,
				"z": 1.1903761489,
				"element": "H" 
			},
			{
				"x": 0.9551692211,
				"y": 1.4372751274,
				"z": 1.9195363286,
				"element": "H" 
			},
			{
				"x": -1.864266819,
				"y": 0.6452141634,
				"z": -0.3719503778,
				"element": "H" 
			},
			{
				"x": -2.4009770718,
				"y": -0.8267538895,
				"z": 3.2321340802,
				"element": "H" 
			},
			{
				"x": -0.7223349298,
				"y": 1.8047403506,
				"z": -2.0241075087,
				"element": "H" 
			},
			{
				"x": 1.2391361563,
				"y": 3.1110852995,
				"z": -2.7426839929,
				"element": "H" 
			}
		],
		 "valence_orbital": [ 
			{
				"type": "occ",
				"energy": -0.33321,
				"method": "rhf"
			},
			{
				"type": "occ",
				"energy": -0.31838,
				"method": "rhf"
			},
			{
				"type": "occ",
				"energy": -0.26992,
				"method": "rhf"
			},
			{
				"type": "occ",
				"energy": -0.26254,
				"method": "rhf"
			},
			{
				"type": "occ",
				"energy": -0.23187,
				"method": "rhf"
			},
			{
				"type": "unocc",
				"energy": -0.06686,
				"method": "rhf"
			},
			{
				"type": "unocc",
				"energy": -0.01351,
				"method": "rhf"
			},
			{
				"type": "unocc",
				"energy": 0.00246,
				"method": "rhf"
			},
			{
				"type": "unocc",
				"energy": 0.07505,
				"method": "rhf"
			},
			{
				"type": "unocc",
				"energy": 0.08221,
				"method": "rhf"
			}
		],
		"cosmo_sigma_profile": { 
			"-0.025": 0.0,
			"-0.024": 0.0,
			"-0.023": 0.0,
			"-0.022": 0.0,
			"-0.021": 0.0,
			"-0.02": 0.0,
			"-0.019": 0.0,
			"-0.018": 0.0,
			"-0.017": 0.0,
			"-0.016": 0.0,
			"-0.015": 0.273139388322,
			"-0.014": 0.795961998339,
			"-0.013": 2.30345409239,
			"-0.012": 2.15367164668,
			"-0.011": 2.0738606185,
			"-0.01": 1.43645088487,
			"-0.009": 1.18489470802,
			"-0.008": 3.48344625031,
			"-0.007": 6.2359658418,
			"-0.006": 8.26967269062,
			"-0.005": 12.3599510993,
			"-0.004": 17.6706310016,
			"-0.003": 14.2136312246,
			"-0.002": 15.5040007497,
			"-0.001": 16.2483361356,
			"0.0": 17.5677167246,
			"0.001": 12.0074263042,
			"0.002": 12.1450296287,
			"0.003": 11.5603454814,
			"0.004": 13.4236311454,
			"0.005": 11.82618169,
			"0.006": 4.4605795014,
			"0.007": 5.26419743414,
			"0.008": 5.86700725781,
			"0.009": 5.66943983863,
			"0.01": 6.82589965626,
			"0.011": 3.37578447756,
			"0.012": 0.67449841139,
			"0.013": 0.0,
			"0.014": 0.0,
			"0.015": 0.0,
			"0.016": 0.0,
			"0.017": 0.0,
			"0.018": 0.0,
			"0.019": 0.0,
			"0.02": 0.0,
			"0.021": 0.0,
			"0.022": 0.0,
			"0.023": 0.0,
			"0.024": 0.0,
			"0.025": 0.0
		}
	}
}
