{
	 "smiles": "CCC1=C(O)C(=O)C=CN1N1CCOCC1", 
	 "Tm": 531.65, 
	 "num_atms": 32, 
	 "gaussian": { 
		 "optdone": 1, 
		 "sigma_profile": "yes", 
		 "theory": "DFT", 
		 "functional": "B3LYP", 
		 "basiset": "6-31G**", 
		 "properties": { 
			 "R2extent": 4342.4735, 
			 "electric_dipole_moment_norm": 5.28270654305, 
			 "electric_quadrupole_moment_norm": 26.2594640914, 
			 "total_energy": -763.924839002, 
			 "HOMO_LUMO_gap": 0.17699, 
			 "cosmo_polarized_energy": -17.57, 
			 "cosmo_cavitation_energy": 33.19, 
			 "cosmo_dispersion_energy": -23.68, 
			 "cosmo_repulsion_energy": 1.84, 
			 "cosmo_total_nonelectrostatic_energy": 11.35, 
			 "SMD_solvation_energy": 6.5 
		},
		"coords": [
			{
				"x": -1.604473919,
				"y": 1.9296454868,
				"z": -2.684720542,
				"element": "C" 
			},
			{
				"x": -1.5206277281,
				"y": 1.9599144766,
				"z": -1.1474172686,
				"element": "C" 
			},
			{
				"x": -0.1104808444,
				"y": 1.9186512434,
				"z": -0.6236653042,
				"element": "C" 
			},
			{
				"x": 0.6050063179,
				"y": 3.0551584951,
				"z": -0.3612752651,
				"element": "C" 
			},
			{
				"x": 0.0862804915,
				"y": 4.2902342027,
				"z": -0.5424562232,
				"element": "O" 
			},
			{
				"x": 1.9799469807,
				"y": 3.0553210012,
				"z": 0.1361146517,
				"element": "C" 
			},
			{
				"x": 2.5273857908,
				"y": 4.1586907485,
				"z": 0.3460250666,
				"element": "O" 
			},
			{
				"x": 2.5504329539,
				"y": 1.749220091,
				"z": 0.3289658169,
				"element": "C" 
			},
			{
				"x": 1.8138887754,
				"y": 0.6315943412,
				"z": 0.0566963751,
				"element": "C" 
			},
			{
				"x": 0.5288957417,
				"y": 0.6921204393,
				"z": -0.4118233799,
				"element": "N" 
			},
			{
				"x": -0.1892802693,
				"y": -0.4903498268,
				"z": -0.6707579287,
				"element": "N" 
			},
			{
				"x": -0.526676275,
				"y": -1.2389540911,
				"z": 0.5486053875,
				"element": "C" 
			},
			{
				"x": -1.1688694672,
				"y": -2.5601818165,
				"z": 0.1395963952,
				"element": "C" 
			},
			{
				"x": -0.2925573815,
				"y": -3.3963166548,
				"z": -0.617215691,
				"element": "O" 
			},
			{
				"x": 0.7759342274,
				"y": -2.7127212168,
				"z": -1.2597889991,
				"element": "C" 
			},
			{
				"x": 0.3616628518,
				"y": -1.3300109883,
				"z": -1.763605465,
				"element": "C" 
			},
			{
				"x": -1.058813445,
				"y": 2.7729647676,
				"z": -3.117488431,
				"element": "H" 
			},
			{
				"x": -1.1819332634,
				"y": 1.0048675183,
				"z": -3.0894208587,
				"element": "H" 
			},
			{
				"x": -2.6471353663,
				"y": 1.9946084822,
				"z": -3.0123508694,
				"element": "H" 
			},
			{
				"x": -2.0951749128,
				"y": 1.1278482266,
				"z": -0.7324617136,
				"element": "H" 
			},
			{
				"x": -1.967429811,
				"y": 2.8897568808,
				"z": -0.784282972,
				"element": "H" 
			},
			{
				"x": 0.8333074137,
				"y": 4.8675371907,
				"z": -0.2553223565,
				"element": "H" 
			},
			{
				"x": 3.5667015569,
				"y": 1.6583492158,
				"z": 0.6941544092,
				"element": "H" 
			},
			{
				"x": 2.2090146983,
				"y": -0.3681788565,
				"z": 0.193109248,
				"element": "H" 
			},
			{
				"x": -1.234532608,
				"y": -0.6485526039,
				"z": 1.1403402008,
				"element": "H" 
			},
			{
				"x": 0.351639909,
				"y": -1.4339813458,
				"z": 1.1848207069,
				"element": "H" 
			},
			{
				"x": -2.0780273411,
				"y": -2.3526111398,
				"z": -0.444127911,
				"element": "H" 
			},
			{
				"x": -1.4625974337,
				"y": -3.1199751476,
				"z": 1.0336322745,
				"element": "H" 
			},
			{
				"x": 1.0877220116,
				"y": -3.33861459,
				"z": -2.1020212736,
				"element": "H" 
			},
			{
				"x": 1.6396496979,
				"y": -2.6254101011,
				"z": -0.5805073067,
				"element": "H" 
			},
			{
				"x": -0.4023661237,
				"y": -1.4433059087,
				"z": -2.5426171734,
				"element": "H" 
			},
			{
				"x": 1.219606771,
				"y": -0.82301852,
				"z": -2.2142335996,
				"element": "H" 
			}
		],
		 "valence_orbital": [ 
			{
				"type": "occ",
				"energy": -0.27094,
				"method": "rhf"
			},
			{
				"type": "occ",
				"energy": -0.25642,
				"method": "rhf"
			},
			{
				"type": "occ",
				"energy": -0.25032,
				"method": "rhf"
			},
			{
				"type": "occ",
				"energy": -0.2375,
				"method": "rhf"
			},
			{
				"type": "occ",
				"energy": -0.19973,
				"method": "rhf"
			},
			{
				"type": "unocc",
				"energy": -0.02274,
				"method": "rhf"
			},
			{
				"type": "unocc",
				"energy": 0.0038,
				"method": "rhf"
			},
			{
				"type": "unocc",
				"energy": 0.05335,
				"method": "rhf"
			},
			{
				"type": "unocc",
				"energy": 0.06351,
				"method": "rhf"
			},
			{
				"type": "unocc",
				"energy": 0.08273,
				"method": "rhf"
			}
		],
		"cosmo_sigma_profile": { 
			"-0.025": 0.0,
			"-0.024": 0.0,
			"-0.023": 0.0,
			"-0.022": 0.0,
			"-0.021": 0.0,
			"-0.02": 0.0,
			"-0.019": 0.0,
			"-0.018": 0.0,
			"-0.017": 0.0,
			"-0.016": 0.0,
			"-0.015": 0.0,
			"-0.014": 0.0,
			"-0.013": 0.0,
			"-0.012": 0.0,
			"-0.011": 0.209483974264,
			"-0.01": 0.664977155973,
			"-0.009": 3.460591373,
			"-0.008": 3.6371458659,
			"-0.007": 4.97253394294,
			"-0.006": 12.4623840891,
			"-0.005": 20.7749175647,
			"-0.004": 28.0160989469,
			"-0.003": 28.4168514732,
			"-0.002": 22.8206560457,
			"-0.001": 20.3001154028,
			"0.0": 19.3087309313,
			"0.001": 21.1035594577,
			"0.002": 12.6718284159,
			"0.003": 10.1101625775,
			"0.004": 7.78909233051,
			"0.005": 4.42465124672,
			"0.006": 4.23832562043,
			"0.007": 3.56320439223,
			"0.008": 3.68719773295,
			"0.009": 4.24316154915,
			"0.01": 4.24916782461,
			"0.011": 3.80909191007,
			"0.012": 2.92470769254,
			"0.013": 4.31911619809,
			"0.014": 3.10920093514,
			"0.015": 3.21767204852,
			"0.016": 1.60286363717,
			"0.017": 0.146920156934,
			"0.018": 0.0,
			"0.019": 0.0,
			"0.02": 0.0,
			"0.021": 0.0,
			"0.022": 0.0,
			"0.023": 0.0,
			"0.024": 0.0,
			"0.025": 0.0
		}
	}
}
