{
	 "smiles": "OC(=O)CC1=CSC(=N1)C1=CC(Cl)=CC=C1", 
	 "Tm": 379.15, 
	 "num_atms": 24, 
	 "gaussian": { 
		 "optdone": 1, 
		 "sigma_profile": "yes", 
		 "theory": "DFT", 
		 "functional": "B3LYP", 
		 "basiset": "6-31G**", 
		 "properties": { 
			 "R2extent": 6147.3335, 
			 "electric_dipole_moment_norm": 4.78136641871, 
			 "electric_quadrupole_moment_norm": 37.5753713252, 
			 "total_energy": -1487.58743871, 
			 "HOMO_LUMO_gap": 0.16251, 
			 "cosmo_polarized_energy": -14.24, 
			 "cosmo_cavitation_energy": 32.51, 
			 "cosmo_dispersion_energy": -24.24, 
			 "cosmo_repulsion_energy": 1.84, 
			 "cosmo_total_nonelectrostatic_energy": 10.11, 
			 "SMD_solvation_energy": 5.73 
		},
		"coords": [
			{
				"x": 3.6279490141,
				"y": -1.5465586617,
				"z": 0.6358762422,
				"element": "O" 
			},
			{
				"x": 3.645552485,
				"y": -2.8881217808,
				"z": 0.6873754105,
				"element": "C" 
			},
			{
				"x": 4.6304256306,
				"y": -3.528090353,
				"z": 0.4085907821,
				"element": "O" 
			},
			{
				"x": 2.3601809688,
				"y": -3.5661327533,
				"z": 1.2006794147,
				"element": "C" 
			},
			{
				"x": 1.063723912,
				"y": -2.9283601756,
				"z": 0.7829617217,
				"element": "C" 
			},
			{
				"x": -0.0287898353,
				"y": -3.561928208,
				"z": 0.2598887301,
				"element": "C" 
			},
			{
				"x": -1.2993510085,
				"y": -2.4241696255,
				"z": -0.0383059258,
				"element": "S" 
			},
			{
				"x": -0.2592654355,
				"y": -1.1349934571,
				"z": 0.5475583912,
				"element": "C" 
			},
			{
				"x": 0.9163471937,
				"y": -1.5660519868,
				"z": 0.9387602825,
				"element": "N" 
			},
			{
				"x": -0.6834592981,
				"y": 0.270047992,
				"z": 0.6044810099,
				"element": "C" 
			},
			{
				"x": -1.8331498073,
				"y": 0.7106189756,
				"z": -0.0705438437,
				"element": "C" 
			},
			{
				"x": -2.2061177538,
				"y": 2.0487799279,
				"z": 0.009547451,
				"element": "C" 
			},
			{
				"x": -3.6448923166,
				"y": 2.5866110199,
				"z": -0.8403994873,
				"element": "Cl" 
			},
			{
				"x": -1.4580238879,
				"y": 2.9698729853,
				"z": 0.7429625815,
				"element": "C" 
			},
			{
				"x": -0.3136967672,
				"y": 2.5264838362,
				"z": 1.4088630374,
				"element": "C" 
			},
			{
				"x": 0.0749948634,
				"y": 1.1917300024,
				"z": 1.3465388841,
				"element": "C" 
			},
			{
				"x": 2.7224491362,
				"y": -1.2178396002,
				"z": 0.8399895222,
				"element": "H" 
			},
			{
				"x": 2.4021111278,
				"y": -4.6109947116,
				"z": 0.8919359981,
				"element": "H" 
			},
			{
				"x": 2.4284524663,
				"y": -3.5511455495,
				"z": 2.2980576908,
				"element": "H" 
			},
			{
				"x": -0.1556631563,
				"y": -4.6122048106,
				"z": 0.0404428283,
				"element": "H" 
			},
			{
				"x": -2.4287731836,
				"y": 0.0276300058,
				"z": -0.6666424194,
				"element": "H" 
			},
			{
				"x": -1.7666009628,
				"y": 4.0081092579,
				"z": 0.7887144405,
				"element": "H" 
			},
			{
				"x": 0.2760840692,
				"y": 3.2328624579,
				"z": 1.9847977357,
				"element": "H" 
			},
			{
				"x": 0.9575125457,
				"y": 0.8479452128,
				"z": 1.8730695217,
				"element": "H" 
			}
		],
		 "valence_orbital": [ 
			{
				"type": "occ",
				"energy": -0.30495,
				"method": "rhf"
			},
			{
				"type": "occ",
				"energy": -0.29772,
				"method": "rhf"
			},
			{
				"type": "occ",
				"energy": -0.2701,
				"method": "rhf"
			},
			{
				"type": "occ",
				"energy": -0.26174,
				"method": "rhf"
			},
			{
				"type": "occ",
				"energy": -0.24334,
				"method": "rhf"
			},
			{
				"type": "unocc",
				"energy": -0.08083,
				"method": "rhf"
			},
			{
				"type": "unocc",
				"energy": -0.03291,
				"method": "rhf"
			},
			{
				"type": "unocc",
				"energy": -0.00866,
				"method": "rhf"
			},
			{
				"type": "unocc",
				"energy": -0.00277,
				"method": "rhf"
			},
			{
				"type": "unocc",
				"energy": 0.01638,
				"method": "rhf"
			}
		],
		"cosmo_sigma_profile": { 
			"-0.025": 0.0,
			"-0.024": 0.0,
			"-0.023": 0.0,
			"-0.022": 0.0,
			"-0.021": 0.0,
			"-0.02": 0.0,
			"-0.019": 0.0,
			"-0.018": 0.0,
			"-0.017": 0.0,
			"-0.016": 0.0,
			"-0.015": 0.0,
			"-0.014": 0.0,
			"-0.013": 0.0,
			"-0.012": 0.0,
			"-0.011": 0.0,
			"-0.01": 1.38510281203,
			"-0.009": 2.41159686384,
			"-0.008": 7.83421654856,
			"-0.007": 13.0689453833,
			"-0.006": 15.4673951158,
			"-0.005": 14.4866121674,
			"-0.004": 14.7420538205,
			"-0.003": 15.6614577601,
			"-0.002": 17.4874604873,
			"-0.001": 21.0480128051,
			"0.0": 23.7478026243,
			"0.001": 28.6473447712,
			"0.002": 26.0192720942,
			"0.003": 16.0366815804,
			"0.004": 12.5118050635,
			"0.005": 6.27166347561,
			"0.006": 2.16971974689,
			"0.007": 1.76747097507,
			"0.008": 2.79441273786,
			"0.009": 2.80729888625,
			"0.01": 4.1195415856,
			"0.011": 5.65913477058,
			"0.012": 6.11426395045,
			"0.013": 3.43575721132,
			"0.014": 0.450092614725,
			"0.015": 0.0,
			"0.016": 0.0,
			"0.017": 0.0,
			"0.018": 0.0,
			"0.019": 0.0,
			"0.02": 0.0,
			"0.021": 0.0,
			"0.022": 0.0,
			"0.023": 0.0,
			"0.024": 0.0,
			"0.025": 0.0
		}
	}
}
