{
	 "smiles": "CC1=CC=C(C=C1)S(=O)(=O)N1C=CC2=C1C=CC=C2", 
	 "Tm": 358.15, 
	 "num_atms": 32, 
	 "gaussian": { 
		 "optdone": 1, 
		 "sigma_profile": "yes", 
		 "theory": "DFT", 
		 "functional": "B3LYP", 
		 "basiset": "6-31G**", 
		 "properties": { 
			 "R2extent": 5714.7972, 
			 "electric_dipole_moment_norm": 5.4188665134, 
			 "electric_quadrupole_moment_norm": 19.8271966248, 
			 "total_energy": -1182.75109803, 
			 "HOMO_LUMO_gap": 0.16828, 
			 "cosmo_polarized_energy": -11.95, 
			 "cosmo_cavitation_energy": 36.98, 
			 "cosmo_dispersion_energy": -26.5, 
			 "cosmo_repulsion_energy": 1.98, 
			 "cosmo_total_nonelectrostatic_energy": 12.45, 
			 "SMD_solvation_energy": 5.59 
		},
		"coords": [
			{
				"x": -4.1307311478,
				"y": -1.5859002491,
				"z": -3.5501905938,
				"element": "C" 
			},
			{
				"x": -3.426904544,
				"y": -0.649044524,
				"z": -2.5991003124,
				"element": "C" 
			},
			{
				"x": -2.695969483,
				"y": 0.4468859661,
				"z": -3.0824625993,
				"element": "C" 
			},
			{
				"x": -2.0190852502,
				"y": 1.3009355993,
				"z": -2.2160952058,
				"element": "C" 
			},
			{
				"x": -2.0755221468,
				"y": 1.0551439738,
				"z": -0.8420354624,
				"element": "C" 
			},
			{
				"x": -2.8051509222,
				"y": -0.0192641826,
				"z": -0.3297925294,
				"element": "C" 
			},
			{
				"x": -3.4749654755,
				"y": -0.862163382,
				"z": -1.2140876811,
				"element": "C" 
			},
			{
				"x": -1.1964754848,
				"y": 2.1399248037,
				"z": 0.2750035746,
				"element": "S" 
			},
			{
				"x": -1.0099880715,
				"y": 3.4308586122,
				"z": -0.3830928987,
				"element": "O" 
			},
			{
				"x": -1.7825136094,
				"y": 2.0113196321,
				"z": 1.6062764047,
				"element": "O" 
			},
			{
				"x": 0.3776344337,
				"y": 1.4701923552,
				"z": 0.3781099004,
				"element": "N" 
			},
			{
				"x": 1.3804046283,
				"y": 1.7719433455,
				"z": -0.5580046393,
				"element": "C" 
			},
			{
				"x": 2.3922056994,
				"y": 0.870583353,
				"z": -0.4451696397,
				"element": "C" 
			},
			{
				"x": 2.0281476335,
				"y": -0.0733938819,
				"z": 0.5827440824,
				"element": "C" 
			},
			{
				"x": 0.7563220907,
				"y": 0.3108796264,
				"z": 1.0812954387,
				"element": "C" 
			},
			{
				"x": 0.1158942489,
				"y": -0.3885258756,
				"z": 2.1076094123,
				"element": "C" 
			},
			{
				"x": 0.7698138792,
				"y": -1.5051408776,
				"z": 2.622299883,
				"element": "C" 
			},
			{
				"x": 2.0294003852,
				"y": -1.9068433246,
				"z": 2.1407471866,
				"element": "C" 
			},
			{
				"x": 2.6670204683,
				"y": -1.1965911281,
				"z": 1.1305535919,
				"element": "C" 
			},
			{
				"x": -4.4724176988,
				"y": -1.0629157155,
				"z": -4.4480424939,
				"element": "H" 
			},
			{
				"x": -3.4569238314,
				"y": -2.3878584253,
				"z": -3.8764779466,
				"element": "H" 
			},
			{
				"x": -4.9967533512,
				"y": -2.0591581466,
				"z": -3.079114943,
				"element": "H" 
			},
			{
				"x": -2.6633057199,
				"y": 0.6385523903,
				"z": -4.1515693755,
				"element": "H" 
			},
			{
				"x": -1.4733982515,
				"y": 2.1590724866,
				"z": -2.5924023739,
				"element": "H" 
			},
			{
				"x": -2.8621356624,
				"y": -0.1766375586,
				"z": 0.7409422142,
				"element": "H" 
			},
			{
				"x": -4.050516957,
				"y": -1.6955398111,
				"z": -0.8205973703,
				"element": "H" 
			},
			{
				"x": 1.2682730794,
				"y": 2.6406708583,
				"z": -1.1877243384,
				"element": "H" 
			},
			{
				"x": 3.3124523969,
				"y": 0.8830319179,
				"z": -1.0124796016,
				"element": "H" 
			},
			{
				"x": -0.8365283057,
				"y": -0.0581136807,
				"z": 2.5029959105,
				"element": "H" 
			},
			{
				"x": 0.2998000536,
				"y": -2.0695487068,
				"z": 3.4222276618,
				"element": "H" 
			},
			{
				"x": 2.5115999239,
				"y": -2.778871737,
				"z": 2.5726170532,
				"element": "H" 
			},
			{
				"x": 3.6447169923,
				"y": -1.5015837134,
				"z": 0.7684176911,
				"element": "H" 
			}
		],
		 "valence_orbital": [ 
			{
				"type": "occ",
				"energy": -0.28807,
				"method": "rhf"
			},
			{
				"type": "occ",
				"energy": -0.27495,
				"method": "rhf"
			},
			{
				"type": "occ",
				"energy": -0.26813,
				"method": "rhf"
			},
			{
				"type": "occ",
				"energy": -0.23188,
				"method": "rhf"
			},
			{
				"type": "occ",
				"energy": -0.2159,
				"method": "rhf"
			},
			{
				"type": "unocc",
				"energy": -0.04762,
				"method": "rhf"
			},
			{
				"type": "unocc",
				"energy": -0.02586,
				"method": "rhf"
			},
			{
				"type": "unocc",
				"energy": -0.01622,
				"method": "rhf"
			},
			{
				"type": "unocc",
				"energy": 0.00997,
				"method": "rhf"
			},
			{
				"type": "unocc",
				"energy": 0.04765,
				"method": "rhf"
			}
		],
		"cosmo_sigma_profile": { 
			"-0.025": 0.0,
			"-0.024": 0.0,
			"-0.023": 0.0,
			"-0.022": 0.0,
			"-0.021": 0.0,
			"-0.02": 0.0,
			"-0.019": 0.0,
			"-0.018": 0.0,
			"-0.017": 0.0,
			"-0.016": 0.0,
			"-0.015": 0.0,
			"-0.014": 0.0,
			"-0.013": 0.0,
			"-0.012": 0.0,
			"-0.011": 0.0,
			"-0.01": 0.0,
			"-0.009": 0.217233954646,
			"-0.008": 1.3528090608,
			"-0.007": 7.27855012218,
			"-0.006": 16.4167372458,
			"-0.005": 27.299627923,
			"-0.004": 24.3898108018,
			"-0.003": 21.7450960892,
			"-0.002": 20.8926264961,
			"-0.001": 23.1125538245,
			"0.0": 22.1053760655,
			"0.001": 21.7087448209,
			"0.002": 24.4127807405,
			"0.003": 24.796042554,
			"0.004": 18.3567542767,
			"0.005": 14.1492413138,
			"0.006": 6.9255908832,
			"0.007": 3.07791274177,
			"0.008": 3.17630024985,
			"0.009": 6.14829844223,
			"0.01": 7.44669387877,
			"0.011": 1.84866871483,
			"0.012": 0.0,
			"0.013": 0.0,
			"0.014": 0.0,
			"0.015": 0.0,
			"0.016": 0.0,
			"0.017": 0.0,
			"0.018": 0.0,
			"0.019": 0.0,
			"0.02": 0.0,
			"0.021": 0.0,
			"0.022": 0.0,
			"0.023": 0.0,
			"0.024": 0.0,
			"0.025": 0.0
		}
	}
}
