{
	 "smiles": "OC(=O)CCCCCCCCCCCCC1CCC=C1", 
	 "Tm": 341.65, 
	 "num_atms": 52, 
	 "gaussian": { 
		 "optdone": 1, 
		 "sigma_profile": "yes", 
		 "theory": "DFT", 
		 "functional": "B3LYP", 
		 "basiset": "6-31G**", 
		 "properties": { 
			 "R2extent": 11784.032, 
			 "electric_dipole_moment_norm": 4.63565043764, 
			 "electric_quadrupole_moment_norm": 35.9837359389, 
			 "total_energy": -855.668954302, 
			 "HOMO_LUMO_gap": 0.24839, 
			 "cosmo_polarized_energy": -14.2, 
			 "cosmo_cavitation_energy": 51.53, 
			 "cosmo_dispersion_energy": -34.01, 
			 "cosmo_repulsion_energy": 2.74, 
			 "cosmo_total_nonelectrostatic_energy": 20.26, 
			 "SMD_solvation_energy": 7.76 
		},
		"coords": [
			{
				"x": -5.5586294094,
				"y": -1.7193851009,
				"z": 4.4470080811,
				"element": "O" 
			},
			{
				"x": -5.0626843751,
				"y": -0.5661016849,
				"z": 3.9144883204,
				"element": "C" 
			},
			{
				"x": -5.6386257165,
				"y": 0.4756440656,
				"z": 4.1014785975,
				"element": "O" 
			},
			{
				"x": -3.7826857696,
				"y": -0.7097668364,
				"z": 3.1014672524,
				"element": "C" 
			},
			{
				"x": -2.612047526,
				"y": -1.3532085958,
				"z": 3.8691769822,
				"element": "C" 
			},
			{
				"x": -1.3194672035,
				"y": -1.3999825171,
				"z": 3.0442187306,
				"element": "C" 
			},
			{
				"x": -0.1489162479,
				"y": -2.0450837704,
				"z": 3.7996166001,
				"element": "C" 
			},
			{
				"x": 1.1496049493,
				"y": -2.1669008745,
				"z": 2.9850507976,
				"element": "C" 
			},
			{
				"x": 1.8098206379,
				"y": -0.8298825408,
				"z": 2.6185450936,
				"element": "C" 
			},
			{
				"x": 3.1605029766,
				"y": -1.0085629355,
				"z": 1.9072187977,
				"element": "C" 
			},
			{
				"x": 3.8883512937,
				"y": 0.3008668086,
				"z": 1.5305729388,
				"element": "C" 
			},
			{
				"x": 3.5966997637,
				"y": 0.91007377,
				"z": 0.144259579,
				"element": "C" 
			},
			{
				"x": 2.1630590443,
				"y": 1.4289374881,
				"z": -0.1141117942,
				"element": "C" 
			},
			{
				"x": 1.1966653221,
				"y": 0.4304111683,
				"z": -0.7815312462,
				"element": "C" 
			},
			{
				"x": 1.4908167096,
				"y": 0.1814826736,
				"z": -2.2683163016,
				"element": "C" 
			},
			{
				"x": 0.5466560318,
				"y": -0.8392239334,
				"z": -2.9269100575,
				"element": "C" 
			},
			{
				"x": -0.9413056463,
				"y": -0.389016122,
				"z": -3.0051526947,
				"element": "C" 
			},
			{
				"x": -1.483242694,
				"y": -0.9343585615,
				"z": -4.3522274559,
				"element": "C" 
			},
			{
				"x": -0.2216436584,
				"y": -1.1815867313,
				"z": -5.1476239087,
				"element": "C" 
			},
			{
				"x": 0.8687466123,
				"y": -1.1357034985,
				"z": -4.3788983121,
				"element": "C" 
			},
			{
				"x": -4.993087195,
				"y": -2.4674774623,
				"z": 4.2093806825,
				"element": "H" 
			},
			{
				"x": -4.0055081595,
				"y": -1.3034277849,
				"z": 2.2034011664,
				"element": "H" 
			},
			{
				"x": -3.5132730943,
				"y": 0.2945153094,
				"z": 2.7668092593,
				"element": "H" 
			},
			{
				"x": -2.4370692071,
				"y": -0.792994561,
				"z": 4.7963625015,
				"element": "H" 
			},
			{
				"x": -2.870916876,
				"y": -2.3768135733,
				"z": 4.1786326125,
				"element": "H" 
			},
			{
				"x": -1.0562986342,
				"y": -0.3784926793,
				"z": 2.7426019725,
				"element": "H" 
			},
			{
				"x": -1.5020462401,
				"y": -1.9560463516,
				"z": 2.1132857159,
				"element": "H" 
			},
			{
				"x": -0.4530953643,
				"y": -3.0476649816,
				"z": 4.1304083532,
				"element": "H" 
			},
			{
				"x": 0.0502124337,
				"y": -1.4714994181,
				"z": 4.7159648479,
				"element": "H" 
			},
			{
				"x": 0.9486780838,
				"y": -2.7375768379,
				"z": 2.0667116832,
				"element": "H" 
			},
			{
				"x": 1.8671758646,
				"y": -2.7674437537,
				"z": 3.5603335776,
				"element": "H" 
			},
			{
				"x": 1.9683191067,
				"y": -0.2434639128,
				"z": 3.5352149636,
				"element": "H" 
			},
			{
				"x": 1.1313653028,
				"y": -0.2381230354,
				"z": 1.9946963209,
				"element": "H" 
			},
			{
				"x": 3.0289990282,
				"y": -1.6288339953,
				"z": 1.009382758,
				"element": "H" 
			},
			{
				"x": 3.810967549,
				"y": -1.5911800697,
				"z": 2.5735089389,
				"element": "H" 
			},
			{
				"x": 3.6898999257,
				"y": 1.056604633,
				"z": 2.3041617728,
				"element": "H" 
			},
			{
				"x": 4.9691490369,
				"y": 0.1149439478,
				"z": 1.5725711709,
				"element": "H" 
			},
			{
				"x": 3.8701719765,
				"y": 0.1784942295,
				"z": -0.6282094749,
				"element": "H" 
			},
			{
				"x": 4.2961336747,
				"y": 1.7451984802,
				"z": 0.0126626545,
				"element": "H" 
			},
			{
				"x": 2.2168193105,
				"y": 2.3181093978,
				"z": -0.7563122203,
				"element": "H" 
			},
			{
				"x": 1.7331208957,
				"y": 1.7789748604,
				"z": 0.8331905959,
				"element": "H" 
			},
			{
				"x": 1.2137621873,
				"y": -0.5294477038,
				"z": -0.2488982036,
				"element": "H" 
			},
			{
				"x": 0.1723714567,
				"y": 0.8130252803,
				"z": -0.6828367952,
				"element": "H" 
			},
			{
				"x": 2.5249615163,
				"y": -0.16896626,
				"z": -2.3869668503,
				"element": "H" 
			},
			{
				"x": 1.4260684874,
				"y": 1.1319028323,
				"z": -2.817206125,
				"element": "H" 
			},
			{
				"x": 0.6223745785,
				"y": -1.7775735311,
				"z": -2.3505955035,
				"element": "H" 
			},
			{
				"x": -1.5328824585,
				"y": -0.7187296652,
				"z": -2.1462420302,
				"element": "H" 
			},
			{
				"x": -0.9764680073,
				"y": 0.7072716391,
				"z": -3.0205996588,
				"element": "H" 
			},
			{
				"x": -2.0430458082,
				"y": -1.8719892697,
				"z": -4.2174271512,
				"element": "H" 
			},
			{
				"x": -2.1720118573,
				"y": -0.2356807626,
				"z": -4.8424861675,
				"element": "H" 
			},
			{
				"x": -0.2296153284,
				"y": -1.4103807831,
				"z": -6.2095827776,
				"element": "H" 
			},
			{
				"x": 1.8838927209,
				"y": -1.3201864884,
				"z": -4.72114859,
				"element": "H" 
			}
		],
		 "valence_orbital": [ 
			{
				"type": "occ",
				"energy": -0.30862,
				"method": "rhf"
			},
			{
				"type": "occ",
				"energy": -0.30366,
				"method": "rhf"
			},
			{
				"type": "occ",
				"energy": -0.29931,
				"method": "rhf"
			},
			{
				"type": "occ",
				"energy": -0.26358,
				"method": "rhf"
			},
			{
				"type": "occ",
				"energy": -0.23605,
				"method": "rhf"
			},
			{
				"type": "unocc",
				"energy": 0.01234,
				"method": "rhf"
			},
			{
				"type": "unocc",
				"energy": 0.02687,
				"method": "rhf"
			},
			{
				"type": "unocc",
				"energy": 0.04654,
				"method": "rhf"
			},
			{
				"type": "unocc",
				"energy": 0.07161,
				"method": "rhf"
			},
			{
				"type": "unocc",
				"energy": 0.0859,
				"method": "rhf"
			}
		],
		"cosmo_sigma_profile": { 
			"-0.025": 0.0,
			"-0.024": 0.0,
			"-0.023": 0.0,
			"-0.022": 0.0,
			"-0.021": 0.0,
			"-0.02": 0.0,
			"-0.019": 0.0,
			"-0.018": 0.494916809925,
			"-0.017": 0.659059869545,
			"-0.016": 0.932323628042,
			"-0.015": 1.07455208199,
			"-0.014": 1.53965570982,
			"-0.013": 0.958413686507,
			"-0.012": 0.886593784185,
			"-0.011": 0.942655505918,
			"-0.01": 1.40778171465,
			"-0.009": 1.1215381629,
			"-0.008": 1.10733955991,
			"-0.007": 2.01620858211,
			"-0.006": 3.97130820911,
			"-0.005": 4.94008368631,
			"-0.004": 12.2051263268,
			"-0.003": 19.874776374,
			"-0.002": 51.7927981104,
			"-0.001": 83.456955321,
			"0.0": 80.9646297502,
			"0.001": 52.7865672295,
			"0.002": 22.6890720569,
			"0.003": 6.63464889278,
			"0.004": 4.91032510984,
			"0.005": 4.59776947587,
			"0.006": 4.30496841556,
			"0.007": 4.42688461648,
			"0.008": 2.86635233801,
			"0.009": 3.15603952439,
			"0.01": 4.06991395563,
			"0.011": 5.99079241653,
			"0.012": 5.83557367751,
			"0.013": 3.4688109189,
			"0.014": 0.36457566759,
			"0.015": 0.0,
			"0.016": 0.0,
			"0.017": 0.0,
			"0.018": 0.0,
			"0.019": 0.0,
			"0.02": 0.0,
			"0.021": 0.0,
			"0.022": 0.0,
			"0.023": 0.0,
			"0.024": 0.0,
			"0.025": 0.0
		}
	}
}
