{
	 "smiles": "CC1=C(C=NN1C1=CC=C(Cl)C=C1)S(Cl)(=O)=O", 
	 "Tm": 393.15, 
	 "num_atms": 25, 
	 "gaussian": { 
		 "optdone": 1, 
		 "sigma_profile": "yes", 
		 "theory": "DFT", 
		 "functional": "B3LYP", 
		 "basiset": "6-31G**", 
		 "properties": { 
			 "R2extent": 9219.2104, 
			 "electric_dipole_moment_norm": 4.74964348346, 
			 "electric_quadrupole_moment_norm": 28.2150870892, 
			 "total_energy": -1964.32231084, 
			 "HOMO_LUMO_gap": 0.17426, 
			 "cosmo_polarized_energy": -12.59, 
			 "cosmo_cavitation_energy": 35.01, 
			 "cosmo_dispersion_energy": -25.64, 
			 "cosmo_repulsion_energy": 1.94, 
			 "cosmo_total_nonelectrostatic_energy": 11.31, 
			 "SMD_solvation_energy": 3.81 
		},
		"coords": [
			{
				"x": 1.0463921658,
				"y": -0.4245330914,
				"z": -1.2793451939,
				"element": "C" 
			},
			{
				"x": 1.5307000759,
				"y": 0.8576351811,
				"z": -0.6844496642,
				"element": "C" 
			},
			{
				"x": 2.8281325558,
				"y": 1.3300235367,
				"z": -0.4828622783,
				"element": "C" 
			},
			{
				"x": 2.7083304842,
				"y": 2.5835048916,
				"z": 0.163379841,
				"element": "C" 
			},
			{
				"x": 1.4395376549,
				"y": 2.8817550258,
				"z": 0.3668077717,
				"element": "N" 
			},
			{
				"x": 0.7325535604,
				"y": 1.8341644874,
				"z": -0.1644378189,
				"element": "N" 
			},
			{
				"x": -0.6908613926,
				"y": 1.865243108,
				"z": -0.0623635429,
				"element": "C" 
			},
			{
				"x": -1.2683001999,
				"y": 2.2819987682,
				"z": 1.1408966364,
				"element": "C" 
			},
			{
				"x": -2.6536655881,
				"y": 2.3376408457,
				"z": 1.2613296363,
				"element": "C" 
			},
			{
				"x": -3.4524511277,
				"y": 1.9692712238,
				"z": 0.1769475329,
				"element": "C" 
			},
			{
				"x": -5.1971426917,
				"y": 2.0279282236,
				"z": 0.3309749611,
				"element": "Cl" 
			},
			{
				"x": -2.8834507163,
				"y": 1.5628537127,
				"z": -1.0293521551,
				"element": "C" 
			},
			{
				"x": -1.4951302978,
				"y": 1.5208988225,
				"z": -1.1514514747,
				"element": "C" 
			},
			{
				"x": 4.331583245,
				"y": 0.5610078601,
				"z": -0.9120161585,
				"element": "S" 
			},
			{
				"x": 4.4993865051,
				"y": 1.0218071832,
				"z": -2.9970961805,
				"element": "Cl" 
			},
			{
				"x": 5.4187248894,
				"y": 1.271691262,
				"z": -0.2528372484,
				"element": "O" 
			},
			{
				"x": 4.1984610247,
				"y": -0.8908463368,
				"z": -0.8495513952,
				"element": "O" 
			},
			{
				"x": 0.1149548301,
				"y": -0.7492823179,
				"z": -0.8100958474,
				"element": "H" 
			},
			{
				"x": 0.8674991975,
				"y": -0.3225350128,
				"z": -2.355833045,
				"element": "H" 
			},
			{
				"x": 1.806651669,
				"y": -1.1946966701,
				"z": -1.14348779,
				"element": "H" 
			},
			{
				"x": 3.4995002616,
				"y": 3.2467327026,
				"z": 0.4820965896,
				"element": "H" 
			},
			{
				"x": -0.627990116,
				"y": 2.5671708863,
				"z": 1.9671646789,
				"element": "H" 
			},
			{
				"x": -3.1117272967,
				"y": 2.6583034826,
				"z": 2.1900061901,
				"element": "H" 
			},
			{
				"x": -3.5162568159,
				"y": 1.2986664535,
				"z": -1.868816023,
				"element": "H" 
			},
			{
				"x": -1.0476318766,
				"y": 1.2448957716,
				"z": -2.0992080219,
				"element": "H" 
			}
		],
		 "valence_orbital": [ 
			{
				"type": "occ",
				"energy": -0.31249,
				"method": "rhf"
			},
			{
				"type": "occ",
				"energy": -0.30666,
				"method": "rhf"
			},
			{
				"type": "occ",
				"energy": -0.29111,
				"method": "rhf"
			},
			{
				"type": "occ",
				"energy": -0.28265,
				"method": "rhf"
			},
			{
				"type": "occ",
				"energy": -0.26088,
				"method": "rhf"
			},
			{
				"type": "unocc",
				"energy": -0.08662,
				"method": "rhf"
			},
			{
				"type": "unocc",
				"energy": -0.05286,
				"method": "rhf"
			},
			{
				"type": "unocc",
				"energy": -0.04149,
				"method": "rhf"
			},
			{
				"type": "unocc",
				"energy": -0.0114,
				"method": "rhf"
			},
			{
				"type": "unocc",
				"energy": 0.00342,
				"method": "rhf"
			}
		],
		"cosmo_sigma_profile": { 
			"-0.025": 0.0,
			"-0.024": 0.0,
			"-0.023": 0.0,
			"-0.022": 0.0,
			"-0.021": 0.0,
			"-0.02": 0.0,
			"-0.019": 0.0,
			"-0.018": 0.0,
			"-0.017": 0.0,
			"-0.016": 0.0,
			"-0.015": 0.0,
			"-0.014": 0.0,
			"-0.013": 0.0,
			"-0.012": 0.0,
			"-0.011": 0.0,
			"-0.01": 0.759005761886,
			"-0.009": 3.86091710935,
			"-0.008": 7.70972123386,
			"-0.007": 11.0145909447,
			"-0.006": 13.4289756064,
			"-0.005": 14.2720633032,
			"-0.004": 16.9738512102,
			"-0.003": 21.0371994361,
			"-0.002": 21.0646658022,
			"-0.001": 18.6026769442,
			"0.0": 21.8728921988,
			"0.001": 26.7582572292,
			"0.002": 24.2730150871,
			"0.003": 22.3698406531,
			"0.004": 24.4774756743,
			"0.005": 7.21243415307,
			"0.006": 5.11105838429,
			"0.007": 6.88249023275,
			"0.008": 10.1120071496,
			"0.009": 6.30885712635,
			"0.01": 0.512503479229,
			"0.011": 0.92484446647,
			"0.012": 0.973671010191,
			"0.013": 0.263323111535,
			"0.014": 0.0,
			"0.015": 0.0,
			"0.016": 0.0,
			"0.017": 0.0,
			"0.018": 0.0,
			"0.019": 0.0,
			"0.02": 0.0,
			"0.021": 0.0,
			"0.022": 0.0,
			"0.023": 0.0,
			"0.024": 0.0,
			"0.025": 0.0
		}
	}
}
