{
	 "smiles": "CC(CC(O)=O)NC(=O)OCC1=CC=CC=C1", 
	 "Tm": 403.15, 
	 "num_atms": 32, 
	 "gaussian": { 
		 "optdone": 1, 
		 "sigma_profile": "yes", 
		 "theory": "DFT", 
		 "functional": "B3LYP", 
		 "basiset": "6-31G**", 
		 "properties": { 
			 "R2extent": 5382.9527, 
			 "electric_dipole_moment_norm": 1.84376795178, 
			 "electric_quadrupole_moment_norm": 11.4244135539, 
			 "total_energy": -822.007778481, 
			 "HOMO_LUMO_gap": 0.23838, 
			 "cosmo_polarized_energy": -17.14, 
			 "cosmo_cavitation_energy": 36.76, 
			 "cosmo_dispersion_energy": -24.8, 
			 "cosmo_repulsion_energy": 1.94, 
			 "cosmo_total_nonelectrostatic_energy": 13.9, 
			 "SMD_solvation_energy": 7.91 
		},
		"coords": [
			{
				"x": -3.2437543933,
				"y": -0.738096937,
				"z": 2.0056725127,
				"element": "C" 
			},
			{
				"x": -1.8799010153,
				"y": -0.3733455117,
				"z": 1.4155090819,
				"element": "C" 
			},
			{
				"x": -0.8475510203,
				"y": -1.5290283829,
				"z": 1.5654716995,
				"element": "C" 
			},
			{
				"x": -1.212794922,
				"y": -2.7228368407,
				"z": 0.7152962603,
				"element": "C" 
			},
			{
				"x": -0.8332930247,
				"y": -2.546666424,
				"z": -0.5775294976,
				"element": "O" 
			},
			{
				"x": -1.8041380036,
				"y": -3.7127443339,
				"z": 1.0868450496,
				"element": "O" 
			},
			{
				"x": -1.3917665358,
				"y": 0.8469082131,
				"z": 2.0492200796,
				"element": "N" 
			},
			{
				"x": -0.4585225578,
				"y": 1.7064882509,
				"z": 1.5374209557,
				"element": "C" 
			},
			{
				"x": 0.0205285542,
				"y": 2.6468187914,
				"z": 2.1444502915,
				"element": "O" 
			},
			{
				"x": -0.1494407417,
				"y": 1.383694323,
				"z": 0.2520122502,
				"element": "O" 
			},
			{
				"x": 0.8138740938,
				"y": 2.2491528158,
				"z": -0.3763814716,
				"element": "C" 
			},
			{
				"x": 0.9741033821,
				"y": 1.8536869759,
				"z": -1.8243014269,
				"element": "C" 
			},
			{
				"x": 0.7689820971,
				"y": 0.5405330888,
				"z": -2.2651047403,
				"element": "C" 
			},
			{
				"x": 0.9777899976,
				"y": 0.2089378254,
				"z": -3.6051133177,
				"element": "C" 
			},
			{
				"x": 1.4001771139,
				"y": 1.1775789625,
				"z": -4.5169821168,
				"element": "C" 
			},
			{
				"x": 1.6065092804,
				"y": 2.4882004125,
				"z": -4.0828173876,
				"element": "C" 
			},
			{
				"x": 1.3888526056,
				"y": 2.8230293866,
				"z": -2.7462863606,
				"element": "C" 
			},
			{
				"x": -3.62213936,
				"y": -1.6646988637,
				"z": 1.5676052688,
				"element": "H" 
			},
			{
				"x": -3.9681600914,
				"y": 0.0602374944,
				"z": 1.8232708299,
				"element": "H" 
			},
			{
				"x": -3.169609156,
				"y": -0.8970128078,
				"z": 3.0883504875,
				"element": "H" 
			},
			{
				"x": -1.9886820291,
				"y": -0.1580729256,
				"z": 0.3494828366,
				"element": "H" 
			},
			{
				"x": 0.1321870792,
				"y": -1.156912562,
				"z": 1.2570314785,
				"element": "H" 
			},
			{
				"x": -0.8015394938,
				"y": -1.8548465418,
				"z": 2.6078857047,
				"element": "H" 
			},
			{
				"x": -1.1372717864,
				"y": -3.3335780043,
				"z": -1.0609302836,
				"element": "H" 
			},
			{
				"x": -1.5822305541,
				"y": 0.9954779017,
				"z": 3.0298509895,
				"element": "H" 
			},
			{
				"x": 1.763018152,
				"y": 2.1660570989,
				"z": 0.1677364529,
				"element": "H" 
			},
			{
				"x": 0.4842189695,
				"y": 3.2880857516,
				"z": -0.2823366689,
				"element": "H" 
			},
			{
				"x": 0.4325428029,
				"y": -0.2190916018,
				"z": -1.5675867428,
				"element": "H" 
			},
			{
				"x": 0.8096093812,
				"y": -0.8120899988,
				"z": -3.9364632396,
				"element": "H" 
			},
			{
				"x": 1.5624452516,
				"y": 0.9150353346,
				"z": -5.5584614481,
				"element": "H" 
			},
			{
				"x": 1.9272374432,
				"y": 3.2523812912,
				"z": -4.7851452716,
				"element": "H" 
			},
			{
				"x": 1.5403184809,
				"y": 3.8482178181,
				"z": -2.4161722556,
				"element": "H" 
			}
		],
		 "valence_orbital": [ 
			{
				"type": "occ",
				"energy": -0.28567,
				"method": "rhf"
			},
			{
				"type": "occ",
				"energy": -0.27225,
				"method": "rhf"
			},
			{
				"type": "occ",
				"energy": -0.25698,
				"method": "rhf"
			},
			{
				"type": "occ",
				"energy": -0.25008,
				"method": "rhf"
			},
			{
				"type": "occ",
				"energy": -0.24388,
				"method": "rhf"
			},
			{
				"type": "unocc",
				"energy": -0.0055,
				"method": "rhf"
			},
			{
				"type": "unocc",
				"energy": -0.00337,
				"method": "rhf"
			},
			{
				"type": "unocc",
				"energy": -0.00183,
				"method": "rhf"
			},
			{
				"type": "unocc",
				"energy": 0.05092,
				"method": "rhf"
			},
			{
				"type": "unocc",
				"energy": 0.06343,
				"method": "rhf"
			}
		],
		"cosmo_sigma_profile": { 
			"-0.025": 0.0,
			"-0.024": 0.0,
			"-0.023": 0.0,
			"-0.022": 0.0,
			"-0.021": 0.0,
			"-0.02": 0.0,
			"-0.019": 0.0158141157406,
			"-0.018": 0.665951266764,
			"-0.017": 1.17682808012,
			"-0.016": 0.413866842783,
			"-0.015": 1.14416475316,
			"-0.014": 1.32003374782,
			"-0.013": 1.52058896374,
			"-0.012": 1.77473985082,
			"-0.011": 1.64983788803,
			"-0.01": 1.83877449663,
			"-0.009": 1.41619894321,
			"-0.008": 2.29860971028,
			"-0.007": 3.12575778856,
			"-0.006": 12.3609300648,
			"-0.005": 22.5066880636,
			"-0.004": 24.7219291002,
			"-0.003": 26.8633357207,
			"-0.002": 22.585853881,
			"-0.001": 19.6877402383,
			"0.0": 21.8488747493,
			"0.001": 16.8455964343,
			"0.002": 16.819797912,
			"0.003": 16.1518595333,
			"0.004": 14.517835125,
			"0.005": 14.1782306916,
			"0.006": 11.2752111685,
			"0.007": 3.17190037823,
			"0.008": 2.70165112041,
			"0.009": 2.01202030297,
			"0.01": 3.63664168459,
			"0.011": 5.23471309427,
			"0.012": 6.19768635854,
			"0.013": 6.67412809665,
			"0.014": 1.70147840295,
			"0.015": 0.0,
			"0.016": 0.0,
			"0.017": 0.0,
			"0.018": 0.0,
			"0.019": 0.0,
			"0.02": 0.0,
			"0.021": 0.0,
			"0.022": 0.0,
			"0.023": 0.0,
			"0.024": 0.0,
			"0.025": 0.0
		}
	}
}
