{
	 "smiles": "CC1=CC=C(SC2=C(CCCC2)C(O)=O)C=C1", 
	 "Tm": 473.15, 
	 "num_atms": 33, 
	 "gaussian": { 
		 "optdone": 1, 
		 "sigma_profile": "yes", 
		 "theory": "DFT", 
		 "functional": "B3LYP", 
		 "basiset": "6-31G**", 
		 "properties": { 
			 "R2extent": 5921.1685, 
			 "electric_dipole_moment_norm": 2.26109004907, 
			 "electric_quadrupole_moment_norm": 14.0577066611, 
			 "total_energy": -1091.78010876, 
			 "HOMO_LUMO_gap": 0.18625, 
			 "cosmo_polarized_energy": -11.33, 
			 "cosmo_cavitation_energy": 37.04, 
			 "cosmo_dispersion_energy": -26.26, 
			 "cosmo_repulsion_energy": 2.04, 
			 "cosmo_total_nonelectrostatic_energy": 12.83, 
			 "SMD_solvation_energy": 6.26 
		},
		"coords": [
			{
				"x": 0.434585012,
				"y": 0.7171857606,
				"z": -4.7928845025,
				"element": "C" 
			},
			{
				"x": 0.7230440382,
				"y": 0.0157567197,
				"z": -3.486519223,
				"element": "C" 
			},
			{
				"x": 1.1566380825,
				"y": 0.7398069218,
				"z": -2.3646676583,
				"element": "C" 
			},
			{
				"x": 1.4567138885,
				"y": 0.1043251169,
				"z": -1.1623698723,
				"element": "C" 
			},
			{
				"x": 1.3020272064,
				"y": -1.2851581676,
				"z": -1.0525760333,
				"element": "C" 
			},
			{
				"x": 1.7354147783,
				"y": -2.1339369813,
				"z": 0.4746707654,
				"element": "S" 
			},
			{
				"x": 0.5379476181,
				"y": -1.4379912712,
				"z": 1.6273634684,
				"element": "C" 
			},
			{
				"x": 0.932338708,
				"y": -0.6384343547,
				"z": 2.6358577617,
				"element": "C" 
			},
			{
				"x": -0.0193790818,
				"y": -0.1456198886,
				"z": 3.7167108063,
				"element": "C" 
			},
			{
				"x": -1.4898958439,
				"y": -0.2645872417,
				"z": 3.3007857208,
				"element": "C" 
			},
			{
				"x": -1.7681515016,
				"y": -1.6419714557,
				"z": 2.6937365174,
				"element": "C" 
			},
			{
				"x": -0.900229603,
				"y": -1.8801334622,
				"z": 1.4488820471,
				"element": "C" 
			},
			{
				"x": 2.3346113621,
				"y": -0.1292818282,
				"z": 2.7669431561,
				"element": "C" 
			},
			{
				"x": 2.8696353712,
				"y": -0.4534039265,
				"z": 3.9706950667,
				"element": "O" 
			},
			{
				"x": 2.924277126,
				"y": 0.5656051307,
				"z": 1.966276088,
				"element": "O" 
			},
			{
				"x": 0.8667491194,
				"y": -2.0209250508,
				"z": -2.1586992945,
				"element": "C" 
			},
			{
				"x": 0.5880552426,
				"y": -1.3716867483,
				"z": -3.3633973021,
				"element": "C" 
			},
			{
				"x": -0.1200215495,
				"y": 0.0722044277,
				"z": -5.4802829171,
				"element": "H" 
			},
			{
				"x": -0.151670368,
				"y": 1.6290178304,
				"z": -4.63719433,
				"element": "H" 
			},
			{
				"x": 1.3628132769,
				"y": 1.0143272819,
				"z": -5.296546032,
				"element": "H" 
			},
			{
				"x": 1.2736401682,
				"y": 1.8187089707,
				"z": -2.4385779595,
				"element": "H" 
			},
			{
				"x": 1.8185266069,
				"y": 0.6684605773,
				"z": -0.3081611065,
				"element": "H" 
			},
			{
				"x": 0.1691509269,
				"y": -0.7179459953,
				"z": 4.6357287835,
				"element": "H" 
			},
			{
				"x": 0.2211968239,
				"y": 0.8959517525,
				"z": 3.9630520909,
				"element": "H" 
			},
			{
				"x": -1.7230282806,
				"y": 0.5137475937,
				"z": 2.5625959835,
				"element": "H" 
			},
			{
				"x": -2.1347340107,
				"y": -0.0828671177,
				"z": 4.1678126934,
				"element": "H" 
			},
			{
				"x": -1.5489904614,
				"y": -2.4159157876,
				"z": 3.44105635,
				"element": "H" 
			},
			{
				"x": -2.8271107292,
				"y": -1.7469607766,
				"z": 2.4326491016,
				"element": "H" 
			},
			{
				"x": -0.9122735531,
				"y": -2.9395148824,
				"z": 1.1718969791,
				"element": "H" 
			},
			{
				"x": -1.3146483665,
				"y": -1.3415700016,
				"z": 0.584563228,
				"element": "H" 
			},
			{
				"x": 3.7479213795,
				"y": -0.0361138428,
				"z": 3.9941250949,
				"element": "H" 
			},
			{
				"x": 0.7427461885,
				"y": -3.0963095664,
				"z": -2.0757168082,
				"element": "H" 
			},
			{
				"x": 0.2503004252,
				"y": -1.9544697368,
				"z": -4.2170086634,
				"element": "H" 
			}
		],
		 "valence_orbital": [ 
			{
				"type": "occ",
				"energy": -0.28087,
				"method": "rhf"
			},
			{
				"type": "occ",
				"energy": -0.25461,
				"method": "rhf"
			},
			{
				"type": "occ",
				"energy": -0.24805,
				"method": "rhf"
			},
			{
				"type": "occ",
				"energy": -0.24511,
				"method": "rhf"
			},
			{
				"type": "occ",
				"energy": -0.21263,
				"method": "rhf"
			},
			{
				"type": "unocc",
				"energy": -0.02638,
				"method": "rhf"
			},
			{
				"type": "unocc",
				"energy": -0.00625,
				"method": "rhf"
			},
			{
				"type": "unocc",
				"energy": 0.00151,
				"method": "rhf"
			},
			{
				"type": "unocc",
				"energy": 0.023,
				"method": "rhf"
			},
			{
				"type": "unocc",
				"energy": 0.06574,
				"method": "rhf"
			}
		],
		"cosmo_sigma_profile": { 
			"-0.025": 0.0,
			"-0.024": 0.0,
			"-0.023": 0.0,
			"-0.022": 0.0,
			"-0.021": 0.0,
			"-0.02": 0.0,
			"-0.019": 0.10764099503,
			"-0.018": 0.812207357953,
			"-0.017": 1.05783246116,
			"-0.016": 0.493300609449,
			"-0.015": 0.940875069631,
			"-0.014": 0.647771835273,
			"-0.013": 0.656687796518,
			"-0.012": 0.519752639377,
			"-0.011": 0.824124535429,
			"-0.01": 0.676877957215,
			"-0.009": 0.611148501872,
			"-0.008": 0.641161372309,
			"-0.007": 0.791962661599,
			"-0.006": 4.1381464938,
			"-0.005": 11.0288296074,
			"-0.004": 20.2683550151,
			"-0.003": 33.4502658886,
			"-0.002": 35.3927714612,
			"-0.001": 36.629182274,
			"0.0": 31.413067086,
			"0.001": 20.7037400777,
			"0.002": 17.2280835979,
			"0.003": 13.475088248,
			"0.004": 16.4276994261,
			"0.005": 15.012457988,
			"0.006": 7.03383445764,
			"0.007": 4.92460886768,
			"0.008": 5.17702378302,
			"0.009": 3.92945583961,
			"0.01": 3.41078493163,
			"0.011": 3.76341651362,
			"0.012": 1.28465439114,
			"0.013": 0.0,
			"0.014": 0.0,
			"0.015": 0.0,
			"0.016": 0.0,
			"0.017": 0.0,
			"0.018": 0.0,
			"0.019": 0.0,
			"0.02": 0.0,
			"0.021": 0.0,
			"0.022": 0.0,
			"0.023": 0.0,
			"0.024": 0.0,
			"0.025": 0.0
		}
	}
}
