{
	 "smiles": "OC(=O)CP(O)(O)=O", 
	 "Tm": 417.15, 
	 "num_atms": 13, 
	 "gaussian": { 
		 "optdone": 1, 
		 "sigma_profile": "yes", 
		 "theory": "DFT", 
		 "functional": "B3LYP", 
		 "basiset": "6-31G**", 
		 "properties": { 
			 "R2extent": 1905.3772, 
			 "electric_dipole_moment_norm": 2.32033341354, 
			 "electric_quadrupole_moment_norm": 14.1224167705, 
			 "total_energy": -796.782069246, 
			 "HOMO_LUMO_gap": 0.27548, 
			 "cosmo_polarized_energy": -20.86, 
			 "cosmo_cavitation_energy": 19.27, 
			 "cosmo_dispersion_energy": -14.76, 
			 "cosmo_repulsion_energy": 1.24, 
			 "cosmo_total_nonelectrostatic_energy": 5.75, 
			 "SMD_solvation_energy": 7.11 
		},
		"coords": [
			{
				"x": 0.7778706204,
				"y": 0.9841010266,
				"z": 0.5521170944,
				"element": "O" 
			},
			{
				"x": 1.0653353552,
				"y": 0.0835072895,
				"z": 1.5406302396,
				"element": "C" 
			},
			{
				"x": 2.1010904302,
				"y": 0.1118056412,
				"z": 2.1547359547,
				"element": "O" 
			},
			{
				"x": -0.05283003,
				"y": -0.9183229131,
				"z": 1.7214501232,
				"element": "C" 
			},
			{
				"x": -1.7187807234,
				"y": -0.1525965712,
				"z": 1.788421702,
				"element": "P" 
			},
			{
				"x": -1.9822722296,
				"y": 0.3550616844,
				"z": 0.2770918902,
				"element": "O" 
			},
			{
				"x": -2.6809982942,
				"y": -1.4508658386,
				"z": 1.8366927654,
				"element": "O" 
			},
			{
				"x": -1.912055276,
				"y": 0.8270032416,
				"z": 2.8842462735,
				"element": "O" 
			},
			{
				"x": 1.52957248,
				"y": 1.5991959898,
				"z": 0.5096252467,
				"element": "H" 
			},
			{
				"x": 0.1319694269,
				"y": -1.471786996,
				"z": 2.6429873625,
				"element": "H" 
			},
			{
				"x": -0.0406966609,
				"y": -1.6236125425,
				"z": 0.8827584897,
				"element": "H" 
			},
			{
				"x": -1.2959390511,
				"y": 0.9929183909,
				"z": 0.0208634102,
				"element": "H" 
			},
			{
				"x": -3.3888660475,
				"y": -1.3098084027,
				"z": 2.4819794478,
				"element": "H" 
			}
		],
		 "valence_orbital": [ 
			{
				"type": "occ",
				"energy": -0.34804,
				"method": "rhf"
			},
			{
				"type": "occ",
				"energy": -0.34266,
				"method": "rhf"
			},
			{
				"type": "occ",
				"energy": -0.30179,
				"method": "rhf"
			},
			{
				"type": "occ",
				"energy": -0.29696,
				"method": "rhf"
			},
			{
				"type": "occ",
				"energy": -0.29347,
				"method": "rhf"
			},
			{
				"type": "unocc",
				"energy": -0.01799,
				"method": "rhf"
			},
			{
				"type": "unocc",
				"energy": 0.03954,
				"method": "rhf"
			},
			{
				"type": "unocc",
				"energy": 0.05605,
				"method": "rhf"
			},
			{
				"type": "unocc",
				"energy": 0.07859,
				"method": "rhf"
			},
			{
				"type": "unocc",
				"energy": 0.09706,
				"method": "rhf"
			}
		],
		"cosmo_sigma_profile": { 
			"-0.025": 0.0,
			"-0.024": 0.0,
			"-0.023": 0.0,
			"-0.022": 0.0,
			"-0.021": 0.0,
			"-0.02": 0.0996816330251,
			"-0.019": 1.67712041103,
			"-0.018": 2.00912520639,
			"-0.017": 1.97802235072,
			"-0.016": 1.47611606935,
			"-0.015": 1.84017618871,
			"-0.014": 1.9197373905,
			"-0.013": 1.55349340617,
			"-0.012": 2.32276960867,
			"-0.011": 2.42679451699,
			"-0.01": 3.86936695759,
			"-0.009": 5.61498684245,
			"-0.008": 6.77980238764,
			"-0.007": 5.94007472167,
			"-0.006": 5.33371957019,
			"-0.005": 5.78609713491,
			"-0.004": 6.8426181863,
			"-0.003": 6.22713831461,
			"-0.002": 5.02924721263,
			"-0.001": 5.76891603481,
			"0.0": 5.09879369892,
			"0.001": 5.0140532449,
			"0.002": 2.46873659733,
			"0.003": 4.49864990984,
			"0.004": 4.73002199026,
			"0.005": 4.09092929139,
			"0.006": 4.9314227981,
			"0.007": 4.47591243986,
			"0.008": 4.7215344593,
			"0.009": 6.34333627374,
			"0.01": 8.52063865921,
			"0.011": 6.58502513766,
			"0.012": 1.87204280017,
			"0.013": 2.29037687603,
			"0.014": 6.8024455504,
			"0.015": 2.42096447255,
			"0.016": 0.0,
			"0.017": 0.0,
			"0.018": 0.0,
			"0.019": 0.0,
			"0.02": 0.0,
			"0.021": 0.0,
			"0.022": 0.0,
			"0.023": 0.0,
			"0.024": 0.0,
			"0.025": 0.0
		}
	}
}
