{
	 "smiles": "NCC#N", 
	 "Tm": 374.15, 
	 "num_atms": 8, 
	 "gaussian": { 
		 "optdone": 1, 
		 "sigma_profile": "yes", 
		 "theory": "DFT", 
		 "functional": "B3LYP", 
		 "basiset": "6-31G**", 
		 "properties": { 
			 "R2extent": 461.7518, 
			 "electric_dipole_moment_norm": 2.49379159314, 
			 "electric_quadrupole_moment_norm": 11.9325339191, 
			 "total_energy": -188.097460812, 
			 "HOMO_LUMO_gap": 0.29017, 
			 "cosmo_polarized_energy": -11.07, 
			 "cosmo_cavitation_energy": 12.54, 
			 "cosmo_dispersion_energy": -8.82, 
			 "cosmo_repulsion_energy": 0.84, 
			 "cosmo_total_nonelectrostatic_energy": 4.56, 
			 "SMD_solvation_energy": 2.69 
		},
		"coords": [
			{
				"x": -1.188534164,
				"y": -0.5079395482,
				"z": -0.8039755983,
				"element": "N" 
			},
			{
				"x": 0.1315404645,
				"y": -0.8470415369,
				"z": -0.2812351158,
				"element": "C" 
			},
			{
				"x": 1.263918675,
				"y": -0.5677439259,
				"z": -1.1941487463,
				"element": "C" 
			},
			{
				"x": 2.1116501867,
				"y": -0.3276841317,
				"z": -1.9506987352,
				"element": "N" 
			},
			{
				"x": -1.2304272261,
				"y": 0.4809230813,
				"z": -1.0361499607,
				"element": "H" 
			},
			{
				"x": -1.3668149593,
				"y": -1.0188942135,
				"z": -1.6645863327,
				"element": "H" 
			},
			{
				"x": 0.1537772144,
				"y": -1.9116143751,
				"z": -0.0242771872,
				"element": "H" 
			},
			{
				"x": 0.3006898088,
				"y": -0.2984053499,
				"z": 0.6516716763,
				"element": "H" 
			}
		],
		 "valence_orbital": [ 
			{
				"type": "occ",
				"energy": -0.4239,
				"method": "rhf"
			},
			{
				"type": "occ",
				"energy": -0.36457,
				"method": "rhf"
			},
			{
				"type": "occ",
				"energy": -0.33722,
				"method": "rhf"
			},
			{
				"type": "occ",
				"energy": -0.32776,
				"method": "rhf"
			},
			{
				"type": "occ",
				"energy": -0.27165,
				"method": "rhf"
			},
			{
				"type": "unocc",
				"energy": 0.01852,
				"method": "rhf"
			},
			{
				"type": "unocc",
				"energy": 0.0353,
				"method": "rhf"
			},
			{
				"type": "unocc",
				"energy": 0.07821,
				"method": "rhf"
			},
			{
				"type": "unocc",
				"energy": 0.11411,
				"method": "rhf"
			},
			{
				"type": "unocc",
				"energy": 0.12131,
				"method": "rhf"
			}
		],
		"cosmo_sigma_profile": { 
			"-0.025": 0.0,
			"-0.024": 0.0,
			"-0.023": 0.0,
			"-0.022": 0.0,
			"-0.021": 0.0,
			"-0.02": 0.0,
			"-0.019": 0.0,
			"-0.018": 0.0,
			"-0.017": 0.0,
			"-0.016": 0.0,
			"-0.015": 0.0,
			"-0.014": 0.0,
			"-0.013": 0.0,
			"-0.012": 1.02685537902,
			"-0.011": 3.0051232195,
			"-0.01": 3.98188229388,
			"-0.009": 4.56876568172,
			"-0.008": 9.32076746085,
			"-0.007": 7.73338005893,
			"-0.006": 6.1196044103,
			"-0.005": 6.58539878015,
			"-0.004": 2.80202337053,
			"-0.003": 2.6306354448,
			"-0.002": 2.8100120842,
			"-0.001": 2.81125750096,
			"0.0": 3.09906707312,
			"0.001": 1.7460803873,
			"0.002": 1.9138213261,
			"0.003": 2.27713074154,
			"0.004": 3.50201257997,
			"0.005": 2.34139840786,
			"0.006": 3.35065734431,
			"0.007": 3.45724043155,
			"0.008": 4.19688808826,
			"0.009": 3.89405047381,
			"0.01": 4.21845834572,
			"0.011": 3.62648020081,
			"0.012": 2.86880928828,
			"0.013": 2.37862014197,
			"0.014": 1.27299710142,
			"0.015": 0.779895503228,
			"0.016": 0.562004987758,
			"0.017": 0.485018018331,
			"0.018": 0.270265093821,
			"0.019": 0.0,
			"0.02": 0.0,
			"0.021": 0.0,
			"0.022": 0.0,
			"0.023": 0.0,
			"0.024": 0.0,
			"0.025": 0.0
		}
	}
}
