{
	 "smiles": "CC(=O)OC1=CN(C(C)=O)C2=C1C(Cl)=C(Br)C=C2", 
	 "Tm": 438.65, 
	 "num_atms": 27, 
	 "gaussian": { 
		 "optdone": 1, 
		 "sigma_profile": "yes", 
		 "theory": "DFT", 
		 "functional": "B3LYP", 
		 "basiset": "6-31G**", 
		 "properties": { 
			 "R2extent": 10586.9111, 
			 "electric_dipole_moment_norm": 2.96110869439, 
			 "electric_quadrupole_moment_norm": 9.44802104094, 
			 "total_energy": -3774.73650611, 
			 "HOMO_LUMO_gap": 0.17193, 
			 "cosmo_polarized_energy": -10.96, 
			 "cosmo_cavitation_energy": 35.87, 
			 "cosmo_dispersion_energy": -26.12, 
			 "cosmo_repulsion_energy": 1.99, 
			 "cosmo_total_nonelectrostatic_energy": 11.74, 
			 "SMD_solvation_energy": 7.07 
		},
		"coords": [
			{
				"x": -3.3032019555,
				"y": -0.7485458177,
				"z": 1.4781787226,
				"element": "C" 
			},
			{
				"x": -2.2362863363,
				"y": -0.7683671024,
				"z": 0.4155973173,
				"element": "C" 
			},
			{
				"x": -1.8763949539,
				"y": -1.731518537,
				"z": -0.2193953746,
				"element": "O" 
			},
			{
				"x": -1.714996615,
				"y": 0.4870511008,
				"z": 0.2619502181,
				"element": "O" 
			},
			{
				"x": -0.720575076,
				"y": 0.7510562891,
				"z": -0.6468781833,
				"element": "C" 
			},
			{
				"x": -0.0837125023,
				"y": -0.0811266918,
				"z": -1.5193512933,
				"element": "C" 
			},
			{
				"x": 0.8635188318,
				"y": 0.6594350835,
				"z": -2.242982639,
				"element": "N" 
			},
			{
				"x": 1.717626679,
				"y": 0.1502091848,
				"z": -3.2375680474,
				"element": "C" 
			},
			{
				"x": 1.5874492824,
				"y": -1.3289830777,
				"z": -3.5383833646,
				"element": "C" 
			},
			{
				"x": 2.5106761413,
				"y": 0.8713140764,
				"z": -3.8136972203,
				"element": "O" 
			},
			{
				"x": 0.8146918846,
				"y": 1.9931438051,
				"z": -1.807747164,
				"element": "C" 
			},
			{
				"x": -0.1772162559,
				"y": 2.0831498481,
				"z": -0.7989117586,
				"element": "C" 
			},
			{
				"x": -0.4297592178,
				"y": 3.3252458751,
				"z": -0.1883250847,
				"element": "C" 
			},
			{
				"x": -1.6448456168,
				"y": 3.4650629855,
				"z": 1.055889028,
				"element": "Cl" 
			},
			{
				"x": 0.3119935627,
				"y": 4.4335154053,
				"z": -0.6014487248,
				"element": "C" 
			},
			{
				"x": 0.0401672091,
				"y": 6.1539377103,
				"z": 0.1678813734,
				"element": "Br" 
			},
			{
				"x": 1.2893435689,
				"y": 4.3162363066,
				"z": -1.6038123806,
				"element": "C" 
			},
			{
				"x": 1.5563077863,
				"y": 3.1017153468,
				"z": -2.2208429047,
				"element": "C" 
			},
			{
				"x": -2.8819910869,
				"y": -0.3996091636,
				"z": 2.4254700663,
				"element": "H" 
			},
			{
				"x": -3.711720763,
				"y": -1.7513108791,
				"z": 1.5966900044,
				"element": "H" 
			},
			{
				"x": -4.0971076074,
				"y": -0.0499030318,
				"z": 1.1985068128,
				"element": "H" 
			},
			{
				"x": -0.2291301814,
				"y": -1.1318021151,
				"z": -1.6795555733,
				"element": "H" 
			},
			{
				"x": 0.5789467036,
				"y": -1.5795141154,
				"z": -3.8820666702,
				"element": "H" 
			},
			{
				"x": 1.8011710603,
				"y": -1.9365342606,
				"z": -2.6533652277,
				"element": "H" 
			},
			{
				"x": 2.3052979963,
				"y": -1.568493303,
				"z": -4.3218619659,
				"element": "H" 
			},
			{
				"x": 1.8421421803,
				"y": 5.2015971664,
				"z": -1.8944204278,
				"element": "H" 
			},
			{
				"x": 2.3073052817,
				"y": 3.0098379114,
				"z": -2.9915495384,
				"element": "H" 
			}
		],
		 "valence_orbital": [ 
			{
				"type": "occ",
				"energy": -0.28404,
				"method": "rhf"
			},
			{
				"type": "occ",
				"energy": -0.27897,
				"method": "rhf"
			},
			{
				"type": "occ",
				"energy": -0.27894,
				"method": "rhf"
			},
			{
				"type": "occ",
				"energy": -0.24018,
				"method": "rhf"
			},
			{
				"type": "occ",
				"energy": -0.22398,
				"method": "rhf"
			},
			{
				"type": "unocc",
				"energy": -0.05205,
				"method": "rhf"
			},
			{
				"type": "unocc",
				"energy": -0.02866,
				"method": "rhf"
			},
			{
				"type": "unocc",
				"energy": -0.01259,
				"method": "rhf"
			},
			{
				"type": "unocc",
				"energy": -0.00931,
				"method": "rhf"
			},
			{
				"type": "unocc",
				"energy": 0.01925,
				"method": "rhf"
			}
		],
		"cosmo_sigma_profile": { 
			"-0.025": 0.0,
			"-0.024": 0.0,
			"-0.023": 0.0,
			"-0.022": 0.0,
			"-0.021": 0.0,
			"-0.02": 0.0,
			"-0.019": 0.0,
			"-0.018": 0.0,
			"-0.017": 0.0,
			"-0.016": 0.0,
			"-0.015": 0.0,
			"-0.014": 0.0,
			"-0.013": 0.0,
			"-0.012": 0.0,
			"-0.011": 0.0,
			"-0.01": 0.0,
			"-0.009": 0.851856562398,
			"-0.008": 5.12324968863,
			"-0.007": 13.3212938669,
			"-0.006": 14.1961714338,
			"-0.005": 17.1570815984,
			"-0.004": 16.661180751,
			"-0.003": 21.8922653618,
			"-0.002": 23.9286342626,
			"-0.001": 18.3629548987,
			"0.0": 28.5355428995,
			"0.001": 32.2472274835,
			"0.002": 22.976134,
			"0.003": 19.1024773625,
			"0.004": 20.7129906498,
			"0.005": 12.2608475774,
			"0.006": 4.59977951905,
			"0.007": 3.08581167652,
			"0.008": 3.1953858525,
			"0.009": 3.43083719862,
			"0.01": 4.32124151419,
			"0.011": 4.73585424948,
			"0.012": 2.49583995524,
			"0.013": 0.231360512373,
			"0.014": 0.0,
			"0.015": 0.0,
			"0.016": 0.0,
			"0.017": 0.0,
			"0.018": 0.0,
			"0.019": 0.0,
			"0.02": 0.0,
			"0.021": 0.0,
			"0.022": 0.0,
			"0.023": 0.0,
			"0.024": 0.0,
			"0.025": 0.0
		}
	}
}
