{
	 "smiles": "O=S(=O)(N1CCCC1)C1=CC2=C(CCN2)C=C1", 
	 "Tm": 455.15, 
	 "num_atms": 33, 
	 "gaussian": { 
		 "optdone": 1, 
		 "sigma_profile": "yes", 
		 "theory": "DFT", 
		 "functional": "B3LYP", 
		 "basiset": "6-31G**", 
		 "properties": { 
			 "R2extent": 5249.0171, 
			 "electric_dipole_moment_norm": 7.3790154987, 
			 "electric_quadrupole_moment_norm": 21.9948736627, 
			 "total_energy": -1124.99015534, 
			 "HOMO_LUMO_gap": 0.18074, 
			 "cosmo_polarized_energy": -17.6, 
			 "cosmo_cavitation_energy": 35.28, 
			 "cosmo_dispersion_energy": -26.13, 
			 "cosmo_repulsion_energy": 2.01, 
			 "cosmo_total_nonelectrostatic_energy": 11.16, 
			 "SMD_solvation_energy": 2.06 
		},
		"coords": [
			{
				"x": 0.0984647827,
				"y": 1.7391963013,
				"z": -3.1522412381,
				"element": "O" 
			},
			{
				"x": 0.75789621,
				"y": 1.352733685,
				"z": -1.902507727,
				"element": "S" 
			},
			{
				"x": 2.1718839241,
				"y": 1.6344363728,
				"z": -1.6406440002,
				"element": "O" 
			},
			{
				"x": -0.0962523008,
				"y": 2.1006615633,
				"z": -0.6788318745,
				"element": "N" 
			},
			{
				"x": 0.396150509,
				"y": 2.0312457271,
				"z": 0.7176614426,
				"element": "C" 
			},
			{
				"x": -0.8783162068,
				"y": 2.2319828525,
				"z": 1.5659313242,
				"element": "C" 
			},
			{
				"x": -1.8922015617,
				"y": 2.8641603149,
				"z": 0.5946168787,
				"element": "C" 
			},
			{
				"x": -1.56719613,
				"y": 2.1761716334,
				"z": -0.7346821179,
				"element": "C" 
			},
			{
				"x": 0.5134681966,
				"y": -0.4158251578,
				"z": -1.683798074,
				"element": "C" 
			},
			{
				"x": 1.4477893583,
				"y": -1.130950982,
				"z": -0.9214570334,
				"element": "C" 
			},
			{
				"x": 1.2036606243,
				"y": -2.4889335692,
				"z": -0.7165597482,
				"element": "C" 
			},
			{
				"x": 0.058248538,
				"y": -3.1097844217,
				"z": -1.2527853015,
				"element": "C" 
			},
			{
				"x": 0.1092402695,
				"y": -4.5808384163,
				"z": -0.895811667,
				"element": "C" 
			},
			{
				"x": 1.1704494938,
				"y": -4.6109002635,
				"z": 0.2325200569,
				"element": "C" 
			},
			{
				"x": 1.9950839897,
				"y": -3.4206588872,
				"z": -0.045313268,
				"element": "N" 
			},
			{
				"x": -0.8426291154,
				"y": -2.3843479981,
				"z": -2.0170762456,
				"element": "C" 
			},
			{
				"x": -0.621112625,
				"y": -1.0168204398,
				"z": -2.2360345686,
				"element": "C" 
			},
			{
				"x": 1.1385445338,
				"y": 2.8184574293,
				"z": 0.8770719791,
				"element": "H" 
			},
			{
				"x": 0.8753843527,
				"y": 1.0694004765,
				"z": 0.934491482,
				"element": "H" 
			},
			{
				"x": -0.6908967936,
				"y": 2.8467071763,
				"z": 2.450300078,
				"element": "H" 
			},
			{
				"x": -1.2524724358,
				"y": 1.2618423537,
				"z": 1.9109264963,
				"element": "H" 
			},
			{
				"x": -1.7174899883,
				"y": 3.9414537963,
				"z": 0.5043488881,
				"element": "H" 
			},
			{
				"x": -2.9309348865,
				"y": 2.7110617853,
				"z": 0.8999705452,
				"element": "H" 
			},
			{
				"x": -2.0277962497,
				"y": 1.176304069,
				"z": -0.7780820664,
				"element": "H" 
			},
			{
				"x": -1.8779595452,
				"y": 2.7408077657,
				"z": -1.6149749494,
				"element": "H" 
			},
			{
				"x": 2.3381612752,
				"y": -0.6374505306,
				"z": -0.5480000789,
				"element": "H" 
			},
			{
				"x": 0.4483433522,
				"y": -5.1687438548,
				"z": -1.7589513319,
				"element": "H" 
			},
			{
				"x": -0.8511967066,
				"y": -4.9936477514,
				"z": -0.5746828686,
				"element": "H" 
			},
			{
				"x": 0.680316206,
				"y": -4.5387469112,
				"z": 1.2161909101,
				"element": "H" 
			},
			{
				"x": 1.7784676528,
				"y": -5.5195641566,
				"z": 0.2207794837,
				"element": "H" 
			},
			{
				"x": 2.5777010282,
				"y": -3.0796907249,
				"z": 0.7078120153,
				"element": "H" 
			},
			{
				"x": -1.7163675038,
				"y": -2.866503916,
				"z": -2.4474733851,
				"element": "H" 
			},
			{
				"x": -1.2942322477,
				"y": -0.4330153212,
				"z": -2.8525140359,
				"element": "H" 
			}
		],
		 "valence_orbital": [ 
			{
				"type": "occ",
				"energy": -0.28744,
				"method": "rhf"
			},
			{
				"type": "occ",
				"energy": -0.28662,
				"method": "rhf"
			},
			{
				"type": "occ",
				"energy": -0.26225,
				"method": "rhf"
			},
			{
				"type": "occ",
				"energy": -0.23968,
				"method": "rhf"
			},
			{
				"type": "occ",
				"energy": -0.20653,
				"method": "rhf"
			},
			{
				"type": "unocc",
				"energy": -0.02579,
				"method": "rhf"
			},
			{
				"type": "unocc",
				"energy": -0.00094,
				"method": "rhf"
			},
			{
				"type": "unocc",
				"energy": 0.07035,
				"method": "rhf"
			},
			{
				"type": "unocc",
				"energy": 0.07819,
				"method": "rhf"
			},
			{
				"type": "unocc",
				"energy": 0.08824,
				"method": "rhf"
			}
		],
		"cosmo_sigma_profile": { 
			"-0.025": 0.0,
			"-0.024": 0.0,
			"-0.023": 0.0,
			"-0.022": 0.0,
			"-0.021": 0.0,
			"-0.02": 0.0,
			"-0.019": 0.0,
			"-0.018": 0.0,
			"-0.017": 0.0,
			"-0.016": 0.0,
			"-0.015": 0.0,
			"-0.014": 0.0,
			"-0.013": 0.796947875522,
			"-0.012": 1.55864129981,
			"-0.011": 1.2451941444,
			"-0.01": 1.31311791115,
			"-0.009": 1.46421638307,
			"-0.008": 1.80074264353,
			"-0.007": 1.7895587439,
			"-0.006": 5.10298011521,
			"-0.005": 12.5243224805,
			"-0.004": 35.4011617996,
			"-0.003": 44.5680487054,
			"-0.002": 37.1434508744,
			"-0.001": 25.1546442118,
			"0.0": 13.6463874266,
			"0.001": 8.49473655092,
			"0.002": 8.99333218205,
			"0.003": 11.5720953509,
			"0.004": 14.1944913279,
			"0.005": 7.2061758419,
			"0.006": 6.20263120318,
			"0.007": 4.74648448983,
			"0.008": 4.70145184941,
			"0.009": 4.76775473393,
			"0.01": 5.478048085,
			"0.011": 8.79881394864,
			"0.012": 8.03664691624,
			"0.013": 0.96213532932,
			"0.014": 0.0,
			"0.015": 0.0,
			"0.016": 0.0,
			"0.017": 0.0,
			"0.018": 0.0,
			"0.019": 0.0,
			"0.02": 0.0,
			"0.021": 0.0,
			"0.022": 0.0,
			"0.023": 0.0,
			"0.024": 0.0,
			"0.025": 0.0
		}
	}
}
