{
	 "smiles": "CC(C)(C)N(NC(=O)C1=CC=CC=C1)C(=O)C1=CC=C(C=C1)[N+]([O-])=O", 
	 "Tm": 523.15, 
	 "num_atms": 44, 
	 "gaussian": { 
		 "optdone": 1, 
		 "sigma_profile": "yes", 
		 "theory": "DFT", 
		 "functional": "B3LYP", 
		 "basiset": "6-31G**", 
		 "properties": { 
			 "R2extent": 9373.4499, 
			 "electric_dipole_moment_norm": 4.15815340506, 
			 "electric_quadrupole_moment_norm": 42.1837842188, 
			 "total_energy": -1162.40471863, 
			 "HOMO_LUMO_gap": 0.14842, 
			 "cosmo_polarized_energy": -19.45, 
			 "cosmo_cavitation_energy": 47.01, 
			 "cosmo_dispersion_energy": -30.58, 
			 "cosmo_repulsion_energy": 2.29, 
			 "cosmo_total_nonelectrostatic_energy": 18.73, 
			 "SMD_solvation_energy": 11.7 
		},
		"coords": [
			{
				"x": 0.5348006622,
				"y": 1.79297827,
				"z": 3.9303452438,
				"element": "C" 
			},
			{
				"x": -0.2014236224,
				"y": 1.4941862593,
				"z": 2.6052982048,
				"element": "C" 
			},
			{
				"x": -1.0788010287,
				"y": 2.6913067069,
				"z": 2.2105504465,
				"element": "C" 
			},
			{
				"x": -1.1051509043,
				"y": 0.2700155666,
				"z": 2.8133729322,
				"element": "C" 
			},
			{
				"x": 0.8284339412,
				"y": 1.2674171796,
				"z": 1.5040289815,
				"element": "N" 
			},
			{
				"x": 1.6788451935,
				"y": 2.3907384346,
				"z": 1.3808766798,
				"element": "N" 
			},
			{
				"x": 2.2535494213,
				"y": 2.733642563,
				"z": 0.1488627979,
				"element": "C" 
			},
			{
				"x": 3.3264673574,
				"y": 3.3178869258,
				"z": 0.157989632,
				"element": "O" 
			},
			{
				"x": 1.5435148787,
				"y": 2.4270690332,
				"z": -1.1342274815,
				"element": "C" 
			},
			{
				"x": 0.1496710331,
				"y": 2.4268771609,
				"z": -1.2848409598,
				"element": "C" 
			},
			{
				"x": -0.4206277777,
				"y": 2.2024431824,
				"z": -2.5385821659,
				"element": "C" 
			},
			{
				"x": 0.3933523104,
				"y": 1.9617600241,
				"z": -3.6477389332,
				"element": "C" 
			},
			{
				"x": 1.782872743,
				"y": 1.968122889,
				"z": -3.5048313618,
				"element": "C" 
			},
			{
				"x": 2.3546962509,
				"y": 2.2138471461,
				"z": -2.2585417049,
				"element": "C" 
			},
			{
				"x": 1.5767610927,
				"y": 0.0549245393,
				"z": 1.4504593219,
				"element": "C" 
			},
			{
				"x": 2.7887706996,
				"y": 0.0445592233,
				"z": 1.5960075358,
				"element": "O" 
			},
			{
				"x": 0.8644454052,
				"y": -1.2003576684,
				"z": 1.0438346681,
				"element": "C" 
			},
			{
				"x": 1.3280820462,
				"y": -2.4218534821,
				"z": 1.5557603162,
				"element": "C" 
			},
			{
				"x": 0.7592075133,
				"y": -3.620069883,
				"z": 1.1399358817,
				"element": "C" 
			},
			{
				"x": -0.2531369953,
				"y": -3.5788432727,
				"z": 0.1813573653,
				"element": "C" 
			},
			{
				"x": -0.7056663051,
				"y": -2.3835999106,
				"z": -0.3722210083,
				"element": "C" 
			},
			{
				"x": -0.1432234664,
				"y": -1.1882951068,
				"z": 0.0687060859,
				"element": "C" 
			},
			{
				"x": -0.8577714113,
				"y": -4.845427206,
				"z": -0.2702845281,
				"element": "N" 
			},
			{
				"x": -1.7426076328,
				"y": -4.7816022069,
				"z": -1.1223671842,
				"element": "O" 
			},
			{
				"x": -0.4411660162,
				"y": -5.8863617481,
				"z": 0.2350324868,
				"element": "O" 
			},
			{
				"x": 1.0955660935,
				"y": 2.7299598108,
				"z": 3.881844203,
				"element": "H" 
			},
			{
				"x": -0.1908146946,
				"y": 1.8895084202,
				"z": 4.7433897236,
				"element": "H" 
			},
			{
				"x": 1.2260949006,
				"y": 0.9844892185,
				"z": 4.1907731145,
				"element": "H" 
			},
			{
				"x": -0.4713738645,
				"y": 3.5655650402,
				"z": 1.969263638,
				"element": "H" 
			},
			{
				"x": -1.712095352,
				"y": 2.4488388089,
				"z": 1.3519161855,
				"element": "H" 
			},
			{
				"x": -1.736932879,
				"y": 2.9512317371,
				"z": 3.0452421693,
				"element": "H" 
			},
			{
				"x": -1.8478571679,
				"y": 0.5295109321,
				"z": 3.5734854487,
				"element": "H" 
			},
			{
				"x": -1.6406439699,
				"y": -0.0067787863,
				"z": 1.903504058,
				"element": "H" 
			},
			{
				"x": -0.5603556318,
				"y": -0.6051827306,
				"z": 3.1748241201,
				"element": "H" 
			},
			{
				"x": 2.4081747909,
				"y": 2.4357528569,
				"z": 2.0905795487,
				"element": "H" 
			},
			{
				"x": -0.4850988225,
				"y": 2.6268458222,
				"z": -0.4318172297,
				"element": "H" 
			},
			{
				"x": -1.501016428,
				"y": 2.2222771835,
				"z": -2.650596345,
				"element": "H" 
			},
			{
				"x": -0.0536393684,
				"y": 1.7787503993,
				"z": -4.6207006068,
				"element": "H" 
			},
			{
				"x": 2.4201673116,
				"y": 1.7901616922,
				"z": -4.3659348321,
				"element": "H" 
			},
			{
				"x": 3.4316018377,
				"y": 2.2478680209,
				"z": -2.1341164855,
				"element": "H" 
			},
			{
				"x": 2.1392310605,
				"y": -2.4175627221,
				"z": 2.2756427146,
				"element": "H" 
			},
			{
				"x": 1.0857613151,
				"y": -4.5756652451,
				"z": 1.5301895061,
				"element": "H" 
			},
			{
				"x": -1.4769674628,
				"y": -2.4065365646,
				"z": -1.1316599833,
				"element": "H" 
			},
			{
				"x": -0.4606970567,
				"y": -0.2451985138,
				"z": -0.3615122001,
				"element": "H" 
			}
		],
		 "valence_orbital": [ 
			{
				"type": "occ",
				"energy": -0.28058,
				"method": "rhf"
			},
			{
				"type": "occ",
				"energy": -0.27086,
				"method": "rhf"
			},
			{
				"type": "occ",
				"energy": -0.26645,
				"method": "rhf"
			},
			{
				"type": "occ",
				"energy": -0.25841,
				"method": "rhf"
			},
			{
				"type": "occ",
				"energy": -0.25256,
				"method": "rhf"
			},
			{
				"type": "unocc",
				"energy": -0.10414,
				"method": "rhf"
			},
			{
				"type": "unocc",
				"energy": -0.04471,
				"method": "rhf"
			},
			{
				"type": "unocc",
				"energy": -0.04418,
				"method": "rhf"
			},
			{
				"type": "unocc",
				"energy": -0.03796,
				"method": "rhf"
			},
			{
				"type": "unocc",
				"energy": -0.01246,
				"method": "rhf"
			}
		],
		"cosmo_sigma_profile": { 
			"-0.025": 0.0,
			"-0.024": 0.0,
			"-0.023": 0.0,
			"-0.022": 0.0,
			"-0.021": 0.0,
			"-0.02": 0.0,
			"-0.019": 0.0,
			"-0.018": 0.0,
			"-0.017": 0.0,
			"-0.016": 0.0,
			"-0.015": 0.0,
			"-0.014": 0.0,
			"-0.013": 0.0,
			"-0.012": 0.192218674976,
			"-0.011": 0.503705705071,
			"-0.01": 0.913984588159,
			"-0.009": 0.836624197123,
			"-0.008": 3.292467531,
			"-0.007": 8.91678556017,
			"-0.006": 17.4461123172,
			"-0.005": 24.4522190705,
			"-0.004": 35.2926481015,
			"-0.003": 34.5666460202,
			"-0.002": 36.3664831339,
			"-0.001": 40.2077343494,
			"0.0": 40.8798625728,
			"0.001": 20.572224207,
			"0.002": 14.8679691367,
			"0.003": 13.7465965817,
			"0.004": 15.9364847677,
			"0.005": 8.35095866215,
			"0.006": 6.48420573941,
			"0.007": 12.9834252608,
			"0.008": 8.54151948944,
			"0.009": 8.10212772947,
			"0.01": 5.51534268622,
			"0.011": 5.47855231075,
			"0.012": 5.60617107311,
			"0.013": 3.38605990534,
			"0.014": 0.13000246322,
			"0.015": 0.0,
			"0.016": 0.0,
			"0.017": 0.0,
			"0.018": 0.0,
			"0.019": 0.0,
			"0.02": 0.0,
			"0.021": 0.0,
			"0.022": 0.0,
			"0.023": 0.0,
			"0.024": 0.0,
			"0.025": 0.0
		}
	}
}
