{
	 "smiles": "CC(C)(C)C=O", 
	 "Tm": 279.15, 
	 "num_atms": 16, 
	 "gaussian": { 
		 "optdone": 1, 
		 "sigma_profile": "yes", 
		 "theory": "DFT", 
		 "functional": "B3LYP", 
		 "basiset": "6-31G**", 
		 "properties": { 
			 "R2extent": 808.4372, 
			 "electric_dipole_moment_norm": 2.63153935559, 
			 "electric_quadrupole_moment_norm": 5.36664104352, 
			 "total_energy": -271.782596672, 
			 "HOMO_LUMO_gap": 0.22741, 
			 "cosmo_polarized_energy": -5.63, 
			 "cosmo_cavitation_energy": 18.4, 
			 "cosmo_dispersion_energy": -13.07, 
			 "cosmo_repulsion_energy": 1.12, 
			 "cosmo_total_nonelectrostatic_energy": 6.46, 
			 "SMD_solvation_energy": 4.48 
		},
		"coords": [
			{
				"x": -1.1778170366,
				"y": -1.2041194083,
				"z": 0.7538820366,
				"element": "C" 
			},
			{
				"x": -0.8847102415,
				"y": -0.3786695602,
				"z": -0.5191170538,
				"element": "C" 
			},
			{
				"x": -2.216606032,
				"y": -0.0001811368,
				"z": -1.2051439964,
				"element": "C" 
			},
			{
				"x": -0.0581424347,
				"y": 0.86978848,
				"z": -0.1901218149,
				"element": "C" 
			},
			{
				"x": -0.1223332472,
				"y": -1.2845282898,
				"z": -1.4800844273,
				"element": "C" 
			},
			{
				"x": 0.9800168574,
				"y": -1.0662570095,
				"z": -1.930713401,
				"element": "O" 
			},
			{
				"x": -1.7234112004,
				"y": -2.1252335984,
				"z": 0.5194492285,
				"element": "H" 
			},
			{
				"x": -1.7930033206,
				"y": -0.6199155401,
				"z": 1.4463535042,
				"element": "H" 
			},
			{
				"x": -0.2531651672,
				"y": -1.4790022681,
				"z": 1.2718538341,
				"element": "H" 
			},
			{
				"x": -2.7892476925,
				"y": -0.8898789016,
				"z": -1.4908549222,
				"element": "H" 
			},
			{
				"x": -2.0444387626,
				"y": 0.5973237788,
				"z": -2.10635031,
				"element": "H" 
			},
			{
				"x": -2.83649183,
				"y": 0.589265132,
				"z": -0.5213558966,
				"element": "H" 
			},
			{
				"x": -0.6056727203,
				"y": 1.5201309881,
				"z": 0.4999657944,
				"element": "H" 
			},
			{
				"x": 0.1689948112,
				"y": 1.439426235,
				"z": -1.0955679973,
				"element": "H" 
			},
			{
				"x": 0.8946473855,
				"y": 0.5982678533,
				"z": 0.2728679692,
				"element": "H" 
			},
			{
				"x": -0.6753193686,
				"y": -2.2144167544,
				"z": -1.7581625476,
				"element": "H" 
			}
		],
		 "valence_orbital": [ 
			{
				"type": "occ",
				"energy": -0.36919,
				"method": "rhf"
			},
			{
				"type": "occ",
				"energy": -0.36763,
				"method": "rhf"
			},
			{
				"type": "occ",
				"energy": -0.3391,
				"method": "rhf"
			},
			{
				"type": "occ",
				"energy": -0.33582,
				"method": "rhf"
			},
			{
				"type": "occ",
				"energy": -0.24758,
				"method": "rhf"
			},
			{
				"type": "unocc",
				"energy": -0.02017,
				"method": "rhf"
			},
			{
				"type": "unocc",
				"energy": 0.07894,
				"method": "rhf"
			},
			{
				"type": "unocc",
				"energy": 0.12016,
				"method": "rhf"
			},
			{
				"type": "unocc",
				"energy": 0.12777,
				"method": "rhf"
			},
			{
				"type": "unocc",
				"energy": 0.14704,
				"method": "rhf"
			}
		],
		"cosmo_sigma_profile": { 
			"-0.025": 0.0,
			"-0.024": 0.0,
			"-0.023": 0.0,
			"-0.022": 0.0,
			"-0.021": 0.0,
			"-0.02": 0.0,
			"-0.019": 0.0,
			"-0.018": 0.0,
			"-0.017": 0.0,
			"-0.016": 0.0,
			"-0.015": 0.0,
			"-0.014": 0.0,
			"-0.013": 0.0,
			"-0.012": 0.0,
			"-0.011": 0.0,
			"-0.01": 0.0,
			"-0.009": 0.0,
			"-0.008": 0.0,
			"-0.007": 0.0,
			"-0.006": 1.44212972757,
			"-0.005": 6.10507235441,
			"-0.004": 12.8132287458,
			"-0.003": 26.0702674634,
			"-0.002": 18.8207786224,
			"-0.001": 15.9031486252,
			"0.0": 19.1295362962,
			"0.001": 15.4777486064,
			"0.002": 3.12436867558,
			"0.003": 1.43802479441,
			"0.004": 2.28552798915,
			"0.005": 1.62932176224,
			"0.006": 1.12386812431,
			"0.007": 1.85774522235,
			"0.008": 2.10988934673,
			"0.009": 1.92043744038,
			"0.01": 2.79919938835,
			"0.011": 4.01647981741,
			"0.012": 3.63927527896,
			"0.013": 0.754874546758,
			"0.014": 0.0,
			"0.015": 0.0,
			"0.016": 0.0,
			"0.017": 0.0,
			"0.018": 0.0,
			"0.019": 0.0,
			"0.02": 0.0,
			"0.021": 0.0,
			"0.022": 0.0,
			"0.023": 0.0,
			"0.024": 0.0,
			"0.025": 0.0
		}
	}
}
