{
	 "smiles": "CC(C)C1=NN=C(S)N1", 
	 "Tm": 430.15, 
	 "num_atms": 18, 
	 "gaussian": { 
		 "optdone": 1, 
		 "sigma_profile": "yes", 
		 "theory": "DFT", 
		 "functional": "B3LYP", 
		 "basiset": "6-31G**", 
		 "properties": { 
			 "R2extent": 2928.8471, 
			 "electric_dipole_moment_norm": 4.38413584986, 
			 "electric_quadrupole_moment_norm": 8.88224172999, 
			 "total_energy": -758.38167976, 
			 "HOMO_LUMO_gap": 0.22916, 
			 "cosmo_polarized_energy": -17.95, 
			 "cosmo_cavitation_energy": 23.51, 
			 "cosmo_dispersion_energy": -17.47, 
			 "cosmo_repulsion_energy": 1.41, 
			 "cosmo_total_nonelectrostatic_energy": 7.45, 
			 "SMD_solvation_energy": 1.52 
		},
		"coords": [
			{
				"x": 0.9906358281,
				"y": 2.5451626622,
				"z": 0.0402388437,
				"element": "C" 
			},
			{
				"x": 0.7424481521,
				"y": 1.0256027417,
				"z": -0.0215435599,
				"element": "C" 
			},
			{
				"x": -0.2650078598,
				"y": 0.572727743,
				"z": 1.0529005755,
				"element": "C" 
			},
			{
				"x": 0.3301069177,
				"y": 0.5828101348,
				"z": -1.3952240787,
				"element": "C" 
			},
			{
				"x": 0.9939030906,
				"y": -0.2390297614,
				"z": -2.171238887,
				"element": "N" 
			},
			{
				"x": 0.2826416811,
				"y": -0.3929306877,
				"z": -3.3529234814,
				"element": "N" 
			},
			{
				"x": -0.7930709062,
				"y": 0.3468575487,
				"z": -3.2481399205,
				"element": "C" 
			},
			{
				"x": -2.0687303724,
				"y": 0.5394517319,
				"z": -4.4562679063,
				"element": "S" 
			},
			{
				"x": -0.8224020102,
				"y": 0.9877922907,
				"z": -2.0372690671,
				"element": "N" 
			},
			{
				"x": 1.7264843113,
				"y": 2.8571676432,
				"z": -0.7061946206,
				"element": "H" 
			},
			{
				"x": 1.3633067495,
				"y": 2.8301550667,
				"z": 1.0291606421,
				"element": "H" 
			},
			{
				"x": 0.0679736206,
				"y": 3.1110368524,
				"z": -0.1371911058,
				"element": "H" 
			},
			{
				"x": 1.6930076493,
				"y": 0.511126668,
				"z": 0.1550959731,
				"element": "H" 
			},
			{
				"x": 0.0965698646,
				"y": 0.840331819,
				"z": 2.0507600003,
				"element": "H" 
			},
			{
				"x": -1.2407937232,
				"y": 1.0551219326,
				"z": 0.9182751514,
				"element": "H" 
			},
			{
				"x": -0.4168878286,
				"y": -0.5098545676,
				"z": 1.0224325095,
				"element": "H" 
			},
			{
				"x": -1.4672411673,
				"y": -0.2929858462,
				"z": -5.3269046365,
				"element": "H" 
			},
			{
				"x": -1.5322439973,
				"y": 1.6168560281,
				"z": -1.6938664317,
				"element": "H" 
			}
		],
		 "valence_orbital": [ 
			{
				"type": "occ",
				"energy": -0.30889,
				"method": "rhf"
			},
			{
				"type": "occ",
				"energy": -0.30187,
				"method": "rhf"
			},
			{
				"type": "occ",
				"energy": -0.30151,
				"method": "rhf"
			},
			{
				"type": "occ",
				"energy": -0.25503,
				"method": "rhf"
			},
			{
				"type": "occ",
				"energy": -0.22876,
				"method": "rhf"
			},
			{
				"type": "unocc",
				"energy": 0.0004,
				"method": "rhf"
			},
			{
				"type": "unocc",
				"energy": 0.01928,
				"method": "rhf"
			},
			{
				"type": "unocc",
				"energy": 0.04587,
				"method": "rhf"
			},
			{
				"type": "unocc",
				"energy": 0.05033,
				"method": "rhf"
			},
			{
				"type": "unocc",
				"energy": 0.06626,
				"method": "rhf"
			}
		],
		"cosmo_sigma_profile": { 
			"-0.025": 0.0,
			"-0.024": 0.0,
			"-0.023": 0.0,
			"-0.022": 0.0,
			"-0.021": 0.0,
			"-0.02": 0.0,
			"-0.019": 0.0,
			"-0.018": 0.229873333548,
			"-0.017": 1.16042461857,
			"-0.016": 0.818027836441,
			"-0.015": 1.33055194727,
			"-0.014": 1.21862399055,
			"-0.013": 1.52740235049,
			"-0.012": 2.69139809377,
			"-0.011": 3.20707469391,
			"-0.01": 2.80468153236,
			"-0.009": 2.60059572057,
			"-0.008": 3.33783730915,
			"-0.007": 2.57055331175,
			"-0.006": 2.81427913783,
			"-0.005": 4.01148226244,
			"-0.004": 10.3294454952,
			"-0.003": 17.4387815833,
			"-0.002": 19.5706274962,
			"-0.001": 19.2127775115,
			"0.0": 22.5129372326,
			"0.001": 13.3410877408,
			"0.002": 8.12519246689,
			"0.003": 6.27959784894,
			"0.004": 4.89270241921,
			"0.005": 3.52085587857,
			"0.006": 5.21064231826,
			"0.007": 3.92952029424,
			"0.008": 1.48318427041,
			"0.009": 1.60798126695,
			"0.01": 1.91731193944,
			"0.011": 1.96110082876,
			"0.012": 2.70053010131,
			"0.013": 3.19389519815,
			"0.014": 3.10851285842,
			"0.015": 3.0172271609,
			"0.016": 2.45274267423,
			"0.017": 1.50901536805,
			"0.018": 0.13996502412,
			"0.019": 0.0,
			"0.02": 0.0,
			"0.021": 0.0,
			"0.022": 0.0,
			"0.023": 0.0,
			"0.024": 0.0,
			"0.025": 0.0
		}
	}
}
