{
	 "smiles": "CN1N=C(C)C(C=O)=C1SCC(O)=O", 
	 "Tm": 400.15, 
	 "num_atms": 24, 
	 "gaussian": { 
		 "optdone": 1, 
		 "sigma_profile": "yes", 
		 "theory": "DFT", 
		 "functional": "B3LYP", 
		 "basiset": "6-31G**", 
		 "properties": { 
			 "R2extent": 3537.2418, 
			 "electric_dipole_moment_norm": 5.76433329102, 
			 "electric_quadrupole_moment_norm": 13.6387870692, 
			 "total_energy": -1044.22599506, 
			 "HOMO_LUMO_gap": 0.19089, 
			 "cosmo_polarized_energy": -18.7, 
			 "cosmo_cavitation_energy": 30.39, 
			 "cosmo_dispersion_energy": -21.53, 
			 "cosmo_repulsion_energy": 1.68, 
			 "cosmo_total_nonelectrostatic_energy": 10.55, 
			 "SMD_solvation_energy": 6.09 
		},
		"coords": [
			{
				"x": -0.518130723,
				"y": -2.4342221192,
				"z": -1.3411687374,
				"element": "C" 
			},
			{
				"x": 0.5639207867,
				"y": -1.6413413112,
				"z": -0.7852717042,
				"element": "N" 
			},
			{
				"x": 1.34336458,
				"y": -2.1916021548,
				"z": 0.1785331433,
				"element": "N" 
			},
			{
				"x": 2.2328318854,
				"y": -1.2572597493,
				"z": 0.5094237296,
				"element": "C" 
			},
			{
				"x": 3.2753646722,
				"y": -1.5229940792,
				"z": 1.5471945866,
				"element": "C" 
			},
			{
				"x": 2.0221191955,
				"y": -0.0683840049,
				"z": -0.2463890773,
				"element": "C" 
			},
			{
				"x": 2.7902966803,
				"y": 1.1748136989,
				"z": -0.184772333,
				"element": "C" 
			},
			{
				"x": 3.7551667125,
				"y": 1.3311118392,
				"z": 0.5495312578,
				"element": "O" 
			},
			{
				"x": 0.9256808941,
				"y": -0.3574718677,
				"z": -1.0676625608,
				"element": "C" 
			},
			{
				"x": 0.167754535,
				"y": 0.6219055573,
				"z": -2.3273363174,
				"element": "S" 
			},
			{
				"x": -1.3009391503,
				"y": 1.2841117667,
				"z": -1.4586624959,
				"element": "C" 
			},
			{
				"x": -1.0085046321,
				"y": 2.3497997762,
				"z": -0.4113376056,
				"element": "C" 
			},
			{
				"x": -2.1280998201,
				"y": 2.5980583208,
				"z": 0.3071051123,
				"element": "O" 
			},
			{
				"x": 0.0379915512,
				"y": 2.9223454741,
				"z": -0.2289865165,
				"element": "O" 
			},
			{
				"x": -0.8387285625,
				"y": -1.9874504258,
				"z": -2.2825912623,
				"element": "H" 
			},
			{
				"x": -0.151431764,
				"y": -3.4469558271,
				"z": -1.5140576038,
				"element": "H" 
			},
			{
				"x": -1.3629513833,
				"y": -2.4780448671,
				"z": -0.6460523705,
				"element": "H" 
			},
			{
				"x": 4.2795364484,
				"y": -1.4084341204,
				"z": 1.1287592027,
				"element": "H" 
			},
			{
				"x": 3.1569072147,
				"y": -2.5360100687,
				"z": 1.9381220854,
				"element": "H" 
			},
			{
				"x": 3.2014410367,
				"y": -0.8038902088,
				"z": 2.3682336374,
				"element": "H" 
			},
			{
				"x": 2.4367778371,
				"y": 1.9838151052,
				"z": -0.8501030515,
				"element": "H" 
			},
			{
				"x": -1.9244986295,
				"y": 1.7355315543,
				"z": -2.2384636939,
				"element": "H" 
			},
			{
				"x": -1.8913785925,
				"y": 0.4830463062,
				"z": -1.0075389587,
				"element": "H" 
			},
			{
				"x": -1.8972907727,
				"y": 3.2953214051,
				"z": 0.9445915336,
				"element": "H" 
			}
		],
		 "valence_orbital": [ 
			{
				"type": "occ",
				"energy": -0.29796,
				"method": "rhf"
			},
			{
				"type": "occ",
				"energy": -0.26472,
				"method": "rhf"
			},
			{
				"type": "occ",
				"energy": -0.25594,
				"method": "rhf"
			},
			{
				"type": "occ",
				"energy": -0.2505,
				"method": "rhf"
			},
			{
				"type": "occ",
				"energy": -0.23578,
				"method": "rhf"
			},
			{
				"type": "unocc",
				"energy": -0.04489,
				"method": "rhf"
			},
			{
				"type": "unocc",
				"energy": -0.0141,
				"method": "rhf"
			},
			{
				"type": "unocc",
				"energy": -0.00049,
				"method": "rhf"
			},
			{
				"type": "unocc",
				"energy": 0.03459,
				"method": "rhf"
			},
			{
				"type": "unocc",
				"energy": 0.05355,
				"method": "rhf"
			}
		],
		"cosmo_sigma_profile": { 
			"-0.025": 0.0,
			"-0.024": 0.0,
			"-0.023": 0.0,
			"-0.022": 0.0,
			"-0.021": 0.0,
			"-0.02": 0.0,
			"-0.019": 0.272121526824,
			"-0.018": 1.14427665076,
			"-0.017": 0.57638709071,
			"-0.016": 0.945592047683,
			"-0.015": 1.05385325774,
			"-0.014": 1.00813151796,
			"-0.013": 0.0692827273265,
			"-0.012": 0.85454888293,
			"-0.011": 0.992598717371,
			"-0.01": 2.84813581629,
			"-0.009": 3.23279794689,
			"-0.008": 5.5546401664,
			"-0.007": 8.33231513761,
			"-0.006": 11.8211215831,
			"-0.005": 12.8872638264,
			"-0.004": 18.1725591722,
			"-0.003": 19.8637608311,
			"-0.002": 17.0324376439,
			"-0.001": 15.5901817723,
			"0.0": 17.7748796863,
			"0.001": 15.6796828905,
			"0.002": 11.9061904346,
			"0.003": 11.7416289975,
			"0.004": 9.32325064021,
			"0.005": 7.88268783036,
			"0.006": 7.15618430508,
			"0.007": 6.93370909906,
			"0.008": 6.10640417693,
			"0.009": 5.5849206698,
			"0.01": 6.14752061888,
			"0.011": 5.34115762977,
			"0.012": 5.05028470397,
			"0.013": 2.68855716114,
			"0.014": 1.26977438053,
			"0.015": 0.26068260089,
			"0.016": 0.0,
			"0.017": 0.0,
			"0.018": 0.0,
			"0.019": 0.0,
			"0.02": 0.0,
			"0.021": 0.0,
			"0.022": 0.0,
			"0.023": 0.0,
			"0.024": 0.0,
			"0.025": 0.0
		}
	}
}
