{
	 "smiles": "OC(=O)C1=CC=CC(=C1)N=C=S", 
	 "Tm": 438.15, 
	 "num_atms": 17, 
	 "gaussian": { 
		 "optdone": 1, 
		 "sigma_profile": "yes", 
		 "theory": "DFT", 
		 "functional": "B3LYP", 
		 "basiset": "6-31G**", 
		 "properties": { 
			 "R2extent": 3503.6414, 
			 "electric_dipole_moment_norm": 1.93851158108, 
			 "electric_quadrupole_moment_norm": 16.7530295048, 
			 "total_energy": -911.263357236, 
			 "HOMO_LUMO_gap": 0.17051, 
			 "cosmo_polarized_energy": -10.47, 
			 "cosmo_cavitation_energy": 25.66, 
			 "cosmo_dispersion_energy": -19.09, 
			 "cosmo_repulsion_energy": 1.5, 
			 "cosmo_total_nonelectrostatic_energy": 8.06, 
			 "SMD_solvation_energy": 6.31 
		},
		"coords": [
			{
				"x": 0.2188332591,
				"y": -2.7826215967,
				"z": -0.0149099668,
				"element": "O" 
			},
			{
				"x": 0.8091535904,
				"y": -2.37438562,
				"z": -1.1635478366,
				"element": "C" 
			},
			{
				"x": 1.2327833209,
				"y": -3.1547581384,
				"z": -1.9916642122,
				"element": "O" 
			},
			{
				"x": 0.8758271143,
				"y": -0.8908300985,
				"z": -1.2883014843,
				"element": "C" 
			},
			{
				"x": 1.4653730872,
				"y": -0.3556468679,
				"z": -2.4412971818,
				"element": "C" 
			},
			{
				"x": 1.5482375181,
				"y": 1.0263098894,
				"z": -2.5996468002,
				"element": "C" 
			},
			{
				"x": 1.0488999365,
				"y": 1.8806562843,
				"z": -1.6190780112,
				"element": "C" 
			},
			{
				"x": 0.458095666,
				"y": 1.3419847008,
				"z": -0.4628504976,
				"element": "C" 
			},
			{
				"x": 0.3703720411,
				"y": -0.0475355624,
				"z": -0.2951002902,
				"element": "C" 
			},
			{
				"x": -0.0356766884,
				"y": 2.1791036894,
				"z": 0.5057931234,
				"element": "N" 
			},
			{
				"x": -0.4633509208,
				"y": 2.9033815846,
				"z": 1.3436226866,
				"element": "C" 
			},
			{
				"x": -1.0354325161,
				"y": 3.8756407654,
				"z": 2.467788788,
				"element": "S" 
			},
			{
				"x": 0.228999915,
				"y": -3.7536408213,
				"z": -0.0382680838,
				"element": "H" 
			},
			{
				"x": 1.8483254155,
				"y": -1.035886049,
				"z": -3.1936609712,
				"element": "H" 
			},
			{
				"x": 2.0040554909,
				"y": 1.4446941461,
				"z": -3.4914234932,
				"element": "H" 
			},
			{
				"x": 1.107612673,
				"y": 2.9579395454,
				"z": -1.7313291344,
				"element": "H" 
			},
			{
				"x": -0.0860089028,
				"y": -0.4563058512,
				"z": 0.5977733657,
				"element": "H" 
			}
		],
		 "valence_orbital": [ 
			{
				"type": "occ",
				"energy": -0.30057,
				"method": "rhf"
			},
			{
				"type": "occ",
				"energy": -0.291,
				"method": "rhf"
			},
			{
				"type": "occ",
				"energy": -0.28392,
				"method": "rhf"
			},
			{
				"type": "occ",
				"energy": -0.25695,
				"method": "rhf"
			},
			{
				"type": "occ",
				"energy": -0.23883,
				"method": "rhf"
			},
			{
				"type": "unocc",
				"energy": -0.06832,
				"method": "rhf"
			},
			{
				"type": "unocc",
				"energy": -0.05097,
				"method": "rhf"
			},
			{
				"type": "unocc",
				"energy": -0.00091,
				"method": "rhf"
			},
			{
				"type": "unocc",
				"energy": 0.01711,
				"method": "rhf"
			},
			{
				"type": "unocc",
				"energy": 0.0646,
				"method": "rhf"
			}
		],
		"cosmo_sigma_profile": { 
			"-0.025": 0.0,
			"-0.024": 0.0,
			"-0.023": 0.0,
			"-0.022": 0.0,
			"-0.021": 0.0,
			"-0.02": 0.0,
			"-0.019": 0.407326041984,
			"-0.018": 0.802109856056,
			"-0.017": 0.585205701168,
			"-0.016": 1.38527914644,
			"-0.015": 0.650373772543,
			"-0.014": 0.277231881012,
			"-0.013": 0.389826821273,
			"-0.012": 1.13810655761,
			"-0.011": 0.847706018317,
			"-0.01": 0.915743467809,
			"-0.009": 0.271439443843,
			"-0.008": 3.85270936422,
			"-0.007": 7.54438516893,
			"-0.006": 9.23459658623,
			"-0.005": 8.17452496749,
			"-0.004": 7.85715312626,
			"-0.003": 11.5815211177,
			"-0.002": 16.9256208554,
			"-0.001": 22.0410936427,
			"0.0": 19.6393169514,
			"0.001": 20.90426848,
			"0.002": 16.4023662983,
			"0.003": 7.96506487876,
			"0.004": 9.04546638096,
			"0.005": 13.0687705778,
			"0.006": 14.2876452848,
			"0.007": 2.31530457087,
			"0.008": 1.00646658539,
			"0.009": 2.39832482556,
			"0.01": 2.00098869399,
			"0.011": 4.60167246872,
			"0.012": 2.26082366849,
			"0.013": 0.0,
			"0.014": 0.0,
			"0.015": 0.0,
			"0.016": 0.0,
			"0.017": 0.0,
			"0.018": 0.0,
			"0.019": 0.0,
			"0.02": 0.0,
			"0.021": 0.0,
			"0.022": 0.0,
			"0.023": 0.0,
			"0.024": 0.0,
			"0.025": 0.0
		}
	}
}
