{
	 "smiles": "CNC(=O)NC(C)(C)C(O)=O", 
	 "Tm": 413.15, 
	 "num_atms": 23, 
	 "gaussian": { 
		 "optdone": 1, 
		 "sigma_profile": "yes", 
		 "theory": "DFT", 
		 "functional": "B3LYP", 
		 "basiset": "6-31G**", 
		 "properties": { 
			 "R2extent": 2265.6877, 
			 "electric_dipole_moment_norm": 5.87158760643, 
			 "electric_quadrupole_moment_norm": 11.95667219, 
			 "total_energy": -571.065149306, 
			 "HOMO_LUMO_gap": 0.23696, 
			 "cosmo_polarized_energy": -19.6, 
			 "cosmo_cavitation_energy": 25.41, 
			 "cosmo_dispersion_energy": -18.11, 
			 "cosmo_repulsion_energy": 1.45, 
			 "cosmo_total_nonelectrostatic_energy": 8.75, 
			 "SMD_solvation_energy": 5.44 
		},
		"coords": [
			{
				"x": 0.8776620108,
				"y": -3.5495756095,
				"z": -0.213512685,
				"element": "C" 
			},
			{
				"x": 0.5820639074,
				"y": -2.9411941952,
				"z": 1.0864986788,
				"element": "N" 
			},
			{
				"x": 1.3078011627,
				"y": -1.8715682373,
				"z": 1.5967960835,
				"element": "C" 
			},
			{
				"x": 1.6955123547,
				"y": -1.8503868644,
				"z": 2.7566334122,
				"element": "O" 
			},
			{
				"x": 1.5634030603,
				"y": -0.8203997461,
				"z": 0.6927157608,
				"element": "N" 
			},
			{
				"x": 0.4650254971,
				"y": 0.0498082244,
				"z": 0.2154341173,
				"element": "C" 
			},
			{
				"x": -0.5829816411,
				"y": 0.3261635223,
				"z": 1.3245212644,
				"element": "C" 
			},
			{
				"x": -0.2226212449,
				"y": -0.53236793,
				"z": -1.0334333299,
				"element": "C" 
			},
			{
				"x": 1.1524726912,
				"y": 1.4039423759,
				"z": -0.1027228798,
				"element": "C" 
			},
			{
				"x": 0.4376579187,
				"y": 2.2885589689,
				"z": -0.8336156012,
				"element": "O" 
			},
			{
				"x": 2.2449337586,
				"y": 1.707411451,
				"z": 0.310943002,
				"element": "O" 
			},
			{
				"x": -0.0407975084,
				"y": -3.8544494181,
				"z": -0.7265173623,
				"element": "H" 
			},
			{
				"x": 1.4050212278,
				"y": -2.8263787653,
				"z": -0.8341790907,
				"element": "H" 
			},
			{
				"x": 1.5182918452,
				"y": -4.4330915288,
				"z": -0.1008145154,
				"element": "H" 
			},
			{
				"x": 0.4346476634,
				"y": -3.6149386833,
				"z": 1.8289243297,
				"element": "H" 
			},
			{
				"x": 2.2725580782,
				"y": -0.2189192278,
				"z": 1.1077226372,
				"element": "H" 
			},
			{
				"x": -1.0954813764,
				"y": -0.6043518019,
				"z": 1.5837660423,
				"element": "H" 
			},
			{
				"x": -0.0962145182,
				"y": 0.7159236569,
				"z": 2.2220662887,
				"element": "H" 
			},
			{
				"x": -1.3359734742,
				"y": 1.0495498087,
				"z": 0.9949617652,
				"element": "H" 
			},
			{
				"x": 0.4897769429,
				"y": -0.6766947902,
				"z": -1.8498633071,
				"element": "H" 
			},
			{
				"x": -1.0411138846,
				"y": 0.1046888285,
				"z": -1.3912210913,
				"element": "H" 
			},
			{
				"x": -0.6751611173,
				"y": -1.4930392436,
				"z": -0.784266762,
				"element": "H" 
			},
			{
				"x": -0.4014833538,
				"y": 1.8999092048,
				"z": -1.1164367573,
				"element": "H" 
			}
		],
		 "valence_orbital": [ 
			{
				"type": "occ",
				"energy": -0.32825,
				"method": "rhf"
			},
			{
				"type": "occ",
				"energy": -0.28451,
				"method": "rhf"
			},
			{
				"type": "occ",
				"energy": -0.28244,
				"method": "rhf"
			},
			{
				"type": "occ",
				"energy": -0.259,
				"method": "rhf"
			},
			{
				"type": "occ",
				"energy": -0.23888,
				"method": "rhf"
			},
			{
				"type": "unocc",
				"energy": -0.00192,
				"method": "rhf"
			},
			{
				"type": "unocc",
				"energy": 0.02343,
				"method": "rhf"
			},
			{
				"type": "unocc",
				"energy": 0.03378,
				"method": "rhf"
			},
			{
				"type": "unocc",
				"energy": 0.08562,
				"method": "rhf"
			},
			{
				"type": "unocc",
				"energy": 0.10626,
				"method": "rhf"
			}
		],
		"cosmo_sigma_profile": { 
			"-0.025": 0.0,
			"-0.024": 0.0,
			"-0.023": 0.0,
			"-0.022": 0.0,
			"-0.021": 0.0,
			"-0.02": 0.0,
			"-0.019": 0.325972216465,
			"-0.018": 0.640192481777,
			"-0.017": 1.00921295133,
			"-0.016": 0.99787483293,
			"-0.015": 0.792633206455,
			"-0.014": 0.835350147496,
			"-0.013": 1.19584432739,
			"-0.012": 2.67686053216,
			"-0.011": 2.33647513226,
			"-0.01": 1.73349725744,
			"-0.009": 1.97391625034,
			"-0.008": 2.90326266436,
			"-0.007": 3.26660376226,
			"-0.006": 5.26238098529,
			"-0.005": 11.5932643067,
			"-0.004": 19.3681261291,
			"-0.003": 19.9670171798,
			"-0.002": 24.3217704352,
			"-0.001": 17.7920037366,
			"0.0": 9.31753613154,
			"0.001": 5.3145932251,
			"0.002": 6.22051994838,
			"0.003": 4.87034037516,
			"0.004": 4.4642948722,
			"0.005": 4.38780067979,
			"0.006": 4.6741916442,
			"0.007": 5.40412051591,
			"0.008": 4.5674993131,
			"0.009": 4.97427589092,
			"0.01": 6.63856721536,
			"0.011": 5.25933724512,
			"0.012": 3.43447744902,
			"0.013": 4.98704743642,
			"0.014": 4.39194183914,
			"0.015": 0.465656715321,
			"0.016": 0.0,
			"0.017": 0.0,
			"0.018": 0.0,
			"0.019": 0.0,
			"0.02": 0.0,
			"0.021": 0.0,
			"0.022": 0.0,
			"0.023": 0.0,
			"0.024": 0.0,
			"0.025": 0.0
		}
	}
}
