{
	 "smiles": "COC1=CC=C(C=C1)C1C(CCC(=O)N1C)C(O)=O", 
	 "Tm": 487.15, 
	 "num_atms": 36, 
	 "gaussian": { 
		 "optdone": 1, 
		 "sigma_profile": "yes", 
		 "theory": "DFT", 
		 "functional": "B3LYP", 
		 "basiset": "6-31G**", 
		 "properties": { 
			 "R2extent": 6391.5257, 
			 "electric_dipole_moment_norm": 3.80211769018, 
			 "electric_quadrupole_moment_norm": 21.5952885028, 
			 "total_energy": -899.405292661, 
			 "HOMO_LUMO_gap": 0.20958, 
			 "cosmo_polarized_energy": -18.19, 
			 "cosmo_cavitation_energy": 37.9, 
			 "cosmo_dispersion_energy": -26.45, 
			 "cosmo_repulsion_energy": 2.04, 
			 "cosmo_total_nonelectrostatic_energy": 13.48, 
			 "SMD_solvation_energy": 8.88 
		},
		"coords": [
			{
				"x": 4.15942196,
				"y": 1.7661113229,
				"z": -1.2798244421,
				"element": "C" 
			},
			{
				"x": 3.7905865316,
				"y": 0.6991840029,
				"z": -0.4200609908,
				"element": "O" 
			},
			{
				"x": 2.4802976161,
				"y": 0.3212730055,
				"z": -0.3864159032,
				"element": "C" 
			},
			{
				"x": 1.4591623926,
				"y": 0.9089606602,
				"z": -1.1400449318,
				"element": "C" 
			},
			{
				"x": 0.1484150196,
				"y": 0.4339557724,
				"z": -1.0212042005,
				"element": "C" 
			},
			{
				"x": -0.1714006775,
				"y": -0.6201863075,
				"z": -0.1644575533,
				"element": "C" 
			},
			{
				"x": 0.8703140457,
				"y": -1.2066340682,
				"z": 0.5737227588,
				"element": "C" 
			},
			{
				"x": 2.1754589808,
				"y": -0.7457500075,
				"z": 0.4736411676,
				"element": "C" 
			},
			{
				"x": -1.5998324945,
				"y": -1.1369866966,
				"z": 0.0156588275,
				"element": "C" 
			},
			{
				"x": -2.2681147517,
				"y": -0.5362755719,
				"z": 1.2716131457,
				"element": "C" 
			},
			{
				"x": -2.7405089307,
				"y": 0.896474715,
				"z": 0.997143229,
				"element": "C" 
			},
			{
				"x": -3.7509282789,
				"y": 0.8992655403,
				"z": -0.1501067226,
				"element": "C" 
			},
			{
				"x": -3.3962110516,
				"y": 0.0252414726,
				"z": -1.3504615571,
				"element": "C" 
			},
			{
				"x": -4.0018216218,
				"y": 0.1683002719,
				"z": -2.4085151256,
				"element": "O" 
			},
			{
				"x": -2.430740098,
				"y": -0.9429626438,
				"z": -1.179379185,
				"element": "N" 
			},
			{
				"x": -2.1427458865,
				"y": -1.8427244144,
				"z": -2.2925529863,
				"element": "C" 
			},
			{
				"x": -3.3643040778,
				"y": -1.4653579908,
				"z": 1.790159132,
				"element": "C" 
			},
			{
				"x": -4.2209922813,
				"y": -0.8310517449,
				"z": 2.6260811704,
				"element": "O" 
			},
			{
				"x": -3.4589476664,
				"y": -2.6484905224,
				"z": 1.546808525,
				"element": "O" 
			},
			{
				"x": 3.9489728966,
				"y": 1.5307129466,
				"z": -2.3310663386,
				"element": "H" 
			},
			{
				"x": 5.234536351,
				"y": 1.8994800671,
				"z": -1.1507162969,
				"element": "H" 
			},
			{
				"x": 3.6458042264,
				"y": 2.6985640092,
				"z": -1.0121603678,
				"element": "H" 
			},
			{
				"x": 1.6662796996,
				"y": 1.7258008309,
				"z": -1.8211871161,
				"element": "H" 
			},
			{
				"x": -0.6306355282,
				"y": 0.8891024153,
				"z": -1.6257398984,
				"element": "H" 
			},
			{
				"x": 0.6543879959,
				"y": -2.0429343408,
				"z": 1.2355450166,
				"element": "H" 
			},
			{
				"x": 2.9808386581,
				"y": -1.2003413751,
				"z": 1.0413059376,
				"element": "H" 
			},
			{
				"x": -1.5457024975,
				"y": -2.2190163215,
				"z": 0.1813191098,
				"element": "H" 
			},
			{
				"x": -1.5128097074,
				"y": -0.5178217273,
				"z": 2.0684600419,
				"element": "H" 
			},
			{
				"x": -3.1759375397,
				"y": 1.3396757103,
				"z": 1.8959185598,
				"element": "H" 
			},
			{
				"x": -1.8619892929,
				"y": 1.4947174974,
				"z": 0.7329003855,
				"element": "H" 
			},
			{
				"x": -3.9248735056,
				"y": 1.9061709827,
				"z": -0.5386911185,
				"element": "H" 
			},
			{
				"x": -4.7253846821,
				"y": 0.5410717122,
				"z": 0.2056680802,
				"element": "H" 
			},
			{
				"x": -2.8024926727,
				"y": -1.5815449454,
				"z": -3.1178613596,
				"element": "H" 
			},
			{
				"x": -2.3208641409,
				"y": -2.8812672424,
				"z": -1.989770938,
				"element": "H" 
			},
			{
				"x": -1.0989680357,
				"y": -1.7446409056,
				"z": -2.610478766,
				"element": "H" 
			},
			{
				"x": -4.8485709542,
				"y": -1.5078761088,
				"z": 2.9321507107,
				"element": "H" 
			}
		],
		 "valence_orbital": [ 
			{
				"type": "occ",
				"energy": -0.28358,
				"method": "rhf"
			},
			{
				"type": "occ",
				"energy": -0.25743,
				"method": "rhf"
			},
			{
				"type": "occ",
				"energy": -0.23615,
				"method": "rhf"
			},
			{
				"type": "occ",
				"energy": -0.23546,
				"method": "rhf"
			},
			{
				"type": "occ",
				"energy": -0.22135,
				"method": "rhf"
			},
			{
				"type": "unocc",
				"energy": -0.01177,
				"method": "rhf"
			},
			{
				"type": "unocc",
				"energy": -0.00219,
				"method": "rhf"
			},
			{
				"type": "unocc",
				"energy": 0.00375,
				"method": "rhf"
			},
			{
				"type": "unocc",
				"energy": 0.03355,
				"method": "rhf"
			},
			{
				"type": "unocc",
				"energy": 0.06689,
				"method": "rhf"
			}
		],
		"cosmo_sigma_profile": { 
			"-0.025": 0.0,
			"-0.024": 0.0,
			"-0.023": 0.0,
			"-0.022": 0.0,
			"-0.021": 0.0,
			"-0.02": 0.0,
			"-0.019": 0.00971979017098,
			"-0.018": 0.975389513269,
			"-0.017": 0.963868672871,
			"-0.016": 0.419354742391,
			"-0.015": 0.783575974953,
			"-0.014": 1.2337980397,
			"-0.013": 0.615774208795,
			"-0.012": 0.898476182952,
			"-0.011": 0.752640850693,
			"-0.01": 0.62280188834,
			"-0.009": 0.341038208949,
			"-0.008": 1.15065697193,
			"-0.007": 4.6533461629,
			"-0.006": 13.9088205214,
			"-0.005": 26.1787361428,
			"-0.004": 30.7909355783,
			"-0.003": 32.7389096583,
			"-0.002": 30.2421411026,
			"-0.001": 23.7687433666,
			"0.0": 14.4472436097,
			"0.001": 12.5996849458,
			"0.002": 12.274295497,
			"0.003": 12.4391561911,
			"0.004": 14.6953442329,
			"0.005": 14.368820408,
			"0.006": 6.98776209845,
			"0.007": 4.56184720826,
			"0.008": 5.1328559781,
			"0.009": 4.81347281102,
			"0.01": 5.42285789361,
			"0.011": 5.67133369589,
			"0.012": 3.82949184119,
			"0.013": 2.10940353517,
			"0.014": 5.50343200975,
			"0.015": 2.15081917836,
			"0.016": 0.243056398687,
			"0.017": 0.0,
			"0.018": 0.0,
			"0.019": 0.0,
			"0.02": 0.0,
			"0.021": 0.0,
			"0.022": 0.0,
			"0.023": 0.0,
			"0.024": 0.0,
			"0.025": 0.0
		}
	}
}
