{
	 "smiles": "CCOC(=O)C1=C(N)C2=C(SC(C#N)=C2N)S1", 
	 "Tm": 533.15, 
	 "num_atms": 26, 
	 "gaussian": { 
		 "optdone": 1, 
		 "sigma_profile": "yes", 
		 "theory": "DFT", 
		 "functional": "B3LYP", 
		 "basiset": "6-31G**", 
		 "properties": { 
			 "R2extent": 6534.3095, 
			 "electric_dipole_moment_norm": 5.96288948833, 
			 "electric_quadrupole_moment_norm": 18.3681782973, 
			 "total_energy": -1497.55691507, 
			 "HOMO_LUMO_gap": 0.15943, 
			 "cosmo_polarized_energy": -18.89, 
			 "cosmo_cavitation_energy": 34.53, 
			 "cosmo_dispersion_energy": -25.67, 
			 "cosmo_repulsion_energy": 1.91, 
			 "cosmo_total_nonelectrostatic_energy": 10.77, 
			 "SMD_solvation_energy": 7.14 
		},
		"coords": [
			{
				"x": 3.1816772614,
				"y": -2.0228844692,
				"z": 2.8160174504,
				"element": "C" 
			},
			{
				"x": 2.5288241561,
				"y": -2.7617272888,
				"z": 1.6582888885,
				"element": "C" 
			},
			{
				"x": 1.5999819288,
				"y": -1.9073944118,
				"z": 0.942222322,
				"element": "O" 
			},
			{
				"x": 0.332940462,
				"y": -1.8347661494,
				"z": 1.4529832689,
				"element": "C" 
			},
			{
				"x": -0.0265289004,
				"y": -2.4499382367,
				"z": 2.4418716189,
				"element": "O" 
			},
			{
				"x": -0.5240309739,
				"y": -0.9534556751,
				"z": 0.6777092698,
				"element": "C" 
			},
			{
				"x": -0.264312585,
				"y": -0.2136189386,
				"z": -0.4685410875,
				"element": "C" 
			},
			{
				"x": 0.9451217557,
				"y": -0.103544833,
				"z": -1.1277259776,
				"element": "N" 
			},
			{
				"x": -1.4367937509,
				"y": 0.4971527949,
				"z": -0.9000646863,
				"element": "C" 
			},
			{
				"x": -2.5441314073,
				"y": 0.2417747782,
				"z": -0.0994580986,
				"element": "C" 
			},
			{
				"x": -3.9808928299,
				"y": 1.037829743,
				"z": -0.6434417467,
				"element": "S" 
			},
			{
				"x": -3.0556455715,
				"y": 1.7849975063,
				"z": -1.9687868233,
				"element": "C" 
			},
			{
				"x": -3.6481377392,
				"y": 2.6886878343,
				"z": -2.8706347003,
				"element": "C" 
			},
			{
				"x": -4.0945047643,
				"y": 3.4470295336,
				"z": -3.6383520244,
				"element": "N" 
			},
			{
				"x": -1.7212753264,
				"y": 1.4085501635,
				"z": -1.9700145502,
				"element": "C" 
			},
			{
				"x": -0.7682067415,
				"y": 1.8109992365,
				"z": -2.8937116266,
				"element": "N" 
			},
			{
				"x": -2.2066061433,
				"y": -0.8089652873,
				"z": 1.2292388753,
				"element": "S" 
			},
			{
				"x": 3.9292443965,
				"y": -2.6669656592,
				"z": 3.291010188,
				"element": "H" 
			},
			{
				"x": 3.682260475,
				"y": -1.1141126732,
				"z": 2.4688360853,
				"element": "H" 
			},
			{
				"x": 2.4353603791,
				"y": -1.7526995903,
				"z": 3.5666270136,
				"element": "H" 
			},
			{
				"x": 3.2618637656,
				"y": -3.0563216037,
				"z": 0.9032836363,
				"element": "H" 
			},
			{
				"x": 1.9906589078,
				"y": -3.6457820958,
				"z": 2.0062006459,
				"element": "H" 
			},
			{
				"x": 1.6488828304,
				"y": -0.7515362313,
				"z": -0.7951185693,
				"element": "H" 
			},
			{
				"x": 0.8690644574,
				"y": -0.059259207,
				"z": -2.1362759429,
				"element": "H" 
			},
			{
				"x": -1.0817588433,
				"y": 2.5364762206,
				"z": -3.5281821728,
				"element": "H" 
			},
			{
				"x": 0.1331448011,
				"y": 2.0291745395,
				"z": -2.4851812563,
				"element": "H" 
			}
		],
		 "valence_orbital": [ 
			{
				"type": "occ",
				"energy": -0.30378,
				"method": "rhf"
			},
			{
				"type": "occ",
				"energy": -0.28331,
				"method": "rhf"
			},
			{
				"type": "occ",
				"energy": -0.25939,
				"method": "rhf"
			},
			{
				"type": "occ",
				"energy": -0.23755,
				"method": "rhf"
			},
			{
				"type": "occ",
				"energy": -0.21486,
				"method": "rhf"
			},
			{
				"type": "unocc",
				"energy": -0.05543,
				"method": "rhf"
			},
			{
				"type": "unocc",
				"energy": -0.0443,
				"method": "rhf"
			},
			{
				"type": "unocc",
				"energy": -0.01993,
				"method": "rhf"
			},
			{
				"type": "unocc",
				"energy": 0.00376,
				"method": "rhf"
			},
			{
				"type": "unocc",
				"energy": 0.01549,
				"method": "rhf"
			}
		],
		"cosmo_sigma_profile": { 
			"-0.025": 0.0,
			"-0.024": 0.0,
			"-0.023": 0.0,
			"-0.022": 0.0,
			"-0.021": 0.0,
			"-0.02": 0.0,
			"-0.019": 0.0,
			"-0.018": 0.0,
			"-0.017": 0.0,
			"-0.016": 0.0,
			"-0.015": 0.0,
			"-0.014": 0.578793538678,
			"-0.013": 2.84970610879,
			"-0.012": 4.09894561551,
			"-0.011": 3.82268506819,
			"-0.01": 4.5454291502,
			"-0.009": 4.52072566641,
			"-0.008": 5.17319862397,
			"-0.007": 5.10804720547,
			"-0.006": 6.27389326155,
			"-0.005": 10.862294642,
			"-0.004": 17.642484508,
			"-0.003": 18.1995598321,
			"-0.002": 18.2720791738,
			"-0.001": 25.1863822938,
			"0.0": 35.8231378294,
			"0.001": 28.0397376583,
			"0.002": 18.9971636208,
			"0.003": 14.4846790697,
			"0.004": 8.61834762997,
			"0.005": 5.27374632043,
			"0.006": 5.30521144155,
			"0.007": 5.46157117686,
			"0.008": 5.21065095492,
			"0.009": 6.4945195919,
			"0.01": 5.38264625381,
			"0.011": 5.21978138977,
			"0.012": 7.00398531818,
			"0.013": 2.50236803645,
			"0.014": 0.312118547518,
			"0.015": 0.0,
			"0.016": 0.0,
			"0.017": 0.0,
			"0.018": 0.0,
			"0.019": 0.0,
			"0.02": 0.0,
			"0.021": 0.0,
			"0.022": 0.0,
			"0.023": 0.0,
			"0.024": 0.0,
			"0.025": 0.0
		}
	}
}
