{
	 "smiles": "OC(=O)C1CNC2=C1C=CC=C2", 
	 "Tm": 452.15, 
	 "num_atms": 21, 
	 "gaussian": { 
		 "optdone": 1, 
		 "sigma_profile": "yes", 
		 "theory": "DFT", 
		 "functional": "B3LYP", 
		 "basiset": "6-31G**", 
		 "properties": { 
			 "R2extent": 1988.1243, 
			 "electric_dipole_moment_norm": 0.343269617065, 
			 "electric_quadrupole_moment_norm": 12.6216577592, 
			 "total_energy": -553.594260734, 
			 "HOMO_LUMO_gap": 0.1917, 
			 "cosmo_polarized_energy": -11.72, 
			 "cosmo_cavitation_energy": 24.46, 
			 "cosmo_dispersion_energy": -18.3, 
			 "cosmo_repulsion_energy": 1.46, 
			 "cosmo_total_nonelectrostatic_energy": 7.63, 
			 "SMD_solvation_energy": 3.79 
		},
		"coords": [
			{
				"x": -2.2153134646,
				"y": 1.2634036771,
				"z": 1.1344784003,
				"element": "O" 
			},
			{
				"x": -1.835604129,
				"y": -0.0350739862,
				"z": 1.2228622193,
				"element": "C" 
			},
			{
				"x": -1.9411835261,
				"y": -0.6743884731,
				"z": 2.2458503125,
				"element": "O" 
			},
			{
				"x": -1.2690410118,
				"y": -0.5295137992,
				"z": -0.0947922493,
				"element": "C" 
			},
			{
				"x": -1.1116254523,
				"y": -2.0692669182,
				"z": -0.134921291,
				"element": "C" 
			},
			{
				"x": 0.1066140537,
				"y": -2.2826895738,
				"z": -0.9375935198,
				"element": "N" 
			},
			{
				"x": 0.9020259925,
				"y": -1.1381369876,
				"z": -0.8353300871,
				"element": "C" 
			},
			{
				"x": 0.1554105218,
				"y": -0.0472032431,
				"z": -0.3598563207,
				"element": "C" 
			},
			{
				"x": 0.7293600579,
				"y": 1.2105612033,
				"z": -0.2415497959,
				"element": "C" 
			},
			{
				"x": 2.0786954784,
				"y": 1.3758620265,
				"z": -0.5838075221,
				"element": "C" 
			},
			{
				"x": 2.8216363039,
				"y": 0.2857778848,
				"z": -1.0445416213,
				"element": "C" 
			},
			{
				"x": 2.2463963126,
				"y": -0.9820544739,
				"z": -1.179422148,
				"element": "C" 
			},
			{
				"x": -2.5274804878,
				"y": 1.5151260996,
				"z": 2.0202597211,
				"element": "H" 
			},
			{
				"x": -1.9332823717,
				"y": -0.1725351334,
				"z": -0.8930899084,
				"element": "H" 
			},
			{
				"x": -1.0040733492,
				"y": -2.4396379277,
				"z": 0.8930074151,
				"element": "H" 
			},
			{
				"x": -1.9731837441,
				"y": -2.5630857358,
				"z": -0.5928785931,
				"element": "H" 
			},
			{
				"x": 0.5725913243,
				"y": -3.1707429196,
				"z": -0.8012683362,
				"element": "H" 
			},
			{
				"x": 0.1423453737,
				"y": 2.04849911,
				"z": 0.1223409048,
				"element": "H" 
			},
			{
				"x": 2.5460119772,
				"y": 2.3509291034,
				"z": -0.4881943618,
				"element": "H" 
			},
			{
				"x": 3.8681769444,
				"y": 0.4207556369,
				"z": -1.3037869929,
				"element": "H" 
			},
			{
				"x": 2.8310231964,
				"y": -1.8226855698,
				"z": -1.5422662255,
				"element": "H" 
			}
		],
		 "valence_orbital": [ 
			{
				"type": "occ",
				"energy": -0.32163,
				"method": "rhf"
			},
			{
				"type": "occ",
				"energy": -0.2939,
				"method": "rhf"
			},
			{
				"type": "occ",
				"energy": -0.28189,
				"method": "rhf"
			},
			{
				"type": "occ",
				"energy": -0.24221,
				"method": "rhf"
			},
			{
				"type": "occ",
				"energy": -0.19585,
				"method": "rhf"
			},
			{
				"type": "unocc",
				"energy": -0.00415,
				"method": "rhf"
			},
			{
				"type": "unocc",
				"energy": 0.00654,
				"method": "rhf"
			},
			{
				"type": "unocc",
				"energy": 0.0215,
				"method": "rhf"
			},
			{
				"type": "unocc",
				"energy": 0.07289,
				"method": "rhf"
			},
			{
				"type": "unocc",
				"energy": 0.0925,
				"method": "rhf"
			}
		],
		"cosmo_sigma_profile": { 
			"-0.025": 0.0,
			"-0.024": 0.0,
			"-0.023": 0.0,
			"-0.022": 0.0,
			"-0.021": 0.0,
			"-0.02": 0.0,
			"-0.019": 0.0353348468683,
			"-0.018": 1.02651852955,
			"-0.017": 0.556714114284,
			"-0.016": 1.1801902561,
			"-0.015": 0.761128608921,
			"-0.014": 0.864771783314,
			"-0.013": 0.917596735268,
			"-0.012": 2.0340580165,
			"-0.011": 1.5804928313,
			"-0.01": 2.51040999356,
			"-0.009": 1.59235310756,
			"-0.008": 2.30697270608,
			"-0.007": 3.31804477199,
			"-0.006": 7.43683789176,
			"-0.005": 13.4243145117,
			"-0.004": 14.4016063111,
			"-0.003": 15.5636514097,
			"-0.002": 13.3855781925,
			"-0.001": 11.4801321742,
			"0.0": 11.6090135885,
			"0.001": 11.3071544471,
			"0.002": 9.23853813894,
			"0.003": 9.53227440189,
			"0.004": 9.98928448883,
			"0.005": 10.8363435516,
			"0.006": 10.8252806618,
			"0.007": 8.43893037964,
			"0.008": 2.60156088671,
			"0.009": 3.63654696505,
			"0.01": 2.92755463783,
			"0.011": 5.38048349635,
			"0.012": 2.63708835102,
			"0.013": 0.631727253667,
			"0.014": 0.0661456198078,
			"0.015": 0.0,
			"0.016": 0.0,
			"0.017": 0.0,
			"0.018": 0.0,
			"0.019": 0.0,
			"0.02": 0.0,
			"0.021": 0.0,
			"0.022": 0.0,
			"0.023": 0.0,
			"0.024": 0.0,
			"0.025": 0.0
		}
	}
}
