{
	 "smiles": "CCOC(C)C(N)=NO", 
	 "Tm": 362.15, 
	 "num_atms": 21, 
	 "gaussian": { 
		 "optdone": 1, 
		 "sigma_profile": "yes", 
		 "theory": "DFT", 
		 "functional": "B3LYP", 
		 "basiset": "6-31G**", 
		 "properties": { 
			 "R2extent": 1976.4077, 
			 "electric_dipole_moment_norm": 2.28955344118, 
			 "electric_quadrupole_moment_norm": 4.10726078062, 
			 "total_energy": -457.649382228, 
			 "HOMO_LUMO_gap": 0.24467, 
			 "cosmo_polarized_energy": -13.37, 
			 "cosmo_cavitation_energy": 23.25, 
			 "cosmo_dispersion_energy": -16.94, 
			 "cosmo_repulsion_energy": 1.43, 
			 "cosmo_total_nonelectrostatic_energy": 7.74, 
			 "SMD_solvation_energy": 4.13 
		},
		"coords": [
			{
				"x": 2.2394234565,
				"y": 0.6286322997,
				"z": -0.2118286265,
				"element": "C" 
			},
			{
				"x": 0.7325392873,
				"y": 0.8308214903,
				"z": -0.0660517818,
				"element": "C" 
			},
			{
				"x": 0.0270384468,
				"y": 0.4940695029,
				"z": -1.255666973,
				"element": "O" 
			},
			{
				"x": -0.6298933641,
				"y": -0.7749358758,
				"z": -1.3550910871,
				"element": "C" 
			},
			{
				"x": -1.8499821743,
				"y": -0.8681934769,
				"z": -0.4315708585,
				"element": "C" 
			},
			{
				"x": 0.2991062301,
				"y": -1.9738185566,
				"z": -1.2337490118,
				"element": "C" 
			},
			{
				"x": 0.616590707,
				"y": -2.4890801375,
				"z": 0.0039363779,
				"element": "N" 
			},
			{
				"x": 0.6926460355,
				"y": -2.4877089477,
				"z": -2.350021882,
				"element": "N" 
			},
			{
				"x": 1.5665795445,
				"y": -3.5863736181,
				"z": -2.0855649182,
				"element": "O" 
			},
			{
				"x": 2.6060407392,
				"y": 1.1804497859,
				"z": -1.0818542554,
				"element": "H" 
			},
			{
				"x": 2.4939000799,
				"y": -0.4257434363,
				"z": -0.3483045015,
				"element": "H" 
			},
			{
				"x": 2.7624960365,
				"y": 0.9988514979,
				"z": 0.6775833599,
				"element": "H" 
			},
			{
				"x": 0.3459262172,
				"y": 0.2835508726,
				"z": 0.8066318729,
				"element": "H" 
			},
			{
				"x": 0.521119197,
				"y": 1.8906108182,
				"z": 0.1227041788,
				"element": "H" 
			},
			{
				"x": -0.9712565762,
				"y": -0.7934095058,
				"z": -2.3927796258,
				"element": "H" 
			},
			{
				"x": -1.581799565,
				"y": -0.8607636375,
				"z": 0.6295412651,
				"element": "H" 
			},
			{
				"x": -2.509775386,
				"y": -0.0170948549,
				"z": -0.6191746458,
				"element": "H" 
			},
			{
				"x": -2.4014782416,
				"y": -1.7934144612,
				"z": -0.6233401679,
				"element": "H" 
			},
			{
				"x": 1.3820615446,
				"y": -3.1489135175,
				"z": 0.0018113609,
				"element": "H" 
			},
			{
				"x": 0.5658585123,
				"y": -1.8781409878,
				"z": 0.8029353746,
				"element": "H" 
			},
			{
				"x": 1.8130592729,
				"y": -3.8607952539,
				"z": -2.9767454548,
				"element": "H" 
			}
		],
		 "valence_orbital": [ 
			{
				"type": "occ",
				"energy": -0.31199,
				"method": "rhf"
			},
			{
				"type": "occ",
				"energy": -0.29883,
				"method": "rhf"
			},
			{
				"type": "occ",
				"energy": -0.27126,
				"method": "rhf"
			},
			{
				"type": "occ",
				"energy": -0.25189,
				"method": "rhf"
			},
			{
				"type": "occ",
				"energy": -0.21202,
				"method": "rhf"
			},
			{
				"type": "unocc",
				"energy": 0.03265,
				"method": "rhf"
			},
			{
				"type": "unocc",
				"energy": 0.05259,
				"method": "rhf"
			},
			{
				"type": "unocc",
				"energy": 0.08846,
				"method": "rhf"
			},
			{
				"type": "unocc",
				"energy": 0.12204,
				"method": "rhf"
			},
			{
				"type": "unocc",
				"energy": 0.12375,
				"method": "rhf"
			}
		],
		"cosmo_sigma_profile": { 
			"-0.025": 0.0,
			"-0.024": 0.0,
			"-0.023": 0.0,
			"-0.022": 0.0,
			"-0.021": 0.0,
			"-0.02": 0.0,
			"-0.019": 0.0,
			"-0.018": 0.0,
			"-0.017": 0.095869697097,
			"-0.016": 1.21996819983,
			"-0.015": 0.583446100872,
			"-0.014": 0.670664563776,
			"-0.013": 2.16939808496,
			"-0.012": 2.33674080198,
			"-0.011": 3.08852210949,
			"-0.01": 3.33585211719,
			"-0.009": 3.12314480675,
			"-0.008": 2.47508728329,
			"-0.007": 2.11763991612,
			"-0.006": 3.42867812717,
			"-0.005": 6.11772441053,
			"-0.004": 11.6127251341,
			"-0.003": 17.6189353035,
			"-0.002": 19.5963510903,
			"-0.001": 16.3501661498,
			"0.0": 16.2578253485,
			"0.001": 11.382013983,
			"0.002": 5.61657419159,
			"0.003": 4.71327754336,
			"0.004": 3.83448763704,
			"0.005": 4.08485835367,
			"0.006": 5.32377846326,
			"0.007": 6.15797241051,
			"0.008": 5.6713052599,
			"0.009": 5.83011596751,
			"0.01": 5.03580848889,
			"0.011": 3.32282802573,
			"0.012": 3.02987765967,
			"0.013": 2.52661296772,
			"0.014": 1.05097025516,
			"0.015": 0.7854646582,
			"0.016": 0.0471772376348,
			"0.017": 0.0,
			"0.018": 0.0,
			"0.019": 0.0,
			"0.02": 0.0,
			"0.021": 0.0,
			"0.022": 0.0,
			"0.023": 0.0,
			"0.024": 0.0,
			"0.025": 0.0
		}
	}
}
