{
	 "smiles": "NC1=CC(CC2CCCC2)=NO1", 
	 "Tm": 341.15, 
	 "num_atms": 26, 
	 "gaussian": { 
		 "optdone": 1, 
		 "sigma_profile": "yes", 
		 "theory": "DFT", 
		 "functional": "B3LYP", 
		 "basiset": "6-31G**", 
		 "properties": { 
			 "R2extent": 2912.9049, 
			 "electric_dipole_moment_norm": 3.69456681358, 
			 "electric_quadrupole_moment_norm": 14.715966303, 
			 "total_energy": -536.0844845, 
			 "HOMO_LUMO_gap": 0.23208, 
			 "cosmo_polarized_energy": -12.79, 
			 "cosmo_cavitation_energy": 28.26, 
			 "cosmo_dispersion_energy": -20.6, 
			 "cosmo_repulsion_energy": 1.68, 
			 "cosmo_total_nonelectrostatic_energy": 9.34, 
			 "SMD_solvation_energy": 4.0 
		},
		"coords": [
			{
				"x": 2.2253921917,
				"y": -0.3856519789,
				"z": -3.8549956212,
				"element": "N" 
			},
			{
				"x": 1.3451373296,
				"y": -0.1216859504,
				"z": -2.831433914,
				"element": "C" 
			},
			{
				"x": 0.5332287172,
				"y": -0.9104629944,
				"z": -2.0591097546,
				"element": "C" 
			},
			{
				"x": -0.1689905187,
				"y": 0.03053013,
				"z": -1.2505594307,
				"element": "C" 
			},
			{
				"x": -1.1995742059,
				"y": -0.242807159,
				"z": -0.1921225282,
				"element": "C" 
			},
			{
				"x": -0.6469033317,
				"y": -0.9924188094,
				"z": 1.0320558451,
				"element": "C" 
			},
			{
				"x": -1.7067430528,
				"y": -1.2966144039,
				"z": 2.1072430924,
				"element": "C" 
			},
			{
				"x": -0.8880072054,
				"y": -1.6709860865,
				"z": 3.3626858632,
				"element": "C" 
			},
			{
				"x": 0.4852645308,
				"y": -0.9481021514,
				"z": 3.2002364231,
				"element": "C" 
			},
			{
				"x": 0.425689056,
				"y": -0.228455379,
				"z": 1.8315160274,
				"element": "C" 
			},
			{
				"x": 0.182687824,
				"y": 1.2729438769,
				"z": -1.5028816907,
				"element": "N" 
			},
			{
				"x": 1.1666153687,
				"y": 1.173946588,
				"z": -2.5275056951,
				"element": "O" 
			},
			{
				"x": 2.6440510933,
				"y": -1.3042105996,
				"z": -3.8333971217,
				"element": "H" 
			},
			{
				"x": 2.8920460784,
				"y": 0.3543204083,
				"z": -4.0307888763,
				"element": "H" 
			},
			{
				"x": 0.4379297179,
				"y": -1.9849332072,
				"z": -2.073512836,
				"element": "H" 
			},
			{
				"x": -1.6232009002,
				"y": 0.7167386576,
				"z": 0.1252691298,
				"element": "H" 
			},
			{
				"x": -2.0173232144,
				"y": -0.8257168018,
				"z": -0.6357874267,
				"element": "H" 
			},
			{
				"x": -0.2149086236,
				"y": -1.9468671115,
				"z": 0.6941369782,
				"element": "H" 
			},
			{
				"x": -2.4117263138,
				"y": -2.0792846248,
				"z": 1.8064179408,
				"element": "H" 
			},
			{
				"x": -2.2947148298,
				"y": -0.3876603949,
				"z": 2.2939221231,
				"element": "H" 
			},
			{
				"x": -1.4029976328,
				"y": -1.3864923935,
				"z": 4.2853677262,
				"element": "H" 
			},
			{
				"x": -0.7417945891,
				"y": -2.7557672693,
				"z": 3.4084354995,
				"element": "H" 
			},
			{
				"x": 1.3023836932,
				"y": -1.6772874037,
				"z": 3.2167016527,
				"element": "H" 
			},
			{
				"x": 0.6802437245,
				"y": -0.244854841,
				"z": 4.0156621867,
				"element": "H" 
			},
			{
				"x": 1.3936773614,
				"y": -0.1937216183,
				"z": 1.3231513402,
				"element": "H" 
			},
			{
				"x": 0.0974377314,
				"y": 0.8113015177,
				"z": 1.959293067,
				"element": "H" 
			}
		],
		 "valence_orbital": [ 
			{
				"type": "occ",
				"energy": -0.31233,
				"method": "rhf"
			},
			{
				"type": "occ",
				"energy": -0.30871,
				"method": "rhf"
			},
			{
				"type": "occ",
				"energy": -0.28879,
				"method": "rhf"
			},
			{
				"type": "occ",
				"energy": -0.27049,
				"method": "rhf"
			},
			{
				"type": "occ",
				"energy": -0.2133,
				"method": "rhf"
			},
			{
				"type": "unocc",
				"energy": 0.01878,
				"method": "rhf"
			},
			{
				"type": "unocc",
				"energy": 0.06055,
				"method": "rhf"
			},
			{
				"type": "unocc",
				"energy": 0.08045,
				"method": "rhf"
			},
			{
				"type": "unocc",
				"energy": 0.08616,
				"method": "rhf"
			},
			{
				"type": "unocc",
				"energy": 0.10319,
				"method": "rhf"
			}
		],
		"cosmo_sigma_profile": { 
			"-0.025": 0.0,
			"-0.024": 0.0,
			"-0.023": 0.0,
			"-0.022": 0.0,
			"-0.021": 0.0,
			"-0.02": 0.0,
			"-0.019": 0.0,
			"-0.018": 0.0,
			"-0.017": 0.0,
			"-0.016": 0.0,
			"-0.015": 0.223421101126,
			"-0.014": 2.27371762311,
			"-0.013": 3.21959695472,
			"-0.012": 2.15140003526,
			"-0.011": 3.11960541886,
			"-0.01": 1.97346619336,
			"-0.009": 2.16362084085,
			"-0.008": 1.90715416218,
			"-0.007": 3.71555937772,
			"-0.006": 3.59556079288,
			"-0.005": 2.87989565969,
			"-0.004": 5.40327703553,
			"-0.003": 13.8628468995,
			"-0.002": 28.3958772567,
			"-0.001": 31.8347043164,
			"0.0": 29.1231164895,
			"0.001": 19.5054681249,
			"0.002": 16.4550067521,
			"0.003": 7.42756760665,
			"0.004": 7.05758041861,
			"0.005": 5.75053027449,
			"0.006": 3.76987372315,
			"0.007": 2.36356927121,
			"0.008": 3.49076126722,
			"0.009": 6.24963307613,
			"0.01": 3.18449510654,
			"0.011": 1.96861482115,
			"0.012": 2.14247064008,
			"0.013": 1.2624318192,
			"0.014": 1.7346500398,
			"0.015": 1.32793721097,
			"0.016": 0.579841257355,
			"0.017": 0.0,
			"0.018": 0.0,
			"0.019": 0.0,
			"0.02": 0.0,
			"0.021": 0.0,
			"0.022": 0.0,
			"0.023": 0.0,
			"0.024": 0.0,
			"0.025": 0.0
		}
	}
}
