{
	 "smiles": "NC(=O)C1(CC1)C1=CC(Cl)=CC=C1", 
	 "Tm": 373.15, 
	 "num_atms": 23, 
	 "gaussian": { 
		 "optdone": 1, 
		 "sigma_profile": "yes", 
		 "theory": "DFT", 
		 "functional": "B3LYP", 
		 "basiset": "6-31G**", 
		 "properties": { 
			 "R2extent": 3531.7977, 
			 "electric_dipole_moment_norm": 2.90522144595, 
			 "electric_quadrupole_moment_norm": 12.9422647292, 
			 "total_energy": -977.254239624, 
			 "HOMO_LUMO_gap": 0.21529, 
			 "cosmo_polarized_energy": -12.11, 
			 "cosmo_cavitation_energy": 28.6, 
			 "cosmo_dispersion_energy": -20.27, 
			 "cosmo_repulsion_energy": 1.62, 
			 "cosmo_total_nonelectrostatic_energy": 9.95, 
			 "SMD_solvation_energy": 5.13 
		},
		"coords": [
			{
				"x": 1.2862951171,
				"y": -0.8847872218,
				"z": 1.9310459049,
				"element": "N" 
			},
			{
				"x": 0.9884182666,
				"y": 0.3886887851,
				"z": 1.5471165306,
				"element": "C" 
			},
			{
				"x": 0.9395881375,
				"y": 1.317850068,
				"z": 2.3454464753,
				"element": "O" 
			},
			{
				"x": 0.7218253904,
				"y": 0.5992660362,
				"z": 0.0656866645,
				"element": "C" 
			},
			{
				"x": 1.1443151476,
				"y": 1.9724389139,
				"z": -0.4410822922,
				"element": "C" 
			},
			{
				"x": -0.3060563517,
				"y": 1.6872394554,
				"z": -0.2195430585,
				"element": "C" 
			},
			{
				"x": 0.8178318189,
				"y": -0.5844016685,
				"z": -0.8573484801,
				"element": "C" 
			},
			{
				"x": -0.3109603319,
				"y": -1.3787639434,
				"z": -1.1099629756,
				"element": "C" 
			},
			{
				"x": -0.204418912,
				"y": -2.4928904123,
				"z": -1.9408713826,
				"element": "C" 
			},
			{
				"x": -1.632691166,
				"y": -3.4722394212,
				"z": -2.2504946646,
				"element": "Cl" 
			},
			{
				"x": 1.0075966291,
				"y": -2.8465005307,
				"z": -2.5329559328,
				"element": "C" 
			},
			{
				"x": 2.1307912185,
				"y": -2.0582493789,
				"z": -2.2770338252,
				"element": "C" 
			},
			{
				"x": 2.0401588798,
				"y": -0.9403613008,
				"z": -1.447504149,
				"element": "C" 
			},
			{
				"x": 1.2951809566,
				"y": -1.6564543519,
				"z": 1.284978482,
				"element": "H" 
			},
			{
				"x": 1.4423720447,
				"y": -1.0526352035,
				"z": 2.9127664018,
				"element": "H" 
			},
			{
				"x": 1.5087842525,
				"y": 2.0269276892,
				"z": -1.4621049082,
				"element": "H" 
			},
			{
				"x": 1.6440626481,
				"y": 2.6108906377,
				"z": 0.2790786319,
				"element": "H" 
			},
			{
				"x": -0.7768318765,
				"y": 2.1354985256,
				"z": 0.6484549254,
				"element": "H" 
			},
			{
				"x": -0.9423740209,
				"y": 1.5457693147,
				"z": -1.0875519388,
				"element": "H" 
			},
			{
				"x": -1.2668164726,
				"y": -1.1226113081,
				"z": -0.6655191423,
				"element": "H" 
			},
			{
				"x": 1.0664794385,
				"y": -3.7151757551,
				"z": -3.17906986,
				"element": "H" 
			},
			{
				"x": 3.081140202,
				"y": -2.3200513952,
				"z": -2.7328909398,
				"element": "H" 
			},
			{
				"x": 2.9182089835,
				"y": -0.3304475341,
				"z": -1.2569404665,
				"element": "H" 
			}
		],
		 "valence_orbital": [ 
			{
				"type": "occ",
				"energy": -0.29102,
				"method": "rhf"
			},
			{
				"type": "occ",
				"energy": -0.27554,
				"method": "rhf"
			},
			{
				"type": "occ",
				"energy": -0.26616,
				"method": "rhf"
			},
			{
				"type": "occ",
				"energy": -0.25648,
				"method": "rhf"
			},
			{
				"type": "occ",
				"energy": -0.24182,
				"method": "rhf"
			},
			{
				"type": "unocc",
				"energy": -0.02653,
				"method": "rhf"
			},
			{
				"type": "unocc",
				"energy": -0.02318,
				"method": "rhf"
			},
			{
				"type": "unocc",
				"energy": 0.0236,
				"method": "rhf"
			},
			{
				"type": "unocc",
				"energy": 0.02855,
				"method": "rhf"
			},
			{
				"type": "unocc",
				"energy": 0.08689,
				"method": "rhf"
			}
		],
		"cosmo_sigma_profile": { 
			"-0.025": 0.0,
			"-0.024": 0.0,
			"-0.023": 0.0,
			"-0.022": 0.0,
			"-0.021": 0.0,
			"-0.02": 0.0,
			"-0.019": 0.0,
			"-0.018": 0.0,
			"-0.017": 0.0,
			"-0.016": 0.0,
			"-0.015": 0.0,
			"-0.014": 0.674244088282,
			"-0.013": 1.49704146332,
			"-0.012": 1.65153458878,
			"-0.011": 1.75101306032,
			"-0.01": 2.78208606179,
			"-0.009": 1.26449616633,
			"-0.008": 1.8839198868,
			"-0.007": 5.29916061784,
			"-0.006": 8.91169363092,
			"-0.005": 12.5150593468,
			"-0.004": 16.3925967592,
			"-0.003": 17.796471978,
			"-0.002": 17.4952055436,
			"-0.001": 17.9043740558,
			"0.0": 20.0067699811,
			"0.001": 18.4283520335,
			"0.002": 18.108518916,
			"0.003": 19.0091240856,
			"0.004": 17.2812924895,
			"0.005": 9.50163747921,
			"0.006": 1.84594314708,
			"0.007": 1.36630350316,
			"0.008": 1.70277252832,
			"0.009": 1.30664342721,
			"0.01": 1.266832098,
			"0.011": 1.44151848857,
			"0.012": 1.36486942113,
			"0.013": 2.47176116476,
			"0.014": 5.40579481353,
			"0.015": 1.19190418054,
			"0.016": 0.0,
			"0.017": 0.0,
			"0.018": 0.0,
			"0.019": 0.0,
			"0.02": 0.0,
			"0.021": 0.0,
			"0.022": 0.0,
			"0.023": 0.0,
			"0.024": 0.0,
			"0.025": 0.0
		}
	}
}
