{
	 "smiles": "FC1=C2C(=O)OC(=O)C2=CC=C1", 
	 "Tm": 434.15, 
	 "num_atms": 15, 
	 "gaussian": { 
		 "optdone": 1, 
		 "sigma_profile": "yes", 
		 "theory": "DFT", 
		 "functional": "B3LYP", 
		 "basiset": "6-31G**", 
		 "properties": { 
			 "R2extent": 2581.2944, 
			 "electric_dipole_moment_norm": 5.72558375539, 
			 "electric_quadrupole_moment_norm": 12.6786596953, 
			 "total_energy": -632.174205787, 
			 "HOMO_LUMO_gap": 0.1857, 
			 "cosmo_polarized_energy": -11.52, 
			 "cosmo_cavitation_energy": 21.46, 
			 "cosmo_dispersion_energy": -15.74, 
			 "cosmo_repulsion_energy": 1.22, 
			 "cosmo_total_nonelectrostatic_energy": 6.93, 
			 "SMD_solvation_energy": 6.13 
		},
		"coords": [
			{
				"x": 0.388832567,
				"y": -1.791214581,
				"z": -1.3543175556,
				"element": "F" 
			},
			{
				"x": -0.7611548906,
				"y": -1.1213966594,
				"z": -1.250457471,
				"element": "C" 
			},
			{
				"x": -1.2305748076,
				"y": -0.6900245499,
				"z": -0.0163870637,
				"element": "C" 
			},
			{
				"x": -0.6856093206,
				"y": -0.8190817408,
				"z": 1.3556914771,
				"element": "C" 
			},
			{
				"x": 0.3143544355,
				"y": -1.3356594746,
				"z": 1.7632075521,
				"element": "O" 
			},
			{
				"x": -1.5983657998,
				"y": -0.184968126,
				"z": 2.2113598492,
				"element": "O" 
			},
			{
				"x": -2.6730343734,
				"y": 0.3323110727,
				"z": 1.487375977,
				"element": "C" 
			},
			{
				"x": -3.5798590188,
				"y": 0.9185713522,
				"z": 2.0081426962,
				"element": "O" 
			},
			{
				"x": -2.4363356127,
				"y": 0.0075238579,
				"z": 0.0566712205,
				"element": "C" 
			},
			{
				"x": -3.2031830963,
				"y": 0.2965542516,
				"z": -1.0628230211,
				"element": "C" 
			},
			{
				"x": -2.7151241692,
				"y": -0.1457416844,
				"z": -2.2990891616,
				"element": "C" 
			},
			{
				"x": -1.5081008075,
				"y": -0.8473173493,
				"z": -2.3975314593,
				"element": "C" 
			},
			{
				"x": -4.1370291951,
				"y": 0.8406987048,
				"z": -0.9767509539,
				"element": "H" 
			},
			{
				"x": -3.2788889109,
				"y": 0.0558510777,
				"z": -3.2045245549,
				"element": "H" 
			},
			{
				"x": -1.134527,
				"y": -1.1876061514,
				"z": -3.3572675309,
				"element": "H" 
			}
		],
		 "valence_orbital": [ 
			{
				"type": "occ",
				"energy": -0.33724,
				"method": "rhf"
			},
			{
				"type": "occ",
				"energy": -0.31913,
				"method": "rhf"
			},
			{
				"type": "occ",
				"energy": -0.30455,
				"method": "rhf"
			},
			{
				"type": "occ",
				"energy": -0.29362,
				"method": "rhf"
			},
			{
				"type": "occ",
				"energy": -0.28849,
				"method": "rhf"
			},
			{
				"type": "unocc",
				"energy": -0.10279,
				"method": "rhf"
			},
			{
				"type": "unocc",
				"energy": -0.06028,
				"method": "rhf"
			},
			{
				"type": "unocc",
				"energy": 0.00921,
				"method": "rhf"
			},
			{
				"type": "unocc",
				"energy": 0.0502,
				"method": "rhf"
			},
			{
				"type": "unocc",
				"energy": 0.06433,
				"method": "rhf"
			}
		],
		"cosmo_sigma_profile": { 
			"-0.025": 0.0,
			"-0.024": 0.0,
			"-0.023": 0.0,
			"-0.022": 0.0,
			"-0.021": 0.0,
			"-0.02": 0.0,
			"-0.019": 0.0,
			"-0.018": 0.0,
			"-0.017": 0.0,
			"-0.016": 0.0,
			"-0.015": 0.0,
			"-0.014": 0.0,
			"-0.013": 0.0,
			"-0.012": 0.0,
			"-0.011": 0.0,
			"-0.01": 0.474685271921,
			"-0.009": 4.67282051122,
			"-0.008": 9.81081811883,
			"-0.007": 8.20325718429,
			"-0.006": 8.29501406639,
			"-0.005": 9.17465021451,
			"-0.004": 8.61569763794,
			"-0.003": 14.9381714497,
			"-0.002": 14.315351939,
			"-0.001": 12.2665366601,
			"0.0": 12.6484786781,
			"0.001": 6.05720148536,
			"0.002": 8.67816667829,
			"0.003": 9.5104192514,
			"0.004": 4.55097509563,
			"0.005": 4.87027740706,
			"0.006": 6.7489643728,
			"0.007": 7.28470701872,
			"0.008": 6.73630404532,
			"0.009": 10.1450540553,
			"0.01": 6.23831192585,
			"0.011": 0.424897756278,
			"0.012": 0.0,
			"0.013": 0.0,
			"0.014": 0.0,
			"0.015": 0.0,
			"0.016": 0.0,
			"0.017": 0.0,
			"0.018": 0.0,
			"0.019": 0.0,
			"0.02": 0.0,
			"0.021": 0.0,
			"0.022": 0.0,
			"0.023": 0.0,
			"0.024": 0.0,
			"0.025": 0.0
		}
	}
}
