{
	 "smiles": "CC1=NC=C(S1)C(O)=O", 
	 "Tm": 483.15, 
	 "num_atms": 14, 
	 "gaussian": { 
		 "optdone": 1, 
		 "sigma_profile": "yes", 
		 "theory": "DFT", 
		 "functional": "B3LYP", 
		 "basiset": "6-31G**", 
		 "properties": { 
			 "R2extent": 2490.3802, 
			 "electric_dipole_moment_norm": 5.08311279041, 
			 "electric_quadrupole_moment_norm": 19.9067435818, 
			 "total_energy": -796.930506261, 
			 "HOMO_LUMO_gap": 0.19195, 
			 "cosmo_polarized_energy": -14.21, 
			 "cosmo_cavitation_energy": 20.46, 
			 "cosmo_dispersion_energy": -15.78, 
			 "cosmo_repulsion_energy": 1.25, 
			 "cosmo_total_nonelectrostatic_energy": 5.93, 
			 "SMD_solvation_energy": 3.2 
		},
		"coords": [
			{
				"x": -1.3537215495,
				"y": -0.6419561822,
				"z": 0.4456345415,
				"element": "C" 
			},
			{
				"x": 0.1186948063,
				"y": -0.4574993856,
				"z": 0.6400619482,
				"element": "C" 
			},
			{
				"x": 0.9278675193,
				"y": -1.3788691442,
				"z": 1.0846731057,
				"element": "N" 
			},
			{
				"x": 2.2168933741,
				"y": -0.9276745296,
				"z": 1.1592773562,
				"element": "C" 
			},
			{
				"x": 2.4382439758,
				"y": 0.369065129,
				"z": 0.7695545266,
				"element": "C" 
			},
			{
				"x": 0.915670209,
				"y": 1.0742870197,
				"z": 0.2726131979,
				"element": "S" 
			},
			{
				"x": 3.7653688463,
				"y": 1.0285493972,
				"z": 0.7819787829,
				"element": "C" 
			},
			{
				"x": 3.8349484256,
				"y": 2.319617389,
				"z": 0.3660677141,
				"element": "O" 
			},
			{
				"x": 4.7640052169,
				"y": 0.4521421218,
				"z": 1.1439834104,
				"element": "O" 
			},
			{
				"x": -1.6118501966,
				"y": -1.6613083485,
				"z": 0.7372688138,
				"element": "H" 
			},
			{
				"x": -1.6423575497,
				"y": -0.4877854921,
				"z": -0.5992480775,
				"element": "H" 
			},
			{
				"x": -1.929748143,
				"y": 0.0592028805,
				"z": 1.0583581914,
				"element": "H" 
			},
			{
				"x": 3.0062425566,
				"y": -1.580285055,
				"z": 1.5116971637,
				"element": "H" 
			},
			{
				"x": 2.968542509,
				"y": 2.6612141999,
				"z": 0.102879325,
				"element": "H" 
			}
		],
		 "valence_orbital": [ 
			{
				"type": "occ",
				"energy": -0.32388,
				"method": "rhf"
			},
			{
				"type": "occ",
				"energy": -0.30619,
				"method": "rhf"
			},
			{
				"type": "occ",
				"energy": -0.29373,
				"method": "rhf"
			},
			{
				"type": "occ",
				"energy": -0.28232,
				"method": "rhf"
			},
			{
				"type": "occ",
				"energy": -0.26279,
				"method": "rhf"
			},
			{
				"type": "unocc",
				"energy": -0.07084,
				"method": "rhf"
			},
			{
				"type": "unocc",
				"energy": -0.02027,
				"method": "rhf"
			},
			{
				"type": "unocc",
				"energy": 0.00673,
				"method": "rhf"
			},
			{
				"type": "unocc",
				"energy": 0.0515,
				"method": "rhf"
			},
			{
				"type": "unocc",
				"energy": 0.08405,
				"method": "rhf"
			}
		],
		"cosmo_sigma_profile": { 
			"-0.025": 0.0,
			"-0.024": 0.0,
			"-0.023": 0.0,
			"-0.022": 0.0,
			"-0.021": 0.0,
			"-0.02": 0.0,
			"-0.019": 0.102925164122,
			"-0.018": 0.833116726666,
			"-0.017": 0.807934584401,
			"-0.016": 1.11009789731,
			"-0.015": 1.06441507024,
			"-0.014": 0.942689834304,
			"-0.013": 0.737361917403,
			"-0.012": 1.28216409759,
			"-0.011": 0.980653848362,
			"-0.01": 0.84679077368,
			"-0.009": 1.25653894063,
			"-0.008": 2.39235925969,
			"-0.007": 4.41775967275,
			"-0.006": 11.5371447093,
			"-0.005": 9.64292944761,
			"-0.004": 10.003111826,
			"-0.003": 10.8184968405,
			"-0.002": 14.1186119031,
			"-0.001": 14.0222950606,
			"0.0": 13.8549579061,
			"0.001": 10.5765585405,
			"0.002": 8.10406598475,
			"0.003": 3.91141561596,
			"0.004": 3.45237372686,
			"0.005": 4.19107184321,
			"0.006": 3.2899529425,
			"0.007": 3.54342940122,
			"0.008": 4.20763438189,
			"0.009": 4.11928398893,
			"0.01": 6.24246682537,
			"0.011": 6.27106599594,
			"0.012": 4.8332972909,
			"0.013": 1.66252741407,
			"0.014": 0.733024511509,
			"0.015": 0.0924337540698,
			"0.016": 0.0,
			"0.017": 0.0,
			"0.018": 0.0,
			"0.019": 0.0,
			"0.02": 0.0,
			"0.021": 0.0,
			"0.022": 0.0,
			"0.023": 0.0,
			"0.024": 0.0,
			"0.025": 0.0
		}
	}
}
