{
	 "smiles": "ClCCN1C(=O)COC2=C1C=C(Br)C=C2", 
	 "Tm": 391.15, 
	 "num_atms": 24, 
	 "gaussian": { 
		 "optdone": 1, 
		 "sigma_profile": "yes", 
		 "theory": "DFT", 
		 "functional": "B3LYP", 
		 "basiset": "6-31G**", 
		 "properties": { 
			 "R2extent": 6689.3772, 
			 "electric_dipole_moment_norm": 2.78907057817, 
			 "electric_quadrupole_moment_norm": 11.8204157939, 
			 "total_energy": -3623.29012519, 
			 "HOMO_LUMO_gap": 0.19243, 
			 "cosmo_polarized_energy": -11.64, 
			 "cosmo_cavitation_energy": 31.74, 
			 "cosmo_dispersion_energy": -23.52, 
			 "cosmo_repulsion_energy": 1.85, 
			 "cosmo_total_nonelectrostatic_energy": 10.07, 
			 "SMD_solvation_energy": 4.35 
		},
		"coords": [
			{
				"x": 4.406161078,
				"y": -1.0659614468,
				"z": 3.0020373809,
				"element": "Cl" 
			},
			{
				"x": 3.4872182215,
				"y": 0.0223161664,
				"z": 1.884271447,
				"element": "C" 
			},
			{
				"x": 2.5962572532,
				"y": -0.8082839592,
				"z": 0.9587892402,
				"element": "C" 
			},
			{
				"x": 1.7924747626,
				"y": 0.0460984532,
				"z": 0.0786009707,
				"element": "N" 
			},
			{
				"x": 2.3811130115,
				"y": 0.4809258939,
				"z": -1.0936714561,
				"element": "C" 
			},
			{
				"x": 3.5319276351,
				"y": 0.2091814492,
				"z": -1.3989027876,
				"element": "O" 
			},
			{
				"x": 1.5080870812,
				"y": 1.3727785738,
				"z": -1.9651810497,
				"element": "C" 
			},
			{
				"x": 0.1188367948,
				"y": 1.065227472,
				"z": -1.8832799208,
				"element": "O" 
			},
			{
				"x": -0.3523130826,
				"y": 0.9500551359,
				"z": -0.6034163986,
				"element": "C" 
			},
			{
				"x": 0.4754701366,
				"y": 0.4428793595,
				"z": 0.416851657,
				"element": "C" 
			},
			{
				"x": -0.0430515334,
				"y": 0.3149301573,
				"z": 1.7099845225,
				"element": "C" 
			},
			{
				"x": -1.3708191849,
				"y": 0.6633152565,
				"z": 1.9575141567,
				"element": "C" 
			},
			{
				"x": -2.0577001533,
				"y": 0.4725683702,
				"z": 3.7294846148,
				"element": "Br" 
			},
			{
				"x": -2.1979588166,
				"y": 1.1445222723,
				"z": 0.9471281972,
				"element": "C" 
			},
			{
				"x": -1.6733860616,
				"y": 1.2935312326,
				"z": -0.3371115046,
				"element": "C" 
			},
			{
				"x": 4.2199164184,
				"y": 0.5829213322,
				"z": 1.3040867368,
				"element": "H" 
			},
			{
				"x": 2.9098581154,
				"y": 0.7060873369,
				"z": 2.508255156,
				"element": "H" 
			},
			{
				"x": 1.9280506155,
				"y": -1.4532892931,
				"z": 1.5317688046,
				"element": "H" 
			},
			{
				"x": 3.2245554397,
				"y": -1.4339208479,
				"z": 0.3232878282,
				"element": "H" 
			},
			{
				"x": 1.8095741401,
				"y": 1.2313457408,
				"z": -3.0027792254,
				"element": "H" 
			},
			{
				"x": 1.6863162345,
				"y": 2.4233327011,
				"z": -1.6866527498,
				"element": "H" 
			},
			{
				"x": 0.5685280677,
				"y": -0.0561205854,
				"z": 2.5219147991,
				"element": "H" 
			},
			{
				"x": -3.2271546087,
				"y": 1.409485048,
				"z": 1.1566537422,
				"element": "H" 
			},
			{
				"x": -2.2831615646,
				"y": 1.669974181,
				"z": -1.1514341613,
				"element": "H" 
			}
		],
		 "valence_orbital": [ 
			{
				"type": "occ",
				"energy": -0.29937,
				"method": "rhf"
			},
			{
				"type": "occ",
				"energy": -0.29601,
				"method": "rhf"
			},
			{
				"type": "occ",
				"energy": -0.27634,
				"method": "rhf"
			},
			{
				"type": "occ",
				"energy": -0.25644,
				"method": "rhf"
			},
			{
				"type": "occ",
				"energy": -0.22864,
				"method": "rhf"
			},
			{
				"type": "unocc",
				"energy": -0.03621,
				"method": "rhf"
			},
			{
				"type": "unocc",
				"energy": -0.02484,
				"method": "rhf"
			},
			{
				"type": "unocc",
				"energy": -0.00298,
				"method": "rhf"
			},
			{
				"type": "unocc",
				"energy": 0.00236,
				"method": "rhf"
			},
			{
				"type": "unocc",
				"energy": 0.02423,
				"method": "rhf"
			}
		],
		"cosmo_sigma_profile": { 
			"-0.025": 0.0,
			"-0.024": 0.0,
			"-0.023": 0.0,
			"-0.022": 0.0,
			"-0.021": 0.0,
			"-0.02": 0.0,
			"-0.019": 0.0,
			"-0.018": 0.0,
			"-0.017": 0.0,
			"-0.016": 0.0,
			"-0.015": 0.0,
			"-0.014": 0.0,
			"-0.013": 0.0,
			"-0.012": 0.0,
			"-0.011": 0.0,
			"-0.01": 0.646561389267,
			"-0.009": 2.99848018395,
			"-0.008": 8.5055750982,
			"-0.007": 13.5347838365,
			"-0.006": 15.2083115286,
			"-0.005": 17.2400248937,
			"-0.004": 17.6099810807,
			"-0.003": 15.7928942143,
			"-0.002": 13.2927755903,
			"-0.001": 12.7816341984,
			"0.0": 15.4925061771,
			"0.001": 18.4047300746,
			"0.002": 22.7175179204,
			"0.003": 21.5384313415,
			"0.004": 18.4653802172,
			"0.005": 15.0026622379,
			"0.006": 11.2751730169,
			"0.007": 3.58643141525,
			"0.008": 2.40729711234,
			"0.009": 2.49344568192,
			"0.01": 2.24349128775,
			"0.011": 2.26803747523,
			"0.012": 4.15003913949,
			"0.013": 1.34872481267,
			"0.014": 0.0,
			"0.015": 0.0,
			"0.016": 0.0,
			"0.017": 0.0,
			"0.018": 0.0,
			"0.019": 0.0,
			"0.02": 0.0,
			"0.021": 0.0,
			"0.022": 0.0,
			"0.023": 0.0,
			"0.024": 0.0,
			"0.025": 0.0
		}
	}
}
