{
	 "smiles": "CCOC(=O)C1=C(C)C2=C(CC(C)(C)CC2=O)N1", 
	 "Tm": 434.15, 
	 "num_atms": 37, 
	 "gaussian": { 
		 "optdone": 1, 
		 "sigma_profile": "yes", 
		 "theory": "DFT", 
		 "functional": "B3LYP", 
		 "basiset": "6-31G**", 
		 "properties": { 
			 "R2extent": 6390.6835, 
			 "electric_dipole_moment_norm": 2.96670703643, 
			 "electric_quadrupole_moment_norm": 17.9903111152, 
			 "total_energy": -825.415333206, 
			 "HOMO_LUMO_gap": 0.19184, 
			 "cosmo_polarized_energy": -14.31, 
			 "cosmo_cavitation_energy": 38.53, 
			 "cosmo_dispersion_energy": -27.04, 
			 "cosmo_repulsion_energy": 2.1, 
			 "cosmo_total_nonelectrostatic_energy": 13.59, 
			 "SMD_solvation_energy": 7.65 
		},
		"coords": [
			{
				"x": -5.7778812079,
				"y": -0.7199124904,
				"z": -0.9442162935,
				"element": "C" 
			},
			{
				"x": -4.8823221846,
				"y": -0.7219239357,
				"z": -2.1740619555,
				"element": "C" 
			},
			{
				"x": -3.4857242204,
				"y": -0.8347553235,
				"z": -1.8101049581,
				"element": "O" 
			},
			{
				"x": -2.8522838633,
				"y": 0.3172920336,
				"z": -1.5003705619,
				"element": "C" 
			},
			{
				"x": -3.3811425327,
				"y": 1.4215701231,
				"z": -1.5171434666,
				"element": "O" 
			},
			{
				"x": -1.4538486068,
				"y": 0.1182509619,
				"z": -1.1438802746,
				"element": "C" 
			},
			{
				"x": -0.6112882508,
				"y": -0.9835390273,
				"z": -1.0485793984,
				"element": "C" 
			},
			{
				"x": -0.9457572621,
				"y": -2.4219235742,
				"z": -1.3137048589,
				"element": "C" 
			},
			{
				"x": 0.6599632351,
				"y": -0.4641300475,
				"z": -0.6404852722,
				"element": "C" 
			},
			{
				"x": 0.5443199802,
				"y": 0.925268483,
				"z": -0.5092494634,
				"element": "C" 
			},
			{
				"x": 1.631307962,
				"y": 1.8615293467,
				"z": -0.0913409671,
				"element": "C" 
			},
			{
				"x": 3.0288685884,
				"y": 1.246729747,
				"z": -0.3827527551,
				"element": "C" 
			},
			{
				"x": 4.1023483905,
				"y": 2.068096486,
				"z": 0.3512030938,
				"element": "C" 
			},
			{
				"x": 3.319916779,
				"y": 1.2768755731,
				"z": -1.8968592045,
				"element": "C" 
			},
			{
				"x": 3.0517848502,
				"y": -0.2138910783,
				"z": 0.1365218702,
				"element": "C" 
			},
			{
				"x": 1.9369727878,
				"y": -1.131334029,
				"z": -0.3849006774,
				"element": "C" 
			},
			{
				"x": 2.1326783494,
				"y": -2.3334548765,
				"z": -0.5269501418,
				"element": "O" 
			},
			{
				"x": -0.7260740488,
				"y": 1.2584392494,
				"z": -0.8134323554,
				"element": "N" 
			},
			{
				"x": -5.6031621354,
				"y": -1.6105831597,
				"z": -0.3334962739,
				"element": "H" 
			},
			{
				"x": -6.8293491926,
				"y": -0.7137408205,
				"z": -1.2505684532,
				"element": "H" 
			},
			{
				"x": -5.5923401631,
				"y": 0.1691298312,
				"z": -0.3367395458,
				"element": "H" 
			},
			{
				"x": -5.0207267809,
				"y": 0.1872329676,
				"z": -2.7637818877,
				"element": "H" 
			},
			{
				"x": -5.0678607726,
				"y": -1.5955482963,
				"z": -2.8033647639,
				"element": "H" 
			},
			{
				"x": -1.7793070946,
				"y": -2.7539390676,
				"z": -0.686813231,
				"element": "H" 
			},
			{
				"x": -0.0735571494,
				"y": -3.0452475281,
				"z": -1.118684926,
				"element": "H" 
			},
			{
				"x": -1.2608603871,
				"y": -2.5654743134,
				"z": -2.3526832241,
				"element": "H" 
			},
			{
				"x": 1.5298773372,
				"y": 2.8313564587,
				"z": -0.5951978075,
				"element": "H" 
			},
			{
				"x": 1.5469165824,
				"y": 2.062444059,
				"z": 0.987285667,
				"element": "H" 
			},
			{
				"x": 3.9397374918,
				"y": 2.0622734206,
				"z": 1.4348636933,
				"element": "H" 
			},
			{
				"x": 4.0970170078,
				"y": 3.1115390745,
				"z": 0.0153324127,
				"element": "H" 
			},
			{
				"x": 5.10162848,
				"y": 1.6626664323,
				"z": 0.1603439796,
				"element": "H" 
			},
			{
				"x": 2.5690842277,
				"y": 0.7249613844,
				"z": -2.4697019372,
				"element": "H" 
			},
			{
				"x": 3.337383378,
				"y": 2.3075120649,
				"z": -2.2689054357,
				"element": "H" 
			},
			{
				"x": 4.2966569091,
				"y": 0.829314437,
				"z": -2.1086669701,
				"element": "H" 
			},
			{
				"x": 4.0070490349,
				"y": -0.6961773851,
				"z": -0.0930703445,
				"element": "H" 
			},
			{
				"x": 2.9604298656,
				"y": -0.2054426169,
				"z": 1.2333930808,
				"element": "H" 
			},
			{
				"x": -1.1466553842,
				"y": 2.1775354358,
				"z": -0.8286363925,
				"element": "H" 
			}
		],
		 "valence_orbital": [ 
			{
				"type": "occ",
				"energy": -0.2969,
				"method": "rhf"
			},
			{
				"type": "occ",
				"energy": -0.27688,
				"method": "rhf"
			},
			{
				"type": "occ",
				"energy": -0.25027,
				"method": "rhf"
			},
			{
				"type": "occ",
				"energy": -0.23123,
				"method": "rhf"
			},
			{
				"type": "occ",
				"energy": -0.22332,
				"method": "rhf"
			},
			{
				"type": "unocc",
				"energy": -0.03148,
				"method": "rhf"
			},
			{
				"type": "unocc",
				"energy": -0.0229,
				"method": "rhf"
			},
			{
				"type": "unocc",
				"energy": 0.06581,
				"method": "rhf"
			},
			{
				"type": "unocc",
				"energy": 0.08395,
				"method": "rhf"
			},
			{
				"type": "unocc",
				"energy": 0.09449,
				"method": "rhf"
			}
		],
		"cosmo_sigma_profile": { 
			"-0.025": 0.0,
			"-0.024": 0.0,
			"-0.023": 0.0,
			"-0.022": 0.0,
			"-0.021": 0.0,
			"-0.02": 0.0,
			"-0.019": 0.0,
			"-0.018": 0.0,
			"-0.017": 0.0,
			"-0.016": 0.0833962695956,
			"-0.015": 0.763524515209,
			"-0.014": 0.960770989823,
			"-0.013": 0.636946201518,
			"-0.012": 1.01211032528,
			"-0.011": 0.981299850353,
			"-0.01": 0.97491375145,
			"-0.009": 0.88161789707,
			"-0.008": 1.32482217632,
			"-0.007": 1.33099913982,
			"-0.006": 3.55864938012,
			"-0.005": 13.882396474,
			"-0.004": 24.4497544147,
			"-0.003": 38.4091081065,
			"-0.002": 33.1749612825,
			"-0.001": 33.5505306918,
			"0.0": 39.0096638765,
			"0.001": 29.5494958096,
			"0.002": 16.7717185503,
			"0.003": 11.3651995191,
			"0.004": 8.59272495429,
			"0.005": 6.02032892552,
			"0.006": 4.56793760565,
			"0.007": 3.40497039249,
			"0.008": 3.16211442794,
			"0.009": 2.27444335354,
			"0.01": 3.89940004698,
			"0.011": 3.85153323433,
			"0.012": 6.46961445385,
			"0.013": 4.39121767948,
			"0.014": 1.58277236424,
			"0.015": 0.320282124032,
			"0.016": 0.0,
			"0.017": 0.0,
			"0.018": 0.0,
			"0.019": 0.0,
			"0.02": 0.0,
			"0.021": 0.0,
			"0.022": 0.0,
			"0.023": 0.0,
			"0.024": 0.0,
			"0.025": 0.0
		}
	}
}
