{
	 "smiles": "CC1=CC2=C(SC(=N2)C2CCNCC2)C=C1", 
	 "Tm": 385.15, 
	 "num_atms": 32, 
	 "gaussian": { 
		 "optdone": 1, 
		 "sigma_profile": "yes", 
		 "theory": "DFT", 
		 "functional": "B3LYP", 
		 "basiset": "6-31G**", 
		 "properties": { 
			 "R2extent": 4686.7487, 
			 "electric_dipole_moment_norm": 1.96368794109, 
			 "electric_quadrupole_moment_norm": 12.0006109236, 
			 "total_energy": -1012.72974584, 
			 "HOMO_LUMO_gap": 0.16916, 
			 "cosmo_polarized_energy": -7.59, 
			 "cosmo_cavitation_energy": 34.31, 
			 "cosmo_dispersion_energy": -25.57, 
			 "cosmo_repulsion_energy": 1.94, 
			 "cosmo_total_nonelectrostatic_energy": 10.68, 
			 "SMD_solvation_energy": 0.88 
		},
		"coords": [
			{
				"x": 3.8953509816,
				"y": 2.3554139263,
				"z": 0.4200618218,
				"element": "C" 
			},
			{
				"x": 2.4121546512,
				"y": 2.0653374453,
				"z": 0.4141871386,
				"element": "C" 
			},
			{
				"x": 1.9370007559,
				"y": 0.7569836063,
				"z": 0.364813254,
				"element": "C" 
			},
			{
				"x": 0.5559454523,
				"y": 0.5119061024,
				"z": 0.3593725947,
				"element": "C" 
			},
			{
				"x": -0.3495756669,
				"y": 1.596159174,
				"z": 0.4037457967,
				"element": "C" 
			},
			{
				"x": -1.9873537339,
				"y": 0.9754750874,
				"z": 0.3912632305,
				"element": "S" 
			},
			{
				"x": -1.3232840338,
				"y": -0.6793354301,
				"z": 0.3211146434,
				"element": "C" 
			},
			{
				"x": -0.0298011083,
				"y": -0.7457722809,
				"z": 0.3133591538,
				"element": "N" 
			},
			{
				"x": -2.2717850941,
				"y": -1.8540160292,
				"z": 0.2422942936,
				"element": "C" 
			},
			{
				"x": -1.7641725148,
				"y": -3.0947448667,
				"z": 1.0364184486,
				"element": "C" 
			},
			{
				"x": -1.0596363045,
				"y": -4.1271213344,
				"z": 0.1175943417,
				"element": "C" 
			},
			{
				"x": -0.3589329688,
				"y": -3.5220620083,
				"z": -1.013586458,
				"element": "N" 
			},
			{
				"x": -1.2908704354,
				"y": -2.8368110509,
				"z": -1.9219196773,
				"element": "C" 
			},
			{
				"x": -2.5508007243,
				"y": -2.2550160432,
				"z": -1.2296059422,
				"element": "C" 
			},
			{
				"x": 0.1119258253,
				"y": 2.9141489897,
				"z": 0.4550194695,
				"element": "C" 
			},
			{
				"x": 1.4854200472,
				"y": 3.1305020152,
				"z": 0.4591207794,
				"element": "C" 
			},
			{
				"x": 4.1901263024,
				"y": 2.9072344315,
				"z": 1.3201611797,
				"element": "H" 
			},
			{
				"x": 4.4820142391,
				"y": 1.433657922,
				"z": 0.3864927741,
				"element": "H" 
			},
			{
				"x": 4.185280288,
				"y": 2.9680706585,
				"z": -0.4414630437,
				"element": "H" 
			},
			{
				"x": 2.6205630715,
				"y": -0.0859898211,
				"z": 0.3296296986,
				"element": "H" 
			},
			{
				"x": -3.2181152525,
				"y": -1.5185746136,
				"z": 0.6812949034,
				"element": "H" 
			},
			{
				"x": -1.0761801058,
				"y": -2.7631732036,
				"z": 1.8196483141,
				"element": "H" 
			},
			{
				"x": -2.6166780411,
				"y": -3.5663578517,
				"z": 1.5405362242,
				"element": "H" 
			},
			{
				"x": -1.7947504271,
				"y": -4.837706005,
				"z": -0.2825065677,
				"element": "H" 
			},
			{
				"x": -0.3482053994,
				"y": -4.7195147647,
				"z": 0.7032101023,
				"element": "H" 
			},
			{
				"x": 0.2823702,
				"y": -2.8248647104,
				"z": -0.6405398971,
				"element": "H" 
			},
			{
				"x": -1.6142654759,
				"y": -3.5354966941,
				"z": -2.706298664,
				"element": "H" 
			},
			{
				"x": -0.7362894204,
				"y": -2.038537716,
				"z": -2.425068891,
				"element": "H" 
			},
			{
				"x": -3.350031972,
				"y": -3.0060637973,
				"z": -1.2098880402,
				"element": "H" 
			},
			{
				"x": -2.941437305,
				"y": -1.4021282946,
				"z": -1.7955627206,
				"element": "H" 
			},
			{
				"x": -0.5785953299,
				"y": 3.7507663693,
				"z": 0.4904644958,
				"element": "H" 
			},
			{
				"x": 1.8577094994,
				"y": 4.1511307879,
				"z": 0.4982372434,
				"element": "H" 
			}
		],
		 "valence_orbital": [ 
			{
				"type": "occ",
				"energy": -0.29964,
				"method": "rhf"
			},
			{
				"type": "occ",
				"energy": -0.27699,
				"method": "rhf"
			},
			{
				"type": "occ",
				"energy": -0.23542,
				"method": "rhf"
			},
			{
				"type": "occ",
				"energy": -0.23035,
				"method": "rhf"
			},
			{
				"type": "occ",
				"energy": -0.20297,
				"method": "rhf"
			},
			{
				"type": "unocc",
				"energy": -0.03381,
				"method": "rhf"
			},
			{
				"type": "unocc",
				"energy": -0.0035,
				"method": "rhf"
			},
			{
				"type": "unocc",
				"energy": 0.00796,
				"method": "rhf"
			},
			{
				"type": "unocc",
				"energy": 0.02979,
				"method": "rhf"
			},
			{
				"type": "unocc",
				"energy": 0.08552,
				"method": "rhf"
			}
		],
		"cosmo_sigma_profile": { 
			"-0.025": 0.0,
			"-0.024": 0.0,
			"-0.023": 0.0,
			"-0.022": 0.0,
			"-0.021": 0.0,
			"-0.02": 0.0,
			"-0.019": 0.0,
			"-0.018": 0.0,
			"-0.017": 0.0,
			"-0.016": 0.0,
			"-0.015": 0.0,
			"-0.014": 0.0,
			"-0.013": 0.0,
			"-0.012": 0.0,
			"-0.011": 0.0,
			"-0.01": 0.0,
			"-0.009": 0.0,
			"-0.008": 0.0,
			"-0.007": 1.47392675465,
			"-0.006": 5.56731565104,
			"-0.005": 10.8401475185,
			"-0.004": 17.9129994149,
			"-0.003": 33.749538325,
			"-0.002": 38.8376023139,
			"-0.001": 34.2427291521,
			"0.0": 30.8338347971,
			"0.001": 20.9383700824,
			"0.002": 17.3665817556,
			"0.003": 17.2406934433,
			"0.004": 18.2481343638,
			"0.005": 10.8702206814,
			"0.006": 2.6080531161,
			"0.007": 1.95235014222,
			"0.008": 1.05094173784,
			"0.009": 1.66058658282,
			"0.01": 1.02936245739,
			"0.011": 0.655322556784,
			"0.012": 0.558925187998,
			"0.013": 0.647114673981,
			"0.014": 0.324696166189,
			"0.015": 1.01662389691,
			"0.016": 0.620488689545,
			"0.017": 0.545514861403,
			"0.018": 0.686372402096,
			"0.019": 0.443970993309,
			"0.02": 0.089693688735,
			"0.021": 0.0,
			"0.022": 0.0,
			"0.023": 0.0,
			"0.024": 0.0,
			"0.025": 0.0
		}
	}
}
