{
	 "smiles": "ClCC1=C2OCCC2=CC(Cl)=C1", 
	 "Tm": 320.15, 
	 "num_atms": 20, 
	 "gaussian": { 
		 "optdone": 1, 
		 "sigma_profile": "yes", 
		 "theory": "DFT", 
		 "functional": "B3LYP", 
		 "basiset": "6-31G**", 
		 "properties": { 
			 "R2extent": 3586.6023, 
			 "electric_dipole_moment_norm": 3.80933025872, 
			 "electric_quadrupole_moment_norm": 12.7496515811, 
			 "total_energy": -1343.38722085, 
			 "HOMO_LUMO_gap": 0.18397, 
			 "cosmo_polarized_energy": -8.68, 
			 "cosmo_cavitation_energy": 27.13, 
			 "cosmo_dispersion_energy": -20.19, 
			 "cosmo_repulsion_energy": 1.64, 
			 "cosmo_total_nonelectrostatic_energy": 8.59, 
			 "SMD_solvation_energy": 3.92 
		},
		"coords": [
			{
				"x": 3.9745725415,
				"y": -0.7205330134,
				"z": 0.4527625331,
				"element": "Cl" 
			},
			{
				"x": 2.322434769,
				"y": -1.0670896645,
				"z": 1.1854069511,
				"element": "C" 
			},
			{
				"x": 1.2331449733,
				"y": -1.0605089627,
				"z": 0.1629715194,
				"element": "C" 
			},
			{
				"x": 0.552632627,
				"y": 0.1140468847,
				"z": -0.16497348,
				"element": "C" 
			},
			{
				"x": 0.7982838621,
				"y": 1.3216029657,
				"z": 0.4138592253,
				"element": "O" 
			},
			{
				"x": 0.0438602497,
				"y": 2.3221121826,
				"z": -0.3223766888,
				"element": "C" 
			},
			{
				"x": -1.0107620195,
				"y": 1.5612915133,
				"z": -1.1638736563,
				"element": "C" 
			},
			{
				"x": -0.4690302442,
				"y": 0.1496558334,
				"z": -1.1171557967,
				"element": "C" 
			},
			{
				"x": -0.8444065807,
				"y": -1.0076040364,
				"z": -1.7836853016,
				"element": "C" 
			},
			{
				"x": -0.1668036389,
				"y": -2.1936565224,
				"z": -1.4716585067,
				"element": "C" 
			},
			{
				"x": -0.61670502,
				"y": -3.6787835525,
				"z": -2.302524451,
				"element": "Cl" 
			},
			{
				"x": 0.8491288977,
				"y": -2.2263234294,
				"z": -0.5196076488,
				"element": "C" 
			},
			{
				"x": 2.4199740133,
				"y": -2.0389711359,
				"z": 1.668383496,
				"element": "H" 
			},
			{
				"x": 2.174934899,
				"y": -0.2915943921,
				"z": 1.9354457795,
				"element": "H" 
			},
			{
				"x": -0.3859587004,
				"y": 3.0120603383,
				"z": 0.4063553652,
				"element": "H" 
			},
			{
				"x": 0.7495300457,
				"y": 2.8689915518,
				"z": -0.9575814298,
				"element": "H" 
			},
			{
				"x": -1.0878545011,
				"y": 1.9639737783,
				"z": -2.1781479091,
				"element": "H" 
			},
			{
				"x": -2.0085269868,
				"y": 1.6158624732,
				"z": -0.7114197796,
				"element": "H" 
			},
			{
				"x": -1.6376556674,
				"y": -1.0089116411,
				"z": -2.5235555887,
				"element": "H" 
			},
			{
				"x": 1.3553064807,
				"y": -3.162221171,
				"z": -0.3069246324,
				"element": "H" 
			}
		],
		 "valence_orbital": [ 
			{
				"type": "occ",
				"energy": -0.30395,
				"method": "rhf"
			},
			{
				"type": "occ",
				"energy": -0.29306,
				"method": "rhf"
			},
			{
				"type": "occ",
				"energy": -0.28958,
				"method": "rhf"
			},
			{
				"type": "occ",
				"energy": -0.26225,
				"method": "rhf"
			},
			{
				"type": "occ",
				"energy": -0.22125,
				"method": "rhf"
			},
			{
				"type": "unocc",
				"energy": -0.03728,
				"method": "rhf"
			},
			{
				"type": "unocc",
				"energy": -0.00572,
				"method": "rhf"
			},
			{
				"type": "unocc",
				"energy": 0.02834,
				"method": "rhf"
			},
			{
				"type": "unocc",
				"energy": 0.03841,
				"method": "rhf"
			},
			{
				"type": "unocc",
				"energy": 0.08176,
				"method": "rhf"
			}
		],
		"cosmo_sigma_profile": { 
			"-0.025": 0.0,
			"-0.024": 0.0,
			"-0.023": 0.0,
			"-0.022": 0.0,
			"-0.021": 0.0,
			"-0.02": 0.0,
			"-0.019": 0.0,
			"-0.018": 0.0,
			"-0.017": 0.0,
			"-0.016": 0.0,
			"-0.015": 0.0,
			"-0.014": 0.0,
			"-0.013": 0.0,
			"-0.012": 0.0,
			"-0.011": 0.0,
			"-0.01": 0.0,
			"-0.009": 0.0825547385941,
			"-0.008": 3.72962176139,
			"-0.007": 7.63864820722,
			"-0.006": 12.5092641331,
			"-0.005": 21.4642991516,
			"-0.004": 18.7763876919,
			"-0.003": 14.9542954204,
			"-0.002": 11.6293299149,
			"-0.001": 9.80136077137,
			"0.0": 11.5218655308,
			"0.001": 12.9639036716,
			"0.002": 18.8933879499,
			"0.003": 20.5843820904,
			"0.004": 16.5330198157,
			"0.005": 15.7202606391,
			"0.006": 11.6637534483,
			"0.007": 9.36221667059,
			"0.008": 1.37579374022,
			"0.009": 1.4885944148,
			"0.01": 0.065331984143,
			"0.011": 0.0,
			"0.012": 0.0,
			"0.013": 0.0,
			"0.014": 0.0,
			"0.015": 0.0,
			"0.016": 0.0,
			"0.017": 0.0,
			"0.018": 0.0,
			"0.019": 0.0,
			"0.02": 0.0,
			"0.021": 0.0,
			"0.022": 0.0,
			"0.023": 0.0,
			"0.024": 0.0,
			"0.025": 0.0
		}
	}
}
