{
	 "smiles": "COC1=CC=C(CCC(=O)NN)C=C1", 
	 "Tm": 403.15, 
	 "num_atms": 28, 
	 "gaussian": { 
		 "optdone": 1, 
		 "sigma_profile": "yes", 
		 "theory": "DFT", 
		 "functional": "B3LYP", 
		 "basiset": "6-31G**", 
		 "properties": { 
			 "R2extent": 4131.8508, 
			 "electric_dipole_moment_norm": 4.62051090465, 
			 "electric_quadrupole_moment_norm": 18.2564825799, 
			 "total_energy": -649.425304806, 
			 "HOMO_LUMO_gap": 0.21299, 
			 "cosmo_polarized_energy": -16.85, 
			 "cosmo_cavitation_energy": 31.48, 
			 "cosmo_dispersion_energy": -22.77, 
			 "cosmo_repulsion_energy": 1.86, 
			 "cosmo_total_nonelectrostatic_energy": 10.57, 
			 "SMD_solvation_energy": 7.15 
		},
		"coords": [
			{
				"x": 0.2732590167,
				"y": -4.8273140605,
				"z": -1.846756087,
				"element": "C" 
			},
			{
				"x": 0.4245759481,
				"y": -3.5018653089,
				"z": -2.3221481372,
				"element": "O" 
			},
			{
				"x": 0.3737736104,
				"y": -2.4812147929,
				"z": -1.4113654984,
				"element": "C" 
			},
			{
				"x": 0.5411751306,
				"y": -1.1895609251,
				"z": -1.9313126118,
				"element": "C" 
			},
			{
				"x": 0.5086048829,
				"y": -0.0845807846,
				"z": -1.0896185892,
				"element": "C" 
			},
			{
				"x": 0.3085533989,
				"y": -0.2293824066,
				"z": 0.2947597743,
				"element": "C" 
			},
			{
				"x": 0.2518148212,
				"y": 0.9728453874,
				"z": 1.2166785299,
				"element": "C" 
			},
			{
				"x": -1.1409308228,
				"y": 1.6246791197,
				"z": 1.3084194638,
				"element": "C" 
			},
			{
				"x": -1.4689872868,
				"y": 2.4775209175,
				"z": 0.0898974474,
				"element": "C" 
			},
			{
				"x": -0.6209510349,
				"y": 2.9330349426,
				"z": -0.6695726658,
				"element": "O" 
			},
			{
				"x": -2.7941284647,
				"y": 2.7676589723,
				"z": -0.1316083552,
				"element": "N" 
			},
			{
				"x": -3.83403019,
				"y": 2.3267131601,
				"z": 0.6929074281,
				"element": "N" 
			},
			{
				"x": 0.1456257548,
				"y": -1.5241355908,
				"z": 0.7944178268,
				"element": "C" 
			},
			{
				"x": 0.1747305462,
				"y": -2.6486054314,
				"z": -0.0373650149,
				"element": "C" 
			},
			{
				"x": 1.0627134525,
				"y": -5.0969522274,
				"z": -1.1324997292,
				"element": "H" 
			},
			{
				"x": 0.3479330617,
				"y": -5.4744803086,
				"z": -2.7225259061,
				"element": "H" 
			},
			{
				"x": -0.7039774609,
				"y": -4.9805484729,
				"z": -1.3693691403,
				"element": "H" 
			},
			{
				"x": 0.6998830635,
				"y": -1.0788456669,
				"z": -2.9994513706,
				"element": "H" 
			},
			{
				"x": 0.6304311712,
				"y": 0.9122419603,
				"z": -1.5015556587,
				"element": "H" 
			},
			{
				"x": 0.5486752209,
				"y": 0.6641964114,
				"z": 2.2252913366,
				"element": "H" 
			},
			{
				"x": 0.9653579921,
				"y": 1.7335349262,
				"z": 0.8860142105,
				"element": "H" 
			},
			{
				"x": -1.1839124835,
				"y": 2.2927426199,
				"z": 2.1800579088,
				"element": "H" 
			},
			{
				"x": -1.9249879149,
				"y": 0.8804333392,
				"z": 1.4661889348,
				"element": "H" 
			},
			{
				"x": -2.9722484114,
				"y": 3.3606553052,
				"z": -0.9365837596,
				"element": "H" 
			},
			{
				"x": -4.322073557,
				"y": 3.1192107079,
				"z": 1.1031235437,
				"element": "H" 
			},
			{
				"x": -4.4980131485,
				"y": 1.7739956054,
				"z": 0.1564690626,
				"element": "H" 
			},
			{
				"x": -0.0025688984,
				"y": -1.6697259522,
				"z": 1.8624875123,
				"element": "H" 
			},
			{
				"x": 0.0491026021,
				"y": -3.6344514462,
				"z": 0.3951195443,
				"element": "H" 
			}
		],
		 "valence_orbital": [ 
			{
				"type": "occ",
				"energy": -0.28369,
				"method": "rhf"
			},
			{
				"type": "occ",
				"energy": -0.25479,
				"method": "rhf"
			},
			{
				"type": "occ",
				"energy": -0.24384,
				"method": "rhf"
			},
			{
				"type": "occ",
				"energy": -0.23617,
				"method": "rhf"
			},
			{
				"type": "occ",
				"energy": -0.20233,
				"method": "rhf"
			},
			{
				"type": "unocc",
				"energy": 0.01066,
				"method": "rhf"
			},
			{
				"type": "unocc",
				"energy": 0.02494,
				"method": "rhf"
			},
			{
				"type": "unocc",
				"energy": 0.03461,
				"method": "rhf"
			},
			{
				"type": "unocc",
				"energy": 0.06345,
				"method": "rhf"
			},
			{
				"type": "unocc",
				"energy": 0.10169,
				"method": "rhf"
			}
		],
		"cosmo_sigma_profile": { 
			"-0.025": 0.0,
			"-0.024": 0.0,
			"-0.023": 0.0,
			"-0.022": 0.0,
			"-0.021": 0.0,
			"-0.02": 0.0,
			"-0.019": 0.0,
			"-0.018": 0.0,
			"-0.017": 0.0,
			"-0.016": 0.0,
			"-0.015": 0.0,
			"-0.014": 0.0383817937914,
			"-0.013": 1.00829080748,
			"-0.012": 3.14300075901,
			"-0.011": 5.41161007826,
			"-0.01": 4.16856337747,
			"-0.009": 4.98047958947,
			"-0.008": 3.08971985127,
			"-0.007": 3.4947393917,
			"-0.006": 5.98938366481,
			"-0.005": 16.4311686243,
			"-0.004": 19.3080427302,
			"-0.003": 23.4076333546,
			"-0.002": 18.9896560508,
			"-0.001": 16.3500808643,
			"0.0": 16.1389738221,
			"0.001": 13.4396196099,
			"0.002": 12.2516133551,
			"0.003": 10.605776452,
			"0.004": 14.8245424054,
			"0.005": 12.072446401,
			"0.006": 12.9839748608,
			"0.007": 5.78354736619,
			"0.008": 3.17942089766,
			"0.009": 4.57612583529,
			"0.01": 2.74567744356,
			"0.011": 3.48622764517,
			"0.012": 1.93858362282,
			"0.013": 2.43930821812,
			"0.014": 4.10466664187,
			"0.015": 0.925079329549,
			"0.016": 0.0,
			"0.017": 0.0,
			"0.018": 0.0,
			"0.019": 0.0,
			"0.02": 0.0,
			"0.021": 0.0,
			"0.022": 0.0,
			"0.023": 0.0,
			"0.024": 0.0,
			"0.025": 0.0
		}
	}
}
