{
	 "smiles": "OC1=NC(=NC=C1)C1CC1", 
	 "Tm": 426.15, 
	 "num_atms": 18, 
	 "gaussian": { 
		 "optdone": 1, 
		 "sigma_profile": "yes", 
		 "theory": "DFT", 
		 "functional": "B3LYP", 
		 "basiset": "6-31G**", 
		 "properties": { 
			 "R2extent": 1815.5596, 
			 "electric_dipole_moment_norm": 0.541094742166, 
			 "electric_quadrupole_moment_norm": 4.50365919004, 
			 "total_energy": -456.274511684, 
			 "HOMO_LUMO_gap": 0.22203, 
			 "cosmo_polarized_energy": -7.84, 
			 "cosmo_cavitation_energy": 21.93, 
			 "cosmo_dispersion_energy": -16.54, 
			 "cosmo_repulsion_energy": 1.35, 
			 "cosmo_total_nonelectrostatic_energy": 6.74, 
			 "SMD_solvation_energy": 1.75 
		},
		"coords": [
			{
				"x": -1.4953964143,
				"y": 0.7666135957,
				"z": -2.1980434169,
				"element": "O" 
			},
			{
				"x": -0.7555488205,
				"y": 0.5235971868,
				"z": -1.1010950934,
				"element": "C" 
			},
			{
				"x": 0.4164801485,
				"y": 1.1464371419,
				"z": -1.000289599,
				"element": "N" 
			},
			{
				"x": 1.1459111414,
				"y": 0.8937483751,
				"z": 0.1029340007,
				"element": "C" 
			},
			{
				"x": 0.7867288518,
				"y": 0.0707829866,
				"z": 1.0990470429,
				"element": "N" 
			},
			{
				"x": -0.3992023127,
				"y": -0.5402299602,
				"z": 0.9657900182,
				"element": "C" 
			},
			{
				"x": -1.2360388545,
				"y": -0.3579752178,
				"z": -0.1248364121,
				"element": "C" 
			},
			{
				"x": 2.449198086,
				"y": 1.5911078152,
				"z": 0.2084246812,
				"element": "C" 
			},
			{
				"x": 3.6235570057,
				"y": 0.8896563441,
				"z": 0.8733285993,
				"element": "C" 
			},
			{
				"x": 2.9569374318,
				"y": 2.0286204622,
				"z": 1.5738860715,
				"element": "C" 
			},
			{
				"x": -0.9827633581,
				"y": 1.3952231695,
				"z": -2.7327068552,
				"element": "H" 
			},
			{
				"x": -0.6895456427,
				"y": -1.2080496053,
				"z": 1.7752262029,
				"element": "H" 
			},
			{
				"x": -2.1927657599,
				"y": -0.8541722664,
				"z": -0.2272969059,
				"element": "H" 
			},
			{
				"x": 2.6624714949,
				"y": 2.2360885351,
				"z": -0.63684468,
				"element": "H" 
			},
			{
				"x": 4.6039152774,
				"y": 1.0435309134,
				"z": 0.4329221964,
				"element": "H" 
			},
			{
				"x": 3.4317702647,
				"y": -0.1095159659,
				"z": 1.249856445,
				"element": "H" 
			},
			{
				"x": 2.3193286841,
				"y": 1.7912675752,
				"z": 2.4188823014,
				"element": "H" 
			},
			{
				"x": 3.4673627763,
				"y": 2.985368915,
				"z": 1.627415403,
				"element": "H" 
			}
		],
		 "valence_orbital": [ 
			{
				"type": "occ",
				"energy": -0.31547,
				"method": "rhf"
			},
			{
				"type": "occ",
				"energy": -0.29322,
				"method": "rhf"
			},
			{
				"type": "occ",
				"energy": -0.28297,
				"method": "rhf"
			},
			{
				"type": "occ",
				"energy": -0.25465,
				"method": "rhf"
			},
			{
				"type": "occ",
				"energy": -0.24692,
				"method": "rhf"
			},
			{
				"type": "unocc",
				"energy": -0.02489,
				"method": "rhf"
			},
			{
				"type": "unocc",
				"energy": -0.01357,
				"method": "rhf"
			},
			{
				"type": "unocc",
				"energy": 0.08403,
				"method": "rhf"
			},
			{
				"type": "unocc",
				"energy": 0.10283,
				"method": "rhf"
			},
			{
				"type": "unocc",
				"energy": 0.1183,
				"method": "rhf"
			}
		],
		"cosmo_sigma_profile": { 
			"-0.025": 0.0,
			"-0.024": 0.0,
			"-0.023": 0.0,
			"-0.022": 0.0,
			"-0.021": 0.0,
			"-0.02": 0.0,
			"-0.019": 0.0,
			"-0.018": 0.163099792833,
			"-0.017": 0.909038212279,
			"-0.016": 0.830772629482,
			"-0.015": 0.74981619492,
			"-0.014": 0.40414998325,
			"-0.013": 0.316615923,
			"-0.012": 0.857375542083,
			"-0.011": 0.877772439924,
			"-0.01": 1.12142465624,
			"-0.009": 0.395024100712,
			"-0.008": 1.51696418238,
			"-0.007": 5.30340570459,
			"-0.006": 4.60283900455,
			"-0.005": 9.6185760275,
			"-0.004": 12.9934723242,
			"-0.003": 10.2217698935,
			"-0.002": 10.4214959142,
			"-0.001": 14.6935030901,
			"0.0": 17.9968789279,
			"0.001": 16.9380263934,
			"0.002": 15.9329633241,
			"0.003": 12.5049013899,
			"0.004": 8.22256144246,
			"0.005": 5.09380737936,
			"0.006": 4.31079540611,
			"0.007": 3.75048299625,
			"0.008": 3.52224586726,
			"0.009": 3.46002731975,
			"0.01": 3.74310065371,
			"0.011": 1.39367744392,
			"0.012": 0.933891496112,
			"0.013": 0.774063700236,
			"0.014": 0.0959816417642,
			"0.015": 0.0,
			"0.016": 0.0,
			"0.017": 0.0,
			"0.018": 0.0,
			"0.019": 0.0,
			"0.02": 0.0,
			"0.021": 0.0,
			"0.022": 0.0,
			"0.023": 0.0,
			"0.024": 0.0,
			"0.025": 0.0
		}
	}
}
