{
	 "smiles": "COC1=C(OC)C=C(C(C)=O)C(C)=C1", 
	 "Tm": 347.15, 
	 "num_atms": 28, 
	 "gaussian": { 
		 "optdone": 1, 
		 "sigma_profile": "yes", 
		 "theory": "DFT", 
		 "functional": "B3LYP", 
		 "basiset": "6-31G**", 
		 "properties": { 
			 "R2extent": 4258.2334, 
			 "electric_dipole_moment_norm": 4.06021166443, 
			 "electric_quadrupole_moment_norm": 11.908870823, 
			 "total_energy": -653.256146745, 
			 "HOMO_LUMO_gap": 0.16988, 
			 "cosmo_polarized_energy": -10.82, 
			 "cosmo_cavitation_energy": 30.89, 
			 "cosmo_dispersion_energy": -22.05, 
			 "cosmo_repulsion_energy": 1.74, 
			 "cosmo_total_nonelectrostatic_energy": 10.57, 
			 "SMD_solvation_energy": 7.56 
		},
		"coords": [
			{
				"x": -3.264008204,
				"y": -0.449251227,
				"z": 1.7302001077,
				"element": "C" 
			},
			{
				"x": -2.47637905,
				"y": 0.6011955002,
				"z": 2.3012108325,
				"element": "O" 
			},
			{
				"x": -1.1287149264,
				"y": 0.5683067515,
				"z": 2.0746550069,
				"element": "C" 
			},
			{
				"x": -0.5671800478,
				"y": 0.6491696914,
				"z": 0.7808114407,
				"element": "C" 
			},
			{
				"x": -1.4451776658,
				"y": 0.7304387178,
				"z": -0.2652683508,
				"element": "O" 
			},
			{
				"x": -0.9167699396,
				"y": 0.8600866948,
				"z": -1.5752758742,
				"element": "C" 
			},
			{
				"x": 0.8179891499,
				"y": 0.6606844102,
				"z": 0.6570604963,
				"element": "C" 
			},
			{
				"x": 1.6750355185,
				"y": 0.6133012696,
				"z": 1.7774712386,
				"element": "C" 
			},
			{
				"x": 3.1525219822,
				"y": 0.6328593513,
				"z": 1.5598220691,
				"element": "C" 
			},
			{
				"x": 3.6923612197,
				"y": 0.7082568511,
				"z": 0.133705728,
				"element": "C" 
			},
			{
				"x": 3.9483625129,
				"y": 0.5899568679,
				"z": 2.4899328666,
				"element": "O" 
			},
			{
				"x": 1.1143754664,
				"y": 0.5539888959,
				"z": 3.0769179635,
				"element": "C" 
			},
			{
				"x": 1.924491467,
				"y": 0.5063969544,
				"z": 4.3503839789,
				"element": "C" 
			},
			{
				"x": -0.2817966196,
				"y": 0.5286660953,
				"z": 3.1788673995,
				"element": "C" 
			},
			{
				"x": -2.9104286878,
				"y": -1.4293858557,
				"z": 2.0746431843,
				"element": "H" 
			},
			{
				"x": -4.2812468747,
				"y": -0.2883579431,
				"z": 2.0921173808,
				"element": "H" 
			},
			{
				"x": -3.2504446467,
				"y": -0.4177112034,
				"z": 0.6383628624,
				"element": "H" 
			},
			{
				"x": -1.7778931188,
				"y": 0.9289408286,
				"z": -2.2415767489,
				"element": "H" 
			},
			{
				"x": -0.3088168504,
				"y": 1.7682392113,
				"z": -1.6767212692,
				"element": "H" 
			},
			{
				"x": -0.3109595626,
				"y": -0.0108513746,
				"z": -1.8579775372,
				"element": "H" 
			},
			{
				"x": 1.2523263043,
				"y": 0.7205417814,
				"z": -0.3312580065,
				"element": "H" 
			},
			{
				"x": 3.3545598068,
				"y": 1.6170420809,
				"z": -0.3763129859,
				"element": "H" 
			},
			{
				"x": 4.7812076336,
				"y": 0.7126664295,
				"z": 0.1882337598,
				"element": "H" 
			},
			{
				"x": 3.366214049,
				"y": -0.1486069193,
				"z": -0.4658496978,
				"element": "H" 
			},
			{
				"x": 1.2564093447,
				"y": 0.4693579791,
				"z": 5.2159150721,
				"element": "H" 
			},
			{
				"x": 2.5786884166,
				"y": 1.377070283,
				"z": 4.4450438349,
				"element": "H" 
			},
			{
				"x": 2.5869359356,
				"y": -0.3628437882,
				"z": 4.376369527,
				"element": "H" 
			},
			{
				"x": -0.7533626129,
				"y": 0.4799416661,
				"z": 4.155715721,
				"element": "H" 
			}
		],
		 "valence_orbital": [ 
			{
				"type": "occ",
				"energy": -0.31181,
				"method": "rhf"
			},
			{
				"type": "occ",
				"energy": -0.28376,
				"method": "rhf"
			},
			{
				"type": "occ",
				"energy": -0.24385,
				"method": "rhf"
			},
			{
				"type": "occ",
				"energy": -0.23728,
				"method": "rhf"
			},
			{
				"type": "occ",
				"energy": -0.21675,
				"method": "rhf"
			},
			{
				"type": "unocc",
				"energy": -0.04687,
				"method": "rhf"
			},
			{
				"type": "unocc",
				"energy": 0.00637,
				"method": "rhf"
			},
			{
				"type": "unocc",
				"energy": 0.04753,
				"method": "rhf"
			},
			{
				"type": "unocc",
				"energy": 0.08022,
				"method": "rhf"
			},
			{
				"type": "unocc",
				"energy": 0.08906,
				"method": "rhf"
			}
		],
		"cosmo_sigma_profile": { 
			"-0.025": 0.0,
			"-0.024": 0.0,
			"-0.023": 0.0,
			"-0.022": 0.0,
			"-0.021": 0.0,
			"-0.02": 0.0,
			"-0.019": 0.0,
			"-0.018": 0.0,
			"-0.017": 0.0,
			"-0.016": 0.0,
			"-0.015": 0.0,
			"-0.014": 0.0,
			"-0.013": 0.0,
			"-0.012": 0.0,
			"-0.011": 0.0,
			"-0.01": 0.0,
			"-0.009": 0.0,
			"-0.008": 0.0,
			"-0.007": 2.15267969371,
			"-0.006": 13.011373323,
			"-0.005": 20.7447008644,
			"-0.004": 23.2241551254,
			"-0.003": 27.3354113691,
			"-0.002": 22.6400524053,
			"-0.001": 19.5300381806,
			"0.0": 19.7694547169,
			"0.001": 19.7533631454,
			"0.002": 14.851964337,
			"0.003": 15.7068350903,
			"0.004": 11.5574635214,
			"0.005": 4.38563045577,
			"0.006": 4.82045288091,
			"0.007": 3.27941158431,
			"0.008": 3.4657740765,
			"0.009": 4.57622856795,
			"0.01": 4.04605242922,
			"0.011": 3.21818009823,
			"0.012": 3.0583135686,
			"0.013": 2.1467520072,
			"0.014": 0.724446845813,
			"0.015": 0.0,
			"0.016": 0.0,
			"0.017": 0.0,
			"0.018": 0.0,
			"0.019": 0.0,
			"0.02": 0.0,
			"0.021": 0.0,
			"0.022": 0.0,
			"0.023": 0.0,
			"0.024": 0.0,
			"0.025": 0.0
		}
	}
}
