{
	 "smiles": "ClC1C2=CC=CC=C2CCC2=CC=CC=C12", 
	 "Tm": 380.15, 
	 "num_atms": 29, 
	 "gaussian": { 
		 "optdone": 1, 
		 "sigma_profile": "yes", 
		 "theory": "DFT", 
		 "functional": "B3LYP", 
		 "basiset": "6-31G**", 
		 "properties": { 
			 "R2extent": 3782.652, 
			 "electric_dipole_moment_norm": 2.5854762656, 
			 "electric_quadrupole_moment_norm": 14.5193731531, 
			 "total_energy": -1039.63809093, 
			 "HOMO_LUMO_gap": 0.19871, 
			 "cosmo_polarized_energy": -8.16, 
			 "cosmo_cavitation_energy": 32.17, 
			 "cosmo_dispersion_energy": -23.51, 
			 "cosmo_repulsion_energy": 1.8, 
			 "cosmo_total_nonelectrostatic_energy": 10.47, 
			 "SMD_solvation_energy": 4.32 
		},
		"coords": [
			{
				"x": -0.478802566,
				"y": 2.5461811556,
				"z": -0.2337484045,
				"element": "Cl" 
			},
			{
				"x": -0.2257319737,
				"y": 0.7284703483,
				"z": -0.6910113915,
				"element": "C" 
			},
			{
				"x": -1.4180656028,
				"y": -0.07799855,
				"z": -0.2521035826,
				"element": "C" 
			},
			{
				"x": -2.2929556042,
				"y": -0.5490079458,
				"z": -1.2395235565,
				"element": "C" 
			},
			{
				"x": -3.4209599216,
				"y": -1.2981281473,
				"z": -0.9063951947,
				"element": "C" 
			},
			{
				"x": -3.6887686822,
				"y": -1.5741567711,
				"z": 0.4331586932,
				"element": "C" 
			},
			{
				"x": -2.8247471046,
				"y": -1.1022817453,
				"z": 1.4229303507,
				"element": "C" 
			},
			{
				"x": -1.6873259712,
				"y": -0.3551495113,
				"z": 1.1018146929,
				"element": "C" 
			},
			{
				"x": -0.7460930121,
				"y": 0.1208620999,
				"z": 2.1797191301,
				"element": "C" 
			},
			{
				"x": 0.6200628941,
				"y": -0.5786132072,
				"z": 2.119641796,
				"element": "C" 
			},
			{
				"x": 1.5424331413,
				"y": -0.2708693054,
				"z": 0.9482940148,
				"element": "C" 
			},
			{
				"x": 2.8914134355,
				"y": -0.6211116628,
				"z": 1.1309463152,
				"element": "C" 
			},
			{
				"x": 3.8552874894,
				"y": -0.426722995,
				"z": 0.1480770957,
				"element": "C" 
			},
			{
				"x": 3.4836214215,
				"y": 0.1398495715,
				"z": -1.0715328799,
				"element": "C" 
			},
			{
				"x": 2.1553880499,
				"y": 0.4917744834,
				"z": -1.2731689386,
				"element": "C" 
			},
			{
				"x": 1.1675222036,
				"y": 0.2962497172,
				"z": -0.2889661675,
				"element": "C" 
			},
			{
				"x": -0.2463933309,
				"y": 0.7906545173,
				"z": -1.777824241,
				"element": "H" 
			},
			{
				"x": -2.0874698781,
				"y": -0.3230630915,
				"z": -2.2829272029,
				"element": "H" 
			},
			{
				"x": -4.0851954065,
				"y": -1.6566961813,
				"z": -1.6870094099,
				"element": "H" 
			},
			{
				"x": -4.5662225311,
				"y": -2.15170619,
				"z": 0.709639992,
				"element": "H" 
			},
			{
				"x": -3.0358293189,
				"y": -1.3154851843,
				"z": 2.4679226196,
				"element": "H" 
			},
			{
				"x": -1.1900971447,
				"y": -0.0834875031,
				"z": 3.1597485659,
				"element": "H" 
			},
			{
				"x": -0.608849119,
				"y": 1.2052298554,
				"z": 2.1130734614,
				"element": "H" 
			},
			{
				"x": 1.1684947009,
				"y": -0.3384473136,
				"z": 3.0384271951,
				"element": "H" 
			},
			{
				"x": 0.4540189071,
				"y": -1.6651390406,
				"z": 2.1497987266,
				"element": "H" 
			},
			{
				"x": 3.1848875534,
				"y": -1.0588684932,
				"z": 2.0823189168,
				"element": "H" 
			},
			{
				"x": 4.8869806279,
				"y": -0.7109197457,
				"z": 0.3343422101,
				"element": "H" 
			},
			{
				"x": 4.2174606692,
				"y": 0.3047998702,
				"z": -1.8546182494,
				"element": "H" 
			},
			{
				"x": 1.8632360737,
				"y": 0.9404809656,
				"z": -2.2192245573,
				"element": "H" 
			}
		],
		 "valence_orbital": [ 
			{
				"type": "occ",
				"energy": -0.28412,
				"method": "rhf"
			},
			{
				"type": "occ",
				"energy": -0.25372,
				"method": "rhf"
			},
			{
				"type": "occ",
				"energy": -0.24868,
				"method": "rhf"
			},
			{
				"type": "occ",
				"energy": -0.24571,
				"method": "rhf"
			},
			{
				"type": "occ",
				"energy": -0.23925,
				"method": "rhf"
			},
			{
				"type": "unocc",
				"energy": -0.04054,
				"method": "rhf"
			},
			{
				"type": "unocc",
				"energy": -0.00888,
				"method": "rhf"
			},
			{
				"type": "unocc",
				"energy": -0.00237,
				"method": "rhf"
			},
			{
				"type": "unocc",
				"energy": 0.00013,
				"method": "rhf"
			},
			{
				"type": "unocc",
				"energy": 0.04978,
				"method": "rhf"
			}
		],
		"cosmo_sigma_profile": { 
			"-0.025": 0.0,
			"-0.024": 0.0,
			"-0.023": 0.0,
			"-0.022": 0.0,
			"-0.021": 0.0,
			"-0.02": 0.0,
			"-0.019": 0.0,
			"-0.018": 0.0,
			"-0.017": 0.0,
			"-0.016": 0.0,
			"-0.015": 0.0,
			"-0.014": 0.0,
			"-0.013": 0.0,
			"-0.012": 0.0,
			"-0.011": 0.0,
			"-0.01": 0.0,
			"-0.009": 0.1527381039,
			"-0.008": 3.08493341389,
			"-0.007": 3.5213963832,
			"-0.006": 12.0334381049,
			"-0.005": 19.0304395874,
			"-0.004": 25.8213408941,
			"-0.003": 22.4668533021,
			"-0.002": 20.9078711249,
			"-0.001": 19.4984500095,
			"0.0": 15.0173726509,
			"0.001": 15.1446656942,
			"0.002": 17.0484037198,
			"0.003": 17.9607714273,
			"0.004": 19.0568557689,
			"0.005": 25.4946743072,
			"0.006": 12.695234417,
			"0.007": 8.12791626281,
			"0.008": 1.12287530008,
			"0.009": 0.0,
			"0.01": 0.0,
			"0.011": 0.0,
			"0.012": 0.0,
			"0.013": 0.0,
			"0.014": 0.0,
			"0.015": 0.0,
			"0.016": 0.0,
			"0.017": 0.0,
			"0.018": 0.0,
			"0.019": 0.0,
			"0.02": 0.0,
			"0.021": 0.0,
			"0.022": 0.0,
			"0.023": 0.0,
			"0.024": 0.0,
			"0.025": 0.0
		}
	}
}
