{
	 "smiles": "NC1=CC(=CC=C1)C1=CC2=C(OCC2)C=C1", 
	 "Tm": 338.15, 
	 "num_atms": 29, 
	 "gaussian": { 
		 "optdone": 1, 
		 "sigma_profile": "yes", 
		 "theory": "DFT", 
		 "functional": "B3LYP", 
		 "basiset": "6-31G**", 
		 "properties": { 
			 "R2extent": 4777.6909, 
			 "electric_dipole_moment_norm": 2.24643784468, 
			 "electric_quadrupole_moment_norm": 12.6184282983, 
			 "total_energy": -671.303873302, 
			 "HOMO_LUMO_gap": 0.18072, 
			 "cosmo_polarized_energy": -11.92, 
			 "cosmo_cavitation_energy": 32.11, 
			 "cosmo_dispersion_energy": -24.0, 
			 "cosmo_repulsion_energy": 1.87, 
			 "cosmo_total_nonelectrostatic_energy": 9.98, 
			 "SMD_solvation_energy": 5.08 
		},
		"coords": [
			{
				"x": -3.7609698853,
				"y": 0.0964033282,
				"z": -2.5399008668,
				"element": "N" 
			},
			{
				"x": -2.3806415857,
				"y": 0.3220367721,
				"z": -2.5318735907,
				"element": "C" 
			},
			{
				"x": -1.6213827907,
				"y": 0.0527634752,
				"z": -1.3828654834,
				"element": "C" 
			},
			{
				"x": -0.2295854143,
				"y": 0.2229955693,
				"z": -1.3661877584,
				"element": "C" 
			},
			{
				"x": 0.4086261762,
				"y": 0.6801760775,
				"z": -2.5323459735,
				"element": "C" 
			},
			{
				"x": -0.3417703991,
				"y": 0.9533785246,
				"z": -3.675027811,
				"element": "C" 
			},
			{
				"x": -1.723247146,
				"y": 0.7785233359,
				"z": -3.6867472021,
				"element": "C" 
			},
			{
				"x": 0.5503920919,
				"y": -0.0746273181,
				"z": -0.1370956987,
				"element": "C" 
			},
			{
				"x": 0.2214290119,
				"y": -1.1779137437,
				"z": 0.6782557863,
				"element": "C" 
			},
			{
				"x": 0.9670683293,
				"y": -1.4440612814,
				"z": 1.8168162579,
				"element": "C" 
			},
			{
				"x": 2.0407421365,
				"y": -0.6181421307,
				"z": 2.1590860249,
				"element": "C" 
			},
			{
				"x": 2.6779216221,
				"y": -1.0003683163,
				"z": 3.3052312079,
				"element": "O" 
			},
			{
				"x": 2.1552421032,
				"y": -2.3013413974,
				"z": 3.6779373497,
				"element": "C" 
			},
			{
				"x": 0.8388114986,
				"y": -2.5053681939,
				"z": 2.8876425616,
				"element": "C" 
			},
			{
				"x": 2.3939694859,
				"y": 0.4819048685,
				"z": 1.385761057,
				"element": "C" 
			},
			{
				"x": 1.6349816093,
				"y": 0.7377905219,
				"z": 0.2408289387,
				"element": "C" 
			},
			{
				"x": -4.2003494444,
				"y": 0.1214556756,
				"z": -1.6297057982,
				"element": "H" 
			},
			{
				"x": -4.2764864446,
				"y": 0.6435648319,
				"z": -3.2158498518,
				"element": "H" 
			},
			{
				"x": -2.1307717524,
				"y": -0.2712517205,
				"z": -0.478589592,
				"element": "H" 
			},
			{
				"x": 1.4879022996,
				"y": 0.7905646625,
				"z": -2.5498227485,
				"element": "H" 
			},
			{
				"x": 0.1575654247,
				"y": 1.3004618777,
				"z": -4.5757372185,
				"element": "H" 
			},
			{
				"x": -2.2970910469,
				"y": 0.9894609844,
				"z": -4.5857877694,
				"element": "H" 
			},
			{
				"x": -0.5993398148,
				"y": -1.8302173336,
				"z": 0.3933747325,
				"element": "H" 
			},
			{
				"x": 2.0251319509,
				"y": -2.3075556922,
				"z": 4.7624171474,
				"element": "H" 
			},
			{
				"x": 2.904861784,
				"y": -3.0552776867,
				"z": 3.4082599647,
				"element": "H" 
			},
			{
				"x": -0.0426000186,
				"y": -2.3287807618,
				"z": 3.5171363456,
				"element": "H" 
			},
			{
				"x": 0.7577277716,
				"y": -3.5217272812,
				"z": 2.489927777,
				"element": "H" 
			},
			{
				"x": 3.2259713165,
				"y": 1.1173699339,
				"z": 1.6693407648,
				"element": "H" 
			},
			{
				"x": 1.8790911306,
				"y": 1.6032824181,
				"z": -0.3675785531,
				"element": "H" 
			}
		],
		 "valence_orbital": [ 
			{
				"type": "occ",
				"energy": -0.29495,
				"method": "rhf"
			},
			{
				"type": "occ",
				"energy": -0.24729,
				"method": "rhf"
			},
			{
				"type": "occ",
				"energy": -0.24111,
				"method": "rhf"
			},
			{
				"type": "occ",
				"energy": -0.20391,
				"method": "rhf"
			},
			{
				"type": "occ",
				"energy": -0.19182,
				"method": "rhf"
			},
			{
				"type": "unocc",
				"energy": -0.0111,
				"method": "rhf"
			},
			{
				"type": "unocc",
				"energy": -0.00072,
				"method": "rhf"
			},
			{
				"type": "unocc",
				"energy": 0.01884,
				"method": "rhf"
			},
			{
				"type": "unocc",
				"energy": 0.04787,
				"method": "rhf"
			},
			{
				"type": "unocc",
				"energy": 0.08446,
				"method": "rhf"
			}
		],
		"cosmo_sigma_profile": { 
			"-0.025": 0.0,
			"-0.024": 0.0,
			"-0.023": 0.0,
			"-0.022": 0.0,
			"-0.021": 0.0,
			"-0.02": 0.0,
			"-0.019": 0.0,
			"-0.018": 0.0,
			"-0.017": 0.0,
			"-0.016": 0.0,
			"-0.015": 0.0,
			"-0.014": 0.0,
			"-0.013": 0.094746183318,
			"-0.012": 1.8223485631,
			"-0.011": 3.03072405717,
			"-0.01": 2.81655361644,
			"-0.009": 3.12397414043,
			"-0.008": 2.3681964791,
			"-0.007": 3.49264881443,
			"-0.006": 7.96439509602,
			"-0.005": 21.9776355939,
			"-0.004": 25.33962293,
			"-0.003": 25.2777471404,
			"-0.002": 18.7815231731,
			"-0.001": 14.5293760161,
			"0.0": 11.8637344092,
			"0.001": 12.0932018605,
			"0.002": 11.4612121281,
			"0.003": 14.7443103064,
			"0.004": 17.2092206413,
			"0.005": 18.83723084,
			"0.006": 15.8469276491,
			"0.007": 9.75465077087,
			"0.008": 2.89557361538,
			"0.009": 2.31293029668,
			"0.01": 1.90953895479,
			"0.011": 2.54312328835,
			"0.012": 1.47310138847,
			"0.013": 0.769742734137,
			"0.014": 0.590919109225,
			"0.015": 0.421506592852,
			"0.016": 0.0,
			"0.017": 0.0,
			"0.018": 0.0,
			"0.019": 0.0,
			"0.02": 0.0,
			"0.021": 0.0,
			"0.022": 0.0,
			"0.023": 0.0,
			"0.024": 0.0,
			"0.025": 0.0
		}
	}
}
