{
	 "smiles": "OC(=O)C1=C(O)C(O)=CC=C1", 
	 "Tm": 478.15, 
	 "num_atms": 17, 
	 "gaussian": { 
		 "optdone": 1, 
		 "sigma_profile": "yes", 
		 "theory": "DFT", 
		 "functional": "B3LYP", 
		 "basiset": "6-31G**", 
		 "properties": { 
			 "R2extent": 2241.8276, 
			 "electric_dipole_moment_norm": 4.39500475313, 
			 "electric_quadrupole_moment_norm": 23.9464624377, 
			 "total_energy": -571.257537521, 
			 "HOMO_LUMO_gap": 0.18873, 
			 "cosmo_polarized_energy": -18.37, 
			 "cosmo_cavitation_energy": 21.52, 
			 "cosmo_dispersion_energy": -16.37, 
			 "cosmo_repulsion_energy": 1.3, 
			 "cosmo_total_nonelectrostatic_energy": 6.45, 
			 "SMD_solvation_energy": 5.46 
		},
		"coords": [
			{
				"x": -2.8858632743,
				"y": -2.0657025658,
				"z": -1.1232990601,
				"element": "O" 
			},
			{
				"x": -2.6852618736,
				"y": -2.0526334813,
				"z": 0.2117754993,
				"element": "C" 
			},
			{
				"x": -3.3531792611,
				"y": -2.746535377,
				"z": 0.9439332469,
				"element": "O" 
			},
			{
				"x": -1.614629056,
				"y": -1.1295767208,
				"z": 0.7385707651,
				"element": "C" 
			},
			{
				"x": -0.6709418847,
				"y": -0.4707687219,
				"z": -0.0607434474,
				"element": "C" 
			},
			{
				"x": -0.6417196119,
				"y": -0.6099132623,
				"z": -1.46365673,
				"element": "O" 
			},
			{
				"x": 0.2662006053,
				"y": 0.4130141663,
				"z": 0.4908147031,
				"element": "C" 
			},
			{
				"x": 1.154646366,
				"y": 1.0661486975,
				"z": -0.3030773661,
				"element": "O" 
			},
			{
				"x": 0.2874245858,
				"y": 0.614769148,
				"z": 1.872637997,
				"element": "C" 
			},
			{
				"x": -0.627961268,
				"y": -0.059835663,
				"z": 2.6801244775,
				"element": "C" 
			},
			{
				"x": -1.5723873671,
				"y": -0.9198974299,
				"z": 2.123882517,
				"element": "C" 
			},
			{
				"x": -2.285243907,
				"y": -1.4272246003,
				"z": -1.5515939227,
				"element": "H" 
			},
			{
				"x": -0.0959690412,
				"y": -1.3800225487,
				"z": -1.6880093865,
				"element": "H" 
			},
			{
				"x": 0.8933216909,
				"y": 0.8985752496,
				"z": -1.2222411736,
				"element": "H" 
			},
			{
				"x": 1.0206445856,
				"y": 1.2981039599,
				"z": 2.2878279734,
				"element": "H" 
			},
			{
				"x": -0.6084189191,
				"y": 0.0972722481,
				"z": 3.7540732248,
				"element": "H" 
			},
			{
				"x": -2.2966623695,
				"y": -1.4445730983,
				"z": 2.7358806825,
				"element": "H" 
			}
		],
		 "valence_orbital": [ 
			{
				"type": "occ",
				"energy": -0.34,
				"method": "rhf"
			},
			{
				"type": "occ",
				"energy": -0.30864,
				"method": "rhf"
			},
			{
				"type": "occ",
				"energy": -0.27361,
				"method": "rhf"
			},
			{
				"type": "occ",
				"energy": -0.2696,
				"method": "rhf"
			},
			{
				"type": "occ",
				"energy": -0.24138,
				"method": "rhf"
			},
			{
				"type": "unocc",
				"energy": -0.05265,
				"method": "rhf"
			},
			{
				"type": "unocc",
				"energy": -0.00972,
				"method": "rhf"
			},
			{
				"type": "unocc",
				"energy": 0.02194,
				"method": "rhf"
			},
			{
				"type": "unocc",
				"energy": 0.05602,
				"method": "rhf"
			},
			{
				"type": "unocc",
				"energy": 0.0896,
				"method": "rhf"
			}
		],
		"cosmo_sigma_profile": { 
			"-0.025": 0.0,
			"-0.024": 0.0,
			"-0.023": 0.0,
			"-0.022": 0.0,
			"-0.021": 0.0,
			"-0.02": 0.27494119963,
			"-0.019": 1.46339340554,
			"-0.018": 1.08892536746,
			"-0.017": 1.1145592972,
			"-0.016": 0.990814624365,
			"-0.015": 2.41433967877,
			"-0.014": 1.61332719357,
			"-0.013": 1.96011768487,
			"-0.012": 2.3863138825,
			"-0.011": 2.26864677269,
			"-0.01": 2.33506481243,
			"-0.009": 3.32184248553,
			"-0.008": 2.53407948249,
			"-0.007": 4.58630086534,
			"-0.006": 7.72038901025,
			"-0.005": 8.07658867115,
			"-0.004": 7.67503079124,
			"-0.003": 8.83990219271,
			"-0.002": 7.54184523761,
			"-0.001": 7.19143636757,
			"0.0": 9.27615779773,
			"0.001": 10.7177020615,
			"0.002": 13.6915209311,
			"0.003": 12.2586364419,
			"0.004": 8.16697200813,
			"0.005": 4.13951903619,
			"0.006": 4.74107197163,
			"0.007": 4.52528043047,
			"0.008": 4.04595142964,
			"0.009": 3.91838775605,
			"0.01": 6.06919831261,
			"0.011": 7.26171451034,
			"0.012": 5.53826469199,
			"0.013": 2.14724220529,
			"0.014": 0.209351889518,
			"0.015": 0.0,
			"0.016": 0.0,
			"0.017": 0.0,
			"0.018": 0.0,
			"0.019": 0.0,
			"0.02": 0.0,
			"0.021": 0.0,
			"0.022": 0.0,
			"0.023": 0.0,
			"0.024": 0.0,
			"0.025": 0.0
		}
	}
}
