{
	 "smiles": "CC1=CC(=NN1C(C)(C)C)C(=O)NN", 
	 "Tm": 359.65, 
	 "num_atms": 30, 
	 "gaussian": { 
		 "optdone": 1, 
		 "sigma_profile": "yes", 
		 "theory": "DFT", 
		 "functional": "B3LYP", 
		 "basiset": "6-31G**", 
		 "properties": { 
			 "R2extent": 4370.6247, 
			 "electric_dipole_moment_norm": 5.85523817961, 
			 "electric_quadrupole_moment_norm": 19.6325984488, 
			 "total_energy": -646.807531406, 
			 "HOMO_LUMO_gap": 0.22109, 
			 "cosmo_polarized_energy": -14.78, 
			 "cosmo_cavitation_energy": 31.86, 
			 "cosmo_dispersion_energy": -22.16, 
			 "cosmo_repulsion_energy": 1.73, 
			 "cosmo_total_nonelectrostatic_energy": 11.43, 
			 "SMD_solvation_energy": 6.46 
		},
		"coords": [
			{
				"x": -0.7875268832,
				"y": 0.7877432414,
				"z": -1.92749406,
				"element": "C" 
			},
			{
				"x": 0.0735734729,
				"y": 1.3501601919,
				"z": -0.8364966362,
				"element": "C" 
			},
			{
				"x": 0.7840327949,
				"y": 2.5329424067,
				"z": -0.8681407391,
				"element": "C" 
			},
			{
				"x": 1.4215000822,
				"y": 2.6274194642,
				"z": 0.3844950058,
				"element": "C" 
			},
			{
				"x": 1.1295980789,
				"y": 1.5684393609,
				"z": 1.1497197551,
				"element": "N" 
			},
			{
				"x": 0.2996831892,
				"y": 0.7993690206,
				"z": 0.4099132622,
				"element": "N" 
			},
			{
				"x": -0.1270117481,
				"y": -0.5234640435,
				"z": 0.9638827687,
				"element": "C" 
			},
			{
				"x": 0.6660836865,
				"y": -1.6380374448,
				"z": 0.2541252769,
				"element": "C" 
			},
			{
				"x": 0.1834770853,
				"y": -0.5585936862,
				"z": 2.4694233478,
				"element": "C" 
			},
			{
				"x": -1.6440960363,
				"y": -0.712717412,
				"z": 0.7765301169,
				"element": "C" 
			},
			{
				"x": 2.2905018858,
				"y": 3.7752857501,
				"z": 0.7691968627,
				"element": "C" 
			},
			{
				"x": 2.4650379058,
				"y": 4.7032689886,
				"z": -0.0191217736,
				"element": "O" 
			},
			{
				"x": 2.8878386904,
				"y": 3.7924908931,
				"z": 2.0026015429,
				"element": "N" 
			},
			{
				"x": 2.8369090395,
				"y": 2.8362361433,
				"z": 3.0344384346,
				"element": "N" 
			},
			{
				"x": -1.8555689867,
				"y": 0.8670358464,
				"z": -1.699027166,
				"element": "H" 
			},
			{
				"x": -0.6052409059,
				"y": 1.3600336113,
				"z": -2.8399306769,
				"element": "H" 
			},
			{
				"x": -0.5711088989,
				"y": -0.2614801863,
				"z": -2.1486952829,
				"element": "H" 
			},
			{
				"x": 0.8429557058,
				"y": 3.24607614,
				"z": -1.6755103497,
				"element": "H" 
			},
			{
				"x": 0.3928551089,
				"y": -2.6139082863,
				"z": 0.6678050648,
				"element": "H" 
			},
			{
				"x": 0.4664572154,
				"y": -1.6626716504,
				"z": -0.8203404508,
				"element": "H" 
			},
			{
				"x": 1.7401376026,
				"y": -1.4908180965,
				"z": 0.3989366525,
				"element": "H" 
			},
			{
				"x": 1.2511746106,
				"y": -0.4557204828,
				"z": 2.6642709692,
				"element": "H" 
			},
			{
				"x": -0.1549799501,
				"y": -1.519589093,
				"z": 2.8682099674,
				"element": "H" 
			},
			{
				"x": -0.33801274,
				"y": 0.2410499616,
				"z": 3.0009273939,
				"element": "H" 
			},
			{
				"x": -2.1948418073,
				"y": 0.134514734,
				"z": 1.1959114237,
				"element": "H" 
			},
			{
				"x": -1.9592906968,
				"y": -1.6172945615,
				"z": 1.304928808,
				"element": "H" 
			},
			{
				"x": -1.930829034,
				"y": -0.8313629743,
				"z": -0.2689125777,
				"element": "H" 
			},
			{
				"x": 3.4571624822,
				"y": 4.6074732393,
				"z": 2.1864703924,
				"element": "H" 
			},
			{
				"x": 3.172444176,
				"y": 1.947738584,
				"z": 2.6670141801,
				"element": "H" 
			},
			{
				"x": 1.8606848743,
				"y": 2.6709803399,
				"z": 3.2703684874,
				"element": "H" 
			}
		],
		 "valence_orbital": [ 
			{
				"type": "occ",
				"energy": -0.267,
				"method": "rhf"
			},
			{
				"type": "occ",
				"energy": -0.24912,
				"method": "rhf"
			},
			{
				"type": "occ",
				"energy": -0.24391,
				"method": "rhf"
			},
			{
				"type": "occ",
				"energy": -0.23941,
				"method": "rhf"
			},
			{
				"type": "occ",
				"energy": -0.23323,
				"method": "rhf"
			},
			{
				"type": "unocc",
				"energy": -0.01214,
				"method": "rhf"
			},
			{
				"type": "unocc",
				"energy": 0.03048,
				"method": "rhf"
			},
			{
				"type": "unocc",
				"energy": 0.06369,
				"method": "rhf"
			},
			{
				"type": "unocc",
				"energy": 0.08912,
				"method": "rhf"
			},
			{
				"type": "unocc",
				"energy": 0.09098,
				"method": "rhf"
			}
		],
		"cosmo_sigma_profile": { 
			"-0.025": 0.0,
			"-0.024": 0.0,
			"-0.023": 0.0,
			"-0.022": 0.0,
			"-0.021": 0.0,
			"-0.02": 0.0,
			"-0.019": 0.0,
			"-0.018": 0.0,
			"-0.017": 0.0,
			"-0.016": 0.0,
			"-0.015": 0.0,
			"-0.014": 0.100954734368,
			"-0.013": 0.873664401682,
			"-0.012": 0.969030703072,
			"-0.011": 1.01044082134,
			"-0.01": 1.22644785023,
			"-0.009": 1.94488975883,
			"-0.008": 2.24369616545,
			"-0.007": 3.54437313842,
			"-0.006": 7.21784160636,
			"-0.005": 13.9123210287,
			"-0.004": 22.731775157,
			"-0.003": 26.5466562124,
			"-0.002": 26.7420106278,
			"-0.001": 26.9104368848,
			"0.0": 28.1997922743,
			"0.001": 16.7955347241,
			"0.002": 11.5517400965,
			"0.003": 8.83511756897,
			"0.004": 10.9505357561,
			"0.005": 7.05584546538,
			"0.006": 3.58736897829,
			"0.007": 1.71840081001,
			"0.008": 2.86537105458,
			"0.009": 2.27521004084,
			"0.01": 0.840079495945,
			"0.011": 2.89260912613,
			"0.012": 2.56753103078,
			"0.013": 2.84655585202,
			"0.014": 7.3376761776,
			"0.015": 1.79095570553,
			"0.016": 0.53794755836,
			"0.017": 0.173000774208,
			"0.018": 0.0,
			"0.019": 0.0,
			"0.02": 0.0,
			"0.021": 0.0,
			"0.022": 0.0,
			"0.023": 0.0,
			"0.024": 0.0,
			"0.025": 0.0
		}
	}
}
