{
	 "smiles": "CC1=CC(Cl)=NC(Cl)=C1C#N", 
	 "Tm": 385.15, 
	 "num_atms": 15, 
	 "gaussian": { 
		 "optdone": 1, 
		 "sigma_profile": "yes", 
		 "theory": "DFT", 
		 "functional": "B3LYP", 
		 "basiset": "6-31G**", 
		 "properties": { 
			 "R2extent": 3640.2628, 
			 "electric_dipole_moment_norm": 4.05294865869, 
			 "electric_quadrupole_moment_norm": 8.65982968886, 
			 "total_energy": -1299.02639975, 
			 "HOMO_LUMO_gap": 0.19311, 
			 "cosmo_polarized_energy": -10.07, 
			 "cosmo_cavitation_energy": 24.41, 
			 "cosmo_dispersion_energy": -17.61, 
			 "cosmo_repulsion_energy": 1.43, 
			 "cosmo_total_nonelectrostatic_energy": 8.23, 
			 "SMD_solvation_energy": 3.5 
		},
		"coords": [
			{
				"x": -0.3057472312,
				"y": -1.2428088081,
				"z": -0.9159026657,
				"element": "C" 
			},
			{
				"x": -0.5099705005,
				"y": 0.2428921903,
				"z": -0.7952436985,
				"element": "C" 
			},
			{
				"x": -0.1414164423,
				"y": 1.1141621938,
				"z": -1.8188241051,
				"element": "C" 
			},
			{
				"x": -0.3594480328,
				"y": 2.4809953723,
				"z": -1.6402205915,
				"element": "C" 
			},
			{
				"x": 0.0988206753,
				"y": 3.5851544914,
				"z": -2.9174643419,
				"element": "Cl" 
			},
			{
				"x": -0.8972135999,
				"y": 3.0188926689,
				"z": -0.557044978,
				"element": "N" 
			},
			{
				"x": -1.2501752369,
				"y": 2.2019729985,
				"z": 0.4192129677,
				"element": "C" 
			},
			{
				"x": -1.956100625,
				"y": 2.9394237694,
				"z": 1.833995874,
				"element": "Cl" 
			},
			{
				"x": -1.0865965089,
				"y": 0.8040580367,
				"z": 0.3697029179,
				"element": "C" 
			},
			{
				"x": -1.4831103606,
				"y": -0.042211515,
				"z": 1.4502041149,
				"element": "C" 
			},
			{
				"x": -1.7882762311,
				"y": -0.7745426432,
				"z": 2.3009242632,
				"element": "N" 
			},
			{
				"x": 0.339680045,
				"y": -1.613032767,
				"z": -0.11251921,
				"element": "H" 
			},
			{
				"x": -1.2585936611,
				"y": -1.774804246,
				"z": -0.8257352506,
				"element": "H" 
			},
			{
				"x": 0.1481449537,
				"y": -1.500622161,
				"z": -1.8745657866,
				"element": "H" 
			},
			{
				"x": 0.3044027564,
				"y": 0.743670419,
				"z": -2.7338195099,
				"element": "H" 
			}
		],
		 "valence_orbital": [ 
			{
				"type": "occ",
				"energy": -0.33738,
				"method": "rhf"
			},
			{
				"type": "occ",
				"energy": -0.33368,
				"method": "rhf"
			},
			{
				"type": "occ",
				"energy": -0.31078,
				"method": "rhf"
			},
			{
				"type": "occ",
				"energy": -0.3105,
				"method": "rhf"
			},
			{
				"type": "occ",
				"energy": -0.27634,
				"method": "rhf"
			},
			{
				"type": "unocc",
				"energy": -0.08323,
				"method": "rhf"
			},
			{
				"type": "unocc",
				"energy": -0.06063,
				"method": "rhf"
			},
			{
				"type": "unocc",
				"energy": -0.00209,
				"method": "rhf"
			},
			{
				"type": "unocc",
				"energy": 0.01674,
				"method": "rhf"
			},
			{
				"type": "unocc",
				"energy": 0.02954,
				"method": "rhf"
			}
		],
		"cosmo_sigma_profile": { 
			"-0.025": 0.0,
			"-0.024": 0.0,
			"-0.023": 0.0,
			"-0.022": 0.0,
			"-0.021": 0.0,
			"-0.02": 0.0,
			"-0.019": 0.0,
			"-0.018": 0.0,
			"-0.017": 0.0,
			"-0.016": 0.0,
			"-0.015": 0.0,
			"-0.014": 0.0,
			"-0.013": 0.0,
			"-0.012": 0.0,
			"-0.011": 0.0,
			"-0.01": 0.427898881219,
			"-0.009": 2.49986839258,
			"-0.008": 2.66644896644,
			"-0.007": 5.77202743495,
			"-0.006": 8.99287324485,
			"-0.005": 10.223358999,
			"-0.004": 19.4098427046,
			"-0.003": 22.8415277793,
			"-0.002": 20.0819780079,
			"-0.001": 11.9024428088,
			"0.0": 10.4424812293,
			"0.001": 10.1855896201,
			"0.002": 17.477807602,
			"0.003": 19.1833444661,
			"0.004": 8.18508037966,
			"0.005": 5.9526148221,
			"0.006": 4.04146779322,
			"0.007": 4.68687640194,
			"0.008": 4.46685482149,
			"0.009": 3.91355855733,
			"0.01": 3.55498759767,
			"0.011": 3.33663620937,
			"0.012": 1.78217584115,
			"0.013": 0.103507768935,
			"0.014": 0.0,
			"0.015": 0.0,
			"0.016": 0.0,
			"0.017": 0.0,
			"0.018": 0.0,
			"0.019": 0.0,
			"0.02": 0.0,
			"0.021": 0.0,
			"0.022": 0.0,
			"0.023": 0.0,
			"0.024": 0.0,
			"0.025": 0.0
		}
	}
}
