{
	 "smiles": "[O-][N+](=O)C1=CC=C(C=C1)C1NN2C(S1)=NN=C2C1=CN=CC=C1", 
	 "Tm": 519.15, 
	 "num_atms": 33, 
	 "gaussian": { 
		 "optdone": 1, 
		 "sigma_profile": "yes", 
		 "theory": "DFT", 
		 "functional": "B3LYP", 
		 "basiset": "6-31G**", 
		 "properties": { 
			 "R2extent": 11112.3445, 
			 "electric_dipole_moment_norm": 1.32717580976, 
			 "electric_quadrupole_moment_norm": 38.419065499, 
			 "total_energy": -1416.48010783, 
			 "HOMO_LUMO_gap": 0.12209, 
			 "cosmo_polarized_energy": -25.61, 
			 "cosmo_cavitation_energy": 40.81, 
			 "cosmo_dispersion_energy": -29.89, 
			 "cosmo_repulsion_energy": 2.17, 
			 "cosmo_total_nonelectrostatic_energy": 13.09, 
			 "SMD_solvation_energy": 4.62 
		},
		"coords": [
			{
				"x": 5.4215256353,
				"y": 0.6977581166,
				"z": 4.3982116689,
				"element": "O" 
			},
			{
				"x": 5.1255192976,
				"y": -0.3749231015,
				"z": 3.8761950162,
				"element": "N" 
			},
			{
				"x": 5.8403075274,
				"y": -1.3746307622,
				"z": 3.8593676738,
				"element": "O" 
			},
			{
				"x": 3.808528897,
				"y": -0.4694528674,
				"z": 3.2167896859,
				"element": "C" 
			},
			{
				"x": 3.4439570254,
				"y": -1.6688989653,
				"z": 2.6117504909,
				"element": "C" 
			},
			{
				"x": 2.1994305865,
				"y": -1.7491791581,
				"z": 1.9923577297,
				"element": "C" 
			},
			{
				"x": 1.3343960712,
				"y": -0.6466205514,
				"z": 1.9805963239,
				"element": "C" 
			},
			{
				"x": 1.7283167648,
				"y": 0.5467917459,
				"z": 2.6051143215,
				"element": "C" 
			},
			{
				"x": 2.9706250522,
				"y": 0.6432658877,
				"z": 3.2251308168,
				"element": "C" 
			},
			{
				"x": 0.0155113229,
				"y": -0.7561464934,
				"z": 1.2607368151,
				"element": "C" 
			},
			{
				"x": 0.0127405657,
				"y": -0.0066178438,
				"z": -0.0011465311,
				"element": "N" 
			},
			{
				"x": -1.3482826367,
				"y": 0.1965101321,
				"z": -0.3009884838,
				"element": "N" 
			},
			{
				"x": -2.2467742261,
				"y": 0.2082044339,
				"z": 0.7363158738,
				"element": "C" 
			},
			{
				"x": -1.4743915189,
				"y": -0.1247486611,
				"z": 2.2834739469,
				"element": "S" 
			},
			{
				"x": -3.4569603965,
				"y": 0.4448019774,
				"z": 0.3050912942,
				"element": "N" 
			},
			{
				"x": -3.3490078423,
				"y": 0.6132520896,
				"z": -1.0673950737,
				"element": "N" 
			},
			{
				"x": -2.0888932792,
				"y": 0.4524813382,
				"z": -1.435699038,
				"element": "C" 
			},
			{
				"x": -1.6030353801,
				"y": 0.5383760696,
				"z": -2.8126294989,
				"element": "C" 
			},
			{
				"x": -0.2802389236,
				"y": 0.2456794289,
				"z": -3.1825352006,
				"element": "C" 
			},
			{
				"x": 0.1721843064,
				"y": 0.318045943,
				"z": -4.4388529243,
				"element": "N" 
			},
			{
				"x": -0.6933433719,
				"y": 0.6892096266,
				"z": -5.389034599,
				"element": "C" 
			},
			{
				"x": -2.0326518541,
				"y": 0.9976172989,
				"z": -5.1327454334,
				"element": "C" 
			},
			{
				"x": -2.4964572099,
				"y": 0.9225216861,
				"z": -3.82629161,
				"element": "C" 
			},
			{
				"x": 4.1275462834,
				"y": -2.5081610495,
				"z": 2.6333389254,
				"element": "H" 
			},
			{
				"x": 1.8999267029,
				"y": -2.6750250053,
				"z": 1.5107593235,
				"element": "H" 
			},
			{
				"x": 1.0519049779,
				"y": 1.3957117583,
				"z": 2.6268338641,
				"element": "H" 
			},
			{
				"x": 3.2949558855,
				"y": 1.5520681383,
				"z": 3.7161238421,
				"element": "H" 
			},
			{
				"x": -0.2178255224,
				"y": -1.7971103068,
				"z": 1.0290600537,
				"element": "H" 
			},
			{
				"x": 0.4380380994,
				"y": 0.9125581742,
				"z": 0.1473088693,
				"element": "H" 
			},
			{
				"x": 0.4407763153,
				"y": -0.0682863825,
				"z": -2.4320497435,
				"element": "H" 
			},
			{
				"x": -0.2996827682,
				"y": 0.7420989503,
				"z": -6.4024545407,
				"element": "H" 
			},
			{
				"x": -2.6929578281,
				"y": 1.2910952849,
				"z": -5.9426185139,
				"element": "H" 
			},
			{
				"x": -3.5251885589,
				"y": 1.149553068,
				"z": -3.5680153447,
				"element": "H" 
			}
		],
		 "valence_orbital": [ 
			{
				"type": "occ",
				"energy": -0.29022,
				"method": "rhf"
			},
			{
				"type": "occ",
				"energy": -0.27655,
				"method": "rhf"
			},
			{
				"type": "occ",
				"energy": -0.27044,
				"method": "rhf"
			},
			{
				"type": "occ",
				"energy": -0.26003,
				"method": "rhf"
			},
			{
				"type": "occ",
				"energy": -0.23351,
				"method": "rhf"
			},
			{
				"type": "unocc",
				"energy": -0.11142,
				"method": "rhf"
			},
			{
				"type": "unocc",
				"energy": -0.05909,
				"method": "rhf"
			},
			{
				"type": "unocc",
				"energy": -0.05153,
				"method": "rhf"
			},
			{
				"type": "unocc",
				"energy": -0.04006,
				"method": "rhf"
			},
			{
				"type": "unocc",
				"energy": -0.03038,
				"method": "rhf"
			}
		],
		"cosmo_sigma_profile": { 
			"-0.025": 0.0,
			"-0.024": 0.0,
			"-0.023": 0.0,
			"-0.022": 0.0,
			"-0.021": 0.0,
			"-0.02": 0.0,
			"-0.019": 0.0,
			"-0.018": 0.0,
			"-0.017": 0.0,
			"-0.016": 0.102545856526,
			"-0.015": 1.39408799407,
			"-0.014": 1.4033559819,
			"-0.013": 2.10353379826,
			"-0.012": 1.57428642602,
			"-0.011": 1.47400959834,
			"-0.01": 3.59109885433,
			"-0.009": 6.09640901747,
			"-0.008": 9.18347964405,
			"-0.007": 16.7581244443,
			"-0.006": 16.2924500861,
			"-0.005": 16.5520752575,
			"-0.004": 16.7841336788,
			"-0.003": 18.9567937212,
			"-0.002": 22.2004617243,
			"-0.001": 25.7418766175,
			"0.0": 33.9758905809,
			"0.001": 29.0259044191,
			"0.002": 18.3848657762,
			"0.003": 10.0851349453,
			"0.004": 9.66245928562,
			"0.005": 9.82220522191,
			"0.006": 8.11632055219,
			"0.007": 12.0255510283,
			"0.008": 9.13410249508,
			"0.009": 7.33304884053,
			"0.01": 4.48844240288,
			"0.011": 3.16188646592,
			"0.012": 4.53469080128,
			"0.013": 4.0964507964,
			"0.014": 3.67716963918,
			"0.015": 2.80040162337,
			"0.016": 1.26067388158,
			"0.017": 0.0848717156415,
			"0.018": 0.0,
			"0.019": 0.0,
			"0.02": 0.0,
			"0.021": 0.0,
			"0.022": 0.0,
			"0.023": 0.0,
			"0.024": 0.0,
			"0.025": 0.0
		}
	}
}
