{
	 "smiles": "COC(=O)CCl", 
	 "Tm": 241.15, 
	 "num_atms": 11, 
	 "gaussian": { 
		 "optdone": 1, 
		 "sigma_profile": "yes", 
		 "theory": "DFT", 
		 "functional": "B3LYP", 
		 "basiset": "6-31G**", 
		 "properties": { 
			 "R2extent": 1122.353, 
			 "electric_dipole_moment_norm": 1.50360569964, 
			 "electric_quadrupole_moment_norm": 7.54018811569, 
			 "total_energy": -727.973161157, 
			 "HOMO_LUMO_gap": 0.2632, 
			 "cosmo_polarized_energy": -7.84, 
			 "cosmo_cavitation_energy": 17.0, 
			 "cosmo_dispersion_energy": -12.74, 
			 "cosmo_repulsion_energy": 1.14, 
			 "cosmo_total_nonelectrostatic_energy": 5.4, 
			 "SMD_solvation_energy": 4.62 
		},
		"coords": [
			{
				"x": 2.0414968535,
				"y": 0.4454528312,
				"z": 0.3339178619,
				"element": "C" 
			},
			{
				"x": 0.9273567841,
				"y": -0.4256095621,
				"z": 0.6040685407,
				"element": "O" 
			},
			{
				"x": 0.1627922632,
				"y": -0.0699090924,
				"z": 1.6424733248,
				"element": "C" 
			},
			{
				"x": 0.3616631617,
				"y": 0.8906879558,
				"z": 2.3535209184,
				"element": "O" 
			},
			{
				"x": -0.9742133007,
				"y": -1.0440376137,
				"z": 1.9143477784,
				"element": "C" 
			},
			{
				"x": -1.7327533038,
				"y": -1.768680607,
				"z": 0.4492579885,
				"element": "Cl" 
			},
			{
				"x": 1.6909947546,
				"y": 1.4589897706,
				"z": 0.1259767316,
				"element": "H" 
			},
			{
				"x": 2.5364014154,
				"y": 0.0225100417,
				"z": -0.5393570343,
				"element": "H" 
			},
			{
				"x": 2.7213540077,
				"y": 0.4726197141,
				"z": 1.1888621486,
				"element": "H" 
			},
			{
				"x": -0.5943323191,
				"y": -1.8688419504,
				"z": 2.5225909216,
				"element": "H" 
			},
			{
				"x": -1.7442603166,
				"y": -0.5133814877,
				"z": 2.4712408196,
				"element": "H" 
			}
		],
		 "valence_orbital": [ 
			{
				"type": "occ",
				"energy": -0.36987,
				"method": "rhf"
			},
			{
				"type": "occ",
				"energy": -0.32246,
				"method": "rhf"
			},
			{
				"type": "occ",
				"energy": -0.31375,
				"method": "rhf"
			},
			{
				"type": "occ",
				"energy": -0.30388,
				"method": "rhf"
			},
			{
				"type": "occ",
				"energy": -0.28045,
				"method": "rhf"
			},
			{
				"type": "unocc",
				"energy": -0.01725,
				"method": "rhf"
			},
			{
				"type": "unocc",
				"energy": 0.03303,
				"method": "rhf"
			},
			{
				"type": "unocc",
				"energy": 0.09416,
				"method": "rhf"
			},
			{
				"type": "unocc",
				"energy": 0.10948,
				"method": "rhf"
			},
			{
				"type": "unocc",
				"energy": 0.12577,
				"method": "rhf"
			}
		],
		"cosmo_sigma_profile": { 
			"-0.025": 0.0,
			"-0.024": 0.0,
			"-0.023": 0.0,
			"-0.022": 0.0,
			"-0.021": 0.0,
			"-0.02": 0.0,
			"-0.019": 0.0,
			"-0.018": 0.0,
			"-0.017": 0.0,
			"-0.016": 0.0,
			"-0.015": 0.0,
			"-0.014": 0.0,
			"-0.013": 0.0,
			"-0.012": 0.0,
			"-0.011": 0.0313214032582,
			"-0.01": 2.04840442991,
			"-0.009": 3.71608266769,
			"-0.008": 3.72233658472,
			"-0.007": 5.63015514991,
			"-0.006": 10.3672660533,
			"-0.005": 11.1457090953,
			"-0.004": 12.0986077437,
			"-0.003": 9.44534173242,
			"-0.002": 6.30159616087,
			"-0.001": 5.90139548065,
			"0.0": 6.28391987911,
			"0.001": 6.09135107004,
			"0.002": 4.13801821793,
			"0.003": 5.85312179752,
			"0.004": 6.86117667603,
			"0.005": 10.7509494273,
			"0.006": 7.52265317916,
			"0.007": 3.21865535017,
			"0.008": 3.58317291492,
			"0.009": 2.9487797228,
			"0.01": 2.92693893027,
			"0.011": 4.83462230226,
			"0.012": 1.55611794474,
			"0.013": 0.0,
			"0.014": 0.0,
			"0.015": 0.0,
			"0.016": 0.0,
			"0.017": 0.0,
			"0.018": 0.0,
			"0.019": 0.0,
			"0.02": 0.0,
			"0.021": 0.0,
			"0.022": 0.0,
			"0.023": 0.0,
			"0.024": 0.0,
			"0.025": 0.0
		}
	}
}
