{
	 "smiles": "CC1=C2C=CC=CC2=NC1C1=CC=CC=C1", 
	 "Tm": 364.35, 
	 "num_atms": 29, 
	 "gaussian": { 
		 "optdone": 1, 
		 "sigma_profile": "yes", 
		 "theory": "DFT", 
		 "functional": "B3LYP", 
		 "basiset": "6-31G**", 
		 "properties": { 
			 "R2extent": 5057.5806, 
			 "electric_dipole_moment_norm": 2.5490703423, 
			 "electric_quadrupole_moment_norm": 12.8170774937, 
			 "total_energy": -634.150746745, 
			 "HOMO_LUMO_gap": 0.12685, 
			 "cosmo_polarized_energy": -10.39, 
			 "cosmo_cavitation_energy": 32.31, 
			 "cosmo_dispersion_energy": -22.97, 
			 "cosmo_repulsion_energy": 1.77, 
			 "cosmo_total_nonelectrostatic_energy": 11.11, 
			 "SMD_solvation_energy": 2.18 
		},
		"coords": [
			{
				"x": 1.0937859973,
				"y": -0.730862718,
				"z": -0.6352642615,
				"element": "C" 
			},
			{
				"x": -0.3571214618,
				"y": -1.0584667291,
				"z": -0.5270612021,
				"element": "C" 
			},
			{
				"x": -1.4235311394,
				"y": -0.4820607188,
				"z": -1.1516997039,
				"element": "C" 
			},
			{
				"x": -1.5562661995,
				"y": 0.600744528,
				"z": -2.0914922791,
				"element": "C" 
			},
			{
				"x": -2.8005129868,
				"y": 0.9335103366,
				"z": -2.530085308,
				"element": "C" 
			},
			{
				"x": -3.9832848881,
				"y": 0.2227299902,
				"z": -2.0766058379,
				"element": "C" 
			},
			{
				"x": -3.9205360773,
				"y": -0.8082599604,
				"z": -1.1922307727,
				"element": "C" 
			},
			{
				"x": -2.6254432945,
				"y": -1.2050554184,
				"z": -0.6842872946,
				"element": "C" 
			},
			{
				"x": -2.3808408183,
				"y": -2.1615479356,
				"z": 0.1673017667,
				"element": "N" 
			},
			{
				"x": -0.9281174386,
				"y": -2.1800164055,
				"z": 0.3329470783,
				"element": "C" 
			},
			{
				"x": -0.4835302001,
				"y": -2.1302001368,
				"z": 1.7897827762,
				"element": "C" 
			},
			{
				"x": -1.2002400329,
				"y": -1.3777980083,
				"z": 2.7286786966,
				"element": "C" 
			},
			{
				"x": -0.7629184056,
				"y": -1.2968764019,
				"z": 4.0504160192,
				"element": "C" 
			},
			{
				"x": 0.3954196479,
				"y": -1.9662419248,
				"z": 4.4530664762,
				"element": "C" 
			},
			{
				"x": 1.1119403892,
				"y": -2.7218977973,
				"z": 3.5247128296,
				"element": "C" 
			},
			{
				"x": 0.6724736487,
				"y": -2.8038925581,
				"z": 2.201564811,
				"element": "C" 
			},
			{
				"x": 1.6570696007,
				"y": -1.5566386438,
				"z": -1.0896449135,
				"element": "H" 
			},
			{
				"x": 1.2633861096,
				"y": 0.1612748811,
				"z": -1.2440728556,
				"element": "H" 
			},
			{
				"x": 1.5318499662,
				"y": -0.5622770825,
				"z": 0.355692854,
				"element": "H" 
			},
			{
				"x": -0.678064032,
				"y": 1.1376793573,
				"z": -2.4395050698,
				"element": "H" 
			},
			{
				"x": -2.9301857481,
				"y": 1.746747495,
				"z": -3.2382357415,
				"element": "H" 
			},
			{
				"x": -4.9466005135,
				"y": 0.5384102627,
				"z": -2.4686173452,
				"element": "H" 
			},
			{
				"x": -4.8052603327,
				"y": -1.3386775683,
				"z": -0.8555740295,
				"element": "H" 
			},
			{
				"x": -0.5738043483,
				"y": -3.1348202235,
				"z": -0.0917607314,
				"element": "H" 
			},
			{
				"x": -2.1103877562,
				"y": -0.8750508825,
				"z": 2.4188960584,
				"element": "H" 
			},
			{
				"x": -1.3312348067,
				"y": -0.7135037642,
				"z": 4.7696093695,
				"element": "H" 
			},
			{
				"x": 0.7316795994,
				"y": -1.9053570117,
				"z": 5.4841782918,
				"element": "H" 
			},
			{
				"x": 2.0077000519,
				"y": -3.2559293686,
				"z": 3.8293982109,
				"element": "H" 
			},
			{
				"x": 1.2280754697,
				"y": -3.406165593,
				"z": 1.4864921079,
				"element": "H" 
			}
		],
		 "valence_orbital": [ 
			{
				"type": "occ",
				"energy": -0.27711,
				"method": "rhf"
			},
			{
				"type": "occ",
				"energy": -0.25408,
				"method": "rhf"
			},
			{
				"type": "occ",
				"energy": -0.24617,
				"method": "rhf"
			},
			{
				"type": "occ",
				"energy": -0.24166,
				"method": "rhf"
			},
			{
				"type": "occ",
				"energy": -0.20072,
				"method": "rhf"
			},
			{
				"type": "unocc",
				"energy": -0.07387,
				"method": "rhf"
			},
			{
				"type": "unocc",
				"energy": -1e-05,
				"method": "rhf"
			},
			{
				"type": "unocc",
				"energy": 0.00144,
				"method": "rhf"
			},
			{
				"type": "unocc",
				"energy": 0.03018,
				"method": "rhf"
			},
			{
				"type": "unocc",
				"energy": 0.03693,
				"method": "rhf"
			}
		],
		"cosmo_sigma_profile": { 
			"-0.025": 0.0,
			"-0.024": 0.0,
			"-0.023": 0.0,
			"-0.022": 0.0,
			"-0.021": 0.0,
			"-0.02": 0.0,
			"-0.019": 0.0,
			"-0.018": 0.0,
			"-0.017": 0.0,
			"-0.016": 0.0,
			"-0.015": 0.0,
			"-0.014": 0.0,
			"-0.013": 0.0,
			"-0.012": 0.0,
			"-0.011": 0.0,
			"-0.01": 0.0,
			"-0.009": 0.0,
			"-0.008": 0.00844627012163,
			"-0.007": 3.73568291667,
			"-0.006": 14.7611199925,
			"-0.005": 24.1590373176,
			"-0.004": 24.88171376,
			"-0.003": 22.241520402,
			"-0.002": 19.1265401063,
			"-0.001": 22.4023534571,
			"0.0": 18.378268166,
			"0.001": 15.4137089049,
			"0.002": 19.8754002084,
			"0.003": 20.7690890856,
			"0.004": 18.4766707724,
			"0.005": 12.0503236011,
			"0.006": 8.81789730326,
			"0.007": 1.67006602922,
			"0.008": 1.56167388296,
			"0.009": 1.3500989742,
			"0.01": 1.0964499698,
			"0.011": 0.954559713822,
			"0.012": 1.10332928321,
			"0.013": 0.829435251143,
			"0.014": 0.950901384533,
			"0.015": 0.764229835783,
			"0.016": 1.01445766774,
			"0.017": 0.724030104078,
			"0.018": 0.867844182125,
			"0.019": 0.288697951487,
			"0.02": 0.0,
			"0.021": 0.0,
			"0.022": 0.0,
			"0.023": 0.0,
			"0.024": 0.0,
			"0.025": 0.0
		}
	}
}
