{
	 "smiles": "NC1=C(C=C(Br)C=C1)S(=O)(=O)N1CCOCC1", 
	 "Tm": 416.15, 
	 "num_atms": 30, 
	 "gaussian": { 
		 "optdone": 1, 
		 "sigma_profile": "yes", 
		 "theory": "DFT", 
		 "functional": "B3LYP", 
		 "basiset": "6-31G**", 
		 "properties": { 
			 "R2extent": 6646.1623, 
			 "electric_dipole_moment_norm": 4.14781021384, 
			 "electric_quadrupole_moment_norm": 21.9324571535, 
			 "total_energy": -3693.574668, 
			 "HOMO_LUMO_gap": 0.17793, 
			 "cosmo_polarized_energy": -16.42, 
			 "cosmo_cavitation_energy": 35.09, 
			 "cosmo_dispersion_energy": -26.15, 
			 "cosmo_repulsion_energy": 2.0, 
			 "cosmo_total_nonelectrostatic_energy": 10.94, 
			 "SMD_solvation_energy": 2.86 
		},
		"coords": [
			{
				"x": -0.2693285743,
				"y": 1.0736136473,
				"z": 2.8513712527,
				"element": "N" 
			},
			{
				"x": 0.384112155,
				"y": -0.0206619689,
				"z": 2.3139709743,
				"element": "C" 
			},
			{
				"x": 0.1758654742,
				"y": -0.4707823924,
				"z": 0.9851308167,
				"element": "C" 
			},
			{
				"x": 0.8666253405,
				"y": -1.5789360745,
				"z": 0.478189413,
				"element": "C" 
			},
			{
				"x": 1.7985042692,
				"y": -2.2368798137,
				"z": 1.2686280713,
				"element": "C" 
			},
			{
				"x": 2.7427438454,
				"y": -3.7446250686,
				"z": 0.5752370499,
				"element": "Br" 
			},
			{
				"x": 2.0408140632,
				"y": -1.8028535305,
				"z": 2.5735151283,
				"element": "C" 
			},
			{
				"x": 1.3390494328,
				"y": -0.7193744437,
				"z": 3.082046481,
				"element": "C" 
			},
			{
				"x": -0.9529319619,
				"y": 0.3548218097,
				"z": -0.1509180721,
				"element": "S" 
			},
			{
				"x": -1.3055143586,
				"y": -0.6146135943,
				"z": -1.1880664165,
				"element": "O" 
			},
			{
				"x": -1.9840092221,
				"y": 1.0239187868,
				"z": 0.6590221117,
				"element": "O" 
			},
			{
				"x": -0.1074396303,
				"y": 1.5680485446,
				"z": -0.9282382714,
				"element": "N" 
			},
			{
				"x": 0.2068266792,
				"y": 2.8271320926,
				"z": -0.2151089832,
				"element": "C" 
			},
			{
				"x": 1.7003595265,
				"y": 3.1255845351,
				"z": -0.3112717661,
				"element": "C" 
			},
			{
				"x": 2.1581487611,
				"y": 3.2279519173,
				"z": -1.6570840196,
				"element": "O" 
			},
			{
				"x": 1.4385417477,
				"y": 2.430275525,
				"z": -2.5932902143,
				"element": "C" 
			},
			{
				"x": 0.8526485324,
				"y": 1.1653686617,
				"z": -1.9740256502,
				"element": "C" 
			},
			{
				"x": -1.1759803632,
				"y": 1.2764888106,
				"z": 2.4427889949,
				"element": "H" 
			},
			{
				"x": -0.2354989277,
				"y": 1.1411413752,
				"z": 3.8585255374,
				"element": "H" 
			},
			{
				"x": 0.6451937954,
				"y": -1.9235151997,
				"z": -0.524357191,
				"element": "H" 
			},
			{
				"x": 2.7657986285,
				"y": -2.318820343,
				"z": 3.1930143999,
				"element": "H" 
			},
			{
				"x": 1.5203815615,
				"y": -0.3990521516,
				"z": 4.1047565121,
				"element": "H" 
			},
			{
				"x": -0.3715774655,
				"y": 3.6428613955,
				"z": -0.6646467205,
				"element": "H" 
			},
			{
				"x": -0.0869145446,
				"y": 2.7518083775,
				"z": 0.8329696565,
				"element": "H" 
			},
			{
				"x": 1.9173509065,
				"y": 4.0844255695,
				"z": 0.1711623776,
				"element": "H" 
			},
			{
				"x": 2.2640438814,
				"y": 2.3465647717,
				"z": 0.2245745536,
				"element": "H" 
			},
			{
				"x": 2.1423172733,
				"y": 2.155367117,
				"z": -3.3853471429,
				"element": "H" 
			},
			{
				"x": 0.6275557043,
				"y": 3.0167827844,
				"z": -3.0507817855,
				"element": "H" 
			},
			{
				"x": 0.3260053654,
				"y": 0.5826125413,
				"z": -2.7323957342,
				"element": "H" 
			},
			{
				"x": 1.6656081048,
				"y": 0.5465463185,
				"z": -1.5650713634,
				"element": "H" 
			}
		],
		 "valence_orbital": [ 
			{
				"type": "occ",
				"energy": -0.29141,
				"method": "rhf"
			},
			{
				"type": "occ",
				"energy": -0.28394,
				"method": "rhf"
			},
			{
				"type": "occ",
				"energy": -0.26347,
				"method": "rhf"
			},
			{
				"type": "occ",
				"energy": -0.25415,
				"method": "rhf"
			},
			{
				"type": "occ",
				"energy": -0.22166,
				"method": "rhf"
			},
			{
				"type": "unocc",
				"energy": -0.04373,
				"method": "rhf"
			},
			{
				"type": "unocc",
				"energy": -0.0166,
				"method": "rhf"
			},
			{
				"type": "unocc",
				"energy": -0.00064,
				"method": "rhf"
			},
			{
				"type": "unocc",
				"energy": 0.06164,
				"method": "rhf"
			},
			{
				"type": "unocc",
				"energy": 0.06715,
				"method": "rhf"
			}
		],
		"cosmo_sigma_profile": { 
			"-0.025": 0.0,
			"-0.024": 0.0,
			"-0.023": 0.0,
			"-0.022": 0.0,
			"-0.021": 0.0,
			"-0.02": 0.0,
			"-0.019": 0.0,
			"-0.018": 0.0,
			"-0.017": 0.0,
			"-0.016": 0.0,
			"-0.015": 0.0,
			"-0.014": 0.698311736913,
			"-0.013": 1.5114658829,
			"-0.012": 1.47423408371,
			"-0.011": 1.54443028761,
			"-0.01": 2.52169497233,
			"-0.009": 2.38327463378,
			"-0.008": 3.17644866651,
			"-0.007": 5.5186499875,
			"-0.006": 13.9831031266,
			"-0.005": 24.8553610949,
			"-0.004": 27.8092399377,
			"-0.003": 22.9739404444,
			"-0.002": 17.4693049601,
			"-0.001": 15.2303002832,
			"0.0": 13.8876355501,
			"0.001": 16.9241215707,
			"0.002": 23.4395608977,
			"0.003": 16.776356981,
			"0.004": 15.6696001779,
			"0.005": 12.9557364296,
			"0.006": 5.66037599745,
			"0.007": 5.51274364029,
			"0.008": 5.30190098141,
			"0.009": 4.74674291022,
			"0.01": 6.80799469398,
			"0.011": 7.53501190011,
			"0.012": 3.0757311931,
			"0.013": 1.69076950645,
			"0.014": 0.208537809861,
			"0.015": 0.0,
			"0.016": 0.0,
			"0.017": 0.0,
			"0.018": 0.0,
			"0.019": 0.0,
			"0.02": 0.0,
			"0.021": 0.0,
			"0.022": 0.0,
			"0.023": 0.0,
			"0.024": 0.0,
			"0.025": 0.0
		}
	}
}
