{
	 "smiles": "CCOC1=CC2=C(C=C1OCC)C(C)=NCC2", 
	 "Tm": 342.65, 
	 "num_atms": 36, 
	 "gaussian": { 
		 "optdone": 1, 
		 "sigma_profile": "yes", 
		 "theory": "DFT", 
		 "functional": "B3LYP", 
		 "basiset": "6-31G**", 
		 "properties": { 
			 "R2extent": 5705.4994, 
			 "electric_dipole_moment_norm": 3.67039962266, 
			 "electric_quadrupole_moment_norm": 14.2818671395, 
			 "total_energy": -750.128919643, 
			 "HOMO_LUMO_gap": 0.17973, 
			 "cosmo_polarized_energy": -10.73, 
			 "cosmo_cavitation_energy": 37.54, 
			 "cosmo_dispersion_energy": -26.76, 
			 "cosmo_repulsion_energy": 2.14, 
			 "cosmo_total_nonelectrostatic_energy": 12.93, 
			 "SMD_solvation_energy": 3.69 
		},
		"coords": [
			{
				"x": -0.940071587,
				"y": -2.2625562796,
				"z": -2.5395518573,
				"element": "C" 
			},
			{
				"x": -1.1898237542,
				"y": -2.5323385866,
				"z": -1.0597186136,
				"element": "C" 
			},
			{
				"x": -0.4075885869,
				"y": -1.6877681312,
				"z": -0.208838871,
				"element": "O" 
			},
			{
				"x": -0.7921963692,
				"y": -0.3995066778,
				"z": 0.0165076555,
				"element": "C" 
			},
			{
				"x": -1.981339438,
				"y": 0.1807683075,
				"z": -0.4418823331,
				"element": "C" 
			},
			{
				"x": -2.2925843826,
				"y": 1.5095448473,
				"z": -0.1478513063,
				"element": "C" 
			},
			{
				"x": -1.4046565724,
				"y": 2.2915345859,
				"z": 0.6111967717,
				"element": "C" 
			},
			{
				"x": -0.2136323184,
				"y": 1.7055033353,
				"z": 1.0687123202,
				"element": "C" 
			},
			{
				"x": 0.1004681644,
				"y": 0.381918745,
				"z": 0.78688961,
				"element": "C" 
			},
			{
				"x": 1.3061670918,
				"y": -0.1243635598,
				"z": 1.2086522252,
				"element": "O" 
			},
			{
				"x": 1.2461329026,
				"y": -1.0882743996,
				"z": 2.2738093683,
				"element": "C" 
			},
			{
				"x": 2.6697203773,
				"y": -1.5102909947,
				"z": 2.5893947859,
				"element": "C" 
			},
			{
				"x": -1.7697450309,
				"y": 3.7039815328,
				"z": 0.894181069,
				"element": "C" 
			},
			{
				"x": -0.6995037932,
				"y": 4.6502080533,
				"z": 1.3864838945,
				"element": "C" 
			},
			{
				"x": -2.9587916613,
				"y": 4.1720768481,
				"z": 0.7589578195,
				"element": "N" 
			},
			{
				"x": -4.0097358064,
				"y": 3.2466486559,
				"z": 0.3310175913,
				"element": "C" 
			},
			{
				"x": -3.539173373,
				"y": 2.1847168505,
				"z": -0.6673478,
				"element": "C" 
			},
			{
				"x": -1.5040336032,
				"y": -2.9762085626,
				"z": -3.1495261079,
				"element": "H" 
			},
			{
				"x": -1.2455518918,
				"y": -1.2524670847,
				"z": -2.8246509739,
				"element": "H" 
			},
			{
				"x": 0.1229629729,
				"y": -2.375466547,
				"z": -2.7697611886,
				"element": "H" 
			},
			{
				"x": -0.869843575,
				"y": -3.5450335889,
				"z": -0.7994770824,
				"element": "H" 
			},
			{
				"x": -2.2540005225,
				"y": -2.449888065,
				"z": -0.8055889162,
				"element": "H" 
			},
			{
				"x": -2.6770490747,
				"y": -0.3956025331,
				"z": -1.0417303328,
				"element": "H" 
			},
			{
				"x": 0.5043092088,
				"y": 2.2699649478,
				"z": 1.6538026668,
				"element": "H" 
			},
			{
				"x": 0.7680351755,
				"y": -0.6286685639,
				"z": 3.1510947549,
				"element": "H" 
			},
			{
				"x": 0.6406932685,
				"y": -1.9476322155,
				"z": 1.964858817,
				"element": "H" 
			},
			{
				"x": 2.6760632646,
				"y": -2.2387675479,
				"z": 3.4065029537,
				"element": "H" 
			},
			{
				"x": 3.2720496893,
				"y": -0.6474324074,
				"z": 2.8882370008,
				"element": "H" 
			},
			{
				"x": 3.1365479861,
				"y": -1.9677321833,
				"z": 1.7123840419,
				"element": "H" 
			},
			{
				"x": 0.156707779,
				"y": 4.6769444661,
				"z": 0.7029513952,
				"element": "H" 
			},
			{
				"x": -1.1249325047,
				"y": 5.6503086859,
				"z": 1.4766272829,
				"element": "H" 
			},
			{
				"x": -0.3190316228,
				"y": 4.3424543079,
				"z": 2.3680531249,
				"element": "H" 
			},
			{
				"x": -4.4148141889,
				"y": 2.7572531917,
				"z": 1.2309968807,
				"element": "H" 
			},
			{
				"x": -4.8276130268,
				"y": 3.8356433262,
				"z": -0.0970197914,
				"element": "H" 
			},
			{
				"x": -3.31518833,
				"y": 2.6710796866,
				"z": -1.6288973686,
				"element": "H" 
			},
			{
				"x": -4.3341568671,
				"y": 1.4557475547,
				"z": -0.8606694871,
				"element": "H" 
			}
		],
		 "valence_orbital": [ 
			{
				"type": "occ",
				"energy": -0.27317,
				"method": "rhf"
			},
			{
				"type": "occ",
				"energy": -0.26813,
				"method": "rhf"
			},
			{
				"type": "occ",
				"energy": -0.24101,
				"method": "rhf"
			},
			{
				"type": "occ",
				"energy": -0.22793,
				"method": "rhf"
			},
			{
				"type": "occ",
				"energy": -0.20681,
				"method": "rhf"
			},
			{
				"type": "unocc",
				"energy": -0.02708,
				"method": "rhf"
			},
			{
				"type": "unocc",
				"energy": 0.00019,
				"method": "rhf"
			},
			{
				"type": "unocc",
				"energy": 0.05798,
				"method": "rhf"
			},
			{
				"type": "unocc",
				"energy": 0.08459,
				"method": "rhf"
			},
			{
				"type": "unocc",
				"energy": 0.09364,
				"method": "rhf"
			}
		],
		"cosmo_sigma_profile": { 
			"-0.025": 0.0,
			"-0.024": 0.0,
			"-0.023": 0.0,
			"-0.022": 0.0,
			"-0.021": 0.0,
			"-0.02": 0.0,
			"-0.019": 0.0,
			"-0.018": 0.0,
			"-0.017": 0.0,
			"-0.016": 0.0,
			"-0.015": 0.0,
			"-0.014": 0.0,
			"-0.013": 0.0,
			"-0.012": 0.0,
			"-0.011": 0.0,
			"-0.01": 0.0,
			"-0.009": 0.0,
			"-0.008": 0.0460360113102,
			"-0.007": 1.55708892063,
			"-0.006": 5.16800667786,
			"-0.005": 12.8392500886,
			"-0.004": 28.5637625838,
			"-0.003": 40.8232956026,
			"-0.002": 38.5883511544,
			"-0.001": 35.079038781,
			"0.0": 34.5935303337,
			"0.001": 21.6971562846,
			"0.002": 13.9708861505,
			"0.003": 12.5674816097,
			"0.004": 14.0231978033,
			"0.005": 7.41979067892,
			"0.006": 4.55517837985,
			"0.007": 2.70971075608,
			"0.008": 3.17923004447,
			"0.009": 2.99900245405,
			"0.01": 3.12175103524,
			"0.011": 3.26251385216,
			"0.012": 3.16487278149,
			"0.013": 0.652582153091,
			"0.014": 1.20973428876,
			"0.015": 0.631399517665,
			"0.016": 0.492222133347,
			"0.017": 1.27848580892,
			"0.018": 0.334999804965,
			"0.019": 0.0,
			"0.02": 0.0,
			"0.021": 0.0,
			"0.022": 0.0,
			"0.023": 0.0,
			"0.024": 0.0,
			"0.025": 0.0
		}
	}
}
