{
	 "smiles": "CCOC(=O)C1=CC=C(NC(=O)CCl)C=C1", 
	 "Tm": 312.15, 
	 "num_atms": 28, 
	 "gaussian": { 
		 "optdone": 1, 
		 "sigma_profile": "yes", 
		 "theory": "DFT", 
		 "functional": "B3LYP", 
		 "basiset": "6-31G**", 
		 "properties": { 
			 "R2extent": 7751.5171, 
			 "electric_dipole_moment_norm": 4.1155935137, 
			 "electric_quadrupole_moment_norm": 22.027041102, 
			 "total_energy": -1167.0470104, 
			 "HOMO_LUMO_gap": 0.18532, 
			 "cosmo_polarized_energy": -18.27, 
			 "cosmo_cavitation_energy": 34.62, 
			 "cosmo_dispersion_energy": -25.1, 
			 "cosmo_repulsion_energy": 1.99, 
			 "cosmo_total_nonelectrostatic_energy": 11.51, 
			 "SMD_solvation_energy": 7.37 
		},
		"coords": [
			{
				"x": 2.05739436,
				"y": 4.2635937857,
				"z": -1.6936663959,
				"element": "C" 
			},
			{
				"x": 1.2051429995,
				"y": 3.2661952606,
				"z": -2.4636341376,
				"element": "C" 
			},
			{
				"x": 0.9554316909,
				"y": 2.0726069946,
				"z": -1.682230872,
				"element": "O" 
			},
			{
				"x": 1.902117166,
				"y": 1.1085282824,
				"z": -1.7341776272,
				"element": "C" 
			},
			{
				"x": 2.9215381325,
				"y": 1.1954552701,
				"z": -2.3930384503,
				"element": "O" 
			},
			{
				"x": 1.5519566341,
				"y": -0.0721824722,
				"z": -0.8970916707,
				"element": "C" 
			},
			{
				"x": 2.4517643595,
				"y": -1.1469699511,
				"z": -0.8626933253,
				"element": "C" 
			},
			{
				"x": 2.1812241198,
				"y": -2.2679423922,
				"z": -0.0914777378,
				"element": "C" 
			},
			{
				"x": 0.9954073914,
				"y": -2.3463263904,
				"z": 0.6604672176,
				"element": "C" 
			},
			{
				"x": 0.7564518543,
				"y": -3.5227419434,
				"z": 1.3997580159,
				"element": "N" 
			},
			{
				"x": 0.2003613891,
				"y": -3.7552112654,
				"z": 2.6497932486,
				"element": "C" 
			},
			{
				"x": 0.1441073993,
				"y": -4.8879510357,
				"z": 3.0870966252,
				"element": "O" 
			},
			{
				"x": -0.3129733148,
				"y": -2.5335757171,
				"z": 3.4178968504,
				"element": "C" 
			},
			{
				"x": -0.3580664281,
				"y": -2.8326749411,
				"z": 5.1842686979,
				"element": "Cl" 
			},
			{
				"x": 0.0789231776,
				"y": -1.2845803812,
				"z": 0.600743229,
				"element": "C" 
			},
			{
				"x": 0.3650425523,
				"y": -0.1536842753,
				"z": -0.1590869347,
				"element": "C" 
			},
			{
				"x": 1.593615525,
				"y": 4.5159296965,
				"z": -0.7355238316,
				"element": "H" 
			},
			{
				"x": 2.1662850404,
				"y": 5.1846707723,
				"z": -2.2758615923,
				"element": "H" 
			},
			{
				"x": 3.0538897782,
				"y": 3.855184954,
				"z": -1.5093366393,
				"element": "H" 
			},
			{
				"x": 0.2097271653,
				"y": 3.6653996002,
				"z": -2.6723053192,
				"element": "H" 
			},
			{
				"x": 1.685779644,
				"y": 2.9774670677,
				"z": -3.4011416725,
				"element": "H" 
			},
			{
				"x": 3.3661156451,
				"y": -1.076949667,
				"z": -1.4418774445,
				"element": "H" 
			},
			{
				"x": 2.892383452,
				"y": -3.088334239,
				"z": -0.0517874074,
				"element": "H" 
			},
			{
				"x": 1.165017335,
				"y": -4.3736960232,
				"z": 1.0305746881,
				"element": "H" 
			},
			{
				"x": -1.33556674,
				"y": -2.3071346947,
				"z": 3.107153699,
				"element": "H" 
			},
			{
				"x": 0.3080402808,
				"y": -1.6551660817,
				"z": 3.2416306943,
				"element": "H" 
			},
			{
				"x": -0.8720039543,
				"y": -1.3520866541,
				"z": 1.1155870616,
				"element": "H" 
			},
			{
				"x": -0.345906655,
				"y": 0.663276441,
				"z": -0.1993389691,
				"element": "H" 
			}
		],
		 "valence_orbital": [ 
			{
				"type": "occ",
				"energy": -0.3017,
				"method": "rhf"
			},
			{
				"type": "occ",
				"energy": -0.28051,
				"method": "rhf"
			},
			{
				"type": "occ",
				"energy": -0.27742,
				"method": "rhf"
			},
			{
				"type": "occ",
				"energy": -0.2762,
				"method": "rhf"
			},
			{
				"type": "occ",
				"energy": -0.24531,
				"method": "rhf"
			},
			{
				"type": "unocc",
				"energy": -0.05999,
				"method": "rhf"
			},
			{
				"type": "unocc",
				"energy": -0.02839,
				"method": "rhf"
			},
			{
				"type": "unocc",
				"energy": -0.00466,
				"method": "rhf"
			},
			{
				"type": "unocc",
				"energy": 0.02669,
				"method": "rhf"
			},
			{
				"type": "unocc",
				"energy": 0.04856,
				"method": "rhf"
			}
		],
		"cosmo_sigma_profile": { 
			"-0.025": 0.0,
			"-0.024": 0.0,
			"-0.023": 0.0,
			"-0.022": 0.0,
			"-0.021": 0.0,
			"-0.02": 0.0,
			"-0.019": 0.0,
			"-0.018": 0.0,
			"-0.017": 0.0,
			"-0.016": 0.0,
			"-0.015": 0.872342017264,
			"-0.014": 1.14936106852,
			"-0.013": 1.66911728249,
			"-0.012": 1.22451103647,
			"-0.011": 2.97506431651,
			"-0.01": 3.59621070057,
			"-0.009": 4.53475025978,
			"-0.008": 5.70727698378,
			"-0.007": 7.91069167641,
			"-0.006": 12.4503093993,
			"-0.005": 12.6701351624,
			"-0.004": 18.6620207751,
			"-0.003": 18.779421531,
			"-0.002": 21.1307274276,
			"-0.001": 21.274983439,
			"0.0": 22.7243146147,
			"0.001": 20.5161043981,
			"0.002": 17.9874788526,
			"0.003": 18.4671257262,
			"0.004": 9.54098635894,
			"0.005": 11.6279187734,
			"0.006": 9.32350115687,
			"0.007": 2.80669439209,
			"0.008": 4.15366886044,
			"0.009": 3.3098592774,
			"0.01": 4.05002707433,
			"0.011": 4.99082994392,
			"0.012": 9.61124836013,
			"0.013": 3.14543784729,
			"0.014": 0.688402305405,
			"0.015": 0.0,
			"0.016": 0.0,
			"0.017": 0.0,
			"0.018": 0.0,
			"0.019": 0.0,
			"0.02": 0.0,
			"0.021": 0.0,
			"0.022": 0.0,
			"0.023": 0.0,
			"0.024": 0.0,
			"0.025": 0.0
		}
	}
}
