{
	 "smiles": "CC(C)C(=O)N(C)CC(O)=O", 
	 "Tm": 383.15, 
	 "num_atms": 24, 
	 "gaussian": { 
		 "optdone": 1, 
		 "sigma_profile": "yes", 
		 "theory": "DFT", 
		 "functional": "B3LYP", 
		 "basiset": "6-31G**", 
		 "properties": { 
			 "R2extent": 1901.5352, 
			 "electric_dipole_moment_norm": 5.43709049217, 
			 "electric_quadrupole_moment_norm": 13.76605817, 
			 "total_energy": -555.016221575, 
			 "HOMO_LUMO_gap": 0.23536, 
			 "cosmo_polarized_energy": -22.05, 
			 "cosmo_cavitation_energy": 26.27, 
			 "cosmo_dispersion_energy": -18.47, 
			 "cosmo_repulsion_energy": 1.5, 
			 "cosmo_total_nonelectrostatic_energy": 9.31, 
			 "SMD_solvation_energy": 6.21 
		},
		"coords": [
			{
				"x": 1.0385951702,
				"y": 0.825409631,
				"z": 2.0686360164,
				"element": "C" 
			},
			{
				"x": 1.0709757117,
				"y": -0.6295471918,
				"z": 1.5608442489,
				"element": "C" 
			},
			{
				"x": 2.4246942828,
				"y": -1.0171407615,
				"z": 0.9345355436,
				"element": "C" 
			},
			{
				"x": -0.1364828328,
				"y": -1.0776979678,
				"z": 0.7098455014,
				"element": "C" 
			},
			{
				"x": -0.817677519,
				"y": -2.0141885919,
				"z": 1.1126262467,
				"element": "O" 
			},
			{
				"x": -0.4207901556,
				"y": -0.4804981426,
				"z": -0.5089631815,
				"element": "N" 
			},
			{
				"x": -1.6157914769,
				"y": -0.9177044521,
				"z": -1.230563095,
				"element": "C" 
			},
			{
				"x": 0.2118264396,
				"y": 0.7019566141,
				"z": -1.028866133,
				"element": "C" 
			},
			{
				"x": -0.5375428875,
				"y": 2.0062737078,
				"z": -0.7020643602,
				"element": "C" 
			},
			{
				"x": -0.0168083241,
				"y": 3.117114096,
				"z": -1.2878888185,
				"element": "O" 
			},
			{
				"x": -1.4991639467,
				"y": 2.0817899275,
				"z": 0.0152466438,
				"element": "O" 
			},
			{
				"x": 0.0350377499,
				"y": 1.1168381555,
				"z": 2.389572554,
				"element": "H" 
			},
			{
				"x": 1.7093990011,
				"y": 0.9198070111,
				"z": 2.9289515253,
				"element": "H" 
			},
			{
				"x": 1.3764002857,
				"y": 1.5554682435,
				"z": 1.3267560286,
				"element": "H" 
			},
			{
				"x": 0.9395538232,
				"y": -1.2692213202,
				"z": 2.4380221557,
				"element": "H" 
			},
			{
				"x": 2.4293114034,
				"y": -2.0685205262,
				"z": 0.6316790076,
				"element": "H" 
			},
			{
				"x": 2.6835983134,
				"y": -0.4156534839,
				"z": 0.0562434694,
				"element": "H" 
			},
			{
				"x": 3.225309816,
				"y": -0.8755035291,
				"z": 1.6682462201,
				"element": "H" 
			},
			{
				"x": -2.4096831046,
				"y": -0.166872164,
				"z": -1.1568083055,
				"element": "H" 
			},
			{
				"x": -1.371450045,
				"y": -1.0826394897,
				"z": -2.2866472155,
				"element": "H" 
			},
			{
				"x": -1.9585296357,
				"y": -1.8476230302,
				"z": -0.7821524814,
				"element": "H" 
			},
			{
				"x": 0.2876891912,
				"y": 0.6163252783,
				"z": -2.1232912835,
				"element": "H" 
			},
			{
				"x": 1.2342523154,
				"y": 0.7968709194,
				"z": -0.6588529726,
				"element": "H" 
			},
			{
				"x": 0.7444764243,
				"y": 2.8894570667,
				"z": -1.8417073148,
				"element": "H" 
			}
		],
		 "valence_orbital": [ 
			{
				"type": "occ",
				"energy": -0.33627,
				"method": "rhf"
			},
			{
				"type": "occ",
				"energy": -0.3299,
				"method": "rhf"
			},
			{
				"type": "occ",
				"energy": -0.29108,
				"method": "rhf"
			},
			{
				"type": "occ",
				"energy": -0.24638,
				"method": "rhf"
			},
			{
				"type": "occ",
				"energy": -0.24081,
				"method": "rhf"
			},
			{
				"type": "unocc",
				"energy": -0.00545,
				"method": "rhf"
			},
			{
				"type": "unocc",
				"energy": 0.02306,
				"method": "rhf"
			},
			{
				"type": "unocc",
				"energy": 0.03673,
				"method": "rhf"
			},
			{
				"type": "unocc",
				"energy": 0.07232,
				"method": "rhf"
			},
			{
				"type": "unocc",
				"energy": 0.09746,
				"method": "rhf"
			}
		],
		"cosmo_sigma_profile": { 
			"-0.025": 0.0,
			"-0.024": 0.0,
			"-0.023": 0.0,
			"-0.022": 0.0,
			"-0.021": 0.0,
			"-0.02": 0.432521311924,
			"-0.019": 1.07795566053,
			"-0.018": 1.42343196853,
			"-0.017": 1.15518910029,
			"-0.016": 1.47517888842,
			"-0.015": 1.28475399139,
			"-0.014": 1.28737561845,
			"-0.013": 0.93422725612,
			"-0.012": 1.50305982041,
			"-0.011": 1.82206887958,
			"-0.01": 2.35976651292,
			"-0.009": 2.85336727333,
			"-0.008": 3.32050783502,
			"-0.007": 5.01577127667,
			"-0.006": 4.64112867047,
			"-0.005": 5.80975846343,
			"-0.004": 12.34078745,
			"-0.003": 21.3034377015,
			"-0.002": 21.4580235436,
			"-0.001": 20.2865049748,
			"0.0": 18.7409106876,
			"0.001": 9.99992006618,
			"0.002": 5.62883450997,
			"0.003": 4.98503844539,
			"0.004": 5.17559812108,
			"0.005": 4.38245482275,
			"0.006": 4.34305090989,
			"0.007": 4.4066036526,
			"0.008": 4.57416353693,
			"0.009": 4.92987297969,
			"0.01": 5.87528989437,
			"0.011": 6.50724530008,
			"0.012": 4.87479913632,
			"0.013": 3.88238538198,
			"0.014": 4.11836958017,
			"0.015": 0.900921552613,
			"0.016": 0.0,
			"0.017": 0.0,
			"0.018": 0.0,
			"0.019": 0.0,
			"0.02": 0.0,
			"0.021": 0.0,
			"0.022": 0.0,
			"0.023": 0.0,
			"0.024": 0.0,
			"0.025": 0.0
		}
	}
}
