{
	 "smiles": "CC(CCC1=C(C2=CC=C(C)O2)C2=C(O1)C=CC=C2)=NO", 
	 "Tm": 377.15, 
	 "num_atms": 38, 
	 "gaussian": { 
		 "optdone": 1, 
		 "sigma_profile": "yes", 
		 "theory": "DFT", 
		 "functional": "B3LYP", 
		 "basiset": "6-31G**", 
		 "properties": { 
			 "R2extent": 7095.4906, 
			 "electric_dipole_moment_norm": 1.51228559803, 
			 "electric_quadrupole_moment_norm": 8.27690316544, 
			 "total_energy": -938.413238557, 
			 "HOMO_LUMO_gap": 0.16789, 
			 "cosmo_polarized_energy": -12.75, 
			 "cosmo_cavitation_energy": 41.96, 
			 "cosmo_dispersion_energy": -28.6, 
			 "cosmo_repulsion_energy": 2.22, 
			 "cosmo_total_nonelectrostatic_energy": 15.59, 
			 "SMD_solvation_energy": 7.53 
		},
		"coords": [
			{
				"x": 1.4376374231,
				"y": -0.4206218684,
				"z": 3.8077171985,
				"element": "C" 
			},
			{
				"x": 0.8728034704,
				"y": -1.4687878647,
				"z": 2.8851346201,
				"element": "C" 
			},
			{
				"x": 1.7208764756,
				"y": -1.98725707,
				"z": 1.7452815783,
				"element": "C" 
			},
			{
				"x": 2.2599241152,
				"y": -0.892189488,
				"z": 0.7856136117,
				"element": "C" 
			},
			{
				"x": 1.2122276,
				"y": -0.128680746,
				"z": 0.0518901344,
				"element": "C" 
			},
			{
				"x": 0.6723937177,
				"y": -0.2516290322,
				"z": -1.2033541402,
				"element": "C" 
			},
			{
				"x": 0.9896913478,
				"y": -1.2580462504,
				"z": -2.1956204148,
				"element": "C" 
			},
			{
				"x": 1.5164761904,
				"y": -2.5232008361,
				"z": -2.148498986,
				"element": "C" 
			},
			{
				"x": 1.586498,
				"y": -2.990775306,
				"z": -3.4989869236,
				"element": "C" 
			},
			{
				"x": 1.0914386032,
				"y": -1.9944782331,
				"z": -4.2883702644,
				"element": "C" 
			},
			{
				"x": 0.8809400098,
				"y": -1.8490414027,
				"z": -5.754068583,
				"element": "C" 
			},
			{
				"x": 0.724717767,
				"y": -0.9320812666,
				"z": -3.5061974892,
				"element": "O" 
			},
			{
				"x": -0.286161914,
				"y": 0.8344630155,
				"z": -1.3341380037,
				"element": "C" 
			},
			{
				"x": -0.2474119516,
				"y": 1.520040041,
				"z": -0.1090008265,
				"element": "C" 
			},
			{
				"x": 0.6619015814,
				"y": 0.9362114474,
				"z": 0.7326358319,
				"element": "O" 
			},
			{
				"x": -1.0292153431,
				"y": 2.6307074962,
				"z": 0.1819941062,
				"element": "C" 
			},
			{
				"x": -1.8921333858,
				"y": 3.0627215822,
				"z": -0.8247937556,
				"element": "C" 
			},
			{
				"x": -1.9554072008,
				"y": 2.3979991923,
				"z": -2.0633335381,
				"element": "C" 
			},
			{
				"x": -1.1615323522,
				"y": 1.2858710104,
				"z": -2.3331772027,
				"element": "C" 
			},
			{
				"x": -0.3116139042,
				"y": -1.8733368443,
				"z": 3.1671161532,
				"element": "N" 
			},
			{
				"x": -0.7836563636,
				"y": -2.8576553422,
				"z": 2.2730742169,
				"element": "O" 
			},
			{
				"x": 2.4088693484,
				"y": -0.734930483,
				"z": 4.209563331,
				"element": "H" 
			},
			{
				"x": 1.5883445166,
				"y": 0.5254718538,
				"z": 3.2769043791,
				"element": "H" 
			},
			{
				"x": 0.7502817864,
				"y": -0.2468183033,
				"z": 4.6376186586,
				"element": "H" 
			},
			{
				"x": 1.1497127182,
				"y": -2.7253827411,
				"z": 1.1812001984,
				"element": "H" 
			},
			{
				"x": 2.5893739938,
				"y": -2.5030350143,
				"z": 2.1786439688,
				"element": "H" 
			},
			{
				"x": 2.8809672432,
				"y": -0.1813536087,
				"z": 1.3425076648,
				"element": "H" 
			},
			{
				"x": 2.9092947095,
				"y": -1.3731318619,
				"z": 0.0468809195,
				"element": "H" 
			},
			{
				"x": 1.7869432996,
				"y": -3.0714365549,
				"z": -1.2584652172,
				"element": "H" 
			},
			{
				"x": 1.9487906479,
				"y": -3.9507994017,
				"z": -3.8384712249,
				"element": "H" 
			},
			{
				"x": 1.2135186032,
				"y": -2.7540022082,
				"z": -6.2677463228,
				"element": "H" 
			},
			{
				"x": 1.4421448979,
				"y": -0.9987864779,
				"z": -6.1590586798,
				"element": "H" 
			},
			{
				"x": -0.1765967655,
				"y": -1.6880459962,
				"z": -5.9947769671,
				"element": "H" 
			},
			{
				"x": -0.9665124572,
				"y": 3.1274113065,
				"z": 1.1440968239,
				"element": "H" 
			},
			{
				"x": -2.525102823,
				"y": 3.9272634161,
				"z": -0.648647027,
				"element": "H" 
			},
			{
				"x": -2.6390221676,
				"y": 2.7619938765,
				"z": -2.8247861086,
				"element": "H" 
			},
			{
				"x": -1.2101708587,
				"y": 0.7808089642,
				"z": -3.2908251661,
				"element": "H" 
			},
			{
				"x": -1.674730579,
				"y": -3.0151590001,
				"z": 2.6100434456,
				"element": "H" 
			}
		],
		 "valence_orbital": [ 
			{
				"type": "occ",
				"energy": -0.26185,
				"method": "rhf"
			},
			{
				"type": "occ",
				"energy": -0.24076,
				"method": "rhf"
			},
			{
				"type": "occ",
				"energy": -0.23679,
				"method": "rhf"
			},
			{
				"type": "occ",
				"energy": -0.22803,
				"method": "rhf"
			},
			{
				"type": "occ",
				"energy": -0.18982,
				"method": "rhf"
			},
			{
				"type": "unocc",
				"energy": -0.02193,
				"method": "rhf"
			},
			{
				"type": "unocc",
				"energy": 0.00738,
				"method": "rhf"
			},
			{
				"type": "unocc",
				"energy": 0.01287,
				"method": "rhf"
			},
			{
				"type": "unocc",
				"energy": 0.02009,
				"method": "rhf"
			},
			{
				"type": "unocc",
				"energy": 0.05935,
				"method": "rhf"
			}
		],
		"cosmo_sigma_profile": { 
			"-0.025": 0.0,
			"-0.024": 0.0,
			"-0.023": 0.0,
			"-0.022": 0.0,
			"-0.021": 0.0,
			"-0.02": 0.0,
			"-0.019": 0.0,
			"-0.018": 0.0,
			"-0.017": 0.473053982514,
			"-0.016": 0.950879728507,
			"-0.015": 0.836015430193,
			"-0.014": 0.889607032827,
			"-0.013": 0.565651500525,
			"-0.012": 0.779024004393,
			"-0.011": 0.224053340754,
			"-0.01": 0.732789249105,
			"-0.009": 0.951807561313,
			"-0.008": 1.07773337985,
			"-0.007": 2.28649172563,
			"-0.006": 11.2898985533,
			"-0.005": 25.5862043528,
			"-0.004": 32.9440449973,
			"-0.003": 29.264467738,
			"-0.002": 26.4865494057,
			"-0.001": 26.8734667589,
			"0.0": 22.4818210054,
			"0.001": 19.8922064879,
			"0.002": 23.6405926495,
			"0.003": 27.0113027281,
			"0.004": 24.9677953276,
			"0.005": 21.9658816788,
			"0.006": 13.2871175027,
			"0.007": 4.88660934316,
			"0.008": 3.9074744573,
			"0.009": 3.40347303242,
			"0.01": 2.24399740849,
			"0.011": 1.45185448665,
			"0.012": 0.772195256784,
			"0.013": 0.995942637986,
			"0.014": 0.50944827256,
			"0.015": 0.0445785720651,
			"0.016": 0.0,
			"0.017": 0.0,
			"0.018": 0.0,
			"0.019": 0.0,
			"0.02": 0.0,
			"0.021": 0.0,
			"0.022": 0.0,
			"0.023": 0.0,
			"0.024": 0.0,
			"0.025": 0.0
		}
	}
}
