{
	 "smiles": "CN(C1=CC=C(OCC(O)=O)C=C1)S(=O)(=O)C1=CC=C(C)C=C1", 
	 "Tm": 426.15, 
	 "num_atms": 40, 
	 "gaussian": { 
		 "optdone": 1, 
		 "sigma_profile": "yes", 
		 "theory": "DFT", 
		 "functional": "B3LYP", 
		 "basiset": "6-31G**", 
		 "properties": { 
			 "R2extent": 9179.0766, 
			 "electric_dipole_moment_norm": 2.32418414718, 
			 "electric_quadrupole_moment_norm": 33.5097924292, 
			 "total_energy": -1448.93206612, 
			 "HOMO_LUMO_gap": 0.20606, 
			 "cosmo_polarized_energy": -22.36, 
			 "cosmo_cavitation_energy": 45.68, 
			 "cosmo_dispersion_energy": -30.71, 
			 "cosmo_repulsion_energy": 2.35, 
			 "cosmo_total_nonelectrostatic_energy": 17.32, 
			 "SMD_solvation_energy": 8.4 
		},
		"coords": [
			{
				"x": -1.0434100416,
				"y": 1.786308381,
				"z": -3.0823637148,
				"element": "C" 
			},
			{
				"x": -0.2675441983,
				"y": 1.4795845797,
				"z": -1.8652948039,
				"element": "N" 
			},
			{
				"x": -0.1758257327,
				"y": 0.0833752154,
				"z": -1.518459161,
				"element": "C" 
			},
			{
				"x": 0.5416239551,
				"y": -0.837134857,
				"z": -2.2987518608,
				"element": "C" 
			},
			{
				"x": 0.5722760197,
				"y": -2.1798928878,
				"z": -1.944343096,
				"element": "C" 
			},
			{
				"x": -0.1116205594,
				"y": -2.6180354445,
				"z": -0.8036661943,
				"element": "C" 
			},
			{
				"x": -0.001193052,
				"y": -3.969746695,
				"z": -0.5325662636,
				"element": "O" 
			},
			{
				"x": -0.8537234635,
				"y": -4.5332428437,
				"z": 0.4591333678,
				"element": "C" 
			},
			{
				"x": -0.3012846076,
				"y": -4.3689138361,
				"z": 1.8803249322,
				"element": "C" 
			},
			{
				"x": 1.020039825,
				"y": -4.1194458856,
				"z": 1.9413798824,
				"element": "O" 
			},
			{
				"x": -0.9896543744,
				"y": -4.4982111269,
				"z": 2.861062898,
				"element": "O" 
			},
			{
				"x": -0.8239509762,
				"y": -1.7120909639,
				"z": -0.0134395523,
				"element": "C" 
			},
			{
				"x": -0.8491430626,
				"y": -0.3644079129,
				"z": -0.3813632066,
				"element": "C" 
			},
			{
				"x": 1.1746449171,
				"y": 2.391954998,
				"z": -1.6855340436,
				"element": "S" 
			},
			{
				"x": 0.8419040171,
				"y": 3.7377121826,
				"z": -2.1653286793,
				"element": "O" 
			},
			{
				"x": 2.3349008031,
				"y": 1.6786313832,
				"z": -2.240303247,
				"element": "O" 
			},
			{
				"x": 1.3561128225,
				"y": 2.4269026482,
				"z": 0.0941425591,
				"element": "C" 
			},
			{
				"x": 0.5192796795,
				"y": 3.2526614049,
				"z": 0.8500689246,
				"element": "C" 
			},
			{
				"x": 0.678283834,
				"y": 3.2914054633,
				"z": 2.2315101344,
				"element": "C" 
			},
			{
				"x": 1.6652656236,
				"y": 2.5232577706,
				"z": 2.8715603896,
				"element": "C" 
			},
			{
				"x": 1.8436171344,
				"y": 2.5971563571,
				"z": 4.3686720367,
				"element": "C" 
			},
			{
				"x": 2.493306399,
				"y": 1.711072082,
				"z": 2.086469617,
				"element": "C" 
			},
			{
				"x": 2.3489139488,
				"y": 1.6589769347,
				"z": 0.6997905932,
				"element": "C" 
			},
			{
				"x": -0.6085817534,
				"y": 1.3503668305,
				"z": -3.991310563,
				"element": "H" 
			},
			{
				"x": -2.0478725315,
				"y": 1.3796664486,
				"z": -2.9419793265,
				"element": "H" 
			},
			{
				"x": -1.1057327618,
				"y": 2.8680087906,
				"z": -3.1985033281,
				"element": "H" 
			},
			{
				"x": 1.0869611677,
				"y": -0.4919353092,
				"z": -3.1698964019,
				"element": "H" 
			},
			{
				"x": 1.1191621544,
				"y": -2.9057330192,
				"z": -2.5370744968,
				"element": "H" 
			},
			{
				"x": -0.9019302026,
				"y": -5.6041816331,
				"z": 0.2378061916,
				"element": "H" 
			},
			{
				"x": -1.8683253266,
				"y": -4.1290347949,
				"z": 0.4162292374,
				"element": "H" 
			},
			{
				"x": 1.3546313415,
				"y": -4.0421813443,
				"z": 1.0305394739,
				"element": "H" 
			},
			{
				"x": -1.3428310469,
				"y": -2.0256036447,
				"z": 0.8850777131,
				"element": "H" 
			},
			{
				"x": -1.3920412449,
				"y": 0.354481125,
				"z": 0.2230646231,
				"element": "H" 
			},
			{
				"x": -0.2355466543,
				"y": 3.856854016,
				"z": 0.35839433,
				"element": "H" 
			},
			{
				"x": 0.0299982048,
				"y": 3.9304354407,
				"z": 2.8254264407,
				"element": "H" 
			},
			{
				"x": 2.378471257,
				"y": 1.7242437888,
				"z": 4.75229959,
				"element": "H" 
			},
			{
				"x": 2.4200250191,
				"y": 3.4871010134,
				"z": 4.6500050981,
				"element": "H" 
			},
			{
				"x": 0.8799378899,
				"y": 2.6604297028,
				"z": 4.8833869828,
				"element": "H" 
			},
			{
				"x": 3.2626499933,
				"y": 1.110930925,
				"z": 2.5646673225,
				"element": "H" 
			},
			{
				"x": 2.9945055837,
				"y": 1.0383747166,
				"z": 0.0886656014,
				"element": "H" 
			}
		],
		 "valence_orbital": [ 
			{
				"type": "occ",
				"energy": -0.27216,
				"method": "rhf"
			},
			{
				"type": "occ",
				"energy": -0.27007,
				"method": "rhf"
			},
			{
				"type": "occ",
				"energy": -0.2678,
				"method": "rhf"
			},
			{
				"type": "occ",
				"energy": -0.24922,
				"method": "rhf"
			},
			{
				"type": "occ",
				"energy": -0.24322,
				"method": "rhf"
			},
			{
				"type": "unocc",
				"energy": -0.03716,
				"method": "rhf"
			},
			{
				"type": "unocc",
				"energy": -0.02419,
				"method": "rhf"
			},
			{
				"type": "unocc",
				"energy": -0.02102,
				"method": "rhf"
			},
			{
				"type": "unocc",
				"energy": -0.01735,
				"method": "rhf"
			},
			{
				"type": "unocc",
				"energy": -0.00214,
				"method": "rhf"
			}
		],
		"cosmo_sigma_profile": { 
			"-0.025": 0.0,
			"-0.024": 0.0,
			"-0.023": 0.0,
			"-0.022": 0.0,
			"-0.021": 0.0,
			"-0.02": 0.0,
			"-0.019": 0.0,
			"-0.018": 0.0,
			"-0.017": 0.0243155094841,
			"-0.016": 0.412467802516,
			"-0.015": 0.304142978241,
			"-0.014": 1.11634307346,
			"-0.013": 0.639500292591,
			"-0.012": 0.682880837018,
			"-0.011": 1.20695075165,
			"-0.01": 3.11909077156,
			"-0.009": 4.23762785586,
			"-0.008": 6.62847226966,
			"-0.007": 10.8503867885,
			"-0.006": 21.9990958969,
			"-0.005": 29.120024355,
			"-0.004": 27.1952047224,
			"-0.003": 26.2797697309,
			"-0.002": 27.3918062585,
			"-0.001": 25.3315043799,
			"0.0": 23.1328103589,
			"0.001": 21.3868102528,
			"0.002": 25.138972214,
			"0.003": 29.5836413422,
			"0.004": 12.4571165928,
			"0.005": 5.44323438661,
			"0.006": 6.68058696443,
			"0.007": 6.09072812863,
			"0.008": 7.49885432549,
			"0.009": 8.15939941702,
			"0.01": 10.6173337391,
			"0.011": 12.6249923115,
			"0.012": 7.61940148635,
			"0.013": 0.634049724957,
			"0.014": 0.0,
			"0.015": 0.0,
			"0.016": 0.0,
			"0.017": 0.0,
			"0.018": 0.0,
			"0.019": 0.0,
			"0.02": 0.0,
			"0.021": 0.0,
			"0.022": 0.0,
			"0.023": 0.0,
			"0.024": 0.0,
			"0.0": 0.0
		}
	}
}
