{
	 "smiles": "CCN(CC)CC1=CC=C(C=C1)C(O)=O", 
	 "Tm": 428.15, 
	 "num_atms": 32, 
	 "gaussian": { 
		 "optdone": 1, 
		 "sigma_profile": "yes", 
		 "theory": "DFT", 
		 "functional": "B3LYP", 
		 "basiset": "6-31G**", 
		 "properties": { 
			 "R2extent": 4943.2164, 
			 "electric_dipole_moment_norm": 3.06008416388, 
			 "electric_quadrupole_moment_norm": 9.99297004649, 
			 "total_energy": -672.740056875, 
			 "HOMO_LUMO_gap": 0.17042, 
			 "cosmo_polarized_energy": -10.06, 
			 "cosmo_cavitation_energy": 34.4, 
			 "cosmo_dispersion_energy": -24.01, 
			 "cosmo_repulsion_energy": 1.9, 
			 "cosmo_total_nonelectrostatic_energy": 12.29, 
			 "SMD_solvation_energy": 6.24 
		},
		"coords": [
			{
				"x": -0.3601091946,
				"y": -1.1204164905,
				"z": -2.2105767784,
				"element": "C" 
			},
			{
				"x": -0.4976533088,
				"y": 0.3604960224,
				"z": -2.5682658966,
				"element": "C" 
			},
			{
				"x": -0.0135181276,
				"y": 1.272660243,
				"z": -1.5273577413,
				"element": "N" 
			},
			{
				"x": 0.2868904768,
				"y": 2.6186626879,
				"z": -2.0295934585,
				"element": "C" 
			},
			{
				"x": -0.8965167908,
				"y": 3.4470601329,
				"z": -2.5598081543,
				"element": "C" 
			},
			{
				"x": -0.8169424672,
				"y": 1.2611547557,
				"z": -0.3055014086,
				"element": "C" 
			},
			{
				"x": -0.3460713575,
				"y": 0.2792684634,
				"z": 0.7592470928,
				"element": "C" 
			},
			{
				"x": -1.2657661119,
				"y": -0.2762534142,
				"z": 1.6587970173,
				"element": "C" 
			},
			{
				"x": -0.8454839472,
				"y": -1.1212323311,
				"z": 2.6830464026,
				"element": "C" 
			},
			{
				"x": 0.5154279819,
				"y": -1.4265606647,
				"z": 2.8219182131,
				"element": "C" 
			},
			{
				"x": 1.4404514174,
				"y": -0.8758161068,
				"z": 1.9233475287,
				"element": "C" 
			},
			{
				"x": 1.0126110833,
				"y": -0.0321329036,
				"z": 0.9042361128,
				"element": "C" 
			},
			{
				"x": 1.0239142058,
				"y": -2.3223750078,
				"z": 3.890056478,
				"element": "C" 
			},
			{
				"x": 0.0427274386,
				"y": -2.7997451673,
				"z": 4.70026168,
				"element": "O" 
			},
			{
				"x": 2.1912032352,
				"y": -2.6210759038,
				"z": 4.0553917099,
				"element": "O" 
			},
			{
				"x": 0.6775594071,
				"y": -1.3692649882,
				"z": -1.9713141727,
				"element": "H" 
			},
			{
				"x": -0.9772572084,
				"y": -1.395379111,
				"z": -1.350768633,
				"element": "H" 
			},
			{
				"x": -0.6797107753,
				"y": -1.7357575443,
				"z": -3.0584466824,
				"element": "H" 
			},
			{
				"x": 0.0919319811,
				"y": 0.5600494035,
				"z": -3.4709550957,
				"element": "H" 
			},
			{
				"x": -1.5528724591,
				"y": 0.5658174611,
				"z": -2.8324048506,
				"element": "H" 
			},
			{
				"x": 0.7793077856,
				"y": 3.1702143676,
				"z": -1.2194692367,
				"element": "H" 
			},
			{
				"x": 1.0348576423,
				"y": 2.5109473665,
				"z": -2.8248377222,
				"element": "H" 
			},
			{
				"x": -1.381917586,
				"y": 2.9621875077,
				"z": -3.4125624929,
				"element": "H" 
			},
			{
				"x": -1.6562245093,
				"y": 3.607750976,
				"z": -1.7871702679,
				"element": "H" 
			},
			{
				"x": -0.5493806871,
				"y": 4.4315123869,
				"z": -2.8918349915,
				"element": "H" 
			},
			{
				"x": -1.8861609864,
				"y": 1.0784365503,
				"z": -0.5126769494,
				"element": "H" 
			},
			{
				"x": -0.7724482524,
				"y": 2.2639291254,
				"z": 0.139608153,
				"element": "H" 
			},
			{
				"x": -2.3237506981,
				"y": -0.0469850118,
				"z": 1.553413874,
				"element": "H" 
			},
			{
				"x": -1.564908743,
				"y": -1.5500160202,
				"z": 3.3715773507,
				"element": "H" 
			},
			{
				"x": 2.4898506658,
				"y": -1.124249957,
				"z": 2.0431780149,
				"element": "H" 
			},
			{
				"x": 1.7189197782,
				"y": 0.3852214251,
				"z": 0.1942604974,
				"element": "H" 
			},
			{
				"x": 0.4941401113,
				"y": -3.364208253,
				"z": 5.3488044074,
				"element": "H" 
			}
		],
		 "valence_orbital": [ 
			{
				"type": "occ",
				"energy": -0.31206,
				"method": "rhf"
			},
			{
				"type": "occ",
				"energy": -0.27039,
				"method": "rhf"
			},
			{
				"type": "occ",
				"energy": -0.2543,
				"method": "rhf"
			},
			{
				"type": "occ",
				"energy": -0.24745,
				"method": "rhf"
			},
			{
				"type": "occ",
				"energy": -0.21217,
				"method": "rhf"
			},
			{
				"type": "unocc",
				"energy": -0.04175,
				"method": "rhf"
			},
			{
				"type": "unocc",
				"energy": -0.00481,
				"method": "rhf"
			},
			{
				"type": "unocc",
				"energy": 0.05894,
				"method": "rhf"
			},
			{
				"type": "unocc",
				"energy": 0.07924,
				"method": "rhf"
			},
			{
				"type": "unocc",
				"energy": 0.0832,
				"method": "rhf"
			}
		],
		"cosmo_sigma_profile": { 
			"-0.025": 0.0,
			"-0.024": 0.0,
			"-0.023": 0.0,
			"-0.022": 0.0,
			"-0.021": 0.0,
			"-0.02": 0.0,
			"-0.019": 0.0257869285747,
			"-0.018": 0.651711546614,
			"-0.017": 0.859057966028,
			"-0.016": 1.04520023853,
			"-0.015": 0.502075508637,
			"-0.014": 0.61466423678,
			"-0.013": 0.170015383867,
			"-0.012": 0.918855210675,
			"-0.011": 0.945695083415,
			"-0.01": 0.825122347856,
			"-0.009": 0.445441606141,
			"-0.008": 0.648525916607,
			"-0.007": 0.765430257293,
			"-0.006": 3.98493579661,
			"-0.005": 9.28135434897,
			"-0.004": 13.9532993353,
			"-0.003": 26.6415377683,
			"-0.002": 34.1046449146,
			"-0.001": 35.9868459633,
			"0.0": 29.3617691676,
			"0.001": 28.7487580058,
			"0.002": 21.0241234495,
			"0.003": 14.5330235676,
			"0.004": 14.2110404713,
			"0.005": 5.40361790944,
			"0.006": 2.56009154422,
			"0.007": 4.3292441676,
			"0.008": 4.10476017381,
			"0.009": 2.03472284825,
			"0.01": 1.97925348288,
			"0.011": 3.26673285226,
			"0.012": 4.92922898019,
			"0.013": 0.473645821337,
			"0.014": 0.0,
			"0.015": 0.0,
			"0.016": 0.0,
			"0.017": 0.0,
			"0.018": 0.0,
			"0.019": 0.0,
			"0.02": 0.0,
			"0.021": 0.0,
			"0.022": 0.0,
			"0.023": 0.0,
			"0.024": 0.0,
			"0.025": 0.0
		}
	}
}
