{
	 "smiles": "NC1=NC(=CN=N1)C1=CC=C(Br)C=C1", 
	 "Tm": 532.15, 
	 "num_atms": 21, 
	 "gaussian": { 
		 "optdone": 1, 
		 "sigma_profile": "yes", 
		 "theory": "DFT", 
		 "functional": "B3LYP", 
		 "basiset": "6-31G**", 
		 "properties": { 
			 "R2extent": 6974.6168, 
			 "electric_dipole_moment_norm": 2.26857427694, 
			 "electric_quadrupole_moment_norm": 19.5277417617, 
			 "total_energy": -3137.56124378, 
			 "HOMO_LUMO_gap": 0.15188, 
			 "cosmo_polarized_energy": -13.4, 
			 "cosmo_cavitation_energy": 28.46, 
			 "cosmo_dispersion_energy": -21.72, 
			 "cosmo_repulsion_energy": 1.7, 
			 "cosmo_total_nonelectrostatic_energy": 8.44, 
			 "SMD_solvation_energy": 0.88 
		},
		"coords": [
			{
				"x": 2.2292377382,
				"y": -1.8107610903,
				"z": -2.5246337181,
				"element": "N" 
			},
			{
				"x": 1.6566013867,
				"y": -1.5663573553,
				"z": -1.3158828791,
				"element": "C" 
			},
			{
				"x": 0.5612587378,
				"y": -0.786070459,
				"z": -1.2919174484,
				"element": "N" 
			},
			{
				"x": 0.0580398921,
				"y": -0.5292138244,
				"z": -0.082359762,
				"element": "C" 
			},
			{
				"x": 0.6978717316,
				"y": -1.0630610878,
				"z": 1.0543557394,
				"element": "C" 
			},
			{
				"x": 1.7671729447,
				"y": -1.8518144025,
				"z": 0.9508913141,
				"element": "N" 
			},
			{
				"x": 2.2637530917,
				"y": -2.1300709069,
				"z": -0.2441391903,
				"element": "N" 
			},
			{
				"x": -1.1518582069,
				"y": 0.3220143815,
				"z": -0.0050773053,
				"element": "C" 
			},
			{
				"x": -1.9342085139,
				"y": 0.396608899,
				"z": 1.1588128983,
				"element": "C" 
			},
			{
				"x": -3.0662567571,
				"y": 1.2064014379,
				"z": 1.2108337858,
				"element": "C" 
			},
			{
				"x": -3.4214702248,
				"y": 1.9525957527,
				"z": 0.0879440577,
				"element": "C" 
			},
			{
				"x": -4.968231312,
				"y": 3.0677155262,
				"z": 0.1535123366,
				"element": "Br" 
			},
			{
				"x": -2.6656327065,
				"y": 1.8933663516,
				"z": -1.0834298167,
				"element": "C" 
			},
			{
				"x": -1.5397514328,
				"y": 1.0773819993,
				"z": -1.1240874619,
				"element": "C" 
			},
			{
				"x": 2.9332279836,
				"y": -2.5304534006,
				"z": -2.5657615554,
				"element": "H" 
			},
			{
				"x": 1.6994683674,
				"y": -1.5926225954,
				"z": -3.3525899283,
				"element": "H" 
			},
			{
				"x": 0.3656060529,
				"y": -0.8582919942,
				"z": 2.0654903296,
				"element": "H" 
			},
			{
				"x": -1.6806385612,
				"y": -0.1947159704,
				"z": 2.0321009006,
				"element": "H" 
			},
			{
				"x": -3.6687739217,
				"y": 1.2536551977,
				"z": 2.1105046779,
				"element": "H" 
			},
			{
				"x": -2.9550728526,
				"y": 2.4787651155,
				"z": -1.9486601669,
				"element": "H" 
			},
			{
				"x": -0.9411434371,
				"y": 1.0151284252,
				"z": -2.0257068078,
				"element": "H" 
			}
		],
		 "valence_orbital": [ 
			{
				"type": "occ",
				"energy": -0.29514,
				"method": "rhf"
			},
			{
				"type": "occ",
				"energy": -0.27495,
				"method": "rhf"
			},
			{
				"type": "occ",
				"energy": -0.25441,
				"method": "rhf"
			},
			{
				"type": "occ",
				"energy": -0.23821,
				"method": "rhf"
			},
			{
				"type": "occ",
				"energy": -0.22911,
				"method": "rhf"
			},
			{
				"type": "unocc",
				"energy": -0.07723,
				"method": "rhf"
			},
			{
				"type": "unocc",
				"energy": -0.03394,
				"method": "rhf"
			},
			{
				"type": "unocc",
				"energy": -0.02,
				"method": "rhf"
			},
			{
				"type": "unocc",
				"energy": -4e-05,
				"method": "rhf"
			},
			{
				"type": "unocc",
				"energy": 0.01308,
				"method": "rhf"
			}
		],
		"cosmo_sigma_profile": { 
			"-0.025": 0.0,
			"-0.024": 0.0,
			"-0.023": 0.0,
			"-0.022": 0.0,
			"-0.021": 0.0,
			"-0.02": 0.0,
			"-0.019": 0.0,
			"-0.018": 0.0,
			"-0.017": 0.0,
			"-0.016": 0.0,
			"-0.015": 0.207477023589,
			"-0.014": 1.63864782811,
			"-0.013": 2.33509121324,
			"-0.012": 2.26882482453,
			"-0.011": 1.74025220772,
			"-0.01": 2.56307481786,
			"-0.009": 3.9514232099,
			"-0.008": 5.18335342589,
			"-0.007": 8.5511398924,
			"-0.006": 9.34045456772,
			"-0.005": 9.43493624944,
			"-0.004": 10.0210272056,
			"-0.003": 11.1001715406,
			"-0.002": 16.5949780584,
			"-0.001": 15.7364732812,
			"0.0": 17.6926111393,
			"0.001": 22.0537451292,
			"0.002": 25.2102081285,
			"0.003": 18.0858152967,
			"0.004": 15.5574428076,
			"0.005": 6.92572789603,
			"0.006": 4.42501800232,
			"0.007": 3.67985355305,
			"0.008": 2.61243107077,
			"0.009": 2.186974364,
			"0.01": 1.48537743335,
			"0.011": 2.89240140643,
			"0.012": 2.10166939571,
			"0.013": 2.7620323496,
			"0.014": 2.53941098936,
			"0.015": 1.49575329134,
			"0.016": 0.318044191585,
			"0.017": 0.0,
			"0.018": 0.0,
			"0.019": 0.0,
			"0.02": 0.0,
			"0.021": 0.0,
			"0.022": 0.0,
			"0.023": 0.0,
			"0.024": 0.0,
			"0.025": 0.0
		}
	}
}
