{
	 "smiles": "OC(=O)C=CC=C", 
	 "Tm": 352.15, 
	 "num_atms": 13, 
	 "gaussian": { 
		 "optdone": 1, 
		 "sigma_profile": "yes", 
		 "theory": "DFT", 
		 "functional": "B3LYP", 
		 "basiset": "6-31G**", 
		 "properties": { 
			 "R2extent": 1795.9269, 
			 "electric_dipole_moment_norm": 4.74064202192, 
			 "electric_quadrupole_moment_norm": 16.7635318042, 
			 "total_energy": -344.558714799, 
			 "HOMO_LUMO_gap": 0.18185, 
			 "cosmo_polarized_energy": -14.26, 
			 "cosmo_cavitation_energy": 18.16, 
			 "cosmo_dispersion_energy": -12.93, 
			 "cosmo_repulsion_energy": 1.11, 
			 "cosmo_total_nonelectrostatic_energy": 6.34, 
			 "SMD_solvation_energy": 5.39 
		},
		"coords": [
			{
				"x": -1.0290784044,
				"y": -2.9783327663,
				"z": 2.8673567465,
				"element": "O" 
			},
			{
				"x": -1.6887164699,
				"y": -2.127470722,
				"z": 2.0312289753,
				"element": "C" 
			},
			{
				"x": -2.7673096369,
				"y": -2.4429324616,
				"z": 1.5826405245,
				"element": "O" 
			},
			{
				"x": -0.9967937869,
				"y": -0.8445061106,
				"z": 1.740958661,
				"element": "C" 
			},
			{
				"x": -1.5655522467,
				"y": 0.0572029834,
				"z": 0.9205824878,
				"element": "C" 
			},
			{
				"x": -1.0051205683,
				"y": 1.3477818817,
				"z": 0.5226914889,
				"element": "C" 
			},
			{
				"x": 0.2990824017,
				"y": 1.6549552359,
				"z": 0.4770052592,
				"element": "C" 
			},
			{
				"x": -0.1878116842,
				"y": -2.5916472347,
				"z": 3.1466525572,
				"element": "H" 
			},
			{
				"x": -0.0369978789,
				"y": -0.640703185,
				"z": 2.212879825,
				"element": "H" 
			},
			{
				"x": -2.5504259468,
				"y": -0.1993274619,
				"z": 0.5329697316,
				"element": "H" 
			},
			{
				"x": -1.7298295923,
				"y": 2.0982461782,
				"z": 0.2108997122,
				"element": "H" 
			},
			{
				"x": 0.6353285677,
				"y": 2.6406720851,
				"z": 0.1722475869,
				"element": "H" 
			},
			{
				"x": 1.070625246,
				"y": 0.9291615777,
				"z": 0.7188864439,
				"element": "H" 
			}
		],
		 "valence_orbital": [ 
			{
				"type": "occ",
				"energy": -0.36664,
				"method": "rhf"
			},
			{
				"type": "occ",
				"energy": -0.33521,
				"method": "rhf"
			},
			{
				"type": "occ",
				"energy": -0.30969,
				"method": "rhf"
			},
			{
				"type": "occ",
				"energy": -0.2709,
				"method": "rhf"
			},
			{
				"type": "occ",
				"energy": -0.25481,
				"method": "rhf"
			},
			{
				"type": "unocc",
				"energy": -0.07296,
				"method": "rhf"
			},
			{
				"type": "unocc",
				"energy": 0.02707,
				"method": "rhf"
			},
			{
				"type": "unocc",
				"energy": 0.05743,
				"method": "rhf"
			},
			{
				"type": "unocc",
				"energy": 0.09565,
				"method": "rhf"
			},
			{
				"type": "unocc",
				"energy": 0.10137,
				"method": "rhf"
			}
		],
		"cosmo_sigma_profile": { 
			"-0.025": 0.0,
			"-0.024": 0.0,
			"-0.023": 0.0,
			"-0.022": 0.0,
			"-0.021": 0.0,
			"-0.02": 0.0,
			"-0.019": 0.773496911341,
			"-0.018": 1.21219093752,
			"-0.017": 1.03913300589,
			"-0.016": 1.30512841462,
			"-0.015": 1.32384070326,
			"-0.014": 0.662371473612,
			"-0.013": 0.680407500593,
			"-0.012": 1.17206227179,
			"-0.011": 1.19060554428,
			"-0.01": 0.907245597405,
			"-0.009": 1.43572156789,
			"-0.008": 1.25251600942,
			"-0.007": 3.3334074964,
			"-0.006": 11.0884802686,
			"-0.005": 8.66684251725,
			"-0.004": 8.82073446333,
			"-0.003": 7.91471362556,
			"-0.002": 8.8709832553,
			"-0.001": 9.17146532185,
			"0.0": 8.25400204883,
			"0.001": 8.37969222404,
			"0.002": 9.50642422677,
			"0.003": 9.93184272323,
			"0.004": 5.31015752988,
			"0.005": 4.12306517352,
			"0.006": 2.47754119044,
			"0.007": 1.6003106475,
			"0.008": 2.87400909348,
			"0.009": 3.0553263387,
			"0.01": 3.77794290332,
			"0.011": 5.12688485206,
			"0.012": 5.94039050557,
			"0.013": 2.95978445801,
			"0.014": 0.670098954693,
			"0.015": 0.0,
			"0.016": 0.0,
			"0.017": 0.0,
			"0.018": 0.0,
			"0.019": 0.0,
			"0.02": 0.0,
			"0.021": 0.0,
			"0.022": 0.0,
			"0.023": 0.0,
			"0.024": 0.0,
			"0.025": 0.0
		}
	}
}
