{
	 "smiles": "CC(C)(C)N1C=C(C=C1N)C#N", 
	 "Tm": 379.15, 
	 "num_atms": 25, 
	 "gaussian": { 
		 "optdone": 1, 
		 "sigma_profile": "yes", 
		 "theory": "DFT", 
		 "functional": "B3LYP", 
		 "basiset": "6-31G**", 
		 "properties": { 
			 "R2extent": 2360.1166, 
			 "electric_dipole_moment_norm": 6.74445468663, 
			 "electric_quadrupole_moment_norm": 20.2192849567, 
			 "total_energy": -515.030451621, 
			 "HOMO_LUMO_gap": 0.21763, 
			 "cosmo_polarized_energy": -13.96, 
			 "cosmo_cavitation_energy": 27.92, 
			 "cosmo_dispersion_energy": -19.34, 
			 "cosmo_repulsion_energy": 1.54, 
			 "cosmo_total_nonelectrostatic_energy": 10.12, 
			 "SMD_solvation_energy": 7.22 
		},
		"coords": [
			{
				"x": -1.8560819289,
				"y": 1.7511568328,
				"z": -1.6563742,
				"element": "C" 
			},
			{
				"x": -0.6134390607,
				"y": 1.7708495687,
				"z": -0.7458074504,
				"element": "C" 
			},
			{
				"x": 0.5307473831,
				"y": 2.4971864886,
				"z": -1.4720976332,
				"element": "C" 
			},
			{
				"x": -0.9053983344,
				"y": 2.5119488636,
				"z": 0.5732056147,
				"element": "C" 
			},
			{
				"x": -0.2058670267,
				"y": 0.3606707093,
				"z": -0.4466222533,
				"element": "N" 
			},
			{
				"x": 0.9696787803,
				"y": -0.2225518322,
				"z": -0.83862888,
				"element": "C" 
			},
			{
				"x": 0.9713863067,
				"y": -1.5505826665,
				"z": -0.4391964542,
				"element": "C" 
			},
			{
				"x": -0.2607128429,
				"y": -1.7832508781,
				"z": 0.24158671,
				"element": "C" 
			},
			{
				"x": -0.9656348926,
				"y": -0.6012537336,
				"z": 0.2261376551,
				"element": "C" 
			},
			{
				"x": -2.2599517351,
				"y": -0.3077754475,
				"z": 0.7233292507,
				"element": "N" 
			},
			{
				"x": 2.0199950125,
				"y": -2.4796184435,
				"z": -0.6661488288,
				"element": "C" 
			},
			{
				"x": 2.8772869202,
				"y": -3.2470837385,
				"z": -0.8485899718,
				"element": "N" 
			},
			{
				"x": -1.6350093184,
				"y": 1.2298751893,
				"z": -2.5930015046,
				"element": "H" 
			},
			{
				"x": -2.6898716989,
				"y": 1.2518545348,
				"z": -1.1616949204,
				"element": "H" 
			},
			{
				"x": -2.1523411807,
				"y": 2.7771981334,
				"z": -1.8977557591,
				"element": "H" 
			},
			{
				"x": 0.7678827242,
				"y": 2.0322196926,
				"z": -2.4332127261,
				"element": "H" 
			},
			{
				"x": 1.4398847657,
				"y": 2.5416588396,
				"z": -0.8648156097,
				"element": "H" 
			},
			{
				"x": 0.2144165143,
				"y": 3.5241530213,
				"z": -1.6723850632,
				"element": "H" 
			},
			{
				"x": -1.1132125374,
				"y": 3.5658579376,
				"z": 0.3631441145,
				"element": "H" 
			},
			{
				"x": -0.0423309382,
				"y": 2.462359458,
				"z": 1.2445484588,
				"element": "H" 
			},
			{
				"x": -1.7758483458,
				"y": 2.0934882536,
				"z": 1.0792731715,
				"element": "H" 
			},
			{
				"x": 1.7356367367,
				"y": 0.3178596546,
				"z": -1.36633446,
				"element": "H" 
			},
			{
				"x": -0.5822607758,
				"y": -2.7100213402,
				"z": 0.6948150168,
				"element": "H" 
			},
			{
				"x": -2.8719638381,
				"y": -1.1078425139,
				"z": 0.6002865623,
				"element": "H" 
			},
			{
				"x": -2.244990689,
				"y": -0.0827565837,
				"z": 1.7153391605,
				"element": "H" 
			}
		],
		 "valence_orbital": [ 
			{
				"type": "occ",
				"energy": -0.32978,
				"method": "rhf"
			},
			{
				"type": "occ",
				"energy": -0.30931,
				"method": "rhf"
			},
			{
				"type": "occ",
				"energy": -0.28028,
				"method": "rhf"
			},
			{
				"type": "occ",
				"energy": -0.24402,
				"method": "rhf"
			},
			{
				"type": "occ",
				"energy": -0.21448,
				"method": "rhf"
			},
			{
				"type": "unocc",
				"energy": 0.00315,
				"method": "rhf"
			},
			{
				"type": "unocc",
				"energy": 0.03477,
				"method": "rhf"
			},
			{
				"type": "unocc",
				"energy": 0.051,
				"method": "rhf"
			},
			{
				"type": "unocc",
				"energy": 0.06168,
				"method": "rhf"
			},
			{
				"type": "unocc",
				"energy": 0.08375,
				"method": "rhf"
			}
		],
		"cosmo_sigma_profile": { 
			"-0.025": 0.0,
			"-0.024": 0.0,
			"-0.023": 0.0,
			"-0.022": 0.0,
			"-0.021": 0.0,
			"-0.02": 0.0,
			"-0.019": 0.0,
			"-0.018": 0.0,
			"-0.017": 0.0,
			"-0.016": 0.0,
			"-0.015": 0.0,
			"-0.014": 0.0,
			"-0.013": 0.0,
			"-0.012": 1.24647753578,
			"-0.011": 2.75382930773,
			"-0.01": 2.61472710794,
			"-0.009": 3.44613615034,
			"-0.008": 3.23963193446,
			"-0.007": 5.79414236044,
			"-0.006": 6.72440564415,
			"-0.005": 8.44456048298,
			"-0.004": 18.6474018725,
			"-0.003": 20.4683475737,
			"-0.002": 17.3139322096,
			"-0.001": 17.9736556963,
			"0.0": 23.4844823602,
			"0.001": 18.8008748521,
			"0.002": 12.6338531705,
			"0.003": 8.91957584879,
			"0.004": 8.28432089072,
			"0.005": 8.19769160518,
			"0.006": 5.04819227106,
			"0.007": 3.48708535719,
			"0.008": 3.22725301332,
			"0.009": 4.30047717579,
			"0.01": 3.83787310945,
			"0.011": 3.61579756884,
			"0.012": 3.14128585325,
			"0.013": 2.42071262051,
			"0.014": 1.8726177725,
			"0.015": 0.147918860599,
			"0.016": 0.0,
			"0.017": 0.0,
			"0.018": 0.0,
			"0.019": 0.0,
			"0.02": 0.0,
			"0.021": 0.0,
			"0.022": 0.0,
			"0.023": 0.0,
			"0.024": 0.0,
			"0.025": 0.0
		}
	}
}
