{
	 "smiles": "CC(C)COC1=CC2=CC=CC=C2C=C1", 
	 "Tm": 304.15, 
	 "num_atms": 31, 
	 "gaussian": { 
		 "optdone": 1, 
		 "sigma_profile": "yes", 
		 "theory": "DFT", 
		 "functional": "B3LYP", 
		 "basiset": "6-31G**", 
		 "properties": { 
			 "R2extent": 4632.204, 
			 "electric_dipole_moment_norm": 1.5049818371, 
			 "electric_quadrupole_moment_norm": 10.5449405627, 
			 "total_energy": -618.372702488, 
			 "HOMO_LUMO_gap": 0.16548, 
			 "cosmo_polarized_energy": -6.43, 
			 "cosmo_cavitation_energy": 33.41, 
			 "cosmo_dispersion_energy": -24.08, 
			 "cosmo_repulsion_energy": 1.87, 
			 "cosmo_total_nonelectrostatic_energy": 11.2, 
			 "SMD_solvation_energy": 5.58 
		},
		"coords": [
			{
				"x": 1.7844466741,
				"y": 1.8063385594,
				"z": 3.8424261792,
				"element": "C" 
			},
			{
				"x": 1.0294885012,
				"y": 0.4749149847,
				"z": 3.9690657947,
				"element": "C" 
			},
			{
				"x": 1.9912001789,
				"y": -0.7211500394,
				"z": 4.0264412548,
				"element": "C" 
			},
			{
				"x": -0.0072659724,
				"y": 0.3090538463,
				"z": 2.855028344,
				"element": "C" 
			},
			{
				"x": 0.6759805161,
				"y": 0.2741748233,
				"z": 1.6029625039,
				"element": "O" 
			},
			{
				"x": -0.0398703135,
				"y": 0.1328668652,
				"z": 0.4485393835,
				"element": "C" 
			},
			{
				"x": 0.6878727588,
				"y": 0.1074330763,
				"z": -0.7281951925,
				"element": "C" 
			},
			{
				"x": 0.0447927513,
				"y": -0.0348290911,
				"z": -1.9795800768,
				"element": "C" 
			},
			{
				"x": 0.767691356,
				"y": -0.0641728029,
				"z": -3.2062129019,
				"element": "C" 
			},
			{
				"x": 0.1128357286,
				"y": -0.2037854339,
				"z": -4.4078723629,
				"element": "C" 
			},
			{
				"x": -1.3002587735,
				"y": -0.3217594252,
				"z": -4.4501164969,
				"element": "C" 
			},
			{
				"x": -2.0288182178,
				"y": -0.2971702582,
				"z": -3.2832803439,
				"element": "C" 
			},
			{
				"x": -1.3846450452,
				"y": -0.154304367,
				"z": -2.0243156577,
				"element": "C" 
			},
			{
				"x": -2.0991462774,
				"y": -0.1244772706,
				"z": -0.8008714355,
				"element": "C" 
			},
			{
				"x": -1.4550655574,
				"y": 0.0149533512,
				"z": 0.409683109,
				"element": "C" 
			},
			{
				"x": 2.4880666881,
				"y": 1.9347645184,
				"z": 4.6712683978,
				"element": "H" 
			},
			{
				"x": 2.3499560881,
				"y": 1.8427213727,
				"z": 2.9067785893,
				"element": "H" 
			},
			{
				"x": 1.0954146319,
				"y": 2.6582829773,
				"z": 3.8519418702,
				"element": "H" 
			},
			{
				"x": 0.4495742436,
				"y": 0.4954946264,
				"z": 4.903521465,
				"element": "H" 
			},
			{
				"x": 2.696472078,
				"y": -0.6135796946,
				"z": 4.8568464999,
				"element": "H" 
			},
			{
				"x": 1.4488812437,
				"y": -1.6629323894,
				"z": 4.1664785778,
				"element": "H" 
			},
			{
				"x": 2.5661973176,
				"y": -0.7998464918,
				"z": 3.09921187,
				"element": "H" 
			},
			{
				"x": -0.7190213553,
				"y": 1.1473852873,
				"z": 2.8702688191,
				"element": "H" 
			},
			{
				"x": -0.574044152,
				"y": -0.6224786271,
				"z": 2.9987210088,
				"element": "H" 
			},
			{
				"x": 1.7685610856,
				"y": 0.1990912592,
				"z": -0.6761123049,
				"element": "H" 
			},
			{
				"x": 1.850545333,
				"y": 0.0260685091,
				"z": -3.1761922428,
				"element": "H" 
			},
			{
				"x": 0.6793802065,
				"y": -0.2242835822,
				"z": -5.3346766201,
				"element": "H" 
			},
			{
				"x": -1.8026573634,
				"y": -0.4313459176,
				"z": -5.4067291425,
				"element": "H" 
			},
			{
				"x": -3.1122428824,
				"y": -0.3870157449,
				"z": -3.3075247659,
				"element": "H" 
			},
			{
				"x": -3.1823953447,
				"y": -0.2142709912,
				"z": -0.8243045043,
				"element": "H" 
			},
			{
				"x": -2.0341261261,
				"y": 0.0336580704,
				"z": 1.3250003816,
				"element": "H" 
			}
		],
		 "valence_orbital": [ 
			{
				"type": "occ",
				"energy": -0.31306,
				"method": "rhf"
			},
			{
				"type": "occ",
				"energy": -0.29736,
				"method": "rhf"
			},
			{
				"type": "occ",
				"energy": -0.27204,
				"method": "rhf"
			},
			{
				"type": "occ",
				"energy": -0.22871,
				"method": "rhf"
			},
			{
				"type": "occ",
				"energy": -0.19857,
				"method": "rhf"
			},
			{
				"type": "unocc",
				"energy": -0.03309,
				"method": "rhf"
			},
			{
				"type": "unocc",
				"energy": 0.00367,
				"method": "rhf"
			},
			{
				"type": "unocc",
				"energy": 0.03833,
				"method": "rhf"
			},
			{
				"type": "unocc",
				"energy": 0.08204,
				"method": "rhf"
			},
			{
				"type": "unocc",
				"energy": 0.09641,
				"method": "rhf"
			}
		],
		"cosmo_sigma_profile": { 
			"-0.025": 0.0,
			"-0.024": 0.0,
			"-0.023": 0.0,
			"-0.022": 0.0,
			"-0.021": 0.0,
			"-0.02": 0.0,
			"-0.019": 0.0,
			"-0.018": 0.0,
			"-0.017": 0.0,
			"-0.016": 0.0,
			"-0.015": 0.0,
			"-0.014": 0.0,
			"-0.013": 0.0,
			"-0.012": 0.0,
			"-0.011": 0.0,
			"-0.01": 0.0,
			"-0.009": 0.0,
			"-0.008": 0.0,
			"-0.007": 0.341897218932,
			"-0.006": 8.23906414595,
			"-0.005": 17.8566452773,
			"-0.004": 21.7481661076,
			"-0.003": 29.2148395809,
			"-0.002": 26.1634383212,
			"-0.001": 23.0294621393,
			"0.0": 21.2901795002,
			"0.001": 24.5597599114,
			"0.002": 18.2132365687,
			"0.003": 13.648917281,
			"0.004": 22.987986172,
			"0.005": 23.3646416663,
			"0.006": 9.37305593432,
			"0.007": 3.25534243935,
			"0.008": 0.318928602832,
			"0.009": 0.0,
			"0.01": 0.0,
			"0.011": 0.0,
			"0.012": 0.0,
			"0.013": 0.0,
			"0.014": 0.0,
			"0.015": 0.0,
			"0.016": 0.0,
			"0.017": 0.0,
			"0.018": 0.0,
			"0.019": 0.0,
			"0.02": 0.0,
			"0.021": 0.0,
			"0.022": 0.0,
			"0.023": 0.0,
			"0.024": 0.0,
			"0.025": 0.0
		}
	}
}
