{
	 "smiles": "ClC1=CC=CC(Cl)=C1N=C=O", 
	 "Tm": 317.15, 
	 "num_atms": 14, 
	 "gaussian": { 
		 "optdone": 1, 
		 "sigma_profile": "yes", 
		 "theory": "DFT", 
		 "functional": "B3LYP", 
		 "basiset": "6-31G**", 
		 "properties": { 
			 "R2extent": 2560.3607, 
			 "electric_dipole_moment_norm": 3.4705783178, 
			 "electric_quadrupole_moment_norm": 2.36979702928, 
			 "total_energy": -1318.90730883, 
			 "HOMO_LUMO_gap": 0.20567, 
			 "cosmo_polarized_energy": -5.07, 
			 "cosmo_cavitation_energy": 23.3, 
			 "cosmo_dispersion_energy": -17.21, 
			 "cosmo_repulsion_energy": 1.39, 
			 "cosmo_total_nonelectrostatic_energy": 7.47, 
			 "SMD_solvation_energy": 5.71 
		},
		"coords": [
			{
				"x": 1.0587418532,
				"y": -2.5840754372,
				"z": 2.2966685959,
				"element": "Cl" 
			},
			{
				"x": 0.6345433417,
				"y": -0.9855975021,
				"z": 1.7353236781,
				"element": "C" 
			},
			{
				"x": 1.1382141218,
				"y": 0.1262511662,
				"z": 2.4046457436,
				"element": "C" 
			},
			{
				"x": 0.8066534975,
				"y": 1.4066633386,
				"z": 1.9654667107,
				"element": "C" 
			},
			{
				"x": -0.0255819499,
				"y": 1.576612447,
				"z": 0.8608462297,
				"element": "C" 
			},
			{
				"x": -0.5254726088,
				"y": 0.4599410339,
				"z": 0.1966947084,
				"element": "C" 
			},
			{
				"x": -1.5693158694,
				"y": 0.6913061803,
				"z": -1.1885504926,
				"element": "Cl" 
			},
			{
				"x": -0.2103032982,
				"y": -0.8513059825,
				"z": 0.6140859573,
				"element": "C" 
			},
			{
				"x": -0.6798809884,
				"y": -1.9870676445,
				"z": -0.0098268044,
				"element": "N" 
			},
			{
				"x": -1.37837351,
				"y": -2.3378481422,
				"z": -0.9365017418,
				"element": "C" 
			},
			{
				"x": -2.0183639554,
				"y": -2.8379447434,
				"z": -1.7853514854,
				"element": "O" 
			},
			{
				"x": 1.7845285667,
				"y": -0.0201386339,
				"z": 3.2622130568,
				"element": "H" 
			},
			{
				"x": 1.1977810407,
				"y": 2.2750507364,
				"z": 2.4851864503,
				"element": "H" 
			},
			{
				"x": -0.2917702416,
				"y": 2.5662531834,
				"z": 0.5079993934,
				"element": "H" 
			}
		],
		 "valence_orbital": [ 
			{
				"type": "occ",
				"energy": -0.33468,
				"method": "rhf"
			},
			{
				"type": "occ",
				"energy": -0.32985,
				"method": "rhf"
			},
			{
				"type": "occ",
				"energy": -0.31407,
				"method": "rhf"
			},
			{
				"type": "occ",
				"energy": -0.26248,
				"method": "rhf"
			},
			{
				"type": "occ",
				"energy": -0.24993,
				"method": "rhf"
			},
			{
				"type": "unocc",
				"energy": -0.04426,
				"method": "rhf"
			},
			{
				"type": "unocc",
				"energy": -0.03447,
				"method": "rhf"
			},
			{
				"type": "unocc",
				"energy": -0.01343,
				"method": "rhf"
			},
			{
				"type": "unocc",
				"energy": 0.02401,
				"method": "rhf"
			},
			{
				"type": "unocc",
				"energy": 0.04256,
				"method": "rhf"
			}
		],
		"cosmo_sigma_profile": { 
			"-0.025": 0.0,
			"-0.024": 0.0,
			"-0.023": 0.0,
			"-0.022": 0.0,
			"-0.021": 0.0,
			"-0.02": 0.0,
			"-0.019": 0.0,
			"-0.018": 0.0,
			"-0.017": 0.0,
			"-0.016": 0.0,
			"-0.015": 0.0,
			"-0.014": 0.0,
			"-0.013": 0.0,
			"-0.012": 0.0,
			"-0.011": 0.0,
			"-0.01": 0.0,
			"-0.009": 0.215389030139,
			"-0.008": 4.37596721468,
			"-0.007": 6.5772774368,
			"-0.006": 6.81661084389,
			"-0.005": 5.81770904041,
			"-0.004": 9.70069813737,
			"-0.003": 13.657175605,
			"-0.002": 12.2625610392,
			"-0.001": 18.4549326557,
			"0.0": 25.1286688639,
			"0.001": 21.8913789112,
			"0.002": 21.6991688887,
			"0.003": 15.8944597539,
			"0.004": 12.8534763848,
			"0.005": 5.97097219823,
			"0.006": 5.55125490856,
			"0.007": 6.78711453572,
			"0.008": 0.0126210818444,
			"0.009": 0.0,
			"0.01": 0.0,
			"0.011": 0.0,
			"0.012": 0.0,
			"0.013": 0.0,
			"0.014": 0.0,
			"0.015": 0.0,
			"0.016": 0.0,
			"0.017": 0.0,
			"0.018": 0.0,
			"0.019": 0.0,
			"0.02": 0.0,
			"0.021": 0.0,
			"0.022": 0.0,
			"0.023": 0.0,
			"0.024": 0.0,
			"0.025": 0.0
		}
	}
}
