{
	 "smiles": "COC1=CC(N)=CC=C1", 
	 "Tm": 272.65, 
	 "num_atms": 18, 
	 "gaussian": { 
		 "optdone": 1, 
		 "sigma_profile": "yes", 
		 "theory": "DFT", 
		 "functional": "B3LYP", 
		 "basiset": "6-31G**", 
		 "properties": { 
			 "R2extent": 1746.6324, 
			 "electric_dipole_moment_norm": 1.09852050959, 
			 "electric_quadrupole_moment_norm": 12.6392494002, 
			 "total_energy": -402.134130973, 
			 "HOMO_LUMO_gap": 0.21013, 
			 "cosmo_polarized_energy": -9.53, 
			 "cosmo_cavitation_energy": 21.35, 
			 "cosmo_dispersion_energy": -16.14, 
			 "cosmo_repulsion_energy": 1.33, 
			 "cosmo_total_nonelectrostatic_energy": 6.54, 
			 "SMD_solvation_energy": 4.43 
		},
		"coords": [
			{
				"x": -1.7623203236,
				"y": 0.4687111213,
				"z": -0.8881325784,
				"element": "C" 
			},
			{
				"x": -1.1267315269,
				"y": -0.7799119983,
				"z": -0.6766576833,
				"element": "O" 
			},
			{
				"x": -0.0073342886,
				"y": -0.8092292678,
				"z": 0.1088395575,
				"element": "C" 
			},
			{
				"x": 0.5642798198,
				"y": -2.0755175835,
				"z": 0.2786382794,
				"element": "C" 
			},
			{
				"x": 1.7138867265,
				"y": -2.2386113653,
				"z": 1.0587746442,
				"element": "C" 
			},
			{
				"x": 2.2494817618,
				"y": -3.5110704534,
				"z": 1.2756248002,
				"element": "N" 
			},
			{
				"x": 2.2917295544,
				"y": -1.1081710747,
				"z": 1.670215985,
				"element": "C" 
			},
			{
				"x": 1.7135780324,
				"y": 0.1419621488,
				"z": 1.4910607577,
				"element": "C" 
			},
			{
				"x": 0.5634897223,
				"y": 0.3169163653,
				"z": 0.7142922674,
				"element": "C" 
			},
			{
				"x": -2.6229657762,
				"y": 0.2656899231,
				"z": -1.5279326724,
				"element": "H" 
			},
			{
				"x": -2.1109346963,
				"y": 0.9126491075,
				"z": 0.0535308879,
				"element": "H" 
			},
			{
				"x": -1.099088351,
				"y": 1.1830195918,
				"z": -1.3935828706,
				"element": "H" 
			},
			{
				"x": 0.0904750852,
				"y": -2.9250210823,
				"z": -0.2043516939,
				"element": "H" 
			},
			{
				"x": 3.232879273,
				"y": -3.523343933,
				"z": 1.5090071249,
				"element": "H" 
			},
			{
				"x": 2.0251592035,
				"y": -4.1949785034,
				"z": 0.5658508302,
				"element": "H" 
			},
			{
				"x": 3.1817388056,
				"y": -1.221995579,
				"z": 2.2831796994,
				"element": "H" 
			},
			{
				"x": 2.1663936653,
				"y": 1.0089964502,
				"z": 1.9646426683,
				"element": "H" 
			},
			{
				"x": 0.1363833127,
				"y": 1.3041061326,
				"z": 0.5919999966,
				"element": "H" 
			}
		],
		 "valence_orbital": [ 
			{
				"type": "occ",
				"energy": -0.33151,
				"method": "rhf"
			},
			{
				"type": "occ",
				"energy": -0.31829,
				"method": "rhf"
			},
			{
				"type": "occ",
				"energy": -0.28526,
				"method": "rhf"
			},
			{
				"type": "occ",
				"energy": -0.21381,
				"method": "rhf"
			},
			{
				"type": "occ",
				"energy": -0.19526,
				"method": "rhf"
			},
			{
				"type": "unocc",
				"energy": 0.01487,
				"method": "rhf"
			},
			{
				"type": "unocc",
				"energy": 0.03203,
				"method": "rhf"
			},
			{
				"type": "unocc",
				"energy": 0.08665,
				"method": "rhf"
			},
			{
				"type": "unocc",
				"energy": 0.10328,
				"method": "rhf"
			},
			{
				"type": "unocc",
				"energy": 0.11611,
				"method": "rhf"
			}
		],
		"cosmo_sigma_profile": { 
			"-0.025": 0.0,
			"-0.024": 0.0,
			"-0.023": 0.0,
			"-0.022": 0.0,
			"-0.021": 0.0,
			"-0.02": 0.0,
			"-0.019": 0.0,
			"-0.018": 0.0,
			"-0.017": 0.0,
			"-0.016": 0.0,
			"-0.015": 0.0,
			"-0.014": 0.0,
			"-0.013": 0.110568301273,
			"-0.012": 2.1892641605,
			"-0.011": 2.36394997903,
			"-0.01": 2.70220343968,
			"-0.009": 2.91121286924,
			"-0.008": 3.65623589898,
			"-0.007": 2.07647318776,
			"-0.006": 5.17416129163,
			"-0.005": 15.6089834776,
			"-0.004": 16.0601824186,
			"-0.003": 15.9663653824,
			"-0.002": 11.2706541241,
			"-0.001": 8.69816451483,
			"0.0": 6.31121055916,
			"0.001": 6.05453519417,
			"0.002": 7.37609999603,
			"0.003": 6.1568288226,
			"0.004": 8.16187939729,
			"0.005": 9.66054292405,
			"0.006": 12.5770078802,
			"0.007": 11.528215388,
			"0.008": 3.12665180235,
			"0.009": 2.20791697273,
			"0.01": 2.39879523582,
			"0.011": 2.0256445696,
			"0.012": 0.717724111025,
			"0.013": 0.586872425039,
			"0.014": 0.816873677117,
			"0.015": 0.326963084231,
			"0.016": 0.0,
			"0.017": 0.0,
			"0.018": 0.0,
			"0.019": 0.0,
			"0.02": 0.0,
			"0.021": 0.0,
			"0.022": 0.0,
			"0.023": 0.0,
			"0.024": 0.0,
			"0.025": 0.0
		}
	}
}
