{
	 "smiles": "C=CCN=C=S", 
	 "Tm": 193.15, 
	 "num_atms": 11, 
	 "gaussian": { 
		 "optdone": 1, 
		 "sigma_profile": "yes", 
		 "theory": "DFT", 
		 "functional": "B3LYP", 
		 "basiset": "6-31G**", 
		 "properties": { 
			 "R2extent": 1270.7624, 
			 "electric_dipole_moment_norm": 3.78042987106, 
			 "electric_quadrupole_moment_norm": 7.69744226221, 
			 "total_energy": -608.340522712, 
			 "HOMO_LUMO_gap": 0.22204, 
			 "cosmo_polarized_energy": -5.74, 
			 "cosmo_cavitation_energy": 18.13, 
			 "cosmo_dispersion_energy": -13.31, 
			 "cosmo_repulsion_energy": 1.14, 
			 "cosmo_total_nonelectrostatic_energy": 5.96, 
			 "SMD_solvation_energy": 3.16 
		},
		"coords": [
			{
				"x": 1.4750303196,
				"y": -0.2364187493,
				"z": 1.9829998694,
				"element": "C" 
			},
			{
				"x": 0.4304434686,
				"y": -0.1590210236,
				"z": 1.1611610189,
				"element": "C" 
			},
			{
				"x": 0.4925155625,
				"y": -0.5126452272,
				"z": -0.3035697357,
				"element": "C" 
			},
			{
				"x": 0.077697682,
				"y": 0.569533267,
				"z": -1.1569550447,
				"element": "N" 
			},
			{
				"x": -0.381244372,
				"y": 1.6633902069,
				"z": -1.289711312,
				"element": "C" 
			},
			{
				"x": -0.9834396961,
				"y": 3.1078603211,
				"z": -1.5891946697,
				"element": "S" 
			},
			{
				"x": 1.3870380001,
				"y": 0.0068101645,
				"z": 3.0373489315,
				"element": "H" 
			},
			{
				"x": 2.4562548808,
				"y": -0.549169722,
				"z": 1.6339726946,
				"element": "H" 
			},
			{
				"x": -0.5420399333,
				"y": 0.165067797,
				"z": 1.5280515431,
				"element": "H" 
			},
			{
				"x": 1.5095776926,
				"y": -0.8062864743,
				"z": -0.5859606238,
				"element": "H" 
			},
			{
				"x": -0.1585336049,
				"y": -1.37012056,
				"z": -0.5214426718,
				"element": "H" 
			}
		],
		 "valence_orbital": [ 
			{
				"type": "occ",
				"energy": -0.37398,
				"method": "rhf"
			},
			{
				"type": "occ",
				"energy": -0.36461,
				"method": "rhf"
			},
			{
				"type": "occ",
				"energy": -0.28803,
				"method": "rhf"
			},
			{
				"type": "occ",
				"energy": -0.24997,
				"method": "rhf"
			},
			{
				"type": "occ",
				"energy": -0.2432,
				"method": "rhf"
			},
			{
				"type": "unocc",
				"energy": -0.02116,
				"method": "rhf"
			},
			{
				"type": "unocc",
				"energy": 0.00204,
				"method": "rhf"
			},
			{
				"type": "unocc",
				"energy": 0.01304,
				"method": "rhf"
			},
			{
				"type": "unocc",
				"energy": 0.08761,
				"method": "rhf"
			},
			{
				"type": "unocc",
				"energy": 0.10149,
				"method": "rhf"
			}
		],
		"cosmo_sigma_profile": { 
			"-0.025": 0.0,
			"-0.024": 0.0,
			"-0.023": 0.0,
			"-0.022": 0.0,
			"-0.021": 0.0,
			"-0.02": 0.0,
			"-0.019": 0.0,
			"-0.018": 0.0,
			"-0.017": 0.0,
			"-0.016": 0.0,
			"-0.015": 0.0,
			"-0.014": 0.0,
			"-0.013": 0.0,
			"-0.012": 0.0,
			"-0.011": 0.0,
			"-0.01": 0.0,
			"-0.009": 0.0,
			"-0.008": 1.33895229557,
			"-0.007": 5.78303193725,
			"-0.006": 11.9800612242,
			"-0.005": 11.0885972765,
			"-0.004": 9.44848648172,
			"-0.003": 8.0663743088,
			"-0.002": 7.47369377411,
			"-0.001": 9.87496873524,
			"0.0": 11.2608216165,
			"0.001": 12.9013154379,
			"0.002": 11.8920475128,
			"0.003": 11.1019909623,
			"0.004": 9.49473109842,
			"0.005": 10.4759637365,
			"0.006": 12.2118413054,
			"0.007": 4.29756152465,
			"0.008": 0.0,
			"0.009": 0.0,
			"0.01": 0.0,
			"0.011": 0.0,
			"0.012": 0.0,
			"0.013": 0.0,
			"0.014": 0.0,
			"0.015": 0.0,
			"0.016": 0.0,
			"0.017": 0.0,
			"0.018": 0.0,
			"0.019": 0.0,
			"0.02": 0.0,
			"0.021": 0.0,
			"0.022": 0.0,
			"0.023": 0.0,
			"0.024": 0.0,
			"0.025": 0.0
		}
	}
}
