{
	 "smiles": "CC(=O)N1C(CC2=CC=CC=C12)C1=CC=CC=C1", 
	 "Tm": 402.15, 
	 "num_atms": 33, 
	 "gaussian": { 
		 "optdone": 1, 
		 "sigma_profile": "yes", 
		 "theory": "DFT", 
		 "functional": "B3LYP", 
		 "basiset": "6-31G**", 
		 "properties": { 
			 "R2extent": 4678.809, 
			 "electric_dipole_moment_norm": 3.8616022918, 
			 "electric_quadrupole_moment_norm": 10.5778341871, 
			 "total_energy": -748.742410513, 
			 "HOMO_LUMO_gap": 0.19475, 
			 "cosmo_polarized_energy": -11.58, 
			 "cosmo_cavitation_energy": 35.27, 
			 "cosmo_dispersion_energy": -24.74, 
			 "cosmo_repulsion_energy": 1.9, 
			 "cosmo_total_nonelectrostatic_energy": 12.43, 
			 "SMD_solvation_energy": 6.32 
		},
		"coords": [
			{
				"x": -0.5401341929,
				"y": -0.6122354146,
				"z": -2.7823470276,
				"element": "C" 
			},
			{
				"x": -1.4200088009,
				"y": 0.3588441254,
				"z": -2.0115021769,
				"element": "C" 
			},
			{
				"x": -2.1470464946,
				"y": 1.1585613662,
				"z": -2.5887364357,
				"element": "O" 
			},
			{
				"x": -1.3711447628,
				"y": 0.2736050879,
				"z": -0.6314784393,
				"element": "N" 
			},
			{
				"x": -0.4610218785,
				"y": -0.6184094954,
				"z": 0.1317802093,
				"element": "C" 
			},
			{
				"x": -1.0893374884,
				"y": -0.6479278247,
				"z": 1.5605002942,
				"element": "C" 
			},
			{
				"x": -2.0040062556,
				"y": 0.5522608199,
				"z": 1.5692804482,
				"element": "C" 
			},
			{
				"x": -2.6731517452,
				"y": 1.1510463777,
				"z": 2.6285067203,
				"element": "C" 
			},
			{
				"x": -3.5176457656,
				"y": 2.23842585,
				"z": 2.3739536439,
				"element": "C" 
			},
			{
				"x": -3.6812522159,
				"y": 2.7040182903,
				"z": 1.067632978,
				"element": "C" 
			},
			{
				"x": -3.0120582714,
				"y": 2.1132676789,
				"z": -0.0101462108,
				"element": "C" 
			},
			{
				"x": -2.1682565118,
				"y": 1.0336066744,
				"z": 0.2627007108,
				"element": "C" 
			},
			{
				"x": 0.9841871774,
				"y": -0.1330543802,
				"z": 0.1456419765,
				"element": "C" 
			},
			{
				"x": 2.020871199,
				"y": -1.0717405196,
				"z": 0.2305464395,
				"element": "C" 
			},
			{
				"x": 3.3524142251,
				"y": -0.6607795985,
				"z": 0.3045530817,
				"element": "C" 
			},
			{
				"x": 3.6646664975,
				"y": 0.6996831949,
				"z": 0.2909385125,
				"element": "C" 
			},
			{
				"x": 2.638222342,
				"y": 1.6418536276,
				"z": 0.2013339766,
				"element": "C" 
			},
			{
				"x": 1.3065226502,
				"y": 1.2301116635,
				"z": 0.1287301921,
				"element": "C" 
			},
			{
				"x": 0.5099373869,
				"y": -0.5412613118,
				"z": -2.4856981546,
				"element": "H" 
			},
			{
				"x": -0.8630956271,
				"y": -1.6475065128,
				"z": -2.6234638786,
				"element": "H" 
			},
			{
				"x": -0.6385353665,
				"y": -0.3718661844,
				"z": -3.8405220293,
				"element": "H" 
			},
			{
				"x": -0.4848759109,
				"y": -1.619739932,
				"z": -0.3062532498,
				"element": "H" 
			},
			{
				"x": -1.6595743044,
				"y": -1.5735337582,
				"z": 1.711101176,
				"element": "H" 
			},
			{
				"x": -0.3150216056,
				"y": -0.6121687265,
				"z": 2.3314662107,
				"element": "H" 
			},
			{
				"x": -2.5444792943,
				"y": 0.7779588982,
				"z": 3.6412271373,
				"element": "H" 
			},
			{
				"x": -4.0454807524,
				"y": 2.7179508466,
				"z": 3.192835291,
				"element": "H" 
			},
			{
				"x": -4.3398086471,
				"y": 3.5465708658,
				"z": 0.8762913088,
				"element": "H" 
			},
			{
				"x": -3.1362747644,
				"y": 2.4654632094,
				"z": -1.0236663215,
				"element": "H" 
			},
			{
				"x": 1.7839750708,
				"y": -2.1336267558,
				"z": 0.2359696613,
				"element": "H" 
			},
			{
				"x": 4.1439675722,
				"y": -1.4023809243,
				"z": 0.3645205282,
				"element": "H" 
			},
			{
				"x": 4.7001921982,
				"y": 1.0229864832,
				"z": 0.3436445342,
				"element": "H" 
			},
			{
				"x": 2.8731992407,
				"y": 2.7022995268,
				"z": 0.1852511149,
				"element": "H" 
			},
			{
				"x": 0.5158550965,
				"y": 1.9698167522,
				"z": 0.0525077781,
				"element": "H" 
			}
		],
		 "valence_orbital": [ 
			{
				"type": "occ",
				"energy": -0.25748,
				"method": "rhf"
			},
			{
				"type": "occ",
				"energy": -0.25311,
				"method": "rhf"
			},
			{
				"type": "occ",
				"energy": -0.24532,
				"method": "rhf"
			},
			{
				"type": "occ",
				"energy": -0.2419,
				"method": "rhf"
			},
			{
				"type": "occ",
				"energy": -0.20808,
				"method": "rhf"
			},
			{
				"type": "unocc",
				"energy": -0.01333,
				"method": "rhf"
			},
			{
				"type": "unocc",
				"energy": -0.01138,
				"method": "rhf"
			},
			{
				"type": "unocc",
				"energy": -0.00282,
				"method": "rhf"
			},
			{
				"type": "unocc",
				"energy": 0.00194,
				"method": "rhf"
			},
			{
				"type": "unocc",
				"energy": 0.04645,
				"method": "rhf"
			}
		],
		"cosmo_sigma_profile": { 
			"-0.025": 0.0,
			"-0.024": 0.0,
			"-0.023": 0.0,
			"-0.022": 0.0,
			"-0.021": 0.0,
			"-0.02": 0.0,
			"-0.019": 0.0,
			"-0.018": 0.0,
			"-0.017": 0.0,
			"-0.016": 0.0,
			"-0.015": 0.0,
			"-0.014": 0.0,
			"-0.013": 0.0,
			"-0.012": 0.0,
			"-0.011": 0.0,
			"-0.01": 0.0,
			"-0.009": 0.0,
			"-0.008": 0.147550985685,
			"-0.007": 4.23377757353,
			"-0.006": 12.2245332164,
			"-0.005": 25.5945396262,
			"-0.004": 26.8105245294,
			"-0.003": 29.2213575644,
			"-0.002": 28.3880722364,
			"-0.001": 25.6300980372,
			"0.0": 17.2426169145,
			"0.001": 16.3485084463,
			"0.002": 14.7202375413,
			"0.003": 16.6973767727,
			"0.004": 16.31438757,
			"0.005": 17.9507920999,
			"0.006": 12.5657211862,
			"0.007": 2.68272435665,
			"0.008": 1.91258551227,
			"0.009": 1.1251778036,
			"0.01": 1.66705450696,
			"0.011": 1.81072958872,
			"0.012": 2.58099801497,
			"0.013": 2.84643375146,
			"0.014": 1.96805876806,
			"0.015": 0.375322949899,
			"0.016": 0.0,
			"0.017": 0.0,
			"0.018": 0.0,
			"0.019": 0.0,
			"0.02": 0.0,
			"0.021": 0.0,
			"0.022": 0.0,
			"0.023": 0.0,
			"0.024": 0.0,
			"0.025": 0.0
		}
	}
}
