{
	 "smiles": "CCCCCCCCCCCCCCCCCC(=O)OCCOCCOCCOCCO", 
	 "Tm": 313.15, 
	 "num_atms": 84, 
	 "gaussian": { 
		 "optdone": 1, 
		 "sigma_profile": "yes", 
		 "theory": "DFT", 
		 "functional": "B3LYP", 
		 "basiset": "6-31G**", 
		 "properties": { 
			 "R2extent": 44797.5398, 
			 "electric_dipole_moment_norm": 4.52613012849, 
			 "electric_quadrupole_moment_norm": 45.1628783061, 
			 "total_energy": -1473.45799544, 
			 "HOMO_LUMO_gap": 0.2461, 
			 "cosmo_polarized_energy": -17.73, 
			 "cosmo_cavitation_energy": 82.62, 
			 "cosmo_dispersion_energy": -54.32, 
			 "cosmo_repulsion_energy": 4.35, 
			 "cosmo_total_nonelectrostatic_energy": 32.65, 
			 "SMD_solvation_energy": 12.39 
		},
		"coords": [
			{
				"x": 2.6126977037,
				"y": -6.9409001696,
				"z": 5.5020055678,
				"element": "C" 
			},
			{
				"x": 1.9302578004,
				"y": -6.6331948066,
				"z": 4.1648901998,
				"element": "C" 
			},
			{
				"x": 1.208444124,
				"y": -7.8494882241,
				"z": 3.568245657,
				"element": "C" 
			},
			{
				"x": 0.5847666229,
				"y": -7.6119875603,
				"z": 2.1813731113,
				"element": "C" 
			},
			{
				"x": -0.5331003648,
				"y": -6.5555905144,
				"z": 2.1159231151,
				"element": "C" 
			},
			{
				"x": -1.7830132452,
				"y": -6.9053871314,
				"z": 2.9379938139,
				"element": "C" 
			},
			{
				"x": -2.963714047,
				"y": -5.9386599092,
				"z": 2.743669249,
				"element": "C" 
			},
			{
				"x": -2.710338818,
				"y": -4.5146216016,
				"z": 3.2630095071,
				"element": "C" 
			},
			{
				"x": -3.9399487887,
				"y": -3.5914235366,
				"z": 3.2226668251,
				"element": "C" 
			},
			{
				"x": -4.4506927504,
				"y": -3.2653236672,
				"z": 1.8104235598,
				"element": "C" 
			},
			{
				"x": -5.6257611099,
				"y": -2.2674279633,
				"z": 1.7924596485,
				"element": "C" 
			},
			{
				"x": -5.2700687546,
				"y": -0.7984370621,
				"z": 2.1224308061,
				"element": "C" 
			},
			{
				"x": -5.0047681948,
				"y": 0.1063121933,
				"z": 0.9055969202,
				"element": "C" 
			},
			{
				"x": -3.7909033636,
				"y": -0.2679453929,
				"z": 0.0440358817,
				"element": "C" 
			},
			{
				"x": -3.5317663825,
				"y": 0.7311816944,
				"z": -1.0913897646,
				"element": "C" 
			},
			{
				"x": -2.3262216762,
				"y": 0.354742821,
				"z": -1.9619611343,
				"element": "C" 
			},
			{
				"x": -2.071029127,
				"y": 1.3338133803,
				"z": -3.122608896,
				"element": "C" 
			},
			{
				"x": -1.7322849995,
				"y": 2.745236564,
				"z": -2.6841523659,
				"element": "C" 
			},
			{
				"x": -2.2976188177,
				"y": 3.750557862,
				"z": -3.0577226934,
				"element": "O" 
			},
			{
				"x": -0.6869726636,
				"y": 2.7515903204,
				"z": -1.8158230844,
				"element": "O" 
			},
			{
				"x": -0.2841186327,
				"y": 4.0415549233,
				"z": -1.3002045373,
				"element": "C" 
			},
			{
				"x": 0.7587547206,
				"y": 4.7229859567,
				"z": -2.177901638,
				"element": "C" 
			},
			{
				"x": 2.0322046906,
				"y": 4.1007199491,
				"z": -2.1051290617,
				"element": "O" 
			},
			{
				"x": 2.2963800955,
				"y": 3.1034475467,
				"z": -3.0837082187,
				"element": "C" 
			},
			{
				"x": 2.7838212252,
				"y": 3.6817098713,
				"z": -4.4055666272,
				"element": "C" 
			},
			{
				"x": 4.0214297032,
				"y": 4.3235444138,
				"z": -4.1804891838,
				"element": "O" 
			},
			{
				"x": 4.5381326599,
				"y": 5.01561457,
				"z": -5.3031844252,
				"element": "C" 
			},
			{
				"x": 5.714862723,
				"y": 5.8732805548,
				"z": -4.857130933,
				"element": "C" 
			},
			{
				"x": 5.3210322902,
				"y": 7.0584052358,
				"z": -4.1785290005,
				"element": "O" 
			},
			{
				"x": 5.0060134851,
				"y": 6.9136043539,
				"z": -2.7813280547,
				"element": "C" 
			},
			{
				"x": 6.2790930931,
				"y": 7.02935293,
				"z": -1.9509569534,
				"element": "C" 
			},
			{
				"x": 6.9674259764,
				"y": 8.2323644236,
				"z": -2.2450060732,
				"element": "O" 
			},
			{
				"x": 3.1201300429,
				"y": -6.0589507596,
				"z": 5.9067094047,
				"element": "H" 
			},
			{
				"x": 1.8852216455,
				"y": -7.2775175277,
				"z": 6.2497109025,
				"element": "H" 
			},
			{
				"x": 3.3610873864,
				"y": -7.7341422512,
				"z": 5.3917389931,
				"element": "H" 
			},
			{
				"x": 1.2199324634,
				"y": -5.8085261059,
				"z": 4.3052089681,
				"element": "H" 
			},
			{
				"x": 2.6784282832,
				"y": -6.2699760379,
				"z": 3.4464971935,
				"element": "H" 
			},
			{
				"x": 1.9258231866,
				"y": -8.6776676996,
				"z": 3.4862202219,
				"element": "H" 
			},
			{
				"x": 0.4384312148,
				"y": -8.1934964365,
				"z": 4.2719742794,
				"element": "H" 
			},
			{
				"x": 0.1879720045,
				"y": -8.5659019348,
				"z": 1.8073163247,
				"element": "H" 
			},
			{
				"x": 1.3825646622,
				"y": -7.3224272266,
				"z": 1.4834934371,
				"element": "H" 
			},
			{
				"x": -0.8288346883,
				"y": -6.4320498297,
				"z": 1.06461645,
				"element": "H" 
			},
			{
				"x": -0.1385463544,
				"y": -5.5817352016,
				"z": 2.4305235509,
				"element": "H" 
			},
			{
				"x": -1.529508577,
				"y": -6.9460873171,
				"z": 4.006070396,
				"element": "H" 
			},
			{
				"x": -2.1089848812,
				"y": -7.9190127517,
				"z": 2.6657893169,
				"element": "H" 
			},
			{
				"x": -3.8426865708,
				"y": -6.3477944304,
				"z": 3.2612354648,
				"element": "H" 
			},
			{
				"x": -3.2264466001,
				"y": -5.907675145,
				"z": 1.6777922912,
				"element": "H" 
			},
			{
				"x": -1.8961886079,
				"y": -4.0476289523,
				"z": 2.692729423,
				"element": "H" 
			},
			{
				"x": -2.354275207,
				"y": -4.5801176889,
				"z": 4.3007499055,
				"element": "H" 
			},
			{
				"x": -3.6891829059,
				"y": -2.6579438379,
				"z": 3.7430284436,
				"element": "H" 
			},
			{
				"x": -4.7561322413,
				"y": -4.0486139945,
				"z": 3.801040048,
				"element": "H" 
			},
			{
				"x": -3.6183843517,
				"y": -2.8794122951,
				"z": 1.2074107383,
				"element": "H" 
			},
			{
				"x": -4.7751373237,
				"y": -4.1921548453,
				"z": 1.3212324595,
				"element": "H" 
			},
			{
				"x": -6.1140723081,
				"y": -2.3005794766,
				"z": 0.8090651527,
				"element": "H" 
			},
			{
				"x": -6.3797873717,
				"y": -2.6246375554,
				"z": 2.5063379815,
				"element": "H" 
			},
			{
				"x": -6.0959337803,
				"y": -0.3514378556,
				"z": 2.6893036204,
				"element": "H" 
			},
			{
				"x": -4.4013899714,
				"y": -0.7649288514,
				"z": 2.7938126706,
				"element": "H" 
			},
			{
				"x": -4.8753840478,
				"y": 1.1375250564,
				"z": 1.2626222467,
				"element": "H" 
			},
			{
				"x": -5.9023262974,
				"y": 0.119275337,
				"z": 0.2704546337,
				"element": "H" 
			},
			{
				"x": -3.9324690811,
				"y": -1.2677107588,
				"z": -0.3869123782,
				"element": "H" 
			},
			{
				"x": -2.8966383486,
				"y": -0.3326789792,
				"z": 0.6804467016,
				"element": "H" 
			},
			{
				"x": -4.4277665038,
				"y": 0.8071053615,
				"z": -1.7234671222,
				"element": "H" 
			},
			{
				"x": -3.3779593504,
				"y": 1.7314429854,
				"z": -0.6630551234,
				"element": "H" 
			},
			{
				"x": -1.42496394,
				"y": 0.2946558656,
				"z": -1.341635664,
				"element": "H" 
			},
			{
				"x": -2.4819130438,
				"y": -0.6447887486,
				"z": -2.3872968223,
				"element": "H" 
			},
			{
				"x": -1.2329373579,
				"y": 0.9669125899,
				"z": -3.7291459435,
				"element": "H" 
			},
			{
				"x": -2.9440691092,
				"y": 1.4091222402,
				"z": -3.7762939155,
				"element": "H" 
			},
			{
				"x": 0.1390133731,
				"y": 3.8338669373,
				"z": -0.3150224251,
				"element": "H" 
			},
			{
				"x": -1.1663554401,
				"y": 4.6805310356,
				"z": -1.207406853,
				"element": "H" 
			},
			{
				"x": 0.8885319174,
				"y": 5.7475066146,
				"z": -1.8086754594,
				"element": "H" 
			},
			{
				"x": 0.3876274061,
				"y": 4.7912228485,
				"z": -3.2089733542,
				"element": "H" 
			},
			{
				"x": 3.0875037716,
				"y": 2.4739676315,
				"z": -2.6638042314,
				"element": "H" 
			},
			{
				"x": 1.4172738897,
				"y": 2.4707936696,
				"z": -3.2597381435,
				"element": "H" 
			},
			{
				"x": 2.8890780226,
				"y": 2.8632670685,
				"z": -5.1397936546,
				"element": "H" 
			},
			{
				"x": 2.0476795438,
				"y": 4.3931343438,
				"z": -4.8155929223,
				"element": "H" 
			},
			{
				"x": 4.8729130263,
				"y": 4.3027690049,
				"z": -6.07767741,
				"element": "H" 
			},
			{
				"x": 3.7697768419,
				"y": 5.6646981394,
				"z": -5.7520584583,
				"element": "H" 
			},
			{
				"x": 6.2632363911,
				"y": 6.2034854188,
				"z": -5.7465029998,
				"element": "H" 
			},
			{
				"x": 6.3957006119,
				"y": 5.2601941835,
				"z": -4.2496075402,
				"element": "H" 
			},
			{
				"x": 4.4666947731,
				"y": 5.9813066817,
				"z": -2.5894173106,
				"element": "H" 
			},
			{
				"x": 4.3488408897,
				"y": 7.758960215,
				"z": -2.5516044806,
				"element": "H" 
			},
			{
				"x": 6.9228775958,
				"y": 6.1488570714,
				"z": -2.1203780621,
				"element": "H" 
			},
			{
				"x": 6.0259153718,
				"y": 7.0421288286,
				"z": -0.8845081282,
				"element": "H" 
			},
			{
				"x": 6.9152247678,
				"y": 8.3213333411,
				"z": -3.2085940347,
				"element": "H" 
			}
		],
		 "valence_orbital": [ 
			{
				"type": "occ",
				"energy": -0.27323,
				"method": "rhf"
			},
			{
				"type": "occ",
				"energy": -0.27291,
				"method": "rhf"
			},
			{
				"type": "occ",
				"energy": -0.2622,
				"method": "rhf"
			},
			{
				"type": "occ",
				"energy": -0.25599,
				"method": "rhf"
			},
			{
				"type": "occ",
				"energy": -0.24093,
				"method": "rhf"
			},
			{
				"type": "unocc",
				"energy": 0.00517,
				"method": "rhf"
			},
			{
				"type": "unocc",
				"energy": 0.07259,
				"method": "rhf"
			},
			{
				"type": "unocc",
				"energy": 0.08106,
				"method": "rhf"
			},
			{
				"type": "unocc",
				"energy": 0.08312,
				"method": "rhf"
			},
			{
				"type": "unocc",
				"energy": 0.08658,
				"method": "rhf"
			}
		],
		"cosmo_sigma_profile": { 
			"-0.025": 0.0,
			"-0.024": 0.0,
			"-0.023": 0.0,
			"-0.022": 0.0,
			"-0.021": 0.0,
			"-0.02": 0.0,
			"-0.019": 0.0,
			"-0.018": 0.0,
			"-0.017": 0.0,
			"-0.016": 0.0,
			"-0.015": 0.0,
			"-0.014": 0.0,
			"-0.013": 0.0,
			"-0.012": 0.0346015500256,
			"-0.011": 0.59453585741,
			"-0.01": 0.375112060426,
			"-0.009": 0.813404904835,
			"-0.008": 0.785019785303,
			"-0.007": 0.159036418002,
			"-0.006": 9.50098657606,
			"-0.005": 26.9324162098,
			"-0.004": 45.7655541649,
			"-0.003": 48.4110089173,
			"-0.002": 76.311569928,
			"-0.001": 111.474989856,
			"0.0": 103.753307322,
			"0.001": 85.9405896499,
			"0.002": 40.0150229565,
			"0.003": 10.5599614286,
			"0.004": 9.56854454472,
			"0.005": 8.75777315252,
			"0.006": 7.69561059609,
			"0.007": 6.35932126337,
			"0.008": 6.45404830108,
			"0.009": 7.21745838691,
			"0.01": 5.57247381569,
			"0.011": 4.92416073487,
			"0.012": 7.85778268738,
			"0.013": 4.48144969222,
			"0.014": 2.36859889252,
			"0.015": 1.79229815284,
			"0.016": 0.0,
			"0.017": 0.0,
			"0.018": 0.0,
			"0.019": 0.0,
			"0.02": 0.0,
			"0.021": 0.0,
			"0.022": 0.0,
			"0.023": 0.0,
			"0.024": 0.0,
			"0.025": 0.0
		}
	}
}
