{
	 "smiles": "CCOC(=O)CC(C)(O)C1=CC(O)=CC=C1", 
	 "Tm": 359.15, 
	 "num_atms": 32, 
	 "gaussian": { 
		 "optdone": 1, 
		 "sigma_profile": "yes", 
		 "theory": "DFT", 
		 "functional": "B3LYP", 
		 "basiset": "6-31G**", 
		 "properties": { 
			 "R2extent": 4149.7967, 
			 "electric_dipole_moment_norm": 3.05078106229, 
			 "electric_quadrupole_moment_norm": 12.2273666347, 
			 "total_energy": -767.83501187, 
			 "HOMO_LUMO_gap": 0.21559, 
			 "cosmo_polarized_energy": -14.34, 
			 "cosmo_cavitation_energy": 34.79, 
			 "cosmo_dispersion_energy": -23.55, 
			 "cosmo_repulsion_energy": 1.87, 
			 "cosmo_total_nonelectrostatic_energy": 13.11, 
			 "SMD_solvation_energy": 7.13 
		},
		"coords": [
			{
				"x": -2.3166641773,
				"y": 0.8595485922,
				"z": -3.6831048367,
				"element": "C" 
			},
			{
				"x": -2.0901616931,
				"y": -0.6117950135,
				"z": -3.9933448674,
				"element": "C" 
			},
			{
				"x": -1.6668246548,
				"y": -1.3357987914,
				"z": -2.8074091501,
				"element": "O" 
			},
			{
				"x": -0.3548042495,
				"y": -1.3310007168,
				"z": -2.5286725517,
				"element": "C" 
			},
			{
				"x": 0.4811953914,
				"y": -0.7659875784,
				"z": -3.2174864698,
				"element": "O" 
			},
			{
				"x": -0.029254206,
				"y": -2.1254534232,
				"z": -1.2819171783,
				"element": "C" 
			},
			{
				"x": 1.0977738021,
				"y": -1.4645887495,
				"z": -0.4396228871,
				"element": "C" 
			},
			{
				"x": 1.4151781807,
				"y": -2.3436092733,
				"z": 0.7784382289,
				"element": "C" 
			},
			{
				"x": 2.2897151891,
				"y": -1.4324892878,
				"z": -1.2130264705,
				"element": "O" 
			},
			{
				"x": 0.6951756839,
				"y": -0.0530043729,
				"z": 0.0290482983,
				"element": "C" 
			},
			{
				"x": -0.5614191389,
				"y": 0.1886187608,
				"z": 0.595896282,
				"element": "C" 
			},
			{
				"x": -0.901762593,
				"y": 1.4658042585,
				"z": 1.0514892665,
				"element": "C" 
			},
			{
				"x": -2.1503403254,
				"y": 1.6238342066,
				"z": 1.5899747543,
				"element": "O" 
			},
			{
				"x": 0.0135248681,
				"y": 2.5176428493,
				"z": 0.9471386345,
				"element": "C" 
			},
			{
				"x": 1.2673854368,
				"y": 2.2735193617,
				"z": 0.3875749913,
				"element": "C" 
			},
			{
				"x": 1.6120349711,
				"y": 1.0018096162,
				"z": -0.0689371396,
				"element": "C" 
			},
			{
				"x": -2.7074948508,
				"y": 1.3681298004,
				"z": -4.5707307917,
				"element": "H" 
			},
			{
				"x": -1.3790606119,
				"y": 1.34091235,
				"z": -3.3954727016,
				"element": "H" 
			},
			{
				"x": -3.0389837984,
				"y": 0.9793718204,
				"z": -2.8706738981,
				"element": "H" 
			},
			{
				"x": -3.0157597284,
				"y": -1.1082698289,
				"z": -4.2932196323,
				"element": "H" 
			},
			{
				"x": -1.3362835614,
				"y": -0.7429508213,
				"z": -4.7728160932,
				"element": "H" 
			},
			{
				"x": 0.3380200417,
				"y": -3.1069226492,
				"z": -1.605779867,
				"element": "H" 
			},
			{
				"x": -0.9402431175,
				"y": -2.2896264323,
				"z": -0.7041515239,
				"element": "H" 
			},
			{
				"x": 1.7083032614,
				"y": -3.3458420184,
				"z": 0.4510557846,
				"element": "H" 
			},
			{
				"x": 2.2482175122,
				"y": -1.9044692042,
				"z": 1.3333311585,
				"element": "H" 
			},
			{
				"x": 0.554405949,
				"y": -2.4210311736,
				"z": 1.4483754078,
				"element": "H" 
			},
			{
				"x": 2.0426568236,
				"y": -1.04852996,
				"z": -2.0738882136,
				"element": "H" 
			},
			{
				"x": -1.3018024698,
				"y": -0.5973524661,
				"z": 0.7048604884,
				"element": "H" 
			},
			{
				"x": -2.2548449637,
				"y": 2.5405729303,
				"z": 1.8754401015,
				"element": "H" 
			},
			{
				"x": -0.2522836661,
				"y": 3.5121206566,
				"z": 1.3000266331,
				"element": "H" 
			},
			{
				"x": 1.9823463083,
				"y": 3.0876987286,
				"z": 0.3069705396,
				"element": "H" 
			},
			{
				"x": 2.5870543864,
				"y": 0.8108378292,
				"z": -0.5001662967,
				"element": "H" 
			}
		],
		 "valence_orbital": [ 
			{
				"type": "occ",
				"energy": -0.30645,
				"method": "rhf"
			},
			{
				"type": "occ",
				"energy": -0.27722,
				"method": "rhf"
			},
			{
				"type": "occ",
				"energy": -0.262,
				"method": "rhf"
			},
			{
				"type": "occ",
				"energy": -0.24271,
				"method": "rhf"
			},
			{
				"type": "occ",
				"energy": -0.21731,
				"method": "rhf"
			},
			{
				"type": "unocc",
				"energy": -0.00172,
				"method": "rhf"
			},
			{
				"type": "unocc",
				"energy": 0.00121,
				"method": "rhf"
			},
			{
				"type": "unocc",
				"energy": 0.02036,
				"method": "rhf"
			},
			{
				"type": "unocc",
				"energy": 0.07183,
				"method": "rhf"
			},
			{
				"type": "unocc",
				"energy": 0.0868,
				"method": "rhf"
			}
		],
		"cosmo_sigma_profile": { 
			"-0.025": 0.0,
			"-0.024": 0.0,
			"-0.023": 0.0,
			"-0.022": 0.0,
			"-0.021": 0.0,
			"-0.02": 0.0,
			"-0.019": 0.0,
			"-0.018": 0.245202059324,
			"-0.017": 1.16063205703,
			"-0.016": 0.823033458463,
			"-0.015": 1.17228729673,
			"-0.014": 0.982104357185,
			"-0.013": 0.966333414525,
			"-0.012": 0.940308526696,
			"-0.011": 0.898909918264,
			"-0.01": 0.699417096108,
			"-0.009": 1.76366532215,
			"-0.008": 1.43409140518,
			"-0.007": 5.26098340674,
			"-0.006": 9.80518046701,
			"-0.005": 16.3260244281,
			"-0.004": 24.2112828011,
			"-0.003": 27.5154558843,
			"-0.002": 21.628411223,
			"-0.001": 20.941959829,
			"0.0": 23.6628880562,
			"0.001": 18.2874356672,
			"0.002": 13.2490833525,
			"0.003": 13.4909037651,
			"0.004": 12.3384477341,
			"0.005": 15.1567507137,
			"0.006": 11.1436550071,
			"0.007": 5.46508656216,
			"0.008": 5.43806052989,
			"0.009": 4.22438622198,
			"0.01": 4.04180692573,
			"0.011": 4.60039761623,
			"0.012": 2.26554167152,
			"0.013": 1.48843020202,
			"0.014": 1.38227221321,
			"0.015": 0.163094879433,
			"0.016": 0.0,
			"0.017": 0.0,
			"0.018": 0.0,
			"0.019": 0.0,
			"0.02": 0.0,
			"0.021": 0.0,
			"0.022": 0.0,
			"0.023": 0.0,
			"0.024": 0.0,
			"0.025": 0.0
		}
	}
}
