{
	 "smiles": "BrCC1=CC(CBr)=C(CBr)C=C1CBr", 
	 "Tm": 432.15, 
	 "num_atms": 24, 
	 "gaussian": { 
		 "optdone": 1, 
		 "sigma_profile": "yes", 
		 "theory": "DFT", 
		 "functional": "B3LYP", 
		 "basiset": "6-31G**", 
		 "properties": { 
			 "R2extent": 11157.0635, 
			 "electric_dipole_moment_norm": 3.08867130818, 
			 "electric_quadrupole_moment_norm": 13.8786971831, 
			 "total_energy": -10672.7281596, 
			 "HOMO_LUMO_gap": 0.18139, 
			 "cosmo_polarized_energy": -13.87, 
			 "cosmo_cavitation_energy": 36.23, 
			 "cosmo_dispersion_energy": -26.28, 
			 "cosmo_repulsion_energy": 2.12, 
			 "cosmo_total_nonelectrostatic_energy": 12.06, 
			 "SMD_solvation_energy": 1.2 
		},
		"coords": [
			{
				"x": 2.0222965406,
				"y": -2.0391209331,
				"z": 2.3842266952,
				"element": "Br" 
			},
			{
				"x": 0.6740969588,
				"y": -0.5724690978,
				"z": 2.6439231545,
				"element": "C" 
			},
			{
				"x": -0.1048226313,
				"y": -0.2965908642,
				"z": 1.398014243,
				"element": "C" 
			},
			{
				"x": 0.2417622492,
				"y": 0.7973999928,
				"z": 0.6054081631,
				"element": "C" 
			},
			{
				"x": -0.4595423652,
				"y": 1.1418177405,
				"z": -0.5559791902,
				"element": "C" 
			},
			{
				"x": -0.0057672786,
				"y": 2.3345815893,
				"z": -1.3455284171,
				"element": "C" 
			},
			{
				"x": -0.2576192226,
				"y": 4.0410812883,
				"z": -0.3409100291,
				"element": "Br" 
			},
			{
				"x": -1.5526014329,
				"y": 0.3423195261,
				"z": -0.9474140168,
				"element": "C" 
			},
			{
				"x": -2.3326467481,
				"y": 0.5794247652,
				"z": -2.2039488867,
				"element": "C" 
			},
			{
				"x": -3.6172753725,
				"y": 2.1030589913,
				"z": -2.0468429073,
				"element": "Br" 
			},
			{
				"x": -1.9019038198,
				"y": -0.7547272861,
				"z": -0.1482909259,
				"element": "C" 
			},
			{
				"x": -1.2040719512,
				"y": -1.0954417731,
				"z": 1.0106502057,
				"element": "C" 
			},
			{
				"x": -1.6134071231,
				"y": -2.308886749,
				"z": 1.7822669447,
				"element": "C" 
			},
			{
				"x": -2.7041710585,
				"y": -1.8496925602,
				"z": 3.4034699991,
				"element": "Br" 
			},
			{
				"x": 0.0542575436,
				"y": -0.9177475783,
				"z": 3.4686225786,
				"element": "H" 
			},
			{
				"x": 1.2664185446,
				"y": 0.2852277164,
				"z": 2.9543975231,
				"element": "H" 
			},
			{
				"x": 1.0789614487,
				"y": 1.4208124516,
				"z": 0.9083815977,
				"element": "H" 
			},
			{
				"x": -0.5567610627,
				"y": 2.4840395186,
				"z": -2.2689522762,
				"element": "H" 
			},
			{
				"x": 1.063703483,
				"y": 2.3060092994,
				"z": -1.5508007139,
				"element": "H" 
			},
			{
				"x": -1.7118356867,
				"y": 0.8349000574,
				"z": -3.0606077601,
				"element": "H" 
			},
			{
				"x": -2.9528863639,
				"y": -0.2781179524,
				"z": -2.455732903,
				"element": "H" 
			},
			{
				"x": -2.7501961135,
				"y": -1.3663481741,
				"z": -0.4454365732,
				"element": "H" 
			},
			{
				"x": -0.767945296,
				"y": -2.8700041693,
				"z": 2.1749432793,
				"element": "H" 
			},
			{
				"x": -2.2585432419,
				"y": -2.9641257991,
				"z": 1.2011402154,
				"element": "H" 
			}
		],
		 "valence_orbital": [ 
			{
				"type": "occ",
				"energy": -0.28148,
				"method": "rhf"
			},
			{
				"type": "occ",
				"energy": -0.27662,
				"method": "rhf"
			},
			{
				"type": "occ",
				"energy": -0.27462,
				"method": "rhf"
			},
			{
				"type": "occ",
				"energy": -0.26739,
				"method": "rhf"
			},
			{
				"type": "occ",
				"energy": -0.25838,
				"method": "rhf"
			},
			{
				"type": "unocc",
				"energy": -0.07699,
				"method": "rhf"
			},
			{
				"type": "unocc",
				"energy": -0.05155,
				"method": "rhf"
			},
			{
				"type": "unocc",
				"energy": -0.02485,
				"method": "rhf"
			},
			{
				"type": "unocc",
				"energy": -0.00296,
				"method": "rhf"
			},
			{
				"type": "unocc",
				"energy": 0.01057,
				"method": "rhf"
			}
		],
		"cosmo_sigma_profile": { 
			"-0.025": 0.0,
			"-0.024": 0.0,
			"-0.023": 0.0,
			"-0.022": 0.0,
			"-0.021": 0.0,
			"-0.02": 0.0,
			"-0.019": 0.0,
			"-0.018": 0.0,
			"-0.017": 0.0,
			"-0.016": 0.0,
			"-0.015": 0.0,
			"-0.014": 0.0,
			"-0.013": 0.0,
			"-0.012": 0.0,
			"-0.011": 0.0811545951673,
			"-0.01": 1.26179118881,
			"-0.009": 6.88263771545,
			"-0.008": 15.1903932196,
			"-0.007": 14.0294583461,
			"-0.006": 14.5544792268,
			"-0.005": 17.9469232622,
			"-0.004": 13.8206621788,
			"-0.003": 12.7150420455,
			"-0.002": 15.7761809596,
			"-0.001": 15.8215344842,
			"0.0": 15.8337129104,
			"0.001": 18.8022698338,
			"0.002": 23.8412115723,
			"0.003": 22.9859255652,
			"0.004": 23.8809425574,
			"0.005": 30.1593028048,
			"0.006": 35.4068581562,
			"0.007": 2.31988199875,
			"0.008": 0.0,
			"0.009": 0.0,
			"0.01": 0.0,
			"0.011": 0.0,
			"0.012": 0.0,
			"0.013": 0.0,
			"0.014": 0.0,
			"0.015": 0.0,
			"0.016": 0.0,
			"0.017": 0.0,
			"0.018": 0.0,
			"0.019": 0.0,
			"0.02": 0.0,
			"0.021": 0.0,
			"0.022": 0.0,
			"0.023": 0.0,
			"0.024": 0.0,
			"0.025": 0.0
		}
	}
}
