{
	 "smiles": "[O-][N+](=O)C1=CN=C(I)C=C1", 
	 "Tm": 438.65, 
	 "num_atms": 13, 
	 "gaussian": { 
		 "optdone": 1, 
		 "sigma_profile": "no", 
		 "theory": "DFT", 
		 "functional": "B3LYP", 
		 "basiset": "6-31G**", 
		 "properties": { 
			 "R2extent": 2284.3081, 
			 "electric_dipole_moment_norm": 2.78801733316, 
			 "electric_quadrupole_moment_norm": 11.3316497007, 
			 "total_energy": -463.560961702, 
			 "HOMO_LUMO_gap": 0.16185, 
			 "cosmo_polarized_energy": -103564.91, 
			 "cosmo_cavitation_energy": 21.93, 
			 "cosmo_dispersion_energy": -17.77, 
			 "cosmo_repulsion_energy": 1.4, 
			 "cosmo_total_nonelectrostatic_energy": 5.56, 
			 "SMD_solvation_energy": 3.81 
		},
		"coords": [
			{
				"x": -0.2537556109,
				"y": 3.9069044581,
				"z": -0.3003411457,
				"element": "O" 
			},
			{
				"x": -0.8514319079,
				"y": 3.0094131634,
				"z": -0.8906997332,
				"element": "N" 
			},
			{
				"x": -1.2806263504,
				"y": 3.0774635341,
				"z": -2.0412954148,
				"element": "O" 
			},
			{
				"x": -1.0710300043,
				"y": 1.7537012583,
				"z": -0.1637488755,
				"element": "C" 
			},
			{
				"x": -0.606336104,
				"y": 1.6199737378,
				"z": 1.1430353781,
				"element": "C" 
			},
			{
				"x": -0.7862674641,
				"y": 0.4921368034,
				"z": 1.8393519383,
				"element": "N" 
			},
			{
				"x": -1.4247041113,
				"y": -0.5073047577,
				"z": 1.2498459507,
				"element": "C" 
			},
			{
				"x": -1.6908190985,
				"y": -2.2827335527,
				"z": 2.3885341261,
				"element": "I" 
			},
			{
				"x": -1.9281730852,
				"y": -0.4678175215,
				"z": -0.0584278457,
				"element": "C" 
			},
			{
				"x": -1.7429538146,
				"y": 0.702091633,
				"z": -0.7842651385,
				"element": "C" 
			},
			{
				"x": -0.0830963344,
				"y": 2.4368393888,
				"z": 1.6283837354,
				"element": "H" 
			},
			{
				"x": -2.4426037443,
				"y": -1.3194418252,
				"z": -0.4861083806,
				"element": "H" 
			},
			{
				"x": -2.1012023699,
				"y": 0.8141736802,
				"z": -1.8007645945,
				"element": "H" 
			}
		],
		 "valence_orbital": [ 
			{
				"type": "occ",
				"energy": -0.32124,
				"method": "rhf"
			},
			{
				"type": "occ",
				"energy": -0.31035,
				"method": "rhf"
			},
			{
				"type": "occ",
				"energy": -0.29753,
				"method": "rhf"
			},
			{
				"type": "occ",
				"energy": -0.28178,
				"method": "rhf"
			},
			{
				"type": "occ",
				"energy": -0.27244,
				"method": "rhf"
			},
			{
				"type": "unocc",
				"energy": -0.11059,
				"method": "rhf"
			},
			{
				"type": "unocc",
				"energy": -0.06539,
				"method": "rhf"
			},
			{
				"type": "unocc",
				"energy": -0.05743,
				"method": "rhf"
			},
			{
				"type": "unocc",
				"energy": -0.0284,
				"method": "rhf"
			},
			{
				"type": "unocc",
				"energy": 0.03825,
				"method": "rhf"
			}
		],
		"cosmo_sigma_profile": { 
			"0.0": 0.0,
			"0.0": 0.0,
			"0.0": 0.0,
			"0.0": 0.0,
			"0.0": 0.0,
			"0.0": 0.0,
			"0.0": 0.0,
			"0.0": 0.0,
			"0.0": 0.0,
			"0.0": 0.0,
			"0.0": 0.0,
			"0.0": 0.0,
			"0.0": 0.0,
			"0.0": 0.0,
			"0.0": 0.0,
			"0.0": 0.0,
			"0.0": 0.0,
			"0.0": 0.0,
			"0.0": 0.0,
			"0.0": 0.0,
			"0.0": 0.0,
			"0.0": 0.0,
			"0.0": 0.0,
			"0.0": 0.0,
			"0.0": 0.0,
			"0.0": 0.0,
			"0.0": 0.0,
			"0.0": 0.0,
			"0.0": 0.0,
			"0.0": 0.0,
			"0.0": 0.0,
			"0.0": 0.0,
			"0.0": 0.0,
			"0.0": 0.0,
			"0.0": 0.0,
			"0.0": 0.0,
			"0.0": 0.0,
			"0.0": 0.0,
			"0.0": 0.0,
			"0.0": 0.0,
			"0.0": 0.0,
			"0.0": 0.0,
			"0.0": 0.0,
			"0.0": 0.0,
			"0.0": 0.0,
			"0.0": 0.0,
			"0.0": 0.0,
			"0.0": 0.0,
			"0.0": 0.0,
			"0.0": 0.0,
			"0.0": 0.0
		}
	}
}
