{
	 "smiles": "CN(CC(=O)NC1=CC=C(F)C=C1)C(=O)CCl", 
	 "Tm": 433.15, 
	 "num_atms": 29, 
	 "gaussian": { 
		 "optdone": 1, 
		 "sigma_profile": "yes", 
		 "theory": "DFT", 
		 "functional": "B3LYP", 
		 "basiset": "6-31G**", 
		 "properties": { 
			 "R2extent": 6512.7375, 
			 "electric_dipole_moment_norm": 4.97178369401, 
			 "electric_quadrupole_moment_norm": 5.75716538585, 
			 "total_energy": -1246.40842267, 
			 "HOMO_LUMO_gap": 0.17285, 
			 "cosmo_polarized_energy": -14.68, 
			 "cosmo_cavitation_energy": 35.33, 
			 "cosmo_dispersion_energy": -24.56, 
			 "cosmo_repulsion_energy": 1.88, 
			 "cosmo_total_nonelectrostatic_energy": 12.66, 
			 "SMD_solvation_energy": 6.92 
		},
		"coords": [
			{
				"x": -2.2282292403,
				"y": -0.0149836827,
				"z": -1.4623801839,
				"element": "C" 
			},
			{
				"x": -1.3265352487,
				"y": -0.9255110559,
				"z": -0.7582180216,
				"element": "N" 
			},
			{
				"x": -1.7032172992,
				"y": -1.2742031719,
				"z": 0.6171135994,
				"element": "C" 
			},
			{
				"x": -1.164239019,
				"y": -0.2692098154,
				"z": 1.6534677477,
				"element": "C" 
			},
			{
				"x": -1.9076859749,
				"y": 0.5469737532,
				"z": 2.1865279904,
				"element": "O" 
			},
			{
				"x": 0.1793741307,
				"y": -0.3972323095,
				"z": 1.8722474398,
				"element": "N" 
			},
			{
				"x": 1.0113591538,
				"y": 0.3824544906,
				"z": 2.7044629291,
				"element": "C" 
			},
			{
				"x": 0.5270582091,
				"y": 1.3935418886,
				"z": 3.5499533172,
				"element": "C" 
			},
			{
				"x": 1.4162137205,
				"y": 2.1122106658,
				"z": 4.3488629886,
				"element": "C" 
			},
			{
				"x": 2.7734299589,
				"y": 1.8211285842,
				"z": 4.3021322382,
				"element": "C" 
			},
			{
				"x": 3.6284743509,
				"y": 2.5217195763,
				"z": 5.0798866145,
				"element": "F" 
			},
			{
				"x": 3.2745936716,
				"y": 0.8247744454,
				"z": 3.4724240104,
				"element": "C" 
			},
			{
				"x": 2.3881898915,
				"y": 0.1075107836,
				"z": 2.6742736348,
				"element": "C" 
			},
			{
				"x": -0.1336639747,
				"y": -1.3867264234,
				"z": -1.220951319,
				"element": "C" 
			},
			{
				"x": 0.6492873611,
				"y": -2.0198872244,
				"z": -0.5045470827,
				"element": "O" 
			},
			{
				"x": 0.2266893637,
				"y": -1.1513746309,
				"z": -2.6857499796,
				"element": "C" 
			},
			{
				"x": 0.9160082677,
				"y": 0.5069676046,
				"z": -2.9503889029,
				"element": "Cl" 
			},
			{
				"x": -1.7592542237,
				"y": 0.3887841671,
				"z": -2.3573178463,
				"element": "H" 
			},
			{
				"x": -3.1600162559,
				"y": -0.5245997417,
				"z": -1.7356472362,
				"element": "H" 
			},
			{
				"x": -2.4721993989,
				"y": 0.8254559605,
				"z": -0.8055753839,
				"element": "H" 
			},
			{
				"x": -2.7913508313,
				"y": -1.2575352664,
				"z": 0.692533833,
				"element": "H" 
			},
			{
				"x": -1.3351071899,
				"y": -2.2814813048,
				"z": 0.8260604982,
				"element": "H" 
			},
			{
				"x": 0.6422099519,
				"y": -1.0915553796,
				"z": 1.2879468374,
				"element": "H" 
			},
			{
				"x": -0.5322621263,
				"y": 1.6067125988,
				"z": 3.5697511085,
				"element": "H" 
			},
			{
				"x": 1.0609926979,
				"y": 2.897109448,
				"z": 5.0080020301,
				"element": "H" 
			},
			{
				"x": 4.3396620492,
				"y": 0.6212150308,
				"z": 3.4560729554,
				"element": "H" 
			},
			{
				"x": 2.7666964671,
				"y": -0.6717315484,
				"z": 2.017989865,
				"element": "H" 
			},
			{
				"x": 1.0097691629,
				"y": -1.8626876995,
				"z": -2.9384954289,
				"element": "H" 
			},
			{
				"x": -0.6192476257,
				"y": -1.261139743,
				"z": -3.3647382527,
				"element": "H" 
			}
		],
		 "valence_orbital": [ 
			{
				"type": "occ",
				"energy": -0.28814,
				"method": "rhf"
			},
			{
				"type": "occ",
				"energy": -0.27917,
				"method": "rhf"
			},
			{
				"type": "occ",
				"energy": -0.25632,
				"method": "rhf"
			},
			{
				"type": "occ",
				"energy": -0.2491,
				"method": "rhf"
			},
			{
				"type": "occ",
				"energy": -0.21418,
				"method": "rhf"
			},
			{
				"type": "unocc",
				"energy": -0.04133,
				"method": "rhf"
			},
			{
				"type": "unocc",
				"energy": -0.0135,
				"method": "rhf"
			},
			{
				"type": "unocc",
				"energy": -0.00655,
				"method": "rhf"
			},
			{
				"type": "unocc",
				"energy": 0.03766,
				"method": "rhf"
			},
			{
				"type": "unocc",
				"energy": 0.04013,
				"method": "rhf"
			}
		],
		"cosmo_sigma_profile": { 
			"-0.025": 0.0,
			"-0.024": 0.0,
			"-0.023": 0.0,
			"-0.022": 0.0,
			"-0.021": 0.0,
			"-0.02": 0.0,
			"-0.019": 0.0,
			"-0.018": 0.0,
			"-0.017": 0.0,
			"-0.016": 0.0,
			"-0.015": 0.0,
			"-0.014": 0.0,
			"-0.013": 0.0,
			"-0.012": 0.0,
			"-0.011": 0.0,
			"-0.01": 0.241949677782,
			"-0.009": 4.17668061319,
			"-0.008": 6.33297659262,
			"-0.007": 13.81201397,
			"-0.006": 19.5993097817,
			"-0.005": 20.6672338556,
			"-0.004": 21.8447233083,
			"-0.003": 18.7823314554,
			"-0.002": 13.8904845059,
			"-0.001": 14.923434322,
			"0.0": 15.0350398862,
			"0.001": 18.4265879749,
			"0.002": 21.7204751154,
			"0.003": 23.7399520049,
			"0.004": 26.3178714984,
			"0.005": 17.5015811241,
			"0.006": 4.30369420979,
			"0.007": 2.56951297352,
			"0.008": 2.62919648995,
			"0.009": 2.13776434474,
			"0.01": 3.0261745251,
			"0.011": 3.11311490054,
			"0.012": 4.99694115814,
			"0.013": 3.63077656288,
			"0.014": 0.676079544094,
			"0.015": 0.0,
			"0.016": 0.0,
			"0.017": 0.0,
			"0.018": 0.0,
			"0.019": 0.0,
			"0.02": 0.0,
			"0.021": 0.0,
			"0.022": 0.0,
			"0.023": 0.0,
			"0.024": 0.0,
			"0.025": 0.0
		}
	}
}
