{
	 "smiles": "CCN(CC1=CC=CC=C1)C1=CC=C(C=C1)C(O)=O", 
	 "Tm": 457.15, 
	 "num_atms": 36, 
	 "gaussian": { 
		 "optdone": 1, 
		 "sigma_profile": "yes", 
		 "theory": "DFT", 
		 "functional": "B3LYP", 
		 "basiset": "6-31G**", 
		 "properties": { 
			 "R2extent": 7213.3153, 
			 "electric_dipole_moment_norm": 7.33550640379, 
			 "electric_quadrupole_moment_norm": 37.1301008916, 
			 "total_energy": -825.160454055, 
			 "HOMO_LUMO_gap": 0.17621, 
			 "cosmo_polarized_energy": -18.33, 
			 "cosmo_cavitation_energy": 38.89, 
			 "cosmo_dispersion_energy": -27.29, 
			 "cosmo_repulsion_energy": 2.1, 
			 "cosmo_total_nonelectrostatic_energy": 13.7, 
			 "SMD_solvation_energy": 7.63 
		},
		"coords": [
			{
				"x": 0.512734646,
				"y": -1.093723665,
				"z": 3.175865943,
				"element": "C" 
			},
			{
				"x": 0.6935270706,
				"y": -1.5317201105,
				"z": 1.7166598627,
				"element": "C" 
			},
			{
				"x": 0.3214587209,
				"y": -0.5141351109,
				"z": 0.7333149044,
				"element": "N" 
			},
			{
				"x": -1.0787415982,
				"y": -0.4708367758,
				"z": 0.3398081207,
				"element": "C" 
			},
			{
				"x": -1.4339948172,
				"y": -1.1938343224,
				"z": -0.9574096459,
				"element": "C" 
			},
			{
				"x": -2.7620266576,
				"y": -1.1652441527,
				"z": -1.4064370469,
				"element": "C" 
			},
			{
				"x": -3.1327379531,
				"y": -1.825682197,
				"z": -2.5763234761,
				"element": "C" 
			},
			{
				"x": -2.1772827101,
				"y": -2.5265396223,
				"z": -3.3176749461,
				"element": "C" 
			},
			{
				"x": -0.8541958342,
				"y": -2.5579529097,
				"z": -2.8788346145,
				"element": "C" 
			},
			{
				"x": -0.484573041,
				"y": -1.8951053436,
				"z": -1.7050615216,
				"element": "C" 
			},
			{
				"x": 1.2175665504,
				"y": 0.4467760113,
				"z": 0.2976950963,
				"element": "C" 
			},
			{
				"x": 2.5082259291,
				"y": 0.5777967486,
				"z": 0.8701662605,
				"element": "C" 
			},
			{
				"x": 3.3951313654,
				"y": 1.5413882988,
				"z": 0.419403754,
				"element": "C" 
			},
			{
				"x": 3.0620829228,
				"y": 2.4161253901,
				"z": -0.6258547518,
				"element": "C" 
			},
			{
				"x": 1.7822968543,
				"y": 2.2982716844,
				"z": -1.1881772584,
				"element": "C" 
			},
			{
				"x": 0.8792586233,
				"y": 1.3405593794,
				"z": -0.7479192987,
				"element": "C" 
			},
			{
				"x": 4.0712801654,
				"y": 3.4273786556,
				"z": -1.0427211185,
				"element": "C" 
			},
			{
				"x": 3.8695178312,
				"y": 4.0443772504,
				"z": -2.2439389595,
				"element": "O" 
			},
			{
				"x": 5.0428750793,
				"y": 3.7201600278,
				"z": -0.3815327338,
				"element": "O" 
			},
			{
				"x": 0.7948405118,
				"y": -1.9051430773,
				"z": 3.8551664057,
				"element": "H" 
			},
			{
				"x": 1.1289822643,
				"y": -0.2209249817,
				"z": 3.4090052768,
				"element": "H" 
			},
			{
				"x": -0.5302886049,
				"y": -0.8314303691,
				"z": 3.3811778776,
				"element": "H" 
			},
			{
				"x": 0.0795217765,
				"y": -2.4163413724,
				"z": 1.5159387378,
				"element": "H" 
			},
			{
				"x": 1.7278629201,
				"y": -1.8391889009,
				"z": 1.5351736227,
				"element": "H" 
			},
			{
				"x": -1.4083536483,
				"y": 0.573537693,
				"z": 0.2789762196,
				"element": "H" 
			},
			{
				"x": -1.6637741669,
				"y": -0.9106887082,
				"z": 1.1565682765,
				"element": "H" 
			},
			{
				"x": -3.5115899564,
				"y": -0.6216923123,
				"z": -0.8344370253,
				"element": "H" 
			},
			{
				"x": -4.1659728647,
				"y": -1.7936917512,
				"z": -2.9105228638,
				"element": "H" 
			},
			{
				"x": -2.4640432377,
				"y": -3.0413929356,
				"z": -4.2299791737,
				"element": "H" 
			},
			{
				"x": -0.1037684209,
				"y": -3.0973591854,
				"z": -3.4499800224,
				"element": "H" 
			},
			{
				"x": 0.5475059054,
				"y": -1.9155000299,
				"z": -1.3696947176,
				"element": "H" 
			},
			{
				"x": 2.8129727528,
				"y": -0.0639117594,
				"z": 1.6874310088,
				"element": "H" 
			},
			{
				"x": 4.3734779496,
				"y": 1.6413899923,
				"z": 0.8776942726,
				"element": "H" 
			},
			{
				"x": 1.452303276,
				"y": 2.9768236244,
				"z": -1.9723449391,
				"element": "H" 
			},
			{
				"x": -0.0839521203,
				"y": 1.2693457282,
				"z": -1.2373244109,
				"element": "H" 
			},
			{
				"x": 3.1651725163,
				"y": 3.5959091089,
				"z": -2.7309771153,
				"element": "H" 
			}
		],
		 "valence_orbital": [ 
			{
				"type": "occ",
				"energy": -0.26204,
				"method": "rhf"
			},
			{
				"type": "occ",
				"energy": -0.25746,
				"method": "rhf"
			},
			{
				"type": "occ",
				"energy": -0.256,
				"method": "rhf"
			},
			{
				"type": "occ",
				"energy": -0.2505,
				"method": "rhf"
			},
			{
				"type": "occ",
				"energy": -0.20538,
				"method": "rhf"
			},
			{
				"type": "unocc",
				"energy": -0.02917,
				"method": "rhf"
			},
			{
				"type": "unocc",
				"energy": -0.01599,
				"method": "rhf"
			},
			{
				"type": "unocc",
				"energy": -0.00708,
				"method": "rhf"
			},
			{
				"type": "unocc",
				"energy": -0.00622,
				"method": "rhf"
			},
			{
				"type": "unocc",
				"energy": 0.06293,
				"method": "rhf"
			}
		],
		"cosmo_sigma_profile": { 
			"-0.025": 0.0,
			"-0.024": 0.0,
			"-0.023": 0.0,
			"-0.022": 0.0,
			"-0.021": 0.0,
			"-0.02": 0.0,
			"-0.019": 0.0,
			"-0.018": 0.307500836631,
			"-0.017": 1.32804062793,
			"-0.016": 0.52907932217,
			"-0.015": 0.907556256854,
			"-0.014": 1.03146019971,
			"-0.013": 0.836380694946,
			"-0.012": 0.842324491327,
			"-0.011": 1.74586549668,
			"-0.01": 1.05758678405,
			"-0.009": 0.835575203139,
			"-0.008": 1.21271070867,
			"-0.007": 2.02631610523,
			"-0.006": 12.5673544247,
			"-0.005": 27.4155438969,
			"-0.004": 28.4088558765,
			"-0.003": 29.3054109553,
			"-0.002": 26.7289918287,
			"-0.001": 23.0326539303,
			"0.0": 20.9647713143,
			"0.001": 18.8537441702,
			"0.002": 16.5263905115,
			"0.003": 16.8490043371,
			"0.004": 18.3041569314,
			"0.005": 17.7343338722,
			"0.006": 10.367382802,
			"0.007": 4.22070234525,
			"0.008": 2.46187571056,
			"0.009": 2.5114024571,
			"0.01": 3.67973662495,
			"0.011": 4.75836304424,
			"0.012": 5.61753121615,
			"0.013": 4.60767354547,
			"0.014": 1.29062287653,
			"0.015": 0.0115328842565,
			"0.016": 0.0,
			"0.017": 0.0,
			"0.018": 0.0,
			"0.019": 0.0,
			"0.02": 0.0,
			"0.021": 0.0,
			"0.022": 0.0,
			"0.023": 0.0,
			"0.024": 0.0,
			"0.025": 0.0
		}
	}
}
