{
	 "smiles": "OC(=O)CCCNC(=O)C1=CC=C(Cl)C=C1", 
	 "Tm": 382.15, 
	 "num_atms": 28, 
	 "gaussian": { 
		 "optdone": 1, 
		 "sigma_profile": "yes", 
		 "theory": "DFT", 
		 "functional": "B3LYP", 
		 "basiset": "6-31G**", 
		 "properties": { 
			 "R2extent": 6340.794, 
			 "electric_dipole_moment_norm": 4.71873523521, 
			 "electric_quadrupole_moment_norm": 18.9752065886, 
			 "total_energy": -1167.05746052, 
			 "HOMO_LUMO_gap": 0.198, 
			 "cosmo_polarized_energy": -18.76, 
			 "cosmo_cavitation_energy": 33.44, 
			 "cosmo_dispersion_energy": -23.9, 
			 "cosmo_repulsion_energy": 1.86, 
			 "cosmo_total_nonelectrostatic_energy": 11.41, 
			 "SMD_solvation_energy": 5.97 
		},
		"coords": [
			{
				"x": 0.5811222535,
				"y": 1.7002938216,
				"z": 1.2768209382,
				"element": "O" 
			},
			{
				"x": 1.590160375,
				"y": 0.8417186263,
				"z": 1.5357196865,
				"element": "C" 
			},
			{
				"x": 1.7335514989,
				"y": 0.3647405073,
				"z": 2.6381770546,
				"element": "O" 
			},
			{
				"x": 2.5555859797,
				"y": 0.5366541108,
				"z": 0.3888277476,
				"element": "C" 
			},
			{
				"x": 2.5367971619,
				"y": -0.943404439,
				"z": -0.0418307979,
				"element": "C" 
			},
			{
				"x": 1.4487256912,
				"y": -1.3076830403,
				"z": -1.0641253645,
				"element": "C" 
			},
			{
				"x": 0.0704870799,
				"y": -1.2398649045,
				"z": -0.5828752128,
				"element": "N" 
			},
			{
				"x": -0.7273060043,
				"y": -0.1524945673,
				"z": -0.7580305604,
				"element": "C" 
			},
			{
				"x": -0.2912768477,
				"y": 0.9143555741,
				"z": -1.2163237728,
				"element": "O" 
			},
			{
				"x": -2.1617727785,
				"y": -0.3006364674,
				"z": -0.3541398645,
				"element": "C" 
			},
			{
				"x": -2.832242261,
				"y": -1.5319253871,
				"z": -0.3483105909,
				"element": "C" 
			},
			{
				"x": -4.1725183603,
				"y": -1.6115300178,
				"z": 0.0242986587,
				"element": "C" 
			},
			{
				"x": -4.8424548843,
				"y": -0.4456558985,
				"z": 0.396069725,
				"element": "C" 
			},
			{
				"x": -6.5275688791,
				"y": -0.5380531708,
				"z": 0.8715873943,
				"element": "Cl" 
			},
			{
				"x": -4.1982630679,
				"y": 0.7929962539,
				"z": 0.3878636093,
				"element": "C" 
			},
			{
				"x": -2.8625128265,
				"y": 0.8585805913,
				"z": 0.0046040504,
				"element": "C" 
			},
			{
				"x": 0.4546739342,
				"y": 1.7841680941,
				"z": 0.3111963464,
				"element": "H" 
			},
			{
				"x": 2.3839920168,
				"y": 1.1861837482,
				"z": -0.4745571509,
				"element": "H" 
			},
			{
				"x": 3.5486150489,
				"y": 0.7680169213,
				"z": 0.7874913462,
				"element": "H" 
			},
			{
				"x": 2.4562163627,
				"y": -1.5723681277,
				"z": 0.8523965448,
				"element": "H" 
			},
			{
				"x": 3.4981348691,
				"y": -1.1864216608,
				"z": -0.5102315561,
				"element": "H" 
			},
			{
				"x": 1.6187563132,
				"y": -2.3298192876,
				"z": -1.4204657355,
				"element": "H" 
			},
			{
				"x": 1.512293812,
				"y": -0.6396975335,
				"z": -1.927264237,
				"element": "H" 
			},
			{
				"x": -0.2890894635,
				"y": -2.0187249721,
				"z": -0.0516118089,
				"element": "H" 
			},
			{
				"x": -2.3265489662,
				"y": -2.437607884,
				"z": -0.6705845799,
				"element": "H" 
			},
			{
				"x": -4.6952713141,
				"y": -2.5612532627,
				"z": 0.0185586397,
				"element": "H" 
			},
			{
				"x": -4.7374353907,
				"y": 1.6877276604,
				"z": 0.6778282873,
				"element": "H" 
			},
			{
				"x": -2.3430513527,
				"y": 1.8097047118,
				"z": -0.0158887969,
				"element": "H" 
			}
		],
		 "valence_orbital": [ 
			{
				"type": "occ",
				"energy": -0.28331,
				"method": "rhf"
			},
			{
				"type": "occ",
				"energy": -0.27973,
				"method": "rhf"
			},
			{
				"type": "occ",
				"energy": -0.27121,
				"method": "rhf"
			},
			{
				"type": "occ",
				"energy": -0.26014,
				"method": "rhf"
			},
			{
				"type": "occ",
				"energy": -0.25571,
				"method": "rhf"
			},
			{
				"type": "unocc",
				"energy": -0.05771,
				"method": "rhf"
			},
			{
				"type": "unocc",
				"energy": -0.02955,
				"method": "rhf"
			},
			{
				"type": "unocc",
				"energy": 0.01852,
				"method": "rhf"
			},
			{
				"type": "unocc",
				"energy": 0.01938,
				"method": "rhf"
			},
			{
				"type": "unocc",
				"energy": 0.0316,
				"method": "rhf"
			}
		],
		"cosmo_sigma_profile": { 
			"-0.025": 0.0,
			"-0.024": 0.0,
			"-0.023": 0.0,
			"-0.022": 0.0,
			"-0.021": 0.0,
			"-0.02": 0.0,
			"-0.019": 0.0,
			"-0.018": 0.0,
			"-0.017": 0.0,
			"-0.016": 0.0654854653171,
			"-0.015": 0.756498795294,
			"-0.014": 1.15218259289,
			"-0.013": 1.30104102206,
			"-0.012": 1.36188624248,
			"-0.011": 1.59577595128,
			"-0.01": 2.06768803166,
			"-0.009": 2.74998569597,
			"-0.008": 5.32052682843,
			"-0.007": 7.76476432105,
			"-0.006": 13.3606466698,
			"-0.005": 17.2065153274,
			"-0.004": 24.1373828292,
			"-0.003": 20.5343957688,
			"-0.002": 19.1254756581,
			"-0.001": 16.3365254608,
			"0.0": 15.5094200571,
			"0.001": 20.1933489017,
			"0.002": 23.5504491322,
			"0.003": 15.3770131426,
			"0.004": 13.5151824568,
			"0.005": 5.3418896023,
			"0.006": 3.91021003868,
			"0.007": 2.91803900221,
			"0.008": 3.4985560593,
			"0.009": 4.39304340418,
			"0.01": 3.59977995378,
			"0.011": 5.40050198876,
			"0.012": 7.57374057431,
			"0.013": 6.50282436339,
			"0.014": 1.48320523195,
			"0.015": 0.0,
			"0.016": 0.0,
			"0.017": 0.0,
			"0.018": 0.0,
			"0.019": 0.0,
			"0.02": 0.0,
			"0.021": 0.0,
			"0.022": 0.0,
			"0.023": 0.0,
			"0.024": 0.0,
			"0.0": 0.0
		}
	}
}
