{
	 "smiles": "CC(N=NC1=C(O)C(Cl)=CC(Cl)=C1)=C(/Cl)C(=O)OCCOCCOCCCl", 
	 "Tm": 344.65, 
	 "num_atms": 45, 
	 "gaussian": { 
		 "optdone": 1, 
		 "sigma_profile": "yes", 
		 "theory": "DFT", 
		 "functional": "B3LYP", 
		 "basiset": "6-31G**", 
		 "properties": { 
			 "R2extent": 15002.6529, 
			 "electric_dipole_moment_norm": 5.86476192611, 
			 "electric_quadrupole_moment_norm": 12.125974993, 
			 "total_energy": -2946.85388136, 
			 "HOMO_LUMO_gap": 0.1332, 
			 "cosmo_polarized_energy": -18.1, 
			 "cosmo_cavitation_energy": 56.82, 
			 "cosmo_dispersion_energy": -35.99, 
			 "cosmo_repulsion_energy": 2.79, 
			 "cosmo_total_nonelectrostatic_energy": 23.62, 
			 "SMD_solvation_energy": 8.42 
		},
		"coords": [
			{
				"x": 0.1343574207,
				"y": 3.1415744859,
				"z": -3.5714001558,
				"element": "C" 
			},
			{
				"x": -0.1233466537,
				"y": 1.669979332,
				"z": -3.4479627454,
				"element": "C" 
			},
			{
				"x": 0.4418494058,
				"y": 0.9136330451,
				"z": -2.3954986845,
				"element": "N" 
			},
			{
				"x": 1.2979784034,
				"y": 1.5627688306,
				"z": -1.7317684257,
				"element": "N" 
			},
			{
				"x": 1.8621321668,
				"y": 0.9018732589,
				"z": -0.6186626192,
				"element": "C" 
			},
			{
				"x": 1.1437637317,
				"y": 0.0638707206,
				"z": 0.2751935922,
				"element": "C" 
			},
			{
				"x": -0.1567778513,
				"y": -0.1780394068,
				"z": 0.0513952199,
				"element": "O" 
			},
			{
				"x": 1.8484486041,
				"y": -0.4419027949,
				"z": 1.3843322316,
				"element": "C" 
			},
			{
				"x": 1.0028875758,
				"y": -1.4879818728,
				"z": 2.5151358926,
				"element": "Cl" 
			},
			{
				"x": 3.190070155,
				"y": -0.1548576691,
				"z": 1.6170267393,
				"element": "C" 
			},
			{
				"x": 3.8601237537,
				"y": 0.686108307,
				"z": 0.7301542329,
				"element": "C" 
			},
			{
				"x": 5.5484759202,
				"y": 1.0726356471,
				"z": 1.0178387055,
				"element": "Cl" 
			},
			{
				"x": 3.2005244887,
				"y": 1.2299119252,
				"z": -0.362130696,
				"element": "C" 
			},
			{
				"x": -0.891201052,
				"y": 0.9252802393,
				"z": -4.2730126514,
				"element": "C" 
			},
			{
				"x": -1.7482194399,
				"y": 1.5935459349,
				"z": -5.6379736809,
				"element": "Cl" 
			},
			{
				"x": -1.0099597365,
				"y": -0.5771224785,
				"z": -4.1962543748,
				"element": "C" 
			},
			{
				"x": -0.2060754069,
				"y": -1.3331254386,
				"z": -4.6881826661,
				"element": "O" 
			},
			{
				"x": -2.1589689117,
				"y": -0.9526360179,
				"z": -3.605656788,
				"element": "O" 
			},
			{
				"x": -2.4408630766,
				"y": -2.3741473205,
				"z": -3.6452075177,
				"element": "C" 
			},
			{
				"x": -3.6501677082,
				"y": -2.6671694777,
				"z": -2.7689324875,
				"element": "C" 
			},
			{
				"x": -3.3486480441,
				"y": -2.8482672468,
				"z": -1.3985735151,
				"element": "O" 
			},
			{
				"x": -3.0375266911,
				"y": -1.6639179436,
				"z": -0.6772034426,
				"element": "C" 
			},
			{
				"x": -2.7381653875,
				"y": -2.1278288349,
				"z": 0.7483353599,
				"element": "C" 
			},
			{
				"x": -2.3001397036,
				"y": -1.0689175678,
				"z": 1.6012777779,
				"element": "O" 
			},
			{
				"x": -3.3339167252,
				"y": -0.2336838832,
				"z": 2.1003609626,
				"element": "C" 
			},
			{
				"x": -2.7740203775,
				"y": 0.6678650676,
				"z": 3.1817532262,
				"element": "C" 
			},
			{
				"x": -1.6504875932,
				"y": 1.9286273921,
				"z": 2.5231991316,
				"element": "Cl" 
			},
			{
				"x": 1.2041965788,
				"y": 3.3204501388,
				"z": -3.7157570905,
				"element": "H" 
			},
			{
				"x": -0.1428878225,
				"y": 3.6509594481,
				"z": -2.6435138556,
				"element": "H" 
			},
			{
				"x": -0.4190055713,
				"y": 3.576247754,
				"z": -4.402921913,
				"element": "H" 
			},
			{
				"x": -0.6423932309,
				"y": -0.4438068838,
				"z": 0.8596216513,
				"element": "H" 
			},
			{
				"x": 3.6944277867,
				"y": -0.5741124848,
				"z": 2.4787297972,
				"element": "H" 
			},
			{
				"x": 3.7010809909,
				"y": 1.9079082161,
				"z": -1.0429135106,
				"element": "H" 
			},
			{
				"x": -2.6417174298,
				"y": -2.6517628978,
				"z": -4.6860730287,
				"element": "H" 
			},
			{
				"x": -1.5670741764,
				"y": -2.9336467149,
				"z": -3.3023348513,
				"element": "H" 
			},
			{
				"x": -4.0819179788,
				"y": -3.6180532812,
				"z": -3.0990319627,
				"element": "H" 
			},
			{
				"x": -4.408722963,
				"y": -1.881702827,
				"z": -2.9125954784,
				"element": "H" 
			},
			{
				"x": -3.8893247428,
				"y": -0.9646893222,
				"z": -0.7048363649,
				"element": "H" 
			},
			{
				"x": -2.1633840732,
				"y": -1.1472160078,
				"z": -1.0873770462,
				"element": "H" 
			},
			{
				"x": -3.6171949013,
				"y": -2.6261154692,
				"z": 1.1801052042,
				"element": "H" 
			},
			{
				"x": -1.9185812301,
				"y": -2.850238296,
				"z": 0.7199873112,
				"element": "H" 
			},
			{
				"x": -3.793844288,
				"y": 0.3666726623,
				"z": 1.3043103586,
				"element": "H" 
			},
			{
				"x": -4.121671643,
				"y": -0.8553878487,
				"z": 2.5567446261,
				"element": "H" 
			},
			{
				"x": -3.5830768968,
				"y": 1.2002968896,
				"z": 3.6841181083,
				"element": "H" 
			},
			{
				"x": -2.2050356756,
				"y": 0.0875206914,
				"z": 3.9090554235,
				"element": "H" 
			}
		],
		 "valence_orbital": [ 
			{
				"type": "occ",
				"energy": -0.27246,
				"method": "rhf"
			},
			{
				"type": "occ",
				"energy": -0.26777,
				"method": "rhf"
			},
			{
				"type": "occ",
				"energy": -0.25226,
				"method": "rhf"
			},
			{
				"type": "occ",
				"energy": -0.23382,
				"method": "rhf"
			},
			{
				"type": "occ",
				"energy": -0.22003,
				"method": "rhf"
			},
			{
				"type": "unocc",
				"energy": -0.08683,
				"method": "rhf"
			},
			{
				"type": "unocc",
				"energy": -0.02277,
				"method": "rhf"
			},
			{
				"type": "unocc",
				"energy": -0.01332,
				"method": "rhf"
			},
			{
				"type": "unocc",
				"energy": -0.00223,
				"method": "rhf"
			},
			{
				"type": "unocc",
				"energy": 0.00558,
				"method": "rhf"
			}
		],
		"cosmo_sigma_profile": { 
			"-0.025": 0.0,
			"-0.024": 0.0,
			"-0.023": 0.0,
			"-0.022": 0.0,
			"-0.021": 0.0,
			"-0.02": 0.0,
			"-0.019": 0.0,
			"-0.018": 0.0,
			"-0.017": 0.0,
			"-0.016": 0.0,
			"-0.015": 0.0,
			"-0.014": 0.0,
			"-0.013": 0.0,
			"-0.012": 0.0,
			"-0.011": 0.0,
			"-0.01": 0.0,
			"-0.009": 0.830315742817,
			"-0.008": 5.1907183327,
			"-0.007": 14.8529222701,
			"-0.006": 23.3994065096,
			"-0.005": 33.7090870813,
			"-0.004": 32.2805355394,
			"-0.003": 26.9112417982,
			"-0.002": 34.0982217162,
			"-0.001": 36.2519962265,
			"0.0": 43.7300690229,
			"0.001": 48.942921674,
			"0.002": 34.7406357452,
			"0.003": 34.186391497,
			"0.004": 28.445938194,
			"0.005": 15.5655222494,
			"0.006": 16.2934478852,
			"0.007": 7.64978685425,
			"0.008": 6.79158675945,
			"0.009": 4.69701842359,
			"0.01": 5.55203511939,
			"0.011": 4.85442120366,
			"0.012": 1.12673331904,
			"0.013": 0.0,
			"0.014": 0.0,
			"0.015": 0.0,
			"0.016": 0.0,
			"0.017": 0.0,
			"0.018": 0.0,
			"0.019": 0.0,
			"0.02": 0.0,
			"0.021": 0.0,
			"0.022": 0.0,
			"0.023": 0.0,
			"0.024": 0.0,
			"0.025": 0.0
		}
	}
}
