{
	 "smiles": "CC(C)(O)C(C)(C)O", 
	 "Tm": 316.65, 
	 "num_atms": 22, 
	 "gaussian": { 
		 "optdone": 1, 
		 "sigma_profile": "yes", 
		 "theory": "DFT", 
		 "functional": "B3LYP", 
		 "basiset": "6-31G**", 
		 "properties": { 
			 "R2extent": 2052.6423, 
			 "electric_dipole_moment_norm": 2.38717919101, 
			 "electric_quadrupole_moment_norm": 8.86162928812, 
			 "total_energy": -387.53203964, 
			 "HOMO_LUMO_gap": 0.31014, 
			 "cosmo_polarized_energy": -8.11, 
			 "cosmo_cavitation_energy": 22.35, 
			 "cosmo_dispersion_energy": -16.2, 
			 "cosmo_repulsion_energy": 1.31, 
			 "cosmo_total_nonelectrostatic_energy": 7.46, 
			 "SMD_solvation_energy": 4.22 
		},
		"coords": [
			{
				"x": 1.1630387348,
				"y": 1.4533295349,
				"z": -0.0298556879,
				"element": "C" 
			},
			{
				"x": -0.044506912,
				"y": 1.4543883084,
				"z": 0.9163818962,
				"element": "C" 
			},
			{
				"x": -1.1257272165,
				"y": 0.486824432,
				"z": 0.4150183767,
				"element": "C" 
			},
			{
				"x": -0.6017632005,
				"y": 2.7898076808,
				"z": 0.9659051668,
				"element": "O" 
			},
			{
				"x": 0.3245473982,
				"y": 1.178460908,
				"z": 2.4182250206,
				"element": "C" 
			},
			{
				"x": 0.7487819988,
				"y": -0.2700658657,
				"z": 2.6745462026,
				"element": "C" 
			},
			{
				"x": 1.4149896912,
				"y": 2.1455748394,
				"z": 2.9171076502,
				"element": "C" 
			},
			{
				"x": -0.8611415979,
				"y": 1.3781753392,
				"z": 3.1940843192,
				"element": "O" 
			},
			{
				"x": 0.8318919979,
				"y": 1.6457788979,
				"z": -1.0572574655,
				"element": "H" 
			},
			{
				"x": 1.8773223177,
				"y": 2.2331901962,
				"z": 0.2419159336,
				"element": "H" 
			},
			{
				"x": 1.6790170073,
				"y": 0.4882414093,
				"z": -0.0293560587,
				"element": "H" 
			},
			{
				"x": -1.5146894529,
				"y": 0.8284579981,
				"z": -0.5526001525,
				"element": "H" 
			},
			{
				"x": -1.9492924539,
				"y": 0.4363185571,
				"z": 1.1301657294,
				"element": "H" 
			},
			{
				"x": -0.7298576031,
				"y": -0.5212026515,
				"z": 0.2633746564,
				"element": "H" 
			},
			{
				"x": -1.0553159916,
				"y": 2.9556873523,
				"z": 0.1298973651,
				"element": "H" 
			},
			{
				"x": 0.9845569853,
				"y": -0.3894032482,
				"z": 3.7359558726,
				"element": "H" 
			},
			{
				"x": -0.0569264505,
				"y": -0.9674008187,
				"z": 2.4346693733,
				"element": "H" 
			},
			{
				"x": 1.6377632562,
				"y": -0.5403534752,
				"z": 2.0974264573,
				"element": "H" 
			},
			{
				"x": 1.4995130238,
				"y": 2.0429086799,
				"z": 4.0024119794,
				"element": "H" 
			},
			{
				"x": 2.3939868571,
				"y": 1.9317793372,
				"z": 2.4767290372,
				"element": "H" 
			},
			{
				"x": 1.1514336644,
				"y": 3.180879271,
				"z": 2.6854724749,
				"element": "H" 
			},
			{
				"x": -1.2274220538,
				"y": 2.2186233176,
				"z": 2.877281853,
				"element": "H" 
			}
		],
		 "valence_orbital": [ 
			{
				"type": "occ",
				"energy": -0.34423,
				"method": "rhf"
			},
			{
				"type": "occ",
				"energy": -0.32491,
				"method": "rhf"
			},
			{
				"type": "occ",
				"energy": -0.30329,
				"method": "rhf"
			},
			{
				"type": "occ",
				"energy": -0.2752,
				"method": "rhf"
			},
			{
				"type": "occ",
				"energy": -0.25106,
				"method": "rhf"
			},
			{
				"type": "unocc",
				"energy": 0.05908,
				"method": "rhf"
			},
			{
				"type": "unocc",
				"energy": 0.10675,
				"method": "rhf"
			},
			{
				"type": "unocc",
				"energy": 0.11808,
				"method": "rhf"
			},
			{
				"type": "unocc",
				"energy": 0.1314,
				"method": "rhf"
			},
			{
				"type": "unocc",
				"energy": 0.14132,
				"method": "rhf"
			}
		],
		"cosmo_sigma_profile": { 
			"-0.025": 0.0,
			"-0.024": 0.0,
			"-0.023": 0.0,
			"-0.022": 0.0,
			"-0.021": 0.0,
			"-0.02": 0.0,
			"-0.019": 0.0,
			"-0.018": 0.0,
			"-0.017": 0.0,
			"-0.016": 0.0,
			"-0.015": 0.699992439454,
			"-0.014": 0.952282442885,
			"-0.013": 0.611966419802,
			"-0.012": 0.748102774391,
			"-0.011": 1.26318541376,
			"-0.01": 1.63901217016,
			"-0.009": 1.25697551531,
			"-0.008": 1.44774266647,
			"-0.007": 1.56642823955,
			"-0.006": 2.58290699975,
			"-0.005": 2.2403833105,
			"-0.004": 5.21552125605,
			"-0.003": 19.0104731585,
			"-0.002": 22.3351311139,
			"-0.001": 22.6781770427,
			"0.0": 23.3818402501,
			"0.001": 24.1108085002,
			"0.002": 10.3370234517,
			"0.003": 3.25389145289,
			"0.004": 3.25586582426,
			"0.005": 3.02102468315,
			"0.006": 2.79786674286,
			"0.007": 2.3103838025,
			"0.008": 2.41654794711,
			"0.009": 2.09916103404,
			"0.01": 2.2699703893,
			"0.011": 1.82093267248,
			"0.012": 1.822175046,
			"0.013": 0.723035834088,
			"0.014": 1.73196889048,
			"0.015": 1.64518502038,
			"0.016": 0.0480028472923,
			"0.017": 0.0,
			"0.018": 0.0,
			"0.019": 0.0,
			"0.02": 0.0,
			"0.021": 0.0,
			"0.022": 0.0,
			"0.023": 0.0,
			"0.024": 0.0,
			"0.025": 0.0
		}
	}
}
