{
	 "smiles": "NC(C(O)=O)C1=CC(=CC=C1)C(F)(F)F", 
	 "Tm": 466.15, 
	 "num_atms": 23, 
	 "gaussian": { 
		 "optdone": 1, 
		 "sigma_profile": "yes", 
		 "theory": "DFT", 
		 "functional": "B3LYP", 
		 "basiset": "6-31G**", 
		 "properties": { 
			 "R2extent": 4736.5178, 
			 "electric_dipole_moment_norm": 2.56856145537, 
			 "electric_quadrupole_moment_norm": 12.8659609657, 
			 "total_energy": -852.515716531, 
			 "HOMO_LUMO_gap": 0.22304, 
			 "cosmo_polarized_energy": -13.24, 
			 "cosmo_cavitation_energy": 29.38, 
			 "cosmo_dispersion_energy": -20.28, 
			 "cosmo_repulsion_energy": 1.56, 
			 "cosmo_total_nonelectrostatic_energy": 10.66, 
			 "SMD_solvation_energy": 6.07 
		},
		"coords": [
			{
				"x": 1.0806387362,
				"y": 3.3762507603,
				"z": 1.9872167626,
				"element": "N" 
			},
			{
				"x": 0.1243673205,
				"y": 2.2960324216,
				"z": 2.2137107334,
				"element": "C" 
			},
			{
				"x": -1.3333452591,
				"y": 2.7248703173,
				"z": 2.0014861992,
				"element": "C" 
			},
			{
				"x": -2.1980841989,
				"y": 1.9558838976,
				"z": 2.6969987545,
				"element": "O" 
			},
			{
				"x": -1.6859315987,
				"y": 3.6387089553,
				"z": 1.2860285452,
				"element": "O" 
			},
			{
				"x": 0.4440840565,
				"y": 1.1089859176,
				"z": 1.3084406702,
				"element": "C" 
			},
			{
				"x": 1.1523151335,
				"y": 0.0151993501,
				"z": 1.8124767637,
				"element": "C" 
			},
			{
				"x": 1.4919294927,
				"y": -1.0507623786,
				"z": 0.9777698821,
				"element": "C" 
			},
			{
				"x": 1.1305368667,
				"y": -1.0348715891,
				"z": -0.3719644118,
				"element": "C" 
			},
			{
				"x": 0.4253358567,
				"y": 0.0547784253,
				"z": -0.8788337144,
				"element": "C" 
			},
			{
				"x": 0.081112427,
				"y": 1.1190508611,
				"z": -0.0444112938,
				"element": "C" 
			},
			{
				"x": 2.1993965594,
				"y": -2.2515699556,
				"z": 1.5467459989,
				"element": "C" 
			},
			{
				"x": 3.0080816194,
				"y": -2.8362753352,
				"z": 0.6351744696,
				"element": "F" 
			},
			{
				"x": 2.9573339997,
				"y": -1.9319705972,
				"z": 2.618471223,
				"element": "F" 
			},
			{
				"x": 1.3216961186,
				"y": -3.198422751,
				"z": 1.9549129727,
				"element": "F" 
			},
			{
				"x": 0.8838105384,
				"y": 4.141591356,
				"z": 2.629407229,
				"element": "H" 
			},
			{
				"x": 0.9301876589,
				"y": 3.7558456706,
				"z": 1.0543790465,
				"element": "H" 
			},
			{
				"x": 0.2158696178,
				"y": 1.9652632814,
				"z": 3.253264705,
				"element": "H" 
			},
			{
				"x": -3.091327316,
				"y": 2.2736527349,
				"z": 2.4797503191,
				"element": "H" 
			},
			{
				"x": 1.4526500655,
				"y": -0.0030176177,
				"z": 2.854909987,
				"element": "H" 
			},
			{
				"x": 1.4054378556,
				"y": -1.8637359867,
				"z": -1.0152054078,
				"element": "H" 
			},
			{
				"x": 0.1421008737,
				"y": 0.0758313102,
				"z": -1.9267390987,
				"element": "H" 
			},
			{
				"x": -0.4753964241,
				"y": 1.9613809515,
				"z": -0.4462903353,
				"element": "H" 
			}
		],
		 "valence_orbital": [ 
			{
				"type": "occ",
				"energy": -0.33201,
				"method": "rhf"
			},
			{
				"type": "occ",
				"energy": -0.2939,
				"method": "rhf"
			},
			{
				"type": "occ",
				"energy": -0.27148,
				"method": "rhf"
			},
			{
				"type": "occ",
				"energy": -0.26494,
				"method": "rhf"
			},
			{
				"type": "occ",
				"energy": -0.25494,
				"method": "rhf"
			},
			{
				"type": "unocc",
				"energy": -0.0319,
				"method": "rhf"
			},
			{
				"type": "unocc",
				"energy": -0.02744,
				"method": "rhf"
			},
			{
				"type": "unocc",
				"energy": 0.00349,
				"method": "rhf"
			},
			{
				"type": "unocc",
				"energy": 0.06814,
				"method": "rhf"
			},
			{
				"type": "unocc",
				"energy": 0.0823,
				"method": "rhf"
			}
		],
		"cosmo_sigma_profile": { 
			"-0.025": 0.0,
			"-0.024": 0.0,
			"-0.023": 0.0,
			"-0.022": 0.0,
			"-0.021": 0.0,
			"-0.02": 0.0,
			"-0.019": 0.118728298442,
			"-0.018": 1.02325768242,
			"-0.017": 0.762032739475,
			"-0.016": 0.750133434795,
			"-0.015": 0.898288191208,
			"-0.014": 0.515763675028,
			"-0.013": 0.669727817804,
			"-0.012": 1.29788897764,
			"-0.011": 1.98738628731,
			"-0.01": 2.59689037806,
			"-0.009": 2.81196207166,
			"-0.008": 5.22952623889,
			"-0.007": 10.9788963452,
			"-0.006": 11.5112906085,
			"-0.005": 11.2085613163,
			"-0.004": 10.38328033,
			"-0.003": 11.4350017632,
			"-0.002": 11.9210725135,
			"-0.001": 10.6157751903,
			"0.0": 13.6329044458,
			"0.001": 15.7668943565,
			"0.002": 27.7810107223,
			"0.003": 40.5124027604,
			"0.004": 8.38145255959,
			"0.005": 2.84626151669,
			"0.006": 2.83905511036,
			"0.007": 4.19568614703,
			"0.008": 3.82083875725,
			"0.009": 3.30253191148,
			"0.01": 2.29489513109,
			"0.011": 4.86117796125,
			"0.012": 3.18803497172,
			"0.013": 0.453552991934,
			"0.014": 0.808051171731,
			"0.015": 0.58133067534,
			"0.016": 0.644984041061,
			"0.017": 0.617569592477,
			"0.018": 0.329973479321,
			"0.019": 0.0,
			"0.02": 0.0,
			"0.021": 0.0,
			"0.022": 0.0,
			"0.023": 0.0,
			"0.024": 0.0,
			"0.025": 0.0
		}
	}
}
