{
	 "smiles": "CC(C)C(C)CCC(C)C1CCC2C3=CCC4CC(O)CCC4(C)C3CCC12C", 
	 "Tm": 419.15, 
	 "num_atms": 77, 
	 "gaussian": { 
		 "optdone": 1, 
		 "sigma_profile": "yes", 
		 "theory": "DFT", 
		 "functional": "B3LYP", 
		 "basiset": "6-31G**", 
		 "properties": { 
			 "R2extent": 14086.1521, 
			 "electric_dipole_moment_norm": 1.57958333114, 
			 "electric_quadrupole_moment_norm": 13.6059179518, 
			 "total_energy": -1171.14321268, 
			 "HOMO_LUMO_gap": 0.25357, 
			 "cosmo_polarized_energy": -7.78, 
			 "cosmo_cavitation_energy": 63.3, 
			 "cosmo_dispersion_energy": -40.8, 
			 "cosmo_repulsion_energy": 3.04, 
			 "cosmo_total_nonelectrostatic_energy": 25.54, 
			 "SMD_solvation_energy": 8.71 
		},
		"coords": [
			{
				"x": -3.3256071784,
				"y": -3.0144331849,
				"z": 2.3768938927,
				"element": "C" 
			},
			{
				"x": -3.1530409904,
				"y": -3.0354568438,
				"z": 0.8483122306,
				"element": "C" 
			},
			{
				"x": -3.4879265309,
				"y": -1.6610626119,
				"z": 0.2470963044,
				"element": "C" 
			},
			{
				"x": -1.7844787738,
				"y": -3.6146080029,
				"z": 0.3741798153,
				"element": "C" 
			},
			{
				"x": -1.9038692806,
				"y": -4.1567471837,
				"z": -1.0630316603,
				"element": "C" 
			},
			{
				"x": -0.5591041678,
				"y": -2.6716993552,
				"z": 0.4568875734,
				"element": "C" 
			},
			{
				"x": -0.0892979009,
				"y": -2.2638108977,
				"z": 1.8646944295,
				"element": "C" 
			},
			{
				"x": 1.3960983433,
				"y": -1.8402538232,
				"z": 1.964290464,
				"element": "C" 
			},
			{
				"x": 1.8310257264,
				"y": -1.8574970654,
				"z": 3.4442927213,
				"element": "C" 
			},
			{
				"x": 1.8037633827,
				"y": -0.5843578846,
				"z": 1.1317564032,
				"element": "C" 
			},
			{
				"x": 3.3292586933,
				"y": -0.3530174154,
				"z": 1.1137223169,
				"element": "C" 
			},
			{
				"x": 3.4947542949,
				"y": 0.9438511553,
				"z": 0.3183729853,
				"element": "C" 
			},
			{
				"x": 2.2958948313,
				"y": 1.8333771185,
				"z": 0.7534808669,
				"element": "C" 
			},
			{
				"x": 1.7234511515,
				"y": 2.6865299217,
				"z": -0.3581955894,
				"element": "C" 
			},
			{
				"x": 1.788528305,
				"y": 4.0236972753,
				"z": -0.3310343112,
				"element": "C" 
			},
			{
				"x": 1.2324348359,
				"y": 4.9242182413,
				"z": -1.3990579446,
				"element": "C" 
			},
			{
				"x": 0.244868531,
				"y": 4.2201295782,
				"z": -2.3511076922,
				"element": "C" 
			},
			{
				"x": -1.196134056,
				"y": 4.251608979,
				"z": -1.8024275898,
				"element": "C" 
			},
			{
				"x": -2.2289233583,
				"y": 3.5111533205,
				"z": -2.6981667683,
				"element": "C" 
			},
			{
				"x": -3.3735527205,
				"y": 4.3144274725,
				"z": -2.9885031023,
				"element": "O" 
			},
			{
				"x": -1.5735457016,
				"y": 2.9798932314,
				"z": -3.9777656269,
				"element": "C" 
			},
			{
				"x": -0.3355971038,
				"y": 2.1142328014,
				"z": -3.6823303964,
				"element": "C" 
			},
			{
				"x": 0.7219743423,
				"y": 2.7857865875,
				"z": -2.7331470634,
				"element": "C" 
			},
			{
				"x": 2.0531310904,
				"y": 2.9063218552,
				"z": -3.5123722372,
				"element": "C" 
			},
			{
				"x": 1.0117253478,
				"y": 1.916310226,
				"z": -1.4562945948,
				"element": "C" 
			},
			{
				"x": -0.1798734107,
				"y": 1.1235345074,
				"z": -0.8177528187,
				"element": "C" 
			},
			{
				"x": -0.1582492616,
				"y": 1.1127969268,
				"z": 0.7222878771,
				"element": "C" 
			},
			{
				"x": 1.2125458814,
				"y": 0.8524840249,
				"z": 1.3908599382,
				"element": "C" 
			},
			{
				"x": 1.0709666766,
				"y": 1.1972068092,
				"z": 2.8858672633,
				"element": "C" 
			},
			{
				"x": -4.3594586495,
				"y": -2.7640345132,
				"z": 2.6406859776,
				"element": "H" 
			},
			{
				"x": -3.0990811073,
				"y": -3.9919633996,
				"z": 2.817056456,
				"element": "H" 
			},
			{
				"x": -2.6798873329,
				"y": -2.2746941435,
				"z": 2.8584420438,
				"element": "H" 
			},
			{
				"x": -3.9081986307,
				"y": -3.7400130504,
				"z": 0.4696045205,
				"element": "H" 
			},
			{
				"x": -4.5193365075,
				"y": -1.3793922553,
				"z": 0.4852958244,
				"element": "H" 
			},
			{
				"x": -3.3894638384,
				"y": -1.651658225,
				"z": -0.8432448459,
				"element": "H" 
			},
			{
				"x": -2.8376283992,
				"y": -0.8758119868,
				"z": 0.6479638943,
				"element": "H" 
			},
			{
				"x": -1.5709840642,
				"y": -4.477172875,
				"z": 1.0241178107,
				"element": "H" 
			},
			{
				"x": -2.7203452631,
				"y": -4.8817957574,
				"z": -1.1488358988,
				"element": "H" 
			},
			{
				"x": -0.9801034545,
				"y": -4.6563434998,
				"z": -1.3742396345,
				"element": "H" 
			},
			{
				"x": -2.0975561327,
				"y": -3.3533846924,
				"z": -1.7833629838,
				"element": "H" 
			},
			{
				"x": 0.2736016852,
				"y": -3.1963771416,
				"z": -0.0330068671,
				"element": "H" 
			},
			{
				"x": -0.7465254406,
				"y": -1.7842822786,
				"z": -0.1586773182,
				"element": "H" 
			},
			{
				"x": -0.7268791517,
				"y": -1.4728543544,
				"z": 2.276206707,
				"element": "H" 
			},
			{
				"x": -0.2209353226,
				"y": -3.1253729135,
				"z": 2.5332469344,
				"element": "H" 
			},
			{
				"x": 1.9648788649,
				"y": -2.6523779879,
				"z": 1.4834402838,
				"element": "H" 
			},
			{
				"x": 1.1956817707,
				"y": -1.2317987283,
				"z": 4.0758200761,
				"element": "H" 
			},
			{
				"x": 1.7623707493,
				"y": -2.8802159212,
				"z": 3.831395358,
				"element": "H" 
			},
			{
				"x": 2.8650145123,
				"y": -1.5295735984,
				"z": 3.581960767,
				"element": "H" 
			},
			{
				"x": 1.5326941947,
				"y": -0.8325728964,
				"z": 0.094999028,
				"element": "H" 
			},
			{
				"x": 3.8742414942,
				"y": -1.198665498,
				"z": 0.6788122291,
				"element": "H" 
			},
			{
				"x": 3.7111558493,
				"y": -0.2164846758,
				"z": 2.132519022,
				"element": "H" 
			},
			{
				"x": 4.4516470911,
				"y": 1.4448384829,
				"z": 0.4955804582,
				"element": "H" 
			},
			{
				"x": 3.4486518619,
				"y": 0.7258956583,
				"z": -0.7545244025,
				"element": "H" 
			},
			{
				"x": 2.6437172189,
				"y": 2.5084551535,
				"z": 1.5434490803,
				"element": "H" 
			},
			{
				"x": 2.3002597402,
				"y": 4.5096701361,
				"z": 0.4999660483,
				"element": "H" 
			},
			{
				"x": 2.0662145706,
				"y": 5.352207172,
				"z": -1.9757918926,
				"element": "H" 
			},
			{
				"x": 0.7378111381,
				"y": 5.7880815192,
				"z": -0.9337862355,
				"element": "H" 
			},
			{
				"x": 0.2400742842,
				"y": 4.8006740721,
				"z": -3.2835033849,
				"element": "H" 
			},
			{
				"x": -1.2190796416,
				"y": 3.8542429862,
				"z": -0.7817661632,
				"element": "H" 
			},
			{
				"x": -1.5192884303,
				"y": 5.2967234237,
				"z": -1.7181239116,
				"element": "H" 
			},
			{
				"x": -2.646698527,
				"y": 2.6599640173,
				"z": -2.1482028119,
				"element": "H" 
			},
			{
				"x": -3.073281804,
				"y": 5.0586385133,
				"z": -3.5282656993,
				"element": "H" 
			},
			{
				"x": -2.3116388491,
				"y": 2.4057277829,
				"z": -4.5479709774,
				"element": "H" 
			},
			{
				"x": -1.2924796132,
				"y": 3.8339082545,
				"z": -4.6113220009,
				"element": "H" 
			},
			{
				"x": 0.1424172799,
				"y": 1.858402041,
				"z": -4.6343503983,
				"element": "H" 
			},
			{
				"x": -0.6730497131,
				"y": 1.1619873055,
				"z": -3.2618522301,
				"element": "H" 
			},
			{
				"x": 1.9394707392,
				"y": 3.5643659785,
				"z": -4.3818758749,
				"element": "H" 
			},
			{
				"x": 2.8601677717,
				"y": 3.3018401131,
				"z": -2.8889941419,
				"element": "H" 
			},
			{
				"x": 2.3715143688,
				"y": 1.924645647,
				"z": -3.8810535396,
				"element": "H" 
			},
			{
				"x": 1.7158585114,
				"y": 1.1454932058,
				"z": -1.7975429717,
				"element": "H" 
			},
			{
				"x": -1.1403787928,
				"y": 1.5436168029,
				"z": -1.12454068,
				"element": "H" 
			},
			{
				"x": -0.1724637052,
				"y": 0.0979191588,
				"z": -1.2027474723,
				"element": "H" 
			},
			{
				"x": -0.9009340102,
				"y": 0.3956342469,
				"z": 1.0880204947,
				"element": "H" 
			},
			{
				"x": -0.4990901922,
				"y": 2.097014632,
				"z": 1.0690455968,
				"element": "H" 
			},
			{
				"x": 0.8271087991,
				"y": 2.2600014339,
				"z": 2.998162232,
				"element": "H" 
			},
			{
				"x": 1.9945811441,
				"y": 1.0123829234,
				"z": 3.4426624199,
				"element": "H" 
			},
			{
				"x": 0.2673119359,
				"y": 0.6273939685,
				"z": 3.3630213877,
				"element": "H" 
			}
		],
		 "valence_orbital": [ 
			{
				"type": "occ",
				"energy": -0.28304,
				"method": "rhf"
			},
			{
				"type": "occ",
				"energy": -0.27797,
				"method": "rhf"
			},
			{
				"type": "occ",
				"energy": -0.2731,
				"method": "rhf"
			},
			{
				"type": "occ",
				"energy": -0.25278,
				"method": "rhf"
			},
			{
				"type": "occ",
				"energy": -0.223,
				"method": "rhf"
			},
			{
				"type": "unocc",
				"energy": 0.03057,
				"method": "rhf"
			},
			{
				"type": "unocc",
				"energy": 0.06405,
				"method": "rhf"
			},
			{
				"type": "unocc",
				"energy": 0.07348,
				"method": "rhf"
			},
			{
				"type": "unocc",
				"energy": 0.08081,
				"method": "rhf"
			},
			{
				"type": "unocc",
				"energy": 0.08362,
				"method": "rhf"
			}
		],
		"cosmo_sigma_profile": { 
			"-0.025": 0.0,
			"-0.024": 0.0,
			"-0.023": 0.0,
			"-0.022": 0.0,
			"-0.021": 0.0,
			"-0.02": 0.0,
			"-0.019": 0.0,
			"-0.018": 0.0,
			"-0.017": 0.0,
			"-0.016": 0.0,
			"-0.015": 0.0682183853561,
			"-0.014": 0.729825890669,
			"-0.013": 1.07910375417,
			"-0.012": 0.688206614208,
			"-0.011": 1.01669348811,
			"-0.01": 0.856392730111,
			"-0.009": 1.03928217654,
			"-0.008": 1.14582695318,
			"-0.007": 1.33046033283,
			"-0.006": 1.24928144783,
			"-0.005": 1.38182907759,
			"-0.004": 3.05455307199,
			"-0.003": 20.7252965569,
			"-0.002": 79.5051910596,
			"-0.001": 101.79986334,
			"0.0": 98.3596189193,
			"0.001": 78.0829211869,
			"0.002": 54.4989115093,
			"0.003": 10.9981080565,
			"0.004": 4.51519434572,
			"0.005": 4.15136660322,
			"0.006": 2.64317530326,
			"0.007": 1.39287507873,
			"0.008": 0.937527072699,
			"0.009": 1.59897473403,
			"0.01": 1.47904750714,
			"0.011": 0.759850817576,
			"0.012": 1.31023670922,
			"0.013": 1.53548099244,
			"0.014": 1.70552567544,
			"0.015": 2.44805624529,
			"0.016": 0.161265377407,
			"0.017": 0.0,
			"0.018": 0.0,
			"0.019": 0.0,
			"0.02": 0.0,
			"0.021": 0.0,
			"0.022": 0.0,
			"0.023": 0.0,
			"0.024": 0.0,
			"0.025": 0.0
		}
	}
}
