{
	 "smiles": "CCCCC=CC(O)=O", 
	 "Tm": 254.15, 
	 "num_atms": 21, 
	 "gaussian": { 
		 "optdone": 1, 
		 "sigma_profile": "yes", 
		 "theory": "DFT", 
		 "functional": "B3LYP", 
		 "basiset": "6-31G**", 
		 "properties": { 
			 "R2extent": 2136.7839, 
			 "electric_dipole_moment_norm": 4.65183745524, 
			 "electric_quadrupole_moment_norm": 18.9151885156, 
			 "total_energy": -424.422840992, 
			 "HOMO_LUMO_gap": 0.22317, 
			 "cosmo_polarized_energy": -13.66, 
			 "cosmo_cavitation_energy": 24.36, 
			 "cosmo_dispersion_energy": -17.23, 
			 "cosmo_repulsion_energy": 1.46, 
			 "cosmo_total_nonelectrostatic_energy": 8.59, 
			 "SMD_solvation_energy": 5.39 
		},
		"coords": [
			{
				"x": 0.2232500411,
				"y": 2.3597067793,
				"z": 1.5523546147,
				"element": "C" 
			},
			{
				"x": -0.6256133359,
				"y": 2.4030472886,
				"z": 0.2743309417,
				"element": "C" 
			},
			{
				"x": -0.2563473881,
				"y": 1.3518606922,
				"z": -0.7921161417,
				"element": "C" 
			},
			{
				"x": -0.95033252,
				"y": -0.0284929221,
				"z": -0.6630266125,
				"element": "C" 
			},
			{
				"x": -0.6786004952,
				"y": -0.7608669214,
				"z": 0.615000669,
				"element": "C" 
			},
			{
				"x": 0.0558070661,
				"y": -1.8745386593,
				"z": 0.734231015,
				"element": "C" 
			},
			{
				"x": 0.2640725333,
				"y": -2.4981601943,
				"z": 2.0691877137,
				"element": "C" 
			},
			{
				"x": 1.0052563883,
				"y": -3.6420982435,
				"z": 2.0779577921,
				"element": "O" 
			},
			{
				"x": -0.1718903361,
				"y": -2.0580333178,
				"z": 3.1085423275,
				"element": "O" 
			},
			{
				"x": 1.2824362397,
				"y": 2.5166554222,
				"z": 1.31867126,
				"element": "H" 
			},
			{
				"x": -0.0813985154,
				"y": 3.1474913776,
				"z": 2.2491944982,
				"element": "H" 
			},
			{
				"x": 0.1442146609,
				"y": 1.4053225506,
				"z": 2.0805502149,
				"element": "H" 
			},
			{
				"x": -1.690670849,
				"y": 2.3084155078,
				"z": 0.5274756676,
				"element": "H" 
			},
			{
				"x": -0.5166612506,
				"y": 3.39864375,
				"z": -0.1733526267,
				"element": "H" 
			},
			{
				"x": -0.5220072518,
				"y": 1.7391576457,
				"z": -1.7831932891,
				"element": "H" 
			},
			{
				"x": 0.8315573196,
				"y": 1.20598613,
				"z": -0.8018009552,
				"element": "H" 
			},
			{
				"x": -0.6497181509,
				"y": -0.6504178864,
				"z": -1.5147011815,
				"element": "H" 
			},
			{
				"x": -2.034977422,
				"y": 0.1277440033,
				"z": -0.7501994254,
				"element": "H" 
			},
			{
				"x": -1.1115001655,
				"y": -0.3653807252,
				"z": 1.5321406376,
				"element": "H" 
			},
			{
				"x": 0.5107212115,
				"y": -2.3347093305,
				"z": -0.1430129147,
				"element": "H" 
			},
			{
				"x": 1.2771022198,
				"y": -3.8717329469,
				"z": 1.1786657948,
				"element": "H" 
			}
		],
		 "valence_orbital": [ 
			{
				"type": "occ",
				"energy": -0.33138,
				"method": "rhf"
			},
			{
				"type": "occ",
				"energy": -0.32849,
				"method": "rhf"
			},
			{
				"type": "occ",
				"energy": -0.31093,
				"method": "rhf"
			},
			{
				"type": "occ",
				"energy": -0.27092,
				"method": "rhf"
			},
			{
				"type": "occ",
				"energy": -0.2671,
				"method": "rhf"
			},
			{
				"type": "unocc",
				"energy": -0.04393,
				"method": "rhf"
			},
			{
				"type": "unocc",
				"energy": 0.06067,
				"method": "rhf"
			},
			{
				"type": "unocc",
				"energy": 0.0799,
				"method": "rhf"
			},
			{
				"type": "unocc",
				"energy": 0.09641,
				"method": "rhf"
			},
			{
				"type": "unocc",
				"energy": 0.10579,
				"method": "rhf"
			}
		],
		"cosmo_sigma_profile": { 
			"-0.025": 0.0,
			"-0.024": 0.0,
			"-0.023": 0.0,
			"-0.022": 0.0,
			"-0.021": 0.0,
			"-0.02": 0.0,
			"-0.019": 0.48339911905,
			"-0.018": 1.29634521173,
			"-0.017": 0.926335129459,
			"-0.016": 1.44049873788,
			"-0.015": 0.969144318699,
			"-0.014": 0.824941737175,
			"-0.013": 1.27874859531,
			"-0.012": 0.838513592136,
			"-0.011": 0.597335057171,
			"-0.01": 1.22236030328,
			"-0.009": 1.35811470799,
			"-0.008": 0.896083453783,
			"-0.007": 1.8589685753,
			"-0.006": 2.1533373362,
			"-0.005": 4.17408396525,
			"-0.004": 9.4248516263,
			"-0.003": 16.6054129974,
			"-0.002": 25.1906861002,
			"-0.001": 25.7824349514,
			"0.0": 24.888492199,
			"0.001": 19.4144564647,
			"0.002": 10.2878164466,
			"0.003": 4.48451842073,
			"0.004": 2.79299059818,
			"0.005": 1.65704532883,
			"0.006": 2.80783135523,
			"0.007": 2.38792554333,
			"0.008": 2.38809514172,
			"0.009": 2.75172316017,
			"0.01": 3.66921767564,
			"0.011": 4.94463825509,
			"0.012": 5.6174385048,
			"0.013": 3.84449326882,
			"0.014": 0.798967050382,
			"0.015": 0.0,
			"0.016": 0.0,
			"0.017": 0.0,
			"0.018": 0.0,
			"0.019": 0.0,
			"0.02": 0.0,
			"0.021": 0.0,
			"0.022": 0.0,
			"0.023": 0.0,
			"0.024": 0.0,
			"0.025": 0.0
		}
	}
}
