{
	 "smiles": "COC1=NC=C(F)C2=NC(=NN12)S(=O)(=O)NC1=C(F)C=CC=C1F", 
	 "Tm": 467.15, 
	 "num_atms": 32, 
	 "gaussian": { 
		 "optdone": 1, 
		 "sigma_profile": "yes", 
		 "theory": "DFT", 
		 "functional": "B3LYP", 
		 "basiset": "6-31G**", 
		 "properties": { 
			 "R2extent": 9407.7147, 
			 "electric_dipole_moment_norm": 5.62710629098, 
			 "electric_quadrupole_moment_norm": 37.1760583365, 
			 "total_energy": -1659.08974744, 
			 "HOMO_LUMO_gap": 0.18716, 
			 "cosmo_polarized_energy": -20.8, 
			 "cosmo_cavitation_energy": 41.43, 
			 "cosmo_dispersion_energy": -29.4, 
			 "cosmo_repulsion_energy": 2.13, 
			 "cosmo_total_nonelectrostatic_energy": 14.16, 
			 "SMD_solvation_energy": 4.57 
		},
		"coords": [
			{
				"x": -2.6243223098,
				"y": 0.0372844356,
				"z": 4.7620920011,
				"element": "C" 
			},
			{
				"x": -1.7304291328,
				"y": 0.3180432319,
				"z": 3.6684833269,
				"element": "O" 
			},
			{
				"x": -0.8138013542,
				"y": -0.6004460742,
				"z": 3.407349275,
				"element": "C" 
			},
			{
				"x": -0.6771332354,
				"y": -1.7155199723,
				"z": 4.0616304943,
				"element": "N" 
			},
			{
				"x": 0.3111418278,
				"y": -2.5902736332,
				"z": 3.6994045704,
				"element": "C" 
			},
			{
				"x": 1.1776267493,
				"y": -2.3516646577,
				"z": 2.6694502786,
				"element": "C" 
			},
			{
				"x": 2.137259147,
				"y": -3.2163241529,
				"z": 2.3279382669,
				"element": "F" 
			},
			{
				"x": 1.0448322779,
				"y": -1.1398589797,
				"z": 1.9444525914,
				"element": "C" 
			},
			{
				"x": 1.6884137735,
				"y": -0.5943244296,
				"z": 0.9207170658,
				"element": "N" 
			},
			{
				"x": 1.0142209219,
				"y": 0.5662319269,
				"z": 0.7559723644,
				"element": "C" 
			},
			{
				"x": 0.0056459975,
				"y": 0.8259059838,
				"z": 1.5760529764,
				"element": "N" 
			},
			{
				"x": 0.0227906721,
				"y": -0.2888145666,
				"z": 2.3556082844,
				"element": "N" 
			},
			{
				"x": 1.5212129942,
				"y": 1.7889086837,
				"z": -0.4619673836,
				"element": "S" 
			},
			{
				"x": 0.449437871,
				"y": 2.7657393854,
				"z": -0.5881469984,
				"element": "O" 
			},
			{
				"x": 2.8987394227,
				"y": 2.1558881775,
				"z": -0.1432906729,
				"element": "O" 
			},
			{
				"x": 1.6313222488,
				"y": 0.8466545861,
				"z": -1.8752105267,
				"element": "N" 
			},
			{
				"x": 0.6608383554,
				"y": 0.9223401832,
				"z": -2.8958318053,
				"element": "C" 
			},
			{
				"x": 1.023865113,
				"y": 1.2699365328,
				"z": -4.2014029452,
				"element": "C" 
			},
			{
				"x": 2.3247567765,
				"y": 1.5646898576,
				"z": -4.420429277,
				"element": "F" 
			},
			{
				"x": 0.120021761,
				"y": 1.2933052801,
				"z": -5.2529237618,
				"element": "C" 
			},
			{
				"x": -1.2151209047,
				"y": 0.9790751421,
				"z": -4.9927623463,
				"element": "C" 
			},
			{
				"x": -1.6234454728,
				"y": 0.6305884876,
				"z": -3.7041475029,
				"element": "C" 
			},
			{
				"x": -0.6814951018,
				"y": 0.59336443,
				"z": -2.6857148323,
				"element": "C" 
			},
			{
				"x": -1.0560838413,
				"y": 0.2337135384,
				"z": -1.4430979893,
				"element": "F" 
			},
			{
				"x": -3.2865743247,
				"y": 0.9002527382,
				"z": 4.8106303866,
				"element": "H" 
			},
			{
				"x": -3.189600424,
				"y": -0.8769098798,
				"z": 4.5674852423,
				"element": "H" 
			},
			{
				"x": -2.0640925049,
				"y": -0.0762413826,
				"z": 5.6928901679,
				"element": "H" 
			},
			{
				"x": 0.3870843529,
				"y": -3.507540898,
				"z": 4.2743467033,
				"element": "H" 
			},
			{
				"x": 2.5900476887,
				"y": 0.8806240851,
				"z": -2.2093271034,
				"element": "H" 
			},
			{
				"x": 0.4664387504,
				"y": 1.5643271503,
				"z": -6.2435159237,
				"element": "H" 
			},
			{
				"x": -1.9406004662,
				"y": 1.0038204749,
				"z": -5.7988170947,
				"element": "H" 
			},
			{
				"x": -2.6524976291,
				"y": 0.3777243156,
				"z": -3.4764178324,
				"element": "H" 
			}
		],
		 "valence_orbital": [ 
			{
				"type": "occ",
				"energy": -0.30869,
				"method": "rhf"
			},
			{
				"type": "occ",
				"energy": -0.2999,
				"method": "rhf"
			},
			{
				"type": "occ",
				"energy": -0.25743,
				"method": "rhf"
			},
			{
				"type": "occ",
				"energy": -0.25127,
				"method": "rhf"
			},
			{
				"type": "occ",
				"energy": -0.24179,
				"method": "rhf"
			},
			{
				"type": "unocc",
				"energy": -0.05463,
				"method": "rhf"
			},
			{
				"type": "unocc",
				"energy": -0.04883,
				"method": "rhf"
			},
			{
				"type": "unocc",
				"energy": -0.02293,
				"method": "rhf"
			},
			{
				"type": "unocc",
				"energy": -0.00973,
				"method": "rhf"
			},
			{
				"type": "unocc",
				"energy": 0.00942,
				"method": "rhf"
			}
		],
		"cosmo_sigma_profile": { 
			"-0.025": 0.0,
			"-0.024": 0.0,
			"-0.023": 0.0,
			"-0.022": 0.0,
			"-0.021": 0.0,
			"-0.02": 0.0,
			"-0.019": 0.0,
			"-0.018": 0.0,
			"-0.017": 0.0,
			"-0.016": 0.0301337536083,
			"-0.015": 0.425086751392,
			"-0.014": 0.527668654856,
			"-0.013": 0.617688437242,
			"-0.012": 0.604911109775,
			"-0.011": 1.10586720287,
			"-0.01": 2.11666637201,
			"-0.009": 5.17252956832,
			"-0.008": 9.38116080973,
			"-0.007": 17.2726265826,
			"-0.006": 20.8436357216,
			"-0.005": 21.8278316008,
			"-0.004": 22.3488332498,
			"-0.003": 18.7304205193,
			"-0.002": 18.8361430397,
			"-0.001": 18.2538016883,
			"0.0": 22.277645817,
			"0.001": 21.7937118772,
			"0.002": 25.8441769232,
			"0.003": 28.809162498,
			"0.004": 13.1765629453,
			"0.005": 8.01915760566,
			"0.006": 9.31381620603,
			"0.007": 7.52517044578,
			"0.008": 8.82296963369,
			"0.009": 15.445856884,
			"0.01": 10.8261448543,
			"0.011": 2.86407048152,
			"0.012": 2.03968137491,
			"0.013": 0.282903342622,
			"0.014": 0.0,
			"0.015": 0.0,
			"0.016": 0.0,
			"0.017": 0.0,
			"0.018": 0.0,
			"0.019": 0.0,
			"0.02": 0.0,
			"0.021": 0.0,
			"0.022": 0.0,
			"0.023": 0.0,
			"0.024": 0.0,
			"0.025": 0.0
		}
	}
}
