{
	 "smiles": "COC1=C(C)C(C)=C(C=C1)S(N)(=O)=O", 
	 "Tm": 476.15, 
	 "num_atms": 27, 
	 "gaussian": { 
		 "optdone": 1, 
		 "sigma_profile": "yes", 
		 "theory": "DFT", 
		 "functional": "B3LYP", 
		 "basiset": "6-31G**", 
		 "properties": { 
			 "R2extent": 3782.5581, 
			 "electric_dipole_moment_norm": 4.66323002649, 
			 "electric_quadrupole_moment_norm": 13.0783158763, 
			 "total_energy": -1029.33231889, 
			 "HOMO_LUMO_gap": 0.21372, 
			 "cosmo_polarized_energy": -16.07, 
			 "cosmo_cavitation_energy": 30.54, 
			 "cosmo_dispersion_energy": -23.08, 
			 "cosmo_repulsion_energy": 1.76, 
			 "cosmo_total_nonelectrostatic_energy": 9.22, 
			 "SMD_solvation_energy": 5.78 
		},
		"coords": [
			{
				"x": 3.3116846426,
				"y": 3.5180273111,
				"z": -0.4477899323,
				"element": "C" 
			},
			{
				"x": 2.8596736641,
				"y": 2.421752624,
				"z": 0.3322854575,
				"element": "O" 
			},
			{
				"x": 1.8993802228,
				"y": 1.6001279512,
				"z": -0.1819335522,
				"element": "C" 
			},
			{
				"x": 1.4888084263,
				"y": 0.5324209325,
				"z": 0.6517663959,
				"element": "C" 
			},
			{
				"x": 2.1068497401,
				"y": 0.3873716833,
				"z": 2.0255597245,
				"element": "C" 
			},
			{
				"x": 0.5155477636,
				"y": -0.3677156078,
				"z": 0.1882478039,
				"element": "C" 
			},
			{
				"x": 0.0689465231,
				"y": -1.5241926348,
				"z": 1.0562384211,
				"element": "C" 
			},
			{
				"x": -0.0448138547,
				"y": -0.1581326733,
				"z": -1.0939252031,
				"element": "C" 
			},
			{
				"x": 0.3624336965,
				"y": 0.8996793346,
				"z": -1.9003957865,
				"element": "C" 
			},
			{
				"x": 1.3403638477,
				"y": 1.7814055974,
				"z": -1.4489232591,
				"element": "C" 
			},
			{
				"x": -1.3159438862,
				"y": -1.2845123513,
				"z": -1.6746194103,
				"element": "S" 
			},
			{
				"x": -1.7729294307,
				"y": -0.6239373773,
				"z": -3.1699377166,
				"element": "N" 
			},
			{
				"x": -0.7120244974,
				"y": -2.5929634557,
				"z": -1.9637644392,
				"element": "O" 
			},
			{
				"x": -2.4745727825,
				"y": -1.1822441713,
				"z": -0.7779251913,
				"element": "O" 
			},
			{
				"x": 4.063842597,
				"y": 4.0257830108,
				"z": 0.1577035812,
				"element": "H" 
			},
			{
				"x": 3.769902034,
				"y": 3.1841880427,
				"z": -1.3871403222,
				"element": "H" 
			},
			{
				"x": 2.4969104425,
				"y": 4.2175876006,
				"z": -0.6729648009,
				"element": "H" 
			},
			{
				"x": 2.7244079179,
				"y": 1.2520764608,
				"z": 2.2640534201,
				"element": "H" 
			},
			{
				"x": 1.3390629305,
				"y": 0.291930868,
				"z": 2.7994811115,
				"element": "H" 
			},
			{
				"x": 2.7434222182,
				"y": -0.5034808451,
				"z": 2.0871404648,
				"element": "H" 
			},
			{
				"x": 0.8057168575,
				"y": -1.7547998341,
				"z": 1.8255598181,
				"element": "H" 
			},
			{
				"x": -0.0863900252,
				"y": -2.4259220603,
				"z": 0.460583777,
				"element": "H" 
			},
			{
				"x": -0.8819439871,
				"y": -1.2948095483,
				"z": 1.5496505939,
				"element": "H" 
			},
			{
				"x": -0.0854574515,
				"y": 1.0325214122,
				"z": -2.8768297529,
				"element": "H" 
			},
			{
				"x": 1.65181728,
				"y": 2.598292232,
				"z": -2.0875013098,
				"element": "H" 
			},
			{
				"x": -2.7463407803,
				"y": -0.3362180104,
				"z": -3.1134700219,
				"element": "H" 
			},
			{
				"x": -1.6387541088,
				"y": -1.3344364918,
				"z": -3.8845498711,
				"element": "H" 
			}
		],
		 "valence_orbital": [ 
			{
				"type": "occ",
				"energy": -0.30799,
				"method": "rhf"
			},
			{
				"type": "occ",
				"energy": -0.29418,
				"method": "rhf"
			},
			{
				"type": "occ",
				"energy": -0.28329,
				"method": "rhf"
			},
			{
				"type": "occ",
				"energy": -0.24655,
				"method": "rhf"
			},
			{
				"type": "occ",
				"energy": -0.2275,
				"method": "rhf"
			},
			{
				"type": "unocc",
				"energy": -0.01378,
				"method": "rhf"
			},
			{
				"type": "unocc",
				"energy": -0.00909,
				"method": "rhf"
			},
			{
				"type": "unocc",
				"energy": 0.05617,
				"method": "rhf"
			},
			{
				"type": "unocc",
				"energy": 0.07528,
				"method": "rhf"
			},
			{
				"type": "unocc",
				"energy": 0.09206,
				"method": "rhf"
			}
		],
		"cosmo_sigma_profile": { 
			"-0.025": 0.0,
			"-0.024": 0.0,
			"-0.023": 0.0,
			"-0.022": 0.0,
			"-0.021": 0.0,
			"-0.02": 0.0,
			"-0.019": 0.0,
			"-0.018": 0.0,
			"-0.017": 0.0,
			"-0.016": 0.0,
			"-0.015": 0.896625018439,
			"-0.014": 2.02331366891,
			"-0.013": 2.72387722541,
			"-0.012": 3.36166880115,
			"-0.011": 1.27717327377,
			"-0.01": 1.53681059905,
			"-0.009": 1.94997543281,
			"-0.008": 1.71684859551,
			"-0.007": 3.73799671277,
			"-0.006": 9.6368984912,
			"-0.005": 15.3015051784,
			"-0.004": 20.5970813218,
			"-0.003": 20.1536478052,
			"-0.002": 17.3419257704,
			"-0.001": 17.6432022711,
			"0.0": 19.2673624975,
			"0.001": 13.9407106877,
			"0.002": 14.6755259162,
			"0.003": 15.9657703411,
			"0.004": 12.8583616164,
			"0.005": 6.07958154267,
			"0.006": 6.60390106297,
			"0.007": 3.40506017009,
			"0.008": 3.63892783053,
			"0.009": 3.22311471724,
			"0.01": 5.21155883402,
			"0.011": 11.2063429131,
			"0.012": 5.13830834436,
			"0.013": 0.161710785321,
			"0.014": 0.0,
			"0.015": 0.0,
			"0.016": 0.0,
			"0.017": 0.0,
			"0.018": 0.0,
			"0.019": 0.0,
			"0.02": 0.0,
			"0.021": 0.0,
			"0.022": 0.0,
			"0.023": 0.0,
			"0.024": 0.0,
			"0.025": 0.0
		}
	}
}
