{
	 "smiles": "CC(CCC1=C(C2=CC=C(C)O2)C2=CC(Br)=CC=C2O1)=NO", 
	 "Tm": 405.15, 
	 "num_atms": 38, 
	 "gaussian": { 
		 "optdone": 1, 
		 "sigma_profile": "yes", 
		 "theory": "DFT", 
		 "functional": "B3LYP", 
		 "basiset": "6-31G**", 
		 "properties": { 
			 "R2extent": 10909.847, 
			 "electric_dipole_moment_norm": 3.0207111762, 
			 "electric_quadrupole_moment_norm": 12.6243646616, 
			 "total_energy": -3509.21614208, 
			 "HOMO_LUMO_gap": 0.16447, 
			 "cosmo_polarized_energy": -13.09, 
			 "cosmo_cavitation_energy": 45.03, 
			 "cosmo_dispersion_energy": -30.84, 
			 "cosmo_repulsion_energy": 2.39, 
			 "cosmo_total_nonelectrostatic_energy": 16.58, 
			 "SMD_solvation_energy": 6.76 
		},
		"coords": [
			{
				"x": -0.8736986942,
				"y": -2.4494845203,
				"z": -3.6172628988,
				"element": "C" 
			},
			{
				"x": -0.3550493367,
				"y": -2.9272219407,
				"z": -2.2873143912,
				"element": "C" 
			},
			{
				"x": 1.0363445406,
				"y": -2.5476153721,
				"z": -1.8424992858,
				"element": "C" 
			},
			{
				"x": 1.2622389925,
				"y": -1.0163283538,
				"z": -1.7063812282,
				"element": "C" 
			},
			{
				"x": 0.4015200891,
				"y": -0.3509228486,
				"z": -0.689760849,
				"element": "C" 
			},
			{
				"x": 0.5953124031,
				"y": -0.0219293065,
				"z": 0.6286005285,
				"element": "C" 
			},
			{
				"x": 1.7714083538,
				"y": -0.2780824482,
				"z": 1.4339153127,
				"element": "C" 
			},
			{
				"x": 2.8248644007,
				"y": -1.1520387349,
				"z": 1.3516373976,
				"element": "C" 
			},
			{
				"x": 3.6688993602,
				"y": -0.8857710261,
				"z": 2.4756302943,
				"element": "C" 
			},
			{
				"x": 3.0813767934,
				"y": 0.1227781401,
				"z": 3.1818824708,
				"element": "C" 
			},
			{
				"x": 3.4327956108,
				"y": 0.8467181232,
				"z": 4.4331527846,
				"element": "C" 
			},
			{
				"x": 1.9239478455,
				"y": 0.5026602959,
				"z": 2.5563823804,
				"element": "O" 
			},
			{
				"x": -0.6270773918,
				"y": 0.6386493638,
				"z": 1.0557130098,
				"element": "C" 
			},
			{
				"x": -1.0824619334,
				"y": 1.2148374383,
				"z": 2.2505621809,
				"element": "C" 
			},
			{
				"x": -2.3639237362,
				"y": 1.7532749096,
				"z": 2.2528296405,
				"element": "C" 
			},
			{
				"x": -3.0290393791,
				"y": 2.5513049954,
				"z": 3.8639221527,
				"element": "Br" 
			},
			{
				"x": -3.1980290922,
				"y": 1.7401103574,
				"z": 1.1225666254,
				"element": "C" 
			},
			{
				"x": -2.7521753686,
				"y": 1.1697104673,
				"z": -0.0685512287,
				"element": "C" 
			},
			{
				"x": -1.4717886945,
				"y": 0.6325503738,
				"z": -0.0661386883,
				"element": "C" 
			},
			{
				"x": -0.8489180914,
				"y": 0.0331149178,
				"z": -1.12538875,
				"element": "O" 
			},
			{
				"x": -1.0190650828,
				"y": -3.6496272714,
				"z": -1.4611263237,
				"element": "N" 
			},
			{
				"x": -2.309068057,
				"y": -3.9486738343,
				"z": -1.9441105451,
				"element": "O" 
			},
			{
				"x": -1.4498310437,
				"y": -1.5261679535,
				"z": -3.4864774038,
				"element": "H" 
			},
			{
				"x": -0.0513707512,
				"y": -2.2393589718,
				"z": -4.3073286772,
				"element": "H" 
			},
			{
				"x": -1.5400586871,
				"y": -3.1929330932,
				"z": -4.0588268397,
				"element": "H" 
			},
			{
				"x": 1.7634940273,
				"y": -2.9264438673,
				"z": -2.5740887209,
				"element": "H" 
			},
			{
				"x": 1.2361208403,
				"y": -3.0405307698,
				"z": -0.8870424885,
				"element": "H" 
			},
			{
				"x": 1.090749614,
				"y": -0.5319200901,
				"z": -2.6745872385,
				"element": "H" 
			},
			{
				"x": 2.3094450248,
				"y": -0.8396806141,
				"z": -1.4397505969,
				"element": "H" 
			},
			{
				"x": 2.9674969775,
				"y": -1.9163513282,
				"z": 0.6024945093,
				"element": "H" 
			},
			{
				"x": 4.5907359925,
				"y": -1.3884219211,
				"z": 2.7316271015,
				"element": "H" 
			},
			{
				"x": 4.3722215071,
				"y": 0.4592659554,
				"z": 4.8339418941,
				"element": "H" 
			},
			{
				"x": 2.6576073959,
				"y": 0.7252573709,
				"z": 5.1988293349,
				"element": "H" 
			},
			{
				"x": 3.5525285557,
				"y": 1.9217895431,
				"z": 4.2555668837,
				"element": "H" 
			},
			{
				"x": -0.4586051641,
				"y": 1.2433467592,
				"z": 3.1337601965,
				"element": "H" 
			},
			{
				"x": -4.1883204914,
				"y": 2.1756484752,
				"z": 1.1818041858,
				"element": "H" 
			},
			{
				"x": -3.3755819267,
				"y": 1.1440404912,
				"z": -0.9553822333,
				"element": "H" 
			},
			{
				"x": -2.6584454027,
				"y": -4.5104537115,
				"z": -1.2402004964,
				"element": "H" 
			}
		],
		 "valence_orbital": [ 
			{
				"type": "occ",
				"energy": -0.26788,
				"method": "rhf"
			},
			{
				"type": "occ",
				"energy": -0.24653,
				"method": "rhf"
			},
			{
				"type": "occ",
				"energy": -0.24279,
				"method": "rhf"
			},
			{
				"type": "occ",
				"energy": -0.22763,
				"method": "rhf"
			},
			{
				"type": "occ",
				"energy": -0.19618,
				"method": "rhf"
			},
			{
				"type": "unocc",
				"energy": -0.03171,
				"method": "rhf"
			},
			{
				"type": "unocc",
				"energy": -0.00178,
				"method": "rhf"
			},
			{
				"type": "unocc",
				"energy": 0.004,
				"method": "rhf"
			},
			{
				"type": "unocc",
				"energy": 0.01176,
				"method": "rhf"
			},
			{
				"type": "unocc",
				"energy": 0.01353,
				"method": "rhf"
			}
		],
		"cosmo_sigma_profile": { 
			"-0.025": 0.0,
			"-0.024": 0.0,
			"-0.023": 0.0,
			"-0.022": 0.0,
			"-0.021": 0.0,
			"-0.02": 0.0,
			"-0.019": 0.0,
			"-0.018": 0.0,
			"-0.017": 0.462300637034,
			"-0.016": 1.07757912104,
			"-0.015": 0.78909474559,
			"-0.014": 1.08507199986,
			"-0.013": 0.678668753201,
			"-0.012": 0.733991438882,
			"-0.011": 0.169562849699,
			"-0.01": 0.316265903114,
			"-0.009": 0.519974285499,
			"-0.008": 1.92934623997,
			"-0.007": 5.40324325084,
			"-0.006": 13.266804412,
			"-0.005": 25.9954365175,
			"-0.004": 26.9458463481,
			"-0.003": 27.8881000252,
			"-0.002": 28.1967092831,
			"-0.001": 30.3760248608,
			"0.0": 27.0702803658,
			"0.001": 25.9335389796,
			"0.002": 33.8786815302,
			"0.003": 37.763689725,
			"0.004": 24.1891395431,
			"0.005": 20.5337879087,
			"0.006": 9.44286024779,
			"0.007": 4.38294453529,
			"0.008": 2.59051948849,
			"0.009": 3.45698835008,
			"0.01": 2.53524297082,
			"0.011": 1.73726124859,
			"0.012": 1.14761528333,
			"0.013": 0.598238796263,
			"0.014": 0.57827035653,
			"0.015": 0.0,
			"0.016": 0.0,
			"0.017": 0.0,
			"0.018": 0.0,
			"0.019": 0.0,
			"0.02": 0.0,
			"0.021": 0.0,
			"0.022": 0.0,
			"0.023": 0.0,
			"0.024": 0.0,
			"0.025": 0.0
		}
	}
}
