{
	 "smiles": "NC1=CC(F)=C(N2CCCCC2)C(F)=C1", 
	 "Tm": 344.15, 
	 "num_atms": 29, 
	 "gaussian": { 
		 "optdone": 1, 
		 "sigma_profile": "yes", 
		 "theory": "DFT", 
		 "functional": "B3LYP", 
		 "basiset": "6-31G**", 
		 "properties": { 
			 "R2extent": 3642.0629, 
			 "electric_dipole_moment_norm": 1.56256681777, 
			 "electric_quadrupole_moment_norm": 17.6247990854, 
			 "total_energy": -736.77113391, 
			 "HOMO_LUMO_gap": 0.18244, 
			 "cosmo_polarized_energy": -8.35, 
			 "cosmo_cavitation_energy": 31.07, 
			 "cosmo_dispersion_energy": -22.65, 
			 "cosmo_repulsion_energy": 1.74, 
			 "cosmo_total_nonelectrostatic_energy": 10.15, 
			 "SMD_solvation_energy": 4.7 
		},
		"coords": [
			{
				"x": 1.5849442645,
				"y": -4.1734343592,
				"z": -0.9609258248,
				"element": "N" 
			},
			{
				"x": 0.9835859373,
				"y": -2.965576237,
				"z": -0.5910612508,
				"element": "C" 
			},
			{
				"x": 0.0019479409,
				"y": -2.3737383879,
				"z": -1.4004107649,
				"element": "C" 
			},
			{
				"x": -0.5497486922,
				"y": -1.1563309306,
				"z": -1.0317384914,
				"element": "C" 
			},
			{
				"x": -1.527379594,
				"y": -0.645868403,
				"z": -1.8185538306,
				"element": "F" 
			},
			{
				"x": -0.1619628245,
				"y": -0.417424545,
				"z": 0.101598419,
				"element": "C" 
			},
			{
				"x": -0.7246726199,
				"y": 0.8141120524,
				"z": 0.4329815664,
				"element": "N" 
			},
			{
				"x": -0.9346128513,
				"y": 1.8407805621,
				"z": -0.5923529368,
				"element": "C" 
			},
			{
				"x": -0.8066108078,
				"y": 3.2354543249,
				"z": 0.0288594049,
				"element": "C" 
			},
			{
				"x": -1.8553910399,
				"y": 3.4625617901,
				"z": 1.1414757206,
				"element": "C" 
			},
			{
				"x": -2.2241607936,
				"y": 2.1385383916,
				"z": 1.8506869837,
				"element": "C" 
			},
			{
				"x": -1.0629341993,
				"y": 1.1394634472,
				"z": 1.8204977414,
				"element": "C" 
			},
			{
				"x": 0.8407946792,
				"y": -1.045210261,
				"z": 0.8631027029,
				"element": "C" 
			},
			{
				"x": 1.2979367748,
				"y": -0.4063708777,
				"z": 1.9672690407,
				"element": "F" 
			},
			{
				"x": 1.3910003755,
				"y": -2.2830624753,
				"z": 0.564965667,
				"element": "C" 
			},
			{
				"x": 1.9823098537,
				"y": -4.6976788385,
				"z": -0.1932037565,
				"element": "H" 
			},
			{
				"x": 1.0150036855,
				"y": -4.7630644859,
				"z": -1.5524624027,
				"element": "H" 
			},
			{
				"x": -0.3571713691,
				"y": -2.8564756933,
				"z": -2.3034064143,
				"element": "H" 
			},
			{
				"x": -0.1813246193,
				"y": 1.7095825567,
				"z": -1.3766093469,
				"element": "H" 
			},
			{
				"x": -1.916561421,
				"y": 1.7402140902,
				"z": -1.0803162403,
				"element": "H" 
			},
			{
				"x": 0.2044745144,
				"y": 3.3372578694,
				"z": 0.4404185918,
				"element": "H" 
			},
			{
				"x": -0.9053751326,
				"y": 3.9943666757,
				"z": -0.7552743759,
				"element": "H" 
			},
			{
				"x": -2.7618230733,
				"y": 3.9120926347,
				"z": 0.7201014977,
				"element": "H" 
			},
			{
				"x": -1.4623164695,
				"y": 4.1839702216,
				"z": 1.8669252129,
				"element": "H" 
			},
			{
				"x": -3.0870601497,
				"y": 1.6762887251,
				"z": 1.3570851517,
				"element": "H" 
			},
			{
				"x": -2.5175610391,
				"y": 2.3256433949,
				"z": 2.8896381573,
				"element": "H" 
			},
			{
				"x": -1.3495157591,
				"y": 0.215200827,
				"z": 2.3337255296,
				"element": "H" 
			},
			{
				"x": -0.2041298992,
				"y": 1.5515978584,
				"z": 2.3730622405,
				"element": "H" 
			},
			{
				"x": 2.1585143286,
				"y": -2.6823899277,
				"z": 1.2198220077,
				"element": "H" 
			}
		],
		 "valence_orbital": [ 
			{
				"type": "occ",
				"energy": -0.31299,
				"method": "rhf"
			},
			{
				"type": "occ",
				"energy": -0.29719,
				"method": "rhf"
			},
			{
				"type": "occ",
				"energy": -0.23458,
				"method": "rhf"
			},
			{
				"type": "occ",
				"energy": -0.23298,
				"method": "rhf"
			},
			{
				"type": "occ",
				"energy": -0.17094,
				"method": "rhf"
			},
			{
				"type": "unocc",
				"energy": 0.0115,
				"method": "rhf"
			},
			{
				"type": "unocc",
				"energy": 0.0216,
				"method": "rhf"
			},
			{
				"type": "unocc",
				"energy": 0.07605,
				"method": "rhf"
			},
			{
				"type": "unocc",
				"energy": 0.08245,
				"method": "rhf"
			},
			{
				"type": "unocc",
				"energy": 0.09686,
				"method": "rhf"
			}
		],
		"cosmo_sigma_profile": { 
			"-0.025": 0.0,
			"-0.024": 0.0,
			"-0.023": 0.0,
			"-0.022": 0.0,
			"-0.021": 0.0,
			"-0.02": 0.0,
			"-0.019": 0.0,
			"-0.018": 0.0,
			"-0.017": 0.0,
			"-0.016": 0.0,
			"-0.015": 0.0,
			"-0.014": 0.0,
			"-0.013": 0.243281522498,
			"-0.012": 2.75970457802,
			"-0.011": 3.04294657463,
			"-0.01": 3.03600868299,
			"-0.009": 3.46621613731,
			"-0.008": 3.1404287963,
			"-0.007": 4.52431319674,
			"-0.006": 4.92962009472,
			"-0.005": 2.8526263297,
			"-0.004": 5.73671678922,
			"-0.003": 14.5063966715,
			"-0.002": 27.8521501825,
			"-0.001": 37.3670338967,
			"0.0": 23.94872733,
			"0.001": 19.2596004231,
			"0.002": 14.4385598621,
			"0.003": 18.2293120983,
			"0.004": 22.1957273621,
			"0.005": 21.9847981915,
			"0.006": 3.50975363663,
			"0.007": 0.860301854278,
			"0.008": 0.852258486107,
			"0.009": 0.965411193767,
			"0.01": 0.51201174027,
			"0.011": 0.646898718032,
			"0.012": 0.971386368293,
			"0.013": 0.663651186028,
			"0.014": 0.487533414183,
			"0.015": 0.387474535534,
			"0.016": 0.0,
			"0.017": 0.0,
			"0.018": 0.0,
			"0.019": 0.0,
			"0.02": 0.0,
			"0.021": 0.0,
			"0.022": 0.0,
			"0.023": 0.0,
			"0.024": 0.0,
			"0.025": 0.0
		}
	}
}
