{
	 "smiles": "NC1=C(OC(F)F)C=CC(=C1)[N+]([O-])=O", 
	 "Tm": 349.15, 
	 "num_atms": 20, 
	 "gaussian": { 
		 "optdone": 1, 
		 "sigma_profile": "yes", 
		 "theory": "DFT", 
		 "functional": "B3LYP", 
		 "basiset": "6-31G**", 
		 "properties": { 
			 "R2extent": 3819.8002, 
			 "electric_dipole_moment_norm": 4.35905638642, 
			 "electric_quadrupole_moment_norm": 27.8288807888, 
			 "total_energy": -805.111055062, 
			 "HOMO_LUMO_gap": 0.14242, 
			 "cosmo_polarized_energy": -13.4, 
			 "cosmo_cavitation_energy": 26.34, 
			 "cosmo_dispersion_energy": -19.16, 
			 "cosmo_repulsion_energy": 1.47, 
			 "cosmo_total_nonelectrostatic_energy": 8.64, 
			 "SMD_solvation_energy": 8.03 
		},
		"coords": [
			{
				"x": 0.2216863224,
				"y": -0.4218002161,
				"z": -1.8583742518,
				"element": "N" 
			},
			{
				"x": -0.0228973397,
				"y": -0.8502622266,
				"z": -0.5693314116,
				"element": "C" 
			},
			{
				"x": -0.0540594693,
				"y": 0.0867208729,
				"z": 0.4916476549,
				"element": "C" 
			},
			{
				"x": 0.2308075563,
				"y": 1.3905307605,
				"z": 0.1130506181,
				"element": "O" 
			},
			{
				"x": 0.832094726,
				"y": 2.2209442295,
				"z": 1.0342758903,
				"element": "C" 
			},
			{
				"x": -0.0921599396,
				"y": 2.7320384692,
				"z": 1.8921615511,
				"element": "F" 
			},
			{
				"x": 1.3582752792,
				"y": 3.2441109556,
				"z": 0.3411304236,
				"element": "F" 
			},
			{
				"x": -0.3675881658,
				"y": -0.2872312159,
				"z": 1.7954902989,
				"element": "C" 
			},
			{
				"x": -0.6287197957,
				"y": -1.6246685525,
				"z": 2.0937222798,
				"element": "C" 
			},
			{
				"x": -0.5801918214,
				"y": -2.5469337624,
				"z": 1.0539749921,
				"element": "C" 
			},
			{
				"x": -0.2908508164,
				"y": -2.188009465,
				"z": -0.2607611458,
				"element": "C" 
			},
			{
				"x": -0.848397873,
				"y": -3.9623935272,
				"z": 1.3472250092,
				"element": "N" 
			},
			{
				"x": -1.1044889551,
				"y": -4.2665290535,
				"z": 2.5120472241,
				"element": "O" 
			},
			{
				"x": -0.7988410093,
				"y": -4.7610311523,
				"z": 0.411007602,
				"element": "O" 
			},
			{
				"x": 0.546681819,
				"y": -1.1130169432,
				"z": -2.5167162609,
				"element": "H" 
			},
			{
				"x": 0.6445041974,
				"y": 0.4895974902,
				"z": -1.951535082,
				"element": "H" 
			},
			{
				"x": 1.6074312732,
				"y": 1.7110893999,
				"z": 1.6182751806,
				"element": "H" 
			},
			{
				"x": -0.4294559153,
				"y": 0.4662653179,
				"z": 2.5712344188,
				"element": "H" 
			},
			{
				"x": -0.8724513582,
				"y": -1.9488171255,
				"z": 3.0962309023,
				"element": "H" 
			},
			{
				"x": -0.2741787149,
				"y": -2.9527042558,
				"z": -1.0276558939,
				"element": "H" 
			}
		],
		 "valence_orbital": [ 
			{
				"type": "occ",
				"energy": -0.30703,
				"method": "rhf"
			},
			{
				"type": "occ",
				"energy": -0.3055,
				"method": "rhf"
			},
			{
				"type": "occ",
				"energy": -0.28827,
				"method": "rhf"
			},
			{
				"type": "occ",
				"energy": -0.27419,
				"method": "rhf"
			},
			{
				"type": "occ",
				"energy": -0.22827,
				"method": "rhf"
			},
			{
				"type": "unocc",
				"energy": -0.08585,
				"method": "rhf"
			},
			{
				"type": "unocc",
				"energy": -0.0213,
				"method": "rhf"
			},
			{
				"type": "unocc",
				"energy": 0.00941,
				"method": "rhf"
			},
			{
				"type": "unocc",
				"energy": 0.06743,
				"method": "rhf"
			},
			{
				"type": "unocc",
				"energy": 0.07979,
				"method": "rhf"
			}
		],
		"cosmo_sigma_profile": { 
			"-0.025": 0.0,
			"-0.024": 0.0,
			"-0.023": 0.0,
			"-0.022": 0.0,
			"-0.021": 0.0,
			"-0.02": 0.0,
			"-0.019": 0.0,
			"-0.018": 0.0,
			"-0.017": 0.0,
			"-0.016": 0.0,
			"-0.015": 0.0,
			"-0.014": 0.656231499514,
			"-0.013": 1.96926413439,
			"-0.012": 2.21986161509,
			"-0.011": 4.03815301655,
			"-0.01": 5.85041401531,
			"-0.009": 4.66443039374,
			"-0.008": 4.78696099766,
			"-0.007": 7.09936562353,
			"-0.006": 7.68859217824,
			"-0.005": 8.35671673888,
			"-0.004": 8.12554793998,
			"-0.003": 7.40506744279,
			"-0.002": 8.8445172026,
			"-0.001": 10.6005934479,
			"0.0": 16.1458771828,
			"0.001": 19.0329124831,
			"0.002": 19.305099794,
			"0.003": 26.0148925888,
			"0.004": 11.9405551968,
			"0.005": 3.42318917755,
			"0.006": 5.1198679688,
			"0.007": 7.47191558394,
			"0.008": 9.94182772897,
			"0.009": 5.00279332107,
			"0.01": 4.13761508176,
			"0.011": 0.816468464729,
			"0.012": 0.343476741479,
			"0.013": 0.0,
			"0.014": 0.0,
			"0.015": 0.0,
			"0.016": 0.0,
			"0.017": 0.0,
			"0.018": 0.0,
			"0.019": 0.0,
			"0.02": 0.0,
			"0.021": 0.0,
			"0.022": 0.0,
			"0.023": 0.0,
			"0.024": 0.0,
			"0.025": 0.0
		}
	}
}
