{
	 "smiles": "COC1=C(N)C=C(COC2=CC(F)=CC=C2)C=C1", 
	 "Tm": 331.15, 
	 "num_atms": 32, 
	 "gaussian": { 
		 "optdone": 1, 
		 "sigma_profile": "yes", 
		 "theory": "DFT", 
		 "functional": "B3LYP", 
		 "basiset": "6-31G**", 
		 "properties": { 
			 "R2extent": 6431.8248, 
			 "electric_dipole_moment_norm": 2.56205343231, 
			 "electric_quadrupole_moment_norm": 14.1981276343, 
			 "total_energy": -846.940016473, 
			 "HOMO_LUMO_gap": 0.2006, 
			 "cosmo_polarized_energy": -11.21, 
			 "cosmo_cavitation_energy": 36.49, 
			 "cosmo_dispersion_energy": -25.58, 
			 "cosmo_repulsion_energy": 1.98, 
			 "cosmo_total_nonelectrostatic_energy": 12.89, 
			 "SMD_solvation_energy": 7.45 
		},
		"coords": [
			{
				"x": 0.7266408581,
				"y": -3.730606331,
				"z": 1.4722702409,
				"element": "C" 
			},
			{
				"x": 1.1535620843,
				"y": -2.6044094256,
				"z": 2.2453466553,
				"element": "O" 
			},
			{
				"x": 1.1205219623,
				"y": -1.403876056,
				"z": 1.5532815258,
				"element": "C" 
			},
			{
				"x": -0.0411574682,
				"y": -0.6081267156,
				"z": 1.6549642526,
				"element": "C" 
			},
			{
				"x": -1.1305198046,
				"y": -1.0935868115,
				"z": 2.373288307,
				"element": "N" 
			},
			{
				"x": -0.0617442844,
				"y": 0.6274450535,
				"z": 0.9943738928,
				"element": "C" 
			},
			{
				"x": 1.0322338413,
				"y": 1.0584370628,
				"z": 0.2388905289,
				"element": "C" 
			},
			{
				"x": 1.0140977579,
				"y": 2.4253987446,
				"z": -0.4170810373,
				"element": "C" 
			},
			{
				"x": -0.2781862707,
				"y": 2.8572149068,
				"z": -0.8459441291,
				"element": "O" 
			},
			{
				"x": -0.7968392495,
				"y": 2.3613910974,
				"z": -2.0097057972,
				"element": "C" 
			},
			{
				"x": -1.9930560126,
				"y": 2.9623999941,
				"z": -2.4271230871,
				"element": "C" 
			},
			{
				"x": -2.582267254,
				"y": 2.5273233508,
				"z": -3.6029401568,
				"element": "C" 
			},
			{
				"x": -3.7329940645,
				"y": 3.1120900257,
				"z": -4.0007509004,
				"element": "F" 
			},
			{
				"x": -2.033624525,
				"y": 1.5182436059,
				"z": -4.3902257698,
				"element": "C" 
			},
			{
				"x": -0.8468374597,
				"y": 0.9324405791,
				"z": -3.9550622274,
				"element": "C" 
			},
			{
				"x": -0.2199039478,
				"y": 1.3377636092,
				"z": -2.7731945793,
				"element": "C" 
			},
			{
				"x": 2.1741206378,
				"y": 0.2558659359,
				"z": 0.1467259129,
				"element": "C" 
			},
			{
				"x": 2.2134766536,
				"y": -0.9723398948,
				"z": 0.8119667018,
				"element": "C" 
			},
			{
				"x": 1.3822056681,
				"y": -3.886478357,
				"z": 0.606448479,
				"element": "H" 
			},
			{
				"x": -0.304958336,
				"y": -3.6051509207,
				"z": 1.12117375,
				"element": "H" 
			},
			{
				"x": 0.7852484646,
				"y": -4.6011580296,
				"z": 2.1296317417,
				"element": "H" 
			},
			{
				"x": -1.7720979509,
				"y": -0.3893851183,
				"z": 2.7101551862,
				"element": "H" 
			},
			{
				"x": -0.8698176953,
				"y": -1.7644169121,
				"z": 3.0846964269,
				"element": "H" 
			},
			{
				"x": -0.9465604009,
				"y": 1.2550127945,
				"z": 1.0566922337,
				"element": "H" 
			},
			{
				"x": 1.724678318,
				"y": 2.4608907139,
				"z": -1.2529902111,
				"element": "H" 
			},
			{
				"x": 1.3176222321,
				"y": 3.1926041618,
				"z": 0.3036600256,
				"element": "H" 
			},
			{
				"x": -2.4401774296,
				"y": 3.7566127466,
				"z": -1.841217442,
				"element": "H" 
			},
			{
				"x": -2.5306562153,
				"y": 1.2116048882,
				"z": -5.3032253826,
				"element": "H" 
			},
			{
				"x": -0.3986106709,
				"y": 0.1364317384,
				"z": -4.5423890284,
				"element": "H" 
			},
			{
				"x": 0.6844505337,
				"y": 0.8412199154,
				"z": -2.4462917641,
				"element": "H" 
			},
			{
				"x": 3.0309706078,
				"y": 0.5861305117,
				"z": -0.434592243,
				"element": "H" 
			},
			{
				"x": 3.0938794204,
				"y": -1.6065868643,
				"z": 0.7666678948,
				"element": "H" 
			}
		],
		 "valence_orbital": [ 
			{
				"type": "occ",
				"energy": -0.27446,
				"method": "rhf"
			},
			{
				"type": "occ",
				"energy": -0.24395,
				"method": "rhf"
			},
			{
				"type": "occ",
				"energy": -0.23778,
				"method": "rhf"
			},
			{
				"type": "occ",
				"energy": -0.22102,
				"method": "rhf"
			},
			{
				"type": "occ",
				"energy": -0.20323,
				"method": "rhf"
			},
			{
				"type": "unocc",
				"energy": -0.00263,
				"method": "rhf"
			},
			{
				"type": "unocc",
				"energy": 0.0002,
				"method": "rhf"
			},
			{
				"type": "unocc",
				"energy": 0.01325,
				"method": "rhf"
			},
			{
				"type": "unocc",
				"energy": 0.01652,
				"method": "rhf"
			},
			{
				"type": "unocc",
				"energy": 0.08009,
				"method": "rhf"
			}
		],
		"cosmo_sigma_profile": { 
			"-0.025": 0.0,
			"-0.024": 0.0,
			"-0.023": 0.0,
			"-0.022": 0.0,
			"-0.021": 0.0,
			"-0.02": 0.0,
			"-0.019": 0.0,
			"-0.018": 0.0,
			"-0.017": 0.0,
			"-0.016": 0.0,
			"-0.015": 0.0,
			"-0.014": 0.0,
			"-0.013": 0.20941387172,
			"-0.012": 1.40376950333,
			"-0.011": 1.74947647004,
			"-0.01": 2.08552482357,
			"-0.009": 2.71593100442,
			"-0.008": 2.71986812907,
			"-0.007": 4.70351216098,
			"-0.006": 15.4167247548,
			"-0.005": 19.6552733732,
			"-0.004": 25.1243758119,
			"-0.003": 23.5725356252,
			"-0.002": 21.0720579552,
			"-0.001": 15.8668913753,
			"0.0": 15.557414225,
			"0.001": 18.5355467777,
			"0.002": 20.8723016341,
			"0.003": 22.5812880599,
			"0.004": 29.2706584389,
			"0.005": 22.9730904124,
			"0.006": 9.43046963962,
			"0.007": 2.4400457793,
			"0.008": 2.85436502823,
			"0.009": 2.94479783113,
			"0.01": 2.06780850231,
			"0.011": 1.71203167969,
			"0.012": 1.51896864381,
			"0.013": 0.938860809332,
			"0.014": 0.237116726823,
			"0.015": 0.0,
			"0.016": 0.0,
			"0.017": 0.0,
			"0.018": 0.0,
			"0.019": 0.0,
			"0.02": 0.0,
			"0.021": 0.0,
			"0.022": 0.0,
			"0.023": 0.0,
			"0.024": 0.0,
			"0.025": 0.0
		}
	}
}
