{
	 "smiles": "CC1=NC(=CS1)C1=CC=C(C=O)C=C1", 
	 "Tm": 375.15, 
	 "num_atms": 23, 
	 "gaussian": { 
		 "optdone": 1, 
		 "sigma_profile": "yes", 
		 "theory": "DFT", 
		 "functional": "B3LYP", 
		 "basiset": "6-31G**", 
		 "properties": { 
			 "R2extent": 5383.4218, 
			 "electric_dipole_moment_norm": 4.84384358542, 
			 "electric_quadrupole_moment_norm": 17.0116351169, 
			 "total_energy": -952.755257418, 
			 "HOMO_LUMO_gap": 0.15726, 
			 "cosmo_polarized_energy": -11.06, 
			 "cosmo_cavitation_energy": 29.55, 
			 "cosmo_dispersion_energy": -22.1, 
			 "cosmo_repulsion_energy": 1.67, 
			 "cosmo_total_nonelectrostatic_energy": 9.11, 
			 "SMD_solvation_energy": 4.82 
		},
		"coords": [
			{
				"x": -1.0293784093,
				"y": 3.1040299728,
				"z": -0.6141584757,
				"element": "C" 
			},
			{
				"x": -1.5935528224,
				"y": 1.7372086307,
				"z": -0.3747936163,
				"element": "C" 
			},
			{
				"x": -0.8809277963,
				"y": 0.6662508672,
				"z": -0.2068465588,
				"element": "N" 
			},
			{
				"x": -1.6599817976,
				"y": -0.4628483773,
				"z": -0.0027613848,
				"element": "C" 
			},
			{
				"x": -3.0128763791,
				"y": -0.2257848254,
				"z": -0.018768085,
				"element": "C" 
			},
			{
				"x": -3.334958178,
				"y": 1.4494134048,
				"z": -0.2955821881,
				"element": "S" 
			},
			{
				"x": -0.9948296269,
				"y": -1.7618725333,
				"z": 0.2043712047,
				"element": "C" 
			},
			{
				"x": 0.412862388,
				"y": -1.8314981355,
				"z": 0.1934571923,
				"element": "C" 
			},
			{
				"x": 1.06332652,
				"y": -3.0416290812,
				"z": 0.3860670236,
				"element": "C" 
			},
			{
				"x": 0.3263923391,
				"y": -4.2174914906,
				"z": 0.5951516251,
				"element": "C" 
			},
			{
				"x": 1.0122628239,
				"y": -5.5096789151,
				"z": 0.8009512238,
				"element": "C" 
			},
			{
				"x": 2.220079642,
				"y": -5.6616567944,
				"z": 0.8071196387,
				"element": "O" 
			},
			{
				"x": -1.0741112583,
				"y": -4.1549679418,
				"z": 0.6070488825,
				"element": "C" 
			},
			{
				"x": -1.7275746305,
				"y": -2.9441800461,
				"z": 0.4143610009,
				"element": "C" 
			},
			{
				"x": -1.3238935418,
				"y": 3.803118848,
				"z": 0.175612299,
				"element": "H" 
			},
			{
				"x": -1.3706152252,
				"y": 3.5173722941,
				"z": -1.5690025909,
				"element": "H" 
			},
			{
				"x": 0.0594343355,
				"y": 3.031284988,
				"z": -0.6310842319,
				"element": "H" 
			},
			{
				"x": -3.825107326,
				"y": -0.9250010773,
				"z": 0.1134976037,
				"element": "H" 
			},
			{
				"x": 0.9738828109,
				"y": -0.9185804696,
				"z": 0.031250139,
				"element": "H" 
			},
			{
				"x": 2.1470035321,
				"y": -3.104532692,
				"z": 0.3792443563,
				"element": "H" 
			},
			{
				"x": 0.3288045243,
				"y": -6.3749960191,
				"z": 0.9570636294,
				"element": "H" 
			},
			{
				"x": -1.650213531,
				"y": -5.0633497393,
				"z": 0.768596698,
				"element": "H" 
			},
			{
				"x": -2.8126283935,
				"y": -2.9192108678,
				"z": 0.4273046146,
				"element": "H" 
			}
		],
		 "valence_orbital": [ 
			{
				"type": "occ",
				"energy": -0.28203,
				"method": "rhf"
			},
			{
				"type": "occ",
				"energy": -0.28181,
				"method": "rhf"
			},
			{
				"type": "occ",
				"energy": -0.26291,
				"method": "rhf"
			},
			{
				"type": "occ",
				"energy": -0.25032,
				"method": "rhf"
			},
			{
				"type": "occ",
				"energy": -0.22753,
				"method": "rhf"
			},
			{
				"type": "unocc",
				"energy": -0.07027,
				"method": "rhf"
			},
			{
				"type": "unocc",
				"energy": -0.03014,
				"method": "rhf"
			},
			{
				"type": "unocc",
				"energy": -0.00855,
				"method": "rhf"
			},
			{
				"type": "unocc",
				"energy": 0.0082,
				"method": "rhf"
			},
			{
				"type": "unocc",
				"energy": 0.01838,
				"method": "rhf"
			}
		],
		"cosmo_sigma_profile": { 
			"-0.025": 0.0,
			"-0.024": 0.0,
			"-0.023": 0.0,
			"-0.022": 0.0,
			"-0.021": 0.0,
			"-0.02": 0.0,
			"-0.019": 0.0,
			"-0.018": 0.0,
			"-0.017": 0.0,
			"-0.016": 0.0,
			"-0.015": 0.0,
			"-0.014": 0.0,
			"-0.013": 0.0,
			"-0.012": 0.0,
			"-0.011": 0.0592196858882,
			"-0.01": 1.68909688586,
			"-0.009": 2.25820081983,
			"-0.008": 3.3716032867,
			"-0.007": 7.05935939334,
			"-0.006": 12.8685966545,
			"-0.005": 18.2069974671,
			"-0.004": 16.8555684454,
			"-0.003": 15.4382713699,
			"-0.002": 17.7698208704,
			"-0.001": 15.6118450347,
			"0.0": 17.3383853215,
			"0.001": 19.7604000588,
			"0.002": 28.0979991046,
			"0.003": 25.2497610875,
			"0.004": 8.18258150788,
			"0.005": 4.27054302697,
			"0.006": 3.64630365063,
			"0.007": 3.00586978389,
			"0.008": 2.27847151723,
			"0.009": 3.56824413579,
			"0.01": 4.16071125595,
			"0.011": 3.97456134786,
			"0.012": 3.99315386342,
			"0.013": 1.01123388135,
			"0.014": 0.00767944403146,
			"0.015": 0.0,
			"0.016": 0.0,
			"0.017": 0.0,
			"0.018": 0.0,
			"0.019": 0.0,
			"0.02": 0.0,
			"0.021": 0.0,
			"0.022": 0.0,
			"0.023": 0.0,
			"0.024": 0.0,
			"0.025": 0.0
		}
	}
}
