{
	 "smiles": "N#CNC1=NCCCCC1", 
	 "Tm": 353.15, 
	 "num_atms": 21, 
	 "gaussian": { 
		 "optdone": 1, 
		 "sigma_profile": "yes", 
		 "theory": "DFT", 
		 "functional": "B3LYP", 
		 "basiset": "6-31G**", 
		 "properties": { 
			 "R2extent": 1988.2644, 
			 "electric_dipole_moment_norm": 6.38304435908, 
			 "electric_quadrupole_moment_norm": 24.5388868219, 
			 "total_energy": -437.59419432, 
			 "HOMO_LUMO_gap": 0.24142, 
			 "cosmo_polarized_energy": -16.78, 
			 "cosmo_cavitation_energy": 23.81, 
			 "cosmo_dispersion_energy": -17.41, 
			 "cosmo_repulsion_energy": 1.44, 
			 "cosmo_total_nonelectrostatic_energy": 7.84, 
			 "SMD_solvation_energy": 3.51 
		},
		"coords": [
			{
				"x": -0.4921238481,
				"y": 2.678183225,
				"z": 3.679461198,
				"element": "N" 
			},
			{
				"x": -0.4946386375,
				"y": 2.6001265938,
				"z": 2.5166813352,
				"element": "C" 
			},
			{
				"x": -0.4845486776,
				"y": 2.5779954274,
				"z": 1.1753997334,
				"element": "N" 
			},
			{
				"x": -0.6157292152,
				"y": 1.3889201992,
				"z": 0.4085696684,
				"element": "C" 
			},
			{
				"x": -0.8060752556,
				"y": 0.3127818998,
				"z": 1.0476444794,
				"element": "N" 
			},
			{
				"x": -0.8881809922,
				"y": -1.0085079482,
				"z": 0.4392893234,
				"element": "C" 
			},
			{
				"x": -0.0487666704,
				"y": -1.2493716628,
				"z": -0.8265188053,
				"element": "C" 
			},
			{
				"x": -0.6578216643,
				"y": -0.6854436316,
				"z": -2.1218404969,
				"element": "C" 
			},
			{
				"x": -1.3104186789,
				"y": 0.6968505941,
				"z": -1.956213578,
				"element": "C" 
			},
			{
				"x": -0.5023613036,
				"y": 1.6710741505,
				"z": -1.0862396692,
				"element": "C" 
			},
			{
				"x": -0.3971708283,
				"y": 3.4644599302,
				"z": 0.7006285912,
				"element": "H" 
			},
			{
				"x": -0.5670224148,
				"y": -1.7151106547,
				"z": 1.2129901336,
				"element": "H" 
			},
			{
				"x": -1.945868895,
				"y": -1.2450981514,
				"z": 0.2492991068,
				"element": "H" 
			},
			{
				"x": 0.1092614016,
				"y": -2.3280348521,
				"z": -0.9451625505,
				"element": "H" 
			},
			{
				"x": 0.9461137095,
				"y": -0.8189450657,
				"z": -0.6550350082,
				"element": "H" 
			},
			{
				"x": 0.1252159285,
				"y": -0.6322561227,
				"z": -2.8889133685,
				"element": "H" 
			},
			{
				"x": -1.4143811649,
				"y": -1.3802109566,
				"z": -2.5069280315,
				"element": "H" 
			},
			{
				"x": -1.4619273746,
				"y": 1.1463174166,
				"z": -2.9440911399,
				"element": "H" 
			},
			{
				"x": -2.3088017747,
				"y": 0.5896531158,
				"z": -1.5161214759,
				"element": "H" 
			},
			{
				"x": 0.5576153821,
				"y": 1.6638413847,
				"z": -1.3753698071,
				"element": "H" 
			},
			{
				"x": -0.856369026,
				"y": 2.6934751086,
				"z": -1.2696296384,
				"element": "H" 
			}
		],
		 "valence_orbital": [ 
			{
				"type": "occ",
				"energy": -0.33196,
				"method": "rhf"
			},
			{
				"type": "occ",
				"energy": -0.31899,
				"method": "rhf"
			},
			{
				"type": "occ",
				"energy": -0.30506,
				"method": "rhf"
			},
			{
				"type": "occ",
				"energy": -0.24847,
				"method": "rhf"
			},
			{
				"type": "occ",
				"energy": -0.24241,
				"method": "rhf"
			},
			{
				"type": "unocc",
				"energy": -0.00099,
				"method": "rhf"
			},
			{
				"type": "unocc",
				"energy": 0.02986,
				"method": "rhf"
			},
			{
				"type": "unocc",
				"energy": 0.06853,
				"method": "rhf"
			},
			{
				"type": "unocc",
				"energy": 0.07744,
				"method": "rhf"
			},
			{
				"type": "unocc",
				"energy": 0.10072,
				"method": "rhf"
			}
		],
		"cosmo_sigma_profile": { 
			"-0.025": 0.0,
			"-0.024": 0.0,
			"-0.023": 0.0,
			"-0.022": 0.0,
			"-0.021": 0.0,
			"-0.02": 0.0,
			"-0.019": 0.0,
			"-0.018": 0.34861290198,
			"-0.017": 1.17261555868,
			"-0.016": 1.15025138034,
			"-0.015": 1.52213172093,
			"-0.014": 1.16071080677,
			"-0.013": 1.38456238261,
			"-0.012": 1.41072415873,
			"-0.011": 0.848922414586,
			"-0.01": 1.32124671403,
			"-0.009": 1.16940360252,
			"-0.008": 1.36298636359,
			"-0.007": 1.75901874002,
			"-0.006": 2.79210430394,
			"-0.005": 5.82796197173,
			"-0.004": 11.0465555967,
			"-0.003": 24.6767870604,
			"-0.002": 27.9749820761,
			"-0.001": 23.4008496328,
			"0.0": 18.6297297893,
			"0.001": 8.86769284165,
			"0.002": 2.69961390438,
			"0.003": 3.83935323897,
			"0.004": 2.93202901274,
			"0.005": 3.11804377797,
			"0.006": 3.33480775331,
			"0.007": 3.1059799452,
			"0.008": 3.59321706481,
			"0.009": 6.07321597996,
			"0.01": 5.06742656318,
			"0.011": 4.56427036293,
			"0.012": 4.29793065845,
			"0.013": 3.8564520633,
			"0.014": 2.09232422165,
			"0.015": 0.482253388711,
			"0.016": 0.0,
			"0.017": 0.0,
			"0.018": 0.0,
			"0.019": 0.0,
			"0.02": 0.0,
			"0.021": 0.0,
			"0.022": 0.0,
			"0.023": 0.0,
			"0.024": 0.0,
			"0.025": 0.0
		}
	}
}
