{
	 "smiles": "CC1=C(C=NN1C1=C(Cl)C=CC=C1)S(Cl)(=O)=O", 
	 "Tm": 372.15, 
	 "num_atms": 25, 
	 "gaussian": { 
		 "optdone": 1, 
		 "sigma_profile": "yes", 
		 "theory": "DFT", 
		 "functional": "B3LYP", 
		 "basiset": "6-31G**", 
		 "properties": { 
			 "R2extent": 7255.6583, 
			 "electric_dipole_moment_norm": 7.5637467759, 
			 "electric_quadrupole_moment_norm": 14.8014186405, 
			 "total_energy": -1964.31767387, 
			 "HOMO_LUMO_gap": 0.19135, 
			 "cosmo_polarized_energy": -12.48, 
			 "cosmo_cavitation_energy": 34.93, 
			 "cosmo_dispersion_energy": -24.74, 
			 "cosmo_repulsion_energy": 1.88, 
			 "cosmo_total_nonelectrostatic_energy": 12.07, 
			 "SMD_solvation_energy": 3.89 
		},
		"coords": [
			{
				"x": -0.6766773167,
				"y": -0.4961074172,
				"z": 2.4371692049,
				"element": "C" 
			},
			{
				"x": -0.7664995492,
				"y": -1.2896915773,
				"z": 1.1766533529,
				"element": "C" 
			},
			{
				"x": -1.0962180092,
				"y": -2.6235533153,
				"z": 0.9405208042,
				"element": "C" 
			},
			{
				"x": -0.9816509761,
				"y": -2.8287348873,
				"z": -0.4565086868,
				"element": "C" 
			},
			{
				"x": -0.6250178889,
				"y": -1.7132745639,
				"z": -1.0647857325,
				"element": "N" 
			},
			{
				"x": -0.5052994743,
				"y": -0.7860158171,
				"z": -0.0608777748,
				"element": "N" 
			},
			{
				"x": -0.0808455164,
				"y": 0.5349516476,
				"z": -0.3988600393,
				"element": "C" 
			},
			{
				"x": -0.9515254045,
				"y": 1.6319357856,
				"z": -0.3331373769,
				"element": "C" 
			},
			{
				"x": -2.6196588563,
				"y": 1.4275014724,
				"z": 0.152792006,
				"element": "Cl" 
			},
			{
				"x": -0.5004332338,
				"y": 2.9057504058,
				"z": -0.6824902839,
				"element": "C" 
			},
			{
				"x": 0.8133575406,
				"y": 3.0814684276,
				"z": -1.1141225367,
				"element": "C" 
			},
			{
				"x": 1.6796487102,
				"y": 1.9900877019,
				"z": -1.2019602657,
				"element": "C" 
			},
			{
				"x": 1.2312219139,
				"y": 0.7217333146,
				"z": -0.843391269,
				"element": "C" 
			},
			{
				"x": -1.5330511363,
				"y": -3.8308883565,
				"z": 2.1155793915,
				"element": "S" 
			},
			{
				"x": 0.3843760439,
				"y": -4.5300405879,
				"z": 2.7829201033,
				"element": "Cl" 
			},
			{
				"x": -2.1359072012,
				"y": -3.1994852165,
				"z": 3.2841306735,
				"element": "O" 
			},
			{
				"x": -2.1476760115,
				"y": -4.9574619809,
				"z": 1.4265974807,
				"element": "O" 
			},
			{
				"x": -0.4939042731,
				"y": -1.1546871793,
				"z": 3.2864485618,
				"element": "H" 
			},
			{
				"x": -1.6144329503,
				"y": 0.0364461958,
				"z": 2.6256341363,
				"element": "H" 
			},
			{
				"x": 0.126157546,
				"y": 0.2429182902,
				"z": 2.3732160742,
				"element": "H" 
			},
			{
				"x": -1.158525954,
				"y": -3.7381926096,
				"z": -1.0126270108,
				"element": "H" 
			},
			{
				"x": -1.1848986416,
				"y": 3.7444906854,
				"z": -0.6248099869,
				"element": "H" 
			},
			{
				"x": 1.1552021175,
				"y": 4.0746895285,
				"z": -1.388042705,
				"element": "H" 
			},
			{
				"x": 2.6999415,
				"y": 2.124991796,
				"z": -1.5454982086,
				"element": "H" 
			},
			{
				"x": 1.8821170213,
				"y": -0.1436317428,
				"z": -0.9064499127,
				"element": "H" 
			}
		],
		 "valence_orbital": [ 
			{
				"type": "occ",
				"energy": -0.30791,
				"method": "rhf"
			},
			{
				"type": "occ",
				"energy": -0.3028,
				"method": "rhf"
			},
			{
				"type": "occ",
				"energy": -0.28263,
				"method": "rhf"
			},
			{
				"type": "occ",
				"energy": -0.27774,
				"method": "rhf"
			},
			{
				"type": "occ",
				"energy": -0.27292,
				"method": "rhf"
			},
			{
				"type": "unocc",
				"energy": -0.08157,
				"method": "rhf"
			},
			{
				"type": "unocc",
				"energy": -0.05059,
				"method": "rhf"
			},
			{
				"type": "unocc",
				"energy": -0.04147,
				"method": "rhf"
			},
			{
				"type": "unocc",
				"energy": -0.01544,
				"method": "rhf"
			},
			{
				"type": "unocc",
				"energy": 0.00384,
				"method": "rhf"
			}
		],
		"cosmo_sigma_profile": { 
			"-0.025": 0.0,
			"-0.024": 0.0,
			"-0.023": 0.0,
			"-0.022": 0.0,
			"-0.021": 0.0,
			"-0.02": 0.0,
			"-0.019": 0.0,
			"-0.018": 0.0,
			"-0.017": 0.0,
			"-0.016": 0.0,
			"-0.015": 0.0,
			"-0.014": 0.0,
			"-0.013": 0.0,
			"-0.012": 0.0,
			"-0.011": 0.0,
			"-0.01": 0.897586568275,
			"-0.009": 1.11662293971,
			"-0.008": 4.89366502156,
			"-0.007": 11.3965187564,
			"-0.006": 16.0502387201,
			"-0.005": 17.5194527374,
			"-0.004": 16.7077605633,
			"-0.003": 22.5678499473,
			"-0.002": 19.1305098046,
			"-0.001": 19.5037909667,
			"0.0": 25.909449472,
			"0.001": 23.2188185601,
			"0.002": 26.0784560392,
			"0.003": 23.5234203141,
			"0.004": 19.1529916666,
			"0.005": 5.57559879726,
			"0.006": 4.29843832364,
			"0.007": 7.64215504879,
			"0.008": 10.2989072006,
			"0.009": 5.85391705003,
			"0.01": 1.37286330712,
			"0.011": 1.02306673388,
			"0.012": 0.975190008681,
			"0.013": 0.832080101236,
			"0.014": 0.119316049247,
			"0.015": 0.0,
			"0.016": 0.0,
			"0.017": 0.0,
			"0.018": 0.0,
			"0.019": 0.0,
			"0.02": 0.0,
			"0.021": 0.0,
			"0.022": 0.0,
			"0.023": 0.0,
			"0.024": 0.0,
			"0.025": 0.0
		}
	}
}
