{
	 "smiles": "CC(C)(OOCC=C)C1=CC=CC=C1", 
	 "Tm": 333.15, 
	 "num_atms": 30, 
	 "gaussian": { 
		 "optdone": 1, 
		 "sigma_profile": "yes", 
		 "theory": "DFT", 
		 "functional": "B3LYP", 
		 "basiset": "6-31G**", 
		 "properties": { 
			 "R2extent": 4813.4631, 
			 "electric_dipole_moment_norm": 1.14676938397, 
			 "electric_quadrupole_moment_norm": 5.28744002235, 
			 "total_energy": -617.251976971, 
			 "HOMO_LUMO_gap": 0.22954, 
			 "cosmo_polarized_energy": -7.48, 
			 "cosmo_cavitation_energy": 33.06, 
			 "cosmo_dispersion_energy": -22.59, 
			 "cosmo_repulsion_energy": 1.81, 
			 "cosmo_total_nonelectrostatic_energy": 12.28, 
			 "SMD_solvation_energy": 6.29 
		},
		"coords": [
			{
				"x": -0.0548698911,
				"y": 0.6612043317,
				"z": 0.7289620361,
				"element": "C" 
			},
			{
				"x": 1.4086908268,
				"y": 1.1227139486,
				"z": 0.7106483097,
				"element": "C" 
			},
			{
				"x": 1.7186939857,
				"y": 2.0171826386,
				"z": 1.9259549773,
				"element": "C" 
			},
			{
				"x": 1.6187448719,
				"y": 2.0387890825,
				"z": -0.3814381791,
				"element": "O" 
			},
			{
				"x": 1.2940595126,
				"y": 1.3497251051,
				"z": -1.6369680105,
				"element": "O" 
			},
			{
				"x": 0.5053191973,
				"y": 2.2760693603,
				"z": -2.3822432572,
				"element": "C" 
			},
			{
				"x": 0.3864287674,
				"y": 1.7203002093,
				"z": -3.7710741366,
				"element": "C" 
			},
			{
				"x": -0.7748221432,
				"y": 1.4932689941,
				"z": -4.3836331774,
				"element": "C" 
			},
			{
				"x": 2.4121417197,
				"y": -0.0361883898,
				"z": 0.6505657911,
				"element": "C" 
			},
			{
				"x": 3.5838796775,
				"y": 0.0843938873,
				"z": -0.1081385733,
				"element": "C" 
			},
			{
				"x": 4.5315812841,
				"y": -0.9390919596,
				"z": -0.1249782625,
				"element": "C" 
			},
			{
				"x": 4.3293804613,
				"y": -2.100968027,
				"z": 0.6215361063,
				"element": "C" 
			},
			{
				"x": 3.168987227,
				"y": -2.2294480694,
				"z": 1.3851169219,
				"element": "C" 
			},
			{
				"x": 2.219509403,
				"y": -1.2060519926,
				"z": 1.3981897193,
				"element": "C" 
			},
			{
				"x": -0.2810229493,
				"y": 0.0889446827,
				"z": 1.6321444186,
				"element": "H" 
			},
			{
				"x": -0.7095806055,
				"y": 1.5376903488,
				"z": 0.7158027763,
				"element": "H" 
			},
			{
				"x": -0.2744631093,
				"y": 0.0406483227,
				"z": -0.1414282589,
				"element": "H" 
			},
			{
				"x": 2.7391636531,
				"y": 2.403690628,
				"z": 1.8638926859,
				"element": "H" 
			},
			{
				"x": 1.0221049358,
				"y": 2.8598370486,
				"z": 1.9699344842,
				"element": "H" 
			},
			{
				"x": 1.6276109278,
				"y": 1.4330027466,
				"z": 2.845457071,
				"element": "H" 
			},
			{
				"x": 1.0191661025,
				"y": 3.2483625272,
				"z": -2.3969661645,
				"element": "H" 
			},
			{
				"x": -0.4813171134,
				"y": 2.4145610642,
				"z": -1.919493843,
				"element": "H" 
			},
			{
				"x": 1.3275884873,
				"y": 1.5196358014,
				"z": -4.2799606512,
				"element": "H" 
			},
			{
				"x": -1.7260454162,
				"y": 1.6772576191,
				"z": -3.8899586674,
				"element": "H" 
			},
			{
				"x": -0.8184990548,
				"y": 1.1236585247,
				"z": -5.403725436,
				"element": "H" 
			},
			{
				"x": 3.7382104059,
				"y": 0.9812065249,
				"z": -0.6965752669,
				"element": "H" 
			},
			{
				"x": 5.4300087508,
				"y": -0.8280774549,
				"z": -0.726131978,
				"element": "H" 
			},
			{
				"x": 5.0672199141,
				"y": -2.8981681767,
				"z": 0.6075173276,
				"element": "H" 
			},
			{
				"x": 2.9979770206,
				"y": -3.128037816,
				"z": 1.9716244055,
				"element": "H" 
			},
			{
				"x": 1.3252531506,
				"y": -1.3288115106,
				"z": 2.0016668319,
				"element": "H" 
			}
		],
		 "valence_orbital": [ 
			{
				"type": "occ",
				"energy": -0.29737,
				"method": "rhf"
			},
			{
				"type": "occ",
				"energy": -0.26847,
				"method": "rhf"
			},
			{
				"type": "occ",
				"energy": -0.24257,
				"method": "rhf"
			},
			{
				"type": "occ",
				"energy": -0.23969,
				"method": "rhf"
			},
			{
				"type": "occ",
				"energy": -0.23556,
				"method": "rhf"
			},
			{
				"type": "unocc",
				"energy": -0.00602,
				"method": "rhf"
			},
			{
				"type": "unocc",
				"energy": 0.00498,
				"method": "rhf"
			},
			{
				"type": "unocc",
				"energy": 0.00782,
				"method": "rhf"
			},
			{
				"type": "unocc",
				"energy": 0.0466,
				"method": "rhf"
			},
			{
				"type": "unocc",
				"energy": 0.08738,
				"method": "rhf"
			}
		],
		"cosmo_sigma_profile": { 
			"-0.025": 0.0,
			"-0.024": 0.0,
			"-0.023": 0.0,
			"-0.022": 0.0,
			"-0.021": 0.0,
			"-0.02": 0.0,
			"-0.019": 0.0,
			"-0.018": 0.0,
			"-0.017": 0.0,
			"-0.016": 0.0,
			"-0.015": 0.0,
			"-0.014": 0.0,
			"-0.013": 0.0,
			"-0.012": 0.0,
			"-0.011": 0.0,
			"-0.01": 0.0,
			"-0.009": 0.0,
			"-0.008": 0.0,
			"-0.007": 0.209377948948,
			"-0.006": 6.08211237203,
			"-0.005": 20.0810612805,
			"-0.004": 25.3006705922,
			"-0.003": 30.431921627,
			"-0.002": 26.6300337021,
			"-0.001": 24.7881179866,
			"0.0": 26.3147400047,
			"0.001": 18.0561812606,
			"0.002": 13.3868971444,
			"0.003": 14.4379335016,
			"0.004": 11.8816099911,
			"0.005": 13.7147204008,
			"0.006": 13.9044446159,
			"0.007": 6.98937163959,
			"0.008": 3.12932540891,
			"0.009": 3.13290870296,
			"0.01": 1.90282729026,
			"0.011": 0.0337324247056,
			"0.012": 0.0,
			"0.013": 0.0,
			"0.014": 0.0,
			"0.015": 0.0,
			"0.016": 0.0,
			"0.017": 0.0,
			"0.018": 0.0,
			"0.019": 0.0,
			"0.02": 0.0,
			"0.021": 0.0,
			"0.022": 0.0,
			"0.023": 0.0,
			"0.024": 0.0,
			"0.025": 0.0
		}
	}
}
