{
	 "smiles": "CC(C)CN1CCC(CC1)C(O)=O", 
	 "Tm": 349.15, 
	 "num_atms": 32, 
	 "gaussian": { 
		 "optdone": 1, 
		 "sigma_profile": "yes", 
		 "theory": "DFT", 
		 "functional": "B3LYP", 
		 "basiset": "6-31G**", 
		 "properties": { 
			 "R2extent": 2703.3234, 
			 "electric_dipole_moment_norm": 6.16985557124, 
			 "electric_quadrupole_moment_norm": 18.6436890909, 
			 "total_energy": -597.733895667, 
			 "HOMO_LUMO_gap": 0.26518, 
			 "cosmo_polarized_energy": -13.3, 
			 "cosmo_cavitation_energy": 30.64, 
			 "cosmo_dispersion_energy": -21.75, 
			 "cosmo_repulsion_energy": 1.7, 
			 "cosmo_total_nonelectrostatic_energy": 10.59, 
			 "SMD_solvation_energy": 5.75 
		},
		"coords": [
			{
				"x": -0.3501759672,
				"y": -2.7830717326,
				"z": 1.8356554507,
				"element": "C" 
			},
			{
				"x": -1.5432034612,
				"y": -1.9937195901,
				"z": 1.2729866242,
				"element": "C" 
			},
			{
				"x": -1.7964241129,
				"y": -0.7128889829,
				"z": 2.081576753,
				"element": "C" 
			},
			{
				"x": -1.4062391788,
				"y": -1.7374750771,
				"z": -0.2426360548,
				"element": "C" 
			},
			{
				"x": -0.3406774508,
				"y": -0.7800619855,
				"z": -0.6255860952,
				"element": "N" 
			},
			{
				"x": 0.5254024776,
				"y": -1.3044826043,
				"z": -1.7088199103,
				"element": "C" 
			},
			{
				"x": 1.4575026413,
				"y": -0.2080473874,
				"z": -2.2746494418,
				"element": "C" 
			},
			{
				"x": 1.6724096527,
				"y": 0.9672759011,
				"z": -1.2945400001,
				"element": "C" 
			},
			{
				"x": 0.2950134076,
				"y": 1.5934622542,
				"z": -0.9400405291,
				"element": "C" 
			},
			{
				"x": -0.8494784828,
				"y": 0.5582617947,
				"z": -0.9851754176,
				"element": "C" 
			},
			{
				"x": 2.4834309082,
				"y": 0.5509144102,
				"z": -0.0542619794,
				"element": "C" 
			},
			{
				"x": 1.8347504443,
				"y": -0.2045734273,
				"z": 0.8482965456,
				"element": "O" 
			},
			{
				"x": 3.6375594034,
				"y": 0.8843087671,
				"z": 0.1016155199,
				"element": "O" 
			},
			{
				"x": -0.2087162551,
				"y": -3.7262463742,
				"z": 1.2956527121,
				"element": "H" 
			},
			{
				"x": -0.5138007009,
				"y": -3.0273700281,
				"z": 2.8904636036,
				"element": "H" 
			},
			{
				"x": 0.5831927205,
				"y": -2.2153321697,
				"z": 1.7739610008,
				"element": "H" 
			},
			{
				"x": -2.4353595602,
				"y": -2.6301543858,
				"z": 1.3710136782,
				"element": "H" 
			},
			{
				"x": -0.9344214266,
				"y": -0.0386202113,
				"z": 2.0384464393,
				"element": "H" 
			},
			{
				"x": -1.9677787315,
				"y": -0.9524904408,
				"z": 3.1359736665,
				"element": "H" 
			},
			{
				"x": -2.6771661888,
				"y": -0.1702269478,
				"z": 1.7191888953,
				"element": "H" 
			},
			{
				"x": -2.3686742378,
				"y": -1.3903174319,
				"z": -0.6474585026,
				"element": "H" 
			},
			{
				"x": -1.1979204107,
				"y": -2.6960650146,
				"z": -0.7316878134,
				"element": "H" 
			},
			{
				"x": 1.1104833379,
				"y": -2.1282196226,
				"z": -1.2870007442,
				"element": "H" 
			},
			{
				"x": -0.086290002,
				"y": -1.7222873785,
				"z": -2.5252370977,
				"element": "H" 
			},
			{
				"x": 1.0226426032,
				"y": 0.2058010698,
				"z": -3.1917024535,
				"element": "H" 
			},
			{
				"x": 2.4176047821,
				"y": -0.6495806958,
				"z": -2.5585451723,
				"element": "H" 
			},
			{
				"x": 2.2990107266,
				"y": 1.7144916596,
				"z": -1.7862053767,
				"element": "H" 
			},
			{
				"x": 0.0711965027,
				"y": 2.3983408088,
				"z": -1.6481792541,
				"element": "H" 
			},
			{
				"x": 0.3428088535,
				"y": 2.0548184917,
				"z": 0.0516218615,
				"element": "H" 
			},
			{
				"x": -1.3163336536,
				"y": 0.5310517108,
				"z": -1.9852628432,
				"element": "H" 
			},
			{
				"x": -1.6344062116,
				"y": 0.8350411474,
				"z": -0.2786643172,
				"element": "H" 
			},
			{
				"x": 0.931257571,
				"y": -0.4477365269,
				"z": 0.4782002527,
				"element": "H" 
			}
		],
		 "valence_orbital": [ 
			{
				"type": "occ",
				"energy": -0.33058,
				"method": "rhf"
			},
			{
				"type": "occ",
				"energy": -0.3158,
				"method": "rhf"
			},
			{
				"type": "occ",
				"energy": -0.28398,
				"method": "rhf"
			},
			{
				"type": "occ",
				"energy": -0.25369,
				"method": "rhf"
			},
			{
				"type": "occ",
				"energy": -0.23373,
				"method": "rhf"
			},
			{
				"type": "unocc",
				"energy": 0.03145,
				"method": "rhf"
			},
			{
				"type": "unocc",
				"energy": 0.05653,
				"method": "rhf"
			},
			{
				"type": "unocc",
				"energy": 0.07567,
				"method": "rhf"
			},
			{
				"type": "unocc",
				"energy": 0.09541,
				"method": "rhf"
			},
			{
				"type": "unocc",
				"energy": 0.1062,
				"method": "rhf"
			}
		],
		"cosmo_sigma_profile": { 
			"-0.025": 0.0,
			"-0.024": 0.0,
			"-0.023": 0.0,
			"-0.022": 0.0,
			"-0.021": 0.0,
			"-0.02": 0.0,
			"-0.019": 0.0,
			"-0.018": 0.0,
			"-0.017": 0.0,
			"-0.016": 0.0,
			"-0.015": 0.0,
			"-0.014": 0.0,
			"-0.013": 0.0,
			"-0.012": 0.0,
			"-0.011": 0.0,
			"-0.01": 0.0,
			"-0.009": 0.0,
			"-0.008": 0.0,
			"-0.007": 0.0,
			"-0.006": 0.0,
			"-0.005": 3.01168782166,
			"-0.004": 29.0555434642,
			"-0.003": 49.7653842269,
			"-0.002": 43.0949223903,
			"-0.001": 29.9845263125,
			"0.0": 16.8077125614,
			"0.001": 18.7954971376,
			"0.002": 9.10998564885,
			"0.003": 2.32078022605,
			"0.004": 1.85199702161,
			"0.005": 1.94835026965,
			"0.006": 2.24428841416,
			"0.007": 1.65671660871,
			"0.008": 1.84732651033,
			"0.009": 2.55278849737,
			"0.01": 2.8318224881,
			"0.011": 2.89050141265,
			"0.012": 5.64144553389,
			"0.013": 6.93870145596,
			"0.014": 3.41258591319,
			"0.015": 0.536012597927,
			"0.016": 0.0,
			"0.017": 0.0,
			"0.018": 0.0,
			"0.019": 0.0,
			"0.02": 0.0,
			"0.021": 0.0,
			"0.022": 0.0,
			"0.023": 0.0,
			"0.024": 0.0,
			"0.025": 0.0
		}
	}
}
