{
	 "smiles": "COCCNC(=O)C(C)Cl", 
	 "Tm": 302.15, 
	 "num_atms": 22, 
	 "gaussian": { 
		 "optdone": 1, 
		 "sigma_profile": "yes", 
		 "theory": "DFT", 
		 "functional": "B3LYP", 
		 "basiset": "6-31G**", 
		 "properties": { 
			 "R2extent": 2272.1533, 
			 "electric_dipole_moment_norm": 5.05431618916, 
			 "electric_quadrupole_moment_norm": 12.1397689508, 
			 "total_energy": -901.265741066, 
			 "HOMO_LUMO_gap": 0.23653, 
			 "cosmo_polarized_energy": -12.54, 
			 "cosmo_cavitation_energy": 26.38, 
			 "cosmo_dispersion_energy": -18.75, 
			 "cosmo_repulsion_energy": 1.57, 
			 "cosmo_total_nonelectrostatic_energy": 9.21, 
			 "SMD_solvation_energy": 5.17 
		},
		"coords": [
			{
				"x": 1.1097406367,
				"y": 1.4071537419,
				"z": 2.1238835451,
				"element": "C" 
			},
			{
				"x": 0.310372891,
				"y": 0.9638411181,
				"z": 1.0448617067,
				"element": "O" 
			},
			{
				"x": -0.3586732048,
				"y": 2.0142510535,
				"z": 0.3768723629,
				"element": "C" 
			},
			{
				"x": -1.1273253104,
				"y": 1.4324705603,
				"z": -0.8083959877,
				"element": "C" 
			},
			{
				"x": -0.2772725028,
				"y": 0.8943483112,
				"z": -1.8586459924,
				"element": "N" 
			},
			{
				"x": 0.2173249492,
				"y": -0.371600199,
				"z": -2.0156003411,
				"element": "C" 
			},
			{
				"x": 1.0082447224,
				"y": -0.6368717145,
				"z": -2.9110166567,
				"element": "O" 
			},
			{
				"x": -0.2521513678,
				"y": -1.4529249996,
				"z": -1.0272117601,
				"element": "C" 
			},
			{
				"x": 0.6288558201,
				"y": -2.6863561099,
				"z": -1.0842136471,
				"element": "C" 
			},
			{
				"x": -1.9904614708,
				"y": -1.9057278521,
				"z": -1.448237361,
				"element": "Cl" 
			},
			{
				"x": 1.8947111295,
				"y": 2.1015468395,
				"z": 1.7877024875,
				"element": "H" 
			},
			{
				"x": 0.5077743612,
				"y": 1.9106940093,
				"z": 2.8957997205,
				"element": "H" 
			},
			{
				"x": 1.5811414817,
				"y": 0.5249352383,
				"z": 2.5623868731,
				"element": "H" 
			},
			{
				"x": 0.363292089,
				"y": 2.7711458024,
				"z": 0.0258488197,
				"element": "H" 
			},
			{
				"x": -1.0669289026,
				"y": 2.5209572921,
				"z": 1.0549924784,
				"element": "H" 
			},
			{
				"x": -1.7481186591,
				"y": 2.223770434,
				"z": -1.2432228546,
				"element": "H" 
			},
			{
				"x": -1.8114899185,
				"y": 0.6564732782,
				"z": -0.4582367146,
				"element": "H" 
			},
			{
				"x": 0.0980745567,
				"y": 1.5399637755,
				"z": -2.541486044,
				"element": "H" 
			},
			{
				"x": -0.3058417105,
				"y": -1.0461696558,
				"z": -0.0178454393,
				"element": "H" 
			},
			{
				"x": 1.6414023333,
				"y": -2.4151505775,
				"z": -0.7680526602,
				"element": "H" 
			},
			{
				"x": 0.2456211134,
				"y": -3.4603413461,
				"z": -0.4156596237,
				"element": "H" 
			},
			{
				"x": 0.687506963,
				"y": -3.0711089999,
				"z": -2.1030229115,
				"element": "H" 
			}
		],
		 "valence_orbital": [ 
			{
				"type": "occ",
				"energy": -0.30154,
				"method": "rhf"
			},
			{
				"type": "occ",
				"energy": -0.293,
				"method": "rhf"
			},
			{
				"type": "occ",
				"energy": -0.27452,
				"method": "rhf"
			},
			{
				"type": "occ",
				"energy": -0.25405,
				"method": "rhf"
			},
			{
				"type": "occ",
				"energy": -0.24816,
				"method": "rhf"
			},
			{
				"type": "unocc",
				"energy": -0.01163,
				"method": "rhf"
			},
			{
				"type": "unocc",
				"energy": 0.06099,
				"method": "rhf"
			},
			{
				"type": "unocc",
				"energy": 0.07668,
				"method": "rhf"
			},
			{
				"type": "unocc",
				"energy": 0.09109,
				"method": "rhf"
			},
			{
				"type": "unocc",
				"energy": 0.11487,
				"method": "rhf"
			}
		],
		"cosmo_sigma_profile": { 
			"-0.025": 0.0,
			"-0.024": 0.0,
			"-0.023": 0.0,
			"-0.022": 0.0,
			"-0.021": 0.0,
			"-0.02": 0.0,
			"-0.019": 0.0,
			"-0.018": 0.0,
			"-0.017": 0.0,
			"-0.016": 0.0,
			"-0.015": 0.0,
			"-0.014": 0.59276998027,
			"-0.013": 1.40145853126,
			"-0.012": 0.948312834947,
			"-0.011": 0.889456077851,
			"-0.01": 1.36289120348,
			"-0.009": 0.960987531331,
			"-0.008": 1.64840277393,
			"-0.007": 2.17185178907,
			"-0.006": 5.07263403821,
			"-0.005": 11.7842111443,
			"-0.004": 27.917552689,
			"-0.003": 25.1281539945,
			"-0.002": 21.7915845297,
			"-0.001": 13.7823385235,
			"0.0": 12.2228217798,
			"0.001": 8.4876885469,
			"0.002": 9.17839094723,
			"0.003": 11.4883324372,
			"0.004": 11.2645818488,
			"0.005": 11.2409743218,
			"0.006": 8.64605338542,
			"0.007": 3.4038118482,
			"0.008": 2.1415045796,
			"0.009": 1.44512304597,
			"0.01": 1.34207621101,
			"0.011": 2.12068898143,
			"0.012": 2.04728715603,
			"0.013": 5.06598540489,
			"0.014": 2.65438736633,
			"0.015": 0.00446149007145,
			"0.016": 0.0,
			"0.017": 0.0,
			"0.018": 0.0,
			"0.019": 0.0,
			"0.02": 0.0,
			"0.021": 0.0,
			"0.022": 0.0,
			"0.023": 0.0,
			"0.024": 0.0,
			"0.025": 0.0
		}
	}
}
