{
	 "smiles": "O=CC1=CC=CC2=CC=NN12", 
	 "Tm": 358.15, 
	 "num_atms": 17, 
	 "gaussian": { 
		 "optdone": 1, 
		 "sigma_profile": "yes", 
		 "theory": "DFT", 
		 "functional": "B3LYP", 
		 "basiset": "6-31G**", 
		 "properties": { 
			 "R2extent": 1716.9175, 
			 "electric_dipole_moment_norm": 4.89401803225, 
			 "electric_quadrupole_moment_norm": 13.093392298, 
			 "total_energy": -493.147529803, 
			 "HOMO_LUMO_gap": 0.1421, 
			 "cosmo_polarized_energy": -14.62, 
			 "cosmo_cavitation_energy": 21.71, 
			 "cosmo_dispersion_energy": -16.19, 
			 "cosmo_repulsion_energy": 1.27, 
			 "cosmo_total_nonelectrostatic_energy": 6.8, 
			 "SMD_solvation_energy": 4.3 
		},
		"coords": [
			{
				"x": 2.9917889684,
				"y": 0.2897943628,
				"z": 0.9907602293,
				"element": "O" 
			},
			{
				"x": 2.079194843,
				"y": -0.4385306919,
				"z": 1.3141326199,
				"element": "C" 
			},
			{
				"x": 0.8971060236,
				"y": -0.8133973053,
				"z": 0.506937151,
				"element": "C" 
			},
			{
				"x": -0.0430802144,
				"y": -1.6610603822,
				"z": 1.0543409027,
				"element": "C" 
			},
			{
				"x": -1.196191851,
				"y": -2.0590684838,
				"z": 0.3367450717,
				"element": "C" 
			},
			{
				"x": -1.3929920162,
				"y": -1.5926532421,
				"z": -0.9423234355,
				"element": "C" 
			},
			{
				"x": -0.4462858775,
				"y": -0.7232464815,
				"z": -1.5277206095,
				"element": "C" 
			},
			{
				"x": -0.3105401106,
				"y": -0.0709827554,
				"z": -2.7535177004,
				"element": "C" 
			},
			{
				"x": 0.8890966995,
				"y": 0.6387521449,
				"z": -2.6469057186,
				"element": "C" 
			},
			{
				"x": 1.4991047673,
				"y": 0.4770162294,
				"z": -1.4617343705,
				"element": "N" 
			},
			{
				"x": 0.6875788885,
				"y": -0.3516108641,
				"z": -0.7795458899,
				"element": "N" 
			},
			{
				"x": 2.049091121,
				"y": -0.9192736723,
				"z": 2.3177702256,
				"element": "H" 
			},
			{
				"x": 0.1268954757,
				"y": -2.0200368899,
				"z": 2.0641973603,
				"element": "H" 
			},
			{
				"x": -1.9167977221,
				"y": -2.7270889762,
				"z": 0.7958912678,
				"element": "H" 
			},
			{
				"x": -2.2661280518,
				"y": -1.8784083163,
				"z": -1.5194634163,
				"element": "H" 
			},
			{
				"x": -0.9924181972,
				"y": -0.1164446212,
				"z": -3.5888270255,
				"element": "H" 
			},
			{
				"x": 1.3564772538,
				"y": 1.2759399453,
				"z": -3.385936662,
				"element": "H" 
			}
		],
		 "valence_orbital": [ 
			{
				"type": "occ",
				"energy": -0.31613,
				"method": "rhf"
			},
			{
				"type": "occ",
				"energy": -0.29803,
				"method": "rhf"
			},
			{
				"type": "occ",
				"energy": -0.26126,
				"method": "rhf"
			},
			{
				"type": "occ",
				"energy": -0.25111,
				"method": "rhf"
			},
			{
				"type": "occ",
				"energy": -0.22287,
				"method": "rhf"
			},
			{
				"type": "unocc",
				"energy": -0.08077,
				"method": "rhf"
			},
			{
				"type": "unocc",
				"energy": -0.01391,
				"method": "rhf"
			},
			{
				"type": "unocc",
				"energy": 0.02068,
				"method": "rhf"
			},
			{
				"type": "unocc",
				"energy": 0.07331,
				"method": "rhf"
			},
			{
				"type": "unocc",
				"energy": 0.07774,
				"method": "rhf"
			}
		],
		"cosmo_sigma_profile": { 
			"-0.025": 0.0,
			"-0.024": 0.0,
			"-0.023": 0.0,
			"-0.022": 0.0,
			"-0.021": 0.0,
			"-0.02": 0.0,
			"-0.019": 0.0,
			"-0.018": 0.0,
			"-0.017": 0.0,
			"-0.016": 0.0,
			"-0.015": 0.0,
			"-0.014": 0.0,
			"-0.013": 0.0,
			"-0.012": 0.0,
			"-0.011": 0.0,
			"-0.01": 0.164911047644,
			"-0.009": 3.03179303243,
			"-0.008": 8.07751145792,
			"-0.007": 12.7756858402,
			"-0.006": 12.767354596,
			"-0.005": 10.4262391771,
			"-0.004": 9.7164305967,
			"-0.003": 9.69121606463,
			"-0.002": 12.0748243031,
			"-0.001": 12.4560908569,
			"0.0": 12.5567191574,
			"0.001": 13.1613178126,
			"0.002": 12.0992191321,
			"0.003": 6.9730560541,
			"0.004": 7.60617266557,
			"0.005": 3.25799354468,
			"0.006": 2.67559767382,
			"0.007": 2.57439165484,
			"0.008": 2.43408605166,
			"0.009": 2.57260421022,
			"0.01": 3.10419996358,
			"0.011": 3.8729616974,
			"0.012": 4.53338834205,
			"0.013": 1.50939153392,
			"0.014": 1.10243985331,
			"0.015": 0.955204780818,
			"0.016": 1.35166363498,
			"0.017": 1.08242896618,
			"0.018": 0.732226612817,
			"0.019": 0.275039593359,
			"0.02": 0.0,
			"0.021": 0.0,
			"0.022": 0.0,
			"0.023": 0.0,
			"0.024": 0.0,
			"0.025": 0.0
		}
	}
}
