{
	 "smiles": "OC(=O)C1=CC=C(C=C1)C1=NN=C(O1)C1=CC=CC=C1", 
	 "Tm": 573.15, 
	 "num_atms": 30, 
	 "gaussian": { 
		 "optdone": 1, 
		 "sigma_profile": "yes", 
		 "theory": "DFT", 
		 "functional": "B3LYP", 
		 "basiset": "6-31G**", 
		 "properties": { 
			 "R2extent": 9542.3154, 
			 "electric_dipole_moment_norm": 3.92555155233, 
			 "electric_quadrupole_moment_norm": 31.997420169, 
			 "total_energy": -912.789908414, 
			 "HOMO_LUMO_gap": 0.1551, 
			 "cosmo_polarized_energy": -19.74, 
			 "cosmo_cavitation_energy": 36.47, 
			 "cosmo_dispersion_energy": -26.7, 
			 "cosmo_repulsion_energy": 1.99, 
			 "cosmo_total_nonelectrostatic_energy": 11.76, 
			 "SMD_solvation_energy": 5.73 
		},
		"coords": [
			{
				"x": -5.9996965946,
				"y": -1.8915454939,
				"z": -1.8118827296,
				"element": "O" 
			},
			{
				"x": -4.8391653663,
				"y": -2.5713230183,
				"z": -2.0083863701,
				"element": "C" 
			},
			{
				"x": -4.8564612071,
				"y": -3.6578788734,
				"z": -2.5369870095,
				"element": "O" 
			},
			{
				"x": -3.5772367021,
				"y": -1.907971275,
				"z": -1.5414349301,
				"element": "C" 
			},
			{
				"x": -3.4687766706,
				"y": -0.5245777023,
				"z": -1.3277534095,
				"element": "C" 
			},
			{
				"x": -2.2681305715,
				"y": 0.0345664147,
				"z": -0.9078853633,
				"element": "C" 
			},
			{
				"x": -1.1499180507,
				"y": -0.7877254411,
				"z": -0.6920225177,
				"element": "C" 
			},
			{
				"x": -1.2498918038,
				"y": -2.1704610704,
				"z": -0.9185472023,
				"element": "C" 
			},
			{
				"x": -2.4515388826,
				"y": -2.719899544,
				"z": -1.3477598604,
				"element": "C" 
			},
			{
				"x": 0.0957834294,
				"y": -0.1814127361,
				"z": -0.2431604722,
				"element": "C" 
			},
			{
				"x": 0.33674171,
				"y": 1.0726501113,
				"z": 0.0136482214,
				"element": "N" 
			},
			{
				"x": 1.6611837562,
				"y": 1.1524457512,
				"z": 0.4068615034,
				"element": "N" 
			},
			{
				"x": 2.1406955267,
				"y": -0.0598853048,
				"z": 0.3642558586,
				"element": "C" 
			},
			{
				"x": 1.19790138,
				"y": -0.9629109687,
				"z": -0.0418955584,
				"element": "O" 
			},
			{
				"x": 3.4870087386,
				"y": -0.514934708,
				"z": 0.6838997383,
				"element": "C" 
			},
			{
				"x": 3.8399817168,
				"y": -1.869456165,
				"z": 0.5806268337,
				"element": "C" 
			},
			{
				"x": 5.1359139867,
				"y": -2.2748554701,
				"z": 0.8928415721,
				"element": "C" 
			},
			{
				"x": 6.0845046134,
				"y": -1.337871707,
				"z": 1.3081215614,
				"element": "C" 
			},
			{
				"x": 5.7342174395,
				"y": 0.0118443693,
				"z": 1.4114306649,
				"element": "C" 
			},
			{
				"x": 4.4428651327,
				"y": 0.4266540279,
				"z": 1.101947258,
				"element": "C" 
			},
			{
				"x": -5.8502640612,
				"y": -1.1264469343,
				"z": -1.2395774942,
				"element": "H" 
			},
			{
				"x": -4.3085000747,
				"y": 0.1374038425,
				"z": -1.5244407613,
				"element": "H" 
			},
			{
				"x": -2.1755744529,
				"y": 1.1032539065,
				"z": -0.7491490614,
				"element": "H" 
			},
			{
				"x": -0.3854770226,
				"y": -2.805777006,
				"z": -0.7598087396,
				"element": "H" 
			},
			{
				"x": -2.5433293385,
				"y": -3.7832310168,
				"z": -1.5396947126,
				"element": "H" 
			},
			{
				"x": 3.1018211612,
				"y": -2.5956890802,
				"z": 0.2575737046,
				"element": "H" 
			},
			{
				"x": 5.4051140306,
				"y": -3.3236076254,
				"z": 0.8115243351,
				"element": "H" 
			},
			{
				"x": 7.0936665234,
				"y": -1.6575356264,
				"z": 1.5505657551,
				"element": "H" 
			},
			{
				"x": 6.4702541155,
				"y": 0.7419851933,
				"z": 1.7340498789,
				"element": "H" 
			},
			{
				"x": 4.1564075387,
				"y": 1.4700931505,
				"z": 1.1771393067,
				"element": "H" 
			}
		],
		 "valence_orbital": [ 
			{
				"type": "occ",
				"energy": -0.28438,
				"method": "rhf"
			},
			{
				"type": "occ",
				"energy": -0.28338,
				"method": "rhf"
			},
			{
				"type": "occ",
				"energy": -0.2759,
				"method": "rhf"
			},
			{
				"type": "occ",
				"energy": -0.26957,
				"method": "rhf"
			},
			{
				"type": "occ",
				"energy": -0.23882,
				"method": "rhf"
			},
			{
				"type": "unocc",
				"energy": -0.08372,
				"method": "rhf"
			},
			{
				"type": "unocc",
				"energy": -0.04962,
				"method": "rhf"
			},
			{
				"type": "unocc",
				"energy": -0.03213,
				"method": "rhf"
			},
			{
				"type": "unocc",
				"energy": -0.01856,
				"method": "rhf"
			},
			{
				"type": "unocc",
				"energy": 0.00518,
				"method": "rhf"
			}
		],
		"cosmo_sigma_profile": { 
			"-0.025": 0.0,
			"-0.024": 0.0,
			"-0.023": 0.0,
			"-0.022": 0.0,
			"-0.021": 0.0,
			"-0.02": 0.0,
			"-0.019": 0.313246935852,
			"-0.018": 0.989486117233,
			"-0.017": 1.35887087414,
			"-0.016": 0.685623149241,
			"-0.015": 1.29049054678,
			"-0.014": 0.746882872565,
			"-0.013": 1.19287759919,
			"-0.012": 1.06879223529,
			"-0.011": 1.10883438419,
			"-0.01": 1.52111352676,
			"-0.009": 1.87697354734,
			"-0.008": 2.51966597736,
			"-0.007": 8.18136396155,
			"-0.006": 17.9844561903,
			"-0.005": 18.667858278,
			"-0.004": 20.7260457117,
			"-0.003": 18.8322280617,
			"-0.002": 22.5057008563,
			"-0.001": 22.2372482798,
			"0.0": 22.1975909072,
			"0.001": 27.5724121133,
			"0.002": 22.0174378738,
			"0.003": 15.6673296079,
			"0.004": 13.8832210655,
			"0.005": 3.32777231366,
			"0.006": 4.36117209166,
			"0.007": 4.65302513077,
			"0.008": 4.54775860123,
			"0.009": 5.95814199972,
			"0.01": 7.28466339603,
			"0.011": 9.04660360543,
			"0.012": 6.28318445488,
			"0.013": 3.50143433074,
			"0.014": 0.766771204773,
			"0.015": 0.000662170087304,
			"0.016": 0.0,
			"0.017": 0.0,
			"0.018": 0.0,
			"0.019": 0.0,
			"0.02": 0.0,
			"0.021": 0.0,
			"0.022": 0.0,
			"0.023": 0.0,
			"0.024": 0.0,
			"0.025": 0.0
		}
	}
}
