{
	 "smiles": "COC1=CC(Br)=CC=C1O", 
	 "Tm": 308.15, 
	 "num_atms": 17, 
	 "gaussian": { 
		 "optdone": 1, 
		 "sigma_profile": "yes", 
		 "theory": "DFT", 
		 "functional": "B3LYP", 
		 "basiset": "6-31G**", 
		 "properties": { 
			 "R2extent": 3514.3525, 
			 "electric_dipole_moment_norm": 1.43195227225, 
			 "electric_quadrupole_moment_norm": 16.5015257601, 
			 "total_energy": -2992.79190586, 
			 "HOMO_LUMO_gap": 0.20512, 
			 "cosmo_polarized_energy": -11.28, 
			 "cosmo_cavitation_energy": 23.4, 
			 "cosmo_dispersion_energy": -17.9, 
			 "cosmo_repulsion_energy": 1.46, 
			 "cosmo_total_nonelectrostatic_energy": 6.96, 
			 "SMD_solvation_energy": 4.08 
		},
		"coords": [
			{
				"x": -1.6140612303,
				"y": -0.2419822665,
				"z": 2.4434357851,
				"element": "C" 
			},
			{
				"x": -1.1841897674,
				"y": -0.6590716358,
				"z": 1.1573335672,
				"element": "O" 
			},
			{
				"x": -0.5014993087,
				"y": 0.2320222595,
				"z": 0.39030844,
				"element": "C" 
			},
			{
				"x": -0.1868707892,
				"y": 1.5371766834,
				"z": 0.770677317,
				"element": "C" 
			},
			{
				"x": 0.5222168023,
				"y": 2.3634439065,
				"z": -0.1072461693,
				"element": "C" 
			},
			{
				"x": 0.9393420483,
				"y": 4.149420626,
				"z": 0.4427559632,
				"element": "Br" 
			},
			{
				"x": 0.9246707169,
				"y": 1.917470087,
				"z": -1.3561522478,
				"element": "C" 
			},
			{
				"x": 0.6063386269,
				"y": 0.6070407491,
				"z": -1.7327783215,
				"element": "C" 
			},
			{
				"x": -0.0976005327,
				"y": -0.2388679751,
				"z": -0.8821589879,
				"element": "C" 
			},
			{
				"x": -0.4318707439,
				"y": -1.5217801122,
				"z": -1.20098687,
				"element": "O" 
			},
			{
				"x": -2.3067126077,
				"y": 0.6075075299,
				"z": 2.3829899797,
				"element": "H" 
			},
			{
				"x": -0.7660799491,
				"y": 0.0314820795,
				"z": 3.0846771058,
				"element": "H" 
			},
			{
				"x": -2.1319465573,
				"y": -1.0980790993,
				"z": 2.8776754757,
				"element": "H" 
			},
			{
				"x": -0.4852451259,
				"y": 1.9180979323,
				"z": 1.7378267487,
				"element": "H" 
			},
			{
				"x": 1.4734191374,
				"y": 2.5658524325,
				"z": -2.0281875212,
				"element": "H" 
			},
			{
				"x": 0.9146417448,
				"y": 0.2406223761,
				"z": -2.7097819945,
				"element": "H" 
			},
			{
				"x": -0.1005524644,
				"y": -1.7165555729,
				"z": -2.0871882704,
				"element": "H" 
			}
		],
		 "valence_orbital": [ 
			{
				"type": "occ",
				"energy": -0.33451,
				"method": "rhf"
			},
			{
				"type": "occ",
				"energy": -0.28666,
				"method": "rhf"
			},
			{
				"type": "occ",
				"energy": -0.28185,
				"method": "rhf"
			},
			{
				"type": "occ",
				"energy": -0.24347,
				"method": "rhf"
			},
			{
				"type": "occ",
				"energy": -0.20819,
				"method": "rhf"
			},
			{
				"type": "unocc",
				"energy": -0.00307,
				"method": "rhf"
			},
			{
				"type": "unocc",
				"energy": 0.00549,
				"method": "rhf"
			},
			{
				"type": "unocc",
				"energy": 0.01054,
				"method": "rhf"
			},
			{
				"type": "unocc",
				"energy": 0.06475,
				"method": "rhf"
			},
			{
				"type": "unocc",
				"energy": 0.10096,
				"method": "rhf"
			}
		],
		"cosmo_sigma_profile": { 
			"-0.025": 0.0,
			"-0.024": 0.0,
			"-0.023": 0.0,
			"-0.022": 0.0,
			"-0.021": 0.0,
			"-0.02": 0.0,
			"-0.019": 0.00185040668959,
			"-0.018": 0.781063450353,
			"-0.017": 1.28087742078,
			"-0.016": 0.943044167252,
			"-0.015": 1.40570429379,
			"-0.014": 0.675945040144,
			"-0.013": 0.892762362899,
			"-0.012": 1.0422363524,
			"-0.011": 1.1539220959,
			"-0.01": 0.822155593964,
			"-0.009": 1.172415572,
			"-0.008": 1.25991342925,
			"-0.007": 5.00074702109,
			"-0.006": 10.5848341038,
			"-0.005": 14.4333710684,
			"-0.004": 12.8727178813,
			"-0.003": 12.5388014019,
			"-0.002": 7.94116226779,
			"-0.001": 8.35026434656,
			"0.0": 8.17915411805,
			"0.001": 10.3454606339,
			"0.002": 15.3506691062,
			"0.003": 20.1486413466,
			"0.004": 19.5155020266,
			"0.005": 15.262312354,
			"0.006": 2.90546927511,
			"0.007": 1.69858763186,
			"0.008": 1.95599837416,
			"0.009": 2.21799742258,
			"0.01": 1.75481131091,
			"0.011": 2.10602210192,
			"0.012": 1.96594824963,
			"0.013": 2.04476689943,
			"0.014": 1.13185372038,
			"0.015": 0.0308722223052,
			"0.016": 0.0,
			"0.017": 0.0,
			"0.018": 0.0,
			"0.019": 0.0,
			"0.02": 0.0,
			"0.021": 0.0,
			"0.022": 0.0,
			"0.023": 0.0,
			"0.024": 0.0,
			"0.025": 0.0
		}
	}
}
