{
	 "smiles": "COC1=CC=CC(F)=C1C(O)=O", 
	 "Tm": 364.15, 
	 "num_atms": 19, 
	 "gaussian": { 
		 "optdone": 1, 
		 "sigma_profile": "yes", 
		 "theory": "DFT", 
		 "functional": "B3LYP", 
		 "basiset": "6-31G**", 
		 "properties": { 
			 "R2extent": 2914.6866, 
			 "electric_dipole_moment_norm": 7.70625983276, 
			 "electric_quadrupole_moment_norm": 20.7022284286, 
			 "total_energy": -634.568379817, 
			 "HOMO_LUMO_gap": 0.20189, 
			 "cosmo_polarized_energy": -16.11, 
			 "cosmo_cavitation_energy": 23.57, 
			 "cosmo_dispersion_energy": -17.58, 
			 "cosmo_repulsion_energy": 1.37, 
			 "cosmo_total_nonelectrostatic_energy": 7.36, 
			 "SMD_solvation_energy": 6.46 
		},
		"coords": [
			{
				"x": 0.1572641039,
				"y": 1.5111628691,
				"z": 0.586166718,
				"element": "C" 
			},
			{
				"x": 0.425100676,
				"y": 0.111089821,
				"z": 0.6306160581,
				"element": "O" 
			},
			{
				"x": 0.2821829648,
				"y": -0.649316631,
				"z": -0.5039587669,
				"element": "C" 
			},
			{
				"x": -0.1165890303,
				"y": -0.0906510255,
				"z": -1.7197182085,
				"element": "C" 
			},
			{
				"x": -0.2547823261,
				"y": -0.9089567128,
				"z": -2.84138617,
				"element": "C" 
			},
			{
				"x": -0.0022592398,
				"y": -2.2712962875,
				"z": -2.7586588174,
				"element": "C" 
			},
			{
				"x": 0.4009071159,
				"y": -2.8067605244,
				"z": -1.538150717,
				"element": "C" 
			},
			{
				"x": 0.6166476522,
				"y": -4.1242699463,
				"z": -1.5092950203,
				"element": "F" 
			},
			{
				"x": 0.5645610549,
				"y": -2.0354407452,
				"z": -0.3735921195,
				"element": "C" 
			},
			{
				"x": 1.0372162607,
				"y": -2.7064978047,
				"z": 0.8988007504,
				"element": "C" 
			},
			{
				"x": 0.9004714094,
				"y": -2.0133952768,
				"z": 2.048368471,
				"element": "O" 
			},
			{
				"x": 1.5059384176,
				"y": -3.8201119503,
				"z": 0.9136155226,
				"element": "O" 
			},
			{
				"x": -0.8837589263,
				"y": 1.7067112796,
				"z": 0.3066671578,
				"element": "H" 
			},
			{
				"x": 0.8309016026,
				"y": 2.0166513769,
				"z": -0.1137402637,
				"element": "H" 
			},
			{
				"x": 0.3399670966,
				"y": 1.8786173228,
				"z": 1.5960681787,
				"element": "H" 
			},
			{
				"x": -0.3210159058,
				"y": 0.9687315395,
				"z": -1.8012678344,
				"element": "H" 
			},
			{
				"x": -0.5665142508,
				"y": -0.4724359451,
				"z": -3.7851392,
				"element": "H" 
			},
			{
				"x": -0.1081889739,
				"y": -2.934059922,
				"z": -3.6093928529,
				"element": "H" 
			},
			{
				"x": 0.5985502985,
				"y": -1.1071714374,
				"z": 1.8572971138,
				"element": "H" 
			}
		],
		 "valence_orbital": [ 
			{
				"type": "occ",
				"energy": -0.34291,
				"method": "rhf"
			},
			{
				"type": "occ",
				"energy": -0.29777,
				"method": "rhf"
			},
			{
				"type": "occ",
				"energy": -0.26528,
				"method": "rhf"
			},
			{
				"type": "occ",
				"energy": -0.25595,
				"method": "rhf"
			},
			{
				"type": "occ",
				"energy": -0.25025,
				"method": "rhf"
			},
			{
				"type": "unocc",
				"energy": -0.04836,
				"method": "rhf"
			},
			{
				"type": "unocc",
				"energy": -0.00926,
				"method": "rhf"
			},
			{
				"type": "unocc",
				"energy": 0.05393,
				"method": "rhf"
			},
			{
				"type": "unocc",
				"energy": 0.06187,
				"method": "rhf"
			},
			{
				"type": "unocc",
				"energy": 0.07454,
				"method": "rhf"
			}
		],
		"cosmo_sigma_profile": { 
			"-0.025": 0.0,
			"-0.024": 0.0,
			"-0.023": 0.0,
			"-0.022": 0.0,
			"-0.021": 0.0,
			"-0.02": 0.0,
			"-0.019": 0.0,
			"-0.018": 0.0,
			"-0.017": 0.0,
			"-0.016": 0.0,
			"-0.015": 0.0,
			"-0.014": 0.0,
			"-0.013": 0.0,
			"-0.012": 0.0,
			"-0.011": 0.0480598246064,
			"-0.01": 0.37148812579,
			"-0.009": 0.914137099572,
			"-0.008": 4.32396593646,
			"-0.007": 13.8158159725,
			"-0.006": 16.2447966735,
			"-0.005": 15.0891359055,
			"-0.004": 13.0224504846,
			"-0.003": 12.0363661412,
			"-0.002": 9.65088647387,
			"-0.001": 11.7480954603,
			"0.0": 14.4298311285,
			"0.001": 12.9070587037,
			"0.002": 11.7096629844,
			"0.003": 10.8442103345,
			"0.004": 6.96336311037,
			"0.005": 2.78605147106,
			"0.006": 3.37185735389,
			"0.007": 2.83690268222,
			"0.008": 2.19532481798,
			"0.009": 3.36342534646,
			"0.01": 3.88616954366,
			"0.011": 5.14232800587,
			"0.012": 7.28814055963,
			"0.013": 3.45707277623,
			"0.014": 0.641292159694,
			"0.015": 0.0,
			"0.016": 0.0,
			"0.017": 0.0,
			"0.018": 0.0,
			"0.019": 0.0,
			"0.02": 0.0,
			"0.021": 0.0,
			"0.022": 0.0,
			"0.023": 0.0,
			"0.024": 0.0,
			"0.025": 0.0
		}
	}
}
