{
	 "smiles": "CC1=CC=C2NCCCC2=C1", 
	 "Tm": 308.15, 
	 "num_atms": 24, 
	 "gaussian": { 
		 "optdone": 1, 
		 "sigma_profile": "yes", 
		 "theory": "DFT", 
		 "functional": "B3LYP", 
		 "basiset": "6-31G**", 
		 "properties": { 
			 "R2extent": 2203.2234, 
			 "electric_dipole_moment_norm": 1.48737861353, 
			 "electric_quadrupole_moment_norm": 7.62060697123, 
			 "total_energy": -443.66804102, 
			 "HOMO_LUMO_gap": 0.19128, 
			 "cosmo_polarized_energy": -5.87, 
			 "cosmo_cavitation_energy": 25.4, 
			 "cosmo_dispersion_energy": -19.26, 
			 "cosmo_repulsion_energy": 1.55, 
			 "cosmo_total_nonelectrostatic_energy": 7.68, 
			 "SMD_solvation_energy": 2.79 
		},
		"coords": [
			{
				"x": -1.6915594615,
				"y": 3.2313805208,
				"z": 1.9894439333,
				"element": "C" 
			},
			{
				"x": -0.6684367758,
				"y": 2.172507081,
				"z": 1.6495411816,
				"element": "C" 
			},
			{
				"x": 0.6767566106,
				"y": 2.315944044,
				"z": 2.0180838948,
				"element": "C" 
			},
			{
				"x": 1.6206305219,
				"y": 1.3512716996,
				"z": 1.6865510476,
				"element": "C" 
			},
			{
				"x": 1.2557093359,
				"y": 0.2006159077,
				"z": 0.9656121088,
				"element": "C" 
			},
			{
				"x": 2.207906949,
				"y": -0.7862848824,
				"z": 0.6900481022,
				"element": "N" 
			},
			{
				"x": 1.919150463,
				"y": -1.7848979119,
				"z": -0.330026027,
				"element": "C" 
			},
			{
				"x": 0.5037802849,
				"y": -2.3248178952,
				"z": -0.1138166229,
				"element": "C" 
			},
			{
				"x": -0.5169556956,
				"y": -1.1826589262,
				"z": -0.2175603769,
				"element": "C" 
			},
			{
				"x": -0.0918752934,
				"y": 0.0368711278,
				"z": 0.5812932301,
				"element": "C" 
			},
			{
				"x": -1.0186085825,
				"y": 1.0207629877,
				"z": 0.9386763296,
				"element": "C" 
			},
			{
				"x": -2.7099196157,
				"y": 2.8345493597,
				"z": 1.9337330431,
				"element": "H" 
			},
			{
				"x": -1.6375323152,
				"y": 4.0853238174,
				"z": 1.3014045127,
				"element": "H" 
			},
			{
				"x": -1.542434428,
				"y": 3.6256256486,
				"z": 3.0005969915,
				"element": "H" 
			},
			{
				"x": 0.9907563027,
				"y": 3.1945673324,
				"z": 2.5772666456,
				"element": "H" 
			},
			{
				"x": 2.6565391249,
				"y": 1.4764537725,
				"z": 1.9951480685,
				"element": "H" 
			},
			{
				"x": 3.1621706302,
				"y": -0.4531722656,
				"z": 0.7008608701,
				"element": "H" 
			},
			{
				"x": 2.6571926591,
				"y": -2.5897009263,
				"z": -0.2430938299,
				"element": "H" 
			},
			{
				"x": 1.9995228488,
				"y": -1.3750388557,
				"z": -1.3530461294,
				"element": "H" 
			},
			{
				"x": 0.284823779,
				"y": -3.1049939302,
				"z": -0.8506155941,
				"element": "H" 
			},
			{
				"x": 0.4538576335,
				"y": -2.7848150322,
				"z": 0.8798975811,
				"element": "H" 
			},
			{
				"x": -0.6383194709,
				"y": -0.90462866,
				"z": -1.2747537406,
				"element": "H" 
			},
			{
				"x": -1.5032623411,
				"y": -1.5241644485,
				"z": 0.1184754405,
				"element": "H" 
			},
			{
				"x": -2.057593164,
				"y": 0.8784004348,
				"z": 0.6439793397,
				"element": "H" 
			}
		],
		 "valence_orbital": [ 
			{
				"type": "occ",
				"energy": -0.32066,
				"method": "rhf"
			},
			{
				"type": "occ",
				"energy": -0.31232,
				"method": "rhf"
			},
			{
				"type": "occ",
				"energy": -0.2751,
				"method": "rhf"
			},
			{
				"type": "occ",
				"energy": -0.22866,
				"method": "rhf"
			},
			{
				"type": "occ",
				"energy": -0.18024,
				"method": "rhf"
			},
			{
				"type": "unocc",
				"energy": 0.01104,
				"method": "rhf"
			},
			{
				"type": "unocc",
				"energy": 0.02795,
				"method": "rhf"
			},
			{
				"type": "unocc",
				"energy": 0.08813,
				"method": "rhf"
			},
			{
				"type": "unocc",
				"energy": 0.11002,
				"method": "rhf"
			},
			{
				"type": "unocc",
				"energy": 0.11333,
				"method": "rhf"
			}
		],
		"cosmo_sigma_profile": { 
			"-0.025": 0.0,
			"-0.024": 0.0,
			"-0.023": 0.0,
			"-0.022": 0.0,
			"-0.021": 0.0,
			"-0.02": 0.0,
			"-0.019": 0.0,
			"-0.018": 0.0,
			"-0.017": 0.0,
			"-0.016": 0.0,
			"-0.015": 0.0,
			"-0.014": 0.0,
			"-0.013": 0.0,
			"-0.012": 0.733862217685,
			"-0.011": 1.09877588348,
			"-0.01": 1.51760396248,
			"-0.009": 1.32414872995,
			"-0.008": 1.0138755153,
			"-0.007": 1.56851454687,
			"-0.006": 2.18112560082,
			"-0.005": 3.18039992701,
			"-0.004": 10.3398718305,
			"-0.003": 23.2559540036,
			"-0.002": 32.1822818057,
			"-0.001": 27.6868611031,
			"0.0": 23.598678795,
			"0.001": 16.5200334182,
			"0.002": 6.9584071032,
			"0.003": 7.77112694221,
			"0.004": 6.64176123056,
			"0.005": 6.17281621329,
			"0.006": 7.15405015519,
			"0.007": 8.16774756867,
			"0.008": 6.55024769363,
			"0.009": 0.956872905739,
			"0.01": 0.489970598106,
			"0.011": 0.799631955711,
			"0.012": 0.453906644628,
			"0.013": 0.440401299363,
			"0.014": 0.0351674120022,
			"0.015": 0.0,
			"0.016": 0.0,
			"0.017": 0.0,
			"0.018": 0.0,
			"0.019": 0.0,
			"0.02": 0.0,
			"0.021": 0.0,
			"0.022": 0.0,
			"0.023": 0.0,
			"0.024": 0.0,
			"0.025": 0.0
		}
	}
}
