{
	 "smiles": "CCNS(=O)(=O)C(F)(F)C(F)(F)C(F)(F)C(F)(F)C(F)(F)C(F)(F)C(F)(F)C(F)(F)F", 
	 "Tm": 369.15, 
	 "num_atms": 37, 
	 "gaussian": { 
		 "optdone": 1, 
		 "sigma_profile": "yes", 
		 "theory": "DFT", 
		 "functional": "B3LYP", 
		 "basiset": "6-31G**", 
		 "properties": { 
			 "R2extent": 14769.1588, 
			 "electric_dipole_moment_norm": 3.94816578426, 
			 "electric_quadrupole_moment_norm": 21.3368233713, 
			 "total_energy": -2685.19058673, 
			 "HOMO_LUMO_gap": 0.29473, 
			 "cosmo_polarized_energy": -10.47, 
			 "cosmo_cavitation_energy": 45.98, 
			 "cosmo_dispersion_energy": -30.32, 
			 "cosmo_repulsion_energy": 1.96, 
			 "cosmo_total_nonelectrostatic_energy": 17.62, 
			 "SMD_solvation_energy": 12.03 
		},
		"coords": [
			{
				"x": -2.1880652324,
				"y": 4.0786428183,
				"z": -2.4205194681,
				"element": "C" 
			},
			{
				"x": -0.7480624904,
				"y": 3.5757211155,
				"z": -2.3434045464,
				"element": "C" 
			},
			{
				"x": -0.6316609643,
				"y": 2.1119570241,
				"z": -2.2144242214,
				"element": "N" 
			},
			{
				"x": -0.6313880109,
				"y": 1.1122072327,
				"z": -3.5292546021,
				"element": "S" 
			},
			{
				"x": -0.9954378463,
				"y": 1.8585093205,
				"z": -4.7295707802,
				"element": "O" 
			},
			{
				"x": -1.2571656881,
				"y": -0.1484140075,
				"z": -3.1431980887,
				"element": "O" 
			},
			{
				"x": 1.2052252701,
				"y": 0.780529843,
				"z": -3.769538781,
				"element": "C" 
			},
			{
				"x": 1.8363987465,
				"y": 1.9734670059,
				"z": -3.7597690287,
				"element": "F" 
			},
			{
				"x": 1.3185275444,
				"y": 0.2344602251,
				"z": -4.9963463751,
				"element": "F" 
			},
			{
				"x": 1.9382000738,
				"y": -0.1984639259,
				"z": -2.8017211272,
				"element": "C" 
			},
			{
				"x": 1.3807259881,
				"y": -1.4179850379,
				"z": -2.9445508974,
				"element": "F" 
			},
			{
				"x": 3.2253614286,
				"y": -0.2402435105,
				"z": -3.2304373634,
				"element": "F" 
			},
			{
				"x": 1.945438946,
				"y": 0.1688176783,
				"z": -1.2945893427,
				"element": "C" 
			},
			{
				"x": 2.2079600251,
				"y": 1.4922522508,
				"z": -1.1697976414,
				"element": "F" 
			},
			{
				"x": 0.7133483033,
				"y": -0.0753070008,
				"z": -0.7868063907,
				"element": "F" 
			},
			{
				"x": 3.0088134799,
				"y": -0.5316344488,
				"z": -0.3795189996,
				"element": "C" 
			},
			{
				"x": 4.2176241891,
				"y": -0.045095475,
				"z": -0.7355836688,
				"element": "F" 
			},
			{
				"x": 2.7292647021,
				"y": -0.1175942691,
				"z": 0.8816249401,
				"element": "F" 
			},
			{
				"x": 3.1637606471,
				"y": -2.0819178658,
				"z": -0.3577432154,
				"element": "C" 
			},
			{
				"x": 3.3856025729,
				"y": -2.4860062436,
				"z": -1.631261674,
				"element": "F" 
			},
			{
				"x": 4.2745792751,
				"y": -2.3506768305,
				"z": 0.3656593653,
				"element": "F" 
			},
			{
				"x": 2.0101625512,
				"y": -2.978032707,
				"z": 0.194086183,
				"element": "C" 
			},
			{
				"x": 2.3777067125,
				"y": -4.2416804859,
				"z": -0.1055749474,
				"element": "F" 
			},
			{
				"x": 0.8785038408,
				"y": -2.689130152,
				"z": -0.4947584723,
				"element": "F" 
			},
			{
				"x": 1.7076344748,
				"y": -2.9348365128,
				"z": 1.743806191,
				"element": "C" 
			},
			{
				"x": 2.6913098674,
				"y": -2.2828740514,
				"z": 2.4033886061,
				"element": "F" 
			},
			{
				"x": 1.6594801949,
				"y": -4.2057445784,
				"z": 2.1950744752,
				"element": "F" 
			},
			{
				"x": 0.3601890391,
				"y": -2.2774238099,
				"z": 2.1403229799,
				"element": "C" 
			},
			{
				"x": 0.2847296202,
				"y": -1.0208977697,
				"z": 1.6821800026,
				"element": "F" 
			},
			{
				"x": -0.6646110327,
				"y": -2.9873318282,
				"z": 1.6590097455,
				"element": "F" 
			},
			{
				"x": 0.2775913011,
				"y": -2.2503916158,
				"z": 3.4758503707,
				"element": "F" 
			},
			{
				"x": -2.2023147109,
				"y": 5.1720223522,
				"z": -2.4761789087,
				"element": "H" 
			},
			{
				"x": -2.7603521196,
				"y": 3.7807834649,
				"z": -1.5351621948,
				"element": "H" 
			},
			{
				"x": -2.6865111312,
				"y": 3.6811077227,
				"z": -3.308219573,
				"element": "H" 
			},
			{
				"x": -0.18840219,
				"y": 3.86469388,
				"z": -3.2349303633,
				"element": "H" 
			},
			{
				"x": -0.2235972264,
				"y": 4.0039503133,
				"z": -1.4826775484,
				"element": "H" 
			},
			{
				"x": -1.0736701508,
				"y": 1.6680598791,
				"z": -1.4168646389,
				"element": "H" 
			}
		],
		 "valence_orbital": [ 
			{
				"type": "occ",
				"energy": -0.35967,
				"method": "rhf"
			},
			{
				"type": "occ",
				"energy": -0.34502,
				"method": "rhf"
			},
			{
				"type": "occ",
				"energy": -0.32986,
				"method": "rhf"
			},
			{
				"type": "occ",
				"energy": -0.3196,
				"method": "rhf"
			},
			{
				"type": "occ",
				"energy": -0.29553,
				"method": "rhf"
			},
			{
				"type": "unocc",
				"energy": -0.0008,
				"method": "rhf"
			},
			{
				"type": "unocc",
				"energy": 0.0053,
				"method": "rhf"
			},
			{
				"type": "unocc",
				"energy": 0.01371,
				"method": "rhf"
			},
			{
				"type": "unocc",
				"energy": 0.02495,
				"method": "rhf"
			},
			{
				"type": "unocc",
				"energy": 0.04172,
				"method": "rhf"
			}
		],
		"cosmo_sigma_profile": { 
			"-0.025": 0.0,
			"-0.024": 0.0,
			"-0.023": 0.0,
			"-0.022": 0.0,
			"-0.021": 0.0,
			"-0.02": 0.0,
			"-0.019": 0.0,
			"-0.018": 0.0,
			"-0.017": 0.0,
			"-0.016": 0.281332273792,
			"-0.015": 0.520073686702,
			"-0.014": 1.12214964567,
			"-0.013": 1.00704028156,
			"-0.012": 1.08432518428,
			"-0.011": 0.848933161559,
			"-0.01": 0.962300731362,
			"-0.009": 1.46785597968,
			"-0.008": 1.45075315575,
			"-0.007": 2.50508409156,
			"-0.006": 6.68905740797,
			"-0.005": 8.50651377246,
			"-0.004": 12.8100485262,
			"-0.003": 17.8682661088,
			"-0.002": 25.2695265579,
			"-0.001": 40.4119007649,
			"0.0": 79.3791565443,
			"0.001": 112.170664068,
			"0.002": 14.4609549416,
			"0.003": 4.60005025757,
			"0.004": 4.21387507996,
			"0.005": 4.3975178322,
			"0.006": 4.17355440707,
			"0.007": 2.99263868521,
			"0.008": 6.61298842062,
			"0.009": 8.31043617415,
			"0.01": 3.02253135149,
			"0.011": 0.0,
			"0.012": 0.0,
			"0.013": 0.0,
			"0.014": 0.0,
			"0.015": 0.0,
			"0.016": 0.0,
			"0.017": 0.0,
			"0.018": 0.0,
			"0.019": 0.0,
			"0.02": 0.0,
			"0.021": 0.0,
			"0.022": 0.0,
			"0.023": 0.0,
			"0.024": 0.0,
			"0.025": 0.0
		}
	}
}
