{
	 "smiles": "COC1=CC=C(C=C1)C(CC(O)=O)NC(C)=O", 
	 "Tm": 460.15, 
	 "num_atms": 32, 
	 "gaussian": { 
		 "optdone": 1, 
		 "sigma_profile": "yes", 
		 "theory": "DFT", 
		 "functional": "B3LYP", 
		 "basiset": "6-31G**", 
		 "properties": { 
			 "R2extent": 5001.2137, 
			 "electric_dipole_moment_norm": 4.7235608909, 
			 "electric_quadrupole_moment_norm": 7.96280743959, 
			 "total_energy": -821.979520444, 
			 "HOMO_LUMO_gap": 0.21628, 
			 "cosmo_polarized_energy": -22.93, 
			 "cosmo_cavitation_energy": 35.3, 
			 "cosmo_dispersion_energy": -24.91, 
			 "cosmo_repulsion_energy": 1.97, 
			 "cosmo_total_nonelectrostatic_energy": 12.35, 
			 "SMD_solvation_energy": 7.76 
		},
		"coords": [
			{
				"x": -2.521618952,
				"y": 2.2547160802,
				"z": -4.5584741836,
				"element": "C" 
			},
			{
				"x": -2.4041325751,
				"y": 1.1191468426,
				"z": -3.7185259038,
				"element": "O" 
			},
			{
				"x": -1.5281370441,
				"y": 1.1788452702,
				"z": -2.6724726973,
				"element": "C" 
			},
			{
				"x": -0.7488820508,
				"y": 2.2927987368,
				"z": -2.3488276289,
				"element": "C" 
			},
			{
				"x": 0.1053321783,
				"y": 2.229274536,
				"z": -1.2425902434,
				"element": "C" 
			},
			{
				"x": 0.2133491689,
				"y": 1.0805460912,
				"z": -0.4573166515,
				"element": "C" 
			},
			{
				"x": -0.575203757,
				"y": -0.0324448094,
				"z": -0.8011064493,
				"element": "C" 
			},
			{
				"x": -1.4357785785,
				"y": 0.0184840203,
				"z": -1.8872789163,
				"element": "C" 
			},
			{
				"x": 1.1492165833,
				"y": 1.0940050759,
				"z": 0.7465190264,
				"element": "C" 
			},
			{
				"x": 2.513242643,
				"y": 0.3720007422,
				"z": 0.5762468637,
				"element": "C" 
			},
			{
				"x": 2.5400642298,
				"y": -1.0817765343,
				"z": 0.1376544439,
				"element": "C" 
			},
			{
				"x": 3.332989431,
				"y": -1.8198697197,
				"z": 0.9501419075,
				"element": "O" 
			},
			{
				"x": 2.0340918419,
				"y": -1.5319243985,
				"z": -0.8655097841,
				"element": "O" 
			},
			{
				"x": 0.4787981603,
				"y": 0.7574390475,
				"z": 2.0168630961,
				"element": "N" 
			},
			{
				"x": 0.1926152476,
				"y": -0.4946010663,
				"z": 2.4797251368,
				"element": "C" 
			},
			{
				"x": -0.6216639675,
				"y": -0.5405640532,
				"z": 3.7656039946,
				"element": "C" 
			},
			{
				"x": 0.557692737,
				"y": -1.5225310479,
				"z": 1.9181012372,
				"element": "O" 
			},
			{
				"x": -2.8804721034,
				"y": 3.133717827,
				"z": -4.0066585176,
				"element": "H" 
			},
			{
				"x": -3.2529408648,
				"y": 1.9906526924,
				"z": -5.3241697121,
				"element": "H" 
			},
			{
				"x": -1.5675637117,
				"y": 2.5026308174,
				"z": -5.0419002641,
				"element": "H" 
			},
			{
				"x": -0.8005530504,
				"y": 3.2049396959,
				"z": -2.9313652265,
				"element": "H" 
			},
			{
				"x": 0.6983695772,
				"y": 3.1077798002,
				"z": -0.9945947493,
				"element": "H" 
			},
			{
				"x": -0.4986879837,
				"y": -0.9435789302,
				"z": -0.2205116862,
				"element": "H" 
			},
			{
				"x": -2.0440348235,
				"y": -0.8379303103,
				"z": -2.159624559,
				"element": "H" 
			},
			{
				"x": 1.4392650636,
				"y": 2.1415469386,
				"z": 0.8859414207,
				"element": "H" 
			},
			{
				"x": 3.0772059509,
				"y": 0.4760638998,
				"z": 1.5060393774,
				"element": "H" 
			},
			{
				"x": 3.0534134666,
				"y": 0.9213248908,
				"z": -0.2040592591,
				"element": "H" 
			},
			{
				"x": 3.2964925629,
				"y": -2.7252356006,
				"z": 0.5989566568,
				"element": "H" 
			},
			{
				"x": 0.0200885445,
				"y": 1.5293339819,
				"z": 2.4774114906,
				"element": "H" 
			},
			{
				"x": -0.1530581936,
				"y": -1.2547974941,
				"z": 4.4461186921,
				"element": "H" 
			},
			{
				"x": -0.715051909,
				"y": 0.4265104503,
				"z": 4.2673804623,
				"element": "H" 
			},
			{
				"x": -1.6232478213,
				"y": -0.9165034728,
				"z": 3.5346826257,
				"element": "H" 
			}
		],
		 "valence_orbital": [ 
			{
				"type": "occ",
				"energy": -0.26046,
				"method": "rhf"
			},
			{
				"type": "occ",
				"energy": -0.25601,
				"method": "rhf"
			},
			{
				"type": "occ",
				"energy": -0.24748,
				"method": "rhf"
			},
			{
				"type": "occ",
				"energy": -0.23961,
				"method": "rhf"
			},
			{
				"type": "occ",
				"energy": -0.2104,
				"method": "rhf"
			},
			{
				"type": "unocc",
				"energy": 0.00588,
				"method": "rhf"
			},
			{
				"type": "unocc",
				"energy": 0.00974,
				"method": "rhf"
			},
			{
				"type": "unocc",
				"energy": 0.0292,
				"method": "rhf"
			},
			{
				"type": "unocc",
				"energy": 0.03021,
				"method": "rhf"
			},
			{
				"type": "unocc",
				"energy": 0.06058,
				"method": "rhf"
			}
		],
		"cosmo_sigma_profile": { 
			"-0.025": 0.0,
			"-0.024": 0.0,
			"-0.023": 0.0,
			"-0.022": 0.0,
			"-0.021": 0.0,
			"-0.02": 0.0,
			"-0.019": 0.0,
			"-0.018": 0.21963698981,
			"-0.017": 0.807627899297,
			"-0.016": 1.15525989676,
			"-0.015": 0.89140455509,
			"-0.014": 1.44877040256,
			"-0.013": 1.03551323359,
			"-0.012": 2.69434926468,
			"-0.011": 2.04904263188,
			"-0.01": 2.3856231595,
			"-0.009": 2.65731230406,
			"-0.008": 2.41586342476,
			"-0.007": 6.37659301956,
			"-0.006": 16.2006289542,
			"-0.005": 26.618046396,
			"-0.004": 23.5936207404,
			"-0.003": 24.5461726564,
			"-0.002": 20.7389161438,
			"-0.001": 15.9606361512,
			"0.0": 13.8044940283,
			"0.001": 11.7101906516,
			"0.002": 9.44525905635,
			"0.003": 11.0941249616,
			"0.004": 12.0245345371,
			"0.005": 12.0158164435,
			"0.006": 10.6904553242,
			"0.007": 6.19331596295,
			"0.008": 5.52071519647,
			"0.009": 6.44277012725,
			"0.01": 6.24513208904,
			"0.011": 5.96086517942,
			"0.012": 6.62506777002,
			"0.013": 5.21608297336,
			"0.014": 1.8452360499,
			"0.015": 1.25492193241,
			"0.016": 0.0551782822234,
			"0.017": 0.0,
			"0.018": 0.0,
			"0.019": 0.0,
			"0.02": 0.0,
			"0.021": 0.0,
			"0.022": 0.0,
			"0.023": 0.0,
			"0.024": 0.0,
			"0.025": 0.0
		}
	}
}
