{
	 "smiles": "[O-][N+](=O)C1=C(NC(=O)NCC#C)C=CC=C1", 
	 "Tm": 464.15, 
	 "num_atms": 25, 
	 "gaussian": { 
		 "optdone": 1, 
		 "sigma_profile": "yes", 
		 "theory": "DFT", 
		 "functional": "B3LYP", 
		 "basiset": "6-31G**", 
		 "properties": { 
			 "R2extent": 4943.8168, 
			 "electric_dipole_moment_norm": 6.05932033565, 
			 "electric_quadrupole_moment_norm": 9.19411215616, 
			 "total_energy": -776.244977515, 
			 "HOMO_LUMO_gap": 0.15898, 
			 "cosmo_polarized_energy": -20.09, 
			 "cosmo_cavitation_energy": 31.73, 
			 "cosmo_dispersion_energy": -21.17, 
			 "cosmo_repulsion_energy": 1.65, 
			 "cosmo_total_nonelectrostatic_energy": 12.21, 
			 "SMD_solvation_energy": 9.73 
		},
		"coords": [
			{
				"x": 1.7424224762,
				"y": 3.3190691192,
				"z": 0.7800828919,
				"element": "O" 
			},
			{
				"x": 1.1644837545,
				"y": 2.3505066209,
				"z": 0.288168379,
				"element": "N" 
			},
			{
				"x": 1.4439117681,
				"y": 1.8328000183,
				"z": -0.7885905054,
				"element": "O" 
			},
			{
				"x": 0.0042446128,
				"y": 1.8183254934,
				"z": 1.0278204005,
				"element": "C" 
			},
			{
				"x": -0.3485636867,
				"y": 0.4523853182,
				"z": 1.0038753259,
				"element": "C" 
			},
			{
				"x": 0.4261400609,
				"y": -0.5631062802,
				"z": 0.4258729756,
				"element": "N" 
			},
			{
				"x": 1.8042730031,
				"y": -0.790696961,
				"z": 0.4910908171,
				"element": "C" 
			},
			{
				"x": 2.3378108753,
				"y": -1.6061135796,
				"z": -0.2468303242,
				"element": "O" 
			},
			{
				"x": 2.4846889176,
				"y": -0.0741727282,
				"z": 1.4420928411,
				"element": "N" 
			},
			{
				"x": 3.9125572287,
				"y": -0.3434514684,
				"z": 1.6169918265,
				"element": "C" 
			},
			{
				"x": 4.4814184266,
				"y": 0.522624531,
				"z": 2.6472759901,
				"element": "C" 
			},
			{
				"x": 4.9466565587,
				"y": 1.2233595793,
				"z": 3.5125187314,
				"element": "C" 
			},
			{
				"x": -1.5647035258,
				"y": 0.0972818197,
				"z": 1.6135054452,
				"element": "C" 
			},
			{
				"x": -2.3805009511,
				"y": 1.0458358157,
				"z": 2.2215676138,
				"element": "C" 
			},
			{
				"x": -1.9828271233,
				"y": 2.3843506666,
				"z": 2.2800200615,
				"element": "C" 
			},
			{
				"x": -0.7834515485,
				"y": 2.7636755224,
				"z": 1.6887128211,
				"element": "C" 
			},
			{
				"x": -0.0418448098,
				"y": -1.238272672,
				"z": -0.161891791,
				"element": "H" 
			},
			{
				"x": 1.9907450917,
				"y": 0.3158246814,
				"z": 2.2318029746,
				"element": "H" 
			},
			{
				"x": 4.4135978124,
				"y": -0.1785544378,
				"z": 0.6568982293,
				"element": "H" 
			},
			{
				"x": 4.0824308367,
				"y": -1.3984128948,
				"z": 1.8752255226,
				"element": "H" 
			},
			{
				"x": 5.3659809915,
				"y": 1.852152711,
				"z": 4.2635605523,
				"element": "H" 
			},
			{
				"x": -1.8452459193,
				"y": -0.9517798437,
				"z": 1.6179485073,
				"element": "H" 
			},
			{
				"x": -3.3160831604,
				"y": 0.7334139137,
				"z": 2.6753801385,
				"element": "H" 
			},
			{
				"x": -2.6021041853,
				"y": 3.1250656982,
				"z": 2.7746074936,
				"element": "H" 
			},
			{
				"x": -0.4454375043,
				"y": 3.7928893566,
				"z": 1.6993930818,
				"element": "H" 
			}
		],
		 "valence_orbital": [ 
			{
				"type": "occ",
				"energy": -0.2793,
				"method": "rhf"
			},
			{
				"type": "occ",
				"energy": -0.2779,
				"method": "rhf"
			},
			{
				"type": "occ",
				"energy": -0.26758,
				"method": "rhf"
			},
			{
				"type": "occ",
				"energy": -0.25713,
				"method": "rhf"
			},
			{
				"type": "occ",
				"energy": -0.24586,
				"method": "rhf"
			},
			{
				"type": "unocc",
				"energy": -0.08688,
				"method": "rhf"
			},
			{
				"type": "unocc",
				"energy": -0.03689,
				"method": "rhf"
			},
			{
				"type": "unocc",
				"energy": -0.01576,
				"method": "rhf"
			},
			{
				"type": "unocc",
				"energy": 0.03429,
				"method": "rhf"
			},
			{
				"type": "unocc",
				"energy": 0.04423,
				"method": "rhf"
			}
		],
		"cosmo_sigma_profile": { 
			"-0.025": 0.0,
			"-0.024": 0.0,
			"-0.023": 0.0,
			"-0.022": 0.0,
			"-0.021": 0.0,
			"-0.02": 0.0,
			"-0.019": 0.0,
			"-0.018": 0.0,
			"-0.017": 0.0,
			"-0.016": 0.0,
			"-0.015": 0.727759610256,
			"-0.014": 1.52480298795,
			"-0.013": 1.9974015701,
			"-0.012": 2.37060523339,
			"-0.011": 3.81641583247,
			"-0.01": 3.52653044125,
			"-0.009": 3.47966421249,
			"-0.008": 6.40921427824,
			"-0.007": 13.1210985867,
			"-0.006": 16.7542574189,
			"-0.005": 16.8067776779,
			"-0.004": 13.1713368309,
			"-0.003": 11.6281544446,
			"-0.002": 10.1269677782,
			"-0.001": 14.6127391986,
			"0.0": 16.2826192281,
			"0.001": 15.9772283231,
			"0.002": 17.0585086253,
			"0.003": 11.1389738621,
			"0.004": 8.95032888626,
			"0.005": 10.6118886085,
			"0.006": 11.9808618424,
			"0.007": 11.7963799567,
			"0.008": 10.3215019364,
			"0.009": 5.48717200252,
			"0.01": 3.25730818998,
			"0.011": 1.20188703448,
			"0.012": 2.32751300358,
			"0.013": 5.36497962546,
			"0.014": 2.87404184335,
			"0.015": 0.0210634337788,
			"0.016": 0.0,
			"0.017": 0.0,
			"0.018": 0.0,
			"0.019": 0.0,
			"0.02": 0.0,
			"0.021": 0.0,
			"0.022": 0.0,
			"0.023": 0.0,
			"0.024": 0.0,
			"0.025": 0.0
		}
	}
}
