{
	 "smiles": "O=C1NC(=O)C2(CCC2)N1", 
	 "Tm": 496.15, 
	 "num_atms": 18, 
	 "gaussian": { 
		 "optdone": 1, 
		 "sigma_profile": "yes", 
		 "theory": "DFT", 
		 "functional": "B3LYP", 
		 "basiset": "6-31G**", 
		 "properties": { 
			 "R2extent": 1457.5672, 
			 "electric_dipole_moment_norm": 2.75282965692, 
			 "electric_quadrupole_moment_norm": 11.1814450497, 
			 "total_energy": -493.427242646, 
			 "HOMO_LUMO_gap": 0.24896, 
			 "cosmo_polarized_energy": -14.88, 
			 "cosmo_cavitation_energy": 21.49, 
			 "cosmo_dispersion_energy": -16.0, 
			 "cosmo_repulsion_energy": 1.32, 
			 "cosmo_total_nonelectrostatic_energy": 6.8, 
			 "SMD_solvation_energy": 4.47 
		},
		"coords": [
			{
				"x": 1.1125262374,
				"y": 1.0891045495,
				"z": -2.4185178041,
				"element": "O" 
			},
			{
				"x": 0.4201712481,
				"y": 0.770777047,
				"z": -1.4748808561,
				"element": "C" 
			},
			{
				"x": -0.6784261935,
				"y": -0.1168627402,
				"z": -1.5087572784,
				"element": "N" 
			},
			{
				"x": -1.2776766397,
				"y": -0.2893458445,
				"z": -0.2792697778,
				"element": "C" 
			},
			{
				"x": -2.2351704129,
				"y": -0.9912835105,
				"z": -0.0222508332,
				"element": "O" 
			},
			{
				"x": -0.486950026,
				"y": 0.5888531535,
				"z": 0.702067534,
				"element": "C" 
			},
			{
				"x": -1.4049070168,
				"y": 1.4929571413,
				"z": 1.5828521379,
				"element": "C" 
			},
			{
				"x": -1.3159463924,
				"y": 0.4255689883,
				"z": 2.7044353319,
				"element": "C" 
			},
			{
				"x": -0.0712629991,
				"y": -0.1731234439,
				"z": 1.9991326934,
				"element": "C" 
			},
			{
				"x": 0.5104212559,
				"y": 1.1704166679,
				"z": -0.1654285313,
				"element": "N" 
			},
			{
				"x": -0.9794863053,
				"y": -0.5702196376,
				"z": -2.3592166892,
				"element": "H" 
			},
			{
				"x": -2.3901725554,
				"y": 1.7375054724,
				"z": 1.178471594,
				"element": "H" 
			},
			{
				"x": -0.8835248304,
				"y": 2.4188480215,
				"z": 1.8456352166,
				"element": "H" 
			},
			{
				"x": -2.1627187835,
				"y": -0.2616340793,
				"z": 2.666893138,
				"element": "H" 
			},
			{
				"x": -1.1832982422,
				"y": 0.7871285293,
				"z": 3.7265602332,
				"element": "H" 
			},
			{
				"x": 0.8664256205,
				"y": 0.2326464247,
				"z": 2.3918894062,
				"element": "H" 
			},
			{
				"x": 0.0096008927,
				"y": -1.2605119926,
				"z": 1.9275417693,
				"element": "H" 
			},
			{
				"x": 1.2269951427,
				"y": 1.8163752531,
				"z": 0.1251427158,
				"element": "H" 
			}
		],
		 "valence_orbital": [ 
			{
				"type": "occ",
				"energy": -0.33403,
				"method": "rhf"
			},
			{
				"type": "occ",
				"energy": -0.28891,
				"method": "rhf"
			},
			{
				"type": "occ",
				"energy": -0.28877,
				"method": "rhf"
			},
			{
				"type": "occ",
				"energy": -0.2627,
				"method": "rhf"
			},
			{
				"type": "occ",
				"energy": -0.26187,
				"method": "rhf"
			},
			{
				"type": "unocc",
				"energy": -0.01291,
				"method": "rhf"
			},
			{
				"type": "unocc",
				"energy": 0.06632,
				"method": "rhf"
			},
			{
				"type": "unocc",
				"energy": 0.07223,
				"method": "rhf"
			},
			{
				"type": "unocc",
				"energy": 0.07573,
				"method": "rhf"
			},
			{
				"type": "unocc",
				"energy": 0.09866,
				"method": "rhf"
			}
		],
		"cosmo_sigma_profile": { 
			"-0.025": 0.0,
			"-0.024": 0.0,
			"-0.023": 0.0,
			"-0.022": 0.0,
			"-0.021": 0.0,
			"-0.02": 0.0,
			"-0.019": 0.0,
			"-0.018": 0.0,
			"-0.017": 0.2603789416,
			"-0.016": 1.36537585969,
			"-0.015": 2.11570605612,
			"-0.014": 2.23628686134,
			"-0.013": 1.8512079643,
			"-0.012": 1.24259678263,
			"-0.011": 2.14609337953,
			"-0.01": 2.49306379902,
			"-0.009": 1.90071690212,
			"-0.008": 2.43567585574,
			"-0.007": 1.89443606496,
			"-0.006": 3.44221173292,
			"-0.005": 8.88783134086,
			"-0.004": 12.9261633129,
			"-0.003": 14.013597335,
			"-0.002": 17.025207415,
			"-0.001": 17.5138744572,
			"0.0": 17.4806551518,
			"0.001": 10.0912889344,
			"0.002": 3.00625660539,
			"0.003": 3.14786899414,
			"0.004": 2.70836509003,
			"0.005": 3.02635559127,
			"0.006": 2.24646802239,
			"0.007": 2.75205686985,
			"0.008": 2.92839083275,
			"0.009": 1.87353704945,
			"0.01": 3.58915832196,
			"0.011": 4.85895103784,
			"0.012": 8.85474179307,
			"0.013": 7.66185026553,
			"0.014": 1.17106275719,
			"0.015": 0.0,
			"0.016": 0.0,
			"0.017": 0.0,
			"0.018": 0.0,
			"0.019": 0.0,
			"0.02": 0.0,
			"0.021": 0.0,
			"0.022": 0.0,
			"0.023": 0.0,
			"0.024": 0.0,
			"0.025": 0.0
		}
	}
}
