{
	 "smiles": "FC1=CC(S)=C(F)C=C1Br", 
	 "Tm": 321.15, 
	 "num_atms": 13, 
	 "gaussian": { 
		 "optdone": 1, 
		 "sigma_profile": "yes", 
		 "theory": "DFT", 
		 "functional": "B3LYP", 
		 "basiset": "6-31G**", 
		 "properties": { 
			 "R2extent": 3256.9982, 
			 "electric_dipole_moment_norm": 1.26866501095, 
			 "electric_quadrupole_moment_norm": 3.80563305115, 
			 "total_energy": -3399.6952064, 
			 "HOMO_LUMO_gap": 0.19496, 
			 "cosmo_polarized_energy": -4.67, 
			 "cosmo_cavitation_energy": 22.44, 
			 "cosmo_dispersion_energy": -17.42, 
			 "cosmo_repulsion_energy": 1.32, 
			 "cosmo_total_nonelectrostatic_energy": 6.34, 
			 "SMD_solvation_energy": 3.12 
		},
		"coords": [
			{
				"x": -0.0181484623,
				"y": 1.5041175127,
				"z": 0.1370360054,
				"element": "F" 
			},
			{
				"x": 0.1764491478,
				"y": 0.1855529467,
				"z": -0.0121211016,
				"element": "C" 
			},
			{
				"x": -0.0396525251,
				"y": -0.3836129551,
				"z": -1.2604448405,
				"element": "C" 
			},
			{
				"x": 0.1533006906,
				"y": -1.7564254868,
				"z": -1.4536897105,
				"element": "C" 
			},
			{
				"x": -0.1277544732,
				"y": -2.4678005918,
				"z": -3.0570089094,
				"element": "S" 
			},
			{
				"x": 0.5659789803,
				"y": -2.5146303522,
				"z": -0.352788809,
				"element": "C" 
			},
			{
				"x": 0.761404723,
				"y": -3.8437589397,
				"z": -0.5059915906,
				"element": "F" 
			},
			{
				"x": 0.7841283778,
				"y": -1.9544066167,
				"z": 0.8973742771,
				"element": "C" 
			},
			{
				"x": 0.5879325699,
				"y": -0.586044517,
				"z": 1.0747884861,
				"element": "C" 
			},
			{
				"x": 0.8732436877,
				"y": 0.2246733763,
				"z": 2.7644489355,
				"element": "Br" 
			},
			{
				"x": -0.3590697923,
				"y": 0.2578378098,
				"z": -2.0746913842,
				"element": "H" 
			},
			{
				"x": 0.184498754,
				"y": -3.7273591371,
				"z": -2.7024368185,
				"element": "H" 
			},
			{
				"x": 1.1032883217,
				"y": -2.5854430491,
				"z": 1.7178254601,
				"element": "H" 
			}
		],
		 "valence_orbital": [ 
			{
				"type": "occ",
				"energy": -0.34604,
				"method": "rhf"
			},
			{
				"type": "occ",
				"energy": -0.29932,
				"method": "rhf"
			},
			{
				"type": "occ",
				"energy": -0.29075,
				"method": "rhf"
			},
			{
				"type": "occ",
				"energy": -0.267,
				"method": "rhf"
			},
			{
				"type": "occ",
				"energy": -0.23209,
				"method": "rhf"
			},
			{
				"type": "unocc",
				"energy": -0.03713,
				"method": "rhf"
			},
			{
				"type": "unocc",
				"energy": -0.01488,
				"method": "rhf"
			},
			{
				"type": "unocc",
				"energy": -0.01251,
				"method": "rhf"
			},
			{
				"type": "unocc",
				"energy": 0.01154,
				"method": "rhf"
			},
			{
				"type": "unocc",
				"energy": 0.05171,
				"method": "rhf"
			}
		],
		"cosmo_sigma_profile": { 
			"-0.025": 0.0,
			"-0.024": 0.0,
			"-0.023": 0.0,
			"-0.022": 0.0,
			"-0.021": 0.0,
			"-0.02": 0.0,
			"-0.019": 0.0,
			"-0.018": 0.0,
			"-0.017": 0.0,
			"-0.016": 0.0,
			"-0.015": 0.0,
			"-0.014": 0.0,
			"-0.013": 0.0,
			"-0.012": 0.149905493354,
			"-0.011": 0.761038286631,
			"-0.01": 1.53697453113,
			"-0.009": 4.15840402991,
			"-0.008": 3.62728229191,
			"-0.007": 5.04750491292,
			"-0.006": 4.72157450523,
			"-0.005": 6.28946524137,
			"-0.004": 6.9593482721,
			"-0.003": 7.50025288169,
			"-0.002": 10.1974148343,
			"-0.001": 19.5902549101,
			"0.0": 23.9167274903,
			"0.001": 20.840814092,
			"0.002": 16.5193213333,
			"0.003": 23.7056095532,
			"0.004": 20.5029752477,
			"0.005": 5.31781794915,
			"0.006": 2.55277492661,
			"0.007": 2.4990531392,
			"0.008": 0.850246846848,
			"0.009": 0.0,
			"0.01": 0.0,
			"0.011": 0.0,
			"0.012": 0.0,
			"0.013": 0.0,
			"0.014": 0.0,
			"0.015": 0.0,
			"0.016": 0.0,
			"0.017": 0.0,
			"0.018": 0.0,
			"0.019": 0.0,
			"0.02": 0.0,
			"0.021": 0.0,
			"0.022": 0.0,
			"0.023": 0.0,
			"0.024": 0.0,
			"0.025": 0.0
		}
	}
}
