{
	 "smiles": "NNC(=O)CN1C=CC2=C1C=CC=C2", 
	 "Tm": 450.15, 
	 "num_atms": 25, 
	 "gaussian": { 
		 "optdone": 1, 
		 "sigma_profile": "yes", 
		 "theory": "DFT", 
		 "functional": "B3LYP", 
		 "basiset": "6-31G**", 
		 "properties": { 
			 "R2extent": 3390.4742, 
			 "electric_dipole_moment_norm": 4.45282548951, 
			 "electric_quadrupole_moment_norm": 9.76818928, 
			 "total_energy": -627.141556564, 
			 "HOMO_LUMO_gap": 0.19293, 
			 "cosmo_polarized_energy": -21.65, 
			 "cosmo_cavitation_energy": 29.26, 
			 "cosmo_dispersion_energy": -20.82, 
			 "cosmo_repulsion_energy": 1.65, 
			 "cosmo_total_nonelectrostatic_energy": 10.09, 
			 "SMD_solvation_energy": 6.14 
		},
		"coords": [
			{
				"x": -0.8577131395,
				"y": 2.1561232265,
				"z": -2.5771735966,
				"element": "N" 
			},
			{
				"x": 0.2434666196,
				"y": 1.2979066415,
				"z": -2.6889173078,
				"element": "N" 
			},
			{
				"x": 0.923258549,
				"y": 0.6626825423,
				"z": -1.6792354469,
				"element": "C" 
			},
			{
				"x": 1.8898540235,
				"y": -0.0435384772,
				"z": -1.9011164435,
				"element": "O" 
			},
			{
				"x": 0.3913439567,
				"y": 0.9331844604,
				"z": -0.255416934,
				"element": "C" 
			},
			{
				"x": 1.0154943619,
				"y": 0.1068361275,
				"z": 0.7404770014,
				"element": "N" 
			},
			{
				"x": 2.2257590169,
				"y": 0.3740317534,
				"z": 1.3625501014,
				"element": "C" 
			},
			{
				"x": 2.5676560993,
				"y": -0.6582155529,
				"z": 2.1914392703,
				"element": "C" 
			},
			{
				"x": 1.5326100382,
				"y": -1.6479159526,
				"z": 2.0787319269,
				"element": "C" 
			},
			{
				"x": 0.5801384968,
				"y": -1.1447133223,
				"z": 1.1485041341,
				"element": "C" 
			},
			{
				"x": -0.5653809172,
				"y": -1.8660497843,
				"z": 0.7945888169,
				"element": "C" 
			},
			{
				"x": -0.7578620929,
				"y": -3.1060248937,
				"z": 1.3948249053,
				"element": "C" 
			},
			{
				"x": 0.169024907,
				"y": -3.619442075,
				"z": 2.3240634206,
				"element": "C" 
			},
			{
				"x": 1.3083149339,
				"y": -2.9031686457,
				"z": 2.6690910316,
				"element": "C" 
			},
			{
				"x": -1.6667071233,
				"y": 1.6706387052,
				"z": -2.1993020419,
				"element": "H" 
			},
			{
				"x": -0.6417767826,
				"y": 2.9619549759,
				"z": -1.9969966173,
				"element": "H" 
			},
			{
				"x": 0.5984532851,
				"y": 1.1547965239,
				"z": -3.6255252033,
				"element": "H" 
			},
			{
				"x": -0.6927441506,
				"y": 0.7861277875,
				"z": -0.2162152694,
				"element": "H" 
			},
			{
				"x": 0.5658775905,
				"y": 1.987847223,
				"z": -0.0074680229,
				"element": "H" 
			},
			{
				"x": 2.7449869764,
				"y": 1.2987461297,
				"z": 1.1529418604,
				"element": "H" 
			},
			{
				"x": 3.4517536908,
				"y": -0.7091753161,
				"z": 2.8107482373,
				"element": "H" 
			},
			{
				"x": -1.279555886,
				"y": -1.4867980647,
				"z": 0.0693123537,
				"element": "H" 
			},
			{
				"x": -1.6360472398,
				"y": -3.6910381081,
				"z": 1.1374565185,
				"element": "H" 
			},
			{
				"x": -0.0117085235,
				"y": -4.5922345366,
				"z": 2.7720970578,
				"element": "H" 
			},
			{
				"x": 2.0205033096,
				"y": -3.3076613677,
				"z": 3.3831402472,
				"element": "H" 
			}
		],
		 "valence_orbital": [ 
			{
				"type": "occ",
				"energy": -0.27113,
				"method": "rhf"
			},
			{
				"type": "occ",
				"energy": -0.26849,
				"method": "rhf"
			},
			{
				"type": "occ",
				"energy": -0.25554,
				"method": "rhf"
			},
			{
				"type": "occ",
				"energy": -0.21296,
				"method": "rhf"
			},
			{
				"type": "occ",
				"energy": -0.19578,
				"method": "rhf"
			},
			{
				"type": "unocc",
				"energy": -0.00285,
				"method": "rhf"
			},
			{
				"type": "unocc",
				"energy": 0.01472,
				"method": "rhf"
			},
			{
				"type": "unocc",
				"energy": 0.03118,
				"method": "rhf"
			},
			{
				"type": "unocc",
				"energy": 0.0428,
				"method": "rhf"
			},
			{
				"type": "unocc",
				"energy": 0.07356,
				"method": "rhf"
			}
		],
		"cosmo_sigma_profile": { 
			"-0.025": 0.0,
			"-0.024": 0.0,
			"-0.023": 0.0,
			"-0.022": 0.0,
			"-0.021": 0.0,
			"-0.02": 0.0,
			"-0.019": 0.0,
			"-0.018": 0.0,
			"-0.017": 0.0,
			"-0.016": 0.0,
			"-0.015": 0.0,
			"-0.014": 0.462796404306,
			"-0.013": 0.975760545555,
			"-0.012": 5.23036929357,
			"-0.011": 6.12888247584,
			"-0.01": 5.89454771839,
			"-0.009": 7.27935955958,
			"-0.008": 8.57281806017,
			"-0.007": 6.85554618047,
			"-0.006": 8.80600344093,
			"-0.005": 12.5432057405,
			"-0.004": 13.1804783328,
			"-0.003": 14.0859264253,
			"-0.002": 14.3315224367,
			"-0.001": 10.4614341759,
			"0.0": 9.7058638094,
			"0.001": 11.2245938651,
			"0.002": 10.6029607744,
			"0.003": 8.9190992066,
			"0.004": 11.0994315033,
			"0.005": 12.4021138185,
			"0.006": 15.0126109973,
			"0.007": 12.7947980495,
			"0.008": 3.89165303929,
			"0.009": 3.06230031644,
			"0.01": 2.24542021367,
			"0.011": 3.09957879632,
			"0.012": 3.45633805894,
			"0.013": 6.06411355128,
			"0.014": 2.99212165557,
			"0.015": 0.967228973921,
			"0.016": 0.0538775674622,
			"0.017": 0.0,
			"0.018": 0.0,
			"0.019": 0.0,
			"0.02": 0.0,
			"0.021": 0.0,
			"0.022": 0.0,
			"0.023": 0.0,
			"0.024": 0.0,
			"0.025": 0.0
		}
	}
}
