{
	 "smiles": "COC1=CC2=C(C=C1)C=C(C=C2)C(N)=S", 
	 "Tm": 462.15, 
	 "num_atms": 26, 
	 "gaussian": { 
		 "optdone": 1, 
		 "sigma_profile": "yes", 
		 "theory": "DFT", 
		 "functional": "B3LYP", 
		 "basiset": "6-31G**", 
		 "properties": { 
			 "R2extent": 5695.259, 
			 "electric_dipole_moment_norm": 4.9769684136, 
			 "electric_quadrupole_moment_norm": 31.346068977, 
			 "total_energy": -992.081159711, 
			 "HOMO_LUMO_gap": 0.14112, 
			 "cosmo_polarized_energy": -17.72, 
			 "cosmo_cavitation_energy": 31.57, 
			 "cosmo_dispersion_energy": -23.75, 
			 "cosmo_repulsion_energy": 1.79, 
			 "cosmo_total_nonelectrostatic_energy": 9.61, 
			 "SMD_solvation_energy": 4.96 
		},
		"coords": [
			{
				"x": -2.8173630409,
				"y": -2.6095645999,
				"z": -2.1631274015,
				"element": "C" 
			},
			{
				"x": -3.3615428704,
				"y": -2.100906159,
				"z": -0.9539410734,
				"element": "O" 
			},
			{
				"x": -2.5709288505,
				"y": -1.3140139101,
				"z": -0.1746337394,
				"element": "C" 
			},
			{
				"x": -1.2644073026,
				"y": -0.9639756793,
				"z": -0.4608663333,
				"element": "C" 
			},
			{
				"x": -0.5360769212,
				"y": -0.1336735798,
				"z": 0.4316555788,
				"element": "C" 
			},
			{
				"x": -1.1598490693,
				"y": 0.3358102313,
				"z": 1.6311300394,
				"element": "C" 
			},
			{
				"x": -2.5091596329,
				"y": -0.0416475499,
				"z": 1.8870457536,
				"element": "C" 
			},
			{
				"x": -3.1968073529,
				"y": -0.8438598207,
				"z": 1.014648347,
				"element": "C" 
			},
			{
				"x": -0.4239384886,
				"y": 1.1553348871,
				"z": 2.5193141118,
				"element": "C" 
			},
			{
				"x": 0.8869799821,
				"y": 1.5261881461,
				"z": 2.2495702253,
				"element": "C" 
			},
			{
				"x": 1.4914086666,
				"y": 1.072926264,
				"z": 1.0434049488,
				"element": "C" 
			},
			{
				"x": 0.8051530824,
				"y": 0.2630828646,
				"z": 0.1724660906,
				"element": "C" 
			},
			{
				"x": 1.6493442126,
				"y": 2.3969556736,
				"z": 3.182144712,
				"element": "C" 
			},
			{
				"x": 1.289824734,
				"y": 2.303978424,
				"z": 4.4848600567,
				"element": "N" 
			},
			{
				"x": 2.8448887532,
				"y": 3.454194684,
				"z": 2.6881986572,
				"element": "S" 
			},
			{
				"x": -2.5274386056,
				"y": -1.8001081251,
				"z": -2.8448819008,
				"element": "H" 
			},
			{
				"x": -1.9459012815,
				"y": -3.2490054226,
				"z": -1.9737772627,
				"element": "H" 
			},
			{
				"x": -3.6079971525,
				"y": -3.2036079059,
				"z": -2.6233554251,
				"element": "H" 
			},
			{
				"x": -0.7730958772,
				"y": -1.3081527686,
				"z": -1.3635862392,
				"element": "H" 
			},
			{
				"x": -2.9928400618,
				"y": 0.3155722932,
				"z": 2.7925088692,
				"element": "H" 
			},
			{
				"x": -4.2240366908,
				"y": -1.1398362692,
				"z": 1.1998629231,
				"element": "H" 
			},
			{
				"x": -0.9303008585,
				"y": 1.5316478585,
				"z": 3.4045796833,
				"element": "H" 
			},
			{
				"x": 2.5090170059,
				"y": 1.3824541011,
				"z": 0.8333807361,
				"element": "H" 
			},
			{
				"x": 1.2869672971,
				"y": -0.0842040139,
				"z": -0.7377618992,
				"element": "H" 
			},
			{
				"x": 1.7976931944,
				"y": 2.8614190116,
				"z": 5.155919553,
				"element": "H" 
			},
			{
				"x": 0.7478071288,
				"y": 1.5214913649,
				"z": 4.8200409888,
				"element": "H" 
			}
		],
		 "valence_orbital": [ 
			{
				"type": "occ",
				"energy": -0.28857,
				"method": "rhf"
			},
			{
				"type": "occ",
				"energy": -0.24088,
				"method": "rhf"
			},
			{
				"type": "occ",
				"energy": -0.22891,
				"method": "rhf"
			},
			{
				"type": "occ",
				"energy": -0.21497,
				"method": "rhf"
			},
			{
				"type": "occ",
				"energy": -0.20236,
				"method": "rhf"
			},
			{
				"type": "unocc",
				"energy": -0.06124,
				"method": "rhf"
			},
			{
				"type": "unocc",
				"energy": -0.03386,
				"method": "rhf"
			},
			{
				"type": "unocc",
				"energy": 0.01206,
				"method": "rhf"
			},
			{
				"type": "unocc",
				"energy": 0.02791,
				"method": "rhf"
			},
			{
				"type": "unocc",
				"energy": 0.07492,
				"method": "rhf"
			}
		],
		"cosmo_sigma_profile": { 
			"-0.025": 0.0,
			"-0.024": 0.0,
			"-0.023": 0.0,
			"-0.022": 0.0,
			"-0.021": 0.0,
			"-0.02": 0.0,
			"-0.019": 0.0,
			"-0.018": 0.0,
			"-0.017": 0.0,
			"-0.016": 0.0660051434111,
			"-0.015": 1.33036144403,
			"-0.014": 2.53954909405,
			"-0.013": 2.59373935939,
			"-0.012": 2.42434862049,
			"-0.011": 2.5475285158,
			"-0.01": 1.90983503674,
			"-0.009": 2.2464248987,
			"-0.008": 2.15786358772,
			"-0.007": 7.38579243826,
			"-0.006": 15.789677377,
			"-0.005": 17.5904238393,
			"-0.004": 18.3215625848,
			"-0.003": 16.6534445218,
			"-0.002": 11.770671226,
			"-0.001": 10.8720094732,
			"0.0": 11.8147846272,
			"0.001": 13.0123300966,
			"0.002": 15.5104854631,
			"0.003": 31.2036136033,
			"0.004": 20.2326947708,
			"0.005": 7.79574400023,
			"0.006": 6.34144264722,
			"0.007": 5.61620092497,
			"0.008": 6.50093288884,
			"0.009": 9.21445263138,
			"0.01": 5.53403396882,
			"0.011": 3.59112593557,
			"0.012": 2.26500962605,
			"0.013": 0.0361181381634,
			"0.014": 0.0,
			"0.015": 0.0,
			"0.016": 0.0,
			"0.017": 0.0,
			"0.018": 0.0,
			"0.019": 0.0,
			"0.02": 0.0,
			"0.021": 0.0,
			"0.022": 0.0,
			"0.023": 0.0,
			"0.024": 0.0,
			"0.025": 0.0
		}
	}
}
