{
	 "smiles": "CCC1=CC=C(C=C1)C(=O)NN", 
	 "Tm": 358.65, 
	 "num_atms": 24, 
	 "gaussian": { 
		 "optdone": 1, 
		 "sigma_profile": "yes", 
		 "theory": "DFT", 
		 "functional": "B3LYP", 
		 "basiset": "6-31G**", 
		 "properties": { 
			 "R2extent": 2919.2492, 
			 "electric_dipole_moment_norm": 4.05735215134, 
			 "electric_quadrupole_moment_norm": 13.2691721038, 
			 "total_energy": -534.903066464, 
			 "HOMO_LUMO_gap": 0.20278, 
			 "cosmo_polarized_energy": -13.59, 
			 "cosmo_cavitation_energy": 27.66, 
			 "cosmo_dispersion_energy": -19.81, 
			 "cosmo_repulsion_energy": 1.61, 
			 "cosmo_total_nonelectrostatic_energy": 9.47, 
			 "SMD_solvation_energy": 5.77 
		},
		"coords": [
			{
				"x": 1.7350684415,
				"y": -0.0301963822,
				"z": -2.8176553044,
				"element": "C" 
			},
			{
				"x": 1.2467410856,
				"y": 1.238434162,
				"z": -2.0943852915,
				"element": "C" 
			},
			{
				"x": 0.4455762513,
				"y": 0.9301015163,
				"z": -0.8481463779,
				"element": "C" 
			},
			{
				"x": 1.0757014347,
				"y": 0.7798890066,
				"z": 0.3959661334,
				"element": "C" 
			},
			{
				"x": 0.3449433947,
				"y": 0.4675758255,
				"z": 1.5383849818,
				"element": "C" 
			},
			{
				"x": -1.0403860503,
				"y": 0.2673441788,
				"z": 1.4652644006,
				"element": "C" 
			},
			{
				"x": -1.6799046212,
				"y": 0.4293046619,
				"z": 0.228008215,
				"element": "C" 
			},
			{
				"x": -0.9448214378,
				"y": 0.762059223,
				"z": -0.9082964075,
				"element": "C" 
			},
			{
				"x": -1.7683256461,
				"y": -0.0067066255,
				"z": 2.7487335881,
				"element": "C" 
			},
			{
				"x": -1.4146036059,
				"y": 0.4991405086,
				"z": 3.8079355875,
				"element": "O" 
			},
			{
				"x": -2.8734110215,
				"y": -0.8397403328,
				"z": 2.7147008984,
				"element": "N" 
			},
			{
				"x": -3.0884902958,
				"y": -1.8937910181,
				"z": 1.7973348122,
				"element": "N" 
			},
			{
				"x": 2.3111685055,
				"y": 0.2277362387,
				"z": -3.7122384207,
				"element": "H" 
			},
			{
				"x": 0.8911715244,
				"y": -0.6559370367,
				"z": -3.1259275139,
				"element": "H" 
			},
			{
				"x": 2.3739899761,
				"y": -0.6331467854,
				"z": -2.1643611349,
				"element": "H" 
			},
			{
				"x": 0.636384817,
				"y": 1.834400598,
				"z": -2.7831501592,
				"element": "H" 
			},
			{
				"x": 2.1116869696,
				"y": 1.8571501266,
				"z": -1.8278861596,
				"element": "H" 
			},
			{
				"x": 2.1508881461,
				"y": 0.9243161656,
				"z": 0.4701966508,
				"element": "H" 
			},
			{
				"x": 0.8304347882,
				"y": 0.3854363189,
				"z": 2.5053401506,
				"element": "H" 
			},
			{
				"x": -2.7595698624,
				"y": 0.3407781274,
				"z": 0.1560998375,
				"element": "H" 
			},
			{
				"x": -1.4593263798,
				"y": 0.9041347621,
				"z": -1.8556875857,
				"element": "H" 
			},
			{
				"x": -3.2229971195,
				"y": -1.0441950925,
				"z": 3.6438551298,
				"element": "H" 
			},
			{
				"x": -2.1984564861,
				"y": -2.2778501756,
				"z": 1.4883291707,
				"element": "H" 
			},
			{
				"x": -3.5742628084,
				"y": -1.5397379711,
				"z": 0.9787847988,
				"element": "H" 
			}
		],
		 "valence_orbital": [ 
			{
				"type": "occ",
				"energy": -0.29493,
				"method": "rhf"
			},
			{
				"type": "occ",
				"energy": -0.26034,
				"method": "rhf"
			},
			{
				"type": "occ",
				"energy": -0.25851,
				"method": "rhf"
			},
			{
				"type": "occ",
				"energy": -0.24988,
				"method": "rhf"
			},
			{
				"type": "occ",
				"energy": -0.23857,
				"method": "rhf"
			},
			{
				"type": "unocc",
				"energy": -0.03579,
				"method": "rhf"
			},
			{
				"type": "unocc",
				"energy": -0.01028,
				"method": "rhf"
			},
			{
				"type": "unocc",
				"energy": 0.04619,
				"method": "rhf"
			},
			{
				"type": "unocc",
				"energy": 0.06829,
				"method": "rhf"
			},
			{
				"type": "unocc",
				"energy": 0.0939,
				"method": "rhf"
			}
		],
		"cosmo_sigma_profile": { 
			"-0.025": 0.0,
			"-0.024": 0.0,
			"-0.023": 0.0,
			"-0.022": 0.0,
			"-0.021": 0.0,
			"-0.02": 0.0,
			"-0.019": 0.0,
			"-0.018": 0.0,
			"-0.017": 0.0,
			"-0.016": 0.0,
			"-0.015": 0.0,
			"-0.014": 0.0,
			"-0.013": 0.418011575413,
			"-0.012": 2.34943821277,
			"-0.011": 3.28662531287,
			"-0.01": 3.75674091645,
			"-0.009": 4.18865009069,
			"-0.008": 4.218117332,
			"-0.007": 2.92877811272,
			"-0.006": 6.28867475861,
			"-0.005": 10.2608462337,
			"-0.004": 15.9044096613,
			"-0.003": 17.647247109,
			"-0.002": 19.1434365096,
			"-0.001": 21.6725521433,
			"0.0": 18.7516563416,
			"0.001": 17.3880798269,
			"0.002": 10.9404784711,
			"0.003": 9.46990524592,
			"0.004": 13.0822237882,
			"0.005": 8.7085060322,
			"0.006": 2.24822284918,
			"0.007": 2.45773418486,
			"0.008": 2.07733811024,
			"0.009": 2.75087067849,
			"0.01": 1.94629079636,
			"0.011": 2.50553714159,
			"0.012": 2.32017276749,
			"0.013": 5.20870122576,
			"0.014": 4.57187566933,
			"0.015": 0.824249947357,
			"0.016": 0.426938167135,
			"0.017": 0.0296521508653,
			"0.018": 0.0,
			"0.019": 0.0,
			"0.02": 0.0,
			"0.021": 0.0,
			"0.022": 0.0,
			"0.023": 0.0,
			"0.024": 0.0,
			"0.025": 0.0
		}
	}
}
