{
	 "smiles": "NC1=CC=C(C=C1)S(=O)(=O)N1CCCCC1", 
	 "Tm": 443.15, 
	 "num_atms": 32, 
	 "gaussian": { 
		 "optdone": 1, 
		 "sigma_profile": "yes", 
		 "theory": "DFT", 
		 "functional": "B3LYP", 
		 "basiset": "6-31G**", 
		 "properties": { 
			 "R2extent": 4191.9719, 
			 "electric_dipole_moment_norm": 7.60133201551, 
			 "electric_quadrupole_moment_norm": 18.2576857909, 
			 "total_energy": -1086.89522737, 
			 "HOMO_LUMO_gap": 0.19792, 
			 "cosmo_polarized_energy": -19.02, 
			 "cosmo_cavitation_energy": 33.94, 
			 "cosmo_dispersion_energy": -24.79, 
			 "cosmo_repulsion_energy": 1.89, 
			 "cosmo_total_nonelectrostatic_energy": 11.04, 
			 "SMD_solvation_energy": 3.43 
		},
		"coords": [
			{
				"x": 3.5454063239,
				"y": -2.4949536491,
				"z": 1.9070884638,
				"element": "N" 
			},
			{
				"x": 2.2653604408,
				"y": -2.0349935137,
				"z": 1.6445483981,
				"element": "C" 
			},
			{
				"x": 1.5579250256,
				"y": -1.2899211668,
				"z": 2.6088941729,
				"element": "C" 
			},
			{
				"x": 0.2552162052,
				"y": -0.8728468336,
				"z": 2.3661543894,
				"element": "C" 
			},
			{
				"x": -0.3657037735,
				"y": -1.186538364,
				"z": 1.1525439457,
				"element": "C" 
			},
			{
				"x": 0.3176767576,
				"y": -1.9398587958,
				"z": 0.1921849828,
				"element": "C" 
			},
			{
				"x": 1.6204318625,
				"y": -2.3573744961,
				"z": 0.4338752348,
				"element": "C" 
			},
			{
				"x": -2.0287396624,
				"y": -0.6093806383,
				"z": 0.8214005449,
				"element": "S" 
			},
			{
				"x": -2.5977071481,
				"y": -1.5166914007,
				"z": -0.1806303781,
				"element": "O" 
			},
			{
				"x": -2.6631545237,
				"y": -0.3827422191,
				"z": 2.1241472966,
				"element": "O" 
			},
			{
				"x": -1.9565900892,
				"y": 0.8956527041,
				"z": 0.0829510616,
				"element": "N" 
			},
			{
				"x": -1.6218670579,
				"y": 1.0038872344,
				"z": -1.3443247209,
				"element": "C" 
			},
			{
				"x": -0.1860056617,
				"y": 1.4983820994,
				"z": -1.5754835131,
				"element": "C" 
			},
			{
				"x": 0.0800235361,
				"y": 2.7952199528,
				"z": -0.7945482572,
				"element": "C" 
			},
			{
				"x": -0.2493366913,
				"y": 2.6153856326,
				"z": 0.6959493666,
				"element": "C" 
			},
			{
				"x": -1.6841253444,
				"y": 2.0991450444,
				"z": 0.8818356045,
				"element": "C" 
			},
			{
				"x": 4.1077982994,
				"y": -2.7552382065,
				"z": 1.11054022,
				"element": "H" 
			},
			{
				"x": 4.0641713551,
				"y": -2.0119074717,
				"z": 2.6254730226,
				"element": "H" 
			},
			{
				"x": 2.0326110869,
				"y": -1.0560759062,
				"z": 3.5583435054,
				"element": "H" 
			},
			{
				"x": -0.2944983688,
				"y": -0.3238987547,
				"z": 3.1230762348,
				"element": "H" 
			},
			{
				"x": -0.1838456894,
				"y": -2.2147613796,
				"z": -0.729424316,
				"element": "H" 
			},
			{
				"x": 2.1437507046,
				"y": -2.9539843664,
				"z": -0.3088599704,
				"element": "H" 
			},
			{
				"x": -1.8088678858,
				"y": 0.0381263266,
				"z": -1.8157640874,
				"element": "H" 
			},
			{
				"x": -2.3320879056,
				"y": 1.7180457692,
				"z": -1.7859707603,
				"element": "H" 
			},
			{
				"x": 0.5212854717,
				"y": 0.7229478488,
				"z": -1.256134115,
				"element": "H" 
			},
			{
				"x": -0.0280083524,
				"y": 1.6558653786,
				"z": -2.6494107009,
				"element": "H" 
			},
			{
				"x": 1.1215327441,
				"y": 3.1118495696,
				"z": -0.9212331464,
				"element": "H" 
			},
			{
				"x": -0.5446154727,
				"y": 3.600476859,
				"z": -1.2079064783,
				"element": "H" 
			},
			{
				"x": -0.1358335588,
				"y": 3.5649243894,
				"z": 1.2331360452,
				"element": "H" 
			},
			{
				"x": 0.4537707331,
				"y": 1.9040652988,
				"z": 1.1467190756,
				"element": "H" 
			},
			{
				"x": -2.3973200469,
				"y": 2.8691581068,
				"z": 0.5533308601,
				"element": "H" 
			},
			{
				"x": -1.9137533139,
				"y": 1.878734948,
				"z": 1.9251980183,
				"element": "H" 
			}
		],
		 "valence_orbital": [ 
			{
				"type": "occ",
				"energy": -0.28685,
				"method": "rhf"
			},
			{
				"type": "occ",
				"energy": -0.28645,
				"method": "rhf"
			},
			{
				"type": "occ",
				"energy": -0.26472,
				"method": "rhf"
			},
			{
				"type": "occ",
				"energy": -0.24513,
				"method": "rhf"
			},
			{
				"type": "occ",
				"energy": -0.21434,
				"method": "rhf"
			},
			{
				"type": "unocc",
				"energy": -0.01642,
				"method": "rhf"
			},
			{
				"type": "unocc",
				"energy": -0.01538,
				"method": "rhf"
			},
			{
				"type": "unocc",
				"energy": 0.05957,
				"method": "rhf"
			},
			{
				"type": "unocc",
				"energy": 0.07232,
				"method": "rhf"
			},
			{
				"type": "unocc",
				"energy": 0.08449,
				"method": "rhf"
			}
		],
		"cosmo_sigma_profile": { 
			"-0.025": 0.0,
			"-0.024": 0.0,
			"-0.023": 0.0,
			"-0.022": 0.0,
			"-0.021": 0.0,
			"-0.02": 0.0,
			"-0.019": 0.0,
			"-0.018": 0.0,
			"-0.017": 0.0,
			"-0.016": 0.0,
			"-0.015": 0.0,
			"-0.014": 0.10498788512,
			"-0.013": 2.34956592226,
			"-0.012": 3.49711984845,
			"-0.011": 2.83759180937,
			"-0.01": 3.06515190091,
			"-0.009": 3.4613009907,
			"-0.008": 2.45207327948,
			"-0.007": 4.6438654921,
			"-0.006": 7.08152562061,
			"-0.005": 10.7246071164,
			"-0.004": 21.1791402696,
			"-0.003": 26.3337352509,
			"-0.002": 28.3878966216,
			"-0.001": 28.4539968146,
			"0.0": 22.8841188478,
			"0.001": 12.9335311938,
			"0.002": 10.6554697159,
			"0.003": 10.9025662114,
			"0.004": 14.8670555909,
			"0.005": 6.66568404567,
			"0.006": 5.53879402203,
			"0.007": 5.6567578344,
			"0.008": 4.21432541674,
			"0.009": 4.46632583478,
			"0.01": 6.05511962918,
			"0.011": 7.28684603566,
			"0.012": 8.43502968334,
			"0.013": 1.3276985093,
			"0.014": 0.0,
			"0.015": 0.0,
			"0.016": 0.0,
			"0.017": 0.0,
			"0.018": 0.0,
			"0.019": 0.0,
			"0.02": 0.0,
			"0.021": 0.0,
			"0.022": 0.0,
			"0.023": 0.0,
			"0.024": 0.0,
			"0.025": 0.0
		}
	}
}
