{
	 "smiles": "OC1=CC(=CC=C1)C1NC(=O)NC1=O", 
	 "Tm": 487.15, 
	 "num_atms": 22, 
	 "gaussian": { 
		 "optdone": 1, 
		 "sigma_profile": "yes", 
		 "theory": "DFT", 
		 "functional": "B3LYP", 
		 "basiset": "6-31G**", 
		 "properties": { 
			 "R2extent": 3197.5104, 
			 "electric_dipole_moment_norm": 2.16038907144, 
			 "electric_quadrupole_moment_norm": 12.7175738516, 
			 "total_energy": -682.987073691, 
			 "HOMO_LUMO_gap": 0.20469, 
			 "cosmo_polarized_energy": -20.82, 
			 "cosmo_cavitation_energy": 27.08, 
			 "cosmo_dispersion_energy": -19.78, 
			 "cosmo_repulsion_energy": 1.57, 
			 "cosmo_total_nonelectrostatic_energy": 8.87, 
			 "SMD_solvation_energy": 6.37 
		},
		"coords": [
			{
				"x": 3.823759966,
				"y": 0.9000543935,
				"z": -0.9308460487,
				"element": "O" 
			},
			{
				"x": 2.8021217295,
				"y": -0.0041654835,
				"z": -0.957146914,
				"element": "C" 
			},
			{
				"x": 1.4598568702,
				"y": 0.3772748223,
				"z": -0.9000643982,
				"element": "C" 
			},
			{
				"x": 0.4520121021,
				"y": -0.5939499536,
				"z": -0.9223098634,
				"element": "C" 
			},
			{
				"x": 0.7893543948,
				"y": -1.9460874324,
				"z": -1.0054932828,
				"element": "C" 
			},
			{
				"x": 2.136194156,
				"y": -2.3164837954,
				"z": -1.0762230181,
				"element": "C" 
			},
			{
				"x": 3.1444600768,
				"y": -1.3591653397,
				"z": -1.0538241231,
				"element": "C" 
			},
			{
				"x": -0.9943836746,
				"y": -0.1320217346,
				"z": -0.8303481805,
				"element": "C" 
			},
			{
				"x": -1.9979167954,
				"y": -1.1491218475,
				"z": -1.0816439554,
				"element": "N" 
			},
			{
				"x": -2.909106649,
				"y": -1.2952903791,
				"z": -0.0645840648,
				"element": "C" 
			},
			{
				"x": -3.8810195751,
				"y": -2.0179188296,
				"z": -0.0175026083,
				"element": "O" 
			},
			{
				"x": -2.4805316632,
				"y": -0.4094831649,
				"z": 0.9484095816,
				"element": "N" 
			},
			{
				"x": -1.3736954029,
				"y": 0.3326162668,
				"z": 0.6007697912,
				"element": "C" 
			},
			{
				"x": -0.8151199026,
				"y": 1.1815939733,
				"z": 1.2593289128,
				"element": "O" 
			},
			{
				"x": 3.4603009161,
				"y": 1.7880799823,
				"z": -0.8179944515,
				"element": "H" 
			},
			{
				"x": 1.1956199369,
				"y": 1.4286539343,
				"z": -0.8128406442,
				"element": "H" 
			},
			{
				"x": 0.0107600482,
				"y": -2.7007168894,
				"z": -1.0117362489,
				"element": "H" 
			},
			{
				"x": 2.4001367952,
				"y": -3.3677661731,
				"z": -1.1461700322,
				"element": "H" 
			},
			{
				"x": 4.1926407192,
				"y": -1.6335962621,
				"z": -1.1061740278,
				"element": "H" 
			},
			{
				"x": -1.1351354815,
				"y": 0.7387615935,
				"z": -1.4872612008,
				"element": "H" 
			},
			{
				"x": -2.1603854589,
				"y": -1.5864815927,
				"z": -1.9748074999,
				"element": "H" 
			},
			{
				"x": -2.9620231079,
				"y": -0.3320860885,
				"z": 1.8327622767,
				"element": "H" 
			}
		],
		 "valence_orbital": [ 
			{
				"type": "occ",
				"energy": -0.29418,
				"method": "rhf"
			},
			{
				"type": "occ",
				"energy": -0.27693,
				"method": "rhf"
			},
			{
				"type": "occ",
				"energy": -0.26992,
				"method": "rhf"
			},
			{
				"type": "occ",
				"energy": -0.25437,
				"method": "rhf"
			},
			{
				"type": "occ",
				"energy": -0.22861,
				"method": "rhf"
			},
			{
				"type": "unocc",
				"energy": -0.02392,
				"method": "rhf"
			},
			{
				"type": "unocc",
				"energy": -0.00417,
				"method": "rhf"
			},
			{
				"type": "unocc",
				"energy": 0.0048,
				"method": "rhf"
			},
			{
				"type": "unocc",
				"energy": 0.05757,
				"method": "rhf"
			},
			{
				"type": "unocc",
				"energy": 0.06757,
				"method": "rhf"
			}
		],
		"cosmo_sigma_profile": { 
			"-0.025": 0.0,
			"-0.024": 0.0,
			"-0.023": 0.0,
			"-0.022": 0.0,
			"-0.021": 0.0,
			"-0.02": 0.0,
			"-0.019": 0.0,
			"-0.018": 0.588142551391,
			"-0.017": 1.56860995135,
			"-0.016": 2.56555126091,
			"-0.015": 3.98418126942,
			"-0.014": 3.27015623254,
			"-0.013": 1.93570420455,
			"-0.012": 2.17749895641,
			"-0.011": 3.2713475748,
			"-0.01": 3.32087280929,
			"-0.009": 2.97554836268,
			"-0.008": 6.58627134373,
			"-0.007": 6.69181944656,
			"-0.006": 8.52693718778,
			"-0.005": 12.0488830936,
			"-0.004": 10.8632045447,
			"-0.003": 12.2146245365,
			"-0.002": 12.3555779603,
			"-0.001": 11.8503978103,
			"0.0": 7.29878206354,
			"0.001": 7.73811272883,
			"0.002": 8.903127852,
			"0.003": 10.620213739,
			"0.004": 12.6508770523,
			"0.005": 12.807553542,
			"0.006": 5.82719847194,
			"0.007": 3.98899806731,
			"0.008": 5.55203351264,
			"0.009": 4.52055992641,
			"0.01": 4.95916770583,
			"0.011": 8.67395043235,
			"0.012": 9.51432391128,
			"0.013": 5.48045974733,
			"0.014": 0.393254742563,
			"0.015": 0.0,
			"0.016": 0.0,
			"0.017": 0.0,
			"0.018": 0.0,
			"0.019": 0.0,
			"0.02": 0.0,
			"0.021": 0.0,
			"0.022": 0.0,
			"0.023": 0.0,
			"0.024": 0.0,
			"0.025": 0.0
		}
	}
}
