{
	 "smiles": "NC1=C(F)C=CC(=C1)N1C(=O)CCC1=O", 
	 "Tm": 489.15, 
	 "num_atms": 24, 
	 "gaussian": { 
		 "optdone": 1, 
		 "sigma_profile": "yes", 
		 "theory": "DFT", 
		 "functional": "B3LYP", 
		 "basiset": "6-31G**", 
		 "properties": { 
			 "R2extent": 3685.7123, 
			 "electric_dipole_moment_norm": 2.48166866443, 
			 "electric_quadrupole_moment_norm": 18.5025485445, 
			 "total_energy": -746.305702981, 
			 "HOMO_LUMO_gap": 0.18511, 
			 "cosmo_polarized_energy": -16.12, 
			 "cosmo_cavitation_energy": 28.65, 
			 "cosmo_dispersion_energy": -21.02, 
			 "cosmo_repulsion_energy": 1.63, 
			 "cosmo_total_nonelectrostatic_energy": 9.26, 
			 "SMD_solvation_energy": 6.47 
		},
		"coords": [
			{
				"x": 2.4056388545,
				"y": -0.1666464888,
				"z": 3.5381642239,
				"element": "N" 
			},
			{
				"x": 1.9331168023,
				"y": 0.2739972569,
				"z": 2.3057560373,
				"element": "C" 
			},
			{
				"x": 2.7174168241,
				"y": 1.1311465264,
				"z": 1.520234432,
				"element": "C" 
			},
			{
				"x": 3.9568227596,
				"y": 1.4396114694,
				"z": 1.9848007474,
				"element": "F" 
			},
			{
				"x": 2.2835096068,
				"y": 1.6426247799,
				"z": 0.3114537083,
				"element": "C" 
			},
			{
				"x": 1.0179361538,
				"y": 1.3003518029,
				"z": -0.1675018029,
				"element": "C" 
			},
			{
				"x": 0.214389297,
				"y": 0.4498939448,
				"z": 0.5976114019,
				"element": "C" 
			},
			{
				"x": 0.6597151169,
				"y": -0.0533118792,
				"z": 1.8240221805,
				"element": "C" 
			},
			{
				"x": -1.0880607653,
				"y": 0.083696589,
				"z": 0.1243133966,
				"element": "N" 
			},
			{
				"x": -1.9813100001,
				"y": 0.9904772499,
				"z": -0.4826568298,
				"element": "C" 
			},
			{
				"x": -1.7621979675,
				"y": 2.1641742878,
				"z": -0.6821485128,
				"element": "O" 
			},
			{
				"x": -3.2557789824,
				"y": 0.2341180053,
				"z": -0.83919477,
				"element": "C" 
			},
			{
				"x": -3.0058080074,
				"y": -1.2139773292,
				"z": -0.4098073028,
				"element": "C" 
			},
			{
				"x": -1.6147975739,
				"y": -1.2194829376,
				"z": 0.2131792982,
				"element": "C" 
			},
			{
				"x": -1.051729658,
				"y": -2.1731321282,
				"z": 0.704645083,
				"element": "O" 
			},
			{
				"x": 3.4087504258,
				"y": -0.1021274228,
				"z": 3.6420226654,
				"element": "H" 
			},
			{
				"x": 2.0357088637,
				"y": -1.0543858165,
				"z": 3.8475301649,
				"element": "H" 
			},
			{
				"x": 2.9399698833,
				"y": 2.2985839734,
				"z": -0.2497416603,
				"element": "H" 
			},
			{
				"x": 0.6597412483,
				"y": 1.700960507,
				"z": -1.1056203592,
				"element": "H" 
			},
			{
				"x": 0.0284210119,
				"y": -0.7192072801,
				"z": 2.398963748,
				"element": "H" 
			},
			{
				"x": -4.0930316633,
				"y": 0.7066631903,
				"z": -0.3174336117,
				"element": "H" 
			},
			{
				"x": -3.4418136171,
				"y": 0.3510056589,
				"z": -1.9104434837,
				"element": "H" 
			},
			{
				"x": -3.0124341364,
				"y": -1.9242634229,
				"z": -1.2417296939,
				"element": "H" 
			},
			{
				"x": -3.7203744766,
				"y": -1.5846705364,
				"z": 0.3303809399,
				"element": "H" 
			}
		],
		 "valence_orbital": [ 
			{
				"type": "occ",
				"energy": -0.29229,
				"method": "rhf"
			},
			{
				"type": "occ",
				"energy": -0.2854,
				"method": "rhf"
			},
			{
				"type": "occ",
				"energy": -0.2611,
				"method": "rhf"
			},
			{
				"type": "occ",
				"energy": -0.23988,
				"method": "rhf"
			},
			{
				"type": "occ",
				"energy": -0.20708,
				"method": "rhf"
			},
			{
				"type": "unocc",
				"energy": -0.02197,
				"method": "rhf"
			},
			{
				"type": "unocc",
				"energy": -0.01341,
				"method": "rhf"
			},
			{
				"type": "unocc",
				"energy": 0.00444,
				"method": "rhf"
			},
			{
				"type": "unocc",
				"energy": 0.03877,
				"method": "rhf"
			},
			{
				"type": "unocc",
				"energy": 0.08027,
				"method": "rhf"
			}
		],
		"cosmo_sigma_profile": { 
			"-0.025": 0.0,
			"-0.024": 0.0,
			"-0.023": 0.0,
			"-0.022": 0.0,
			"-0.021": 0.0,
			"-0.02": 0.0,
			"-0.019": 0.0,
			"-0.018": 0.0,
			"-0.017": 0.0,
			"-0.016": 0.0,
			"-0.015": 0.0,
			"-0.014": 0.00517267810092,
			"-0.013": 1.20527292362,
			"-0.012": 2.12233886603,
			"-0.011": 2.17756495258,
			"-0.01": 2.96388609632,
			"-0.009": 2.32168759884,
			"-0.008": 4.71699501405,
			"-0.007": 18.3872468738,
			"-0.006": 18.4847226033,
			"-0.005": 15.1086258521,
			"-0.004": 14.5241342031,
			"-0.003": 13.2504614022,
			"-0.002": 10.7182566083,
			"-0.001": 7.60585845788,
			"0.0": 8.22248948769,
			"0.001": 11.9082564985,
			"0.002": 13.3867439525,
			"0.003": 13.8490644997,
			"0.004": 17.9162857693,
			"0.005": 8.59112243636,
			"0.006": 4.57570548406,
			"0.007": 4.23800485508,
			"0.008": 4.13995982174,
			"0.009": 4.34033908405,
			"0.01": 5.00030047563,
			"0.011": 8.71856577433,
			"0.012": 7.69946453489,
			"0.013": 2.12495691785,
			"0.014": 0.251166064053,
			"0.015": 0.0,
			"0.016": 0.0,
			"0.017": 0.0,
			"0.018": 0.0,
			"0.019": 0.0,
			"0.02": 0.0,
			"0.021": 0.0,
			"0.022": 0.0,
			"0.023": 0.0,
			"0.024": 0.0,
			"0.025": 0.0
		}
	}
}
