{
	 "smiles": "CC(C)CC(=O)CC(C)C", 
	 "Tm": 231.35, 
	 "num_atms": 28, 
	 "gaussian": { 
		 "optdone": 1, 
		 "sigma_profile": "yes", 
		 "theory": "DFT", 
		 "functional": "B3LYP", 
		 "basiset": "6-31G**", 
		 "properties": { 
			 "R2extent": 2147.7113, 
			 "electric_dipole_moment_norm": 2.48058981696, 
			 "electric_quadrupole_moment_norm": 5.55077941104, 
			 "total_energy": -429.050252987, 
			 "HOMO_LUMO_gap": 0.21413, 
			 "cosmo_polarized_energy": -6.3, 
			 "cosmo_cavitation_energy": 28.56, 
			 "cosmo_dispersion_energy": -19.73, 
			 "cosmo_repulsion_energy": 1.61, 
			 "cosmo_total_nonelectrostatic_energy": 10.44, 
			 "SMD_solvation_energy": 5.17 
		},
		"coords": [
			{
				"x": -1.9736725651,
				"y": -2.3307430051,
				"z": 0.480371406,
				"element": "C" 
			},
			{
				"x": -1.0130027314,
				"y": -1.9865655456,
				"z": 1.6291743494,
				"element": "C" 
			},
			{
				"x": -1.7779176596,
				"y": -1.5414486038,
				"z": 2.8834877254,
				"element": "C" 
			},
			{
				"x": 0.0723959568,
				"y": -0.9546382417,
				"z": 1.2049133191,
				"element": "C" 
			},
			{
				"x": -0.5033041367,
				"y": 0.3788814434,
				"z": 0.7348023147,
				"element": "C" 
			},
			{
				"x": -0.9093194735,
				"y": 1.1993774984,
				"z": 1.5430592408,
				"element": "O" 
			},
			{
				"x": -0.5627654769,
				"y": 0.6694195151,
				"z": -0.7627632143,
				"element": "C" 
			},
			{
				"x": 0.5599492456,
				"y": 1.6281781383,
				"z": -1.2561211853,
				"element": "C" 
			},
			{
				"x": 0.4104719953,
				"y": 3.0423923064,
				"z": -0.6780088488,
				"element": "C" 
			},
			{
				"x": 1.9659132388,
				"y": 1.0641214853,
				"z": -0.9991149366,
				"element": "C" 
			},
			{
				"x": -2.6565419129,
				"y": -3.1338773459,
				"z": 0.7766848519,
				"element": "H" 
			},
			{
				"x": -1.4344444642,
				"y": -2.6655195782,
				"z": -0.4129522594,
				"element": "H" 
			},
			{
				"x": -2.5891260382,
				"y": -1.4681466724,
				"z": 0.199043939,
				"element": "H" 
			},
			{
				"x": -0.4605396726,
				"y": -2.902155987,
				"z": 1.8822083068,
				"element": "H" 
			},
			{
				"x": -2.4971387974,
				"y": -2.3108101918,
				"z": 3.1853870682,
				"element": "H" 
			},
			{
				"x": -2.3242211954,
				"y": -0.6101831619,
				"z": 2.7097620787,
				"element": "H" 
			},
			{
				"x": -1.0962360133,
				"y": -1.3685145994,
				"z": 3.7227239485,
				"element": "H" 
			},
			{
				"x": 0.6957838581,
				"y": -1.3950780626,
				"z": 0.4191370245,
				"element": "H" 
			},
			{
				"x": 0.7104012798,
				"y": -0.746748428,
				"z": 2.071136757,
				"element": "H" 
			},
			{
				"x": -0.5090842705,
				"y": -0.2653799137,
				"z": -1.3313785552,
				"element": "H" 
			},
			{
				"x": -1.5323471668,
				"y": 1.1378295623,
				"z": -0.9654337894,
				"element": "H" 
			},
			{
				"x": 0.4262794374,
				"y": 1.6964752291,
				"z": -2.3447052903,
				"element": "H" 
			},
			{
				"x": 0.4974850635,
				"y": 3.0405165305,
				"z": 0.4121047875,
				"element": "H" 
			},
			{
				"x": -0.5658069151,
				"y": 3.4711020593,
				"z": -0.9269728634,
				"element": "H" 
			},
			{
				"x": 1.1835440471,
				"y": 3.70444373,
				"z": -1.0834474979,
				"element": "H" 
			},
			{
				"x": 2.7278383978,
				"y": 1.7083785268,
				"z": -1.4502749027,
				"element": "H" 
			},
			{
				"x": 2.1849735687,
				"y": 1.0038205916,
				"z": 0.0734285114,
				"element": "H" 
			},
			{
				"x": 2.0846324007,
				"y": 0.0610727207,
				"z": -1.4241522853,
				"element": "H" 
			}
		],
		 "valence_orbital": [ 
			{
				"type": "occ",
				"energy": -0.33177,
				"method": "rhf"
			},
			{
				"type": "occ",
				"energy": -0.32993,
				"method": "rhf"
			},
			{
				"type": "occ",
				"energy": -0.32338,
				"method": "rhf"
			},
			{
				"type": "occ",
				"energy": -0.31644,
				"method": "rhf"
			},
			{
				"type": "occ",
				"energy": -0.23297,
				"method": "rhf"
			},
			{
				"type": "unocc",
				"energy": -0.01884,
				"method": "rhf"
			},
			{
				"type": "unocc",
				"energy": 0.06822,
				"method": "rhf"
			},
			{
				"type": "unocc",
				"energy": 0.10501,
				"method": "rhf"
			},
			{
				"type": "unocc",
				"energy": 0.12091,
				"method": "rhf"
			},
			{
				"type": "unocc",
				"energy": 0.12313,
				"method": "rhf"
			}
		],
		"cosmo_sigma_profile": { 
			"-0.025": 0.0,
			"-0.024": 0.0,
			"-0.023": 0.0,
			"-0.022": 0.0,
			"-0.021": 0.0,
			"-0.02": 0.0,
			"-0.019": 0.0,
			"-0.018": 0.0,
			"-0.017": 0.0,
			"-0.016": 0.0,
			"-0.015": 0.0,
			"-0.014": 0.0,
			"-0.013": 0.0,
			"-0.012": 0.0,
			"-0.011": 0.0,
			"-0.01": 0.0,
			"-0.009": 0.0,
			"-0.008": 0.0,
			"-0.007": 0.0,
			"-0.006": 0.0,
			"-0.005": 0.292640684293,
			"-0.004": 9.35147710565,
			"-0.003": 32.2760848708,
			"-0.002": 42.0635597908,
			"-0.001": 40.100924088,
			"0.0": 29.2636155107,
			"0.001": 28.270171747,
			"0.002": 13.3581179508,
			"0.003": 2.45553850039,
			"0.004": 2.40432847824,
			"0.005": 1.47367438839,
			"0.006": 1.97488118892,
			"0.007": 1.6170980824,
			"0.008": 1.75387962967,
			"0.009": 2.41127667934,
			"0.01": 1.50556852031,
			"0.011": 1.89487505366,
			"0.012": 3.37134496537,
			"0.013": 2.98187639374,
			"0.014": 0.558686291521,
			"0.015": 0.0,
			"0.016": 0.0,
			"0.017": 0.0,
			"0.018": 0.0,
			"0.019": 0.0,
			"0.02": 0.0,
			"0.021": 0.0,
			"0.022": 0.0,
			"0.023": 0.0,
			"0.024": 0.0,
			"0.025": 0.0
		}
	}
}
