{
	 "smiles": "CCCCOC(=O)CC(CC(=O)OCCCC)(OC(C)=O)C(=O)OCCCC", 
	 "Tm": 214.15, 
	 "num_atms": 62, 
	 "gaussian": { 
		 "optdone": 1, 
		 "sigma_profile": "yes", 
		 "theory": "DFT", 
		 "functional": "B3LYP", 
		 "basiset": "6-31G**", 
		 "properties": { 
			 "R2extent": 13112.5953, 
			 "electric_dipole_moment_norm": 4.4254460408, 
			 "electric_quadrupole_moment_norm": 17.4902620832, 
			 "total_energy": -1384.4908387, 
			 "HOMO_LUMO_gap": 0.26238, 
			 "cosmo_polarized_energy": -18.08, 
			 "cosmo_cavitation_energy": 64.48, 
			 "cosmo_dispersion_energy": -37.02, 
			 "cosmo_repulsion_energy": 2.91, 
			 "cosmo_total_nonelectrostatic_energy": 30.38, 
			 "SMD_solvation_energy": 12.81 
		},
		"coords": [
			{
				"x": -0.6218676184,
				"y": 1.2177696406,
				"z": 3.5604972887,
				"element": "C" 
			},
			{
				"x": -1.5074917947,
				"y": 2.065036193,
				"z": 2.6391763077,
				"element": "C" 
			},
			{
				"x": -0.8283742368,
				"y": 3.3358206685,
				"z": 2.1014689564,
				"element": "C" 
			},
			{
				"x": 0.3496239181,
				"y": 3.0835467324,
				"z": 1.1713669119,
				"element": "C" 
			},
			{
				"x": -0.1482035446,
				"y": 2.3693472529,
				"z": 0.0145283327,
				"element": "O" 
			},
			{
				"x": 0.7790500916,
				"y": 1.9484495709,
				"z": -0.8652862835,
				"element": "C" 
			},
			{
				"x": 1.9670803534,
				"y": 2.1672625197,
				"z": -0.7577318676,
				"element": "O" 
			},
			{
				"x": 0.1461404593,
				"y": 1.1844458989,
				"z": -2.0169175712,
				"element": "C" 
			},
			{
				"x": 0.2315791168,
				"y": -0.3568187238,
				"z": -1.8786608534,
				"element": "C" 
			},
			{
				"x": -0.4130383543,
				"y": -1.0416795255,
				"z": -3.1117809727,
				"element": "C" 
			},
			{
				"x": -1.9150642187,
				"y": -0.8461991057,
				"z": -3.1623597726,
				"element": "C" 
			},
			{
				"x": -2.7117195406,
				"y": -1.4628616907,
				"z": -2.4847306452,
				"element": "O" 
			},
			{
				"x": -2.2639932055,
				"y": 0.1025672258,
				"z": -4.0605413432,
				"element": "O" 
			},
			{
				"x": -3.6818882924,
				"y": 0.3614454186,
				"z": -4.2138365011,
				"element": "C" 
			},
			{
				"x": -4.1798275991,
				"y": 1.3901216636,
				"z": -3.2042121926,
				"element": "C" 
			},
			{
				"x": -5.6627209627,
				"y": 1.7292460993,
				"z": -3.4092251852,
				"element": "C" 
			},
			{
				"x": -6.1795327013,
				"y": 2.7645216412,
				"z": -2.4051797047,
				"element": "C" 
			},
			{
				"x": -0.4908906559,
				"y": -0.6694155629,
				"z": -0.6733592382,
				"element": "O" 
			},
			{
				"x": -0.5370424542,
				"y": -1.969797553,
				"z": -0.2686133028,
				"element": "C" 
			},
			{
				"x": -1.5011606642,
				"y": -2.1309063143,
				"z": 0.8756373997,
				"element": "C" 
			},
			{
				"x": 0.1021282,
				"y": -2.8568447842,
				"z": -0.7885045208,
				"element": "O" 
			},
			{
				"x": 1.7166094663,
				"y": -0.7736968847,
				"z": -1.8042602872,
				"element": "C" 
			},
			{
				"x": 2.3773910263,
				"y": -0.9832453888,
				"z": -2.7981875235,
				"element": "O" 
			},
			{
				"x": 2.1765054279,
				"y": -0.7894318847,
				"z": -0.5524436953,
				"element": "O" 
			},
			{
				"x": 3.5870910076,
				"y": -1.0876329044,
				"z": -0.4008973741,
				"element": "C" 
			},
			{
				"x": 3.9344188296,
				"y": -0.9746959175,
				"z": 1.075366852,
				"element": "C" 
			},
			{
				"x": 3.1177948527,
				"y": -1.880166333,
				"z": 2.0132869655,
				"element": "C" 
			},
			{
				"x": 3.1805575236,
				"y": -3.3741631864,
				"z": 1.6748377952,
				"element": "C" 
			},
			{
				"x": -1.1770157603,
				"y": 0.3616484884,
				"z": 3.9582125644,
				"element": "H" 
			},
			{
				"x": -0.2616988181,
				"y": 1.8017887313,
				"z": 4.415624812,
				"element": "H" 
			},
			{
				"x": 0.2549764935,
				"y": 0.8221822012,
				"z": 3.0366857877,
				"element": "H" 
			},
			{
				"x": -2.411232767,
				"y": 2.3634841683,
				"z": 3.1843698843,
				"element": "H" 
			},
			{
				"x": -1.8433140982,
				"y": 1.4591168384,
				"z": 1.7897462908,
				"element": "H" 
			},
			{
				"x": -1.566446551,
				"y": 3.9477926789,
				"z": 1.568987022,
				"element": "H" 
			},
			{
				"x": -0.4616538739,
				"y": 3.9456637945,
				"z": 2.9382451948,
				"element": "H" 
			},
			{
				"x": 1.1366355746,
				"y": 2.4854706204,
				"z": 1.6394484849,
				"element": "H" 
			},
			{
				"x": 0.8061192172,
				"y": 4.0205132092,
				"z": 0.8357319198,
				"element": "H" 
			},
			{
				"x": 0.6784049782,
				"y": 1.4654421531,
				"z": -2.9288134258,
				"element": "H" 
			},
			{
				"x": -0.903628953,
				"y": 1.4662071833,
				"z": -2.1146965935,
				"element": "H" 
			},
			{
				"x": 0.0613796307,
				"y": -0.651410631,
				"z": -4.0117513727,
				"element": "H" 
			},
			{
				"x": -0.2199487613,
				"y": -2.1126945027,
				"z": -3.0467884512,
				"element": "H" 
			},
			{
				"x": -3.7830162988,
				"y": 0.7291218856,
				"z": -5.2384362068,
				"element": "H" 
			},
			{
				"x": -4.2242648073,
				"y": -0.58199431,
				"z": -4.1108585293,
				"element": "H" 
			},
			{
				"x": -4.0258150453,
				"y": 0.9944533321,
				"z": -2.1937124708,
				"element": "H" 
			},
			{
				"x": -3.5736553607,
				"y": 2.3009329665,
				"z": -3.2934259697,
				"element": "H" 
			},
			{
				"x": -6.2595058281,
				"y": 0.8111561447,
				"z": -3.3276873197,
				"element": "H" 
			},
			{
				"x": -5.814566258,
				"y": 2.1031658234,
				"z": -4.4309459699,
				"element": "H" 
			},
			{
				"x": -5.6253288508,
				"y": 3.7063402513,
				"z": -2.48636647,
				"element": "H" 
			},
			{
				"x": -6.0718816167,
				"y": 2.4046967868,
				"z": -1.3759346936,
				"element": "H" 
			},
			{
				"x": -7.2384752725,
				"y": 2.985755338,
				"z": -2.571947189,
				"element": "H" 
			},
			{
				"x": -2.516924752,
				"y": -2.0416687647,
				"z": 0.4772724255,
				"element": "H" 
			},
			{
				"x": -1.3707020539,
				"y": -3.1147529105,
				"z": 1.3254964471,
				"element": "H" 
			},
			{
				"x": -1.3593374377,
				"y": -1.3441472504,
				"z": 1.6203936441,
				"element": "H" 
			},
			{
				"x": 4.1572802307,
				"y": -0.3763646417,
				"z": -1.0044177652,
				"element": "H" 
			},
			{
				"x": 3.7676596971,
				"y": -2.0905670256,
				"z": -0.7982850987,
				"element": "H" 
			},
			{
				"x": 3.8163215839,
				"y": 0.0714276818,
				"z": 1.3818817703,
				"element": "H" 
			},
			{
				"x": 5.0031192513,
				"y": -1.2112642511,
				"z": 1.1691426069,
				"element": "H" 
			},
			{
				"x": 3.4793695233,
				"y": -1.7198002835,
				"z": 3.0367029936,
				"element": "H" 
			},
			{
				"x": 2.0721389035,
				"y": -1.5510745149,
				"z": 2.0023485126,
				"element": "H" 
			},
			{
				"x": 2.6819505703,
				"y": -3.592684846,
				"z": 0.7254641785,
				"element": "H" 
			},
			{
				"x": 2.6808934188,
				"y": -3.9684220682,
				"z": 2.4468399202,
				"element": "H" 
			},
			{
				"x": 4.2166096617,
				"y": -3.7270390428,
				"z": 1.6061350918,
				"element": "H" 
			}
		],
		 "valence_orbital": [ 
			{
				"type": "occ",
				"energy": -0.29275,
				"method": "rhf"
			},
			{
				"type": "occ",
				"energy": -0.27622,
				"method": "rhf"
			},
			{
				"type": "occ",
				"energy": -0.27537,
				"method": "rhf"
			},
			{
				"type": "occ",
				"energy": -0.27199,
				"method": "rhf"
			},
			{
				"type": "occ",
				"energy": -0.26715,
				"method": "rhf"
			},
			{
				"type": "unocc",
				"energy": -0.00477,
				"method": "rhf"
			},
			{
				"type": "unocc",
				"energy": -0.00118,
				"method": "rhf"
			},
			{
				"type": "unocc",
				"energy": 0.00883,
				"method": "rhf"
			},
			{
				"type": "unocc",
				"energy": 0.02015,
				"method": "rhf"
			},
			{
				"type": "unocc",
				"energy": 0.05904,
				"method": "rhf"
			}
		],
		"cosmo_sigma_profile": { 
			"-0.025": 0.0,
			"-0.024": 0.0,
			"-0.023": 0.0,
			"-0.022": 0.0,
			"-0.021": 0.0,
			"-0.02": 0.0,
			"-0.019": 0.0,
			"-0.018": 0.0,
			"-0.017": 0.0,
			"-0.016": 0.0,
			"-0.015": 0.0,
			"-0.014": 0.0,
			"-0.013": 0.0,
			"-0.012": 0.0,
			"-0.011": 0.0,
			"-0.01": 0.0,
			"-0.009": 0.0258111560765,
			"-0.008": 2.03765339689,
			"-0.007": 2.57015500568,
			"-0.006": 9.09856705456,
			"-0.005": 22.5363651511,
			"-0.004": 36.6645050071,
			"-0.003": 64.7234450051,
			"-0.002": 75.883964665,
			"-0.001": 64.5273755665,
			"0.0": 53.9036377956,
			"0.001": 43.5304316631,
			"0.002": 24.0565304506,
			"0.003": 16.059595148,
			"0.004": 14.6548476429,
			"0.005": 15.6154146333,
			"0.006": 10.6415668982,
			"0.007": 7.94164053505,
			"0.008": 6.378416354,
			"0.009": 6.55325687695,
			"0.01": 7.37670744298,
			"0.011": 11.0456092097,
			"0.012": 4.61217761129,
			"0.013": 0.0494887332869,
			"0.014": 0.0,
			"0.015": 0.0,
			"0.016": 0.0,
			"0.017": 0.0,
			"0.018": 0.0,
			"0.019": 0.0,
			"0.02": 0.0,
			"0.021": 0.0,
			"0.022": 0.0,
			"0.023": 0.0,
			"0.024": 0.0,
			"0.025": 0.0
		}
	}
}
