{
	 "smiles": "CC1=CC=C(C=C1)S(=O)(=O)NCCN(CCN(CCNS(=O)(=O)C1=CC=C(C)C=C1)S(=O)(=O)C1=CC=C(C)C=C1)S(=O)(=O)C1=CC=C(C)C=C1", 
	 "Tm": 385.15, 
	 "num_atms": 92, 
	 "gaussian": { 
		 "optdone": 1, 
		 "sigma_profile": "yes", 
		 "theory": "DFT", 
		 "functional": "B3LYP", 
		 "basiset": "6-31G**", 
		 "properties": { 
			 "R2extent": 43793.9102, 
			 "electric_dipole_moment_norm": 7.99534698059, 
			 "electric_quadrupole_moment_norm": 32.7241058284, 
			 "total_energy": -3734.22775555, 
			 "HOMO_LUMO_gap": 0.19684, 
			 "cosmo_polarized_energy": -43.55, 
			 "cosmo_cavitation_energy": 98.01, 
			 "cosmo_dispersion_energy": -60.09, 
			 "cosmo_repulsion_energy": 4.32, 
			 "cosmo_total_nonelectrostatic_energy": 42.24, 
			 "SMD_solvation_energy": 11.41 
		},
		"coords": [
			{
				"x": 2.7932567277,
				"y": -6.1697834394,
				"z": -5.1448360021,
				"element": "C" 
			},
			{
				"x": 2.695797029,
				"y": -5.4939821788,
				"z": -3.7987914072,
				"element": "C" 
			},
			{
				"x": 1.5426877409,
				"y": -5.6127912622,
				"z": -3.0135393301,
				"element": "C" 
			},
			{
				"x": 1.4577147162,
				"y": -5.0074561803,
				"z": -1.7591933515,
				"element": "C" 
			},
			{
				"x": 2.5436921325,
				"y": -4.2689896258,
				"z": -1.2919173448,
				"element": "C" 
			},
			{
				"x": 3.7101081208,
				"y": -4.1348555823,
				"z": -2.0508748899,
				"element": "C" 
			},
			{
				"x": 3.7756681576,
				"y": -4.7475411961,
				"z": -3.2971495766,
				"element": "C" 
			},
			{
				"x": 2.4532880155,
				"y": -3.4922528585,
				"z": 0.3135663235,
				"element": "S" 
			},
			{
				"x": 3.7654803306,
				"y": -3.5601395435,
				"z": 0.9713117046,
				"element": "O" 
			},
			{
				"x": 1.2543499336,
				"y": -4.0075831615,
				"z": 0.9933768749,
				"element": "O" 
			},
			{
				"x": 2.2661850578,
				"y": -1.8518967573,
				"z": -0.0733303078,
				"element": "N" 
			},
			{
				"x": 0.9001845768,
				"y": -1.3795044828,
				"z": -0.3503046394,
				"element": "C" 
			},
			{
				"x": 0.953186099,
				"y": 0.1169248171,
				"z": -0.6886491648,
				"element": "C" 
			},
			{
				"x": -0.3777036235,
				"y": 0.698702804,
				"z": -0.8534236941,
				"element": "N" 
			},
			{
				"x": -1.1406194307,
				"y": 1.125304299,
				"z": 0.3207205091,
				"element": "C" 
			},
			{
				"x": -0.7370943206,
				"y": 2.5278007886,
				"z": 0.8229958456,
				"element": "C" 
			},
			{
				"x": -1.6342922649,
				"y": 3.0740569332,
				"z": 1.8450073318,
				"element": "N" 
			},
			{
				"x": -1.3218037558,
				"y": 2.9153912465,
				"z": 3.2662093402,
				"element": "C" 
			},
			{
				"x": -1.7532785246,
				"y": 1.55762768,
				"z": 3.8416611272,
				"element": "C" 
			},
			{
				"x": -1.3344527245,
				"y": 1.4790660181,
				"z": 5.2467264377,
				"element": "N" 
			},
			{
				"x": -1.5192133204,
				"y": -0.0271504301,
				"z": 6.0187825104,
				"element": "S" 
			},
			{
				"x": -2.6391228547,
				"y": -0.7689691223,
				"z": 5.4247149042,
				"element": "O" 
			},
			{
				"x": -1.4969146019,
				"y": 0.2976240728,
				"z": 7.4484177408,
				"element": "O" 
			},
			{
				"x": -0.0096668864,
				"y": -0.874441927,
				"z": 5.571532275,
				"element": "C" 
			},
			{
				"x": 1.1756051381,
				"y": -0.5528474827,
				"z": 6.2367737963,
				"element": "C" 
			},
			{
				"x": 2.3439471371,
				"y": -1.2291613133,
				"z": 5.8968455828,
				"element": "C" 
			},
			{
				"x": 2.3506843707,
				"y": -2.2224693841,
				"z": 4.9041004611,
				"element": "C" 
			},
			{
				"x": 3.6162378322,
				"y": -2.9768510862,
				"z": 4.5744715557,
				"element": "C" 
			},
			{
				"x": 1.1462503879,
				"y": -2.5227348487,
				"z": 4.2484530594,
				"element": "C" 
			},
			{
				"x": -0.0352247848,
				"y": -1.8593453488,
				"z": 4.5818498693,
				"element": "C" 
			},
			{
				"x": -2.9318174915,
				"y": 4.0460707318,
				"z": 1.3714811778,
				"element": "S" 
			},
			{
				"x": -2.6525630811,
				"y": 4.4484736047,
				"z": -0.0127498388,
				"element": "O" 
			},
			{
				"x": -3.1327461643,
				"y": 5.0354692313,
				"z": 2.4347527103,
				"element": "O" 
			},
			{
				"x": -4.391479754,
				"y": 3.0023804877,
				"z": 1.344169032,
				"element": "C" 
			},
			{
				"x": -4.7018673871,
				"y": 2.2669388752,
				"z": 0.1972121394,
				"element": "C" 
			},
			{
				"x": -5.8264089243,
				"y": 1.4437737454,
				"z": 0.207207016,
				"element": "C" 
			},
			{
				"x": -6.6487194146,
				"y": 1.3447988994,
				"z": 1.3389044717,
				"element": "C" 
			},
			{
				"x": -7.8437018612,
				"y": 0.4230721059,
				"z": 1.3490433366,
				"element": "C" 
			},
			{
				"x": -6.3237910651,
				"y": 2.1108600057,
				"z": 2.4678551975,
				"element": "C" 
			},
			{
				"x": -5.2035367437,
				"y": 2.9392877157,
				"z": 2.4792598868,
				"element": "C" 
			},
			{
				"x": -1.0465830273,
				"y": 0.7776553555,
				"z": -2.3946235043,
				"element": "S" 
			},
			{
				"x": -2.4860331713,
				"y": 0.9910129481,
				"z": -2.206912797,
				"element": "O" 
			},
			{
				"x": -0.526875713,
				"y": -0.3753832061,
				"z": -3.138264505,
				"element": "O" 
			},
			{
				"x": -0.3679994338,
				"y": 2.2481361808,
				"z": -3.1665768743,
				"element": "C" 
			},
			{
				"x": -0.9007398629,
				"y": 3.5045473908,
				"z": -2.8562072255,
				"element": "C" 
			},
			{
				"x": -0.3478033982,
				"y": 4.6353619245,
				"z": -3.4496856948,
				"element": "C" 
			},
			{
				"x": 0.7216969596,
				"y": 4.5371689841,
				"z": -4.3548174473,
				"element": "C" 
			},
			{
				"x": 1.2902835488,
				"y": 5.7749012134,
				"z": -5.0054669434,
				"element": "C" 
			},
			{
				"x": 1.2268196383,
				"y": 3.2656611608,
				"z": -4.6533702893,
				"element": "C" 
			},
			{
				"x": 0.6888781606,
				"y": 2.11871468,
				"z": -4.0681485094,
				"element": "C" 
			},
			{
				"x": 3.2474330022,
				"y": -5.5092662854,
				"z": -5.8902347446,
				"element": "H" 
			},
			{
				"x": 3.4181331985,
				"y": -7.069291984,
				"z": -5.0865068532,
				"element": "H" 
			},
			{
				"x": 1.810011045,
				"y": -6.4736898228,
				"z": -5.5130439656,
				"element": "H" 
			},
			{
				"x": 0.6983613244,
				"y": -6.1865691721,
				"z": -3.3852065531,
				"element": "H" 
			},
			{
				"x": 0.5704607481,
				"y": -5.1093887747,
				"z": -1.1444098746,
				"element": "H" 
			},
			{
				"x": 4.5492562398,
				"y": -3.5674657408,
				"z": -1.663259791,
				"element": "H" 
			},
			{
				"x": 4.6791728504,
				"y": -4.6482703435,
				"z": -3.8929908117,
				"element": "H" 
			},
			{
				"x": 2.7314674206,
				"y": -1.3371929898,
				"z": 0.6739519823,
				"element": "H" 
			},
			{
				"x": 0.2227855531,
				"y": -1.5604874642,
				"z": 0.4938462133,
				"element": "H" 
			},
			{
				"x": 0.5119329053,
				"y": -1.9180415863,
				"z": -1.2181206187,
				"element": "H" 
			},
			{
				"x": 1.5405963269,
				"y": 0.2657481952,
				"z": -1.5976119708,
				"element": "H" 
			},
			{
				"x": 1.4674919409,
				"y": 0.6663609399,
				"z": 0.1109786536,
				"element": "H" 
			},
			{
				"x": -2.1977018495,
				"y": 1.1164007345,
				"z": 0.0590720043,
				"element": "H" 
			},
			{
				"x": -1.0061533128,
				"y": 0.374836138,
				"z": 1.1079867536,
				"element": "H" 
			},
			{
				"x": 0.2701056244,
				"y": 2.5101801229,
				"z": 1.2557778114,
				"element": "H" 
			},
			{
				"x": -0.7098071744,
				"y": 3.2154733234,
				"z": -0.022527791,
				"element": "H" 
			},
			{
				"x": -1.8051900781,
				"y": 3.7303067756,
				"z": 3.8109990636,
				"element": "H" 
			},
			{
				"x": -0.2408326665,
				"y": 3.0390574732,
				"z": 3.4023192529,
				"element": "H" 
			},
			{
				"x": -1.2436487982,
				"y": 0.7510765299,
				"z": 3.3057452439,
				"element": "H" 
			},
			{
				"x": -2.8315162622,
				"y": 1.4066440607,
				"z": 3.7084346698,
				"element": "H" 
			},
			{
				"x": -1.7846897359,
				"y": 2.1661067079,
				"z": 5.8500993155,
				"element": "H" 
			},
			{
				"x": 1.1738419447,
				"y": 0.2029583966,
				"z": 7.0148158716,
				"element": "H" 
			},
			{
				"x": 3.2681701366,
				"y": -0.9885014421,
				"z": 6.4156514804,
				"element": "H" 
			},
			{
				"x": 3.6311367047,
				"y": -3.9443216658,
				"z": 5.0917102859,
				"element": "H" 
			},
			{
				"x": 4.5044243795,
				"y": -2.4236774968,
				"z": 4.8935030207,
				"element": "H" 
			},
			{
				"x": 3.7009170722,
				"y": -3.1841854065,
				"z": 3.503817128,
				"element": "H" 
			},
			{
				"x": 1.1295008471,
				"y": -3.2832709334,
				"z": 3.4722719628,
				"element": "H" 
			},
			{
				"x": -0.9731516648,
				"y": -2.1110635811,
				"z": 4.0985922956,
				"element": "H" 
			},
			{
				"x": -4.0865951894,
				"y": 2.3375534327,
				"z": -0.6931748866,
				"element": "H" 
			},
			{
				"x": -6.0687262346,
				"y": 0.8726321304,
				"z": -0.6847241804,
				"element": "H" 
			},
			{
				"x": -8.6413662886,
				"y": 0.8080587623,
				"z": 1.9909196796,
				"element": "H" 
			},
			{
				"x": -7.5674939554,
				"y": -0.5674603043,
				"z": 1.7312075424,
				"element": "H" 
			},
			{
				"x": -8.2500351792,
				"y": 0.2832038246,
				"z": 0.3433945384,
				"element": "H" 
			},
			{
				"x": -6.9593588342,
				"y": 2.0640824993,
				"z": 3.3480357916,
				"element": "H" 
			},
			{
				"x": -4.9720761927,
				"y": 3.5507110536,
				"z": 3.3444412118,
				"element": "H" 
			},
			{
				"x": -1.7332887161,
				"y": 3.6052692813,
				"z": -2.1676292016,
				"element": "H" 
			},
			{
				"x": -0.7587176732,
				"y": 5.6116918806,
				"z": -3.2070608062,
				"element": "H" 
			},
			{
				"x": 0.6069613068,
				"y": 6.1648927869,
				"z": -5.769450616,
				"element": "H" 
			},
			{
				"x": 2.2476138155,
				"y": 5.5695048098,
				"z": -5.4917409507,
				"element": "H" 
			},
			{
				"x": 1.4438371737,
				"y": 6.5745027537,
				"z": -4.2736294377,
				"element": "H" 
			},
			{
				"x": 2.0485102476,
				"y": 3.1677724834,
				"z": -5.3578190888,
				"element": "H" 
			},
			{
				"x": 1.0656797724,
				"y": 1.1332664149,
				"z": -4.318398511,
				"element": "H" 
			}
		],
		 "valence_orbital": [ 
			{
				"type": "occ",
				"energy": -0.26307,
				"method": "rhf"
			},
			{
				"type": "occ",
				"energy": -0.26214,
				"method": "rhf"
			},
			{
				"type": "occ",
				"energy": -0.25512,
				"method": "rhf"
			},
			{
				"type": "occ",
				"energy": -0.25043,
				"method": "rhf"
			},
			{
				"type": "occ",
				"energy": -0.23899,
				"method": "rhf"
			},
			{
				"type": "unocc",
				"energy": -0.04215,
				"method": "rhf"
			},
			{
				"type": "unocc",
				"energy": -0.03862,
				"method": "rhf"
			},
			{
				"type": "unocc",
				"energy": -0.03542,
				"method": "rhf"
			},
			{
				"type": "unocc",
				"energy": -0.0307,
				"method": "rhf"
			},
			{
				"type": "unocc",
				"energy": -0.02379,
				"method": "rhf"
			}
		],
		"cosmo_sigma_profile": { 
			"-0.025": 0.0,
			"-0.024": 0.0,
			"-0.023": 0.0,
			"-0.022": 0.0,
			"-0.021": 0.0,
			"-0.02": 0.0,
			"-0.019": 0.0,
			"-0.018": 0.0,
			"-0.017": 0.0,
			"-0.016": 0.0,
			"-0.015": 0.227702565441,
			"-0.014": 2.15037105653,
			"-0.013": 2.92147306264,
			"-0.012": 2.61404249464,
			"-0.011": 2.11585198249,
			"-0.01": 2.44645651111,
			"-0.009": 3.43856908655,
			"-0.008": 8.14273674912,
			"-0.007": 20.2146870035,
			"-0.006": 38.5547623215,
			"-0.005": 55.0678745725,
			"-0.004": 61.8352404468,
			"-0.003": 58.4446549303,
			"-0.002": 66.4356002487,
			"-0.001": 70.8711227694,
			"0.0": 62.1814253118,
			"0.001": 53.4666083609,
			"0.002": 53.9735193442,
			"0.003": 61.6762519573,
			"0.004": 27.97247605,
			"0.005": 14.5230887583,
			"0.006": 12.0208784845,
			"0.007": 12.5857078547,
			"0.008": 15.440855611,
			"0.009": 15.2653132698,
			"0.01": 20.7424528235,
			"0.011": 24.4573525813,
			"0.012": 8.49674680767,
			"0.013": 0.0,
			"0.014": 0.0,
			"0.015": 0.0,
			"0.016": 0.0,
			"0.017": 0.0,
			"0.018": 0.0,
			"0.019": 0.0,
			"0.02": 0.0,
			"0.021": 0.0,
			"0.022": 0.0,
			"0.023": 0.0,
			"0.024": 0.0,
			"0.025": 0.0
		}
	}
}
