{
	 "smiles": "CCC1(CCN(C1)C(=O)OC(C)(C)C)C(O)=O", 
	 "Tm": 368.15, 
	 "num_atms": 38, 
	 "gaussian": { 
		 "optdone": 1, 
		 "sigma_profile": "yes", 
		 "theory": "DFT", 
		 "functional": "B3LYP", 
		 "basiset": "6-31G**", 
		 "properties": { 
			 "R2extent": 5263.5625, 
			 "electric_dipole_moment_norm": 2.40167969971, 
			 "electric_quadrupole_moment_norm": 13.7621168081, 
			 "total_energy": -825.638051626, 
			 "HOMO_LUMO_gap": 0.23246, 
			 "cosmo_polarized_energy": -13.95, 
			 "cosmo_cavitation_energy": 38.36, 
			 "cosmo_dispersion_energy": -26.09, 
			 "cosmo_repulsion_energy": 2.05, 
			 "cosmo_total_nonelectrostatic_energy": 14.33, 
			 "SMD_solvation_energy": 8.25 
		},
		"coords": [
			{
				"x": -1.4303048735,
				"y": 0.616090711,
				"z": 2.4897929776,
				"element": "C" 
			},
			{
				"x": 0.0576627245,
				"y": 0.7025210537,
				"z": 2.8468732058,
				"element": "C" 
			},
			{
				"x": 1.0447301006,
				"y": 0.008063087,
				"z": 1.8605162542,
				"element": "C" 
			},
			{
				"x": 0.7718789144,
				"y": -1.5175037468,
				"z": 1.6902252858,
				"element": "C" 
			},
			{
				"x": -0.1567200602,
				"y": -1.6423981262,
				"z": 0.4709164306,
				"element": "C" 
			},
			{
				"x": 0.060054466,
				"y": -0.3961930549,
				"z": -0.2638192201,
				"element": "N" 
			},
			{
				"x": 0.9298095517,
				"y": 0.5611078132,
				"z": 0.4204912595,
				"element": "C" 
			},
			{
				"x": -0.4630584905,
				"y": -0.2404956986,
				"z": -1.5125133627,
				"element": "C" 
			},
			{
				"x": -1.1575234473,
				"y": -1.0869005235,
				"z": -2.0605083486,
				"element": "O" 
			},
			{
				"x": -0.1050107697,
				"y": 0.9638956904,
				"z": -2.0287081098,
				"element": "O" 
			},
			{
				"x": -0.5498768372,
				"y": 1.3698188243,
				"z": -3.3689932459,
				"element": "C" 
			},
			{
				"x": -2.0796179839,
				"y": 1.4568812847,
				"z": -3.4124156995,
				"element": "C" 
			},
			{
				"x": 0.0053827299,
				"y": 0.4042297495,
				"z": -4.4220027456,
				"element": "C" 
			},
			{
				"x": 0.0774991453,
				"y": 2.7581643484,
				"z": -3.5220167008,
				"element": "C" 
			},
			{
				"x": 2.4458428138,
				"y": 0.2539083514,
				"z": 2.4076275295,
				"element": "C" 
			},
			{
				"x": 2.671980178,
				"y": -0.4474465722,
				"z": 3.5468559595,
				"element": "O" 
			},
			{
				"x": 3.2804237054,
				"y": 0.9935570434,
				"z": 1.9327440624,
				"element": "O" 
			},
			{
				"x": -1.7995610023,
				"y": -0.4131575022,
				"z": 2.5224902598,
				"element": "H" 
			},
			{
				"x": -1.6405619054,
				"y": 1.0177347661,
				"z": 1.4943637832,
				"element": "H" 
			},
			{
				"x": -2.0162690802,
				"y": 1.194174789,
				"z": 3.2113569461,
				"element": "H" 
			},
			{
				"x": 0.2178575716,
				"y": 0.2732032479,
				"z": 3.8419615796,
				"element": "H" 
			},
			{
				"x": 0.3466813956,
				"y": 1.7595276541,
				"z": 2.9140329824,
				"element": "H" 
			},
			{
				"x": 1.7135809388,
				"y": -2.0395151834,
				"z": 1.4942751226,
				"element": "H" 
			},
			{
				"x": 0.342879605,
				"y": -1.9595513013,
				"z": 2.5927683889,
				"element": "H" 
			},
			{
				"x": 0.0870216966,
				"y": -2.5059160094,
				"z": -0.1558026668,
				"element": "H" 
			},
			{
				"x": -1.2106596936,
				"y": -1.7417297068,
				"z": 0.7550186615,
				"element": "H" 
			},
			{
				"x": 0.4990789461,
				"y": 1.5658936045,
				"z": 0.3970467867,
				"element": "H" 
			},
			{
				"x": 1.9151928335,
				"y": 0.6214078094,
				"z": -0.0530745681,
				"element": "H" 
			},
			{
				"x": -2.5290161271,
				"y": 0.4725674176,
				"z": -3.2797409305,
				"element": "H" 
			},
			{
				"x": -2.3980688349,
				"y": 1.8663745019,
				"z": -4.3767356986,
				"element": "H" 
			},
			{
				"x": -2.4440063134,
				"y": 2.1236449799,
				"z": -2.624150582,
				"element": "H" 
			},
			{
				"x": 1.0948717351,
				"y": 0.3376972617,
				"z": -4.3380116833,
				"element": "H" 
			},
			{
				"x": -0.2358928453,
				"y": 0.7736419158,
				"z": -5.4241665956,
				"element": "H" 
			},
			{
				"x": -0.4209735339,
				"y": -0.5915676725,
				"z": -4.2994213254,
				"element": "H" 
			},
			{
				"x": 1.1669923194,
				"y": 2.7000950194,
				"z": -3.443476022,
				"element": "H" 
			},
			{
				"x": -0.1782910302,
				"y": 3.1813185854,
				"z": -4.4980538347,
				"element": "H" 
			},
			{
				"x": -0.2879724147,
				"y": 3.4352471741,
				"z": -2.7442953818,
				"element": "H" 
			},
			{
				"x": 3.5710638717,
				"y": -0.213391586,
				"z": 3.8329492461,
				"element": "H" 
			}
		],
		 "valence_orbital": [ 
			{
				"type": "occ",
				"energy": -0.32212,
				"method": "rhf"
			},
			{
				"type": "occ",
				"energy": -0.28013,
				"method": "rhf"
			},
			{
				"type": "occ",
				"energy": -0.27834,
				"method": "rhf"
			},
			{
				"type": "occ",
				"energy": -0.25332,
				"method": "rhf"
			},
			{
				"type": "occ",
				"energy": -0.23047,
				"method": "rhf"
			},
			{
				"type": "unocc",
				"energy": 0.00199,
				"method": "rhf"
			},
			{
				"type": "unocc",
				"energy": 0.05343,
				"method": "rhf"
			},
			{
				"type": "unocc",
				"energy": 0.06373,
				"method": "rhf"
			},
			{
				"type": "unocc",
				"energy": 0.07856,
				"method": "rhf"
			},
			{
				"type": "unocc",
				"energy": 0.09286,
				"method": "rhf"
			}
		],
		"cosmo_sigma_profile": { 
			"-0.025": 0.0,
			"-0.024": 0.0,
			"-0.023": 0.0,
			"-0.022": 0.0,
			"-0.021": 0.0,
			"-0.02": 0.0,
			"-0.019": 0.0830590705984,
			"-0.018": 0.649442515758,
			"-0.017": 0.93668568113,
			"-0.016": 1.03923169791,
			"-0.015": 0.886636142085,
			"-0.014": 0.322469030175,
			"-0.013": 0.626172319749,
			"-0.012": 0.693819079497,
			"-0.011": 0.84032170893,
			"-0.01": 0.674174145701,
			"-0.009": 0.684313218298,
			"-0.008": 0.446769011042,
			"-0.007": 0.915598853073,
			"-0.006": 2.73537014534,
			"-0.005": 8.03302102303,
			"-0.004": 30.5564879792,
			"-0.003": 36.8528775246,
			"-0.002": 34.8603037905,
			"-0.001": 34.6299795509,
			"0.0": 39.3728930396,
			"0.001": 29.7704744093,
			"0.002": 11.2789650534,
			"0.003": 7.98251553993,
			"0.004": 7.13026349679,
			"0.005": 5.31879572185,
			"0.006": 6.3623344538,
			"0.007": 5.74226763177,
			"0.008": 4.26438228775,
			"0.009": 4.10381966482,
			"0.01": 3.67729018963,
			"0.011": 5.5976337816,
			"0.012": 4.2658396708,
			"0.013": 2.79045879356,
			"0.014": 2.86109030854,
			"0.015": 0.147942373393,
			"0.016": 0.0,
			"0.017": 0.0,
			"0.018": 0.0,
			"0.019": 0.0,
			"0.02": 0.0,
			"0.021": 0.0,
			"0.022": 0.0,
			"0.023": 0.0,
			"0.024": 0.0,
			"0.025": 0.0
		}
	}
}
