{
	 "smiles": "OC(=O)C1=CNC(=N1)C1=CC=CC=C1", 
	 "Tm": 514.15, 
	 "num_atms": 22, 
	 "gaussian": { 
		 "optdone": 1, 
		 "sigma_profile": "yes", 
		 "theory": "DFT", 
		 "functional": "B3LYP", 
		 "basiset": "6-31G**", 
		 "properties": { 
			 "R2extent": 4251.1258, 
			 "electric_dipole_moment_norm": 7.31675802046, 
			 "electric_quadrupole_moment_norm": 25.1991929992, 
			 "total_energy": -645.86000266, 
			 "HOMO_LUMO_gap": 0.18198, 
			 "cosmo_polarized_energy": -19.31, 
			 "cosmo_cavitation_energy": 27.22, 
			 "cosmo_dispersion_energy": -20.27, 
			 "cosmo_repulsion_energy": 1.58, 
			 "cosmo_total_nonelectrostatic_energy": 8.53, 
			 "SMD_solvation_energy": 5.01 
		},
		"coords": [
			{
				"x": -1.0237489694,
				"y": 2.890445576,
				"z": 2.6892055174,
				"element": "O" 
			},
			{
				"x": 0.2943871823,
				"y": 2.8928907294,
				"z": 2.3943798194,
				"element": "C" 
			},
			{
				"x": 1.1288179058,
				"y": 3.3520599474,
				"z": 3.1422974476,
				"element": "O" 
			},
			{
				"x": 0.6055200294,
				"y": 2.2844897241,
				"z": 1.0821062169,
				"element": "C" 
			},
			{
				"x": 1.8346024507,
				"y": 2.1350963008,
				"z": 0.4837339685,
				"element": "C" 
			},
			{
				"x": 1.5714278962,
				"y": 1.5223630698,
				"z": -0.7137966262,
				"element": "N" 
			},
			{
				"x": 0.2112909728,
				"y": 1.3163706104,
				"z": -0.8082250454,
				"element": "C" 
			},
			{
				"x": -0.3881410419,
				"y": 1.7759308024,
				"z": 0.2777803353,
				"element": "N" 
			},
			{
				"x": -0.4481364624,
				"y": 0.6770911132,
				"z": -1.9503025475,
				"element": "C" 
			},
			{
				"x": -1.8092849159,
				"y": 0.3430616451,
				"z": -1.8497310951,
				"element": "C" 
			},
			{
				"x": -2.4652789148,
				"y": -0.2671212705,
				"z": -2.9145686389,
				"element": "C" 
			},
			{
				"x": -1.7770859296,
				"y": -0.5564835696,
				"z": -4.0960070155,
				"element": "C" 
			},
			{
				"x": -0.4257240268,
				"y": -0.2249636441,
				"z": -4.2062041736,
				"element": "C" 
			},
			{
				"x": 0.2343273451,
				"y": 0.3894770911,
				"z": -3.1435040634,
				"element": "C" 
			},
			{
				"x": -1.4873200098,
				"y": 2.4743763954,
				"z": 1.9383717627,
				"element": "H" 
			},
			{
				"x": 2.8269123034,
				"y": 2.4058618565,
				"z": 0.8065706259,
				"element": "H" 
			},
			{
				"x": 2.2638276216,
				"y": 1.2375693122,
				"z": -1.3896804261,
				"element": "H" 
			},
			{
				"x": -2.3338303216,
				"y": 0.5682137942,
				"z": -0.927835837,
				"element": "H" 
			},
			{
				"x": -3.5171814103,
				"y": -0.5206944077,
				"z": -2.8218283757,
				"element": "H" 
			},
			{
				"x": -2.2905193756,
				"y": -1.0341092669,
				"z": -4.9250199263,
				"element": "H" 
			},
			{
				"x": 0.1159558038,
				"y": -0.4389835222,
				"z": -5.1227262223,
				"element": "H" 
			},
			{
				"x": 1.281181867,
				"y": 0.6568577133,
				"z": -3.2630157007,
				"element": "H" 
			}
		],
		 "valence_orbital": [ 
			{
				"type": "occ",
				"energy": -0.3015,
				"method": "rhf"
			},
			{
				"type": "occ",
				"energy": -0.28843,
				"method": "rhf"
			},
			{
				"type": "occ",
				"energy": -0.26865,
				"method": "rhf"
			},
			{
				"type": "occ",
				"energy": -0.2602,
				"method": "rhf"
			},
			{
				"type": "occ",
				"energy": -0.23029,
				"method": "rhf"
			},
			{
				"type": "unocc",
				"energy": -0.04831,
				"method": "rhf"
			},
			{
				"type": "unocc",
				"energy": -0.02383,
				"method": "rhf"
			},
			{
				"type": "unocc",
				"energy": -0.0157,
				"method": "rhf"
			},
			{
				"type": "unocc",
				"energy": 0.04265,
				"method": "rhf"
			},
			{
				"type": "unocc",
				"energy": 0.04995,
				"method": "rhf"
			}
		],
		"cosmo_sigma_profile": { 
			"-0.025": 0.0,
			"-0.024": 0.0,
			"-0.023": 0.0,
			"-0.022": 0.0,
			"-0.021": 0.0,
			"-0.02": 0.0,
			"-0.019": 0.0,
			"-0.018": 0.424155916199,
			"-0.017": 1.68084580026,
			"-0.016": 1.27750159378,
			"-0.015": 1.48658985247,
			"-0.014": 1.40126095748,
			"-0.013": 2.42167469771,
			"-0.012": 1.67658950326,
			"-0.011": 1.822447363,
			"-0.01": 3.84750409689,
			"-0.009": 3.9174821727,
			"-0.008": 3.52829774098,
			"-0.007": 3.81017771722,
			"-0.006": 8.92187317682,
			"-0.005": 11.9201021491,
			"-0.004": 13.4882501549,
			"-0.003": 11.9908171422,
			"-0.002": 11.7442278365,
			"-0.001": 11.5198347577,
			"0.0": 15.4037946253,
			"0.001": 17.3290167644,
			"0.002": 14.8473770458,
			"0.003": 14.0594345002,
			"0.004": 15.5550963327,
			"0.005": 11.4053238933,
			"0.006": 3.79267261766,
			"0.007": 4.07914482903,
			"0.008": 3.31805273604,
			"0.009": 3.39070848815,
			"0.01": 4.1772456352,
			"0.011": 5.14095402097,
			"0.012": 5.89051992418,
			"0.013": 3.26305331748,
			"0.014": 0.567245450499,
			"0.015": 0.0,
			"0.016": 0.0,
			"0.017": 0.0,
			"0.018": 0.0,
			"0.019": 0.0,
			"0.02": 0.0,
			"0.021": 0.0,
			"0.022": 0.0,
			"0.023": 0.0,
			"0.024": 0.0,
			"0.025": 0.0
		}
	}
}
