{
	 "smiles": "IC1=CC=C(OCCC2=CC=CC=C2)C=C1", 
	 "Tm": 338.15, 
	 "num_atms": 29, 
	 "gaussian": { 
		 "optdone": 1, 
		 "sigma_profile": "yes", 
		 "theory": "DFT", 
		 "functional": "B3LYP", 
		 "basiset": "6-31G**", 
		 "properties": { 
			 "R2extent": 4254.0177, 
			 "electric_dipole_moment_norm": 3.03839706589, 
			 "electric_quadrupole_moment_norm": 10.8176757989, 
			 "total_energy": -627.92799521, 
			 "HOMO_LUMO_gap": 0.18406, 
			 "cosmo_polarized_energy": -7.76, 
			 "cosmo_cavitation_energy": 35.63, 
			 "cosmo_dispersion_energy": -26.17, 
			 "cosmo_repulsion_energy": 2.04, 
			 "cosmo_total_nonelectrostatic_energy": 11.5, 
			 "SMD_solvation_energy": 5.03 
		},
		"coords": [
			{
				"x": 2.7008318271,
				"y": 1.4140612997,
				"z": 4.7908123018,
				"element": "I" 
			},
			{
				"x": 2.4259366801,
				"y": 0.8189310095,
				"z": 2.7723687477,
				"element": "C" 
			},
			{
				"x": 3.4429941249,
				"y": 1.0370271295,
				"z": 1.8392973653,
				"element": "C" 
			},
			{
				"x": 3.2592477592,
				"y": 0.6373519375,
				"z": 0.5190248864,
				"element": "C" 
			},
			{
				"x": 2.0621956221,
				"y": 0.0283611302,
				"z": 0.1172089722,
				"element": "C" 
			},
			{
				"x": 1.9816420885,
				"y": -0.2960703342,
				"z": -1.2081195207,
				"element": "O" 
			},
			{
				"x": 1.114460307,
				"y": -1.3404552693,
				"z": -1.6618710412,
				"element": "C" 
			},
			{
				"x": -0.0047745915,
				"y": -0.7945851137,
				"z": -2.5597348771,
				"element": "C" 
			},
			{
				"x": -1.0314323468,
				"y": 0.0521928324,
				"z": -1.8404976715,
				"element": "C" 
			},
			{
				"x": -2.1756067419,
				"y": -0.5333212502,
				"z": -1.2797889805,
				"element": "C" 
			},
			{
				"x": -3.1064632373,
				"y": 0.2378290793,
				"z": -0.5814071828,
				"element": "C" 
			},
			{
				"x": -2.9068244713,
				"y": 1.6118520651,
				"z": -0.4350648436,
				"element": "C" 
			},
			{
				"x": -1.773729605,
				"y": 2.2072182145,
				"z": -0.9927223775,
				"element": "C" 
			},
			{
				"x": -0.8452351387,
				"y": 1.4331794402,
				"z": -1.6898115668,
				"element": "C" 
			},
			{
				"x": 1.0425095146,
				"y": -0.1730618272,
				"z": 1.0554509697,
				"element": "C" 
			},
			{
				"x": 1.2299247863,
				"y": 0.2182571046,
				"z": 2.3832990232,
				"element": "C" 
			},
			{
				"x": 4.3751205397,
				"y": 1.5048475785,
				"z": 2.1359463907,
				"element": "H" 
			},
			{
				"x": 4.0393318014,
				"y": 0.7873291712,
				"z": -0.2201356918,
				"element": "H" 
			},
			{
				"x": 0.7059074471,
				"y": -1.9030580935,
				"z": -0.8164609215,
				"element": "H" 
			},
			{
				"x": 1.7433924373,
				"y": -2.0230149826,
				"z": -2.2459179584,
				"element": "H" 
			},
			{
				"x": -0.4928425286,
				"y": -1.6582196523,
				"z": -3.0287796497,
				"element": "H" 
			},
			{
				"x": 0.4642431016,
				"y": -0.2191352756,
				"z": -3.3656370816,
				"element": "H" 
			},
			{
				"x": -2.342807581,
				"y": -1.601881469,
				"z": -1.3980191253,
				"element": "H" 
			},
			{
				"x": -3.9894393726,
				"y": -0.2330931866,
				"z": -0.1583026258,
				"element": "H" 
			},
			{
				"x": -3.630948072,
				"y": 2.2145546056,
				"z": 0.1054014767,
				"element": "H" 
			},
			{
				"x": -1.6121705525,
				"y": 3.2761027592,
				"z": -0.8856602338,
				"element": "H" 
			},
			{
				"x": 0.0367626205,
				"y": 1.9008377069,
				"z": -2.1185010386,
				"element": "H" 
			},
			{
				"x": 0.0895291479,
				"y": -0.5969394858,
				"z": 0.7619963546,
				"element": "H" 
			},
			{
				"x": 0.4320444339,
				"y": 0.0623028761,
				"z": 3.1008259,
				"element": "H" 
			}
		],
		 "valence_orbital": [ 
			{
				"type": "occ",
				"energy": -0.26172,
				"method": "rhf"
			},
			{
				"type": "occ",
				"energy": -0.25923,
				"method": "rhf"
			},
			{
				"type": "occ",
				"energy": -0.25249,
				"method": "rhf"
			},
			{
				"type": "occ",
				"energy": -0.24639,
				"method": "rhf"
			},
			{
				"type": "occ",
				"energy": -0.21536,
				"method": "rhf"
			},
			{
				"type": "unocc",
				"energy": -0.0313,
				"method": "rhf"
			},
			{
				"type": "unocc",
				"energy": -0.01073,
				"method": "rhf"
			},
			{
				"type": "unocc",
				"energy": -0.00625,
				"method": "rhf"
			},
			{
				"type": "unocc",
				"energy": -0.00434,
				"method": "rhf"
			},
			{
				"type": "unocc",
				"energy": -0.00057,
				"method": "rhf"
			}
		],
		"cosmo_sigma_profile": { 
			"-0.025": 0.0,
			"-0.024": 0.0,
			"-0.023": 0.0,
			"-0.022": 0.0,
			"-0.021": 0.0,
			"-0.02": 0.0,
			"-0.019": 0.0,
			"-0.018": 0.0,
			"-0.017": 0.0,
			"-0.016": 0.0,
			"-0.015": 0.0,
			"-0.014": 0.0,
			"-0.013": 0.0,
			"-0.012": 0.0,
			"-0.011": 0.0,
			"-0.01": 0.0,
			"-0.009": 0.0,
			"-0.008": 0.0,
			"-0.007": 2.14591860415,
			"-0.006": 10.7477640932,
			"-0.005": 26.5788389171,
			"-0.004": 31.3980526459,
			"-0.003": 28.3754341694,
			"-0.002": 19.4252948983,
			"-0.001": 18.6710316961,
			"0.0": 16.0241333927,
			"0.001": 18.6023178341,
			"0.002": 19.8954327846,
			"0.003": 28.4418720157,
			"0.004": 31.9136096618,
			"0.005": 25.4708587105,
			"0.006": 6.23775232016,
			"0.007": 2.46046126292,
			"0.008": 0.956027471823,
			"0.009": 0.697342349987,
			"0.01": 1.00925636143,
			"0.011": 0.167420487186,
			"0.012": 0.0,
			"0.013": 0.0,
			"0.014": 0.0,
			"0.015": 0.0,
			"0.016": 0.0,
			"0.017": 0.0,
			"0.018": 0.0,
			"0.019": 0.0,
			"0.02": 0.0,
			"0.021": 0.0,
			"0.022": 0.0,
			"0.023": 0.0,
			"0.024": 0.0,
			"0.025": 0.0
		}
	}
}
