{
	 "smiles": "NC(=S)C1(CCCC1)NC(=O)C1=CC=CC=C1", 
	 "Tm": 463.15, 
	 "num_atms": 33, 
	 "gaussian": { 
		 "optdone": 1, 
		 "sigma_profile": "yes", 
		 "theory": "DFT", 
		 "functional": "B3LYP", 
		 "basiset": "6-31G**", 
		 "properties": { 
			 "R2extent": 6270.8397, 
			 "electric_dipole_moment_norm": 5.57133919, 
			 "electric_quadrupole_moment_norm": 22.7766236231, 
			 "total_energy": -1087.95383156, 
			 "HOMO_LUMO_gap": 0.16332, 
			 "cosmo_polarized_energy": -18.62, 
			 "cosmo_cavitation_energy": 35.52, 
			 "cosmo_dispersion_energy": -25.02, 
			 "cosmo_repulsion_energy": 1.9, 
			 "cosmo_total_nonelectrostatic_energy": 12.4, 
			 "SMD_solvation_energy": 4.6 
		},
		"coords": [
			{
				"x": 1.5458666599,
				"y": 1.8752977591,
				"z": 0.27936445,
				"element": "N" 
			},
			{
				"x": 0.4020133399,
				"y": 1.6007027586,
				"z": -0.37608448,
				"element": "C" 
			},
			{
				"x": -0.8272492986,
				"y": 2.7193682551,
				"z": -0.4690303649,
				"element": "S" 
			},
			{
				"x": 0.3790231214,
				"y": 0.2012801066,
				"z": -1.0665570139,
				"element": "C" 
			},
			{
				"x": 0.7895687348,
				"y": -0.9255919962,
				"z": -0.0856891243,
				"element": "C" 
			},
			{
				"x": -0.4537156983,
				"y": -1.0982070395,
				"z": 0.8069891247,
				"element": "C" 
			},
			{
				"x": -1.664080501,
				"y": -0.8176796126,
				"z": -0.1272633039,
				"element": "C" 
			},
			{
				"x": -1.0545507878,
				"y": -0.2489030697,
				"z": -1.4288404949,
				"element": "C" 
			},
			{
				"x": 1.1517111097,
				"y": 0.3085582127,
				"z": -2.3292418008,
				"element": "N" 
			},
			{
				"x": 2.4838564749,
				"y": 0.650483731,
				"z": -2.5330425905,
				"element": "C" 
			},
			{
				"x": 2.7959863143,
				"y": 1.3901249858,
				"z": -3.4583197353,
				"element": "O" 
			},
			{
				"x": 3.5574210505,
				"y": 0.033667788,
				"z": -1.6787331445,
				"element": "C" 
			},
			{
				"x": 4.5828209784,
				"y": 0.8662417852,
				"z": -1.2029190084,
				"element": "C" 
			},
			{
				"x": 5.6488943364,
				"y": 0.3296536156,
				"z": -0.4824285892,
				"element": "C" 
			},
			{
				"x": 5.7237149916,
				"y": -1.0492396524,
				"z": -0.2671686834,
				"element": "C" 
			},
			{
				"x": 4.7298519783,
				"y": -1.887706207,
				"z": -0.7753464465,
				"element": "C" 
			},
			{
				"x": 3.6476358841,
				"y": -1.3496958707,
				"z": -1.473624434,
				"element": "C" 
			},
			{
				"x": 1.6682744078,
				"y": 2.8040732042,
				"z": 0.6574518508,
				"element": "H" 
			},
			{
				"x": 2.3442520562,
				"y": 1.2555548046,
				"z": 0.2627667775,
				"element": "H" 
			},
			{
				"x": 1.7009102985,
				"y": -0.7428814517,
				"z": 0.4862494778,
				"element": "H" 
			},
			{
				"x": 0.9564996746,
				"y": -1.8302043272,
				"z": -0.6782101912,
				"element": "H" 
			},
			{
				"x": -0.4287571005,
				"y": -0.3726677518,
				"z": 1.6268220986,
				"element": "H" 
			},
			{
				"x": -0.4843897288,
				"y": -2.0920287804,
				"z": 1.2627355042,
				"element": "H" 
			},
			{
				"x": -2.348579006,
				"y": -0.0979047597,
				"z": 0.3275571423,
				"element": "H" 
			},
			{
				"x": -2.237797845,
				"y": -1.7261720724,
				"z": -0.3326258641,
				"element": "H" 
			},
			{
				"x": -0.9525791737,
				"y": -1.0344200259,
				"z": -2.1852619442,
				"element": "H" 
			},
			{
				"x": -1.6400466691,
				"y": 0.5686977421,
				"z": -1.8530553233,
				"element": "H" 
			},
			{
				"x": 0.6048193974,
				"y": 0.7949953975,
				"z": -3.0357485739,
				"element": "H" 
			},
			{
				"x": 4.5366139891,
				"y": 1.9295239575,
				"z": -1.4174200154,
				"element": "H" 
			},
			{
				"x": 6.4296893221,
				"y": 0.983308301,
				"z": -0.1047427426,
				"element": "H" 
			},
			{
				"x": 6.5607217546,
				"y": -1.4692593113,
				"z": 0.2829235651,
				"element": "H" 
			},
			{
				"x": 4.7988874213,
				"y": -2.962213929,
				"z": -0.6330817798,
				"element": "H" 
			},
			{
				"x": 2.885412513,
				"y": -2.0026565472,
				"z": -1.8846243422,
				"element": "H" 
			}
		],
		 "valence_orbital": [ 
			{
				"type": "occ",
				"energy": -0.27089,
				"method": "rhf"
			},
			{
				"type": "occ",
				"energy": -0.26888,
				"method": "rhf"
			},
			{
				"type": "occ",
				"energy": -0.24831,
				"method": "rhf"
			},
			{
				"type": "occ",
				"energy": -0.23633,
				"method": "rhf"
			},
			{
				"type": "occ",
				"energy": -0.21132,
				"method": "rhf"
			},
			{
				"type": "unocc",
				"energy": -0.048,
				"method": "rhf"
			},
			{
				"type": "unocc",
				"energy": -0.03375,
				"method": "rhf"
			},
			{
				"type": "unocc",
				"energy": -0.02152,
				"method": "rhf"
			},
			{
				"type": "unocc",
				"energy": 0.02912,
				"method": "rhf"
			},
			{
				"type": "unocc",
				"energy": 0.06241,
				"method": "rhf"
			}
		],
		"cosmo_sigma_profile": { 
			"-0.025": 0.0,
			"-0.024": 0.0,
			"-0.023": 0.0,
			"-0.022": 0.0,
			"-0.021": 0.0,
			"-0.02": 0.0,
			"-0.019": 0.0,
			"-0.018": 0.0,
			"-0.017": 0.0,
			"-0.016": 0.0,
			"-0.015": 0.970995846245,
			"-0.014": 1.07377418257,
			"-0.013": 1.16650692483,
			"-0.012": 2.19179242618,
			"-0.011": 2.48005735561,
			"-0.01": 3.04706593659,
			"-0.009": 2.75109879704,
			"-0.008": 2.77200485001,
			"-0.007": 5.25009801461,
			"-0.006": 14.0762779607,
			"-0.005": 16.1720340154,
			"-0.004": 18.9124186652,
			"-0.003": 21.870209383,
			"-0.002": 26.1251223458,
			"-0.001": 26.4407547788,
			"0.0": 24.9399861646,
			"0.001": 18.9039512895,
			"0.002": 12.9269047707,
			"0.003": 13.0598955829,
			"0.004": 13.4823985481,
			"0.005": 7.9865435782,
			"0.006": 6.54443926169,
			"0.007": 5.93892563955,
			"0.008": 8.57161717779,
			"0.009": 7.06128673901,
			"0.01": 3.9060315553,
			"0.011": 3.78589872992,
			"0.012": 4.03164916119,
			"0.013": 4.80047145264,
			"0.014": 1.10119057423,
			"0.015": 0.0,
			"0.016": 0.0,
			"0.017": 0.0,
			"0.018": 0.0,
			"0.019": 0.0,
			"0.02": 0.0,
			"0.021": 0.0,
			"0.022": 0.0,
			"0.023": 0.0,
			"0.024": 0.0,
			"0.025": 0.0
		}
	}
}
