{
	 "smiles": "COC1=CC(=C(NC(=O)OC2=CC=CC=C2)C=C1)[N+]([O-])=O", 
	 "Tm": 318.65, 
	 "num_atms": 33, 
	 "gaussian": { 
		 "optdone": 1, 
		 "sigma_profile": "yes", 
		 "theory": "DFT", 
		 "functional": "B3LYP", 
		 "basiset": "6-31G**", 
		 "properties": { 
			 "R2extent": 7538.8855, 
			 "electric_dipole_moment_norm": 5.14849322229, 
			 "electric_quadrupole_moment_norm": 17.7391145619, 
			 "total_energy": -1026.23837687, 
			 "HOMO_LUMO_gap": 0.14369, 
			 "cosmo_polarized_energy": -17.72, 
			 "cosmo_cavitation_energy": 38.57, 
			 "cosmo_dispersion_energy": -27.12, 
			 "cosmo_repulsion_energy": 2.06, 
			 "cosmo_total_nonelectrostatic_energy": 13.5, 
			 "SMD_solvation_energy": 10.49 
		},
		"coords": [
			{
				"x": -0.599649661,
				"y": 1.3895649081,
				"z": 4.8893793827,
				"element": "C" 
			},
			{
				"x": 0.4261611647,
				"y": 0.5682150018,
				"z": 4.3442020876,
				"element": "O" 
			},
			{
				"x": 0.2023613124,
				"y": -0.027611637,
				"z": 3.1442703755,
				"element": "C" 
			},
			{
				"x": -0.9716837861,
				"y": 0.0942233146,
				"z": 2.4027007738,
				"element": "C" 
			},
			{
				"x": -1.0998716244,
				"y": -0.5865316275,
				"z": 1.1879533158,
				"element": "C" 
			},
			{
				"x": -0.0529920223,
				"y": -1.3434244116,
				"z": 0.6397841542,
				"element": "C" 
			},
			{
				"x": -0.0858427287,
				"y": -2.0111183213,
				"z": -0.6009373313,
				"element": "N" 
			},
			{
				"x": -0.4740409729,
				"y": -1.5512393341,
				"z": -1.8415040649,
				"element": "C" 
			},
			{
				"x": -0.4409307649,
				"y": -2.2368068103,
				"z": -2.83821794,
				"element": "O" 
			},
			{
				"x": -0.8454958685,
				"y": -0.2423807698,
				"z": -1.7745265902,
				"element": "O" 
			},
			{
				"x": -1.3358898095,
				"y": 0.3963093807,
				"z": -2.9213406741,
				"element": "C" 
			},
			{
				"x": -2.5490041108,
				"y": 1.0669975919,
				"z": -2.7862162141,
				"element": "C" 
			},
			{
				"x": -3.0424807045,
				"y": 1.7923889527,
				"z": -3.8716107659,
				"element": "C" 
			},
			{
				"x": -2.3313515247,
				"y": 1.8372921549,
				"z": -5.0722021918,
				"element": "C" 
			},
			{
				"x": -1.1179968538,
				"y": 1.155308119,
				"z": -5.1860709121,
				"element": "C" 
			},
			{
				"x": -0.6070253687,
				"y": 0.4308153762,
				"z": -4.1083950113,
				"element": "C" 
			},
			{
				"x": 1.1214146908,
				"y": -1.4376883901,
				"z": 1.4074442646,
				"element": "C" 
			},
			{
				"x": 1.2478937405,
				"y": -0.8178750615,
				"z": 2.6396737845,
				"element": "C" 
			},
			{
				"x": -2.4210606616,
				"y": -0.4928929833,
				"z": 0.54711324,
				"element": "N" 
			},
			{
				"x": -2.8289110793,
				"y": -1.4636391364,
				"z": -0.0823341787,
				"element": "O" 
			},
			{
				"x": -3.055944218,
				"y": 0.5506711417,
				"z": 0.7146480413,
				"element": "O" 
			},
			{
				"x": -0.2090691284,
				"y": 1.7677110184,
				"z": 5.8345956497,
				"element": "H" 
			},
			{
				"x": -1.5152485803,
				"y": 0.8157708717,
				"z": 5.0790985847,
				"element": "H" 
			},
			{
				"x": -0.8317609663,
				"y": 2.2335999025,
				"z": 4.2283359567,
				"element": "H" 
			},
			{
				"x": -1.8097532932,
				"y": 0.6898598708,
				"z": 2.7359687068,
				"element": "H" 
			},
			{
				"x": 0.3026274759,
				"y": -2.9421973529,
				"z": -0.6408095207,
				"element": "H" 
			},
			{
				"x": -3.0868441654,
				"y": 1.0154283093,
				"z": -1.8454493404,
				"element": "H" 
			},
			{
				"x": -3.9871327539,
				"y": 2.3193888837,
				"z": -3.775558882,
				"element": "H" 
			},
			{
				"x": -2.7203437133,
				"y": 2.4001518438,
				"z": -5.9154517947,
				"element": "H" 
			},
			{
				"x": -0.5612560567,
				"y": 1.1854427044,
				"z": -6.1180926722,
				"element": "H" 
			},
			{
				"x": 0.3290225467,
				"y": -0.1075047228,
				"z": -4.1884201781,
				"element": "H" 
			},
			{
				"x": 1.9552574013,
				"y": -2.0032698765,
				"z": 1.002404926,
				"element": "H" 
			},
			{
				"x": 2.1601420847,
				"y": -0.9076589111,
				"z": 3.2195650185,
				"element": "H" 
			}
		],
		 "valence_orbital": [ 
			{
				"type": "occ",
				"energy": -0.28303,
				"method": "rhf"
			},
			{
				"type": "occ",
				"energy": -0.27709,
				"method": "rhf"
			},
			{
				"type": "occ",
				"energy": -0.24735,
				"method": "rhf"
			},
			{
				"type": "occ",
				"energy": -0.23774,
				"method": "rhf"
			},
			{
				"type": "occ",
				"energy": -0.23289,
				"method": "rhf"
			},
			{
				"type": "unocc",
				"energy": -0.0892,
				"method": "rhf"
			},
			{
				"type": "unocc",
				"energy": -0.02587,
				"method": "rhf"
			},
			{
				"type": "unocc",
				"energy": -0.00838,
				"method": "rhf"
			},
			{
				"type": "unocc",
				"energy": 0.00178,
				"method": "rhf"
			},
			{
				"type": "unocc",
				"energy": 0.00304,
				"method": "rhf"
			}
		],
		"cosmo_sigma_profile": { 
			"-0.025": 0.0,
			"-0.024": 0.0,
			"-0.023": 0.0,
			"-0.022": 0.0,
			"-0.021": 0.0,
			"-0.02": 0.0,
			"-0.019": 0.0,
			"-0.018": 0.0,
			"-0.017": 0.0,
			"-0.016": 0.641985716355,
			"-0.015": 1.31344581534,
			"-0.014": 0.806803050955,
			"-0.013": 1.02259759423,
			"-0.012": 1.65953998656,
			"-0.011": 0.85217663793,
			"-0.01": 1.57374765588,
			"-0.009": 1.29619030592,
			"-0.008": 3.82666956131,
			"-0.007": 9.69275056191,
			"-0.006": 22.6172467145,
			"-0.005": 22.135408365,
			"-0.004": 23.2783004899,
			"-0.003": 18.2543597426,
			"-0.002": 16.627551032,
			"-0.001": 16.5565465568,
			"0.0": 21.8053766577,
			"0.001": 27.5031534113,
			"0.002": 22.9625321233,
			"0.003": 17.2665691193,
			"0.004": 16.6889046526,
			"0.005": 15.2836904873,
			"0.006": 8.26541177633,
			"0.007": 9.71787217424,
			"0.008": 9.71972362595,
			"0.009": 5.67380464233,
			"0.01": 3.41525443396,
			"0.011": 2.7518875034,
			"0.012": 5.46391791634,
			"0.013": 0.497284589888,
			"0.014": 0.0,
			"0.015": 0.0,
			"0.016": 0.0,
			"0.017": 0.0,
			"0.018": 0.0,
			"0.019": 0.0,
			"0.02": 0.0,
			"0.021": 0.0,
			"0.022": 0.0,
			"0.023": 0.0,
			"0.024": 0.0,
			"0.025": 0.0
		}
	}
}
