{
	 "smiles": "COC1=C(F)C=CC(C(N)=O)=C1F", 
	 "Tm": 384.65, 
	 "num_atms": 20, 
	 "gaussian": { 
		 "optdone": 1, 
		 "sigma_profile": "yes", 
		 "theory": "DFT", 
		 "functional": "B3LYP", 
		 "basiset": "6-31G**", 
		 "properties": { 
			 "R2extent": 2834.173, 
			 "electric_dipole_moment_norm": 3.53081384811, 
			 "electric_quadrupole_moment_norm": 17.511496263, 
			 "total_energy": -713.924569368, 
			 "HOMO_LUMO_gap": 0.21223, 
			 "cosmo_polarized_energy": -15.48, 
			 "cosmo_cavitation_energy": 25.74, 
			 "cosmo_dispersion_energy": -18.49, 
			 "cosmo_repulsion_energy": 1.45, 
			 "cosmo_total_nonelectrostatic_energy": 8.7, 
			 "SMD_solvation_energy": 7.05 
		},
		"coords": [
			{
				"x": 1.2354884287,
				"y": -2.73568784,
				"z": -3.0666283956,
				"element": "C" 
			},
			{
				"x": 0.5464711296,
				"y": -1.5037827383,
				"z": -2.8118584086,
				"element": "O" 
			},
			{
				"x": 0.537018174,
				"y": -1.085418973,
				"z": -1.5152207278,
				"element": "C" 
			},
			{
				"x": 1.6909244168,
				"y": -0.6767276392,
				"z": -0.8353043352,
				"element": "C" 
			},
			{
				"x": 2.8729874023,
				"y": -0.7666659937,
				"z": -1.4768856013,
				"element": "F" 
			},
			{
				"x": 1.6529081226,
				"y": -0.186534892,
				"z": 0.4630829897,
				"element": "C" 
			},
			{
				"x": 0.4208287919,
				"y": -0.0832016579,
				"z": 1.1046916237,
				"element": "C" 
			},
			{
				"x": -0.7672869268,
				"y": -0.476852358,
				"z": 0.4709247782,
				"element": "C" 
			},
			{
				"x": -2.0916113488,
				"y": -0.4274512934,
				"z": 1.1836679467,
				"element": "C" 
			},
			{
				"x": -2.2472878064,
				"y": 0.6560251659,
				"z": 2.0201360317,
				"element": "N" 
			},
			{
				"x": -2.9408005482,
				"y": -1.2972819421,
				"z": 1.0760356124,
				"element": "O" 
			},
			{
				"x": -0.6820302075,
				"y": -0.9844598824,
				"z": -0.8318066747,
				"element": "C" 
			},
			{
				"x": -1.784116471,
				"y": -1.358278145,
				"z": -1.4876140198,
				"element": "F" 
			},
			{
				"x": 2.3009629904,
				"y": -2.6524932883,
				"z": -2.8332285761,
				"element": "H" 
			},
			{
				"x": 1.1090115309,
				"y": -2.9334010714,
				"z": -4.1320738648,
				"element": "H" 
			},
			{
				"x": 0.7928383766,
				"y": -3.5558875909,
				"z": -2.4893987876,
				"element": "H" 
			},
			{
				"x": 2.5782156884,
				"y": 0.1047171201,
				"z": 0.9471592365,
				"element": "H" 
			},
			{
				"x": 0.3774074212,
				"y": 0.2792544863,
				"z": 2.1261690296,
				"element": "H" 
			},
			{
				"x": -1.7222111673,
				"y": 1.5012838445,
				"z": 1.8558035277,
				"element": "H" 
			},
			{
				"x": -3.1639179974,
				"y": 0.7559446888,
				"z": 2.4332486155,
				"element": "H" 
			}
		],
		 "valence_orbital": [ 
			{
				"type": "occ",
				"energy": -0.29724,
				"method": "rhf"
			},
			{
				"type": "occ",
				"energy": -0.27579,
				"method": "rhf"
			},
			{
				"type": "occ",
				"energy": -0.26091,
				"method": "rhf"
			},
			{
				"type": "occ",
				"energy": -0.24883,
				"method": "rhf"
			},
			{
				"type": "occ",
				"energy": -0.24769,
				"method": "rhf"
			},
			{
				"type": "unocc",
				"energy": -0.03546,
				"method": "rhf"
			},
			{
				"type": "unocc",
				"energy": -0.01595,
				"method": "rhf"
			},
			{
				"type": "unocc",
				"energy": 0.04358,
				"method": "rhf"
			},
			{
				"type": "unocc",
				"energy": 0.05823,
				"method": "rhf"
			},
			{
				"type": "unocc",
				"energy": 0.0843,
				"method": "rhf"
			}
		],
		"cosmo_sigma_profile": { 
			"-0.025": 0.0,
			"-0.024": 0.0,
			"-0.023": 0.0,
			"-0.022": 0.0,
			"-0.021": 0.0,
			"-0.02": 0.0,
			"-0.019": 0.0,
			"-0.018": 0.0,
			"-0.017": 0.0,
			"-0.016": 0.0,
			"-0.015": 0.185215080543,
			"-0.014": 1.40579483708,
			"-0.013": 2.67359553288,
			"-0.012": 2.22783351312,
			"-0.011": 2.35342455126,
			"-0.01": 2.55996675716,
			"-0.009": 2.22698236937,
			"-0.008": 4.13699447983,
			"-0.007": 6.55251179451,
			"-0.006": 8.4218387129,
			"-0.005": 10.6994800428,
			"-0.004": 12.6809109329,
			"-0.003": 17.2899313017,
			"-0.002": 11.1576181593,
			"-0.001": 15.2285817443,
			"0.0": 15.9450831722,
			"0.001": 12.6387805077,
			"0.002": 11.9884911653,
			"0.003": 15.7359475829,
			"0.004": 11.8647277625,
			"0.005": 5.49208871825,
			"0.006": 4.41835799645,
			"0.007": 3.8918844098,
			"0.008": 3.19354803038,
			"0.009": 3.38932943893,
			"0.01": 3.90928978422,
			"0.011": 2.10376566137,
			"0.012": 3.30218133935,
			"0.013": 5.54884391587,
			"0.014": 2.49043229233,
			"0.015": 0.0325330458098,
			"0.016": 0.0,
			"0.017": 0.0,
			"0.018": 0.0,
			"0.019": 0.0,
			"0.02": 0.0,
			"0.021": 0.0,
			"0.022": 0.0,
			"0.023": 0.0,
			"0.024": 0.0,
			"0.025": 0.0
		}
	}
}
