{
	 "smiles": "NC1=C(CN2C=NC=N2)C=CC=C1", 
	 "Tm": 329.65, 
	 "num_atms": 23, 
	 "gaussian": { 
		 "optdone": 1, 
		 "sigma_profile": "yes", 
		 "theory": "DFT", 
		 "functional": "B3LYP", 
		 "basiset": "6-31G**", 
		 "properties": { 
			 "R2extent": 3303.2901, 
			 "electric_dipole_moment_norm": 1.57272798029, 
			 "electric_quadrupole_moment_norm": 14.1685513211, 
			 "total_energy": -567.981895862, 
			 "HOMO_LUMO_gap": 0.19485, 
			 "cosmo_polarized_energy": -12.34, 
			 "cosmo_cavitation_energy": 26.64, 
			 "cosmo_dispersion_energy": -19.53, 
			 "cosmo_repulsion_energy": 1.52, 
			 "cosmo_total_nonelectrostatic_energy": 8.64, 
			 "SMD_solvation_energy": 2.53 
		},
		"coords": [
			{
				"x": 3.0222809378,
				"y": -1.3663831311,
				"z": -1.2209170002,
				"element": "N" 
			},
			{
				"x": 1.6315172424,
				"y": -1.3538711303,
				"z": -1.1930967655,
				"element": "C" 
			},
			{
				"x": 0.9342840939,
				"y": -1.182315105,
				"z": 0.0287946307,
				"element": "C" 
			},
			{
				"x": 1.6884378077,
				"y": -1.0323789476,
				"z": 1.3305286629,
				"element": "C" 
			},
			{
				"x": 2.2563995108,
				"y": 0.3039695048,
				"z": 1.5644265812,
				"element": "N" 
			},
			{
				"x": 1.7895938431,
				"y": 1.3223228017,
				"z": 2.3173334541,
				"element": "C" 
			},
			{
				"x": 2.5842791621,
				"y": 2.3784353912,
				"z": 2.2233954284,
				"element": "N" 
			},
			{
				"x": 3.5473184324,
				"y": 1.9448408243,
				"z": 1.3692145825,
				"element": "C" 
			},
			{
				"x": 3.3980093966,
				"y": 0.6968827906,
				"z": 0.9415070205,
				"element": "N" 
			},
			{
				"x": -0.4634866748,
				"y": -1.2140267997,
				"z": 0.0328668007,
				"element": "C" 
			},
			{
				"x": -1.196398596,
				"y": -1.4234489883,
				"z": -1.1339177782,
				"element": "C" 
			},
			{
				"x": -0.5071204498,
				"y": -1.6109319071,
				"z": -2.3341484604,
				"element": "C" 
			},
			{
				"x": 0.8830571021,
				"y": -1.5743223156,
				"z": -2.3645484277,
				"element": "C" 
			},
			{
				"x": 3.4183727105,
				"y": -1.3542118555,
				"z": -2.1509040573,
				"element": "H" 
			},
			{
				"x": 3.4769635179,
				"y": -0.7005983779,
				"z": -0.5992982897,
				"element": "H" 
			},
			{
				"x": 1.0258283574,
				"y": -1.236920291,
				"z": 2.1750765329,
				"element": "H" 
			},
			{
				"x": 2.5261525196,
				"y": -1.7352689439,
				"z": 1.3769999102,
				"element": "H" 
			},
			{
				"x": 0.88898321,
				"y": 1.2488075713,
				"z": 2.9112067863,
				"element": "H" 
			},
			{
				"x": 4.38357104,
				"y": 2.5549154843,
				"z": 1.0564602925,
				"element": "H" 
			},
			{
				"x": -0.9854841015,
				"y": -1.0845598832,
				"z": 0.9788469678,
				"element": "H" 
			},
			{
				"x": -2.2808683867,
				"y": -1.4481573262,
				"z": -1.1061120404,
				"element": "H" 
			},
			{
				"x": -1.0551631848,
				"y": -1.780806827,
				"z": -3.2568972883,
				"element": "H" 
			},
			{
				"x": 1.4097725093,
				"y": -1.7128725388,
				"z": -3.305917543,
				"element": "H" 
			}
		],
		 "valence_orbital": [ 
			{
				"type": "occ",
				"energy": -0.29068,
				"method": "rhf"
			},
			{
				"type": "occ",
				"energy": -0.28083,
				"method": "rhf"
			},
			{
				"type": "occ",
				"energy": -0.27009,
				"method": "rhf"
			},
			{
				"type": "occ",
				"energy": -0.24907,
				"method": "rhf"
			},
			{
				"type": "occ",
				"energy": -0.20319,
				"method": "rhf"
			},
			{
				"type": "unocc",
				"energy": -0.00834,
				"method": "rhf"
			},
			{
				"type": "unocc",
				"energy": 0.00516,
				"method": "rhf"
			},
			{
				"type": "unocc",
				"energy": 0.01343,
				"method": "rhf"
			},
			{
				"type": "unocc",
				"energy": 0.04932,
				"method": "rhf"
			},
			{
				"type": "unocc",
				"energy": 0.08374,
				"method": "rhf"
			}
		],
		"cosmo_sigma_profile": { 
			"-0.025": 0.0,
			"-0.024": 0.0,
			"-0.023": 0.0,
			"-0.022": 0.0,
			"-0.021": 0.0,
			"-0.02": 0.0,
			"-0.019": 0.0,
			"-0.018": 0.0,
			"-0.017": 0.0,
			"-0.016": 0.0,
			"-0.015": 0.0,
			"-0.014": 0.0,
			"-0.013": 0.0552771169797,
			"-0.012": 0.84819595825,
			"-0.011": 1.79171155743,
			"-0.01": 5.05352528851,
			"-0.009": 4.81912515256,
			"-0.008": 7.24347276659,
			"-0.007": 7.00750037781,
			"-0.006": 10.2582018359,
			"-0.005": 13.5218082879,
			"-0.004": 14.0910023624,
			"-0.003": 14.269539049,
			"-0.002": 11.5603064313,
			"-0.001": 11.3581590342,
			"0.0": 13.2575142803,
			"0.001": 13.1575897582,
			"0.002": 13.2854528462,
			"0.003": 11.8283469613,
			"0.004": 12.9133093669,
			"0.005": 10.8377926482,
			"0.006": 11.2539676023,
			"0.007": 8.23925676629,
			"0.008": 3.37871410943,
			"0.009": 1.79206251856,
			"0.01": 1.95072471649,
			"0.011": 2.30847901263,
			"0.012": 1.20386941496,
			"0.013": 1.7396590823,
			"0.014": 1.73343384064,
			"0.015": 0.906219012018,
			"0.016": 1.20189358184,
			"0.017": 0.245670390707,
			"0.018": 0.0,
			"0.019": 0.0,
			"0.02": 0.0,
			"0.021": 0.0,
			"0.022": 0.0,
			"0.023": 0.0,
			"0.024": 0.0,
			"0.025": 0.0
		}
	}
}
