{
	 "smiles": "NC(=O)CN1C(S)=NN=C1C1=CC=CO1", 
	 "Tm": 587.15, 
	 "num_atms": 23, 
	 "gaussian": { 
		 "optdone": 1, 
		 "sigma_profile": "yes", 
		 "theory": "DFT", 
		 "functional": "B3LYP", 
		 "basiset": "6-31G**", 
		 "properties": { 
			 "R2extent": 3668.0774, 
			 "electric_dipole_moment_norm": 6.233519935, 
			 "electric_quadrupole_moment_norm": 23.287657519, 
			 "total_energy": -1077.26658719, 
			 "HOMO_LUMO_gap": 0.18869, 
			 "cosmo_polarized_energy": -25.57, 
			 "cosmo_cavitation_energy": 29.54, 
			 "cosmo_dispersion_energy": -21.89, 
			 "cosmo_repulsion_energy": 1.66, 
			 "cosmo_total_nonelectrostatic_energy": 9.3, 
			 "SMD_solvation_energy": 4.35 
		},
		"coords": [
			{
				"x": -0.2200784015,
				"y": -2.8266146177,
				"z": 1.7439139448,
				"element": "N" 
			},
			{
				"x": -0.3472493583,
				"y": -1.4842097549,
				"z": 1.5586661345,
				"element": "C" 
			},
			{
				"x": 0.1070583674,
				"y": -0.6536282151,
				"z": 2.330446152,
				"element": "O" 
			},
			{
				"x": -1.1358735823,
				"y": -1.071676164,
				"z": 0.3009609056,
				"element": "C" 
			},
			{
				"x": -0.2866607732,
				"y": -0.4513466601,
				"z": -0.7063366785,
				"element": "N" 
			},
			{
				"x": 0.4211945991,
				"y": -1.0901175277,
				"z": -1.6980324509,
				"element": "C" 
			},
			{
				"x": 0.5938760961,
				"y": -2.8504945163,
				"z": -1.7629172033,
				"element": "S" 
			},
			{
				"x": 0.9300627753,
				"y": -0.2322350395,
				"z": -2.5482522393,
				"element": "N" 
			},
			{
				"x": 0.5606795795,
				"y": 1.025396329,
				"z": -2.1257365325,
				"element": "N" 
			},
			{
				"x": -0.1540253142,
				"y": 0.8925371991,
				"z": -1.0262970427,
				"element": "C" 
			},
			{
				"x": -0.7307345782,
				"y": 1.9774890289,
				"z": -0.2562335901,
				"element": "C" 
			},
			{
				"x": -0.944570488,
				"y": 2.1757399962,
				"z": 1.0848437506,
				"element": "C" 
			},
			{
				"x": -1.5129593849,
				"y": 3.4820397106,
				"z": 1.2064377562,
				"element": "C" 
			},
			{
				"x": -1.5951252334,
				"y": 3.980642152,
				"z": -0.0594725977,
				"element": "C" 
			},
			{
				"x": -1.1276177801,
				"y": 3.0801018765,
				"z": -0.963101024,
				"element": "O" 
			},
			{
				"x": -0.4892262264,
				"y": -3.4954039365,
				"z": 1.0395800392,
				"element": "H" 
			},
			{
				"x": 0.3478342571,
				"y": -3.1429223209,
				"z": 2.5169236056,
				"element": "H" 
			},
			{
				"x": -1.6492154856,
				"y": -1.9217521684,
				"z": -0.1583314058,
				"element": "H" 
			},
			{
				"x": -1.881822532,
				"y": -0.3351640167,
				"z": 0.6063834878,
				"element": "H" 
			},
			{
				"x": 0.7868363195,
				"y": -2.8754809208,
				"z": -3.0943616806,
				"element": "H" 
			},
			{
				"x": -0.6770379623,
				"y": 1.4852192348,
				"z": 1.8727723169,
				"element": "H" 
			},
			{
				"x": -1.806435684,
				"y": 3.9837159824,
				"z": 2.1171230599,
				"element": "H" 
			},
			{
				"x": -1.9456092095,
				"y": 4.9148643492,
				"z": -0.4701787077,
				"element": "H" 
			}
		],
		 "valence_orbital": [ 
			{
				"type": "occ",
				"energy": -0.2828,
				"method": "rhf"
			},
			{
				"type": "occ",
				"energy": -0.27274,
				"method": "rhf"
			},
			{
				"type": "occ",
				"energy": -0.26128,
				"method": "rhf"
			},
			{
				"type": "occ",
				"energy": -0.25583,
				"method": "rhf"
			},
			{
				"type": "occ",
				"energy": -0.21366,
				"method": "rhf"
			},
			{
				"type": "unocc",
				"energy": -0.02497,
				"method": "rhf"
			},
			{
				"type": "unocc",
				"energy": -0.01249,
				"method": "rhf"
			},
			{
				"type": "unocc",
				"energy": -0.00109,
				"method": "rhf"
			},
			{
				"type": "unocc",
				"energy": 0.02392,
				"method": "rhf"
			},
			{
				"type": "unocc",
				"energy": 0.04076,
				"method": "rhf"
			}
		],
		"cosmo_sigma_profile": { 
			"-0.025": 0.0,
			"-0.024": 0.0,
			"-0.023": 0.0,
			"-0.022": 0.0,
			"-0.021": 0.0,
			"-0.02": 0.0,
			"-0.019": 0.0,
			"-0.018": 0.0,
			"-0.017": 0.0,
			"-0.016": 0.0,
			"-0.015": 0.99470737179,
			"-0.014": 3.2683716573,
			"-0.013": 3.42484179325,
			"-0.012": 4.51568681874,
			"-0.011": 2.99156957903,
			"-0.01": 4.01592774502,
			"-0.009": 6.47139030109,
			"-0.008": 8.01198402357,
			"-0.007": 11.6261080114,
			"-0.006": 10.3320844639,
			"-0.005": 10.8461425132,
			"-0.004": 11.7345536536,
			"-0.003": 11.3870821938,
			"-0.002": 11.4774924051,
			"-0.001": 14.1912380436,
			"0.0": 12.7465394695,
			"0.001": 14.103589049,
			"0.002": 16.0485763317,
			"0.003": 14.147688025,
			"0.004": 12.519182789,
			"0.005": 8.02678225303,
			"0.006": 4.93006447328,
			"0.007": 4.4443167114,
			"0.008": 4.56885913921,
			"0.009": 4.81830309358,
			"0.01": 4.03060319448,
			"0.011": 5.06364908299,
			"0.012": 6.45085896703,
			"0.013": 4.99710896324,
			"0.014": 2.97118079981,
			"0.015": 2.6053156624,
			"0.016": 1.55786245728,
			"0.017": 0.250061472785,
			"0.018": 0.0,
			"0.019": 0.0,
			"0.02": 0.0,
			"0.021": 0.0,
			"0.022": 0.0,
			"0.023": 0.0,
			"0.024": 0.0,
			"0.025": 0.0
		}
	}
}
