{
	 "smiles": "CC1=CC=C(OCC2=NC(N)=NO2)C=C1", 
	 "Tm": 418.15, 
	 "num_atms": 26, 
	 "gaussian": { 
		 "optdone": 1, 
		 "sigma_profile": "yes", 
		 "theory": "DFT", 
		 "functional": "B3LYP", 
		 "basiset": "6-31G**", 
		 "properties": { 
			 "R2extent": 4097.3923, 
			 "electric_dipole_moment_norm": 2.70390304005, 
			 "electric_quadrupole_moment_norm": 11.7462391722, 
			 "total_energy": -702.349056791, 
			 "HOMO_LUMO_gap": 0.19278, 
			 "cosmo_polarized_energy": -14.44, 
			 "cosmo_cavitation_energy": 30.92, 
			 "cosmo_dispersion_energy": -22.44, 
			 "cosmo_repulsion_energy": 1.79, 
			 "cosmo_total_nonelectrostatic_energy": 10.27, 
			 "SMD_solvation_energy": 3.68 
		},
		"coords": [
			{
				"x": -4.7863145809,
				"y": 1.4009947007,
				"z": -0.5457698734,
				"element": "C" 
			},
			{
				"x": -3.3939558855,
				"y": 1.3104045274,
				"z": 0.0337747798,
				"element": "C" 
			},
			{
				"x": -2.7892006628,
				"y": 0.0801204636,
				"z": 0.2958563225,
				"element": "C" 
			},
			{
				"x": -1.4986243221,
				"y": -0.0143110507,
				"z": 0.8307372578,
				"element": "C" 
			},
			{
				"x": -0.7923548729,
				"y": 1.1555253215,
				"z": 1.1159704079,
				"element": "C" 
			},
			{
				"x": 0.473863173,
				"y": 1.2055089232,
				"z": 1.6567150827,
				"element": "O" 
			},
			{
				"x": 1.10544129,
				"y": -0.0029894729,
				"z": 2.0336861764,
				"element": "C" 
			},
			{
				"x": 1.6373604753,
				"y": -0.7962594967,
				"z": 0.8723027859,
				"element": "C" 
			},
			{
				"x": 1.4605721872,
				"y": -2.0648691103,
				"z": 0.6413885386,
				"element": "N" 
			},
			{
				"x": 2.2052936417,
				"y": -2.2478598677,
				"z": -0.507736574,
				"element": "C" 
			},
			{
				"x": 2.3416989866,
				"y": -3.4865500038,
				"z": -1.0771593902,
				"element": "N" 
			},
			{
				"x": 2.7952445577,
				"y": -1.1646016762,
				"z": -0.9713768165,
				"element": "N" 
			},
			{
				"x": 2.4161983335,
				"y": -0.182283266,
				"z": -0.0203614424,
				"element": "O" 
			},
			{
				"x": -1.3773429376,
				"y": 2.4024207909,
				"z": 0.8581020936,
				"element": "C" 
			},
			{
				"x": -2.657623424,
				"y": 2.4713491797,
				"z": 0.3251219217,
				"element": "C" 
			},
			{
				"x": -5.216403892,
				"y": 0.4082269157,
				"z": -0.7055487902,
				"element": "H" 
			},
			{
				"x": -5.4628139848,
				"y": 1.9530733882,
				"z": 0.1172872243,
				"element": "H" 
			},
			{
				"x": -4.7873328241,
				"y": 1.9223213711,
				"z": -1.5103170233,
				"element": "H" 
			},
			{
				"x": -3.3295933677,
				"y": -0.8375359771,
				"z": 0.0767636993,
				"element": "H" 
			},
			{
				"x": -1.0654644059,
				"y": -0.9935058524,
				"z": 0.9977656377,
				"element": "H" 
			},
			{
				"x": 1.943204522,
				"y": 0.2999531009,
				"z": 2.6692143071,
				"element": "H" 
			},
			{
				"x": 0.4457051794,
				"y": -0.6555977168,
				"z": 2.6158310656,
				"element": "H" 
			},
			{
				"x": 2.6645803008,
				"y": -3.4906068025,
				"z": -2.0339653277,
				"element": "H" 
			},
			{
				"x": 1.5831516248,
				"y": -4.1230774205,
				"z": -0.881780856,
				"element": "H" 
			},
			{
				"x": -0.8103842498,
				"y": 3.2993594041,
				"z": 1.085207422,
				"element": "H" 
			},
			{
				"x": -3.0972048621,
				"y": 3.4470896267,
				"z": 0.1317913708,
				"element": "H" 
			}
		],
		 "valence_orbital": [ 
			{
				"type": "occ",
				"energy": -0.30607,
				"method": "rhf"
			},
			{
				"type": "occ",
				"energy": -0.29743,
				"method": "rhf"
			},
			{
				"type": "occ",
				"energy": -0.24932,
				"method": "rhf"
			},
			{
				"type": "occ",
				"energy": -0.24363,
				"method": "rhf"
			},
			{
				"type": "occ",
				"energy": -0.21693,
				"method": "rhf"
			},
			{
				"type": "unocc",
				"energy": -0.02415,
				"method": "rhf"
			},
			{
				"type": "unocc",
				"energy": -0.00031,
				"method": "rhf"
			},
			{
				"type": "unocc",
				"energy": 0.01292,
				"method": "rhf"
			},
			{
				"type": "unocc",
				"energy": 0.05195,
				"method": "rhf"
			},
			{
				"type": "unocc",
				"energy": 0.06811,
				"method": "rhf"
			}
		],
		"cosmo_sigma_profile": { 
			"-0.025": 0.0,
			"-0.024": 0.0,
			"-0.023": 0.0,
			"-0.022": 0.0,
			"-0.021": 0.0,
			"-0.02": 0.0,
			"-0.019": 0.0,
			"-0.018": 0.0,
			"-0.017": 0.0,
			"-0.016": 0.0,
			"-0.015": 0.425711488752,
			"-0.014": 2.25109819498,
			"-0.013": 2.5606417217,
			"-0.012": 2.21248560124,
			"-0.011": 2.86401358074,
			"-0.01": 1.76500776451,
			"-0.009": 4.27095405788,
			"-0.008": 5.3350891203,
			"-0.007": 6.78556836064,
			"-0.006": 8.33808517265,
			"-0.005": 12.8738603763,
			"-0.004": 15.2831789922,
			"-0.003": 18.5650131183,
			"-0.002": 17.3816286001,
			"-0.001": 17.9975468548,
			"0.0": 16.5426719399,
			"0.001": 14.4209931712,
			"0.002": 12.6019523196,
			"0.003": 13.5059497434,
			"0.004": 13.5252482763,
			"0.005": 15.7743789146,
			"0.006": 11.6205536722,
			"0.007": 8.40918973617,
			"0.008": 4.85125431343,
			"0.009": 4.53642410467,
			"0.01": 2.80059596139,
			"0.011": 3.36229436651,
			"0.012": 1.80106808821,
			"0.013": 2.32954955278,
			"0.014": 1.13297540182,
			"0.015": 0.00783944371127,
			"0.016": 0.0,
			"0.017": 0.0,
			"0.018": 0.0,
			"0.019": 0.0,
			"0.02": 0.0,
			"0.021": 0.0,
			"0.022": 0.0,
			"0.023": 0.0,
			"0.024": 0.0,
			"0.025": 0.0
		}
	}
}
