{
	 "smiles": "CCCS(=O)(=O)NC1=C(F)C=C(F)C(N)=C1", 
	 "Tm": 369.15, 
	 "num_atms": 28, 
	 "gaussian": { 
		 "optdone": 1, 
		 "sigma_profile": "yes", 
		 "theory": "DFT", 
		 "functional": "B3LYP", 
		 "basiset": "6-31G**", 
		 "properties": { 
			 "R2extent": 4639.2234, 
			 "electric_dipole_moment_norm": 4.65466906342, 
			 "electric_quadrupole_moment_norm": 14.7566430491, 
			 "total_energy": -1207.94160718, 
			 "HOMO_LUMO_gap": 0.19181, 
			 "cosmo_polarized_energy": -18.61, 
			 "cosmo_cavitation_energy": 33.6, 
			 "cosmo_dispersion_energy": -23.8, 
			 "cosmo_repulsion_energy": 1.79, 
			 "cosmo_total_nonelectrostatic_energy": 11.59, 
			 "SMD_solvation_energy": 5.44 
		},
		"coords": [
			{
				"x": -1.9200573732,
				"y": 3.0441327845,
				"z": -1.2979578603,
				"element": "C" 
			},
			{
				"x": -0.5071590941,
				"y": 2.8283928532,
				"z": -0.7424866173,
				"element": "C" 
			},
			{
				"x": -0.5391184248,
				"y": 2.1197117597,
				"z": 0.6121054187,
				"element": "C" 
			},
			{
				"x": 1.0993468806,
				"y": 1.9133068281,
				"z": 1.374557799,
				"element": "S" 
			},
			{
				"x": 0.9026579878,
				"y": 1.1760729045,
				"z": 2.6234018213,
				"element": "O" 
			},
			{
				"x": 1.806198916,
				"y": 3.1939162319,
				"z": 1.3328883829,
				"element": "O" 
			},
			{
				"x": 1.9835096386,
				"y": 0.9094732439,
				"z": 0.3215588642,
				"element": "N" 
			},
			{
				"x": 1.5219444237,
				"y": -0.3801638918,
				"z": -0.0469756812,
				"element": "C" 
			},
			{
				"x": 1.3383014198,
				"y": -0.6790697755,
				"z": -1.399589869,
				"element": "C" 
			},
			{
				"x": 1.562804544,
				"y": 0.303788417,
				"z": -2.3143658404,
				"element": "F" 
			},
			{
				"x": 0.9337776353,
				"y": -1.9363544444,
				"z": -1.8246605161,
				"element": "C" 
			},
			{
				"x": 0.6933186889,
				"y": -2.8987631914,
				"z": -0.8583864323,
				"element": "C" 
			},
			{
				"x": 0.2738994667,
				"y": -4.1332956833,
				"z": -1.2329625566,
				"element": "F" 
			},
			{
				"x": 0.8523095108,
				"y": -2.6568594574,
				"z": 0.5157453144,
				"element": "C" 
			},
			{
				"x": 0.6543384,
				"y": -3.6886054277,
				"z": 1.4253808354,
				"element": "N" 
			},
			{
				"x": 1.2867856748,
				"y": -1.3815847819,
				"z": 0.9027356401,
				"element": "C" 
			},
			{
				"x": -1.8795892655,
				"y": 3.549210362,
				"z": -2.2675649618,
				"element": "H" 
			},
			{
				"x": -2.4446027652,
				"y": 2.0928721182,
				"z": -1.43906229,
				"element": "H" 
			},
			{
				"x": -2.5228944339,
				"y": 3.6625743976,
				"z": -0.6243186767,
				"element": "H" 
			},
			{
				"x": 0.0043782179,
				"y": 3.7894014852,
				"z": -0.6271431403,
				"element": "H" 
			},
			{
				"x": 0.0789827305,
				"y": 2.2333706629,
				"z": -1.4518030527,
				"element": "H" 
			},
			{
				"x": -0.968426681,
				"y": 1.1150717687,
				"z": 0.5500950817,
				"element": "H" 
			},
			{
				"x": -1.1063153308,
				"y": 2.685088933,
				"z": 1.3586764679,
				"element": "H" 
			},
			{
				"x": 2.3439460075,
				"y": 1.4554424792,
				"z": -0.4549693367,
				"element": "H" 
			},
			{
				"x": 0.7960668725,
				"y": -2.1563359615,
				"z": -2.8763416285,
				"element": "H" 
			},
			{
				"x": 0.0904438304,
				"y": -4.4522802416,
				"z": 1.0805157535,
				"element": "H" 
			},
			{
				"x": 0.4108034263,
				"y": -3.4030432772,
				"z": 2.3628155355,
				"element": "H" 
			},
			{
				"x": 1.4463490963,
				"y": -1.1521710958,
				"z": 1.9499115453,
				"element": "H" 
			}
		],
		 "valence_orbital": [ 
			{
				"type": "occ",
				"energy": -0.30676,
				"method": "rhf"
			},
			{
				"type": "occ",
				"energy": -0.30277,
				"method": "rhf"
			},
			{
				"type": "occ",
				"energy": -0.30135,
				"method": "rhf"
			},
			{
				"type": "occ",
				"energy": -0.24674,
				"method": "rhf"
			},
			{
				"type": "occ",
				"energy": -0.21295,
				"method": "rhf"
			},
			{
				"type": "unocc",
				"energy": -0.02114,
				"method": "rhf"
			},
			{
				"type": "unocc",
				"energy": 0.00023,
				"method": "rhf"
			},
			{
				"type": "unocc",
				"energy": 0.05003,
				"method": "rhf"
			},
			{
				"type": "unocc",
				"energy": 0.06916,
				"method": "rhf"
			},
			{
				"type": "unocc",
				"energy": 0.07311,
				"method": "rhf"
			}
		],
		"cosmo_sigma_profile": { 
			"-0.025": 0.0,
			"-0.024": 0.0,
			"-0.023": 0.0,
			"-0.022": 0.00262231021104,
			"-0.021": 0.0132794467673,
			"-0.02": 0.0123718841967,
			"-0.019": 0.00993683147627,
			"-0.018": 0.00209355389614,
			"-0.017": 0.000910535452594,
			"-0.016": 0.0266252784278,
			"-0.015": 0.420407182144,
			"-0.014": 0.542405537494,
			"-0.013": 1.72796860157,
			"-0.012": 2.75875843297,
			"-0.011": 2.58693404257,
			"-0.01": 3.80024731333,
			"-0.009": 4.96987194185,
			"-0.008": 7.05810898963,
			"-0.007": 8.72629931077,
			"-0.006": 9.4724220357,
			"-0.005": 10.9148309043,
			"-0.004": 14.6088710063,
			"-0.003": 19.3663666158,
			"-0.002": 17.8031499536,
			"-0.001": 18.6886508569,
			"0.0": 20.4599855958,
			"0.001": 22.9289281651,
			"0.002": 18.8702051003,
			"0.003": 14.2098008995,
			"0.004": 18.6812969672,
			"0.005": 6.38488171715,
			"0.006": 4.88327994597,
			"0.007": 4.3325477154,
			"0.008": 4.73867548937,
			"0.009": 4.66950525357,
			"0.01": 6.6099148713,
			"0.011": 10.6421286801,
			"0.012": 4.59995309799,
			"0.013": 0.505508673271,
			"0.014": 0.21801334173,
			"0.015": 0.0,
			"0.016": 0.0,
			"0.017": 0.0,
			"0.018": 0.0,
			"0.019": 0.0,
			"0.02": 0.0,
			"0.021": 0.0,
			"0.022": 0.0,
			"0.023": 0.0,
			"0.024": 0.0,
			"0.025": 0.0
		}
	}
}
