{
	 "smiles": "CCCC1=CC=CC=C1C", 
	 "Tm": 213.05, 
	 "num_atms": 24, 
	 "gaussian": { 
		 "optdone": 1, 
		 "sigma_profile": "yes", 
		 "theory": "DFT", 
		 "functional": "B3LYP", 
		 "basiset": "6-31G**", 
		 "properties": { 
			 "R2extent": 2056.6727, 
			 "electric_dipole_moment_norm": 0.521279560313, 
			 "electric_quadrupole_moment_norm": 3.61244980588, 
			 "total_energy": -389.521422189, 
			 "HOMO_LUMO_gap": 0.23455, 
			 "cosmo_polarized_energy": -3.12, 
			 "cosmo_cavitation_energy": 25.47, 
			 "cosmo_dispersion_energy": -18.4, 
			 "cosmo_repulsion_energy": 1.49, 
			 "cosmo_total_nonelectrostatic_energy": 8.57, 
			 "SMD_solvation_energy": 4.19 
		},
		"coords": [
			{
				"x": 0.8489636911,
				"y": 0.3226309291,
				"z": 2.0392971559,
				"element": "C" 
			},
			{
				"x": -0.097379086,
				"y": 1.062231765,
				"z": 1.0889802269,
				"element": "C" 
			},
			{
				"x": -0.6613906399,
				"y": 0.1827935757,
				"z": -0.0524820395,
				"element": "C" 
			},
			{
				"x": 0.3741780042,
				"y": -0.2954652122,
				"z": -1.0520765936,
				"element": "C" 
			},
			{
				"x": 0.9533425851,
				"y": -1.5620251352,
				"z": -0.8953901752,
				"element": "C" 
			},
			{
				"x": 1.9271963137,
				"y": -2.0383170197,
				"z": -1.7737642912,
				"element": "C" 
			},
			{
				"x": 2.334812554,
				"y": -1.2411081903,
				"z": -2.8412410906,
				"element": "C" 
			},
			{
				"x": 1.7590656154,
				"y": 0.0176196597,
				"z": -3.0164404783,
				"element": "C" 
			},
			{
				"x": 0.7825438378,
				"y": 0.5087068534,
				"z": -2.1406775173,
				"element": "C" 
			},
			{
				"x": 0.1749711729,
				"y": 1.870831937,
				"z": -2.3952494115,
				"element": "C" 
			},
			{
				"x": 1.7209786954,
				"y": -0.0718691228,
				"z": 1.5087944136,
				"element": "H" 
			},
			{
				"x": 0.3434328198,
				"y": -0.5218472652,
				"z": 2.5226372759,
				"element": "H" 
			},
			{
				"x": 1.2106583291,
				"y": 0.9885147773,
				"z": 2.8297618417,
				"element": "H" 
			},
			{
				"x": -0.9436699999,
				"y": 1.4651426526,
				"z": 1.6601106505,
				"element": "H" 
			},
			{
				"x": 0.4222813263,
				"y": 1.9281900117,
				"z": 0.6606914971,
				"element": "H" 
			},
			{
				"x": -1.1551214316,
				"y": -0.6894328266,
				"z": 0.3942855329,
				"element": "H" 
			},
			{
				"x": -1.4467071528,
				"y": 0.74600002,
				"z": -0.5699024884,
				"element": "H" 
			},
			{
				"x": 0.6273904476,
				"y": -2.1877479031,
				"z": -0.0679061073,
				"element": "H" 
			},
			{
				"x": 2.3578142137,
				"y": -3.0246881194,
				"z": -1.6258602966,
				"element": "H" 
			},
			{
				"x": 3.0896981443,
				"y": -1.5953467792,
				"z": -3.5375753955,
				"element": "H" 
			},
			{
				"x": 2.0696117532,
				"y": 0.6359222757,
				"z": -3.8554632009,
				"element": "H" 
			},
			{
				"x": 0.6184927803,
				"y": 2.3339799948,
				"z": -3.2808024983,
				"element": "H" 
			},
			{
				"x": -0.9069578363,
				"y": 1.807044231,
				"z": -2.5637571274,
				"element": "H" 
			},
			{
				"x": 0.3238938625,
				"y": 2.5565388906,
				"z": -1.5540698828,
				"element": "H" 
			}
		],
		 "valence_orbital": [ 
			{
				"type": "occ",
				"energy": -0.32933,
				"method": "rhf"
			},
			{
				"type": "occ",
				"energy": -0.32334,
				"method": "rhf"
			},
			{
				"type": "occ",
				"energy": -0.31299,
				"method": "rhf"
			},
			{
				"type": "occ",
				"energy": -0.23786,
				"method": "rhf"
			},
			{
				"type": "occ",
				"energy": -0.22973,
				"method": "rhf"
			},
			{
				"type": "unocc",
				"energy": 0.00482,
				"method": "rhf"
			},
			{
				"type": "unocc",
				"energy": 0.00861,
				"method": "rhf"
			},
			{
				"type": "unocc",
				"energy": 0.0904,
				"method": "rhf"
			},
			{
				"type": "unocc",
				"energy": 0.10194,
				"method": "rhf"
			},
			{
				"type": "unocc",
				"energy": 0.11482,
				"method": "rhf"
			}
		],
		"cosmo_sigma_profile": { 
			"-0.025": 0.0,
			"-0.024": 0.0,
			"-0.023": 0.0,
			"-0.022": 0.0,
			"-0.021": 0.0,
			"-0.02": 0.0,
			"-0.019": 0.0,
			"-0.018": 0.0,
			"-0.017": 0.0,
			"-0.016": 0.0,
			"-0.015": 0.0,
			"-0.014": 0.0,
			"-0.013": 0.0,
			"-0.012": 0.0,
			"-0.011": 0.0,
			"-0.01": 0.0,
			"-0.009": 0.0,
			"-0.008": 0.0,
			"-0.007": 0.0,
			"-0.006": 0.284613683289,
			"-0.005": 5.41791172176,
			"-0.004": 14.1686490953,
			"-0.003": 22.0991140717,
			"-0.002": 26.5227802116,
			"-0.001": 26.5331665893,
			"0.0": 28.7071839668,
			"0.001": 25.5373949524,
			"0.002": 14.5477282154,
			"0.003": 7.98257705351,
			"0.004": 7.21097916063,
			"0.005": 7.34022751443,
			"0.006": 7.07953141428,
			"0.007": 5.45934367278,
			"0.008": 0.618618643815,
			"0.009": 0.0,
			"0.01": 0.0,
			"0.011": 0.0,
			"0.012": 0.0,
			"0.013": 0.0,
			"0.014": 0.0,
			"0.015": 0.0,
			"0.016": 0.0,
			"0.017": 0.0,
			"0.018": 0.0,
			"0.019": 0.0,
			"0.02": 0.0,
			"0.021": 0.0,
			"0.022": 0.0,
			"0.023": 0.0,
			"0.024": 0.0,
			"0.025": 0.0
		}
	}
}
