{
	 "smiles": "NC(=O)C1=CC(N)=C(NCC2=CC=CC=C2)C=C1", 
	 "Tm": 443.15, 
	 "num_atms": 33, 
	 "gaussian": { 
		 "optdone": 1, 
		 "sigma_profile": "yes", 
		 "theory": "DFT", 
		 "functional": "B3LYP", 
		 "basiset": "6-31G**", 
		 "properties": { 
			 "R2extent": 6767.4356, 
			 "electric_dipole_moment_norm": 3.92312491007, 
			 "electric_quadrupole_moment_norm": 25.2974785404, 
			 "total_energy": -782.034608022, 
			 "HOMO_LUMO_gap": 0.17621, 
			 "cosmo_polarized_energy": -20.32, 
			 "cosmo_cavitation_energy": 36.64, 
			 "cosmo_dispersion_energy": -26.1, 
			 "cosmo_repulsion_energy": 2.04, 
			 "cosmo_total_nonelectrostatic_energy": 12.58, 
			 "SMD_solvation_energy": 6.02 
		},
		"coords": [
			{
				"x": 1.0836869971,
				"y": 5.7734085026,
				"z": -0.6670091057,
				"element": "N" 
			},
			{
				"x": 2.2037589604,
				"y": 5.0257736327,
				"z": -0.3664879013,
				"element": "C" 
			},
			{
				"x": 3.2682902601,
				"y": 5.5658245922,
				"z": -0.0799418171,
				"element": "O" 
			},
			{
				"x": 2.0526291285,
				"y": 3.5409614972,
				"z": -0.4353270291,
				"element": "C" 
			},
			{
				"x": 3.0825581341,
				"y": 2.764129615,
				"z": 0.1194852926,
				"element": "C" 
			},
			{
				"x": 3.0288460673,
				"y": 1.3781385005,
				"z": 0.1093490426,
				"element": "C" 
			},
			{
				"x": 4.0272289522,
				"y": 0.5642016554,
				"z": 0.6999522694,
				"element": "N" 
			},
			{
				"x": 1.907985416,
				"y": 0.7211400339,
				"z": -0.4688355216,
				"element": "C" 
			},
			{
				"x": 1.9085740249,
				"y": -0.6711187781,
				"z": -0.4479131103,
				"element": "N" 
			},
			{
				"x": 0.7742899847,
				"y": -1.4624555019,
				"z": -0.8846178732,
				"element": "C" 
			},
			{
				"x": -0.4989863876,
				"y": -1.3970031542,
				"z": -0.0419601375,
				"element": "C" 
			},
			{
				"x": -0.4813854855,
				"y": -1.0014799809,
				"z": 1.2991471559,
				"element": "C" 
			},
			{
				"x": -1.6547945742,
				"y": -1.0038832506,
				"z": 2.0564575296,
				"element": "C" 
			},
			{
				"x": -2.8619040098,
				"y": -1.4046221762,
				"z": 1.4827263077,
				"element": "C" 
			},
			{
				"x": -2.8897659172,
				"y": -1.7995531161,
				"z": 0.1433041999,
				"element": "C" 
			},
			{
				"x": -1.7168283368,
				"y": -1.7919081821,
				"z": -0.6113796584,
				"element": "C" 
			},
			{
				"x": 0.8992130395,
				"y": 1.4968473598,
				"z": -1.0556196181,
				"element": "C" 
			},
			{
				"x": 0.974250582,
				"y": 2.8896424942,
				"z": -1.0432211134,
				"element": "C" 
			},
			{
				"x": 1.174743159,
				"y": 6.7608478478,
				"z": -0.4755036601,
				"element": "H" 
			},
			{
				"x": 0.167076598,
				"y": 5.3739137548,
				"z": -0.5378203381,
				"element": "H" 
			},
			{
				"x": 3.9347376104,
				"y": 3.2821858339,
				"z": 0.5500085543,
				"element": "H" 
			},
			{
				"x": 4.7872452815,
				"y": 1.1143617616,
				"z": 1.0837904907,
				"element": "H" 
			},
			{
				"x": 4.4074684236,
				"y": -0.1084789236,
				"z": 0.0380289783,
				"element": "H" 
			},
			{
				"x": 2.4247626191,
				"y": -1.0462468637,
				"z": 0.3393374787,
				"element": "H" 
			},
			{
				"x": 1.116387855,
				"y": -2.5042826101,
				"z": -0.9278688507,
				"element": "H" 
			},
			{
				"x": 0.5356751404,
				"y": -1.187585154,
				"z": -1.9190268772,
				"element": "H" 
			},
			{
				"x": 0.4508732441,
				"y": -0.6774110981,
				"z": 1.7522961222,
				"element": "H" 
			},
			{
				"x": -1.6241425059,
				"y": -0.6888481265,
				"z": 3.0957846152,
				"element": "H" 
			},
			{
				"x": -3.7743904762,
				"y": -1.4051594734,
				"z": 2.0719169038,
				"element": "H" 
			},
			{
				"x": -3.8253884897,
				"y": -2.1076655874,
				"z": -0.3151551093,
				"element": "H" 
			},
			{
				"x": -1.7467402267,
				"y": -2.0962371025,
				"z": -1.655816386,
				"element": "H" 
			},
			{
				"x": 0.0383029937,
				"y": 1.0139545707,
				"z": -1.5034941972,
				"element": "H" 
			},
			{
				"x": 0.188641938,
				"y": 3.456507427,
				"z": -1.5335866368,
				"element": "H" 
			}
		],
		 "valence_orbital": [ 
			{
				"type": "occ",
				"energy": -0.25191,
				"method": "rhf"
			},
			{
				"type": "occ",
				"energy": -0.24527,
				"method": "rhf"
			},
			{
				"type": "occ",
				"energy": -0.23742,
				"method": "rhf"
			},
			{
				"type": "occ",
				"energy": -0.22447,
				"method": "rhf"
			},
			{
				"type": "occ",
				"energy": -0.19232,
				"method": "rhf"
			},
			{
				"type": "unocc",
				"energy": -0.01611,
				"method": "rhf"
			},
			{
				"type": "unocc",
				"energy": -0.00565,
				"method": "rhf"
			},
			{
				"type": "unocc",
				"energy": -0.00237,
				"method": "rhf"
			},
			{
				"type": "unocc",
				"energy": 0.01274,
				"method": "rhf"
			},
			{
				"type": "unocc",
				"energy": 0.06774,
				"method": "rhf"
			}
		],
		"cosmo_sigma_profile": { 
			"-0.025": 0.0,
			"-0.024": 0.0,
			"-0.023": 0.0,
			"-0.022": 0.0,
			"-0.021": 0.0,
			"-0.02": 0.0,
			"-0.019": 0.0,
			"-0.018": 0.0,
			"-0.017": 0.0,
			"-0.016": 0.0,
			"-0.015": 0.0,
			"-0.014": 0.272421673207,
			"-0.013": 2.01563794664,
			"-0.012": 3.37762879254,
			"-0.011": 5.48008602737,
			"-0.01": 5.85988323563,
			"-0.009": 6.52883517236,
			"-0.008": 7.4313270361,
			"-0.007": 6.69573138079,
			"-0.006": 10.677390819,
			"-0.005": 22.83752144,
			"-0.004": 21.3391180947,
			"-0.003": 19.6138928073,
			"-0.002": 16.0642587582,
			"-0.001": 14.3000052747,
			"0.0": 13.5563801644,
			"0.001": 15.0860045413,
			"0.002": 12.8709669869,
			"0.003": 15.6816319751,
			"0.004": 18.4400672899,
			"0.005": 21.7191941193,
			"0.006": 19.7801758547,
			"0.007": 6.16035378701,
			"0.008": 3.89503790256,
			"0.009": 2.58293785862,
			"0.01": 2.33532579755,
			"0.011": 2.33383241866,
			"0.012": 2.63466032614,
			"0.013": 2.89735656929,
			"0.014": 6.38385686697,
			"0.015": 1.60298620208,
			"0.016": 0.0,
			"0.017": 0.0,
			"0.018": 0.0,
			"0.019": 0.0,
			"0.02": 0.0,
			"0.021": 0.0,
			"0.022": 0.0,
			"0.023": 0.0,
			"0.024": 0.0,
			"0.025": 0.0
		}
	}
}
