{
	 "smiles": "NC1=CC(=CC=C1)C(=O)N1CCC(O)CC1", 
	 "Tm": 402.15, 
	 "num_atms": 32, 
	 "gaussian": { 
		 "optdone": 1, 
		 "sigma_profile": "yes", 
		 "theory": "DFT", 
		 "functional": "B3LYP", 
		 "basiset": "6-31G**", 
		 "properties": { 
			 "R2extent": 4919.3769, 
			 "electric_dipole_moment_norm": 3.19787360132, 
			 "electric_quadrupole_moment_norm": 26.1527434148, 
			 "total_energy": -726.885847251, 
			 "HOMO_LUMO_gap": 0.18424, 
			 "cosmo_polarized_energy": -19.28, 
			 "cosmo_cavitation_energy": 33.83, 
			 "cosmo_dispersion_energy": -24.5, 
			 "cosmo_repulsion_energy": 1.92, 
			 "cosmo_total_nonelectrostatic_energy": 11.26, 
			 "SMD_solvation_energy": 5.24 
		},
		"coords": [
			{
				"x": -3.7070664738,
				"y": 2.2833502698,
				"z": -3.4143387267,
				"element": "N" 
			},
			{
				"x": -3.2366739957,
				"y": 1.3569198494,
				"z": -2.4849174864,
				"element": "C" 
			},
			{
				"x": -2.1878286407,
				"y": 1.6873077383,
				"z": -1.6131978365,
				"element": "C" 
			},
			{
				"x": -1.7367658418,
				"y": 0.777441478,
				"z": -0.6539690555,
				"element": "C" 
			},
			{
				"x": -2.3594379791,
				"y": -0.4729247837,
				"z": -0.5265999407,
				"element": "C" 
			},
			{
				"x": -3.4142961125,
				"y": -0.7984320309,
				"z": -1.3805036605,
				"element": "C" 
			},
			{
				"x": -3.8456302496,
				"y": 0.0950049655,
				"z": -2.3570932419,
				"element": "C" 
			},
			{
				"x": -0.659286568,
				"y": 1.2501995497,
				"z": 0.2871216339,
				"element": "C" 
			},
			{
				"x": -0.7057141482,
				"y": 2.3896987623,
				"z": 0.7474371031,
				"element": "O" 
			},
			{
				"x": 0.3345704531,
				"y": 0.3615478574,
				"z": 0.6505427379,
				"element": "N" 
			},
			{
				"x": 1.2998887919,
				"y": 0.7908114314,
				"z": 1.664316193,
				"element": "C" 
			},
			{
				"x": 1.6529614483,
				"y": -0.3842717554,
				"z": 2.5851530961,
				"element": "C" 
			},
			{
				"x": 2.1561121825,
				"y": -1.5928271336,
				"z": 1.7858420337,
				"element": "C" 
			},
			{
				"x": 2.3529958879,
				"y": -2.7411571639,
				"z": 2.6031085218,
				"element": "O" 
			},
			{
				"x": 1.1424042895,
				"y": -1.9719225759,
				"z": 0.7068236363,
				"element": "C" 
			},
			{
				"x": 0.7991111803,
				"y": -0.7617016262,
				"z": -0.1688290695,
				"element": "C" 
			},
			{
				"x": -4.1855525054,
				"y": 1.8954971954,
				"z": -4.2149632432,
				"element": "H" 
			},
			{
				"x": -3.0555771359,
				"y": 3.0113734889,
				"z": -3.6710486201,
				"element": "H" 
			},
			{
				"x": -1.723560196,
				"y": 2.6680219641,
				"z": -1.6608894936,
				"element": "H" 
			},
			{
				"x": -2.045018377,
				"y": -1.1658583255,
				"z": 0.2467436602,
				"element": "H" 
			},
			{
				"x": -3.9103833023,
				"y": -1.7600894304,
				"z": -1.2829164988,
				"element": "H" 
			},
			{
				"x": -4.6678943125,
				"y": -0.1723213734,
				"z": -3.0164152679,
				"element": "H" 
			},
			{
				"x": 0.8582330852,
				"y": 1.6208719999,
				"z": 2.214524437,
				"element": "H" 
			},
			{
				"x": 2.2098036959,
				"y": 1.1729280144,
				"z": 1.1734450405,
				"element": "H" 
			},
			{
				"x": 0.7662256239,
				"y": -0.6881404329,
				"z": 3.1539290964,
				"element": "H" 
			},
			{
				"x": 2.4150068052,
				"y": -0.0627782238,
				"z": 3.3079112077,
				"element": "H" 
			},
			{
				"x": 3.1022171377,
				"y": -1.3123824323,
				"z": 1.2874380834,
				"element": "H" 
			},
			{
				"x": 2.9834791139,
				"y": -2.5081458968,
				"z": 3.2971217016,
				"element": "H" 
			},
			{
				"x": 1.5449225189,
				"y": -2.7815047348,
				"z": 0.0884808182,
				"element": "H" 
			},
			{
				"x": 0.2371496363,
				"y": -2.3492933861,
				"z": 1.1973827942,
				"element": "H" 
			},
			{
				"x": 1.6989319097,
				"y": -0.4473148678,
				"z": -0.7239749876,
				"element": "H" 
			},
			{
				"x": 0.0399720787,
				"y": -1.0165083913,
				"z": -0.9059646661,
				"element": "H" 
			}
		],
		 "valence_orbital": [ 
			{
				"type": "occ",
				"energy": -0.26933,
				"method": "rhf"
			},
			{
				"type": "occ",
				"energy": -0.25674,
				"method": "rhf"
			},
			{
				"type": "occ",
				"energy": -0.23815,
				"method": "rhf"
			},
			{
				"type": "occ",
				"energy": -0.22908,
				"method": "rhf"
			},
			{
				"type": "occ",
				"energy": -0.20467,
				"method": "rhf"
			},
			{
				"type": "unocc",
				"energy": -0.02043,
				"method": "rhf"
			},
			{
				"type": "unocc",
				"energy": 0.01089,
				"method": "rhf"
			},
			{
				"type": "unocc",
				"energy": 0.05325,
				"method": "rhf"
			},
			{
				"type": "unocc",
				"energy": 0.07787,
				"method": "rhf"
			},
			{
				"type": "unocc",
				"energy": 0.07954,
				"method": "rhf"
			}
		],
		"cosmo_sigma_profile": { 
			"-0.025": 0.0,
			"-0.024": 0.0,
			"-0.023": 0.0,
			"-0.022": 0.0,
			"-0.021": 0.0,
			"-0.02": 0.0,
			"-0.019": 0.0,
			"-0.018": 0.0,
			"-0.017": 0.0,
			"-0.016": 0.0574832678553,
			"-0.015": 0.728020071217,
			"-0.014": 1.15684508575,
			"-0.013": 1.54705217267,
			"-0.012": 3.31212265705,
			"-0.011": 3.59436732813,
			"-0.01": 4.13149747203,
			"-0.009": 4.07027646882,
			"-0.008": 4.07486721328,
			"-0.007": 4.5414421479,
			"-0.006": 6.05120052399,
			"-0.005": 10.8975373579,
			"-0.004": 25.7003289059,
			"-0.003": 32.2274823253,
			"-0.002": 26.2943068537,
			"-0.001": 20.3627619993,
			"0.0": 15.6009551016,
			"0.001": 12.267155663,
			"0.002": 9.5575574365,
			"0.003": 8.4181656044,
			"0.004": 10.3590072532,
			"0.005": 12.4140808321,
			"0.006": 10.8072266303,
			"0.007": 3.50096140391,
			"0.008": 4.23015608171,
			"0.009": 4.30534159448,
			"0.01": 3.03025707048,
			"0.011": 3.1972614782,
			"0.012": 4.1573765685,
			"0.013": 5.57356022476,
			"0.014": 7.11851370466,
			"0.015": 1.42155122432,
			"0.016": 0.0109987700178,
			"0.017": 0.0,
			"0.018": 0.0,
			"0.019": 0.0,
			"0.02": 0.0,
			"0.021": 0.0,
			"0.022": 0.0,
			"0.023": 0.0,
			"0.024": 0.0,
			"0.025": 0.0
		}
	}
}
