{
	 "smiles": "BrC1=CC=C(OC2=CC=CC=C2)C(Br)=C1", 
	 "Tm": 293.15, 
	 "num_atms": 23, 
	 "gaussian": { 
		 "optdone": 1, 
		 "sigma_profile": "yes", 
		 "theory": "DFT", 
		 "functional": "B3LYP", 
		 "basiset": "6-31G**", 
		 "properties": { 
			 "R2extent": 8301.3902, 
			 "electric_dipole_moment_norm": 2.92519501743, 
			 "electric_quadrupole_moment_norm": 4.77399838919, 
			 "total_energy": -5680.11667085, 
			 "HOMO_LUMO_gap": 0.19735, 
			 "cosmo_polarized_energy": -6.51, 
			 "cosmo_cavitation_energy": 32.49, 
			 "cosmo_dispersion_energy": -24.07, 
			 "cosmo_repulsion_energy": 1.9, 
			 "cosmo_total_nonelectrostatic_energy": 10.32, 
			 "SMD_solvation_energy": 3.46 
		},
		"coords": [
			{
				"x": 3.1958695822,
				"y": -3.5237106173,
				"z": 2.8795229678,
				"element": "Br" 
			},
			{
				"x": 2.0204257255,
				"y": -2.2056309775,
				"z": 2.1537365793,
				"element": "C" 
			},
			{
				"x": 2.2884659861,
				"y": -1.6512458161,
				"z": 0.9043272059,
				"element": "C" 
			},
			{
				"x": 1.4254869895,
				"y": -0.6906393492,
				"z": 0.3813658811,
				"element": "C" 
			},
			{
				"x": 0.2912727981,
				"y": -0.2849937235,
				"z": 1.0935433305,
				"element": "C" 
			},
			{
				"x": -0.5623012632,
				"y": 0.6899433343,
				"z": 0.6562102006,
				"element": "O" 
			},
			{
				"x": -0.7031400259,
				"y": 0.9480651239,
				"z": -0.7005288712,
				"element": "C" 
			},
			{
				"x": -1.0576999596,
				"y": -0.05895874,
				"z": -1.6016043793,
				"element": "C" 
			},
			{
				"x": -1.2662723157,
				"y": 0.27283229,
				"z": -2.9404510674,
				"element": "C" 
			},
			{
				"x": -1.1329862721,
				"y": 1.59481834,
				"z": -3.3726778702,
				"element": "C" 
			},
			{
				"x": -0.7882417403,
				"y": 2.5911553599,
				"z": -2.4574164304,
				"element": "C" 
			},
			{
				"x": -0.5677988967,
				"y": 2.2717762458,
				"z": -1.1166181387,
				"element": "C" 
			},
			{
				"x": 0.0413577225,
				"y": -0.8549264872,
				"z": 2.3514485448,
				"element": "C" 
			},
			{
				"x": -1.4866090529,
				"y": -0.3212807238,
				"z": 3.3511655376,
				"element": "Br" 
			},
			{
				"x": 0.9023471218,
				"y": -1.8111266126,
				"z": 2.8853254771,
				"element": "C" 
			},
			{
				"x": 3.1646471997,
				"y": -1.9583845094,
				"z": 0.3454173975,
				"element": "H" 
			},
			{
				"x": 1.6309400695,
				"y": -0.2468828469,
				"z": -0.5861874373,
				"element": "H" 
			},
			{
				"x": -1.1734341418,
				"y": -1.0802359702,
				"z": -1.2539121365,
				"element": "H" 
			},
			{
				"x": -1.5437453001,
				"y": -0.5054363176,
				"z": -3.6453388067,
				"element": "H" 
			},
			{
				"x": -1.3010362069,
				"y": 1.8463457728,
				"z": -4.4153059226,
				"element": "H" 
			},
			{
				"x": -0.686486633,
				"y": 3.6215257464,
				"z": -2.785061428,
				"element": "H" 
			},
			{
				"x": -0.3011615682,
				"y": 3.0291009112,
				"z": -0.3870463306,
				"element": "H" 
			},
			{
				"x": 0.6948001814,
				"y": -2.241610433,
				"z": 3.8565856965,
				"element": "H" 
			}
		],
		 "valence_orbital": [ 
			{
				"type": "occ",
				"energy": -0.28756,
				"method": "rhf"
			},
			{
				"type": "occ",
				"energy": -0.26485,
				"method": "rhf"
			},
			{
				"type": "occ",
				"energy": -0.25892,
				"method": "rhf"
			},
			{
				"type": "occ",
				"energy": -0.25278,
				"method": "rhf"
			},
			{
				"type": "occ",
				"energy": -0.22668,
				"method": "rhf"
			},
			{
				"type": "unocc",
				"energy": -0.02933,
				"method": "rhf"
			},
			{
				"type": "unocc",
				"energy": -0.02137,
				"method": "rhf"
			},
			{
				"type": "unocc",
				"energy": -0.01483,
				"method": "rhf"
			},
			{
				"type": "unocc",
				"energy": -0.01192,
				"method": "rhf"
			},
			{
				"type": "unocc",
				"energy": -0.00182,
				"method": "rhf"
			}
		],
		"cosmo_sigma_profile": { 
			"-0.025": 0.0,
			"-0.024": 0.0,
			"-0.023": 0.0,
			"-0.022": 0.0,
			"-0.021": 0.0,
			"-0.02": 0.0,
			"-0.019": 0.0,
			"-0.018": 0.0,
			"-0.017": 0.0,
			"-0.016": 0.0,
			"-0.015": 0.0,
			"-0.014": 0.0,
			"-0.013": 0.0,
			"-0.012": 0.0,
			"-0.011": 0.0,
			"-0.01": 0.0,
			"-0.009": 0.0604789270929,
			"-0.008": 2.3616373486,
			"-0.007": 6.89364486734,
			"-0.006": 14.1662771249,
			"-0.005": 16.0955818774,
			"-0.004": 19.4287576897,
			"-0.003": 16.252146726,
			"-0.002": 16.5752654608,
			"-0.001": 17.367042837,
			"0.0": 22.2665765602,
			"0.001": 29.4680138545,
			"0.002": 30.3937493416,
			"0.003": 25.1990278855,
			"0.004": 30.5756274703,
			"0.005": 14.402585735,
			"0.006": 2.22203609128,
			"0.007": 2.16624767546,
			"0.008": 1.55197214764,
			"0.009": 0.892658525738,
			"0.01": 0.0,
			"0.011": 0.0,
			"0.012": 0.0,
			"0.013": 0.0,
			"0.014": 0.0,
			"0.015": 0.0,
			"0.016": 0.0,
			"0.017": 0.0,
			"0.018": 0.0,
			"0.019": 0.0,
			"0.02": 0.0,
			"0.021": 0.0,
			"0.022": 0.0,
			"0.023": 0.0,
			"0.024": 0.0,
			"0.025": 0.0
		}
	}
}
