{
	 "smiles": "OC(=O)C1=C(F)C=C(C=C1)C1=CC=CS1", 
	 "Tm": 502.15, 
	 "num_atms": 22, 
	 "gaussian": { 
		 "optdone": 1, 
		 "sigma_profile": "yes", 
		 "theory": "DFT", 
		 "functional": "B3LYP", 
		 "basiset": "6-31G**", 
		 "properties": { 
			 "R2extent": 4552.6434, 
			 "electric_dipole_moment_norm": 2.84359084785, 
			 "electric_quadrupole_moment_norm": 10.7004261378, 
			 "total_energy": -1071.86436816, 
			 "HOMO_LUMO_gap": 0.15809, 
			 "cosmo_polarized_energy": -10.93, 
			 "cosmo_cavitation_energy": 29.11, 
			 "cosmo_dispersion_energy": -21.95, 
			 "cosmo_repulsion_energy": 1.62, 
			 "cosmo_total_nonelectrostatic_energy": 8.79, 
			 "SMD_solvation_energy": 6.56 
		},
		"coords": [
			{
				"x": 4.6829458467,
				"y": 0.6641894393,
				"z": 0.3030926754,
				"element": "O" 
			},
			{
				"x": 3.8783858037,
				"y": 0.6096872014,
				"z": -0.7810820175,
				"element": "C" 
			},
			{
				"x": 4.3086680944,
				"y": 0.746759413,
				"z": -1.9112951855,
				"element": "O" 
			},
			{
				"x": 2.4444340655,
				"y": 0.3702830089,
				"z": -0.4730531993,
				"element": "C" 
			},
			{
				"x": 1.8922375874,
				"y": 0.2069360806,
				"z": 0.8062483138,
				"element": "C" 
			},
			{
				"x": 2.664374807,
				"y": 0.2690425307,
				"z": 1.9024559096,
				"element": "F" 
			},
			{
				"x": 0.5354140665,
				"y": -0.0076235114,
				"z": 1.0023139814,
				"element": "C" 
			},
			{
				"x": -0.3388991188,
				"y": -0.0842468541,
				"z": -0.094445039,
				"element": "C" 
			},
			{
				"x": 0.2019229882,
				"y": 0.0766658025,
				"z": -1.3866139739,
				"element": "C" 
			},
			{
				"x": 1.5578994374,
				"y": 0.3012570273,
				"z": -1.5615000503,
				"element": "C" 
			},
			{
				"x": -1.7671628671,
				"y": -0.3294916334,
				"z": 0.1211879573,
				"element": "C" 
			},
			{
				"x": -2.3812305431,
				"y": -0.9173056079,
				"z": 1.2062663785,
				"element": "C" 
			},
			{
				"x": -3.7964110914,
				"y": -1.0021548789,
				"z": 1.0851792419,
				"element": "C" 
			},
			{
				"x": -4.2586444778,
				"y": -0.4766901859,
				"z": -0.0913249926,
				"element": "C" 
			},
			{
				"x": -2.9681287996,
				"y": 0.132806846,
				"z": -1.0701677497,
				"element": "S" 
			},
			{
				"x": 5.5749282918,
				"y": 0.823071588,
				"z": -0.0488948371,
				"element": "H" 
			},
			{
				"x": 0.1738023659,
				"y": -0.0903975507,
				"z": 2.020516031,
				"element": "H" 
			},
			{
				"x": -0.4436691595,
				"y": 0.0043028081,
				"z": -2.2558120654,
				"element": "H" 
			},
			{
				"x": 1.9791015876,
				"y": 0.4219068733,
				"z": -2.5535513754,
				"element": "H" 
			},
			{
				"x": -1.8305532855,
				"y": -1.3045791884,
				"z": 2.0557494615,
				"element": "H" 
			},
			{
				"x": -4.4412912573,
				"y": -1.4407215065,
				"z": 1.8379039078,
				"element": "H" 
			},
			{
				"x": -5.2793243419,
				"y": -0.4064977018,
				"z": -0.4409733726,
				"element": "H" 
			}
		],
		 "valence_orbital": [ 
			{
				"type": "occ",
				"energy": -0.28869,
				"method": "rhf"
			},
			{
				"type": "occ",
				"energy": -0.27939,
				"method": "rhf"
			},
			{
				"type": "occ",
				"energy": -0.26383,
				"method": "rhf"
			},
			{
				"type": "occ",
				"energy": -0.2588,
				"method": "rhf"
			},
			{
				"type": "occ",
				"energy": -0.22704,
				"method": "rhf"
			},
			{
				"type": "unocc",
				"energy": -0.06895,
				"method": "rhf"
			},
			{
				"type": "unocc",
				"energy": -0.01511,
				"method": "rhf"
			},
			{
				"type": "unocc",
				"energy": -0.00871,
				"method": "rhf"
			},
			{
				"type": "unocc",
				"energy": 0.02162,
				"method": "rhf"
			},
			{
				"type": "unocc",
				"energy": 0.04405,
				"method": "rhf"
			}
		],
		"cosmo_sigma_profile": { 
			"-0.025": 0.0,
			"-0.024": 0.0,
			"-0.023": 0.0,
			"-0.022": 0.0,
			"-0.021": 0.0,
			"-0.02": 0.0,
			"-0.019": 0.0919840952729,
			"-0.018": 0.883059210973,
			"-0.017": 0.847355487857,
			"-0.016": 0.763699103566,
			"-0.015": 0.522670211776,
			"-0.014": 0.597120576432,
			"-0.013": 0.7016911981,
			"-0.012": 1.15723808547,
			"-0.011": 0.730852138332,
			"-0.01": 0.55202593239,
			"-0.009": 1.5508336796,
			"-0.008": 6.09634923242,
			"-0.007": 8.64184333682,
			"-0.006": 11.270103305,
			"-0.005": 9.99112605039,
			"-0.004": 11.5453474684,
			"-0.003": 10.8435941662,
			"-0.002": 14.5498080042,
			"-0.001": 17.2385520293,
			"0.0": 19.0161706849,
			"0.001": 22.629086137,
			"0.002": 25.2578680732,
			"0.003": 21.6968618512,
			"0.004": 19.4666040019,
			"0.005": 7.15065494722,
			"0.006": 3.30886057986,
			"0.007": 3.51616678179,
			"0.008": 3.01652780941,
			"0.009": 3.33256401671,
			"0.01": 2.20961870098,
			"0.011": 4.02205266481,
			"0.012": 3.61156810348,
			"0.013": 0.0420079970659,
			"0.014": 0.0,
			"0.015": 0.0,
			"0.016": 0.0,
			"0.017": 0.0,
			"0.018": 0.0,
			"0.019": 0.0,
			"0.02": 0.0,
			"0.021": 0.0,
			"0.022": 0.0,
			"0.023": 0.0,
			"0.024": 0.0,
			"0.025": 0.0
		}
	}
}
