{
	 "smiles": "CC1=CC=CC(C)=C1N", 
	 "Tm": 283.15, 
	 "num_atms": 20, 
	 "gaussian": { 
		 "optdone": 1, 
		 "sigma_profile": "yes", 
		 "theory": "DFT", 
		 "functional": "B3LYP", 
		 "basiset": "6-31G**", 
		 "properties": { 
			 "R2extent": 1737.7883, 
			 "electric_dipole_moment_norm": 1.79030067028, 
			 "electric_quadrupole_moment_norm": 7.46333256997, 
			 "total_energy": -366.249437863, 
			 "HOMO_LUMO_gap": 0.20925, 
			 "cosmo_polarized_energy": -7.29, 
			 "cosmo_cavitation_energy": 22.16, 
			 "cosmo_dispersion_energy": -16.64, 
			 "cosmo_repulsion_energy": 1.35, 
			 "cosmo_total_nonelectrostatic_energy": 6.87, 
			 "SMD_solvation_energy": 3.67 
		},
		"coords": [
			{
				"x": -2.9436817489,
				"y": -2.4512525115,
				"z": 1.0133496877,
				"element": "C" 
			},
			{
				"x": -1.6292575286,
				"y": -1.7416783182,
				"z": 1.2308422162,
				"element": "C" 
			},
			{
				"x": -0.7547653599,
				"y": -2.1423781195,
				"z": 2.243976168,
				"element": "C" 
			},
			{
				"x": 0.4665477975,
				"y": -1.5012437949,
				"z": 2.445969635,
				"element": "C" 
			},
			{
				"x": 0.8215392032,
				"y": -0.4415124236,
				"z": 1.6126594007,
				"element": "C" 
			},
			{
				"x": -0.0216401656,
				"y": -0.0070144682,
				"z": 0.5869788481,
				"element": "C" 
			},
			{
				"x": 0.3785274545,
				"y": 1.1335480397,
				"z": -0.3171495992,
				"element": "C" 
			},
			{
				"x": -1.2597670198,
				"y": -0.6611790959,
				"z": 0.3987874174,
				"element": "C" 
			},
			{
				"x": -2.0973255005,
				"y": -0.2769968256,
				"z": -0.657314185,
				"element": "N" 
			},
			{
				"x": -3.0227972155,
				"y": -2.8569428484,
				"z": -0.0034416618,
				"element": "H" 
			},
			{
				"x": -3.0600999785,
				"y": -3.2823427578,
				"z": 1.7134479434,
				"element": "H" 
			},
			{
				"x": -3.8054869342,
				"y": -1.7836369496,
				"z": 1.160294843,
				"element": "H" 
			},
			{
				"x": -1.0427968717,
				"y": -2.9738412804,
				"z": 2.8830348007,
				"element": "H" 
			},
			{
				"x": 1.134305281,
				"y": -1.8261286772,
				"z": 3.2379390804,
				"element": "H" 
			},
			{
				"x": 1.7733670787,
				"y": 0.0648479155,
				"z": 1.7551836306,
				"element": "H" 
			},
			{
				"x": 1.3751455487,
				"y": 1.5030814369,
				"z": -0.0629765417,
				"element": "H" 
			},
			{
				"x": 0.3933896139,
				"y": 0.8297838764,
				"z": -1.3717682355,
				"element": "H" 
			},
			{
				"x": -0.3108108476,
				"y": 1.9871921002,
				"z": -0.2389123412,
				"element": "H" 
			},
			{
				"x": -3.0736392924,
				"y": -0.5055985038,
				"z": -0.5342968382,
				"element": "H" 
			},
			{
				"x": -1.9792535143,
				"y": 0.6754932059,
				"z": -0.9726042686,
				"element": "H" 
			}
		],
		 "valence_orbital": [ 
			{
				"type": "occ",
				"energy": -0.333,
				"method": "rhf"
			},
			{
				"type": "occ",
				"energy": -0.32527,
				"method": "rhf"
			},
			{
				"type": "occ",
				"energy": -0.29926,
				"method": "rhf"
			},
			{
				"type": "occ",
				"energy": -0.226,
				"method": "rhf"
			},
			{
				"type": "occ",
				"energy": -0.19224,
				"method": "rhf"
			},
			{
				"type": "unocc",
				"energy": 0.01701,
				"method": "rhf"
			},
			{
				"type": "unocc",
				"energy": 0.02598,
				"method": "rhf"
			},
			{
				"type": "unocc",
				"energy": 0.07563,
				"method": "rhf"
			},
			{
				"type": "unocc",
				"energy": 0.10783,
				"method": "rhf"
			},
			{
				"type": "unocc",
				"energy": 0.1105,
				"method": "rhf"
			}
		],
		"cosmo_sigma_profile": { 
			"-0.025": 0.0,
			"-0.024": 0.0,
			"-0.023": 0.0,
			"-0.022": 0.0,
			"-0.021": 0.0,
			"-0.02": 0.0,
			"-0.019": 0.0,
			"-0.018": 0.0,
			"-0.017": 0.0,
			"-0.016": 0.0,
			"-0.015": 0.0,
			"-0.014": 0.0,
			"-0.013": 0.0,
			"-0.012": 0.0648449409459,
			"-0.011": 1.86736468089,
			"-0.01": 2.20217040551,
			"-0.009": 2.81249276754,
			"-0.008": 3.62490487994,
			"-0.007": 2.37613185938,
			"-0.006": 3.24430036677,
			"-0.005": 4.98045857349,
			"-0.004": 16.4316556937,
			"-0.003": 17.3791759361,
			"-0.002": 16.1307161001,
			"-0.001": 15.6433870025,
			"0.0": 16.4840893908,
			"0.001": 14.6262639269,
			"0.002": 8.2359462543,
			"0.003": 7.26341104164,
			"0.004": 7.44900781693,
			"0.005": 6.95589607595,
			"0.006": 7.76402281941,
			"0.007": 8.1028973689,
			"0.008": 5.62883139604,
			"0.009": 1.26095686163,
			"0.01": 0.640010867535,
			"0.011": 0.732810885819,
			"0.012": 0.793383884074,
			"0.013": 0.577605070462,
			"0.014": 0.418454269876,
			"0.015": 0.376657185106,
			"0.016": 0.072108537716,
			"0.017": 0.0,
			"0.018": 0.0,
			"0.019": 0.0,
			"0.02": 0.0,
			"0.021": 0.0,
			"0.022": 0.0,
			"0.023": 0.0,
			"0.024": 0.0,
			"0.025": 0.0
		}
	}
}
