{
	 "smiles": "OC(=O)C1=C(C(Br)=NC=C1)[N+]([O-])=O", 
	 "Tm": 494.15, 
	 "num_atms": 16, 
	 "gaussian": { 
		 "optdone": 1, 
		 "sigma_profile": "yes", 
		 "theory": "DFT", 
		 "functional": "B3LYP", 
		 "basiset": "6-31G**", 
		 "properties": { 
			 "R2extent": 5539.0235, 
			 "electric_dipole_moment_norm": 6.01424852496, 
			 "electric_quadrupole_moment_norm": 7.49426786751, 
			 "total_energy": -3212.1175983, 
			 "HOMO_LUMO_gap": 0.18251, 
			 "cosmo_polarized_energy": -20.11, 
			 "cosmo_cavitation_energy": 24.9, 
			 "cosmo_dispersion_energy": -18.1, 
			 "cosmo_repulsion_energy": 1.44, 
			 "cosmo_total_nonelectrostatic_energy": 8.24, 
			 "SMD_solvation_energy": 5.47 
		},
		"coords": [
			{
				"x": 0.1156095193,
				"y": -1.7762342207,
				"z": 0.7469023314,
				"element": "O" 
			},
			{
				"x": -0.7957827896,
				"y": -0.9175498512,
				"z": 0.2388066652,
				"element": "C" 
			},
			{
				"x": -1.7529465129,
				"y": -1.2978999572,
				"z": -0.3807336324,
				"element": "O" 
			},
			{
				"x": -0.4771611553,
				"y": 0.5493936522,
				"z": 0.4277471183,
				"element": "C" 
			},
			{
				"x": -1.4499806055,
				"y": 1.4605450032,
				"z": 0.8469276928,
				"element": "C" 
			},
			{
				"x": -1.1187865835,
				"y": 2.819060664,
				"z": 0.9363316623,
				"element": "C" 
			},
			{
				"x": -2.3573772596,
				"y": 4.0982413945,
				"z": 1.6061211578,
				"element": "Br" 
			},
			{
				"x": 0.076836019,
				"y": 3.2822996201,
				"z": 0.6081806167,
				"element": "N" 
			},
			{
				"x": 1.0027815957,
				"y": 2.4216784948,
				"z": 0.1765886263,
				"element": "C" 
			},
			{
				"x": 0.7813060661,
				"y": 1.0486188872,
				"z": 0.0819624428,
				"element": "C" 
			},
			{
				"x": -2.7760945403,
				"y": 0.9518558382,
				"z": 1.2446580165,
				"element": "N" 
			},
			{
				"x": -2.778905351,
				"y": 0.1114589017,
				"z": 2.1400634456,
				"element": "O" 
			},
			{
				"x": -3.7496400617,
				"y": 1.4068922161,
				"z": 0.6643493165,
				"element": "O" 
			},
			{
				"x": 0.7353341533,
				"y": -1.3125381167,
				"z": 1.3289921616,
				"element": "H" 
			},
			{
				"x": 1.9620917246,
				"y": 2.8509991745,
				"z": -0.1011193579,
				"element": "H" 
			},
			{
				"x": 1.5605157813,
				"y": 0.3869782993,
				"z": -0.2820782636,
				"element": "H" 
			}
		],
		 "valence_orbital": [ 
			{
				"type": "occ",
				"energy": -0.31719,
				"method": "rhf"
			},
			{
				"type": "occ",
				"energy": -0.30946,
				"method": "rhf"
			},
			{
				"type": "occ",
				"energy": -0.30342,
				"method": "rhf"
			},
			{
				"type": "occ",
				"energy": -0.29766,
				"method": "rhf"
			},
			{
				"type": "occ",
				"energy": -0.2869,
				"method": "rhf"
			},
			{
				"type": "unocc",
				"energy": -0.10439,
				"method": "rhf"
			},
			{
				"type": "unocc",
				"energy": -0.08687,
				"method": "rhf"
			},
			{
				"type": "unocc",
				"energy": -0.0588,
				"method": "rhf"
			},
			{
				"type": "unocc",
				"energy": -0.02098,
				"method": "rhf"
			},
			{
				"type": "unocc",
				"energy": -0.00503,
				"method": "rhf"
			}
		],
		"cosmo_sigma_profile": { 
			"-0.025": 0.0,
			"-0.024": 0.0,
			"-0.023": 0.0,
			"-0.022": 0.0,
			"-0.021": 0.0883826762472,
			"-0.02": 0.919051873215,
			"-0.019": 1.3810408501,
			"-0.018": 0.736924354846,
			"-0.017": 0.803375517476,
			"-0.016": 0.824911191196,
			"-0.015": 1.20720766386,
			"-0.014": 1.36058644912,
			"-0.013": 1.66826130362,
			"-0.012": 0.759039253545,
			"-0.011": 2.04869910559,
			"-0.01": 4.66865444103,
			"-0.009": 6.23964973625,
			"-0.008": 5.03809479418,
			"-0.007": 4.14927378929,
			"-0.006": 7.83994904283,
			"-0.005": 9.2969708375,
			"-0.004": 10.0754362152,
			"-0.003": 11.9806711727,
			"-0.002": 10.8131629604,
			"-0.001": 8.41388098864,
			"0.0": 8.81005113726,
			"0.001": 9.57378768158,
			"0.002": 12.9468824202,
			"0.003": 13.7911108174,
			"0.004": 9.73673587128,
			"0.005": 9.7677567123,
			"0.006": 15.0442293168,
			"0.007": 11.2263262993,
			"0.008": 8.54668412503,
			"0.009": 5.51546370353,
			"0.01": 5.8167654602,
			"0.011": 2.37930117402,
			"0.012": 0.708485229295,
			"0.013": 0.0,
			"0.014": 0.0,
			"0.015": 0.0,
			"0.016": 0.0,
			"0.017": 0.0,
			"0.018": 0.0,
			"0.019": 0.0,
			"0.02": 0.0,
			"0.021": 0.0,
			"0.022": 0.0,
			"0.023": 0.0,
			"0.024": 0.0,
			"0.025": 0.0
		}
	}
}
