{
	 "smiles": "OC(=O)C1=CN=C(OC2=CC=CC=C2)C=C1", 
	 "Tm": 437.15, 
	 "num_atms": 25, 
	 "gaussian": { 
		 "optdone": 1, 
		 "sigma_profile": "yes", 
		 "theory": "DFT", 
		 "functional": "B3LYP", 
		 "basiset": "6-31G**", 
		 "properties": { 
			 "R2extent": 5531.8722, 
			 "electric_dipole_moment_norm": 1.21850003693, 
			 "electric_quadrupole_moment_norm": 6.4753088019, 
			 "total_energy": -743.134699955, 
			 "HOMO_LUMO_gap": 0.18495, 
			 "cosmo_polarized_energy": -11.92, 
			 "cosmo_cavitation_energy": 30.85, 
			 "cosmo_dispersion_energy": -22.5, 
			 "cosmo_repulsion_energy": 1.75, 
			 "cosmo_total_nonelectrostatic_energy": 10.11, 
			 "SMD_solvation_energy": 5.95 
		},
		"coords": [
			{
				"x": 1.2029379271,
				"y": 4.713509358,
				"z": 0.2141097386,
				"element": "O" 
			},
			{
				"x": 0.4835468304,
				"y": 4.1684127501,
				"z": 1.2274432389,
				"element": "C" 
			},
			{
				"x": -0.1203878318,
				"y": 4.8499557352,
				"z": 2.0332608683,
				"element": "O" 
			},
			{
				"x": 0.520598661,
				"y": 2.6895164051,
				"z": 1.2346932541,
				"element": "C" 
			},
			{
				"x": 1.2246412934,
				"y": 1.9384466433,
				"z": 0.2899716177,
				"element": "C" 
			},
			{
				"x": 1.263519355,
				"y": 0.6004704202,
				"z": 0.2889150186,
				"element": "N" 
			},
			{
				"x": 0.592097785,
				"y": -0.0321123649,
				"z": 1.2439263233,
				"element": "C" 
			},
			{
				"x": 0.5801685774,
				"y": -1.3892241208,
				"z": 1.2801397278,
				"element": "O" 
			},
			{
				"x": 1.363262089,
				"y": -2.1463459472,
				"z": 0.4063705656,
				"element": "C" 
			},
			{
				"x": 0.699381103,
				"y": -3.0675862606,
				"z": -0.3989492299,
				"element": "C" 
			},
			{
				"x": 1.4443691128,
				"y": -3.9222463255,
				"z": -1.2137523624,
				"element": "C" 
			},
			{
				"x": 2.8379379064,
				"y": -3.8492898764,
				"z": -1.2200112403,
				"element": "C" 
			},
			{
				"x": 3.4878878064,
				"y": -2.9203214362,
				"z": -0.4030470855,
				"element": "C" 
			},
			{
				"x": 2.7551677318,
				"y": -2.0647689421,
				"z": 0.4188099075,
				"element": "C" 
			},
			{
				"x": -0.1522372024,
				"y": 0.6135135635,
				"z": 2.250029379,
				"element": "C" 
			},
			{
				"x": -0.1824906664,
				"y": 1.9938013336,
				"z": 2.2355491871,
				"element": "C" 
			},
			{
				"x": 1.1053652749,
				"y": 5.6752118183,
				"z": 0.3084626339,
				"element": "H" 
			},
			{
				"x": 1.7792544488,
				"y": 2.4351728613,
				"z": -0.5010622399,
				"element": "H" 
			},
			{
				"x": -0.3845361893,
				"y": -3.1079001554,
				"z": -0.375083501,
				"element": "H" 
			},
			{
				"x": 0.9318122356,
				"y": -4.6436831964,
				"z": -1.8432148235,
				"element": "H" 
			},
			{
				"x": 3.4159259348,
				"y": -4.5135704405,
				"z": -1.8553035608,
				"element": "H" 
			},
			{
				"x": 4.5723525484,
				"y": -2.8615347055,
				"z": -0.4016486473,
				"element": "H" 
			},
			{
				"x": 3.2503111423,
				"y": -1.3419634807,
				"z": 1.056935066,
				"element": "H" 
			},
			{
				"x": -0.6735450327,
				"y": 0.0252669569,
				"z": 2.9960928145,
				"element": "H" 
			},
			{
				"x": -0.735140841,
				"y": 2.5587694068,
				"z": 2.9788633495,
				"element": "H" 
			}
		],
		 "valence_orbital": [ 
			{
				"type": "occ",
				"energy": -0.28848,
				"method": "rhf"
			},
			{
				"type": "occ",
				"energy": -0.27378,
				"method": "rhf"
			},
			{
				"type": "occ",
				"energy": -0.25902,
				"method": "rhf"
			},
			{
				"type": "occ",
				"energy": -0.25423,
				"method": "rhf"
			},
			{
				"type": "occ",
				"energy": -0.23524,
				"method": "rhf"
			},
			{
				"type": "unocc",
				"energy": -0.05029,
				"method": "rhf"
			},
			{
				"type": "unocc",
				"energy": -0.03314,
				"method": "rhf"
			},
			{
				"type": "unocc",
				"energy": -0.00457,
				"method": "rhf"
			},
			{
				"type": "unocc",
				"energy": 0.0002,
				"method": "rhf"
			},
			{
				"type": "unocc",
				"energy": 0.0537,
				"method": "rhf"
			}
		],
		"cosmo_sigma_profile": { 
			"-0.025": 0.0,
			"-0.024": 0.0,
			"-0.023": 0.0,
			"-0.022": 0.0,
			"-0.021": 0.0,
			"-0.02": 0.0,
			"-0.019": 0.162111095075,
			"-0.018": 0.975762951688,
			"-0.017": 0.521386476595,
			"-0.016": 0.909653910656,
			"-0.015": 1.34288016806,
			"-0.014": 0.563308697485,
			"-0.013": 0.0861136205273,
			"-0.012": 0.564108306374,
			"-0.011": 0.891158870461,
			"-0.01": 0.818192469447,
			"-0.009": 0.296637740394,
			"-0.008": 2.43709418649,
			"-0.007": 7.4017738696,
			"-0.006": 13.997137059,
			"-0.005": 15.4568003156,
			"-0.004": 16.1576936213,
			"-0.003": 15.0274319624,
			"-0.002": 16.3311920475,
			"-0.001": 21.8651665647,
			"0.0": 23.9510781961,
			"0.001": 19.1232804919,
			"0.002": 16.2657147234,
			"0.003": 14.2617126014,
			"0.004": 12.8322924022,
			"0.005": 13.1086483712,
			"0.006": 7.67022346484,
			"0.007": 6.29751339635,
			"0.008": 2.79261912076,
			"0.009": 2.66665600821,
			"0.01": 3.06549756471,
			"0.011": 4.89917128481,
			"0.012": 4.37797719871,
			"0.013": 0.942667584443,
			"0.014": 0.0915678346368,
			"0.015": 0.0,
			"0.016": 0.0,
			"0.017": 0.0,
			"0.018": 0.0,
			"0.019": 0.0,
			"0.02": 0.0,
			"0.021": 0.0,
			"0.022": 0.0,
			"0.023": 0.0,
			"0.024": 0.0,
			"0.025": 0.0
		}
	}
}
