{
	 "smiles": "CCCOC(=O)C1=C(N)C=CC(=C1)C1=CN=CN=C1", 
	 "Tm": 419.15, 
	 "num_atms": 34, 
	 "gaussian": { 
		 "optdone": 1, 
		 "sigma_profile": "yes", 
		 "theory": "DFT", 
		 "functional": "B3LYP", 
		 "basiset": "6-31G**", 
		 "properties": { 
			 "R2extent": 7875.2383, 
			 "electric_dipole_moment_norm": 6.66235381228, 
			 "electric_quadrupole_moment_norm": 11.6078149085, 
			 "total_energy": -857.258273719, 
			 "HOMO_LUMO_gap": 0.16297, 
			 "cosmo_polarized_energy": -15.91, 
			 "cosmo_cavitation_energy": 38.31, 
			 "cosmo_dispersion_energy": -27.29, 
			 "cosmo_repulsion_energy": 2.08, 
			 "cosmo_total_nonelectrostatic_energy": 13.11, 
			 "SMD_solvation_energy": 4.14 
		},
		"coords": [
			{
				"x": 1.0328632826,
				"y": -4.776047951,
				"z": 0.0478755187,
				"element": "C" 
			},
			{
				"x": -0.4918265681,
				"y": -4.7040667358,
				"z": 0.1861033715,
				"element": "C" 
			},
			{
				"x": -0.9921741823,
				"y": -3.3940477562,
				"z": 0.7761483667,
				"element": "C" 
			},
			{
				"x": -0.6499713896,
				"y": -2.3285802556,
				"z": -0.1439126557,
				"element": "O" 
			},
			{
				"x": -0.86551286,
				"y": -1.0593725386,
				"z": 0.3060978853,
				"element": "C" 
			},
			{
				"x": -1.3374314983,
				"y": -0.8453040928,
				"z": 1.4065625459,
				"element": "O" 
			},
			{
				"x": -0.4762415164,
				"y": 0.0016687579,
				"z": -0.6595851615,
				"element": "C" 
			},
			{
				"x": 0.090279355,
				"y": -0.2103345517,
				"z": -1.9489366476,
				"element": "C" 
			},
			{
				"x": 0.4068185131,
				"y": -1.4476129032,
				"z": -2.4494989188,
				"element": "N" 
			},
			{
				"x": 0.3762904096,
				"y": 0.9327851124,
				"z": -2.7324654343,
				"element": "C" 
			},
			{
				"x": 0.1246644821,
				"y": 2.2113971813,
				"z": -2.2749752928,
				"element": "C" 
			},
			{
				"x": -0.4340184845,
				"y": 2.4370023709,
				"z": -0.9989527073,
				"element": "C" 
			},
			{
				"x": -0.7208983388,
				"y": 1.3147168581,
				"z": -0.2239255185,
				"element": "C" 
			},
			{
				"x": -0.705654907,
				"y": 3.803229197,
				"z": -0.50869574,
				"element": "C" 
			},
			{
				"x": -1.1309933521,
				"y": 4.8411520826,
				"z": -1.3525451924,
				"element": "C" 
			},
			{
				"x": -1.3719614127,
				"y": 6.0836195889,
				"z": -0.9248084034,
				"element": "N" 
			},
			{
				"x": -1.1981621074,
				"y": 6.2965927614,
				"z": 0.3837260427,
				"element": "C" 
			},
			{
				"x": -0.8055345537,
				"y": 5.4001785458,
				"z": 1.2950913699,
				"element": "N" 
			},
			{
				"x": -0.5575375863,
				"y": 4.1695768784,
				"z": 0.8389811704,
				"element": "C" 
			},
			{
				"x": 1.4120989793,
				"y": -3.9780317729,
				"z": -0.597455115,
				"element": "H" 
			},
			{
				"x": 1.3434088686,
				"y": -5.7340080651,
				"z": -0.3800741122,
				"element": "H" 
			},
			{
				"x": 1.5206948037,
				"y": -4.6718165383,
				"z": 1.0233494826,
				"element": "H" 
			},
			{
				"x": -0.8470643054,
				"y": -5.5108698359,
				"z": 0.8393038725,
				"element": "H" 
			},
			{
				"x": -0.971792773,
				"y": -4.864576428,
				"z": -0.7878140469,
				"element": "H" 
			},
			{
				"x": -2.0776809818,
				"y": -3.3971581396,
				"z": 0.9172045998,
				"element": "H" 
			},
			{
				"x": -0.5313378608,
				"y": -3.1789545629,
				"z": 1.7448188405,
				"element": "H" 
			},
			{
				"x": 0.5779234615,
				"y": -1.5178625675,
				"z": -3.4400137224,
				"element": "H" 
			},
			{
				"x": 0.0202798371,
				"y": -2.2544440979,
				"z": -1.9853950689,
				"element": "H" 
			},
			{
				"x": 0.8222133159,
				"y": 0.7897930001,
				"z": -3.7135234707,
				"element": "H" 
			},
			{
				"x": 0.3861599272,
				"y": 3.0558301088,
				"z": -2.9063792383,
				"element": "H" 
			},
			{
				"x": -1.1757258591,
				"y": 1.4210989514,
				"z": 0.7549411854,
				"element": "H" 
			},
			{
				"x": -1.2988995382,
				"y": 4.6552170097,
				"z": -2.4126277222,
				"element": "H" 
			},
			{
				"x": -1.396823744,
				"y": 7.3038258144,
				"z": 0.7444765077,
				"element": "H" 
			},
			{
				"x": -0.2112514162,
				"y": 3.4420045738,
				"z": 1.5715034095,
				"element": "H" 
			}
		],
		 "valence_orbital": [ 
			{
				"type": "occ",
				"energy": -0.27851,
				"method": "rhf"
			},
			{
				"type": "occ",
				"energy": -0.27702,
				"method": "rhf"
			},
			{
				"type": "occ",
				"energy": -0.26413,
				"method": "rhf"
			},
			{
				"type": "occ",
				"energy": -0.24495,
				"method": "rhf"
			},
			{
				"type": "occ",
				"energy": -0.20962,
				"method": "rhf"
			},
			{
				"type": "unocc",
				"energy": -0.04665,
				"method": "rhf"
			},
			{
				"type": "unocc",
				"energy": -0.03601,
				"method": "rhf"
			},
			{
				"type": "unocc",
				"energy": -0.03399,
				"method": "rhf"
			},
			{
				"type": "unocc",
				"energy": 0.01496,
				"method": "rhf"
			},
			{
				"type": "unocc",
				"energy": 0.05564,
				"method": "rhf"
			}
		],
		"cosmo_sigma_profile": { 
			"-0.025": 0.0,
			"-0.024": 0.0,
			"-0.023": 0.0,
			"-0.022": 0.0,
			"-0.021": 0.0,
			"-0.02": 0.0,
			"-0.019": 0.0,
			"-0.018": 0.0,
			"-0.017": 0.0,
			"-0.016": 0.0,
			"-0.015": 0.0,
			"-0.014": 0.473053856616,
			"-0.013": 1.22329370635,
			"-0.012": 1.47707464986,
			"-0.011": 1.53791364482,
			"-0.01": 1.02467599088,
			"-0.009": 2.55823219901,
			"-0.008": 4.17232470326,
			"-0.007": 11.5777358015,
			"-0.006": 9.91017804875,
			"-0.005": 16.3052888172,
			"-0.004": 21.4623194332,
			"-0.003": 24.4516083966,
			"-0.002": 26.5357563101,
			"-0.001": 31.231941156,
			"0.0": 32.6755193174,
			"0.001": 24.0895664737,
			"0.002": 17.405970462,
			"0.003": 18.2394158255,
			"0.004": 13.9316718189,
			"0.005": 4.91363537568,
			"0.006": 6.17966085767,
			"0.007": 5.62829308832,
			"0.008": 3.21874605204,
			"0.009": 3.03378990417,
			"0.01": 4.55180937957,
			"0.011": 4.24325308565,
			"0.012": 6.49938523798,
			"0.013": 2.23907232765,
			"0.014": 2.02593184748,
			"0.015": 1.65937076302,
			"0.016": 0.485333160145,
			"0.017": 0.0,
			"0.018": 0.0,
			"0.019": 0.0,
			"0.02": 0.0,
			"0.021": 0.0,
			"0.022": 0.0,
			"0.023": 0.0,
			"0.024": 0.0,
			"0.025": 0.0
		}
	}
}
