{
	 "smiles": "OC(=O)C1=C(O)C2=CC(OC(F)(F)F)=CC=C2N=C1", 
	 "Tm": 518.15, 
	 "num_atms": 25, 
	 "gaussian": { 
		 "optdone": 1, 
		 "sigma_profile": "yes", 
		 "theory": "DFT", 
		 "functional": "B3LYP", 
		 "basiset": "6-31G**", 
		 "properties": { 
			 "R2extent": 6101.3399, 
			 "electric_dipole_moment_norm": 2.72639560776, 
			 "electric_quadrupole_moment_norm": 9.15043332854, 
			 "total_energy": -1077.9826279, 
			 "HOMO_LUMO_gap": 0.16381, 
			 "cosmo_polarized_energy": -13.81, 
			 "cosmo_cavitation_energy": 31.55, 
			 "cosmo_dispersion_energy": -23.37, 
			 "cosmo_repulsion_energy": 1.69, 
			 "cosmo_total_nonelectrostatic_energy": 9.87, 
			 "SMD_solvation_energy": 6.68 
		},
		"coords": [
			{
				"x": 1.8040810479,
				"y": 1.1329907611,
				"z": 4.9297361135,
				"element": "O" 
			},
			{
				"x": 1.2234392341,
				"y": 0.4468090619,
				"z": 3.9297581442,
				"element": "C" 
			},
			{
				"x": 0.6415245869,
				"y": -0.6001433692,
				"z": 4.211226761,
				"element": "O" 
			},
			{
				"x": 1.2980047617,
				"y": 0.9570008245,
				"z": 2.5506041593,
				"element": "C" 
			},
			{
				"x": 0.6760261684,
				"y": 0.2072424537,
				"z": 1.535577009,
				"element": "C" 
			},
			{
				"x": 0.0322073703,
				"y": -0.9280614183,
				"z": 1.7666013996,
				"element": "O" 
			},
			{
				"x": 0.7397563467,
				"y": 0.6904188823,
				"z": 0.1902407089,
				"element": "C" 
			},
			{
				"x": 0.1339775822,
				"y": -0.0176908336,
				"z": -0.8754217082,
				"element": "C" 
			},
			{
				"x": 0.2303961402,
				"y": 0.4997464351,
				"z": -2.1485313914,
				"element": "C" 
			},
			{
				"x": -0.3099236986,
				"y": -0.0771118028,
				"z": -3.2950912915,
				"element": "O" 
			},
			{
				"x": -1.0090895052,
				"y": -1.2411948497,
				"z": -3.2366694463,
				"element": "C" 
			},
			{
				"x": -0.2684017069,
				"y": -2.2613264823,
				"z": -2.7654227231,
				"element": "F" 
			},
			{
				"x": -1.3938382123,
				"y": -1.5317318177,
				"z": -4.4769862749,
				"element": "F" 
			},
			{
				"x": -2.1023602178,
				"y": -1.1442309556,
				"z": -2.4579233763,
				"element": "F" 
			},
			{
				"x": 0.9156653737,
				"y": 1.7095220352,
				"z": -2.4027193194,
				"element": "C" 
			},
			{
				"x": 1.5054925861,
				"y": 2.3998485723,
				"z": -1.3695917938,
				"element": "C" 
			},
			{
				"x": 1.43510273,
				"y": 1.9107951085,
				"z": -0.0413179057,
				"element": "C" 
			},
			{
				"x": 2.0390396633,
				"y": 2.6353485751,
				"z": 0.9548339091,
				"element": "N" 
			},
			{
				"x": 1.9582902342,
				"y": 2.1604190421,
				"z": 2.1718484334,
				"element": "C" 
			},
			{
				"x": 2.2326379965,
				"y": 1.9368317165,
				"z": 4.605070305,
				"element": "H" 
			},
			{
				"x": 0.1002981807,
				"y": -1.0912835104,
				"z": 2.7519913213,
				"element": "H" 
			},
			{
				"x": -0.3847735558,
				"y": -0.9409789385,
				"z": -0.6594641083,
				"element": "H" 
			},
			{
				"x": 0.9608176338,
				"y": 2.0710717651,
				"z": -3.4244680324,
				"element": "H" 
			},
			{
				"x": 2.0362577925,
				"y": 3.3297734025,
				"z": -1.5410407573,
				"element": "H" 
			},
			{
				"x": 2.453171467,
				"y": 2.7697353422,
				"z": 2.9328598642,
				"element": "H" 
			}
		],
		 "valence_orbital": [ 
			{
				"type": "occ",
				"energy": -0.30801,
				"method": "rhf"
			},
			{
				"type": "occ",
				"energy": -0.29578,
				"method": "rhf"
			},
			{
				"type": "occ",
				"energy": -0.27649,
				"method": "rhf"
			},
			{
				"type": "occ",
				"energy": -0.27217,
				"method": "rhf"
			},
			{
				"type": "occ",
				"energy": -0.24184,
				"method": "rhf"
			},
			{
				"type": "unocc",
				"energy": -0.07803,
				"method": "rhf"
			},
			{
				"type": "unocc",
				"energy": -0.05361,
				"method": "rhf"
			},
			{
				"type": "unocc",
				"energy": 0.00196,
				"method": "rhf"
			},
			{
				"type": "unocc",
				"energy": 0.01282,
				"method": "rhf"
			},
			{
				"type": "unocc",
				"energy": 0.03573,
				"method": "rhf"
			}
		],
		"cosmo_sigma_profile": { 
			"-0.025": 0.0,
			"-0.024": 0.0,
			"-0.023": 0.0,
			"-0.022": 0.0,
			"-0.021": 0.082229405414,
			"-0.02": 0.876150839503,
			"-0.019": 1.0016464595,
			"-0.018": 1.01124624584,
			"-0.017": 1.22483214291,
			"-0.016": 0.977811421455,
			"-0.015": 0.73136356626,
			"-0.014": 0.745554669104,
			"-0.013": 1.86436420876,
			"-0.012": 1.01996052321,
			"-0.011": 0.783252886163,
			"-0.01": 1.05642073761,
			"-0.009": 1.49250486335,
			"-0.008": 3.99928736051,
			"-0.007": 5.35218875482,
			"-0.006": 6.74710296819,
			"-0.005": 9.65978047737,
			"-0.004": 9.54422623061,
			"-0.003": 11.8669342736,
			"-0.002": 17.9874904578,
			"-0.001": 23.0810627028,
			"0.0": 30.2211103675,
			"0.001": 40.061307529,
			"0.002": 30.8550232771,
			"0.003": 8.38458996603,
			"0.004": 6.83067705904,
			"0.005": 5.87459085762,
			"0.006": 4.74889628203,
			"0.007": 6.10220846697,
			"0.008": 4.3348430248,
			"0.009": 5.11528713994,
			"0.01": 4.13674839931,
			"0.011": 3.24509678613,
			"0.012": 1.9306421732,
			"0.013": 0.759114334963,
			"0.014": 0.830419725698,
			"0.015": 0.645043917454,
			"0.016": 0.0777037314523,
			"0.017": 0.0,
			"0.018": 0.0,
			"0.019": 0.0,
			"0.02": 0.0,
			"0.021": 0.0,
			"0.022": 0.0,
			"0.023": 0.0,
			"0.024": 0.0,
			"0.025": 0.0
		}
	}
}
