{
	 "smiles": "NCCC1=C(O)C=CC=C1", 
	 "Tm": 381.15, 
	 "num_atms": 21, 
	 "gaussian": { 
		 "optdone": 1, 
		 "sigma_profile": "yes", 
		 "theory": "DFT", 
		 "functional": "B3LYP", 
		 "basiset": "6-31G**", 
		 "properties": { 
			 "R2extent": 2006.1809, 
			 "electric_dipole_moment_norm": 1.87299396155, 
			 "electric_quadrupole_moment_norm": 13.0930783558, 
			 "total_energy": -441.453083908, 
			 "HOMO_LUMO_gap": 0.21386, 
			 "cosmo_polarized_energy": -11.24, 
			 "cosmo_cavitation_energy": 24.08, 
			 "cosmo_dispersion_energy": -17.62, 
			 "cosmo_repulsion_energy": 1.46, 
			 "cosmo_total_nonelectrostatic_energy": 7.92, 
			 "SMD_solvation_energy": 2.9 
		},
		"coords": [
			{
				"x": 2.0358306513,
				"y": 3.2465769774,
				"z": 0.8306960025,
				"element": "N" 
			},
			{
				"x": 1.3142802158,
				"y": 2.0292859486,
				"z": 1.2024835795,
				"element": "C" 
			},
			{
				"x": 1.029612849,
				"y": 1.0399654989,
				"z": 0.0453570626,
				"element": "C" 
			},
			{
				"x": 0.296985594,
				"y": -0.2043805553,
				"z": 0.4886549035,
				"element": "C" 
			},
			{
				"x": 0.9870098364,
				"y": -1.2491189199,
				"z": 1.1325352433,
				"element": "C" 
			},
			{
				"x": 2.3396555988,
				"y": -1.0913368146,
				"z": 1.3013668401,
				"element": "O" 
			},
			{
				"x": 0.3158003419,
				"y": -2.3931426407,
				"z": 1.5709630707,
				"element": "C" 
			},
			{
				"x": -1.0617428033,
				"y": -2.5118731044,
				"z": 1.3804899746,
				"element": "C" 
			},
			{
				"x": -1.7670468314,
				"y": -1.4888957543,
				"z": 0.7491065114,
				"element": "C" 
			},
			{
				"x": -1.0821424536,
				"y": -0.3522003532,
				"z": 0.3123488749,
				"element": "C" 
			},
			{
				"x": 1.5255925759,
				"y": 3.743665182,
				"z": 0.1032072605,
				"element": "H" 
			},
			{
				"x": 2.9365085093,
				"y": 3.001300995,
				"z": 0.424551449,
				"element": "H" 
			},
			{
				"x": 0.3639694278,
				"y": 2.322260019,
				"z": 1.665016501,
				"element": "H" 
			},
			{
				"x": 1.8927040129,
				"y": 1.5130204713,
				"z": 1.9756824192,
				"element": "H" 
			},
			{
				"x": 1.9860714375,
				"y": 0.7634262932,
				"z": -0.4148300539,
				"element": "H" 
			},
			{
				"x": 0.4380192259,
				"y": 1.5541985596,
				"z": -0.7228806486,
				"element": "H" 
			},
			{
				"x": 2.6940395158,
				"y": -1.8728747961,
				"z": 1.7444163144,
				"element": "H" 
			},
			{
				"x": 0.8727294896,
				"y": -3.1893341479,
				"z": 2.0619103771,
				"element": "H" 
			},
			{
				"x": -1.5755130116,
				"y": -3.4045755838,
				"z": 1.7251659717,
				"element": "H" 
			},
			{
				"x": -2.8382178899,
				"y": -1.5735558384,
				"z": 0.594363524,
				"element": "H" 
			},
			{
				"x": -1.6283462921,
				"y": 0.4452885638,
				"z": -0.1862051775,
				"element": "H" 
			}
		],
		 "valence_orbital": [ 
			{
				"type": "occ",
				"energy": -0.33021,
				"method": "rhf"
			},
			{
				"type": "occ",
				"energy": -0.32513,
				"method": "rhf"
			},
			{
				"type": "occ",
				"energy": -0.24852,
				"method": "rhf"
			},
			{
				"type": "occ",
				"energy": -0.22824,
				"method": "rhf"
			},
			{
				"type": "occ",
				"energy": -0.21245,
				"method": "rhf"
			},
			{
				"type": "unocc",
				"energy": 0.00141,
				"method": "rhf"
			},
			{
				"type": "unocc",
				"energy": 0.01532,
				"method": "rhf"
			},
			{
				"type": "unocc",
				"energy": 0.06775,
				"method": "rhf"
			},
			{
				"type": "unocc",
				"energy": 0.09017,
				"method": "rhf"
			},
			{
				"type": "unocc",
				"energy": 0.09861,
				"method": "rhf"
			}
		],
		"cosmo_sigma_profile": { 
			"-0.025": 0.0,
			"-0.024": 0.0,
			"-0.023": 0.0,
			"-0.022": 0.0,
			"-0.021": 0.0,
			"-0.02": 0.0,
			"-0.019": 0.0,
			"-0.018": 0.0976261170838,
			"-0.017": 0.952297360478,
			"-0.016": 0.85419765606,
			"-0.015": 0.957367199484,
			"-0.014": 0.861772516377,
			"-0.013": 0.555773200625,
			"-0.012": 1.20944512535,
			"-0.011": 0.794137894545,
			"-0.01": 1.64880367888,
			"-0.009": 3.44894304215,
			"-0.008": 4.19725967421,
			"-0.007": 3.78001535424,
			"-0.006": 6.48504119691,
			"-0.005": 10.3654338562,
			"-0.004": 13.4636864167,
			"-0.003": 15.5946881832,
			"-0.002": 14.0193255058,
			"-0.001": 13.7903972293,
			"0.0": 12.0305129268,
			"0.001": 10.6197753395,
			"0.002": 10.0739720417,
			"0.003": 11.1369660177,
			"0.004": 10.9684794712,
			"0.005": 11.0850228591,
			"0.006": 9.57737310043,
			"0.007": 7.33381298237,
			"0.008": 1.89428351687,
			"0.009": 2.3576104933,
			"0.01": 2.04464615642,
			"0.011": 0.762960917759,
			"0.012": 0.791952661792,
			"0.013": 0.80801053514,
			"0.014": 0.713431232634,
			"0.015": 0.289449035303,
			"0.016": 0.611376238381,
			"0.017": 1.07009946022,
			"0.018": 0.513707168052,
			"0.019": 0.596175395047,
			"0.02": 0.431902582701,
			"0.021": 0.0,
			"0.022": 0.0,
			"0.023": 0.0,
			"0.024": 0.0,
			"0.025": 0.0
		}
	}
}
