{
	 "smiles": "CC1=CC(C)=C(C=C1)N1C(S)=NC2=C1C=CC=C2", 
	 "Tm": 466.15, 
	 "num_atms": 32, 
	 "gaussian": { 
		 "optdone": 1, 
		 "sigma_profile": "yes", 
		 "theory": "DFT", 
		 "functional": "B3LYP", 
		 "basiset": "6-31G**", 
		 "properties": { 
			 "R2extent": 5535.9072, 
			 "electric_dipole_moment_norm": 3.48882844949, 
			 "electric_quadrupole_moment_norm": 4.20189091243, 
			 "total_energy": -1087.74634313, 
			 "HOMO_LUMO_gap": 0.18765, 
			 "cosmo_polarized_energy": -9.77, 
			 "cosmo_cavitation_energy": 37.24, 
			 "cosmo_dispersion_energy": -25.99, 
			 "cosmo_repulsion_energy": 1.97, 
			 "cosmo_total_nonelectrostatic_energy": 13.23, 
			 "SMD_solvation_energy": 4.12 
		},
		"coords": [
			{
				"x": -2.4136316537,
				"y": -4.1980125963,
				"z": 0.4936099873,
				"element": "C" 
			},
			{
				"x": -1.9692974728,
				"y": -2.7760744823,
				"z": 0.2447176846,
				"element": "C" 
			},
			{
				"x": -0.7194886101,
				"y": -2.3282427447,
				"z": 0.6922464716,
				"element": "C" 
			},
			{
				"x": -0.2581742892,
				"y": -1.0281035942,
				"z": 0.4608241835,
				"element": "C" 
			},
			{
				"x": 1.086643413,
				"y": -0.5735223088,
				"z": 0.9720289054,
				"element": "C" 
			},
			{
				"x": -1.1008811244,
				"y": -0.1565455476,
				"z": -0.2538804256,
				"element": "C" 
			},
			{
				"x": -2.3511104469,
				"y": -0.5806725044,
				"z": -0.7099213964,
				"element": "C" 
			},
			{
				"x": -2.7840165136,
				"y": -1.8801896546,
				"z": -0.4579913813,
				"element": "C" 
			},
			{
				"x": -0.6769589904,
				"y": 1.1840677917,
				"z": -0.5285485637,
				"element": "N" 
			},
			{
				"x": -0.9663378183,
				"y": 2.327873608,
				"z": 0.1980789355,
				"element": "C" 
			},
			{
				"x": -1.9821695362,
				"y": 2.2251684438,
				"z": 1.6442885526,
				"element": "S" 
			},
			{
				"x": -0.4305060417,
				"y": 3.4219454523,
				"z": -0.2783582539,
				"element": "N" 
			},
			{
				"x": 0.2725505473,
				"y": 3.0044613005,
				"z": -1.4028832851,
				"element": "C" 
			},
			{
				"x": 0.1344960552,
				"y": 1.6085728967,
				"z": -1.5821128069,
				"element": "C" 
			},
			{
				"x": 0.7324312475,
				"y": 0.9197372393,
				"z": -2.6366882946,
				"element": "C" 
			},
			{
				"x": 1.4926051359,
				"y": 1.6781973128,
				"z": -3.5268617,
				"element": "C" 
			},
			{
				"x": 1.6427119405,
				"y": 3.0688859791,
				"z": -3.3650005784,
				"element": "C" 
			},
			{
				"x": 1.038496614,
				"y": 3.7470660479,
				"z": -2.3089133791,
				"element": "C" 
			},
			{
				"x": -3.5013900769,
				"y": -4.2661876933,
				"z": 0.5878675752,
				"element": "H" 
			},
			{
				"x": -2.1168893887,
				"y": -4.8538305924,
				"z": -0.3344570217,
				"element": "H" 
			},
			{
				"x": -1.9667922563,
				"y": -4.6037317162,
				"z": 1.4058871852,
				"element": "H" 
			},
			{
				"x": -0.0818720814,
				"y": -3.0133191538,
				"z": 1.2464731704,
				"element": "H" 
			},
			{
				"x": 0.9808780464,
				"y": 0.2541130958,
				"z": 1.6819284777,
				"element": "H" 
			},
			{
				"x": 1.6050251967,
				"y": -1.3906931726,
				"z": 1.4795304724,
				"element": "H" 
			},
			{
				"x": 1.7254896166,
				"y": -0.2157297383,
				"z": 0.1579983626,
				"element": "H" 
			},
			{
				"x": -2.9765842509,
				"y": 0.1172647342,
				"z": -1.2577016505,
				"element": "H" 
			},
			{
				"x": -3.7606740934,
				"y": -2.1994137068,
				"z": -0.811382281,
				"element": "H" 
			},
			{
				"x": -1.851791015,
				"y": 3.5398362334,
				"z": 1.9021336967,
				"element": "H" 
			},
			{
				"x": 0.6079765119,
				"y": -0.1512540395,
				"z": -2.7613436977,
				"element": "H" 
			},
			{
				"x": 1.9771708911,
				"y": 1.1846137377,
				"z": -4.3641042239,
				"element": "H" 
			},
			{
				"x": 2.2424403169,
				"y": 3.6222583708,
				"z": -4.0816835996,
				"element": "H" 
			},
			{
				"x": 1.149050127,
				"y": 4.8189610017,
				"z": -2.1807811212,
				"element": "H" 
			}
		],
		 "valence_orbital": [ 
			{
				"type": "occ",
				"energy": -0.27672,
				"method": "rhf"
			},
			{
				"type": "occ",
				"energy": -0.25684,
				"method": "rhf"
			},
			{
				"type": "occ",
				"energy": -0.24776,
				"method": "rhf"
			},
			{
				"type": "occ",
				"energy": -0.22195,
				"method": "rhf"
			},
			{
				"type": "occ",
				"energy": -0.2089,
				"method": "rhf"
			},
			{
				"type": "unocc",
				"energy": -0.02125,
				"method": "rhf"
			},
			{
				"type": "unocc",
				"energy": -0.01167,
				"method": "rhf"
			},
			{
				"type": "unocc",
				"energy": -0.0091,
				"method": "rhf"
			},
			{
				"type": "unocc",
				"energy": 0.01962,
				"method": "rhf"
			},
			{
				"type": "unocc",
				"energy": 0.02493,
				"method": "rhf"
			}
		],
		"cosmo_sigma_profile": { 
			"-0.025": 0.0,
			"-0.024": 0.0,
			"-0.023": 0.0,
			"-0.022": 0.0,
			"-0.021": 0.0,
			"-0.02": 0.0,
			"-0.019": 0.0,
			"-0.018": 0.0,
			"-0.017": 0.0,
			"-0.016": 0.0,
			"-0.015": 0.0,
			"-0.014": 0.0,
			"-0.013": 0.0,
			"-0.012": 0.545881064122,
			"-0.011": 1.56774189667,
			"-0.01": 1.33453720103,
			"-0.009": 1.41280140109,
			"-0.008": 0.992462108161,
			"-0.007": 1.98677628342,
			"-0.006": 8.28518791056,
			"-0.005": 19.7578789857,
			"-0.004": 26.1948618962,
			"-0.003": 25.3681243376,
			"-0.002": 27.9220895152,
			"-0.001": 32.06726677,
			"0.0": 29.5645603585,
			"0.001": 19.362726257,
			"0.002": 21.6147745376,
			"0.003": 20.6794289414,
			"0.004": 21.6888389983,
			"0.005": 15.6835375522,
			"0.006": 11.4983654687,
			"0.007": 2.79375620918,
			"0.008": 0.689877177117,
			"0.009": 1.73031174811,
			"0.01": 1.18044404068,
			"0.011": 1.03010914017,
			"0.012": 1.11425865127,
			"0.013": 1.09466644837,
			"0.014": 0.564062539816,
			"0.015": 1.01562189988,
			"0.016": 0.778225516151,
			"0.017": 0.036681192828,
			"0.018": 0.0,
			"0.019": 0.0,
			"0.02": 0.0,
			"0.021": 0.0,
			"0.022": 0.0,
			"0.023": 0.0,
			"0.024": 0.0,
			"0.025": 0.0
		}
	}
}
