{
	 "smiles": "CC1=CC2=C(C=C(N2)C(O)=O)C(C)=C1", 
	 "Tm": 442.15, 
	 "num_atms": 25, 
	 "gaussian": { 
		 "optdone": 1, 
		 "sigma_profile": "yes", 
		 "theory": "DFT", 
		 "functional": "B3LYP", 
		 "basiset": "6-31G**", 
		 "properties": { 
			 "R2extent": 3589.1486, 
			 "electric_dipole_moment_norm": 3.9607406113, 
			 "electric_quadrupole_moment_norm": 18.3830890938, 
			 "total_energy": -631.033599905, 
			 "HOMO_LUMO_gap": 0.16454, 
			 "cosmo_polarized_energy": -14.82, 
			 "cosmo_cavitation_energy": 29.05, 
			 "cosmo_dispersion_energy": -21.29, 
			 "cosmo_repulsion_energy": 1.67, 
			 "cosmo_total_nonelectrostatic_energy": 9.43, 
			 "SMD_solvation_energy": 5.8 
		},
		"coords": [
			{
				"x": -1.1739243233,
				"y": -1.0662441759,
				"z": -3.5697294525,
				"element": "C" 
			},
			{
				"x": -0.7965051698,
				"y": -0.7056931992,
				"z": -2.152313001,
				"element": "C" 
			},
			{
				"x": -1.6875709293,
				"y": -0.0342337481,
				"z": -1.3270753821,
				"element": "C" 
			},
			{
				"x": -1.2719687574,
				"y": 0.2696759091,
				"z": -0.0215594682,
				"element": "C" 
			},
			{
				"x": 0.0161039428,
				"y": -0.0859556255,
				"z": 0.4701749367,
				"element": "C" 
			},
			{
				"x": 0.0874190244,
				"y": 0.3771117641,
				"z": 1.8196277765,
				"element": "C" 
			},
			{
				"x": -1.1221610388,
				"y": 0.9843036851,
				"z": 2.106106848,
				"element": "C" 
			},
			{
				"x": -1.9335302598,
				"y": 0.9140854531,
				"z": 0.9905679965,
				"element": "N" 
			},
			{
				"x": -1.670072844,
				"y": 1.6471924208,
				"z": 3.2985894013,
				"element": "C" 
			},
			{
				"x": -0.8698750841,
				"y": 1.7151740573,
				"z": 4.3915219841,
				"element": "O" 
			},
			{
				"x": -2.7884889388,
				"y": 2.1189162163,
				"z": 3.3214861751,
				"element": "O" 
			},
			{
				"x": 0.9210817533,
				"y": -0.7718058433,
				"z": -0.378504302,
				"element": "C" 
			},
			{
				"x": 2.291422183,
				"y": -1.1620119824,
				"z": 0.1126356997,
				"element": "C" 
			},
			{
				"x": 0.49057586,
				"y": -1.0619377732,
				"z": -1.6633510948,
				"element": "C" 
			},
			{
				"x": -0.4881228896,
				"y": -0.6086178728,
				"z": -4.2924806703,
				"element": "H" 
			},
			{
				"x": -2.1866894688,
				"y": -0.7336345672,
				"z": -3.8127320915,
				"element": "H" 
			},
			{
				"x": -1.129337809,
				"y": -2.1500035737,
				"z": -3.729696808,
				"element": "H" 
			},
			{
				"x": -2.6751677993,
				"y": 0.2466120102,
				"z": -1.6817726278,
				"element": "H" 
			},
			{
				"x": 0.9328425265,
				"y": 0.2692378396,
				"z": 2.4867035782,
				"element": "H" 
			},
			{
				"x": -2.8664836838,
				"y": 1.2995090618,
				"z": 0.9854053062,
				"element": "H" 
			},
			{
				"x": -0.0168174755,
				"y": 1.2965452308,
				"z": 4.209790288,
				"element": "H" 
			},
			{
				"x": 2.2291615275,
				"y": -1.8266505461,
				"z": 0.9829896011,
				"element": "H" 
			},
			{
				"x": 2.8698418752,
				"y": -0.2828774188,
				"z": 0.4219368385,
				"element": "H" 
			},
			{
				"x": 2.859309424,
				"y": -1.680095256,
				"z": -0.664403189,
				"element": "H" 
			},
			{
				"x": 1.1663583547,
				"y": -1.5877020662,
				"z": -2.3345183425,
				"element": "H" 
			}
		],
		 "valence_orbital": [ 
			{
				"type": "occ",
				"energy": -0.3126,
				"method": "rhf"
			},
			{
				"type": "occ",
				"energy": -0.28377,
				"method": "rhf"
			},
			{
				"type": "occ",
				"energy": -0.27807,
				"method": "rhf"
			},
			{
				"type": "occ",
				"energy": -0.22837,
				"method": "rhf"
			},
			{
				"type": "occ",
				"energy": -0.21403,
				"method": "rhf"
			},
			{
				"type": "unocc",
				"energy": -0.04949,
				"method": "rhf"
			},
			{
				"type": "unocc",
				"energy": 0.01402,
				"method": "rhf"
			},
			{
				"type": "unocc",
				"energy": 0.02377,
				"method": "rhf"
			},
			{
				"type": "unocc",
				"energy": 0.05349,
				"method": "rhf"
			},
			{
				"type": "unocc",
				"energy": 0.09151,
				"method": "rhf"
			}
		],
		"cosmo_sigma_profile": { 
			"-0.025": 0.0,
			"-0.024": 0.0,
			"-0.023": 0.0,
			"-0.022": 0.0,
			"-0.021": 0.0,
			"-0.02": 0.0,
			"-0.019": 0.0810557874792,
			"-0.018": 1.03600426848,
			"-0.017": 0.847903789311,
			"-0.016": 1.58709142809,
			"-0.015": 1.0304705763,
			"-0.014": 1.72343742274,
			"-0.013": 1.69227030044,
			"-0.012": 2.26320977517,
			"-0.011": 2.26915207792,
			"-0.01": 2.05259019511,
			"-0.009": 1.80068369972,
			"-0.008": 2.29076681334,
			"-0.007": 3.34280976098,
			"-0.006": 4.64707029755,
			"-0.005": 5.58546673707,
			"-0.004": 17.3087147015,
			"-0.003": 20.5878420924,
			"-0.002": 20.11432226,
			"-0.001": 19.444672029,
			"0.0": 21.7564106774,
			"0.001": 15.7754806615,
			"0.002": 10.9707159068,
			"0.003": 14.1748765211,
			"0.004": 12.7172217939,
			"0.005": 12.9857901717,
			"0.006": 8.17958717213,
			"0.007": 2.52964886447,
			"0.008": 3.047004173,
			"0.009": 2.87222728747,
			"0.01": 4.47984656719,
			"0.011": 4.80836921533,
			"0.012": 4.36092609018,
			"0.013": 1.97570604487,
			"0.014": 0.334352395183,
			"0.015": 0.0,
			"0.016": 0.0,
			"0.017": 0.0,
			"0.018": 0.0,
			"0.019": 0.0,
			"0.02": 0.0,
			"0.021": 0.0,
			"0.022": 0.0,
			"0.023": 0.0,
			"0.024": 0.0,
			"0.025": 0.0
		}
	}
}
