{
	 "smiles": "C1C2CC3CC1CC(C2)(C3)C1=CC=CC=C1", 
	 "Tm": 357.65, 
	 "num_atms": 36, 
	 "gaussian": { 
		 "optdone": 1, 
		 "sigma_profile": "yes", 
		 "theory": "DFT", 
		 "functional": "B3LYP", 
		 "basiset": "6-31G**", 
		 "properties": { 
			 "R2extent": 3654.6192, 
			 "electric_dipole_moment_norm": 0.487971618027, 
			 "electric_quadrupole_moment_norm": 3.7884773762, 
			 "total_energy": -621.789629076, 
			 "HOMO_LUMO_gap": 0.23747, 
			 "cosmo_polarized_energy": -3.22, 
			 "cosmo_cavitation_energy": 32.8, 
			 "cosmo_dispersion_energy": -24.61, 
			 "cosmo_repulsion_energy": 1.86, 
			 "cosmo_total_nonelectrostatic_energy": 10.06, 
			 "SMD_solvation_energy": 4.03 
		},
		"coords": [
			{
				"x": -0.953119463,
				"y": -2.3086062457,
				"z": -2.0820149663,
				"element": "C" 
			},
			{
				"x": -1.2650441536,
				"y": -0.8334297321,
				"z": -2.402546317,
				"element": "C" 
			},
			{
				"x": -0.0386063876,
				"y": -0.1822574842,
				"z": -3.0721118912,
				"element": "C" 
			},
			{
				"x": 1.1614443602,
				"y": -0.2475186895,
				"z": -2.1073013695,
				"element": "C" 
			},
			{
				"x": 1.4763046956,
				"y": -1.7212481947,
				"z": -1.7778780668,
				"element": "C" 
			},
			{
				"x": 0.2461284968,
				"y": -2.3761259265,
				"z": -1.1163500009,
				"element": "C" 
			},
			{
				"x": -0.0992840159,
				"y": -1.6242344171,
				"z": 0.1852770234,
				"element": "C" 
			},
			{
				"x": -0.4169047966,
				"y": -0.1268513281,
				"z": -0.1015251355,
				"element": "C" 
			},
			{
				"x": -1.6028735909,
				"y": -0.0808968425,
				"z": -1.0988688387,
				"element": "C" 
			},
			{
				"x": 0.8176980463,
				"y": 0.5081135405,
				"z": -0.8074027025,
				"element": "C" 
			},
			{
				"x": -0.7137028384,
				"y": 0.6107936245,
				"z": 1.210654793,
				"element": "C" 
			},
			{
				"x": -1.9346587785,
				"y": 1.2529905577,
				"z": 1.4633363373,
				"element": "C" 
			},
			{
				"x": -2.1725538594,
				"y": 1.9152086475,
				"z": 2.6710982359,
				"element": "C" 
			},
			{
				"x": -1.192598029,
				"y": 1.9525434683,
				"z": 3.6606857355,
				"element": "C" 
			},
			{
				"x": 0.0303068433,
				"y": 1.3194377327,
				"z": 3.4287204673,
				"element": "C" 
			},
			{
				"x": 0.2618511749,
				"y": 0.6608384383,
				"z": 2.2226543525,
				"element": "C" 
			},
			{
				"x": -1.8297261094,
				"y": -2.7910390286,
				"z": -1.629859213,
				"element": "H" 
			},
			{
				"x": -0.7280647687,
				"y": -2.8568620766,
				"z": -3.0063027638,
				"element": "H" 
			},
			{
				"x": -2.1275362479,
				"y": -0.7774002639,
				"z": -3.0790059277,
				"element": "H" 
			},
			{
				"x": -0.2587652447,
				"y": 0.8618931469,
				"z": -3.3307983815,
				"element": "H" 
			},
			{
				"x": 0.1996443061,
				"y": -0.7003948672,
				"z": -4.0103506034,
				"element": "H" 
			},
			{
				"x": 2.0373704467,
				"y": 0.2214266852,
				"z": -2.5738870746,
				"element": "H" 
			},
			{
				"x": 2.3428218276,
				"y": -1.781039636,
				"z": -1.1058924268,
				"element": "H" 
			},
			{
				"x": 1.7458475763,
				"y": -2.2634775153,
				"z": -2.6937658688,
				"element": "H" 
			},
			{
				"x": 0.4699726731,
				"y": -3.4237019825,
				"z": -0.8769352104,
				"element": "H" 
			},
			{
				"x": 0.7379788478,
				"y": -1.7012531838,
				"z": 0.8890144392,
				"element": "H" 
			},
			{
				"x": -0.9642677885,
				"y": -2.0895578891,
				"z": 0.6754631917,
				"element": "H" 
			},
			{
				"x": -2.4939735209,
				"y": -0.5281141479,
				"z": -0.6396727363,
				"element": "H" 
			},
			{
				"x": -1.8525949427,
				"y": 0.9619182676,
				"z": -1.3336365659,
				"element": "H" 
			},
			{
				"x": 0.6065052685,
				"y": 1.5631570403,
				"z": -1.0248633803,
				"element": "H" 
			},
			{
				"x": 1.6823284862,
				"y": 0.494623406,
				"z": -0.1332901954,
				"element": "H" 
			},
			{
				"x": -2.719949533,
				"y": 1.2441591437,
				"z": 0.716186694,
				"element": "H" 
			},
			{
				"x": -3.1303574129,
				"y": 2.4022900662,
				"z": 2.8336318046,
				"element": "H" 
			},
			{
				"x": -1.3768199837,
				"y": 2.4667546442,
				"z": 4.5996247953,
				"element": "H" 
			},
			{
				"x": 0.806932462,
				"y": 1.3377499789,
				"z": 4.1886565388,
				"element": "H" 
			},
			{
				"x": 1.222265954,
				"y": 0.1770110628,
				"z": 2.0694552278,
				"element": "H" 
			}
		],
		 "valence_orbital": [ 
			{
				"type": "occ",
				"energy": -0.28113,
				"method": "rhf"
			},
			{
				"type": "occ",
				"energy": -0.27873,
				"method": "rhf"
			},
			{
				"type": "occ",
				"energy": -0.27395,
				"method": "rhf"
			},
			{
				"type": "occ",
				"energy": -0.2421,
				"method": "rhf"
			},
			{
				"type": "occ",
				"energy": -0.23312,
				"method": "rhf"
			},
			{
				"type": "unocc",
				"energy": 0.00435,
				"method": "rhf"
			},
			{
				"type": "unocc",
				"energy": 0.00776,
				"method": "rhf"
			},
			{
				"type": "unocc",
				"energy": 0.06956,
				"method": "rhf"
			},
			{
				"type": "unocc",
				"energy": 0.09825,
				"method": "rhf"
			},
			{
				"type": "unocc",
				"energy": 0.1185,
				"method": "rhf"
			}
		],
		"cosmo_sigma_profile": { 
			"-0.025": 0.0,
			"-0.024": 0.0,
			"-0.023": 0.0,
			"-0.022": 0.0,
			"-0.021": 0.0,
			"-0.02": 0.0,
			"-0.019": 0.0,
			"-0.018": 0.0,
			"-0.017": 0.0,
			"-0.016": 0.0,
			"-0.015": 0.0,
			"-0.014": 0.0,
			"-0.013": 0.0,
			"-0.012": 0.0,
			"-0.011": 0.0,
			"-0.01": 0.0,
			"-0.009": 0.0,
			"-0.008": 0.0,
			"-0.007": 0.0,
			"-0.006": 0.650719301806,
			"-0.005": 7.08362965452,
			"-0.004": 11.3872430037,
			"-0.003": 15.1074748201,
			"-0.002": 35.2129207106,
			"-0.001": 52.2654219943,
			"0.0": 43.3395493463,
			"0.001": 34.4651486632,
			"0.002": 16.8760223551,
			"0.003": 7.67408287167,
			"0.004": 7.68173055662,
			"0.005": 8.31517519433,
			"0.006": 7.79828540031,
			"0.007": 5.98895113993,
			"0.008": 0.214336390507,
			"0.009": 0.0,
			"0.01": 0.0,
			"0.011": 0.0,
			"0.012": 0.0,
			"0.013": 0.0,
			"0.014": 0.0,
			"0.015": 0.0,
			"0.016": 0.0,
			"0.017": 0.0,
			"0.018": 0.0,
			"0.019": 0.0,
			"0.02": 0.0,
			"0.021": 0.0,
			"0.022": 0.0,
			"0.023": 0.0,
			"0.024": 0.0,
			"0.025": 0.0
		}
	}
}
