{
	 "smiles": "OC1CC2=CC=CC3=C2C1=CC=C3", 
	 "Tm": 420.65, 
	 "num_atms": 23, 
	 "gaussian": { 
		 "optdone": 1, 
		 "sigma_profile": "yes", 
		 "theory": "DFT", 
		 "functional": "B3LYP", 
		 "basiset": "6-31G**", 
		 "properties": { 
			 "R2extent": 2518.8531, 
			 "electric_dipole_moment_norm": 1.23704833374, 
			 "electric_quadrupole_moment_norm": 6.35671064938, 
			 "total_energy": -538.530671325, 
			 "HOMO_LUMO_gap": 0.17205, 
			 "cosmo_polarized_energy": -7.91, 
			 "cosmo_cavitation_energy": 25.72, 
			 "cosmo_dispersion_energy": -19.29, 
			 "cosmo_repulsion_energy": 1.5, 
			 "cosmo_total_nonelectrostatic_energy": 7.94, 
			 "SMD_solvation_energy": 3.61 
		},
		"coords": [
			{
				"x": -0.4979452706,
				"y": 3.2107697185,
				"z": -2.3782852622,
				"element": "O" 
			},
			{
				"x": -0.7025511797,
				"y": 1.9449155513,
				"z": -1.7625894408,
				"element": "C" 
			},
			{
				"x": -1.4256589625,
				"y": 2.0142697149,
				"z": -0.3650090391,
				"element": "C" 
			},
			{
				"x": -0.5619656443,
				"y": 1.1943040889,
				"z": 0.5751718172,
				"element": "C" 
			},
			{
				"x": -0.6892098395,
				"y": 0.8454804992,
				"z": 1.9011145712,
				"element": "C" 
			},
			{
				"x": 0.3384957866,
				"y": 0.0690276542,
				"z": 2.5094460264,
				"element": "C" 
			},
			{
				"x": 1.4667551412,
				"y": -0.3388786525,
				"z": 1.8213163502,
				"element": "C" 
			},
			{
				"x": 1.6290211283,
				"y": 0.0072854542,
				"z": 0.4510327089,
				"element": "C" 
			},
			{
				"x": 0.5844930572,
				"y": 0.7629008384,
				"z": -0.1304331102,
				"element": "C" 
			},
			{
				"x": 0.5818945465,
				"y": 1.1779503069,
				"z": -1.4775589462,
				"element": "C" 
			},
			{
				"x": 1.6554071806,
				"y": 0.8630983402,
				"z": -2.2814895515,
				"element": "C" 
			},
			{
				"x": 2.7257064777,
				"y": 0.1118622187,
				"z": -1.7210729473,
				"element": "C" 
			},
			{
				"x": 2.7203907679,
				"y": -0.3126020065,
				"z": -0.4030752917,
				"element": "C" 
			},
			{
				"x": 0.1895763323,
				"y": 3.668027706,
				"z": -1.8744300167,
				"element": "H" 
			},
			{
				"x": -1.3264807798,
				"y": 1.3970241829,
				"z": -2.4775996295,
				"element": "H" 
			},
			{
				"x": -1.4908595329,
				"y": 3.0638280256,
				"z": -0.0521250083,
				"element": "H" 
			},
			{
				"x": -2.4544174954,
				"y": 1.6423937055,
				"z": -0.4225031748,
				"element": "H" 
			},
			{
				"x": -1.5489719455,
				"y": 1.1515741047,
				"z": 2.4911575648,
				"element": "H" 
			},
			{
				"x": 0.2304162847,
				"y": -0.2051427648,
				"z": 3.5554565611,
				"element": "H" 
			},
			{
				"x": 2.2314296695,
				"y": -0.9243918807,
				"z": 2.3250232135,
				"element": "H" 
			},
			{
				"x": 1.6947729813,
				"y": 1.176517526,
				"z": -3.320913178,
				"element": "H" 
			},
			{
				"x": 3.5727622109,
				"y": -0.1403871612,
				"z": -2.3533138308,
				"element": "H" 
			},
			{
				"x": 3.5550390854,
				"y": -0.8911271703,
				"z": -0.0154203862,
				"element": "H" 
			}
		],
		 "valence_orbital": [ 
			{
				"type": "occ",
				"energy": -0.31676,
				"method": "rhf"
			},
			{
				"type": "occ",
				"energy": -0.28295,
				"method": "rhf"
			},
			{
				"type": "occ",
				"energy": -0.26394,
				"method": "rhf"
			},
			{
				"type": "occ",
				"energy": -0.24269,
				"method": "rhf"
			},
			{
				"type": "occ",
				"energy": -0.20968,
				"method": "rhf"
			},
			{
				"type": "unocc",
				"energy": -0.03763,
				"method": "rhf"
			},
			{
				"type": "unocc",
				"energy": -0.00987,
				"method": "rhf"
			},
			{
				"type": "unocc",
				"energy": 0.02582,
				"method": "rhf"
			},
			{
				"type": "unocc",
				"energy": 0.08854,
				"method": "rhf"
			},
			{
				"type": "unocc",
				"energy": 0.10091,
				"method": "rhf"
			}
		],
		"cosmo_sigma_profile": { 
			"-0.025": 0.0,
			"-0.024": 0.0,
			"-0.023": 0.0,
			"-0.022": 0.0,
			"-0.021": 0.0,
			"-0.02": 0.0,
			"-0.019": 0.0,
			"-0.018": 0.0,
			"-0.017": 0.0,
			"-0.016": 0.0333491304091,
			"-0.015": 0.660333453942,
			"-0.014": 0.778961290156,
			"-0.013": 0.89964133477,
			"-0.012": 1.43051239167,
			"-0.011": 0.385156898124,
			"-0.01": 0.828984817363,
			"-0.009": 0.935352137646,
			"-0.008": 0.648242005181,
			"-0.007": 1.00185129735,
			"-0.006": 5.63691857642,
			"-0.005": 18.3749948933,
			"-0.004": 20.8788939254,
			"-0.003": 19.2370992816,
			"-0.002": 15.8739984546,
			"-0.001": 15.7721303796,
			"0.0": 11.6451870806,
			"0.001": 11.8079802885,
			"0.002": 10.2234581208,
			"0.003": 14.3510892716,
			"0.004": 18.1774927884,
			"0.005": 17.7502974886,
			"0.006": 6.37086448158,
			"0.007": 0.935998771907,
			"0.008": 1.18924047293,
			"0.009": 1.24798917923,
			"0.01": 1.05513781057,
			"0.011": 1.26254504267,
			"0.012": 1.25171863556,
			"0.013": 1.87088493246,
			"0.014": 2.13062633003,
			"0.015": 0.113866638075,
			"0.016": 0.0,
			"0.017": 0.0,
			"0.018": 0.0,
			"0.019": 0.0,
			"0.02": 0.0,
			"0.021": 0.0,
			"0.022": 0.0,
			"0.023": 0.0,
			"0.024": 0.0,
			"0.025": 0.0
		}
	}
}
