{
	 "smiles": "BrC1=CC2=C(OCC(=O)N2)N=C1", 
	 "Tm": 530.15, 
	 "num_atms": 17, 
	 "gaussian": { 
		 "optdone": 1, 
		 "sigma_profile": "yes", 
		 "theory": "DFT", 
		 "functional": "B3LYP", 
		 "basiset": "6-31G**", 
		 "properties": { 
			 "R2extent": 5475.0148, 
			 "electric_dipole_moment_norm": 1.80106143427, 
			 "electric_quadrupole_moment_norm": 10.0926779638, 
			 "total_energy": -3101.11074481, 
			 "HOMO_LUMO_gap": 0.18715, 
			 "cosmo_polarized_energy": -14.77, 
			 "cosmo_cavitation_energy": 24.11, 
			 "cosmo_dispersion_energy": -18.82, 
			 "cosmo_repulsion_energy": 1.49, 
			 "cosmo_total_nonelectrostatic_energy": 6.78, 
			 "SMD_solvation_energy": 2.39 
		},
		"coords": [
			{
				"x": -2.4418432047,
				"y": 0.8183684632,
				"z": -4.6522152921,
				"element": "Br" 
			},
			{
				"x": -1.9338643421,
				"y": 0.1627241857,
				"z": -2.9379198345,
				"element": "C" 
			},
			{
				"x": -1.7576118979,
				"y": 1.048790178,
				"z": -1.8733352155,
				"element": "C" 
			},
			{
				"x": -1.3923450285,
				"y": 0.5237578695,
				"z": -0.6387910656,
				"element": "C" 
			},
			{
				"x": -1.1984836479,
				"y": -0.8716949028,
				"z": -0.5415085722,
				"element": "C" 
			},
			{
				"x": -0.8724842101,
				"y": -1.4298666365,
				"z": 0.6566757007,
				"element": "O" 
			},
			{
				"x": -0.1481282041,
				"y": -0.597415427,
				"z": 1.566590897,
				"element": "C" 
			},
			{
				"x": -0.6594856545,
				"y": 0.8371789497,
				"z": 1.6680794132,
				"element": "C" 
			},
			{
				"x": -0.5114370556,
				"y": 1.5192596783,
				"z": 2.6649562453,
				"element": "O" 
			},
			{
				"x": -1.2441384671,
				"y": 1.3041000471,
				"z": 0.513755186,
				"element": "N" 
			},
			{
				"x": -1.3713824915,
				"y": -1.7011386026,
				"z": -1.5524247664,
				"element": "N" 
			},
			{
				"x": -1.7411389683,
				"y": -1.2010112777,
				"z": -2.7394035756,
				"element": "C" 
			},
			{
				"x": -1.9142250896,
				"y": 2.1145626425,
				"z": -2.0021330784,
				"element": "H" 
			},
			{
				"x": -0.2296498588,
				"y": -1.0603897923,
				"z": 2.5497213838,
				"element": "H" 
			},
			{
				"x": 0.9150719704,
				"y": -0.5637692486,
				"z": 1.2849023409,
				"element": "H" 
			},
			{
				"x": -1.5370289589,
				"y": 2.2732856059,
				"z": 0.5168025629,
				"element": "H" 
			},
			{
				"x": -1.8848248908,
				"y": -1.9082417324,
				"z": -3.5505523296,
				"element": "H" 
			}
		],
		 "valence_orbital": [ 
			{
				"type": "occ",
				"energy": -0.30544,
				"method": "rhf"
			},
			{
				"type": "occ",
				"energy": -0.28321,
				"method": "rhf"
			},
			{
				"type": "occ",
				"energy": -0.27873,
				"method": "rhf"
			},
			{
				"type": "occ",
				"energy": -0.27222,
				"method": "rhf"
			},
			{
				"type": "occ",
				"energy": -0.2338,
				"method": "rhf"
			},
			{
				"type": "unocc",
				"energy": -0.04665,
				"method": "rhf"
			},
			{
				"type": "unocc",
				"energy": -0.03202,
				"method": "rhf"
			},
			{
				"type": "unocc",
				"energy": -0.00576,
				"method": "rhf"
			},
			{
				"type": "unocc",
				"energy": 0.00932,
				"method": "rhf"
			},
			{
				"type": "unocc",
				"energy": 0.06506,
				"method": "rhf"
			}
		],
		"cosmo_sigma_profile": { 
			"-0.025": 0.0,
			"-0.024": 0.0,
			"-0.023": 0.0,
			"-0.022": 0.0,
			"-0.021": 0.0,
			"-0.02": 0.0,
			"-0.019": 0.0,
			"-0.018": 0.0,
			"-0.017": 0.346600215327,
			"-0.016": 1.49000640124,
			"-0.015": 1.28142268745,
			"-0.014": 1.8034125271,
			"-0.013": 0.878142314469,
			"-0.012": 1.29338202133,
			"-0.011": 1.30137234958,
			"-0.01": 1.61978760048,
			"-0.009": 4.04630223562,
			"-0.008": 8.33215691732,
			"-0.007": 8.12800865607,
			"-0.006": 7.75389214572,
			"-0.005": 8.96584022303,
			"-0.004": 9.33771299458,
			"-0.003": 9.91950202252,
			"-0.002": 12.4860539845,
			"-0.001": 14.9163570512,
			"0.0": 16.4352878019,
			"0.001": 13.6173554413,
			"0.002": 10.3206974214,
			"0.003": 10.6340437437,
			"0.004": 13.4281932188,
			"0.005": 4.73305907586,
			"0.006": 3.27646133926,
			"0.007": 3.92131526618,
			"0.008": 2.55572457499,
			"0.009": 4.1377859192,
			"0.01": 3.18399622037,
			"0.011": 5.20033953793,
			"0.012": 7.16691414568,
			"0.013": 3.05923383892,
			"0.014": 1.15941034075,
			"0.015": 0.416853622345,
			"0.016": 0.0,
			"0.017": 0.0,
			"0.018": 0.0,
			"0.019": 0.0,
			"0.02": 0.0,
			"0.021": 0.0,
			"0.022": 0.0,
			"0.023": 0.0,
			"0.024": 0.0,
			"0.025": 0.0
		}
	}
}
