{
	 "smiles": "CC1=C(NC(=O)C2=CC=CC=C2)C=C(C=C1)C(O)=O", 
	 "Tm": 543.15, 
	 "num_atms": 32, 
	 "gaussian": { 
		 "optdone": 1, 
		 "sigma_profile": "yes", 
		 "theory": "DFT", 
		 "functional": "B3LYP", 
		 "basiset": "6-31G**", 
		 "properties": { 
			 "R2extent": 7180.0608, 
			 "electric_dipole_moment_norm": 2.42778558773, 
			 "electric_quadrupole_moment_norm": 20.4517927708, 
			 "total_energy": -859.900638709, 
			 "HOMO_LUMO_gap": 0.18948, 
			 "cosmo_polarized_energy": -17.37, 
			 "cosmo_cavitation_energy": 36.88, 
			 "cosmo_dispersion_energy": -26.43, 
			 "cosmo_repulsion_energy": 2.01, 
			 "cosmo_total_nonelectrostatic_energy": 12.47, 
			 "SMD_solvation_energy": 7.96 
		},
		"coords": [
			{
				"x": 1.486425244,
				"y": -1.8909497794,
				"z": -1.9914739283,
				"element": "C" 
			},
			{
				"x": 2.1931611966,
				"y": -0.8109271992,
				"z": -1.2188295417,
				"element": "C" 
			},
			{
				"x": 1.5124387821,
				"y": 0.0391692478,
				"z": -0.3190521515,
				"element": "C" 
			},
			{
				"x": 0.1128746963,
				"y": -0.0834618687,
				"z": -0.091979699,
				"element": "N" 
			},
			{
				"x": -0.5010697267,
				"y": -1.2148361659,
				"z": 0.4212072014,
				"element": "C" 
			},
			{
				"x": 0.1058938821,
				"y": -2.2541443227,
				"z": 0.6467245192,
				"element": "O" 
			},
			{
				"x": -1.9737888083,
				"y": -1.0806169893,
				"z": 0.6848030593,
				"element": "C" 
			},
			{
				"x": -2.5478711463,
				"y": -1.9852661629,
				"z": 1.5887383948,
				"element": "C" 
			},
			{
				"x": -3.9070605259,
				"y": -1.9179296336,
				"z": 1.8841117751,
				"element": "C" 
			},
			{
				"x": -4.711020624,
				"y": -0.954769906,
				"z": 1.2682641274,
				"element": "C" 
			},
			{
				"x": -4.1511134222,
				"y": -0.0633288871,
				"z": 0.3512918387,
				"element": "C" 
			},
			{
				"x": -2.7882132391,
				"y": -0.1248226256,
				"z": 0.0595675735,
				"element": "C" 
			},
			{
				"x": 2.1907309936,
				"y": 1.07500033,
				"z": 0.3233838243,
				"element": "C" 
			},
			{
				"x": 3.5560581861,
				"y": 1.2819491021,
				"z": 0.1080375436,
				"element": "C" 
			},
			{
				"x": 4.2525525917,
				"y": 0.4260467802,
				"z": -0.7534780828,
				"element": "C" 
			},
			{
				"x": 3.5676657441,
				"y": -0.5982313877,
				"z": -1.3990899613,
				"element": "C" 
			},
			{
				"x": 4.2066637216,
				"y": 2.4092327161,
				"z": 0.8212704283,
				"element": "C" 
			},
			{
				"x": 5.5353730285,
				"y": 2.5068413569,
				"z": 0.5628999412,
				"element": "O" 
			},
			{
				"x": 3.6373941518,
				"y": 3.1848281985,
				"z": 1.5655175606,
				"element": "O" 
			},
			{
				"x": 0.5352707867,
				"y": -1.5255589541,
				"z": -2.3936164644,
				"element": "H" 
			},
			{
				"x": 1.2491742845,
				"y": -2.738071509,
				"z": -1.3411101094,
				"element": "H" 
			},
			{
				"x": 2.1034901624,
				"y": -2.2392573768,
				"z": -2.8235716548,
				"element": "H" 
			},
			{
				"x": -0.3752690417,
				"y": 0.7878574771,
				"z": 0.0622183322,
				"element": "H" 
			},
			{
				"x": -1.9068745287,
				"y": -2.7315802124,
				"z": 2.0456060384,
				"element": "H" 
			},
			{
				"x": -4.3416864264,
				"y": -2.6170951574,
				"z": 2.5924830787,
				"element": "H" 
			},
			{
				"x": -5.7718416073,
				"y": -0.9043161967,
				"z": 1.4961706213,
				"element": "H" 
			},
			{
				"x": -4.7760671997,
				"y": 0.67387396,
				"z": -0.1441044381,
				"element": "H" 
			},
			{
				"x": -2.3733153345,
				"y": 0.5497162178,
				"z": -0.6840947723,
				"element": "H" 
			},
			{
				"x": 1.6692715249,
				"y": 1.7338500927,
				"z": 1.0110697812,
				"element": "H" 
			},
			{
				"x": 5.313141755,
				"y": 0.5725039754,
				"z": -0.9215811784,
				"element": "H" 
			},
			{
				"x": 4.1050268446,
				"y": -1.2479906386,
				"z": -2.0843552584,
				"element": "H" 
			},
			{
				"x": 5.8469840541,
				"y": 3.2686855188,
				"z": 1.0782716014,
				"element": "H" 
			}
		],
		 "valence_orbital": [ 
			{
				"type": "occ",
				"energy": -0.26774,
				"method": "rhf"
			},
			{
				"type": "occ",
				"energy": -0.26391,
				"method": "rhf"
			},
			{
				"type": "occ",
				"energy": -0.25627,
				"method": "rhf"
			},
			{
				"type": "occ",
				"energy": -0.25261,
				"method": "rhf"
			},
			{
				"type": "occ",
				"energy": -0.23626,
				"method": "rhf"
			},
			{
				"type": "unocc",
				"energy": -0.04678,
				"method": "rhf"
			},
			{
				"type": "unocc",
				"energy": -0.04464,
				"method": "rhf"
			},
			{
				"type": "unocc",
				"energy": -0.01419,
				"method": "rhf"
			},
			{
				"type": "unocc",
				"energy": -0.00644,
				"method": "rhf"
			},
			{
				"type": "unocc",
				"energy": 0.05141,
				"method": "rhf"
			}
		],
		"cosmo_sigma_profile": { 
			"-0.025": 0.0,
			"-0.024": 0.0,
			"-0.023": 0.0,
			"-0.022": 0.0,
			"-0.021": 0.0,
			"-0.02": 0.0,
			"-0.019": 0.0,
			"-0.018": 0.730776802726,
			"-0.017": 0.868570515818,
			"-0.016": 0.846041028905,
			"-0.015": 1.1835769262,
			"-0.014": 1.94674873978,
			"-0.013": 1.56704357391,
			"-0.012": 2.22367647212,
			"-0.011": 1.74900787911,
			"-0.01": 2.53216894163,
			"-0.009": 2.82451103055,
			"-0.008": 2.17043090907,
			"-0.007": 5.19833011725,
			"-0.006": 15.2501105993,
			"-0.005": 17.2591016113,
			"-0.004": 18.4587574775,
			"-0.003": 16.1654383865,
			"-0.002": 21.2122703863,
			"-0.001": 21.051202985,
			"0.0": 26.6765695247,
			"0.001": 22.7600756395,
			"0.002": 21.8286079019,
			"0.003": 24.2062411224,
			"0.004": 20.6010914476,
			"0.005": 8.85106788127,
			"0.006": 3.98409002867,
			"0.007": 5.33160759621,
			"0.008": 3.85534272449,
			"0.009": 4.02048029492,
			"0.01": 3.81946613111,
			"0.011": 4.84374123796,
			"0.012": 7.34447054393,
			"0.013": 3.27173613946,
			"0.014": 0.18330108104,
			"0.015": 0.0,
			"0.016": 0.0,
			"0.017": 0.0,
			"0.018": 0.0,
			"0.019": 0.0,
			"0.02": 0.0,
			"0.021": 0.0,
			"0.022": 0.0,
			"0.023": 0.0,
			"0.024": 0.0,
			"0.025": 0.0
		}
	}
}
