{
	 "smiles": "CSC1=C(C=C(C=C1)C(F)(F)F)[N+]([O-])=O", 
	 "Tm": 368.15, 
	 "num_atms": 21, 
	 "gaussian": { 
		 "optdone": 1, 
		 "sigma_profile": "yes", 
		 "theory": "DFT", 
		 "functional": "B3LYP", 
		 "basiset": "6-31G**", 
		 "properties": { 
			 "R2extent": 4712.6626, 
			 "electric_dipole_moment_norm": 3.71884336589, 
			 "electric_quadrupole_moment_norm": 7.74611353841, 
			 "total_energy": -1211.26866536, 
			 "HOMO_LUMO_gap": 0.14367, 
			 "cosmo_polarized_energy": -8.76, 
			 "cosmo_cavitation_energy": 29.05, 
			 "cosmo_dispersion_energy": -20.83, 
			 "cosmo_repulsion_energy": 1.53, 
			 "cosmo_total_nonelectrostatic_energy": 9.74, 
			 "SMD_solvation_energy": 8.35 
		},
		"coords": [
			{
				"x": -1.7017365035,
				"y": 2.2984038181,
				"z": -0.0689618126,
				"element": "C" 
			},
			{
				"x": -0.1177124745,
				"y": 2.3304483882,
				"z": -0.9917631015,
				"element": "S" 
			},
			{
				"x": 0.5325874763,
				"y": 0.6868432952,
				"z": -0.6815548938,
				"element": "C" 
			},
			{
				"x": 0.2092645315,
				"y": -0.4781413021,
				"z": -1.4049375821,
				"element": "C" 
			},
			{
				"x": 0.8555104863,
				"y": -1.6924378404,
				"z": -1.1785187039,
				"element": "C" 
			},
			{
				"x": 1.836489468,
				"y": -1.7778093989,
				"z": -0.1961067917,
				"element": "C" 
			},
			{
				"x": 2.1885054851,
				"y": -0.6403973234,
				"z": 0.5337263486,
				"element": "C" 
			},
			{
				"x": 1.5500747926,
				"y": 0.5700439043,
				"z": 0.2798080955,
				"element": "C" 
			},
			{
				"x": 2.5620916545,
				"y": -3.0782930484,
				"z": 0.0403967781,
				"element": "C" 
			},
			{
				"x": 1.8315825687,
				"y": -4.1391436917,
				"z": -0.3572741551,
				"element": "F" 
			},
			{
				"x": 3.7304919261,
				"y": -3.1171530349,
				"z": -0.6356681213,
				"element": "F" 
			},
			{
				"x": 2.8558059236,
				"y": -3.2444643366,
				"z": 1.3479625979,
				"element": "F" 
			},
			{
				"x": -0.8197640297,
				"y": -0.5014102097,
				"z": -2.4620962277,
				"element": "N" 
			},
			{
				"x": -0.6225609323,
				"y": -1.2612088286,
				"z": -3.4090583057,
				"element": "O" 
			},
			{
				"x": -1.8092831776,
				"y": 0.2127078887,
				"z": -2.3276695234,
				"element": "O" 
			},
			{
				"x": -2.1295340193,
				"y": 3.2960682862,
				"z": -0.1920070891,
				"element": "H" 
			},
			{
				"x": -1.5269421069,
				"y": 2.1114049927,
				"z": 0.9921935388,
				"element": "H" 
			},
			{
				"x": -2.370550629,
				"y": 1.5537065746,
				"z": -0.4972161588,
				"element": "H" 
			},
			{
				"x": 0.5792701129,
				"y": -2.5543023679,
				"z": -1.7723175197,
				"element": "H" 
			},
			{
				"x": 2.9542859648,
				"y": -0.7021959626,
				"z": 1.2995279697,
				"element": "H" 
			},
			{
				"x": 1.8334234825,
				"y": 1.4581301972,
				"z": 0.8337346579,
				"element": "H" 
			}
		],
		 "valence_orbital": [ 
			{
				"type": "occ",
				"energy": -0.31893,
				"method": "rhf"
			},
			{
				"type": "occ",
				"energy": -0.31526,
				"method": "rhf"
			},
			{
				"type": "occ",
				"energy": -0.29253,
				"method": "rhf"
			},
			{
				"type": "occ",
				"energy": -0.28967,
				"method": "rhf"
			},
			{
				"type": "occ",
				"energy": -0.24311,
				"method": "rhf"
			},
			{
				"type": "unocc",
				"energy": -0.09944,
				"method": "rhf"
			},
			{
				"type": "unocc",
				"energy": -0.06065,
				"method": "rhf"
			},
			{
				"type": "unocc",
				"energy": -0.02933,
				"method": "rhf"
			},
			{
				"type": "unocc",
				"energy": 0.02566,
				"method": "rhf"
			},
			{
				"type": "unocc",
				"energy": 0.05245,
				"method": "rhf"
			}
		],
		"cosmo_sigma_profile": { 
			"-0.025": 0.0,
			"-0.024": 0.0,
			"-0.023": 0.0,
			"-0.022": 0.0,
			"-0.021": 0.0,
			"-0.02": 0.0,
			"-0.019": 0.0,
			"-0.018": 0.0,
			"-0.017": 0.0,
			"-0.016": 0.0,
			"-0.015": 0.0,
			"-0.014": 0.0,
			"-0.013": 0.0,
			"-0.012": 0.0,
			"-0.011": 0.0,
			"-0.01": 0.0,
			"-0.009": 1.17326980958,
			"-0.008": 5.10493805589,
			"-0.007": 8.64452045487,
			"-0.006": 10.8315560689,
			"-0.005": 9.36416990962,
			"-0.004": 12.9354199161,
			"-0.003": 15.766900788,
			"-0.002": 24.9382354632,
			"-0.001": 27.1309056905,
			"0.0": 16.1962793937,
			"0.001": 14.2618487827,
			"0.002": 29.619542519,
			"0.003": 18.2308730256,
			"0.004": 5.70933698328,
			"0.005": 6.62537198536,
			"0.006": 6.15888053605,
			"0.007": 9.62563431811,
			"0.008": 8.00543951471,
			"0.009": 4.17235086157,
			"0.01": 0.708368993198,
			"0.011": 0.0,
			"0.012": 0.0,
			"0.013": 0.0,
			"0.014": 0.0,
			"0.015": 0.0,
			"0.016": 0.0,
			"0.017": 0.0,
			"0.018": 0.0,
			"0.019": 0.0,
			"0.02": 0.0,
			"0.021": 0.0,
			"0.022": 0.0,
			"0.023": 0.0,
			"0.024": 0.0,
			"0.025": 0.0
		}
	}
}
