{
	 "smiles": "COCCNC(=S)NN", 
	 "Tm": 359.15, 
	 "num_atms": 20, 
	 "gaussian": { 
		 "optdone": 1, 
		 "sigma_profile": "yes", 
		 "theory": "DFT", 
		 "functional": "B3LYP", 
		 "basiset": "6-31G**", 
		 "properties": { 
			 "R2extent": 2071.4332, 
			 "electric_dipole_moment_norm": 6.06214113824, 
			 "electric_quadrupole_moment_norm": 9.78568366288, 
			 "total_energy": -796.689454428, 
			 "HOMO_LUMO_gap": 0.20552, 
			 "cosmo_polarized_energy": -16.02, 
			 "cosmo_cavitation_energy": 24.53, 
			 "cosmo_dispersion_energy": -18.35, 
			 "cosmo_repulsion_energy": 1.5, 
			 "cosmo_total_nonelectrostatic_energy": 7.68, 
			 "SMD_solvation_energy": 3.76 
		},
		"coords": [
			{
				"x": 1.6372899268,
				"y": 1.8840483513,
				"z": 1.0701664958,
				"element": "C" 
			},
			{
				"x": 0.9218620979,
				"y": 0.6612701737,
				"z": 1.1094047101,
				"element": "O" 
			},
			{
				"x": -0.4193073056,
				"y": 0.7972882254,
				"z": 1.5511291411,
				"element": "C" 
			},
			{
				"x": -1.1214889136,
				"y": -0.5527182754,
				"z": 1.4168449608,
				"element": "C" 
			},
			{
				"x": -1.4443173837,
				"y": -0.9425868654,
				"z": 0.0469962277,
				"element": "N" 
			},
			{
				"x": -0.6656374626,
				"y": -1.7049449746,
				"z": -0.7838601829,
				"element": "C" 
			},
			{
				"x": -1.3388199693,
				"y": -2.511701231,
				"z": -2.1046315742,
				"element": "S" 
			},
			{
				"x": 0.6560822116,
				"y": -1.749440757,
				"z": -0.4688870334,
				"element": "N" 
			},
			{
				"x": 1.6060838587,
				"y": -2.4031479803,
				"z": -1.2811054913,
				"element": "N" 
			},
			{
				"x": 2.6457754499,
				"y": 1.656746255,
				"z": 0.7196287688,
				"element": "H" 
			},
			{
				"x": 1.6984875762,
				"y": 2.3420186389,
				"z": 2.0681366481,
				"element": "H" 
			},
			{
				"x": 1.1691055434,
				"y": 2.601728444,
				"z": 0.3812202931,
				"element": "H" 
			},
			{
				"x": -0.9484439533,
				"y": 1.556948237,
				"z": 0.9552950063,
				"element": "H" 
			},
			{
				"x": -0.4379671628,
				"y": 1.1165921624,
				"z": 2.6064672997,
				"element": "H" 
			},
			{
				"x": -0.4995299905,
				"y": -1.3230164215,
				"z": 1.8896139377,
				"element": "H" 
			},
			{
				"x": -2.0617404896,
				"y": -0.5038196638,
				"z": 1.9747074492,
				"element": "H" 
			},
			{
				"x": -2.4198078543,
				"y": -0.975893047,
				"z": -0.2097520512,
				"element": "H" 
			},
			{
				"x": 1.0409417196,
				"y": -0.9816207601,
				"z": 0.0762152168,
				"element": "H" 
			},
			{
				"x": 1.2952080703,
				"y": -2.2900964689,
				"z": -2.2494207153,
				"element": "H" 
			},
			{
				"x": 1.5197240309,
				"y": -3.4030540426,
				"z": -1.098669107,
				"element": "H" 
			}
		],
		 "valence_orbital": [ 
			{
				"type": "occ",
				"energy": -0.28635,
				"method": "rhf"
			},
			{
				"type": "occ",
				"energy": -0.27497,
				"method": "rhf"
			},
			{
				"type": "occ",
				"energy": -0.25084,
				"method": "rhf"
			},
			{
				"type": "occ",
				"energy": -0.20856,
				"method": "rhf"
			},
			{
				"type": "occ",
				"energy": -0.19864,
				"method": "rhf"
			},
			{
				"type": "unocc",
				"energy": 0.00688,
				"method": "rhf"
			},
			{
				"type": "unocc",
				"energy": 0.06167,
				"method": "rhf"
			},
			{
				"type": "unocc",
				"energy": 0.08034,
				"method": "rhf"
			},
			{
				"type": "unocc",
				"energy": 0.10375,
				"method": "rhf"
			},
			{
				"type": "unocc",
				"energy": 0.10907,
				"method": "rhf"
			}
		],
		"cosmo_sigma_profile": { 
			"-0.025": 0.0,
			"-0.024": 0.0,
			"-0.023": 0.0,
			"-0.022": 0.0,
			"-0.021": 0.0,
			"-0.02": 0.0,
			"-0.019": 0.0,
			"-0.018": 0.0,
			"-0.017": 0.0,
			"-0.016": 0.0,
			"-0.015": 0.0,
			"-0.014": 0.831085201058,
			"-0.013": 0.694075757642,
			"-0.012": 1.30659672074,
			"-0.011": 1.76676461142,
			"-0.01": 2.54282803318,
			"-0.009": 2.59875190443,
			"-0.008": 4.32723360378,
			"-0.007": 5.3328819847,
			"-0.006": 6.25325069617,
			"-0.005": 14.8141942009,
			"-0.004": 24.4778542093,
			"-0.003": 20.9260324318,
			"-0.002": 17.1564104023,
			"-0.001": 10.7987197458,
			"0.0": 7.71233092008,
			"0.001": 7.42704666245,
			"0.002": 6.88683858854,
			"0.003": 6.68445041397,
			"0.004": 5.1549491074,
			"0.005": 6.03162145623,
			"0.006": 3.48047979759,
			"0.007": 4.28407449765,
			"0.008": 5.32232163758,
			"0.009": 4.53978522539,
			"0.01": 6.53723559788,
			"0.011": 7.63275986085,
			"0.012": 5.36977531933,
			"0.013": 1.44748041797,
			"0.014": 0.678745443617,
			"0.015": 0.638203401647,
			"0.016": 0.545173944108,
			"0.017": 0.246234575464,
			"0.018": 0.0,
			"0.019": 0.0,
			"0.02": 0.0,
			"0.021": 0.0,
			"0.022": 0.0,
			"0.023": 0.0,
			"0.024": 0.0,
			"0.025": 0.0
		}
	}
}
