{
	 "smiles": "[O-][N+](=O)C1=CN=C(S)C=C1", 
	 "Tm": 443.15, 
	 "num_atms": 14, 
	 "gaussian": { 
		 "optdone": 1, 
		 "sigma_profile": "yes", 
		 "theory": "DFT", 
		 "functional": "B3LYP", 
		 "basiset": "6-31G**", 
		 "properties": { 
			 "R2extent": 2382.0893, 
			 "electric_dipole_moment_norm": 3.38137908404, 
			 "electric_quadrupole_moment_norm": 10.2320306909, 
			 "total_energy": -850.969669973, 
			 "HOMO_LUMO_gap": 0.15798, 
			 "cosmo_polarized_energy": -9.32, 
			 "cosmo_cavitation_energy": 21.25, 
			 "cosmo_dispersion_energy": -16.38, 
			 "cosmo_repulsion_energy": 1.27, 
			 "cosmo_total_nonelectrostatic_energy": 6.14, 
			 "SMD_solvation_energy": 4.27 
		},
		"coords": [
			{
				"x": 3.6842708024,
				"y": 0.0414017446,
				"z": 0.7391630836,
				"element": "O" 
			},
			{
				"x": 2.559058032,
				"y": 0.5221750418,
				"z": 0.872773625,
				"element": "N" 
			},
			{
				"x": 2.3206344486,
				"y": 1.6635861975,
				"z": 1.2684228264,
				"element": "O" 
			},
			{
				"x": 1.4173223209,
				"y": -0.3262719701,
				"z": 0.5372719438,
				"element": "C" 
			},
			{
				"x": 1.627417837,
				"y": -1.6276858727,
				"z": 0.0845199034,
				"element": "C" 
			},
			{
				"x": 0.6188289745,
				"y": -2.4414139051,
				"z": -0.2345001868,
				"element": "N" 
			},
			{
				"x": -0.6300511544,
				"y": -1.9736450015,
				"z": -0.1087197705,
				"element": "C" 
			},
			{
				"x": -1.9651315671,
				"y": -3.062170199,
				"z": -0.5350120156,
				"element": "S" 
			},
			{
				"x": -0.9312041004,
				"y": -0.6736755563,
				"z": 0.3407058637,
				"element": "C" 
			},
			{
				"x": 0.1183152227,
				"y": 0.1671400818,
				"z": 0.6705396181,
				"element": "C" 
			},
			{
				"x": 2.6367224657,
				"y": -2.0123048018,
				"z": -0.0194740999,
				"element": "H" 
			},
			{
				"x": -1.1593254973,
				"y": -4.0874441746,
				"z": -0.870996631,
				"element": "H" 
			},
			{
				"x": -1.9599271346,
				"y": -0.3408889291,
				"z": 0.4258509132,
				"element": "H" 
			},
			{
				"x": -0.0398306501,
				"y": 1.1792973446,
				"z": 1.0228549267,
				"element": "H" 
			}
		],
		 "valence_orbital": [ 
			{
				"type": "occ",
				"energy": -0.32073,
				"method": "rhf"
			},
			{
				"type": "occ",
				"energy": -0.31413,
				"method": "rhf"
			},
			{
				"type": "occ",
				"energy": -0.30035,
				"method": "rhf"
			},
			{
				"type": "occ",
				"energy": -0.28981,
				"method": "rhf"
			},
			{
				"type": "occ",
				"energy": -0.25784,
				"method": "rhf"
			},
			{
				"type": "unocc",
				"energy": -0.09986,
				"method": "rhf"
			},
			{
				"type": "unocc",
				"energy": -0.05575,
				"method": "rhf"
			},
			{
				"type": "unocc",
				"energy": -0.01636,
				"method": "rhf"
			},
			{
				"type": "unocc",
				"energy": -0.00336,
				"method": "rhf"
			},
			{
				"type": "unocc",
				"energy": 0.05951,
				"method": "rhf"
			}
		],
		"cosmo_sigma_profile": { 
			"-0.025": 0.0,
			"-0.024": 0.0,
			"-0.023": 0.0,
			"-0.022": 0.0,
			"-0.021": 0.0,
			"-0.02": 0.0,
			"-0.019": 0.0,
			"-0.018": 0.0,
			"-0.017": 0.0,
			"-0.016": 0.0,
			"-0.015": 0.0,
			"-0.014": 0.0,
			"-0.013": 0.0,
			"-0.012": 0.585183546661,
			"-0.011": 1.20866716737,
			"-0.01": 1.51035836797,
			"-0.009": 4.32643346483,
			"-0.008": 7.3710054348,
			"-0.007": 6.79391936102,
			"-0.006": 7.11223655827,
			"-0.005": 7.21108314472,
			"-0.004": 10.6575006565,
			"-0.003": 11.6101247614,
			"-0.002": 14.6437138433,
			"-0.001": 14.7943177484,
			"0.0": 13.2068905471,
			"0.001": 8.20168523347,
			"0.002": 7.87330430197,
			"0.003": 7.54997135445,
			"0.004": 8.17774637634,
			"0.005": 6.79742664519,
			"0.006": 7.49087003841,
			"0.007": 9.92444539917,
			"0.008": 7.26639038555,
			"0.009": 5.19684911198,
			"0.01": 2.92246223586,
			"0.011": 0.896751628657,
			"0.012": 0.570461765346,
			"0.013": 0.0159689522296,
			"0.014": 0.0,
			"0.015": 0.0,
			"0.016": 0.0,
			"0.017": 0.0,
			"0.018": 0.0,
			"0.019": 0.0,
			"0.02": 0.0,
			"0.021": 0.0,
			"0.022": 0.0,
			"0.023": 0.0,
			"0.024": 0.0,
			"0.025": 0.0
		}
	}
}
