{
	 "smiles": "CC(C)(C(N)=S)C1=CC=CC=C1", 
	 "Tm": 373.15, 
	 "num_atms": 25, 
	 "gaussian": { 
		 "optdone": 1, 
		 "sigma_profile": "yes", 
		 "theory": "DFT", 
		 "functional": "B3LYP", 
		 "basiset": "6-31G**", 
		 "properties": { 
			 "R2extent": 2589.9308, 
			 "electric_dipole_moment_norm": 4.5383819165, 
			 "electric_quadrupole_moment_norm": 11.5284970556, 
			 "total_energy": -841.85194634, 
			 "HOMO_LUMO_gap": 0.1743, 
			 "cosmo_polarized_energy": -13.1, 
			 "cosmo_cavitation_energy": 28.53, 
			 "cosmo_dispersion_energy": -20.49, 
			 "cosmo_repulsion_energy": 1.58, 
			 "cosmo_total_nonelectrostatic_energy": 9.62, 
			 "SMD_solvation_energy": 4.06 
		},
		"coords": [
			{
				"x": 1.0030970341,
				"y": -2.4294879205,
				"z": 0.3624953141,
				"element": "C" 
			},
			{
				"x": 1.1531678409,
				"y": -0.8997340061,
				"z": 0.5016162721,
				"element": "C" 
			},
			{
				"x": 2.0409336007,
				"y": -0.6162721363,
				"z": 1.7396384675,
				"element": "C" 
			},
			{
				"x": 1.9137197276,
				"y": -0.2860907554,
				"z": -0.7061537663,
				"element": "C" 
			},
			{
				"x": 1.721389105,
				"y": 1.0369372384,
				"z": -0.8634741198,
				"element": "N" 
			},
			{
				"x": 2.9734159957,
				"y": -1.1267529757,
				"z": -1.6788791697,
				"element": "S" 
			},
			{
				"x": -0.2501760554,
				"y": -0.2739300064,
				"z": 0.6178510754,
				"element": "C" 
			},
			{
				"x": -0.6938007289,
				"y": 0.4021463015,
				"z": 1.7625964422,
				"element": "C" 
			},
			{
				"x": -1.9884772359,
				"y": 0.927991634,
				"z": 1.8338243876,
				"element": "C" 
			},
			{
				"x": -2.8641954412,
				"y": 0.7920509072,
				"z": 0.7592931993,
				"element": "C" 
			},
			{
				"x": -2.4348315216,
				"y": 0.1272172498,
				"z": -0.3929661701,
				"element": "C" 
			},
			{
				"x": -1.1464146502,
				"y": -0.3967768383,
				"z": -0.4603630566,
				"element": "C" 
			},
			{
				"x": 0.4409111538,
				"y": -2.7016640538,
				"z": -0.533364012,
				"element": "H" 
			},
			{
				"x": 0.4697813004,
				"y": -2.8188551439,
				"z": 1.2354386797,
				"element": "H" 
			},
			{
				"x": 1.9824898443,
				"y": -2.9062983901,
				"z": 0.2966095018,
				"element": "H" 
			},
			{
				"x": 1.6018140626,
				"y": -1.0631569425,
				"z": 2.6368479109,
				"element": "H" 
			},
			{
				"x": 2.1779767569,
				"y": 0.4548594229,
				"z": 1.9140605054,
				"element": "H" 
			},
			{
				"x": 3.0263249912,
				"y": -1.0623741032,
				"z": 1.586166694,
				"element": "H" 
			},
			{
				"x": 0.9981550403,
				"y": 1.5253009183,
				"z": -0.3538419857,
				"element": "H" 
			},
			{
				"x": 2.2065099984,
				"y": 1.5120239696,
				"z": -1.6105999319,
				"element": "H" 
			},
			{
				"x": -0.0361584304,
				"y": 0.5202548076,
				"z": 2.6165376067,
				"element": "H" 
			},
			{
				"x": -2.3069243366,
				"y": 1.4433020455,
				"z": 2.7357029659,
				"element": "H" 
			},
			{
				"x": -3.8692466923,
				"y": 1.1999139293,
				"z": 0.8146928991,
				"element": "H" 
			},
			{
				"x": -3.1051010249,
				"y": 0.0169111136,
				"z": -1.2407768845,
				"element": "H" 
			},
			{
				"x": -0.8252603344,
				"y": -0.9044162655,
				"z": -1.3659528249,
				"element": "H" 
			}
		],
		 "valence_orbital": [ 
			{
				"type": "occ",
				"energy": -0.32522,
				"method": "rhf"
			},
			{
				"type": "occ",
				"energy": -0.26031,
				"method": "rhf"
			},
			{
				"type": "occ",
				"energy": -0.25533,
				"method": "rhf"
			},
			{
				"type": "occ",
				"energy": -0.22758,
				"method": "rhf"
			},
			{
				"type": "occ",
				"energy": -0.20294,
				"method": "rhf"
			},
			{
				"type": "unocc",
				"energy": -0.02864,
				"method": "rhf"
			},
			{
				"type": "unocc",
				"energy": -0.01459,
				"method": "rhf"
			},
			{
				"type": "unocc",
				"energy": -0.00967,
				"method": "rhf"
			},
			{
				"type": "unocc",
				"energy": 0.07517,
				"method": "rhf"
			},
			{
				"type": "unocc",
				"energy": 0.08883,
				"method": "rhf"
			}
		],
		"cosmo_sigma_profile": { 
			"-0.025": 0.0,
			"-0.024": 0.0,
			"-0.023": 0.0,
			"-0.022": 0.0,
			"-0.021": 0.0,
			"-0.02": 0.0,
			"-0.019": 0.0,
			"-0.018": 0.0,
			"-0.017": 0.0,
			"-0.016": 0.0,
			"-0.015": 0.374591696683,
			"-0.014": 1.92092146737,
			"-0.013": 1.55154584684,
			"-0.012": 2.37379619331,
			"-0.011": 1.94737680078,
			"-0.01": 1.57430876752,
			"-0.009": 1.74957955961,
			"-0.008": 1.34633632536,
			"-0.007": 1.98735792519,
			"-0.006": 5.45829845447,
			"-0.005": 14.0628399653,
			"-0.004": 20.7702739224,
			"-0.003": 21.1792061459,
			"-0.002": 18.1110290165,
			"-0.001": 18.3980296076,
			"0.0": 18.8132490053,
			"0.001": 16.3692751335,
			"0.002": 12.7265893392,
			"0.003": 10.4202141071,
			"0.004": 10.8087653693,
			"0.005": 11.6597838462,
			"0.006": 6.60465441925,
			"0.007": 4.29308720723,
			"0.008": 4.87279733796,
			"0.009": 7.43548313357,
			"0.01": 5.62746569822,
			"0.011": 3.34917373778,
			"0.012": 1.5208343008,
			"0.013": 0.0416080195597,
			"0.014": 0.0,
			"0.015": 0.0,
			"0.016": 0.0,
			"0.017": 0.0,
			"0.018": 0.0,
			"0.019": 0.0,
			"0.02": 0.0,
			"0.021": 0.0,
			"0.022": 0.0,
			"0.023": 0.0,
			"0.024": 0.0,
			"0.025": 0.0
		}
	}
}
