{
	 "smiles": "CCOC(=O)C1=C(C)NC(=O)NC1=S", 
	 "Tm": 423.15, 
	 "num_atms": 24, 
	 "gaussian": { 
		 "optdone": 1, 
		 "sigma_profile": "yes", 
		 "theory": "DFT", 
		 "functional": "B3LYP", 
		 "basiset": "6-31G**", 
		 "properties": { 
			 "R2extent": 4588.5243, 
			 "electric_dipole_moment_norm": 4.71906956613, 
			 "electric_quadrupole_moment_norm": 12.3606323754, 
			 "total_energy": -1044.2844747, 
			 "HOMO_LUMO_gap": 0.14472, 
			 "cosmo_polarized_energy": -21.77, 
			 "cosmo_cavitation_energy": 30.23, 
			 "cosmo_dispersion_energy": -21.88, 
			 "cosmo_repulsion_energy": 1.71, 
			 "cosmo_total_nonelectrostatic_energy": 10.06, 
			 "SMD_solvation_energy": 6.25 
		},
		"coords": [
			{
				"x": -3.0346624073,
				"y": 2.8667936642,
				"z": 1.5481837385,
				"element": "C" 
			},
			{
				"x": -2.9823445768,
				"y": 1.5862070702,
				"z": 2.3669180446,
				"element": "C" 
			},
			{
				"x": -2.4959618124,
				"y": 0.4747567289,
				"z": 1.572566258,
				"element": "O" 
			},
			{
				"x": -1.1721736497,
				"y": 0.2800405967,
				"z": 1.5485272839,
				"element": "C" 
			},
			{
				"x": -0.3545740025,
				"y": 1.0417353554,
				"z": 2.0305278519,
				"element": "O" 
			},
			{
				"x": -0.8140694853,
				"y": -0.9684905367,
				"z": 0.7951910489,
				"element": "C" 
			},
			{
				"x": 0.0978546199,
				"y": -0.9001270525,
				"z": -0.228364484,
				"element": "C" 
			},
			{
				"x": 0.8121249984,
				"y": 0.3345425482,
				"z": -0.6996991576,
				"element": "C" 
			},
			{
				"x": 0.4041833538,
				"y": -2.0359962135,
				"z": -0.9413045603,
				"element": "N" 
			},
			{
				"x": -0.1357944664,
				"y": -3.2979653274,
				"z": -0.710477736,
				"element": "C" 
			},
			{
				"x": 0.154872312,
				"y": -4.2752740714,
				"z": -1.3725144741,
				"element": "O" 
			},
			{
				"x": -1.0206680512,
				"y": -3.3094512563,
				"z": 0.3522752157,
				"element": "N" 
			},
			{
				"x": -1.3881175239,
				"y": -2.2511128868,
				"z": 1.1743702464,
				"element": "C" 
			},
			{
				"x": -2.3567882301,
				"y": -2.5559176451,
				"z": 2.491972955,
				"element": "S" 
			},
			{
				"x": -3.6378179826,
				"y": 2.7289911475,
				"z": 0.6459017818,
				"element": "H" 
			},
			{
				"x": -3.4864512724,
				"y": 3.6675836083,
				"z": 2.1429741586,
				"element": "H" 
			},
			{
				"x": -2.0287200902,
				"y": 3.1814680746,
				"z": 1.2595409733,
				"element": "H" 
			},
			{
				"x": -3.9774129058,
				"y": 1.2692927169,
				"z": 2.6859458935,
				"element": "H" 
			},
			{
				"x": -2.3386922813,
				"y": 1.6997329734,
				"z": 3.2418249342,
				"element": "H" 
			},
			{
				"x": 1.8943076949,
				"y": 0.1608939957,
				"z": -0.6917034499,
				"element": "H" 
			},
			{
				"x": 0.6030706909,
				"y": 1.1862717136,
				"z": -0.0583176119,
				"element": "H" 
			},
			{
				"x": 0.5201311207,
				"y": 0.5667644825,
				"z": -1.7308098958,
				"element": "H" 
			},
			{
				"x": 1.0658797441,
				"y": -1.9960183821,
				"z": -1.7048471195,
				"element": "H" 
			},
			{
				"x": -1.3980757967,
				"y": -4.2192213044,
				"z": 0.592218105,
				"element": "H" 
			}
		],
		 "valence_orbital": [ 
			{
				"type": "occ",
				"energy": -0.29924,
				"method": "rhf"
			},
			{
				"type": "occ",
				"energy": -0.29029,
				"method": "rhf"
			},
			{
				"type": "occ",
				"energy": -0.26944,
				"method": "rhf"
			},
			{
				"type": "occ",
				"energy": -0.23237,
				"method": "rhf"
			},
			{
				"type": "occ",
				"energy": -0.21841,
				"method": "rhf"
			},
			{
				"type": "unocc",
				"energy": -0.07369,
				"method": "rhf"
			},
			{
				"type": "unocc",
				"energy": -0.03245,
				"method": "rhf"
			},
			{
				"type": "unocc",
				"energy": 0.01648,
				"method": "rhf"
			},
			{
				"type": "unocc",
				"energy": 0.05282,
				"method": "rhf"
			},
			{
				"type": "unocc",
				"energy": 0.07761,
				"method": "rhf"
			}
		],
		"cosmo_sigma_profile": { 
			"-0.025": 0.0,
			"-0.024": 0.0,
			"-0.023": 0.0,
			"-0.022": 0.0,
			"-0.021": 0.0,
			"-0.02": 0.0,
			"-0.019": 0.0,
			"-0.018": 0.109307473869,
			"-0.017": 1.31137478087,
			"-0.016": 1.43009937273,
			"-0.015": 1.95578673289,
			"-0.014": 1.58407444159,
			"-0.013": 2.22659909538,
			"-0.012": 2.40212168503,
			"-0.011": 2.1764756955,
			"-0.01": 1.78628444122,
			"-0.009": 2.86419104013,
			"-0.008": 3.96564440607,
			"-0.007": 7.70582488333,
			"-0.006": 8.19605119855,
			"-0.005": 16.5176368544,
			"-0.004": 23.2716110762,
			"-0.003": 21.989442695,
			"-0.002": 18.2367704868,
			"-0.001": 13.2573070369,
			"0.0": 12.6698815586,
			"0.001": 9.19944148796,
			"0.002": 6.82841330307,
			"0.003": 7.45313184177,
			"0.004": 7.34778219705,
			"0.005": 7.38156529322,
			"0.006": 8.2198193076,
			"0.007": 9.23674848921,
			"0.008": 10.934098849,
			"0.009": 9.07552245167,
			"0.01": 7.19876664748,
			"0.011": 8.64310121899,
			"0.012": 6.90334653279,
			"0.013": 0.479525436099,
			"0.014": 0.0,
			"0.015": 0.0,
			"0.016": 0.0,
			"0.017": 0.0,
			"0.018": 0.0,
			"0.019": 0.0,
			"0.02": 0.0,
			"0.021": 0.0,
			"0.022": 0.0,
			"0.023": 0.0,
			"0.024": 0.0,
			"0.025": 0.0
		}
	}
}
