{
	 "smiles": "NC1=C2C=CC=C(O)C2=CC=C1", 
	 "Tm": 462.15, 
	 "num_atms": 21, 
	 "gaussian": { 
		 "optdone": 1, 
		 "sigma_profile": "yes", 
		 "theory": "DFT", 
		 "functional": "B3LYP", 
		 "basiset": "6-31G**", 
		 "properties": { 
			 "R2extent": 2157.5035, 
			 "electric_dipole_moment_norm": 1.64490447443, 
			 "electric_quadrupole_moment_norm": 14.5747881333, 
			 "total_energy": -516.472086847, 
			 "HOMO_LUMO_gap": 0.16241, 
			 "cosmo_polarized_energy": -13.25, 
			 "cosmo_cavitation_energy": 24.15, 
			 "cosmo_dispersion_energy": -18.47, 
			 "cosmo_repulsion_energy": 1.44, 
			 "cosmo_total_nonelectrostatic_energy": 7.12, 
			 "SMD_solvation_energy": 4.12 
		},
		"coords": [
			{
				"x": 2.1728925992,
				"y": 3.2031481123,
				"z": 0.6154033713,
				"element": "N" 
			},
			{
				"x": 1.0979542078,
				"y": 2.4340662154,
				"z": 0.1501211626,
				"element": "C" 
			},
			{
				"x": 0.8699220153,
				"y": 1.1285926026,
				"z": 0.7046867061,
				"element": "C" 
			},
			{
				"x": 1.7003668741,
				"y": 0.5813647772,
				"z": 1.7209659402,
				"element": "C" 
			},
			{
				"x": 1.4656791051,
				"y": -0.6842998447,
				"z": 2.2089250465,
				"element": "C" 
			},
			{
				"x": 0.3962615993,
				"y": -1.4618291644,
				"z": 1.7130872537,
				"element": "C" 
			},
			{
				"x": -0.4395269521,
				"y": -0.946145115,
				"z": 0.7434195046,
				"element": "C" 
			},
			{
				"x": -1.5001189702,
				"y": -1.6457420046,
				"z": 0.2372396664,
				"element": "O" 
			},
			{
				"x": -0.237998517,
				"y": 0.3653534324,
				"z": 0.2131715069,
				"element": "C" 
			},
			{
				"x": -1.1101070982,
				"y": 0.9089991363,
				"z": -0.7649147208,
				"element": "C" 
			},
			{
				"x": -0.8828067782,
				"y": 2.1791469961,
				"z": -1.244761374,
				"element": "C" 
			},
			{
				"x": 0.2209977811,
				"y": 2.935308787,
				"z": -0.7994521991,
				"element": "C" 
			},
			{
				"x": 2.3641117794,
				"y": 4.0146203224,
				"z": 0.0422410883,
				"element": "H" 
			},
			{
				"x": 3.0219069168,
				"y": 2.6794820214,
				"z": 0.7842352386,
				"element": "H" 
			},
			{
				"x": 2.5008071327,
				"y": 1.1769813893,
				"z": 2.1461498578,
				"element": "H" 
			},
			{
				"x": 2.099335854,
				"y": -1.0934341973,
				"z": 2.9903294846,
				"element": "H" 
			},
			{
				"x": 0.2230674483,
				"y": -2.4625060123,
				"z": 2.1038991776,
				"element": "H" 
			},
			{
				"x": -1.5437546208,
				"y": -2.5055320769,
				"z": 0.6748490904,
				"element": "H" 
			},
			{
				"x": -1.9456500593,
				"y": 0.3159894546,
				"z": -1.115989868,
				"element": "H" 
			},
			{
				"x": -1.5473715968,
				"y": 2.6058591341,
				"z": -1.9907674118,
				"element": "H" 
			},
			{
				"x": 0.3959312796,
				"y": 3.9257760343,
				"z": -1.2135385221,
				"element": "H" 
			}
		],
		 "valence_orbital": [ 
			{
				"type": "occ",
				"energy": -0.31566,
				"method": "rhf"
			},
			{
				"type": "occ",
				"energy": -0.29905,
				"method": "rhf"
			},
			{
				"type": "occ",
				"energy": -0.23688,
				"method": "rhf"
			},
			{
				"type": "occ",
				"energy": -0.22863,
				"method": "rhf"
			},
			{
				"type": "occ",
				"energy": -0.18172,
				"method": "rhf"
			},
			{
				"type": "unocc",
				"energy": -0.01931,
				"method": "rhf"
			},
			{
				"type": "unocc",
				"energy": -0.00182,
				"method": "rhf"
			},
			{
				"type": "unocc",
				"energy": 0.05785,
				"method": "rhf"
			},
			{
				"type": "unocc",
				"energy": 0.07114,
				"method": "rhf"
			},
			{
				"type": "unocc",
				"energy": 0.08115,
				"method": "rhf"
			}
		],
		"cosmo_sigma_profile": { 
			"-0.025": 0.0,
			"-0.024": 0.0,
			"-0.023": 0.0,
			"-0.022": 0.0,
			"-0.021": 0.0,
			"-0.02": 0.0,
			"-0.019": 0.0,
			"-0.018": 0.326667105618,
			"-0.017": 0.984682190652,
			"-0.016": 1.36757825188,
			"-0.015": 0.78388948722,
			"-0.014": 0.99917231796,
			"-0.013": 1.19912016114,
			"-0.012": 2.30714251758,
			"-0.011": 3.84641715406,
			"-0.01": 3.85063083664,
			"-0.009": 5.54395306251,
			"-0.008": 3.18987468622,
			"-0.007": 3.74985077419,
			"-0.006": 6.6936076871,
			"-0.005": 10.0541631298,
			"-0.004": 10.8272894181,
			"-0.003": 10.5508481338,
			"-0.002": 9.63458214003,
			"-0.001": 9.69327922461,
			"0.0": 6.86853621001,
			"0.001": 7.72022954734,
			"0.002": 7.46386868688,
			"0.003": 12.5911658174,
			"0.004": 15.700363756,
			"0.005": 23.1525127277,
			"0.006": 16.8847059341,
			"0.007": 6.02139857855,
			"0.008": 2.40934144949,
			"0.009": 3.05211564949,
			"0.01": 2.01377178119,
			"0.011": 1.01063046146,
			"0.012": 0.424188916877,
			"0.013": 0.740605740308,
			"0.014": 0.573618218321,
			"0.015": 0.263678206849,
			"0.016": 0.0,
			"0.017": 0.0,
			"0.018": 0.0,
			"0.019": 0.0,
			"0.02": 0.0,
			"0.021": 0.0,
			"0.022": 0.0,
			"0.023": 0.0,
			"0.024": 0.0,
			"0.025": 0.0
		}
	}
}
