{
	 "smiles": "C[C@H](C(O)=O)[C@@]12CC[C@@]3(C)[C@@H]1CC(=O)[C@@H](C)[C@H]3C2=O", 
	 "Tm": 446.0, 
	 "num_atms": 39, 
	 "gaussian": { 
		 "optdone": 1, 
		 "sigma_profile": "yes", 
		 "theory": "DFT", 
		 "functional": "B3LYP", 
		 "basiset": "6-31G**", 
		 "properties": { 
			 "R2extent": 4413.233, 
			 "electric_dipole_moment_norm": 5.045646687, 
			 "electric_quadrupole_moment_norm": 19.0988233774, 
			 "total_energy": -884.559294366, 
			 "HOMO_LUMO_gap": 0.19999, 
			 "cosmo_polarized_energy": -20.48, 
			 "cosmo_cavitation_energy": 36.67, 
			 "cosmo_dispersion_energy": -25.61, 
			 "cosmo_repulsion_energy": 1.91, 
			 "cosmo_total_nonelectrostatic_energy": 12.97, 
			 "SMD_solvation_energy": 7.66 
		},
		"coords": [
			{
				"x": -1.5549903928,
				"y": 1.1598492444,
				"z": 3.199663201,
				"element": "C" 
			},
			{
				"x": -1.7624612534,
				"y": 0.7923461247,
				"z": 1.7182565302,
				"element": "C" 
			},
			{
				"x": -3.0932780317,
				"y": 0.077451404,
				"z": 1.4405295667,
				"element": "C" 
			},
			{
				"x": -3.6120978473,
				"y": -0.6796666745,
				"z": 2.44250174,
				"element": "O" 
			},
			{
				"x": -3.6652372243,
				"y": 0.1304427481,
				"z": 0.37749676,
				"element": "O" 
			},
			{
				"x": -0.6011601044,
				"y": -0.0309812545,
				"z": 1.1108041081,
				"element": "C" 
			},
			{
				"x": -0.258427041,
				"y": -1.3783654785,
				"z": 1.8232622804,
				"element": "C" 
			},
			{
				"x": 0.6691689518,
				"y": -2.1016588137,
				"z": 0.8066470516,
				"element": "C" 
			},
			{
				"x": 0.6877970109,
				"y": -1.1695259112,
				"z": -0.436135913,
				"element": "C" 
			},
			{
				"x": 1.0542207051,
				"y": -1.9143163402,
				"z": -1.7164042178,
				"element": "C" 
			},
			{
				"x": -0.7211315224,
				"y": -0.5147111378,
				"z": -0.3729657926,
				"element": "C" 
			},
			{
				"x": -0.9473262804,
				"y": 0.5777234995,
				"z": -1.4296837434,
				"element": "C" 
			},
			{
				"x": 0.1655757312,
				"y": 1.6193655883,
				"z": -1.534007328,
				"element": "C" 
			},
			{
				"x": -0.0670972049,
				"y": 2.766875708,
				"z": -1.8609292513,
				"element": "O" 
			},
			{
				"x": 1.592238717,
				"y": 1.1279935656,
				"z": -1.2402374589,
				"element": "C" 
			},
			{
				"x": 2.5653160565,
				"y": 2.2813738979,
				"z": -0.9885625176,
				"element": "C" 
			},
			{
				"x": 1.5553968854,
				"y": 0.0752107518,
				"z": -0.0886410704,
				"element": "C" 
			},
			{
				"x": 0.7620706617,
				"y": 0.6885275179,
				"z": 1.0759694158,
				"element": "C" 
			},
			{
				"x": 1.1436324741,
				"y": 1.5740533776,
				"z": 1.8147150457,
				"element": "O" 
			},
			{
				"x": -2.4076144369,
				"y": 1.7292871334,
				"z": 3.5830470528,
				"element": "H" 
			},
			{
				"x": -0.6553589181,
				"y": 1.7663555582,
				"z": 3.3029802523,
				"element": "H" 
			},
			{
				"x": -1.4125632766,
				"y": 0.2780975116,
				"z": 3.8389216779,
				"element": "H" 
			},
			{
				"x": -1.831231336,
				"y": 1.7242270317,
				"z": 1.1470736794,
				"element": "H" 
			},
			{
				"x": -3.0766602711,
				"y": -0.5838712418,
				"z": 3.2429701144,
				"element": "H" 
			},
			{
				"x": -1.1822335549,
				"y": -1.9435570567,
				"z": 1.9873038856,
				"element": "H" 
			},
			{
				"x": 0.2142605312,
				"y": -1.225187262,
				"z": 2.7973299565,
				"element": "H" 
			},
			{
				"x": 0.2658432114,
				"y": -3.0827284695,
				"z": 0.5374793874,
				"element": "H" 
			},
			{
				"x": 1.6774811544,
				"y": -2.2658414608,
				"z": 1.201495435,
				"element": "H" 
			},
			{
				"x": 1.0016472637,
				"y": -1.2874273507,
				"z": -2.6109552575,
				"element": "H" 
			},
			{
				"x": 2.0715028332,
				"y": -2.3179010538,
				"z": -1.6561763064,
				"element": "H" 
			},
			{
				"x": 0.3730828695,
				"y": -2.7582613753,
				"z": -1.8706434181,
				"element": "H" 
			},
			{
				"x": -1.5176303416,
				"y": -1.2608960034,
				"z": -0.4614799625,
				"element": "H" 
			},
			{
				"x": -1.9007697366,
				"y": 1.0883686196,
				"z": -1.2766822803,
				"element": "H" 
			},
			{
				"x": -1.0152293906,
				"y": 0.0963139419,
				"z": -2.4164031079,
				"element": "H" 
			},
			{
				"x": 1.9117325331,
				"y": 0.5947581765,
				"z": -2.147930178,
				"element": "H" 
			},
			{
				"x": 3.5935554609,
				"y": 1.9093823036,
				"z": -0.9389592956,
				"element": "H" 
			},
			{
				"x": 2.4928138642,
				"y": 3.0147602519,
				"z": -1.7942503235,
				"element": "H" 
			},
			{
				"x": 2.3386932665,
				"y": 2.7865418776,
				"z": -0.0467810513,
				"element": "H" 
			},
			{
				"x": 2.5792679829,
				"y": -0.1667089493,
				"z": 0.2169813334,
				"element": "H" 
			}
		],
		 "valence_orbital": [ 
			{
				"type": "occ",
				"energy": -0.31351,
				"method": "rhf"
			},
			{
				"type": "occ",
				"energy": -0.30929,
				"method": "rhf"
			},
			{
				"type": "occ",
				"energy": -0.27626,
				"method": "rhf"
			},
			{
				"type": "occ",
				"energy": -0.24676,
				"method": "rhf"
			},
			{
				"type": "occ",
				"energy": -0.24176,
				"method": "rhf"
			},
			{
				"type": "unocc",
				"energy": -0.04177,
				"method": "rhf"
			},
			{
				"type": "unocc",
				"energy": -0.0124,
				"method": "rhf"
			},
			{
				"type": "unocc",
				"energy": 0.00427,
				"method": "rhf"
			},
			{
				"type": "unocc",
				"energy": 0.04894,
				"method": "rhf"
			},
			{
				"type": "unocc",
				"energy": 0.07014,
				"method": "rhf"
			}
		],
		"cosmo_sigma_profile": { 
			"-0.025": 0.0,
			"-0.024": 0.0,
			"-0.023": 0.0,
			"-0.022": 0.0,
			"-0.021": 0.0,
			"-0.02": 0.0,
			"-0.019": 0.0,
			"-0.018": 0.0143332150156,
			"-0.017": 0.391706354847,
			"-0.016": 0.664818784137,
			"-0.015": 0.859540665342,
			"-0.014": 0.754467510248,
			"-0.013": 1.38021933036,
			"-0.012": 0.957435417041,
			"-0.011": 1.3682898654,
			"-0.01": 1.54842583133,
			"-0.009": 1.41911764805,
			"-0.008": 1.83205746123,
			"-0.007": 4.87759642426,
			"-0.006": 10.5451251346,
			"-0.005": 19.1665415508,
			"-0.004": 31.2927582127,
			"-0.003": 34.8401827206,
			"-0.002": 26.4430454049,
			"-0.001": 24.9177442671,
			"0.0": 25.2001051903,
			"0.001": 15.4416876326,
			"0.002": 8.85704108805,
			"0.003": 4.60887044072,
			"0.004": 5.72458346975,
			"0.005": 6.21792345948,
			"0.006": 6.72482921067,
			"0.007": 5.14565968597,
			"0.008": 4.99046980913,
			"0.009": 7.8281030679,
			"0.01": 8.58966044044,
			"0.011": 10.6147108837,
			"0.012": 8.40504453982,
			"0.013": 2.79697738098,
			"0.014": 0.106456803397,
			"0.015": 0.0,
			"0.016": 0.0,
			"0.017": 0.0,
			"0.018": 0.0,
			"0.019": 0.0,
			"0.02": 0.0,
			"0.021": 0.0,
			"0.022": 0.0,
			"0.023": 0.0,
			"0.024": 0.0,
			"0.025": 0.0
		}
	}
}
