{
	 "smiles": "[O-][N+](=O)C1=C(C=CC(F)=C1)S(Cl)(=O)=O", 
	 "Tm": 315.15, 
	 "num_atms": 17, 
	 "gaussian": { 
		 "optdone": 1, 
		 "sigma_profile": "yes", 
		 "theory": "DFT", 
		 "functional": "B3LYP", 
		 "basiset": "6-31G**", 
		 "properties": { 
			 "R2extent": 3561.6739, 
			 "electric_dipole_moment_norm": 5.69532041855, 
			 "electric_quadrupole_moment_norm": 5.93974175617, 
			 "total_energy": -1544.11116949, 
			 "HOMO_LUMO_gap": 0.18525, 
			 "cosmo_polarized_energy": -12.98, 
			 "cosmo_cavitation_energy": 26.37, 
			 "cosmo_dispersion_energy": -19.66, 
			 "cosmo_repulsion_energy": 1.46, 
			 "cosmo_total_nonelectrostatic_energy": 8.17, 
			 "SMD_solvation_energy": 5.97 
		},
		"coords": [
			{
				"x": 0.7946290644,
				"y": 2.7793487478,
				"z": 1.3764178582,
				"element": "O" 
			},
			{
				"x": -0.2118361874,
				"y": 2.296154669,
				"z": 1.8779732656,
				"element": "N" 
			},
			{
				"x": -1.0446342261,
				"y": 2.8947570585,
				"z": 2.5513631788,
				"element": "O" 
			},
			{
				"x": -0.4155967634,
				"y": 0.8411966249,
				"z": 1.7069872529,
				"element": "C" 
			},
			{
				"x": -0.0255533991,
				"y": 0.1346506194,
				"z": 0.5573431711,
				"element": "C" 
			},
			{
				"x": -0.2045242281,
				"y": -1.2513649652,
				"z": 0.5214674761,
				"element": "C" 
			},
			{
				"x": -0.742483933,
				"y": -1.930968251,
				"z": 1.611763172,
				"element": "C" 
			},
			{
				"x": -1.1286520693,
				"y": -1.199787957,
				"z": 2.7283591557,
				"element": "C" 
			},
			{
				"x": -1.6581350416,
				"y": -1.8357003385,
				"z": 3.7781986484,
				"element": "F" 
			},
			{
				"x": -0.9831168914,
				"y": 0.1822388017,
				"z": 2.790175233,
				"element": "C" 
			},
			{
				"x": 0.5262053002,
				"y": 0.8737160686,
				"z": -1.0004203781,
				"element": "S" 
			},
			{
				"x": 2.5822061585,
				"y": 1.190487393,
				"z": -0.6761408871,
				"element": "Cl" 
			},
			{
				"x": -0.1258930664,
				"y": 2.1578848251,
				"z": -1.1964639196,
				"element": "O" 
			},
			{
				"x": 0.4554275574,
				"y": -0.1772814738,
				"z": -2.0088455394,
				"element": "O" 
			},
			{
				"x": 0.0679124307,
				"y": -1.7896702497,
				"z": -0.3782375128,
				"element": "H" 
			},
			{
				"x": -0.8770585878,
				"y": -3.0063562184,
				"z": 1.5955774094,
				"element": "H" 
			},
			{
				"x": -1.2992961176,
				"y": 0.7407946456,
				"z": 3.6618824159,
				"element": "H" 
			}
		],
		 "valence_orbital": [ 
			{
				"type": "occ",
				"energy": -0.3336,
				"method": "rhf"
			},
			{
				"type": "occ",
				"energy": -0.32849,
				"method": "rhf"
			},
			{
				"type": "occ",
				"energy": -0.32168,
				"method": "rhf"
			},
			{
				"type": "occ",
				"energy": -0.30945,
				"method": "rhf"
			},
			{
				"type": "occ",
				"energy": -0.30522,
				"method": "rhf"
			},
			{
				"type": "unocc",
				"energy": -0.11997,
				"method": "rhf"
			},
			{
				"type": "unocc",
				"energy": -0.09363,
				"method": "rhf"
			},
			{
				"type": "unocc",
				"energy": -0.06645,
				"method": "rhf"
			},
			{
				"type": "unocc",
				"energy": -0.04721,
				"method": "rhf"
			},
			{
				"type": "unocc",
				"energy": 0.02603,
				"method": "rhf"
			}
		],
		"cosmo_sigma_profile": { 
			"-0.025": 0.0,
			"-0.024": 0.0,
			"-0.023": 0.0,
			"-0.022": 0.0,
			"-0.021": 0.0,
			"-0.02": 0.0,
			"-0.019": 0.0,
			"-0.018": 0.0,
			"-0.017": 0.0,
			"-0.016": 0.0,
			"-0.015": 0.0,
			"-0.014": 0.0,
			"-0.013": 0.0,
			"-0.012": 0.0,
			"-0.011": 0.646699184119,
			"-0.01": 4.51691293255,
			"-0.009": 6.3649326174,
			"-0.008": 5.92767855664,
			"-0.007": 5.84099234368,
			"-0.006": 8.5187144988,
			"-0.005": 9.95992671433,
			"-0.004": 17.0724728813,
			"-0.003": 19.0690334231,
			"-0.002": 14.4633206175,
			"-0.001": 10.3196177063,
			"0.0": 9.94526962256,
			"0.001": 11.3204558046,
			"0.002": 18.757180395,
			"0.003": 16.4297901697,
			"0.004": 7.02010688884,
			"0.005": 8.40448212686,
			"0.006": 12.9342428623,
			"0.007": 13.8500300119,
			"0.008": 12.1636095191,
			"0.009": 2.36776762043,
			"0.01": 0.0,
			"0.011": 0.0,
			"0.012": 0.0,
			"0.013": 0.0,
			"0.014": 0.0,
			"0.015": 0.0,
			"0.016": 0.0,
			"0.017": 0.0,
			"0.018": 0.0,
			"0.019": 0.0,
			"0.02": 0.0,
			"0.021": 0.0,
			"0.022": 0.0,
			"0.023": 0.0,
			"0.024": 0.0,
			"0.025": 0.0
		}
	}
}
