{
	 "smiles": "CNC(=O)OC1=CC(C)=C(C)C=C1", 
	 "Tm": 352.65, 
	 "num_atms": 26, 
	 "gaussian": { 
		 "optdone": 1, 
		 "sigma_profile": "yes", 
		 "theory": "DFT", 
		 "functional": "B3LYP", 
		 "basiset": "6-31G**", 
		 "properties": { 
			 "R2extent": 3511.6141, 
			 "electric_dipole_moment_norm": 2.36979357751, 
			 "electric_quadrupole_moment_norm": 17.4409298749, 
			 "total_energy": -594.130760998, 
			 "HOMO_LUMO_gap": 0.22623, 
			 "cosmo_polarized_energy": -10.56, 
			 "cosmo_cavitation_energy": 29.64, 
			 "cosmo_dispersion_energy": -21.71, 
			 "cosmo_repulsion_energy": 1.74, 
			 "cosmo_total_nonelectrostatic_energy": 9.67, 
			 "SMD_solvation_energy": 6.09 
		},
		"coords": [
			{
				"x": 1.5882445243,
				"y": -4.5740581611,
				"z": -2.2904215362,
				"element": "C" 
			},
			{
				"x": 1.6335165947,
				"y": -3.5340320376,
				"z": -1.2821708995,
				"element": "N" 
			},
			{
				"x": 0.778672223,
				"y": -2.4757003854,
				"z": -1.2929690398,
				"element": "C" 
			},
			{
				"x": -0.1134361436,
				"y": -2.2832256509,
				"z": -2.0939558236,
				"element": "O" 
			},
			{
				"x": 1.096850851,
				"y": -1.6554109946,
				"z": -0.2328044617,
				"element": "O" 
			},
			{
				"x": 0.3663752364,
				"y": -0.4949478211,
				"z": 0.0148860083,
				"element": "C" 
			},
			{
				"x": 1.111049034,
				"y": 0.6074950499,
				"z": 0.4315387851,
				"element": "C" 
			},
			{
				"x": 0.4849691563,
				"y": 1.8046348537,
				"z": 0.7879520966,
				"element": "C" 
			},
			{
				"x": 1.3144318815,
				"y": 2.9838060147,
				"z": 1.2382196356,
				"element": "C" 
			},
			{
				"x": -0.9222662934,
				"y": 1.8925064219,
				"z": 0.7166646775,
				"element": "C" 
			},
			{
				"x": -1.6407925998,
				"y": 3.168366723,
				"z": 1.0864266502,
				"element": "C" 
			},
			{
				"x": -1.643460841,
				"y": 0.7708024359,
				"z": 0.2948104436,
				"element": "C" 
			},
			{
				"x": -1.0221678528,
				"y": -0.4289003447,
				"z": -0.0544396051,
				"element": "C" 
			},
			{
				"x": 2.4974477765,
				"y": -4.5823482956,
				"z": -2.9030440747,
				"element": "H" 
			},
			{
				"x": 1.4629089405,
				"y": -5.5620578766,
				"z": -1.8337659577,
				"element": "H" 
			},
			{
				"x": 0.7328549498,
				"y": -4.3710880117,
				"z": -2.9354197141,
				"element": "H" 
			},
			{
				"x": 2.3462266928,
				"y": -3.5449123625,
				"z": -0.5691513939,
				"element": "H" 
			},
			{
				"x": 2.1922062201,
				"y": 0.5165684024,
				"z": 0.4778776057,
				"element": "H" 
			},
			{
				"x": 2.380691759,
				"y": 2.743215726,
				"z": 1.2319517466,
				"element": "H" 
			},
			{
				"x": 1.0490445432,
				"y": 3.300612379,
				"z": 2.2542808294,
				"element": "H" 
			},
			{
				"x": 1.1644535937,
				"y": 3.8547569011,
				"z": 0.588630598,
				"element": "H" 
			},
			{
				"x": -1.3298794822,
				"y": 4.0089478841,
				"z": 0.4536763477,
				"element": "H" 
			},
			{
				"x": -1.4388063944,
				"y": 3.4645697185,
				"z": 2.1232794931,
				"element": "H" 
			},
			{
				"x": -2.7227778666,
				"y": 3.0553401634,
				"z": 0.9785464883,
				"element": "H" 
			},
			{
				"x": -2.7273584561,
				"y": 0.8328234137,
				"z": 0.238000969,
				"element": "H" 
			},
			{
				"x": -1.5991980465,
				"y": -1.2802641456,
				"z": -0.3888998684,
				"element": "H" 
			}
		],
		 "valence_orbital": [ 
			{
				"type": "occ",
				"energy": -0.30612,
				"method": "rhf"
			},
			{
				"type": "occ",
				"energy": -0.2725,
				"method": "rhf"
			},
			{
				"type": "occ",
				"energy": -0.25695,
				"method": "rhf"
			},
			{
				"type": "occ",
				"energy": -0.23761,
				"method": "rhf"
			},
			{
				"type": "occ",
				"energy": -0.21933,
				"method": "rhf"
			},
			{
				"type": "unocc",
				"energy": 0.0069,
				"method": "rhf"
			},
			{
				"type": "unocc",
				"energy": 0.00963,
				"method": "rhf"
			},
			{
				"type": "unocc",
				"energy": 0.06079,
				"method": "rhf"
			},
			{
				"type": "unocc",
				"energy": 0.09076,
				"method": "rhf"
			},
			{
				"type": "unocc",
				"energy": 0.09475,
				"method": "rhf"
			}
		],
		"cosmo_sigma_profile": { 
			"-0.025": 0.0,
			"-0.024": 0.0,
			"-0.023": 0.0,
			"-0.022": 0.0,
			"-0.021": 0.0,
			"-0.02": 0.0,
			"-0.019": 0.0,
			"-0.018": 0.0,
			"-0.017": 0.0,
			"-0.016": 0.0,
			"-0.015": 0.163463263693,
			"-0.014": 1.08051148685,
			"-0.013": 1.29656486344,
			"-0.012": 0.662867916061,
			"-0.011": 0.868148694701,
			"-0.01": 1.08629212246,
			"-0.009": 1.11225219648,
			"-0.008": 0.640233991265,
			"-0.007": 0.562442960042,
			"-0.006": 2.81004669433,
			"-0.005": 12.3877883912,
			"-0.004": 24.9081517821,
			"-0.003": 24.2466640373,
			"-0.002": 26.0358909996,
			"-0.001": 21.2697450492,
			"0.0": 24.9004224348,
			"0.001": 19.0521270444,
			"0.002": 11.8537996247,
			"0.003": 11.3065456698,
			"0.004": 11.7651571781,
			"0.005": 10.8113770067,
			"0.006": 7.76594701449,
			"0.007": 2.76543314919,
			"0.008": 2.1522676635,
			"0.009": 1.3904682737,
			"0.01": 1.83466849826,
			"0.011": 1.76096964266,
			"0.012": 3.14906204738,
			"0.013": 4.2497795946,
			"0.014": 0.113581392215,
			"0.015": 0.0,
			"0.016": 0.0,
			"0.017": 0.0,
			"0.018": 0.0,
			"0.019": 0.0,
			"0.02": 0.0,
			"0.021": 0.0,
			"0.022": 0.0,
			"0.023": 0.0,
			"0.024": 0.0,
			"0.025": 0.0
		}
	}
}
