{
	 "smiles": "CC1=CC(Cl)=NC=C1", 
	 "Tm": 388.15, 
	 "num_atms": 14, 
	 "gaussian": { 
		 "optdone": 1, 
		 "sigma_profile": "yes", 
		 "theory": "DFT", 
		 "functional": "B3LYP", 
		 "basiset": "6-31G**", 
		 "properties": { 
			 "R2extent": 2919.149, 
			 "electric_dipole_moment_norm": 4.04979096374, 
			 "electric_quadrupole_moment_norm": 15.7076912116, 
			 "total_energy": -747.202176525, 
			 "HOMO_LUMO_gap": 0.22551, 
			 "cosmo_polarized_energy": -6.98, 
			 "cosmo_cavitation_energy": 19.72, 
			 "cosmo_dispersion_energy": -14.91, 
			 "cosmo_repulsion_energy": 1.24, 
			 "cosmo_total_nonelectrostatic_energy": 6.05, 
			 "SMD_solvation_energy": 1.91 
		},
		"coords": [
			{
				"x": 1.7293157086,
				"y": 0.1205778842,
				"z": 0.2062145503,
				"element": "C" 
			},
			{
				"x": 1.0695392725,
				"y": 0.2332190269,
				"z": -1.1450480759,
				"element": "C" 
			},
			{
				"x": 0.9639752163,
				"y": 1.4595107657,
				"z": -1.8034880362,
				"element": "C" 
			},
			{
				"x": 0.338840661,
				"y": 1.4861187214,
				"z": -3.0535552778,
				"element": "C" 
			},
			{
				"x": 0.2059831365,
				"y": 3.0379115466,
				"z": -3.8854593941,
				"element": "Cl" 
			},
			{
				"x": -0.1667273116,
				"y": 0.4378907072,
				"z": -3.6728667579,
				"element": "N" 
			},
			{
				"x": -0.0632796836,
				"y": -0.7406404244,
				"z": -3.0361144012,
				"element": "C" 
			},
			{
				"x": 0.5358912633,
				"y": -0.8929539806,
				"z": -1.7916098994,
				"element": "C" 
			},
			{
				"x": 1.0291054007,
				"y": -0.2727889405,
				"z": 0.9513675229,
				"element": "H" 
			},
			{
				"x": 2.090926908,
				"y": 1.0894458889,
				"z": 0.5591097179,
				"element": "H" 
			},
			{
				"x": 2.5811493536,
				"y": -0.5673311289,
				"z": 0.1691805786,
				"element": "H" 
			},
			{
				"x": 1.3533629097,
				"y": 2.3711941218,
				"z": -1.3647263338,
				"element": "H" 
			},
			{
				"x": -0.4840791682,
				"y": -1.5977379136,
				"z": -3.5573608656,
				"element": "H" 
			},
			{
				"x": 0.5878963331,
				"y": -1.8743162747,
				"z": -1.3293433277,
				"element": "H" 
			}
		],
		 "valence_orbital": [ 
			{
				"type": "occ",
				"energy": -0.333,
				"method": "rhf"
			},
			{
				"type": "occ",
				"energy": -0.31001,
				"method": "rhf"
			},
			{
				"type": "occ",
				"energy": -0.28649,
				"method": "rhf"
			},
			{
				"type": "occ",
				"energy": -0.27272,
				"method": "rhf"
			},
			{
				"type": "occ",
				"energy": -0.25762,
				"method": "rhf"
			},
			{
				"type": "unocc",
				"energy": -0.03211,
				"method": "rhf"
			},
			{
				"type": "unocc",
				"energy": -0.02234,
				"method": "rhf"
			},
			{
				"type": "unocc",
				"energy": 0.03717,
				"method": "rhf"
			},
			{
				"type": "unocc",
				"energy": 0.09535,
				"method": "rhf"
			},
			{
				"type": "unocc",
				"energy": 0.11767,
				"method": "rhf"
			}
		],
		"cosmo_sigma_profile": { 
			"-0.025": 0.0,
			"-0.024": 0.0,
			"-0.023": 0.0,
			"-0.022": 0.0,
			"-0.021": 0.0,
			"-0.02": 0.0,
			"-0.019": 0.0,
			"-0.018": 0.0,
			"-0.017": 0.0,
			"-0.016": 0.0,
			"-0.015": 0.0,
			"-0.014": 0.0,
			"-0.013": 0.0,
			"-0.012": 0.0,
			"-0.011": 0.0,
			"-0.01": 0.0,
			"-0.009": 0.0,
			"-0.008": 0.536122869093,
			"-0.007": 5.54181249439,
			"-0.006": 8.47891532498,
			"-0.005": 12.0413692809,
			"-0.004": 11.8634440286,
			"-0.003": 10.9132478784,
			"-0.002": 12.367016195,
			"-0.001": 14.5149873192,
			"0.0": 14.08290842,
			"0.001": 17.5530449706,
			"0.002": 12.8294899882,
			"0.003": 8.09024311706,
			"0.004": 9.38301235958,
			"0.005": 7.9112986954,
			"0.006": 3.23456158253,
			"0.007": 2.16362540373,
			"0.008": 1.87000090287,
			"0.009": 1.0573433058,
			"0.01": 1.20661852688,
			"0.011": 1.42281774649,
			"0.012": 0.507371050114,
			"0.013": 0.796672356037,
			"0.014": 1.15871305178,
			"0.015": 0.469518070002,
			"0.016": 0.0260074023197,
			"0.017": 0.0,
			"0.018": 0.0,
			"0.019": 0.0,
			"0.02": 0.0,
			"0.021": 0.0,
			"0.022": 0.0,
			"0.023": 0.0,
			"0.024": 0.0,
			"0.025": 0.0
		}
	}
}
