{
	 "smiles": "CC(C)C(N1C=NC=N1)C(O)=O", 
	 "Tm": 451.15, 
	 "num_atms": 23, 
	 "gaussian": { 
		 "optdone": 1, 
		 "sigma_profile": "yes", 
		 "theory": "DFT", 
		 "functional": "B3LYP", 
		 "basiset": "6-31G**", 
		 "properties": { 
			 "R2extent": 2558.0994, 
			 "electric_dipole_moment_norm": 3.32882302023, 
			 "electric_quadrupole_moment_norm": 14.233477398, 
			 "total_energy": -588.079552614, 
			 "HOMO_LUMO_gap": 0.24404, 
			 "cosmo_polarized_energy": -14.46, 
			 "cosmo_cavitation_energy": 25.8, 
			 "cosmo_dispersion_energy": -18.48, 
			 "cosmo_repulsion_energy": 1.46, 
			 "cosmo_total_nonelectrostatic_energy": 8.78, 
			 "SMD_solvation_energy": 4.26 
		},
		"coords": [
			{
				"x": -1.0351133101,
				"y": 0.5694356626,
				"z": 0.2579649612,
				"element": "C" 
			},
			{
				"x": -0.3879643549,
				"y": -0.1754650831,
				"z": 1.4344367317,
				"element": "C" 
			},
			{
				"x": -0.0095276274,
				"y": 0.785055273,
				"z": 2.5713136039,
				"element": "C" 
			},
			{
				"x": 0.8400807406,
				"y": -1.0460190468,
				"z": 1.0141002354,
				"element": "C" 
			},
			{
				"x": 0.4306229031,
				"y": -2.232639761,
				"z": 0.2496464703,
				"element": "N" 
			},
			{
				"x": 0.1646396354,
				"y": -3.4803546202,
				"z": 0.6941996708,
				"element": "C" 
			},
			{
				"x": -0.2307667066,
				"y": -4.2607737856,
				"z": -0.300699858,
				"element": "N" 
			},
			{
				"x": -0.1901638237,
				"y": -3.4275909801,
				"z": -1.3691603898,
				"element": "C" 
			},
			{
				"x": 0.1955836287,
				"y": -2.1875277368,
				"z": -1.0909040153,
				"element": "N" 
			},
			{
				"x": 1.9268748271,
				"y": -0.2009015284,
				"z": 0.3081483855,
				"element": "C" 
			},
			{
				"x": 1.9287918572,
				"y": -0.1700619509,
				"z": -1.0259165228,
				"element": "O" 
			},
			{
				"x": 2.6938548215,
				"y": 0.4545355428,
				"z": 0.9754520275,
				"element": "O" 
			},
			{
				"x": -1.9377564795,
				"y": 1.0852436567,
				"z": 0.5995291773,
				"element": "H" 
			},
			{
				"x": -0.3586475587,
				"y": 1.3244118899,
				"z": -0.1563425122,
				"element": "H" 
			},
			{
				"x": -1.3210569629,
				"y": -0.1101788981,
				"z": -0.5492140283,
				"element": "H" 
			},
			{
				"x": -1.1187440078,
				"y": -0.8963600038,
				"z": 1.8265258255,
				"element": "H" 
			},
			{
				"x": 0.3880072461,
				"y": 0.2461967832,
				"z": 3.4379756942,
				"element": "H" 
			},
			{
				"x": 0.7499996172,
				"y": 1.5021647143,
				"z": 2.2505395923,
				"element": "H" 
			},
			{
				"x": -0.8947244085,
				"y": 1.3399584897,
				"z": 2.8970659684,
				"element": "H" 
			},
			{
				"x": 1.3132899552,
				"y": -1.4283423791,
				"z": 1.9215057015,
				"element": "H" 
			},
			{
				"x": 0.274602321,
				"y": -3.7692913339,
				"z": 1.7303574102,
				"element": "H" 
			},
			{
				"x": -0.4445619929,
				"y": -3.7295171427,
				"z": -2.3754915433,
				"element": "H" 
			},
			{
				"x": 1.2610796796,
				"y": -0.8065777619,
				"z": -1.3842325861,
				"element": "H" 
			}
		],
		 "valence_orbital": [ 
			{
				"type": "occ",
				"energy": -0.321,
				"method": "rhf"
			},
			{
				"type": "occ",
				"energy": -0.3088,
				"method": "rhf"
			},
			{
				"type": "occ",
				"energy": -0.30315,
				"method": "rhf"
			},
			{
				"type": "occ",
				"energy": -0.2937,
				"method": "rhf"
			},
			{
				"type": "occ",
				"energy": -0.2685,
				"method": "rhf"
			},
			{
				"type": "unocc",
				"energy": -0.02446,
				"method": "rhf"
			},
			{
				"type": "unocc",
				"energy": 0.00303,
				"method": "rhf"
			},
			{
				"type": "unocc",
				"energy": 0.0265,
				"method": "rhf"
			},
			{
				"type": "unocc",
				"energy": 0.07038,
				"method": "rhf"
			},
			{
				"type": "unocc",
				"energy": 0.09801,
				"method": "rhf"
			}
		],
		"cosmo_sigma_profile": { 
			"-0.025": 0.0,
			"-0.024": 0.0,
			"-0.023": 0.0,
			"-0.022": 0.0,
			"-0.021": 0.0,
			"-0.02": 0.0,
			"-0.019": 0.0,
			"-0.018": 0.0,
			"-0.017": 0.0,
			"-0.016": 0.0,
			"-0.015": 0.0,
			"-0.014": 0.0,
			"-0.013": 0.00415185788405,
			"-0.012": 1.20140489552,
			"-0.011": 3.39641615897,
			"-0.01": 3.21644824453,
			"-0.009": 5.11981411452,
			"-0.008": 5.26483531537,
			"-0.007": 5.95363698991,
			"-0.006": 5.65223865284,
			"-0.005": 8.43987006277,
			"-0.004": 14.1443711943,
			"-0.003": 19.4444148248,
			"-0.002": 18.7856047725,
			"-0.001": 18.949568535,
			"0.0": 20.6759724761,
			"0.001": 15.4162674853,
			"0.002": 6.90530303512,
			"0.003": 5.16611514467,
			"0.004": 3.89531824121,
			"0.005": 3.9543173658,
			"0.006": 4.31829406136,
			"0.007": 3.96874239684,
			"0.008": 3.40641911824,
			"0.009": 4.41447457806,
			"0.01": 5.95753888663,
			"0.011": 5.83305273987,
			"0.012": 5.45491219012,
			"0.013": 2.46167620885,
			"0.014": 0.953041126542,
			"0.015": 1.17262518405,
			"0.016": 0.454231015322,
			"0.017": 0.0,
			"0.018": 0.0,
			"0.019": 0.0,
			"0.02": 0.0,
			"0.021": 0.0,
			"0.022": 0.0,
			"0.023": 0.0,
			"0.024": 0.0,
			"0.025": 0.0
		}
	}
}
