{
	 "smiles": "FC(F)(F)C1=CC=C(C=C1)C1=CC=C(S1)C=O", 
	 "Tm": 398.15, 
	 "num_atms": 24, 
	 "gaussian": { 
		 "optdone": 1, 
		 "sigma_profile": "yes", 
		 "theory": "DFT", 
		 "functional": "B3LYP", 
		 "basiset": "6-31G**", 
		 "properties": { 
			 "R2extent": 8201.2963, 
			 "electric_dipole_moment_norm": 3.44602693837, 
			 "electric_quadrupole_moment_norm": 29.2950487776, 
			 "total_energy": -1234.42100023, 
			 "HOMO_LUMO_gap": 0.15207, 
			 "cosmo_polarized_energy": -10.66, 
			 "cosmo_cavitation_energy": 32.44, 
			 "cosmo_dispersion_energy": -23.43, 
			 "cosmo_repulsion_energy": 1.68, 
			 "cosmo_total_nonelectrostatic_energy": 10.69, 
			 "SMD_solvation_energy": 7.35 
		},
		"coords": [
			{
				"x": -0.5711313044,
				"y": -4.3492007476,
				"z": -1.0644529261,
				"element": "F" 
			},
			{
				"x": -1.2357424694,
				"y": -3.3682535102,
				"z": -1.7129673645,
				"element": "C" 
			},
			{
				"x": -2.4353816578,
				"y": -3.2342290094,
				"z": -1.100672986,
				"element": "F" 
			},
			{
				"x": -1.4831628619,
				"y": -3.8020939088,
				"z": -2.9686145625,
				"element": "F" 
			},
			{
				"x": -0.4669745877,
				"y": -2.0748169237,
				"z": -1.7106791763,
				"element": "C" 
			},
			{
				"x": 0.391552569,
				"y": -1.7707543938,
				"z": -0.651331186,
				"element": "C" 
			},
			{
				"x": 1.0573324115,
				"y": -0.5500067102,
				"z": -0.6225870401,
				"element": "C" 
			},
			{
				"x": 0.884152274,
				"y": 0.3916105284,
				"z": -1.6532425162,
				"element": "C" 
			},
			{
				"x": 0.0234129722,
				"y": 0.0648580022,
				"z": -2.7181656288,
				"element": "C" 
			},
			{
				"x": -0.6490658459,
				"y": -1.1515186018,
				"z": -2.7442224468,
				"element": "C" 
			},
			{
				"x": 1.5766980453,
				"y": 1.6858124296,
				"z": -1.6339618727,
				"element": "C" 
			},
			{
				"x": 1.1747679803,
				"y": 2.8668644681,
				"z": -2.2349284288,
				"element": "C" 
			},
			{
				"x": 2.0738869395,
				"y": 3.9353128073,
				"z": -2.0180518334,
				"element": "C" 
			},
			{
				"x": 3.1655049458,
				"y": 3.5762151428,
				"z": -1.2527791577,
				"element": "C" 
			},
			{
				"x": 3.093336955,
				"y": 1.8958231645,
				"z": -0.7950045583,
				"element": "S" 
			},
			{
				"x": 4.2800720219,
				"y": 4.4188073468,
				"z": -0.8393754983,
				"element": "C" 
			},
			{
				"x": 5.219799175,
				"y": 4.0430699347,
				"z": -0.1593420152,
				"element": "O" 
			},
			{
				"x": 0.537562485,
				"y": -2.4884830136,
				"z": 0.1484567679,
				"element": "H" 
			},
			{
				"x": 1.7049820598,
				"y": -0.3176221989,
				"z": 0.2171429384,
				"element": "H" 
			},
			{
				"x": -0.0979449948,
				"y": 0.7588974293,
				"z": -3.5431544652,
				"element": "H" 
			},
			{
				"x": -1.3007422403,
				"y": -1.3950663978,
				"z": -3.5763155435,
				"element": "H" 
			},
			{
				"x": 0.2465826743,
				"y": 2.9633915994,
				"z": -2.7856944889,
				"element": "H" 
			},
			{
				"x": 1.9288723526,
				"y": 4.9408136413,
				"z": -2.3988541722,
				"element": "H" 
			},
			{
				"x": 4.2088301007,
				"y": 5.4668689215,
				"z": -1.2030018387,
				"element": "H" 
			}
		],
		 "valence_orbital": [ 
			{
				"type": "occ",
				"energy": -0.2998,
				"method": "rhf"
			},
			{
				"type": "occ",
				"energy": -0.28008,
				"method": "rhf"
			},
			{
				"type": "occ",
				"energy": -0.2744,
				"method": "rhf"
			},
			{
				"type": "occ",
				"energy": -0.26304,
				"method": "rhf"
			},
			{
				"type": "occ",
				"energy": -0.24015,
				"method": "rhf"
			},
			{
				"type": "unocc",
				"energy": -0.08808,
				"method": "rhf"
			},
			{
				"type": "unocc",
				"energy": -0.03536,
				"method": "rhf"
			},
			{
				"type": "unocc",
				"energy": -0.02974,
				"method": "rhf"
			},
			{
				"type": "unocc",
				"energy": 0.01825,
				"method": "rhf"
			},
			{
				"type": "unocc",
				"energy": 0.02469,
				"method": "rhf"
			}
		],
		"cosmo_sigma_profile": { 
			"-0.025": 0.0,
			"-0.024": 0.0,
			"-0.023": 0.0,
			"-0.022": 0.0,
			"-0.021": 0.0,
			"-0.02": 0.0,
			"-0.019": 0.0,
			"-0.018": 0.0,
			"-0.017": 0.0,
			"-0.016": 0.0,
			"-0.015": 0.0,
			"-0.014": 0.0,
			"-0.013": 0.0,
			"-0.012": 0.0,
			"-0.011": 0.0,
			"-0.01": 0.0,
			"-0.009": 1.16934023358,
			"-0.008": 7.99280039909,
			"-0.007": 13.8964113644,
			"-0.006": 13.724540577,
			"-0.005": 13.707117014,
			"-0.004": 11.186241668,
			"-0.003": 10.8908406773,
			"-0.002": 14.4283956174,
			"-0.001": 15.3282566785,
			"0.0": 21.5043053563,
			"0.001": 33.0913340989,
			"0.002": 45.6123951913,
			"0.003": 37.6923128848,
			"0.004": 3.52889757759,
			"0.005": 2.06973300252,
			"0.006": 1.48066033209,
			"0.007": 1.64445425327,
			"0.008": 1.36067179803,
			"0.009": 2.34949789368,
			"0.01": 2.83935753555,
			"0.011": 4.06794831316,
			"0.012": 3.296632951,
			"0.013": 1.02727642645,
			"0.014": 0.0,
			"0.015": 0.0,
			"0.016": 0.0,
			"0.017": 0.0,
			"0.018": 0.0,
			"0.019": 0.0,
			"0.02": 0.0,
			"0.021": 0.0,
			"0.022": 0.0,
			"0.023": 0.0,
			"0.024": 0.0,
			"0.025": 0.0
		}
	}
}
