{
	 "smiles": "COC1=C(OC)C2=C(NC(=C2)C(O)=O)C=C1", 
	 "Tm": 495.15, 
	 "num_atms": 27, 
	 "gaussian": { 
		 "optdone": 1, 
		 "sigma_profile": "yes", 
		 "theory": "DFT", 
		 "functional": "B3LYP", 
		 "basiset": "6-31G**", 
		 "properties": { 
			 "R2extent": 4359.1383, 
			 "electric_dipole_moment_norm": 4.74247209059, 
			 "electric_quadrupole_moment_norm": 25.5840834729, 
			 "total_energy": -781.421002088, 
			 "HOMO_LUMO_gap": 0.16367, 
			 "cosmo_polarized_energy": -20.02, 
			 "cosmo_cavitation_energy": 31.62, 
			 "cosmo_dispersion_energy": -22.65, 
			 "cosmo_repulsion_energy": 1.77, 
			 "cosmo_total_nonelectrostatic_energy": 10.74, 
			 "SMD_solvation_energy": 7.75 
		},
		"coords": [
			{
				"x": -2.2259018286,
				"y": 2.7511818093,
				"z": -1.4555680557,
				"element": "C" 
			},
			{
				"x": -0.8321048565,
				"y": 2.4994788595,
				"z": -1.6681715244,
				"element": "O" 
			},
			{
				"x": -0.4002439337,
				"y": 1.2659050878,
				"z": -1.2224745732,
				"element": "C" 
			},
			{
				"x": -0.2857030951,
				"y": 0.9876514218,
				"z": 0.1426145494,
				"element": "C" 
			},
			{
				"x": -0.6287905767,
				"y": 1.8867646872,
				"z": 1.1210583968,
				"element": "O" 
			},
			{
				"x": 0.178102503,
				"y": 3.0728485341,
				"z": 1.1764705135,
				"element": "C" 
			},
			{
				"x": 0.1703671208,
				"y": -0.2892304444,
				"z": 0.5270224194,
				"element": "C" 
			},
			{
				"x": 0.4939834869,
				"y": -1.2500329501,
				"z": -0.4680156715,
				"element": "C" 
			},
			{
				"x": 0.871323458,
				"y": -2.414389214,
				"z": 0.184096443,
				"element": "N" 
			},
			{
				"x": 0.8661303902,
				"y": -2.1684819323,
				"z": 1.5642820863,
				"element": "C" 
			},
			{
				"x": 0.4226674481,
				"y": -0.8906470299,
				"z": 1.8001708586,
				"element": "C" 
			},
			{
				"x": 1.2101052045,
				"y": -3.2049012048,
				"z": 2.5543548475,
				"element": "C" 
			},
			{
				"x": 1.1510385835,
				"y": -4.4933972113,
				"z": 2.0937801197,
				"element": "O" 
			},
			{
				"x": 1.535743572,
				"y": -2.9726203075,
				"z": 3.6936363347,
				"element": "O" 
			},
			{
				"x": 0.4156070535,
				"y": -0.9616735446,
				"z": -1.8345558344,
				"element": "C" 
			},
			{
				"x": -0.0395934258,
				"y": 0.3018145792,
				"z": -2.1880855319,
				"element": "C" 
			},
			{
				"x": -2.8405894114,
				"y": 2.0144154777,
				"z": -1.9880602404,
				"element": "H" 
			},
			{
				"x": -2.4775631264,
				"y": 2.7300093398,
				"z": -0.3901114181,
				"element": "H" 
			},
			{
				"x": -2.4237629112,
				"y": 3.7457829856,
				"z": -1.8608127585,
				"element": "H" 
			},
			{
				"x": -0.2184308427,
				"y": 3.6693329078,
				"z": 2.0002163766,
				"element": "H" 
			},
			{
				"x": 1.2238868003,
				"y": 2.816949286,
				"z": 1.3846179946,
				"element": "H" 
			},
			{
				"x": 0.1189684413,
				"y": 3.6380895373,
				"z": 0.2423219058,
				"element": "H" 
			},
			{
				"x": 1.4770176675,
				"y": -3.1005809655,
				"z": -0.2437332786,
				"element": "H" 
			},
			{
				"x": 0.2586804266,
				"y": -0.4568340991,
				"z": 2.7747001493,
				"element": "H" 
			},
			{
				"x": 0.6184479399,
				"y": -4.5236424369,
				"z": 1.2850988749,
				"element": "H" 
			},
			{
				"x": 0.6827670907,
				"y": -1.6928795149,
				"z": -2.5909583641,
				"element": "H" 
			},
			{
				"x": -0.1353531786,
				"y": 0.5850863423,
				"z": -3.2312946194,
				"element": "H" 
			}
		],
		 "valence_orbital": [ 
			{
				"type": "occ",
				"energy": -0.28594,
				"method": "rhf"
			},
			{
				"type": "occ",
				"energy": -0.27536,
				"method": "rhf"
			},
			{
				"type": "occ",
				"energy": -0.26722,
				"method": "rhf"
			},
			{
				"type": "occ",
				"energy": -0.23128,
				"method": "rhf"
			},
			{
				"type": "occ",
				"energy": -0.21539,
				"method": "rhf"
			},
			{
				"type": "unocc",
				"energy": -0.05172,
				"method": "rhf"
			},
			{
				"type": "unocc",
				"energy": 0.00592,
				"method": "rhf"
			},
			{
				"type": "unocc",
				"energy": 0.02007,
				"method": "rhf"
			},
			{
				"type": "unocc",
				"energy": 0.04549,
				"method": "rhf"
			},
			{
				"type": "unocc",
				"energy": 0.08176,
				"method": "rhf"
			}
		],
		"cosmo_sigma_profile": { 
			"-0.025": 0.0,
			"-0.024": 0.0,
			"-0.023": 0.0,
			"-0.022": 0.0,
			"-0.021": 0.0,
			"-0.02": 0.0,
			"-0.019": 0.0111360772682,
			"-0.018": 1.43330979998,
			"-0.017": 1.83438206494,
			"-0.016": 2.33448556159,
			"-0.015": 2.13757702837,
			"-0.014": 2.02911074155,
			"-0.013": 2.13409403571,
			"-0.012": 1.9963611071,
			"-0.011": 1.71585755896,
			"-0.01": 1.61726505538,
			"-0.009": 1.59549276667,
			"-0.008": 2.43199210469,
			"-0.007": 4.02131859824,
			"-0.006": 7.46703340321,
			"-0.005": 11.7723833542,
			"-0.004": 18.4690041556,
			"-0.003": 21.5544801411,
			"-0.002": 22.3491465824,
			"-0.001": 15.9372021447,
			"0.0": 14.3473908693,
			"0.001": 13.0690732467,
			"0.002": 14.5461966372,
			"0.003": 22.7495727417,
			"0.004": 13.967278745,
			"0.005": 8.94764859464,
			"0.006": 5.0491985003,
			"0.007": 3.90549077412,
			"0.008": 5.42188152735,
			"0.009": 4.48211754151,
			"0.01": 6.51458091944,
			"0.011": 7.769232673,
			"0.012": 6.39464086102,
			"0.013": 1.80627876962,
			"0.014": 0.0453498014285,
			"0.015": 0.0,
			"0.016": 0.0,
			"0.017": 0.0,
			"0.018": 0.0,
			"0.019": 0.0,
			"0.02": 0.0,
			"0.021": 0.0,
			"0.022": 0.0,
			"0.023": 0.0,
			"0.024": 0.0,
			"0.025": 0.0
		}
	}
}
