{
	 "smiles": "O=CNC1CCCCC1", 
	 "Tm": 312.65, 
	 "num_atms": 22, 
	 "gaussian": { 
		 "optdone": 1, 
		 "sigma_profile": "yes", 
		 "theory": "DFT", 
		 "functional": "B3LYP", 
		 "basiset": "6-31G**", 
		 "properties": { 
			 "R2extent": 1454.0801, 
			 "electric_dipole_moment_norm": 3.9274558508, 
			 "electric_quadrupole_moment_norm": 16.4263015168, 
			 "total_energy": -404.57038906, 
			 "HOMO_LUMO_gap": 0.27788, 
			 "cosmo_polarized_energy": -10.61, 
			 "cosmo_cavitation_energy": 22.96, 
			 "cosmo_dispersion_energy": -17.03, 
			 "cosmo_repulsion_energy": 1.41, 
			 "cosmo_total_nonelectrostatic_energy": 7.33, 
			 "SMD_solvation_energy": 4.22 
		},
		"coords": [
			{
				"x": 0.2802134736,
				"y": -3.479220812,
				"z": -1.1308178997,
				"element": "O" 
			},
			{
				"x": 0.1108204617,
				"y": -2.3956658729,
				"z": -1.6667602952,
				"element": "C" 
			},
			{
				"x": 0.1468335512,
				"y": -1.1939619885,
				"z": -1.0296448981,
				"element": "N" 
			},
			{
				"x": 0.4054117236,
				"y": -1.0729461129,
				"z": 0.4100137094,
				"element": "C" 
			},
			{
				"x": 1.1398183767,
				"y": 0.2425332631,
				"z": 0.7026371417,
				"element": "C" 
			},
			{
				"x": 0.2863838311,
				"y": 1.4907300836,
				"z": 0.3635543043,
				"element": "C" 
			},
			{
				"x": -1.2292448738,
				"y": 1.2496616592,
				"z": 0.574769677,
				"element": "C" 
			},
			{
				"x": -1.4736435954,
				"y": 0.1986208842,
				"z": 1.6659491334,
				"element": "C" 
			},
			{
				"x": -0.890334919,
				"y": -1.1757939254,
				"z": 1.2677378767,
				"element": "C" 
			},
			{
				"x": -0.0863463729,
				"y": -2.2865934172,
				"z": -2.752960074,
				"element": "H" 
			},
			{
				"x": -0.0266729884,
				"y": -0.3626328036,
				"z": -1.5754485357,
				"element": "H" 
			},
			{
				"x": 1.0479399712,
				"y": -1.9230938615,
				"z": 0.6522296392,
				"element": "H" 
			},
			{
				"x": 2.0954001459,
				"y": 0.2723369095,
				"z": 0.1681906544,
				"element": "H" 
			},
			{
				"x": 1.381898856,
				"y": 0.2461743179,
				"z": 1.7716514018,
				"element": "H" 
			},
			{
				"x": 0.4714928894,
				"y": 1.811712381,
				"z": -0.6693888095,
				"element": "H" 
			},
			{
				"x": 0.6217038154,
				"y": 2.3233508657,
				"z": 0.9921761547,
				"element": "H" 
			},
			{
				"x": -1.6915840976,
				"y": 0.9000983957,
				"z": -0.3580818397,
				"element": "H" 
			},
			{
				"x": -1.7280845835,
				"y": 2.1926945143,
				"z": 0.8234014232,
				"element": "H" 
			},
			{
				"x": -2.5446891196,
				"y": 0.1027098226,
				"z": 1.875342026,
				"element": "H" 
			},
			{
				"x": -1.0117966164,
				"y": 0.5450849675,
				"z": 2.6001139021,
				"element": "H" 
			},
			{
				"x": -1.6266789306,
				"y": -1.7558731095,
				"z": 0.7029799558,
				"element": "H" 
			},
			{
				"x": -0.6703409986,
				"y": -1.7559261605,
				"z": 2.1711553522,
				"element": "H" 
			}
		],
		 "valence_orbital": [ 
			{
				"type": "occ",
				"energy": -0.31904,
				"method": "rhf"
			},
			{
				"type": "occ",
				"energy": -0.31233,
				"method": "rhf"
			},
			{
				"type": "occ",
				"energy": -0.30673,
				"method": "rhf"
			},
			{
				"type": "occ",
				"energy": -0.24884,
				"method": "rhf"
			},
			{
				"type": "occ",
				"energy": -0.24451,
				"method": "rhf"
			},
			{
				"type": "unocc",
				"energy": 0.03337,
				"method": "rhf"
			},
			{
				"type": "unocc",
				"energy": 0.05959,
				"method": "rhf"
			},
			{
				"type": "unocc",
				"energy": 0.07995,
				"method": "rhf"
			},
			{
				"type": "unocc",
				"energy": 0.10924,
				"method": "rhf"
			},
			{
				"type": "unocc",
				"energy": 0.13283,
				"method": "rhf"
			}
		],
		"cosmo_sigma_profile": { 
			"-0.025": 0.0,
			"-0.024": 0.0,
			"-0.023": 0.0,
			"-0.022": 0.0,
			"-0.021": 0.0,
			"-0.02": 0.0,
			"-0.019": 0.0,
			"-0.018": 0.0,
			"-0.017": 0.0,
			"-0.016": 0.0,
			"-0.015": 0.0,
			"-0.014": 0.159102347878,
			"-0.013": 0.970978181869,
			"-0.012": 1.28337917795,
			"-0.011": 1.03960519579,
			"-0.01": 1.6449055631,
			"-0.009": 1.75814383677,
			"-0.008": 1.79557120043,
			"-0.007": 3.0720171924,
			"-0.006": 3.82674909065,
			"-0.005": 2.98359818459,
			"-0.004": 4.36477310882,
			"-0.003": 17.0475695261,
			"-0.002": 28.7542655505,
			"-0.001": 28.9279521527,
			"0.0": 25.5574967196,
			"0.001": 21.3041604272,
			"0.002": 4.96016283191,
			"0.003": 3.3308794341,
			"0.004": 0.74630776413,
			"0.005": 1.73677059175,
			"0.006": 2.1251485325,
			"0.007": 1.48866374297,
			"0.008": 1.26599015023,
			"0.009": 2.08659277079,
			"0.01": 0.748830647897,
			"0.011": 1.98183961528,
			"0.012": 1.71849973978,
			"0.013": 3.16144872858,
			"0.014": 5.68341877024,
			"0.015": 1.80553665741,
			"0.016": 0.085754440085,
			"0.017": 0.0,
			"0.018": 0.0,
			"0.019": 0.0,
			"0.02": 0.0,
			"0.021": 0.0,
			"0.022": 0.0,
			"0.023": 0.0,
			"0.024": 0.0,
			"0.025": 0.0
		}
	}
}
