{
	 "smiles": "NC(=NO)C1=C(F)C=C(F)C(F)=C1", 
	 "Tm": 364.65, 
	 "num_atms": 18, 
	 "gaussian": { 
		 "optdone": 1, 
		 "sigma_profile": "yes", 
		 "theory": "DFT", 
		 "functional": "B3LYP", 
		 "basiset": "6-31G**", 
		 "properties": { 
			 "R2extent": 2894.3229, 
			 "electric_dipole_moment_norm": 2.06552655998, 
			 "electric_quadrupole_moment_norm": 4.99446764531, 
			 "total_energy": -753.923469218, 
			 "HOMO_LUMO_gap": 0.17965, 
			 "cosmo_polarized_energy": -11.65, 
			 "cosmo_cavitation_energy": 24.64, 
			 "cosmo_dispersion_energy": -17.84, 
			 "cosmo_repulsion_energy": 1.37, 
			 "cosmo_total_nonelectrostatic_energy": 8.16, 
			 "SMD_solvation_energy": 5.92 
		},
		"coords": [
			{
				"x": -0.9205287734,
				"y": 1.5192557234,
				"z": 1.8063501087,
				"element": "N" 
			},
			{
				"x": 0.3526658472,
				"y": 1.0284017074,
				"z": 1.5591969971,
				"element": "C" 
			},
			{
				"x": 1.3325004418,
				"y": 1.08927572,
				"z": 2.3995584293,
				"element": "N" 
			},
			{
				"x": 0.8657934331,
				"y": 1.6259929673,
				"z": 3.6290277158,
				"element": "O" 
			},
			{
				"x": 0.6166759449,
				"y": 0.4960075928,
				"z": 0.2020031243,
				"element": "C" 
			},
			{
				"x": 1.5207225537,
				"y": -0.5461534069,
				"z": -0.0517052864,
				"element": "C" 
			},
			{
				"x": 2.1897518588,
				"y": -1.1288518409,
				"z": 0.9537964154,
				"element": "F" 
			},
			{
				"x": 1.7454387388,
				"y": -1.0360195977,
				"z": -1.3348710756,
				"element": "C" 
			},
			{
				"x": 1.0511362451,
				"y": -0.4796146252,
				"z": -2.3993127324,
				"element": "C" 
			},
			{
				"x": 1.246832188,
				"y": -0.9322281596,
				"z": -3.6457857766,
				"element": "F" 
			},
			{
				"x": 0.1409859926,
				"y": 0.5538650181,
				"z": -2.1804046221,
				"element": "C" 
			},
			{
				"x": -0.5176716384,
				"y": 1.0810744375,
				"z": -3.2269603457,
				"element": "F" 
			},
			{
				"x": -0.0735332162,
				"y": 1.0338767488,
				"z": -0.8992625597,
				"element": "C" 
			},
			{
				"x": -1.6761796335,
				"y": 0.9945436351,
				"z": 1.3878502257,
				"element": "H" 
			},
			{
				"x": -1.0699572314,
				"y": 1.7484310595,
				"z": 2.7805580009,
				"element": "H" 
			},
			{
				"x": 1.6622528405,
				"y": 1.5977967409,
				"z": 4.1727950633,
				"element": "H" 
			},
			{
				"x": 2.4460889175,
				"y": -1.8461142782,
				"z": -1.4968581181,
				"element": "H" 
			},
			{
				"x": -0.7670745091,
				"y": 1.8544605578,
				"z": -0.7564755641,
				"element": "H" 
			}
		],
		 "valence_orbital": [ 
			{
				"type": "occ",
				"energy": -0.32554,
				"method": "rhf"
			},
			{
				"type": "occ",
				"energy": -0.27913,
				"method": "rhf"
			},
			{
				"type": "occ",
				"energy": -0.27349,
				"method": "rhf"
			},
			{
				"type": "occ",
				"energy": -0.25227,
				"method": "rhf"
			},
			{
				"type": "occ",
				"energy": -0.21803,
				"method": "rhf"
			},
			{
				"type": "unocc",
				"energy": -0.03838,
				"method": "rhf"
			},
			{
				"type": "unocc",
				"energy": -0.01394,
				"method": "rhf"
			},
			{
				"type": "unocc",
				"energy": 0.04574,
				"method": "rhf"
			},
			{
				"type": "unocc",
				"energy": 0.06274,
				"method": "rhf"
			},
			{
				"type": "unocc",
				"energy": 0.07224,
				"method": "rhf"
			}
		],
		"cosmo_sigma_profile": { 
			"-0.025": 0.0,
			"-0.024": 0.0,
			"-0.023": 0.0,
			"-0.022": 0.0,
			"-0.021": 0.0,
			"-0.02": 0.0,
			"-0.019": 0.0,
			"-0.018": 0.0,
			"-0.017": 0.727907269235,
			"-0.016": 0.920896647852,
			"-0.015": 0.759607850492,
			"-0.014": 1.52329366843,
			"-0.013": 1.87290789818,
			"-0.012": 1.96830901963,
			"-0.011": 2.52868626491,
			"-0.01": 3.17995825316,
			"-0.009": 5.05507052177,
			"-0.008": 5.01792997243,
			"-0.007": 5.39315923915,
			"-0.006": 5.59439983941,
			"-0.005": 4.12499387939,
			"-0.004": 4.87178389638,
			"-0.003": 6.7737953043,
			"-0.002": 11.6804125257,
			"-0.001": 20.1159383588,
			"0.0": 18.8593540546,
			"0.001": 12.1335835563,
			"0.002": 10.8746793455,
			"0.003": 24.4062325472,
			"0.004": 17.1799026602,
			"0.005": 5.94227952144,
			"0.006": 5.37352235752,
			"0.007": 5.09777588692,
			"0.008": 4.09934379161,
			"0.009": 4.34157585531,
			"0.01": 2.4264917573,
			"0.011": 1.60502174652,
			"0.012": 1.67984052692,
			"0.013": 0.901579262334,
			"0.014": 0.562528765153,
			"0.015": 0.011973132951,
			"0.016": 0.0,
			"0.017": 0.0,
			"0.018": 0.0,
			"0.019": 0.0,
			"0.02": 0.0,
			"0.021": 0.0,
			"0.022": 0.0,
			"0.023": 0.0,
			"0.024": 0.0,
			"0.025": 0.0
		}
	}
}
