{
	 "smiles": "CC1=C(C)C(=CC=C1)C(=O)N(NC(=O)C1=CC=CC=C1)C(C)(C)C", 
	 "Tm": 477.15, 
	 "num_atms": 48, 
	 "gaussian": { 
		 "optdone": 1, 
		 "sigma_profile": "yes", 
		 "theory": "DFT", 
		 "functional": "B3LYP", 
		 "basiset": "6-31G**", 
		 "properties": { 
			 "R2extent": 9251.4547, 
			 "electric_dipole_moment_norm": 1.83358190163, 
			 "electric_quadrupole_moment_norm": 15.9125759565, 
			 "total_energy": -1036.55434259, 
			 "HOMO_LUMO_gap": 0.19865, 
			 "cosmo_polarized_energy": -15.07, 
			 "cosmo_cavitation_energy": 48.2, 
			 "cosmo_dispersion_energy": -32.05, 
			 "cosmo_repulsion_energy": 2.4, 
			 "cosmo_total_nonelectrostatic_energy": 18.55, 
			 "SMD_solvation_energy": 9.19 
		},
		"coords": [
			{
				"x": 4.3392285328,
				"y": 2.0004444666,
				"z": 2.0980129106,
				"element": "C" 
			},
			{
				"x": 3.1287476951,
				"y": 1.1859752903,
				"z": 2.4902587282,
				"element": "C" 
			},
			{
				"x": 2.0863491268,
				"y": 0.9549242802,
				"z": 1.5636600169,
				"element": "C" 
			},
			{
				"x": 2.1672553357,
				"y": 1.5570146775,
				"z": 0.1788219525,
				"element": "C" 
			},
			{
				"x": 0.9764178378,
				"y": 0.1901919371,
				"z": 1.971127839,
				"element": "C" 
			},
			{
				"x": 0.8783523812,
				"y": -0.2851924404,
				"z": 3.2857531005,
				"element": "C" 
			},
			{
				"x": 1.9109830425,
				"y": -0.0596802607,
				"z": 4.189610921,
				"element": "C" 
			},
			{
				"x": 3.0301185219,
				"y": 0.6670451664,
				"z": 3.7851949288,
				"element": "C" 
			},
			{
				"x": -0.2259484623,
				"y": 0.0531802321,
				"z": 1.0712235752,
				"element": "C" 
			},
			{
				"x": -1.14438238,
				"y": 0.8640240895,
				"z": 1.1885774154,
				"element": "O" 
			},
			{
				"x": -0.3021999975,
				"y": -0.9487136293,
				"z": 0.1123492352,
				"element": "N" 
			},
			{
				"x": -1.4479537633,
				"y": -0.8218812923,
				"z": -0.6818734297,
				"element": "N" 
			},
			{
				"x": -1.3469685633,
				"y": -0.0892375905,
				"z": -1.858817977,
				"element": "C" 
			},
			{
				"x": -0.2933895475,
				"y": 0.0193508439,
				"z": -2.472569724,
				"element": "O" 
			},
			{
				"x": -2.6420922817,
				"y": 0.4716064703,
				"z": -2.3608417052,
				"element": "C" 
			},
			{
				"x": -2.8703478265,
				"y": 0.4863729564,
				"z": -3.7432193265,
				"element": "C" 
			},
			{
				"x": -4.0532877835,
				"y": 1.0185681507,
				"z": -4.2501947842,
				"element": "C" 
			},
			{
				"x": -5.0053570281,
				"y": 1.5607439586,
				"z": -3.3817035767,
				"element": "C" 
			},
			{
				"x": -4.7679151664,
				"y": 1.5769348166,
				"z": -2.0060543048,
				"element": "C" 
			},
			{
				"x": -3.5903096349,
				"y": 1.032358442,
				"z": -1.4924228458,
				"element": "C" 
			},
			{
				"x": 0.5029602143,
				"y": -2.2262623205,
				"z": -0.0229619985,
				"element": "C" 
			},
			{
				"x": -0.0750809359,
				"y": -3.0485232626,
				"z": -1.1884460305,
				"element": "C" 
			},
			{
				"x": 0.3950058129,
				"y": -3.062785344,
				"z": 1.2662718991,
				"element": "C" 
			},
			{
				"x": 1.9693754288,
				"y": -1.8987477001,
				"z": -0.3550253348,
				"element": "C" 
			},
			{
				"x": 4.0605500101,
				"y": 3.0121687654,
				"z": 1.780361237,
				"element": "H" 
			},
			{
				"x": 5.0363436086,
				"y": 2.0932267362,
				"z": 2.9347715991,
				"element": "H" 
			},
			{
				"x": 4.8816079406,
				"y": 1.546876819,
				"z": 1.2596868645,
				"element": "H" 
			},
			{
				"x": 3.1152930387,
				"y": 1.3064123748,
				"z": -0.3098932381,
				"element": "H" 
			},
			{
				"x": 1.3630852582,
				"y": 1.2210946092,
				"z": -0.4767352364,
				"element": "H" 
			},
			{
				"x": 2.1182687601,
				"y": 2.6516309742,
				"z": 0.2310935168,
				"element": "H" 
			},
			{
				"x": -0.0116523235,
				"y": -0.8247166152,
				"z": 3.5954561493,
				"element": "H" 
			},
			{
				"x": 1.8406255935,
				"y": -0.4374299224,
				"z": 5.205359566,
				"element": "H" 
			},
			{
				"x": 3.8378935066,
				"y": 0.8489239074,
				"z": 4.4895984457,
				"element": "H" 
			},
			{
				"x": -2.2854595249,
				"y": -0.6712129594,
				"z": -0.1324688046,
				"element": "H" 
			},
			{
				"x": -2.11070116,
				"y": 0.0783998748,
				"z": -4.4020333033,
				"element": "H" 
			},
			{
				"x": -4.2326349646,
				"y": 1.0167874653,
				"z": -5.321411248,
				"element": "H" 
			},
			{
				"x": -5.9252586542,
				"y": 1.9807016401,
				"z": -3.778572907,
				"element": "H" 
			},
			{
				"x": -5.493915156,
				"y": 2.0232024528,
				"z": -1.3328159501,
				"element": "H" 
			},
			{
				"x": -3.3804842758,
				"y": 1.0953032129,
				"z": -0.4279752231,
				"element": "H" 
			},
			{
				"x": 0.5304950999,
				"y": -3.9536438382,
				"z": -1.2938263225,
				"element": "H" 
			},
			{
				"x": -1.1087568899,
				"y": -3.3498458405,
				"z": -1.0058537902,
				"element": "H" 
			},
			{
				"x": -0.0275160336,
				"y": -2.4918510573,
				"z": -2.1261594839,
				"element": "H" 
			},
			{
				"x": 0.8976713145,
				"y": -4.0247438254,
				"z": 1.1225718865,
				"element": "H" 
			},
			{
				"x": -0.6533894355,
				"y": -3.2643733531,
				"z": 1.5104809079,
				"element": "H" 
			},
			{
				"x": 0.8637685928,
				"y": -2.5671084612,
				"z": 2.1174721047,
				"element": "H" 
			},
			{
				"x": 2.0151702713,
				"y": -1.2708648099,
				"z": -1.2480211046,
				"element": "H" 
			},
			{
				"x": 2.4745268094,
				"y": -1.3899549585,
				"z": 0.4666471793,
				"element": "H" 
			},
			{
				"x": 2.5102080545,
				"y": -2.8296951284,
				"z": -0.55386433,
				"element": "H" 
			}
		],
		 "valence_orbital": [ 
			{
				"type": "occ",
				"energy": -0.25798,
				"method": "rhf"
			},
			{
				"type": "occ",
				"energy": -0.25106,
				"method": "rhf"
			},
			{
				"type": "occ",
				"energy": -0.24367,
				"method": "rhf"
			},
			{
				"type": "occ",
				"energy": -0.23776,
				"method": "rhf"
			},
			{
				"type": "occ",
				"energy": -0.23463,
				"method": "rhf"
			},
			{
				"type": "unocc",
				"energy": -0.03598,
				"method": "rhf"
			},
			{
				"type": "unocc",
				"energy": -0.00848,
				"method": "rhf"
			},
			{
				"type": "unocc",
				"energy": -0.0058,
				"method": "rhf"
			},
			{
				"type": "unocc",
				"energy": -0.00274,
				"method": "rhf"
			},
			{
				"type": "unocc",
				"energy": 0.01514,
				"method": "rhf"
			}
		],
		"cosmo_sigma_profile": { 
			"-0.025": 0.0,
			"-0.024": 0.0,
			"-0.023": 0.0,
			"-0.022": 0.0,
			"-0.021": 0.0,
			"-0.02": 0.0,
			"-0.019": 0.0,
			"-0.018": 0.0,
			"-0.017": 0.0,
			"-0.016": 0.0,
			"-0.015": 0.0,
			"-0.014": 0.0,
			"-0.013": 0.348710366219,
			"-0.012": 0.806944892058,
			"-0.011": 0.809657150805,
			"-0.01": 1.11506539849,
			"-0.009": 0.636854042282,
			"-0.008": 1.37190261354,
			"-0.007": 2.1860039911,
			"-0.006": 12.8020841343,
			"-0.005": 21.1498935876,
			"-0.004": 37.7310708047,
			"-0.003": 36.34044577,
			"-0.002": 31.6636051429,
			"-0.001": 39.0238636015,
			"0.0": 49.2976070026,
			"0.001": 34.8403446837,
			"0.002": 20.5288259606,
			"0.003": 19.7209738772,
			"0.004": 23.397040594,
			"0.005": 12.4911427028,
			"0.006": 6.94371296354,
			"0.007": 4.84242367463,
			"0.008": 2.70801714348,
			"0.009": 3.39976024544,
			"0.01": 3.3010840099,
			"0.011": 2.83982625526,
			"0.012": 3.93574809036,
			"0.013": 3.98257040303,
			"0.014": 1.84516533468,
			"0.015": 0.123079974287,
			"0.016": 0.0,
			"0.017": 0.0,
			"0.018": 0.0,
			"0.019": 0.0,
			"0.02": 0.0,
			"0.021": 0.0,
			"0.022": 0.0,
			"0.023": 0.0,
			"0.024": 0.0,
			"0.025": 0.0
		}
	}
}
