{
	 "smiles": "O=C1C2ON(C(C2C(=O)N1C1=CC=CC=C1)C1=CC=CC=C1)C1=CC=CC=C1", 
	 "Tm": 425.15, 
	 "num_atms": 46, 
	 "gaussian": { 
		 "optdone": 1, 
		 "sigma_profile": "yes", 
		 "theory": "DFT", 
		 "functional": "B3LYP", 
		 "basiset": "6-31G**", 
		 "properties": { 
			 "R2extent": 12759.5655, 
			 "electric_dipole_moment_norm": 1.89051241995, 
			 "electric_quadrupole_moment_norm": 15.2960967034, 
			 "total_energy": -1222.4262963, 
			 "HOMO_LUMO_gap": 0.16736, 
			 "cosmo_polarized_energy": -16.01, 
			 "cosmo_cavitation_energy": 49.8, 
			 "cosmo_dispersion_energy": -34.16, 
			 "cosmo_repulsion_energy": 2.56, 
			 "cosmo_total_nonelectrostatic_energy": 18.2, 
			 "SMD_solvation_energy": 9.03 
		},
		"coords": [
			{
				"x": -2.8421714316,
				"y": -1.4518109393,
				"z": 3.6809224005,
				"element": "O" 
			},
			{
				"x": -2.3639342553,
				"y": -0.6762418766,
				"z": 2.8870594708,
				"element": "C" 
			},
			{
				"x": -0.8942965475,
				"y": -0.2546058374,
				"z": 2.7985965656,
				"element": "C" 
			},
			{
				"x": -0.1960592109,
				"y": -1.3118846138,
				"z": 2.1538999047,
				"element": "O" 
			},
			{
				"x": 0.9146121858,
				"y": -0.6287195563,
				"z": 1.4883692594,
				"element": "N" 
			},
			{
				"x": 0.299743585,
				"y": 0.5398525252,
				"z": 0.8198499725,
				"element": "C" 
			},
			{
				"x": -0.8621993535,
				"y": 0.8936583221,
				"z": 1.7928877326,
				"element": "C" 
			},
			{
				"x": -2.2353197685,
				"y": 0.8685710609,
				"z": 1.1301132621,
				"element": "C" 
			},
			{
				"x": -2.569822683,
				"y": 1.5000576636,
				"z": 0.1518334756,
				"element": "O" 
			},
			{
				"x": -3.0586546044,
				"y": -0.0107539136,
				"z": 1.8585797636,
				"element": "N" 
			},
			{
				"x": -4.440554382,
				"y": -0.240708678,
				"z": 1.555777289,
				"element": "C" 
			},
			{
				"x": -4.9490386507,
				"y": -1.543532187,
				"z": 1.5734895206,
				"element": "C" 
			},
			{
				"x": -6.295744522,
				"y": -1.756683863,
				"z": 1.2826878707,
				"element": "C" 
			},
			{
				"x": -7.1301130246,
				"y": -0.6831683489,
				"z": 0.9670416062,
				"element": "C" 
			},
			{
				"x": -6.6125832998,
				"y": 0.6130047393,
				"z": 0.9468740128,
				"element": "C" 
			},
			{
				"x": -5.2700922972,
				"y": 0.8415880378,
				"z": 1.244839101,
				"element": "C" 
			},
			{
				"x": 1.2707613266,
				"y": 1.6923625693,
				"z": 0.6240999626,
				"element": "C" 
			},
			{
				"x": 2.4029500273,
				"y": 1.8546028352,
				"z": 1.4307434868,
				"element": "C" 
			},
			{
				"x": 3.2421949059,
				"y": 2.9554012436,
				"z": 1.2485720062,
				"element": "C" 
			},
			{
				"x": 2.9557355096,
				"y": 3.9059307451,
				"z": 0.2672888388,
				"element": "C" 
			},
			{
				"x": 1.8232311741,
				"y": 3.7511188629,
				"z": -0.5352480145,
				"element": "C" 
			},
			{
				"x": 0.9858865561,
				"y": 2.6494263777,
				"z": -0.3591293769,
				"element": "C" 
			},
			{
				"x": 1.619955674,
				"y": -1.5829144447,
				"z": 0.7091262616,
				"element": "C" 
			},
			{
				"x": 1.7904526582,
				"y": -2.8857217128,
				"z": 1.2078074632,
				"element": "C" 
			},
			{
				"x": 2.53420315,
				"y": -3.81452896,
				"z": 0.4862229563,
				"element": "C" 
			},
			{
				"x": 3.1309653451,
				"y": -3.4653146301,
				"z": -0.728244865,
				"element": "C" 
			},
			{
				"x": 2.9673619445,
				"y": -2.1703213166,
				"z": -1.216630167,
				"element": "C" 
			},
			{
				"x": 2.2115696929,
				"y": -1.2302637675,
				"z": -0.5134431763,
				"element": "C" 
			},
			{
				"x": -0.4765574283,
				"y": -0.0288940394,
				"z": 3.7856485929,
				"element": "H" 
			},
			{
				"x": -0.1224707863,
				"y": 0.2555496094,
				"z": -0.1548519709,
				"element": "H" 
			},
			{
				"x": -0.7149821607,
				"y": 1.8733847561,
				"z": 2.2539415218,
				"element": "H" 
			},
			{
				"x": -4.3022280741,
				"y": -2.3750135634,
				"z": 1.8235611538,
				"element": "H" 
			},
			{
				"x": -6.6902962734,
				"y": -2.7680896558,
				"z": 1.3010041962,
				"element": "H" 
			},
			{
				"x": -8.1774680756,
				"y": -0.8556365228,
				"z": 0.7379644586,
				"element": "H" 
			},
			{
				"x": -7.2542308084,
				"y": 1.4537329966,
				"z": 0.7009541807,
				"element": "H" 
			},
			{
				"x": -4.8657484567,
				"y": 1.8459063748,
				"z": 1.222892316,
				"element": "H" 
			},
			{
				"x": 2.6261250298,
				"y": 1.1096384887,
				"z": 2.1871978199,
				"element": "H" 
			},
			{
				"x": 4.1231710312,
				"y": 3.0677112333,
				"z": 1.8742263395,
				"element": "H" 
			},
			{
				"x": 3.6111271589,
				"y": 4.7606915448,
				"z": 0.1271569308,
				"element": "H" 
			},
			{
				"x": 1.5914978765,
				"y": 4.4866233627,
				"z": -1.3002443324,
				"element": "H" 
			},
			{
				"x": 0.0964680867,
				"y": 2.5350753327,
				"z": -0.9736895194,
				"element": "H" 
			},
			{
				"x": 1.3286412849,
				"y": -3.1578008206,
				"z": 2.1485658141,
				"element": "H" 
			},
			{
				"x": 2.6495411557,
				"y": -4.8204020365,
				"z": 0.8801322567,
				"element": "H" 
			},
			{
				"x": 3.7141782042,
				"y": -4.1931165236,
				"z": -1.2839791284,
				"element": "H" 
			},
			{
				"x": 3.4227459899,
				"y": -1.8806607462,
				"z": -2.1594045014,
				"element": "H" 
			},
			{
				"x": 2.1045465417,
				"y": -0.2283001277,
				"z": -0.9108627119,
				"element": "H" 
			}
		],
		 "valence_orbital": [ 
			{
				"type": "occ",
				"energy": -0.25679,
				"method": "rhf"
			},
			{
				"type": "occ",
				"energy": -0.25114,
				"method": "rhf"
			},
			{
				"type": "occ",
				"energy": -0.24705,
				"method": "rhf"
			},
			{
				"type": "occ",
				"energy": -0.24638,
				"method": "rhf"
			},
			{
				"type": "occ",
				"energy": -0.20949,
				"method": "rhf"
			},
			{
				"type": "unocc",
				"energy": -0.04213,
				"method": "rhf"
			},
			{
				"type": "unocc",
				"energy": -0.02855,
				"method": "rhf"
			},
			{
				"type": "unocc",
				"energy": -0.01359,
				"method": "rhf"
			},
			{
				"type": "unocc",
				"energy": -0.01,
				"method": "rhf"
			},
			{
				"type": "unocc",
				"energy": -0.00773,
				"method": "rhf"
			}
		],
		"cosmo_sigma_profile": { 
			"-0.025": 0.0,
			"-0.024": 0.0,
			"-0.023": 0.0,
			"-0.022": 0.0,
			"-0.021": 0.0,
			"-0.02": 0.0,
			"-0.019": 0.0,
			"-0.018": 0.0,
			"-0.017": 0.0,
			"-0.016": 0.0,
			"-0.015": 0.0,
			"-0.014": 0.0,
			"-0.013": 0.0,
			"-0.012": 0.0145483741984,
			"-0.011": 0.748000755274,
			"-0.01": 1.71878873209,
			"-0.009": 4.61084056259,
			"-0.008": 5.38212655753,
			"-0.007": 6.27573044963,
			"-0.006": 24.3416468028,
			"-0.005": 34.996196897,
			"-0.004": 37.3412121414,
			"-0.003": 29.8970761489,
			"-0.002": 25.1754715644,
			"-0.001": 23.1245208397,
			"0.0": 19.6584204259,
			"0.001": 24.5159909235,
			"0.002": 26.1548708912,
			"0.003": 28.4292497418,
			"0.004": 33.9695637443,
			"0.005": 30.283796124,
			"0.006": 14.7849792495,
			"0.007": 5.43517649961,
			"0.008": 5.19904130304,
			"0.009": 4.05585238427,
			"0.01": 7.18078805331,
			"0.011": 5.66800794834,
			"0.012": 0.253946320809,
			"0.013": 0.0,
			"0.014": 0.0,
			"0.015": 0.0,
			"0.016": 0.0,
			"0.017": 0.0,
			"0.018": 0.0,
			"0.019": 0.0,
			"0.02": 0.0,
			"0.021": 0.0,
			"0.022": 0.0,
			"0.023": 0.0,
			"0.024": 0.0,
			"0.025": 0.0
		}
	}
}
