{
	 "smiles": "CCN(CC)C(N)=O", 
	 "Tm": 341.65, 
	 "num_atms": 20, 
	 "gaussian": { 
		 "optdone": 1, 
		 "sigma_profile": "yes", 
		 "theory": "DFT", 
		 "functional": "B3LYP", 
		 "basiset": "6-31G**", 
		 "properties": { 
			 "R2extent": 1215.9574, 
			 "electric_dipole_moment_norm": 3.76350449581, 
			 "electric_quadrupole_moment_norm": 7.23975718308, 
			 "total_energy": -382.521510717, 
			 "HOMO_LUMO_gap": 0.27871, 
			 "cosmo_polarized_energy": -12.49, 
			 "cosmo_cavitation_energy": 22.15, 
			 "cosmo_dispersion_energy": -15.99, 
			 "cosmo_repulsion_energy": 1.34, 
			 "cosmo_total_nonelectrostatic_energy": 7.49, 
			 "SMD_solvation_energy": 4.59 
		},
		"coords": [
			{
				"x": -3.0720712232,
				"y": 0.1599105829,
				"z": -0.7003624027,
				"element": "C" 
			},
			{
				"x": -2.0188266364,
				"y": -0.2127703694,
				"z": 0.3532168143,
				"element": "C" 
			},
			{
				"x": -0.6352668715,
				"y": -0.1083288152,
				"z": -0.1027940389,
				"element": "N" 
			},
			{
				"x": 0.0131816232,
				"y": -1.2610525925,
				"z": -0.7388594085,
				"element": "C" 
			},
			{
				"x": 0.1374278086,
				"y": -1.1427522879,
				"z": -2.2608918138,
				"element": "C" 
			},
			{
				"x": 0.1494049554,
				"y": 1.0069305492,
				"z": 0.1027959756,
				"element": "C" 
			},
			{
				"x": -0.4810564502,
				"y": 2.1073572855,
				"z": 0.6895340284,
				"element": "N" 
			},
			{
				"x": 1.3474016633,
				"y": 1.0314959856,
				"z": -0.1679124046,
				"element": "O" 
			},
			{
				"x": -2.9383241141,
				"y": 1.1871933055,
				"z": -1.0572824023,
				"element": "H" 
			},
			{
				"x": -4.0805416329,
				"y": 0.0756350697,
				"z": -0.2807048244,
				"element": "H" 
			},
			{
				"x": -3.0110387217,
				"y": -0.5003091222,
				"z": -1.5704842072,
				"element": "H" 
			},
			{
				"x": -2.1371171969,
				"y": 0.4101570118,
				"z": 1.2453444622,
				"element": "H" 
			},
			{
				"x": -2.1854778981,
				"y": -1.2452862751,
				"z": 0.6812539355,
				"element": "H" 
			},
			{
				"x": -0.5681601361,
				"y": -2.1495824563,
				"z": -0.4708560685,
				"element": "H" 
			},
			{
				"x": 1.0105472602,
				"y": -1.3669700796,
				"z": -0.3039419515,
				"element": "H" 
			},
			{
				"x": -0.8418694503,
				"y": -1.0520028369,
				"z": -2.7420154742,
				"element": "H" 
			},
			{
				"x": 0.7367451128,
				"y": -0.2656450261,
				"z": -2.5167323679,
				"element": "H" 
			},
			{
				"x": 0.6363964653,
				"y": -2.0282426648,
				"z": -2.6699220602,
				"element": "H" 
			},
			{
				"x": 0.117463105,
				"y": 2.9207366429,
				"z": 0.6517039727,
				"element": "H" 
			},
			{
				"x": -1.4409176623,
				"y": 2.3004260927,
				"z": 0.4412102359,
				"element": "H" 
			}
		],
		 "valence_orbital": [ 
			{
				"type": "occ",
				"energy": -0.35527,
				"method": "rhf"
			},
			{
				"type": "occ",
				"energy": -0.338,
				"method": "rhf"
			},
			{
				"type": "occ",
				"energy": -0.26695,
				"method": "rhf"
			},
			{
				"type": "occ",
				"energy": -0.24151,
				"method": "rhf"
			},
			{
				"type": "occ",
				"energy": -0.22858,
				"method": "rhf"
			},
			{
				"type": "unocc",
				"energy": 0.05013,
				"method": "rhf"
			},
			{
				"type": "unocc",
				"energy": 0.08169,
				"method": "rhf"
			},
			{
				"type": "unocc",
				"energy": 0.09901,
				"method": "rhf"
			},
			{
				"type": "unocc",
				"energy": 0.11021,
				"method": "rhf"
			},
			{
				"type": "unocc",
				"energy": 0.12967,
				"method": "rhf"
			}
		],
		"cosmo_sigma_profile": { 
			"-0.025": 0.0,
			"-0.024": 0.0,
			"-0.023": 0.0,
			"-0.022": 0.0,
			"-0.021": 0.0,
			"-0.02": 0.0,
			"-0.019": 0.0,
			"-0.018": 0.0,
			"-0.017": 0.0,
			"-0.016": 0.0,
			"-0.015": 0.0,
			"-0.014": 0.0,
			"-0.013": 0.360963823308,
			"-0.012": 1.75198150978,
			"-0.011": 2.33100951605,
			"-0.01": 3.1336151793,
			"-0.009": 2.3316686974,
			"-0.008": 2.60366244563,
			"-0.007": 2.9074912296,
			"-0.006": 2.44236686162,
			"-0.005": 7.05016632066,
			"-0.004": 11.0315005745,
			"-0.003": 19.7045984377,
			"-0.002": 21.2190781521,
			"-0.001": 17.9698176064,
			"0.0": 17.0390470747,
			"0.001": 15.3824608712,
			"0.002": 9.31320605883,
			"0.003": 4.69383600849,
			"0.004": 2.77576333957,
			"0.005": 2.48856680546,
			"0.006": 2.65668616658,
			"0.007": 2.22455865768,
			"0.008": 1.60641423967,
			"0.009": 2.5132084427,
			"0.01": 1.9793877348,
			"0.011": 1.65381808791,
			"0.012": 2.18387855937,
			"0.013": 1.72917129047,
			"0.014": 2.71964273468,
			"0.015": 5.3618838479,
			"0.016": 0.755449968009,
			"0.017": 0.0,
			"0.018": 0.0,
			"0.019": 0.0,
			"0.02": 0.0,
			"0.021": 0.0,
			"0.022": 0.0,
			"0.023": 0.0,
			"0.024": 0.0,
			"0.025": 0.0
		}
	}
}
