{
	 "smiles": "CC(=O)NC1=C(N)C=C(C)C=C1", 
	 "Tm": 406.15, 
	 "num_atms": 24, 
	 "gaussian": { 
		 "optdone": 1, 
		 "sigma_profile": "yes", 
		 "theory": "DFT", 
		 "functional": "B3LYP", 
		 "basiset": "6-31G**", 
		 "properties": { 
			 "R2extent": 2863.8095, 
			 "electric_dipole_moment_norm": 4.19750278856, 
			 "electric_quadrupole_moment_norm": 16.5889910561, 
			 "total_energy": -534.948117996, 
			 "HOMO_LUMO_gap": 0.19593, 
			 "cosmo_polarized_energy": -14.49, 
			 "cosmo_cavitation_energy": 27.35, 
			 "cosmo_dispersion_energy": -20.13, 
			 "cosmo_repulsion_energy": 1.62, 
			 "cosmo_total_nonelectrostatic_energy": 8.84, 
			 "SMD_solvation_energy": 5.65 
		},
		"coords": [
			{
				"x": 1.3582208237,
				"y": 2.8697610821,
				"z": -3.7695269538,
				"element": "C" 
			},
			{
				"x": 1.0553269871,
				"y": 2.6268198798,
				"z": -2.2965439908,
				"element": "C" 
			},
			{
				"x": 1.3358445328,
				"y": 3.4556313642,
				"z": -1.4407402266,
				"element": "O" 
			},
			{
				"x": 0.458466816,
				"y": 1.4161977745,
				"z": -2.0332745113,
				"element": "N" 
			},
			{
				"x": 0.1448797497,
				"y": 0.845401771,
				"z": -0.7815361921,
				"element": "C" 
			},
			{
				"x": -0.6412013216,
				"y": -0.329157947,
				"z": -0.8111588319,
				"element": "C" 
			},
			{
				"x": -1.0811455758,
				"y": -0.8080345379,
				"z": -2.0785649735,
				"element": "N" 
			},
			{
				"x": -0.9174376036,
				"y": -0.9994211028,
				"z": 0.3800471239,
				"element": "C" 
			},
			{
				"x": -0.452805173,
				"y": -0.5272164073,
				"z": 1.6147679276,
				"element": "C" 
			},
			{
				"x": -0.7393746593,
				"y": -1.2880963775,
				"z": 2.8880112709,
				"element": "C" 
			},
			{
				"x": 0.2813435088,
				"y": 0.6625518066,
				"z": 1.6260337439,
				"element": "C" 
			},
			{
				"x": 0.5843832546,
				"y": 1.3462356421,
				"z": 0.4475902003,
				"element": "C" 
			},
			{
				"x": 0.8899703204,
				"y": 2.1486678837,
				"z": -4.4454907572,
				"element": "H" 
			},
			{
				"x": 2.442136479,
				"y": 2.8358523618,
				"z": -3.9183996858,
				"element": "H" 
			},
			{
				"x": 1.0251043318,
				"y": 3.8768977231,
				"z": -4.0302749202,
				"element": "H" 
			},
			{
				"x": 0.3198851096,
				"y": 0.7783910498,
				"z": -2.8074948683,
				"element": "H" 
			},
			{
				"x": -1.7472887541,
				"y": -0.1731871526,
				"z": -2.513124633,
				"element": "H" 
			},
			{
				"x": -1.517191364,
				"y": -1.7204263202,
				"z": -2.0031384013,
				"element": "H" 
			},
			{
				"x": -1.522496537,
				"y": -1.9039558707,
				"z": 0.3430231012,
				"element": "H" 
			},
			{
				"x": -1.7496870574,
				"y": -1.7108898421,
				"z": 2.8870715079,
				"element": "H" 
			},
			{
				"x": -0.6461963374,
				"y": -0.6427199634,
				"z": 3.7662255789,
				"element": "H" 
			},
			{
				"x": -0.0403655053,
				"y": -2.1237613715,
				"z": 3.0210193582,
				"element": "H" 
			},
			{
				"x": 0.6340224853,
				"y": 1.0651803611,
				"z": 2.5719499604,
				"element": "H" 
			},
			{
				"x": 1.1573054897,
				"y": 2.2629781931,
				"z": 0.4628291727,
				"element": "H" 
			}
		],
		 "valence_orbital": [ 
			{
				"type": "occ",
				"energy": -0.29844,
				"method": "rhf"
			},
			{
				"type": "occ",
				"energy": -0.28903,
				"method": "rhf"
			},
			{
				"type": "occ",
				"energy": -0.24384,
				"method": "rhf"
			},
			{
				"type": "occ",
				"energy": -0.22797,
				"method": "rhf"
			},
			{
				"type": "occ",
				"energy": -0.20052,
				"method": "rhf"
			},
			{
				"type": "unocc",
				"energy": -0.00459,
				"method": "rhf"
			},
			{
				"type": "unocc",
				"energy": 0.01134,
				"method": "rhf"
			},
			{
				"type": "unocc",
				"energy": 0.05186,
				"method": "rhf"
			},
			{
				"type": "unocc",
				"energy": 0.06826,
				"method": "rhf"
			},
			{
				"type": "unocc",
				"energy": 0.09749,
				"method": "rhf"
			}
		],
		"cosmo_sigma_profile": { 
			"-0.025": 0.0,
			"-0.024": 0.0,
			"-0.023": 0.0,
			"-0.022": 0.0,
			"-0.021": 0.0,
			"-0.02": 0.0,
			"-0.019": 0.0,
			"-0.018": 0.0,
			"-0.017": 0.0,
			"-0.016": 0.0,
			"-0.015": 0.0,
			"-0.014": 0.0,
			"-0.013": 0.00901189577352,
			"-0.012": 2.0331337822,
			"-0.011": 4.09397988131,
			"-0.01": 4.61413132587,
			"-0.009": 4.63227866973,
			"-0.008": 4.48636076058,
			"-0.007": 3.63762640113,
			"-0.006": 6.08496659389,
			"-0.005": 9.42118527142,
			"-0.004": 15.5097055867,
			"-0.003": 19.640054216,
			"-0.002": 18.3568018296,
			"-0.001": 19.0310435793,
			"0.0": 17.0664205382,
			"0.001": 11.0268597466,
			"0.002": 9.35740942793,
			"0.003": 10.9772157945,
			"0.004": 10.7714166869,
			"0.005": 10.0454907394,
			"0.006": 10.0787728293,
			"0.007": 5.85908634275,
			"0.008": 2.76447253904,
			"0.009": 1.92911355961,
			"0.01": 2.13601318361,
			"0.011": 2.15760438197,
			"0.012": 2.69928841184,
			"0.013": 3.78825036458,
			"0.014": 2.76533334892,
			"0.015": 0.879963710392,
			"0.016": 0.0,
			"0.017": 0.0,
			"0.018": 0.0,
			"0.019": 0.0,
			"0.02": 0.0,
			"0.021": 0.0,
			"0.022": 0.0,
			"0.023": 0.0,
			"0.024": 0.0,
			"0.025": 0.0
		}
	}
}
