{
	 "smiles": "COC(=O)CNC(=O)CC1=CC=C(N)C=C1", 
	 "Tm": 367.15, 
	 "num_atms": 30, 
	 "gaussian": { 
		 "optdone": 1, 
		 "sigma_profile": "yes", 
		 "theory": "DFT", 
		 "functional": "B3LYP", 
		 "basiset": "6-31G**", 
		 "properties": { 
			 "R2extent": 4871.6833, 
			 "electric_dipole_moment_norm": 5.84566874703, 
			 "electric_quadrupole_moment_norm": 22.4049729384, 
			 "total_energy": -762.810605136, 
			 "HOMO_LUMO_gap": 0.19809, 
			 "cosmo_polarized_energy": -19.79, 
			 "cosmo_cavitation_energy": 35.01, 
			 "cosmo_dispersion_energy": -23.87, 
			 "cosmo_repulsion_energy": 1.92, 
			 "cosmo_total_nonelectrostatic_energy": 13.06, 
			 "SMD_solvation_energy": 7.75 
		},
		"coords": [
			{
				"x": -2.391439523,
				"y": 3.627397532,
				"z": -1.4315383219,
				"element": "C" 
			},
			{
				"x": -1.23226211,
				"y": 2.8585062883,
				"z": -1.066537483,
				"element": "O" 
			},
			{
				"x": -0.1643766155,
				"y": 3.5864001924,
				"z": -0.6843539541,
				"element": "C" 
			},
			{
				"x": -0.1548664997,
				"y": 4.7958863682,
				"z": -0.6183745766,
				"element": "O" 
			},
			{
				"x": 1.0515484784,
				"y": 2.7278744841,
				"z": -0.3516940049,
				"element": "C" 
			},
			{
				"x": 0.8162756705,
				"y": 1.3116025975,
				"z": -0.2248747517,
				"element": "N" 
			},
			{
				"x": 1.2396070689,
				"y": 0.4323120196,
				"z": -1.1832824178,
				"element": "C" 
			},
			{
				"x": 1.9333315008,
				"y": 0.7658390543,
				"z": -2.1356567695,
				"element": "O" 
			},
			{
				"x": 0.808040116,
				"y": -1.0326670973,
				"z": -0.9980305413,
				"element": "C" 
			},
			{
				"x": 0.0048640211,
				"y": -1.3820252803,
				"z": 0.23317114,
				"element": "C" 
			},
			{
				"x": 0.6303195473,
				"y": -1.8004733631,
				"z": 1.4173358998,
				"element": "C" 
			},
			{
				"x": -0.1011299966,
				"y": -2.1095206486,
				"z": 2.5599390753,
				"element": "C" 
			},
			{
				"x": -1.5037876362,
				"y": -2.0094547518,
				"z": 2.5610708026,
				"element": "C" 
			},
			{
				"x": -2.2461747246,
				"y": -2.3768281695,
				"z": 3.6824367025,
				"element": "N" 
			},
			{
				"x": -2.1398035459,
				"y": -1.5875791425,
				"z": 1.3804888959,
				"element": "C" 
			},
			{
				"x": -1.3949307443,
				"y": -1.2838196617,
				"z": 0.2440755358,
				"element": "C" 
			},
			{
				"x": -2.7240429992,
				"y": 4.2440252611,
				"z": -0.5928582667,
				"element": "H" 
			},
			{
				"x": -3.155687972,
				"y": 2.8985095239,
				"z": -1.70064248,
				"element": "H" 
			},
			{
				"x": -2.1668169342,
				"y": 4.2788639659,
				"z": -2.2795141699,
				"element": "H" 
			},
			{
				"x": 1.4976139738,
				"y": 3.1495732857,
				"z": 0.5554463295,
				"element": "H" 
			},
			{
				"x": 1.7746098379,
				"y": 2.8556555889,
				"z": -1.1642507145,
				"element": "H" 
			},
			{
				"x": 0.1679720837,
				"y": 0.9751609966,
				"z": 0.4720950508,
				"element": "H" 
			},
			{
				"x": 0.2537542123,
				"y": -1.2879141416,
				"z": -1.9083811128,
				"element": "H" 
			},
			{
				"x": 1.7326391155,
				"y": -1.6181298885,
				"z": -1.0402339561,
				"element": "H" 
			},
			{
				"x": 1.713842051,
				"y": -1.8893426946,
				"z": 1.4449631612,
				"element": "H" 
			},
			{
				"x": 0.4127338655,
				"y": -2.4413328812,
				"z": 3.4589303188,
				"element": "H" 
			},
			{
				"x": -3.1707164863,
				"y": -1.9739822868,
				"z": 3.7440487007,
				"element": "H" 
			},
			{
				"x": -1.7531039792,
				"y": -2.3366124016,
				"z": 4.563437026,
				"element": "H" 
			},
			{
				"x": -3.2241765097,
				"y": -1.5112814397,
				"z": 1.354013308,
				"element": "H" 
			},
			{
				"x": -1.9137352662,
				"y": -0.9638433096,
				"z": -0.6566284261,
				"element": "H" 
			}
		],
		 "valence_orbital": [ 
			{
				"type": "occ",
				"energy": -0.28491,
				"method": "rhf"
			},
			{
				"type": "occ",
				"energy": -0.25706,
				"method": "rhf"
			},
			{
				"type": "occ",
				"energy": -0.24773,
				"method": "rhf"
			},
			{
				"type": "occ",
				"energy": -0.24479,
				"method": "rhf"
			},
			{
				"type": "occ",
				"energy": -0.20648,
				"method": "rhf"
			},
			{
				"type": "unocc",
				"energy": -0.00839,
				"method": "rhf"
			},
			{
				"type": "unocc",
				"energy": 0.0051,
				"method": "rhf"
			},
			{
				"type": "unocc",
				"energy": 0.01114,
				"method": "rhf"
			},
			{
				"type": "unocc",
				"energy": 0.03568,
				"method": "rhf"
			},
			{
				"type": "unocc",
				"energy": 0.07309,
				"method": "rhf"
			}
		],
		"cosmo_sigma_profile": { 
			"-0.025": 0.0,
			"-0.024": 0.0,
			"-0.023": 0.0,
			"-0.022": 0.0,
			"-0.021": 0.0,
			"-0.02": 0.0,
			"-0.019": 0.0,
			"-0.018": 0.0,
			"-0.017": 0.0,
			"-0.016": 0.0,
			"-0.015": 0.0,
			"-0.014": 0.0,
			"-0.013": 0.498579692213,
			"-0.012": 2.88048305735,
			"-0.011": 3.67066277444,
			"-0.01": 3.07111734166,
			"-0.009": 4.49684497303,
			"-0.008": 4.14562629591,
			"-0.007": 7.1776859566,
			"-0.006": 17.6904728974,
			"-0.005": 25.592030485,
			"-0.004": 25.6120434135,
			"-0.003": 23.2855899099,
			"-0.002": 16.9447313754,
			"-0.001": 15.1188851504,
			"0.0": 12.9079322389,
			"0.001": 11.3371716882,
			"0.002": 13.4521591348,
			"0.003": 12.3285040253,
			"0.004": 12.5202343941,
			"0.005": 12.0574651994,
			"0.006": 10.8613973528,
			"0.007": 5.76979175256,
			"0.008": 3.99951403884,
			"0.009": 3.49938968019,
			"0.01": 3.69758894542,
			"0.011": 6.22826824896,
			"0.012": 6.63861265382,
			"0.013": 4.90716874545,
			"0.014": 4.90186746471,
			"0.015": 1.2774932367,
			"0.016": 0.0,
			"0.017": 0.0,
			"0.018": 0.0,
			"0.019": 0.0,
			"0.02": 0.0,
			"0.021": 0.0,
			"0.022": 0.0,
			"0.023": 0.0,
			"0.024": 0.0,
			"0.025": 0.0
		}
	}
}
