{
	 "smiles": "NC1=C2C=CC=NC2=C(OC(F)F)C=C1", 
	 "Tm": 393.15, 
	 "num_atms": 23, 
	 "gaussian": { 
		 "optdone": 1, 
		 "sigma_profile": "yes", 
		 "theory": "DFT", 
		 "functional": "B3LYP", 
		 "basiset": "6-31G**", 
		 "properties": { 
			 "R2extent": 3416.1977, 
			 "electric_dipole_moment_norm": 5.8076287984, 
			 "electric_quadrupole_moment_norm": 12.6250488189, 
			 "total_energy": -770.288322527, 
			 "HOMO_LUMO_gap": 0.14871, 
			 "cosmo_polarized_energy": -13.31, 
			 "cosmo_cavitation_energy": 28.05, 
			 "cosmo_dispersion_energy": -20.48, 
			 "cosmo_repulsion_energy": 1.55, 
			 "cosmo_total_nonelectrostatic_energy": 9.13, 
			 "SMD_solvation_energy": 5.12 
		},
		"coords": [
			{
				"x": -0.4035192316,
				"y": 0.3760152731,
				"z": -2.9708636424,
				"element": "N" 
			},
			{
				"x": -0.2970880533,
				"y": -0.0516471403,
				"z": -1.6420374409,
				"element": "C" 
			},
			{
				"x": -0.1316259379,
				"y": 0.9152334378,
				"z": -0.594848801,
				"element": "C" 
			},
			{
				"x": -0.0617032641,
				"y": 2.3096280773,
				"z": -0.8342126454,
				"element": "C" 
			},
			{
				"x": 0.0680179329,
				"y": 3.1832881647,
				"z": 0.2215833891,
				"element": "C" 
			},
			{
				"x": 0.1413523456,
				"y": 2.6531256723,
				"z": 1.5298298841,
				"element": "C" 
			},
			{
				"x": 0.1109730068,
				"y": 1.3636234926,
				"z": 1.803385424,
				"element": "N" 
			},
			{
				"x": -0.0180970154,
				"y": 0.4847147565,
				"z": 0.7694022975,
				"element": "C" 
			},
			{
				"x": -0.0220067327,
				"y": -0.9132576253,
				"z": 1.0511689167,
				"element": "C" 
			},
			{
				"x": -0.0089785454,
				"y": -1.3860819118,
				"z": 2.3551843089,
				"element": "O" 
			},
			{
				"x": 1.1399042836,
				"y": -1.180804953,
				"z": 3.0908313064,
				"element": "C" 
			},
			{
				"x": 2.1620782798,
				"y": -1.9274400886,
				"z": 2.5788936989,
				"element": "F" 
			},
			{
				"x": 0.8762554606,
				"y": -1.6397150272,
				"z": 4.329521486,
				"element": "F" 
			},
			{
				"x": -0.1377573978,
				"y": -1.8211539677,
				"z": 0.0253639169,
				"element": "C" 
			},
			{
				"x": -0.2873430323,
				"y": -1.3966084537,
				"z": -1.3106597495,
				"element": "C" 
			},
			{
				"x": -0.6549427162,
				"y": -0.363358191,
				"z": -3.6140490706,
				"element": "H" 
			},
			{
				"x": -0.9958416404,
				"y": 1.1841310129,
				"z": -3.1120869078,
				"element": "H" 
			},
			{
				"x": -0.0820403884,
				"y": 2.6857899984,
				"z": -1.8524173465,
				"element": "H" 
			},
			{
				"x": 0.1283667216,
				"y": 4.2551140912,
				"z": 0.063638921,
				"element": "H" 
			},
			{
				"x": 0.2413872459,
				"y": 3.3249330263,
				"z": 2.3815293548,
				"element": "H" 
			},
			{
				"x": 1.4463777941,
				"y": -0.1337440853,
				"z": 3.1287946801,
				"element": "H" 
			},
			{
				"x": -0.1400830386,
				"y": -2.8784917576,
				"z": 0.2671926567,
				"element": "H" 
			},
			{
				"x": -0.4065860769,
				"y": -2.1423938017,
				"z": -2.0921446369,
				"element": "H" 
			}
		],
		 "valence_orbital": [ 
			{
				"type": "occ",
				"energy": -0.29916,
				"method": "rhf"
			},
			{
				"type": "occ",
				"energy": -0.29017,
				"method": "rhf"
			},
			{
				"type": "occ",
				"energy": -0.26338,
				"method": "rhf"
			},
			{
				"type": "occ",
				"energy": -0.25943,
				"method": "rhf"
			},
			{
				"type": "occ",
				"energy": -0.20594,
				"method": "rhf"
			},
			{
				"type": "unocc",
				"energy": -0.05723,
				"method": "rhf"
			},
			{
				"type": "unocc",
				"energy": -0.02447,
				"method": "rhf"
			},
			{
				"type": "unocc",
				"energy": 0.02699,
				"method": "rhf"
			},
			{
				"type": "unocc",
				"energy": 0.06312,
				"method": "rhf"
			},
			{
				"type": "unocc",
				"energy": 0.0849,
				"method": "rhf"
			}
		],
		"cosmo_sigma_profile": { 
			"-0.025": 0.0,
			"-0.024": 0.0,
			"-0.023": 0.0,
			"-0.022": 0.0,
			"-0.021": 0.0,
			"-0.02": 0.0,
			"-0.019": 0.0,
			"-0.018": 0.0,
			"-0.017": 0.0,
			"-0.016": 0.0,
			"-0.015": 0.0,
			"-0.014": 0.0772514179179,
			"-0.013": 1.44185998601,
			"-0.012": 3.59992382597,
			"-0.011": 2.7892401113,
			"-0.01": 3.52294663892,
			"-0.009": 3.24896672075,
			"-0.008": 4.45275268632,
			"-0.007": 9.04627541459,
			"-0.006": 11.3619070512,
			"-0.005": 12.2477774886,
			"-0.004": 11.2962055494,
			"-0.003": 8.07562476329,
			"-0.002": 8.18232458732,
			"-0.001": 10.4155810186,
			"0.0": 10.6867919995,
			"0.001": 16.2611510636,
			"0.002": 23.2421033569,
			"0.003": 23.5131499334,
			"0.004": 31.3368317262,
			"0.005": 10.1293209636,
			"0.006": 3.6971556087,
			"0.007": 3.51663901455,
			"0.008": 3.39937957195,
			"0.009": 4.02607497535,
			"0.01": 1.8712147939,
			"0.011": 1.57408280516,
			"0.012": 0.9870195651,
			"0.013": 0.687995740666,
			"0.014": 0.303126833247,
			"0.015": 0.0,
			"0.016": 0.0,
			"0.017": 0.0,
			"0.018": 0.0,
			"0.019": 0.0,
			"0.02": 0.0,
			"0.021": 0.0,
			"0.022": 0.0,
			"0.023": 0.0,
			"0.024": 0.0,
			"0.025": 0.0
		}
	}
}
