{
	 "smiles": "COC1=C(C#N)C(F)=CC(Br)=C1", 
	 "Tm": 349.15, 
	 "num_atms": 17, 
	 "gaussian": { 
		 "optdone": 1, 
		 "sigma_profile": "yes", 
		 "theory": "DFT", 
		 "functional": "B3LYP", 
		 "basiset": "6-31G**", 
		 "properties": { 
			 "R2extent": 3579.355, 
			 "electric_dipole_moment_norm": 5.10827479782, 
			 "electric_quadrupole_moment_norm": 24.3732213944, 
			 "total_energy": -3109.04372823, 
			 "HOMO_LUMO_gap": 0.19173, 
			 "cosmo_polarized_energy": -10.87, 
			 "cosmo_cavitation_energy": 25.67, 
			 "cosmo_dispersion_energy": -18.46, 
			 "cosmo_repulsion_energy": 1.46, 
			 "cosmo_total_nonelectrostatic_energy": 8.67, 
			 "SMD_solvation_energy": 5.92 
		},
		"coords": [
			{
				"x": -2.1697776525,
				"y": 1.8539276909,
				"z": -0.0524566422,
				"element": "C" 
			},
			{
				"x": -0.8159540484,
				"y": 2.2461221874,
				"z": 0.1602316011,
				"element": "O" 
			},
			{
				"x": 0.1495901057,
				"y": 1.3067441585,
				"z": 0.1276050815,
				"element": "C" 
			},
			{
				"x": 1.4678916981,
				"y": 1.7801339124,
				"z": 0.3486142919,
				"element": "C" 
			},
			{
				"x": 1.727056372,
				"y": 3.162151447,
				"z": 0.5869843635,
				"element": "C" 
			},
			{
				"x": 1.9481436146,
				"y": 4.28704213,
				"z": 0.7821724638,
				"element": "N" 
			},
			{
				"x": 2.5154107356,
				"y": 0.8524227186,
				"z": 0.3271130307,
				"element": "C" 
			},
			{
				"x": 3.7603116145,
				"y": 1.2966490738,
				"z": 0.5354206102,
				"element": "F" 
			},
			{
				"x": 2.3180638981,
				"y": -0.5031349984,
				"z": 0.0998064913,
				"element": "C" 
			},
			{
				"x": 1.0107486265,
				"y": -0.9299154953,
				"z": -0.1129394601,
				"element": "C" 
			},
			{
				"x": 0.6886309882,
				"y": -2.7799365823,
				"z": -0.4293021343,
				"element": "Br" 
			},
			{
				"x": -0.0758784209,
				"y": -0.0547328105,
				"z": -0.1038158895,
				"element": "C" 
			},
			{
				"x": -2.7542585019,
				"y": 2.7707761248,
				"z": 0.0197986377,
				"element": "H" 
			},
			{
				"x": -2.304207572,
				"y": 1.4117390421,
				"z": -1.0463851903,
				"element": "H" 
			},
			{
				"x": -2.5037935359,
				"y": 1.1457206964,
				"z": 0.7146012093,
				"element": "H" 
			},
			{
				"x": 3.1596397861,
				"y": -1.1827771749,
				"z": 0.092461034,
				"element": "H" 
			},
			{
				"x": -1.0725177079,
				"y": -0.4359321206,
				"z": -0.2745094987,
				"element": "H" 
			}
		],
		 "valence_orbital": [ 
			{
				"type": "occ",
				"energy": -0.33183,
				"method": "rhf"
			},
			{
				"type": "occ",
				"energy": -0.31039,
				"method": "rhf"
			},
			{
				"type": "occ",
				"energy": -0.30819,
				"method": "rhf"
			},
			{
				"type": "occ",
				"energy": -0.26715,
				"method": "rhf"
			},
			{
				"type": "occ",
				"energy": -0.25331,
				"method": "rhf"
			},
			{
				"type": "unocc",
				"energy": -0.06158,
				"method": "rhf"
			},
			{
				"type": "unocc",
				"energy": -0.02243,
				"method": "rhf"
			},
			{
				"type": "unocc",
				"energy": -0.01743,
				"method": "rhf"
			},
			{
				"type": "unocc",
				"energy": 0.0295,
				"method": "rhf"
			},
			{
				"type": "unocc",
				"energy": 0.06412,
				"method": "rhf"
			}
		],
		"cosmo_sigma_profile": { 
			"-0.025": 0.0,
			"-0.024": 0.0,
			"-0.023": 0.0,
			"-0.022": 0.0,
			"-0.021": 0.0,
			"-0.02": 0.0,
			"-0.019": 0.0,
			"-0.018": 0.0,
			"-0.017": 0.0,
			"-0.016": 0.0,
			"-0.015": 0.0,
			"-0.014": 0.0,
			"-0.013": 0.0,
			"-0.012": 0.0,
			"-0.011": 0.0,
			"-0.01": 0.0499510269529,
			"-0.009": 2.19340397455,
			"-0.008": 4.65668600299,
			"-0.007": 8.09895437072,
			"-0.006": 11.8948426967,
			"-0.005": 11.671849392,
			"-0.004": 12.8128253179,
			"-0.003": 12.2428288532,
			"-0.002": 20.3687737889,
			"-0.001": 17.9488217572,
			"0.0": 20.3320028259,
			"0.001": 13.687533652,
			"0.002": 16.0768346582,
			"0.003": 20.4268723429,
			"0.004": 7.88615055533,
			"0.005": 3.82782198513,
			"0.006": 5.11414217881,
			"0.007": 5.15892163305,
			"0.008": 4.46834899494,
			"0.009": 3.19928534633,
			"0.01": 2.97177002759,
			"0.011": 2.67170407572,
			"0.012": 2.40617048911,
			"0.013": 0.805635115729,
			"0.014": 0.0,
			"0.015": 0.0,
			"0.016": 0.0,
			"0.017": 0.0,
			"0.018": 0.0,
			"0.019": 0.0,
			"0.02": 0.0,
			"0.021": 0.0,
			"0.022": 0.0,
			"0.023": 0.0,
			"0.024": 0.0,
			"0.025": 0.0
		}
	}
}
