{
	 "smiles": "ClCCC1=CC=C(C=C1)S(Cl)(=O)=O", 
	 "Tm": 327.15, 
	 "num_atms": 21, 
	 "gaussian": { 
		 "optdone": 1, 
		 "sigma_profile": "yes", 
		 "theory": "DFT", 
		 "functional": "B3LYP", 
		 "basiset": "6-31G**", 
		 "properties": { 
			 "R2extent": 6273.5997, 
			 "electric_dipole_moment_norm": 6.29704006181, 
			 "electric_quadrupole_moment_norm": 16.8646119238, 
			 "total_energy": -1778.63395384, 
			 "HOMO_LUMO_gap": 0.19487, 
			 "cosmo_polarized_energy": -12.68, 
			 "cosmo_cavitation_energy": 30.39, 
			 "cosmo_dispersion_energy": -22.29, 
			 "cosmo_repulsion_energy": 1.75, 
			 "cosmo_total_nonelectrostatic_energy": 9.84, 
			 "SMD_solvation_energy": 3.35 
		},
		"coords": [
			{
				"x": -3.040853308,
				"y": 1.7073687746,
				"z": 0.2757255807,
				"element": "Cl" 
			},
			{
				"x": -2.1226535021,
				"y": 1.0234743786,
				"z": -1.1329345244,
				"element": "C" 
			},
			{
				"x": -0.6064364638,
				"y": 1.1847619879,
				"z": -0.9808914725,
				"element": "C" 
			},
			{
				"x": 0.0010318927,
				"y": 0.3554269021,
				"z": 0.1291147112,
				"element": "C" 
			},
			{
				"x": 0.3301965155,
				"y": -0.9900613461,
				"z": -0.0949382347,
				"element": "C" 
			},
			{
				"x": 0.8711022036,
				"y": -1.7771599991,
				"z": 0.9179848636,
				"element": "C" 
			},
			{
				"x": 1.0836421572,
				"y": -1.193755734,
				"z": 2.1674891959,
				"element": "C" 
			},
			{
				"x": 0.7723536147,
				"y": 0.1409855418,
				"z": 2.426096593,
				"element": "C" 
			},
			{
				"x": 0.2319213745,
				"y": 0.9083249918,
				"z": 1.3966600807,
				"element": "C" 
			},
			{
				"x": 1.8050837588,
				"y": -2.1812203914,
				"z": 3.4677907489,
				"element": "S" 
			},
			{
				"x": 0.0629619115,
				"y": -3.0005557077,
				"z": 4.3930355446,
				"element": "Cl" 
			},
			{
				"x": 2.5172417246,
				"y": -3.3094098215,
				"z": 2.8802251747,
				"element": "O" 
			},
			{
				"x": 2.4153055977,
				"y": -1.3055457801,
				"z": 4.4604188207,
				"element": "O" 
			},
			{
				"x": -2.4101662772,
				"y": -0.0266931218,
				"z": -1.2061600849,
				"element": "H" 
			},
			{
				"x": -2.4799207857,
				"y": 1.5561869118,
				"z": -2.0153370319,
				"element": "H" 
			},
			{
				"x": -0.3739873625,
				"y": 2.2443704594,
				"z": -0.8370707567,
				"element": "H" 
			},
			{
				"x": -0.1648965328,
				"y": 0.8881659245,
				"z": -1.9412469355,
				"element": "H" 
			},
			{
				"x": 0.1715673777,
				"y": -1.4267011194,
				"z": -1.07749506,
				"element": "H" 
			},
			{
				"x": 1.1387056665,
				"y": -2.8133693071,
				"z": 0.7449428692,
				"element": "H" 
			},
			{
				"x": 0.9604516975,
				"y": 0.566970791,
				"z": 3.4051031186,
				"element": "H" 
			},
			{
				"x": -0.0141512603,
				"y": 1.9493356646,
				"z": 1.5799867985,
				"element": "H" 
			}
		],
		 "valence_orbital": [ 
			{
				"type": "occ",
				"energy": -0.31177,
				"method": "rhf"
			},
			{
				"type": "occ",
				"energy": -0.31146,
				"method": "rhf"
			},
			{
				"type": "occ",
				"energy": -0.30867,
				"method": "rhf"
			},
			{
				"type": "occ",
				"energy": -0.28745,
				"method": "rhf"
			},
			{
				"type": "occ",
				"energy": -0.28414,
				"method": "rhf"
			},
			{
				"type": "unocc",
				"energy": -0.08927,
				"method": "rhf"
			},
			{
				"type": "unocc",
				"energy": -0.04453,
				"method": "rhf"
			},
			{
				"type": "unocc",
				"energy": -0.03876,
				"method": "rhf"
			},
			{
				"type": "unocc",
				"energy": 0.01288,
				"method": "rhf"
			},
			{
				"type": "unocc",
				"energy": 0.04677,
				"method": "rhf"
			}
		],
		"cosmo_sigma_profile": { 
			"-0.025": 0.0,
			"-0.024": 0.0,
			"-0.023": 0.0,
			"-0.022": 0.0,
			"-0.021": 0.0,
			"-0.02": 0.0,
			"-0.019": 0.0,
			"-0.018": 0.0,
			"-0.017": 0.0,
			"-0.016": 0.0,
			"-0.015": 0.0,
			"-0.014": 0.0,
			"-0.013": 0.0,
			"-0.012": 0.0,
			"-0.011": 0.0,
			"-0.01": 0.0,
			"-0.009": 0.322486487983,
			"-0.008": 4.70193134238,
			"-0.007": 15.8200785157,
			"-0.006": 20.1481669883,
			"-0.005": 16.8330962705,
			"-0.004": 13.1477317293,
			"-0.003": 12.8597643773,
			"-0.002": 13.4306463785,
			"-0.001": 13.2107070985,
			"0.0": 16.6662420489,
			"0.001": 21.8321056277,
			"0.002": 18.7367690369,
			"0.003": 17.5386677556,
			"0.004": 16.8784501583,
			"0.005": 9.50951641763,
			"0.006": 10.880910813,
			"0.007": 9.44282307837,
			"0.008": 9.81194333785,
			"0.009": 5.38917339706,
			"0.01": 0.0884632751951,
			"0.011": 0.0,
			"0.012": 0.0,
			"0.013": 0.0,
			"0.014": 0.0,
			"0.015": 0.0,
			"0.016": 0.0,
			"0.017": 0.0,
			"0.018": 0.0,
			"0.019": 0.0,
			"0.02": 0.0,
			"0.021": 0.0,
			"0.022": 0.0,
			"0.023": 0.0,
			"0.024": 0.0,
			"0.025": 0.0
		}
	}
}
