{
	 "smiles": "CC(=O)NC1=CC=C(OC(F)(F)F)C=C1", 
	 "Tm": 389.15, 
	 "num_atms": 23, 
	 "gaussian": { 
		 "optdone": 1, 
		 "sigma_profile": "yes", 
		 "theory": "DFT", 
		 "functional": "B3LYP", 
		 "basiset": "6-31G**", 
		 "properties": { 
			 "R2extent": 4688.6688, 
			 "electric_dipole_moment_norm": 1.21452553287, 
			 "electric_quadrupole_moment_norm": 23.9422818986, 
			 "total_energy": -852.515626057, 
			 "HOMO_LUMO_gap": 0.20379, 
			 "cosmo_polarized_energy": -11.44, 
			 "cosmo_cavitation_energy": 29.2, 
			 "cosmo_dispersion_energy": -20.81, 
			 "cosmo_repulsion_energy": 1.58, 
			 "cosmo_total_nonelectrostatic_energy": 9.97, 
			 "SMD_solvation_energy": 7.43 
		},
		"coords": [
			{
				"x": -3.7141884704,
				"y": -0.4283091587,
				"z": -1.0882149498,
				"element": "C" 
			},
			{
				"x": -3.6270280283,
				"y": -0.1666042287,
				"z": 0.4032721436,
				"element": "C" 
			},
			{
				"x": -4.6083970947,
				"y": -0.2191861983,
				"z": 1.1291207353,
				"element": "O" 
			},
			{
				"x": -2.3894663636,
				"y": 0.1269596987,
				"z": 0.958415522,
				"element": "N" 
			},
			{
				"x": -1.1023773557,
				"y": 0.2249524487,
				"z": 0.3867516643,
				"element": "C" 
			},
			{
				"x": -0.0115600946,
				"y": -0.3106839987,
				"z": 1.0880382112,
				"element": "C" 
			},
			{
				"x": 1.2875745962,
				"y": -0.2018374222,
				"z": 0.5983186088,
				"element": "C" 
			},
			{
				"x": 1.4952190538,
				"y": 0.423683822,
				"z": -0.630628057,
				"element": "C" 
			},
			{
				"x": 2.7583748705,
				"y": 0.6151888407,
				"z": -1.2026185513,
				"element": "O" 
			},
			{
				"x": 3.7154053164,
				"y": -0.335549652,
				"z": -1.0721253032,
				"element": "C" 
			},
			{
				"x": 3.2631278267,
				"y": -1.5669104308,
				"z": -1.3655919298,
				"element": "F" 
			},
			{
				"x": 4.7057931203,
				"y": -0.0260107695,
				"z": -1.9071383992,
				"element": "F" 
			},
			{
				"x": 4.2270729802,
				"y": -0.3874459082,
				"z": 0.1791512756,
				"element": "F" 
			},
			{
				"x": 0.4289676674,
				"y": 0.9665222735,
				"z": -1.3417842727,
				"element": "C" 
			},
			{
				"x": -0.861956054,
				"y": 0.8884332754,
				"z": -0.8256344537,
				"element": "C" 
			},
			{
				"x": -4.5891852829,
				"y": -1.057547791,
				"z": -1.2543056204,
				"element": "H" 
			},
			{
				"x": -3.870857701,
				"y": 0.5110844721,
				"z": -1.6291725839,
				"element": "H" 
			},
			{
				"x": -2.8216619082,
				"y": -0.9104472937,
				"z": -1.4928608631,
				"element": "H" 
			},
			{
				"x": -2.4417637484,
				"y": 0.1632017882,
				"z": 1.9694260287,
				"element": "H" 
			},
			{
				"x": -0.1837793414,
				"y": -0.8211701785,
				"z": 2.0312475854,
				"element": "H" 
			},
			{
				"x": 2.117629937,
				"y": -0.6055354928,
				"z": 1.1635456452,
				"element": "H" 
			},
			{
				"x": 0.6232556113,
				"y": 1.4680644753,
				"z": -2.2835670525,
				"element": "H" 
			},
			{
				"x": -1.6777995367,
				"y": 1.3586474284,
				"z": -1.3609453836,
				"element": "H" 
			}
		],
		 "valence_orbital": [ 
			{
				"type": "occ",
				"energy": -0.35234,
				"method": "rhf"
			},
			{
				"type": "occ",
				"energy": -0.29925,
				"method": "rhf"
			},
			{
				"type": "occ",
				"energy": -0.2773,
				"method": "rhf"
			},
			{
				"type": "occ",
				"energy": -0.25809,
				"method": "rhf"
			},
			{
				"type": "occ",
				"energy": -0.23253,
				"method": "rhf"
			},
			{
				"type": "unocc",
				"energy": -0.02874,
				"method": "rhf"
			},
			{
				"type": "unocc",
				"energy": -0.0246,
				"method": "rhf"
			},
			{
				"type": "unocc",
				"energy": 0.02636,
				"method": "rhf"
			},
			{
				"type": "unocc",
				"energy": 0.06888,
				"method": "rhf"
			},
			{
				"type": "unocc",
				"energy": 0.09244,
				"method": "rhf"
			}
		],
		"cosmo_sigma_profile": { 
			"-0.025": 0.0,
			"-0.024": 0.0,
			"-0.023": 0.0,
			"-0.022": 0.0,
			"-0.021": 0.0,
			"-0.02": 0.0,
			"-0.019": 0.0,
			"-0.018": 0.0,
			"-0.017": 0.0,
			"-0.016": 0.0,
			"-0.015": 0.0777593690968,
			"-0.014": 0.909270562188,
			"-0.013": 0.834755023054,
			"-0.012": 1.28208784512,
			"-0.011": 1.27150639178,
			"-0.01": 0.914595281281,
			"-0.009": 1.4477684327,
			"-0.008": 4.48702426747,
			"-0.007": 8.57072463822,
			"-0.006": 10.45577935,
			"-0.005": 10.7477008538,
			"-0.004": 11.969292097,
			"-0.003": 13.3849048129,
			"-0.002": 16.5852852417,
			"-0.001": 17.292067731,
			"0.0": 19.651323067,
			"0.001": 26.8785702664,
			"0.002": 41.4761785226,
			"0.003": 17.2970933654,
			"0.004": 4.04198418539,
			"0.005": 2.81883490175,
			"0.006": 2.03702876372,
			"0.007": 2.01767580217,
			"0.008": 1.73292947333,
			"0.009": 0.431814847732,
			"0.01": 1.51633555795,
			"0.011": 1.99672533992,
			"0.012": 1.78458938117,
			"0.013": 5.55889371472,
			"0.014": 3.53906324621,
			"0.015": 0.472774451168,
			"0.016": 0.0,
			"0.017": 0.0,
			"0.018": 0.0,
			"0.019": 0.0,
			"0.02": 0.0,
			"0.021": 0.0,
			"0.022": 0.0,
			"0.023": 0.0,
			"0.024": 0.0,
			"0.025": 0.0
		}
	}
}
