{
	 "smiles": "OC(=O)C1=C(SC2=CC=CC=C2)N=CC=N1", 
	 "Tm": 428.15, 
	 "num_atms": 24, 
	 "gaussian": { 
		 "optdone": 1, 
		 "sigma_profile": "yes", 
		 "theory": "DFT", 
		 "functional": "B3LYP", 
		 "basiset": "6-31G**", 
		 "properties": { 
			 "R2extent": 4664.8936, 
			 "electric_dipole_moment_norm": 3.89972044767, 
			 "electric_quadrupole_moment_norm": 20.1411000124, 
			 "total_energy": -1082.11516977, 
			 "HOMO_LUMO_gap": 0.14536, 
			 "cosmo_polarized_energy": -14.92, 
			 "cosmo_cavitation_energy": 30.5, 
			 "cosmo_dispersion_energy": -22.26, 
			 "cosmo_repulsion_energy": 1.69, 
			 "cosmo_total_nonelectrostatic_energy": 9.94, 
			 "SMD_solvation_energy": 3.77 
		},
		"coords": [
			{
				"x": 1.1376387908,
				"y": 0.6752992411,
				"z": 1.3703381071,
				"element": "O" 
			},
			{
				"x": -0.133440437,
				"y": 0.936430418,
				"z": 1.0245639922,
				"element": "C" 
			},
			{
				"x": -0.4806487063,
				"y": 2.0067745198,
				"z": 0.5841744187,
				"element": "O" 
			},
			{
				"x": -1.0746370152,
				"y": -0.2158332155,
				"z": 1.3047329137,
				"element": "C" 
			},
			{
				"x": -2.4450717649,
				"y": -0.2808660603,
				"z": 0.9480257736,
				"element": "C" 
			},
			{
				"x": -3.322180415,
				"y": 0.7844512635,
				"z": -0.1795500931,
				"element": "S" 
			},
			{
				"x": -2.2201499791,
				"y": 0.954503763,
				"z": -1.5862455983,
				"element": "C" 
			},
			{
				"x": -1.8638197514,
				"y": 2.2345495953,
				"z": -2.0232489086,
				"element": "C" 
			},
			{
				"x": -1.1087525469,
				"y": 2.381834685,
				"z": -3.1871932475,
				"element": "C" 
			},
			{
				"x": -0.6891710744,
				"y": 1.2583885282,
				"z": -3.9015500485,
				"element": "C" 
			},
			{
				"x": -1.0392426285,
				"y": -0.0192340605,
				"z": -3.4588181815,
				"element": "C" 
			},
			{
				"x": -1.8176611827,
				"y": -0.174447697,
				"z": -2.3116996773,
				"element": "C" 
			},
			{
				"x": -3.2339327877,
				"y": -1.2125262185,
				"z": 1.5062838302,
				"element": "N" 
			},
			{
				"x": -2.6802041874,
				"y": -2.1184772528,
				"z": 2.3085284561,
				"element": "C" 
			},
			{
				"x": -1.3012748992,
				"y": -2.1539917258,
				"z": 2.5318361032,
				"element": "C" 
			},
			{
				"x": -0.5230032614,
				"y": -1.1883141589,
				"z": 2.0481172409,
				"element": "N" 
			},
			{
				"x": 1.1389285917,
				"y": -0.2161415305,
				"z": 1.7762956746,
				"element": "H" 
			},
			{
				"x": -2.1578113698,
				"y": 3.1010503449,
				"z": -1.4423784577,
				"element": "H" 
			},
			{
				"x": -0.8330139096,
				"y": 3.3766751938,
				"z": -3.5241750573,
				"element": "H" 
			},
			{
				"x": -0.0925583779,
				"y": 1.3771769615,
				"z": -4.8012541884,
				"element": "H" 
			},
			{
				"x": -0.7219385561,
				"y": -0.8962968291,
				"z": -4.0155805117,
				"element": "H" 
			},
			{
				"x": -2.1202476468,
				"y": -1.1649055978,
				"z": -1.9859085191,
				"element": "H" 
			},
			{
				"x": -3.3462371578,
				"y": -2.8438521235,
				"z": 2.7704032126,
				"element": "H" 
			},
			{
				"x": -0.8308697274,
				"y": -2.9389480439,
				"z": 3.1174027661,
				"element": "H" 
			}
		],
		 "valence_orbital": [ 
			{
				"type": "occ",
				"energy": -0.29349,
				"method": "rhf"
			},
			{
				"type": "occ",
				"energy": -0.26921,
				"method": "rhf"
			},
			{
				"type": "occ",
				"energy": -0.26338,
				"method": "rhf"
			},
			{
				"type": "occ",
				"energy": -0.2542,
				"method": "rhf"
			},
			{
				"type": "occ",
				"energy": -0.23001,
				"method": "rhf"
			},
			{
				"type": "unocc",
				"energy": -0.08465,
				"method": "rhf"
			},
			{
				"type": "unocc",
				"energy": -0.06582,
				"method": "rhf"
			},
			{
				"type": "unocc",
				"energy": -0.02006,
				"method": "rhf"
			},
			{
				"type": "unocc",
				"energy": -0.00589,
				"method": "rhf"
			},
			{
				"type": "unocc",
				"energy": 0.03455,
				"method": "rhf"
			}
		],
		"cosmo_sigma_profile": { 
			"-0.025": 0.0,
			"-0.024": 0.0,
			"-0.023": 0.0,
			"-0.022": 0.0,
			"-0.021": 0.0,
			"-0.02": 0.0,
			"-0.019": 0.0,
			"-0.018": 0.0,
			"-0.017": 0.0,
			"-0.016": 0.0,
			"-0.015": 0.0,
			"-0.014": 0.0,
			"-0.013": 0.24243024376,
			"-0.012": 0.909083314642,
			"-0.011": 0.441908016842,
			"-0.01": 0.566753015837,
			"-0.009": 6.11767687259,
			"-0.008": 5.90634599463,
			"-0.007": 6.35732602951,
			"-0.006": 14.5515114006,
			"-0.005": 19.0842501382,
			"-0.004": 20.0478415367,
			"-0.003": 19.8140297318,
			"-0.002": 19.8973765045,
			"-0.001": 13.4666387864,
			"0.0": 12.866366039,
			"0.001": 13.4444543356,
			"0.002": 15.0043737073,
			"0.003": 14.7075683407,
			"0.004": 15.8330378626,
			"0.005": 10.5187191236,
			"0.006": 4.41650963296,
			"0.007": 5.92918613758,
			"0.008": 6.07996189464,
			"0.009": 5.94031372407,
			"0.01": 7.07443906321,
			"0.011": 4.24000365459,
			"0.012": 3.04683619341,
			"0.013": 1.36422834072,
			"0.014": 0.0288582811,
			"0.015": 0.0,
			"0.016": 0.0,
			"0.017": 0.0,
			"0.018": 0.0,
			"0.019": 0.0,
			"0.02": 0.0,
			"0.021": 0.0,
			"0.022": 0.0,
			"0.023": 0.0,
			"0.024": 0.0,
			"0.025": 0.0
		}
	}
}
