{
	 "smiles": "CCC1=CC(=O)OC2=C1C=CC(O)=C2", 
	 "Tm": 450.15, 
	 "num_atms": 24, 
	 "gaussian": { 
		 "optdone": 1, 
		 "sigma_profile": "yes", 
		 "theory": "DFT", 
		 "functional": "B3LYP", 
		 "basiset": "6-31G**", 
		 "properties": { 
			 "R2extent": 3491.148, 
			 "electric_dipole_moment_norm": 6.72981808744, 
			 "electric_quadrupole_moment_norm": 19.902060982, 
			 "total_energy": -650.879666756, 
			 "HOMO_LUMO_gap": 0.16533, 
			 "cosmo_polarized_energy": -16.43, 
			 "cosmo_cavitation_energy": 27.91, 
			 "cosmo_dispersion_energy": -20.56, 
			 "cosmo_repulsion_energy": 1.61, 
			 "cosmo_total_nonelectrostatic_energy": 8.96, 
			 "SMD_solvation_energy": 6.26 
		},
		"coords": [
			{
				"x": 2.0886595193,
				"y": -1.3256881307,
				"z": 0.1656097484,
				"element": "C" 
			},
			{
				"x": 0.8140045586,
				"y": -1.769640728,
				"z": -0.5788024297,
				"element": "C" 
			},
			{
				"x": -0.4563617918,
				"y": -1.2997732934,
				"z": 0.0928308325,
				"element": "C" 
			},
			{
				"x": -1.1775929172,
				"y": -2.1480103391,
				"z": 0.8722549361,
				"element": "C" 
			},
			{
				"x": -2.3805502278,
				"y": -1.7512964539,
				"z": 1.5849809668,
				"element": "C" 
			},
			{
				"x": -3.0588950135,
				"y": -2.4547440443,
				"z": 2.2968349888,
				"element": "O" 
			},
			{
				"x": -2.7760667088,
				"y": -0.4203662829,
				"z": 1.4231439332,
				"element": "O" 
			},
			{
				"x": -2.0883460865,
				"y": 0.4551847098,
				"z": 0.6394912015,
				"element": "C" 
			},
			{
				"x": -0.9162527326,
				"y": 0.0711319655,
				"z": -0.0520599452,
				"element": "C" 
			},
			{
				"x": -0.287285911,
				"y": 1.0519366735,
				"z": -0.8429547641,
				"element": "C" 
			},
			{
				"x": -0.7879429282,
				"y": 2.3409878346,
				"z": -0.9378791906,
				"element": "C" 
			},
			{
				"x": -1.953567786,
				"y": 2.6902699811,
				"z": -0.2324932582,
				"element": "C" 
			},
			{
				"x": -2.4917174734,
				"y": 3.9378972148,
				"z": -0.285599954,
				"element": "O" 
			},
			{
				"x": -2.6064946133,
				"y": 1.7452779782,
				"z": 0.5571114045,
				"element": "C" 
			},
			{
				"x": 2.1569119281,
				"y": -0.2364370898,
				"z": 0.2380076248,
				"element": "H" 
			},
			{
				"x": 2.9803278083,
				"y": -1.6885960966,
				"z": -0.354760472,
				"element": "H" 
			},
			{
				"x": 2.1006202514,
				"y": -1.727589717,
				"z": 1.1830370566,
				"element": "H" 
			},
			{
				"x": 0.7944429483,
				"y": -2.862516313,
				"z": -0.63589239,
				"element": "H" 
			},
			{
				"x": 0.8447116569,
				"y": -1.406168808,
				"z": -1.6127567026,
				"element": "H" 
			},
			{
				"x": -0.8848981463,
				"y": -3.1830366761,
				"z": 1.0092690939,
				"element": "H" 
			},
			{
				"x": 0.6108780339,
				"y": 0.7975062901,
				"z": -1.3949448499,
				"element": "H" 
			},
			{
				"x": -0.2840327549,
				"y": 3.080166557,
				"z": -1.5557303609,
				"element": "H" 
			},
			{
				"x": -1.9538050916,
				"y": 4.4963671867,
				"z": -0.8619827186,
				"element": "H" 
			},
			{
				"x": -3.507046522,
				"y": 2.0054375816,
				"z": 1.1000852487,
				"element": "H" 
			}
		],
		 "valence_orbital": [ 
			{
				"type": "occ",
				"energy": -0.3352,
				"method": "rhf"
			},
			{
				"type": "occ",
				"energy": -0.28927,
				"method": "rhf"
			},
			{
				"type": "occ",
				"energy": -0.26537,
				"method": "rhf"
			},
			{
				"type": "occ",
				"energy": -0.25064,
				"method": "rhf"
			},
			{
				"type": "occ",
				"energy": -0.22342,
				"method": "rhf"
			},
			{
				"type": "unocc",
				"energy": -0.05809,
				"method": "rhf"
			},
			{
				"type": "unocc",
				"energy": -0.01296,
				"method": "rhf"
			},
			{
				"type": "unocc",
				"energy": 0.0104,
				"method": "rhf"
			},
			{
				"type": "unocc",
				"energy": 0.0565,
				"method": "rhf"
			},
			{
				"type": "unocc",
				"energy": 0.07614,
				"method": "rhf"
			}
		],
		"cosmo_sigma_profile": { 
			"-0.025": 0.0,
			"-0.024": 0.0,
			"-0.023": 0.0,
			"-0.022": 0.0,
			"-0.021": 0.0,
			"-0.02": 0.0,
			"-0.019": 0.0947731315623,
			"-0.018": 1.17126737854,
			"-0.017": 1.02805893663,
			"-0.016": 1.39468127426,
			"-0.015": 1.36583730546,
			"-0.014": 0.47705326297,
			"-0.013": 0.538161942766,
			"-0.012": 0.520218302785,
			"-0.011": 2.08450824184,
			"-0.01": 1.52147127208,
			"-0.009": 0.698627861856,
			"-0.008": 1.55736576752,
			"-0.007": 5.74662137589,
			"-0.006": 9.81644163163,
			"-0.005": 10.804357973,
			"-0.004": 11.9245895899,
			"-0.003": 18.1180299022,
			"-0.002": 19.322408685,
			"-0.001": 19.3045607083,
			"0.0": 21.9190529929,
			"0.001": 18.833213219,
			"0.002": 18.4509203903,
			"0.003": 12.2959783846,
			"0.004": 6.43990251421,
			"0.005": 2.82074257999,
			"0.006": 3.28906590979,
			"0.007": 3.55737932301,
			"0.008": 3.82101373145,
			"0.009": 3.99276497025,
			"0.01": 4.17932438028,
			"0.011": 4.01348874041,
			"0.012": 5.81234250933,
			"0.013": 4.73696059545,
			"0.014": 0.586442279992,
			"0.015": 0.0,
			"0.016": 0.0,
			"0.017": 0.0,
			"0.018": 0.0,
			"0.019": 0.0,
			"0.02": 0.0,
			"0.021": 0.0,
			"0.022": 0.0,
			"0.023": 0.0,
			"0.024": 0.0,
			"0.025": 0.0
		}
	}
}
