{
	 "smiles": "FC(F)(F)C1=CC2=C(SC(=N2)C2CCNCC2)C=C1", 
	 "Tm": 345.15, 
	 "num_atms": 32, 
	 "gaussian": { 
		 "optdone": 1, 
		 "sigma_profile": "yes", 
		 "theory": "DFT", 
		 "functional": "B3LYP", 
		 "basiset": "6-31G**", 
		 "properties": { 
			 "R2extent": 8598.2047, 
			 "electric_dipole_moment_norm": 3.89561138462, 
			 "electric_quadrupole_moment_norm": 12.9395276769, 
			 "total_energy": -1310.43975131, 
			 "HOMO_LUMO_gap": 0.16874, 
			 "cosmo_polarized_energy": -9.2, 
			 "cosmo_cavitation_energy": 37.23, 
			 "cosmo_dispersion_energy": -27.11, 
			 "cosmo_repulsion_energy": 1.97, 
			 "cosmo_total_nonelectrostatic_energy": 12.09, 
			 "SMD_solvation_energy": 2.44 
		},
		"coords": [
			{
				"x": 2.2285146491,
				"y": 4.7938482711,
				"z": -3.9274031257,
				"element": "F" 
			},
			{
				"x": 1.3122653471,
				"y": 4.5713476783,
				"z": -2.956483383,
				"element": "C" 
			},
			{
				"x": 1.413259621,
				"y": 5.6053587771,
				"z": -2.088047134,
				"element": "F" 
			},
			{
				"x": 0.0907431274,
				"y": 4.6490824108,
				"z": -3.5256239431,
				"element": "F" 
			},
			{
				"x": 1.5406190744,
				"y": 3.2503936063,
				"z": -2.2733337826,
				"element": "C" 
			},
			{
				"x": 0.4658724818,
				"y": 2.4220904218,
				"z": -1.9712521842,
				"element": "C" 
			},
			{
				"x": 0.7101967944,
				"y": 1.2195121892,
				"z": -1.2963547559,
				"element": "C" 
			},
			{
				"x": 2.0351351106,
				"y": 0.8737102329,
				"z": -0.9354265578,
				"element": "C" 
			},
			{
				"x": 2.0199240112,
				"y": -0.6730656571,
				"z": -0.119525366,
				"element": "S" 
			},
			{
				"x": 0.2422744443,
				"y": -0.7217371472,
				"z": -0.3298009502,
				"element": "C" 
			},
			{
				"x": -0.2635342137,
				"y": 0.2997591034,
				"z": -0.9391169306,
				"element": "N" 
			},
			{
				"x": -0.5457981255,
				"y": -1.8729879755,
				"z": 0.2398048128,
				"element": "C" 
			},
			{
				"x": -0.7181980173,
				"y": -1.6912505456,
				"z": 1.7797775053,
				"element": "C" 
			},
			{
				"x": -1.8830201838,
				"y": -2.5389835202,
				"z": 2.2929532,
				"element": "C" 
			},
			{
				"x": -3.1534340327,
				"y": -2.030694429,
				"z": 1.7524291245,
				"element": "N" 
			},
			{
				"x": -3.0484692167,
				"y": -1.4364435351,
				"z": 0.4078019233,
				"element": "C" 
			},
			{
				"x": -1.9296694057,
				"y": -2.0447884928,
				"z": -0.4492863378,
				"element": "C" 
			},
			{
				"x": 3.1137264347,
				"y": 1.7082554354,
				"z": -1.2429771432,
				"element": "C" 
			},
			{
				"x": 2.8552495228,
				"y": 2.8975991974,
				"z": -1.913119509,
				"element": "C" 
			},
			{
				"x": -0.5469175216,
				"y": 2.686704952,
				"z": -2.250204952,
				"element": "H" 
			},
			{
				"x": 0.0418916162,
				"y": -2.7854373271,
				"z": 0.0789484506,
				"element": "H" 
			},
			{
				"x": -0.9190888883,
				"y": -0.638736118,
				"z": 2.0088401959,
				"element": "H" 
			},
			{
				"x": 0.2076619837,
				"y": -1.9607058256,
				"z": 2.2975096259,
				"element": "H" 
			},
			{
				"x": -1.6892122881,
				"y": -3.5938338969,
				"z": 2.0242144794,
				"element": "H" 
			},
			{
				"x": -1.9163335425,
				"y": -2.4988060869,
				"z": 3.3891877122,
				"element": "H" 
			},
			{
				"x": -3.8380506858,
				"y": -2.7790298706,
				"z": 1.7433352136,
				"element": "H" 
			},
			{
				"x": -2.8727766508,
				"y": -0.3569091383,
				"z": 0.4963531544,
				"element": "H" 
			},
			{
				"x": -4.01548492,
				"y": -1.5482427337,
				"z": -0.0930053315,
				"element": "H" 
			},
			{
				"x": -1.9176847949,
				"y": -1.5815217438,
				"z": -1.4392806183,
				"element": "H" 
			},
			{
				"x": -2.1234272773,
				"y": -3.114852524,
				"z": -0.5898902872,
				"element": "H" 
			},
			{
				"x": 4.1288307548,
				"y": 1.4392369007,
				"z": -0.9707385033,
				"element": "H" 
			},
			{
				"x": 3.6743347913,
				"y": 3.5605273908,
				"z": -2.1706846027,
				"element": "H" 
			}
		],
		 "valence_orbital": [ 
			{
				"type": "occ",
				"energy": -0.31322,
				"method": "rhf"
			},
			{
				"type": "occ",
				"energy": -0.28247,
				"method": "rhf"
			},
			{
				"type": "occ",
				"energy": -0.24976,
				"method": "rhf"
			},
			{
				"type": "occ",
				"energy": -0.24821,
				"method": "rhf"
			},
			{
				"type": "occ",
				"energy": -0.2125,
				"method": "rhf"
			},
			{
				"type": "unocc",
				"energy": -0.04376,
				"method": "rhf"
			},
			{
				"type": "unocc",
				"energy": -0.02805,
				"method": "rhf"
			},
			{
				"type": "unocc",
				"energy": -0.00049,
				"method": "rhf"
			},
			{
				"type": "unocc",
				"energy": 0.01939,
				"method": "rhf"
			},
			{
				"type": "unocc",
				"energy": 0.07077,
				"method": "rhf"
			}
		],
		"cosmo_sigma_profile": { 
			"-0.025": 0.0,
			"-0.024": 0.0,
			"-0.023": 0.0,
			"-0.022": 0.0,
			"-0.021": 0.0,
			"-0.02": 0.0,
			"-0.019": 0.0,
			"-0.018": 0.0,
			"-0.017": 0.0,
			"-0.016": 0.0,
			"-0.015": 0.0,
			"-0.014": 0.0,
			"-0.013": 0.0,
			"-0.012": 0.0,
			"-0.011": 0.0,
			"-0.01": 0.484793032611,
			"-0.009": 1.35747157466,
			"-0.008": 3.69019136005,
			"-0.007": 6.93953882466,
			"-0.006": 8.83492297744,
			"-0.005": 12.229632689,
			"-0.004": 15.7553966673,
			"-0.003": 25.1705777879,
			"-0.002": 28.3867638335,
			"-0.001": 30.9352783372,
			"0.0": 29.2867684841,
			"0.001": 28.5683051308,
			"0.002": 37.3769270013,
			"0.003": 40.3367371826,
			"0.004": 8.18470947504,
			"0.005": 2.99358814468,
			"0.006": 2.52322005064,
			"0.007": 2.09581733902,
			"0.008": 2.64505759416,
			"0.009": 2.08411795548,
			"0.01": 1.06062604964,
			"0.011": 0.781903636234,
			"0.012": 1.55496665814,
			"0.013": 1.05757300028,
			"0.014": 0.491576496008,
			"0.015": 0.363264261371,
			"0.016": 0.300767084289,
			"0.017": 0.265375179496,
			"0.018": 0.927199891212,
			"0.019": 0.175571653292,
			"0.02": 0.0,
			"0.021": 0.0,
			"0.022": 0.0,
			"0.023": 0.0,
			"0.024": 0.0,
			"0.025": 0.0
		}
	}
}
