{
	 "smiles": "CC(C)(C)C(N)P(O)(O)=O", 
	 "Tm": 521.15, 
	 "num_atms": 24, 
	 "gaussian": { 
		 "optdone": 1, 
		 "sigma_profile": "yes", 
		 "theory": "DFT", 
		 "functional": "B3LYP", 
		 "basiset": "6-31G**", 
		 "properties": { 
			 "R2extent": 2531.402, 
			 "electric_dipole_moment_norm": 2.33847571294, 
			 "electric_quadrupole_moment_norm": 8.11689632495, 
			 "total_energy": -820.821358102, 
			 "HOMO_LUMO_gap": 0.29046, 
			 "cosmo_polarized_energy": -17.24, 
			 "cosmo_cavitation_energy": 26.35, 
			 "cosmo_dispersion_energy": -19.18, 
			 "cosmo_repulsion_energy": 1.51, 
			 "cosmo_total_nonelectrostatic_energy": 8.68, 
			 "SMD_solvation_energy": 5.99 
		},
		"coords": [
			{
				"x": 0.8751761475,
				"y": -0.9503687203,
				"z": 0.2450482198,
				"element": "C" 
			},
			{
				"x": -0.2591912048,
				"y": 0.0663338747,
				"z": 0.0117541112,
				"element": "C" 
			},
			{
				"x": 0.2400609821,
				"y": 1.199651451,
				"z": -0.9079916407,
				"element": "C" 
			},
			{
				"x": -1.441196248,
				"y": -0.6359342736,
				"z": -0.6947509883,
				"element": "C" 
			},
			{
				"x": -0.7863828133,
				"y": 0.6615827925,
				"z": 1.359465587,
				"element": "C" 
			},
			{
				"x": -1.1354733611,
				"y": -0.3894777979,
				"z": 2.3235471302,
				"element": "N" 
			},
			{
				"x": 0.4118939247,
				"y": 1.7737935145,
				"z": 2.223244865,
				"element": "P" 
			},
			{
				"x": -0.1652086481,
				"y": 1.8469994815,
				"z": 3.7531295953,
				"element": "O" 
			},
			{
				"x": -0.0439522222,
				"y": 3.2151516866,
				"z": 1.6301395032,
				"element": "O" 
			},
			{
				"x": 1.8723317508,
				"y": 1.4932478377,
				"z": 2.174683424,
				"element": "O" 
			},
			{
				"x": 0.5453055805,
				"y": -1.7717545205,
				"z": 0.8863720431,
				"element": "H" 
			},
			{
				"x": 1.1979548201,
				"y": -1.3710064724,
				"z": -0.713894398,
				"element": "H" 
			},
			{
				"x": 1.7338953573,
				"y": -0.4737006965,
				"z": 0.7228275974,
				"element": "H" 
			},
			{
				"x": -0.5191660742,
				"y": 1.977679231,
				"z": -1.0428531703,
				"element": "H" 
			},
			{
				"x": 1.1451857713,
				"y": 1.6679559429,
				"z": -0.5118960939,
				"element": "H" 
			},
			{
				"x": 0.4844863856,
				"y": 0.7937110197,
				"z": -1.8952487953,
				"element": "H" 
			},
			{
				"x": -1.1209833993,
				"y": -1.0109002469,
				"z": -1.6723654427,
				"element": "H" 
			},
			{
				"x": -1.8147538888,
				"y": -1.5003890783,
				"z": -0.1345133345,
				"element": "H" 
			},
			{
				"x": -2.2782126498,
				"y": 0.0525311503,
				"z": -0.8597366574,
				"element": "H" 
			},
			{
				"x": -1.6336475654,
				"y": 1.3230981991,
				"z": 1.1039502967,
				"element": "H" 
			},
			{
				"x": -1.7639145099,
				"y": -1.0597625792,
				"z": 1.8910326207,
				"element": "H" 
			},
			{
				"x": -1.6274575746,
				"y": 0.0195477022,
				"z": 3.1122462549,
				"element": "H" 
			},
			{
				"x": 0.4259434342,
				"y": 1.3487756136,
				"z": 4.3361350825,
				"element": "H" 
			},
			{
				"x": 0.6354060055,
				"y": 3.8829348882,
				"z": 1.8046741901,
				"element": "H" 
			}
		],
		 "valence_orbital": [ 
			{
				"type": "occ",
				"energy": -0.32357,
				"method": "rhf"
			},
			{
				"type": "occ",
				"energy": -0.3193,
				"method": "rhf"
			},
			{
				"type": "occ",
				"energy": -0.28838,
				"method": "rhf"
			},
			{
				"type": "occ",
				"energy": -0.2815,
				"method": "rhf"
			},
			{
				"type": "occ",
				"energy": -0.24382,
				"method": "rhf"
			},
			{
				"type": "unocc",
				"energy": 0.04664,
				"method": "rhf"
			},
			{
				"type": "unocc",
				"energy": 0.0594,
				"method": "rhf"
			},
			{
				"type": "unocc",
				"energy": 0.07392,
				"method": "rhf"
			},
			{
				"type": "unocc",
				"energy": 0.09893,
				"method": "rhf"
			},
			{
				"type": "unocc",
				"energy": 0.11567,
				"method": "rhf"
			}
		],
		"cosmo_sigma_profile": { 
			"-0.025": 0.0,
			"-0.024": 0.0,
			"-0.023": 0.0,
			"-0.022": 0.0,
			"-0.021": 0.0,
			"-0.02": 0.0,
			"-0.019": 0.57938385842,
			"-0.018": 2.17323636484,
			"-0.017": 1.72049297746,
			"-0.016": 1.07518010137,
			"-0.015": 2.37672882786,
			"-0.014": 1.51783543669,
			"-0.013": 0.363804995826,
			"-0.012": 0.478422302414,
			"-0.011": 2.21755616578,
			"-0.01": 3.2465574669,
			"-0.009": 3.17309434505,
			"-0.008": 3.68512360151,
			"-0.007": 4.49941186763,
			"-0.006": 3.14543351069,
			"-0.005": 5.96564894491,
			"-0.004": 9.78905862913,
			"-0.003": 16.7074088573,
			"-0.002": 17.9730890844,
			"-0.001": 15.8363284513,
			"0.0": 16.7987117413,
			"0.001": 21.8164483563,
			"0.002": 12.9266344685,
			"0.003": 4.68297804463,
			"0.004": 3.64382646381,
			"0.005": 4.73910485012,
			"0.006": 4.34219010444,
			"0.007": 4.61307793575,
			"0.008": 4.56888772789,
			"0.009": 4.55955300265,
			"0.01": 5.01213227161,
			"0.011": 2.99072420886,
			"0.012": 1.7130851531,
			"0.013": 2.35118764245,
			"0.014": 4.06197965591,
			"0.015": 4.08246050416,
			"0.016": 0.468396753434,
			"0.017": 0.346394279542,
			"0.018": 0.0,
			"0.019": 0.0,
			"0.02": 0.0,
			"0.021": 0.0,
			"0.022": 0.0,
			"0.023": 0.0,
			"0.024": 0.0,
			"0.025": 0.0
		}
	}
}
