{
	 "smiles": "CC(=O)NC1=CC=CC=C1CCN(CCC1=C(NC(C)=O)C=CC=C1)N=O", 
	 "Tm": 445.15, 
	 "num_atms": 51, 
	 "gaussian": { 
		 "optdone": 1, 
		 "sigma_profile": "yes", 
		 "theory": "DFT", 
		 "functional": "B3LYP", 
		 "basiset": "6-31G**", 
		 "properties": { 
			 "R2extent": 13808.1259, 
			 "electric_dipole_moment_norm": 3.87032608962, 
			 "electric_quadrupole_moment_norm": 31.494908352, 
			 "total_energy": -1221.23357959, 
			 "HOMO_LUMO_gap": 0.18874, 
			 "cosmo_polarized_energy": -28.64, 
			 "cosmo_cavitation_energy": 54.51, 
			 "cosmo_dispersion_energy": -35.26, 
			 "cosmo_repulsion_energy": 2.73, 
			 "cosmo_total_nonelectrostatic_energy": 21.99, 
			 "SMD_solvation_energy": 10.84 
		},
		"coords": [
			{
				"x": -3.9636943907,
				"y": -5.1052233348,
				"z": -2.0334067682,
				"element": "C" 
			},
			{
				"x": -2.5134315214,
				"y": -4.778506729,
				"z": -2.3376105052,
				"element": "C" 
			},
			{
				"x": -1.9352779849,
				"y": -5.2361172231,
				"z": -3.3121781838,
				"element": "O" 
			},
			{
				"x": -1.838367971,
				"y": -3.9126618035,
				"z": -1.4900779877,
				"element": "N" 
			},
			{
				"x": -2.2429480378,
				"y": -3.3012430463,
				"z": -0.2762946702,
				"element": "C" 
			},
			{
				"x": -2.8375701581,
				"y": -4.064817575,
				"z": 0.7384768734,
				"element": "C" 
			},
			{
				"x": -3.2365399401,
				"y": -3.4721834668,
				"z": 1.9343095565,
				"element": "C" 
			},
			{
				"x": -3.0171935551,
				"y": -2.1105529361,
				"z": 2.142660585,
				"element": "C" 
			},
			{
				"x": -2.4047116945,
				"y": -1.3549039145,
				"z": 1.1439831805,
				"element": "C" 
			},
			{
				"x": -2.0144618989,
				"y": -1.9216851842,
				"z": -0.0757322478,
				"element": "C" 
			},
			{
				"x": -1.3652616713,
				"y": -1.0556405768,
				"z": -1.1352399327,
				"element": "C" 
			},
			{
				"x": 0.1646117622,
				"y": -1.0357108272,
				"z": -0.96946599,
				"element": "C" 
			},
			{
				"x": 0.865982381,
				"y": -0.2204284664,
				"z": -1.9605069146,
				"element": "N" 
			},
			{
				"x": 2.3277348131,
				"y": -0.2709635309,
				"z": -2.0422904371,
				"element": "C" 
			},
			{
				"x": 3.0562164504,
				"y": 0.1361755767,
				"z": -0.7524153843,
				"element": "C" 
			},
			{
				"x": 2.8182722381,
				"y": 1.54281313,
				"z": -0.232711729,
				"element": "C" 
			},
			{
				"x": 3.1857304435,
				"y": 1.8586046086,
				"z": 1.0963452472,
				"element": "C" 
			},
			{
				"x": 3.7900717527,
				"y": 0.8601867081,
				"z": 1.9052047036,
				"element": "N" 
			},
			{
				"x": 3.5316334479,
				"y": 0.474320164,
				"z": 3.2101611507,
				"element": "C" 
			},
			{
				"x": 2.3538921697,
				"y": 1.106474334,
				"z": 3.9296817698,
				"element": "C" 
			},
			{
				"x": 4.2344156921,
				"y": -0.374239651,
				"z": 3.7401588344,
				"element": "O" 
			},
			{
				"x": 2.9976449233,
				"y": 3.1549807507,
				"z": 1.5910308152,
				"element": "C" 
			},
			{
				"x": 2.4154533994,
				"y": 4.1388397863,
				"z": 0.7941862903,
				"element": "C" 
			},
			{
				"x": 2.0504488411,
				"y": 3.8387521946,
				"z": -0.5166028978,
				"element": "C" 
			},
			{
				"x": 2.261433281,
				"y": 2.5549879416,
				"z": -1.0234272309,
				"element": "C" 
			},
			{
				"x": 0.1174941667,
				"y": 0.4861368167,
				"z": -2.8157645916,
				"element": "N" 
			},
			{
				"x": 0.7287402816,
				"y": 1.1564241251,
				"z": -3.64612553,
				"element": "O" 
			},
			{
				"x": -4.4820082509,
				"y": -4.3118259263,
				"z": -1.4917586108,
				"element": "H" 
			},
			{
				"x": -4.4582235826,
				"y": -5.2969772871,
				"z": -2.9866827557,
				"element": "H" 
			},
			{
				"x": -4.0244378311,
				"y": -6.022521565,
				"z": -1.4384091243,
				"element": "H" 
			},
			{
				"x": -0.9166707092,
				"y": -3.6970918499,
				"z": -1.8487330636,
				"element": "H" 
			},
			{
				"x": -2.9667653537,
				"y": -5.1313491787,
				"z": 0.5905011929,
				"element": "H" 
			},
			{
				"x": -3.7002493638,
				"y": -4.0790536077,
				"z": 2.7062162464,
				"element": "H" 
			},
			{
				"x": -3.3190622204,
				"y": -1.6405706375,
				"z": 3.0736153664,
				"element": "H" 
			},
			{
				"x": -2.2394539672,
				"y": -0.2915017541,
				"z": 1.3002508192,
				"element": "H" 
			},
			{
				"x": -1.7447745646,
				"y": -0.0340648578,
				"z": -1.0593197639,
				"element": "H" 
			},
			{
				"x": -1.6236933262,
				"y": -1.4088182081,
				"z": -2.1369812555,
				"element": "H" 
			},
			{
				"x": 0.4119399374,
				"y": -0.6676148351,
				"z": 0.0340672163,
				"element": "H" 
			},
			{
				"x": 0.5683263572,
				"y": -2.0568554787,
				"z": -1.0310497501,
				"element": "H" 
			},
			{
				"x": 2.5990839596,
				"y": 0.3643367908,
				"z": -2.8861486302,
				"element": "H" 
			},
			{
				"x": 2.6180949547,
				"y": -1.2999386489,
				"z": -2.2911362687,
				"element": "H" 
			},
			{
				"x": 2.8207159058,
				"y": -0.5798749091,
				"z": 0.0439195603,
				"element": "H" 
			},
			{
				"x": 4.1284459827,
				"y": -0.0091675995,
				"z": -0.9546799655,
				"element": "H" 
			},
			{
				"x": 4.5486910961,
				"y": 0.3217428535,
				"z": 1.5040888608,
				"element": "H" 
			},
			{
				"x": 2.6930413543,
				"y": 1.9668531411,
				"z": 4.5159643548,
				"element": "H" 
			},
			{
				"x": 1.5644084155,
				"y": 1.4446119001,
				"z": 3.2559406931,
				"element": "H" 
			},
			{
				"x": 1.964647682,
				"y": 0.3644623729,
				"z": 4.6284347207,
				"element": "H" 
			},
			{
				"x": 3.3306164971,
				"y": 3.3914958928,
				"z": 2.5958615993,
				"element": "H" 
			},
			{
				"x": 2.2698838909,
				"y": 5.1385735297,
				"z": 1.1924912783,
				"element": "H" 
			},
			{
				"x": 1.6057322601,
				"y": 4.5992732459,
				"z": -1.1511108713,
				"element": "H" 
			},
			{
				"x": 1.9653936562,
				"y": 2.342758746,
				"z": -2.0455898546,
				"element": "H" 
			}
		],
		 "valence_orbital": [ 
			{
				"type": "occ",
				"energy": -0.2548,
				"method": "rhf"
			},
			{
				"type": "occ",
				"energy": -0.25476,
				"method": "rhf"
			},
			{
				"type": "occ",
				"energy": -0.23661,
				"method": "rhf"
			},
			{
				"type": "occ",
				"energy": -0.23453,
				"method": "rhf"
			},
			{
				"type": "occ",
				"energy": -0.23066,
				"method": "rhf"
			},
			{
				"type": "unocc",
				"energy": -0.04192,
				"method": "rhf"
			},
			{
				"type": "unocc",
				"energy": -0.02406,
				"method": "rhf"
			},
			{
				"type": "unocc",
				"energy": -0.02044,
				"method": "rhf"
			},
			{
				"type": "unocc",
				"energy": -0.01883,
				"method": "rhf"
			},
			{
				"type": "unocc",
				"energy": -0.01282,
				"method": "rhf"
			}
		],
		"cosmo_sigma_profile": { 
			"-0.025": 0.0,
			"-0.024": 0.0,
			"-0.023": 0.0,
			"-0.022": 0.0,
			"-0.021": 0.0,
			"-0.02": 0.0,
			"-0.019": 0.0,
			"-0.018": 0.0,
			"-0.017": 0.0,
			"-0.016": 0.0,
			"-0.015": 0.0,
			"-0.014": 0.0455409174297,
			"-0.013": 1.57891197196,
			"-0.012": 3.14789660336,
			"-0.011": 2.39414664122,
			"-0.01": 2.51539331231,
			"-0.009": 2.63892814572,
			"-0.008": 4.17256950463,
			"-0.007": 10.9206456967,
			"-0.006": 27.0977529214,
			"-0.005": 38.0626755864,
			"-0.004": 40.3568259895,
			"-0.003": 37.2202255028,
			"-0.002": 36.343255085,
			"-0.001": 36.3855604494,
			"0.0": 23.0524283372,
			"0.001": 21.1687813896,
			"0.002": 21.2646541718,
			"0.003": 19.4565715751,
			"0.004": 19.3610980559,
			"0.005": 19.0374050388,
			"0.006": 8.18694036735,
			"0.007": 4.64334126497,
			"0.008": 6.878102686,
			"0.009": 4.59309110227,
			"0.01": 6.85424862722,
			"0.011": 5.81168973512,
			"0.012": 6.38130355342,
			"0.013": 9.78104318735,
			"0.014": 9.75658862354,
			"0.015": 1.95154707763,
			"0.016": 0.000138326852037,
			"0.017": 0.0,
			"0.018": 0.0,
			"0.019": 0.0,
			"0.02": 0.0,
			"0.021": 0.0,
			"0.022": 0.0,
			"0.023": 0.0,
			"0.024": 0.0,
			"0.025": 0.0
		}
	}
}
