{
	 "smiles": "C[C@H]1CC[C@@H](O)CC1", 
	 "Tm": 263.55, 
	 "num_atms": 22, 
	 "gaussian": { 
		 "optdone": 1, 
		 "sigma_profile": "yes", 
		 "theory": "DFT", 
		 "functional": "B3LYP", 
		 "basiset": "6-31G**", 
		 "properties": { 
			 "R2extent": 1200.8757, 
			 "electric_dipole_moment_norm": 1.51994731817, 
			 "electric_quadrupole_moment_norm": 6.85548541753, 
			 "total_energy": -350.411904556, 
			 "HOMO_LUMO_gap": 0.33439, 
			 "cosmo_polarized_energy": -5.61, 
			 "cosmo_cavitation_energy": 22.21, 
			 "cosmo_dispersion_energy": -16.68, 
			 "cosmo_repulsion_energy": 1.39, 
			 "cosmo_total_nonelectrostatic_energy": 6.92, 
			 "SMD_solvation_energy": 3.14 
		},
		"coords": [
			{
				"x": -1.1447201949,
				"y": -1.8097266292,
				"z": -2.2724513029,
				"element": "C" 
			},
			{
				"x": -0.3452213794,
				"y": -1.0995082989,
				"z": -1.1752320885,
				"element": "C" 
			},
			{
				"x": -0.9153811442,
				"y": 0.290607016,
				"z": -0.8454778288,
				"element": "C" 
			},
			{
				"x": -0.0121647945,
				"y": 1.0643639894,
				"z": 0.1458329247,
				"element": "C" 
			},
			{
				"x": 0.7964730735,
				"y": 0.1314354416,
				"z": 1.0748245706,
				"element": "C" 
			},
			{
				"x": 1.1188755872,
				"y": 0.7646781767,
				"z": 2.3117391711,
				"element": "O" 
			},
			{
				"x": -0.0055201775,
				"y": -1.1267001788,
				"z": 1.3912984499,
				"element": "C" 
			},
			{
				"x": -0.2641979882,
				"y": -1.9592835366,
				"z": 0.1135438001,
				"element": "C" 
			},
			{
				"x": -1.1324105946,
				"y": -1.2418508741,
				"z": -3.2093789826,
				"element": "H" 
			},
			{
				"x": -2.1921587088,
				"y": -1.9362591365,
				"z": -1.9721783847,
				"element": "H" 
			},
			{
				"x": -0.737853406,
				"y": -2.8058504298,
				"z": -2.4798776948,
				"element": "H" 
			},
			{
				"x": 0.6778013549,
				"y": -0.9534006452,
				"z": -1.5527655624,
				"element": "H" 
			},
			{
				"x": -1.0547808424,
				"y": 0.8726838061,
				"z": -1.7639043969,
				"element": "H" 
			},
			{
				"x": -1.9169592766,
				"y": 0.1611024359,
				"z": -0.4134996604,
				"element": "H" 
			},
			{
				"x": -0.6253646136,
				"y": 1.7078159927,
				"z": 0.7875822984,
				"element": "H" 
			},
			{
				"x": 0.6765112836,
				"y": 1.7223484739,
				"z": -0.4005543188,
				"element": "H" 
			},
			{
				"x": 1.7269892013,
				"y": -0.1709479686,
				"z": 0.5643326597,
				"element": "H" 
			},
			{
				"x": 1.5993763585,
				"y": 1.5782329352,
				"z": 2.1101442476,
				"element": "H" 
			},
			{
				"x": -0.9525441218,
				"y": -0.8157057958,
				"z": 1.8499629678,
				"element": "H" 
			},
			{
				"x": 0.5249678148,
				"y": -1.7173598011,
				"z": 2.1448280153,
				"element": "H" 
			},
			{
				"x": 0.522727975,
				"y": -2.7129984008,
				"z": -0.0118479069,
				"element": "H" 
			},
			{
				"x": -1.2017454065,
				"y": -2.5166765722,
				"z": 0.2344790223,
				"element": "H" 
			}
		],
		 "valence_orbital": [ 
			{
				"type": "occ",
				"energy": -0.32493,
				"method": "rhf"
			},
			{
				"type": "occ",
				"energy": -0.31247,
				"method": "rhf"
			},
			{
				"type": "occ",
				"energy": -0.30031,
				"method": "rhf"
			},
			{
				"type": "occ",
				"energy": -0.28925,
				"method": "rhf"
			},
			{
				"type": "occ",
				"energy": -0.25576,
				"method": "rhf"
			},
			{
				"type": "unocc",
				"energy": 0.07863,
				"method": "rhf"
			},
			{
				"type": "unocc",
				"energy": 0.08151,
				"method": "rhf"
			},
			{
				"type": "unocc",
				"energy": 0.10729,
				"method": "rhf"
			},
			{
				"type": "unocc",
				"energy": 0.12487,
				"method": "rhf"
			},
			{
				"type": "unocc",
				"energy": 0.13498,
				"method": "rhf"
			}
		],
		"cosmo_sigma_profile": { 
			"-0.025": 0.0,
			"-0.024": 0.0,
			"-0.023": 0.0,
			"-0.022": 0.0,
			"-0.021": 0.0,
			"-0.02": 0.0,
			"-0.019": 0.0,
			"-0.018": 0.0,
			"-0.017": 0.0,
			"-0.016": 0.0,
			"-0.015": 0.422907682078,
			"-0.014": 0.879989683454,
			"-0.013": 0.924493017702,
			"-0.012": 1.21709067602,
			"-0.011": 0.487173389956,
			"-0.01": 0.89041003959,
			"-0.009": 0.811964595373,
			"-0.008": 1.51430067062,
			"-0.007": 0.570082554493,
			"-0.006": 0.647282033705,
			"-0.005": 0.709019001288,
			"-0.004": 1.75446940217,
			"-0.003": 6.28194772687,
			"-0.002": 30.8330140216,
			"-0.001": 38.272150401,
			"0.0": 29.7763527715,
			"0.001": 23.2349924406,
			"0.002": 11.7877897777,
			"0.003": 1.49517166868,
			"0.004": 1.35159460523,
			"0.005": 1.54358534731,
			"0.006": 1.18718703834,
			"0.007": 1.64835871985,
			"0.008": 1.39865783464,
			"0.009": 0.865003818698,
			"0.01": 1.46809309007,
			"0.011": 1.07929036911,
			"0.012": 1.20326650823,
			"0.013": 1.87309886569,
			"0.014": 1.70242533817,
			"0.015": 1.72462829321,
			"0.016": 0.0,
			"0.017": 0.0,
			"0.018": 0.0,
			"0.019": 0.0,
			"0.02": 0.0,
			"0.021": 0.0,
			"0.022": 0.0,
			"0.023": 0.0,
			"0.024": 0.0,
			"0.025": 0.0
		}
	}
}
