{
	 "smiles": "NC1=C(C=NN1C1=CC(Cl)=CC=C1)C#N", 
	 "Tm": 458.15, 
	 "num_atms": 22, 
	 "gaussian": { 
		 "optdone": 1, 
		 "sigma_profile": "yes", 
		 "theory": "DFT", 
		 "functional": "B3LYP", 
		 "basiset": "6-31G**", 
		 "properties": { 
			 "R2extent": 4349.0548, 
			 "electric_dipole_moment_norm": 4.54570535011, 
			 "electric_quadrupole_moment_norm": 18.4227926396, 
			 "total_energy": -1064.4458752, 
			 "HOMO_LUMO_gap": 0.1898, 
			 "cosmo_polarized_energy": -15.86, 
			 "cosmo_cavitation_energy": 29.8, 
			 "cosmo_dispersion_energy": -21.34, 
			 "cosmo_repulsion_energy": 1.67, 
			 "cosmo_total_nonelectrostatic_energy": 10.13, 
			 "SMD_solvation_energy": 5.68 
		},
		"coords": [
			{
				"x": 0.8974680869,
				"y": -1.5354126929,
				"z": 0.5433866083,
				"element": "N" 
			},
			{
				"x": 1.609755379,
				"y": -0.3587570034,
				"z": 0.5219666621,
				"element": "C" 
			},
			{
				"x": 2.967822825,
				"y": -0.1460632887,
				"z": 0.7828122846,
				"element": "C" 
			},
			{
				"x": 3.1426976715,
				"y": 1.2600464141,
				"z": 0.6420589633,
				"element": "C" 
			},
			{
				"x": 2.0222345125,
				"y": 1.8720429127,
				"z": 0.3251912155,
				"element": "N" 
			},
			{
				"x": 1.0708847705,
				"y": 0.8709009844,
				"z": 0.2685644465,
				"element": "N" 
			},
			{
				"x": -0.2640826086,
				"y": 1.2076556067,
				"z": -0.0802040259,
				"element": "C" 
			},
			{
				"x": -1.340834728,
				"y": 0.5206556638,
				"z": 0.4934689469,
				"element": "C" 
			},
			{
				"x": -2.6358810922,
				"y": 0.877711002,
				"z": 0.118750381,
				"element": "C" 
			},
			{
				"x": -3.989066685,
				"y": 0.0117107577,
				"z": 0.8277409836,
				"element": "Cl" 
			},
			{
				"x": -2.8790325561,
				"y": 1.9090203688,
				"z": -0.7857258098,
				"element": "C" 
			},
			{
				"x": -1.7888696297,
				"y": 2.5971487842,
				"z": -1.3233682455,
				"element": "C" 
			},
			{
				"x": -0.4833023545,
				"y": 2.253397343,
				"z": -0.9843552894,
				"element": "C" 
			},
			{
				"x": 3.9108740303,
				"y": -1.1560493063,
				"z": 1.0762185464,
				"element": "C" 
			},
			{
				"x": 4.6607563065,
				"y": -2.0184487439,
				"z": 1.3070889497,
				"element": "N" 
			},
			{
				"x": 0.1322124911,
				"y": -1.6058565628,
				"z": -0.115279272,
				"element": "H" 
			},
			{
				"x": 1.484633856,
				"y": -2.3599450523,
				"z": 0.5576093187,
				"element": "H" 
			},
			{
				"x": 4.057487334,
				"y": 1.8235468929,
				"z": 0.7648841354,
				"element": "H" 
			},
			{
				"x": -1.1798973179,
				"y": -0.2519307609,
				"z": 1.2349982474,
				"element": "H" 
			},
			{
				"x": -3.8957851687,
				"y": 2.1687110845,
				"z": -1.0567817516,
				"element": "H" 
			},
			{
				"x": -1.9633247113,
				"y": 3.40798188,
				"z": -2.0237858373,
				"element": "H" 
			},
			{
				"x": 0.367549589,
				"y": 2.7834337163,
				"z": -1.3935394579,
				"element": "H" 
			}
		],
		 "valence_orbital": [ 
			{
				"type": "occ",
				"energy": -0.30694,
				"method": "rhf"
			},
			{
				"type": "occ",
				"energy": -0.30326,
				"method": "rhf"
			},
			{
				"type": "occ",
				"energy": -0.26979,
				"method": "rhf"
			},
			{
				"type": "occ",
				"energy": -0.24971,
				"method": "rhf"
			},
			{
				"type": "occ",
				"energy": -0.23479,
				"method": "rhf"
			},
			{
				"type": "unocc",
				"energy": -0.04499,
				"method": "rhf"
			},
			{
				"type": "unocc",
				"energy": -0.03463,
				"method": "rhf"
			},
			{
				"type": "unocc",
				"energy": -0.00136,
				"method": "rhf"
			},
			{
				"type": "unocc",
				"energy": 0.01355,
				"method": "rhf"
			},
			{
				"type": "unocc",
				"energy": 0.01621,
				"method": "rhf"
			}
		],
		"cosmo_sigma_profile": { 
			"-0.025": 0.0,
			"-0.024": 0.0,
			"-0.023": 0.0,
			"-0.022": 0.0,
			"-0.021": 0.0,
			"-0.02": 0.0,
			"-0.019": 0.0,
			"-0.018": 0.0,
			"-0.017": 0.0,
			"-0.016": 0.0,
			"-0.015": 0.524574433267,
			"-0.014": 2.2046139261,
			"-0.013": 2.68220898515,
			"-0.012": 3.05036197767,
			"-0.011": 2.55536755002,
			"-0.01": 2.26520488567,
			"-0.009": 4.44871201085,
			"-0.008": 5.62521597028,
			"-0.007": 8.08531515854,
			"-0.006": 11.3073041805,
			"-0.005": 11.6721934533,
			"-0.004": 10.718732575,
			"-0.003": 11.3400228265,
			"-0.002": 11.6535569664,
			"-0.001": 15.6251037665,
			"0.0": 19.5067311162,
			"0.001": 23.7321149402,
			"0.002": 21.8657372367,
			"0.003": 17.8585523748,
			"0.004": 14.8078418556,
			"0.005": 7.51348510761,
			"0.006": 4.50801930335,
			"0.007": 4.43677565283,
			"0.008": 5.03449112771,
			"0.009": 4.44497700035,
			"0.01": 4.55348315131,
			"0.011": 4.20830527343,
			"0.012": 3.65313542409,
			"0.013": 3.00248689902,
			"0.014": 0.655460517015,
			"0.015": 0.0,
			"0.016": 0.0,
			"0.017": 0.0,
			"0.018": 0.0,
			"0.019": 0.0,
			"0.02": 0.0,
			"0.021": 0.0,
			"0.022": 0.0,
			"0.023": 0.0,
			"0.024": 0.0,
			"0.025": 0.0
		}
	}
}
