{
	 "smiles": "ClCCN=C=O", 
	 "Tm": 408.15, 
	 "num_atms": 10, 
	 "gaussian": { 
		 "optdone": 1, 
		 "sigma_profile": "yes", 
		 "theory": "DFT", 
		 "functional": "B3LYP", 
		 "basiset": "6-31G**", 
		 "properties": { 
			 "R2extent": 1482.0507, 
			 "electric_dipole_moment_norm": 3.65175103889, 
			 "electric_quadrupole_moment_norm": 10.6299966345, 
			 "total_energy": -706.895327087, 
			 "HOMO_LUMO_gap": 0.29074, 
			 "cosmo_polarized_energy": -7.47, 
			 "cosmo_cavitation_energy": 16.54, 
			 "cosmo_dispersion_energy": -12.07, 
			 "cosmo_repulsion_energy": 1.07, 
			 "cosmo_total_nonelectrostatic_energy": 5.54, 
			 "SMD_solvation_energy": 3.64 
		},
		"coords": [
			{
				"x": 1.5054179646,
				"y": 0.7148630407,
				"z": -0.9018176653,
				"element": "Cl" 
			},
			{
				"x": 0.5999266659,
				"y": 0.693704851,
				"z": 0.6664040898,
				"element": "C" 
			},
			{
				"x": -0.8095482,
				"y": 1.2586088525,
				"z": 0.5199291699,
				"element": "C" 
			},
			{
				"x": -0.8343797586,
				"y": 2.668882831,
				"z": 0.2245400607,
				"element": "N" 
			},
			{
				"x": -0.5767956926,
				"y": 3.3689669002,
				"z": -0.7307087647,
				"element": "C" 
			},
			{
				"x": -0.3813900877,
				"y": 4.174912533,
				"z": -1.5670393239,
				"element": "O" 
			},
			{
				"x": 0.5549785928,
				"y": -0.3468176791,
				"z": 0.9930291292,
				"element": "H" 
			},
			{
				"x": 1.1859318867,
				"y": 1.2778445117,
				"z": 1.3768583308,
				"element": "H" 
			},
			{
				"x": -1.3199555702,
				"y": 1.1078822051,
				"z": 1.4779457915,
				"element": "H" 
			},
			{
				"x": -1.3610858011,
				"y": 0.6924519538,
				"z": -0.2393408181,
				"element": "H" 
			}
		],
		 "valence_orbital": [ 
			{
				"type": "occ",
				"energy": -0.39722,
				"method": "rhf"
			},
			{
				"type": "occ",
				"energy": -0.31614,
				"method": "rhf"
			},
			{
				"type": "occ",
				"energy": -0.30869,
				"method": "rhf"
			},
			{
				"type": "occ",
				"energy": -0.29967,
				"method": "rhf"
			},
			{
				"type": "occ",
				"energy": -0.28404,
				"method": "rhf"
			},
			{
				"type": "unocc",
				"energy": 0.0067,
				"method": "rhf"
			},
			{
				"type": "unocc",
				"energy": 0.02343,
				"method": "rhf"
			},
			{
				"type": "unocc",
				"energy": 0.05325,
				"method": "rhf"
			},
			{
				"type": "unocc",
				"energy": 0.09033,
				"method": "rhf"
			},
			{
				"type": "unocc",
				"energy": 0.11062,
				"method": "rhf"
			}
		],
		"cosmo_sigma_profile": { 
			"-0.025": 0.0,
			"-0.024": 0.0,
			"-0.023": 0.0,
			"-0.022": 0.0,
			"-0.021": 0.0,
			"-0.02": 0.0,
			"-0.019": 0.0,
			"-0.018": 0.0,
			"-0.017": 0.0,
			"-0.016": 0.0,
			"-0.015": 0.0,
			"-0.014": 0.0,
			"-0.013": 0.0,
			"-0.012": 0.0,
			"-0.011": 0.0,
			"-0.01": 0.0,
			"-0.009": 0.273257595157,
			"-0.008": 6.1628149771,
			"-0.007": 12.6891191272,
			"-0.006": 9.57988716661,
			"-0.005": 8.16556757438,
			"-0.004": 5.79077935938,
			"-0.003": 4.97842187437,
			"-0.002": 6.02546976036,
			"-0.001": 8.54225147826,
			"0.0": 7.13678671335,
			"0.001": 6.9424063652,
			"0.002": 7.94584794128,
			"0.003": 9.01865844963,
			"0.004": 7.77270903993,
			"0.005": 8.95692896811,
			"0.006": 9.99217628178,
			"0.007": 5.51761962516,
			"0.008": 8.41238755175,
			"0.009": 0.51944660698,
			"0.01": 0.0,
			"0.011": 0.0,
			"0.012": 0.0,
			"0.013": 0.0,
			"0.014": 0.0,
			"0.015": 0.0,
			"0.016": 0.0,
			"0.017": 0.0,
			"0.018": 0.0,
			"0.019": 0.0,
			"0.02": 0.0,
			"0.021": 0.0,
			"0.022": 0.0,
			"0.023": 0.0,
			"0.024": 0.0,
			"0.025": 0.0
		}
	}
}
