{
	 "smiles": "CC(C)(C)C1CCCCC1O", 
	 "Tm": 318.15, 
	 "num_atms": 31, 
	 "gaussian": { 
		 "optdone": 1, 
		 "sigma_profile": "yes", 
		 "theory": "DFT", 
		 "functional": "B3LYP", 
		 "basiset": "6-31G**", 
		 "properties": { 
			 "R2extent": 1983.9742, 
			 "electric_dipole_moment_norm": 1.69327434576, 
			 "electric_quadrupole_moment_norm": 5.79796901509, 
			 "total_energy": -468.352459654, 
			 "HOMO_LUMO_gap": 0.31424, 
			 "cosmo_polarized_energy": -5.82, 
			 "cosmo_cavitation_energy": 28.03, 
			 "cosmo_dispersion_energy": -20.6, 
			 "cosmo_repulsion_energy": 1.61, 
			 "cosmo_total_nonelectrostatic_energy": 9.04, 
			 "SMD_solvation_energy": 4.08 
		},
		"coords": [
			{
				"x": -0.0338753786,
				"y": 2.093652336,
				"z": -1.7587398531,
				"element": "C" 
			},
			{
				"x": 0.4768447617,
				"y": 1.1957404972,
				"z": -0.6105658106,
				"element": "C" 
			},
			{
				"x": 1.9101615468,
				"y": 0.7488759513,
				"z": -0.9843458021,
				"element": "C" 
			},
			{
				"x": 0.5654330551,
				"y": 2.0552664824,
				"z": 0.6679385048,
				"element": "C" 
			},
			{
				"x": -0.4289163684,
				"y": -0.0902095864,
				"z": -0.4939732845,
				"element": "C" 
			},
			{
				"x": -1.9675757412,
				"y": 0.1136592285,
				"z": -0.5712931978,
				"element": "C" 
			},
			{
				"x": -2.6559841198,
				"y": 0.4754890358,
				"z": 0.7546542557,
				"element": "C" 
			},
			{
				"x": -2.3304553136,
				"y": -0.5620344343,
				"z": 1.8368558492,
				"element": "C" 
			},
			{
				"x": -0.812391658,
				"y": -0.7181619291,
				"z": 2.0074323285,
				"element": "C" 
			},
			{
				"x": -0.0902100086,
				"y": -1.0487196463,
				"z": 0.6865898829,
				"element": "C" 
			},
			{
				"x": -0.3504806066,
				"y": -2.4081231512,
				"z": 0.3075443926,
				"element": "O" 
			},
			{
				"x": -0.1796004808,
				"y": 1.5212221189,
				"z": -2.6821621619,
				"element": "H" 
			},
			{
				"x": -0.9803694731,
				"y": 2.584638806,
				"z": -1.5125312335,
				"element": "H" 
			},
			{
				"x": 0.6948071306,
				"y": 2.8838637793,
				"z": -1.9708339533,
				"element": "H" 
			},
			{
				"x": 2.5622616009,
				"y": 1.621205022,
				"z": -1.1044702127,
				"element": "H" 
			},
			{
				"x": 1.9183085271,
				"y": 0.1938564259,
				"z": -1.9289656503,
				"element": "H" 
			},
			{
				"x": 2.3618688929,
				"y": 0.1096771547,
				"z": -0.2196896293,
				"element": "H" 
			},
			{
				"x": 1.1808406942,
				"y": 2.9417256396,
				"z": 0.4749109843,
				"element": "H" 
			},
			{
				"x": -0.4143425786,
				"y": 2.4075413012,
				"z": 1.0027065185,
				"element": "H" 
			},
			{
				"x": 1.0339067597,
				"y": 1.5150018531,
				"z": 1.4960852582,
				"element": "H" 
			},
			{
				"x": -0.1649951498,
				"y": -0.6716687356,
				"z": -1.3869426209,
				"element": "H" 
			},
			{
				"x": -2.4046397908,
				"y": -0.8346164647,
				"z": -0.9198620649,
				"element": "H" 
			},
			{
				"x": -2.22265514,
				"y": 0.8407340178,
				"z": -1.3466157224,
				"element": "H" 
			},
			{
				"x": -3.7401580278,
				"y": 0.5358086173,
				"z": 0.5986199775,
				"element": "H" 
			},
			{
				"x": -2.339683629,
				"y": 1.4692873868,
				"z": 1.0946409563,
				"element": "H" 
			},
			{
				"x": -2.7770277289,
				"y": -1.528419726,
				"z": 1.5577745232,
				"element": "H" 
			},
			{
				"x": -2.7895818384,
				"y": -0.2872331379,
				"z": 2.7934309593,
				"element": "H" 
			},
			{
				"x": -0.4065481236,
				"y": 0.2086337606,
				"z": 2.4268552407,
				"element": "H" 
			},
			{
				"x": -0.584005534,
				"y": -1.5174028369,
				"z": 2.72139513,
				"element": "H" 
			},
			{
				"x": 0.9879726201,
				"y": -1.0364517754,
				"z": 0.8702155865,
				"element": "H" 
			},
			{
				"x": -1.2999088993,
				"y": -2.4974379907,
				"z": 0.1550408492,
				"element": "H" 
			}
		],
		 "valence_orbital": [ 
			{
				"type": "occ",
				"energy": -0.3206,
				"method": "rhf"
			},
			{
				"type": "occ",
				"energy": -0.30402,
				"method": "rhf"
			},
			{
				"type": "occ",
				"energy": -0.29748,
				"method": "rhf"
			},
			{
				"type": "occ",
				"energy": -0.28463,
				"method": "rhf"
			},
			{
				"type": "occ",
				"energy": -0.25226,
				"method": "rhf"
			},
			{
				"type": "unocc",
				"energy": 0.06198,
				"method": "rhf"
			},
			{
				"type": "unocc",
				"energy": 0.07688,
				"method": "rhf"
			},
			{
				"type": "unocc",
				"energy": 0.10527,
				"method": "rhf"
			},
			{
				"type": "unocc",
				"energy": 0.11331,
				"method": "rhf"
			},
			{
				"type": "unocc",
				"energy": 0.12369,
				"method": "rhf"
			}
		],
		"cosmo_sigma_profile": { 
			"-0.025": 0.0,
			"-0.024": 0.0,
			"-0.023": 0.0,
			"-0.022": 0.0,
			"-0.021": 0.0,
			"-0.02": 0.0,
			"-0.019": 0.0,
			"-0.018": 0.0,
			"-0.017": 0.0,
			"-0.016": 0.0,
			"-0.015": 0.0,
			"-0.014": 0.0,
			"-0.013": 0.360642223031,
			"-0.012": 0.881078539574,
			"-0.011": 1.23239832542,
			"-0.01": 0.977804632459,
			"-0.009": 0.967657019694,
			"-0.008": 1.69687098158,
			"-0.007": 0.956179689289,
			"-0.006": 0.819235028266,
			"-0.005": 1.36647353017,
			"-0.004": 4.2412719157,
			"-0.003": 13.9568430713,
			"-0.002": 35.8151451082,
			"-0.001": 38.7757664067,
			"0.0": 38.243364914,
			"0.001": 36.0159298631,
			"0.002": 19.1756870144,
			"0.003": 1.97509705863,
			"0.004": 0.993391929582,
			"0.005": 1.4393514174,
			"0.006": 1.6926578061,
			"0.007": 1.10485559805,
			"0.008": 1.2443671906,
			"0.009": 1.31308667955,
			"0.01": 0.634182067316,
			"0.011": 1.20785357528,
			"0.012": 1.22165479313,
			"0.013": 1.85770266293,
			"0.014": 1.29269102632,
			"0.015": 2.35679300576,
			"0.016": 0.194654104451,
			"0.017": 0.0,
			"0.018": 0.0,
			"0.019": 0.0,
			"0.02": 0.0,
			"0.021": 0.0,
			"0.022": 0.0,
			"0.023": 0.0,
			"0.024": 0.0,
			"0.025": 0.0
		}
	}
}
