{
	 "smiles": "CC(NC(=O)CCl)C1=CC(C)=C(C)C=C1", 
	 "Tm": 470.15, 
	 "num_atms": 31, 
	 "gaussian": { 
		 "optdone": 1, 
		 "sigma_profile": "yes", 
		 "theory": "DFT", 
		 "functional": "B3LYP", 
		 "basiset": "6-31G**", 
		 "properties": { 
			 "R2extent": 5484.3894, 
			 "electric_dipole_moment_norm": 2.40839513785, 
			 "electric_quadrupole_moment_norm": 7.80016757833, 
			 "total_energy": -1057.12827192, 
			 "HOMO_LUMO_gap": 0.22547, 
			 "cosmo_polarized_energy": -10.95, 
			 "cosmo_cavitation_energy": 35.47, 
			 "cosmo_dispersion_energy": -24.79, 
			 "cosmo_repulsion_energy": 1.99, 
			 "cosmo_total_nonelectrostatic_energy": 12.67, 
			 "SMD_solvation_energy": 6.03 
		},
		"coords": [
			{
				"x": 2.3855883828,
				"y": -1.1461538323,
				"z": -0.2867378703,
				"element": "C" 
			},
			{
				"x": 0.8957904371,
				"y": -1.4213214572,
				"z": -0.5117228744,
				"element": "C" 
			},
			{
				"x": 0.6635452429,
				"y": -1.7397630015,
				"z": -1.929668053,
				"element": "N" 
			},
			{
				"x": -0.0925800811,
				"y": -2.7882230118,
				"z": -2.321418219,
				"element": "C" 
			},
			{
				"x": -0.6120726462,
				"y": -3.6073440075,
				"z": -1.5689747364,
				"element": "O" 
			},
			{
				"x": -0.3187347746,
				"y": -2.9966900979,
				"z": -3.821758783,
				"element": "C" 
			},
			{
				"x": 0.456618331,
				"y": -1.7987252496,
				"z": -4.9487979909,
				"element": "Cl" 
			},
			{
				"x": -0.0468022575,
				"y": -0.3145481517,
				"z": -0.042843595,
				"element": "C" 
			},
			{
				"x": 0.3360322476,
				"y": 1.0290880364,
				"z": 0.0293543187,
				"element": "C" 
			},
			{
				"x": -0.5514769479,
				"y": 2.0356634763,
				"z": 0.4290690992,
				"element": "C" 
			},
			{
				"x": -0.086447586,
				"y": 3.4714962442,
				"z": 0.4937049744,
				"element": "C" 
			},
			{
				"x": -1.87526801,
				"y": 1.6895553032,
				"z": 0.7705980563,
				"element": "C" 
			},
			{
				"x": -2.8652135125,
				"y": 2.7412284646,
				"z": 1.211129349,
				"element": "C" 
			},
			{
				"x": -2.2565567274,
				"y": 0.3446265306,
				"z": 0.6969217306,
				"element": "C" 
			},
			{
				"x": -1.3629728177,
				"y": -0.6468172001,
				"z": 0.2981050195,
				"element": "C" 
			},
			{
				"x": 2.9731962206,
				"y": -2.0282908871,
				"z": -0.5546718542,
				"element": "H" 
			},
			{
				"x": 2.5770950421,
				"y": -0.9041582674,
				"z": 0.7624219795,
				"element": "H" 
			},
			{
				"x": 2.7452247567,
				"y": -0.3092538329,
				"z": -0.8954864469,
				"element": "H" 
			},
			{
				"x": 0.6223668934,
				"y": -2.3368202986,
				"z": 0.0194451996,
				"element": "H" 
			},
			{
				"x": 0.9700362041,
				"y": -1.0797728445,
				"z": -2.6320733217,
				"element": "H" 
			},
			{
				"x": 0.0606553256,
				"y": -3.9823909756,
				"z": -4.0911929887,
				"element": "H" 
			},
			{
				"x": -1.3913731634,
				"y": -2.9667464946,
				"z": -4.0136732926,
				"element": "H" 
			},
			{
				"x": 1.3533925976,
				"y": 1.3160161737,
				"z": -0.2232142081,
				"element": "H" 
			},
			{
				"x": -0.6766370886,
				"y": 4.1192494149,
				"z": -0.166092911,
				"element": "H" 
			},
			{
				"x": -0.1828997387,
				"y": 3.8840634882,
				"z": 1.5055338483,
				"element": "H" 
			},
			{
				"x": 0.9619052319,
				"y": 3.5615553964,
				"z": 0.1968763464,
				"element": "H" 
			},
			{
				"x": -2.5244140358,
				"y": 3.2688196648,
				"z": 2.1105322973,
				"element": "H" 
			},
			{
				"x": -3.0172204931,
				"y": 3.5050041227,
				"z": 0.438524362,
				"element": "H" 
			},
			{
				"x": -3.838405448,
				"y": 2.2966291558,
				"z": 1.435177154,
				"element": "H" 
			},
			{
				"x": -3.2745611182,
				"y": 0.0695909746,
				"z": 0.9625184142,
				"element": "H" 
			},
			{
				"x": -1.6839104666,
				"y": -1.6834668363,
				"z": 0.241814996,
				"element": "H" 
			}
		],
		 "valence_orbital": [ 
			{
				"type": "occ",
				"energy": -0.30854,
				"method": "rhf"
			},
			{
				"type": "occ",
				"energy": -0.26407,
				"method": "rhf"
			},
			{
				"type": "occ",
				"energy": -0.25481,
				"method": "rhf"
			},
			{
				"type": "occ",
				"energy": -0.24242,
				"method": "rhf"
			},
			{
				"type": "occ",
				"energy": -0.22968,
				"method": "rhf"
			},
			{
				"type": "unocc",
				"energy": -0.00421,
				"method": "rhf"
			},
			{
				"type": "unocc",
				"energy": 0.00379,
				"method": "rhf"
			},
			{
				"type": "unocc",
				"energy": 0.01608,
				"method": "rhf"
			},
			{
				"type": "unocc",
				"energy": 0.02408,
				"method": "rhf"
			},
			{
				"type": "unocc",
				"energy": 0.08858,
				"method": "rhf"
			}
		],
		"cosmo_sigma_profile": { 
			"-0.025": 0.0,
			"-0.024": 0.0,
			"-0.023": 0.0,
			"-0.022": 0.0,
			"-0.021": 0.0,
			"-0.02": 0.0,
			"-0.019": 0.0,
			"-0.018": 0.0,
			"-0.017": 0.0,
			"-0.016": 0.0,
			"-0.015": 0.0,
			"-0.014": 0.0,
			"-0.013": 0.0,
			"-0.012": 0.319041525756,
			"-0.011": 0.583035316662,
			"-0.01": 1.29408323159,
			"-0.009": 3.30973323106,
			"-0.008": 4.82942431397,
			"-0.007": 5.03851519556,
			"-0.006": 6.20742201966,
			"-0.005": 10.2961670575,
			"-0.004": 25.940863385,
			"-0.003": 27.9628238779,
			"-0.002": 26.545221909,
			"-0.001": 28.2629097988,
			"0.0": 32.6366391655,
			"0.001": 23.1693669589,
			"0.002": 13.6485977649,
			"0.003": 14.2782812458,
			"0.004": 11.1403916353,
			"0.005": 15.2696327587,
			"0.006": 12.3257118118,
			"0.007": 4.4769993687,
			"0.008": 1.34912473405,
			"0.009": 1.38656294272,
			"0.01": 0.935592353659,
			"0.011": 1.31614699933,
			"0.012": 1.84880945392,
			"0.013": 4.3209191139,
			"0.014": 2.41308691272,
			"0.015": 0.117072634687,
			"0.016": 0.0,
			"0.017": 0.0,
			"0.018": 0.0,
			"0.019": 0.0,
			"0.02": 0.0,
			"0.021": 0.0,
			"0.022": 0.0,
			"0.023": 0.0,
			"0.024": 0.0,
			"0.025": 0.0
		}
	}
}
