{
	 "smiles": "OC(=O)C(CC(Br)=C)NC(=O)OCC1C2=C(C=CC=C2)C2=C1C=CC=C2", 
	 "Tm": 393.15, 
	 "num_atms": 44, 
	 "gaussian": { 
		 "optdone": 1, 
		 "sigma_profile": "yes", 
		 "theory": "DFT", 
		 "functional": "B3LYP", 
		 "basiset": "6-31G**", 
		 "properties": { 
			 "R2extent": 18553.2181, 
			 "electric_dipole_moment_norm": 4.6516728808, 
			 "electric_quadrupole_moment_norm": 20.73199168, 
			 "total_energy": -3700.04616959, 
			 "HOMO_LUMO_gap": 0.18445, 
			 "cosmo_polarized_energy": -22.6, 
			 "cosmo_cavitation_energy": 51.14, 
			 "cosmo_dispersion_energy": -34.5, 
			 "cosmo_repulsion_energy": 2.59, 
			 "cosmo_total_nonelectrostatic_energy": 19.23, 
			 "SMD_solvation_energy": 8.83 
		},
		"coords": [
			{
				"x": -2.4197772634,
				"y": 4.4434037582,
				"z": -0.0538707002,
				"element": "O" 
			},
			{
				"x": -3.5470491024,
				"y": 3.7053879456,
				"z": -0.2289663085,
				"element": "C" 
			},
			{
				"x": -4.5214902637,
				"y": 4.1697353289,
				"z": -0.7576681488,
				"element": "O" 
			},
			{
				"x": -3.4569869575,
				"y": 2.2541790412,
				"z": 0.2638692474,
				"element": "C" 
			},
			{
				"x": -3.5024329519,
				"y": 2.1367197782,
				"z": 1.8138481172,
				"element": "C" 
			},
			{
				"x": -4.7892082913,
				"y": 2.6086794187,
				"z": 2.4361650541,
				"element": "C" 
			},
			{
				"x": -4.8691103426,
				"y": 4.4887956696,
				"z": 2.8452169399,
				"element": "Br" 
			},
			{
				"x": -5.8318540298,
				"y": 1.831271023,
				"z": 2.7172715085,
				"element": "C" 
			},
			{
				"x": -2.197870637,
				"y": 1.6896471931,
				"z": -0.24861034,
				"element": "N" 
			},
			{
				"x": -1.9637844142,
				"y": 0.3312119646,
				"z": -0.1844832857,
				"element": "C" 
			},
			{
				"x": -2.5799480751,
				"y": -0.4610128415,
				"z": 0.5048176446,
				"element": "O" 
			},
			{
				"x": -0.9232682611,
				"y": 0.0163053442,
				"z": -0.9929467197,
				"element": "O" 
			},
			{
				"x": -0.5174765421,
				"y": -1.3715179442,
				"z": -0.991742579,
				"element": "C" 
			},
			{
				"x": 0.4270526025,
				"y": -1.6955109255,
				"z": 0.1764829067,
				"element": "C" 
			},
			{
				"x": 0.8191502174,
				"y": -3.1655159385,
				"z": 0.1727705667,
				"element": "C" 
			},
			{
				"x": 2.2199083879,
				"y": -3.2972321612,
				"z": 0.0792245222,
				"element": "C" 
			},
			{
				"x": 2.8096500179,
				"y": -4.5627166828,
				"z": 0.0543720247,
				"element": "C" 
			},
			{
				"x": 1.9883886762,
				"y": -5.6907605676,
				"z": 0.12140564,
				"element": "C" 
			},
			{
				"x": 0.5988498071,
				"y": -5.5587317053,
				"z": 0.2162141987,
				"element": "C" 
			},
			{
				"x": 0.0051699051,
				"y": -4.2910729852,
				"z": 0.2433585323,
				"element": "C" 
			},
			{
				"x": 2.8143447848,
				"y": -1.9544836787,
				"z": 0.0356462578,
				"element": "C" 
			},
			{
				"x": 1.7774207606,
				"y": -0.9993512871,
				"z": 0.0980912035,
				"element": "C" 
			},
			{
				"x": 2.0722382401,
				"y": 0.360377269,
				"z": 0.0818795912,
				"element": "C" 
			},
			{
				"x": 3.4101521452,
				"y": 0.7641146096,
				"z": 0.000467434,
				"element": "C" 
			},
			{
				"x": 4.4377350691,
				"y": -0.1830755385,
				"z": -0.0617766663,
				"element": "C" 
			},
			{
				"x": 4.1482276039,
				"y": -1.5492089533,
				"z": -0.0440118535,
				"element": "C" 
			},
			{
				"x": -1.7501646372,
				"y": 3.9205304427,
				"z": 0.414597451,
				"element": "H" 
			},
			{
				"x": -4.3248050605,
				"y": 1.7320581685,
				"z": -0.1503034665,
				"element": "H" 
			},
			{
				"x": -2.6493958649,
				"y": 2.671761731,
				"z": 2.2440692981,
				"element": "H" 
			},
			{
				"x": -3.3768186526,
				"y": 1.0759159786,
				"z": 2.0409568124,
				"element": "H" 
			},
			{
				"x": -6.7454941831,
				"y": 2.2142283013,
				"z": 3.154969746,
				"element": "H" 
			},
			{
				"x": -5.7796490167,
				"y": 0.7672534978,
				"z": 2.5015079612,
				"element": "H" 
			},
			{
				"x": -1.8132251105,
				"y": 2.1210893857,
				"z": -1.0805354634,
				"element": "H" 
			},
			{
				"x": -0.0134611598,
				"y": -1.5147851946,
				"z": -1.9490573703,
				"element": "H" 
			},
			{
				"x": -1.4102158507,
				"y": -1.9982135675,
				"z": -0.9444974545,
				"element": "H" 
			},
			{
				"x": -0.10111217,
				"y": -1.4400806195,
				"z": 1.1047051456,
				"element": "H" 
			},
			{
				"x": 3.8882472189,
				"y": -4.6734806128,
				"z": -0.0146107816,
				"element": "H" 
			},
			{
				"x": 2.4335242937,
				"y": -6.6814600599,
				"z": 0.1029868148,
				"element": "H" 
			},
			{
				"x": -0.0242138187,
				"y": -6.4465036745,
				"z": 0.2725242184,
				"element": "H" 
			},
			{
				"x": -1.0743394264,
				"y": -4.1954298991,
				"z": 0.3274558441,
				"element": "H" 
			},
			{
				"x": 1.2778697899,
				"y": 1.0986841766,
				"z": 0.1263912395,
				"element": "H" 
			},
			{
				"x": 3.6529981766,
				"y": 1.8227630364,
				"z": -0.0131064902,
				"element": "H" 
			},
			{
				"x": 5.4707315143,
				"y": 0.1474047966,
				"z": -0.1223993393,
				"element": "H" 
			},
			{
				"x": 4.950592872,
				"y": -2.2803730217,
				"z": -0.0896789533,
				"element": "H" 
			}
		],
		 "valence_orbital": [ 
			{
				"type": "occ",
				"energy": -0.2803,
				"method": "rhf"
			},
			{
				"type": "occ",
				"energy": -0.25646,
				"method": "rhf"
			},
			{
				"type": "occ",
				"energy": -0.25224,
				"method": "rhf"
			},
			{
				"type": "occ",
				"energy": -0.24996,
				"method": "rhf"
			},
			{
				"type": "occ",
				"energy": -0.2215,
				"method": "rhf"
			},
			{
				"type": "unocc",
				"energy": -0.03705,
				"method": "rhf"
			},
			{
				"type": "unocc",
				"energy": -0.01879,
				"method": "rhf"
			},
			{
				"type": "unocc",
				"energy": -0.01166,
				"method": "rhf"
			},
			{
				"type": "unocc",
				"energy": -0.00977,
				"method": "rhf"
			},
			{
				"type": "unocc",
				"energy": 0.00124,
				"method": "rhf"
			}
		],
		"cosmo_sigma_profile": { 
			"-0.025": 0.0,
			"-0.024": 0.0,
			"-0.023": 0.0,
			"-0.022": 0.0,
			"-0.021": 0.0,
			"-0.02": 0.0,
			"-0.019": 0.0,
			"-0.018": 0.17393371789,
			"-0.017": 0.690006114389,
			"-0.016": 1.12115841691,
			"-0.015": 1.4543330782,
			"-0.014": 2.48472733984,
			"-0.013": 2.64428854912,
			"-0.012": 2.98249781478,
			"-0.011": 2.31916567567,
			"-0.01": 1.14632996677,
			"-0.009": 1.27015349183,
			"-0.008": 3.16385028228,
			"-0.007": 6.66786525059,
			"-0.006": 19.4937206692,
			"-0.005": 30.4816262963,
			"-0.004": 35.5281017855,
			"-0.003": 34.545958913,
			"-0.002": 27.5347103248,
			"-0.001": 24.7315630083,
			"0.0": 22.91779134,
			"0.001": 21.9723063469,
			"0.002": 25.3034774085,
			"0.003": 30.6454738174,
			"0.004": 31.5241918957,
			"0.005": 27.955529485,
			"0.006": 15.5359554821,
			"0.007": 6.00118506128,
			"0.008": 5.11235635547,
			"0.009": 5.19934894762,
			"0.01": 6.80593425338,
			"0.011": 7.36141929044,
			"0.012": 5.46733715746,
			"0.013": 0.193616313406,
			"0.014": 0.0,
			"0.015": 0.0,
			"0.016": 0.0,
			"0.017": 0.0,
			"0.018": 0.0,
			"0.019": 0.0,
			"0.02": 0.0,
			"0.021": 0.0,
			"0.022": 0.0,
			"0.023": 0.0,
			"0.024": 0.0,
			"0.025": 0.0
		}
	}
}
