{
	 "smiles": "CC(=O)C(=N/NC1=CC=CC(=C1)C(F)(F)F)C(=O)C(F)(F)F", 
	 "Tm": 359.15, 
	 "num_atms": 30, 
	 "gaussian": { 
		 "optdone": 1, 
		 "sigma_profile": "yes", 
		 "theory": "DFT", 
		 "functional": "B3LYP", 
		 "basiset": "6-31G**", 
		 "properties": { 
			 "R2extent": 8180.1401, 
			 "electric_dipole_moment_norm": 4.69200124147, 
			 "electric_quadrupole_moment_norm": 6.25655693493, 
			 "total_energy": -1321.06379144, 
			 "HOMO_LUMO_gap": 0.14145, 
			 "cosmo_polarized_energy": -10.97, 
			 "cosmo_cavitation_energy": 39.06, 
			 "cosmo_dispersion_energy": -25.94, 
			 "cosmo_repulsion_energy": 1.85, 
			 "cosmo_total_nonelectrostatic_energy": 14.98, 
			 "SMD_solvation_energy": 9.81 
		},
		"coords": [
			{
				"x": 4.1239321686,
				"y": -0.5135212577,
				"z": -1.7849909969,
				"element": "C" 
			},
			{
				"x": 2.8653448499,
				"y": -0.767682299,
				"z": -0.9963069103,
				"element": "C" 
			},
			{
				"x": 2.8094804504,
				"y": -1.7375093484,
				"z": -0.2250690759,
				"element": "O" 
			},
			{
				"x": 1.6818029158,
				"y": 0.1195324883,
				"z": -1.1197113503,
				"element": "C" 
			},
			{
				"x": 0.5561228884,
				"y": -0.0692126733,
				"z": -0.442857253,
				"element": "N" 
			},
			{
				"x": 0.4104260328,
				"y": -1.0554342712,
				"z": 0.3844745804,
				"element": "N" 
			},
			{
				"x": -0.7956390375,
				"y": -1.2297826034,
				"z": 1.0892617506,
				"element": "C" 
			},
			{
				"x": -0.8925963339,
				"y": -2.3167068197,
				"z": 1.9655077983,
				"element": "C" 
			},
			{
				"x": -2.0695061361,
				"y": -2.5176387745,
				"z": 2.6841642396,
				"element": "C" 
			},
			{
				"x": -3.1451820669,
				"y": -1.6449222577,
				"z": 2.5327708266,
				"element": "C" 
			},
			{
				"x": -3.03446133,
				"y": -0.5626390899,
				"z": 1.6516117931,
				"element": "C" 
			},
			{
				"x": -1.8672956357,
				"y": -0.3437103949,
				"z": 0.9258432137,
				"element": "C" 
			},
			{
				"x": -4.2206963552,
				"y": 0.3463663683,
				"z": 1.4491065927,
				"element": "C" 
			},
			{
				"x": -3.8572169581,
				"y": 1.5574931376,
				"z": 0.9819270476,
				"element": "F" 
			},
			{
				"x": -4.8992167348,
				"y": 0.5374330163,
				"z": 2.6022661076,
				"element": "F" 
			},
			{
				"x": -5.095285814,
				"y": -0.1793986856,
				"z": 0.5618260241,
				"element": "F" 
			},
			{
				"x": 1.6519294151,
				"y": 1.2934491911,
				"z": -2.0081381567,
				"element": "C" 
			},
			{
				"x": 2.5755255388,
				"y": 1.6514658713,
				"z": -2.7165420501,
				"element": "O" 
			},
			{
				"x": 0.3395570326,
				"y": 2.143630073,
				"z": -2.0467713064,
				"element": "C" 
			},
			{
				"x": 0.4911840764,
				"y": 3.1598999434,
				"z": -2.9012850182,
				"element": "F" 
			},
			{
				"x": 0.0477682882,
				"y": 2.6600116404,
				"z": -0.8355664428,
				"element": "F" 
			},
			{
				"x": -0.7142803912,
				"y": 1.4094592561,
				"z": -2.4579671555,
				"element": "F" 
			},
			{
				"x": 3.9191625761,
				"y": -0.5165911431,
				"z": -2.8591943969,
				"element": "H" 
			},
			{
				"x": 4.5298016357,
				"y": 0.4776218216,
				"z": -1.5642483272,
				"element": "H" 
			},
			{
				"x": 4.8459516865,
				"y": -1.2902619557,
				"z": -1.5292005603,
				"element": "H" 
			},
			{
				"x": 1.2128554465,
				"y": -1.6942387702,
				"z": 0.4954166164,
				"element": "H" 
			},
			{
				"x": -0.0520944752,
				"y": -2.9949380322,
				"z": 2.0833438493,
				"element": "H" 
			},
			{
				"x": -2.1438456211,
				"y": -3.3577474057,
				"z": 3.3670554512,
				"element": "H" 
			},
			{
				"x": -4.059524473,
				"y": -1.7923404083,
				"z": 3.0964008786,
				"element": "H" 
			},
			{
				"x": -1.773303639,
				"y": 0.4961133833,
				"z": 0.2490722308,
				"element": "H" 
			}
		],
		 "valence_orbital": [ 
			{
				"type": "occ",
				"energy": -0.31282,
				"method": "rhf"
			},
			{
				"type": "occ",
				"energy": -0.28686,
				"method": "rhf"
			},
			{
				"type": "occ",
				"energy": -0.28646,
				"method": "rhf"
			},
			{
				"type": "occ",
				"energy": -0.2653,
				"method": "rhf"
			},
			{
				"type": "occ",
				"energy": -0.24627,
				"method": "rhf"
			},
			{
				"type": "unocc",
				"energy": -0.10482,
				"method": "rhf"
			},
			{
				"type": "unocc",
				"energy": -0.05338,
				"method": "rhf"
			},
			{
				"type": "unocc",
				"energy": -0.04318,
				"method": "rhf"
			},
			{
				"type": "unocc",
				"energy": -0.01505,
				"method": "rhf"
			},
			{
				"type": "unocc",
				"energy": 0.05789,
				"method": "rhf"
			}
		],
		"cosmo_sigma_profile": { 
			"-0.025": 0.0,
			"-0.024": 0.0,
			"-0.023": 0.0,
			"-0.022": 0.0,
			"-0.021": 0.0,
			"-0.02": 0.0,
			"-0.019": 0.0,
			"-0.018": 0.0,
			"-0.017": 0.0,
			"-0.016": 0.0,
			"-0.015": 0.0,
			"-0.014": 0.0330222999065,
			"-0.013": 0.692351499197,
			"-0.012": 0.920236872138,
			"-0.011": 1.12165061167,
			"-0.01": 1.02109043832,
			"-0.009": 1.68421983202,
			"-0.008": 3.45753751338,
			"-0.007": 6.78671254109,
			"-0.006": 12.4509951205,
			"-0.005": 18.0005530021,
			"-0.004": 19.1527549067,
			"-0.003": 17.4401878609,
			"-0.002": 22.1594875761,
			"-0.001": 24.3260115004,
			"0.0": 27.3808479894,
			"0.001": 31.8744276459,
			"0.002": 55.5531634512,
			"0.003": 41.0831905981,
			"0.004": 3.71715303783,
			"0.005": 3.8295428563,
			"0.006": 3.02911021585,
			"0.007": 3.07792714406,
			"0.008": 3.20484495768,
			"0.009": 3.73425920275,
			"0.01": 4.26040427393,
			"0.011": 3.21416020713,
			"0.012": 0.958068245096,
			"0.013": 0.072025551455,
			"0.014": 0.0,
			"0.015": 0.0,
			"0.016": 0.0,
			"0.017": 0.0,
			"0.018": 0.0,
			"0.019": 0.0,
			"0.02": 0.0,
			"0.021": 0.0,
			"0.022": 0.0,
			"0.023": 0.0,
			"0.024": 0.0,
			"0.025": 0.0
		}
	}
}
