{
	 "smiles": "CC(C)C(Cl)C(O)=O", 
	 "Tm": 307.15, 
	 "num_atms": 17, 
	 "gaussian": { 
		 "optdone": 1, 
		 "sigma_profile": "yes", 
		 "theory": "DFT", 
		 "functional": "B3LYP", 
		 "basiset": "6-31G**", 
		 "properties": { 
			 "R2extent": 1354.4215, 
			 "electric_dipole_moment_norm": 3.11570340212, 
			 "electric_quadrupole_moment_norm": 6.69646307389, 
			 "total_energy": -806.619156584, 
			 "HOMO_LUMO_gap": 0.27501, 
			 "cosmo_polarized_energy": -10.36, 
			 "cosmo_cavitation_energy": 21.65, 
			 "cosmo_dispersion_energy": -15.63, 
			 "cosmo_repulsion_energy": 1.31, 
			 "cosmo_total_nonelectrostatic_energy": 7.34, 
			 "SMD_solvation_energy": 4.75 
		},
		"coords": [
			{
				"x": 1.0006662149,
				"y": -0.7061169626,
				"z": -0.7240193778,
				"element": "C" 
			},
			{
				"x": -0.2228862676,
				"y": -0.9495593299,
				"z": 0.1695044053,
				"element": "C" 
			},
			{
				"x": -0.0994774521,
				"y": -2.2577743102,
				"z": 0.9613113199,
				"element": "C" 
			},
			{
				"x": -0.5409200751,
				"y": 0.245739784,
				"z": 1.1032906129,
				"element": "C" 
			},
			{
				"x": 0.8056801292,
				"y": 0.6150310376,
				"z": 2.2549130821,
				"element": "Cl" 
			},
			{
				"x": -0.8927461976,
				"y": 1.4952743322,
				"z": 0.2996688779,
				"element": "C" 
			},
			{
				"x": -2.1694393859,
				"y": 1.3893876383,
				"z": -0.1483159928,
				"element": "O" 
			},
			{
				"x": -0.1769526832,
				"y": 2.4305170835,
				"z": 0.0420603156,
				"element": "O" 
			},
			{
				"x": 1.9135779038,
				"y": -0.6377331424,
				"z": -0.1255506117,
				"element": "H" 
			},
			{
				"x": 0.9112302625,
				"y": 0.2184325306,
				"z": -1.3016429707,
				"element": "H" 
			},
			{
				"x": 1.1183400938,
				"y": -1.5358110465,
				"z": -1.427890666,
				"element": "H" 
			},
			{
				"x": -1.1120609572,
				"y": -1.0249008235,
				"z": -0.4724031594,
				"element": "H" 
			},
			{
				"x": 0.7643059552,
				"y": -2.231935014,
				"z": 1.6319170987,
				"element": "H" 
			},
			{
				"x": -0.993366599,
				"y": -2.4485753454,
				"z": 1.5649376056,
				"element": "H" 
			},
			{
				"x": 0.0297848455,
				"y": -3.1012919124,
				"z": 0.276014144,
				"element": "H" 
			},
			{
				"x": -1.4020271003,
				"y": -0.0086814982,
				"z": 1.7245183688,
				"element": "H" 
			},
			{
				"x": -2.3329086868,
				"y": 2.1785969788,
				"z": -0.6921130524,
				"element": "H" 
			}
		],
		 "valence_orbital": [ 
			{
				"type": "occ",
				"energy": -0.34533,
				"method": "rhf"
			},
			{
				"type": "occ",
				"energy": -0.32906,
				"method": "rhf"
			},
			{
				"type": "occ",
				"energy": -0.30183,
				"method": "rhf"
			},
			{
				"type": "occ",
				"energy": -0.29778,
				"method": "rhf"
			},
			{
				"type": "occ",
				"energy": -0.28618,
				"method": "rhf"
			},
			{
				"type": "unocc",
				"energy": -0.01117,
				"method": "rhf"
			},
			{
				"type": "unocc",
				"energy": 0.02679,
				"method": "rhf"
			},
			{
				"type": "unocc",
				"energy": 0.06815,
				"method": "rhf"
			},
			{
				"type": "unocc",
				"energy": 0.08847,
				"method": "rhf"
			},
			{
				"type": "unocc",
				"energy": 0.12677,
				"method": "rhf"
			}
		],
		"cosmo_sigma_profile": { 
			"-0.025": 0.0,
			"-0.024": 0.0,
			"-0.023": 0.0,
			"-0.022": 0.0,
			"-0.021": 0.0,
			"-0.02": 0.0,
			"-0.019": 0.401418007885,
			"-0.018": 1.20188601033,
			"-0.017": 0.937085744542,
			"-0.016": 0.622026720657,
			"-0.015": 0.659429282569,
			"-0.014": 0.687440641164,
			"-0.013": 0.801312596653,
			"-0.012": 0.791073253854,
			"-0.011": 0.777244907609,
			"-0.01": 0.299181491917,
			"-0.009": 0.97943493362,
			"-0.008": 3.56986870611,
			"-0.007": 3.59660625905,
			"-0.006": 3.02163445115,
			"-0.005": 3.47142755458,
			"-0.004": 11.1730511853,
			"-0.003": 17.4319004543,
			"-0.002": 14.8926521368,
			"-0.001": 15.8691635728,
			"0.0": 18.6830366417,
			"0.001": 15.8809825116,
			"0.002": 6.93489453739,
			"0.003": 5.96407141889,
			"0.004": 8.67581548837,
			"0.005": 7.82266781221,
			"0.006": 5.67135150331,
			"0.007": 3.56040249192,
			"0.008": 3.37686968334,
			"0.009": 2.96571038256,
			"0.01": 2.92576665985,
			"0.011": 5.19126214642,
			"0.012": 1.94818123183,
			"0.013": 0.22538052582,
			"0.014": 0.0,
			"0.015": 0.0,
			"0.016": 0.0,
			"0.017": 0.0,
			"0.018": 0.0,
			"0.019": 0.0,
			"0.02": 0.0,
			"0.021": 0.0,
			"0.022": 0.0,
			"0.023": 0.0,
			"0.024": 0.0,
			"0.025": 0.0
		}
	}
}
