{
	 "smiles": "CC(CC(O)=O)(CC(O)=O)C1=CC=CC=C1", 
	 "Tm": 410.15, 
	 "num_atms": 30, 
	 "gaussian": { 
		 "optdone": 1, 
		 "sigma_profile": "yes", 
		 "theory": "DFT", 
		 "functional": "B3LYP", 
		 "basiset": "6-31G**", 
		 "properties": { 
			 "R2extent": 3840.7609, 
			 "electric_dipole_moment_norm": 5.1066778095, 
			 "electric_quadrupole_moment_norm": 18.7741083213, 
			 "total_energy": -766.636501366, 
			 "HOMO_LUMO_gap": 0.22882, 
			 "cosmo_polarized_energy": -19.28, 
			 "cosmo_cavitation_energy": 32.52, 
			 "cosmo_dispersion_energy": -22.47, 
			 "cosmo_repulsion_energy": 1.74, 
			 "cosmo_total_nonelectrostatic_energy": 11.79, 
			 "SMD_solvation_energy": 7.52 
		},
		"coords": [
			{
				"x": 1.1532502077,
				"y": 0.2138384054,
				"z": -1.709812083,
				"element": "C" 
			},
			{
				"x": -0.1283704152,
				"y": -0.1514132346,
				"z": -0.9367714353,
				"element": "C" 
			},
			{
				"x": -1.3800161886,
				"y": 0.4085584606,
				"z": -1.7016438326,
				"element": "C" 
			},
			{
				"x": -1.4995783409,
				"y": -0.0518081546,
				"z": -3.1402371814,
				"element": "C" 
			},
			{
				"x": -2.3262670822,
				"y": -1.1209745645,
				"z": -3.2658188984,
				"element": "O" 
			},
			{
				"x": -0.9347424374,
				"y": 0.4457099569,
				"z": -4.089368635,
				"element": "O" 
			},
			{
				"x": -0.2370156022,
				"y": -1.7061651191,
				"z": -0.854955552,
				"element": "C" 
			},
			{
				"x": 0.9788616895,
				"y": -2.4339393549,
				"z": -0.2818263025,
				"element": "C" 
			},
			{
				"x": 1.3900459324,
				"y": -2.0599615247,
				"z": 0.9552717635,
				"element": "O" 
			},
			{
				"x": 1.5505750187,
				"y": -3.3198240617,
				"z": -0.8686530995,
				"element": "O" 
			},
			{
				"x": -0.1686233205,
				"y": 0.4853264039,
				"z": 0.4710614582,
				"element": "C" 
			},
			{
				"x": 0.8033125875,
				"y": 1.3981553067,
				"z": 0.9120744002,
				"element": "C" 
			},
			{
				"x": 0.7262215726,
				"y": 1.9831961896,
				"z": 2.1786077479,
				"element": "C" 
			},
			{
				"x": -0.3243196779,
				"y": 1.6703184414,
				"z": 3.0393972783,
				"element": "C" 
			},
			{
				"x": -1.3004436119,
				"y": 0.7641836482,
				"z": 2.6217416582,
				"element": "C" 
			},
			{
				"x": -1.2227481202,
				"y": 0.1834531336,
				"z": 1.3559169944,
				"element": "C" 
			},
			{
				"x": 2.0473286006,
				"y": -0.0933267364,
				"z": -1.1596054787,
				"element": "H" 
			},
			{
				"x": 1.1686860773,
				"y": -0.2873729149,
				"z": -2.6794192671,
				"element": "H" 
			},
			{
				"x": 1.2157918729,
				"y": 1.28846046,
				"z": -1.9022134259,
				"element": "H" 
			},
			{
				"x": -1.3044998636,
				"y": 1.4990060175,
				"z": -1.7211678482,
				"element": "H" 
			},
			{
				"x": -2.2922432496,
				"y": 0.1352148089,
				"z": -1.1666087664,
				"element": "H" 
			},
			{
				"x": -2.3265795254,
				"y": -1.3547616912,
				"z": -4.2101604227,
				"element": "H" 
			},
			{
				"x": -1.1166526651,
				"y": -1.9935454583,
				"z": -0.2668180315,
				"element": "H" 
			},
			{
				"x": -0.380774589,
				"y": -2.1193555959,
				"z": -1.8538916172,
				"element": "H" 
			},
			{
				"x": 0.8484591975,
				"y": -1.3247707808,
				"z": 1.2860399183,
				"element": "H" 
			},
			{
				"x": 1.6352016671,
				"y": 1.6597675008,
				"z": 0.2693908338,
				"element": "H" 
			},
			{
				"x": 1.4958528886,
				"y": 2.6836927993,
				"z": 2.4893611868,
				"element": "H" 
			},
			{
				"x": -0.3815087821,
				"y": 2.1231267384,
				"z": 4.0246028022,
				"element": "H" 
			},
			{
				"x": -2.1258307529,
				"y": 0.5075895094,
				"z": 3.279392228,
				"element": "H" 
			},
			{
				"x": -2.0018730876,
				"y": -0.511778589,
				"z": 1.0561136076,
				"element": "H" 
			}
		],
		 "valence_orbital": [ 
			{
				"type": "occ",
				"energy": -0.30672,
				"method": "rhf"
			},
			{
				"type": "occ",
				"energy": -0.28543,
				"method": "rhf"
			},
			{
				"type": "occ",
				"energy": -0.27163,
				"method": "rhf"
			},
			{
				"type": "occ",
				"energy": -0.26673,
				"method": "rhf"
			},
			{
				"type": "occ",
				"energy": -0.25984,
				"method": "rhf"
			},
			{
				"type": "unocc",
				"energy": -0.03102,
				"method": "rhf"
			},
			{
				"type": "unocc",
				"energy": -0.02419,
				"method": "rhf"
			},
			{
				"type": "unocc",
				"energy": -0.00478,
				"method": "rhf"
			},
			{
				"type": "unocc",
				"energy": 0.01578,
				"method": "rhf"
			},
			{
				"type": "unocc",
				"energy": 0.06516,
				"method": "rhf"
			}
		],
		"cosmo_sigma_profile": { 
			"-0.025": 0.0,
			"-0.024": 0.0,
			"-0.023": 0.0,
			"-0.022": 0.0,
			"-0.021": 0.0,
			"-0.02": 0.0,
			"-0.019": 0.00545489307995,
			"-0.018": 0.551445519967,
			"-0.017": 1.0586564529,
			"-0.016": 0.894176604956,
			"-0.015": 0.764481069602,
			"-0.014": 0.480849343734,
			"-0.013": 0.98725552527,
			"-0.012": 0.87022456159,
			"-0.011": 0.46941426665,
			"-0.01": 1.82610493808,
			"-0.009": 2.99772437075,
			"-0.008": 5.83743521496,
			"-0.007": 6.4771640669,
			"-0.006": 14.2832024081,
			"-0.005": 21.7106567145,
			"-0.004": 25.6606124508,
			"-0.003": 21.2505414412,
			"-0.002": 16.2124070552,
			"-0.001": 16.2075481354,
			"0.0": 14.8150126265,
			"0.001": 12.5595309589,
			"0.002": 11.2800296306,
			"0.003": 11.398748955,
			"0.004": 11.5063592834,
			"0.005": 7.29410707645,
			"0.006": 4.17425302024,
			"0.007": 5.76772908326,
			"0.008": 4.7577484979,
			"0.009": 5.72743498325,
			"0.01": 5.91443844738,
			"0.011": 9.43441760625,
			"0.012": 9.75492874799,
			"0.013": 3.28828535356,
			"0.014": 0.197952500864,
			"0.015": 0.0,
			"0.016": 0.0,
			"0.017": 0.0,
			"0.018": 0.0,
			"0.019": 0.0,
			"0.02": 0.0,
			"0.021": 0.0,
			"0.022": 0.0,
			"0.023": 0.0,
			"0.024": 0.0,
			"0.025": 0.0
		}
	}
}
