{
	 "smiles": "NC1=CNN=C1", 
	 "Tm": 354.15, 
	 "num_atms": 11, 
	 "gaussian": { 
		 "optdone": 1, 
		 "sigma_profile": "yes", 
		 "theory": "DFT", 
		 "functional": "B3LYP", 
		 "basiset": "6-31G**", 
		 "properties": { 
			 "R2extent": 704.1039, 
			 "electric_dipole_moment_norm": 2.74355713992, 
			 "electric_quadrupole_moment_norm": 9.19748512692, 
			 "total_energy": -281.550767945, 
			 "HOMO_LUMO_gap": 0.22434, 
			 "cosmo_polarized_energy": -13.13, 
			 "cosmo_cavitation_energy": 14.88, 
			 "cosmo_dispersion_energy": -11.49, 
			 "cosmo_repulsion_energy": 1.01, 
			 "cosmo_total_nonelectrostatic_energy": 4.4, 
			 "SMD_solvation_energy": 2.27 
		},
		"coords": [
			{
				"x": -2.5796228843,
				"y": -0.3690772221,
				"z": -1.0775657054,
				"element": "N" 
			},
			{
				"x": -1.1734397301,
				"y": -0.3491390431,
				"z": -1.0862562864,
				"element": "C" 
			},
			{
				"x": -0.3268942895,
				"y": 0.2430966579,
				"z": -2.0096367321,
				"element": "C" 
			},
			{
				"x": 0.9413983124,
				"y": 0.054315021,
				"z": -1.5330992591,
				"element": "N" 
			},
			{
				"x": 0.9801792129,
				"y": -0.6179953725,
				"z": -0.3731108375,
				"element": "N" 
			},
			{
				"x": -0.3010671821,
				"y": -0.865891109,
				"z": -0.0938576831,
				"element": "C" 
			},
			{
				"x": -2.9495812145,
				"y": -1.1743221774,
				"z": -0.5868862042,
				"element": "H" 
			},
			{
				"x": -2.9811083881,
				"y": -0.3347900013,
				"z": -2.0068086173,
				"element": "H" 
			},
			{
				"x": -0.523806206,
				"y": 0.7710498175,
				"z": -2.9308203486,
				"element": "H" 
			},
			{
				"x": 1.8051252257,
				"y": 0.3559272321,
				"z": -1.954073659,
				"element": "H" 
			},
			{
				"x": -0.5633828565,
				"y": -1.4021738031,
				"z": 0.8089153327,
				"element": "H" 
			}
		],
		 "valence_orbital": [ 
			{
				"type": "occ",
				"energy": -0.38427,
				"method": "rhf"
			},
			{
				"type": "occ",
				"energy": -0.32219,
				"method": "rhf"
			},
			{
				"type": "occ",
				"energy": -0.27853,
				"method": "rhf"
			},
			{
				"type": "occ",
				"energy": -0.24246,
				"method": "rhf"
			},
			{
				"type": "occ",
				"energy": -0.19452,
				"method": "rhf"
			},
			{
				"type": "unocc",
				"energy": 0.02982,
				"method": "rhf"
			},
			{
				"type": "unocc",
				"energy": 0.07508,
				"method": "rhf"
			},
			{
				"type": "unocc",
				"energy": 0.08811,
				"method": "rhf"
			},
			{
				"type": "unocc",
				"energy": 0.1062,
				"method": "rhf"
			},
			{
				"type": "unocc",
				"energy": 0.13393,
				"method": "rhf"
			}
		],
		"cosmo_sigma_profile": { 
			"-0.025": 0.0,
			"-0.024": 0.0,
			"-0.023": 0.0,
			"-0.022": 0.0,
			"-0.021": 0.0,
			"-0.02": 0.0,
			"-0.019": 0.0,
			"-0.018": 0.0,
			"-0.017": 0.00671516866057,
			"-0.016": 1.0595011362,
			"-0.015": 1.6595935875,
			"-0.014": 0.898830104993,
			"-0.013": 1.06608610808,
			"-0.012": 2.22110436562,
			"-0.011": 3.4812001966,
			"-0.01": 4.50518457469,
			"-0.009": 3.40498359938,
			"-0.008": 5.99473414358,
			"-0.007": 6.21198952602,
			"-0.006": 6.51347712966,
			"-0.005": 5.5401443373,
			"-0.004": 4.40077743149,
			"-0.003": 4.16469431022,
			"-0.002": 2.5384222655,
			"-0.001": 3.42214346731,
			"0.0": 5.05003820472,
			"0.001": 3.61459180276,
			"0.002": 3.38342396599,
			"0.003": 3.6264598893,
			"0.004": 4.55096782238,
			"0.005": 6.21464704206,
			"0.006": 8.08336723784,
			"0.007": 4.82480066692,
			"0.008": 3.6835553006,
			"0.009": 3.64478954582,
			"0.01": 1.87176443915,
			"0.011": 1.92164260571,
			"0.012": 1.89369131222,
			"0.013": 2.30495830714,
			"0.014": 1.51547103873,
			"0.015": 2.14951655807,
			"0.016": 1.66510456033,
			"0.017": 0.913040641449,
			"0.018": 0.0,
			"0.019": 0.0,
			"0.02": 0.0,
			"0.021": 0.0,
			"0.022": 0.0,
			"0.023": 0.0,
			"0.024": 0.0,
			"0.025": 0.0
		}
	}
}
