{
	 "smiles": "OC1=CC2=C(NC3=C(C=CC=C3)C2=O)C=C1", 
	 "Tm": 593.15, 
	 "num_atms": 25, 
	 "gaussian": { 
		 "optdone": 1, 
		 "sigma_profile": "yes", 
		 "theory": "DFT", 
		 "functional": "B3LYP", 
		 "basiset": "6-31G**", 
		 "properties": { 
			 "R2extent": 3965.3043, 
			 "electric_dipole_moment_norm": 3.88392907247, 
			 "electric_quadrupole_moment_norm": 9.27134550483, 
			 "total_energy": -706.033735711, 
			 "HOMO_LUMO_gap": 0.14052, 
			 "cosmo_polarized_energy": -18.92, 
			 "cosmo_cavitation_energy": 29.12, 
			 "cosmo_dispersion_energy": -21.98, 
			 "cosmo_repulsion_energy": 1.65, 
			 "cosmo_total_nonelectrostatic_energy": 8.78, 
			 "SMD_solvation_energy": 5.19 
		},
		"coords": [
			{
				"x": -2.1856300157,
				"y": -4.4754914126,
				"z": -1.1989494037,
				"element": "O" 
			},
			{
				"x": -1.4116526682,
				"y": -3.3492167483,
				"z": -1.250696926,
				"element": "C" 
			},
			{
				"x": -1.0842890589,
				"y": -2.5921512979,
				"z": -0.1374618856,
				"element": "C" 
			},
			{
				"x": -0.2832292934,
				"y": -1.4441250162,
				"z": -0.2615802938,
				"element": "C" 
			},
			{
				"x": 0.1912734195,
				"y": -1.0603037726,
				"z": -1.5318495228,
				"element": "C" 
			},
			{
				"x": 0.9805970088,
				"y": 0.0698273461,
				"z": -1.6599869663,
				"element": "N" 
			},
			{
				"x": 1.3408721415,
				"y": 0.8637420268,
				"z": -0.5922523284,
				"element": "C" 
			},
			{
				"x": 0.8969293174,
				"y": 0.5324564518,
				"z": 0.7087014826,
				"element": "C" 
			},
			{
				"x": 1.2728036495,
				"y": 1.3526096242,
				"z": 1.7879888766,
				"element": "C" 
			},
			{
				"x": 2.0653236628,
				"y": 2.4708295273,
				"z": 1.5934075184,
				"element": "C" 
			},
			{
				"x": 2.5015260835,
				"y": 2.791379019,
				"z": 0.2945070406,
				"element": "C" 
			},
			{
				"x": 2.147936451,
				"y": 2.003122158,
				"z": -0.7879316004,
				"element": "C" 
			},
			{
				"x": 0.0509241814,
				"y": -0.654298185,
				"z": 0.9425603204,
				"element": "C" 
			},
			{
				"x": -0.3524906822,
				"y": -0.9709827441,
				"z": 2.0648721764,
				"element": "O" 
			},
			{
				"x": -0.1460827772,
				"y": -1.8355315171,
				"z": -2.659045405,
				"element": "C" 
			},
			{
				"x": -0.9354439638,
				"y": -2.96259317,
				"z": -2.5197574014,
				"element": "C" 
			},
			{
				"x": -2.4469238771,
				"y": -4.6337566849,
				"z": -0.2823438742,
				"element": "H" 
			},
			{
				"x": -1.4278549129,
				"y": -2.8508196019,
				"z": 0.8608376648,
				"element": "H" 
			},
			{
				"x": 1.3081480332,
				"y": 0.3243865172,
				"z": -2.5798792924,
				"element": "H" 
			},
			{
				"x": 0.9138976488,
				"y": 1.0678285899,
				"z": 2.7717101298,
				"element": "H" 
			},
			{
				"x": 2.3500981238,
				"y": 3.0977264713,
				"z": 2.4323737303,
				"element": "H" 
			},
			{
				"x": 3.1237418255,
				"y": 3.667178737,
				"z": 0.1334002964,
				"element": "H" 
			},
			{
				"x": 2.4875980219,
				"y": 2.2549843525,
				"z": -1.7897196712,
				"element": "H" 
			},
			{
				"x": 0.2165973056,
				"y": -1.5452148776,
				"z": -3.6419709963,
				"element": "H" 
			},
			{
				"x": -1.2007696249,
				"y": -3.5663857927,
				"z": -3.3813336688,
				"element": "H" 
			}
		],
		 "valence_orbital": [ 
			{
				"type": "occ",
				"energy": -0.26014,
				"method": "rhf"
			},
			{
				"type": "occ",
				"energy": -0.25566,
				"method": "rhf"
			},
			{
				"type": "occ",
				"energy": -0.24503,
				"method": "rhf"
			},
			{
				"type": "occ",
				"energy": -0.23559,
				"method": "rhf"
			},
			{
				"type": "occ",
				"energy": -0.19706,
				"method": "rhf"
			},
			{
				"type": "unocc",
				"energy": -0.05654,
				"method": "rhf"
			},
			{
				"type": "unocc",
				"energy": -0.01189,
				"method": "rhf"
			},
			{
				"type": "unocc",
				"energy": -0.00282,
				"method": "rhf"
			},
			{
				"type": "unocc",
				"energy": 0.02505,
				"method": "rhf"
			},
			{
				"type": "unocc",
				"energy": 0.06237,
				"method": "rhf"
			}
		],
		"cosmo_sigma_profile": { 
			"-0.025": 0.0,
			"-0.024": 0.0,
			"-0.023": 0.0,
			"-0.022": 0.0,
			"-0.021": 0.0,
			"-0.02": 0.0,
			"-0.019": 0.0,
			"-0.018": 0.420326955901,
			"-0.017": 1.08718190337,
			"-0.016": 1.58311797051,
			"-0.015": 2.5839773836,
			"-0.014": 2.94856422482,
			"-0.013": 2.8619892049,
			"-0.012": 1.87026224333,
			"-0.011": 2.51210408575,
			"-0.01": 3.0862731448,
			"-0.009": 2.08049939863,
			"-0.008": 3.43693182214,
			"-0.007": 6.07035597095,
			"-0.006": 10.482274876,
			"-0.005": 11.3903636593,
			"-0.004": 12.6718564266,
			"-0.003": 11.2075969176,
			"-0.002": 9.04609311131,
			"-0.001": 11.2593793531,
			"0.0": 13.2193367234,
			"0.001": 17.1663485618,
			"0.002": 19.6793978892,
			"0.003": 27.6149613656,
			"0.004": 21.2270562219,
			"0.005": 8.61218615899,
			"0.006": 3.80106857737,
			"0.007": 2.4789067935,
			"0.008": 3.19238869338,
			"0.009": 2.95418875445,
			"0.01": 3.32972052564,
			"0.011": 3.32614692812,
			"0.012": 3.1574825164,
			"0.013": 3.22124185854,
			"0.014": 4.24900705526,
			"0.015": 0.00433682996934,
			"0.016": 0.0,
			"0.017": 0.0,
			"0.018": 0.0,
			"0.019": 0.0,
			"0.02": 0.0,
			"0.021": 0.0,
			"0.022": 0.0,
			"0.023": 0.0,
			"0.024": 0.0,
			"0.025": 0.0
		}
	}
}
