{
	 "smiles": "N#CCCNC1=CC2=C(OCCO2)C=C1", 
	 "Tm": 357.15, 
	 "num_atms": 27, 
	 "gaussian": { 
		 "optdone": 1, 
		 "sigma_profile": "yes", 
		 "theory": "DFT", 
		 "functional": "B3LYP", 
		 "basiset": "6-31G**", 
		 "properties": { 
			 "R2extent": 5425.4549, 
			 "electric_dipole_moment_norm": 3.79387852863, 
			 "electric_quadrupole_moment_norm": 37.0943531871, 
			 "total_energy": -686.312749225, 
			 "HOMO_LUMO_gap": 0.18913, 
			 "cosmo_polarized_energy": -16.42, 
			 "cosmo_cavitation_energy": 31.14, 
			 "cosmo_dispersion_energy": -22.63, 
			 "cosmo_repulsion_energy": 1.78, 
			 "cosmo_total_nonelectrostatic_energy": 10.3, 
			 "SMD_solvation_energy": 6.16 
		},
		"coords": [
			{
				"x": 3.5754428371,
				"y": -2.3371447851,
				"z": -4.8366960288,
				"element": "N" 
			},
			{
				"x": 3.5392405766,
				"y": -2.0928266944,
				"z": -3.7023555893,
				"element": "C" 
			},
			{
				"x": 3.4552651888,
				"y": -1.8039625314,
				"z": -2.2697338552,
				"element": "C" 
			},
			{
				"x": 2.0629696377,
				"y": -2.155676985,
				"z": -1.6804086587,
				"element": "C" 
			},
			{
				"x": 1.9949436097,
				"y": -1.862298146,
				"z": -0.2660577808,
				"element": "N" 
			},
			{
				"x": 1.5796941619,
				"y": -0.6243027435,
				"z": 0.2370714689,
				"element": "C" 
			},
			{
				"x": 1.4814337239,
				"y": 0.5175951196,
				"z": -0.570398472,
				"element": "C" 
			},
			{
				"x": 1.0886877373,
				"y": 1.7411771517,
				"z": -0.0216633349,
				"element": "C" 
			},
			{
				"x": 0.7749875557,
				"y": 1.8462592939,
				"z": 1.3401230898,
				"element": "C" 
			},
			{
				"x": 0.3701068376,
				"y": 3.0362998537,
				"z": 1.9099775082,
				"element": "O" 
			},
			{
				"x": -0.074227965,
				"y": 3.9907336304,
				"z": 0.9501152987,
				"element": "C" 
			},
			{
				"x": 0.9193823352,
				"y": 4.0783927791,
				"z": -0.1983349047,
				"element": "C" 
			},
			{
				"x": 1.0160512165,
				"y": 2.8203967343,
				"z": -0.8681283271,
				"element": "O" 
			},
			{
				"x": 0.8795679522,
				"y": 0.7113937081,
				"z": 2.1444238969,
				"element": "C" 
			},
			{
				"x": 1.2833657609,
				"y": -0.5058423358,
				"z": 1.6095372582,
				"element": "C" 
			},
			{
				"x": 3.6743912513,
				"y": -0.7437664163,
				"z": -2.1053308612,
				"element": "H" 
			},
			{
				"x": 4.2270810483,
				"y": -2.373749146,
				"z": -1.7414792151,
				"element": "H" 
			},
			{
				"x": 1.8835097044,
				"y": -3.224555788,
				"z": -1.825576203,
				"element": "H" 
			},
			{
				"x": 1.2845424248,
				"y": -1.623382834,
				"z": -2.2435282213,
				"element": "H" 
			},
			{
				"x": 1.7656047061,
				"y": -2.646232827,
				"z": 0.3250080644,
				"element": "H" 
			},
			{
				"x": 1.7048126847,
				"y": 0.4997426083,
				"z": -1.630629747,
				"element": "H" 
			},
			{
				"x": -0.1574481804,
				"y": 4.9467275876,
				"z": 1.4737400661,
				"element": "H" 
			},
			{
				"x": -1.0637457103,
				"y": 3.7069772309,
				"z": 0.5639537097,
				"element": "H" 
			},
			{
				"x": 0.5980413762,
				"y": 4.8044434455,
				"z": -0.949663721,
				"element": "H" 
			},
			{
				"x": 1.9057300896,
				"y": 4.3729670799,
				"z": 0.1853997144,
				"element": "H" 
			},
			{
				"x": 0.6342164192,
				"y": 0.8026485744,
				"z": 3.1977964285,
				"element": "H" 
			},
			{
				"x": 1.36295302,
				"y": -1.3774135648,
				"z": 2.2538384165,
				"element": "H" 
			}
		],
		 "valence_orbital": [ 
			{
				"type": "occ",
				"energy": -0.32132,
				"method": "rhf"
			},
			{
				"type": "occ",
				"energy": -0.30224,
				"method": "rhf"
			},
			{
				"type": "occ",
				"energy": -0.26953,
				"method": "rhf"
			},
			{
				"type": "occ",
				"energy": -0.2293,
				"method": "rhf"
			},
			{
				"type": "occ",
				"energy": -0.18784,
				"method": "rhf"
			},
			{
				"type": "unocc",
				"energy": 0.00129,
				"method": "rhf"
			},
			{
				"type": "unocc",
				"energy": 0.02465,
				"method": "rhf"
			},
			{
				"type": "unocc",
				"energy": 0.03289,
				"method": "rhf"
			},
			{
				"type": "unocc",
				"energy": 0.041,
				"method": "rhf"
			},
			{
				"type": "unocc",
				"energy": 0.06651,
				"method": "rhf"
			}
		],
		"cosmo_sigma_profile": { 
			"-0.025": 0.0,
			"-0.024": 0.0,
			"-0.023": 0.0,
			"-0.022": 0.0,
			"-0.021": 0.0,
			"-0.02": 0.0,
			"-0.019": 0.0,
			"-0.018": 0.0,
			"-0.017": 0.0,
			"-0.016": 0.0,
			"-0.015": 0.0,
			"-0.014": 0.0,
			"-0.013": 0.958916367656,
			"-0.012": 1.4633548572,
			"-0.011": 1.41920549094,
			"-0.01": 1.39608981371,
			"-0.009": 1.72112289271,
			"-0.008": 6.08526598864,
			"-0.007": 14.1099185238,
			"-0.006": 21.8126653758,
			"-0.005": 23.3513677442,
			"-0.004": 19.6549520396,
			"-0.003": 16.422426068,
			"-0.002": 11.6099199572,
			"-0.001": 10.8744362441,
			"0.0": 9.13820564857,
			"0.001": 7.69049215104,
			"0.002": 10.2822894603,
			"0.003": 8.1944400696,
			"0.004": 13.8920258875,
			"0.005": 14.8762941608,
			"0.006": 15.1612575856,
			"0.007": 7.59602363081,
			"0.008": 5.86877239535,
			"0.009": 6.91079118746,
			"0.01": 6.26051949457,
			"0.011": 5.53641315904,
			"0.012": 2.79149633852,
			"0.013": 2.14252024979,
			"0.014": 0.419605884433,
			"0.015": 0.0,
			"0.016": 0.0,
			"0.017": 0.0,
			"0.018": 0.0,
			"0.019": 0.0,
			"0.02": 0.0,
			"0.021": 0.0,
			"0.022": 0.0,
			"0.023": 0.0,
			"0.024": 0.0,
			"0.025": 0.0
		}
	}
}
