{
	 "smiles": "CC1=CC(=CC=C1Cl)C(=O)CBr", 
	 "Tm": 329.65, 
	 "num_atms": 20, 
	 "gaussian": { 
		 "optdone": 1, 
		 "sigma_profile": "yes", 
		 "theory": "DFT", 
		 "functional": "B3LYP", 
		 "basiset": "6-31G**", 
		 "properties": { 
			 "R2extent": 6113.4491, 
			 "electric_dipole_moment_norm": 1.84342280826, 
			 "electric_quadrupole_moment_norm": 14.204277599, 
			 "total_energy": -3454.60700531, 
			 "HOMO_LUMO_gap": 0.17679, 
			 "cosmo_polarized_energy": -8.21, 
			 "cosmo_cavitation_energy": 28.13, 
			 "cosmo_dispersion_energy": -20.82, 
			 "cosmo_repulsion_energy": 1.66, 
			 "cosmo_total_nonelectrostatic_energy": 8.98, 
			 "SMD_solvation_energy": 4.01 
		},
		"coords": [
			{
				"x": -0.1231858292,
				"y": -0.1228336314,
				"z": -2.6502566324,
				"element": "C" 
			},
			{
				"x": -0.3506187451,
				"y": -0.5137365161,
				"z": -1.2130826862,
				"element": "C" 
			},
			{
				"x": -1.1770537875,
				"y": 0.2440048506,
				"z": -0.3815984598,
				"element": "C" 
			},
			{
				"x": -1.4078284737,
				"y": -0.0940160813,
				"z": 0.9603019487,
				"element": "C" 
			},
			{
				"x": -0.7918685426,
				"y": -1.2359650696,
				"z": 1.4914124059,
				"element": "C" 
			},
			{
				"x": 0.0388687325,
				"y": -2.0130058583,
				"z": 0.690065937,
				"element": "C" 
			},
			{
				"x": 0.2509377473,
				"y": -1.6481317791,
				"z": -0.6394369089,
				"element": "C" 
			},
			{
				"x": 1.3086589446,
				"y": -2.6573916518,
				"z": -1.6144215861,
				"element": "Cl" 
			},
			{
				"x": -2.2874407409,
				"y": 0.8093287489,
				"z": 1.7580778369,
				"element": "C" 
			},
			{
				"x": -2.804460701,
				"y": 1.8002533003,
				"z": 1.2665090581,
				"element": "O" 
			},
			{
				"x": -2.5185216752,
				"y": 0.5317172946,
				"z": 3.2409350506,
				"element": "C" 
			},
			{
				"x": -3.7448294358,
				"y": -1.0021273464,
				"z": 3.4972346166,
				"element": "Br" 
			},
			{
				"x": -0.4423323972,
				"y": -0.9172443626,
				"z": -3.3331887608,
				"element": "H" 
			},
			{
				"x": -0.6800461417,
				"y": 0.784548174,
				"z": -2.8942489866,
				"element": "H" 
			},
			{
				"x": 0.9380914622,
				"y": 0.0594375398,
				"z": -2.8499624916,
				"element": "H" 
			},
			{
				"x": -1.6645461148,
				"y": 1.1322049164,
				"z": -0.7707154486,
				"element": "H" 
			},
			{
				"x": -0.9689397416,
				"y": -1.5419002696,
				"z": 2.5162641562,
				"element": "H" 
			},
			{
				"x": 0.5193054898,
				"y": -2.9005105723,
				"z": 1.0860813745,
				"element": "H" 
			},
			{
				"x": -3.0141474385,
				"y": 1.3924577831,
				"z": 3.6822948019,
				"element": "H" 
			},
			{
				"x": -1.6056426117,
				"y": 0.283010531,
				"z": 3.7815347747,
				"element": "H" 
			}
		],
		 "valence_orbital": [ 
			{
				"type": "occ",
				"energy": -0.29762,
				"method": "rhf"
			},
			{
				"type": "occ",
				"energy": -0.28778,
				"method": "rhf"
			},
			{
				"type": "occ",
				"energy": -0.2687,
				"method": "rhf"
			},
			{
				"type": "occ",
				"energy": -0.26387,
				"method": "rhf"
			},
			{
				"type": "occ",
				"energy": -0.25711,
				"method": "rhf"
			},
			{
				"type": "unocc",
				"energy": -0.08032,
				"method": "rhf"
			},
			{
				"type": "unocc",
				"energy": -0.02228,
				"method": "rhf"
			},
			{
				"type": "unocc",
				"energy": -0.01913,
				"method": "rhf"
			},
			{
				"type": "unocc",
				"energy": 0.02212,
				"method": "rhf"
			},
			{
				"type": "unocc",
				"energy": 0.03865,
				"method": "rhf"
			}
		],
		"cosmo_sigma_profile": { 
			"-0.025": 0.0,
			"-0.024": 0.0,
			"-0.023": 0.0,
			"-0.022": 0.0,
			"-0.021": 0.0,
			"-0.02": 0.0,
			"-0.019": 0.0,
			"-0.018": 0.0,
			"-0.017": 0.0,
			"-0.016": 0.0,
			"-0.015": 0.0,
			"-0.014": 0.0,
			"-0.013": 0.0,
			"-0.012": 0.0,
			"-0.011": 0.0,
			"-0.01": 0.805732178187,
			"-0.009": 3.33387605913,
			"-0.008": 5.27220696729,
			"-0.007": 7.47120568464,
			"-0.006": 10.1546271512,
			"-0.005": 11.9048355517,
			"-0.004": 11.338639138,
			"-0.003": 13.3902265614,
			"-0.002": 14.0883274929,
			"-0.001": 21.761998032,
			"0.0": 21.4912847972,
			"0.001": 22.3900642099,
			"0.002": 25.5814268633,
			"0.003": 17.8000440235,
			"0.004": 18.1993259651,
			"0.005": 10.0748660148,
			"0.006": 2.19548251738,
			"0.007": 1.29951735644,
			"0.008": 2.04200465234,
			"0.009": 2.08633694934,
			"0.01": 2.82102816697,
			"0.011": 3.65083895376,
			"0.012": 0.88517138344,
			"0.013": 0.0,
			"0.014": 0.0,
			"0.015": 0.0,
			"0.016": 0.0,
			"0.017": 0.0,
			"0.018": 0.0,
			"0.019": 0.0,
			"0.02": 0.0,
			"0.021": 0.0,
			"0.022": 0.0,
			"0.023": 0.0,
			"0.024": 0.0,
			"0.025": 0.0
		}
	}
}
