{
	 "smiles": "OC(=O)C1=CC=C2N=CC=CC2=C1", 
	 "Tm": 567.15, 
	 "num_atms": 20, 
	 "gaussian": { 
		 "optdone": 1, 
		 "sigma_profile": "yes", 
		 "theory": "DFT", 
		 "functional": "B3LYP", 
		 "basiset": "6-31G**", 
		 "properties": { 
			 "R2extent": 3319.9324, 
			 "electric_dipole_moment_norm": 5.2112711434, 
			 "electric_quadrupole_moment_norm": 19.188407671, 
			 "total_energy": -590.494663252, 
			 "HOMO_LUMO_gap": 0.17534, 
			 "cosmo_polarized_energy": -16.74, 
			 "cosmo_cavitation_energy": 24.81, 
			 "cosmo_dispersion_energy": -18.57, 
			 "cosmo_repulsion_energy": 1.43, 
			 "cosmo_total_nonelectrostatic_energy": 7.67, 
			 "SMD_solvation_energy": 3.8 
		},
		"coords": [
			{
				"x": 1.5141248828,
				"y": -2.6697655968,
				"z": -3.9038798023,
				"element": "O" 
			},
			{
				"x": 2.1895061275,
				"y": -2.4759557362,
				"z": -2.7388622969,
				"element": "C" 
			},
			{
				"x": 3.3261421283,
				"y": -2.869490081,
				"z": -2.62517099,
				"element": "O" 
			},
			{
				"x": 1.4534556023,
				"y": -1.7689538408,
				"z": -1.6400930969,
				"element": "C" 
			},
			{
				"x": 2.2326574132,
				"y": -1.161463113,
				"z": -0.6165470759,
				"element": "C" 
			},
			{
				"x": 1.6282869058,
				"y": -0.5066185691,
				"z": 0.4279693873,
				"element": "C" 
			},
			{
				"x": 0.2110251237,
				"y": -0.4424110456,
				"z": 0.5206310031,
				"element": "C" 
			},
			{
				"x": -0.3443019039,
				"y": 0.215801617,
				"z": 1.5788768579,
				"element": "N" 
			},
			{
				"x": -1.6598045151,
				"y": 0.2524469785,
				"z": 1.6557319638,
				"element": "C" 
			},
			{
				"x": -2.5335590193,
				"y": -0.3485179618,
				"z": 0.7131801894,
				"element": "C" 
			},
			{
				"x": -1.9900603979,
				"y": -1.0137873631,
				"z": -0.3593128526,
				"element": "C" 
			},
			{
				"x": -0.5786463395,
				"y": -1.0767377573,
				"z": -0.4908476472,
				"element": "C" 
			},
			{
				"x": 0.0728028262,
				"y": -1.733290595,
				"z": -1.5652308017,
				"element": "C" 
			},
			{
				"x": 0.6989495717,
				"y": -2.149327894,
				"z": -3.9047775219,
				"element": "H" 
			},
			{
				"x": 3.3121269587,
				"y": -1.2325754634,
				"z": -0.6913681899,
				"element": "H" 
			},
			{
				"x": 2.2050229268,
				"y": -0.0272325536,
				"z": 1.211921965,
				"element": "H" 
			},
			{
				"x": -2.0784903884,
				"y": 0.7843941503,
				"z": 2.5093461021,
				"element": "H" 
			},
			{
				"x": -3.6076705624,
				"y": -0.2757844677,
				"z": 0.8495768738,
				"element": "H" 
			},
			{
				"x": -2.6209905629,
				"y": -1.4894160719,
				"z": -1.1061161403,
				"element": "H" 
			},
			{
				"x": -0.5453767777,
				"y": -2.2413146353,
				"z": -2.3030279268,
				"element": "H" 
			}
		],
		 "valence_orbital": [ 
			{
				"type": "occ",
				"energy": -0.31936,
				"method": "rhf"
			},
			{
				"type": "occ",
				"energy": -0.28026,
				"method": "rhf"
			},
			{
				"type": "occ",
				"energy": -0.26885,
				"method": "rhf"
			},
			{
				"type": "occ",
				"energy": -0.26589,
				"method": "rhf"
			},
			{
				"type": "occ",
				"energy": -0.25274,
				"method": "rhf"
			},
			{
				"type": "unocc",
				"energy": -0.0774,
				"method": "rhf"
			},
			{
				"type": "unocc",
				"energy": -0.04674,
				"method": "rhf"
			},
			{
				"type": "unocc",
				"energy": -0.00632,
				"method": "rhf"
			},
			{
				"type": "unocc",
				"energy": 0.02918,
				"method": "rhf"
			},
			{
				"type": "unocc",
				"energy": 0.05718,
				"method": "rhf"
			}
		],
		"cosmo_sigma_profile": { 
			"-0.025": 0.0,
			"-0.024": 0.0,
			"-0.023": 0.0,
			"-0.022": 0.0,
			"-0.021": 0.0,
			"-0.02": 0.0,
			"-0.019": 0.443512038196,
			"-0.018": 1.0592061824,
			"-0.017": 0.840108774463,
			"-0.016": 1.10240556361,
			"-0.015": 0.800584543319,
			"-0.014": 0.504443263113,
			"-0.013": 1.31872449612,
			"-0.012": 1.16483496413,
			"-0.011": 1.17890906922,
			"-0.01": 1.40984274541,
			"-0.009": 3.07490608041,
			"-0.008": 4.53543783447,
			"-0.007": 8.26589856255,
			"-0.006": 11.6892944207,
			"-0.005": 11.8151423674,
			"-0.004": 9.14297451774,
			"-0.003": 10.4562919984,
			"-0.002": 10.9393924719,
			"-0.001": 8.99862542563,
			"0.0": 16.7561403223,
			"0.001": 23.910234078,
			"0.002": 16.9956104977,
			"0.003": 8.20100699928,
			"0.004": 4.38421943622,
			"0.005": 4.01950600163,
			"0.006": 3.46818851214,
			"0.007": 3.81015591575,
			"0.008": 4.21714300983,
			"0.009": 4.0784898778,
			"0.01": 5.5676846097,
			"0.011": 6.790147854,
			"0.012": 5.34676324187,
			"0.013": 2.07560713922,
			"0.014": 0.592315786009,
			"0.015": 0.616193617193,
			"0.016": 0.437417642103,
			"0.017": 0.0,
			"0.018": 0.0,
			"0.019": 0.0,
			"0.02": 0.0,
			"0.021": 0.0,
			"0.022": 0.0,
			"0.023": 0.0,
			"0.024": 0.0,
			"0.025": 0.0
		}
	}
}
