{
	 "smiles": "CCOC(=O)C1=CC2=C(N1)C=CC(OC(F)(F)F)=C2", 
	 "Tm": 417.15, 
	 "num_atms": 29, 
	 "gaussian": { 
		 "optdone": 1, 
		 "sigma_profile": "yes", 
		 "theory": "DFT", 
		 "functional": "B3LYP", 
		 "basiset": "6-31G**", 
		 "properties": { 
			 "R2extent": 9060.7091, 
			 "electric_dipole_moment_norm": 2.55573611314, 
			 "electric_quadrupole_moment_norm": 14.1915397653, 
			 "total_energy": -1043.27657931, 
			 "HOMO_LUMO_gap": 0.167, 
			 "cosmo_polarized_energy": -9.39, 
			 "cosmo_cavitation_energy": 35.69, 
			 "cosmo_dispersion_energy": -25.66, 
			 "cosmo_repulsion_energy": 1.92, 
			 "cosmo_total_nonelectrostatic_energy": 11.95, 
			 "SMD_solvation_energy": 8.31 
		},
		"coords": [
			{
				"x": 4.5701158013,
				"y": -1.5673180709,
				"z": -0.7686302535,
				"element": "C" 
			},
			{
				"x": 4.1080019971,
				"y": -0.5464635457,
				"z": 0.260188357,
				"element": "C" 
			},
			{
				"x": 2.6626124464,
				"y": -0.5106958197,
				"z": 0.3539843343,
				"element": "O" 
			},
			{
				"x": 2.0241703212,
				"y": 0.2815411191,
				"z": -0.5285039733,
				"element": "C" 
			},
			{
				"x": 2.5730258401,
				"y": 0.9630882229,
				"z": -1.3803303349,
				"element": "O" 
			},
			{
				"x": 0.5686122362,
				"y": 0.2472439647,
				"z": -0.3565674808,
				"element": "C" 
			},
			{
				"x": -0.2533931449,
				"y": -0.4336648463,
				"z": 0.5181344327,
				"element": "C" 
			},
			{
				"x": -1.5946640143,
				"y": -0.0615990006,
				"z": 0.199253563,
				"element": "C" 
			},
			{
				"x": -1.5242483358,
				"y": 0.857792405,
				"z": -0.8892395603,
				"element": "C" 
			},
			{
				"x": -0.1996522563,
				"y": 1.0237010793,
				"z": -1.2029796303,
				"element": "N" 
			},
			{
				"x": -2.6772535313,
				"y": 1.4228735106,
				"z": -1.4513114702,
				"element": "C" 
			},
			{
				"x": -3.8989335228,
				"y": 1.0578569909,
				"z": -0.913069757,
				"element": "C" 
			},
			{
				"x": -3.973318047,
				"y": 0.1478709508,
				"z": 0.1643721353,
				"element": "C" 
			},
			{
				"x": -5.2918591094,
				"y": -0.1005351088,
				"z": 0.5738679872,
				"element": "O" 
			},
			{
				"x": -5.5647424822,
				"y": -0.9460368648,
				"z": 1.5920191081,
				"element": "C" 
			},
			{
				"x": -5.1364869401,
				"y": -2.2034903483,
				"z": 1.3556723957,
				"element": "F" 
			},
			{
				"x": -6.8890221256,
				"y": -0.9753277861,
				"z": 1.7437757763,
				"element": "F" 
			},
			{
				"x": -5.0121880692,
				"y": -0.5540034026,
				"z": 2.758805477,
				"element": "F" 
			},
			{
				"x": -2.8493642097,
				"y": -0.4213149219,
				"z": 0.7342941663,
				"element": "C" 
			},
			{
				"x": 4.2480793333,
				"y": -1.2754449158,
				"z": -1.7711743235,
				"element": "H" 
			},
			{
				"x": 5.6635007359,
				"y": -1.6284988327,
				"z": -0.7637076071,
				"element": "H" 
			},
			{
				"x": 4.1692439726,
				"y": -2.5593532485,
				"z": -0.5413367378,
				"element": "H" 
			},
			{
				"x": 4.4360180476,
				"y": -0.8139621472,
				"z": 1.2672221456,
				"element": "H" 
			},
			{
				"x": 4.4692290235,
				"y": 0.4546523093,
				"z": 0.0136655073,
				"element": "H" 
			},
			{
				"x": 0.0773617862,
				"y": -1.1134848664,
				"z": 1.2889644086,
				"element": "H" 
			},
			{
				"x": 0.2055501877,
				"y": 1.6050501058,
				"z": -1.9211501783,
				"element": "H" 
			},
			{
				"x": -2.6227471361,
				"y": 2.1225076805,
				"z": -2.2793449991,
				"element": "H" 
			},
			{
				"x": -4.8255657853,
				"y": 1.4615511763,
				"z": -1.3056093071,
				"element": "H" 
			},
			{
				"x": -2.9136830191,
				"y": -1.117535789,
				"z": 1.5597358186,
				"element": "H" 
			}
		],
		 "valence_orbital": [ 
			{
				"type": "occ",
				"energy": -0.30506,
				"method": "rhf"
			},
			{
				"type": "occ",
				"energy": -0.2944,
				"method": "rhf"
			},
			{
				"type": "occ",
				"energy": -0.28487,
				"method": "rhf"
			},
			{
				"type": "occ",
				"energy": -0.22896,
				"method": "rhf"
			},
			{
				"type": "occ",
				"energy": -0.22161,
				"method": "rhf"
			},
			{
				"type": "unocc",
				"energy": -0.05461,
				"method": "rhf"
			},
			{
				"type": "unocc",
				"energy": 0.00778,
				"method": "rhf"
			},
			{
				"type": "unocc",
				"energy": 0.02056,
				"method": "rhf"
			},
			{
				"type": "unocc",
				"energy": 0.08704,
				"method": "rhf"
			},
			{
				"type": "unocc",
				"energy": 0.09463,
				"method": "rhf"
			}
		],
		"cosmo_sigma_profile": { 
			"-0.025": 0.0,
			"-0.024": 0.0,
			"-0.023": 0.0,
			"-0.022": 0.0,
			"-0.021": 0.0,
			"-0.02": 0.0,
			"-0.019": 0.0,
			"-0.018": 0.0,
			"-0.017": 0.0,
			"-0.016": 0.189913948815,
			"-0.015": 1.04870050172,
			"-0.014": 0.569234439944,
			"-0.013": 0.966705877427,
			"-0.012": 0.980115567419,
			"-0.011": 0.907213694909,
			"-0.01": 1.31220285014,
			"-0.009": 1.1144866534,
			"-0.008": 2.05797632927,
			"-0.007": 6.76121421555,
			"-0.006": 8.3461731047,
			"-0.005": 12.7821961334,
			"-0.004": 17.9250800412,
			"-0.003": 18.1035670769,
			"-0.002": 19.543993344,
			"-0.001": 21.8720341887,
			"0.0": 25.6700449651,
			"0.001": 31.9135606397,
			"0.002": 48.3903435377,
			"0.003": 27.3660801563,
			"0.004": 15.6236976038,
			"0.005": 5.59668271459,
			"0.006": 4.18814670179,
			"0.007": 2.11425856119,
			"0.008": 1.30957456535,
			"0.009": 1.68628084383,
			"0.01": 1.77842761765,
			"0.011": 2.7264540357,
			"0.012": 2.69972210871,
			"0.013": 0.0167313761494,
			"0.014": 0.0,
			"0.015": 0.0,
			"0.016": 0.0,
			"0.017": 0.0,
			"0.018": 0.0,
			"0.019": 0.0,
			"0.02": 0.0,
			"0.021": 0.0,
			"0.022": 0.0,
			"0.023": 0.0,
			"0.024": 0.0,
			"0.025": 0.0
		}
	}
}
