{
	 "smiles": "CC1CC(=C/C2=CC=C(C=C2)[N+]([O-])=O)C(=O)C(C1)=CC1=CC=C(C=C1)[N+]([O-])=O", 
	 "Tm": 465.15, 
	 "num_atms": 46, 
	 "gaussian": { 
		 "optdone": 1, 
		 "sigma_profile": "yes", 
		 "theory": "DFT", 
		 "functional": "B3LYP", 
		 "basiset": "6-31G**", 
		 "properties": { 
			 "R2extent": 22018.4431, 
			 "electric_dipole_moment_norm": 0.95121517019, 
			 "electric_quadrupole_moment_norm": 72.3610270011, 
			 "total_energy": -1296.49481437, 
			 "HOMO_LUMO_gap": 0.1387, 
			 "cosmo_polarized_energy": -19.62, 
			 "cosmo_cavitation_energy": 51.13, 
			 "cosmo_dispersion_energy": -35.89, 
			 "cosmo_repulsion_energy": 2.66, 
			 "cosmo_total_nonelectrostatic_energy": 17.89, 
			 "SMD_solvation_energy": 13.02 
		},
		"coords": [
			{
				"x": -1.8495913122,
				"y": 1.8621356586,
				"z": -0.5686613547,
				"element": "C" 
			},
			{
				"x": -1.4487836191,
				"y": 0.4403083548,
				"z": -0.98838156,
				"element": "C" 
			},
			{
				"x": -1.1777544561,
				"y": -0.4767289073,
				"z": 0.2177235564,
				"element": "C" 
			},
			{
				"x": 0.0605158556,
				"y": -0.0796151007,
				"z": 0.9909772861,
				"element": "C" 
			},
			{
				"x": 0.2453052424,
				"y": -0.2391234452,
				"z": 2.3231912844,
				"element": "C" 
			},
			{
				"x": -0.6260255481,
				"y": -0.8445198095,
				"z": 3.3323779298,
				"element": "C" 
			},
			{
				"x": -0.5091775201,
				"y": -0.3833597097,
				"z": 4.6619502941,
				"element": "C" 
			},
			{
				"x": -1.3001039925,
				"y": -0.897542895,
				"z": 5.6804096397,
				"element": "C" 
			},
			{
				"x": -2.2084071193,
				"y": -1.9098853002,
				"z": 5.3725649599,
				"element": "C" 
			},
			{
				"x": -2.3318472917,
				"y": -2.4186258304,
				"z": 4.0813226869,
				"element": "C" 
			},
			{
				"x": -1.54192477,
				"y": -1.8850657666,
				"z": 3.0690468997,
				"element": "C" 
			},
			{
				"x": -3.0479786502,
				"y": -2.467380112,
				"z": 6.4429630745,
				"element": "N" 
			},
			{
				"x": -2.9081385104,
				"y": -2.0063938175,
				"z": 7.575436602,
				"element": "O" 
			},
			{
				"x": -3.8400968001,
				"y": -3.3596544231,
				"z": 6.1403101552,
				"element": "O" 
			},
			{
				"x": 1.1952907396,
				"y": 0.5916494454,
				"z": 0.2586421867,
				"element": "C" 
			},
			{
				"x": 2.2196798886,
				"y": 0.917319775,
				"z": 0.8542444395,
				"element": "O" 
			},
			{
				"x": 1.0493869275,
				"y": 0.8530321292,
				"z": -1.2195115628,
				"element": "C" 
			},
			{
				"x": -0.2219019012,
				"y": 0.4229609571,
				"z": -1.917686441,
				"element": "C" 
			},
			{
				"x": 2.0883346999,
				"y": 1.5011500507,
				"z": -1.7981958434,
				"element": "C" 
			},
			{
				"x": 2.2901849031,
				"y": 1.9091298474,
				"z": -3.1899903226,
				"element": "C" 
			},
			{
				"x": 1.7562774076,
				"y": 1.2253012097,
				"z": -4.3027575255,
				"element": "C" 
			},
			{
				"x": 1.9978122518,
				"y": 1.6662198958,
				"z": -5.5991543553,
				"element": "C" 
			},
			{
				"x": 2.7811161069,
				"y": 2.8025464808,
				"z": -5.7903517866,
				"element": "C" 
			},
			{
				"x": 3.3462801525,
				"y": 3.4948212982,
				"z": -4.7198607684,
				"element": "C" 
			},
			{
				"x": 3.1068057484,
				"y": 3.035476483,
				"z": -3.4318841104,
				"element": "C" 
			},
			{
				"x": 3.0315773722,
				"y": 3.2750479024,
				"z": -7.1598228166,
				"element": "N" 
			},
			{
				"x": 2.5191647992,
				"y": 2.6434196323,
				"z": -8.0837685801,
				"element": "O" 
			},
			{
				"x": 3.73690727,
				"y": 4.2740515738,
				"z": -7.2979068066,
				"element": "O" 
			},
			{
				"x": -1.0573836671,
				"y": 2.3634965837,
				"z": -0.0029165959,
				"element": "H" 
			},
			{
				"x": -2.7446611643,
				"y": 1.8437560405,
				"z": 0.061824002,
				"element": "H" 
			},
			{
				"x": -2.0699368339,
				"y": 2.4791241208,
				"z": -1.4460268955,
				"element": "H" 
			},
			{
				"x": -2.2879014711,
				"y": 0.0066509431,
				"z": -1.5466882801,
				"element": "H" 
			},
			{
				"x": -2.0471054637,
				"y": -0.4815053261,
				"z": 0.8833652011,
				"element": "H" 
			},
			{
				"x": -1.0670705411,
				"y": -1.5076958233,
				"z": -0.1523389652,
				"element": "H" 
			},
			{
				"x": 1.1753697278,
				"y": 0.1777398438,
				"z": 2.7056554933,
				"element": "H" 
			},
			{
				"x": 0.2091312192,
				"y": 0.3992709251,
				"z": 4.8870092163,
				"element": "H" 
			},
			{
				"x": -1.2254445279,
				"y": -0.5395171444,
				"z": 6.6994999553,
				"element": "H" 
			},
			{
				"x": -3.0320851669,
				"y": -3.2226023555,
				"z": 3.8922707656,
				"element": "H" 
			},
			{
				"x": -1.6123815945,
				"y": -2.307531533,
				"z": 2.0747583355,
				"element": "H" 
			},
			{
				"x": -0.4049459708,
				"y": 1.0636352832,
				"z": -2.7864928955,
				"element": "H" 
			},
			{
				"x": -0.1009787571,
				"y": -0.599278515,
				"z": -2.3081574529,
				"element": "H" 
			},
			{
				"x": 2.8820841102,
				"y": 1.7906893374,
				"z": -1.1117561891,
				"element": "H" 
			},
			{
				"x": 1.1789754804,
				"y": 0.3208955206,
				"z": -4.1582852988,
				"element": "H" 
			},
			{
				"x": 1.5998553528,
				"y": 1.1447240723,
				"z": -6.4606253961,
				"element": "H" 
			},
			{
				"x": 3.9603227897,
				"y": 4.3655916713,
				"z": -4.9122298742,
				"element": "H" 
			},
			{
				"x": 3.5467486041,
				"y": 3.5583807782,
				"z": -2.5879922868,
				"element": "H" 
			}
		],
		 "valence_orbital": [ 
			{
				"type": "occ",
				"energy": -0.28713,
				"method": "rhf"
			},
			{
				"type": "occ",
				"energy": -0.28677,
				"method": "rhf"
			},
			{
				"type": "occ",
				"energy": -0.26425,
				"method": "rhf"
			},
			{
				"type": "occ",
				"energy": -0.25675,
				"method": "rhf"
			},
			{
				"type": "occ",
				"energy": -0.25494,
				"method": "rhf"
			},
			{
				"type": "unocc",
				"energy": -0.11624,
				"method": "rhf"
			},
			{
				"type": "unocc",
				"energy": -0.09902,
				"method": "rhf"
			},
			{
				"type": "unocc",
				"energy": -0.07258,
				"method": "rhf"
			},
			{
				"type": "unocc",
				"energy": -0.03638,
				"method": "rhf"
			},
			{
				"type": "unocc",
				"energy": -0.03636,
				"method": "rhf"
			}
		],
		"cosmo_sigma_profile": { 
			"-0.025": 0.0,
			"-0.024": 0.0,
			"-0.023": 0.0,
			"-0.022": 0.0,
			"-0.021": 0.0,
			"-0.02": 0.0,
			"-0.019": 0.0,
			"-0.018": 0.0,
			"-0.017": 0.0,
			"-0.016": 0.0,
			"-0.015": 0.0,
			"-0.014": 0.0,
			"-0.013": 0.0,
			"-0.012": 0.0,
			"-0.011": 0.0,
			"-0.01": 0.0,
			"-0.009": 0.0,
			"-0.008": 4.46083363194,
			"-0.007": 18.4481411325,
			"-0.006": 21.9121592168,
			"-0.005": 24.0813697975,
			"-0.004": 27.4608623149,
			"-0.003": 38.5051023051,
			"-0.002": 35.6522718031,
			"-0.001": 35.9174384718,
			"0.0": 39.9190907727,
			"0.001": 47.6362362022,
			"0.002": 22.6825926938,
			"0.003": 7.93048686664,
			"0.004": 8.05680960639,
			"0.005": 6.95670084002,
			"0.006": 10.0975855247,
			"0.007": 16.7724659045,
			"0.008": 16.6806091909,
			"0.009": 11.1887448979,
			"0.01": 7.2267778179,
			"0.011": 2.88901399623,
			"0.012": 3.55577161104,
			"0.013": 0.332723715536,
			"0.014": 0.0,
			"0.015": 0.0,
			"0.016": 0.0,
			"0.017": 0.0,
			"0.018": 0.0,
			"0.019": 0.0,
			"0.02": 0.0,
			"0.021": 0.0,
			"0.022": 0.0,
			"0.023": 0.0,
			"0.024": 0.0,
			"0.025": 0.0
		}
	}
}
