{
	 "smiles": "CCOC(OCC)C1=NNC(=C1)C1=CC(F)=CC=C1", 
	 "Tm": 356.15, 
	 "num_atms": 36, 
	 "gaussian": { 
		 "optdone": 1, 
		 "sigma_profile": "yes", 
		 "theory": "DFT", 
		 "functional": "B3LYP", 
		 "basiset": "6-31G**", 
		 "properties": { 
			 "R2extent": 8036.946, 
			 "electric_dipole_moment_norm": 2.1092117722, 
			 "electric_quadrupole_moment_norm": 7.45094866779, 
			 "total_energy": -903.497727363, 
			 "HOMO_LUMO_gap": 0.18736, 
			 "cosmo_polarized_energy": -13.67, 
			 "cosmo_cavitation_energy": 40.57, 
			 "cosmo_dispersion_energy": -28.09, 
			 "cosmo_repulsion_energy": 2.19, 
			 "cosmo_total_nonelectrostatic_energy": 14.68, 
			 "SMD_solvation_energy": 6.47 
		},
		"coords": [
			{
				"x": 1.912144893,
				"y": 0.9112472932,
				"z": -4.4738994357,
				"element": "C" 
			},
			{
				"x": 2.8776022475,
				"y": 0.7127382548,
				"z": -3.3181180357,
				"element": "C" 
			},
			{
				"x": 2.1172565953,
				"y": 0.3905562091,
				"z": -2.1539937965,
				"element": "O" 
			},
			{
				"x": 2.9016695993,
				"y": 0.1571662004,
				"z": -1.0060923817,
				"element": "C" 
			},
			{
				"x": 3.6993025678,
				"y": -0.999726,
				"z": -1.1123616068,
				"element": "O" 
			},
			{
				"x": 2.9912698968,
				"y": -2.2424106832,
				"z": -1.1792851938,
				"element": "C" 
			},
			{
				"x": 4.0076547819,
				"y": -3.3325210447,
				"z": -1.4751517413,
				"element": "C" 
			},
			{
				"x": 1.9497628553,
				"y": 0.1474481909,
				"z": 0.1683789798,
				"element": "C" 
			},
			{
				"x": 2.4071598243,
				"y": -0.096178664,
				"z": 1.3994107732,
				"element": "N" 
			},
			{
				"x": 1.3116419491,
				"y": -0.0243967188,
				"z": 2.1791457936,
				"element": "N" 
			},
			{
				"x": 0.1673648757,
				"y": 0.2782515846,
				"z": 1.4943267921,
				"element": "C" 
			},
			{
				"x": 0.5599922209,
				"y": 0.3942766746,
				"z": 0.1669145009,
				"element": "C" 
			},
			{
				"x": -1.1406824251,
				"y": 0.409887439,
				"z": 2.1410557062,
				"element": "C" 
			},
			{
				"x": -1.4251036861,
				"y": -0.2642060454,
				"z": 3.3410025961,
				"element": "C" 
			},
			{
				"x": -2.672371163,
				"y": -0.1065495098,
				"z": 3.9299969261,
				"element": "C" 
			},
			{
				"x": -2.9286152156,
				"y": -0.762456021,
				"z": 5.0810357922,
				"element": "F" 
			},
			{
				"x": -3.6668654974,
				"y": 0.68734656,
				"z": 3.3709115942,
				"element": "C" 
			},
			{
				"x": -3.3831267198,
				"y": 1.3473678403,
				"z": 2.1734643751,
				"element": "C" 
			},
			{
				"x": -2.1366938529,
				"y": 1.2179923355,
				"z": 1.564739921,
				"element": "C" 
			},
			{
				"x": 1.3412545385,
				"y": -0.0032100024,
				"z": -4.6605084144,
				"element": "H" 
			},
			{
				"x": 1.2054127149,
				"y": 1.7169981609,
				"z": -4.2540600845,
				"element": "H" 
			},
			{
				"x": 2.4590982218,
				"y": 1.1693455506,
				"z": -5.3862416979,
				"element": "H" 
			},
			{
				"x": 3.5916064003,
				"y": -0.0920908824,
				"z": -3.5335053641,
				"element": "H" 
			},
			{
				"x": 3.4607701224,
				"y": 1.6297503499,
				"z": -3.1343416415,
				"element": "H" 
			},
			{
				"x": 3.6403380016,
				"y": 0.9635865571,
				"z": -0.8831861899,
				"element": "H" 
			},
			{
				"x": 2.2251585159,
				"y": -2.1951355158,
				"z": -1.9640699623,
				"element": "H" 
			},
			{
				"x": 2.4842175035,
				"y": -2.4342715702,
				"z": -0.224719456,
				"element": "H" 
			},
			{
				"x": 4.5053550205,
				"y": -3.1514809558,
				"z": -2.4326920377,
				"element": "H" 
			},
			{
				"x": 3.51540848,
				"y": -4.30950917,
				"z": -1.5197861635,
				"element": "H" 
			},
			{
				"x": 4.7726970038,
				"y": -3.365394397,
				"z": -0.6939560545,
				"element": "H" 
			},
			{
				"x": 1.4216344957,
				"y": -0.1001038156,
				"z": 3.178668318,
				"element": "H" 
			},
			{
				"x": -0.0615527561,
				"y": 0.594907577,
				"z": -0.6905761553,
				"element": "H" 
			},
			{
				"x": -0.7093207779,
				"y": -0.9339506234,
				"z": 3.8059375635,
				"element": "H" 
			},
			{
				"x": -4.6278409022,
				"y": 0.7756475654,
				"z": 3.8651386127,
				"element": "H" 
			},
			{
				"x": -4.1415721732,
				"y": 1.9764647084,
				"z": 1.7174303502,
				"element": "H" 
			},
			{
				"x": -1.9205281564,
				"y": 1.7562125676,
				"z": 0.648086818,
				"element": "H" 
			}
		],
		 "valence_orbital": [ 
			{
				"type": "occ",
				"energy": -0.26695,
				"method": "rhf"
			},
			{
				"type": "occ",
				"energy": -0.26044,
				"method": "rhf"
			},
			{
				"type": "occ",
				"energy": -0.25749,
				"method": "rhf"
			},
			{
				"type": "occ",
				"energy": -0.25315,
				"method": "rhf"
			},
			{
				"type": "occ",
				"energy": -0.22562,
				"method": "rhf"
			},
			{
				"type": "unocc",
				"energy": -0.03826,
				"method": "rhf"
			},
			{
				"type": "unocc",
				"energy": -0.01021,
				"method": "rhf"
			},
			{
				"type": "unocc",
				"energy": 0.02996,
				"method": "rhf"
			},
			{
				"type": "unocc",
				"energy": 0.06738,
				"method": "rhf"
			},
			{
				"type": "unocc",
				"energy": 0.07583,
				"method": "rhf"
			}
		],
		"cosmo_sigma_profile": { 
			"-0.025": 0.0,
			"-0.024": 0.0,
			"-0.023": 0.0,
			"-0.022": 0.0,
			"-0.021": 0.0,
			"-0.02": 0.0,
			"-0.019": 0.0,
			"-0.018": 0.0,
			"-0.017": 0.212983493078,
			"-0.016": 1.06093697148,
			"-0.015": 1.13982844153,
			"-0.014": 1.37917306038,
			"-0.013": 1.03789471644,
			"-0.012": 1.48202664693,
			"-0.011": 1.26721792349,
			"-0.01": 1.28325004735,
			"-0.009": 1.43866587296,
			"-0.008": 2.22013684928,
			"-0.007": 4.92103100939,
			"-0.006": 10.4816423461,
			"-0.005": 12.2258670634,
			"-0.004": 19.7257265451,
			"-0.003": 28.2306879975,
			"-0.002": 32.0895353954,
			"-0.001": 29.5821612166,
			"0.0": 30.6869670285,
			"0.001": 29.8270001923,
			"0.002": 23.4265961659,
			"0.003": 25.0951241495,
			"0.004": 24.5442729306,
			"0.005": 9.92947532272,
			"0.006": 4.99737670905,
			"0.007": 3.12849059696,
			"0.008": 4.34436401474,
			"0.009": 3.23943090844,
			"0.01": 2.3721766343,
			"0.011": 1.53372179204,
			"0.012": 3.36209736277,
			"0.013": 1.97192100143,
			"0.014": 0.868311804197,
			"0.015": 1.21900913222,
			"0.016": 0.432919821111,
			"0.017": 0.0,
			"0.018": 0.0,
			"0.019": 0.0,
			"0.02": 0.0,
			"0.021": 0.0,
			"0.022": 0.0,
			"0.023": 0.0,
			"0.024": 0.0,
			"0.025": 0.0
		}
	}
}
