{
	 "smiles": "NN1C=NC2=C(C=CS2)C1=O", 
	 "Tm": 488.15, 
	 "num_atms": 16, 
	 "gaussian": { 
		 "optdone": 1, 
		 "sigma_profile": "yes", 
		 "theory": "DFT", 
		 "functional": "B3LYP", 
		 "basiset": "6-31G**", 
		 "properties": { 
			 "R2extent": 2150.5552, 
			 "electric_dipole_moment_norm": 0.407801826872, 
			 "electric_quadrupole_moment_norm": 10.1251487811, 
			 "total_energy": -869.29269414, 
			 "HOMO_LUMO_gap": 0.17946, 
			 "cosmo_polarized_energy": -11.7, 
			 "cosmo_cavitation_energy": 22.26, 
			 "cosmo_dispersion_energy": -17.37, 
			 "cosmo_repulsion_energy": 1.32, 
			 "cosmo_total_nonelectrostatic_energy": 6.21, 
			 "SMD_solvation_energy": 3.54 
		},
		"coords": [
			{
				"x": -0.5797069722,
				"y": -0.9520572189,
				"z": -3.0637924455,
				"element": "N" 
			},
			{
				"x": -0.1274365192,
				"y": -0.8558044737,
				"z": -1.7283839032,
				"element": "N" 
			},
			{
				"x": -1.0224697862,
				"y": -1.1701183312,
				"z": -0.7411288716,
				"element": "C" 
			},
			{
				"x": -0.7609760529,
				"y": -1.1316714565,
				"z": 0.5323142465,
				"element": "N" 
			},
			{
				"x": 0.5093497377,
				"y": -0.7441235546,
				"z": 0.8354722382,
				"element": "C" 
			},
			{
				"x": 1.5109426672,
				"y": -0.3992197487,
				"z": -0.0716867413,
				"element": "C" 
			},
			{
				"x": 2.7413861834,
				"y": -0.0358038112,
				"z": 0.5583512894,
				"element": "C" 
			},
			{
				"x": 2.6608621248,
				"y": -0.107865961,
				"z": 1.9169116534,
				"element": "C" 
			},
			{
				"x": 1.0866602313,
				"y": -0.6197023804,
				"z": 2.4802088779,
				"element": "S" 
			},
			{
				"x": 1.2157981301,
				"y": -0.4427384802,
				"z": -1.4874159412,
				"element": "C" 
			},
			{
				"x": 1.9524074306,
				"y": -0.1804176002,
				"z": -2.430331171,
				"element": "O" 
			},
			{
				"x": -0.4141197049,
				"y": -0.0393956007,
				"z": -3.4898624278,
				"element": "H" 
			},
			{
				"x": 0.0685275873,
				"y": -1.578645768,
				"z": -3.5424125844,
				"element": "H" 
			},
			{
				"x": -2.0025399647,
				"y": -1.4649132654,
				"z": -1.1032293877,
				"element": "H" 
			},
			{
				"x": 3.6267902285,
				"y": 0.2602311406,
				"z": 0.0098661601,
				"element": "H" 
			},
			{
				"x": 3.4348246792,
				"y": 0.1094465102,
				"z": 2.6401190084,
				"element": "H" 
			}
		],
		 "valence_orbital": [ 
			{
				"type": "occ",
				"energy": -0.29692,
				"method": "rhf"
			},
			{
				"type": "occ",
				"energy": -0.28853,
				"method": "rhf"
			},
			{
				"type": "occ",
				"energy": -0.27311,
				"method": "rhf"
			},
			{
				"type": "occ",
				"energy": -0.26573,
				"method": "rhf"
			},
			{
				"type": "occ",
				"energy": -0.22818,
				"method": "rhf"
			},
			{
				"type": "unocc",
				"energy": -0.04872,
				"method": "rhf"
			},
			{
				"type": "unocc",
				"energy": -0.0154,
				"method": "rhf"
			},
			{
				"type": "unocc",
				"energy": 0.01693,
				"method": "rhf"
			},
			{
				"type": "unocc",
				"energy": 0.02171,
				"method": "rhf"
			},
			{
				"type": "unocc",
				"energy": 0.07114,
				"method": "rhf"
			}
		],
		"cosmo_sigma_profile": { 
			"-0.025": 0.0,
			"-0.024": 0.0,
			"-0.023": 0.0,
			"-0.022": 0.0,
			"-0.021": 0.0,
			"-0.02": 0.0,
			"-0.019": 0.0,
			"-0.018": 0.0,
			"-0.017": 0.0,
			"-0.016": 0.0,
			"-0.015": 0.0,
			"-0.014": 0.0,
			"-0.013": 1.0678324294,
			"-0.012": 3.17235770973,
			"-0.011": 2.98338043926,
			"-0.01": 2.41109693179,
			"-0.009": 6.02843455936,
			"-0.008": 6.15896297933,
			"-0.007": 5.86693189924,
			"-0.006": 6.9772778357,
			"-0.005": 9.01160773417,
			"-0.004": 9.04437318261,
			"-0.003": 8.62062389302,
			"-0.002": 9.13439799468,
			"-0.001": 10.5671214492,
			"0.0": 13.6012107371,
			"0.001": 17.7808767411,
			"0.002": 16.7743888935,
			"0.003": 11.6749556553,
			"0.004": 7.20002760748,
			"0.005": 3.96071577294,
			"0.006": 2.48661034829,
			"0.007": 3.38303763352,
			"0.008": 2.90330116035,
			"0.009": 3.94660051743,
			"0.01": 2.4118855767,
			"0.011": 2.42764661967,
			"0.012": 5.47197630781,
			"0.013": 5.40159433564,
			"0.014": 0.821447712749,
			"0.015": 0.0,
			"0.016": 0.0,
			"0.017": 0.0,
			"0.018": 0.0,
			"0.019": 0.0,
			"0.02": 0.0,
			"0.021": 0.0,
			"0.022": 0.0,
			"0.023": 0.0,
			"0.024": 0.0,
			"0.025": 0.0
		}
	}
}
