{
	 "smiles": "ON=CNC1=NC=CC=N1", 
	 "Tm": 458.15, 
	 "num_atms": 16, 
	 "gaussian": { 
		 "optdone": 1, 
		 "sigma_profile": "yes", 
		 "theory": "DFT", 
		 "functional": "B3LYP", 
		 "basiset": "6-31G**", 
		 "properties": { 
			 "R2extent": 1981.1972, 
			 "electric_dipole_moment_norm": 2.06484551722, 
			 "electric_quadrupole_moment_norm": 10.712557148, 
			 "total_energy": -488.324461637, 
			 "HOMO_LUMO_gap": 0.17387, 
			 "cosmo_polarized_energy": -10.71, 
			 "cosmo_cavitation_energy": 21.18, 
			 "cosmo_dispersion_energy": -16.06, 
			 "cosmo_repulsion_energy": 1.31, 
			 "cosmo_total_nonelectrostatic_energy": 6.43, 
			 "SMD_solvation_energy": 1.75 
		},
		"coords": [
			{
				"x": 2.1786098098,
				"y": 0.8280565325,
				"z": -2.9146204276,
				"element": "O" 
			},
			{
				"x": 2.4555572953,
				"y": 1.0918857792,
				"z": -1.5456847725,
				"element": "N" 
			},
			{
				"x": 1.3912461708,
				"y": 0.9205633766,
				"z": -0.847766252,
				"element": "C" 
			},
			{
				"x": 0.1682190407,
				"y": 0.5387891927,
				"z": -1.3534241156,
				"element": "N" 
			},
			{
				"x": -0.9804181886,
				"y": 0.3516106261,
				"z": -0.6161078236,
				"element": "C" 
			},
			{
				"x": -0.9161526346,
				"y": 0.555334266,
				"z": 0.7097390766,
				"element": "N" 
			},
			{
				"x": -2.054322886,
				"y": 0.3613008396,
				"z": 1.3798597188,
				"element": "C" 
			},
			{
				"x": -3.2409716916,
				"y": -0.0272488896,
				"z": 0.7610941717,
				"element": "C" 
			},
			{
				"x": -3.1777067949,
				"y": -0.2066646814,
				"z": -0.6215689254,
				"element": "C" 
			},
			{
				"x": -2.0608373891,
				"y": -0.0228600542,
				"z": -1.3260240288,
				"element": "N" 
			},
			{
				"x": 3.0352173475,
				"y": 0.9868295777,
				"z": -3.328995518,
				"element": "H" 
			},
			{
				"x": 1.447017733,
				"y": 1.0857932952,
				"z": 0.2207695863,
				"element": "H" 
			},
			{
				"x": 0.1015628957,
				"y": 0.3809644775,
				"z": -2.3498295023,
				"element": "H" 
			},
			{
				"x": -2.0092235789,
				"y": 0.5248016958,
				"z": 2.4554636584,
				"element": "H" 
			},
			{
				"x": -4.1565812074,
				"y": -0.1806471016,
				"z": 1.31941989,
				"element": "H" 
			},
			{
				"x": -4.0564159217,
				"y": -0.509808932,
				"z": -1.1888247362,
				"element": "H" 
			}
		],
		 "valence_orbital": [ 
			{
				"type": "occ",
				"energy": -0.32198,
				"method": "rhf"
			},
			{
				"type": "occ",
				"energy": -0.27977,
				"method": "rhf"
			},
			{
				"type": "occ",
				"energy": -0.27689,
				"method": "rhf"
			},
			{
				"type": "occ",
				"energy": -0.25819,
				"method": "rhf"
			},
			{
				"type": "occ",
				"energy": -0.2172,
				"method": "rhf"
			},
			{
				"type": "unocc",
				"energy": -0.04333,
				"method": "rhf"
			},
			{
				"type": "unocc",
				"energy": -0.02361,
				"method": "rhf"
			},
			{
				"type": "unocc",
				"energy": 0.04565,
				"method": "rhf"
			},
			{
				"type": "unocc",
				"energy": 0.07242,
				"method": "rhf"
			},
			{
				"type": "unocc",
				"energy": 0.10108,
				"method": "rhf"
			}
		],
		"cosmo_sigma_profile": { 
			"-0.025": 0.0,
			"-0.024": 0.0,
			"-0.023": 0.0,
			"-0.022": 0.0,
			"-0.021": 0.0,
			"-0.02": 0.0,
			"-0.019": 0.0,
			"-0.018": 0.0884085480685,
			"-0.017": 0.775220728239,
			"-0.016": 1.04735356696,
			"-0.015": 0.723739909093,
			"-0.014": 1.09529128841,
			"-0.013": 0.584053669152,
			"-0.012": 0.419329109727,
			"-0.011": 1.18666836088,
			"-0.01": 1.21629264526,
			"-0.009": 1.0364821218,
			"-0.008": 6.30086717624,
			"-0.007": 8.99041077894,
			"-0.006": 10.0755683261,
			"-0.005": 6.91601713998,
			"-0.004": 6.33478582109,
			"-0.003": 7.77110847088,
			"-0.002": 9.32123900615,
			"-0.001": 13.8258203163,
			"0.0": 17.5574043496,
			"0.001": 14.8198937107,
			"0.002": 8.88759049571,
			"0.003": 6.37833234051,
			"0.004": 6.43153971432,
			"0.005": 5.05504713295,
			"0.006": 6.68473108848,
			"0.007": 6.24759713752,
			"0.008": 5.09976872663,
			"0.009": 4.56560975303,
			"0.01": 2.78115617531,
			"0.011": 2.88156005004,
			"0.012": 1.56734139787,
			"0.013": 1.8469113179,
			"0.014": 1.42784006194,
			"0.015": 0.0653702260722,
			"0.016": 0.0,
			"0.017": 0.0,
			"0.018": 0.0,
			"0.019": 0.0,
			"0.02": 0.0,
			"0.021": 0.0,
			"0.022": 0.0,
			"0.023": 0.0,
			"0.024": 0.0,
			"0.025": 0.0
		}
	}
}
