{
	 "smiles": "CC#CCO", 
	 "Tm": 271.05, 
	 "num_atms": 11, 
	 "gaussian": { 
		 "optdone": 1, 
		 "sigma_profile": "yes", 
		 "theory": "DFT", 
		 "functional": "B3LYP", 
		 "basiset": "6-31G**", 
		 "properties": { 
			 "R2extent": 811.2485, 
			 "electric_dipole_moment_norm": 2.06188242633, 
			 "electric_quadrupole_moment_norm": 5.37562312946, 
			 "total_energy": -231.186852321, 
			 "HOMO_LUMO_gap": 0.28456, 
			 "cosmo_polarized_energy": -7.14, 
			 "cosmo_cavitation_energy": 15.46, 
			 "cosmo_dispersion_energy": -11.3, 
			 "cosmo_repulsion_energy": 1.05, 
			 "cosmo_total_nonelectrostatic_energy": 5.21, 
			 "SMD_solvation_energy": 3.56 
		},
		"coords": [
			{
				"x": 0.8817788936,
				"y": -3.0510781546,
				"z": -1.744009608,
				"element": "C" 
			},
			{
				"x": 0.5555853586,
				"y": -1.7375497431,
				"z": -1.1966693859,
				"element": "C" 
			},
			{
				"x": 0.2683532554,
				"y": -0.6509018916,
				"z": -0.7480252859,
				"element": "C" 
			},
			{
				"x": -0.0214929614,
				"y": 0.6770954988,
				"z": -0.194703477,
				"element": "C" 
			},
			{
				"x": 0.8256256629,
				"y": 1.7043090466,
				"z": -0.7000392998,
				"element": "O" 
			},
			{
				"x": 0.5923866534,
				"y": -3.8504121956,
				"z": -1.0525026695,
				"element": "H" 
			},
			{
				"x": 1.957894792,
				"y": -3.1468302111,
				"z": -1.927564672,
				"element": "H" 
			},
			{
				"x": 0.3653130773,
				"y": -3.227763675,
				"z": -2.6940607648,
				"element": "H" 
			},
			{
				"x": 0.0221751279,
				"y": 0.6283368043,
				"z": 0.906003532,
				"element": "H" 
			},
			{
				"x": -1.0419193853,
				"y": 0.9798521034,
				"z": -0.4553784513,
				"element": "H" 
			},
			{
				"x": 1.7369995258,
				"y": 1.4034424179,
				"z": -0.5887499176,
				"element": "H" 
			}
		],
		 "valence_orbital": [ 
			{
				"type": "occ",
				"energy": -0.42726,
				"method": "rhf"
			},
			{
				"type": "occ",
				"energy": -0.35003,
				"method": "rhf"
			},
			{
				"type": "occ",
				"energy": -0.28117,
				"method": "rhf"
			},
			{
				"type": "occ",
				"energy": -0.25676,
				"method": "rhf"
			},
			{
				"type": "occ",
				"energy": -0.24877,
				"method": "rhf"
			},
			{
				"type": "unocc",
				"energy": 0.03579,
				"method": "rhf"
			},
			{
				"type": "unocc",
				"energy": 0.05894,
				"method": "rhf"
			},
			{
				"type": "unocc",
				"energy": 0.10663,
				"method": "rhf"
			},
			{
				"type": "unocc",
				"energy": 0.1098,
				"method": "rhf"
			},
			{
				"type": "unocc",
				"energy": 0.13456,
				"method": "rhf"
			}
		],
		"cosmo_sigma_profile": { 
			"-0.025": 0.0,
			"-0.024": 0.0,
			"-0.023": 0.0,
			"-0.022": 0.0,
			"-0.021": 0.0,
			"-0.02": 0.0,
			"-0.019": 0.0,
			"-0.018": 0.0,
			"-0.017": 0.0,
			"-0.016": 0.216011630191,
			"-0.015": 0.992575918181,
			"-0.014": 0.866091345173,
			"-0.013": 0.735475137677,
			"-0.012": 0.724283011186,
			"-0.011": 0.662466543936,
			"-0.01": 0.983567543481,
			"-0.009": 0.941968414828,
			"-0.008": 0.894598247296,
			"-0.007": 0.798433013996,
			"-0.006": 6.99317268714,
			"-0.005": 10.8117524142,
			"-0.004": 10.6148583688,
			"-0.003": 11.9454833633,
			"-0.002": 12.0502804544,
			"-0.001": 8.65194722168,
			"0.0": 5.46919258237,
			"0.001": 4.27076054164,
			"0.002": 4.22126398123,
			"0.003": 4.0068944742,
			"0.004": 4.39599452355,
			"0.005": 5.67907083023,
			"0.006": 6.64530237092,
			"0.007": 6.96120808823,
			"0.008": 2.25523392184,
			"0.009": 1.52287687872,
			"0.01": 0.946389481327,
			"0.011": 1.30717173991,
			"0.012": 1.78359695786,
			"0.013": 1.95653931684,
			"0.014": 2.11435260723,
			"0.015": 0.039369670531,
			"0.016": 0.0,
			"0.017": 0.0,
			"0.018": 0.0,
			"0.019": 0.0,
			"0.02": 0.0,
			"0.021": 0.0,
			"0.022": 0.0,
			"0.023": 0.0,
			"0.024": 0.0,
			"0.025": 0.0
		}
	}
}
