{
	 "smiles": "CC(C)(C1=NOC(N)=C1)S(C)(=O)=O", 
	 "Tm": 453.15, 
	 "num_atms": 25, 
	 "gaussian": { 
		 "optdone": 1, 
		 "sigma_profile": "yes", 
		 "theory": "DFT", 
		 "functional": "B3LYP", 
		 "basiset": "6-31G**", 
		 "properties": { 
			 "R2extent": 3186.0901, 
			 "electric_dipole_moment_norm": 2.12280120124, 
			 "electric_quadrupole_moment_norm": 23.7082836038, 
			 "total_energy": -1007.23380939, 
			 "HOMO_LUMO_gap": 0.21755, 
			 "cosmo_polarized_energy": -22.73, 
			 "cosmo_cavitation_energy": 28.93, 
			 "cosmo_dispersion_energy": -21.08, 
			 "cosmo_repulsion_energy": 1.62, 
			 "cosmo_total_nonelectrostatic_energy": 9.47, 
			 "SMD_solvation_energy": 5.04 
		},
		"coords": [
			{
				"x": -1.7168718132,
				"y": -0.0479489011,
				"z": -0.3353739995,
				"element": "C" 
			},
			{
				"x": -0.2674776146,
				"y": -0.4749051627,
				"z": -0.6248171567,
				"element": "C" 
			},
			{
				"x": 0.0857821668,
				"y": -0.3509018045,
				"z": -2.1129412313,
				"element": "C" 
			},
			{
				"x": -0.0262050627,
				"y": -1.8782861529,
				"z": -0.1066139366,
				"element": "C" 
			},
			{
				"x": 0.2315062159,
				"y": -2.8388758281,
				"z": -0.9698155418,
				"element": "N" 
			},
			{
				"x": 0.3482287233,
				"y": -4.0066236757,
				"z": -0.1857064415,
				"element": "O" 
			},
			{
				"x": 0.1603962316,
				"y": -3.6861930158,
				"z": 1.1078247925,
				"element": "C" 
			},
			{
				"x": 0.2032471462,
				"y": -4.7284396745,
				"z": 2.0003017308,
				"element": "N" 
			},
			{
				"x": -0.0937673224,
				"y": -2.3458495468,
				"z": 1.2355757896,
				"element": "C" 
			},
			{
				"x": 0.8932896988,
				"y": 0.6221448199,
				"z": 0.3671905416,
				"element": "S" 
			},
			{
				"x": 0.7136773522,
				"y": 2.287144725,
				"z": -0.3298069942,
				"element": "C" 
			},
			{
				"x": 2.2749255769,
				"y": 0.1881724136,
				"z": 0.1052059347,
				"element": "O" 
			},
			{
				"x": 0.3815648481,
				"y": 0.6900634705,
				"z": 1.7506319594,
				"element": "O" 
			},
			{
				"x": -1.9330833779,
				"y": -0.0708228024,
				"z": 0.7339288706,
				"element": "H" 
			},
			{
				"x": -2.3938636558,
				"y": -0.7400778201,
				"z": -0.844951037,
				"element": "H" 
			},
			{
				"x": -1.9210035957,
				"y": 0.9581804078,
				"z": -0.7147498961,
				"element": "H" 
			},
			{
				"x": 1.1455216911,
				"y": -0.5477685371,
				"z": -2.2843012131,
				"element": "H" 
			},
			{
				"x": -0.48578025,
				"y": -1.0912771095,
				"z": -2.6767923317,
				"element": "H" 
			},
			{
				"x": -0.1699394969,
				"y": 0.6415582299,
				"z": -2.4941722,
				"element": "H" 
			},
			{
				"x": 0.4229856547,
				"y": -4.465725971,
				"z": 2.9503917709,
				"element": "H" 
			},
			{
				"x": 0.7203688931,
				"y": -5.5355285479,
				"z": 1.6774696416,
				"element": "H" 
			},
			{
				"x": -0.2549733667,
				"y": -1.7688398995,
				"z": 2.1306896447,
				"element": "H" 
			},
			{
				"x": 1.0707674243,
				"y": 2.3043665155,
				"z": -1.3589504965,
				"element": "H" 
			},
			{
				"x": -0.3222089606,
				"y": 2.6184796812,
				"z": -0.2559222806,
				"element": "H" 
			},
			{
				"x": 1.3493128934,
				"y": 2.9141541864,
				"z": 0.2984040801,
				"element": "H" 
			}
		],
		 "valence_orbital": [ 
			{
				"type": "occ",
				"energy": -0.30021,
				"method": "rhf"
			},
			{
				"type": "occ",
				"energy": -0.29103,
				"method": "rhf"
			},
			{
				"type": "occ",
				"energy": -0.28885,
				"method": "rhf"
			},
			{
				"type": "occ",
				"energy": -0.27365,
				"method": "rhf"
			},
			{
				"type": "occ",
				"energy": -0.21972,
				"method": "rhf"
			},
			{
				"type": "unocc",
				"energy": -0.00217,
				"method": "rhf"
			},
			{
				"type": "unocc",
				"energy": 0.04806,
				"method": "rhf"
			},
			{
				"type": "unocc",
				"energy": 0.05952,
				"method": "rhf"
			},
			{
				"type": "unocc",
				"energy": 0.06659,
				"method": "rhf"
			},
			{
				"type": "unocc",
				"energy": 0.07314,
				"method": "rhf"
			}
		],
		"cosmo_sigma_profile": { 
			"-0.025": 0.0,
			"-0.024": 0.0,
			"-0.023": 0.0,
			"-0.022": 0.0,
			"-0.021": 0.0,
			"-0.02": 0.0,
			"-0.019": 0.0,
			"-0.018": 0.0,
			"-0.017": 0.0,
			"-0.016": 0.0,
			"-0.015": 0.97495022355,
			"-0.014": 2.98423684378,
			"-0.013": 2.50046640531,
			"-0.012": 2.95291775124,
			"-0.011": 2.57119010019,
			"-0.01": 2.43935001416,
			"-0.009": 4.20910096739,
			"-0.008": 10.5862005364,
			"-0.007": 11.1018813931,
			"-0.006": 9.52884776648,
			"-0.005": 13.9093543524,
			"-0.004": 15.3017682196,
			"-0.003": 16.2874261943,
			"-0.002": 14.2242326484,
			"-0.001": 14.2399014065,
			"0.0": 8.28683519925,
			"0.001": 7.27290337892,
			"0.002": 8.73543598058,
			"0.003": 8.71735534136,
			"0.004": 6.78193546744,
			"0.005": 6.43379057977,
			"0.006": 6.16349258695,
			"0.007": 6.80403293856,
			"0.008": 8.32698922277,
			"0.009": 7.54216759376,
			"0.01": 5.72753090639,
			"0.011": 10.6058335768,
			"0.012": 9.5151464525,
			"0.013": 2.17671918701,
			"0.014": 0.621692735072,
			"0.015": 0.0,
			"0.016": 0.0,
			"0.017": 0.0,
			"0.018": 0.0,
			"0.019": 0.0,
			"0.02": 0.0,
			"0.021": 0.0,
			"0.022": 0.0,
			"0.023": 0.0,
			"0.024": 0.0,
			"0.025": 0.0
		}
	}
}
