{
	 "smiles": "COC1=CC=C(C(N)=N1)[N+]([O-])=O", 
	 "Tm": 444.15, 
	 "num_atms": 19, 
	 "gaussian": { 
		 "optdone": 1, 
		 "sigma_profile": "yes", 
		 "theory": "DFT", 
		 "functional": "B3LYP", 
		 "basiset": "6-31G**", 
		 "properties": { 
			 "R2extent": 2459.8696, 
			 "electric_dipole_moment_norm": 4.82389422459, 
			 "electric_quadrupole_moment_norm": 14.1406882251, 
			 "total_energy": -622.695843672, 
			 "HOMO_LUMO_gap": 0.15187, 
			 "cosmo_polarized_energy": -10.94, 
			 "cosmo_cavitation_energy": 23.79, 
			 "cosmo_dispersion_energy": -18.06, 
			 "cosmo_repulsion_energy": 1.45, 
			 "cosmo_total_nonelectrostatic_energy": 7.19, 
			 "SMD_solvation_energy": 6.25 
		},
		"coords": [
			{
				"x": -1.9255001534,
				"y": 0.6434613755,
				"z": -3.3701609248,
				"element": "C" 
			},
			{
				"x": -0.6154092654,
				"y": 0.3742591834,
				"z": -2.8557548074,
				"element": "O" 
			},
			{
				"x": -0.4273863254,
				"y": 0.4931430562,
				"z": -1.532385741,
				"element": "C" 
			},
			{
				"x": 0.8790825061,
				"y": 0.2194835673,
				"z": -1.0593341596,
				"element": "C" 
			},
			{
				"x": 1.0852000537,
				"y": 0.3374600553,
				"z": 0.2933820514,
				"element": "C" 
			},
			{
				"x": 0.0280938258,
				"y": 0.7140882368,
				"z": 1.1408768798,
				"element": "C" 
			},
			{
				"x": -1.2532814518,
				"y": 0.969177142,
				"z": 0.569906409,
				"element": "C" 
			},
			{
				"x": -2.3318805414,
				"y": 1.3349906873,
				"z": 1.2868535374,
				"element": "N" 
			},
			{
				"x": -1.4430092443,
				"y": 0.8491527348,
				"z": -0.7643753385,
				"element": "N" 
			},
			{
				"x": 0.2896514244,
				"y": 0.8247170588,
				"z": 2.5479254494,
				"element": "N" 
			},
			{
				"x": 1.4293858019,
				"y": 0.5850464878,
				"z": 2.9556249664,
				"element": "O" 
			},
			{
				"x": -0.6412727601,
				"y": 1.1586933443,
				"z": 3.3100676192,
				"element": "O" 
			},
			{
				"x": -2.2263263033,
				"y": 1.6719546609,
				"z": -3.1537262247,
				"element": "H" 
			},
			{
				"x": -2.6628809618,
				"y": -0.0372971699,
				"z": -2.9366261584,
				"element": "H" 
			},
			{
				"x": -1.848775075,
				"y": 0.4871824324,
				"z": -4.4464057535,
				"element": "H" 
			},
			{
				"x": 1.6601418357,
				"y": -0.06713514,
				"z": -1.7515448942,
				"element": "H" 
			},
			{
				"x": 2.051713784,
				"y": 0.147523225,
				"z": 0.7434475705,
				"element": "H" 
			},
			{
				"x": -2.2356237031,
				"y": 1.4359380627,
				"z": 2.2875866621,
				"element": "H" 
			},
			{
				"x": -3.1939234466,
				"y": 1.4914609994,
				"z": 0.7903428571,
				"element": "H" 
			}
		],
		 "valence_orbital": [ 
			{
				"type": "occ",
				"energy": -0.29837,
				"method": "rhf"
			},
			{
				"type": "occ",
				"energy": -0.29372,
				"method": "rhf"
			},
			{
				"type": "occ",
				"energy": -0.2805,
				"method": "rhf"
			},
			{
				"type": "occ",
				"energy": -0.2787,
				"method": "rhf"
			},
			{
				"type": "occ",
				"energy": -0.22913,
				"method": "rhf"
			},
			{
				"type": "unocc",
				"energy": -0.07726,
				"method": "rhf"
			},
			{
				"type": "unocc",
				"energy": -0.01819,
				"method": "rhf"
			},
			{
				"type": "unocc",
				"energy": 0.0157,
				"method": "rhf"
			},
			{
				"type": "unocc",
				"energy": 0.09016,
				"method": "rhf"
			},
			{
				"type": "unocc",
				"energy": 0.10395,
				"method": "rhf"
			}
		],
		"cosmo_sigma_profile": { 
			"-0.025": 0.0,
			"-0.024": 0.0,
			"-0.023": 0.0,
			"-0.022": 0.0,
			"-0.021": 0.0,
			"-0.02": 0.0,
			"-0.019": 0.0,
			"-0.018": 0.0,
			"-0.017": 0.0,
			"-0.016": 0.0,
			"-0.015": 0.327601817594,
			"-0.014": 0.871497715428,
			"-0.013": 1.2675772559,
			"-0.012": 0.992252192489,
			"-0.011": 1.01311508267,
			"-0.01": 2.06838646454,
			"-0.009": 1.89513954334,
			"-0.008": 2.68402828174,
			"-0.007": 5.20084539224,
			"-0.006": 7.01068114879,
			"-0.005": 11.7554799002,
			"-0.004": 13.5507961744,
			"-0.003": 14.9753520779,
			"-0.002": 14.4117072641,
			"-0.001": 18.3539344091,
			"0.0": 15.1047487667,
			"0.001": 12.8283739917,
			"0.002": 12.0113097914,
			"0.003": 7.48430195383,
			"0.004": 6.54433798406,
			"0.005": 4.92148076596,
			"0.006": 5.82353804178,
			"0.007": 6.18779886809,
			"0.008": 7.5733319277,
			"0.009": 6.71232813468,
			"0.01": 4.30030227057,
			"0.011": 3.5377161816,
			"0.012": 0.707020972448,
			"0.013": 0.0,
			"0.014": 0.0,
			"0.015": 0.0,
			"0.016": 0.0,
			"0.017": 0.0,
			"0.018": 0.0,
			"0.019": 0.0,
			"0.02": 0.0,
			"0.021": 0.0,
			"0.022": 0.0,
			"0.023": 0.0,
			"0.024": 0.0,
			"0.025": 0.0
		}
	}
}
