{
	 "smiles": "COC1=CC=CC=C1C(=O)N(NC(=O)C1=CC=CC=C1)C(C)(C)C", 
	 "Tm": 455.15, 
	 "num_atms": 46, 
	 "gaussian": { 
		 "optdone": 1, 
		 "sigma_profile": "yes", 
		 "theory": "DFT", 
		 "functional": "B3LYP", 
		 "basiset": "6-31G**", 
		 "properties": { 
			 "R2extent": 8066.5256, 
			 "electric_dipole_moment_norm": 5.26783728963, 
			 "electric_quadrupole_moment_norm": 6.98228138935, 
			 "total_energy": -1072.44256097, 
			 "HOMO_LUMO_gap": 0.16666, 
			 "cosmo_polarized_energy": -17.25, 
			 "cosmo_cavitation_energy": 46.99, 
			 "cosmo_dispersion_energy": -30.7, 
			 "cosmo_repulsion_energy": 2.32, 
			 "cosmo_total_nonelectrostatic_energy": 18.61, 
			 "SMD_solvation_energy": 9.78 
		},
		"coords": [
			{
				"x": -2.2458863536,
				"y": 1.376496721,
				"z": -1.5740340692,
				"element": "C" 
			},
			{
				"x": -1.0385571639,
				"y": 1.4747377264,
				"z": -2.3358674178,
				"element": "O" 
			},
			{
				"x": 0.0946434725,
				"y": 0.8001325363,
				"z": -2.0294787523,
				"element": "C" 
			},
			{
				"x": 1.2162321796,
				"y": 1.2603536526,
				"z": -2.7502342931,
				"element": "C" 
			},
			{
				"x": 2.4717332364,
				"y": 0.7014396592,
				"z": -2.5782652974,
				"element": "C" 
			},
			{
				"x": 2.6541463132,
				"y": -0.3430720541,
				"z": -1.664093618,
				"element": "C" 
			},
			{
				"x": 1.5590738952,
				"y": -0.7958927564,
				"z": -0.9434047323,
				"element": "C" 
			},
			{
				"x": 0.2679793994,
				"y": -0.2488173923,
				"z": -1.0980775287,
				"element": "C" 
			},
			{
				"x": -0.8513971969,
				"y": -0.9795608291,
				"z": -0.4044433088,
				"element": "C" 
			},
			{
				"x": -1.7630460363,
				"y": -1.5001398518,
				"z": -1.0358136734,
				"element": "O" 
			},
			{
				"x": -0.720432528,
				"y": -1.152476846,
				"z": 0.9735248217,
				"element": "N" 
			},
			{
				"x": 0.1080570626,
				"y": -0.2837640578,
				"z": 1.6711642268,
				"element": "N" 
			},
			{
				"x": -0.2714230325,
				"y": 1.006389994,
				"z": 1.9795263889,
				"element": "C" 
			},
			{
				"x": -1.3721032963,
				"y": 1.4596156713,
				"z": 1.6889333468,
				"element": "O" 
			},
			{
				"x": 0.7639824415,
				"y": 1.8157980918,
				"z": 2.7024028584,
				"element": "C" 
			},
			{
				"x": 1.7774510151,
				"y": 1.248967592,
				"z": 3.4896149685,
				"element": "C" 
			},
			{
				"x": 2.7009191448,
				"y": 2.0673438292,
				"z": 4.1404069684,
				"element": "C" 
			},
			{
				"x": 2.6200122937,
				"y": 3.454861671,
				"z": 4.0098823224,
				"element": "C" 
			},
			{
				"x": 1.6042500276,
				"y": 4.0249907553,
				"z": 3.2377429798,
				"element": "C" 
			},
			{
				"x": 0.6765333758,
				"y": 3.2105642813,
				"z": 2.5935571592,
				"element": "C" 
			},
			{
				"x": -1.6672797413,
				"y": -2.0339074274,
				"z": 1.7628338593,
				"element": "C" 
			},
			{
				"x": -1.2025331942,
				"y": -2.0743536909,
				"z": 3.2267771114,
				"element": "C" 
			},
			{
				"x": -1.6021183954,
				"y": -3.4627679532,
				"z": 1.1893762915,
				"element": "C" 
			},
			{
				"x": -3.1006342472,
				"y": -1.4735545524,
				"z": 1.694273489,
				"element": "C" 
			},
			{
				"x": -2.0487899442,
				"y": 1.4431589062,
				"z": -0.4999039236,
				"element": "H" 
			},
			{
				"x": -2.7735949758,
				"y": 0.4466342892,
				"z": -1.7949132988,
				"element": "H" 
			},
			{
				"x": -2.8458339427,
				"y": 2.2334290846,
				"z": -1.8874121777,
				"element": "H" 
			},
			{
				"x": 1.0524328803,
				"y": 2.0753554923,
				"z": -3.44746547,
				"element": "H" 
			},
			{
				"x": 3.3108188922,
				"y": 1.0796859015,
				"z": -3.1551624464,
				"element": "H" 
			},
			{
				"x": 3.6284686204,
				"y": -0.8017611064,
				"z": -1.5292010916,
				"element": "H" 
			},
			{
				"x": 1.6785348922,
				"y": -1.6359256447,
				"z": -0.2626356009,
				"element": "H" 
			},
			{
				"x": 1.0849899229,
				"y": -0.5332460121,
				"z": 1.7251123985,
				"element": "H" 
			},
			{
				"x": 1.8297375505,
				"y": 0.1733075766,
				"z": 3.6310415127,
				"element": "H" 
			},
			{
				"x": 3.4766479238,
				"y": 1.621686211,
				"z": 4.7559798655,
				"element": "H" 
			},
			{
				"x": 3.3412098778,
				"y": 4.0904660866,
				"z": 4.5154473395,
				"element": "H" 
			},
			{
				"x": 1.5349128582,
				"y": 5.1043933015,
				"z": 3.1409363974,
				"element": "H" 
			},
			{
				"x": -0.1270289632,
				"y": 3.632530843,
				"z": 1.9997589178,
				"element": "H" 
			},
			{
				"x": -1.8432269902,
				"y": -2.7760565255,
				"z": 3.7684779368,
				"element": "H" 
			},
			{
				"x": -1.2845245947,
				"y": -1.1011678672,
				"z": 3.7159562829,
				"element": "H" 
			},
			{
				"x": -0.1701104758,
				"y": -2.4269208836,
				"z": 3.3184693463,
				"element": "H" 
			},
			{
				"x": -1.9212943911,
				"y": -3.4879205055,
				"z": 0.1481548239,
				"element": "H" 
			},
			{
				"x": -0.5838457528,
				"y": -3.8608107218,
				"z": 1.2579332625,
				"element": "H" 
			},
			{
				"x": -2.2603564342,
				"y": -4.1160690202,
				"z": 1.7710900089,
				"element": "H" 
			},
			{
				"x": -3.4699450516,
				"y": -1.4886138547,
				"z": 0.6684872401,
				"element": "H" 
			},
			{
				"x": -3.7644901546,
				"y": -2.0863983657,
				"z": 2.3138162952,
				"element": "H" 
			},
			{
				"x": -3.1250144193,
				"y": -0.4447419549,
				"z": 2.0610282798,
				"element": "H" 
			}
		],
		 "valence_orbital": [ 
			{
				"type": "occ",
				"energy": -0.26251,
				"method": "rhf"
			},
			{
				"type": "occ",
				"energy": -0.26138,
				"method": "rhf"
			},
			{
				"type": "occ",
				"energy": -0.2543,
				"method": "rhf"
			},
			{
				"type": "occ",
				"energy": -0.24021,
				"method": "rhf"
			},
			{
				"type": "occ",
				"energy": -0.21438,
				"method": "rhf"
			},
			{
				"type": "unocc",
				"energy": -0.04772,
				"method": "rhf"
			},
			{
				"type": "unocc",
				"energy": -0.02151,
				"method": "rhf"
			},
			{
				"type": "unocc",
				"energy": -0.01718,
				"method": "rhf"
			},
			{
				"type": "unocc",
				"energy": 0.00544,
				"method": "rhf"
			},
			{
				"type": "unocc",
				"energy": 0.03134,
				"method": "rhf"
			}
		],
		"cosmo_sigma_profile": { 
			"-0.025": 0.0,
			"-0.024": 0.0,
			"-0.023": 0.0,
			"-0.022": 0.0,
			"-0.021": 0.0,
			"-0.02": 0.0,
			"-0.019": 0.0,
			"-0.018": 0.0,
			"-0.017": 0.0,
			"-0.016": 0.0,
			"-0.015": 0.0299693804166,
			"-0.014": 0.522483270954,
			"-0.013": 1.20892137465,
			"-0.012": 1.25641184604,
			"-0.011": 1.13541310424,
			"-0.01": 1.40093957006,
			"-0.009": 2.41067887239,
			"-0.008": 1.48586220996,
			"-0.007": 4.47020118317,
			"-0.006": 16.7142946144,
			"-0.005": 20.4227103183,
			"-0.004": 29.4465075286,
			"-0.003": 34.7566434836,
			"-0.002": 30.0380988002,
			"-0.001": 31.7870972385,
			"0.0": 34.257287719,
			"0.001": 34.0408566427,
			"0.002": 23.6837660569,
			"0.003": 25.7332908107,
			"0.004": 28.3047785652,
			"0.005": 15.001446537,
			"0.006": 7.1651194135,
			"0.007": 6.22429250853,
			"0.008": 4.02600932819,
			"0.009": 4.25275042335,
			"0.01": 3.49974261012,
			"0.011": 2.81871718485,
			"0.012": 3.07478747131,
			"0.013": 2.69048342904,
			"0.014": 0.308254672209,
			"0.015": 0.0,
			"0.016": 0.0,
			"0.017": 0.0,
			"0.018": 0.0,
			"0.019": 0.0,
			"0.02": 0.0,
			"0.021": 0.0,
			"0.022": 0.0,
			"0.023": 0.0,
			"0.024": 0.0,
			"0.025": 0.0
		}
	}
}
