{
	 "smiles": "CS(=O)(=O)C1=CC(C(O)=O)=C(Cl)C=C1", 
	 "Tm": 457.15, 
	 "num_atms": 21, 
	 "gaussian": { 
		 "optdone": 1, 
		 "sigma_profile": "yes", 
		 "theory": "DFT", 
		 "functional": "B3LYP", 
		 "basiset": "6-31G**", 
		 "properties": { 
			 "R2extent": 4287.0908, 
			 "electric_dipole_moment_norm": 3.78468038413, 
			 "electric_quadrupole_moment_norm": 24.2830102479, 
			 "total_energy": -1468.28835347, 
			 "HOMO_LUMO_gap": 0.19904, 
			 "cosmo_polarized_energy": -19.71, 
			 "cosmo_cavitation_energy": 29.2, 
			 "cosmo_dispersion_energy": -21.71, 
			 "cosmo_repulsion_energy": 1.67, 
			 "cosmo_total_nonelectrostatic_energy": 9.15, 
			 "SMD_solvation_energy": 5.75 
		},
		"coords": [
			{
				"x": -0.8385398537,
				"y": -3.1075909722,
				"z": -3.0307372368,
				"element": "C" 
			},
			{
				"x": -2.0423624497,
				"y": -1.9217435843,
				"z": -2.3861672089,
				"element": "S" 
			},
			{
				"x": -2.6500458853,
				"y": -1.2349545612,
				"z": -3.5357437574,
				"element": "O" 
			},
			{
				"x": -2.8624106769,
				"y": -2.6208857263,
				"z": -1.3865545304,
				"element": "O" 
			},
			{
				"x": -1.024326518,
				"y": -0.7151061536,
				"z": -1.5153863908,
				"element": "C" 
			},
			{
				"x": -0.7094715002,
				"y": -0.9250625138,
				"z": -0.1786015611,
				"element": "C" 
			},
			{
				"x": 0.0764606821,
				"y": 0.0007234922,
				"z": 0.5281196774,
				"element": "C" 
			},
			{
				"x": 0.3661584362,
				"y": -0.2584895123,
				"z": 1.9731790044,
				"element": "C" 
			},
			{
				"x": 0.0048670878,
				"y": -1.5163718028,
				"z": 2.3357130507,
				"element": "O" 
			},
			{
				"x": 0.8516166741,
				"y": 0.5216431951,
				"z": 2.7610797943,
				"element": "O" 
			},
			{
				"x": 0.5319594333,
				"y": 1.1451086575,
				"z": -0.16077328,
				"element": "C" 
			},
			{
				"x": 1.5373316134,
				"y": 2.361459518,
				"z": 0.5792465245,
				"element": "Cl" 
			},
			{
				"x": 0.1976766841,
				"y": 1.3508327083,
				"z": -1.504195538,
				"element": "C" 
			},
			{
				"x": -0.5849967954,
				"y": 0.4267017559,
				"z": -2.186875037,
				"element": "C" 
			},
			{
				"x": -1.4151171938,
				"y": -3.86002135,
				"z": -3.5729161727,
				"element": "H" 
			},
			{
				"x": -0.3039368251,
				"y": -3.566513346,
				"z": -2.197992918,
				"element": "H" 
			},
			{
				"x": -0.153712653,
				"y": -2.5943962944,
				"z": -3.7072043598,
				"element": "H" 
			},
			{
				"x": -1.0908855091,
				"y": -1.7988776141,
				"z": 0.3350194997,
				"element": "H" 
			},
			{
				"x": 0.1978588652,
				"y": -1.5814191181,
				"z": 3.2853771595,
				"element": "H" 
			},
			{
				"x": 0.553654129,
				"y": 2.2452624246,
				"z": -2.0023834868,
				"element": "H" 
			},
			{
				"x": -0.8694777452,
				"y": 0.5925007975,
				"z": -3.2206032329,
				"element": "H" 
			}
		],
		 "valence_orbital": [ 
			{
				"type": "occ",
				"energy": -0.30563,
				"method": "rhf"
			},
			{
				"type": "occ",
				"energy": -0.30007,
				"method": "rhf"
			},
			{
				"type": "occ",
				"energy": -0.29588,
				"method": "rhf"
			},
			{
				"type": "occ",
				"energy": -0.28327,
				"method": "rhf"
			},
			{
				"type": "occ",
				"energy": -0.27707,
				"method": "rhf"
			},
			{
				"type": "unocc",
				"energy": -0.07803,
				"method": "rhf"
			},
			{
				"type": "unocc",
				"energy": -0.05514,
				"method": "rhf"
			},
			{
				"type": "unocc",
				"energy": 0.01474,
				"method": "rhf"
			},
			{
				"type": "unocc",
				"energy": 0.02032,
				"method": "rhf"
			},
			{
				"type": "unocc",
				"energy": 0.06085,
				"method": "rhf"
			}
		],
		"cosmo_sigma_profile": { 
			"-0.025": 0.0,
			"-0.024": 0.0,
			"-0.023": 0.0,
			"-0.022": 0.0,
			"-0.021": 0.0,
			"-0.02": 0.0,
			"-0.019": 0.312915831165,
			"-0.018": 0.740692720415,
			"-0.017": 1.27418738873,
			"-0.016": 0.353098204367,
			"-0.015": 0.942920964496,
			"-0.014": 1.02712517817,
			"-0.013": 0.60942426562,
			"-0.012": 0.582158740695,
			"-0.011": 0.640821285886,
			"-0.01": 0.788173314571,
			"-0.009": 6.08880449813,
			"-0.008": 12.2760882482,
			"-0.007": 11.3740407483,
			"-0.006": 9.88982165956,
			"-0.005": 10.7045007332,
			"-0.004": 14.5035692076,
			"-0.003": 14.9169222807,
			"-0.002": 15.6851022966,
			"-0.001": 22.8514316069,
			"0.0": 16.046907599,
			"0.001": 9.89795675484,
			"0.002": 8.8841252068,
			"0.003": 11.1157771919,
			"0.004": 8.68468927344,
			"0.005": 6.35317203339,
			"0.006": 4.66888286358,
			"0.007": 4.09064912211,
			"0.008": 4.62074906938,
			"0.009": 6.25350697043,
			"0.01": 8.36060351529,
			"0.011": 14.423426396,
			"0.012": 7.10541033883,
			"0.013": 0.038013760644,
			"0.014": 0.0,
			"0.015": 0.0,
			"0.016": 0.0,
			"0.017": 0.0,
			"0.018": 0.0,
			"0.019": 0.0,
			"0.02": 0.0,
			"0.021": 0.0,
			"0.022": 0.0,
			"0.023": 0.0,
			"0.024": 0.0,
			"0.025": 0.0
		}
	}
}
