{
	 "smiles": "CCC(=O)C1=CC=C(OC(F)F)C=C1", 
	 "Tm": 314.15, 
	 "num_atms": 24, 
	 "gaussian": { 
		 "optdone": 1, 
		 "sigma_profile": "yes", 
		 "theory": "DFT", 
		 "functional": "B3LYP", 
		 "basiset": "6-31G**", 
		 "properties": { 
			 "R2extent": 4387.9442, 
			 "electric_dipole_moment_norm": 3.30276023047, 
			 "electric_quadrupole_moment_norm": 7.18141810996, 
			 "total_energy": -737.220494691, 
			 "HOMO_LUMO_gap": 0.19403, 
			 "cosmo_polarized_energy": -9.41, 
			 "cosmo_cavitation_energy": 28.92, 
			 "cosmo_dispersion_energy": -20.99, 
			 "cosmo_repulsion_energy": 1.62, 
			 "cosmo_total_nonelectrostatic_energy": 9.55, 
			 "SMD_solvation_energy": 6.77 
		},
		"coords": [
			{
				"x": 0.399077362,
				"y": 4.9903604196,
				"z": 1.1116261781,
				"element": "C" 
			},
			{
				"x": -0.4547893358,
				"y": 3.8499065586,
				"z": 0.5611572383,
				"element": "C" 
			},
			{
				"x": 0.3308824034,
				"y": 2.556322374,
				"z": 0.3664122133,
				"element": "C" 
			},
			{
				"x": 1.5211226141,
				"y": 2.5010497343,
				"z": 0.6413921469,
				"element": "O" 
			},
			{
				"x": -0.3815834168,
				"y": 1.3517082321,
				"z": -0.1686464822,
				"element": "C" 
			},
			{
				"x": -1.7448990775,
				"y": 1.3468348462,
				"z": -0.5037837206,
				"element": "C" 
			},
			{
				"x": -2.349854009,
				"y": 0.1961363608,
				"z": -0.9964235961,
				"element": "C" 
			},
			{
				"x": -1.5945793858,
				"y": -0.9674269319,
				"z": -1.1600249932,
				"element": "C" 
			},
			{
				"x": -2.3128769154,
				"y": -2.0463185112,
				"z": -1.6589585962,
				"element": "O" 
			},
			{
				"x": -1.7211136457,
				"y": -3.261032686,
				"z": -1.878101785,
				"element": "C" 
			},
			{
				"x": -1.1982874938,
				"y": -3.7801480766,
				"z": -0.7352354311,
				"element": "F" 
			},
			{
				"x": -0.6997691689,
				"y": -3.1699675154,
				"z": -2.7711664237,
				"element": "F" 
			},
			{
				"x": -0.2339452576,
				"y": -0.9905355508,
				"z": -0.8338849364,
				"element": "C" 
			},
			{
				"x": 0.3539083537,
				"y": 0.169827013,
				"z": -0.3424947658,
				"element": "C" 
			},
			{
				"x": 0.8294395982,
				"y": 4.7237983108,
				"z": 2.0802260687,
				"element": "H" 
			},
			{
				"x": 1.2309594143,
				"y": 5.2152371495,
				"z": 0.4394118402,
				"element": "H" 
			},
			{
				"x": -0.2027811864,
				"y": 5.8954946569,
				"z": 1.2354210635,
				"element": "H" 
			},
			{
				"x": -1.3027075688,
				"y": 3.6412894134,
				"z": 1.228060818,
				"element": "H" 
			},
			{
				"x": -0.9035065435,
				"y": 4.1292300072,
				"z": -0.402106519,
				"element": "H" 
			},
			{
				"x": -2.3465808284,
				"y": 2.2413753949,
				"z": -0.3831594196,
				"element": "H" 
			},
			{
				"x": -3.4019977302,
				"y": 0.1780902815,
				"z": -1.2593486874,
				"element": "H" 
			},
			{
				"x": -2.4890969057,
				"y": -3.9330120284,
				"z": -2.2675334796,
				"element": "H" 
			},
			{
				"x": 0.3549388003,
				"y": -1.888587948,
				"z": -0.9587217938,
				"element": "H" 
			},
			{
				"x": 1.4066399233,
				"y": 0.1826684954,
				"z": -0.0809169376,
				"element": "H" 
			}
		],
		 "valence_orbital": [ 
			{
				"type": "occ",
				"energy": -0.34776,
				"method": "rhf"
			},
			{
				"type": "occ",
				"energy": -0.33943,
				"method": "rhf"
			},
			{
				"type": "occ",
				"energy": -0.2677,
				"method": "rhf"
			},
			{
				"type": "occ",
				"energy": -0.24764,
				"method": "rhf"
			},
			{
				"type": "occ",
				"energy": -0.24713,
				"method": "rhf"
			},
			{
				"type": "unocc",
				"energy": -0.0531,
				"method": "rhf"
			},
			{
				"type": "unocc",
				"energy": -0.01616,
				"method": "rhf"
			},
			{
				"type": "unocc",
				"energy": 0.03992,
				"method": "rhf"
			},
			{
				"type": "unocc",
				"energy": 0.08261,
				"method": "rhf"
			},
			{
				"type": "unocc",
				"energy": 0.10335,
				"method": "rhf"
			}
		],
		"cosmo_sigma_profile": { 
			"-0.025": 0.0,
			"-0.024": 0.0,
			"-0.023": 0.0,
			"-0.022": 0.0,
			"-0.021": 0.0,
			"-0.02": 0.0,
			"-0.019": 0.0,
			"-0.018": 0.0,
			"-0.017": 0.0,
			"-0.016": 0.0,
			"-0.015": 0.0,
			"-0.014": 0.0,
			"-0.013": 0.0,
			"-0.012": 0.0,
			"-0.011": 2.53912115221,
			"-0.01": 2.65349302619,
			"-0.009": 1.38500249793,
			"-0.008": 1.70864603863,
			"-0.007": 5.50162096631,
			"-0.006": 11.1657398621,
			"-0.005": 13.9572072991,
			"-0.004": 11.6463926847,
			"-0.003": 15.2282593356,
			"-0.002": 18.4201886725,
			"-0.001": 17.3135223425,
			"0.0": 16.625472305,
			"0.001": 24.0175501289,
			"0.002": 24.1218676272,
			"0.003": 31.1918101025,
			"0.004": 11.1865491169,
			"0.005": 3.60420277392,
			"0.006": 2.78401971361,
			"0.007": 1.51635096376,
			"0.008": 1.72630798112,
			"0.009": 2.19806576166,
			"0.01": 2.01089379873,
			"0.011": 2.42744275993,
			"0.012": 3.93369003482,
			"0.013": 1.37567565129,
			"0.014": 0.0258256799771,
			"0.015": 0.0,
			"0.016": 0.0,
			"0.017": 0.0,
			"0.018": 0.0,
			"0.019": 0.0,
			"0.02": 0.0,
			"0.021": 0.0,
			"0.022": 0.0,
			"0.023": 0.0,
			"0.024": 0.0,
			"0.0": 0.0
		}
	}
}
