{
	 "smiles": "FC1=CC=C(C=C1)C(=O)C1=CN=CC=C1", 
	 "Tm": 366.15, 
	 "num_atms": 23, 
	 "gaussian": { 
		 "optdone": 1, 
		 "sigma_profile": "yes", 
		 "theory": "DFT", 
		 "functional": "B3LYP", 
		 "basiset": "6-31G**", 
		 "properties": { 
			 "R2extent": 4345.1576, 
			 "electric_dipole_moment_norm": 1.24193723271, 
			 "electric_quadrupole_moment_norm": 9.43279705867, 
			 "total_energy": -691.900784964, 
			 "HOMO_LUMO_gap": 0.17752, 
			 "cosmo_polarized_energy": -9.81, 
			 "cosmo_cavitation_energy": 28.49, 
			 "cosmo_dispersion_energy": -20.63, 
			 "cosmo_repulsion_energy": 1.56, 
			 "cosmo_total_nonelectrostatic_energy": 9.43, 
			 "SMD_solvation_energy": 4.34 
		},
		"coords": [
			{
				"x": -3.2547758345,
				"y": -2.281724376,
				"z": 2.9183646467,
				"element": "F" 
			},
			{
				"x": -2.4647299653,
				"y": -2.0290413055,
				"z": 1.8592510715,
				"element": "C" 
			},
			{
				"x": -1.4470885956,
				"y": -1.0901814617,
				"z": 1.9881832101,
				"element": "C" 
			},
			{
				"x": -0.6251022495,
				"y": -0.8414359179,
				"z": 0.8904937398,
				"element": "C" 
			},
			{
				"x": -0.8256232604,
				"y": -1.5181966606,
				"z": -0.3238937426,
				"element": "C" 
			},
			{
				"x": -1.8814768549,
				"y": -2.4415274135,
				"z": -0.423261466,
				"element": "C" 
			},
			{
				"x": -2.6981779201,
				"y": -2.712304376,
				"z": 0.6673923146,
				"element": "C" 
			},
			{
				"x": -0.0242465653,
				"y": -1.2488249456,
				"z": -1.557645765,
				"element": "C" 
			},
			{
				"x": -0.5046204165,
				"y": -1.4692596504,
				"z": -2.6648393745,
				"element": "O" 
			},
			{
				"x": 1.373184369,
				"y": -0.7099117791,
				"z": -1.4632080924,
				"element": "C" 
			},
			{
				"x": 2.2527353173,
				"y": -0.9949215125,
				"z": -0.4075488532,
				"element": "C" 
			},
			{
				"x": 3.5209843585,
				"y": -0.5703470342,
				"z": -0.3563120911,
				"element": "N" 
			},
			{
				"x": 3.9614348599,
				"y": 0.1731263393,
				"z": -1.3778594609,
				"element": "C" 
			},
			{
				"x": 3.1816096923,
				"y": 0.499427378,
				"z": -2.4917632127,
				"element": "C" 
			},
			{
				"x": 1.8717619589,
				"y": 0.0397396691,
				"z": -2.5387369566,
				"element": "C" 
			},
			{
				"x": -1.3144810634,
				"y": -0.5688994962,
				"z": 2.9297392333,
				"element": "H" 
			},
			{
				"x": 0.1575527706,
				"y": -0.0959037747,
				"z": 0.9768695573,
				"element": "H" 
			},
			{
				"x": -2.0440152827,
				"y": -2.9373103818,
				"z": -1.3741030517,
				"element": "H" 
			},
			{
				"x": -3.5080597094,
				"y": -3.4315605779,
				"z": 0.612652012,
				"element": "H" 
			},
			{
				"x": 1.928977985,
				"y": -1.6173644429,
				"z": 0.4232291475,
				"element": "H" 
			},
			{
				"x": 4.9907656045,
				"y": 0.5206008984,
				"z": -1.3070255787,
				"element": "H" 
			},
			{
				"x": 3.5994366032,
				"y": 1.0936457937,
				"z": -3.2982591388,
				"element": "H" 
			},
			{
				"x": 1.2220541986,
				"y": 0.2403750278,
				"z": -3.3845181488,
				"element": "H" 
			}
		],
		 "valence_orbital": [ 
			{
				"type": "occ",
				"energy": -0.27819,
				"method": "rhf"
			},
			{
				"type": "occ",
				"energy": -0.27522,
				"method": "rhf"
			},
			{
				"type": "occ",
				"energy": -0.27068,
				"method": "rhf"
			},
			{
				"type": "occ",
				"energy": -0.25936,
				"method": "rhf"
			},
			{
				"type": "occ",
				"energy": -0.252,
				"method": "rhf"
			},
			{
				"type": "unocc",
				"energy": -0.07448,
				"method": "rhf"
			},
			{
				"type": "unocc",
				"energy": -0.03344,
				"method": "rhf"
			},
			{
				"type": "unocc",
				"energy": -0.02566,
				"method": "rhf"
			},
			{
				"type": "unocc",
				"energy": -0.02032,
				"method": "rhf"
			},
			{
				"type": "unocc",
				"energy": 0.04596,
				"method": "rhf"
			}
		],
		"cosmo_sigma_profile": { 
			"-0.025": 0.0,
			"-0.024": 0.0,
			"-0.023": 0.0,
			"-0.022": 0.0,
			"-0.021": 0.0,
			"-0.02": 0.0,
			"-0.019": 0.0,
			"-0.018": 0.0,
			"-0.017": 0.0,
			"-0.016": 0.0,
			"-0.015": 0.0,
			"-0.014": 0.0,
			"-0.013": 0.0,
			"-0.012": 0.0,
			"-0.011": 0.0,
			"-0.01": 0.0,
			"-0.009": 0.0,
			"-0.008": 3.00410673618,
			"-0.007": 12.2138560561,
			"-0.006": 16.2292487818,
			"-0.005": 16.0864548883,
			"-0.004": 14.6473610576,
			"-0.003": 14.5428867991,
			"-0.002": 12.623163457,
			"-0.001": 17.0931802419,
			"0.0": 21.883994065,
			"0.001": 25.1351651375,
			"0.002": 21.9879515999,
			"0.003": 13.1994496341,
			"0.004": 12.647276368,
			"0.005": 3.26655494082,
			"0.006": 2.37974065806,
			"0.007": 3.86682337273,
			"0.008": 2.68358907595,
			"0.009": 2.37286093524,
			"0.01": 3.10943349696,
			"0.011": 4.02946479371,
			"0.012": 4.26862904455,
			"0.013": 0.758438004751,
			"0.014": 0.713440215036,
			"0.015": 1.03909186793,
			"0.016": 0.494112356889,
			"0.017": 0.0516550339155,
			"0.018": 0.0,
			"0.019": 0.0,
			"0.02": 0.0,
			"0.021": 0.0,
			"0.022": 0.0,
			"0.023": 0.0,
			"0.024": 0.0,
			"0.025": 0.0
		}
	}
}
