{
	 "smiles": "CN1C=CC(=N1)C1=CC=C(N)C=C1", 
	 "Tm": 402.15, 
	 "num_atms": 24, 
	 "gaussian": { 
		 "optdone": 1, 
		 "sigma_profile": "yes", 
		 "theory": "DFT", 
		 "functional": "B3LYP", 
		 "basiset": "6-31G**", 
		 "properties": { 
			 "R2extent": 3747.7806, 
			 "electric_dipole_moment_norm": 1.38998580209, 
			 "electric_quadrupole_moment_norm": 20.5947043159, 
			 "total_energy": -551.936800211, 
			 "HOMO_LUMO_gap": 0.18087, 
			 "cosmo_polarized_energy": -14.41, 
			 "cosmo_cavitation_energy": 27.92, 
			 "cosmo_dispersion_energy": -20.76, 
			 "cosmo_repulsion_energy": 1.63, 
			 "cosmo_total_nonelectrostatic_energy": 8.8, 
			 "SMD_solvation_energy": 4.28 
		},
		"coords": [
			{
				"x": 2.9201780375,
				"y": -0.9429352646,
				"z": -4.407958721,
				"element": "C" 
			},
			{
				"x": 2.326126629,
				"y": -1.2331442562,
				"z": -3.1191050122,
				"element": "N" 
			},
			{
				"x": 2.7711757499,
				"y": -2.0889034394,
				"z": -2.1606391834,
				"element": "C" 
			},
			{
				"x": 1.872327485,
				"y": -2.0217660722,
				"z": -1.1168565646,
				"element": "C" 
			},
			{
				"x": 0.8929178124,
				"y": -1.0807510032,
				"z": -1.5362743303,
				"element": "C" 
			},
			{
				"x": 1.1856969738,
				"y": -0.610454679,
				"z": -2.7583743493,
				"element": "N" 
			},
			{
				"x": -0.3046284086,
				"y": -0.6175096147,
				"z": -0.8197723864,
				"element": "C" 
			},
			{
				"x": -0.6156913625,
				"y": -1.0766494401,
				"z": 0.4691941391,
				"element": "C" 
			},
			{
				"x": -1.7480220539,
				"y": -0.6336543702,
				"z": 1.1448588743,
				"element": "C" 
			},
			{
				"x": -2.619982749,
				"y": 0.2933749183,
				"z": 0.5505863933,
				"element": "C" 
			},
			{
				"x": -3.7890225725,
				"y": 0.6991453266,
				"z": 1.2001107863,
				"element": "N" 
			},
			{
				"x": -2.3142952352,
				"y": 0.7574816781,
				"z": -0.7414231888,
				"element": "C" 
			},
			{
				"x": -1.1816620922,
				"y": 0.3099105804,
				"z": -1.4083594336,
				"element": "C" 
			},
			{
				"x": 2.2212632354,
				"y": -1.1915346598,
				"z": -5.2115422841,
				"element": "H" 
			},
			{
				"x": 3.8274611328,
				"y": -1.5387533245,
				"z": -4.5224249098,
				"element": "H" 
			},
			{
				"x": 3.1741617331,
				"y": 0.1185434387,
				"z": -4.477969586,
				"element": "H" 
			},
			{
				"x": 3.6739902675,
				"y": -2.6675547632,
				"z": -2.2937993807,
				"element": "H" 
			},
			{
				"x": 1.9184806578,
				"y": -2.5745853151,
				"z": -0.1911082663,
				"element": "H" 
			},
			{
				"x": 0.0380223955,
				"y": -1.7909763868,
				"z": 0.9613302395,
				"element": "H" 
			},
			{
				"x": -1.9645477874,
				"y": -1.0102588636,
				"z": 2.1418913578,
				"element": "H" 
			},
			{
				"x": -3.7639655178,
				"y": 0.6268395621,
				"z": 2.208148247,
				"element": "H" 
			},
			{
				"x": -4.1550850615,
				"y": 1.5921334412,
				"z": 0.8991321909,
				"element": "H" 
			},
			{
				"x": -2.9776951139,
				"y": 1.472505877,
				"z": -1.222891725,
				"element": "H" 
			},
			{
				"x": -0.9578041554,
				"y": 0.67869663,
				"z": -2.4037529066,
				"element": "H" 
			}
		],
		 "valence_orbital": [ 
			{
				"type": "occ",
				"energy": -0.27433,
				"method": "rhf"
			},
			{
				"type": "occ",
				"energy": -0.24587,
				"method": "rhf"
			},
			{
				"type": "occ",
				"energy": -0.23866,
				"method": "rhf"
			},
			{
				"type": "occ",
				"energy": -0.233,
				"method": "rhf"
			},
			{
				"type": "occ",
				"energy": -0.18043,
				"method": "rhf"
			},
			{
				"type": "unocc",
				"energy": 0.00044,
				"method": "rhf"
			},
			{
				"type": "unocc",
				"energy": 0.01252,
				"method": "rhf"
			},
			{
				"type": "unocc",
				"energy": 0.04195,
				"method": "rhf"
			},
			{
				"type": "unocc",
				"energy": 0.08447,
				"method": "rhf"
			},
			{
				"type": "unocc",
				"energy": 0.09947,
				"method": "rhf"
			}
		],
		"cosmo_sigma_profile": { 
			"-0.025": 0.0,
			"-0.024": 0.0,
			"-0.023": 0.0,
			"-0.022": 0.0,
			"-0.021": 0.0,
			"-0.02": 0.0,
			"-0.019": 0.0,
			"-0.018": 0.0,
			"-0.017": 0.0,
			"-0.016": 0.0,
			"-0.015": 0.0,
			"-0.014": 0.0,
			"-0.013": 0.291241444003,
			"-0.012": 2.62897199376,
			"-0.011": 2.0402513757,
			"-0.01": 2.76274045798,
			"-0.009": 4.37194853547,
			"-0.008": 7.10252797705,
			"-0.007": 7.68439668343,
			"-0.006": 13.6762834874,
			"-0.005": 13.975112501,
			"-0.004": 15.2208981106,
			"-0.003": 19.9299230067,
			"-0.002": 12.8880302578,
			"-0.001": 8.27270014059,
			"0.0": 9.12048111113,
			"0.001": 9.22974486665,
			"0.002": 9.42044673248,
			"0.003": 9.68873026663,
			"0.004": 12.0678349322,
			"0.005": 18.529367043,
			"0.006": 19.5323655969,
			"0.007": 8.51660020738,
			"0.008": 3.20427500251,
			"0.009": 2.96504594164,
			"0.01": 2.01483111639,
			"0.011": 1.95247012857,
			"0.012": 1.80932216528,
			"0.013": 1.8137598493,
			"0.014": 1.42324887083,
			"0.015": 0.288348473433,
			"0.016": 0.0,
			"0.017": 0.0,
			"0.018": 0.0,
			"0.019": 0.0,
			"0.02": 0.0,
			"0.021": 0.0,
			"0.022": 0.0,
			"0.023": 0.0,
			"0.024": 0.0,
			"0.025": 0.0
		}
	}
}
