{
	 "smiles": "CCOP(=S)(OCC)OC1=CN=C2C=CC=CC2=N1", 
	 "Tm": 304.65, 
	 "num_atms": 34, 
	 "gaussian": { 
		 "optdone": 1, 
		 "sigma_profile": "yes", 
		 "theory": "DFT", 
		 "functional": "B3LYP", 
		 "basiset": "6-31G**", 
		 "properties": { 
			 "R2extent": 7954.6625, 
			 "electric_dipole_moment_norm": 4.90702995813, 
			 "electric_quadrupole_moment_norm": 21.9264750852, 
			 "total_energy": -1541.10844634, 
			 "HOMO_LUMO_gap": 0.16324, 
			 "cosmo_polarized_energy": -12.52, 
			 "cosmo_cavitation_energy": 41.63, 
			 "cosmo_dispersion_energy": -28.53, 
			 "cosmo_repulsion_energy": 2.18, 
			 "cosmo_total_nonelectrostatic_energy": 15.29, 
			 "SMD_solvation_energy": 4.81 
		},
		"coords": [
			{
				"x": -1.6971998485,
				"y": -2.1404968102,
				"z": -2.4325087685,
				"element": "C" 
			},
			{
				"x": -0.1876406575,
				"y": -2.1566445952,
				"z": -2.5708865747,
				"element": "C" 
			},
			{
				"x": 0.2781403891,
				"y": -0.7829175134,
				"z": -2.4460587802,
				"element": "O" 
			},
			{
				"x": 1.8152702408,
				"y": -0.3936628442,
				"z": -2.7274764428,
				"element": "P" 
			},
			{
				"x": 2.6155052173,
				"y": -1.0229164196,
				"z": -4.3670355304,
				"element": "S" 
			},
			{
				"x": 1.7672656532,
				"y": 1.1892927283,
				"z": -2.4369945115,
				"element": "O" 
			},
			{
				"x": 1.0942567365,
				"y": 2.0885214705,
				"z": -3.3591178858,
				"element": "C" 
			},
			{
				"x": 1.3594881888,
				"y": 3.5072631404,
				"z": -2.8951418185,
				"element": "C" 
			},
			{
				"x": 2.6516682424,
				"y": -0.8834151773,
				"z": -1.4071919215,
				"element": "O" 
			},
			{
				"x": 2.232744398,
				"y": -0.6600414676,
				"z": -0.1097687207,
				"element": "C" 
			},
			{
				"x": 2.832601889,
				"y": 0.4220597039,
				"z": 0.6006634176,
				"element": "C" 
			},
			{
				"x": 2.5458397393,
				"y": 0.6576110524,
				"z": 1.8581370775,
				"element": "N" 
			},
			{
				"x": 1.6459342852,
				"y": -0.1815996913,
				"z": 2.455354353,
				"element": "C" 
			},
			{
				"x": 1.2957770068,
				"y": 0.0206689113,
				"z": 3.8131324231,
				"element": "C" 
			},
			{
				"x": 0.3896070376,
				"y": -0.8198746189,
				"z": 4.4225730933,
				"element": "C" 
			},
			{
				"x": -0.1977773912,
				"y": -1.8894016093,
				"z": 3.7019593805,
				"element": "C" 
			},
			{
				"x": 0.1243401865,
				"y": -2.1098716029,
				"z": 2.3798242157,
				"element": "C" 
			},
			{
				"x": 1.0520299769,
				"y": -1.2604140268,
				"z": 1.7294857907,
				"element": "C" 
			},
			{
				"x": 1.3719310651,
				"y": -1.4818657364,
				"z": 0.4177376666,
				"element": "N" 
			},
			{
				"x": -1.9928507304,
				"y": -1.7355526173,
				"z": -1.4606980058,
				"element": "H" 
			},
			{
				"x": -2.1551418722,
				"y": -1.5329863382,
				"z": -3.2182489889,
				"element": "H" 
			},
			{
				"x": -2.0846685851,
				"y": -3.161013998,
				"z": -2.5149852317,
				"element": "H" 
			},
			{
				"x": 0.2825652755,
				"y": -2.7418805611,
				"z": -1.7754981005,
				"element": "H" 
			},
			{
				"x": 0.1276978103,
				"y": -2.5449046336,
				"z": -3.5444477823,
				"element": "H" 
			},
			{
				"x": 0.0248466325,
				"y": 1.8537310319,
				"z": -3.3507335062,
				"element": "H" 
			},
			{
				"x": 1.486743491,
				"y": 1.9140078648,
				"z": -4.3663050564,
				"element": "H" 
			},
			{
				"x": 2.431326264,
				"y": 3.7230701255,
				"z": -2.9034885397,
				"element": "H" 
			},
			{
				"x": 0.8587604179,
				"y": 4.2131837011,
				"z": -3.5652845434,
				"element": "H" 
			},
			{
				"x": 0.9798039686,
				"y": 3.6637321664,
				"z": -1.881627563,
				"element": "H" 
			},
			{
				"x": 3.5422505151,
				"y": 1.0688189156,
				"z": 0.0913141929,
				"element": "H" 
			},
			{
				"x": 1.7615038739,
				"y": 0.8466790581,
				"z": 4.340596884,
				"element": "H" 
			},
			{
				"x": 0.1207819791,
				"y": -0.6661022747,
				"z": 5.4632901666,
				"element": "H" 
			},
			{
				"x": -0.9087139335,
				"y": -2.5413525942,
				"z": 4.2008520497,
				"element": "H" 
			},
			{
				"x": -0.3116874621,
				"y": -2.9243247399,
				"z": 1.8105775614,
				"element": "H" 
			}
		],
		 "valence_orbital": [ 
			{
				"type": "occ",
				"energy": -0.26515,
				"method": "rhf"
			},
			{
				"type": "occ",
				"energy": -0.26236,
				"method": "rhf"
			},
			{
				"type": "occ",
				"energy": -0.25283,
				"method": "rhf"
			},
			{
				"type": "occ",
				"energy": -0.24333,
				"method": "rhf"
			},
			{
				"type": "occ",
				"energy": -0.24079,
				"method": "rhf"
			},
			{
				"type": "unocc",
				"energy": -0.07755,
				"method": "rhf"
			},
			{
				"type": "unocc",
				"energy": -0.03161,
				"method": "rhf"
			},
			{
				"type": "unocc",
				"energy": 0.00027,
				"method": "rhf"
			},
			{
				"type": "unocc",
				"energy": 0.04033,
				"method": "rhf"
			},
			{
				"type": "unocc",
				"energy": 0.05211,
				"method": "rhf"
			}
		],
		"cosmo_sigma_profile": { 
			"-0.025": 0.0,
			"-0.024": 0.0,
			"-0.023": 0.0,
			"-0.022": 0.0,
			"-0.021": 0.0,
			"-0.02": 0.0,
			"-0.019": 0.0,
			"-0.018": 0.0,
			"-0.017": 0.0,
			"-0.016": 0.0,
			"-0.015": 0.0,
			"-0.014": 0.0,
			"-0.013": 0.0,
			"-0.012": 0.0,
			"-0.011": 0.0,
			"-0.01": 0.0,
			"-0.009": 0.113707851631,
			"-0.008": 1.48110265416,
			"-0.007": 5.87868070923,
			"-0.006": 12.5645606451,
			"-0.005": 21.888989647,
			"-0.004": 35.9363224226,
			"-0.003": 31.6251281042,
			"-0.002": 27.4442355812,
			"-0.001": 28.0553581931,
			"0.0": 29.705160212,
			"0.001": 26.0088671025,
			"0.002": 24.1175544742,
			"0.003": 22.8776716193,
			"0.004": 12.8359379063,
			"0.005": 10.6513456845,
			"0.006": 11.016501509,
			"0.007": 11.6095041942,
			"0.008": 9.52987148727,
			"0.009": 5.72272410084,
			"0.01": 0.842071703492,
			"0.011": 1.05639738781,
			"0.012": 0.381401488439,
			"0.013": 1.09480328627,
			"0.014": 0.321980251423,
			"0.015": 0.0407103242168,
			"0.016": 0.0,
			"0.017": 0.0,
			"0.018": 0.0,
			"0.019": 0.0,
			"0.02": 0.0,
			"0.021": 0.0,
			"0.022": 0.0,
			"0.023": 0.0,
			"0.024": 0.0,
			"0.025": 0.0
		}
	}
}
