{
	 "smiles": "CC(C)C1=CC(=O)C(C)=CC1=O", 
	 "Tm": 318.65, 
	 "num_atms": 24, 
	 "gaussian": { 
		 "optdone": 1, 
		 "sigma_profile": "yes", 
		 "theory": "DFT", 
		 "functional": "B3LYP", 
		 "basiset": "6-31G**", 
		 "properties": { 
			 "R2extent": 2453.3993, 
			 "electric_dipole_moment_norm": 0.181087962052, 
			 "electric_quadrupole_moment_norm": 13.0977960837, 
			 "total_energy": -538.729933001, 
			 "HOMO_LUMO_gap": 0.1408, 
			 "cosmo_polarized_energy": -8.32, 
			 "cosmo_cavitation_energy": 27.31, 
			 "cosmo_dispersion_energy": -19.4, 
			 "cosmo_repulsion_energy": 1.55, 
			 "cosmo_total_nonelectrostatic_energy": 9.46, 
			 "SMD_solvation_energy": 6.02 
		},
		"coords": [
			{
				"x": -3.0398162402,
				"y": -1.5143666901,
				"z": -1.5920230566,
				"element": "C" 
			},
			{
				"x": -1.6702123645,
				"y": -0.8621709221,
				"z": -1.8160839493,
				"element": "C" 
			},
			{
				"x": -1.7622506048,
				"y": 0.2769833482,
				"z": -2.857359467,
				"element": "C" 
			},
			{
				"x": -1.0226588227,
				"y": -0.3551385481,
				"z": -0.5449357886,
				"element": "C" 
			},
			{
				"x": -1.6777884036,
				"y": -0.0602627418,
				"z": 0.5958231722,
				"element": "C" 
			},
			{
				"x": -1.0046874231,
				"y": 0.4642195383,
				"z": 1.8043491915,
				"element": "C" 
			},
			{
				"x": -1.6446326056,
				"y": 0.7246406214,
				"z": 2.8186118734,
				"element": "O" 
			},
			{
				"x": 0.4786730829,
				"y": 0.6726565976,
				"z": 1.7627761615,
				"element": "C" 
			},
			{
				"x": 1.1244969308,
				"y": 1.2073031702,
				"z": 3.0048606692,
				"element": "C" 
			},
			{
				"x": 1.1397376046,
				"y": 0.3709512479,
				"z": 0.6288065767,
				"element": "C" 
			},
			{
				"x": 0.4678288187,
				"y": -0.1611416571,
				"z": -0.5772797595,
				"element": "C" 
			},
			{
				"x": 1.1216679524,
				"y": -0.4445754587,
				"z": -1.5770534882,
				"element": "O" 
			},
			{
				"x": -2.990866245,
				"y": -2.3168012504,
				"z": -0.8491071167,
				"element": "H" 
			},
			{
				"x": -3.7870845001,
				"y": -0.7863850695,
				"z": -1.25667706,
				"element": "H" 
			},
			{
				"x": -3.4052064638,
				"y": -1.9440348517,
				"z": -2.5297727827,
				"element": "H" 
			},
			{
				"x": -0.9838104918,
				"y": -1.6119550711,
				"z": -2.2279681118,
				"element": "H" 
			},
			{
				"x": -0.7770378771,
				"y": 0.6994879645,
				"z": -3.0669112986,
				"element": "H" 
			},
			{
				"x": -2.174199699,
				"y": -0.1063151996,
				"z": -3.7965481646,
				"element": "H" 
			},
			{
				"x": -2.4189534369,
				"y": 1.0779082186,
				"z": -2.5002017011,
				"element": "H" 
			},
			{
				"x": -2.7507503419,
				"y": -0.1889972946,
				"z": 0.6998136802,
				"element": "H" 
			},
			{
				"x": 0.6908441242,
				"y": 2.1755903073,
				"z": 3.2761186803,
				"element": "H" 
			},
			{
				"x": 0.9343956751,
				"y": 0.5413177207,
				"z": 3.8530799479,
				"element": "H" 
			},
			{
				"x": 2.2027270778,
				"y": 1.3218258821,
				"z": 2.8739351053,
				"element": "H" 
			},
			{
				"x": 2.2156842536,
				"y": 0.4949601378,
				"z": 0.5372466865,
				"element": "H" 
			}
		],
		 "valence_orbital": [ 
			{
				"type": "occ",
				"energy": -0.34058,
				"method": "rhf"
			},
			{
				"type": "occ",
				"energy": -0.28948,
				"method": "rhf"
			},
			{
				"type": "occ",
				"energy": -0.27695,
				"method": "rhf"
			},
			{
				"type": "occ",
				"energy": -0.27072,
				"method": "rhf"
			},
			{
				"type": "occ",
				"energy": -0.25886,
				"method": "rhf"
			},
			{
				"type": "unocc",
				"energy": -0.11806,
				"method": "rhf"
			},
			{
				"type": "unocc",
				"energy": -0.0109,
				"method": "rhf"
			},
			{
				"type": "unocc",
				"energy": 0.01767,
				"method": "rhf"
			},
			{
				"type": "unocc",
				"energy": 0.09022,
				"method": "rhf"
			},
			{
				"type": "unocc",
				"energy": 0.10773,
				"method": "rhf"
			}
		],
		"cosmo_sigma_profile": { 
			"-0.025": 0.0,
			"-0.024": 0.0,
			"-0.023": 0.0,
			"-0.022": 0.0,
			"-0.021": 0.0,
			"-0.02": 0.0,
			"-0.019": 0.0,
			"-0.018": 0.0,
			"-0.017": 0.0,
			"-0.016": 0.0,
			"-0.015": 0.0,
			"-0.014": 0.0,
			"-0.013": 0.0,
			"-0.012": 0.0,
			"-0.011": 0.0,
			"-0.01": 0.0,
			"-0.009": 0.0,
			"-0.008": 0.241152072708,
			"-0.007": 2.34242913614,
			"-0.006": 5.03413151662,
			"-0.005": 9.72946082568,
			"-0.004": 17.0285291608,
			"-0.003": 30.6920654783,
			"-0.002": 31.0395717142,
			"-0.001": 31.64225766,
			"0.0": 25.5898302141,
			"0.001": 17.347192217,
			"0.002": 4.49301547638,
			"0.003": 2.55343902351,
			"0.004": 4.85117975691,
			"0.005": 2.57423633599,
			"0.006": 2.11665101636,
			"0.007": 4.2080230149,
			"0.008": 3.37265243939,
			"0.009": 3.60219611843,
			"0.01": 5.01834529091,
			"0.011": 7.7492753438,
			"0.012": 3.84571425054,
			"0.013": 0.210593683365,
			"0.014": 0.0,
			"0.015": 0.0,
			"0.016": 0.0,
			"0.017": 0.0,
			"0.018": 0.0,
			"0.019": 0.0,
			"0.02": 0.0,
			"0.021": 0.0,
			"0.022": 0.0,
			"0.023": 0.0,
			"0.024": 0.0,
			"0.025": 0.0
		}
	}
}
