{
	 "smiles": "CC1=CC=C(C=C1)S(=O)(=O)OC[C@@H]1OC(C)(C)O[C@H]1COS(=O)(=O)C1=CC=C(C)C=C1", 
	 "Tm": 365.15, 
	 "num_atms": 57, 
	 "gaussian": { 
		 "optdone": 1, 
		 "sigma_profile": "yes", 
		 "theory": "DFT", 
		 "functional": "B3LYP", 
		 "basiset": "6-31G**", 
		 "properties": { 
			 "R2extent": 25184.6356, 
			 "electric_dipole_moment_norm": 4.55169844564, 
			 "electric_quadrupole_moment_norm": 57.5398101783, 
			 "total_energy": -2213.93727886, 
			 "HOMO_LUMO_gap": 0.21505, 
			 "cosmo_polarized_energy": -26.11, 
			 "cosmo_cavitation_energy": 63.39, 
			 "cosmo_dispersion_energy": -43.11, 
			 "cosmo_repulsion_energy": 3.19, 
			 "cosmo_total_nonelectrostatic_energy": 23.47, 
			 "SMD_solvation_energy": 8.59 
		},
		"coords": [
			{
				"x": 1.9150620027,
				"y": -5.3360925822,
				"z": 6.6526291082,
				"element": "C" 
			},
			{
				"x": 1.2399203419,
				"y": -4.1356846009,
				"z": 6.0351015138,
				"element": "C" 
			},
			{
				"x": -0.0241571641,
				"y": -4.252790092,
				"z": 5.4384893061,
				"element": "C" 
			},
			{
				"x": -0.6686414602,
				"y": -3.1453830573,
				"z": 4.8922876969,
				"element": "C" 
			},
			{
				"x": -0.0321220227,
				"y": -1.9047117429,
				"z": 4.9426934877,
				"element": "C" 
			},
			{
				"x": 1.223359602,
				"y": -1.7528699898,
				"z": 5.5333438896,
				"element": "C" 
			},
			{
				"x": 1.8505786038,
				"y": -2.8729751639,
				"z": 6.0725062673,
				"element": "C" 
			},
			{
				"x": -0.8452994972,
				"y": -0.4817736429,
				"z": 4.2535644052,
				"element": "S" 
			},
			{
				"x": -2.2821666885,
				"y": -0.732886883,
				"z": 4.136207495,
				"element": "O" 
			},
			{
				"x": -0.363260673,
				"y": 0.7364839917,
				"z": 4.903068398,
				"element": "O" 
			},
			{
				"x": -0.1864206491,
				"y": -0.5598300126,
				"z": 2.7422825412,
				"element": "O" 
			},
			{
				"x": -0.6269430279,
				"y": 0.4801369115,
				"z": 1.8388622718,
				"element": "C" 
			},
			{
				"x": -0.0030461647,
				"y": 0.2047344639,
				"z": 0.4854820027,
				"element": "C" 
			},
			{
				"x": 1.3882685079,
				"y": 0.4760223752,
				"z": 0.5286059019,
				"element": "O" 
			},
			{
				"x": 1.790558548,
				"y": 0.9075197476,
				"z": -0.7677390813,
				"element": "C" 
			},
			{
				"x": 2.1791326646,
				"y": -0.2782539672,
				"z": -1.6538581411,
				"element": "C" 
			},
			{
				"x": 2.9116222369,
				"y": 1.9221865429,
				"z": -0.605064289,
				"element": "C" 
			},
			{
				"x": 0.6385856444,
				"y": 1.5754531022,
				"z": -1.3148263159,
				"element": "O" 
			},
			{
				"x": -0.5309978247,
				"y": 1.1533289482,
				"z": -0.6232334523,
				"element": "C" 
			},
			{
				"x": -1.5189583706,
				"y": 0.4599859691,
				"z": -1.5520477095,
				"element": "C" 
			},
			{
				"x": -2.0522939007,
				"y": 1.4242863622,
				"z": -2.4842108663,
				"element": "O" 
			},
			{
				"x": -1.86457758,
				"y": 1.1512689517,
				"z": -4.1044587749,
				"element": "S" 
			},
			{
				"x": -0.7385742664,
				"y": 0.2320467332,
				"z": -4.2830993671,
				"element": "O" 
			},
			{
				"x": -3.1721857484,
				"y": 0.8220009205,
				"z": -4.6637520875,
				"element": "O" 
			},
			{
				"x": -1.4147207488,
				"y": 2.7994554339,
				"z": -4.6095395488,
				"element": "C" 
			},
			{
				"x": -0.259536091,
				"y": 3.3919097041,
				"z": -4.0910346206,
				"element": "C" 
			},
			{
				"x": 0.0936867379,
				"y": 4.6623039323,
				"z": -4.5346595587,
				"element": "C" 
			},
			{
				"x": -0.6784718687,
				"y": 5.3440318189,
				"z": -5.4897677146,
				"element": "C" 
			},
			{
				"x": -0.2606772862,
				"y": 6.7085253817,
				"z": -5.981915093,
				"element": "C" 
			},
			{
				"x": -1.8308918308,
				"y": 4.7217325521,
				"z": -5.98608094,
				"element": "C" 
			},
			{
				"x": -2.2077229573,
				"y": 3.4506993981,
				"z": -5.5527177162,
				"element": "C" 
			},
			{
				"x": 1.6160867999,
				"y": -6.263415719,
				"z": 6.1558954169,
				"element": "H" 
			},
			{
				"x": 3.0044226767,
				"y": -5.2544303588,
				"z": 6.5989133257,
				"element": "H" 
			},
			{
				"x": 1.6468627274,
				"y": -5.4317248462,
				"z": 7.7121035134,
				"element": "H" 
			},
			{
				"x": -0.5112345043,
				"y": -5.2234678795,
				"z": 5.4034258716,
				"element": "H" 
			},
			{
				"x": -1.6507179316,
				"y": -3.2321194335,
				"z": 4.4407992895,
				"element": "H" 
			},
			{
				"x": 1.6898464397,
				"y": -0.7747500282,
				"z": 5.5721592713,
				"element": "H" 
			},
			{
				"x": 2.8291495797,
				"y": -2.7656108377,
				"z": 6.5324734427,
				"element": "H" 
			},
			{
				"x": -1.7205351722,
				"y": 0.4551383747,
				"z": 1.7645470697,
				"element": "H" 
			},
			{
				"x": -0.3025629479,
				"y": 1.4566378206,
				"z": 2.2115487421,
				"element": "H" 
			},
			{
				"x": -0.1872261656,
				"y": -0.8481381697,
				"z": 0.2199215626,
				"element": "H" 
			},
			{
				"x": 2.3838275778,
				"y": 0.0624194228,
				"z": -2.6718681982,
				"element": "H" 
			},
			{
				"x": 3.0701701371,
				"y": -0.7712561332,
				"z": -1.2550070544,
				"element": "H" 
			},
			{
				"x": 1.3716292843,
				"y": -1.0131511757,
				"z": -1.7038912688,
				"element": "H" 
			},
			{
				"x": 2.5681703959,
				"y": 2.7486249394,
				"z": 0.0205983492,
				"element": "H" 
			},
			{
				"x": 3.2140456995,
				"y": 2.3111031289,
				"z": -1.580916146,
				"element": "H" 
			},
			{
				"x": 3.7780157337,
				"y": 1.452805845,
				"z": -0.1319144108,
				"element": "H" 
			},
			{
				"x": -1.0124376848,
				"y": 2.0421749455,
				"z": -0.1922269637,
				"element": "H" 
			},
			{
				"x": -2.3659930964,
				"y": 0.0605827915,
				"z": -0.9823199267,
				"element": "H" 
			},
			{
				"x": -1.0272428234,
				"y": -0.3523937272,
				"z": -2.0916167719,
				"element": "H" 
			},
			{
				"x": 0.3307547076,
				"y": 2.8769963961,
				"z": -3.3400187993,
				"element": "H" 
			},
			{
				"x": 0.9836941257,
				"y": 5.137600069,
				"z": -4.1305219136,
				"element": "H" 
			},
			{
				"x": 0.5087396948,
				"y": 6.6246370654,
				"z": -6.7594112248,
				"element": "H" 
			},
			{
				"x": 0.1614753566,
				"y": 7.3131226739,
				"z": -5.1733807882,
				"element": "H" 
			},
			{
				"x": -1.10389082,
				"y": 7.2551870251,
				"z": -6.4127476015,
				"element": "H" 
			},
			{
				"x": -2.4454133852,
				"y": 5.2377244086,
				"z": -6.7187314078,
				"element": "H" 
			},
			{
				"x": -3.1028454739,
				"y": 2.9685418961,
				"z": -5.9290323873,
				"element": "H" 
			}
		],
		 "valence_orbital": [ 
			{
				"type": "occ",
				"energy": -0.27328,
				"method": "rhf"
			},
			{
				"type": "occ",
				"energy": -0.26834,
				"method": "rhf"
			},
			{
				"type": "occ",
				"energy": -0.26697,
				"method": "rhf"
			},
			{
				"type": "occ",
				"energy": -0.266,
				"method": "rhf"
			},
			{
				"type": "occ",
				"energy": -0.25878,
				"method": "rhf"
			},
			{
				"type": "unocc",
				"energy": -0.04373,
				"method": "rhf"
			},
			{
				"type": "unocc",
				"energy": -0.03675,
				"method": "rhf"
			},
			{
				"type": "unocc",
				"energy": -0.02354,
				"method": "rhf"
			},
			{
				"type": "unocc",
				"energy": -0.01722,
				"method": "rhf"
			},
			{
				"type": "unocc",
				"energy": 0.04198,
				"method": "rhf"
			}
		],
		"cosmo_sigma_profile": { 
			"-0.025": 0.0,
			"-0.024": 0.0,
			"-0.023": 0.0,
			"-0.022": 0.0,
			"-0.021": 0.0,
			"-0.02": 0.0,
			"-0.019": 0.0,
			"-0.018": 0.0,
			"-0.017": 0.0,
			"-0.016": 0.0,
			"-0.015": 0.0,
			"-0.014": 0.0,
			"-0.013": 0.0,
			"-0.012": 0.00113467775471,
			"-0.011": 0.52175510797,
			"-0.01": 1.74657106238,
			"-0.009": 3.68420248155,
			"-0.008": 8.07390681322,
			"-0.007": 17.5504554439,
			"-0.006": 26.3696012583,
			"-0.005": 35.4666922968,
			"-0.004": 43.2211183297,
			"-0.003": 36.7371133634,
			"-0.002": 40.3026125937,
			"-0.001": 42.9408937671,
			"0.0": 41.5959225225,
			"0.001": 31.3427988109,
			"0.002": 32.9754685696,
			"0.003": 36.1296304308,
			"0.004": 12.8952151412,
			"0.005": 11.6990839785,
			"0.006": 11.995253882,
			"0.007": 11.4864236698,
			"0.008": 11.6573197474,
			"0.009": 13.4153198647,
			"0.01": 20.0777265061,
			"0.011": 9.48276199417,
			"0.012": 0.380948412513,
			"0.013": 0.0,
			"0.014": 0.0,
			"0.015": 0.0,
			"0.016": 0.0,
			"0.017": 0.0,
			"0.018": 0.0,
			"0.019": 0.0,
			"0.02": 0.0,
			"0.021": 0.0,
			"0.022": 0.0,
			"0.023": 0.0,
			"0.024": 0.0,
			"0.025": 0.0
		}
	}
}
