{
	 "smiles": "CC1=NC=C(CO)N1C1=CC=CC=C1", 
	 "Tm": 447.15, 
	 "num_atms": 26, 
	 "gaussian": { 
		 "optdone": 1, 
		 "sigma_profile": "yes", 
		 "theory": "DFT", 
		 "functional": "B3LYP", 
		 "basiset": "6-31G**", 
		 "properties": { 
			 "R2extent": 2832.0829, 
			 "electric_dipole_moment_norm": 4.33480612369, 
			 "electric_quadrupole_moment_norm": 12.2405424733, 
			 "total_energy": -611.119356336, 
			 "HOMO_LUMO_gap": 0.19279, 
			 "cosmo_polarized_energy": -13.71, 
			 "cosmo_cavitation_energy": 29.23, 
			 "cosmo_dispersion_energy": -20.78, 
			 "cosmo_repulsion_energy": 1.64, 
			 "cosmo_total_nonelectrostatic_energy": 10.09, 
			 "SMD_solvation_energy": 3.57 
		},
		"coords": [
			{
				"x": -1.2721054703,
				"y": -2.4366509914,
				"z": -0.8245555805,
				"element": "C" 
			},
			{
				"x": -1.3750026525,
				"y": -1.7436080905,
				"z": 0.496933246,
				"element": "C" 
			},
			{
				"x": -2.2304765887,
				"y": -2.07164922,
				"z": 1.4457090829,
				"element": "N" 
			},
			{
				"x": -2.0252596326,
				"y": -1.1703220872,
				"z": 2.4599782878,
				"element": "C" 
			},
			{
				"x": -1.0412775754,
				"y": -0.2700730972,
				"z": 2.1386595356,
				"element": "C" 
			},
			{
				"x": -0.4902250536,
				"y": 0.8787384299,
				"z": 2.9040807199,
				"element": "C" 
			},
			{
				"x": -1.105577481,
				"y": 2.1008392817,
				"z": 2.4685451618,
				"element": "O" 
			},
			{
				"x": -0.6135840013,
				"y": -0.6481931822,
				"z": 0.8610243199,
				"element": "N" 
			},
			{
				"x": 0.4153361265,
				"y": -0.0293567227,
				"z": 0.0870087364,
				"element": "C" 
			},
			{
				"x": 1.5075331807,
				"y": -0.7882501944,
				"z": -0.3498853263,
				"element": "C" 
			},
			{
				"x": 2.5003282667,
				"y": -0.1931056531,
				"z": -1.1279698042,
				"element": "C" 
			},
			{
				"x": 2.4171325846,
				"y": 1.1611480279,
				"z": -1.4572889823,
				"element": "C" 
			},
			{
				"x": 1.3356016628,
				"y": 1.9189396901,
				"z": -1.0035316863,
				"element": "C" 
			},
			{
				"x": 0.3292692714,
				"y": 1.329987849,
				"z": -0.2373032214,
				"element": "C" 
			},
			{
				"x": -0.393333428,
				"y": -3.0879445414,
				"z": -0.8928532731,
				"element": "H" 
			},
			{
				"x": -2.1609731418,
				"y": -3.0578981286,
				"z": -0.9442980412,
				"element": "H" 
			},
			{
				"x": -1.2187516431,
				"y": -1.7256049133,
				"z": -1.6550587706,
				"element": "H" 
			},
			{
				"x": -2.5977983226,
				"y": -1.2094823986,
				"z": 3.3775274624,
				"element": "H" 
			},
			{
				"x": 0.6017872853,
				"y": 0.9307778067,
				"z": 2.7787461456,
				"element": "H" 
			},
			{
				"x": -0.694365828,
				"y": 0.701974705,
				"z": 3.9694685492,
				"element": "H" 
			},
			{
				"x": -0.6646412545,
				"y": 2.827597289,
				"z": 2.9289652474,
				"element": "H" 
			},
			{
				"x": 1.5796432462,
				"y": -1.8336752808,
				"z": -0.0686788536,
				"element": "H" 
			},
			{
				"x": 3.3439782351,
				"y": -0.7870782552,
				"z": -1.466937654,
				"element": "H" 
			},
			{
				"x": 3.1931193971,
				"y": 1.623865697,
				"z": -2.059864692,
				"element": "H" 
			},
			{
				"x": 1.2676686857,
				"y": 2.9738429514,
				"z": -1.2532589286,
				"element": "H" 
			},
			{
				"x": -0.5083258688,
				"y": 1.9092810288,
				"z": 0.1343383193,
				"element": "H" 
			}
		],
		 "valence_orbital": [ 
			{
				"type": "occ",
				"energy": -0.27461,
				"method": "rhf"
			},
			{
				"type": "occ",
				"energy": -0.26149,
				"method": "rhf"
			},
			{
				"type": "occ",
				"energy": -0.25673,
				"method": "rhf"
			},
			{
				"type": "occ",
				"energy": -0.24202,
				"method": "rhf"
			},
			{
				"type": "occ",
				"energy": -0.21241,
				"method": "rhf"
			},
			{
				"type": "unocc",
				"energy": -0.01962,
				"method": "rhf"
			},
			{
				"type": "unocc",
				"energy": -0.01282,
				"method": "rhf"
			},
			{
				"type": "unocc",
				"energy": 0.02743,
				"method": "rhf"
			},
			{
				"type": "unocc",
				"energy": 0.0661,
				"method": "rhf"
			},
			{
				"type": "unocc",
				"energy": 0.08368,
				"method": "rhf"
			}
		],
		"cosmo_sigma_profile": { 
			"-0.025": 0.0,
			"-0.024": 0.0,
			"-0.023": 0.0,
			"-0.022": 0.0,
			"-0.021": 0.0,
			"-0.02": 0.0,
			"-0.019": 0.0,
			"-0.018": 0.0,
			"-0.017": 0.0,
			"-0.016": 0.485844315873,
			"-0.015": 1.19872225982,
			"-0.014": 0.971394836921,
			"-0.013": 0.98739270098,
			"-0.012": 1.08106044319,
			"-0.011": 0.572204176276,
			"-0.01": 0.841012375891,
			"-0.009": 0.690550714256,
			"-0.008": 0.620716519022,
			"-0.007": 3.41665804333,
			"-0.006": 12.4457562336,
			"-0.005": 20.262329762,
			"-0.004": 23.025315446,
			"-0.003": 19.8825299202,
			"-0.002": 18.022872449,
			"-0.001": 17.1625034989,
			"0.0": 16.7104261998,
			"0.001": 12.8363615945,
			"0.002": 13.0832300167,
			"0.003": 13.0488234674,
			"0.004": 14.3563895441,
			"0.005": 11.2077371543,
			"0.006": 4.40566360007,
			"0.007": 3.51872902825,
			"0.008": 2.75872497557,
			"0.009": 3.19289779121,
			"0.01": 2.77972161532,
			"0.011": 1.78532021538,
			"0.012": 1.73860637994,
			"0.013": 2.51490653112,
			"0.014": 2.67846993763,
			"0.015": 0.99942905142,
			"0.016": 0.76412797155,
			"0.017": 1.18354479493,
			"0.018": 0.803367545767,
			"0.019": 0.098600007752,
			"0.02": 0.0,
			"0.021": 0.0,
			"0.022": 0.0,
			"0.023": 0.0,
			"0.024": 0.0,
			"0.025": 0.0
		}
	}
}
