{
	 "smiles": "CC(C)N1N=CC(C(O)=O)=C1N", 
	 "Tm": 383.15, 
	 "num_atms": 23, 
	 "gaussian": { 
		 "optdone": 1, 
		 "sigma_profile": "yes", 
		 "theory": "DFT", 
		 "functional": "B3LYP", 
		 "basiset": "6-31G**", 
		 "properties": { 
			 "R2extent": 2721.2929, 
			 "electric_dipole_moment_norm": 8.2411936599, 
			 "electric_quadrupole_moment_norm": 16.7727960576, 
			 "total_energy": -588.080439979, 
			 "HOMO_LUMO_gap": 0.23556, 
			 "cosmo_polarized_energy": -22.44, 
			 "cosmo_cavitation_energy": 26.68, 
			 "cosmo_dispersion_energy": -19.03, 
			 "cosmo_repulsion_energy": 1.54, 
			 "cosmo_total_nonelectrostatic_energy": 9.18, 
			 "SMD_solvation_energy": 5.87 
		},
		"coords": [
			{
				"x": 1.2404985749,
				"y": -3.1758965998,
				"z": -1.2262483283,
				"element": "C" 
			},
			{
				"x": 0.7672714922,
				"y": -1.7289502286,
				"z": -1.4045329947,
				"element": "C" 
			},
			{
				"x": 1.3603631713,
				"y": -1.0660308242,
				"z": -2.6527954959,
				"element": "C" 
			},
			{
				"x": 1.0879073311,
				"y": -0.9381531107,
				"z": -0.2080306746,
				"element": "N" 
			},
			{
				"x": 2.3858867029,
				"y": -0.7678030862,
				"z": 0.1514415508,
				"element": "N" 
			},
			{
				"x": 2.3509781734,
				"y": -0.022715392,
				"z": 1.2507409645,
				"element": "C" 
			},
			{
				"x": 1.027617702,
				"y": 0.3032179279,
				"z": 1.6232643084,
				"element": "C" 
			},
			{
				"x": 0.5974801497,
				"y": 1.1129954405,
				"z": 2.7851868757,
				"element": "C" 
			},
			{
				"x": -0.7381144158,
				"y": 1.2789669978,
				"z": 2.9199023383,
				"element": "O" 
			},
			{
				"x": 1.3788945748,
				"y": 1.6013364728,
				"z": 3.5721307774,
				"element": "O" 
			},
			{
				"x": 0.238935118,
				"y": -0.3079412439,
				"z": 0.6539537005,
				"element": "C" 
			},
			{
				"x": -1.1772854135,
				"y": -0.2826416078,
				"z": 0.5743910662,
				"element": "N" 
			},
			{
				"x": 0.7806231731,
				"y": -3.6359704957,
				"z": -0.3465147016,
				"element": "H" 
			},
			{
				"x": 2.3253170699,
				"y": -3.2021402872,
				"z": -1.0982831424,
				"element": "H" 
			},
			{
				"x": 0.9747121962,
				"y": -3.7695987168,
				"z": -2.1060301304,
				"element": "H" 
			},
			{
				"x": -0.3264226773,
				"y": -1.7136195098,
				"z": -1.4738272791,
				"element": "H" 
			},
			{
				"x": 1.0952550039,
				"y": -1.6404251207,
				"z": -3.5455046967,
				"element": "H" 
			},
			{
				"x": 0.9849226576,
				"y": -0.0455012689,
				"z": -2.7737860208,
				"element": "H" 
			},
			{
				"x": 2.4491884793,
				"y": -1.0226393774,
				"z": -2.5724197932,
				"element": "H" 
			},
			{
				"x": 3.2642859316,
				"y": 0.2651151912,
				"z": 1.752122524,
				"element": "H" 
			},
			{
				"x": -1.1971085316,
				"y": 0.8105853822,
				"z": 2.1891571526,
				"element": "H" 
			},
			{
				"x": -1.6020264202,
				"y": -1.2024530702,
				"z": 0.6579100193,
				"element": "H" 
			},
			{
				"x": -1.5255800434,
				"y": 0.1663625276,
				"z": -0.2685280201,
				"element": "H" 
			}
		],
		 "valence_orbital": [ 
			{
				"type": "occ",
				"energy": -0.29221,
				"method": "rhf"
			},
			{
				"type": "occ",
				"energy": -0.28945,
				"method": "rhf"
			},
			{
				"type": "occ",
				"energy": -0.26432,
				"method": "rhf"
			},
			{
				"type": "occ",
				"energy": -0.25603,
				"method": "rhf"
			},
			{
				"type": "occ",
				"energy": -0.25325,
				"method": "rhf"
			},
			{
				"type": "unocc",
				"energy": -0.01769,
				"method": "rhf"
			},
			{
				"type": "unocc",
				"energy": 0.01244,
				"method": "rhf"
			},
			{
				"type": "unocc",
				"energy": 0.0309,
				"method": "rhf"
			},
			{
				"type": "unocc",
				"energy": 0.08832,
				"method": "rhf"
			},
			{
				"type": "unocc",
				"energy": 0.10543,
				"method": "rhf"
			}
		],
		"cosmo_sigma_profile": { 
			"-0.025": 0.0,
			"-0.024": 0.0,
			"-0.023": 0.0,
			"-0.022": 0.0,
			"-0.021": 0.0,
			"-0.02": 0.0,
			"-0.019": 0.0,
			"-0.018": 0.0,
			"-0.017": 0.0,
			"-0.016": 0.0,
			"-0.015": 0.0,
			"-0.014": 1.31559371795,
			"-0.013": 3.48824318655,
			"-0.012": 3.84912124554,
			"-0.011": 3.85792558137,
			"-0.01": 4.14656261834,
			"-0.009": 3.19163124311,
			"-0.008": 2.79342734826,
			"-0.007": 3.55161965008,
			"-0.006": 5.77357067148,
			"-0.005": 10.0601822683,
			"-0.004": 18.6110666749,
			"-0.003": 14.5272453315,
			"-0.002": 17.9091088006,
			"-0.001": 15.5926098742,
			"0.0": 19.8491036045,
			"0.001": 13.2601714186,
			"0.002": 8.08602336195,
			"0.003": 8.75689413695,
			"0.004": 5.1531138245,
			"0.005": 4.04294628095,
			"0.006": 4.26471444321,
			"0.007": 4.98706844446,
			"0.008": 3.59980377096,
			"0.009": 3.9739669291,
			"0.01": 4.1817804484,
			"0.011": 5.18529690921,
			"0.012": 7.57332291624,
			"0.013": 6.14579100556,
			"0.014": 2.35439324143,
			"0.015": 0.0767057698771,
			"0.016": 0.0,
			"0.017": 0.0,
			"0.018": 0.0,
			"0.019": 0.0,
			"0.02": 0.0,
			"0.021": 0.0,
			"0.022": 0.0,
			"0.023": 0.0,
			"0.024": 0.0,
			"0.025": 0.0
		}
	}
}
