{
	 "smiles": "NNC1=NC(=CS1)C(F)(F)F", 
	 "Tm": 396.15, 
	 "num_atms": 15, 
	 "gaussian": { 
		 "optdone": 1, 
		 "sigma_profile": "yes", 
		 "theory": "DFT", 
		 "functional": "B3LYP", 
		 "basiset": "6-31G**", 
		 "properties": { 
			 "R2extent": 2553.0545, 
			 "electric_dipole_moment_norm": 2.70846948109, 
			 "electric_quadrupole_moment_norm": 6.16723113236, 
			 "total_energy": -1016.75735118, 
			 "HOMO_LUMO_gap": 0.20156, 
			 "cosmo_polarized_energy": -9.94, 
			 "cosmo_cavitation_energy": 22.97, 
			 "cosmo_dispersion_energy": -17.03, 
			 "cosmo_repulsion_energy": 1.3, 
			 "cosmo_total_nonelectrostatic_energy": 7.23, 
			 "SMD_solvation_energy": 4.37 
		},
		"coords": [
			{
				"x": 0.3880743443,
				"y": -2.0731289918,
				"z": -1.6389056606,
				"element": "N" 
			},
			{
				"x": 0.0019937651,
				"y": -2.4495008612,
				"z": -0.3336424766,
				"element": "N" 
			},
			{
				"x": -0.263948545,
				"y": -1.4792265474,
				"z": 0.597289675,
				"element": "C" 
			},
			{
				"x": -0.3967434008,
				"y": -0.2142343003,
				"z": 0.3105644799,
				"element": "N" 
			},
			{
				"x": -0.702803709,
				"y": 0.4962875916,
				"z": 1.4511089481,
				"element": "C" 
			},
			{
				"x": -0.8016870345,
				"y": -0.1983431106,
				"z": 2.61453434,
				"element": "C" 
			},
			{
				"x": -0.5078222701,
				"y": -1.8917181725,
				"z": 2.3077617353,
				"element": "S" 
			},
			{
				"x": -0.8958429837,
				"y": 1.9788596628,
				"z": 1.3354736397,
				"element": "C" 
			},
			{
				"x": -1.9084151159,
				"y": 2.2853318598,
				"z": 0.4993831887,
				"element": "F" 
			},
			{
				"x": -1.1787128527,
				"y": 2.52311503,
				"z": 2.5397620782,
				"element": "F" 
			},
			{
				"x": 0.2096952484,
				"y": 2.5883896472,
				"z": 0.860270518,
				"element": "F" 
			},
			{
				"x": -0.4585037499,
				"y": -1.8052267807,
				"z": -2.1377907,
				"element": "H" 
			},
			{
				"x": 0.9540297398,
				"y": -1.2249900019,
				"z": -1.5754087784,
				"element": "H" 
			},
			{
				"x": 0.4526515548,
				"y": -3.295368597,
				"z": -0.0143437845,
				"element": "H" 
			},
			{
				"x": -1.0222649906,
				"y": 0.167753572,
				"z": 3.6052427973,
				"element": "H" 
			}
		],
		 "valence_orbital": [ 
			{
				"type": "occ",
				"energy": -0.32773,
				"method": "rhf"
			},
			{
				"type": "occ",
				"energy": -0.29761,
				"method": "rhf"
			},
			{
				"type": "occ",
				"energy": -0.2948,
				"method": "rhf"
			},
			{
				"type": "occ",
				"energy": -0.28521,
				"method": "rhf"
			},
			{
				"type": "occ",
				"energy": -0.22806,
				"method": "rhf"
			},
			{
				"type": "unocc",
				"energy": -0.0265,
				"method": "rhf"
			},
			{
				"type": "unocc",
				"energy": -0.00653,
				"method": "rhf"
			},
			{
				"type": "unocc",
				"energy": 0.03296,
				"method": "rhf"
			},
			{
				"type": "unocc",
				"energy": 0.06477,
				"method": "rhf"
			},
			{
				"type": "unocc",
				"energy": 0.0863,
				"method": "rhf"
			}
		],
		"cosmo_sigma_profile": { 
			"-0.025": 0.0,
			"-0.024": 0.0,
			"-0.023": 0.0,
			"-0.022": 0.0,
			"-0.021": 0.0,
			"-0.02": 0.0,
			"-0.019": 0.0,
			"-0.018": 0.0,
			"-0.017": 0.0,
			"-0.016": 0.0575651067397,
			"-0.015": 1.28483741782,
			"-0.014": 1.53948462557,
			"-0.013": 1.10128125283,
			"-0.012": 1.75439912837,
			"-0.011": 2.88545326109,
			"-0.01": 4.08662068029,
			"-0.009": 4.59667738175,
			"-0.008": 4.75942629954,
			"-0.007": 4.88799196311,
			"-0.006": 4.45778566005,
			"-0.005": 4.49753693354,
			"-0.004": 6.28298083356,
			"-0.003": 4.7485624555,
			"-0.002": 6.71525350437,
			"-0.001": 10.3471627542,
			"0.0": 14.8594981682,
			"0.001": 17.1445764696,
			"0.002": 26.9550424276,
			"0.003": 34.7040508015,
			"0.004": 8.57602959533,
			"0.005": 4.20311952343,
			"0.006": 3.0816653149,
			"0.007": 2.85773078131,
			"0.008": 1.49683436715,
			"0.009": 1.82404280687,
			"0.01": 1.3407506382,
			"0.011": 1.77490103396,
			"0.012": 0.699504924126,
			"0.013": 0.275380229559,
			"0.014": 1.02536549129,
			"0.015": 0.412663815962,
			"0.016": 0.525644273486,
			"0.017": 0.0538986892388,
			"0.018": 0.0,
			"0.019": 0.0,
			"0.02": 0.0,
			"0.021": 0.0,
			"0.022": 0.0,
			"0.023": 0.0,
			"0.024": 0.0,
			"0.025": 0.0
		}
	}
}
