{
	 "smiles": "COC1=CC=C(C=C1)C1=NN=C(S)N1CC1CCCO1", 
	 "Tm": 381.15, 
	 "num_atms": 37, 
	 "gaussian": { 
		 "optdone": 1, 
		 "sigma_profile": "yes", 
		 "theory": "DFT", 
		 "functional": "B3LYP", 
		 "basiset": "6-31G**", 
		 "properties": { 
			 "R2extent": 7914.5249, 
			 "electric_dipole_moment_norm": 7.99828016138, 
			 "electric_quadrupole_moment_norm": 20.4277295532, 
			 "total_energy": -1256.58051615, 
			 "HOMO_LUMO_gap": 0.19294, 
			 "cosmo_polarized_energy": -22.6, 
			 "cosmo_cavitation_energy": 41.22, 
			 "cosmo_dispersion_energy": -29.38, 
			 "cosmo_repulsion_energy": 2.24, 
			 "cosmo_total_nonelectrostatic_energy": 14.07, 
			 "SMD_solvation_energy": 4.56 
		},
		"coords": [
			{
				"x": -2.8822110447,
				"y": 5.0657805151,
				"z": 1.9585853001,
				"element": "C" 
			},
			{
				"x": -2.7176482338,
				"y": 4.7523872341,
				"z": 0.5841949892,
				"element": "O" 
			},
			{
				"x": -1.7389296027,
				"y": 3.8720569517,
				"z": 0.2331619548,
				"element": "C" 
			},
			{
				"x": -1.6091692467,
				"y": 3.6208563383,
				"z": -1.1423209135,
				"element": "C" 
			},
			{
				"x": -0.6494762673,
				"y": 2.733144947,
				"z": -1.6031371373,
				"element": "C" 
			},
			{
				"x": 0.2093840235,
				"y": 2.0665717946,
				"z": -0.7084933335,
				"element": "C" 
			},
			{
				"x": 0.0858500656,
				"y": 2.344820726,
				"z": 0.6585886913,
				"element": "C" 
			},
			{
				"x": -0.8814778723,
				"y": 3.2319925794,
				"z": 1.1361670283,
				"element": "C" 
			},
			{
				"x": 1.2408687093,
				"y": 1.1672627272,
				"z": -1.2508552935,
				"element": "C" 
			},
			{
				"x": 2.0119452417,
				"y": 1.4641922285,
				"z": -2.2777974037,
				"element": "N" 
			},
			{
				"x": 2.827759867,
				"y": 0.3837320044,
				"z": -2.5281672441,
				"element": "N" 
			},
			{
				"x": 2.5353449592,
				"y": -0.536469393,
				"z": -1.639486164,
				"element": "C" 
			},
			{
				"x": 3.3216570367,
				"y": -2.1171364555,
				"z": -1.4949642792,
				"element": "S" 
			},
			{
				"x": 1.5419442768,
				"y": -0.1025625894,
				"z": -0.7882307786,
				"element": "N" 
			},
			{
				"x": 0.8403891382,
				"y": -0.9019827084,
				"z": 0.2110754827,
				"element": "C" 
			},
			{
				"x": -0.2917825281,
				"y": -1.7452554666,
				"z": -0.3856690019,
				"element": "C" 
			},
			{
				"x": -1.029663948,
				"y": -2.5921476848,
				"z": 0.6707195336,
				"element": "C" 
			},
			{
				"x": -1.3144678637,
				"y": -3.8999272189,
				"z": -0.0845016117,
				"element": "C" 
			},
			{
				"x": -0.0776202074,
				"y": -4.0096593963,
				"z": -0.9779820529,
				"element": "C" 
			},
			{
				"x": 0.2392810538,
				"y": -2.6627228376,
				"z": -1.3502922056,
				"element": "O" 
			},
			{
				"x": -1.9796060702,
				"y": 5.5269156458,
				"z": 2.3794554918,
				"element": "H" 
			},
			{
				"x": -3.705793449,
				"y": 5.7794637519,
				"z": 2.0081023097,
				"element": "H" 
			},
			{
				"x": -3.1396253333,
				"y": 4.1767753473,
				"z": 2.5488527485,
				"element": "H" 
			},
			{
				"x": -2.2750691239,
				"y": 4.1354670305,
				"z": -1.8271252216,
				"element": "H" 
			},
			{
				"x": -0.5438054938,
				"y": 2.5457838647,
				"z": -2.6663559277,
				"element": "H" 
			},
			{
				"x": 0.7757342597,
				"y": 1.8972172557,
				"z": 1.3682148529,
				"element": "H" 
			},
			{
				"x": -0.9423362011,
				"y": 3.4277398165,
				"z": 2.1999808061,
				"element": "H" 
			},
			{
				"x": 4.5609764361,
				"y": -1.6247036027,
				"z": -1.6923080001,
				"element": "H" 
			},
			{
				"x": 1.5741174074,
				"y": -1.5570357675,
				"z": 0.6904883853,
				"element": "H" 
			},
			{
				"x": 0.4310749309,
				"y": -0.2307363335,
				"z": 0.9674167476,
				"element": "H" 
			},
			{
				"x": -0.9869508537,
				"y": -1.0745413249,
				"z": -0.9095221984,
				"element": "H" 
			},
			{
				"x": -0.3746461182,
				"y": -2.7862764982,
				"z": 1.529531371,
				"element": "H" 
			},
			{
				"x": -1.9300288981,
				"y": -2.0974395074,
				"z": 1.0438543568,
				"element": "H" 
			},
			{
				"x": -2.2167642601,
				"y": -3.7999763057,
				"z": -0.6972544217,
				"element": "H" 
			},
			{
				"x": -1.4436365233,
				"y": -4.7612804887,
				"z": 0.576674944,
				"element": "H" 
			},
			{
				"x": -0.2414763151,
				"y": -4.5820645494,
				"z": -1.8955198272,
				"element": "H" 
			},
			{
				"x": 0.7652580485,
				"y": -4.4634426304,
				"z": -0.4350819777,
				"element": "H" 
			}
		],
		 "valence_orbital": [ 
			{
				"type": "occ",
				"energy": -0.25968,
				"method": "rhf"
			},
			{
				"type": "occ",
				"energy": -0.25736,
				"method": "rhf"
			},
			{
				"type": "occ",
				"energy": -0.24478,
				"method": "rhf"
			},
			{
				"type": "occ",
				"energy": -0.23647,
				"method": "rhf"
			},
			{
				"type": "occ",
				"energy": -0.21117,
				"method": "rhf"
			},
			{
				"type": "unocc",
				"energy": -0.01823,
				"method": "rhf"
			},
			{
				"type": "unocc",
				"energy": -0.00846,
				"method": "rhf"
			},
			{
				"type": "unocc",
				"energy": 0.0198,
				"method": "rhf"
			},
			{
				"type": "unocc",
				"energy": 0.04242,
				"method": "rhf"
			},
			{
				"type": "unocc",
				"energy": 0.05346,
				"method": "rhf"
			}
		],
		"cosmo_sigma_profile": { 
			"-0.025": 0.0,
			"-0.024": 0.0,
			"-0.023": 0.0,
			"-0.022": 0.0,
			"-0.021": 0.0,
			"-0.02": 0.0,
			"-0.019": 0.0,
			"-0.018": 0.0,
			"-0.017": 0.0,
			"-0.016": 0.0,
			"-0.015": 0.0,
			"-0.014": 0.0,
			"-0.013": 0.0,
			"-0.012": 0.040726544798,
			"-0.011": 1.48542875166,
			"-0.01": 1.54740303179,
			"-0.009": 1.87421274087,
			"-0.008": 2.91345341615,
			"-0.007": 6.96471915675,
			"-0.006": 17.8425443125,
			"-0.005": 25.6303484009,
			"-0.004": 39.2126159226,
			"-0.003": 39.7668057428,
			"-0.002": 27.8407173348,
			"-0.001": 23.1833558893,
			"0.0": 18.1278007158,
			"0.001": 12.1010112457,
			"0.002": 17.1081643866,
			"0.003": 15.6457172208,
			"0.004": 18.3319388299,
			"0.005": 9.61749499743,
			"0.006": 7.61767364683,
			"0.007": 6.30653232391,
			"0.008": 6.46026292176,
			"0.009": 5.26268030416,
			"0.01": 4.58734842208,
			"0.011": 2.59807239456,
			"0.012": 3.46572490374,
			"0.013": 3.70720738109,
			"0.014": 3.32295536555,
			"0.015": 2.76946316287,
			"0.016": 2.09433601616,
			"0.017": 1.1147375563,
			"0.018": 0.00232703286303,
			"0.019": 0.0,
			"0.02": 0.0,
			"0.021": 0.0,
			"0.022": 0.0,
			"0.023": 0.0,
			"0.024": 0.0,
			"0.025": 0.0
		}
	}
}
