{
	 "smiles": "CSC1=CC=CC=C1C(O)=O", 
	 "Tm": 445.15, 
	 "num_atms": 19, 
	 "gaussian": { 
		 "optdone": 1, 
		 "sigma_profile": "yes", 
		 "theory": "DFT", 
		 "functional": "B3LYP", 
		 "basiset": "6-31G**", 
		 "properties": { 
			 "R2extent": 3146.1694, 
			 "electric_dipole_moment_norm": 4.40781645376, 
			 "electric_quadrupole_moment_norm": 14.6113482085, 
			 "total_energy": -858.307837206, 
			 "HOMO_LUMO_gap": 0.16932, 
			 "cosmo_polarized_energy": -14.74, 
			 "cosmo_cavitation_energy": 24.21, 
			 "cosmo_dispersion_energy": -18.29, 
			 "cosmo_repulsion_energy": 1.41, 
			 "cosmo_total_nonelectrostatic_energy": 7.34, 
			 "SMD_solvation_energy": 5.12 
		},
		"coords": [
			{
				"x": 1.478279746,
				"y": 2.8658746257,
				"z": -2.2182125407,
				"element": "C" 
			},
			{
				"x": -0.2789845559,
				"y": 2.8985671754,
				"z": -2.7192876642,
				"element": "S" 
			},
			{
				"x": -1.124616684,
				"y": 1.7163106961,
				"z": -1.6842681421,
				"element": "C" 
			},
			{
				"x": -2.4191078966,
				"y": 2.113444378,
				"z": -1.3030992227,
				"element": "C" 
			},
			{
				"x": -3.2389688604,
				"y": 1.2933059345,
				"z": -0.534798701,
				"element": "C" 
			},
			{
				"x": -2.7722854279,
				"y": 0.0533346477,
				"z": -0.0952773317,
				"element": "C" 
			},
			{
				"x": -1.4892640847,
				"y": -0.3483469794,
				"z": -0.4485609723,
				"element": "C" 
			},
			{
				"x": -0.655730091,
				"y": 0.4535953655,
				"z": -1.2523182064,
				"element": "C" 
			},
			{
				"x": 0.6470617556,
				"y": -0.1425360757,
				"z": -1.6990200945,
				"element": "C" 
			},
			{
				"x": 1.3087314209,
				"y": -0.8749270815,
				"z": -0.7579452693,
				"element": "O" 
			},
			{
				"x": 1.1046828221,
				"y": -0.0507897011,
				"z": -2.8126917466,
				"element": "O" 
			},
			{
				"x": 1.5671122188,
				"y": 2.8053823823,
				"z": -1.1309415292,
				"element": "H" 
			},
			{
				"x": 2.0135671833,
				"y": 2.0455395226,
				"z": -2.6932406639,
				"element": "H" 
			},
			{
				"x": 1.8850067192,
				"y": 3.8240951937,
				"z": -2.549279443,
				"element": "H" 
			},
			{
				"x": -2.7713707711,
				"y": 3.0936909875,
				"z": -1.6090456166,
				"element": "H" 
			},
			{
				"x": -4.2350038193,
				"y": 1.6320291905,
				"z": -0.2652694048,
				"element": "H" 
			},
			{
				"x": -3.400052768,
				"y": -0.5941666047,
				"z": 0.5084784246,
				"element": "H" 
			},
			{
				"x": -1.1406140155,
				"y": -1.3321148901,
				"z": -0.1452274246,
				"element": "H" 
			},
			{
				"x": 0.8949571083,
				"y": -0.7429887669,
				"z": 0.1069055489,
				"element": "H" 
			}
		],
		 "valence_orbital": [ 
			{
				"type": "occ",
				"energy": -0.31854,
				"method": "rhf"
			},
			{
				"type": "occ",
				"energy": -0.2917,
				"method": "rhf"
			},
			{
				"type": "occ",
				"energy": -0.27895,
				"method": "rhf"
			},
			{
				"type": "occ",
				"energy": -0.267,
				"method": "rhf"
			},
			{
				"type": "occ",
				"energy": -0.21995,
				"method": "rhf"
			},
			{
				"type": "unocc",
				"energy": -0.05063,
				"method": "rhf"
			},
			{
				"type": "unocc",
				"energy": -0.02634,
				"method": "rhf"
			},
			{
				"type": "unocc",
				"energy": 0.03149,
				"method": "rhf"
			},
			{
				"type": "unocc",
				"energy": 0.04217,
				"method": "rhf"
			},
			{
				"type": "unocc",
				"energy": 0.0617,
				"method": "rhf"
			}
		],
		"cosmo_sigma_profile": { 
			"-0.025": 0.0,
			"-0.024": 0.0,
			"-0.023": 0.0,
			"-0.022": 0.0,
			"-0.021": 0.0,
			"-0.02": 0.0,
			"-0.019": 0.128897074895,
			"-0.018": 0.771861812287,
			"-0.017": 0.781749975813,
			"-0.016": 0.927946549005,
			"-0.015": 0.83758438592,
			"-0.014": 0.848308788698,
			"-0.013": 0.733979086358,
			"-0.012": 1.54173275109,
			"-0.011": 0.903768374257,
			"-0.01": 1.20983447054,
			"-0.009": 1.23644401697,
			"-0.008": 1.96555093462,
			"-0.007": 6.98351548019,
			"-0.006": 15.4544359881,
			"-0.005": 12.7579881781,
			"-0.004": 11.7413227243,
			"-0.003": 12.9116018889,
			"-0.002": 13.4185053456,
			"-0.001": 11.9926880324,
			"0.0": 8.82926909223,
			"0.001": 9.85700302809,
			"0.002": 13.2731271851,
			"0.003": 16.0812942982,
			"0.004": 8.2233484813,
			"0.005": 6.26117838569,
			"0.006": 5.45474593158,
			"0.007": 3.88885516212,
			"0.008": 5.58221793738,
			"0.009": 4.34802950584,
			"0.01": 5.80783580362,
			"0.011": 4.89373848061,
			"0.012": 4.17768420238,
			"0.013": 1.33644299437,
			"0.014": 0.0119710293466,
			"0.015": 0.0,
			"0.016": 0.0,
			"0.017": 0.0,
			"0.018": 0.0,
			"0.019": 0.0,
			"0.02": 0.0,
			"0.021": 0.0,
			"0.022": 0.0,
			"0.023": 0.0,
			"0.024": 0.0,
			"0.025": 0.0
		}
	}
}
