{
	 "smiles": "CCC(=O)C1=C(O)C(Cl)=C(Cl)C=C1", 
	 "Tm": 372.15, 
	 "num_atms": 21, 
	 "gaussian": { 
		 "optdone": 1, 
		 "sigma_profile": "yes", 
		 "theory": "DFT", 
		 "functional": "B3LYP", 
		 "basiset": "6-31G**", 
		 "properties": { 
			 "R2extent": 3738.395, 
			 "electric_dipole_moment_norm": 2.0876306522, 
			 "electric_quadrupole_moment_norm": 8.31385828662, 
			 "total_energy": -1418.60930592, 
			 "HOMO_LUMO_gap": 0.18386, 
			 "cosmo_polarized_energy": -8.15, 
			 "cosmo_cavitation_energy": 28.07, 
			 "cosmo_dispersion_energy": -20.99, 
			 "cosmo_repulsion_energy": 1.66, 
			 "cosmo_total_nonelectrostatic_energy": 8.74, 
			 "SMD_solvation_energy": 5.19 
		},
		"coords": [
			{
				"x": -2.703115161,
				"y": 1.7479146521,
				"z": -0.0831751902,
				"element": "C" 
			},
			{
				"x": -1.4616894963,
				"y": 2.3851424627,
				"z": 0.5710409105,
				"element": "C" 
			},
			{
				"x": -0.7056367908,
				"y": 1.3844074595,
				"z": 1.4294750229,
				"element": "C" 
			},
			{
				"x": -0.9106602617,
				"y": 1.3546374249,
				"z": 2.6353316185,
				"element": "O" 
			},
			{
				"x": 0.279845307,
				"y": 0.3962457601,
				"z": 0.8459837978,
				"element": "C" 
			},
			{
				"x": 0.6423289002,
				"y": 0.2819742303,
				"z": -0.5131356114,
				"element": "C" 
			},
			{
				"x": 0.0770308256,
				"y": 1.090922605,
				"z": -1.438114513,
				"element": "O" 
			},
			{
				"x": 1.5946564003,
				"y": -0.685608219,
				"z": -0.9010015499,
				"element": "C" 
			},
			{
				"x": 2.0089190952,
				"y": -0.7847483978,
				"z": -2.6040736463,
				"element": "Cl" 
			},
			{
				"x": 2.1807553214,
				"y": -1.5319739514,
				"z": 0.0416474564,
				"element": "C" 
			},
			{
				"x": 3.3559931377,
				"y": -2.7279268329,
				"z": -0.4329762556,
				"element": "Cl" 
			},
			{
				"x": 1.8238941822,
				"y": -1.4246101551,
				"z": 1.3880429595,
				"element": "C" 
			},
			{
				"x": 0.8898754094,
				"y": -0.4730579183,
				"z": 1.7644341539,
				"element": "C" 
			},
			{
				"x": -2.4250320134,
				"y": 0.9553173283,
				"z": -0.7824114694,
				"element": "H" 
			},
			{
				"x": -3.3669521258,
				"y": 1.3263274741,
				"z": 0.677703988,
				"element": "H" 
			},
			{
				"x": -3.2635153411,
				"y": 2.5047565326,
				"z": -0.6401354807,
				"element": "H" 
			},
			{
				"x": -0.8145859074,
				"y": 2.8096372167,
				"z": -0.1989405962,
				"element": "H" 
			},
			{
				"x": -1.7743745476,
				"y": 3.180698816,
				"z": 1.2528456588,
				"element": "H" 
			},
			{
				"x": 0.4427413623,
				"y": 0.8741295496,
				"z": -2.311139408,
				"element": "H" 
			},
			{
				"x": 2.2814572593,
				"y": -2.0839270495,
				"z": 2.1159760708,
				"element": "H" 
			},
			{
				"x": 0.5964644445,
				"y": -0.367058988,
				"z": 2.8028220836,
				"element": "H" 
			}
		],
		 "valence_orbital": [ 
			{
				"type": "occ",
				"energy": -0.32906,
				"method": "rhf"
			},
			{
				"type": "occ",
				"energy": -0.32636,
				"method": "rhf"
			},
			{
				"type": "occ",
				"energy": -0.26265,
				"method": "rhf"
			},
			{
				"type": "occ",
				"energy": -0.25173,
				"method": "rhf"
			},
			{
				"type": "occ",
				"energy": -0.25078,
				"method": "rhf"
			},
			{
				"type": "unocc",
				"energy": -0.06692,
				"method": "rhf"
			},
			{
				"type": "unocc",
				"energy": -0.02081,
				"method": "rhf"
			},
			{
				"type": "unocc",
				"energy": -0.0159,
				"method": "rhf"
			},
			{
				"type": "unocc",
				"energy": 0.02143,
				"method": "rhf"
			},
			{
				"type": "unocc",
				"energy": 0.04709,
				"method": "rhf"
			}
		],
		"cosmo_sigma_profile": { 
			"-0.025": 0.0,
			"-0.024": 0.0,
			"-0.023": 0.0,
			"-0.022": 0.0,
			"-0.021": 0.0,
			"-0.02": 0.0,
			"-0.019": 0.0,
			"-0.018": 0.0,
			"-0.017": 0.0,
			"-0.016": 0.421837518102,
			"-0.015": 0.530926557683,
			"-0.014": 0.383873390353,
			"-0.013": 0.524090499204,
			"-0.012": 1.0870507227,
			"-0.011": 1.16007146946,
			"-0.01": 0.761564909329,
			"-0.009": 0.830582614105,
			"-0.008": 2.25947745633,
			"-0.007": 3.63389714175,
			"-0.006": 4.26775936714,
			"-0.005": 5.04886362417,
			"-0.004": 9.84797304996,
			"-0.003": 18.3602767947,
			"-0.002": 25.3476793509,
			"-0.001": 29.4428114456,
			"0.0": 30.8698516024,
			"0.001": 23.5293603027,
			"0.002": 21.4138238485,
			"0.003": 18.5078701872,
			"0.004": 11.2901512949,
			"0.005": 2.86417793401,
			"0.006": 1.89835821856,
			"0.007": 1.60626322539,
			"0.008": 1.33433478476,
			"0.009": 1.74841627028,
			"0.01": 1.80472076318,
			"0.011": 3.15206141008,
			"0.012": 3.18874879826,
			"0.013": 1.15561093354,
			"0.014": 0.12527920479,
			"0.015": 0.0,
			"0.016": 0.0,
			"0.017": 0.0,
			"0.018": 0.0,
			"0.019": 0.0,
			"0.02": 0.0,
			"0.021": 0.0,
			"0.022": 0.0,
			"0.023": 0.0,
			"0.024": 0.0,
			"0.025": 0.0
		}
	}
}
