{
	 "smiles": "OC(=O)C1=CN=C(NCC=C)S1", 
	 "Tm": 443.15, 
	 "num_atms": 20, 
	 "gaussian": { 
		 "optdone": 1, 
		 "sigma_profile": "yes", 
		 "theory": "DFT", 
		 "functional": "B3LYP", 
		 "basiset": "6-31G**", 
		 "properties": { 
			 "R2extent": 3572.8338, 
			 "electric_dipole_moment_norm": 5.74481314666, 
			 "electric_quadrupole_moment_norm": 20.3954399107, 
			 "total_energy": -929.677603504, 
			 "HOMO_LUMO_gap": 0.17222, 
			 "cosmo_polarized_energy": -19.35, 
			 "cosmo_cavitation_energy": 27.07, 
			 "cosmo_dispersion_energy": -20.03, 
			 "cosmo_repulsion_energy": 1.57, 
			 "cosmo_total_nonelectrostatic_energy": 8.61, 
			 "SMD_solvation_energy": 4.41 
		},
		"coords": [
			{
				"x": 3.665175445,
				"y": -2.0932522556,
				"z": -2.1915372242,
				"element": "O" 
			},
			{
				"x": 2.3052579584,
				"y": -2.0964873107,
				"z": -2.1015154098,
				"element": "C" 
			},
			{
				"x": 1.6744131899,
				"y": -3.0548221434,
				"z": -2.4911029631,
				"element": "O" 
			},
			{
				"x": 1.6786370931,
				"y": -0.9046449105,
				"z": -1.5183435009,
				"element": "C" 
			},
			{
				"x": 2.201518634,
				"y": 0.2101829443,
				"z": -0.9126722569,
				"element": "C" 
			},
			{
				"x": 1.3293170625,
				"y": 1.143051284,
				"z": -0.4372612788,
				"element": "N" 
			},
			{
				"x": 0.0884416261,
				"y": 0.7597794035,
				"z": -0.6718999013,
				"element": "C" 
			},
			{
				"x": -1.0012264874,
				"y": 1.5020457728,
				"z": -0.3503183582,
				"element": "N" 
			},
			{
				"x": -0.9137082117,
				"y": 2.7162757846,
				"z": 0.4677926085,
				"element": "C" 
			},
			{
				"x": -1.2704380935,
				"y": 2.4626450684,
				"z": 1.9091990574,
				"element": "C" 
			},
			{
				"x": -2.2774936038,
				"y": 3.0611755267,
				"z": 2.5449353467,
				"element": "C" 
			},
			{
				"x": -0.0786167793,
				"y": -0.7954783816,
				"z": -1.49097502,
				"element": "S" 
			},
			{
				"x": 4.0271194666,
				"y": -1.2348377534,
				"z": -1.9325454785,
				"element": "H" 
			},
			{
				"x": 3.2633217886,
				"y": 0.394384097,
				"z": -0.7689314225,
				"element": "H" 
			},
			{
				"x": -1.904746696,
				"y": 1.0554332682,
				"z": -0.4094371658,
				"element": "H" 
			},
			{
				"x": -1.5765656451,
				"y": 3.4754503756,
				"z": 0.0379231616,
				"element": "H" 
			},
			{
				"x": 0.1155619503,
				"y": 3.0721815033,
				"z": 0.3761325465,
				"element": "H" 
			},
			{
				"x": -0.6465961435,
				"y": 1.7361000284,
				"z": 2.4283413172,
				"element": "H" 
			},
			{
				"x": -2.4979816937,
				"y": 2.8564023952,
				"z": 3.5881293498,
				"element": "H" 
			},
			{
				"x": -2.9139908605,
				"y": 3.7891153032,
				"z": 2.0462865926,
				"element": "H" 
			}
		],
		 "valence_orbital": [ 
			{
				"type": "occ",
				"energy": -0.30026,
				"method": "rhf"
			},
			{
				"type": "occ",
				"energy": -0.28843,
				"method": "rhf"
			},
			{
				"type": "occ",
				"energy": -0.28066,
				"method": "rhf"
			},
			{
				"type": "occ",
				"energy": -0.26538,
				"method": "rhf"
			},
			{
				"type": "occ",
				"energy": -0.22219,
				"method": "rhf"
			},
			{
				"type": "unocc",
				"energy": -0.04997,
				"method": "rhf"
			},
			{
				"type": "unocc",
				"energy": -0.00399,
				"method": "rhf"
			},
			{
				"type": "unocc",
				"energy": -0.00125,
				"method": "rhf"
			},
			{
				"type": "unocc",
				"energy": 0.02714,
				"method": "rhf"
			},
			{
				"type": "unocc",
				"energy": 0.05426,
				"method": "rhf"
			}
		],
		"cosmo_sigma_profile": { 
			"-0.025": 0.0,
			"-0.024": 0.0,
			"-0.023": 0.0,
			"-0.022": 0.0,
			"-0.021": 0.0,
			"-0.02": 0.00928395747027,
			"-0.019": 0.755186599779,
			"-0.018": 1.17013779309,
			"-0.017": 0.906656949626,
			"-0.016": 1.54035506532,
			"-0.015": 2.91417579389,
			"-0.014": 1.91134319214,
			"-0.013": 2.10223379326,
			"-0.012": 1.8812017065,
			"-0.011": 3.19596903309,
			"-0.01": 2.69731637889,
			"-0.009": 2.57595294613,
			"-0.008": 2.4910076103,
			"-0.007": 2.4677225802,
			"-0.006": 6.35112760575,
			"-0.005": 12.4622538886,
			"-0.004": 11.1507576859,
			"-0.003": 13.1296304716,
			"-0.002": 14.350245586,
			"-0.001": 14.4132730062,
			"0.0": 16.0922095598,
			"0.001": 18.4258933097,
			"0.002": 14.8340887408,
			"0.003": 13.7194671778,
			"0.004": 10.5328095725,
			"0.005": 7.44055404771,
			"0.006": 5.63669334052,
			"0.007": 3.43670288922,
			"0.008": 3.80707166871,
			"0.009": 4.64087525364,
			"0.01": 5.60429599226,
			"0.011": 5.76352179411,
			"0.012": 6.91215342041,
			"0.013": 2.68108102129,
			"0.014": 0.297469799862,
			"0.015": 0.0,
			"0.016": 0.0,
			"0.017": 0.0,
			"0.018": 0.0,
			"0.019": 0.0,
			"0.02": 0.0,
			"0.021": 0.0,
			"0.022": 0.0,
			"0.023": 0.0,
			"0.024": 0.0,
			"0.025": 0.0
		}
	}
}
