{
	 "smiles": "N#CCN1CCCCC1", 
	 "Tm": 298.15, 
	 "num_atms": 21, 
	 "gaussian": { 
		 "optdone": 1, 
		 "sigma_profile": "yes", 
		 "theory": "DFT", 
		 "functional": "B3LYP", 
		 "basiset": "6-31G**", 
		 "properties": { 
			 "R2extent": 1593.6081, 
			 "electric_dipole_moment_norm": 3.38604538806, 
			 "electric_quadrupole_moment_norm": 13.9297377495, 
			 "total_energy": -383.45196314, 
			 "HOMO_LUMO_gap": 0.25423, 
			 "cosmo_polarized_energy": -8.34, 
			 "cosmo_cavitation_energy": 22.9, 
			 "cosmo_dispersion_energy": -16.55, 
			 "cosmo_repulsion_energy": 1.37, 
			 "cosmo_total_nonelectrostatic_energy": 7.71, 
			 "SMD_solvation_energy": 2.63 
		},
		"coords": [
			{
				"x": 2.6095403793,
				"y": 2.5832200488,
				"z": -0.903796565,
				"element": "N" 
			},
			{
				"x": 1.9585267868,
				"y": 1.8833164799,
				"z": -1.5633784778,
				"element": "C" 
			},
			{
				"x": 1.0851418014,
				"y": 0.9618504843,
				"z": -2.3432175781,
				"element": "C" 
			},
			{
				"x": 0.0224699542,
				"y": 0.3399298014,
				"z": -1.581278222,
				"element": "N" 
			},
			{
				"x": 0.4788721039,
				"y": -0.5633721269,
				"z": -0.5198315271,
				"element": "C" 
			},
			{
				"x": -0.66910836,
				"y": -1.5203365822,
				"z": -0.1275261541,
				"element": "C" 
			},
			{
				"x": -2.0480072466,
				"y": -0.8561810302,
				"z": -0.3355467383,
				"element": "C" 
			},
			{
				"x": -1.9463009441,
				"y": 0.6537965883,
				"z": -0.0958248281,
				"element": "C" 
			},
			{
				"x": -0.9856553651,
				"y": 1.3063194941,
				"z": -1.1119003416,
				"element": "C" 
			},
			{
				"x": 1.7237583276,
				"y": 0.188110537,
				"z": -2.7846239249,
				"element": "H" 
			},
			{
				"x": 0.6507830594,
				"y": 1.5346425468,
				"z": -3.1715575556,
				"element": "H" 
			},
			{
				"x": 1.3353142316,
				"y": -1.1324937153,
				"z": -0.8966451465,
				"element": "H" 
			},
			{
				"x": 0.8411468866,
				"y": -0.004872097,
				"z": 0.3615377233,
				"element": "H" 
			},
			{
				"x": -0.6102267758,
				"y": -2.4384368777,
				"z": -0.7214378687,
				"element": "H" 
			},
			{
				"x": -0.5406649944,
				"y": -1.8121239598,
				"z": 0.9214120862,
				"element": "H" 
			},
			{
				"x": -2.791350635,
				"y": -1.3047810945,
				"z": 0.3320854226,
				"element": "H" 
			},
			{
				"x": -2.3929434018,
				"y": -1.0345060941,
				"z": -1.3602120785,
				"element": "H" 
			},
			{
				"x": -2.9271946229,
				"y": 1.1354487239,
				"z": -0.1643431502,
				"element": "H" 
			},
			{
				"x": -1.5852047798,
				"y": 0.832428267,
				"z": 0.9245291058,
				"element": "H" 
			},
			{
				"x": -0.5154508032,
				"y": 2.1946610608,
				"z": -0.6545499812,
				"element": "H" 
			},
			{
				"x": -1.5414456019,
				"y": 1.6532795454,
				"z": -1.9930942002,
				"element": "H" 
			}
		],
		 "valence_orbital": [ 
			{
				"type": "occ",
				"energy": -0.33071,
				"method": "rhf"
			},
			{
				"type": "occ",
				"energy": -0.3241,
				"method": "rhf"
			},
			{
				"type": "occ",
				"energy": -0.31938,
				"method": "rhf"
			},
			{
				"type": "occ",
				"energy": -0.31741,
				"method": "rhf"
			},
			{
				"type": "occ",
				"energy": -0.22762,
				"method": "rhf"
			},
			{
				"type": "unocc",
				"energy": 0.02661,
				"method": "rhf"
			},
			{
				"type": "unocc",
				"energy": 0.04112,
				"method": "rhf"
			},
			{
				"type": "unocc",
				"energy": 0.078,
				"method": "rhf"
			},
			{
				"type": "unocc",
				"energy": 0.09978,
				"method": "rhf"
			},
			{
				"type": "unocc",
				"energy": 0.10948,
				"method": "rhf"
			}
		],
		"cosmo_sigma_profile": { 
			"-0.025": 0.0,
			"-0.024": 0.0,
			"-0.023": 0.0,
			"-0.022": 0.0,
			"-0.021": 0.0,
			"-0.02": 0.0,
			"-0.019": 0.0,
			"-0.018": 0.0,
			"-0.017": 0.0,
			"-0.016": 0.0,
			"-0.015": 0.0,
			"-0.014": 0.0,
			"-0.013": 0.0,
			"-0.012": 0.0,
			"-0.011": 0.0,
			"-0.01": 0.0,
			"-0.009": 0.183933088439,
			"-0.008": 5.312096013,
			"-0.007": 5.6707495078,
			"-0.006": 5.9416474104,
			"-0.005": 6.17104981501,
			"-0.004": 6.79509079179,
			"-0.003": 15.2655555736,
			"-0.002": 30.3830809169,
			"-0.001": 29.8821999849,
			"0.0": 21.3721610357,
			"0.001": 11.9888066831,
			"0.002": 3.4509195704,
			"0.003": 2.28050870279,
			"0.004": 4.01458868996,
			"0.005": 2.3678323526,
			"0.006": 3.3684316546,
			"0.007": 3.17044216343,
			"0.008": 3.35478418715,
			"0.009": 4.49664117603,
			"0.01": 3.47810707577,
			"0.011": 3.85466095215,
			"0.012": 2.90558683153,
			"0.013": 2.43133942014,
			"0.014": 0.422101727802,
			"0.015": 0.0,
			"0.016": 0.0,
			"0.017": 0.0,
			"0.018": 0.0,
			"0.019": 0.0,
			"0.02": 0.0,
			"0.021": 0.0,
			"0.022": 0.0,
			"0.023": 0.0,
			"0.024": 0.0,
			"0.025": 0.0
		}
	}
}
