{
	 "smiles": "FC1=CC=CC(=C1CBr)C(F)(F)F", 
	 "Tm": 317.15, 
	 "num_atms": 18, 
	 "gaussian": { 
		 "optdone": 1, 
		 "sigma_profile": "yes", 
		 "theory": "DFT", 
		 "functional": "B3LYP", 
		 "basiset": "6-31G**", 
		 "properties": { 
			 "R2extent": 4921.7326, 
			 "electric_dipole_moment_norm": 3.33892358253, 
			 "electric_quadrupole_moment_norm": 8.56240933499, 
			 "total_energy": -3278.63353159, 
			 "HOMO_LUMO_gap": 0.20393, 
			 "cosmo_polarized_energy": -5.98, 
			 "cosmo_cavitation_energy": 25.72, 
			 "cosmo_dispersion_energy": -18.59, 
			 "cosmo_repulsion_energy": 1.39, 
			 "cosmo_total_nonelectrostatic_energy": 8.52, 
			 "SMD_solvation_energy": 4.72 
		},
		"coords": [
			{
				"x": -2.8406124674,
				"y": 1.8952042192,
				"z": 0.7436691617,
				"element": "F" 
			},
			{
				"x": -1.81843446,
				"y": 1.033920275,
				"z": 0.5735994462,
				"element": "C" 
			},
			{
				"x": -2.1071792365,
				"y": -0.2651782403,
				"z": 0.1773008544,
				"element": "C" 
			},
			{
				"x": -1.0517836972,
				"y": -1.1550826448,
				"z": -0.0035510131,
				"element": "C" 
			},
			{
				"x": 0.2620465343,
				"y": -0.7344952758,
				"z": 0.2063607069,
				"element": "C" 
			},
			{
				"x": 0.5274593994,
				"y": 0.5766436902,
				"z": 0.6048498478,
				"element": "C" 
			},
			{
				"x": -0.5198780492,
				"y": 1.5011615231,
				"z": 0.7984888177,
				"element": "C" 
			},
			{
				"x": -0.3289510243,
				"y": 2.9232779343,
				"z": 1.2204135124,
				"element": "C" 
			},
			{
				"x": -0.5865602259,
				"y": 3.1522966074,
				"z": 3.1890905356,
				"element": "Br" 
			},
			{
				"x": 1.9631207708,
				"y": 1.0041583833,
				"z": 0.8034528429,
				"element": "C" 
			},
			{
				"x": 2.3138216414,
				"y": 1.9796607341,
				"z": -0.0739098446,
				"element": "F" 
			},
			{
				"x": 2.8262489952,
				"y": -0.0151213889,
				"z": 0.6228693086,
				"element": "F" 
			},
			{
				"x": 2.1768223935,
				"y": 1.4992294081,
				"z": 2.0399118024,
				"element": "F" 
			},
			{
				"x": -3.1405072996,
				"y": -0.5539943039,
				"z": 0.0203171418,
				"element": "H" 
			},
			{
				"x": -1.2514851474,
				"y": -2.176237842,
				"z": -0.3115938395,
				"element": "H" 
			},
			{
				"x": 1.0856774847,
				"y": -1.4224188185,
				"z": 0.062000456,
				"element": "H" 
			},
			{
				"x": 0.6673132223,
				"y": 3.3008480101,
				"z": 1.0188793327,
				"element": "H" 
			},
			{
				"x": -1.0804188342,
				"y": 3.5712277295,
				"z": 0.7770509303,
				"element": "H" 
			}
		],
		 "valence_orbital": [ 
			{
				"type": "occ",
				"energy": -0.3648,
				"method": "rhf"
			},
			{
				"type": "occ",
				"energy": -0.28483,
				"method": "rhf"
			},
			{
				"type": "occ",
				"energy": -0.27655,
				"method": "rhf"
			},
			{
				"type": "occ",
				"energy": -0.27168,
				"method": "rhf"
			},
			{
				"type": "occ",
				"energy": -0.26271,
				"method": "rhf"
			},
			{
				"type": "unocc",
				"energy": -0.05878,
				"method": "rhf"
			},
			{
				"type": "unocc",
				"energy": -0.02923,
				"method": "rhf"
			},
			{
				"type": "unocc",
				"energy": 0.01601,
				"method": "rhf"
			},
			{
				"type": "unocc",
				"energy": 0.07624,
				"method": "rhf"
			},
			{
				"type": "unocc",
				"energy": 0.10528,
				"method": "rhf"
			}
		],
		"cosmo_sigma_profile": { 
			"-0.025": 0.0,
			"-0.024": 0.0,
			"-0.023": 0.0,
			"-0.022": 0.0,
			"-0.021": 0.0,
			"-0.02": 0.0,
			"-0.019": 0.0,
			"-0.018": 0.0,
			"-0.017": 0.0,
			"-0.016": 0.0,
			"-0.015": 0.0,
			"-0.014": 0.0,
			"-0.013": 0.0,
			"-0.012": 0.0,
			"-0.011": 0.0,
			"-0.01": 0.0,
			"-0.009": 0.273514867287,
			"-0.008": 4.7111029744,
			"-0.007": 8.46765164484,
			"-0.006": 10.4188076115,
			"-0.005": 9.1030983911,
			"-0.004": 9.23487016742,
			"-0.003": 10.5848697359,
			"-0.002": 12.5656002976,
			"-0.001": 14.4547591154,
			"0.0": 19.7196744092,
			"0.001": 21.3458668463,
			"0.002": 32.7841386871,
			"0.003": 25.7584835291,
			"0.004": 11.5055092836,
			"0.005": 11.0372917331,
			"0.006": 8.17217391912,
			"0.007": 0.0,
			"0.008": 0.0,
			"0.009": 0.0,
			"0.01": 0.0,
			"0.011": 0.0,
			"0.012": 0.0,
			"0.013": 0.0,
			"0.014": 0.0,
			"0.015": 0.0,
			"0.016": 0.0,
			"0.017": 0.0,
			"0.018": 0.0,
			"0.019": 0.0,
			"0.02": 0.0,
			"0.021": 0.0,
			"0.022": 0.0,
			"0.023": 0.0,
			"0.024": 0.0,
			"0.025": 0.0
		}
	}
}
