{
	 "smiles": "CCCSC", 
	 "Tm": 160.15, 
	 "num_atms": 15, 
	 "gaussian": { 
		 "optdone": 1, 
		 "sigma_profile": "yes", 
		 "theory": "DFT", 
		 "functional": "B3LYP", 
		 "basiset": "6-31G**", 
		 "properties": { 
			 "R2extent": 841.7591, 
			 "electric_dipole_moment_norm": 1.730715719, 
			 "electric_quadrupole_moment_norm": 4.60869640029, 
			 "total_energy": -556.64966392, 
			 "HOMO_LUMO_gap": 0.26401, 
			 "cosmo_polarized_energy": -3.96, 
			 "cosmo_cavitation_energy": 18.54, 
			 "cosmo_dispersion_energy": -14.13, 
			 "cosmo_repulsion_energy": 1.19, 
			 "cosmo_total_nonelectrostatic_energy": 5.6, 
			 "SMD_solvation_energy": 3.3 
		},
		"coords": [
			{
				"x": -1.4264997099,
				"y": -1.7645431254,
				"z": 0.1213291233,
				"element": "C" 
			},
			{
				"x": -1.4198581911,
				"y": -0.6630388327,
				"z": 1.1839942686,
				"element": "C" 
			},
			{
				"x": -0.0618029506,
				"y": -0.460584025,
				"z": 1.8690732986,
				"element": "C" 
			},
			{
				"x": 1.3014288521,
				"y": 0.1456931662,
				"z": 0.7938642123,
				"element": "S" 
			},
			{
				"x": 0.788864095,
				"y": 1.8815422275,
				"z": 0.5476644222,
				"element": "C" 
			},
			{
				"x": -1.1594013559,
				"y": -2.7337861435,
				"z": 0.5583932341,
				"element": "H" 
			},
			{
				"x": -2.4170546732,
				"y": -1.8658251726,
				"z": -0.3335707493,
				"element": "H" 
			},
			{
				"x": -0.7068472034,
				"y": -1.547951353,
				"z": -0.6734917973,
				"element": "H" 
			},
			{
				"x": -2.151807547,
				"y": -0.9030956459,
				"z": 1.9677235795,
				"element": "H" 
			},
			{
				"x": -1.7540420256,
				"y": 0.2842041117,
				"z": 0.7425757824,
				"element": "H" 
			},
			{
				"x": 0.3075227009,
				"y": -1.4127957575,
				"z": 2.2657047737,
				"element": "H" 
			},
			{
				"x": -0.1528245407,
				"y": 0.2264897156,
				"z": 2.7176765538,
				"element": "H" 
			},
			{
				"x": 1.5719722137,
				"y": 2.3582297238,
				"z": -0.0461092327,
				"element": "H" 
			},
			{
				"x": -0.1547699447,
				"y": 1.9560998229,
				"z": 0.0017429706,
				"element": "H" 
			},
			{
				"x": 0.7047202804,
				"y": 2.405861288,
				"z": 1.5039295602,
				"element": "H" 
			}
		],
		 "valence_orbital": [ 
			{
				"type": "occ",
				"energy": -0.35594,
				"method": "rhf"
			},
			{
				"type": "occ",
				"energy": -0.34887,
				"method": "rhf"
			},
			{
				"type": "occ",
				"energy": -0.33213,
				"method": "rhf"
			},
			{
				"type": "occ",
				"energy": -0.29712,
				"method": "rhf"
			},
			{
				"type": "occ",
				"energy": -0.216,
				"method": "rhf"
			},
			{
				"type": "unocc",
				"energy": 0.04801,
				"method": "rhf"
			},
			{
				"type": "unocc",
				"energy": 0.07869,
				"method": "rhf"
			},
			{
				"type": "unocc",
				"energy": 0.09052,
				"method": "rhf"
			},
			{
				"type": "unocc",
				"energy": 0.12267,
				"method": "rhf"
			},
			{
				"type": "unocc",
				"energy": 0.12638,
				"method": "rhf"
			}
		],
		"cosmo_sigma_profile": { 
			"-0.025": 0.0,
			"-0.024": 0.0,
			"-0.023": 0.0,
			"-0.022": 0.0,
			"-0.021": 0.0,
			"-0.02": 0.0,
			"-0.019": 0.0,
			"-0.018": 0.0,
			"-0.017": 0.0,
			"-0.016": 0.0,
			"-0.015": 0.0,
			"-0.014": 0.0,
			"-0.013": 0.0,
			"-0.012": 0.0,
			"-0.011": 0.0,
			"-0.01": 0.0,
			"-0.009": 0.0,
			"-0.008": 0.0,
			"-0.007": 0.0,
			"-0.006": 0.900928847056,
			"-0.005": 6.60426862385,
			"-0.004": 12.5489971089,
			"-0.003": 17.5770533049,
			"-0.002": 20.3838981451,
			"-0.001": 23.1289321515,
			"0.0": 16.5824223406,
			"0.001": 13.1216141693,
			"0.002": 8.40786083301,
			"0.003": 3.66600453835,
			"0.004": 2.89993541354,
			"0.005": 3.52448326986,
			"0.006": 3.52583547634,
			"0.007": 3.63181087388,
			"0.008": 2.73327915992,
			"0.009": 2.90444112826,
			"0.01": 1.79130997573,
			"0.011": 1.37506263866,
			"0.012": 0.561317711172,
			"0.013": 0.0,
			"0.014": 0.0,
			"0.015": 0.0,
			"0.016": 0.0,
			"0.017": 0.0,
			"0.018": 0.0,
			"0.019": 0.0,
			"0.02": 0.0,
			"0.021": 0.0,
			"0.022": 0.0,
			"0.023": 0.0,
			"0.024": 0.0,
			"0.025": 0.0
		}
	}
}
