{
	 "smiles": "CC(C)(C)OC(=O)N1C=CC(N)=N1", 
	 "Tm": 403.15, 
	 "num_atms": 26, 
	 "gaussian": { 
		 "optdone": 1, 
		 "sigma_profile": "yes", 
		 "theory": "DFT", 
		 "functional": "B3LYP", 
		 "basiset": "6-31G**", 
		 "properties": { 
			 "R2extent": 3446.7203, 
			 "electric_dipole_moment_norm": 3.40246273308, 
			 "electric_quadrupole_moment_norm": 14.667151102, 
			 "total_energy": -627.392825551, 
			 "HOMO_LUMO_gap": 0.1975, 
			 "cosmo_polarized_energy": -15.76, 
			 "cosmo_cavitation_energy": 29.46, 
			 "cosmo_dispersion_energy": -20.99, 
			 "cosmo_repulsion_energy": 1.68, 
			 "cosmo_total_nonelectrostatic_energy": 10.15, 
			 "SMD_solvation_energy": 5.87 
		},
		"coords": [
			{
				"x": 1.4534365632,
				"y": 1.0803112942,
				"z": 3.1365842362,
				"element": "C" 
			},
			{
				"x": 1.6743918363,
				"y": -0.3448950924,
				"z": 2.6211165306,
				"element": "C" 
			},
			{
				"x": 3.1186542733,
				"y": -0.5402879672,
				"z": 2.1546470215,
				"element": "C" 
			},
			{
				"x": 1.2834028703,
				"y": -1.4079405333,
				"z": 3.652123134,
				"element": "C" 
			},
			{
				"x": 0.9074696059,
				"y": -0.5506751721,
				"z": 1.3745365524,
				"element": "O" 
			},
			{
				"x": -0.4351592165,
				"y": -0.4560697304,
				"z": 1.3726186587,
				"element": "C" 
			},
			{
				"x": -1.1610178659,
				"y": -0.2152731766,
				"z": 2.3070173995,
				"element": "O" 
			},
			{
				"x": -0.9011811277,
				"y": -0.6894340341,
				"z": 0.0642812913,
				"element": "N" 
			},
			{
				"x": -0.1671693367,
				"y": -0.9701292451,
				"z": -1.0660359485,
				"element": "C" 
			},
			{
				"x": -1.0577072683,
				"y": -1.1136288294,
				"z": -2.0928060302,
				"element": "C" 
			},
			{
				"x": -2.3415286506,
				"y": -0.9030913993,
				"z": -1.48968512,
				"element": "C" 
			},
			{
				"x": -3.5680074886,
				"y": -0.8760467627,
				"z": -2.1396685087,
				"element": "N" 
			},
			{
				"x": -2.2506463661,
				"y": -0.6576976188,
				"z": -0.1930637466,
				"element": "N" 
			},
			{
				"x": 2.1122031115,
				"y": 1.2641093698,
				"z": 3.9913280781,
				"element": "H" 
			},
			{
				"x": 0.4204040261,
				"y": 1.2298701777,
				"z": 3.4512892687,
				"element": "H" 
			},
			{
				"x": 1.6969912904,
				"y": 1.8093176303,
				"z": 2.3574197977,
				"element": "H" 
			},
			{
				"x": 3.2604837623,
				"y": -1.5438765976,
				"z": 1.7431409663,
				"element": "H" 
			},
			{
				"x": 3.8035934915,
				"y": -0.4124883521,
				"z": 2.9978428746,
				"element": "H" 
			},
			{
				"x": 3.3790600153,
				"y": 0.1909405609,
				"z": 1.3838763493,
				"element": "H" 
			},
			{
				"x": 1.9357966809,
				"y": -1.3232929096,
				"z": 4.5270885553,
				"element": "H" 
			},
			{
				"x": 1.4082546929,
				"y": -2.4106763193,
				"z": 3.2315538225,
				"element": "H" 
			},
			{
				"x": 0.2487475367,
				"y": -1.2843037145,
				"z": 3.972664233,
				"element": "H" 
			},
			{
				"x": 0.9079014411,
				"y": -1.0343017588,
				"z": -1.0299435076,
				"element": "H" 
			},
			{
				"x": -0.8369571282,
				"y": -1.3220395543,
				"z": -3.129345861,
				"element": "H" 
			},
			{
				"x": -3.6657370369,
				"y": -1.5641275502,
				"z": -2.8742652823,
				"element": "H" 
			},
			{
				"x": -4.3471797122,
				"y": -0.9003727152,
				"z": -1.4933147651,
				"element": "H" 
			}
		],
		 "valence_orbital": [ 
			{
				"type": "occ",
				"energy": -0.30017,
				"method": "rhf"
			},
			{
				"type": "occ",
				"energy": -0.2874,
				"method": "rhf"
			},
			{
				"type": "occ",
				"energy": -0.27381,
				"method": "rhf"
			},
			{
				"type": "occ",
				"energy": -0.25039,
				"method": "rhf"
			},
			{
				"type": "occ",
				"energy": -0.2134,
				"method": "rhf"
			},
			{
				"type": "unocc",
				"energy": -0.0159,
				"method": "rhf"
			},
			{
				"type": "unocc",
				"energy": 0.07381,
				"method": "rhf"
			},
			{
				"type": "unocc",
				"energy": 0.07804,
				"method": "rhf"
			},
			{
				"type": "unocc",
				"energy": 0.0802,
				"method": "rhf"
			},
			{
				"type": "unocc",
				"energy": 0.09275,
				"method": "rhf"
			}
		],
		"cosmo_sigma_profile": { 
			"-0.025": 0.0,
			"-0.024": 0.0,
			"-0.023": 0.0,
			"-0.022": 0.0,
			"-0.021": 0.0,
			"-0.02": 0.0,
			"-0.019": 0.0,
			"-0.018": 0.0,
			"-0.017": 0.0,
			"-0.016": 0.0,
			"-0.015": 0.0,
			"-0.014": 0.0141244552909,
			"-0.013": 1.46314026133,
			"-0.012": 2.45330548601,
			"-0.011": 2.57888895164,
			"-0.01": 2.89338922796,
			"-0.009": 3.52181630898,
			"-0.008": 3.65789044892,
			"-0.007": 5.17528205776,
			"-0.006": 4.69230955739,
			"-0.005": 7.1884446246,
			"-0.004": 18.7013023854,
			"-0.003": 19.9884017045,
			"-0.002": 22.3579980245,
			"-0.001": 24.8298054782,
			"0.0": 29.7503594662,
			"0.001": 17.1453176349,
			"0.002": 9.84707334273,
			"0.003": 10.2253941269,
			"0.004": 7.62634926929,
			"0.005": 4.6306555219,
			"0.006": 3.55428190105,
			"0.007": 3.57213709446,
			"0.008": 3.11723556827,
			"0.009": 2.53070578479,
			"0.01": 2.93131248549,
			"0.011": 4.20268628103,
			"0.012": 4.19600341841,
			"0.013": 2.41159505524,
			"0.014": 1.93268973173,
			"0.015": 1.57136917667,
			"0.016": 1.47839076827,
			"0.017": 1.19267010609,
			"0.018": 0.287161045087,
			"0.019": 0.0,
			"0.02": 0.0,
			"0.021": 0.0,
			"0.022": 0.0,
			"0.023": 0.0,
			"0.024": 0.0,
			"0.025": 0.0
		}
	}
}
