{
	 "smiles": "CCCCCCCCCCCCCCCCCC(=O)OCCOC(=O)CCCCCCCCCCCCCCCCC", 
	 "Tm": 352.15, 
	 "num_atms": 116, 
	 "gaussian": { 
		 "optdone": 1, 
		 "sigma_profile": "yes", 
		 "theory": "DFT", 
		 "functional": "B3LYP", 
		 "basiset": "6-31G**", 
		 "properties": { 
			 "R2extent": 52466.7064, 
			 "electric_dipole_moment_norm": 3.26080851017, 
			 "electric_quadrupole_moment_norm": 31.04670439, 
			 "total_energy": -1793.66473072, 
			 "HOMO_LUMO_gap": 0.26858, 
			 "cosmo_polarized_energy": -12.58, 
			 "cosmo_cavitation_energy": 110.97, 
			 "cosmo_dispersion_energy": -65.65, 
			 "cosmo_repulsion_energy": 5.15, 
			 "cosmo_total_nonelectrostatic_energy": 50.47, 
			 "SMD_solvation_energy": 15.35 
		},
		"coords": [
			{
				"x": 2.6075279518,
				"y": 2.5517893497,
				"z": -5.5846264909,
				"element": "C" 
			},
			{
				"x": 3.9296579874,
				"y": 3.0347320779,
				"z": -4.9784722861,
				"element": "C" 
			},
			{
				"x": 4.4147055407,
				"y": 2.1602601292,
				"z": -3.812891457,
				"element": "C" 
			},
			{
				"x": 5.829766451,
				"y": 2.4939635999,
				"z": -3.3068402006,
				"element": "C" 
			},
			{
				"x": 6.0191031435,
				"y": 3.890082241,
				"z": -2.687562158,
				"element": "C" 
			},
			{
				"x": 5.2974095317,
				"y": 4.1055846675,
				"z": -1.3492934937,
				"element": "C" 
			},
			{
				"x": 5.5628122378,
				"y": 5.4954294727,
				"z": -0.7512572749,
				"element": "C" 
			},
			{
				"x": 5.0084727577,
				"y": 5.714080922,
				"z": 0.665937245,
				"element": "C" 
			},
			{
				"x": 3.4778060463,
				"y": 5.6639110463,
				"z": 0.7811424735,
				"element": "C" 
			},
			{
				"x": 2.9832293289,
				"y": 5.992107004,
				"z": 2.1973874595,
				"element": "C" 
			},
			{
				"x": 1.4587309451,
				"y": 6.0938208644,
				"z": 2.3891010334,
				"element": "C" 
			},
			{
				"x": 0.6558618161,
				"y": 4.7867626319,
				"z": 2.2098288215,
				"element": "C" 
			},
			{
				"x": 0.1664874708,
				"y": 4.5015324842,
				"z": 0.7817837252,
				"element": "C" 
			},
			{
				"x": -0.6409847836,
				"y": 3.2020671623,
				"z": 0.6685565069,
				"element": "C" 
			},
			{
				"x": -1.1106150089,
				"y": 2.9044785587,
				"z": -0.7607445489,
				"element": "C" 
			},
			{
				"x": -1.9225304487,
				"y": 1.6076695654,
				"z": -0.8699801585,
				"element": "C" 
			},
			{
				"x": -2.3711723577,
				"y": 1.2652558806,
				"z": -2.309826921,
				"element": "C" 
			},
			{
				"x": -1.1920788554,
				"y": 0.9637452914,
				"z": -3.2075010106,
				"element": "C" 
			},
			{
				"x": -0.6035644001,
				"y": 1.7763089237,
				"z": -3.8912258999,
				"element": "O" 
			},
			{
				"x": -0.8303100817,
				"y": -0.3423743511,
				"z": -3.1218786863,
				"element": "O" 
			},
			{
				"x": 0.3284693585,
				"y": -0.7384225201,
				"z": -3.8837051068,
				"element": "C" 
			},
			{
				"x": -0.0095473079,
				"y": -1.0470343536,
				"z": -5.3271880142,
				"element": "C" 
			},
			{
				"x": -0.8633098595,
				"y": -2.206281164,
				"z": -5.3478108204,
				"element": "O" 
			},
			{
				"x": -1.2162960337,
				"y": -2.6539001119,
				"z": -6.5787115924,
				"element": "C" 
			},
			{
				"x": -0.8401597453,
				"y": -2.1278736182,
				"z": -7.6037216746,
				"element": "O" 
			},
			{
				"x": -2.1446851613,
				"y": -3.8497678632,
				"z": -6.5005921279,
				"element": "C" 
			},
			{
				"x": -1.7380731291,
				"y": -4.9634686276,
				"z": -5.4973649658,
				"element": "C" 
			},
			{
				"x": -2.7294588656,
				"y": -5.1789098951,
				"z": -4.3418491858,
				"element": "C" 
			},
			{
				"x": -2.8258078361,
				"y": -4.0149146311,
				"z": -3.3463896817,
				"element": "C" 
			},
			{
				"x": -3.8051593691,
				"y": -4.2961935855,
				"z": -2.1984494031,
				"element": "C" 
			},
			{
				"x": -4.0294475933,
				"y": -3.112657858,
				"z": -1.2409006993,
				"element": "C" 
			},
			{
				"x": -2.7766021432,
				"y": -2.5876408082,
				"z": -0.5142702146,
				"element": "C" 
			},
			{
				"x": -2.0268800251,
				"y": -3.617462483,
				"z": 0.3515059269,
				"element": "C" 
			},
			{
				"x": -2.834821773,
				"y": -4.2579378495,
				"z": 1.4952082244,
				"element": "C" 
			},
			{
				"x": -3.3094774986,
				"y": -3.2681243214,
				"z": 2.5699577204,
				"element": "C" 
			},
			{
				"x": -4.0993919425,
				"y": -3.9048454943,
				"z": 3.7270765454,
				"element": "C" 
			},
			{
				"x": -3.282256557,
				"y": -4.8565356969,
				"z": 4.6170702329,
				"element": "C" 
			},
			{
				"x": -4.0521114763,
				"y": -5.4269744769,
				"z": 5.8307632529,
				"element": "C" 
			},
			{
				"x": -3.9012667765,
				"y": -4.6490660496,
				"z": 7.1507663474,
				"element": "C" 
			},
			{
				"x": -4.4470654899,
				"y": -3.2148361678,
				"z": 7.1601677834,
				"element": "C" 
			},
			{
				"x": -4.3617682468,
				"y": -2.548283446,
				"z": 8.5400629098,
				"element": "C" 
			},
			{
				"x": -4.8961253743,
				"y": -1.1125912976,
				"z": 8.5534928151,
				"element": "C" 
			},
			{
				"x": 2.7110691407,
				"y": 1.5372358275,
				"z": -5.9893259089,
				"element": "H" 
			},
			{
				"x": 2.2856186085,
				"y": 3.1990515201,
				"z": -6.4072325885,
				"element": "H" 
			},
			{
				"x": 1.7990053303,
				"y": 2.5336317411,
				"z": -4.8459447954,
				"element": "H" 
			},
			{
				"x": 4.7038090766,
				"y": 3.0520071433,
				"z": -5.7585531373,
				"element": "H" 
			},
			{
				"x": 3.8154265704,
				"y": 4.0732695512,
				"z": -4.6428888875,
				"element": "H" 
			},
			{
				"x": 3.6914600544,
				"y": 2.2214598322,
				"z": -2.9880327939,
				"element": "H" 
			},
			{
				"x": 4.4084469479,
				"y": 1.1100140016,
				"z": -4.1375517502,
				"element": "H" 
			},
			{
				"x": 6.5293769596,
				"y": 2.3866651353,
				"z": -4.1472200942,
				"element": "H" 
			},
			{
				"x": 6.130116039,
				"y": 1.738695756,
				"z": -2.5672370946,
				"element": "H" 
			},
			{
				"x": 7.0941259555,
				"y": 4.0552258609,
				"z": -2.5323043796,
				"element": "H" 
			},
			{
				"x": 5.7013756804,
				"y": 4.66190356,
				"z": -3.4013077659,
				"element": "H" 
			},
			{
				"x": 4.2182255481,
				"y": 3.9577490644,
				"z": -1.4798685088,
				"element": "H" 
			},
			{
				"x": 5.6270659737,
				"y": 3.3353833682,
				"z": -0.6360629536,
				"element": "H" 
			},
			{
				"x": 6.6481415443,
				"y": 5.6652784487,
				"z": -0.7294733119,
				"element": "H" 
			},
			{
				"x": 5.1521839046,
				"y": 6.2624131187,
				"z": -1.4236815581,
				"element": "H" 
			},
			{
				"x": 5.3563195951,
				"y": 6.6904836194,
				"z": 1.0305216824,
				"element": "H" 
			},
			{
				"x": 5.445826791,
				"y": 4.9668312409,
				"z": 1.3440475596,
				"element": "H" 
			},
			{
				"x": 3.1224911147,
				"y": 4.6703623197,
				"z": 0.4848183193,
				"element": "H" 
			},
			{
				"x": 3.0368649654,
				"y": 6.3745774235,
				"z": 0.0667344594,
				"element": "H" 
			},
			{
				"x": 3.3787486119,
				"y": 5.2418905385,
				"z": 2.8975709406,
				"element": "H" 
			},
			{
				"x": 3.4282022871,
				"y": 6.9490806071,
				"z": 2.5043593393,
				"element": "H" 
			},
			{
				"x": 1.2852502482,
				"y": 6.4689930132,
				"z": 3.4056033197,
				"element": "H" 
			},
			{
				"x": 1.055464628,
				"y": 6.8640715124,
				"z": 1.7161788308,
				"element": "H" 
			},
			{
				"x": 1.257161578,
				"y": 3.9387185078,
				"z": 2.5685614972,
				"element": "H" 
			},
			{
				"x": -0.2251627214,
				"y": 4.8217792414,
				"z": 2.864840895,
				"element": "H" 
			},
			{
				"x": 1.0152657706,
				"y": 4.4560229439,
				"z": 0.0891290471,
				"element": "H" 
			},
			{
				"x": -0.4533154196,
				"y": 5.3436461539,
				"z": 0.442324149,
				"element": "H" 
			},
			{
				"x": -0.0298323288,
				"y": 2.3627418302,
				"z": 1.0308983706,
				"element": "H" 
			},
			{
				"x": -1.5110848049,
				"y": 3.2531146125,
				"z": 1.3391139922,
				"element": "H" 
			},
			{
				"x": -0.2405717548,
				"y": 2.8542069831,
				"z": -1.4272210116,
				"element": "H" 
			},
			{
				"x": -1.7196193281,
				"y": 3.7419710594,
				"z": -1.1288020257,
				"element": "H" 
			},
			{
				"x": -1.3432631832,
				"y": 0.7660253749,
				"z": -0.469559198,
				"element": "H" 
			},
			{
				"x": -2.8223482649,
				"y": 1.6854933264,
				"z": -0.247057011,
				"element": "H" 
			},
			{
				"x": -3.0360796466,
				"y": 0.3971575128,
				"z": -2.2912856569,
				"element": "H" 
			},
			{
				"x": -2.9068493058,
				"y": 2.1126291449,
				"z": -2.7472861521,
				"element": "H" 
			},
			{
				"x": 0.7086404142,
				"y": -1.6286126432,
				"z": -3.3783930093,
				"element": "H" 
			},
			{
				"x": 1.0765401262,
				"y": 0.0575445967,
				"z": -3.8541182135,
				"element": "H" 
			},
			{
				"x": -0.5119328744,
				"y": -0.2039074156,
				"z": -5.8072438779,
				"element": "H" 
			},
			{
				"x": 0.9071775415,
				"y": -1.2548071101,
				"z": -5.8896607442,
				"element": "H" 
			},
			{
				"x": -3.1373613837,
				"y": -3.4576751869,
				"z": -6.2415762315,
				"element": "H" 
			},
			{
				"x": -2.2200895283,
				"y": -4.2344021706,
				"z": -7.5196587755,
				"element": "H" 
			},
			{
				"x": -0.747558619,
				"y": -4.7460439321,
				"z": -5.0833072586,
				"element": "H" 
			},
			{
				"x": -1.6379482617,
				"y": -5.9035735623,
				"z": -6.0508111596,
				"element": "H" 
			},
			{
				"x": -3.7259782718,
				"y": -5.3879666153,
				"z": -4.7577941218,
				"element": "H" 
			},
			{
				"x": -2.4353836006,
				"y": -6.087081772,
				"z": -3.7982229774,
				"element": "H" 
			},
			{
				"x": -3.1289114439,
				"y": -3.096867674,
				"z": -3.8670188768,
				"element": "H" 
			},
			{
				"x": -1.8257074785,
				"y": -3.8065103962,
				"z": -2.9468207568,
				"element": "H" 
			},
			{
				"x": -3.4576981351,
				"y": -5.1725407252,
				"z": -1.6343074354,
				"element": "H" 
			},
			{
				"x": -4.7772788915,
				"y": -4.5843048443,
				"z": -2.6221828679,
				"element": "H" 
			},
			{
				"x": -4.4701856302,
				"y": -2.2811411739,
				"z": -1.8086561445,
				"element": "H" 
			},
			{
				"x": -4.7880666907,
				"y": -3.4005942777,
				"z": -0.5015310105,
				"element": "H" 
			},
			{
				"x": -2.0752530753,
				"y": -2.1769948621,
				"z": -1.2510251137,
				"element": "H" 
			},
			{
				"x": -3.0754685741,
				"y": -1.7362534543,
				"z": 0.1109936286,
				"element": "H" 
			},
			{
				"x": -1.639923849,
				"y": -4.417635991,
				"z": -0.2927700195,
				"element": "H" 
			},
			{
				"x": -1.1408597407,
				"y": -3.1278611606,
				"z": 0.7790458524,
				"element": "H" 
			},
			{
				"x": -3.7061256061,
				"y": -4.7885996677,
				"z": 1.0869038953,
				"element": "H" 
			},
			{
				"x": -2.2079233482,
				"y": -5.028819236,
				"z": 1.9600312071,
				"element": "H" 
			},
			{
				"x": -3.9413280006,
				"y": -2.5020672966,
				"z": 2.1031000415,
				"element": "H" 
			},
			{
				"x": -2.4386603358,
				"y": -2.7334262727,
				"z": 2.9775361726,
				"element": "H" 
			},
			{
				"x": -4.523439494,
				"y": -3.1029077196,
				"z": 4.3422491737,
				"element": "H" 
			},
			{
				"x": -4.959613232,
				"y": -4.4543704228,
				"z": 3.3177661494,
				"element": "H" 
			},
			{
				"x": -2.3766207432,
				"y": -4.3405793112,
				"z": 4.968526131,
				"element": "H" 
			},
			{
				"x": -2.9272746096,
				"y": -5.692270604,
				"z": 4.0026604143,
				"element": "H" 
			},
			{
				"x": -5.1183842054,
				"y": -5.5127069979,
				"z": 5.5771956078,
				"element": "H" 
			},
			{
				"x": -3.7093132794,
				"y": -6.4525193155,
				"z": 6.0165145349,
				"element": "H" 
			},
			{
				"x": -4.4054391721,
				"y": -5.2187759311,
				"z": 7.9440156425,
				"element": "H" 
			},
			{
				"x": -2.8374871513,
				"y": -4.6271035842,
				"z": 7.4286961494,
				"element": "H" 
			},
			{
				"x": -5.4944479302,
				"y": -3.2189768113,
				"z": 6.824873649,
				"element": "H" 
			},
			{
				"x": -3.8971543601,
				"y": -2.5994911805,
				"z": 6.4358803881,
				"element": "H" 
			},
			{
				"x": -3.3168552575,
				"y": -2.5532653797,
				"z": 8.8796170469,
				"element": "H" 
			},
			{
				"x": -4.9186770179,
				"y": -3.153584558,
				"z": 9.2683896626,
				"element": "H" 
			},
			{
				"x": -4.8230921939,
				"y": -0.6663093181,
				"z": 9.5507775028,
				"element": "H" 
			},
			{
				"x": -5.9490565667,
				"y": -1.0788365961,
				"z": 8.2507345316,
				"element": "H" 
			},
			{
				"x": -4.3345481226,
				"y": -0.4739255238,
				"z": 7.8619304437,
				"element": "H" 
			}
		],
		 "valence_orbital": [ 
			{
				"type": "occ",
				"energy": -0.2956,
				"method": "rhf"
			},
			{
				"type": "occ",
				"energy": -0.29266,
				"method": "rhf"
			},
			{
				"type": "occ",
				"energy": -0.29122,
				"method": "rhf"
			},
			{
				"type": "occ",
				"energy": -0.27248,
				"method": "rhf"
			},
			{
				"type": "occ",
				"energy": -0.26557,
				"method": "rhf"
			},
			{
				"type": "unocc",
				"energy": 0.00301,
				"method": "rhf"
			},
			{
				"type": "unocc",
				"energy": 0.01275,
				"method": "rhf"
			},
			{
				"type": "unocc",
				"energy": 0.06427,
				"method": "rhf"
			},
			{
				"type": "unocc",
				"energy": 0.07411,
				"method": "rhf"
			},
			{
				"type": "unocc",
				"energy": 0.08417,
				"method": "rhf"
			}
		],
		"cosmo_sigma_profile": { 
			"-0.025": 0.0,
			"-0.024": 0.0,
			"-0.023": 0.0,
			"-0.022": 0.0,
			"-0.021": 0.0,
			"-0.02": 0.0,
			"-0.019": 0.0,
			"-0.018": 0.0,
			"-0.017": 0.0,
			"-0.016": 0.0,
			"-0.015": 0.0,
			"-0.014": 0.0,
			"-0.013": 0.0,
			"-0.012": 0.0,
			"-0.011": 0.0,
			"-0.01": 0.0,
			"-0.009": 0.0,
			"-0.008": 0.0,
			"-0.007": 1.99425491039,
			"-0.006": 7.29015823761,
			"-0.005": 11.9203345319,
			"-0.004": 18.8724214941,
			"-0.003": 36.5700284793,
			"-0.002": 101.588393431,
			"-0.001": 192.202489063,
			"0.0": 196.607928509,
			"0.001": 150.355556305,
			"0.002": 70.4630963111,
			"0.003": 10.889670209,
			"0.004": 10.3466015882,
			"0.005": 6.98869454376,
			"0.006": 6.07753455435,
			"0.007": 4.60297585222,
			"0.008": 3.4729462966,
			"0.009": 3.34762097797,
			"0.01": 2.58286446624,
			"0.011": 4.09018847933,
			"0.012": 6.21110586421,
			"0.013": 2.49626263763,
			"0.014": 0.0609351871385,
			"0.015": 0.0,
			"0.016": 0.0,
			"0.017": 0.0,
			"0.018": 0.0,
			"0.019": 0.0,
			"0.02": 0.0,
			"0.021": 0.0,
			"0.022": 0.0,
			"0.023": 0.0,
			"0.024": 0.0,
			"0.025": 0.0
		}
	}
}
