{
	 "smiles": "OC(=O)CCN1C=NC=N1", 
	 "Tm": 451.15, 
	 "num_atms": 17, 
	 "gaussian": { 
		 "optdone": 1, 
		 "sigma_profile": "yes", 
		 "theory": "DFT", 
		 "functional": "B3LYP", 
		 "basiset": "6-31G**", 
		 "properties": { 
			 "R2extent": 2048.7407, 
			 "electric_dipole_moment_norm": 4.85065248498, 
			 "electric_quadrupole_moment_norm": 17.3352708765, 
			 "total_energy": -509.449269814, 
			 "HOMO_LUMO_gap": 0.23276, 
			 "cosmo_polarized_energy": -18.59, 
			 "cosmo_cavitation_energy": 21.21, 
			 "cosmo_dispersion_energy": -15.82, 
			 "cosmo_repulsion_energy": 1.28, 
			 "cosmo_total_nonelectrostatic_energy": 6.67, 
			 "SMD_solvation_energy": 3.34 
		},
		"coords": [
			{
				"x": -0.3697657664,
				"y": 0.055377259,
				"z": 1.9087446606,
				"element": "O" 
			},
			{
				"x": -1.3196759387,
				"y": -0.6514451089,
				"z": 1.2842680909,
				"element": "C" 
			},
			{
				"x": -2.4918696333,
				"y": -0.516195969,
				"z": 1.5513753864,
				"element": "O" 
			},
			{
				"x": -0.8669546748,
				"y": -1.6611081248,
				"z": 0.215098207,
				"element": "C" 
			},
			{
				"x": 0.1157407184,
				"y": -1.1429146121,
				"z": -0.8528152209,
				"element": "C" 
			},
			{
				"x": 1.5203733288,
				"y": -1.2611230325,
				"z": -0.4646272258,
				"element": "N" 
			},
			{
				"x": 2.563511099,
				"y": -1.8087966691,
				"z": -1.1238826849,
				"element": "C" 
			},
			{
				"x": 3.6793934899,
				"y": -1.6867939887,
				"z": -0.4203867557,
				"element": "N" 
			},
			{
				"x": 3.2606672338,
				"y": -1.039562385,
				"z": 0.6952059113,
				"element": "C" 
			},
			{
				"x": 1.9633740361,
				"y": -0.7575509895,
				"z": 0.7150619292,
				"element": "N" 
			},
			{
				"x": 0.5408908132,
				"y": -0.1940654612,
				"z": 1.6105041499,
				"element": "H" 
			},
			{
				"x": -0.4331433876,
				"y": -2.538695669,
				"z": 0.7095093713,
				"element": "H" 
			},
			{
				"x": -1.7831085356,
				"y": -1.987681817,
				"z": -0.2802394416,
				"element": "H" 
			},
			{
				"x": -0.092181685,
				"y": -0.0969186973,
				"z": -1.1021614585,
				"element": "H" 
			},
			{
				"x": 0.0072102376,
				"y": -1.7279699936,
				"z": -1.769219827,
				"element": "H" 
			},
			{
				"x": 2.4645297986,
				"y": -2.2765674887,
				"z": -2.0937655912,
				"element": "H" 
			},
			{
				"x": 3.9137088659,
				"y": -0.7683872524,
				"z": 1.5128304991,
				"element": "H" 
			}
		],
		 "valence_orbital": [ 
			{
				"type": "occ",
				"energy": -0.3171,
				"method": "rhf"
			},
			{
				"type": "occ",
				"energy": -0.30413,
				"method": "rhf"
			},
			{
				"type": "occ",
				"energy": -0.30112,
				"method": "rhf"
			},
			{
				"type": "occ",
				"energy": -0.29452,
				"method": "rhf"
			},
			{
				"type": "occ",
				"energy": -0.25839,
				"method": "rhf"
			},
			{
				"type": "unocc",
				"energy": -0.02563,
				"method": "rhf"
			},
			{
				"type": "unocc",
				"energy": 0.0163,
				"method": "rhf"
			},
			{
				"type": "unocc",
				"energy": 0.02513,
				"method": "rhf"
			},
			{
				"type": "unocc",
				"energy": 0.06533,
				"method": "rhf"
			},
			{
				"type": "unocc",
				"energy": 0.0983,
				"method": "rhf"
			}
		],
		"cosmo_sigma_profile": { 
			"-0.025": 0.0,
			"-0.024": 0.0,
			"-0.023": 0.0,
			"-0.022": 0.0,
			"-0.021": 0.0,
			"-0.02": 0.0,
			"-0.019": 0.0,
			"-0.018": 0.0,
			"-0.017": 0.0,
			"-0.016": 0.0,
			"-0.015": 0.0,
			"-0.014": 0.0,
			"-0.013": 0.0,
			"-0.012": 0.300282688099,
			"-0.011": 3.30296367231,
			"-0.01": 3.17117602652,
			"-0.009": 6.20612034256,
			"-0.008": 9.37711805431,
			"-0.007": 14.0075147117,
			"-0.006": 13.4454772496,
			"-0.005": 11.1254254363,
			"-0.004": 8.34256857113,
			"-0.003": 8.71618440456,
			"-0.002": 6.97802597789,
			"-0.001": 7.66799929383,
			"0.0": 8.81263266681,
			"0.001": 7.08132180293,
			"0.002": 5.96393628156,
			"0.003": 5.0719223498,
			"0.004": 3.9726198518,
			"0.005": 3.59917068252,
			"0.006": 3.36505859513,
			"0.007": 3.23967738427,
			"0.008": 3.49187960569,
			"0.009": 3.95307556081,
			"0.01": 5.18939794503,
			"0.011": 4.62655904973,
			"0.012": 8.51969064361,
			"0.013": 5.6475521741,
			"0.014": 2.56141270283,
			"0.015": 1.04703590603,
			"0.016": 0.658496783548,
			"0.017": 0.0,
			"0.018": 0.0,
			"0.019": 0.0,
			"0.02": 0.0,
			"0.021": 0.0,
			"0.022": 0.0,
			"0.023": 0.0,
			"0.024": 0.0,
			"0.025": 0.0
		}
	}
}
