{
	 "smiles": "CNC(C)(C)C(O)=O", 
	 "Tm": 573.15, 
	 "num_atms": 19, 
	 "gaussian": { 
		 "optdone": 1, 
		 "sigma_profile": "yes", 
		 "theory": "DFT", 
		 "functional": "B3LYP", 
		 "basiset": "6-31G**", 
		 "properties": { 
			 "R2extent": 1707.5925, 
			 "electric_dipole_moment_norm": 5.12020550955, 
			 "electric_quadrupole_moment_norm": 12.6230825867, 
			 "total_energy": -402.375690911, 
			 "HOMO_LUMO_gap": 0.26475, 
			 "cosmo_polarized_energy": -12.11, 
			 "cosmo_cavitation_energy": 21.06, 
			 "cosmo_dispersion_energy": -15.19, 
			 "cosmo_repulsion_energy": 1.26, 
			 "cosmo_total_nonelectrostatic_energy": 7.13, 
			 "SMD_solvation_energy": 4.61 
		},
		"coords": [
			{
				"x": 2.3494201127,
				"y": -1.1614118713,
				"z": -1.9858192564,
				"element": "C" 
			},
			{
				"x": 0.9836777185,
				"y": -1.6947842181,
				"z": -1.9365771784,
				"element": "N" 
			},
			{
				"x": -0.0404531327,
				"y": -0.8737030352,
				"z": -1.2475301825,
				"element": "C" 
			},
			{
				"x": 0.4226201908,
				"y": -0.1806083166,
				"z": 0.0418461637,
				"element": "C" 
			},
			{
				"x": -1.2444497948,
				"y": -1.7915069341,
				"z": -0.9531850572,
				"element": "C" 
			},
			{
				"x": -0.5368401886,
				"y": 0.1900878699,
				"z": -2.2674022329,
				"element": "C" 
			},
			{
				"x": -0.3313598882,
				"y": -0.165098636,
				"z": -3.5464047034,
				"element": "O" 
			},
			{
				"x": -1.0996112288,
				"y": 1.2107296093,
				"z": -1.9464951192,
				"element": "O" 
			},
			{
				"x": 2.9679769036,
				"y": -1.8379342922,
				"z": -2.5823847993,
				"element": "H" 
			},
			{
				"x": 2.343425699,
				"y": -0.189113941,
				"z": -2.4883231793,
				"element": "H" 
			},
			{
				"x": 2.8242212287,
				"y": -1.0352805371,
				"z": -1.0032535622,
				"element": "H" 
			},
			{
				"x": 0.9913455433,
				"y": -2.6324859022,
				"z": -1.5461954189,
				"element": "H" 
			},
			{
				"x": 1.2643131172,
				"y": 0.493796357,
				"z": -0.1349346305,
				"element": "H" 
			},
			{
				"x": 0.7210908536,
				"y": -0.9221253826,
				"z": 0.7907845767,
				"element": "H" 
			},
			{
				"x": -0.3939839668,
				"y": 0.4210563825,
				"z": 0.4445995945,
				"element": "H" 
			},
			{
				"x": -2.0803679381,
				"y": -1.2045937104,
				"z": -0.5663085296,
				"element": "H" 
			},
			{
				"x": -1.5731350523,
				"y": -2.307371973,
				"z": -1.8605962492,
				"element": "H" 
			},
			{
				"x": -0.9746333831,
				"y": -2.542902434,
				"z": -0.201930216,
				"element": "H" 
			},
			{
				"x": 0.1724432059,
				"y": -1.0130490348,
				"z": -3.4789900198,
				"element": "H" 
			}
		],
		 "valence_orbital": [ 
			{
				"type": "occ",
				"energy": -0.35302,
				"method": "rhf"
			},
			{
				"type": "occ",
				"energy": -0.34828,
				"method": "rhf"
			},
			{
				"type": "occ",
				"energy": -0.29871,
				"method": "rhf"
			},
			{
				"type": "occ",
				"energy": -0.27262,
				"method": "rhf"
			},
			{
				"type": "occ",
				"energy": -0.24451,
				"method": "rhf"
			},
			{
				"type": "unocc",
				"energy": 0.02024,
				"method": "rhf"
			},
			{
				"type": "unocc",
				"energy": 0.06138,
				"method": "rhf"
			},
			{
				"type": "unocc",
				"energy": 0.10517,
				"method": "rhf"
			},
			{
				"type": "unocc",
				"energy": 0.12078,
				"method": "rhf"
			},
			{
				"type": "unocc",
				"energy": 0.12449,
				"method": "rhf"
			}
		],
		"cosmo_sigma_profile": { 
			"-0.025": 0.0,
			"-0.024": 0.0,
			"-0.023": 0.0,
			"-0.022": 0.0,
			"-0.021": 0.0,
			"-0.02": 0.0,
			"-0.019": 0.0,
			"-0.018": 0.0,
			"-0.017": 0.0,
			"-0.016": 0.0,
			"-0.015": 0.0,
			"-0.014": 0.0,
			"-0.013": 0.0,
			"-0.012": 0.246556037914,
			"-0.011": 1.21839623819,
			"-0.01": 1.21561834778,
			"-0.009": 1.60719343923,
			"-0.008": 2.89761548253,
			"-0.007": 2.20035820129,
			"-0.006": 3.46812316882,
			"-0.005": 9.37736478545,
			"-0.004": 18.2922416667,
			"-0.003": 21.265060554,
			"-0.002": 21.6240074525,
			"-0.001": 19.9143649061,
			"0.0": 13.2820370582,
			"0.001": 6.26722273474,
			"0.002": 2.84338819434,
			"0.003": 2.76881127068,
			"0.004": 2.76894927907,
			"0.005": 2.45882991866,
			"0.006": 1.6552083711,
			"0.007": 2.94915956226,
			"0.008": 2.76115235003,
			"0.009": 2.67590612308,
			"0.01": 3.77249757969,
			"0.011": 5.68061488182,
			"0.012": 5.44473211735,
			"0.013": 3.82296247289,
			"0.014": 0.90466768053,
			"0.015": 0.0,
			"0.016": 0.0,
			"0.017": 0.0,
			"0.018": 0.0,
			"0.019": 0.0,
			"0.02": 0.0,
			"0.021": 0.0,
			"0.022": 0.0,
			"0.023": 0.0,
			"0.024": 0.0,
			"0.025": 0.0
		}
	}
}
