{
	 "smiles": "FC1=CC(=CC(F)=C1)C#N", 
	 "Tm": 358.65, 
	 "num_atms": 13, 
	 "gaussian": { 
		 "optdone": 1, 
		 "sigma_profile": "yes", 
		 "theory": "DFT", 
		 "functional": "B3LYP", 
		 "basiset": "6-31G**", 
		 "properties": { 
			 "R2extent": 1792.5469, 
			 "electric_dipole_moment_norm": 3.02045326069, 
			 "electric_quadrupole_moment_norm": 12.5912686128, 
			 "total_energy": -522.950162062, 
			 "HOMO_LUMO_gap": 0.20702, 
			 "cosmo_polarized_energy": -7.5, 
			 "cosmo_cavitation_energy": 20.07, 
			 "cosmo_dispersion_energy": -13.91, 
			 "cosmo_repulsion_energy": 1.08, 
			 "cosmo_total_nonelectrostatic_energy": 7.24, 
			 "SMD_solvation_energy": 6.01 
		},
		"coords": [
			{
				"x": -1.340366132,
				"y": -0.8636830722,
				"z": 1.0466326388,
				"element": "F" 
			},
			{
				"x": -0.1515010253,
				"y": -0.4861059236,
				"z": 0.5502429035,
				"element": "C" 
			},
			{
				"x": 0.0728638371,
				"y": 0.8618985982,
				"z": 0.3011819047,
				"element": "C" 
			},
			{
				"x": 1.3215368667,
				"y": 1.239636082,
				"z": -0.2178715692,
				"element": "C" 
			},
			{
				"x": 2.3168234807,
				"y": 0.2843045531,
				"z": -0.4787011183,
				"element": "C" 
			},
			{
				"x": 2.0317191588,
				"y": -1.048064455,
				"z": -0.2085285577,
				"element": "C" 
			},
			{
				"x": 2.9728451359,
				"y": -1.973898935,
				"z": -0.452400083,
				"element": "F" 
			},
			{
				"x": 0.8077234116,
				"y": -1.4635850854,
				"z": 0.3057832347,
				"element": "C" 
			},
			{
				"x": 1.5847823551,
				"y": 2.6245093236,
				"z": -0.4861691351,
				"element": "C" 
			},
			{
				"x": 1.7980957978,
				"y": 3.746637243,
				"z": -0.7035746181,
				"element": "N" 
			},
			{
				"x": -0.700187505,
				"y": 1.5921685786,
				"z": 0.5051904258,
				"element": "H" 
			},
			{
				"x": 3.282421638,
				"y": 0.5670443203,
				"z": -0.8789511916,
				"element": "H" 
			},
			{
				"x": 0.6090429805,
				"y": -2.5088612277,
				"z": 0.5082651653,
				"element": "H" 
			}
		],
		 "valence_orbital": [ 
			{
				"type": "occ",
				"energy": -0.37003,
				"method": "rhf"
			},
			{
				"type": "occ",
				"energy": -0.35005,
				"method": "rhf"
			},
			{
				"type": "occ",
				"energy": -0.34472,
				"method": "rhf"
			},
			{
				"type": "occ",
				"energy": -0.2818,
				"method": "rhf"
			},
			{
				"type": "occ",
				"energy": -0.27634,
				"method": "rhf"
			},
			{
				"type": "unocc",
				"energy": -0.06932,
				"method": "rhf"
			},
			{
				"type": "unocc",
				"energy": -0.02876,
				"method": "rhf"
			},
			{
				"type": "unocc",
				"energy": 0.02383,
				"method": "rhf"
			},
			{
				"type": "unocc",
				"energy": 0.05889,
				"method": "rhf"
			},
			{
				"type": "unocc",
				"energy": 0.0693,
				"method": "rhf"
			}
		],
		"cosmo_sigma_profile": { 
			"-0.025": 0.0,
			"-0.024": 0.0,
			"-0.023": 0.0,
			"-0.022": 0.0,
			"-0.021": 0.0,
			"-0.02": 0.0,
			"-0.019": 0.0,
			"-0.018": 0.0,
			"-0.017": 0.0,
			"-0.016": 0.0,
			"-0.015": 0.0,
			"-0.014": 0.0,
			"-0.013": 0.0,
			"-0.012": 0.0,
			"-0.011": 0.0,
			"-0.01": 1.89358154115,
			"-0.009": 5.58808335206,
			"-0.008": 4.68100198461,
			"-0.007": 5.9711538662,
			"-0.006": 3.72785050667,
			"-0.005": 6.15653492028,
			"-0.004": 5.49784133491,
			"-0.003": 8.36353085847,
			"-0.002": 16.9121981982,
			"-0.001": 26.9821498264,
			"0.0": 14.5889098887,
			"0.001": 5.81556905044,
			"0.002": 6.74254493871,
			"0.003": 20.029610913,
			"0.004": 7.53056904802,
			"0.005": 3.10363408468,
			"0.006": 2.33611447692,
			"0.007": 3.29132955184,
			"0.008": 3.28925570036,
			"0.009": 3.31717362734,
			"0.01": 2.71205995208,
			"0.011": 2.59233384395,
			"0.012": 2.26521305831,
			"0.013": 0.410105989726,
			"0.014": 0.0,
			"0.015": 0.0,
			"0.016": 0.0,
			"0.017": 0.0,
			"0.018": 0.0,
			"0.019": 0.0,
			"0.02": 0.0,
			"0.021": 0.0,
			"0.022": 0.0,
			"0.023": 0.0,
			"0.024": 0.0,
			"0.025": 0.0
		}
	}
}
