{
	 "smiles": "CC1=CC(C(=O)CCl)=C(C)N1C1=CC(=CC=C1)S(=O)(=O)N1CCOCC1", 
	 "Tm": 445.15, 
	 "num_atms": 47, 
	 "gaussian": { 
		 "optdone": 1, 
		 "sigma_profile": "yes", 
		 "theory": "DFT", 
		 "functional": "B3LYP", 
		 "basiset": "6-31G**", 
		 "properties": { 
			 "R2extent": 14324.2963, 
			 "electric_dipole_moment_norm": 3.03765927977, 
			 "electric_quadrupole_moment_norm": 33.1633304962, 
			 "total_energy": -1967.25874463, 
			 "HOMO_LUMO_gap": 0.15878, 
			 "cosmo_polarized_energy": -23.48, 
			 "cosmo_cavitation_energy": 52.28, 
			 "cosmo_dispersion_energy": -35.08, 
			 "cosmo_repulsion_energy": 2.65, 
			 "cosmo_total_nonelectrostatic_energy": 19.86, 
			 "SMD_solvation_energy": 7.21 
		},
		"coords": [
			{
				"x": -2.8880216985,
				"y": -2.1551334378,
				"z": 1.2476122312,
				"element": "C" 
			},
			{
				"x": -1.706901065,
				"y": -2.4896534897,
				"z": 0.3946655229,
				"element": "C" 
			},
			{
				"x": -1.2040625634,
				"y": -3.7009904662,
				"z": 0.0074521216,
				"element": "C" 
			},
			{
				"x": -0.0714137616,
				"y": -3.470971315,
				"z": -0.8465884627,
				"element": "C" 
			},
			{
				"x": 0.7933027823,
				"y": -4.477725544,
				"z": -1.4592590688,
				"element": "C" 
			},
			{
				"x": 1.7781008299,
				"y": -4.2234325955,
				"z": -2.1469061825,
				"element": "O" 
			},
			{
				"x": 0.4790636056,
				"y": -5.956115749,
				"z": -1.1902440339,
				"element": "C" 
			},
			{
				"x": -1.0288974912,
				"y": -6.501007232,
				"z": -2.047923995,
				"element": "Cl" 
			},
			{
				"x": 0.0850968763,
				"y": -2.0875780953,
				"z": -0.9624750352,
				"element": "C" 
			},
			{
				"x": 1.1064104199,
				"y": -1.2816668363,
				"z": -1.6980814335,
				"element": "C" 
			},
			{
				"x": -0.909726693,
				"y": -1.5033817609,
				"z": -0.2075732647,
				"element": "N" 
			},
			{
				"x": -1.1045528878,
				"y": -0.0956411379,
				"z": -0.0561677787,
				"element": "C" 
			},
			{
				"x": -0.7790091948,
				"y": 0.5228715761,
				"z": 1.1541378095,
				"element": "C" 
			},
			{
				"x": -0.9935982321,
				"y": 1.8955291215,
				"z": 1.2944616448,
				"element": "C" 
			},
			{
				"x": -1.5311726527,
				"y": 2.6554870625,
				"z": 0.2519925271,
				"element": "C" 
			},
			{
				"x": -1.8458612502,
				"y": 2.0268682514,
				"z": -0.9530440341,
				"element": "C" 
			},
			{
				"x": -1.6353051808,
				"y": 0.6561810534,
				"z": -1.1098315601,
				"element": "C" 
			},
			{
				"x": -0.5411355625,
				"y": 2.7011893628,
				"z": 2.8440086058,
				"element": "S" 
			},
			{
				"x": -0.5815777612,
				"y": 1.6670597395,
				"z": 3.8791723038,
				"element": "O" 
			},
			{
				"x": -1.3211248307,
				"y": 3.9374599839,
				"z": 2.9223435313,
				"element": "O" 
			},
			{
				"x": 1.0595661582,
				"y": 3.1586677451,
				"z": 2.706083935,
				"element": "N" 
			},
			{
				"x": 1.4149985927,
				"y": 4.3925402864,
				"z": 1.9764053636,
				"element": "C" 
			},
			{
				"x": 2.4552561081,
				"y": 4.0870304582,
				"z": 0.9023462135,
				"element": "C" 
			},
			{
				"x": 3.6392776588,
				"y": 3.4952692597,
				"z": 1.433072872,
				"element": "O" 
			},
			{
				"x": 3.4581171334,
				"y": 2.7756478425,
				"z": 2.6485873842,
				"element": "C" 
			},
			{
				"x": 2.0907158823,
				"y": 2.1053897526,
				"z": 2.743007183,
				"element": "C" 
			},
			{
				"x": -3.3896752929,
				"y": -3.0797270141,
				"z": 1.5417274059,
				"element": "H" 
			},
			{
				"x": -2.6123970691,
				"y": -1.6192755468,
				"z": 2.1632710428,
				"element": "H" 
			},
			{
				"x": -3.6173985767,
				"y": -1.5326500861,
				"z": 0.7158219361,
				"element": "H" 
			},
			{
				"x": -1.6215909253,
				"y": -4.658924907,
				"z": 0.281697392,
				"element": "H" 
			},
			{
				"x": 0.3259699437,
				"y": -6.1573763308,
				"z": -0.1282864643,
				"element": "H" 
			},
			{
				"x": 1.3010508188,
				"y": -6.5535136501,
				"z": -1.5800384617,
				"element": "H" 
			},
			{
				"x": 1.8607649049,
				"y": -1.957240529,
				"z": -2.098176554,
				"element": "H" 
			},
			{
				"x": 0.6645922634,
				"y": -0.7257701976,
				"z": -2.5339264175,
				"element": "H" 
			},
			{
				"x": 1.5873710715,
				"y": -0.5477843339,
				"z": -1.0407523236,
				"element": "H" 
			},
			{
				"x": -0.3895666137,
				"y": -0.0594364966,
				"z": 1.9813658448,
				"element": "H" 
			},
			{
				"x": -1.7276434759,
				"y": 3.7112631051,
				"z": 0.4014972637,
				"element": "H" 
			},
			{
				"x": -2.2745515388,
				"y": 2.6028893261,
				"z": -1.7671205865,
				"element": "H" 
			},
			{
				"x": -1.8968762892,
				"y": 0.1574941728,
				"z": -2.0374320024,
				"element": "H" 
			},
			{
				"x": 1.8089263095,
				"y": 5.1281136642,
				"z": 2.6876886044,
				"element": "H" 
			},
			{
				"x": 0.5192818836,
				"y": 4.8298777231,
				"z": 1.5309364257,
				"element": "H" 
			},
			{
				"x": 2.7564804967,
				"y": 5.013766922,
				"z": 0.4020074794,
				"element": "H" 
			},
			{
				"x": 2.012226811,
				"y": 3.4246307846,
				"z": 0.1425389008,
				"element": "H" 
			},
			{
				"x": 3.5966251065,
				"y": 3.4398670795,
				"z": 3.5149197882,
				"element": "H" 
			},
			{
				"x": 4.2417588859,
				"y": 2.0127646358,
				"z": 2.6825603123,
				"element": "H" 
			},
			{
				"x": 1.9773895709,
				"y": 1.395659576,
				"z": 1.9091184219,
				"element": "H" 
			},
			{
				"x": 2.0024164929,
				"y": 1.5514782668,
				"z": 3.6803275917,
				"element": "H" 
			}
		],
		 "valence_orbital": [ 
			{
				"type": "occ",
				"energy": -0.26983,
				"method": "rhf"
			},
			{
				"type": "occ",
				"energy": -0.25912,
				"method": "rhf"
			},
			{
				"type": "occ",
				"energy": -0.25397,
				"method": "rhf"
			},
			{
				"type": "occ",
				"energy": -0.24618,
				"method": "rhf"
			},
			{
				"type": "occ",
				"energy": -0.21711,
				"method": "rhf"
			},
			{
				"type": "unocc",
				"energy": -0.05833,
				"method": "rhf"
			},
			{
				"type": "unocc",
				"energy": -0.05173,
				"method": "rhf"
			},
			{
				"type": "unocc",
				"energy": -0.04236,
				"method": "rhf"
			},
			{
				"type": "unocc",
				"energy": 0.02131,
				"method": "rhf"
			},
			{
				"type": "unocc",
				"energy": 0.03756,
				"method": "rhf"
			}
		],
		"cosmo_sigma_profile": { 
			"-0.025": 0.0,
			"-0.024": 0.0,
			"-0.023": 0.0,
			"-0.022": 0.0,
			"-0.021": 0.0,
			"-0.02": 0.0,
			"-0.019": 0.0,
			"-0.018": 0.0,
			"-0.017": 0.0,
			"-0.016": 0.0,
			"-0.015": 0.0,
			"-0.014": 0.0,
			"-0.013": 0.0,
			"-0.012": 0.0,
			"-0.011": 0.0,
			"-0.01": 0.0,
			"-0.009": 0.173830978641,
			"-0.008": 5.6546155436,
			"-0.007": 14.9944268765,
			"-0.006": 26.0958347254,
			"-0.005": 41.6030106688,
			"-0.004": 43.7541268089,
			"-0.003": 35.3475096711,
			"-0.002": 26.2756247501,
			"-0.001": 31.1022696015,
			"0.0": 27.375146005,
			"0.001": 23.6848616655,
			"0.002": 20.2183505789,
			"0.003": 16.3907187754,
			"0.004": 15.8565569517,
			"0.005": 18.9687732419,
			"0.006": 17.8848890748,
			"0.007": 6.7439246414,
			"0.008": 6.27830663345,
			"0.009": 6.38692420133,
			"0.01": 9.86112638207,
			"0.011": 11.5697967361,
			"0.012": 6.54278074526,
			"0.013": 3.11617900616,
			"0.014": 0.14670229224,
			"0.015": 0.0,
			"0.016": 0.0,
			"0.017": 0.0,
			"0.018": 0.0,
			"0.019": 0.0,
			"0.02": 0.0,
			"0.021": 0.0,
			"0.022": 0.0,
			"0.023": 0.0,
			"0.024": 0.0,
			"0.025": 0.0
		}
	}
}
