{
	 "smiles": "CC(C1=CC=C(OC(F)=C(F)F)C=C1)(C1=CC=C(OC(F)=C(F)F)C=C1)C1=CC=C(OC(F)=C(F)F)C=C1", 
	 "Tm": 304.65, 
	 "num_atms": 53, 
	 "gaussian": { 
		 "optdone": 1, 
		 "sigma_profile": "yes", 
		 "theory": "DFT", 
		 "functional": "B3LYP", 
		 "basiset": "6-31G**", 
		 "properties": { 
			 "R2extent": 29698.5122, 
			 "electric_dipole_moment_norm": 1.39397447968, 
			 "electric_quadrupole_moment_norm": 13.8507859737, 
			 "total_energy": -2123.8257758, 
			 "HOMO_LUMO_gap": 0.20342, 
			 "cosmo_polarized_energy": -8.81, 
			 "cosmo_cavitation_energy": 64.58, 
			 "cosmo_dispersion_energy": -41.49, 
			 "cosmo_repulsion_energy": 2.94, 
			 "cosmo_total_nonelectrostatic_energy": 26.03, 
			 "SMD_solvation_energy": 17.75 
		},
		"coords": [
			{
				"x": -0.6556860465,
				"y": -2.1566689607,
				"z": -2.0015042623,
				"element": "C" 
			},
			{
				"x": -0.1562271841,
				"y": -1.2839778845,
				"z": -0.813001746,
				"element": "C" 
			},
			{
				"x": 0.3601673141,
				"y": 0.0701637996,
				"z": -1.3615585629,
				"element": "C" 
			},
			{
				"x": -0.3978092445,
				"y": 0.7812774691,
				"z": -2.3044265002,
				"element": "C" 
			},
			{
				"x": 0.0105323868,
				"y": 2.0180048342,
				"z": -2.8021527146,
				"element": "C" 
			},
			{
				"x": 1.1984947615,
				"y": 2.5746539228,
				"z": -2.3326680757,
				"element": "C" 
			},
			{
				"x": 1.697564654,
				"y": 3.808197701,
				"z": -2.7621332479,
				"element": "O" 
			},
			{
				"x": 0.9236107702,
				"y": 4.5887550015,
				"z": -3.5365240833,
				"element": "C" 
			},
			{
				"x": 0.7515347253,
				"y": 4.1887118507,
				"z": -4.8104382859,
				"element": "F" 
			},
			{
				"x": 0.3984250374,
				"y": 5.7365982631,
				"z": -3.1206751683,
				"element": "C" 
			},
			{
				"x": 0.5113911395,
				"y": 6.1824417939,
				"z": -1.8797556386,
				"element": "F" 
			},
			{
				"x": -0.2737262303,
				"y": 6.5624237718,
				"z": -3.9080684752,
				"element": "F" 
			},
			{
				"x": 1.9713365332,
				"y": 1.9050072944,
				"z": -1.3903791656,
				"element": "C" 
			},
			{
				"x": 1.5489186731,
				"y": 0.6647211541,
				"z": -0.9125892224,
				"element": "C" 
			},
			{
				"x": 0.9779079666,
				"y": -2.0843799627,
				"z": -0.126327449,
				"element": "C" 
			},
			{
				"x": 2.1161678687,
				"y": -2.4530399792,
				"z": -0.8682849629,
				"element": "C" 
			},
			{
				"x": 3.1380317331,
				"y": -3.2122529532,
				"z": -0.3102251081,
				"element": "C" 
			},
			{
				"x": 3.0351706737,
				"y": -3.6237716421,
				"z": 1.0180403016,
				"element": "C" 
			},
			{
				"x": 4.10718924,
				"y": -4.3819881001,
				"z": 1.4986346851,
				"element": "O" 
			},
			{
				"x": 4.1568631072,
				"y": -4.6787876461,
				"z": 2.8092316189,
				"element": "C" 
			},
			{
				"x": 3.276293735,
				"y": -5.5957096193,
				"z": 3.2511811896,
				"element": "F" 
			},
			{
				"x": 5.0597341727,
				"y": -4.1657687598,
				"z": 3.6386343445,
				"element": "C" 
			},
			{
				"x": 5.1840191856,
				"y": -4.5333108563,
				"z": 4.9048210538,
				"element": "F" 
			},
			{
				"x": 5.9424070261,
				"y": -3.2478749377,
				"z": 3.2776849965,
				"element": "F" 
			},
			{
				"x": 1.9221184288,
				"y": -3.2895837537,
				"z": 1.7800360196,
				"element": "C" 
			},
			{
				"x": 0.9083459892,
				"y": -2.5186316036,
				"z": 1.2012661155,
				"element": "C" 
			},
			{
				"x": -1.3141905183,
				"y": -1.0034671509,
				"z": 0.1748091298,
				"element": "C" 
			},
			{
				"x": -1.2557366092,
				"y": 0.0905372261,
				"z": 1.0553632624,
				"element": "C" 
			},
			{
				"x": -2.2697781924,
				"y": 0.3459331402,
				"z": 1.9730526771,
				"element": "C" 
			},
			{
				"x": -3.3759952042,
				"y": -0.4993969921,
				"z": 2.0225134977,
				"element": "C" 
			},
			{
				"x": -4.3515798508,
				"y": -0.1645133489,
				"z": 2.966055244,
				"element": "O" 
			},
			{
				"x": -5.5186877563,
				"y": -0.8323631194,
				"z": 2.959400603,
				"element": "C" 
			},
			{
				"x": -5.4861360771,
				"y": -2.1027672249,
				"z": 3.4035712036,
				"element": "F" 
			},
			{
				"x": -6.6737895281,
				"y": -0.2779339333,
				"z": 2.6063691242,
				"element": "C" 
			},
			{
				"x": -6.7780545176,
				"y": 0.9576080711,
				"z": 2.1440224902,
				"element": "F" 
			},
			{
				"x": -7.841360927,
				"y": -0.8959288713,
				"z": 2.6994928568,
				"element": "F" 
			},
			{
				"x": -3.4652064858,
				"y": -1.6011182598,
				"z": 1.1780837945,
				"element": "C" 
			},
			{
				"x": -2.4355136441,
				"y": -1.8384721086,
				"z": 0.2634211396,
				"element": "C" 
			},
			{
				"x": -1.5649713343,
				"y": -1.7511391609,
				"z": -2.4519397095,
				"element": "H" 
			},
			{
				"x": -0.8657560409,
				"y": -3.1774045341,
				"z": -1.6728628773,
				"element": "H" 
			},
			{
				"x": 0.109048604,
				"y": -2.2133487655,
				"z": -2.7789383443,
				"element": "H" 
			},
			{
				"x": -1.3357865181,
				"y": 0.3735519195,
				"z": -2.6658186823,
				"element": "H" 
			},
			{
				"x": -0.5858738444,
				"y": 2.5284636782,
				"z": -3.5493934775,
				"element": "H" 
			},
			{
				"x": 2.8901628575,
				"y": 2.3607338843,
				"z": -1.0367751617,
				"element": "H" 
			},
			{
				"x": 2.1617891859,
				"y": 0.1577070805,
				"z": -0.176351521,
				"element": "H" 
			},
			{
				"x": 2.2179853605,
				"y": -2.126938069,
				"z": -1.8985965829,
				"element": "H" 
			},
			{
				"x": 4.0171601414,
				"y": -3.4860127353,
				"z": -0.883927625,
				"element": "H" 
			},
			{
				"x": 1.8265350373,
				"y": -3.6290980632,
				"z": 2.8048725759,
				"element": "H" 
			},
			{
				"x": 0.0468258526,
				"y": -2.2669715774,
				"z": 1.8079550372,
				"element": "H" 
			},
			{
				"x": -0.4071398554,
				"y": 0.7647730063,
				"z": 1.0178864914,
				"element": "H" 
			},
			{
				"x": -2.222979595,
				"y": 1.197924291,
				"z": 2.6430140888,
				"element": "H" 
			},
			{
				"x": -4.3108627556,
				"y": -2.2768186908,
				"z": 1.2317924229,
				"element": "H" 
			},
			{
				"x": -2.5251842011,
				"y": -2.7054498891,
				"z": -0.3804893139,
				"element": "H" 
			}
		],
		 "valence_orbital": [ 
			{
				"type": "occ",
				"energy": -0.25052,
				"method": "rhf"
			},
			{
				"type": "occ",
				"energy": -0.24968,
				"method": "rhf"
			},
			{
				"type": "occ",
				"energy": -0.24391,
				"method": "rhf"
			},
			{
				"type": "occ",
				"energy": -0.24013,
				"method": "rhf"
			},
			{
				"type": "occ",
				"energy": -0.23422,
				"method": "rhf"
			},
			{
				"type": "unocc",
				"energy": -0.0308,
				"method": "rhf"
			},
			{
				"type": "unocc",
				"energy": -0.01833,
				"method": "rhf"
			},
			{
				"type": "unocc",
				"energy": -0.01653,
				"method": "rhf"
			},
			{
				"type": "unocc",
				"energy": -0.00982,
				"method": "rhf"
			},
			{
				"type": "unocc",
				"energy": -0.00822,
				"method": "rhf"
			}
		],
		"cosmo_sigma_profile": { 
			"-0.025": 0.0,
			"-0.024": 0.0,
			"-0.023": 0.0,
			"-0.022": 0.0,
			"-0.021": 0.0,
			"-0.02": 0.0,
			"-0.019": 0.0,
			"-0.018": 0.0,
			"-0.017": 0.0,
			"-0.016": 0.0,
			"-0.015": 0.0,
			"-0.014": 0.0,
			"-0.013": 0.0,
			"-0.012": 0.0,
			"-0.011": 0.0,
			"-0.01": 0.0,
			"-0.009": 0.0,
			"-0.008": 0.0618073302994,
			"-0.007": 7.683156281,
			"-0.006": 18.0612224389,
			"-0.005": 23.663345687,
			"-0.004": 31.9482817277,
			"-0.003": 41.5729108521,
			"-0.002": 39.2307064686,
			"-0.001": 36.8711827249,
			"0.0": 42.1064145097,
			"0.001": 70.0250479847,
			"0.002": 113.057843629,
			"0.003": 59.8492300447,
			"0.004": 24.3301611158,
			"0.005": 6.84707800554,
			"0.006": 3.50795746594,
			"0.007": 2.28097606988,
			"0.008": 0.0053007965694,
			"0.009": 0.0,
			"0.01": 0.0,
			"0.011": 0.0,
			"0.012": 0.0,
			"0.013": 0.0,
			"0.014": 0.0,
			"0.015": 0.0,
			"0.016": 0.0,
			"0.017": 0.0,
			"0.018": 0.0,
			"0.019": 0.0,
			"0.02": 0.0,
			"0.021": 0.0,
			"0.022": 0.0,
			"0.023": 0.0,
			"0.024": 0.0,
			"0.025": 0.0
		}
	}
}
