{
	 "smiles": "NC(=O)C=CC1=CC=C(C=CC(N)=O)C=C1", 
	 "Tm": 593.15, 
	 "num_atms": 28, 
	 "gaussian": { 
		 "optdone": 1, 
		 "sigma_profile": "yes", 
		 "theory": "DFT", 
		 "functional": "B3LYP", 
		 "basiset": "6-31G**", 
		 "properties": { 
			 "R2extent": 6645.3839, 
			 "electric_dipole_moment_norm": 1.8089897678, 
			 "electric_quadrupole_moment_norm": 39.4667172687, 
			 "total_energy": -724.458312954, 
			 "HOMO_LUMO_gap": 0.15176, 
			 "cosmo_polarized_energy": -24.2, 
			 "cosmo_cavitation_energy": 33.72, 
			 "cosmo_dispersion_energy": -23.88, 
			 "cosmo_repulsion_energy": 1.89, 
			 "cosmo_total_nonelectrostatic_energy": 11.73, 
			 "SMD_solvation_energy": 7.5 
		},
		"coords": [
			{
				"x": 3.2202660797,
				"y": 0.509259864,
				"z": -2.6853725304,
				"element": "N" 
			},
			{
				"x": 3.7755130878,
				"y": -0.6940387543,
				"z": -3.0201308128,
				"element": "C" 
			},
			{
				"x": 4.3087056811,
				"y": -0.8927440317,
				"z": -4.1054517148,
				"element": "O" 
			},
			{
				"x": 3.7842022388,
				"y": -1.7600433401,
				"z": -1.9658068368,
				"element": "C" 
			},
			{
				"x": 2.8425251817,
				"y": -2.1204338514,
				"z": -1.0740684706,
				"element": "C" 
			},
			{
				"x": 1.471891423,
				"y": -1.6156381891,
				"z": -0.8769818415,
				"element": "C" 
			},
			{
				"x": 0.9267896128,
				"y": -1.6162311032,
				"z": 0.423211827,
				"element": "C" 
			},
			{
				"x": -0.3638955578,
				"y": -1.170049486,
				"z": 0.6681249695,
				"element": "C" 
			},
			{
				"x": -1.1832141383,
				"y": -0.7191531377,
				"z": -0.3849929036,
				"element": "C" 
			},
			{
				"x": -2.5553409893,
				"y": -0.242183214,
				"z": -0.1905046682,
				"element": "C" 
			},
			{
				"x": -3.1905630524,
				"y": -0.0465506481,
				"z": 0.9797324724,
				"element": "C" 
			},
			{
				"x": -4.571619256,
				"y": 0.4884964618,
				"z": 1.1298184065,
				"element": "C" 
			},
			{
				"x": -5.4066353582,
				"y": 0.375779056,
				"z": 0.0374585273,
				"element": "N" 
			},
			{
				"x": -4.927573167,
				"y": 1.0341536704,
				"z": 2.1674755412,
				"element": "O" 
			},
			{
				"x": -0.6503463935,
				"y": -0.7507797992,
				"z": -1.6868021383,
				"element": "C" 
			},
			{
				"x": 0.6464507128,
				"y": -1.1885056961,
				"z": -1.9325218338,
				"element": "C" 
			},
			{
				"x": 3.1779761622,
				"y": 1.2209099434,
				"z": -3.399121749,
				"element": "H" 
			},
			{
				"x": 2.7279974168,
				"y": 0.6519469848,
				"z": -1.8186365069,
				"element": "H" 
			},
			{
				"x": 4.7069763437,
				"y": -2.3335141258,
				"z": -1.9896551832,
				"element": "H" 
			},
			{
				"x": 3.1211392116,
				"y": -2.9165444573,
				"z": -0.3835584543,
				"element": "H" 
			},
			{
				"x": 1.5360393724,
				"y": -1.9686553648,
				"z": 1.2514429681,
				"element": "H" 
			},
			{
				"x": -0.7441518793,
				"y": -1.1831038896,
				"z": 1.6845142766,
				"element": "H" 
			},
			{
				"x": -3.0845227689,
				"y": 0.0009972624,
				"z": -1.1113588773,
				"element": "H" 
			},
			{
				"x": -2.6929819733,
				"y": -0.196464329,
				"z": 1.9330112431,
				"element": "H" 
			},
			{
				"x": -5.26049077,
				"y": -0.3689084369,
				"z": -0.6267105832,
				"element": "H" 
			},
			{
				"x": -6.3656545935,
				"y": 0.6441132766,
				"z": 0.2075925344,
				"element": "H" 
			},
			{
				"x": -1.2712725734,
				"y": -0.4326241224,
				"z": -2.5205292481,
				"element": "H" 
			},
			{
				"x": 1.0153899463,
				"y": -1.2234905427,
				"z": -2.9515784132,
				"element": "H" 
			}
		],
		 "valence_orbital": [ 
			{
				"type": "occ",
				"energy": -0.27466,
				"method": "rhf"
			},
			{
				"type": "occ",
				"energy": -0.26503,
				"method": "rhf"
			},
			{
				"type": "occ",
				"energy": -0.25375,
				"method": "rhf"
			},
			{
				"type": "occ",
				"energy": -0.25095,
				"method": "rhf"
			},
			{
				"type": "occ",
				"energy": -0.23109,
				"method": "rhf"
			},
			{
				"type": "unocc",
				"energy": -0.07933,
				"method": "rhf"
			},
			{
				"type": "unocc",
				"energy": -0.03109,
				"method": "rhf"
			},
			{
				"type": "unocc",
				"energy": -0.02084,
				"method": "rhf"
			},
			{
				"type": "unocc",
				"energy": 0.02303,
				"method": "rhf"
			},
			{
				"type": "unocc",
				"energy": 0.06468,
				"method": "rhf"
			}
		],
		"cosmo_sigma_profile": { 
			"-0.025": 0.0,
			"-0.024": 0.0,
			"-0.023": 0.0,
			"-0.022": 0.0,
			"-0.021": 0.0,
			"-0.02": 0.0,
			"-0.019": 0.0,
			"-0.018": 0.0,
			"-0.017": 0.0,
			"-0.016": 0.0,
			"-0.015": 0.0,
			"-0.014": 1.50136630534,
			"-0.013": 3.83605712842,
			"-0.012": 4.12509699441,
			"-0.011": 4.15128600353,
			"-0.01": 4.98494746881,
			"-0.009": 4.91580376029,
			"-0.008": 6.46585732915,
			"-0.007": 11.9154839461,
			"-0.006": 16.8404712614,
			"-0.005": 15.9127636241,
			"-0.004": 15.1809336056,
			"-0.003": 12.6655300838,
			"-0.002": 13.0742598329,
			"-0.001": 14.8130285421,
			"0.0": 16.7364080382,
			"0.001": 17.9652218107,
			"0.002": 19.4004909331,
			"0.003": 20.2235911166,
			"0.004": 14.0295403888,
			"0.005": 5.1707136313,
			"0.006": 3.00419291162,
			"0.007": 2.95455560657,
			"0.008": 3.99628595254,
			"0.009": 3.1825946028,
			"0.01": 2.2073993909,
			"0.011": 2.83539909743,
			"0.012": 3.91548249921,
			"0.013": 7.81331866919,
			"0.014": 11.0405722345,
			"0.015": 3.54550487844,
			"0.016": 0.0159490111069,
			"0.017": 0.0,
			"0.018": 0.0,
			"0.019": 0.0,
			"0.02": 0.0,
			"0.021": 0.0,
			"0.022": 0.0,
			"0.023": 0.0,
			"0.024": 0.0,
			"0.025": 0.0
		}
	}
}
