{
	 "smiles": "COC1=CC2=C(C=C1)C=C(C(O)=O)C(C)=N2", 
	 "Tm": 483.15, 
	 "num_atms": 27, 
	 "gaussian": { 
		 "optdone": 1, 
		 "sigma_profile": "yes", 
		 "theory": "DFT", 
		 "functional": "B3LYP", 
		 "basiset": "6-31G**", 
		 "properties": { 
			 "R2extent": 4589.5842, 
			 "electric_dipole_moment_norm": 5.16974175274, 
			 "electric_quadrupole_moment_norm": 15.5455235611, 
			 "total_energy": -744.341541392, 
			 "HOMO_LUMO_gap": 0.16575, 
			 "cosmo_polarized_energy": -17.15, 
			 "cosmo_cavitation_energy": 31.26, 
			 "cosmo_dispersion_energy": -23.06, 
			 "cosmo_repulsion_energy": 1.77, 
			 "cosmo_total_nonelectrostatic_energy": 9.97, 
			 "SMD_solvation_energy": 5.63 
		},
		"coords": [
			{
				"x": 0.5582183714,
				"y": 2.0331228133,
				"z": -4.5878332826,
				"element": "C" 
			},
			{
				"x": 0.1998345808,
				"y": 0.6618813371,
				"z": -4.4662596386,
				"element": "O" 
			},
			{
				"x": 0.1491394005,
				"y": 0.1209609565,
				"z": -3.2223380372,
				"element": "C" 
			},
			{
				"x": 0.42294198,
				"y": 0.8000340574,
				"z": -2.0485718795,
				"element": "C" 
			},
			{
				"x": 0.335042768,
				"y": 0.1240363871,
				"z": -0.8055825276,
				"element": "C" 
			},
			{
				"x": -0.0328228556,
				"y": -1.2556844129,
				"z": -0.7755827024,
				"element": "C" 
			},
			{
				"x": -0.3112374329,
				"y": -1.9228562224,
				"z": -2.0003852421,
				"element": "C" 
			},
			{
				"x": -0.2220163987,
				"y": -1.2551405393,
				"z": -3.193566729,
				"element": "C" 
			},
			{
				"x": -0.0951708683,
				"y": -1.8728915354,
				"z": 0.4892547426,
				"element": "C" 
			},
			{
				"x": 0.180065766,
				"y": -1.1539887485,
				"z": 1.6398454932,
				"element": "C" 
			},
			{
				"x": 0.0571637966,
				"y": -1.8046136545,
				"z": 2.9820944491,
				"element": "C" 
			},
			{
				"x": 0.364536527,
				"y": -3.1334623543,
				"z": 3.0279310907,
				"element": "O" 
			},
			{
				"x": -0.3065917396,
				"y": -1.2431873284,
				"z": 3.988613952,
				"element": "O" 
			},
			{
				"x": 0.52086194,
				"y": 0.2388032064,
				"z": 1.5104190065,
				"element": "C" 
			},
			{
				"x": 0.8205733291,
				"y": 1.1007750831,
				"z": 2.7100556136,
				"element": "C" 
			},
			{
				"x": 0.6039766912,
				"y": 0.8291897574,
				"z": 0.3310455155,
				"element": "N" 
			},
			{
				"x": 0.53599123,
				"y": 2.2554540269,
				"z": -5.6552569401,
				"element": "H" 
			},
			{
				"x": 1.5659214068,
				"y": 2.2189390229,
				"z": -4.1968158277,
				"element": "H" 
			},
			{
				"x": -0.1559565241,
				"y": 2.6805475271,
				"z": -4.0647694291,
				"element": "H" 
			},
			{
				"x": 0.7046436753,
				"y": 1.8447521485,
				"z": -2.0260637778,
				"element": "H" 
			},
			{
				"x": -0.5956955266,
				"y": -2.9716997212,
				"z": -1.9808241132,
				"element": "H" 
			},
			{
				"x": -0.4288944524,
				"y": -1.745351418,
				"z": -4.1388958746,
				"element": "H" 
			},
			{
				"x": -0.4003328471,
				"y": -2.9161450027,
				"z": 0.5467711371,
				"element": "H" 
			},
			{
				"x": 0.8057192952,
				"y": -3.3957714682,
				"z": 2.2080970007,
				"element": "H" 
			},
			{
				"x": -0.0667073101,
				"y": 1.2120433292,
				"z": 3.3387397399,
				"element": "H" 
			},
			{
				"x": 1.1554960055,
				"y": 2.0782940097,
				"z": 2.3614051254,
				"element": "H" 
			},
			{
				"x": 1.5898991921,
				"y": 0.6532587431,
				"z": 3.3472731352,
				"element": "H" 
			}
		],
		 "valence_orbital": [ 
			{
				"type": "occ",
				"energy": -0.30366,
				"method": "rhf"
			},
			{
				"type": "occ",
				"energy": -0.27457,
				"method": "rhf"
			},
			{
				"type": "occ",
				"energy": -0.25755,
				"method": "rhf"
			},
			{
				"type": "occ",
				"energy": -0.24779,
				"method": "rhf"
			},
			{
				"type": "occ",
				"energy": -0.23154,
				"method": "rhf"
			},
			{
				"type": "unocc",
				"energy": -0.06579,
				"method": "rhf"
			},
			{
				"type": "unocc",
				"energy": -0.03797,
				"method": "rhf"
			},
			{
				"type": "unocc",
				"energy": 0.01038,
				"method": "rhf"
			},
			{
				"type": "unocc",
				"energy": 0.02774,
				"method": "rhf"
			},
			{
				"type": "unocc",
				"energy": 0.06788,
				"method": "rhf"
			}
		],
		"cosmo_sigma_profile": { 
			"-0.025": 0.0,
			"-0.024": 0.0,
			"-0.023": 0.0,
			"-0.022": 0.0,
			"-0.021": 0.0,
			"-0.02": 0.0,
			"-0.019": 0.257508475267,
			"-0.018": 0.744910191743,
			"-0.017": 0.817185711023,
			"-0.016": 1.30369811166,
			"-0.015": 1.08178907265,
			"-0.014": 0.587138222691,
			"-0.013": 1.03065894048,
			"-0.012": 1.13261084585,
			"-0.011": 1.42129546608,
			"-0.01": 1.06320095955,
			"-0.009": 2.33274700214,
			"-0.008": 3.30991064025,
			"-0.007": 5.56878537034,
			"-0.006": 14.0200653768,
			"-0.005": 18.0365617296,
			"-0.004": 19.2404729047,
			"-0.003": 17.2551100531,
			"-0.002": 13.5473812854,
			"-0.001": 14.2534580578,
			"0.0": 21.8707091424,
			"0.001": 19.3224857681,
			"0.002": 19.7634669743,
			"0.003": 14.9578213222,
			"0.004": 8.28411415954,
			"0.005": 6.75741287049,
			"0.006": 4.74634819329,
			"0.007": 5.72456489159,
			"0.008": 5.58701243347,
			"0.009": 5.46259755286,
			"0.01": 6.58364743793,
			"0.011": 5.46681064766,
			"0.012": 4.67201234716,
			"0.013": 2.16327795493,
			"0.014": 0.821397739268,
			"0.015": 0.237269941783,
			"0.016": 0.0,
			"0.017": 0.0,
			"0.018": 0.0,
			"0.019": 0.0,
			"0.02": 0.0,
			"0.021": 0.0,
			"0.022": 0.0,
			"0.023": 0.0,
			"0.024": 0.0,
			"0.025": 0.0
		}
	}
}
