{
	 "smiles": "CCOC(=O)C1=C2C(C)=NOC2=NC(C)=C1", 
	 "Tm": 338.15, 
	 "num_atms": 28, 
	 "gaussian": { 
		 "optdone": 1, 
		 "sigma_profile": "yes", 
		 "theory": "DFT", 
		 "functional": "B3LYP", 
		 "basiset": "6-31G**", 
		 "properties": { 
			 "R2extent": 5741.6656, 
			 "electric_dipole_moment_norm": 5.87556852568, 
			 "electric_quadrupole_moment_norm": 20.5731364186, 
			 "total_energy": -761.561828963, 
			 "HOMO_LUMO_gap": 0.17646, 
			 "cosmo_polarized_energy": -11.24, 
			 "cosmo_cavitation_energy": 32.21, 
			 "cosmo_dispersion_energy": -23.47, 
			 "cosmo_repulsion_energy": 1.84, 
			 "cosmo_total_nonelectrostatic_energy": 10.59, 
			 "SMD_solvation_energy": 5.01 
		},
		"coords": [
			{
				"x": 0.5612499982,
				"y": -1.6084475344,
				"z": -3.0805637314,
				"element": "C" 
			},
			{
				"x": 0.4368802901,
				"y": -2.4167183521,
				"z": -1.7982957868,
				"element": "C" 
			},
			{
				"x": 0.0178542858,
				"y": -1.5827479023,
				"z": -0.688079463,
				"element": "O" 
			},
			{
				"x": -1.3084533003,
				"y": -1.3895075892,
				"z": -0.5444976742,
				"element": "C" 
			},
			{
				"x": -2.1443932633,
				"y": -1.8783289621,
				"z": -1.2791478078,
				"element": "O" 
			},
			{
				"x": -1.6237510973,
				"y": -0.508818795,
				"z": 0.6234175422,
				"element": "C" 
			},
			{
				"x": -2.9505776867,
				"y": -0.2005005891,
				"z": 0.9997880325,
				"element": "C" 
			},
			{
				"x": -4.3189120897,
				"y": -0.4702185629,
				"z": 0.6162507847,
				"element": "C" 
			},
			{
				"x": -4.9019832145,
				"y": -1.298082693,
				"z": -0.485771597,
				"element": "C" 
			},
			{
				"x": -5.1482127042,
				"y": 0.1512271559,
				"z": 1.420977088,
				"element": "N" 
			},
			{
				"x": -4.3952708433,
				"y": 0.8609771563,
				"z": 2.3735468164,
				"element": "O" 
			},
			{
				"x": -3.0900506703,
				"y": 0.6440882886,
				"z": 2.1144511213,
				"element": "C" 
			},
			{
				"x": -2.1424289907,
				"y": 1.192963981,
				"z": 2.8612803945,
				"element": "N" 
			},
			{
				"x": -0.8914365771,
				"y": 0.8921507747,
				"z": 2.4930975801,
				"element": "C" 
			},
			{
				"x": 0.2271142158,
				"y": 1.4876808795,
				"z": 3.309085335,
				"element": "C" 
			},
			{
				"x": -0.6054272858,
				"y": 0.0531642987,
				"z": 1.3911948834,
				"element": "C" 
			},
			{
				"x": -0.4139413648,
				"y": -1.2274118738,
				"z": -3.3929256338,
				"element": "H" 
			},
			{
				"x": 0.9523843694,
				"y": -2.2454324263,
				"z": -3.8806691544,
				"element": "H" 
			},
			{
				"x": 1.2461991221,
				"y": -0.7661851159,
				"z": -2.946722284,
				"element": "H" 
			},
			{
				"x": -0.2794251753,
				"y": -3.2333932912,
				"z": -1.9118562101,
				"element": "H" 
			},
			{
				"x": 1.4013950409,
				"y": -2.8188812944,
				"z": -1.4805839478,
				"element": "H" 
			},
			{
				"x": -5.991199158,
				"y": -1.246058652,
				"z": -0.4271979072,
				"element": "H" 
			},
			{
				"x": -4.5683018611,
				"y": -0.9405021604,
				"z": -1.4621155361,
				"element": "H" 
			},
			{
				"x": -4.5792767241,
				"y": -2.3384638285,
				"z": -0.406074698,
				"element": "H" 
			},
			{
				"x": -0.1863859364,
				"y": 2.1176474853,
				"z": 4.0975470019,
				"element": "H" 
			},
			{
				"x": 0.8394149731,
				"y": 0.7031669804,
				"z": 3.7681353053,
				"element": "H" 
			},
			{
				"x": 0.8926181588,
				"y": 2.0928000635,
				"z": 2.6832938145,
				"element": "H" 
			},
			{
				"x": 0.4260174888,
				"y": -0.1566674413,
				"z": 1.1372357316,
				"element": "H" 
			}
		],
		 "valence_orbital": [ 
			{
				"type": "occ",
				"energy": -0.30921,
				"method": "rhf"
			},
			{
				"type": "occ",
				"energy": -0.29427,
				"method": "rhf"
			},
			{
				"type": "occ",
				"energy": -0.27722,
				"method": "rhf"
			},
			{
				"type": "occ",
				"energy": -0.26621,
				"method": "rhf"
			},
			{
				"type": "occ",
				"energy": -0.25824,
				"method": "rhf"
			},
			{
				"type": "unocc",
				"energy": -0.08178,
				"method": "rhf"
			},
			{
				"type": "unocc",
				"energy": -0.0214,
				"method": "rhf"
			},
			{
				"type": "unocc",
				"energy": 0.02457,
				"method": "rhf"
			},
			{
				"type": "unocc",
				"energy": 0.04624,
				"method": "rhf"
			},
			{
				"type": "unocc",
				"energy": 0.09482,
				"method": "rhf"
			}
		],
		"cosmo_sigma_profile": { 
			"-0.025": 0.0,
			"-0.024": 0.0,
			"-0.023": 0.0,
			"-0.022": 0.0,
			"-0.021": 0.0,
			"-0.02": 0.0,
			"-0.019": 0.0,
			"-0.018": 0.0,
			"-0.017": 0.0,
			"-0.016": 0.0,
			"-0.015": 0.0,
			"-0.014": 0.0,
			"-0.013": 0.0,
			"-0.012": 0.0,
			"-0.011": 0.0,
			"-0.01": 0.0,
			"-0.009": 0.0,
			"-0.008": 0.0373400126006,
			"-0.007": 1.06047379102,
			"-0.006": 5.62656166128,
			"-0.005": 18.1997879305,
			"-0.004": 25.2654971813,
			"-0.003": 31.5869925302,
			"-0.002": 35.2664491785,
			"-0.001": 35.6271841014,
			"0.0": 24.8828184175,
			"0.001": 11.4501925361,
			"0.002": 8.35898266016,
			"0.003": 8.64603931379,
			"0.004": 6.6010920015,
			"0.005": 5.82706947262,
			"0.006": 5.86321287198,
			"0.007": 8.59657416293,
			"0.008": 7.75730235277,
			"0.009": 4.36707975252,
			"0.01": 3.30243972502,
			"0.011": 3.22941709413,
			"0.012": 1.85340076814,
			"0.013": 2.3888306261,
			"0.014": 0.522140299918,
			"0.015": 0.0,
			"0.016": 0.0,
			"0.017": 0.0,
			"0.018": 0.0,
			"0.019": 0.0,
			"0.02": 0.0,
			"0.021": 0.0,
			"0.022": 0.0,
			"0.023": 0.0,
			"0.024": 0.0,
			"0.025": 0.0
		}
	}
}
