{
	 "smiles": "CC(=O)OC[C@H]1OC(=C[C@@H](OC(C)=O)[C@H]1OC(C)=O)C#N", 
	 "Tm": 387.15, 
	 "num_atms": 36, 
	 "gaussian": { 
		 "optdone": 1, 
		 "sigma_profile": "yes", 
		 "theory": "DFT", 
		 "functional": "B3LYP", 
		 "basiset": "6-31G**", 
		 "properties": { 
			 "R2extent": 6915.2073, 
			 "electric_dipole_moment_norm": 3.68700094928, 
			 "electric_quadrupole_moment_norm": 28.8574136067, 
			 "total_energy": -1085.726222, 
			 "HOMO_LUMO_gap": 0.20571, 
			 "cosmo_polarized_energy": -22.77, 
			 "cosmo_cavitation_energy": 42.7, 
			 "cosmo_dispersion_energy": -26.69, 
			 "cosmo_repulsion_energy": 2.1, 
			 "cosmo_total_nonelectrostatic_energy": 18.11, 
			 "SMD_solvation_energy": 11.93 
		},
		"coords": [
			{
				"x": -0.736414904,
				"y": 2.1816229821,
				"z": 3.4553937147,
				"element": "C" 
			},
			{
				"x": -1.7518830328,
				"y": 1.3686958324,
				"z": 2.6936275767,
				"element": "C" 
			},
			{
				"x": -2.6781443248,
				"y": 0.7564193159,
				"z": 3.1735355858,
				"element": "O" 
			},
			{
				"x": -1.484984689,
				"y": 1.383119349,
				"z": 1.3589133777,
				"element": "O" 
			},
			{
				"x": -2.3512109228,
				"y": 0.5606024352,
				"z": 0.5671849246,
				"element": "C" 
			},
			{
				"x": -1.8414051092,
				"y": 0.4525413135,
				"z": -0.8569272819,
				"element": "C" 
			},
			{
				"x": -2.0016094167,
				"y": 1.735744209,
				"z": -1.4902316033,
				"element": "O" 
			},
			{
				"x": -1.4698729961,
				"y": 1.8294976909,
				"z": -2.7433242816,
				"element": "C" 
			},
			{
				"x": -0.6559623733,
				"y": 0.9234227685,
				"z": -3.3139669416,
				"element": "C" 
			},
			{
				"x": -0.2142451745,
				"y": -0.2989271171,
				"z": -2.5638728686,
				"element": "C" 
			},
			{
				"x": 1.1707138641,
				"y": -0.5399943628,
				"z": -2.8753134831,
				"element": "O" 
			},
			{
				"x": 1.5821726472,
				"y": -1.8378770276,
				"z": -2.7913677944,
				"element": "C" 
			},
			{
				"x": 3.0427608908,
				"y": -1.9563677837,
				"z": -3.1440057865,
				"element": "C" 
			},
			{
				"x": 0.8523192922,
				"y": -2.7479452177,
				"z": -2.4694200497,
				"element": "O" 
			},
			{
				"x": -0.4154086995,
				"y": -0.0806206021,
				"z": -1.0542648081,
				"element": "C" 
			},
			{
				"x": 0.5432428517,
				"y": 0.8978277934,
				"z": -0.635904438,
				"element": "O" 
			},
			{
				"x": 1.2747216434,
				"y": 0.6396177472,
				"z": 0.4799286813,
				"element": "C" 
			},
			{
				"x": 2.2227539051,
				"y": 1.7803019729,
				"z": 0.7497578169,
				"element": "C" 
			},
			{
				"x": 1.1623474088,
				"y": -0.3628133716,
				"z": 1.1484301493,
				"element": "O" 
			},
			{
				"x": -1.8721647394,
				"y": 3.0284808449,
				"z": -3.4246557355,
				"element": "C" 
			},
			{
				"x": -2.1890821125,
				"y": 3.9950284988,
				"z": -3.9867356225,
				"element": "N" 
			},
			{
				"x": 0.2209930558,
				"y": 1.6504259623,
				"z": 3.4484564737,
				"element": "H" 
			},
			{
				"x": -1.0725339783,
				"y": 2.3075510526,
				"z": 4.4840599984,
				"element": "H" 
			},
			{
				"x": -0.5855329057,
				"y": 3.1554584908,
				"z": 2.9825191376,
				"element": "H" 
			},
			{
				"x": -2.414771622,
				"y": -0.4392556961,
				"z": 1.0071691374,
				"element": "H" 
			},
			{
				"x": -3.3582324887,
				"y": 0.9894184745,
				"z": 0.5584748609,
				"element": "H" 
			},
			{
				"x": -2.5188890844,
				"y": -0.2546538811,
				"z": -1.3620176163,
				"element": "H" 
			},
			{
				"x": -0.2970218132,
				"y": 1.0815959972,
				"z": -4.3233972715,
				"element": "H" 
			},
			{
				"x": -0.7802339514,
				"y": -1.1886962985,
				"z": -2.8623921156,
				"element": "H" 
			},
			{
				"x": 3.2394582532,
				"y": -1.4899255543,
				"z": -4.1130432135,
				"element": "H" 
			},
			{
				"x": 3.6450271602,
				"y": -1.4285320946,
				"z": -2.3981709455,
				"element": "H" 
			},
			{
				"x": 3.3250092232,
				"y": -3.0082587433,
				"z": -3.1646863463,
				"element": "H" 
			},
			{
				"x": -0.2658616289,
				"y": -1.0079334197,
				"z": -0.4978372972,
				"element": "H" 
			},
			{
				"x": 2.8803913841,
				"y": 1.5207792866,
				"z": 1.5788537727,
				"element": "H" 
			},
			{
				"x": 1.6469261096,
				"y": 2.6772494464,
				"z": 0.9973283054,
				"element": "H" 
			},
			{
				"x": 2.8089282775,
				"y": 2.006999706,
				"z": -0.1446980127,
				"element": "H" 
			}
		],
		 "valence_orbital": [ 
			{
				"type": "occ",
				"energy": -0.30839,
				"method": "rhf"
			},
			{
				"type": "occ",
				"energy": -0.2938,
				"method": "rhf"
			},
			{
				"type": "occ",
				"energy": -0.28733,
				"method": "rhf"
			},
			{
				"type": "occ",
				"energy": -0.28055,
				"method": "rhf"
			},
			{
				"type": "occ",
				"energy": -0.25645,
				"method": "rhf"
			},
			{
				"type": "unocc",
				"energy": -0.05074,
				"method": "rhf"
			},
			{
				"type": "unocc",
				"energy": -0.00746,
				"method": "rhf"
			},
			{
				"type": "unocc",
				"energy": -0.00318,
				"method": "rhf"
			},
			{
				"type": "unocc",
				"energy": 0.00491,
				"method": "rhf"
			},
			{
				"type": "unocc",
				"energy": 0.00796,
				"method": "rhf"
			}
		],
		"cosmo_sigma_profile": { 
			"-0.025": 0.0,
			"-0.024": 0.0,
			"-0.023": 0.0,
			"-0.022": 0.0,
			"-0.021": 0.0,
			"-0.02": 0.0,
			"-0.019": 0.0,
			"-0.018": 0.0,
			"-0.017": 0.0,
			"-0.016": 0.0,
			"-0.015": 0.0,
			"-0.014": 0.0,
			"-0.013": 0.0,
			"-0.012": 0.119379747101,
			"-0.011": 1.54998539114,
			"-0.01": 3.79515603791,
			"-0.009": 6.91498902211,
			"-0.008": 7.38245510725,
			"-0.007": 11.6393835588,
			"-0.006": 21.9425915849,
			"-0.005": 23.9509090431,
			"-0.004": 28.9363838407,
			"-0.003": 34.3555570436,
			"-0.002": 34.6568614333,
			"-0.001": 20.4560631652,
			"0.0": 14.5119940747,
			"0.001": 12.4424469848,
			"0.002": 12.0981533823,
			"0.003": 10.0955543553,
			"0.004": 10.0341829717,
			"0.005": 10.7500414176,
			"0.006": 11.6230264061,
			"0.007": 11.1837969991,
			"0.008": 10.6790487335,
			"0.009": 7.92424719991,
			"0.01": 8.4352639377,
			"0.011": 13.6636149275,
			"0.012": 8.75210573998,
			"0.013": 1.02668004087,
			"0.014": 0.0,
			"0.015": 0.0,
			"0.016": 0.0,
			"0.017": 0.0,
			"0.018": 0.0,
			"0.019": 0.0,
			"0.02": 0.0,
			"0.021": 0.0,
			"0.022": 0.0,
			"0.023": 0.0,
			"0.024": 0.0,
			"0.025": 0.0
		}
	}
}
