{
	 "smiles": "CC(=O)NC1=CC=C(C=C1)S(=O)(=O)N1CCC(CC1)=NO", 
	 "Tm": 474.15, 
	 "num_atms": 38, 
	 "gaussian": { 
		 "optdone": 1, 
		 "sigma_profile": "yes", 
		 "theory": "DFT", 
		 "functional": "B3LYP", 
		 "basiset": "6-31G**", 
		 "properties": { 
			 "R2extent": 9905.4037, 
			 "electric_dipole_moment_norm": 2.90383230576, 
			 "electric_quadrupole_moment_norm": 23.8042846173, 
			 "total_energy": -1368.85639316, 
			 "HOMO_LUMO_gap": 0.18674, 
			 "cosmo_polarized_energy": -24.36, 
			 "cosmo_cavitation_energy": 42.1, 
			 "cosmo_dispersion_energy": -30.24, 
			 "cosmo_repulsion_energy": 2.28, 
			 "cosmo_total_nonelectrostatic_energy": 14.14, 
			 "SMD_solvation_energy": 6.18 
		},
		"coords": [
			{
				"x": 0.2660278104,
				"y": -5.0405386485,
				"z": -3.2329866492,
				"element": "C" 
			},
			{
				"x": 0.0754697846,
				"y": -5.5539808399,
				"z": -1.8204830854,
				"element": "C" 
			},
			{
				"x": -0.1171507564,
				"y": -6.7349026015,
				"z": -1.5799238226,
				"element": "O" 
			},
			{
				"x": 0.1461297122,
				"y": -4.6605921161,
				"z": -0.7537903898,
				"element": "N" 
			},
			{
				"x": 0.373243196,
				"y": -3.2780555192,
				"z": -0.6735111054,
				"element": "C" 
			},
			{
				"x": 1.0436946334,
				"y": -2.7874793213,
				"z": 0.4609346192,
				"element": "C" 
			},
			{
				"x": 1.2722518517,
				"y": -1.4251349613,
				"z": 0.6198293291,
				"element": "C" 
			},
			{
				"x": 0.8317196684,
				"y": -0.5363154337,
				"z": -0.3619387232,
				"element": "C" 
			},
			{
				"x": 0.1591981165,
				"y": -1.0045709133,
				"z": -1.4929939214,
				"element": "C" 
			},
			{
				"x": -0.0845681103,
				"y": -2.3650059202,
				"z": -1.6418841947,
				"element": "C" 
			},
			{
				"x": 1.2038041336,
				"y": 1.2080965966,
				"z": -0.202664644,
				"element": "S" 
			},
			{
				"x": 1.840803221,
				"y": 1.6816657142,
				"z": -1.4365778001,
				"element": "O" 
			},
			{
				"x": 1.8820564874,
				"y": 1.3831378438,
				"z": 1.0924372726,
				"element": "O" 
			},
			{
				"x": -0.3520685681,
				"y": 1.8841549546,
				"z": -0.1934224953,
				"element": "N" 
			},
			{
				"x": -0.494865024,
				"y": 3.2180704531,
				"z": -0.8094367783,
				"element": "C" 
			},
			{
				"x": -0.1568015968,
				"y": 4.3637774047,
				"z": 0.1653760888,
				"element": "C" 
			},
			{
				"x": -0.9124322848,
				"y": 4.1944096305,
				"z": 1.4596685924,
				"element": "C" 
			},
			{
				"x": -0.8237293078,
				"y": 2.8333018903,
				"z": 2.1025845018,
				"element": "C" 
			},
			{
				"x": -1.1145599363,
				"y": 1.7317180125,
				"z": 1.0602129912,
				"element": "C" 
			},
			{
				"x": -1.5848013825,
				"y": 5.2013000464,
				"z": 1.8791662609,
				"element": "N" 
			},
			{
				"x": -2.2584905212,
				"y": 4.9306356586,
				"z": 3.0900236931,
				"element": "O" 
			},
			{
				"x": 0.5793054387,
				"y": -5.8885460228,
				"z": -3.842412362,
				"element": "H" 
			},
			{
				"x": -0.6825648382,
				"y": -4.6697195815,
				"z": -3.6359449607,
				"element": "H" 
			},
			{
				"x": 1.0040926567,
				"y": -4.2380204126,
				"z": -3.2994422078,
				"element": "H" 
			},
			{
				"x": 0.1382497781,
				"y": -5.1614484326,
				"z": 0.1271257233,
				"element": "H" 
			},
			{
				"x": 1.3997735673,
				"y": -3.4858912838,
				"z": 1.2130550612,
				"element": "H" 
			},
			{
				"x": 1.7999794335,
				"y": -1.0447513955,
				"z": 1.4873092181,
				"element": "H" 
			},
			{
				"x": -0.1938810978,
				"y": -0.3049197078,
				"z": -2.2427818016,
				"element": "H" 
			},
			{
				"x": -0.6523026308,
				"y": -2.7103232804,
				"z": -2.4957322526,
				"element": "H" 
			},
			{
				"x": 0.1357794589,
				"y": 3.2563137564,
				"z": -1.697856166,
				"element": "H" 
			},
			{
				"x": -1.5410234723,
				"y": 3.2973833466,
				"z": -1.1294567258,
				"element": "H" 
			},
			{
				"x": -0.3996200707,
				"y": 5.3321741297,
				"z": -0.2811886118,
				"element": "H" 
			},
			{
				"x": 0.9226470775,
				"y": 4.3454752293,
				"z": 0.3668270518,
				"element": "H" 
			},
			{
				"x": 0.1925917561,
				"y": 2.6867737868,
				"z": 2.4865980231,
				"element": "H" 
			},
			{
				"x": -1.5227451628,
				"y": 2.7555777842,
				"z": 2.9367592619,
				"element": "H" 
			},
			{
				"x": -2.1747690977,
				"y": 1.7533475053,
				"z": 0.7809028814,
				"element": "H" 
			},
			{
				"x": -0.9140503273,
				"y": 0.7423837397,
				"z": 1.4795789053,
				"element": "H" 
			},
			{
				"x": -2.7034935963,
				"y": 5.7710989086,
				"z": 3.2584392226,
				"element": "H" 
			}
		],
		 "valence_orbital": [ 
			{
				"type": "occ",
				"energy": -0.26941,
				"method": "rhf"
			},
			{
				"type": "occ",
				"energy": -0.26823,
				"method": "rhf"
			},
			{
				"type": "occ",
				"energy": -0.26723,
				"method": "rhf"
			},
			{
				"type": "occ",
				"energy": -0.24628,
				"method": "rhf"
			},
			{
				"type": "occ",
				"energy": -0.23637,
				"method": "rhf"
			},
			{
				"type": "unocc",
				"energy": -0.04963,
				"method": "rhf"
			},
			{
				"type": "unocc",
				"energy": -0.03219,
				"method": "rhf"
			},
			{
				"type": "unocc",
				"energy": 0.00401,
				"method": "rhf"
			},
			{
				"type": "unocc",
				"energy": 0.01362,
				"method": "rhf"
			},
			{
				"type": "unocc",
				"energy": 0.0528,
				"method": "rhf"
			}
		],
		"cosmo_sigma_profile": { 
			"-0.025": 0.0,
			"-0.024": 0.0,
			"-0.023": 0.0,
			"-0.022": 0.0,
			"-0.021": 0.0,
			"-0.02": 0.0,
			"-0.019": 0.0,
			"-0.018": 0.0,
			"-0.017": 0.457781115568,
			"-0.016": 1.04465039663,
			"-0.015": 1.5792549296,
			"-0.014": 1.51341887438,
			"-0.013": 1.8430242785,
			"-0.012": 2.21008856226,
			"-0.011": 1.54461868613,
			"-0.01": 1.48651352859,
			"-0.009": 3.71112303177,
			"-0.008": 6.91884220507,
			"-0.007": 9.82097195029,
			"-0.006": 16.4743563516,
			"-0.005": 24.885880265,
			"-0.004": 30.7911673203,
			"-0.003": 27.7306232634,
			"-0.002": 27.8014527705,
			"-0.001": 21.5880378155,
			"0.0": 16.6096536545,
			"0.001": 17.6794137693,
			"0.002": 20.5781704683,
			"0.003": 12.9824149945,
			"0.004": 9.12622740817,
			"0.005": 8.04688927745,
			"0.006": 7.00515642602,
			"0.007": 7.45416108582,
			"0.008": 7.26611230394,
			"0.009": 9.37059894234,
			"0.01": 10.0825830747,
			"0.011": 9.394546215,
			"0.012": 7.80723302529,
			"0.013": 5.98388192799,
			"0.014": 1.92546031883,
			"0.015": 0.0477863145095,
			"0.016": 0.0,
			"0.017": 0.0,
			"0.018": 0.0,
			"0.019": 0.0,
			"0.02": 0.0,
			"0.021": 0.0,
			"0.022": 0.0,
			"0.023": 0.0,
			"0.024": 0.0,
			"0.025": 0.0
		}
	}
}
