{
	 "smiles": "FC(F)(F)C1=CN=C(C=C1)N1CCCNCC1", 
	 "Tm": 324.65, 
	 "num_atms": 31, 
	 "gaussian": { 
		 "optdone": 1, 
		 "sigma_profile": "yes", 
		 "theory": "DFT", 
		 "functional": "B3LYP", 
		 "basiset": "6-31G**", 
		 "properties": { 
			 "R2extent": 6238.8438, 
			 "electric_dipole_moment_norm": 4.0727355291, 
			 "electric_quadrupole_moment_norm": 14.1997978172, 
			 "total_energy": -891.377258982, 
			 "HOMO_LUMO_gap": 0.18501, 
			 "cosmo_polarized_energy": -9.67, 
			 "cosmo_cavitation_energy": 33.54, 
			 "cosmo_dispersion_energy": -24.28, 
			 "cosmo_repulsion_energy": 1.8, 
			 "cosmo_total_nonelectrostatic_energy": 11.06, 
			 "SMD_solvation_energy": 2.78 
		},
		"coords": [
			{
				"x": 1.2011592118,
				"y": -3.8156626427,
				"z": 3.8440906062,
				"element": "F" 
			},
			{
				"x": 1.1104043396,
				"y": -2.488307216,
				"z": 4.1122507763,
				"element": "C" 
			},
			{
				"x": 2.2789808203,
				"y": -2.1247319007,
				"z": 4.6863410344,
				"element": "F" 
			},
			{
				"x": 0.1381987411,
				"y": -2.3593655343,
				"z": 5.0483245339,
				"element": "F" 
			},
			{
				"x": 0.809370924,
				"y": -1.6837056294,
				"z": 2.8899389722,
				"element": "C" 
			},
			{
				"x": 1.7969129778,
				"y": -0.9684099735,
				"z": 2.217463153,
				"element": "C" 
			},
			{
				"x": 1.5821814278,
				"y": -0.2612518077,
				"z": 1.1078849613,
				"element": "N" 
			},
			{
				"x": 0.3374975688,
				"y": -0.2321330559,
				"z": 0.5839028088,
				"element": "C" 
			},
			{
				"x": -0.7309808318,
				"y": -0.9532948959,
				"z": 1.1875545274,
				"element": "C" 
			},
			{
				"x": -0.4822589454,
				"y": -1.6683096742,
				"z": 2.3414950468,
				"element": "C" 
			},
			{
				"x": 0.1812712873,
				"y": 0.5183765613,
				"z": -0.554522532,
				"element": "N" 
			},
			{
				"x": 1.3812529353,
				"y": 1.0921724206,
				"z": -1.198227158,
				"element": "C" 
			},
			{
				"x": 1.1386475947,
				"y": 1.5323110395,
				"z": -2.6458338725,
				"element": "C" 
			},
			{
				"x": 0.7094621858,
				"y": 0.394364544,
				"z": -3.6137461354,
				"element": "C" 
			},
			{
				"x": -0.1821461067,
				"y": -0.6418327353,
				"z": -3.0921080395,
				"element": "N" 
			},
			{
				"x": -1.374116334,
				"y": -0.1896727099,
				"z": -2.3906285888,
				"element": "C" 
			},
			{
				"x": -1.114879803,
				"y": 0.7560819256,
				"z": -1.1733523579,
				"element": "C" 
			},
			{
				"x": 2.8149487924,
				"y": -0.9562958195,
				"z": 2.5999788884,
				"element": "H" 
			},
			{
				"x": -1.7224445967,
				"y": -0.9674221768,
				"z": 0.7534230007,
				"element": "H" 
			},
			{
				"x": -1.2843528054,
				"y": -2.2207557842,
				"z": 2.8215110772,
				"element": "H" 
			},
			{
				"x": 1.7466114905,
				"y": 1.9444920354,
				"z": -0.6097774828,
				"element": "H" 
			},
			{
				"x": 2.1754105149,
				"y": 0.340754095,
				"z": -1.1573301424,
				"element": "H" 
			},
			{
				"x": 2.076959514,
				"y": 1.967090763,
				"z": -3.0115810091,
				"element": "H" 
			},
			{
				"x": 0.4123619091,
				"y": 2.3515094164,
				"z": -2.6766388875,
				"element": "H" 
			},
			{
				"x": 1.6044135643,
				"y": -0.12450583,
				"z": -3.9755387303,
				"element": "H" 
			},
			{
				"x": 0.2393678035,
				"y": 0.8472131352,
				"z": -4.4966366546,
				"element": "H" 
			},
			{
				"x": 0.3432982591,
				"y": -1.256101787,
				"z": -2.4773826514,
				"element": "H" 
			},
			{
				"x": -1.9028442199,
				"y": -1.0865503327,
				"z": -2.0482791869,
				"element": "H" 
			},
			{
				"x": -2.04137533,
				"y": 0.3183061636,
				"z": -3.0988864962,
				"element": "H" 
			},
			{
				"x": -1.1579682144,
				"y": 1.8016166909,
				"z": -1.4899245497,
				"element": "H" 
			},
			{
				"x": -1.9045446748,
				"y": 0.6477207153,
				"z": -0.426964912,
				"element": "H" 
			}
		],
		 "valence_orbital": [ 
			{
				"type": "occ",
				"energy": -0.30145,
				"method": "rhf"
			},
			{
				"type": "occ",
				"energy": -0.28776,
				"method": "rhf"
			},
			{
				"type": "occ",
				"energy": -0.26012,
				"method": "rhf"
			},
			{
				"type": "occ",
				"energy": -0.22764,
				"method": "rhf"
			},
			{
				"type": "occ",
				"energy": -0.20959,
				"method": "rhf"
			},
			{
				"type": "unocc",
				"energy": -0.02458,
				"method": "rhf"
			},
			{
				"type": "unocc",
				"energy": -0.00951,
				"method": "rhf"
			},
			{
				"type": "unocc",
				"energy": 0.06389,
				"method": "rhf"
			},
			{
				"type": "unocc",
				"energy": 0.08606,
				"method": "rhf"
			},
			{
				"type": "unocc",
				"energy": 0.09245,
				"method": "rhf"
			}
		],
		"cosmo_sigma_profile": { 
			"-0.025": 0.0,
			"-0.024": 0.0,
			"-0.023": 0.0,
			"-0.022": 0.0,
			"-0.021": 0.0,
			"-0.02": 0.0,
			"-0.019": 0.0,
			"-0.018": 0.0,
			"-0.017": 0.0,
			"-0.016": 0.0,
			"-0.015": 0.0,
			"-0.014": 0.0,
			"-0.013": 0.0,
			"-0.012": 0.0,
			"-0.011": 0.0,
			"-0.01": 0.0,
			"-0.009": 0.592620717291,
			"-0.008": 2.76987993873,
			"-0.007": 5.84797515078,
			"-0.006": 8.88331080441,
			"-0.005": 12.9047560164,
			"-0.004": 20.7006820454,
			"-0.003": 31.6107570506,
			"-0.002": 27.3063123913,
			"-0.001": 20.3489744702,
			"0.0": 18.1937190841,
			"0.001": 15.9713059874,
			"0.002": 25.7409302876,
			"0.003": 38.7458754857,
			"0.004": 13.6535027069,
			"0.005": 3.09659010688,
			"0.006": 2.93846956233,
			"0.007": 1.44021187379,
			"0.008": 2.26328591557,
			"0.009": 2.43171644855,
			"0.01": 1.63935111633,
			"0.011": 1.30799158798,
			"0.012": 1.55046727192,
			"0.013": 1.17291039713,
			"0.014": 0.861305743197,
			"0.015": 0.806240299832,
			"0.016": 0.530166617026,
			"0.017": 0.559935210243,
			"0.018": 0.412302707645,
			"0.019": 0.0586192436953,
			"0.02": 0.0,
			"0.021": 0.0,
			"0.022": 0.0,
			"0.023": 0.0,
			"0.024": 0.0,
			"0.025": 0.0
		}
	}
}
