{
	 "smiles": "CC12CCC3C(CCC4CC(O)CCC34C)C1(O)CCC2C1=COC(=O)C=C1", 
	 "Tm": 515.15, 
	 "num_atms": 62, 
	 "gaussian": { 
		 "optdone": 1, 
		 "sigma_profile": "yes", 
		 "theory": "DFT", 
		 "functional": "B3LYP", 
		 "basiset": "6-31G**", 
		 "properties": { 
			 "R2extent": 14975.8316, 
			 "electric_dipole_moment_norm": 6.39221995006, 
			 "electric_quadrupole_moment_norm": 46.4812484581, 
			 "total_energy": -1235.92810889, 
			 "HOMO_LUMO_gap": 0.17326, 
			 "cosmo_polarized_energy": -19.55, 
			 "cosmo_cavitation_energy": 52.97, 
			 "cosmo_dispersion_energy": -37.15, 
			 "cosmo_repulsion_energy": 2.69, 
			 "cosmo_total_nonelectrostatic_energy": 18.51, 
			 "SMD_solvation_energy": 8.7 
		},
		"coords": [
			{
				"x": -1.5163898095,
				"y": -1.2408836402,
				"z": -1.5625502076,
				"element": "C" 
			},
			{
				"x": -1.7437051782,
				"y": 0.0222167601,
				"z": -0.7148314068,
				"element": "C" 
			},
			{
				"x": -1.6547485123,
				"y": -0.3687563267,
				"z": 0.8088373697,
				"element": "C" 
			},
			{
				"x": -0.3896332764,
				"y": 0.0717235504,
				"z": 1.5747656395,
				"element": "C" 
			},
			{
				"x": 0.8572333907,
				"y": 0.0223431058,
				"z": 0.6895273741,
				"element": "C" 
			},
			{
				"x": 0.7280095452,
				"y": 0.9921216844,
				"z": -0.5075953725,
				"element": "C" 
			},
			{
				"x": 1.748592828,
				"y": 0.5551503547,
				"z": -1.589336434,
				"element": "C" 
			},
			{
				"x": 3.071744886,
				"y": 0.0457483143,
				"z": -0.9637997001,
				"element": "C" 
			},
			{
				"x": 3.3202604178,
				"y": 0.683716747,
				"z": 0.4140811391,
				"element": "C" 
			},
			{
				"x": 4.7652632568,
				"y": 0.4851839083,
				"z": 0.9257211453,
				"element": "C" 
			},
			{
				"x": 5.0563513513,
				"y": -0.903019678,
				"z": 1.504291523,
				"element": "C" 
			},
			{
				"x": 6.4089305169,
				"y": -1.0185267079,
				"z": 1.9381710983,
				"element": "O" 
			},
			{
				"x": 4.0536088288,
				"y": -1.2210248489,
				"z": 2.6152307818,
				"element": "C" 
			},
			{
				"x": 2.6179689161,
				"y": -1.1423439161,
				"z": 2.0788281765,
				"element": "C" 
			},
			{
				"x": 2.2263664582,
				"y": 0.2223909299,
				"z": 1.4444876836,
				"element": "C" 
			},
			{
				"x": 2.1063972341,
				"y": 1.3005599571,
				"z": 2.5422228445,
				"element": "C" 
			},
			{
				"x": -0.7335220939,
				"y": 1.1776368725,
				"z": -1.0408579414,
				"element": "C" 
			},
			{
				"x": -0.7142696284,
				"y": 1.4449752708,
				"z": -2.4570977031,
				"element": "O" 
			},
			{
				"x": -1.4502149296,
				"y": 2.413089903,
				"z": -0.4701276553,
				"element": "C" 
			},
			{
				"x": -2.9228982304,
				"y": 2.2323197848,
				"z": -0.8763860616,
				"element": "C" 
			},
			{
				"x": -3.1652690729,
				"y": 0.6904374453,
				"z": -0.9790596018,
				"element": "C" 
			},
			{
				"x": -3.9101398572,
				"y": 0.2888238022,
				"z": -2.2382453155,
				"element": "C" 
			},
			{
				"x": -5.0224275602,
				"y": -0.4837787014,
				"z": -2.152245395,
				"element": "C" 
			},
			{
				"x": -5.7621640895,
				"y": -0.8767798545,
				"z": -3.2088050347,
				"element": "O" 
			},
			{
				"x": -5.4407370991,
				"y": -0.511529016,
				"z": -4.5335278481,
				"element": "C" 
			},
			{
				"x": -6.1578906554,
				"y": -0.9187309949,
				"z": -5.4170935923,
				"element": "O" 
			},
			{
				"x": -4.2637989861,
				"y": 0.3270677748,
				"z": -4.6531264934,
				"element": "C" 
			},
			{
				"x": -3.5396480876,
				"y": 0.7066985966,
				"z": -3.5678216732,
				"element": "C" 
			},
			{
				"x": -1.5384599688,
				"y": -1.037893182,
				"z": -2.6370359553,
				"element": "H" 
			},
			{
				"x": -2.3032211655,
				"y": -1.9772242563,
				"z": -1.3683327783,
				"element": "H" 
			},
			{
				"x": -0.560266252,
				"y": -1.7163063675,
				"z": -1.3219710223,
				"element": "H" 
			},
			{
				"x": -1.7385144154,
				"y": -1.4599586659,
				"z": 0.8749279067,
				"element": "H" 
			},
			{
				"x": -2.5244095015,
				"y": 0.0234981717,
				"z": 1.3463939889,
				"element": "H" 
			},
			{
				"x": -0.5218380318,
				"y": 1.0841100169,
				"z": 1.9712683629,
				"element": "H" 
			},
			{
				"x": -0.2714576877,
				"y": -0.5776682156,
				"z": 2.449947136,
				"element": "H" 
			},
			{
				"x": 0.8906994738,
				"y": -0.9922434013,
				"z": 0.2665476092,
				"element": "H" 
			},
			{
				"x": 1.0356910078,
				"y": 1.9885137732,
				"z": -0.1634046451,
				"element": "H" 
			},
			{
				"x": 1.3315426806,
				"y": -0.2513149758,
				"z": -2.2082821957,
				"element": "H" 
			},
			{
				"x": 1.9464963823,
				"y": 1.3950343701,
				"z": -2.2622633083,
				"element": "H" 
			},
			{
				"x": 3.0480460445,
				"y": -1.0465855796,
				"z": -0.8699120322,
				"element": "H" 
			},
			{
				"x": 3.9072375634,
				"y": 0.269302003,
				"z": -1.636743871,
				"element": "H" 
			},
			{
				"x": 3.2005802751,
				"y": 1.7674151843,
				"z": 0.2775293195,
				"element": "H" 
			},
			{
				"x": 4.9728384702,
				"y": 1.2199739372,
				"z": 1.7180071149,
				"element": "H" 
			},
			{
				"x": 5.4753128096,
				"y": 0.6995535669,
				"z": 0.1185612028,
				"element": "H" 
			},
			{
				"x": 4.9597054496,
				"y": -1.6599465821,
				"z": 0.7152609456,
				"element": "H" 
			},
			{
				"x": 6.5493006847,
				"y": -0.3552665216,
				"z": 2.6280388487,
				"element": "H" 
			},
			{
				"x": 4.2006651261,
				"y": -0.5113731466,
				"z": 3.4426425938,
				"element": "H" 
			},
			{
				"x": 4.2551572231,
				"y": -2.2194716685,
				"z": 3.018942066,
				"element": "H" 
			},
			{
				"x": 1.9062295649,
				"y": -1.3884497144,
				"z": 2.8761134469,
				"element": "H" 
			},
			{
				"x": 2.5020790033,
				"y": -1.9295090973,
				"z": 1.3212655184,
				"element": "H" 
			},
			{
				"x": 1.4435677288,
				"y": 0.9865692468,
				"z": 3.3541413984,
				"element": "H" 
			},
			{
				"x": 3.0792185705,
				"y": 1.5259530352,
				"z": 2.9883948089,
				"element": "H" 
			},
			{
				"x": 1.7157601609,
				"y": 2.2398440662,
				"z": 2.1347409446,
				"element": "H" 
			},
			{
				"x": -0.2911470953,
				"y": 0.7003979272,
				"z": -2.9019899073,
				"element": "H" 
			},
			{
				"x": -1.3406172937,
				"y": 2.443466862,
				"z": 0.6171665388,
				"element": "H" 
			},
			{
				"x": -1.0053158096,
				"y": 3.3282452339,
				"z": -0.8722768192,
				"element": "H" 
			},
			{
				"x": -3.1016082952,
				"y": 2.7057341113,
				"z": -1.8448629329,
				"element": "H" 
			},
			{
				"x": -3.611686778,
				"y": 2.6997796173,
				"z": -0.1664102102,
				"element": "H" 
			},
			{
				"x": -3.8130277371,
				"y": 0.3765871624,
				"z": -0.1544244798,
				"element": "H" 
			},
			{
				"x": -5.4334149498,
				"y": -0.8573829596,
				"z": -1.2189777044,
				"element": "H" 
			},
			{
				"x": -4.0008568611,
				"y": 0.6304960886,
				"z": -5.6598599605,
				"element": "H" 
			},
			{
				"x": -2.6561569403,
				"y": 1.3264888825,
				"z": -3.6823992675,
				"element": "H" 
			}
		],
		 "valence_orbital": [ 
			{
				"type": "occ",
				"energy": -0.28649,
				"method": "rhf"
			},
			{
				"type": "occ",
				"energy": -0.26713,
				"method": "rhf"
			},
			{
				"type": "occ",
				"energy": -0.26184,
				"method": "rhf"
			},
			{
				"type": "occ",
				"energy": -0.25878,
				"method": "rhf"
			},
			{
				"type": "occ",
				"energy": -0.2245,
				"method": "rhf"
			},
			{
				"type": "unocc",
				"energy": -0.05124,
				"method": "rhf"
			},
			{
				"type": "unocc",
				"energy": 0.01381,
				"method": "rhf"
			},
			{
				"type": "unocc",
				"energy": 0.05277,
				"method": "rhf"
			},
			{
				"type": "unocc",
				"energy": 0.06114,
				"method": "rhf"
			},
			{
				"type": "unocc",
				"energy": 0.06329,
				"method": "rhf"
			}
		],
		"cosmo_sigma_profile": { 
			"-0.025": 0.0,
			"-0.024": 0.0,
			"-0.023": 0.0,
			"-0.022": 0.0,
			"-0.021": 0.0,
			"-0.02": 0.0,
			"-0.019": 0.0,
			"-0.018": 0.0,
			"-0.017": 0.0,
			"-0.016": 0.0,
			"-0.015": 0.112415929147,
			"-0.014": 0.738359888156,
			"-0.013": 1.31990205893,
			"-0.012": 1.58043776554,
			"-0.011": 1.45249288265,
			"-0.01": 2.0258330401,
			"-0.009": 3.50202422899,
			"-0.008": 3.69934501287,
			"-0.007": 6.66943607381,
			"-0.006": 5.55167596306,
			"-0.005": 8.72281000781,
			"-0.004": 13.1575975816,
			"-0.003": 38.880705628,
			"-0.002": 69.2061200746,
			"-0.001": 63.5062495317,
			"0.0": 60.7392691581,
			"0.001": 46.5534856842,
			"0.002": 17.9820002336,
			"0.003": 5.93657104775,
			"0.004": 4.64325969971,
			"0.005": 3.99595611645,
			"0.006": 5.18877909582,
			"0.007": 4.76681884399,
			"0.008": 4.16298205085,
			"0.009": 4.7696456981,
			"0.01": 3.79459755718,
			"0.011": 5.00914499558,
			"0.012": 7.38737402105,
			"0.013": 7.4986720902,
			"0.014": 3.45914744534,
			"0.015": 2.20299964974,
			"0.016": 0.0484412894988,
			"0.017": 0.0,
			"0.018": 0.0,
			"0.019": 0.0,
			"0.02": 0.0,
			"0.021": 0.0,
			"0.022": 0.0,
			"0.023": 0.0,
			"0.024": 0.0,
			"0.025": 0.0
		}
	}
}
