{
	 "smiles": "OC(=O)C1=CC=C(C=C1)C1=CC=CC=C1", 
	 "Tm": 499.15, 
	 "num_atms": 25, 
	 "gaussian": { 
		 "optdone": 1, 
		 "sigma_profile": "yes", 
		 "theory": "DFT", 
		 "functional": "B3LYP", 
		 "basiset": "6-31G**", 
		 "properties": { 
			 "R2extent": 4503.9497, 
			 "electric_dipole_moment_norm": 5.28680021469, 
			 "electric_quadrupole_moment_norm": 17.4315418085, 
			 "total_energy": -651.874953279, 
			 "HOMO_LUMO_gap": 0.17912, 
			 "cosmo_polarized_energy": -14.96, 
			 "cosmo_cavitation_energy": 29.59, 
			 "cosmo_dispersion_energy": -21.76, 
			 "cosmo_repulsion_energy": 1.67, 
			 "cosmo_total_nonelectrostatic_energy": 9.49, 
			 "SMD_solvation_energy": 5.97 
		},
		"coords": [
			{
				"x": 0.8746361385,
				"y": 4.5925735983,
				"z": 1.4481044761,
				"element": "O" 
			},
			{
				"x": 1.4541975522,
				"y": 3.6950678183,
				"z": 0.6043634819,
				"element": "C" 
			},
			{
				"x": 2.3630774317,
				"y": 4.0434506258,
				"z": -0.1125676774,
				"element": "O" 
			},
			{
				"x": 0.9106622297,
				"y": 2.299709602,
				"z": 0.6259254974,
				"element": "C" 
			},
			{
				"x": -0.3635896456,
				"y": 1.9751967035,
				"z": 1.1124982647,
				"element": "C" 
			},
			{
				"x": -0.8152533531,
				"y": 0.6587217963,
				"z": 1.0925909337,
				"element": "C" 
			},
			{
				"x": -0.0094431708,
				"y": -0.3753309508,
				"z": 0.5862705937,
				"element": "C" 
			},
			{
				"x": 1.2620778078,
				"y": -0.0370013677,
				"z": 0.0866028525,
				"element": "C" 
			},
			{
				"x": 1.7114402614,
				"y": 1.2774938619,
				"z": 0.0982752999,
				"element": "C" 
			},
			{
				"x": -0.4882371054,
				"y": -1.7800482768,
				"z": 0.5725261681,
				"element": "C" 
			},
			{
				"x": -1.8328708563,
				"y": -2.0820925773,
				"z": 0.2965929073,
				"element": "C" 
			},
			{
				"x": -2.2808998307,
				"y": -3.4019965421,
				"z": 0.2840077327,
				"element": "C" 
			},
			{
				"x": -1.3944721372,
				"y": -4.4478165172,
				"z": 0.5484551519,
				"element": "C" 
			},
			{
				"x": -0.0558461428,
				"y": -4.1626992783,
				"z": 0.8244326634,
				"element": "C" 
			},
			{
				"x": 0.3928826661,
				"y": -2.8430032315,
				"z": 0.8354950456,
				"element": "C" 
			},
			{
				"x": 0.2870693658,
				"y": 4.1370931948,
				"z": 2.0664976737,
				"element": "H" 
			},
			{
				"x": -1.0322144177,
				"y": 2.7480373916,
				"z": 1.4850890298,
				"element": "H" 
			},
			{
				"x": -1.7976103541,
				"y": 0.4256354449,
				"z": 1.4911083604,
				"element": "H" 
			},
			{
				"x": 1.8902539103,
				"y": -0.8123077305,
				"z": -0.3408691943,
				"element": "H" 
			},
			{
				"x": 2.6832591186,
				"y": 1.5404765228,
				"z": -0.3054938724,
				"element": "H" 
			},
			{
				"x": -2.5247084738,
				"y": -1.2785233514,
				"z": 0.0620054914,
				"element": "H" 
			},
			{
				"x": -3.3221143967,
				"y": -3.6140795334,
				"z": 0.0586429913,
				"element": "H" 
			},
			{
				"x": -1.743717291,
				"y": -5.4761006178,
				"z": 0.5389251982,
				"element": "H" 
			},
			{
				"x": 0.6398663201,
				"y": -4.9687172332,
				"z": 1.0393409864,
				"element": "H" 
			},
			{
				"x": 1.430254373,
				"y": -2.6307393522,
				"z": 1.076579944,
				"element": "H" 
			}
		],
		 "valence_orbital": [ 
			{
				"type": "occ",
				"energy": -0.28901,
				"method": "rhf"
			},
			{
				"type": "occ",
				"energy": -0.27302,
				"method": "rhf"
			},
			{
				"type": "occ",
				"energy": -0.26819,
				"method": "rhf"
			},
			{
				"type": "occ",
				"energy": -0.26112,
				"method": "rhf"
			},
			{
				"type": "occ",
				"energy": -0.23928,
				"method": "rhf"
			},
			{
				"type": "unocc",
				"energy": -0.06016,
				"method": "rhf"
			},
			{
				"type": "unocc",
				"energy": -0.02281,
				"method": "rhf"
			},
			{
				"type": "unocc",
				"energy": -0.01208,
				"method": "rhf"
			},
			{
				"type": "unocc",
				"energy": -0.00347,
				"method": "rhf"
			},
			{
				"type": "unocc",
				"energy": 0.05328,
				"method": "rhf"
			}
		],
		"cosmo_sigma_profile": { 
			"-0.025": 0.0,
			"-0.024": 0.0,
			"-0.023": 0.0,
			"-0.022": 0.0,
			"-0.021": 0.0,
			"-0.02": 0.0,
			"-0.019": 0.227694128495,
			"-0.018": 0.99330818074,
			"-0.017": 0.936561180657,
			"-0.016": 0.645199432206,
			"-0.015": 0.619425414976,
			"-0.014": 1.15903067918,
			"-0.013": 1.06194991722,
			"-0.012": 1.69975426559,
			"-0.011": 0.985613600482,
			"-0.01": 0.962705572055,
			"-0.009": 0.886445547715,
			"-0.008": 1.83805020312,
			"-0.007": 3.19943677098,
			"-0.006": 16.4094504909,
			"-0.005": 18.3429108404,
			"-0.004": 18.1534442986,
			"-0.003": 16.4108893466,
			"-0.002": 12.8053380174,
			"-0.001": 14.7103776062,
			"0.0": 12.8690550011,
			"0.001": 15.0268998229,
			"0.002": 19.78673073,
			"0.003": 22.7019690885,
			"0.004": 12.9936627623,
			"0.005": 12.1378002553,
			"0.006": 5.0048313513,
			"0.007": 2.3359229706,
			"0.008": 2.76853477612,
			"0.009": 2.9772147175,
			"0.01": 4.62739523971,
			"0.011": 5.32478387868,
			"0.012": 5.25983384771,
			"0.013": 1.74378429821,
			"0.014": 0.0779359032983,
			"0.015": 0.0,
			"0.016": 0.0,
			"0.017": 0.0,
			"0.018": 0.0,
			"0.019": 0.0,
			"0.02": 0.0,
			"0.021": 0.0,
			"0.022": 0.0,
			"0.023": 0.0,
			"0.024": 0.0,
			"0.025": 0.0
		}
	}
}
