{
	 "smiles": "[O-][N+](=O)C1=CC(=C(Cl)C=C1C(C(=NNC1=CC=CC=C1)C1=CC=CC=C1)C1=CC=CC=C1)[N+]([O-])=O", 
	 "Tm": 469.15, 
	 "num_atms": 54, 
	 "gaussian": { 
		 "optdone": 1, 
		 "sigma_profile": "yes", 
		 "theory": "DFT", 
		 "functional": "B3LYP", 
		 "basiset": "6-31G**", 
		 "properties": { 
			 "R2extent": 18384.5424, 
			 "electric_dipole_moment_norm": 4.37342801015, 
			 "electric_quadrupole_moment_norm": 42.8163897091, 
			 "total_energy": -1982.05043299, 
			 "HOMO_LUMO_gap": 0.08073, 
			 "cosmo_polarized_energy": -20.74, 
			 "cosmo_cavitation_energy": 61.43, 
			 "cosmo_dispersion_energy": -39.1, 
			 "cosmo_repulsion_energy": 2.98, 
			 "cosmo_total_nonelectrostatic_energy": 25.31, 
			 "SMD_solvation_energy": 13.41 
		},
		"coords": [
			{
				"x": -2.3542775459,
				"y": 0.4097819974,
				"z": -0.6123969177,
				"element": "O" 
			},
			{
				"x": -2.4433181043,
				"y": -0.1033814231,
				"z": -1.7272193719,
				"element": "N" 
			},
			{
				"x": -3.4275656784,
				"y": -0.7001240838,
				"z": -2.1518576235,
				"element": "O" 
			},
			{
				"x": -1.2978488822,
				"y": 0.0477059657,
				"z": -2.6400667525,
				"element": "C" 
			},
			{
				"x": -1.6441308194,
				"y": 0.2828864721,
				"z": -3.9635679952,
				"element": "C" 
			},
			{
				"x": -0.6602970487,
				"y": 0.4903922506,
				"z": -4.9234485693,
				"element": "C" 
			},
			{
				"x": 0.6888301155,
				"y": 0.4622152801,
				"z": -4.5446297162,
				"element": "C" 
			},
			{
				"x": 2.0088475968,
				"y": 0.783948404,
				"z": -5.6256890264,
				"element": "Cl" 
			},
			{
				"x": 1.0022663575,
				"y": 0.2030015038,
				"z": -3.2081818339,
				"element": "C" 
			},
			{
				"x": 0.043566979,
				"y": -0.019755691,
				"z": -2.2115729915,
				"element": "C" 
			},
			{
				"x": 0.5727943396,
				"y": -0.4218620816,
				"z": -0.8181181514,
				"element": "C" 
			},
			{
				"x": 0.3542867603,
				"y": 0.6285025449,
				"z": 0.2722609908,
				"element": "C" 
			},
			{
				"x": 0.0754963553,
				"y": 0.2258711741,
				"z": 1.4614097512,
				"element": "N" 
			},
			{
				"x": -0.0151367681,
				"y": 1.1074427874,
				"z": 2.4709475022,
				"element": "N" 
			},
			{
				"x": -0.2915868553,
				"y": 0.6919743008,
				"z": 3.774489749,
				"element": "C" 
			},
			{
				"x": -0.4946481812,
				"y": -0.6595793582,
				"z": 4.0953442637,
				"element": "C" 
			},
			{
				"x": -0.7689619304,
				"y": -1.0181961019,
				"z": 5.4132151963,
				"element": "C" 
			},
			{
				"x": -0.8450260947,
				"y": -0.056476166,
				"z": 6.4239747435,
				"element": "C" 
			},
			{
				"x": -0.640917527,
				"y": 1.2859464999,
				"z": 6.0983490692,
				"element": "C" 
			},
			{
				"x": -0.3659188215,
				"y": 1.66314869,
				"z": 4.7861457737,
				"element": "C" 
			},
			{
				"x": 0.6260482161,
				"y": 2.0582347436,
				"z": -0.0891363477,
				"element": "C" 
			},
			{
				"x": -0.4163028305,
				"y": 2.9981119263,
				"z": -0.1584243937,
				"element": "C" 
			},
			{
				"x": -0.1480187044,
				"y": 4.3292712555,
				"z": -0.4836023156,
				"element": "C" 
			},
			{
				"x": 1.1604496456,
				"y": 4.7408609038,
				"z": -0.7431972848,
				"element": "C" 
			},
			{
				"x": 2.204640097,
				"y": 3.8164398198,
				"z": -0.6716326668,
				"element": "C" 
			},
			{
				"x": 1.939688605,
				"y": 2.486304113,
				"z": -0.3442653899,
				"element": "C" 
			},
			{
				"x": 0.2068401168,
				"y": -1.8755022743,
				"z": -0.4953887523,
				"element": "C" 
			},
			{
				"x": -0.9602781221,
				"y": -2.2627377426,
				"z": 0.179682863,
				"element": "C" 
			},
			{
				"x": -1.2393995963,
				"y": -3.6145115964,
				"z": 0.3876039849,
				"element": "C" 
			},
			{
				"x": -0.3658876802,
				"y": -4.6013711002,
				"z": -0.0716670168,
				"element": "C" 
			},
			{
				"x": 0.7988326532,
				"y": -4.2274699081,
				"z": -0.741934323,
				"element": "C" 
			},
			{
				"x": 1.0776468308,
				"y": -2.8767759271,
				"z": -0.9496179765,
				"element": "C" 
			},
			{
				"x": -1.1270440657,
				"y": 0.7208745354,
				"z": -6.3022702512,
				"element": "N" 
			},
			{
				"x": -2.2445600502,
				"y": 1.2198484832,
				"z": -6.4269855119,
				"element": "O" 
			},
			{
				"x": -0.3931086852,
				"y": 0.3809974541,
				"z": -7.2229207953,
				"element": "O" 
			},
			{
				"x": -2.6851673712,
				"y": 0.3110017137,
				"z": -4.2568096489,
				"element": "H" 
			},
			{
				"x": 2.0517561044,
				"y": 0.1744383142,
				"z": -2.9388590376,
				"element": "H" 
			},
			{
				"x": 1.6611210876,
				"y": -0.4348012706,
				"z": -0.9686543725,
				"element": "H" 
			},
			{
				"x": 0.1456026541,
				"y": 2.0943933549,
				"z": 2.2963161824,
				"element": "H" 
			},
			{
				"x": -0.4336273259,
				"y": -1.4044875456,
				"z": 3.3114746938,
				"element": "H" 
			},
			{
				"x": -0.9245375572,
				"y": -2.0670531519,
				"z": 5.6511867735,
				"element": "H" 
			},
			{
				"x": -1.0595807558,
				"y": -0.3480559687,
				"z": 7.447318243,
				"element": "H" 
			},
			{
				"x": -0.6954975849,
				"y": 2.0494532069,
				"z": 6.8694041005,
				"element": "H" 
			},
			{
				"x": -0.2087330783,
				"y": 2.7110408397,
				"z": 4.5404546501,
				"element": "H" 
			},
			{
				"x": -1.4348226834,
				"y": 2.6731005769,
				"z": 0.0265751425,
				"element": "H" 
			},
			{
				"x": -0.9643317218,
				"y": 5.0437957865,
				"z": -0.5388549226,
				"element": "H" 
			},
			{
				"x": 1.366157529,
				"y": 5.7763089533,
				"z": -0.9982313823,
				"element": "H" 
			},
			{
				"x": 3.2258875734,
				"y": 4.1314541902,
				"z": -0.865770368,
				"element": "H" 
			},
			{
				"x": 2.7595126054,
				"y": 1.7758550701,
				"z": -0.2742963665,
				"element": "H" 
			},
			{
				"x": -1.6406574148,
				"y": -1.5129258533,
				"z": 0.5600640497,
				"element": "H" 
			},
			{
				"x": -2.1466075137,
				"y": -3.8941091055,
				"z": 0.9154855572,
				"element": "H" 
			},
			{
				"x": -0.5889303503,
				"y": -5.6511892407,
				"z": 0.0951459235,
				"element": "H" 
			},
			{
				"x": 1.491994008,
				"y": -4.9827170071,
				"z": -1.1010151182,
				"element": "H" 
			},
			{
				"x": 1.9893611182,
				"y": -2.5968205143,
				"z": -1.4727660121,
				"element": "H" 
			}
		],
		 "valence_orbital": [ 
			{
				"type": "occ",
				"energy": -0.26611,
				"method": "rhf"
			},
			{
				"type": "occ",
				"energy": -0.25442,
				"method": "rhf"
			},
			{
				"type": "occ",
				"energy": -0.24968,
				"method": "rhf"
			},
			{
				"type": "occ",
				"energy": -0.24401,
				"method": "rhf"
			},
			{
				"type": "occ",
				"energy": -0.19255,
				"method": "rhf"
			},
			{
				"type": "unocc",
				"energy": -0.11182,
				"method": "rhf"
			},
			{
				"type": "unocc",
				"energy": -0.09812,
				"method": "rhf"
			},
			{
				"type": "unocc",
				"energy": -0.04923,
				"method": "rhf"
			},
			{
				"type": "unocc",
				"energy": -0.03362,
				"method": "rhf"
			},
			{
				"type": "unocc",
				"energy": -0.02815,
				"method": "rhf"
			}
		],
		"cosmo_sigma_profile": { 
			"-0.025": 0.0,
			"-0.024": 0.0,
			"-0.023": 0.0,
			"-0.022": 0.0,
			"-0.021": 0.0,
			"-0.02": 0.0,
			"-0.019": 0.0,
			"-0.018": 0.0,
			"-0.017": 0.0,
			"-0.016": 0.0,
			"-0.015": 0.0,
			"-0.014": 0.0,
			"-0.013": 0.0,
			"-0.012": 0.38831655658,
			"-0.011": 1.25549396946,
			"-0.01": 3.05896129826,
			"-0.009": 5.99933559602,
			"-0.008": 9.21285140498,
			"-0.007": 10.1839970032,
			"-0.006": 22.3082321894,
			"-0.005": 31.8183554429,
			"-0.004": 39.4502518016,
			"-0.003": 43.8859816167,
			"-0.002": 35.963348293,
			"-0.001": 35.2717615061,
			"0.0": 29.6050379915,
			"0.001": 31.7351040691,
			"0.002": 34.3102600336,
			"0.003": 30.438537549,
			"0.004": 34.8060933383,
			"0.005": 31.3513560848,
			"0.006": 26.2766735839,
			"0.007": 23.9203698251,
			"0.008": 9.02674447789,
			"0.009": 5.16211104688,
			"0.01": 0.331252209653,
			"0.011": 0.0,
			"0.012": 0.0,
			"0.013": 0.0,
			"0.014": 0.0,
			"0.015": 0.0,
			"0.016": 0.0,
			"0.017": 0.0,
			"0.018": 0.0,
			"0.019": 0.0,
			"0.02": 0.0,
			"0.021": 0.0,
			"0.022": 0.0,
			"0.023": 0.0,
			"0.024": 0.0,
			"0.025": 0.0
		}
	}
}
