{
	 "smiles": "CCOC1=C(C=CC=C1)C(=O)NC(C(C)C)C(O)=O", 
	 "Tm": 401.15, 
	 "num_atms": 38, 
	 "gaussian": { 
		 "optdone": 1, 
		 "sigma_profile": "yes", 
		 "theory": "DFT", 
		 "functional": "B3LYP", 
		 "basiset": "6-31G**", 
		 "properties": { 
			 "R2extent": 5527.6164, 
			 "electric_dipole_moment_norm": 5.19959632087, 
			 "electric_quadrupole_moment_norm": 22.7850057084, 
			 "total_energy": -900.620126642, 
			 "HOMO_LUMO_gap": 0.20678, 
			 "cosmo_polarized_energy": -19.29, 
			 "cosmo_cavitation_energy": 40.63, 
			 "cosmo_dispersion_energy": -26.13, 
			 "cosmo_repulsion_energy": 2.04, 
			 "cosmo_total_nonelectrostatic_energy": 16.54, 
			 "SMD_solvation_energy": 8.66 
		},
		"coords": [
			{
				"x": -2.4794151934,
				"y": 2.9363504414,
				"z": -2.4154884377,
				"element": "C" 
			},
			{
				"x": -3.0664185014,
				"y": 1.9156417444,
				"z": -1.4558291474,
				"element": "C" 
			},
			{
				"x": -2.205283005,
				"y": 0.7733941613,
				"z": -1.4581944735,
				"element": "O" 
			},
			{
				"x": -2.6152503813,
				"y": -0.3740029866,
				"z": -0.8408040932,
				"element": "C" 
			},
			{
				"x": -1.7769514285,
				"y": -1.4960691825,
				"z": -1.0075289419,
				"element": "C" 
			},
			{
				"x": -2.1623030923,
				"y": -2.7195332241,
				"z": -0.4555930142,
				"element": "C" 
			},
			{
				"x": -3.3287878184,
				"y": -2.8342623565,
				"z": 0.3018132068,
				"element": "C" 
			},
			{
				"x": -4.1335871173,
				"y": -1.7117473148,
				"z": 0.4865736352,
				"element": "C" 
			},
			{
				"x": -3.7876779587,
				"y": -0.4839764112,
				"z": -0.0830689591,
				"element": "C" 
			},
			{
				"x": -0.5452350841,
				"y": -1.4531944042,
				"z": -1.8805018136,
				"element": "C" 
			},
			{
				"x": -0.4647444804,
				"y": -2.1479566322,
				"z": -2.8857619203,
				"element": "O" 
			},
			{
				"x": 0.4989471987,
				"y": -0.6529548264,
				"z": -1.4877041201,
				"element": "N" 
			},
			{
				"x": 0.6028748193,
				"y": 0.1801219675,
				"z": -0.3106980353,
				"element": "C" 
			},
			{
				"x": 1.8039097692,
				"y": -0.2076281814,
				"z": 0.6118382568,
				"element": "C" 
			},
			{
				"x": 1.5808866447,
				"y": -1.5958181773,
				"z": 1.2250378761,
				"element": "C" 
			},
			{
				"x": 3.1553801104,
				"y": -0.1284174266,
				"z": -0.113705995,
				"element": "C" 
			},
			{
				"x": 0.7080964443,
				"y": 1.6478608787,
				"z": -0.7098042565,
				"element": "C" 
			},
			{
				"x": 0.3362634312,
				"y": 2.4645769433,
				"z": 0.3063888861,
				"element": "O" 
			},
			{
				"x": 1.1172145544,
				"y": 2.0657257421,
				"z": -1.7700249364,
				"element": "O" 
			},
			{
				"x": -3.0984188921,
				"y": 3.8389907285,
				"z": -2.4232364608,
				"element": "H" 
			},
			{
				"x": -1.4621783387,
				"y": 3.2098600164,
				"z": -2.1249261272,
				"element": "H" 
			},
			{
				"x": -2.4417609293,
				"y": 2.5305736695,
				"z": -3.4298123411,
				"element": "H" 
			},
			{
				"x": -3.1393074116,
				"y": 2.3215633589,
				"z": -0.4368874932,
				"element": "H" 
			},
			{
				"x": -4.0738849514,
				"y": 1.6186968155,
				"z": -1.7754947996,
				"element": "H" 
			},
			{
				"x": -1.5328817238,
				"y": -3.586448231,
				"z": -0.6319113177,
				"element": "H" 
			},
			{
				"x": -3.6077555127,
				"y": -3.7897935207,
				"z": 0.7342809784,
				"element": "H" 
			},
			{
				"x": -5.0454347309,
				"y": -1.7837653368,
				"z": 1.0726104187,
				"element": "H" 
			},
			{
				"x": -4.4321386377,
				"y": 0.3743778159,
				"z": 0.0632439878,
				"element": "H" 
			},
			{
				"x": 1.2261332265,
				"y": -0.5642391881,
				"z": -2.1862123593,
				"element": "H" 
			},
			{
				"x": -0.309157257,
				"y": 0.0621968668,
				"z": 0.2757339278,
				"element": "H" 
			},
			{
				"x": 1.8034668271,
				"y": 0.5322543229,
				"z": 1.4227268514,
				"element": "H" 
			},
			{
				"x": 1.5414331978,
				"y": -2.3645732155,
				"z": 0.4467198669,
				"element": "H" 
			},
			{
				"x": 2.3993454611,
				"y": -1.8495565776,
				"z": 1.906450571,
				"element": "H" 
			},
			{
				"x": 0.6445698421,
				"y": -1.6401776726,
				"z": 1.7912980091,
				"element": "H" 
			},
			{
				"x": 3.323966699,
				"y": 0.8513992919,
				"z": -0.5712398667,
				"element": "H" 
			},
			{
				"x": 3.2254371522,
				"y": -0.8857826897,
				"z": -0.9024386035,
				"element": "H" 
			},
			{
				"x": 3.9731742448,
				"y": -0.3163729208,
				"z": 0.5889389778,
				"element": "H" 
			},
			{
				"x": 0.5007728235,
				"y": 3.3724857116,
				"z": -0.0001879365,
				"element": "H" 
			}
		],
		 "valence_orbital": [ 
			{
				"type": "occ",
				"energy": -0.28403,
				"method": "rhf"
			},
			{
				"type": "occ",
				"energy": -0.2634,
				"method": "rhf"
			},
			{
				"type": "occ",
				"energy": -0.24535,
				"method": "rhf"
			},
			{
				"type": "occ",
				"energy": -0.23796,
				"method": "rhf"
			},
			{
				"type": "occ",
				"energy": -0.22384,
				"method": "rhf"
			},
			{
				"type": "unocc",
				"energy": -0.01706,
				"method": "rhf"
			},
			{
				"type": "unocc",
				"energy": -0.0007,
				"method": "rhf"
			},
			{
				"type": "unocc",
				"energy": 0.00722,
				"method": "rhf"
			},
			{
				"type": "unocc",
				"energy": 0.0413,
				"method": "rhf"
			},
			{
				"type": "unocc",
				"energy": 0.05796,
				"method": "rhf"
			}
		],
		"cosmo_sigma_profile": { 
			"-0.025": 0.0,
			"-0.024": 0.0,
			"-0.023": 0.0,
			"-0.022": 0.0,
			"-0.021": 0.0,
			"-0.02": 0.0,
			"-0.019": 0.0880498472702,
			"-0.018": 0.839192488632,
			"-0.017": 0.904384430897,
			"-0.016": 0.724649646118,
			"-0.015": 0.122805374114,
			"-0.014": 1.25074356397,
			"-0.013": 0.804236427819,
			"-0.012": 1.14381917698,
			"-0.011": 1.34548908798,
			"-0.01": 0.864996635923,
			"-0.009": 1.49739661984,
			"-0.008": 2.10513526434,
			"-0.007": 3.6424000875,
			"-0.006": 11.8661858002,
			"-0.005": 17.3526037834,
			"-0.004": 27.9866324344,
			"-0.003": 32.7123364358,
			"-0.002": 33.7144222237,
			"-0.001": 30.4851144539,
			"0.0": 29.807126487,
			"0.001": 24.1948455069,
			"0.002": 14.044980068,
			"0.003": 11.6248223824,
			"0.004": 13.4716729731,
			"0.005": 11.8379358674,
			"0.006": 6.8335654565,
			"0.007": 5.63787199015,
			"0.008": 4.90265082034,
			"0.009": 4.58779567744,
			"0.01": 2.60579885315,
			"0.011": 5.61783046709,
			"0.012": 4.13199697383,
			"0.013": 4.66780589547,
			"0.014": 4.48394993716,
			"0.015": 0.81354406823,
			"0.016": 0.0,
			"0.017": 0.0,
			"0.018": 0.0,
			"0.019": 0.0,
			"0.02": 0.0,
			"0.021": 0.0,
			"0.022": 0.0,
			"0.023": 0.0,
			"0.024": 0.0,
			"0.0": 0.0
		}
	}
}
