{
	 "smiles": "CC1=NC(CC2=NN=C(S)O2)=CS1", 
	 "Tm": 468.15, 
	 "num_atms": 20, 
	 "gaussian": { 
		 "optdone": 1, 
		 "sigma_profile": "yes", 
		 "theory": "DFT", 
		 "functional": "B3LYP", 
		 "basiset": "6-31G**", 
		 "properties": { 
			 "R2extent": 5099.5797, 
			 "electric_dipole_moment_norm": 4.30604104021, 
			 "electric_quadrupole_moment_norm": 14.0626394734, 
			 "total_energy": -1306.77125838, 
			 "HOMO_LUMO_gap": 0.21079, 
			 "cosmo_polarized_energy": -13.75, 
			 "cosmo_cavitation_energy": 29.13, 
			 "cosmo_dispersion_energy": -22.03, 
			 "cosmo_repulsion_energy": 1.68, 
			 "cosmo_total_nonelectrostatic_energy": 8.78, 
			 "SMD_solvation_energy": 1.17 
		},
		"coords": [
			{
				"x": -0.7875777715,
				"y": -2.2682747341,
				"z": 2.5015142491,
				"element": "C" 
			},
			{
				"x": -0.3914991646,
				"y": -1.3139337864,
				"z": 1.4165476669,
				"element": "C" 
			},
			{
				"x": -1.1244134472,
				"y": -1.0420979179,
				"z": 0.3744411448,
				"element": "N" 
			},
			{
				"x": -0.5107603033,
				"y": -0.1284945448,
				"z": -0.4583468908,
				"element": "C" 
			},
			{
				"x": -1.2169313849,
				"y": 0.2678307792,
				"z": -1.7391340823,
				"element": "C" 
			},
			{
				"x": -1.0565339321,
				"y": 1.7069756194,
				"z": -2.0866561217,
				"element": "C" 
			},
			{
				"x": -0.2780835646,
				"y": 2.2486825229,
				"z": -2.9655901365,
				"element": "N" 
			},
			{
				"x": -0.4621150822,
				"y": 3.636142932,
				"z": -2.8732774654,
				"element": "N" 
			},
			{
				"x": -1.3469572069,
				"y": 3.8081799705,
				"z": -1.9451523262,
				"element": "C" 
			},
			{
				"x": -2.0227625339,
				"y": 5.3398598852,
				"z": -1.4125131057,
				"element": "S" 
			},
			{
				"x": -1.7823287741,
				"y": 2.6430839083,
				"z": -1.3889891635,
				"element": "O" 
			},
			{
				"x": 0.7150299067,
				"y": 0.3121593565,
				"z": -0.0466144134,
				"element": "C" 
			},
			{
				"x": 1.1403478348,
				"y": -0.4428286847,
				"z": 1.4535088485,
				"element": "S" 
			},
			{
				"x": -0.0784105845,
				"y": -3.0986036739,
				"z": 2.5849696872,
				"element": "H" 
			},
			{
				"x": -0.8349027672,
				"y": -1.7723673073,
				"z": 3.4767359488,
				"element": "H" 
			},
			{
				"x": -1.7735739975,
				"y": -2.6716754295,
				"z": 2.2641159161,
				"element": "H" 
			},
			{
				"x": -0.8321151904,
				"y": -0.3102777612,
				"z": -2.5858428554,
				"element": "H" 
			},
			{
				"x": -2.2781254547,
				"y": 0.026513521,
				"z": -1.6295239565,
				"element": "H" 
			},
			{
				"x": -2.6484636101,
				"y": 4.8147083618,
				"z": -0.3415000218,
				"element": "H" 
			},
			{
				"x": 1.3746770281,
				"y": 1.0137169831,
				"z": -0.5375929222,
				"element": "H" 
			}
		],
		 "valence_orbital": [ 
			{
				"type": "occ",
				"energy": -0.28956,
				"method": "rhf"
			},
			{
				"type": "occ",
				"energy": -0.28452,
				"method": "rhf"
			},
			{
				"type": "occ",
				"energy": -0.281,
				"method": "rhf"
			},
			{
				"type": "occ",
				"energy": -0.25268,
				"method": "rhf"
			},
			{
				"type": "occ",
				"energy": -0.24302,
				"method": "rhf"
			},
			{
				"type": "unocc",
				"energy": -0.03223,
				"method": "rhf"
			},
			{
				"type": "unocc",
				"energy": -0.0164,
				"method": "rhf"
			},
			{
				"type": "unocc",
				"energy": -0.00285,
				"method": "rhf"
			},
			{
				"type": "unocc",
				"energy": 0.01171,
				"method": "rhf"
			},
			{
				"type": "unocc",
				"energy": 0.02476,
				"method": "rhf"
			}
		],
		"cosmo_sigma_profile": { 
			"-0.025": 0.0,
			"-0.024": 0.0,
			"-0.023": 0.0,
			"-0.022": 0.0,
			"-0.021": 0.0,
			"-0.02": 0.0,
			"-0.019": 0.0,
			"-0.018": 0.0,
			"-0.017": 0.0,
			"-0.016": 0.0,
			"-0.015": 0.0,
			"-0.014": 0.216620680078,
			"-0.013": 1.88450016881,
			"-0.012": 1.72298005557,
			"-0.011": 1.50719383852,
			"-0.01": 1.1974679377,
			"-0.009": 1.92468136534,
			"-0.008": 4.6173465576,
			"-0.007": 7.2835456111,
			"-0.006": 10.2709478037,
			"-0.005": 17.3538883367,
			"-0.004": 18.3647598867,
			"-0.003": 16.683642212,
			"-0.002": 18.2284415877,
			"-0.001": 16.9759138532,
			"0.0": 16.0584207059,
			"0.001": 20.4303484001,
			"0.002": 20.2670934801,
			"0.003": 16.1948842102,
			"0.004": 9.48525847353,
			"0.005": 5.11437942164,
			"0.006": 4.34854335075,
			"0.007": 3.2740834137,
			"0.008": 3.18282610944,
			"0.009": 3.22466044822,
			"0.01": 4.08364261562,
			"0.011": 3.46831770952,
			"0.012": 3.46923527865,
			"0.013": 4.14444705796,
			"0.014": 2.44027658877,
			"0.015": 1.09875185009,
			"0.016": 0.0,
			"0.017": 0.0,
			"0.018": 0.0,
			"0.019": 0.0,
			"0.02": 0.0,
			"0.021": 0.0,
			"0.022": 0.0,
			"0.023": 0.0,
			"0.024": 0.0,
			"0.025": 0.0
		}
	}
}
