{
	 "smiles": "CN1C(C(N(C)C1C1=CC=CN=C1)C1=CC=CC=C1)C1=CC=CC=C1", 
	 "Tm": 373.15, 
	 "num_atms": 48, 
	 "gaussian": { 
		 "optdone": 1, 
		 "sigma_profile": "yes", 
		 "theory": "DFT", 
		 "functional": "B3LYP", 
		 "basiset": "6-31G**", 
		 "properties": { 
			 "R2extent": 9723.5179, 
			 "electric_dipole_moment_norm": 2.22483838964, 
			 "electric_quadrupole_moment_norm": 11.0432054907, 
			 "total_energy": -1016.43870945, 
			 "HOMO_LUMO_gap": 0.18137, 
			 "cosmo_polarized_energy": -10.5, 
			 "cosmo_cavitation_energy": 49.3, 
			 "cosmo_dispersion_energy": -31.77, 
			 "cosmo_repulsion_energy": 2.41, 
			 "cosmo_total_nonelectrostatic_energy": 19.95, 
			 "SMD_solvation_energy": 6.06 
		},
		"coords": [
			{
				"x": 1.3996193046,
				"y": 1.9978470841,
				"z": 0.1381431676,
				"element": "C" 
			},
			{
				"x": 0.298657393,
				"y": 1.0587436234,
				"z": 0.2639322717,
				"element": "N" 
			},
			{
				"x": -0.8260827388,
				"y": 1.2566925925,
				"z": -0.6462945199,
				"element": "C" 
			},
			{
				"x": -1.5981503887,
				"y": -0.0748421941,
				"z": -0.4606174427,
				"element": "C" 
			},
			{
				"x": -0.4916344146,
				"y": -1.0281650355,
				"z": -0.3762077987,
				"element": "N" 
			},
			{
				"x": -0.8411797593,
				"y": -2.3496422128,
				"z": 0.122134473,
				"element": "C" 
			},
			{
				"x": 0.6031111882,
				"y": -0.3849301006,
				"z": 0.3581434904,
				"element": "C" 
			},
			{
				"x": 1.9584540235,
				"y": -0.8230344191,
				"z": -0.1843510986,
				"element": "C" 
			},
			{
				"x": 2.2322764737,
				"y": -0.8881971684,
				"z": -1.5553317738,
				"element": "C" 
			},
			{
				"x": 3.5028373444,
				"y": -1.2719806256,
				"z": -1.9745086342,
				"element": "C" 
			},
			{
				"x": 4.4599497081,
				"y": -1.5876215586,
				"z": -1.0061098592,
				"element": "C" 
			},
			{
				"x": 4.2202363473,
				"y": -1.5443504161,
				"z": 0.3090145691,
				"element": "N" 
			},
			{
				"x": 2.9931708029,
				"y": -1.1673024589,
				"z": 0.6914448002,
				"element": "C" 
			},
			{
				"x": -2.5859476585,
				"y": -0.3878261707,
				"z": -1.5674164042,
				"element": "C" 
			},
			{
				"x": -2.1643540929,
				"y": -0.9350246978,
				"z": -2.7870231356,
				"element": "C" 
			},
			{
				"x": -3.080025643,
				"y": -1.1786699319,
				"z": -3.8108742936,
				"element": "C" 
			},
			{
				"x": -4.4318145629,
				"y": -0.8754588784,
				"z": -3.6320824278,
				"element": "C" 
			},
			{
				"x": -4.8615422951,
				"y": -0.3318753245,
				"z": -2.4205909232,
				"element": "C" 
			},
			{
				"x": -3.9443110928,
				"y": -0.0943789139,
				"z": -1.3954607429,
				"element": "C" 
			},
			{
				"x": -1.6456494675,
				"y": 2.493546815,
				"z": -0.3250565126,
				"element": "C" 
			},
			{
				"x": -2.2087140199,
				"y": 3.2531555024,
				"z": -1.3570656415,
				"element": "C" 
			},
			{
				"x": -3.0028044319,
				"y": 4.3659157785,
				"z": -1.0727279818,
				"element": "C" 
			},
			{
				"x": -3.2380513358,
				"y": 4.7369753956,
				"z": 0.2518078367,
				"element": "C" 
			},
			{
				"x": -2.6745382021,
				"y": 3.9889035939,
				"z": 1.2887870266,
				"element": "C" 
			},
			{
				"x": -1.8850143193,
				"y": 2.8754388951,
				"z": 1.0022770391,
				"element": "C" 
			},
			{
				"x": 1.9173506982,
				"y": 1.9565798699,
				"z": -0.8355793603,
				"element": "H" 
			},
			{
				"x": 1.0129865346,
				"y": 3.0115476261,
				"z": 0.2759323668,
				"element": "H" 
			},
			{
				"x": 2.141274287,
				"y": 1.8130198651,
				"z": 0.9206379863,
				"element": "H" 
			},
			{
				"x": -0.5071946592,
				"y": 1.3179816477,
				"z": -1.703668074,
				"element": "H" 
			},
			{
				"x": -2.1513258757,
				"y": -0.0067005927,
				"z": 0.4946375966,
				"element": "H" 
			},
			{
				"x": -1.2215768917,
				"y": -2.3297684499,
				"z": 1.159886571,
				"element": "H" 
			},
			{
				"x": 0.0397265735,
				"y": -2.9979168411,
				"z": 0.0932871222,
				"element": "H" 
			},
			{
				"x": -1.6090014632,
				"y": -2.7909543805,
				"z": -0.5180890477,
				"element": "H" 
			},
			{
				"x": 0.5821816002,
				"y": -0.6653090118,
				"z": 1.4304945095,
				"element": "H" 
			},
			{
				"x": 1.4498451639,
				"y": -0.6550794302,
				"z": -2.2704219738,
				"element": "H" 
			},
			{
				"x": 3.7514889066,
				"y": -1.3336217151,
				"z": -3.0297313993,
				"element": "H" 
			},
			{
				"x": 5.4619442954,
				"y": -1.8942132611,
				"z": -1.3022568689,
				"element": "H" 
			},
			{
				"x": 2.8160612602,
				"y": -1.1425862933,
				"z": 1.7672669735,
				"element": "H" 
			},
			{
				"x": -1.1154381098,
				"y": -1.1832678314,
				"z": -2.9152580601,
				"element": "H" 
			},
			{
				"x": -2.7386808567,
				"y": -1.6085825038,
				"z": -4.7486935965,
				"element": "H" 
			},
			{
				"x": -5.1449484128,
				"y": -1.0667444756,
				"z": -4.4289581927,
				"element": "H" 
			},
			{
				"x": -5.9115507283,
				"y": -0.0972870838,
				"z": -2.2698467857,
				"element": "H" 
			},
			{
				"x": -4.2836687194,
				"y": 0.3263771406,
				"z": -0.4524980607,
				"element": "H" 
			},
			{
				"x": -2.0253282904,
				"y": 2.9686935402,
				"z": -2.3901339206,
				"element": "H" 
			},
			{
				"x": -3.4322585836,
				"y": 4.9444838922,
				"z": -1.8858689473,
				"element": "H" 
			},
			{
				"x": -3.850927746,
				"y": 5.6056997306,
				"z": 0.4752809901,
				"element": "H" 
			},
			{
				"x": -2.8480320638,
				"y": 4.2757958918,
				"z": 2.3224456207,
				"element": "H" 
			},
			{
				"x": -1.4303250817,
				"y": 2.2978334928,
				"z": 1.8014690669,
				"element": "H" 
			}
		],
		 "valence_orbital": [ 
			{
				"type": "occ",
				"energy": -0.24765,
				"method": "rhf"
			},
			{
				"type": "occ",
				"energy": -0.24452,
				"method": "rhf"
			},
			{
				"type": "occ",
				"energy": -0.23939,
				"method": "rhf"
			},
			{
				"type": "occ",
				"energy": -0.22608,
				"method": "rhf"
			},
			{
				"type": "occ",
				"energy": -0.2075,
				"method": "rhf"
			},
			{
				"type": "unocc",
				"energy": -0.02613,
				"method": "rhf"
			},
			{
				"type": "unocc",
				"energy": -0.01285,
				"method": "rhf"
			},
			{
				"type": "unocc",
				"energy": -0.00413,
				"method": "rhf"
			},
			{
				"type": "unocc",
				"energy": -0.00304,
				"method": "rhf"
			},
			{
				"type": "unocc",
				"energy": 0.00199,
				"method": "rhf"
			}
		],
		"cosmo_sigma_profile": { 
			"-0.025": 0.0,
			"-0.024": 0.0,
			"-0.023": 0.0,
			"-0.022": 0.0,
			"-0.021": 0.0,
			"-0.02": 0.0,
			"-0.019": 0.0,
			"-0.018": 0.0,
			"-0.017": 0.0,
			"-0.016": 0.0,
			"-0.015": 0.0,
			"-0.014": 0.0,
			"-0.013": 0.0,
			"-0.012": 0.0,
			"-0.011": 0.0,
			"-0.01": 0.0,
			"-0.009": 0.0,
			"-0.008": 0.0,
			"-0.007": 1.13714530155,
			"-0.006": 10.4442944898,
			"-0.005": 25.2331550887,
			"-0.004": 33.0463496639,
			"-0.003": 46.184035208,
			"-0.002": 44.3885397722,
			"-0.001": 41.9671355953,
			"0.0": 35.1065568497,
			"0.001": 26.9766390544,
			"0.002": 27.6838969114,
			"0.003": 26.2826505561,
			"0.004": 20.5882854982,
			"0.005": 20.8957656902,
			"0.006": 16.127060749,
			"0.007": 3.77754683054,
			"0.008": 1.97645972403,
			"0.009": 1.35264725532,
			"0.01": 1.18355244252,
			"0.011": 1.04959020238,
			"0.012": 1.28787190461,
			"0.013": 0.945695864882,
			"0.014": 0.740739663217,
			"0.015": 0.759273806279,
			"0.016": 1.07069865268,
			"0.017": 0.399218527084,
			"0.018": 0.0,
			"0.019": 0.0,
			"0.02": 0.0,
			"0.021": 0.0,
			"0.022": 0.0,
			"0.023": 0.0,
			"0.024": 0.0,
			"0.025": 0.0
		}
	}
}
