{
	 "smiles": "NC1=CC=C(C=CC2=CC=C(C=C2)[N+]([O-])=O)C(=C1)[N+]([O-])=O", 
	 "Tm": 473.15, 
	 "num_atms": 32, 
	 "gaussian": { 
		 "optdone": 1, 
		 "sigma_profile": "yes", 
		 "theory": "DFT", 
		 "functional": "B3LYP", 
		 "basiset": "6-31G**", 
		 "properties": { 
			 "R2extent": 11219.3743, 
			 "electric_dipole_moment_norm": 10.1046611274, 
			 "electric_quadrupole_moment_norm": 29.7780273322, 
			 "total_energy": -1005.06305758, 
			 "HOMO_LUMO_gap": 0.11805, 
			 "cosmo_polarized_energy": -20.59, 
			 "cosmo_cavitation_energy": 38.74, 
			 "cosmo_dispersion_energy": -27.87, 
			 "cosmo_repulsion_energy": 2.1, 
			 "cosmo_total_nonelectrostatic_energy": 12.97, 
			 "SMD_solvation_energy": 10.78 
		},
		"coords": [
			{
				"x": -2.5271280892,
				"y": -3.6051418249,
				"z": 4.1838878894,
				"element": "N" 
			},
			{
				"x": -1.7712335017,
				"y": -3.0288578325,
				"z": 3.1791447905,
				"element": "C" 
			},
			{
				"x": -0.754729259,
				"y": -2.0983176294,
				"z": 3.4734604896,
				"element": "C" 
			},
			{
				"x": -0.0435482072,
				"y": -1.4824059496,
				"z": 2.4579873519,
				"element": "C" 
			},
			{
				"x": -0.2611026231,
				"y": -1.7523439288,
				"z": 1.0893489468,
				"element": "C" 
			},
			{
				"x": 0.5032428375,
				"y": -1.0334785623,
				"z": 0.066322873,
				"element": "C" 
			},
			{
				"x": 1.7506372903,
				"y": -0.5489255572,
				"z": 0.248747629,
				"element": "C" 
			},
			{
				"x": 2.5333851553,
				"y": 0.2207518556,
				"z": -0.7182044489,
				"element": "C" 
			},
			{
				"x": 2.0433173727,
				"y": 0.6093656129,
				"z": -1.9841724703,
				"element": "C" 
			},
			{
				"x": 2.829015626,
				"y": 1.3378728466,
				"z": -2.8647088002,
				"element": "C" 
			},
			{
				"x": 4.1251664734,
				"y": 1.6924835659,
				"z": -2.4841132491,
				"element": "C" 
			},
			{
				"x": 4.6465097025,
				"y": 1.3299101628,
				"z": -1.2436275595,
				"element": "C" 
			},
			{
				"x": 3.847860242,
				"y": 0.5988392703,
				"z": -0.3737142836,
				"element": "C" 
			},
			{
				"x": 4.9567350725,
				"y": 2.4661297983,
				"z": -3.4107152609,
				"element": "N" 
			},
			{
				"x": 6.0959046378,
				"y": 2.762951214,
				"z": -3.046714714,
				"element": "O" 
			},
			{
				"x": 4.4675461247,
				"y": 2.7743887863,
				"z": -4.4985280869,
				"element": "O" 
			},
			{
				"x": -1.2906880107,
				"y": -2.6859569656,
				"z": 0.8271191881,
				"element": "C" 
			},
			{
				"x": -2.0311432027,
				"y": -3.3042695777,
				"z": 1.8305449571,
				"element": "C" 
			},
			{
				"x": -1.6301551068,
				"y": -3.104151456,
				"z": -0.5478829332,
				"element": "N" 
			},
			{
				"x": -2.7223404713,
				"y": -3.6435800669,
				"z": -0.7261969518,
				"element": "O" 
			},
			{
				"x": -0.8038968124,
				"y": -2.9110155249,
				"z": -1.4414582314,
				"element": "O" 
			},
			{
				"x": -2.1171399247,
				"y": -3.6345645916,
				"z": 5.1055608739,
				"element": "H" 
			},
			{
				"x": -3.0472753594,
				"y": -4.436484708,
				"z": 3.9453417145,
				"element": "H" 
			},
			{
				"x": -0.5446006691,
				"y": -1.8428605769,
				"z": 4.5086774256,
				"element": "H" 
			},
			{
				"x": 0.6943865572,
				"y": -0.7328693658,
				"z": 2.7224514561,
				"element": "H" 
			},
			{
				"x": 0.0199040674,
				"y": -0.9057673343,
				"z": -0.893666394,
				"element": "H" 
			},
			{
				"x": 2.2643641106,
				"y": -0.7555895317,
				"z": 1.1857662716,
				"element": "H" 
			},
			{
				"x": 1.0368178099,
				"y": 0.3392220521,
				"z": -2.2842424371,
				"element": "H" 
			},
			{
				"x": 2.4615463718,
				"y": 1.6391058808,
				"z": -3.8376808567,
				"element": "H" 
			},
			{
				"x": 5.6561292353,
				"y": 1.6225752445,
				"z": -0.9841179221,
				"element": "H" 
			},
			{
				"x": 4.2445962355,
				"y": 0.309304083,
				"z": 0.595285423,
				"element": "H" 
			},
			{
				"x": -2.8057836849,
				"y": -4.0039193889,
				"z": 1.5416973196,
				"element": "H" 
			}
		],
		 "valence_orbital": [ 
			{
				"type": "occ",
				"energy": -0.28349,
				"method": "rhf"
			},
			{
				"type": "occ",
				"energy": -0.28301,
				"method": "rhf"
			},
			{
				"type": "occ",
				"energy": -0.27503,
				"method": "rhf"
			},
			{
				"type": "occ",
				"energy": -0.26123,
				"method": "rhf"
			},
			{
				"type": "occ",
				"energy": -0.21784,
				"method": "rhf"
			},
			{
				"type": "unocc",
				"energy": -0.09979,
				"method": "rhf"
			},
			{
				"type": "unocc",
				"energy": -0.08426,
				"method": "rhf"
			},
			{
				"type": "unocc",
				"energy": -0.04446,
				"method": "rhf"
			},
			{
				"type": "unocc",
				"energy": -0.02261,
				"method": "rhf"
			},
			{
				"type": "unocc",
				"energy": -0.01263,
				"method": "rhf"
			}
		],
		"cosmo_sigma_profile": { 
			"-0.025": 0.0,
			"-0.024": 0.0,
			"-0.023": 0.0,
			"-0.022": 0.0,
			"-0.021": 0.0,
			"-0.02": 0.0,
			"-0.019": 0.0,
			"-0.018": 0.0,
			"-0.017": 0.0,
			"-0.016": 0.0,
			"-0.015": 0.0,
			"-0.014": 0.991641101488,
			"-0.013": 3.00800921495,
			"-0.012": 3.67304678051,
			"-0.011": 2.9392948087,
			"-0.01": 3.07796065302,
			"-0.009": 3.44975974899,
			"-0.008": 7.42726630741,
			"-0.007": 16.3757815502,
			"-0.006": 17.2684914062,
			"-0.005": 15.8664718472,
			"-0.004": 14.2354147291,
			"-0.003": 15.2687393169,
			"-0.002": 13.2417817306,
			"-0.001": 19.63497549,
			"0.0": 20.3972869008,
			"0.001": 27.2984750368,
			"0.002": 35.8391646872,
			"0.003": 16.8581849122,
			"0.004": 8.71492379922,
			"0.005": 6.20374363661,
			"0.006": 8.98763506254,
			"0.007": 12.2942060055,
			"0.008": 18.9275492995,
			"0.009": 9.74217787693,
			"0.01": 7.49498000493,
			"0.011": 1.57550133197,
			"0.012": 0.36371019563,
			"0.013": 0.0,
			"0.014": 0.0,
			"0.015": 0.0,
			"0.016": 0.0,
			"0.017": 0.0,
			"0.018": 0.0,
			"0.019": 0.0,
			"0.02": 0.0,
			"0.021": 0.0,
			"0.022": 0.0,
			"0.023": 0.0,
			"0.024": 0.0,
			"0.025": 0.0
		}
	}
}
