{
	 "smiles": "OC(=O)CC1CS(=O)(=O)C=C1", 
	 "Tm": 355.15, 
	 "num_atms": 19, 
	 "gaussian": { 
		 "optdone": 1, 
		 "sigma_profile": "yes", 
		 "theory": "DFT", 
		 "functional": "B3LYP", 
		 "basiset": "6-31G**", 
		 "properties": { 
			 "R2extent": 2241.9031, 
			 "electric_dipole_moment_norm": 3.0886872357, 
			 "electric_quadrupole_moment_norm": 26.3661902557, 
			 "total_energy": -932.459965781, 
			 "HOMO_LUMO_gap": 0.24285, 
			 "cosmo_polarized_energy": -24.75, 
			 "cosmo_cavitation_energy": 24.19, 
			 "cosmo_dispersion_energy": -18.33, 
			 "cosmo_repulsion_energy": 1.43, 
			 "cosmo_total_nonelectrostatic_energy": 7.3, 
			 "SMD_solvation_energy": 4.75 
		},
		"coords": [
			{
				"x": 1.9353547448,
				"y": -2.1722088986,
				"z": -2.451582325,
				"element": "O" 
			},
			{
				"x": 1.9187072879,
				"y": -1.1018681517,
				"z": -1.6203156489,
				"element": "C" 
			},
			{
				"x": 2.5964458258,
				"y": -0.1330960599,
				"z": -1.863773215,
				"element": "O" 
			},
			{
				"x": 1.0271261941,
				"y": -1.2384413555,
				"z": -0.3925004391,
				"element": "C" 
			},
			{
				"x": 0.9554197452,
				"y": 0.0581319648,
				"z": 0.4412545617,
				"element": "C" 
			},
			{
				"x": 0.1110773556,
				"y": -0.1197147921,
				"z": 1.7176813883,
				"element": "C" 
			},
			{
				"x": -1.571150211,
				"y": 0.4586348538,
				"z": 1.2783351792,
				"element": "S" 
			},
			{
				"x": -2.1582290449,
				"y": 1.2592389375,
				"z": 2.3611137545,
				"element": "O" 
			},
			{
				"x": -2.3329989414,
				"y": -0.6643733629,
				"z": 0.7012024401,
				"element": "O" 
			},
			{
				"x": -0.9518151039,
				"y": 1.4941660519,
				"z": -0.0398692044,
				"element": "C" 
			},
			{
				"x": 0.3053048819,
				"y": 1.1857599192,
				"z": -0.3511054048,
				"element": "C" 
			},
			{
				"x": 1.3291801759,
				"y": -2.8588357717,
				"z": -2.137717431,
				"element": "H" 
			},
			{
				"x": 0.0166246024,
				"y": -1.5440712532,
				"z": -0.6926411592,
				"element": "H" 
			},
			{
				"x": 1.431259999,
				"y": -2.0524320873,
				"z": 0.2249187786,
				"element": "H" 
			},
			{
				"x": 1.9779837147,
				"y": 0.3474381044,
				"z": 0.7031886111,
				"element": "H" 
			},
			{
				"x": 0.4575161903,
				"y": 0.5278544044,
				"z": 2.5253851535,
				"element": "H" 
			},
			{
				"x": 0.0277878011,
				"y": -1.1474958972,
				"z": 2.0749699802,
				"element": "H" 
			},
			{
				"x": -1.6095445064,
				"y": 2.2200200091,
				"z": -0.5012968675,
				"element": "H" 
			},
			{
				"x": 0.864349289,
				"y": 1.6571933849,
				"z": -1.1519481523,
				"element": "H" 
			}
		],
		 "valence_orbital": [ 
			{
				"type": "occ",
				"energy": -0.32511,
				"method": "rhf"
			},
			{
				"type": "occ",
				"energy": -0.30912,
				"method": "rhf"
			},
			{
				"type": "occ",
				"energy": -0.29553,
				"method": "rhf"
			},
			{
				"type": "occ",
				"energy": -0.28932,
				"method": "rhf"
			},
			{
				"type": "occ",
				"energy": -0.28273,
				"method": "rhf"
			},
			{
				"type": "unocc",
				"energy": -0.03988,
				"method": "rhf"
			},
			{
				"type": "unocc",
				"energy": -0.00989,
				"method": "rhf"
			},
			{
				"type": "unocc",
				"energy": 0.0426,
				"method": "rhf"
			},
			{
				"type": "unocc",
				"energy": 0.05296,
				"method": "rhf"
			},
			{
				"type": "unocc",
				"energy": 0.06856,
				"method": "rhf"
			}
		],
		"cosmo_sigma_profile": { 
			"-0.025": 0.0,
			"-0.024": 0.0,
			"-0.023": 0.0,
			"-0.022": 0.0,
			"-0.021": 0.0,
			"-0.02": 0.184847329939,
			"-0.019": 1.22175705676,
			"-0.018": 1.15570294103,
			"-0.017": 0.772593477583,
			"-0.016": 1.40723565687,
			"-0.015": 1.02646393069,
			"-0.014": 1.36483736519,
			"-0.013": 1.02621376863,
			"-0.012": 1.23080653552,
			"-0.011": 1.0280684438,
			"-0.01": 3.37846141021,
			"-0.009": 6.12817910175,
			"-0.008": 13.0748348672,
			"-0.007": 13.9101587606,
			"-0.006": 12.785710009,
			"-0.005": 11.5633665223,
			"-0.004": 9.0515573404,
			"-0.003": 7.21759075404,
			"-0.002": 7.63127255453,
			"-0.001": 6.24106617981,
			"0.0": 5.71477830225,
			"0.001": 6.76233347717,
			"0.002": 5.47474094479,
			"0.003": 4.6495708444,
			"0.004": 3.74326451291,
			"0.005": 5.12866911801,
			"0.006": 3.46684012444,
			"0.007": 4.67070936475,
			"0.008": 4.24536272196,
			"0.009": 7.31219618557,
			"0.01": 9.15308236189,
			"0.011": 15.5486637331,
			"0.012": 12.0818170158,
			"0.013": 2.18423646716,
			"0.014": 0.0,
			"0.015": 0.0,
			"0.016": 0.0,
			"0.017": 0.0,
			"0.018": 0.0,
			"0.019": 0.0,
			"0.02": 0.0,
			"0.021": 0.0,
			"0.022": 0.0,
			"0.023": 0.0,
			"0.024": 0.0,
			"0.025": 0.0
		}
	}
}
