{
	 "smiles": "CC1=CC=C(C=C1)S(=O)(=O)OC1=C2C=C(Br)C=C(F)C2=NC=N1", 
	 "Tm": 478.15, 
	 "num_atms": 33, 
	 "gaussian": { 
		 "optdone": 1, 
		 "sigma_profile": "yes", 
		 "theory": "DFT", 
		 "functional": "B3LYP", 
		 "basiset": "6-31G**", 
		 "properties": { 
			 "R2extent": 16181.4614, 
			 "electric_dipole_moment_norm": 5.21002821298, 
			 "electric_quadrupole_moment_norm": 18.1525743893, 
			 "total_energy": -3982.15882216, 
			 "HOMO_LUMO_gap": 0.17079, 
			 "cosmo_polarized_energy": -13.93, 
			 "cosmo_cavitation_energy": 42.88, 
			 "cosmo_dispersion_energy": -31.04, 
			 "cosmo_repulsion_energy": 2.29, 
			 "cosmo_total_nonelectrostatic_energy": 14.13, 
			 "SMD_solvation_energy": 4.14 
		},
		"coords": [
			{
				"x": 1.8137232472,
				"y": -2.2119957325,
				"z": 3.7869589543,
				"element": "C" 
			},
			{
				"x": 1.6588977557,
				"y": -2.066669722,
				"z": 2.2930663668,
				"element": "C" 
			},
			{
				"x": 2.759338999,
				"y": -1.7370052922,
				"z": 1.4875363646,
				"element": "C" 
			},
			{
				"x": 2.6344078283,
				"y": -1.6334317907,
				"z": 0.1047954642,
				"element": "C" 
			},
			{
				"x": 1.3819785436,
				"y": -1.8534197752,
				"z": -0.4735188757,
				"element": "C" 
			},
			{
				"x": 0.2658196129,
				"y": -2.1821681832,
				"z": 0.2975878848,
				"element": "C" 
			},
			{
				"x": 0.4172744015,
				"y": -2.2868457706,
				"z": 1.6774099887,
				"element": "C" 
			},
			{
				"x": 1.2348634235,
				"y": -1.7636815305,
				"z": -2.2428548997,
				"element": "S" 
			},
			{
				"x": 2.5411424213,
				"y": -1.9807266232,
				"z": -2.8417566301,
				"element": "O" 
			},
			{
				"x": 0.0416305812,
				"y": -2.4550928576,
				"z": -2.7005761721,
				"element": "O" 
			},
			{
				"x": 1.036164959,
				"y": -0.0847189535,
				"z": -2.5540216193,
				"element": "O" 
			},
			{
				"x": -0.1258641023,
				"y": 0.5852471488,
				"z": -2.3271841876,
				"element": "C" 
			},
			{
				"x": -0.2432409376,
				"y": 1.8499990659,
				"z": -2.9873818685,
				"element": "C" 
			},
			{
				"x": 0.7343213389,
				"y": 2.3907006021,
				"z": -3.8538901761,
				"element": "C" 
			},
			{
				"x": 0.4953841954,
				"y": 3.6229338803,
				"z": -4.4208889047,
				"element": "C" 
			},
			{
				"x": 1.7825032473,
				"y": 4.3932679113,
				"z": -5.5960779516,
				"element": "Br" 
			},
			{
				"x": -0.6883150106,
				"y": 4.3479377889,
				"z": -4.1594730651,
				"element": "C" 
			},
			{
				"x": -1.631852354,
				"y": 3.8098080176,
				"z": -3.3170602974,
				"element": "C" 
			},
			{
				"x": -2.7549275823,
				"y": 4.4894756345,
				"z": -3.0659057578,
				"element": "F" 
			},
			{
				"x": -1.4517375092,
				"y": 2.5440258945,
				"z": -2.6981888836,
				"element": "C" 
			},
			{
				"x": -2.4130113207,
				"y": 2.0397573728,
				"z": -1.873219884,
				"element": "N" 
			},
			{
				"x": -2.1570102911,
				"y": 0.8651841111,
				"z": -1.3502872894,
				"element": "C" 
			},
			{
				"x": -1.0428426237,
				"y": 0.1019657309,
				"z": -1.531630519,
				"element": "N" 
			},
			{
				"x": 2.6210465463,
				"y": -1.581378228,
				"z": 4.1695368642,
				"element": "H" 
			},
			{
				"x": 2.0542740227,
				"y": -3.2487264419,
				"z": 4.0531463831,
				"element": "H" 
			},
			{
				"x": 0.892121885,
				"y": -1.9466577551,
				"z": 4.3126372575,
				"element": "H" 
			},
			{
				"x": 3.7280913547,
				"y": -1.5648382461,
				"z": 1.94818428,
				"element": "H" 
			},
			{
				"x": 3.4891697206,
				"y": -1.3982678952,
				"z": -0.5193407796,
				"element": "H" 
			},
			{
				"x": -0.6927966792,
				"y": -2.3398050716,
				"z": -0.1804496758,
				"element": "H" 
			},
			{
				"x": -0.4440969965,
				"y": -2.5429784136,
				"z": 2.2880789802,
				"element": "H" 
			},
			{
				"x": 1.6416906762,
				"y": 1.8382584787,
				"z": -4.0600733337,
				"element": "H" 
			},
			{
				"x": -0.8636261836,
				"y": 5.315957779,
				"z": -4.6124052792,
				"element": "H" 
			},
			{
				"x": -2.9089231693,
				"y": 0.4389888665,
				"z": -0.6901527385,
				"element": "H" 
			}
		],
		 "valence_orbital": [ 
			{
				"type": "occ",
				"energy": -0.28193,
				"method": "rhf"
			},
			{
				"type": "occ",
				"energy": -0.27916,
				"method": "rhf"
			},
			{
				"type": "occ",
				"energy": -0.27635,
				"method": "rhf"
			},
			{
				"type": "occ",
				"energy": -0.26962,
				"method": "rhf"
			},
			{
				"type": "occ",
				"energy": -0.24513,
				"method": "rhf"
			},
			{
				"type": "unocc",
				"energy": -0.07434,
				"method": "rhf"
			},
			{
				"type": "unocc",
				"energy": -0.05708,
				"method": "rhf"
			},
			{
				"type": "unocc",
				"energy": -0.05093,
				"method": "rhf"
			},
			{
				"type": "unocc",
				"energy": -0.0289,
				"method": "rhf"
			},
			{
				"type": "unocc",
				"energy": -0.0082,
				"method": "rhf"
			}
		],
		"cosmo_sigma_profile": { 
			"-0.025": 0.0,
			"-0.024": 0.0,
			"-0.023": 0.0,
			"-0.022": 0.0,
			"-0.021": 0.0,
			"-0.02": 0.0,
			"-0.019": 0.0,
			"-0.018": 0.0,
			"-0.017": 0.0,
			"-0.016": 0.0,
			"-0.015": 0.0,
			"-0.014": 0.0,
			"-0.013": 0.0,
			"-0.012": 0.0,
			"-0.011": 0.0,
			"-0.01": 0.291079908171,
			"-0.009": 1.75244745237,
			"-0.008": 4.80105715449,
			"-0.007": 9.27131904145,
			"-0.006": 14.8564732236,
			"-0.005": 21.5325100543,
			"-0.004": 22.0897887958,
			"-0.003": 27.1252260845,
			"-0.002": 37.9359815977,
			"-0.001": 37.0300633005,
			"0.0": 31.6304253879,
			"0.001": 23.1041716899,
			"0.002": 25.8803766897,
			"0.003": 28.7115207794,
			"0.004": 16.0136853035,
			"0.005": 6.85913236038,
			"0.006": 6.3083590469,
			"0.007": 4.71140499951,
			"0.008": 8.52692387422,
			"0.009": 13.0211722326,
			"0.01": 4.43854551812,
			"0.011": 1.24627830006,
			"0.012": 0.971681159407,
			"0.013": 0.775269003723,
			"0.014": 0.566610519834,
			"0.015": 0.0,
			"0.016": 0.0,
			"0.017": 0.0,
			"0.018": 0.0,
			"0.019": 0.0,
			"0.02": 0.0,
			"0.021": 0.0,
			"0.022": 0.0,
			"0.023": 0.0,
			"0.024": 0.0,
			"0.025": 0.0
		}
	}
}
