{
	 "smiles": "OC(C#CC#CC(O)(C1=CC=CC=C1)C1=C(Cl)C=CC=C1)(C1=CC=CC=C1)C1=CC=CC=C1Cl", 
	 "Tm": 405.15, 
	 "num_atms": 54, 
	 "gaussian": { 
		 "optdone": 1, 
		 "sigma_profile": "yes", 
		 "theory": "DFT", 
		 "functional": "B3LYP", 
		 "basiset": "6-31G**", 
		 "properties": { 
			 "R2extent": 23564.3899, 
			 "electric_dipole_moment_norm": 3.18976248175, 
			 "electric_quadrupole_moment_norm": 12.2799144232, 
			 "total_energy": -2225.92190479, 
			 "HOMO_LUMO_gap": 0.19607, 
			 "cosmo_polarized_energy": -18.53, 
			 "cosmo_cavitation_energy": 63.3, 
			 "cosmo_dispersion_energy": -42.06, 
			 "cosmo_repulsion_energy": 3.22, 
			 "cosmo_total_nonelectrostatic_energy": 24.46, 
			 "SMD_solvation_energy": 10.7 
		},
		"coords": [
			{
				"x": -0.8768184577,
				"y": -3.3075672894,
				"z": -2.5163251704,
				"element": "O" 
			},
			{
				"x": -1.367361284,
				"y": -1.9574534671,
				"z": -2.6130447387,
				"element": "C" 
			},
			{
				"x": -0.572939162,
				"y": -1.1211440129,
				"z": -1.6902540437,
				"element": "C" 
			},
			{
				"x": 0.1505305362,
				"y": -0.5133720902,
				"z": -0.9239644698,
				"element": "C" 
			},
			{
				"x": 0.9507263396,
				"y": 0.1842386543,
				"z": -0.0657019136,
				"element": "C" 
			},
			{
				"x": 1.6746409373,
				"y": 0.7913068785,
				"z": 0.7022464593,
				"element": "C" 
			},
			{
				"x": 2.4355521721,
				"y": 1.6653725096,
				"z": 1.6201655509,
				"element": "C" 
			},
			{
				"x": 2.5662211618,
				"y": 2.9498648881,
				"z": 1.0038964364,
				"element": "O" 
			},
			{
				"x": 1.6289393354,
				"y": 1.7249273552,
				"z": 2.9431429119,
				"element": "C" 
			},
			{
				"x": 1.0271165288,
				"y": 2.9122775823,
				"z": 3.3634482608,
				"element": "C" 
			},
			{
				"x": 0.2634352497,
				"y": 2.9391185101,
				"z": 4.5325801851,
				"element": "C" 
			},
			{
				"x": 0.0977976091,
				"y": 1.7808596436,
				"z": 5.2914922053,
				"element": "C" 
			},
			{
				"x": 0.7025801193,
				"y": 0.5918539586,
				"z": 4.876043947,
				"element": "C" 
			},
			{
				"x": 1.4610431953,
				"y": 0.5634369736,
				"z": 3.7071655556,
				"element": "C" 
			},
			{
				"x": 3.8688685292,
				"y": 1.1458213701,
				"z": 1.8554190136,
				"element": "C" 
			},
			{
				"x": 4.8219209338,
				"y": 1.8498740156,
				"z": 2.6147826519,
				"element": "C" 
			},
			{
				"x": 4.4720905627,
				"y": 3.3928678853,
				"z": 3.3791931693,
				"element": "Cl" 
			},
			{
				"x": 6.110617072,
				"y": 1.3476284103,
				"z": 2.8052190959,
				"element": "C" 
			},
			{
				"x": 6.4797066859,
				"y": 0.1264485974,
				"z": 2.2453302159,
				"element": "C" 
			},
			{
				"x": 5.5544150984,
				"y": -0.5899659843,
				"z": 1.4907986067,
				"element": "C" 
			},
			{
				"x": 4.2721064546,
				"y": -0.0770866477,
				"z": 1.302065586,
				"element": "C" 
			},
			{
				"x": -2.8697303954,
				"y": -1.9743053285,
				"z": -2.2697815108,
				"element": "C" 
			},
			{
				"x": -3.3744353551,
				"y": -1.4123624857,
				"z": -1.0939796057,
				"element": "C" 
			},
			{
				"x": -4.7302038491,
				"y": -1.5329737409,
				"z": -0.7795150644,
				"element": "C" 
			},
			{
				"x": -5.5912871048,
				"y": -2.2185866837,
				"z": -1.6353610774,
				"element": "C" 
			},
			{
				"x": -5.0902218734,
				"y": -2.7878231602,
				"z": -2.8094665131,
				"element": "C" 
			},
			{
				"x": -3.7383040598,
				"y": -2.6691872692,
				"z": -3.1233730538,
				"element": "C" 
			},
			{
				"x": -1.1016410996,
				"y": -1.5111671925,
				"z": -4.0668030184,
				"element": "C" 
			},
			{
				"x": -0.4886960223,
				"y": -2.4019972538,
				"z": -4.9585828962,
				"element": "C" 
			},
			{
				"x": -0.2303786792,
				"y": -2.0475646928,
				"z": -6.281978764,
				"element": "C" 
			},
			{
				"x": -0.5779526786,
				"y": -0.7801026903,
				"z": -6.7446580683,
				"element": "C" 
			},
			{
				"x": -1.1816275263,
				"y": 0.127548306,
				"z": -5.8767899808,
				"element": "C" 
			},
			{
				"x": -1.4361175083,
				"y": -0.2369640558,
				"z": -4.5543539177,
				"element": "C" 
			},
			{
				"x": -2.1921609114,
				"y": 0.9767285726,
				"z": -3.5286679155,
				"element": "Cl" 
			},
			{
				"x": -1.140275044,
				"y": -3.6323101068,
				"z": -1.6445317761,
				"element": "H" 
			},
			{
				"x": 1.7061143225,
				"y": 3.1757438215,
				"z": 0.6226501247,
				"element": "H" 
			},
			{
				"x": 1.1808022869,
				"y": 3.8199817513,
				"z": 2.7910309894,
				"element": "H" 
			},
			{
				"x": -0.1955855185,
				"y": 3.8705723831,
				"z": 4.8518446581,
				"element": "H" 
			},
			{
				"x": -0.4941005561,
				"y": 1.803396334,
				"z": 6.2019687939,
				"element": "H" 
			},
			{
				"x": 0.5833405696,
				"y": -0.3148246149,
				"z": 5.4624221776,
				"element": "H" 
			},
			{
				"x": 1.9266778546,
				"y": -0.3643999959,
				"z": 3.3870984465,
				"element": "H" 
			},
			{
				"x": 6.8155803507,
				"y": 1.9232693213,
				"z": 3.3946742102,
				"element": "H" 
			},
			{
				"x": 7.4843418788,
				"y": -0.2551117433,
				"z": 2.4009093947,
				"element": "H" 
			},
			{
				"x": 5.8243924983,
				"y": -1.5415790959,
				"z": 1.0435084721,
				"element": "H" 
			},
			{
				"x": 3.5584168208,
				"y": -0.6328493559,
				"z": 0.7041943258,
				"element": "H" 
			},
			{
				"x": -2.709440424,
				"y": -0.8696951357,
				"z": -0.4301554982,
				"element": "H" 
			},
			{
				"x": -5.1102546127,
				"y": -1.0866667364,
				"z": 0.1349578596,
				"element": "H" 
			},
			{
				"x": -6.6459754513,
				"y": -2.309427231,
				"z": -1.3920087828,
				"element": "H" 
			},
			{
				"x": -5.753873897,
				"y": -3.3243482168,
				"z": -3.4815507152,
				"element": "H" 
			},
			{
				"x": -3.3495472396,
				"y": -3.1166535245,
				"z": -4.0327376689,
				"element": "H" 
			},
			{
				"x": -0.2160092335,
				"y": -3.3835178986,
				"z": -4.5938736841,
				"element": "H" 
			},
			{
				"x": 0.2444823459,
				"y": -2.7636087916,
				"z": -6.9457930831,
				"element": "H" 
			},
			{
				"x": -0.3811594743,
				"y": -0.4914153803,
				"z": -7.7727451111,
				"element": "H" 
			},
			{
				"x": -1.4578600312,
				"y": 1.1207941504,
				"z": -6.2127512625,
				"element": "H" 
			}
		],
		 "valence_orbital": [ 
			{
				"type": "occ",
				"energy": -0.24832,
				"method": "rhf"
			},
			{
				"type": "occ",
				"energy": -0.24463,
				"method": "rhf"
			},
			{
				"type": "occ",
				"energy": -0.24277,
				"method": "rhf"
			},
			{
				"type": "occ",
				"energy": -0.24023,
				"method": "rhf"
			},
			{
				"type": "occ",
				"energy": -0.23392,
				"method": "rhf"
			},
			{
				"type": "unocc",
				"energy": -0.03785,
				"method": "rhf"
			},
			{
				"type": "unocc",
				"energy": -0.03237,
				"method": "rhf"
			},
			{
				"type": "unocc",
				"energy": -0.01712,
				"method": "rhf"
			},
			{
				"type": "unocc",
				"energy": -0.01489,
				"method": "rhf"
			},
			{
				"type": "unocc",
				"energy": -0.01328,
				"method": "rhf"
			}
		],
		"cosmo_sigma_profile": { 
			"-0.025": 0.0,
			"-0.024": 0.0,
			"-0.023": 0.0,
			"-0.022": 0.0,
			"-0.021": 0.0,
			"-0.02": 0.0,
			"-0.019": 0.0,
			"-0.018": 0.0,
			"-0.017": 0.289627817958,
			"-0.016": 1.59908507082,
			"-0.015": 1.58891659101,
			"-0.014": 1.34160470124,
			"-0.013": 1.40564975561,
			"-0.012": 1.87371431297,
			"-0.011": 2.64193353454,
			"-0.01": 1.01653516762,
			"-0.009": 1.3125929568,
			"-0.008": 2.25872015927,
			"-0.007": 9.25941058501,
			"-0.006": 23.7380551153,
			"-0.005": 38.2438777283,
			"-0.004": 37.1101983353,
			"-0.003": 31.8287566076,
			"-0.002": 30.6762296785,
			"-0.001": 28.4735841089,
			"0.0": 30.1932894487,
			"0.001": 39.3197490861,
			"0.002": 56.4267681325,
			"0.003": 60.8037462883,
			"0.004": 50.5957998483,
			"0.005": 32.5732298871,
			"0.006": 13.2473547992,
			"0.007": 3.49560755705,
			"0.008": 3.98738821383,
			"0.009": 2.60358571982,
			"0.01": 1.84218703514,
			"0.011": 2.26865058069,
			"0.012": 1.26565955257,
			"0.013": 0.00984199894089,
			"0.014": 0.0,
			"0.015": 0.0,
			"0.016": 0.0,
			"0.017": 0.0,
			"0.018": 0.0,
			"0.019": 0.0,
			"0.02": 0.0,
			"0.021": 0.0,
			"0.022": 0.0,
			"0.023": 0.0,
			"0.024": 0.0,
			"0.025": 0.0
		}
	}
}
