{
	 "smiles": "ClC1=CC=C(O1)C=O", 
	 "Tm": 308.15, 
	 "num_atms": 11, 
	 "gaussian": { 
		 "optdone": 1, 
		 "sigma_profile": "yes", 
		 "theory": "DFT", 
		 "functional": "B3LYP", 
		 "basiset": "6-31G**", 
		 "properties": { 
			 "R2extent": 1927.9936, 
			 "electric_dipole_moment_norm": 2.59886005972, 
			 "electric_quadrupole_moment_norm": 4.72924552228, 
			 "total_energy": -802.933849928, 
			 "HOMO_LUMO_gap": 0.17768, 
			 "cosmo_polarized_energy": -6.75, 
			 "cosmo_cavitation_energy": 18.32, 
			 "cosmo_dispersion_energy": -13.66, 
			 "cosmo_repulsion_energy": 1.15, 
			 "cosmo_total_nonelectrostatic_energy": 5.82, 
			 "SMD_solvation_energy": 4.86 
		},
		"coords": [
			{
				"x": -0.5743153273,
				"y": -3.9465626146,
				"z": 1.6762618794,
				"element": "Cl" 
			},
			{
				"x": -0.5618798444,
				"y": -2.3158669189,
				"z": 1.1531543688,
				"element": "C" 
			},
			{
				"x": -1.0033296316,
				"y": -1.1689164831,
				"z": 1.7596722553,
				"element": "C" 
			},
			{
				"x": -0.7227521287,
				"y": -0.1265773262,
				"z": 0.8354067647,
				"element": "C" 
			},
			{
				"x": -0.1349646589,
				"y": -0.7096072195,
				"z": -0.2595331547,
				"element": "C" 
			},
			{
				"x": -0.0350407441,
				"y": -2.0729759936,
				"z": -0.0609621863,
				"element": "O" 
			},
			{
				"x": 0.3708508196,
				"y": -0.1779008619,
				"z": -1.5162125234,
				"element": "C" 
			},
			{
				"x": 0.3352321692,
				"y": 1.0067171978,
				"z": -1.801171397,
				"element": "O" 
			},
			{
				"x": -1.463341325,
				"y": -1.0962539975,
				"z": 2.7332368654,
				"element": "H" 
			},
			{
				"x": -0.9223982393,
				"y": 0.9293034835,
				"z": 0.9462868366,
				"element": "H" 
			},
			{
				"x": 0.7936389106,
				"y": -0.942459266,
				"z": -2.2002397087,
				"element": "H" 
			}
		],
		 "valence_orbital": [ 
			{
				"type": "occ",
				"energy": -0.36705,
				"method": "rhf"
			},
			{
				"type": "occ",
				"energy": -0.34985,
				"method": "rhf"
			},
			{
				"type": "occ",
				"energy": -0.31196,
				"method": "rhf"
			},
			{
				"type": "occ",
				"energy": -0.26458,
				"method": "rhf"
			},
			{
				"type": "occ",
				"energy": -0.24858,
				"method": "rhf"
			},
			{
				"type": "unocc",
				"energy": -0.0709,
				"method": "rhf"
			},
			{
				"type": "unocc",
				"energy": 0.01423,
				"method": "rhf"
			},
			{
				"type": "unocc",
				"energy": 0.0182,
				"method": "rhf"
			},
			{
				"type": "unocc",
				"energy": 0.0833,
				"method": "rhf"
			},
			{
				"type": "unocc",
				"energy": 0.09949,
				"method": "rhf"
			}
		],
		"cosmo_sigma_profile": { 
			"-0.025": 0.0,
			"-0.024": 0.0,
			"-0.023": 0.0,
			"-0.022": 0.0,
			"-0.021": 0.0,
			"-0.02": 0.0,
			"-0.019": 0.0,
			"-0.018": 0.0,
			"-0.017": 0.0,
			"-0.016": 0.0,
			"-0.015": 0.0,
			"-0.014": 0.0,
			"-0.013": 0.0,
			"-0.012": 0.0,
			"-0.011": 0.0,
			"-0.01": 0.328525982299,
			"-0.009": 3.10197597402,
			"-0.008": 3.17680836536,
			"-0.007": 6.37435148587,
			"-0.006": 6.42735097403,
			"-0.005": 7.63789616895,
			"-0.004": 7.79059940966,
			"-0.003": 8.60230790128,
			"-0.002": 11.9458483223,
			"-0.001": 16.6047271255,
			"0.0": 14.480490214,
			"0.001": 16.4600606211,
			"0.002": 17.9976241317,
			"0.003": 5.7353426304,
			"0.004": 3.06807440031,
			"0.005": 2.79828589088,
			"0.006": 1.47939177462,
			"0.007": 1.7790923634,
			"0.008": 2.10283120267,
			"0.009": 1.3236040355,
			"0.01": 2.95382741311,
			"0.011": 4.38721234337,
			"0.012": 3.3147488645,
			"0.013": 0.783489282237,
			"0.014": 0.0,
			"0.015": 0.0,
			"0.016": 0.0,
			"0.017": 0.0,
			"0.018": 0.0,
			"0.019": 0.0,
			"0.02": 0.0,
			"0.021": 0.0,
			"0.022": 0.0,
			"0.023": 0.0,
			"0.024": 0.0,
			"0.025": 0.0
		}
	}
}
