{
	 "smiles": "FC(F)(F)C1=NC2=C(C=CC=C2C(F)(F)F)C(Cl)=C1", 
	 "Tm": 320.15, 
	 "num_atms": 23, 
	 "gaussian": { 
		 "optdone": 1, 
		 "sigma_profile": "yes", 
		 "theory": "DFT", 
		 "functional": "B3LYP", 
		 "basiset": "6-31G**", 
		 "properties": { 
			 "R2extent": 6176.0146, 
			 "electric_dipole_moment_norm": 4.63047005065, 
			 "electric_quadrupole_moment_norm": 5.29128958761, 
			 "total_energy": -1535.579889, 
			 "HOMO_LUMO_gap": 0.17162, 
			 "cosmo_polarized_energy": -7.57, 
			 "cosmo_cavitation_energy": 32.53, 
			 "cosmo_dispersion_energy": -22.55, 
			 "cosmo_repulsion_energy": 1.6, 
			 "cosmo_total_nonelectrostatic_energy": 11.58, 
			 "SMD_solvation_energy": 6.71 
		},
		"coords": [
			{
				"x": -1.0500956532,
				"y": 2.0118830047,
				"z": 4.4934445469,
				"element": "F" 
			},
			{
				"x": -0.2949281372,
				"y": 1.065311604,
				"z": 3.8891343737,
				"element": "C" 
			},
			{
				"x": 0.9823063083,
				"y": 1.4801134352,
				"z": 3.9215629165,
				"element": "F" 
			},
			{
				"x": -0.3844882995,
				"y": -0.057180693,
				"z": 4.6217085241,
				"element": "F" 
			},
			{
				"x": -0.7582219529,
				"y": 0.8262671127,
				"z": 2.4598563238,
				"element": "C" 
			},
			{
				"x": -0.0775410972,
				"y": -0.0801606809,
				"z": 1.7960238867,
				"element": "N" 
			},
			{
				"x": -0.4394913351,
				"y": -0.3419114697,
				"z": 0.5150414866,
				"element": "C" 
			},
			{
				"x": -1.529248097,
				"y": 0.3287917514,
				"z": -0.1377933986,
				"element": "C" 
			},
			{
				"x": -1.8499060049,
				"y": 0.0020202518,
				"z": -1.480957357,
				"element": "C" 
			},
			{
				"x": -1.1217500953,
				"y": -0.9504166823,
				"z": -2.1526323176,
				"element": "C" 
			},
			{
				"x": -0.0465475593,
				"y": -1.6164217539,
				"z": -1.5188426977,
				"element": "C" 
			},
			{
				"x": 0.2946423513,
				"y": -1.3268760856,
				"z": -0.2171718363,
				"element": "C" 
			},
			{
				"x": 1.4484605475,
				"y": -2.0500811422,
				"z": 0.4432217566,
				"element": "C" 
			},
			{
				"x": 2.0121002932,
				"y": -2.9385452325,
				"z": -0.4123970234,
				"element": "F" 
			},
			{
				"x": 2.4206588184,
				"y": -1.2021589813,
				"z": 0.8254025746,
				"element": "F" 
			},
			{
				"x": 1.0533407816,
				"y": -2.7442448601,
				"z": 1.5258964712,
				"element": "F" 
			},
			{
				"x": -2.2219487033,
				"y": 1.2975831298,
				"z": 0.6393114378,
				"element": "C" 
			},
			{
				"x": -3.5673434556,
				"y": 2.1807793671,
				"z": -0.045329986,
				"element": "Cl" 
			},
			{
				"x": -1.848289295,
				"y": 1.5562192724,
				"z": 1.9371032661,
				"element": "C" 
			},
			{
				"x": -2.6735334984,
				"y": 0.5125106675,
				"z": -1.966303154,
				"element": "H" 
			},
			{
				"x": -1.3691742366,
				"y": -1.1984715918,
				"z": -3.1797404864,
				"element": "H" 
			},
			{
				"x": 0.5180818892,
				"y": -2.3647169616,
				"z": -2.0619878519,
				"element": "H" 
			},
			{
				"x": -2.3659835691,
				"y": 2.2897065383,
				"z": 2.5401485443,
				"element": "H" 
			}
		],
		 "valence_orbital": [ 
			{
				"type": "occ",
				"energy": -0.34204,
				"method": "rhf"
			},
			{
				"type": "occ",
				"energy": -0.31416,
				"method": "rhf"
			},
			{
				"type": "occ",
				"energy": -0.28963,
				"method": "rhf"
			},
			{
				"type": "occ",
				"energy": -0.28773,
				"method": "rhf"
			},
			{
				"type": "occ",
				"energy": -0.26445,
				"method": "rhf"
			},
			{
				"type": "unocc",
				"energy": -0.09283,
				"method": "rhf"
			},
			{
				"type": "unocc",
				"energy": -0.05393,
				"method": "rhf"
			},
			{
				"type": "unocc",
				"energy": -0.01847,
				"method": "rhf"
			},
			{
				"type": "unocc",
				"energy": 0.00483,
				"method": "rhf"
			},
			{
				"type": "unocc",
				"energy": 0.0461,
				"method": "rhf"
			}
		],
		"cosmo_sigma_profile": { 
			"-0.025": 0.0,
			"-0.024": 0.0,
			"-0.023": 0.0,
			"-0.022": 0.0,
			"-0.021": 0.0,
			"-0.02": 0.0,
			"-0.019": 0.0,
			"-0.018": 0.0,
			"-0.017": 0.0,
			"-0.016": 0.0,
			"-0.015": 0.0,
			"-0.014": 0.0,
			"-0.013": 0.0,
			"-0.012": 0.0,
			"-0.011": 0.0,
			"-0.01": 0.0,
			"-0.009": 0.676780514781,
			"-0.008": 4.31226185956,
			"-0.007": 7.8484020875,
			"-0.006": 7.31097776239,
			"-0.005": 8.68120695043,
			"-0.004": 11.2638971425,
			"-0.003": 17.7612540878,
			"-0.002": 24.8554127956,
			"-0.001": 25.7277087384,
			"0.0": 22.1233642355,
			"0.001": 25.2832855136,
			"0.002": 49.3347567065,
			"0.003": 41.8403896774,
			"0.004": 6.45653146159,
			"0.005": 3.44685146183,
			"0.006": 3.13695280908,
			"0.007": 2.33125793255,
			"0.008": 1.35639459716,
			"0.009": 1.45352991943,
			"0.01": 0.516653492341,
			"0.011": 0.0,
			"0.012": 0.0,
			"0.013": 0.0,
			"0.014": 0.0,
			"0.015": 0.0,
			"0.016": 0.0,
			"0.017": 0.0,
			"0.018": 0.0,
			"0.019": 0.0,
			"0.02": 0.0,
			"0.021": 0.0,
			"0.022": 0.0,
			"0.023": 0.0,
			"0.024": 0.0,
			"0.025": 0.0
		}
	}
}
