{
	 "smiles": "OCC1=CN=C2C=CC=CN12", 
	 "Tm": 397.15, 
	 "num_atms": 19, 
	 "gaussian": { 
		 "optdone": 1, 
		 "sigma_profile": "yes", 
		 "theory": "DFT", 
		 "functional": "B3LYP", 
		 "basiset": "6-31G**", 
		 "properties": { 
			 "R2extent": 1727.6615, 
			 "electric_dipole_moment_norm": 3.53945207765, 
			 "electric_quadrupole_moment_norm": 4.02615348068, 
			 "total_energy": -494.377079091, 
			 "HOMO_LUMO_gap": 0.17297, 
			 "cosmo_polarized_energy": -13.63, 
			 "cosmo_cavitation_energy": 22.81, 
			 "cosmo_dispersion_energy": -17.13, 
			 "cosmo_repulsion_energy": 1.36, 
			 "cosmo_total_nonelectrostatic_energy": 7.04, 
			 "SMD_solvation_energy": 2.37 
		},
		"coords": [
			{
				"x": 2.5313779077,
				"y": 2.7962939074,
				"z": -0.4181414207,
				"element": "O" 
			},
			{
				"x": 1.7633368988,
				"y": 1.7775058434,
				"z": -1.0356700524,
				"element": "C" 
			},
			{
				"x": 0.6949963593,
				"y": 1.2576559343,
				"z": -0.1221113069,
				"element": "C" 
			},
			{
				"x": 0.1242950052,
				"y": 1.8086142768,
				"z": 1.0130254157,
				"element": "C" 
			},
			{
				"x": -0.8133138269,
				"y": 0.9957107936,
				"z": 1.5750937582,
				"element": "N" 
			},
			{
				"x": -0.8533873588,
				"y": -0.0791345912,
				"z": 0.7931586416,
				"element": "C" 
			},
			{
				"x": -1.6379260675,
				"y": -1.2523289046,
				"z": 0.8751763764,
				"element": "C" 
			},
			{
				"x": -1.4918777002,
				"y": -2.2385669673,
				"z": -0.070432968,
				"element": "C" 
			},
			{
				"x": -0.5567423142,
				"y": -2.0816618192,
				"z": -1.1331218857,
				"element": "C" 
			},
			{
				"x": 0.2040864264,
				"y": -0.9501253467,
				"z": -1.225924534,
				"element": "C" 
			},
			{
				"x": 0.0654395246,
				"y": 0.0353521429,
				"z": -0.275664026,
				"element": "N" 
			},
			{
				"x": 2.8816238854,
				"y": 2.4318534251,
				"z": 0.4061961856,
				"element": "H" 
			},
			{
				"x": 1.3357541732,
				"y": 2.2397492586,
				"z": -1.9349581799,
				"element": "H" 
			},
			{
				"x": 2.3995120332,
				"y": 0.9444364105,
				"z": -1.385457347,
				"element": "H" 
			},
			{
				"x": 0.3684111765,
				"y": 2.7720920975,
				"z": 1.4403234218,
				"element": "H" 
			},
			{
				"x": -2.3409362546,
				"y": -1.3329852675,
				"z": 1.6962290736,
				"element": "H" 
			},
			{
				"x": -2.0915853816,
				"y": -3.1410543256,
				"z": -0.015913563,
				"element": "H" 
			},
			{
				"x": -0.4411304937,
				"y": -2.8538014723,
				"z": -1.885167011,
				"element": "H" 
			},
			{
				"x": 0.9214660073,
				"y": -0.7707053957,
				"z": -2.0169405782,
				"element": "H" 
			}
		],
		 "valence_orbital": [ 
			{
				"type": "occ",
				"energy": -0.31953,
				"method": "rhf"
			},
			{
				"type": "occ",
				"energy": -0.28685,
				"method": "rhf"
			},
			{
				"type": "occ",
				"energy": -0.26632,
				"method": "rhf"
			},
			{
				"type": "occ",
				"energy": -0.24406,
				"method": "rhf"
			},
			{
				"type": "occ",
				"energy": -0.20743,
				"method": "rhf"
			},
			{
				"type": "unocc",
				"energy": -0.03446,
				"method": "rhf"
			},
			{
				"type": "unocc",
				"energy": 0.00086,
				"method": "rhf"
			},
			{
				"type": "unocc",
				"energy": 0.06084,
				"method": "rhf"
			},
			{
				"type": "unocc",
				"energy": 0.07885,
				"method": "rhf"
			},
			{
				"type": "unocc",
				"energy": 0.082,
				"method": "rhf"
			}
		],
		"cosmo_sigma_profile": { 
			"-0.025": 0.0,
			"-0.024": 0.0,
			"-0.023": 0.0,
			"-0.022": 0.0,
			"-0.021": 0.0,
			"-0.02": 0.0,
			"-0.019": 0.0,
			"-0.018": 0.0,
			"-0.017": 0.0,
			"-0.016": 0.259198185121,
			"-0.015": 1.00606384465,
			"-0.014": 0.778521120201,
			"-0.013": 0.795542791757,
			"-0.012": 0.698350249649,
			"-0.011": 0.755438585977,
			"-0.01": 0.843131183697,
			"-0.009": 3.14808639711,
			"-0.008": 4.21338003313,
			"-0.007": 8.16700300068,
			"-0.006": 15.264128029,
			"-0.005": 14.6324256972,
			"-0.004": 12.2550688153,
			"-0.003": 9.50051498269,
			"-0.002": 9.06910905197,
			"-0.001": 7.98415746076,
			"0.0": 11.7918306758,
			"0.001": 11.4497190483,
			"0.002": 12.8772705285,
			"0.003": 13.9048922755,
			"0.004": 10.1132228665,
			"0.005": 4.31128433887,
			"0.006": 3.24700565004,
			"0.007": 2.79385890444,
			"0.008": 2.20165584107,
			"0.009": 2.81717286264,
			"0.01": 2.05502622285,
			"0.011": 3.01632850838,
			"0.012": 2.62389463955,
			"0.013": 3.4182903312,
			"0.014": 1.93487409853,
			"0.015": 1.41550208344,
			"0.016": 1.07773606793,
			"0.017": 1.12185366373,
			"0.018": 0.676126465415,
			"0.019": 0.103632127513,
			"0.02": 0.0,
			"0.021": 0.0,
			"0.022": 0.0,
			"0.023": 0.0,
			"0.024": 0.0,
			"0.025": 0.0
		}
	}
}
