{
	 "smiles": "NC1=CC=C(C=C1)S(=O)(=O)C1=CC=C(NCCO)C=C1", 
	 "Tm": 404.15, 
	 "num_atms": 36, 
	 "gaussian": { 
		 "optdone": 1, 
		 "sigma_profile": "yes", 
		 "theory": "DFT", 
		 "functional": "B3LYP", 
		 "basiset": "6-31G**", 
		 "properties": { 
			 "R2extent": 8885.5767, 
			 "electric_dipole_moment_norm": 8.66275561874, 
			 "electric_quadrupole_moment_norm": 23.4991187509, 
			 "total_energy": -1276.42448108, 
			 "HOMO_LUMO_gap": 0.18174, 
			 "cosmo_polarized_energy": -28.66, 
			 "cosmo_cavitation_energy": 41.29, 
			 "cosmo_dispersion_energy": -29.72, 
			 "cosmo_repulsion_energy": 2.26, 
			 "cosmo_total_nonelectrostatic_energy": 13.83, 
			 "SMD_solvation_energy": 5.97 
		},
		"coords": [
			{
				"x": 0.9896536137,
				"y": 6.1037444588,
				"z": -0.3456075551,
				"element": "N" 
			},
			{
				"x": 0.3093111349,
				"y": 4.8974731845,
				"z": -0.3066251084,
				"element": "C" 
			},
			{
				"x": 0.2155031576,
				"y": 4.1654645688,
				"z": 0.893956249,
				"element": "C" 
			},
			{
				"x": -0.5091425825,
				"y": 2.982128869,
				"z": 0.9455388449,
				"element": "C" 
			},
			{
				"x": -1.1507478303,
				"y": 2.5068737845,
				"z": -0.2020415585,
				"element": "C" 
			},
			{
				"x": -1.0771325383,
				"y": 3.2264383868,
				"z": -1.398298907,
				"element": "C" 
			},
			{
				"x": -0.352812551,
				"y": 4.4100554034,
				"z": -1.4510785016,
				"element": "C" 
			},
			{
				"x": -2.0826646713,
				"y": 0.9798149368,
				"z": -0.1353615262,
				"element": "S" 
			},
			{
				"x": -2.4857928648,
				"y": 0.7763445567,
				"z": 1.2677386254,
				"element": "O" 
			},
			{
				"x": -3.071601142,
				"y": 1.0256352413,
				"z": -1.2274956587,
				"element": "O" 
			},
			{
				"x": -0.9151550477,
				"y": -0.318171311,
				"z": -0.5394460361,
				"element": "C" 
			},
			{
				"x": -0.7340569846,
				"y": -0.7042593782,
				"z": -1.871977026,
				"element": "C" 
			},
			{
				"x": 0.1679548204,
				"y": -1.7107013204,
				"z": -2.1811365836,
				"element": "C" 
			},
			{
				"x": 0.9089113743,
				"y": -2.3587694702,
				"z": -1.1685810998,
				"element": "C" 
			},
			{
				"x": 1.7844715961,
				"y": -3.3777777997,
				"z": -1.5201546776,
				"element": "N" 
			},
			{
				"x": 2.829576613,
				"y": -3.8912259794,
				"z": -0.6358984692,
				"element": "C" 
			},
			{
				"x": 2.3499651624,
				"y": -5.1077259753,
				"z": 0.1658237865,
				"element": "C" 
			},
			{
				"x": 1.9088190374,
				"y": -6.1450483517,
				"z": -0.6885763537,
				"element": "O" 
			},
			{
				"x": 0.7026825237,
				"y": -1.9672850565,
				"z": 0.1696886088,
				"element": "C" 
			},
			{
				"x": -0.2016211022,
				"y": -0.9550788822,
				"z": 0.4764761413,
				"element": "C" 
			},
			{
				"x": 1.6761432131,
				"y": 6.2616200853,
				"z": 0.3772050632,
				"element": "H" 
			},
			{
				"x": 1.2805910929,
				"y": 6.4319696778,
				"z": -1.2546029254,
				"element": "H" 
			},
			{
				"x": 0.7042387311,
				"y": 4.5412072585,
				"z": 1.7891827554,
				"element": "H" 
			},
			{
				"x": -0.599601807,
				"y": 2.4329710811,
				"z": 1.876652251,
				"element": "H" 
			},
			{
				"x": -1.6058167365,
				"y": 2.8655085461,
				"z": -2.2740485071,
				"element": "H" 
			},
			{
				"x": -0.3057841175,
				"y": 4.9758331037,
				"z": -2.3779892402,
				"element": "H" 
			},
			{
				"x": -1.3160785209,
				"y": -0.2273292437,
				"z": -2.6532815418,
				"element": "H" 
			},
			{
				"x": 0.3029569288,
				"y": -2.0147362339,
				"z": -3.2165175263,
				"element": "H" 
			},
			{
				"x": 2.0097040589,
				"y": -3.4031160371,
				"z": -2.5035111557,
				"element": "H" 
			},
			{
				"x": 3.666458286,
				"y": -4.206361271,
				"z": -1.266507233,
				"element": "H" 
			},
			{
				"x": 3.2006792494,
				"y": -3.1042428482,
				"z": 0.035344134,
				"element": "H" 
			},
			{
				"x": 3.1833548765,
				"y": -5.509267374,
				"z": 0.7521670197,
				"element": "H" 
			},
			{
				"x": 1.5609183018,
				"y": -4.8077764112,
				"z": 0.8733457325,
				"element": "H" 
			},
			{
				"x": 1.2113582587,
				"y": -5.7573318598,
				"z": -1.2370601484,
				"element": "H" 
			},
			{
				"x": 1.2331925903,
				"y": -2.462431011,
				"z": 0.9744884362,
				"element": "H" 
			},
			{
				"x": -0.3755361242,
				"y": -0.6731473288,
				"z": 1.5094896915,
				"element": "H" 
			}
		],
		 "valence_orbital": [ 
			{
				"type": "occ",
				"energy": -0.27098,
				"method": "rhf"
			},
			{
				"type": "occ",
				"energy": -0.26448,
				"method": "rhf"
			},
			{
				"type": "occ",
				"energy": -0.26053,
				"method": "rhf"
			},
			{
				"type": "occ",
				"energy": -0.2266,
				"method": "rhf"
			},
			{
				"type": "occ",
				"energy": -0.20991,
				"method": "rhf"
			},
			{
				"type": "unocc",
				"energy": -0.02817,
				"method": "rhf"
			},
			{
				"type": "unocc",
				"energy": -0.01714,
				"method": "rhf"
			},
			{
				"type": "unocc",
				"energy": -0.0071,
				"method": "rhf"
			},
			{
				"type": "unocc",
				"energy": 0.00311,
				"method": "rhf"
			},
			{
				"type": "unocc",
				"energy": 0.05871,
				"method": "rhf"
			}
		],
		"cosmo_sigma_profile": { 
			"-0.025": 0.0,
			"-0.024": 0.0,
			"-0.023": 0.0,
			"-0.022": 0.0,
			"-0.021": 0.0,
			"-0.02": 0.0,
			"-0.019": 0.0,
			"-0.018": 0.0,
			"-0.017": 0.0,
			"-0.016": 0.0,
			"-0.015": 0.0,
			"-0.014": 0.623302162312,
			"-0.013": 4.69202863503,
			"-0.012": 4.74724501067,
			"-0.011": 5.4000640891,
			"-0.01": 4.6745014032,
			"-0.009": 5.78402047955,
			"-0.008": 5.98790125374,
			"-0.007": 9.01156690477,
			"-0.006": 18.4811474117,
			"-0.005": 23.3495990942,
			"-0.004": 24.7585092402,
			"-0.003": 22.0750249659,
			"-0.002": 18.1677063757,
			"-0.001": 16.3890671804,
			"0.0": 13.0230396991,
			"0.001": 15.7761474425,
			"0.002": 15.5170188461,
			"0.003": 23.4377133157,
			"0.004": 31.6001716425,
			"0.005": 11.3088976273,
			"0.006": 4.5598481193,
			"0.007": 5.05241514045,
			"0.008": 4.35793517733,
			"0.009": 4.88872139754,
			"0.01": 6.48749519051,
			"0.011": 8.1595916005,
			"0.012": 9.93374862555,
			"0.013": 5.75900248434,
			"0.014": 2.53116381289,
			"0.015": 0.912980849915,
			"0.016": 0.0,
			"0.017": 0.0,
			"0.018": 0.0,
			"0.019": 0.0,
			"0.02": 0.0,
			"0.021": 0.0,
			"0.022": 0.0,
			"0.023": 0.0,
			"0.024": 0.0,
			"0.025": 0.0
		}
	}
}
