{
	 "smiles": "NC(=O)C(F)(F)Cl", 
	 "Tm": 355.15, 
	 "num_atms": 9, 
	 "gaussian": { 
		 "optdone": 1, 
		 "sigma_profile": "yes", 
		 "theory": "DFT", 
		 "functional": "B3LYP", 
		 "basiset": "6-31G**", 
		 "properties": { 
			 "R2extent": 1019.9247, 
			 "electric_dipole_moment_norm": 3.77737722898, 
			 "electric_quadrupole_moment_norm": 4.73486916292, 
			 "total_energy": -867.264943922, 
			 "HOMO_LUMO_gap": 0.24823, 
			 "cosmo_polarized_energy": -10.89, 
			 "cosmo_cavitation_energy": 16.36, 
			 "cosmo_dispersion_energy": -12.0, 
			 "cosmo_repulsion_energy": 1.02, 
			 "cosmo_total_nonelectrostatic_energy": 5.37, 
			 "SMD_solvation_energy": 4.32 
		},
		"coords": [
			{
				"x": 0.5099008295,
				"y": 1.0904836734,
				"z": -0.5073662261,
				"element": "N" 
			},
			{
				"x": 0.0379005865,
				"y": 0.3957532598,
				"z": 0.5559137693,
				"element": "C" 
			},
			{
				"x": -0.506491476,
				"y": 0.8606572317,
				"z": 1.5353627188,
				"element": "O" 
			},
			{
				"x": 0.283566048,
				"y": -1.1341973288,
				"z": 0.4472149842,
				"element": "C" 
			},
			{
				"x": 0.4430731826,
				"y": -1.5133721594,
				"z": -0.8483499126,
				"element": "F" 
			},
			{
				"x": -0.7591406504,
				"y": -1.7985035098,
				"z": 0.9498674729,
				"element": "F" 
			},
			{
				"x": 1.7682612877,
				"y": -1.5950737123,
				"z": 1.3515237915,
				"element": "Cl" 
			},
			{
				"x": 0.3840358368,
				"y": 2.0913353134,
				"z": -0.5145320018,
				"element": "H" 
			},
			{
				"x": 0.8655943553,
				"y": 0.625917232,
				"z": -1.3270345962,
				"element": "H" 
			}
		],
		 "valence_orbital": [ 
			{
				"type": "occ",
				"energy": -0.39249,
				"method": "rhf"
			},
			{
				"type": "occ",
				"energy": -0.33836,
				"method": "rhf"
			},
			{
				"type": "occ",
				"energy": -0.33634,
				"method": "rhf"
			},
			{
				"type": "occ",
				"energy": -0.29744,
				"method": "rhf"
			},
			{
				"type": "occ",
				"energy": -0.28147,
				"method": "rhf"
			},
			{
				"type": "unocc",
				"energy": -0.03324,
				"method": "rhf"
			},
			{
				"type": "unocc",
				"energy": 0.03276,
				"method": "rhf"
			},
			{
				"type": "unocc",
				"energy": 0.06403,
				"method": "rhf"
			},
			{
				"type": "unocc",
				"energy": 0.1052,
				"method": "rhf"
			},
			{
				"type": "unocc",
				"energy": 0.12419,
				"method": "rhf"
			}
		],
		"cosmo_sigma_profile": { 
			"-0.025": 0.0,
			"-0.024": 0.0,
			"-0.023": 0.0,
			"-0.022": 0.0,
			"-0.021": 0.0,
			"-0.02": 0.0,
			"-0.019": 0.0,
			"-0.018": 0.0,
			"-0.017": 0.0,
			"-0.016": 0.904977322609,
			"-0.015": 2.15878721667,
			"-0.014": 2.03541851086,
			"-0.013": 2.16715468938,
			"-0.012": 2.60685783364,
			"-0.011": 2.30973817453,
			"-0.01": 1.75531544089,
			"-0.009": 2.06605999606,
			"-0.008": 1.35653567108,
			"-0.007": 2.3422693467,
			"-0.006": 3.16318700879,
			"-0.005": 2.92821020389,
			"-0.004": 3.60755467089,
			"-0.003": 4.34069432364,
			"-0.002": 4.47137941804,
			"-0.001": 8.66071337201,
			"0.0": 10.2910259403,
			"0.001": 17.7457777161,
			"0.002": 24.0175724508,
			"0.003": 12.3481236183,
			"0.004": 2.07843040816,
			"0.005": 1.39761117129,
			"0.006": 1.59430393178,
			"0.007": 1.79784689282,
			"0.008": 1.59904047306,
			"0.009": 1.13420843093,
			"0.01": 2.59809417929,
			"0.011": 3.69988845646,
			"0.012": 5.16649082725,
			"0.013": 0.544248164769,
			"0.014": 0.0,
			"0.015": 0.0,
			"0.016": 0.0,
			"0.017": 0.0,
			"0.018": 0.0,
			"0.019": 0.0,
			"0.02": 0.0,
			"0.021": 0.0,
			"0.022": 0.0,
			"0.023": 0.0,
			"0.024": 0.0,
			"0.025": 0.0
		}
	}
}
