{
	 "smiles": "NC1=NN=C2C=CC=CN12", 
	 "Tm": 503.15, 
	 "num_atms": 16, 
	 "gaussian": { 
		 "optdone": 1, 
		 "sigma_profile": "yes", 
		 "theory": "DFT", 
		 "functional": "B3LYP", 
		 "basiset": "6-31G**", 
		 "properties": { 
			 "R2extent": 1236.4657, 
			 "electric_dipole_moment_norm": 5.00093606138, 
			 "electric_quadrupole_moment_norm": 11.559209691, 
			 "total_energy": -451.227133316, 
			 "HOMO_LUMO_gap": 0.16317, 
			 "cosmo_polarized_energy": -18.91, 
			 "cosmo_cavitation_energy": 20.31, 
			 "cosmo_dispersion_energy": -15.45, 
			 "cosmo_repulsion_energy": 1.24, 
			 "cosmo_total_nonelectrostatic_energy": 6.09, 
			 "SMD_solvation_energy": 1.84 
		},
		"coords": [
			{
				"x": -1.7428085482,
				"y": 1.3998465769,
				"z": -1.9109605258,
				"element": "N" 
			},
			{
				"x": -1.4111813353,
				"y": 0.8990298178,
				"z": -0.6516134692,
				"element": "C" 
			},
			{
				"x": -2.1649739449,
				"y": 0.8722779105,
				"z": 0.4286275365,
				"element": "N" 
			},
			{
				"x": -1.4886419054,
				"y": 0.2143770434,
				"z": 1.4260009184,
				"element": "N" 
			},
			{
				"x": -0.3116879174,
				"y": -0.1378953501,
				"z": 0.933022505,
				"element": "C" 
			},
			{
				"x": 0.7977314443,
				"y": -0.8144852121,
				"z": 1.5065765414,
				"element": "C" 
			},
			{
				"x": 1.8970941835,
				"y": -1.0660651491,
				"z": 0.729723498,
				"element": "C" 
			},
			{
				"x": 1.9324880932,
				"y": -0.6649794202,
				"z": -0.6466234097,
				"element": "C" 
			},
			{
				"x": 0.87735052,
				"y": -0.0073758648,
				"z": -1.2019931255,
				"element": "C" 
			},
			{
				"x": -0.2165972982,
				"y": 0.2650176366,
				"z": -0.4082340614,
				"element": "N" 
			},
			{
				"x": -2.7301974445,
				"y": 1.6340858459,
				"z": -1.9237538831,
				"element": "H" 
			},
			{
				"x": -1.2071299646,
				"y": 2.2282809971,
				"z": -2.1601115443,
				"element": "H" 
			},
			{
				"x": 0.7351524642,
				"y": -1.1143850371,
				"z": 2.5460726227,
				"element": "H" 
			},
			{
				"x": 2.7542561751,
				"y": -1.5812376831,
				"z": 1.1506405249,
				"element": "H" 
			},
			{
				"x": 2.7974810181,
				"y": -0.8893759721,
				"z": -1.2600319022,
				"element": "H" 
			},
			{
				"x": 0.8142644601,
				"y": 0.3106838603,
				"z": -2.2351422257,
				"element": "H" 
			}
		],
		 "valence_orbital": [ 
			{
				"type": "occ",
				"energy": -0.31239,
				"method": "rhf"
			},
			{
				"type": "occ",
				"energy": -0.29916,
				"method": "rhf"
			},
			{
				"type": "occ",
				"energy": -0.2626,
				"method": "rhf"
			},
			{
				"type": "occ",
				"energy": -0.24658,
				"method": "rhf"
			},
			{
				"type": "occ",
				"energy": -0.20777,
				"method": "rhf"
			},
			{
				"type": "unocc",
				"energy": -0.0446,
				"method": "rhf"
			},
			{
				"type": "unocc",
				"energy": 0.0019,
				"method": "rhf"
			},
			{
				"type": "unocc",
				"energy": 0.06081,
				"method": "rhf"
			},
			{
				"type": "unocc",
				"energy": 0.06546,
				"method": "rhf"
			},
			{
				"type": "unocc",
				"energy": 0.09272,
				"method": "rhf"
			}
		],
		"cosmo_sigma_profile": { 
			"-0.025": -0.281094690813,
			"-0.024": 0.166232391925,
			"-0.023": 0.0531703226293,
			"-0.022": 0.0778877793707,
			"-0.021": 0.0125980077921,
			"-0.02": 0.00485433020794,
			"-0.019": 0.0127086781355,
			"-0.018": 0.410625540415,
			"-0.017": 0.28684068545,
			"-0.016": 0.00182563768547,
			"-0.015": 0.261990097242,
			"-0.014": 0.61084718638,
			"-0.013": 2.19710108124,
			"-0.012": 2.84051306737,
			"-0.011": 3.43812708101,
			"-0.01": 2.63122387216,
			"-0.009": 2.69495829428,
			"-0.008": 4.56384623912,
			"-0.007": 9.79218254059,
			"-0.006": 10.3806397823,
			"-0.005": 8.13788607434,
			"-0.004": 7.28531658111,
			"-0.003": 7.06787884833,
			"-0.002": 8.19987479876,
			"-0.001": 10.4616811514,
			"0.0": 10.1714752724,
			"0.001": 11.0472712645,
			"0.002": 11.5438028665,
			"0.003": 9.42965254618,
			"0.004": 3.81253298154,
			"0.005": 2.46573566417,
			"0.006": 2.5888819245,
			"0.007": 2.07330788608,
			"0.008": 2.82029572663,
			"0.009": 1.9105654301,
			"0.01": 2.28005393992,
			"0.011": 2.46166461974,
			"0.012": 2.14680678832,
			"0.013": 4.54439097715,
			"0.014": 3.08385894947,
			"0.015": 3.70675388023,
			"0.016": 2.50952749745,
			"0.017": 2.19005597806,
			"0.018": 0.473303942768,
			"0.019": 0.0,
			"0.02": 0.0,
			"0.021": 0.0,
			"0.022": 0.0,
			"0.023": 1.21984427651,
			"0.024": -0.941942360326,
			"0.025": -0.237537314292
		}
	}
}
