{
	 "smiles": "NCC1=CC2=C(O1)C=CC(Br)=C2", 
	 "Tm": 312.65, 
	 "num_atms": 20, 
	 "gaussian": { 
		 "optdone": 1, 
		 "sigma_profile": "yes", 
		 "theory": "DFT", 
		 "functional": "B3LYP", 
		 "basiset": "6-31G**", 
		 "properties": { 
			 "R2extent": 5527.6991, 
			 "electric_dipole_moment_norm": 1.27934972154, 
			 "electric_quadrupole_moment_norm": 13.2942038679, 
			 "total_energy": -3049.14652306, 
			 "HOMO_LUMO_gap": 0.19429, 
			 "cosmo_polarized_energy": -8.43, 
			 "cosmo_cavitation_energy": 26.64, 
			 "cosmo_dispersion_energy": -20.18, 
			 "cosmo_repulsion_energy": 1.63, 
			 "cosmo_total_nonelectrostatic_energy": 8.09, 
			 "SMD_solvation_energy": 2.12 
		},
		"coords": [
			{
				"x": -1.7532721934,
				"y": 3.8141508378,
				"z": 0.2797391515,
				"element": "N" 
			},
			{
				"x": -1.8792738711,
				"y": 2.4895630827,
				"z": -0.3414159547,
				"element": "C" 
			},
			{
				"x": -1.1069809122,
				"y": 1.3888082828,
				"z": 0.3178170734,
				"element": "C" 
			},
			{
				"x": -1.4744172558,
				"y": 0.2457433716,
				"z": 0.9571072848,
				"element": "C" 
			},
			{
				"x": -0.2587191839,
				"y": -0.383278534,
				"z": 1.4123072636,
				"element": "C" 
			},
			{
				"x": 0.7803162606,
				"y": 0.4709002526,
				"z": 0.9959204464,
				"element": "C" 
			},
			{
				"x": 0.2664672169,
				"y": 1.5495018513,
				"z": 0.3288495418,
				"element": "O" 
			},
			{
				"x": 2.1238471582,
				"y": 0.2216304185,
				"z": 1.242598004,
				"element": "C" 
			},
			{
				"x": 2.430784493,
				"y": -0.9449053571,
				"z": 1.9424527987,
				"element": "C" 
			},
			{
				"x": 1.4049458301,
				"y": -1.8069336843,
				"z": 2.3647190613,
				"element": "C" 
			},
			{
				"x": 1.8866750202,
				"y": -3.3948409965,
				"z": 3.3228707502,
				"element": "Br" 
			},
			{
				"x": 0.0607201382,
				"y": -1.5540049759,
				"z": 2.1156744437,
				"element": "C" 
			},
			{
				"x": -2.0279492898,
				"y": 3.7572870353,
				"z": 1.2582474154,
				"element": "H" 
			},
			{
				"x": -0.7746748858,
				"y": 4.0926410475,
				"z": 0.2776702326,
				"element": "H" 
			},
			{
				"x": -2.93572302,
				"y": 2.2034187656,
				"z": -0.3563941708,
				"element": "H" 
			},
			{
				"x": -1.5611057796,
				"y": 2.5801892484,
				"z": -1.3873274431,
				"element": "H" 
			},
			{
				"x": -2.4868559039,
				"y": -0.1092631478,
				"z": 1.0874202441,
				"element": "H" 
			},
			{
				"x": 2.8986187312,
				"y": 0.9014991633,
				"z": 0.9057476748,
				"element": "H" 
			},
			{
				"x": 3.4622097282,
				"y": -1.1922589057,
				"z": 2.1634007982,
				"element": "H" 
			},
			{
				"x": -0.7056122811,
				"y": -2.2408477562,
				"z": 2.4555953841,
				"element": "H" 
			}
		],
		 "valence_orbital": [ 
			{
				"type": "occ",
				"energy": -0.29984,
				"method": "rhf"
			},
			{
				"type": "occ",
				"energy": -0.28437,
				"method": "rhf"
			},
			{
				"type": "occ",
				"energy": -0.25503,
				"method": "rhf"
			},
			{
				"type": "occ",
				"energy": -0.23468,
				"method": "rhf"
			},
			{
				"type": "occ",
				"energy": -0.22576,
				"method": "rhf"
			},
			{
				"type": "unocc",
				"energy": -0.03147,
				"method": "rhf"
			},
			{
				"type": "unocc",
				"energy": -0.00022,
				"method": "rhf"
			},
			{
				"type": "unocc",
				"energy": 0.00877,
				"method": "rhf"
			},
			{
				"type": "unocc",
				"energy": 0.04314,
				"method": "rhf"
			},
			{
				"type": "unocc",
				"energy": 0.08503,
				"method": "rhf"
			}
		],
		"cosmo_sigma_profile": { 
			"-0.025": 0.0,
			"-0.024": 0.0,
			"-0.023": 0.0,
			"-0.022": 0.0,
			"-0.021": 0.0,
			"-0.02": 0.0,
			"-0.019": 0.0,
			"-0.018": 0.0,
			"-0.017": 0.0,
			"-0.016": 0.0,
			"-0.015": 0.0,
			"-0.014": 0.0,
			"-0.013": 0.0,
			"-0.012": 0.0,
			"-0.011": 0.13091244219,
			"-0.01": 1.48670746398,
			"-0.009": 2.49296389941,
			"-0.008": 3.48063472191,
			"-0.007": 10.0084721628,
			"-0.006": 11.0325429622,
			"-0.005": 16.61157411,
			"-0.004": 13.3194322253,
			"-0.003": 11.4777564635,
			"-0.002": 13.8259558951,
			"-0.001": 12.0562362426,
			"0.0": 11.7201490602,
			"0.001": 16.847465262,
			"0.002": 21.0484479715,
			"0.003": 25.8052497136,
			"0.004": 20.4012286417,
			"0.005": 12.2474115308,
			"0.006": 2.02500266319,
			"0.007": 1.30429238901,
			"0.008": 1.43067332632,
			"0.009": 0.683644548015,
			"0.01": 0.844275370296,
			"0.011": 0.675067748568,
			"0.012": 0.986229337883,
			"0.013": 0.757673605998,
			"0.014": 0.279129174099,
			"0.015": 0.336891721184,
			"0.016": 0.804483965403,
			"0.017": 0.70184998752,
			"0.018": 0.650520444791,
			"0.019": 0.461281820814,
			"0.02": 0.0414265730659,
			"0.021": 0.0,
			"0.022": 0.0,
			"0.023": 0.0,
			"0.024": 0.0,
			"0.025": 0.0
		}
	}
}
