{
	 "smiles": "CC1=C(C=C(O1)C(O)=O)C(=O)CCl", 
	 "Tm": 480.15, 
	 "num_atms": 20, 
	 "gaussian": { 
		 "optdone": 1, 
		 "sigma_profile": "yes", 
		 "theory": "DFT", 
		 "functional": "B3LYP", 
		 "basiset": "6-31G**", 
		 "properties": { 
			 "R2extent": 3661.1567, 
			 "electric_dipole_moment_norm": 3.88070865307, 
			 "electric_quadrupole_moment_norm": 26.580975864, 
			 "total_energy": -1070.14967279, 
			 "HOMO_LUMO_gap": 0.18158, 
			 "cosmo_polarized_energy": -16.34, 
			 "cosmo_cavitation_energy": 27.3, 
			 "cosmo_dispersion_energy": -19.78, 
			 "cosmo_repulsion_energy": 1.6, 
			 "cosmo_total_nonelectrostatic_energy": 9.12, 
			 "SMD_solvation_energy": 6.88 
		},
		"coords": [
			{
				"x": -2.4126087794,
				"y": -1.1185317839,
				"z": 2.937875405,
				"element": "C" 
			},
			{
				"x": -1.909815331,
				"y": -0.3390345319,
				"z": 1.7787245152,
				"element": "C" 
			},
			{
				"x": -1.2660976399,
				"y": -0.6816533146,
				"z": 0.6007014225,
				"element": "C" 
			},
			{
				"x": -1.0408633981,
				"y": 0.5463131968,
				"z": -0.1103451435,
				"element": "C" 
			},
			{
				"x": -1.5531266053,
				"y": 1.5409331805,
				"z": 0.661166931,
				"element": "C" 
			},
			{
				"x": -2.0853179187,
				"y": 1.0040771542,
				"z": 1.8204436983,
				"element": "O" 
			},
			{
				"x": -1.6250939918,
				"y": 2.9992703305,
				"z": 0.4687737617,
				"element": "C" 
			},
			{
				"x": -2.2079030531,
				"y": 3.6955170566,
				"z": 1.4743002649,
				"element": "O" 
			},
			{
				"x": -1.1957200684,
				"y": 3.5440038692,
				"z": -0.520762226,
				"element": "O" 
			},
			{
				"x": -0.9294725862,
				"y": -2.0549416352,
				"z": 0.1832799199,
				"element": "C" 
			},
			{
				"x": -1.2202269556,
				"y": -3.0426856054,
				"z": 0.8423790155,
				"element": "O" 
			},
			{
				"x": -0.2191589668,
				"y": -2.2493750036,
				"z": -1.1579175173,
				"element": "C" 
			},
			{
				"x": 1.4657527261,
				"y": -1.5801941723,
				"z": -1.1237953902,
				"element": "Cl" 
			},
			{
				"x": -1.910393387,
				"y": -0.8043808127,
				"z": 3.8599586954,
				"element": "H" 
			},
			{
				"x": -3.4874658281,
				"y": -0.9551394119,
				"z": 3.0752854339,
				"element": "H" 
			},
			{
				"x": -2.2257887958,
				"y": -2.1771696601,
				"z": 2.7651525529,
				"element": "H" 
			},
			{
				"x": -0.549814584,
				"y": 0.6874776986,
				"z": -1.0609667513,
				"element": "H" 
			},
			{
				"x": -2.4855080077,
				"y": 3.0909882873,
				"z": 2.1800884921,
				"element": "H" 
			},
			{
				"x": -0.7462840559,
				"y": -1.747846651,
				"z": -1.9726824304,
				"element": "H" 
			},
			{
				"x": -0.1449927736,
				"y": -3.3177281908,
				"z": -1.3522606495,
				"element": "H" 
			}
		],
		 "valence_orbital": [ 
			{
				"type": "occ",
				"energy": -0.31902,
				"method": "rhf"
			},
			{
				"type": "occ",
				"energy": -0.3083,
				"method": "rhf"
			},
			{
				"type": "occ",
				"energy": -0.28618,
				"method": "rhf"
			},
			{
				"type": "occ",
				"energy": -0.27564,
				"method": "rhf"
			},
			{
				"type": "occ",
				"energy": -0.26042,
				"method": "rhf"
			},
			{
				"type": "unocc",
				"energy": -0.07884,
				"method": "rhf"
			},
			{
				"type": "unocc",
				"energy": -0.05844,
				"method": "rhf"
			},
			{
				"type": "unocc",
				"energy": 0.00822,
				"method": "rhf"
			},
			{
				"type": "unocc",
				"energy": 0.06106,
				"method": "rhf"
			},
			{
				"type": "unocc",
				"energy": 0.07075,
				"method": "rhf"
			}
		],
		"cosmo_sigma_profile": { 
			"-0.025": 0.0,
			"-0.024": 0.0,
			"-0.023": 0.0,
			"-0.022": 0.0,
			"-0.021": 0.0,
			"-0.02": 0.0,
			"-0.019": 0.0,
			"-0.018": 0.0635245291143,
			"-0.017": 0.475104056843,
			"-0.016": 0.583515373532,
			"-0.015": 0.457744076838,
			"-0.014": 0.979058680945,
			"-0.013": 0.789273680629,
			"-0.012": 0.918722662776,
			"-0.011": 0.968256999169,
			"-0.01": 2.57481182009,
			"-0.009": 6.23573397488,
			"-0.008": 5.95730421451,
			"-0.007": 8.50287698308,
			"-0.006": 10.4174907168,
			"-0.005": 12.2743062233,
			"-0.004": 10.8706945761,
			"-0.003": 15.5714653459,
			"-0.002": 19.7048001404,
			"-0.001": 16.5512459055,
			"0.0": 15.2587467968,
			"0.001": 11.2415005,
			"0.002": 9.38115593822,
			"0.003": 9.86871822676,
			"0.004": 9.64636970674,
			"0.005": 10.0481933356,
			"0.006": 6.14294089439,
			"0.007": 3.93786463542,
			"0.008": 4.54671042111,
			"0.009": 6.03064340449,
			"0.01": 7.23274071448,
			"0.011": 7.61161759363,
			"0.012": 4.85232570653,
			"0.013": 0.846277681559,
			"0.014": 0.0,
			"0.015": 0.0,
			"0.016": 0.0,
			"0.017": 0.0,
			"0.018": 0.0,
			"0.019": 0.0,
			"0.02": 0.0,
			"0.021": 0.0,
			"0.022": 0.0,
			"0.023": 0.0,
			"0.024": 0.0,
			"0.025": 0.0
		}
	}
}
