{
	 "smiles": "OC(=O)C1=CC=C(C=C1)C(=O)OCCBr", 
	 "Tm": 446.15, 
	 "num_atms": 24, 
	 "gaussian": { 
		 "optdone": 1, 
		 "sigma_profile": "yes", 
		 "theory": "DFT", 
		 "functional": "B3LYP", 
		 "basiset": "6-31G**", 
		 "properties": { 
			 "R2extent": 8543.7016, 
			 "electric_dipole_moment_norm": 1.83112532067, 
			 "electric_quadrupole_moment_norm": 15.9780160302, 
			 "total_energy": -3258.82364634, 
			 "HOMO_LUMO_gap": 0.19275, 
			 "cosmo_polarized_energy": -13.78, 
			 "cosmo_cavitation_energy": 31.96, 
			 "cosmo_dispersion_energy": -23.25, 
			 "cosmo_repulsion_energy": 1.84, 
			 "cosmo_total_nonelectrostatic_energy": 10.54, 
			 "SMD_solvation_energy": 6.43 
		},
		"coords": [
			{
				"x": 2.2771021969,
				"y": 1.1876101554,
				"z": -3.7487884331,
				"element": "O" 
			},
			{
				"x": 1.6066426916,
				"y": 0.0535868167,
				"z": -3.4303725193,
				"element": "C" 
			},
			{
				"x": 1.7178010674,
				"y": -0.968881668,
				"z": -4.0764690819,
				"element": "O" 
			},
			{
				"x": 0.7404876411,
				"y": 0.2072199565,
				"z": -2.2277630212,
				"element": "C" 
			},
			{
				"x": -0.002953421,
				"y": -0.9054572284,
				"z": -1.8113557543,
				"element": "C" 
			},
			{
				"x": -0.8263261555,
				"y": -0.8177453637,
				"z": -0.6943761989,
				"element": "C" 
			},
			{
				"x": -0.9110457284,
				"y": 0.3895052046,
				"z": 0.0148464552,
				"element": "C" 
			},
			{
				"x": -0.169968257,
				"y": 1.5033413565,
				"z": -0.4033998605,
				"element": "C" 
			},
			{
				"x": 0.6544270439,
				"y": 1.414689236,
				"z": -1.519700806,
				"element": "C" 
			},
			{
				"x": -1.7761875803,
				"y": 0.5460691498,
				"z": 1.2189455301,
				"element": "C" 
			},
			{
				"x": -1.9078605552,
				"y": 1.583170249,
				"z": 1.8404383325,
				"element": "O" 
			},
			{
				"x": -2.4038211288,
				"y": -0.6071482356,
				"z": 1.5550495752,
				"element": "O" 
			},
			{
				"x": -3.2574008434,
				"y": -0.554244526,
				"z": 2.7085970417,
				"element": "C" 
			},
			{
				"x": -4.6139873618,
				"y": 0.0553236876,
				"z": 2.4119277511,
				"element": "C" 
			},
			{
				"x": -5.6338183304,
				"y": -0.9921533069,
				"z": 1.0836089683,
				"element": "Br" 
			},
			{
				"x": 2.8015842308,
				"y": 0.9735701358,
				"z": -4.5378909106,
				"element": "H" 
			},
			{
				"x": 0.079264113,
				"y": -1.8267554524,
				"z": -2.3775247298,
				"element": "H" 
			},
			{
				"x": -1.4068987772,
				"y": -1.6727564659,
				"z": -0.369119269,
				"element": "H" 
			},
			{
				"x": -0.2547369859,
				"y": 2.4261181344,
				"z": 0.1599236841,
				"element": "H" 
			},
			{
				"x": 1.2307843996,
				"y": 2.2719400263,
				"z": -1.8474190526,
				"element": "H" 
			},
			{
				"x": -2.7750823361,
				"y": 0.0451395699,
				"z": 3.4883056648,
				"element": "H" 
			},
			{
				"x": -3.3522363737,
				"y": -1.5893775968,
				"z": 3.0398458662,
				"element": "H" 
			},
			{
				"x": -4.5219182206,
				"y": 1.0610739804,
				"z": 2.0073882132,
				"element": "H" 
			},
			{
				"x": -5.2246513289,
				"y": 0.0726621848,
				"z": 3.3150025547,
				"element": "H" 
			}
		],
		 "valence_orbital": [ 
			{
				"type": "occ",
				"energy": -0.28514,
				"method": "rhf"
			},
			{
				"type": "occ",
				"energy": -0.27835,
				"method": "rhf"
			},
			{
				"type": "occ",
				"energy": -0.27629,
				"method": "rhf"
			},
			{
				"type": "occ",
				"energy": -0.27409,
				"method": "rhf"
			},
			{
				"type": "occ",
				"energy": -0.27108,
				"method": "rhf"
			},
			{
				"type": "unocc",
				"energy": -0.07833,
				"method": "rhf"
			},
			{
				"type": "unocc",
				"energy": -0.01956,
				"method": "rhf"
			},
			{
				"type": "unocc",
				"energy": -0.00407,
				"method": "rhf"
			},
			{
				"type": "unocc",
				"energy": 0.00381,
				"method": "rhf"
			},
			{
				"type": "unocc",
				"energy": 0.07131,
				"method": "rhf"
			}
		],
		"cosmo_sigma_profile": { 
			"-0.025": 0.0,
			"-0.024": 0.0,
			"-0.023": 0.0,
			"-0.022": 0.0,
			"-0.021": 0.0,
			"-0.02": 0.0,
			"-0.019": 0.0806692337247,
			"-0.018": 1.06138257071,
			"-0.017": 0.697170019084,
			"-0.016": 0.679190240082,
			"-0.015": 1.2245657781,
			"-0.014": 0.6131462396,
			"-0.013": 0.599253127025,
			"-0.012": 0.736508651749,
			"-0.011": 0.988001282878,
			"-0.01": 0.515776870406,
			"-0.009": 0.944224651851,
			"-0.008": 5.21569951326,
			"-0.007": 12.5430970285,
			"-0.006": 15.4179545248,
			"-0.005": 14.5519394796,
			"-0.004": 12.9771092502,
			"-0.003": 14.3712198556,
			"-0.002": 16.0428395153,
			"-0.001": 17.7592455879,
			"0.0": 21.0125277135,
			"0.001": 22.6731024242,
			"0.002": 22.0776552741,
			"0.003": 10.5104621569,
			"0.004": 11.0838914498,
			"0.005": 12.2568903579,
			"0.006": 14.7239885772,
			"0.007": 5.43038028606,
			"0.008": 3.51796231048,
			"0.009": 3.26959231966,
			"0.01": 4.41743626843,
			"0.011": 7.74436355711,
			"0.012": 2.90610289445,
			"0.013": 0.0,
			"0.014": 0.0,
			"0.015": 0.0,
			"0.016": 0.0,
			"0.017": 0.0,
			"0.018": 0.0,
			"0.019": 0.0,
			"0.02": 0.0,
			"0.021": 0.0,
			"0.022": 0.0,
			"0.023": 0.0,
			"0.024": 0.0,
			"0.025": 0.0
		}
	}
}
