{
	 "smiles": "NNC(=O)C1=CC2=C(N1)C=CC(OCC1=CC=CC=C1)=C2", 
	 "Tm": 493.15, 
	 "num_atms": 36, 
	 "gaussian": { 
		 "optdone": 1, 
		 "sigma_profile": "yes", 
		 "theory": "DFT", 
		 "functional": "B3LYP", 
		 "basiset": "6-31G**", 
		 "properties": { 
			 "R2extent": 8786.199, 
			 "electric_dipole_moment_norm": 2.90359871194, 
			 "electric_quadrupole_moment_norm": 24.7762701341, 
			 "total_energy": -933.412473233, 
			 "HOMO_LUMO_gap": 0.16383, 
			 "cosmo_polarized_energy": -21.59, 
			 "cosmo_cavitation_energy": 40.85, 
			 "cosmo_dispersion_energy": -28.77, 
			 "cosmo_repulsion_energy": 2.22, 
			 "cosmo_total_nonelectrostatic_energy": 14.3, 
			 "SMD_solvation_energy": 7.74 
		},
		"coords": [
			{
				"x": 2.1119585055,
				"y": 5.9963513394,
				"z": 0.586765252,
				"element": "N" 
			},
			{
				"x": 1.6492366999,
				"y": 5.5474838198,
				"z": 1.8510760082,
				"element": "N" 
			},
			{
				"x": 1.4403628663,
				"y": 4.2069089895,
				"z": 2.168928451,
				"element": "C" 
			},
			{
				"x": 1.6817074507,
				"y": 3.7860942265,
				"z": 3.293549394,
				"element": "O" 
			},
			{
				"x": 0.8820896441,
				"y": 3.3354323662,
				"z": 1.1116780749,
				"element": "C" 
			},
			{
				"x": 1.0671603728,
				"y": 1.9772797861,
				"z": 0.980205232,
				"element": "C" 
			},
			{
				"x": 0.3084366707,
				"y": 1.5452570285,
				"z": -0.1530430795,
				"element": "C" 
			},
			{
				"x": -0.3479999748,
				"y": 2.6939844093,
				"z": -0.6680175861,
				"element": "C" 
			},
			{
				"x": 0.0509218501,
				"y": 3.783565767,
				"z": 0.0858240845,
				"element": "N" 
			},
			{
				"x": -1.2162038822,
				"y": 2.6145477324,
				"z": -1.7644374365,
				"element": "C" 
			},
			{
				"x": -1.4023021975,
				"y": 1.3735835717,
				"z": -2.34873446,
				"element": "C" 
			},
			{
				"x": -0.7395265213,
				"y": 0.2187903598,
				"z": -1.8606576581,
				"element": "C" 
			},
			{
				"x": -1.0225857663,
				"y": -0.9262888129,
				"z": -2.5660350705,
				"element": "O" 
			},
			{
				"x": -0.2917595431,
				"y": -2.1132727949,
				"z": -2.2762872182,
				"element": "C" 
			},
			{
				"x": -0.7639234919,
				"y": -2.8537176423,
				"z": -1.0385018511,
				"element": "C" 
			},
			{
				"x": -2.1047455598,
				"y": -2.8026336544,
				"z": -0.6407253517,
				"element": "C" 
			},
			{
				"x": -2.5397785707,
				"y": -3.5307136501,
				"z": 0.4667960379,
				"element": "C" 
			},
			{
				"x": -1.6422071267,
				"y": -4.3245648159,
				"z": 1.184454894,
				"element": "C" 
			},
			{
				"x": -0.3041376792,
				"y": -4.3820753665,
				"z": 0.7915157557,
				"element": "C" 
			},
			{
				"x": 0.1320409539,
				"y": -3.6464673074,
				"z": -0.3118754307,
				"element": "C" 
			},
			{
				"x": 0.1130309027,
				"y": 0.2895787723,
				"z": -0.7665915129,
				"element": "C" 
			},
			{
				"x": 1.3218379454,
				"y": 6.181429113,
				"z": -0.0228551849,
				"element": "H" 
			},
			{
				"x": 2.6797684867,
				"y": 5.2771520554,
				"z": 0.1431678594,
				"element": "H" 
			},
			{
				"x": 2.1014415061,
				"y": 6.0357506671,
				"z": 2.6167115761,
				"element": "H" 
			},
			{
				"x": 1.6929060861,
				"y": 1.3777624806,
				"z": 1.6251640387,
				"element": "H" 
			},
			{
				"x": -0.458627333,
				"y": 4.6526023058,
				"z": 0.1297015529,
				"element": "H" 
			},
			{
				"x": -1.7251262237,
				"y": 3.491797622,
				"z": -2.1532148885,
				"element": "H" 
			},
			{
				"x": -2.0566849871,
				"y": 1.2543607194,
				"z": -3.2057118106,
				"element": "H" 
			},
			{
				"x": -0.4408716657,
				"y": -2.7400435953,
				"z": -3.1628946903,
				"element": "H" 
			},
			{
				"x": 0.7825562262,
				"y": -1.89416322,
				"z": -2.2071269563,
				"element": "H" 
			},
			{
				"x": -2.7987723983,
				"y": -2.1813779453,
				"z": -1.1981163913,
				"element": "H" 
			},
			{
				"x": -3.5815664555,
				"y": -3.478177475,
				"z": 0.7704689673,
				"element": "H" 
			},
			{
				"x": -1.9824384602,
				"y": -4.8905487627,
				"z": 2.0468107735,
				"element": "H" 
			},
			{
				"x": 0.4023159514,
				"y": -4.9915946729,
				"z": 1.3479060502,
				"element": "H" 
			},
			{
				"x": 1.1778935309,
				"y": -3.6885276556,
				"z": -0.6090774646,
				"element": "H" 
			},
			{
				"x": 0.5948921873,
				"y": -0.5918457607,
				"z": -0.3623199604,
				"element": "H" 
			}
		],
		 "valence_orbital": [ 
			{
				"type": "occ",
				"energy": -0.2516,
				"method": "rhf"
			},
			{
				"type": "occ",
				"energy": -0.25143,
				"method": "rhf"
			},
			{
				"type": "occ",
				"energy": -0.24584,
				"method": "rhf"
			},
			{
				"type": "occ",
				"energy": -0.21497,
				"method": "rhf"
			},
			{
				"type": "occ",
				"energy": -0.20687,
				"method": "rhf"
			},
			{
				"type": "unocc",
				"energy": -0.04304,
				"method": "rhf"
			},
			{
				"type": "unocc",
				"energy": -0.00534,
				"method": "rhf"
			},
			{
				"type": "unocc",
				"energy": -0.00401,
				"method": "rhf"
			},
			{
				"type": "unocc",
				"energy": 0.01653,
				"method": "rhf"
			},
			{
				"type": "unocc",
				"energy": 0.03152,
				"method": "rhf"
			}
		],
		"cosmo_sigma_profile": { 
			"-0.025": 0.0,
			"-0.024": 0.0,
			"-0.023": 0.0,
			"-0.022": 0.0,
			"-0.021": 0.0,
			"-0.02": 0.0,
			"-0.019": 0.0,
			"-0.018": 0.0,
			"-0.017": 0.0176754594287,
			"-0.016": 1.0096381619,
			"-0.015": 2.02405536523,
			"-0.014": 1.37203702574,
			"-0.013": 2.28861649575,
			"-0.012": 3.10522080217,
			"-0.011": 4.22175568301,
			"-0.01": 4.80314934162,
			"-0.009": 3.85658608707,
			"-0.008": 3.54489020316,
			"-0.007": 5.74367838725,
			"-0.006": 16.9787350304,
			"-0.005": 23.7877650092,
			"-0.004": 25.6803734412,
			"-0.003": 22.7575294382,
			"-0.002": 17.7035608427,
			"-0.001": 15.2732535101,
			"0.0": 17.657755278,
			"0.001": 15.9083498459,
			"0.002": 17.2411844399,
			"0.003": 21.7000939052,
			"0.004": 27.4462803684,
			"0.005": 28.1480373885,
			"0.006": 12.1533216393,
			"0.007": 4.53118735911,
			"0.008": 3.82458646848,
			"0.009": 3.13066721565,
			"0.01": 3.33885269248,
			"0.011": 2.80462300986,
			"0.012": 2.95026794917,
			"0.013": 6.79258804438,
			"0.014": 2.48937903034,
			"0.015": 0.777471166649,
			"0.016": 0.419431448564,
			"0.017": 0.0,
			"0.018": 0.0,
			"0.019": 0.0,
			"0.02": 0.0,
			"0.021": 0.0,
			"0.022": 0.0,
			"0.023": 0.0,
			"0.024": 0.0,
			"0.025": 0.0
		}
	}
}
