{
	 "smiles": "CCOC(=O)C1=C(N)SC2=C1CCNC2", 
	 "Tm": 395.15, 
	 "num_atms": 29, 
	 "gaussian": { 
		 "optdone": 1, 
		 "sigma_profile": "yes", 
		 "theory": "DFT", 
		 "functional": "B3LYP", 
		 "basiset": "6-31G**", 
		 "properties": { 
			 "R2extent": 4602.9205, 
			 "electric_dipole_moment_norm": 0.79717166909, 
			 "electric_quadrupole_moment_norm": 10.7492206299, 
			 "total_energy": -1047.65162482, 
			 "HOMO_LUMO_gap": 0.17388, 
			 "cosmo_polarized_energy": -11.27, 
			 "cosmo_cavitation_energy": 32.29, 
			 "cosmo_dispersion_energy": -24.37, 
			 "cosmo_repulsion_energy": 1.88, 
			 "cosmo_total_nonelectrostatic_energy": 9.8, 
			 "SMD_solvation_energy": 2.69 
		},
		"coords": [
			{
				"x": -0.4119957025,
				"y": 3.2416129658,
				"z": 0.6408200761,
				"element": "C" 
			},
			{
				"x": 0.3776338173,
				"y": 2.7459050214,
				"z": -0.5620297992,
				"element": "C" 
			},
			{
				"x": 0.4063248247,
				"y": 1.3019669975,
				"z": -0.6211509188,
				"element": "O" 
			},
			{
				"x": -0.6532520335,
				"y": 0.6963014264,
				"z": -1.2132991542,
				"element": "C" 
			},
			{
				"x": -1.589903301,
				"y": 1.3448522462,
				"z": -1.6850640854,
				"element": "O" 
			},
			{
				"x": -0.5635562561,
				"y": -0.7569736208,
				"z": -1.2361299944,
				"element": "C" 
			},
			{
				"x": -1.5830021535,
				"y": -1.489368602,
				"z": -1.8505036211,
				"element": "C" 
			},
			{
				"x": -2.6607768987,
				"y": -0.9996000886,
				"z": -2.516877815,
				"element": "N" 
			},
			{
				"x": -1.286235498,
				"y": -3.2107508712,
				"z": -1.7514938456,
				"element": "S" 
			},
			{
				"x": 0.2197149056,
				"y": -2.9426114166,
				"z": -0.868886593,
				"element": "C" 
			},
			{
				"x": 0.4619856921,
				"y": -1.618903599,
				"z": -0.6673524423,
				"element": "C" 
			},
			{
				"x": 1.6964315524,
				"y": -1.1875786956,
				"z": 0.0928518292,
				"element": "C" 
			},
			{
				"x": 2.344213872,
				"y": -2.3858436206,
				"z": 0.8146649392,
				"element": "C" 
			},
			{
				"x": 2.4278587731,
				"y": -3.6088908017,
				"z": 0.0082853793,
				"element": "N" 
			},
			{
				"x": 1.0982874018,
				"y": -4.0753333405,
				"z": -0.3944214391,
				"element": "C" 
			},
			{
				"x": -0.35004037,
				"y": 4.3334478036,
				"z": 0.7026594897,
				"element": "H" 
			},
			{
				"x": -1.4639833823,
				"y": 2.9617597566,
				"z": 0.5488460096,
				"element": "H" 
			},
			{
				"x": -0.0129272589,
				"y": 2.8224701447,
				"z": 1.5694400961,
				"element": "H" 
			},
			{
				"x": 1.429939481,
				"y": 3.0333843405,
				"z": -0.4937352347,
				"element": "H" 
			},
			{
				"x": -0.0436931832,
				"y": 3.1308243303,
				"z": -1.4934013692,
				"element": "H" 
			},
			{
				"x": -3.4656586088,
				"y": -1.5882492141,
				"z": -2.660505296,
				"element": "H" 
			},
			{
				"x": -2.7907707546,
				"y": 0.0029768449,
				"z": -2.4071345424,
				"element": "H" 
			},
			{
				"x": 2.4131584336,
				"y": -0.7238117754,
				"z": -0.5996311165,
				"element": "H" 
			},
			{
				"x": 1.4438194481,
				"y": -0.4058929233,
				"z": 0.8155635778,
				"element": "H" 
			},
			{
				"x": 3.3521815506,
				"y": -2.1213181663,
				"z": 1.1523754321,
				"element": "H" 
			},
			{
				"x": 1.7614891717,
				"y": -2.6291220144,
				"z": 1.7124931055,
				"element": "H" 
			},
			{
				"x": 2.9658205403,
				"y": -3.4066850242,
				"z": -0.8326561265,
				"element": "H" 
			},
			{
				"x": 0.6355731464,
				"y": -4.5864192343,
				"z": 0.4635583803,
				"element": "H" 
			},
			{
				"x": 1.2194627903,
				"y": -4.8362488693,
				"z": -1.1748849215,
				"element": "H" 
			}
		],
		 "valence_orbital": [ 
			{
				"type": "occ",
				"energy": -0.29066,
				"method": "rhf"
			},
			{
				"type": "occ",
				"energy": -0.26922,
				"method": "rhf"
			},
			{
				"type": "occ",
				"energy": -0.24474,
				"method": "rhf"
			},
			{
				"type": "occ",
				"energy": -0.2223,
				"method": "rhf"
			},
			{
				"type": "occ",
				"energy": -0.19005,
				"method": "rhf"
			},
			{
				"type": "unocc",
				"energy": -0.01617,
				"method": "rhf"
			},
			{
				"type": "unocc",
				"energy": 0.01296,
				"method": "rhf"
			},
			{
				"type": "unocc",
				"energy": 0.02227,
				"method": "rhf"
			},
			{
				"type": "unocc",
				"energy": 0.0836,
				"method": "rhf"
			},
			{
				"type": "unocc",
				"energy": 0.09438,
				"method": "rhf"
			}
		],
		"cosmo_sigma_profile": { 
			"-0.025": 0.0,
			"-0.024": 0.0,
			"-0.023": 0.0,
			"-0.022": 0.0,
			"-0.021": 0.0,
			"-0.02": 0.0,
			"-0.019": 0.0,
			"-0.018": 0.0,
			"-0.017": 0.0,
			"-0.016": 0.0932063493261,
			"-0.015": 0.93050668627,
			"-0.014": 1.10826478097,
			"-0.013": 1.33589674913,
			"-0.012": 1.45017145726,
			"-0.011": 1.10822154072,
			"-0.01": 2.0842301885,
			"-0.009": 3.22625031071,
			"-0.008": 3.23938751181,
			"-0.007": 3.05904549526,
			"-0.006": 3.2777870023,
			"-0.005": 10.399088937,
			"-0.004": 17.5414168501,
			"-0.003": 28.985905185,
			"-0.002": 25.1214133766,
			"-0.001": 22.4678317673,
			"0.0": 23.7304540304,
			"0.001": 17.191465524,
			"0.002": 18.2790466499,
			"0.003": 15.995575275,
			"0.004": 17.0634487858,
			"0.005": 12.8504132862,
			"0.006": 5.02399276004,
			"0.007": 3.76071996096,
			"0.008": 2.55604269576,
			"0.009": 2.67256996819,
			"0.01": 2.97767715965,
			"0.011": 2.29620706976,
			"0.012": 2.23291916497,
			"0.013": 0.836603014043,
			"0.014": 0.207784747873,
			"0.015": 0.896671537737,
			"0.016": 0.773951771475,
			"0.017": 0.50603387623,
			"0.018": 0.414961775766,
			"0.019": 0.0693575609175,
			"0.02": 0.0,
			"0.021": 0.0,
			"0.022": 0.0,
			"0.023": 0.0,
			"0.024": 0.0,
			"0.025": 0.0
		}
	}
}
