{
	 "smiles": "CC1=C(C)C(=CS1)C(O)=O", 
	 "Tm": 413.15, 
	 "num_atms": 18, 
	 "gaussian": { 
		 "optdone": 1, 
		 "sigma_profile": "yes", 
		 "theory": "DFT", 
		 "functional": "B3LYP", 
		 "basiset": "6-31G**", 
		 "properties": { 
			 "R2extent": 2520.2279, 
			 "electric_dipole_moment_norm": 5.35306716752, 
			 "electric_quadrupole_moment_norm": 17.2695094809, 
			 "total_energy": -820.204355864, 
			 "HOMO_LUMO_gap": 0.19922, 
			 "cosmo_polarized_energy": -13.01, 
			 "cosmo_cavitation_energy": 23.03, 
			 "cosmo_dispersion_energy": -17.63, 
			 "cosmo_repulsion_energy": 1.37, 
			 "cosmo_total_nonelectrostatic_energy": 6.77, 
			 "SMD_solvation_energy": 5.02 
		},
		"coords": [
			{
				"x": 0.9337959688,
				"y": 2.1987413268,
				"z": 0.0342773785,
				"element": "C" 
			},
			{
				"x": 1.2087628043,
				"y": 0.8436882106,
				"z": 0.6242933791,
				"element": "C" 
			},
			{
				"x": 0.5297601539,
				"y": -0.3367001402,
				"z": 0.4331420941,
				"element": "C" 
			},
			{
				"x": -0.6563834654,
				"y": -0.4516343104,
				"z": -0.4939759845,
				"element": "C" 
			},
			{
				"x": 1.1068442667,
				"y": -1.4258032982,
				"z": 1.195290927,
				"element": "C" 
			},
			{
				"x": 2.2010373735,
				"y": -1.037050653,
				"z": 1.9281066232,
				"element": "C" 
			},
			{
				"x": 2.5443366791,
				"y": 0.6326976819,
				"z": 1.7312482718,
				"element": "S" 
			},
			{
				"x": 0.6938656326,
				"y": -2.8593039604,
				"z": 1.2698877609,
				"element": "C" 
			},
			{
				"x": -0.5542004563,
				"y": -3.1808516251,
				"z": 0.8310021397,
				"element": "O" 
			},
			{
				"x": 1.4113792034,
				"y": -3.7290278852,
				"z": 1.7073635134,
				"element": "O" 
			},
			{
				"x": 1.7930494887,
				"y": 2.8648326383,
				"z": 0.1492464482,
				"element": "H" 
			},
			{
				"x": 0.0753085078,
				"y": 2.6840652185,
				"z": 0.5139058324,
				"element": "H" 
			},
			{
				"x": 0.718475271,
				"y": 2.1285768289,
				"z": -1.0370098608,
				"element": "H" 
			},
			{
				"x": -0.5881291825,
				"y": -1.335798436,
				"z": -1.1365211365,
				"element": "H" 
			},
			{
				"x": -1.611165679,
				"y": -0.4971204642,
				"z": 0.0515196897,
				"element": "H" 
			},
			{
				"x": -0.7296306368,
				"y": 0.4183066576,
				"z": -1.150054843,
				"element": "H" 
			},
			{
				"x": 2.8024808755,
				"y": -1.6756873694,
				"z": 2.5586221353,
				"element": "H" 
			},
			{
				"x": -1.0600868052,
				"y": -2.3855304206,
				"z": 0.6204556316,
				"element": "H" 
			}
		],
		 "valence_orbital": [ 
			{
				"type": "occ",
				"energy": -0.35015,
				"method": "rhf"
			},
			{
				"type": "occ",
				"energy": -0.31011,
				"method": "rhf"
			},
			{
				"type": "occ",
				"energy": -0.27,
				"method": "rhf"
			},
			{
				"type": "occ",
				"energy": -0.25939,
				"method": "rhf"
			},
			{
				"type": "occ",
				"energy": -0.2386,
				"method": "rhf"
			},
			{
				"type": "unocc",
				"energy": -0.03938,
				"method": "rhf"
			},
			{
				"type": "unocc",
				"energy": 0.0019,
				"method": "rhf"
			},
			{
				"type": "unocc",
				"energy": 0.0158,
				"method": "rhf"
			},
			{
				"type": "unocc",
				"energy": 0.05945,
				"method": "rhf"
			},
			{
				"type": "unocc",
				"energy": 0.08896,
				"method": "rhf"
			}
		],
		"cosmo_sigma_profile": { 
			"-0.025": 0.0,
			"-0.024": 0.0,
			"-0.023": 0.0,
			"-0.022": 0.0,
			"-0.021": 0.0,
			"-0.02": 0.0,
			"-0.019": 0.0,
			"-0.018": 0.0,
			"-0.017": 0.0,
			"-0.016": 0.0745593004284,
			"-0.015": 1.19163194571,
			"-0.014": 0.964388679756,
			"-0.013": 0.977916666607,
			"-0.012": 1.226840743,
			"-0.011": 0.963255783551,
			"-0.01": 0.803537617485,
			"-0.009": 1.99976643556,
			"-0.008": 2.86918698009,
			"-0.007": 3.28127955529,
			"-0.006": 8.89233344499,
			"-0.005": 12.4502202081,
			"-0.004": 12.4922809898,
			"-0.003": 14.8935944152,
			"-0.002": 18.1506649308,
			"-0.001": 17.588223362,
			"0.0": 10.860664535,
			"0.001": 9.40033229949,
			"0.002": 13.214525852,
			"0.003": 16.8770767058,
			"0.004": 5.92726340856,
			"0.005": 2.24825458545,
			"0.006": 2.10965847014,
			"0.007": 2.13002791473,
			"0.008": 3.35963949252,
			"0.009": 2.30895334556,
			"0.01": 4.51303481928,
			"0.011": 4.87329413759,
			"0.012": 5.78606573442,
			"0.013": 2.52672885191,
			"0.014": 0.349713471276,
			"0.015": 0.0,
			"0.016": 0.0,
			"0.017": 0.0,
			"0.018": 0.0,
			"0.019": 0.0,
			"0.02": 0.0,
			"0.021": 0.0,
			"0.022": 0.0,
			"0.023": 0.0,
			"0.024": 0.0,
			"0.025": 0.0
		}
	}
}
