{
	 "smiles": "OCC(O)COC(=O)C1=C(NC2=C3C=CC=C(C3=NC=C2)C(F)(F)F)C=CC=C1", 
	 "Tm": 453.15, 
	 "num_atms": 46, 
	 "gaussian": { 
		 "optdone": 1, 
		 "sigma_profile": "yes", 
		 "theory": "DFT", 
		 "functional": "B3LYP", 
		 "basiset": "6-31G**", 
		 "properties": { 
			 "R2extent": 16478.9356, 
			 "electric_dipole_moment_norm": 5.93159565547, 
			 "electric_quadrupole_moment_norm": 32.5890830186, 
			 "total_energy": -1482.30894602, 
			 "HOMO_LUMO_gap": 0.14607, 
			 "cosmo_polarized_energy": -20.57, 
			 "cosmo_cavitation_energy": 50.88, 
			 "cosmo_dispersion_energy": -34.38, 
			 "cosmo_repulsion_energy": 2.5, 
			 "cosmo_total_nonelectrostatic_energy": 19.01, 
			 "SMD_solvation_energy": 9.09 
		},
		"coords": [
			{
				"x": 2.7024585732,
				"y": -1.7390719101,
				"z": 1.2850306806,
				"element": "O" 
			},
			{
				"x": 2.4668099248,
				"y": -1.0037262026,
				"z": 2.483214535,
				"element": "C" 
			},
			{
				"x": 1.6124488464,
				"y": 0.1901766093,
				"z": 2.0646283388,
				"element": "C" 
			},
			{
				"x": 0.4219454247,
				"y": -0.2605662879,
				"z": 1.4385644698,
				"element": "O" 
			},
			{
				"x": 1.2040839942,
				"y": 1.0488882959,
				"z": 3.2466867917,
				"element": "C" 
			},
			{
				"x": 0.386420424,
				"y": 2.1032676499,
				"z": 2.7105918587,
				"element": "O" 
			},
			{
				"x": -0.1226690575,
				"y": 2.9985939746,
				"z": 3.6018581054,
				"element": "C" 
			},
			{
				"x": 0.2180503293,
				"y": 3.0073012405,
				"z": 4.7678547916,
				"element": "O" 
			},
			{
				"x": -1.0848854011,
				"y": 3.9471406231,
				"z": 2.9838124909,
				"element": "C" 
			},
			{
				"x": -1.7789341729,
				"y": 3.7479276909,
				"z": 1.7547959507,
				"element": "C" 
			},
			{
				"x": -1.6064645946,
				"y": 2.6028709867,
				"z": 0.9774226594,
				"element": "N" 
			},
			{
				"x": -2.5306051114,
				"y": 2.0327764087,
				"z": 0.1001391004,
				"element": "C" 
			},
			{
				"x": -2.0424436733,
				"y": 1.2356328604,
				"z": -0.9927443209,
				"element": "C" 
			},
			{
				"x": -0.6625792953,
				"y": 1.0970570194,
				"z": -1.2906319736,
				"element": "C" 
			},
			{
				"x": -0.2462887228,
				"y": 0.3114045076,
				"z": -2.3417545347,
				"element": "C" 
			},
			{
				"x": -1.1909808253,
				"y": -0.3692835464,
				"z": -3.1403717877,
				"element": "C" 
			},
			{
				"x": -2.5414550594,
				"y": -0.2391443254,
				"z": -2.8973739181,
				"element": "C" 
			},
			{
				"x": -3.009498185,
				"y": 0.580665146,
				"z": -1.8223021622,
				"element": "C" 
			},
			{
				"x": -4.3527739302,
				"y": 0.7110033093,
				"z": -1.6455889143,
				"element": "N" 
			},
			{
				"x": -4.7550142997,
				"y": 1.480165858,
				"z": -0.652667302,
				"element": "C" 
			},
			{
				"x": -3.9046427376,
				"y": 2.1538669337,
				"z": 0.2453325755,
				"element": "C" 
			},
			{
				"x": -3.5353861381,
				"y": -0.9602335197,
				"z": -3.7780996019,
				"element": "C" 
			},
			{
				"x": -4.3095522548,
				"y": -1.8150393411,
				"z": -3.0815584193,
				"element": "F" 
			},
			{
				"x": -4.3488899044,
				"y": -0.1108242274,
				"z": -4.4347253883,
				"element": "F" 
			},
			{
				"x": -2.8983018016,
				"y": -1.69811518,
				"z": -4.7257027091,
				"element": "F" 
			},
			{
				"x": -2.6334538257,
				"y": 4.7793574648,
				"z": 1.3104001905,
				"element": "C" 
			},
			{
				"x": -2.8274172765,
				"y": 5.9330757285,
				"z": 2.0565819805,
				"element": "C" 
			},
			{
				"x": -2.1745916877,
				"y": 6.1119410181,
				"z": 3.281140818,
				"element": "C" 
			},
			{
				"x": -1.3129272367,
				"y": 5.1211881789,
				"z": 3.7243875345,
				"element": "C" 
			},
			{
				"x": 3.0176370544,
				"y": -2.6207061672,
				"z": 1.5160367295,
				"element": "H" 
			},
			{
				"x": 3.4078476282,
				"y": -0.6648100416,
				"z": 2.941943918,
				"element": "H" 
			},
			{
				"x": 1.9145605084,
				"y": -1.6054902403,
				"z": 3.219522122,
				"element": "H" 
			},
			{
				"x": 2.2057593265,
				"y": 0.805086801,
				"z": 1.3674514177,
				"element": "H" 
			},
			{
				"x": 0.6953357725,
				"y": -0.9200535539,
				"z": 0.7831403329,
				"element": "H" 
			},
			{
				"x": 0.6176415402,
				"y": 0.4738218343,
				"z": 3.9702018288,
				"element": "H" 
			},
			{
				"x": 2.0717843106,
				"y": 1.475941983,
				"z": 3.7579399235,
				"element": "H" 
			},
			{
				"x": -0.8239276176,
				"y": 2.0118132067,
				"z": 1.2361278021,
				"element": "H" 
			},
			{
				"x": 0.066660417,
				"y": 1.6342126456,
				"z": -0.6958816391,
				"element": "H" 
			},
			{
				"x": 0.8111749147,
				"y": 0.22139651,
				"z": -2.5705133501,
				"element": "H" 
			},
			{
				"x": -0.855580863,
				"y": -0.9903768518,
				"z": -3.9624666106,
				"element": "H" 
			},
			{
				"x": -5.8329340667,
				"y": 1.5711790439,
				"z": -0.521940474,
				"element": "H" 
			},
			{
				"x": -4.3305649518,
				"y": 2.7252765903,
				"z": 1.0610512697,
				"element": "H" 
			},
			{
				"x": -3.1327846367,
				"y": 4.6693673079,
				"z": 0.3552304813,
				"element": "H" 
			},
			{
				"x": -3.4882456551,
				"y": 6.7047618844,
				"z": 1.6716622318,
				"element": "H" 
			},
			{
				"x": -2.3298721746,
				"y": 7.0110686523,
				"z": 3.8680381594,
				"element": "H" 
			},
			{
				"x": -0.7819538317,
				"y": 5.2223134319,
				"z": 4.6647340174,
				"element": "H" 
			}
		],
		 "valence_orbital": [ 
			{
				"type": "occ",
				"energy": -0.26283,
				"method": "rhf"
			},
			{
				"type": "occ",
				"energy": -0.25737,
				"method": "rhf"
			},
			{
				"type": "occ",
				"energy": -0.25249,
				"method": "rhf"
			},
			{
				"type": "occ",
				"energy": -0.24681,
				"method": "rhf"
			},
			{
				"type": "occ",
				"energy": -0.20753,
				"method": "rhf"
			},
			{
				"type": "unocc",
				"energy": -0.06146,
				"method": "rhf"
			},
			{
				"type": "unocc",
				"energy": -0.04485,
				"method": "rhf"
			},
			{
				"type": "unocc",
				"energy": -0.0215,
				"method": "rhf"
			},
			{
				"type": "unocc",
				"energy": -0.00705,
				"method": "rhf"
			},
			{
				"type": "unocc",
				"energy": 0.02134,
				"method": "rhf"
			}
		],
		"cosmo_sigma_profile": { 
			"-0.025": 0.0,
			"-0.024": 0.0,
			"-0.023": 0.0,
			"-0.022": 0.0,
			"-0.021": 0.0,
			"-0.02": 0.0,
			"-0.019": 0.0,
			"-0.018": 0.0,
			"-0.017": 0.150352037757,
			"-0.016": 1.38396221787,
			"-0.015": 0.609060927206,
			"-0.014": 0.988419667125,
			"-0.013": 1.09414432024,
			"-0.012": 1.297577645,
			"-0.011": 0.657305886547,
			"-0.01": 0.72789708712,
			"-0.009": 1.51312784765,
			"-0.008": 1.75159142622,
			"-0.007": 9.83345354025,
			"-0.006": 25.9243128308,
			"-0.005": 30.9977435242,
			"-0.004": 30.295632176,
			"-0.003": 25.3047186758,
			"-0.002": 27.2297301969,
			"-0.001": 25.1710135229,
			"0.0": 28.385649306,
			"0.001": 35.1426124751,
			"0.002": 37.5930935846,
			"0.003": 46.5238698646,
			"0.004": 22.9056890512,
			"0.005": 8.39221816123,
			"0.006": 6.68252321431,
			"0.007": 6.4757812783,
			"0.008": 4.59495585591,
			"0.009": 3.16628421383,
			"0.01": 6.05425955843,
			"0.011": 6.07536702105,
			"0.012": 6.5702298616,
			"0.013": 2.05930428554,
			"0.014": 0.636566047713,
			"0.015": 0.0,
			"0.016": 0.0,
			"0.017": 0.0,
			"0.018": 0.0,
			"0.019": 0.0,
			"0.02": 0.0,
			"0.021": 0.0,
			"0.022": 0.0,
			"0.023": 0.0,
			"0.024": 0.0,
			"0.025": 0.0
		}
	}
}
