{
	 "smiles": "NNC(=O)C1=CC(=C(Cl)C=C1)S(N)(=O)=O", 
	 "Tm": 486.15, 
	 "num_atms": 23, 
	 "gaussian": { 
		 "optdone": 1, 
		 "sigma_profile": "yes", 
		 "theory": "DFT", 
		 "functional": "B3LYP", 
		 "basiset": "6-31G**", 
		 "properties": { 
			 "R2extent": 4875.5442, 
			 "electric_dipole_moment_norm": 3.44873898548, 
			 "electric_quadrupole_moment_norm": 20.0425143632, 
			 "total_energy": -1519.77543454, 
			 "HOMO_LUMO_gap": 0.19881, 
			 "cosmo_polarized_energy": -24.01, 
			 "cosmo_cavitation_energy": 31.06, 
			 "cosmo_dispersion_energy": -23.19, 
			 "cosmo_repulsion_energy": 1.79, 
			 "cosmo_total_nonelectrostatic_energy": 9.66, 
			 "SMD_solvation_energy": 5.81 
		},
		"coords": [
			{
				"x": -2.0767989936,
				"y": -4.7627278675,
				"z": -0.6149367744,
				"element": "N" 
			},
			{
				"x": -1.7471435528,
				"y": -3.4210099893,
				"z": -0.3191481709,
				"element": "N" 
			},
			{
				"x": -2.0246614709,
				"y": -2.43230084,
				"z": -1.2324551122,
				"element": "C" 
			},
			{
				"x": -2.6684061652,
				"y": -2.6581793519,
				"z": -2.2525261561,
				"element": "O" 
			},
			{
				"x": -1.4914889147,
				"y": -1.0663610842,
				"z": -0.9126305222,
				"element": "C" 
			},
			{
				"x": -1.1275231934,
				"y": -0.672068764,
				"z": 0.3795588098,
				"element": "C" 
			},
			{
				"x": -0.64281787,
				"y": 0.6144531861,
				"z": 0.6229804237,
				"element": "C" 
			},
			{
				"x": -0.5249549309,
				"y": 1.5211395192,
				"z": -0.4438468097,
				"element": "C" 
			},
			{
				"x": 0.0794802438,
				"y": 3.1410092444,
				"z": -0.2202102703,
				"element": "Cl" 
			},
			{
				"x": -0.9040977918,
				"y": 1.1344462324,
				"z": -1.7314916712,
				"element": "C" 
			},
			{
				"x": -1.3898026111,
				"y": -0.1472597934,
				"z": -1.9620712377,
				"element": "C" 
			},
			{
				"x": -0.1844536301,
				"y": 1.1155762641,
				"z": 2.2990222355,
				"element": "S" 
			},
			{
				"x": -0.513964855,
				"y": -0.2828862246,
				"z": 3.196956527,
				"element": "N" 
			},
			{
				"x": -1.1230883655,
				"y": 2.1481262412,
				"z": 2.7381650308,
				"element": "O" 
			},
			{
				"x": 1.2650156004,
				"y": 1.3119848619,
				"z": 2.3350325575,
				"element": "O" 
			},
			{
				"x": -3.0458475527,
				"y": -4.905080226,
				"z": -0.3318906562,
				"element": "H" 
			},
			{
				"x": -2.079142306,
				"y": -4.8422399207,
				"z": -1.633490361,
				"element": "H" 
			},
			{
				"x": -0.9360389326,
				"y": -3.3258359074,
				"z": 0.2755749082,
				"element": "H" 
			},
			{
				"x": -1.2397223222,
				"y": -1.3407250107,
				"z": 1.2238920304,
				"element": "H" 
			},
			{
				"x": -0.8149274434,
				"y": 1.8481664321,
				"z": -2.5427400972,
				"element": "H" 
			},
			{
				"x": -1.6995506957,
				"y": -0.455970784,
				"z": -2.9545343048,
				"element": "H" 
			},
			{
				"x": -1.2462922693,
				"y": -0.0782595929,
				"z": 3.8719545722,
				"element": "H" 
			},
			{
				"x": 0.3426280227,
				"y": -0.5839966247,
				"z": 3.6544350489,
				"element": "H" 
			}
		],
		 "valence_orbital": [ 
			{
				"type": "occ",
				"energy": -0.29987,
				"method": "rhf"
			},
			{
				"type": "occ",
				"energy": -0.28646,
				"method": "rhf"
			},
			{
				"type": "occ",
				"energy": -0.27748,
				"method": "rhf"
			},
			{
				"type": "occ",
				"energy": -0.26793,
				"method": "rhf"
			},
			{
				"type": "occ",
				"energy": -0.26451,
				"method": "rhf"
			},
			{
				"type": "unocc",
				"energy": -0.0657,
				"method": "rhf"
			},
			{
				"type": "unocc",
				"energy": -0.04764,
				"method": "rhf"
			},
			{
				"type": "unocc",
				"energy": 0.00635,
				"method": "rhf"
			},
			{
				"type": "unocc",
				"energy": 0.02648,
				"method": "rhf"
			},
			{
				"type": "unocc",
				"energy": 0.04366,
				"method": "rhf"
			}
		],
		"cosmo_sigma_profile": { 
			"-0.025": 0.0,
			"-0.024": 0.0,
			"-0.023": 0.0,
			"-0.022": 0.0,
			"-0.021": 0.0,
			"-0.02": 0.0,
			"-0.019": 0.0,
			"-0.018": 0.0,
			"-0.017": 0.0,
			"-0.016": 0.168287931075,
			"-0.015": 3.07564865633,
			"-0.014": 3.13953578013,
			"-0.013": 4.20146638826,
			"-0.012": 4.3608597633,
			"-0.011": 4.64580051505,
			"-0.01": 5.79357202676,
			"-0.009": 5.19987213304,
			"-0.008": 7.29863577612,
			"-0.007": 7.59938955789,
			"-0.006": 9.05265327539,
			"-0.005": 8.3448783937,
			"-0.004": 9.83350621256,
			"-0.003": 14.172351655,
			"-0.002": 13.6435572824,
			"-0.001": 18.4134643076,
			"0.0": 21.1067037889,
			"0.001": 16.2618451909,
			"0.002": 11.0791032072,
			"0.003": 10.9873996423,
			"0.004": 7.12638897202,
			"0.005": 6.2704097372,
			"0.006": 5.23426022472,
			"0.007": 6.19782115713,
			"0.008": 6.50565635478,
			"0.009": 6.63936533713,
			"0.01": 13.6577832268,
			"0.011": 9.49311449379,
			"0.012": 4.42854943624,
			"0.013": 3.80734763099,
			"0.014": 0.597635325274,
			"0.015": 0.626680803956,
			"0.016": 0.639956430658,
			"0.017": 0.0515006453395,
			"0.018": 0.0,
			"0.019": 0.0,
			"0.02": 0.0,
			"0.021": 0.0,
			"0.022": 0.0,
			"0.023": 0.0,
			"0.024": 0.0,
			"0.025": 0.0
		}
	}
}
