{
	 "smiles": "CC1=NN(C2CCCCC2)C(C)=C1N", 
	 "Tm": 343.15, 
	 "num_atms": 33, 
	 "gaussian": { 
		 "optdone": 1, 
		 "sigma_profile": "yes", 
		 "theory": "DFT", 
		 "functional": "B3LYP", 
		 "basiset": "6-31G**", 
		 "properties": { 
			 "R2extent": 3539.8539, 
			 "electric_dipole_moment_norm": 1.19208397355, 
			 "electric_quadrupole_moment_norm": 11.5128660606, 
			 "total_energy": -594.874198935, 
			 "HOMO_LUMO_gap": 0.24337, 
			 "cosmo_polarized_energy": -9.77, 
			 "cosmo_cavitation_energy": 33.16, 
			 "cosmo_dispersion_energy": -23.69, 
			 "cosmo_repulsion_energy": 1.89, 
			 "cosmo_total_nonelectrostatic_energy": 11.37, 
			 "SMD_solvation_energy": 3.9 
		},
		"coords": [
			{
				"x": -2.9474277106,
				"y": -1.5384795856,
				"z": -2.7221310149,
				"element": "C" 
			},
			{
				"x": -2.0189818536,
				"y": -1.0594784378,
				"z": -1.6484614576,
				"element": "C" 
			},
			{
				"x": -0.8185183627,
				"y": -0.5686203546,
				"z": -1.9501027672,
				"element": "N" 
			},
			{
				"x": -0.2499294286,
				"y": -0.2279900183,
				"z": -0.7606248237,
				"element": "N" 
			},
			{
				"x": 1.1147743223,
				"y": 0.3017738922,
				"z": -0.8021621852,
				"element": "C" 
			},
			{
				"x": 2.1646080167,
				"y": -0.7354164391,
				"z": -0.3241810549,
				"element": "C" 
			},
			{
				"x": 3.4899917822,
				"y": -0.0631992387,
				"z": 0.1035647552,
				"element": "C" 
			},
			{
				"x": 3.7507875234,
				"y": 1.2141716673,
				"z": -0.7066973005,
				"element": "C" 
			},
			{
				"x": 2.6510236493,
				"y": 2.2756803872,
				"z": -0.4508958048,
				"element": "C" 
			},
			{
				"x": 1.2898226814,
				"y": 1.6422048243,
				"z": -0.0719007703,
				"element": "C" 
			},
			{
				"x": -1.0651277653,
				"y": -0.5172388861,
				"z": 0.3000201906,
				"element": "C" 
			},
			{
				"x": -0.7670077966,
				"y": -0.2890643391,
				"z": 1.7469049964,
				"element": "C" 
			},
			{
				"x": -2.2270386311,
				"y": -1.0505345044,
				"z": -0.2448688153,
				"element": "C" 
			},
			{
				"x": -3.3503158081,
				"y": -1.4862455836,
				"z": 0.5179724351,
				"element": "N" 
			},
			{
				"x": -2.5045701695,
				"y": -1.3541313573,
				"z": -3.7034501955,
				"element": "H" 
			},
			{
				"x": -3.1492695152,
				"y": -2.6139244522,
				"z": -2.6389669881,
				"element": "H" 
			},
			{
				"x": -3.9154205938,
				"y": -1.0247237778,
				"z": -2.6785071573,
				"element": "H" 
			},
			{
				"x": 1.2648985205,
				"y": 0.4840454271,
				"z": -1.8698246344,
				"element": "H" 
			},
			{
				"x": 1.7558794922,
				"y": -1.3159655669,
				"z": 0.5091283319,
				"element": "H" 
			},
			{
				"x": 2.3385786523,
				"y": -1.4479196412,
				"z": -1.138132216,
				"element": "H" 
			},
			{
				"x": 4.3196407242,
				"y": -0.7698111255,
				"z": -0.0082055622,
				"element": "H" 
			},
			{
				"x": 3.4506692599,
				"y": 0.1939796719,
				"z": 1.1701513217,
				"element": "H" 
			},
			{
				"x": 4.7363123822,
				"y": 1.6287380633,
				"z": -0.4681016147,
				"element": "H" 
			},
			{
				"x": 3.7799260889,
				"y": 0.9562108921,
				"z": -1.7733406946,
				"element": "H" 
			},
			{
				"x": 2.5319835304,
				"y": 2.8986721084,
				"z": -1.3448507928,
				"element": "H" 
			},
			{
				"x": 2.9631307111,
				"y": 2.9503157203,
				"z": 0.3544492006,
				"element": "H" 
			},
			{
				"x": 1.2441365638,
				"y": 1.4846913388,
				"z": 1.0109981803,
				"element": "H" 
			},
			{
				"x": 0.4671842491,
				"y": 2.3175991905,
				"z": -0.3282164209,
				"element": "H" 
			},
			{
				"x": 0.2090458317,
				"y": -0.6841465226,
				"z": 2.0470168824,
				"element": "H" 
			},
			{
				"x": -0.7892030601,
				"y": 0.7728155178,
				"z": 2.0189124032,
				"element": "H" 
			},
			{
				"x": -1.5400320135,
				"y": -0.8003801162,
				"z": 2.3264256797,
				"element": "H" 
			},
			{
				"x": -3.7405905835,
				"y": -2.3423786362,
				"z": 0.1346164779,
				"element": "H" 
			},
			{
				"x": -4.0967606895,
				"y": -0.794750118,
				"z": 0.5156614157,
				"element": "H" 
			}
		],
		 "valence_orbital": [ 
			{
				"type": "occ",
				"energy": -0.3016,
				"method": "rhf"
			},
			{
				"type": "occ",
				"energy": -0.28133,
				"method": "rhf"
			},
			{
				"type": "occ",
				"energy": -0.24363,
				"method": "rhf"
			},
			{
				"type": "occ",
				"energy": -0.21899,
				"method": "rhf"
			},
			{
				"type": "occ",
				"energy": -0.20574,
				"method": "rhf"
			},
			{
				"type": "unocc",
				"energy": 0.03763,
				"method": "rhf"
			},
			{
				"type": "unocc",
				"energy": 0.06937,
				"method": "rhf"
			},
			{
				"type": "unocc",
				"energy": 0.08152,
				"method": "rhf"
			},
			{
				"type": "unocc",
				"energy": 0.0867,
				"method": "rhf"
			},
			{
				"type": "unocc",
				"energy": 0.09676,
				"method": "rhf"
			}
		],
		"cosmo_sigma_profile": { 
			"-0.025": 0.0,
			"-0.024": 0.0,
			"-0.023": 0.0,
			"-0.022": 0.0,
			"-0.021": 0.0,
			"-0.02": 0.0,
			"-0.019": 0.0,
			"-0.018": 0.0,
			"-0.017": 0.0,
			"-0.016": 0.0,
			"-0.015": 0.0,
			"-0.014": 0.0,
			"-0.013": 0.0,
			"-0.012": 0.0,
			"-0.011": 0.293018511875,
			"-0.01": 2.18839097244,
			"-0.009": 2.69869940812,
			"-0.008": 2.65466315838,
			"-0.007": 2.849600656,
			"-0.006": 2.08786062099,
			"-0.005": 4.46372532462,
			"-0.004": 12.9866412783,
			"-0.003": 28.0583882381,
			"-0.002": 42.6369898307,
			"-0.001": 39.7568449413,
			"0.0": 36.277452827,
			"0.001": 25.0057372435,
			"0.002": 8.94648513161,
			"0.003": 5.68144591186,
			"0.004": 5.31743382185,
			"0.005": 6.38908204328,
			"0.006": 6.9383839357,
			"0.007": 3.6790459475,
			"0.008": 2.08269867266,
			"0.009": 3.14349895156,
			"0.01": 2.14865351193,
			"0.011": 1.84530158228,
			"0.012": 1.96306680792,
			"0.013": 2.01299095827,
			"0.014": 1.49679388115,
			"0.015": 1.69205533775,
			"0.016": 0.999567117106,
			"0.017": 0.469480827189,
			"0.018": 0.0,
			"0.019": 0.0,
			"0.02": 0.0,
			"0.021": 0.0,
			"0.022": 0.0,
			"0.023": 0.0,
			"0.024": 0.0,
			"0.025": 0.0
		}
	}
}
