{
	 "smiles": "COC(=O)C1=C(N=C(N)S1)C(C)(C)C", 
	 "Tm": 432.15, 
	 "num_atms": 28, 
	 "gaussian": { 
		 "optdone": 1, 
		 "sigma_profile": "yes", 
		 "theory": "DFT", 
		 "functional": "B3LYP", 
		 "basiset": "6-31G**", 
		 "properties": { 
			 "R2extent": 4445.1715, 
			 "electric_dipole_moment_norm": 3.64754619573, 
			 "electric_quadrupole_moment_norm": 10.7052995217, 
			 "total_energy": -1009.55330275, 
			 "HOMO_LUMO_gap": 0.17252, 
			 "cosmo_polarized_energy": -12.58, 
			 "cosmo_cavitation_energy": 31.62, 
			 "cosmo_dispersion_energy": -23.2, 
			 "cosmo_repulsion_energy": 1.81, 
			 "cosmo_total_nonelectrostatic_energy": 10.24, 
			 "SMD_solvation_energy": 5.81 
		},
		"coords": [
			{
				"x": -4.9630541756,
				"y": -2.6785922669,
				"z": 0.6641816837,
				"element": "C" 
			},
			{
				"x": -4.0612787448,
				"y": -1.6030038276,
				"z": 0.3714322119,
				"element": "O" 
			},
			{
				"x": -2.7843265784,
				"y": -1.7746309972,
				"z": 0.8161135592,
				"element": "C" 
			},
			{
				"x": -2.4420346978,
				"y": -2.7773248231,
				"z": 1.4215214637,
				"element": "O" 
			},
			{
				"x": -1.957838871,
				"y": -0.6236103358,
				"z": 0.4619452573,
				"element": "C" 
			},
			{
				"x": -0.6175460377,
				"y": -0.3248875633,
				"z": 0.6903240855,
				"element": "C" 
			},
			{
				"x": -0.21315899,
				"y": 0.8905091251,
				"z": 0.1978358094,
				"element": "N" 
			},
			{
				"x": -1.1857477104,
				"y": 1.5318244204,
				"z": -0.4034638971,
				"element": "C" 
			},
			{
				"x": -1.0000537126,
				"y": 2.7384618598,
				"z": -1.0168037923,
				"element": "N" 
			},
			{
				"x": -2.722334672,
				"y": 0.7025200383,
				"z": -0.4310196453,
				"element": "S" 
			},
			{
				"x": 0.4376042781,
				"y": -1.1718841672,
				"z": 1.4167578087,
				"element": "C" 
			},
			{
				"x": 0.0059688184,
				"y": -1.4103661041,
				"z": 2.8830574042,
				"element": "C" 
			},
			{
				"x": 0.6236384219,
				"y": -2.5224077244,
				"z": 0.685332503,
				"element": "C" 
			},
			{
				"x": 1.7923183116,
				"y": -0.4339532772,
				"z": 1.4239230981,
				"element": "C" 
			},
			{
				"x": -5.0476898869,
				"y": -2.8296975339,
				"z": 1.743417196,
				"element": "H" 
			},
			{
				"x": -5.9228912315,
				"y": -2.3785549069,
				"z": 0.2435632052,
				"element": "H" 
			},
			{
				"x": -4.6175355993,
				"y": -3.6087043527,
				"z": 0.2056534424,
				"element": "H" 
			},
			{
				"x": -0.1351893107,
				"y": 3.202046313,
				"z": -0.7752381402,
				"element": "H" 
			},
			{
				"x": -1.7973795819,
				"y": 3.3389423108,
				"z": -1.1595919928,
				"element": "H" 
			},
			{
				"x": 0.7808256556,
				"y": -1.9857950814,
				"z": 3.4019577728,
				"element": "H" 
			},
			{
				"x": -0.9287543596,
				"y": -1.9685866557,
				"z": 2.9396312059,
				"element": "H" 
			},
			{
				"x": -0.1136461903,
				"y": -0.4583168435,
				"z": 3.4117226602,
				"element": "H" 
			},
			{
				"x": 1.4023801425,
				"y": -3.1055174834,
				"z": 1.189644978,
				"element": "H" 
			},
			{
				"x": 0.9437330554,
				"y": -2.3616078679,
				"z": -0.3498719624,
				"element": "H" 
			},
			{
				"x": -0.2957803556,
				"y": -3.1082279529,
				"z": 0.6864926682,
				"element": "H" 
			},
			{
				"x": 2.1538667502,
				"y": -0.2416251414,
				"z": 0.4105995333,
				"element": "H" 
			},
			{
				"x": 2.530603613,
				"y": -1.05439751,
				"z": 1.943187107,
				"element": "H" 
			},
			{
				"x": 1.7266016594,
				"y": 0.528088349,
				"z": 1.9384947763,
				"element": "H" 
			}
		],
		 "valence_orbital": [ 
			{
				"type": "occ",
				"energy": -0.29736,
				"method": "rhf"
			},
			{
				"type": "occ",
				"energy": -0.27626,
				"method": "rhf"
			},
			{
				"type": "occ",
				"energy": -0.27262,
				"method": "rhf"
			},
			{
				"type": "occ",
				"energy": -0.26716,
				"method": "rhf"
			},
			{
				"type": "occ",
				"energy": -0.21551,
				"method": "rhf"
			},
			{
				"type": "unocc",
				"energy": -0.04299,
				"method": "rhf"
			},
			{
				"type": "unocc",
				"energy": 0.00877,
				"method": "rhf"
			},
			{
				"type": "unocc",
				"energy": 0.03339,
				"method": "rhf"
			},
			{
				"type": "unocc",
				"energy": 0.0688,
				"method": "rhf"
			},
			{
				"type": "unocc",
				"energy": 0.09816,
				"method": "rhf"
			}
		],
		"cosmo_sigma_profile": { 
			"-0.025": 0.0,
			"-0.024": 0.0,
			"-0.023": 0.0,
			"-0.022": 0.0,
			"-0.021": 0.0,
			"-0.02": 0.0,
			"-0.019": 0.0,
			"-0.018": 0.0,
			"-0.017": 0.0,
			"-0.016": 0.172816036077,
			"-0.015": 1.57952358617,
			"-0.014": 2.62943976638,
			"-0.013": 2.66669319504,
			"-0.012": 2.58386812695,
			"-0.011": 2.88079498924,
			"-0.01": 1.80769706596,
			"-0.009": 2.13540206805,
			"-0.008": 1.21539854238,
			"-0.007": 2.35739720948,
			"-0.006": 5.21957055881,
			"-0.005": 8.26959218168,
			"-0.004": 9.37822420798,
			"-0.003": 16.7580775823,
			"-0.002": 22.4146912882,
			"-0.001": 21.7351641133,
			"0.0": 21.7640881611,
			"0.001": 33.0213661476,
			"0.002": 31.3809511644,
			"0.003": 13.8020963071,
			"0.004": 11.8596807637,
			"0.005": 7.31394264436,
			"0.006": 6.81899278771,
			"0.007": 4.86492439185,
			"0.008": 3.58520262547,
			"0.009": 3.55578179712,
			"0.01": 2.91693586978,
			"0.011": 2.06429623589,
			"0.012": 3.02910594236,
			"0.013": 0.512187966535,
			"0.014": 0.0,
			"0.015": 0.0,
			"0.016": 0.0,
			"0.017": 0.0,
			"0.018": 0.0,
			"0.019": 0.0,
			"0.02": 0.0,
			"0.021": 0.0,
			"0.022": 0.0,
			"0.023": 0.0,
			"0.024": 0.0,
			"0.025": 0.0
		}
	}
}
