{
	 "smiles": "CC(=O)C[C@@]1(O)C(=O)C2=C(C=CC=C2)C2=C1C=CC=C2", 
	 "Tm": 340.0, 
	 "num_atms": 34, 
	 "gaussian": { 
		 "optdone": 1, 
		 "sigma_profile": "yes", 
		 "theory": "DFT", 
		 "functional": "B3LYP", 
		 "basiset": "6-31G**", 
		 "properties": { 
			 "R2extent": 4967.1369, 
			 "electric_dipole_moment_norm": 3.30344110588, 
			 "electric_quadrupole_moment_norm": 13.7286662021, 
			 "total_energy": -881.925374547, 
			 "HOMO_LUMO_gap": 0.15782, 
			 "cosmo_polarized_energy": -14.3, 
			 "cosmo_cavitation_energy": 36.43, 
			 "cosmo_dispersion_energy": -25.15, 
			 "cosmo_repulsion_energy": 1.89, 
			 "cosmo_total_nonelectrostatic_energy": 13.17, 
			 "SMD_solvation_energy": 6.87 
		},
		"coords": [
			{
				"x": 0.2879350347,
				"y": -2.5382332166,
				"z": -1.777003134,
				"element": "C" 
			},
			{
				"x": 0.7758892091,
				"y": -1.1128038463,
				"z": -1.9378227285,
				"element": "C" 
			},
			{
				"x": 0.0403428947,
				"y": -0.2138633836,
				"z": -2.3032890431,
				"element": "O" 
			},
			{
				"x": 2.2468726987,
				"y": -0.8395095211,
				"z": -1.6350168245,
				"element": "C" 
			},
			{
				"x": 2.5517505795,
				"y": -0.0436539055,
				"z": -0.3100322951,
				"element": "C" 
			},
			{
				"x": 3.9603398916,
				"y": 0.0067737154,
				"z": -0.1806224611,
				"element": "O" 
			},
			{
				"x": 2.0378312108,
				"y": 1.3969436271,
				"z": -0.4759750437,
				"element": "C" 
			},
			{
				"x": 2.7777505578,
				"y": 2.1996313056,
				"z": -1.0359486477,
				"element": "O" 
			},
			{
				"x": 0.6945899528,
				"y": 1.7349175782,
				"z": 0.0181630458,
				"element": "C" 
			},
			{
				"x": 0.0298551522,
				"y": 0.8712256483,
				"z": 0.920597613,
				"element": "C" 
			},
			{
				"x": -1.2657537726,
				"y": 1.2333214916,
				"z": 1.3246459346,
				"element": "C" 
			},
			{
				"x": -1.8609853789,
				"y": 2.4079806229,
				"z": 0.8718295122,
				"element": "C" 
			},
			{
				"x": -1.1784866385,
				"y": 3.2681753608,
				"z": 0.0052487629,
				"element": "C" 
			},
			{
				"x": 0.0995803008,
				"y": 2.927181423,
				"z": -0.4159444976,
				"element": "C" 
			},
			{
				"x": 0.720226357,
				"y": -0.3346855008,
				"z": 1.4438448607,
				"element": "C" 
			},
			{
				"x": 1.9522336211,
				"y": -0.7495188237,
				"z": 0.8931793015,
				"element": "C" 
			},
			{
				"x": 2.6287797645,
				"y": -1.8491260157,
				"z": 1.4303776953,
				"element": "C" 
			},
			{
				"x": 2.0964176465,
				"y": -2.5617801421,
				"z": 2.5025071319,
				"element": "C" 
			},
			{
				"x": 0.8745050604,
				"y": -2.1666214966,
				"z": 3.0503530717,
				"element": "C" 
			},
			{
				"x": 0.2038007348,
				"y": -1.0640063424,
				"z": 2.5311166361,
				"element": "C" 
			},
			{
				"x": -0.7849688982,
				"y": -2.5901894553,
				"z": -1.9671306407,
				"element": "H" 
			},
			{
				"x": 0.8175674096,
				"y": -3.1942677016,
				"z": -2.4790223895,
				"element": "H" 
			},
			{
				"x": 0.5124230731,
				"y": -2.9057594735,
				"z": -0.7694490948,
				"element": "H" 
			},
			{
				"x": 2.6586053435,
				"y": -0.2459681944,
				"z": -2.4584101028,
				"element": "H" 
			},
			{
				"x": 2.8166248092,
				"y": -1.7696193813,
				"z": -1.5564653681,
				"element": "H" 
			},
			{
				"x": 4.2167118695,
				"y": 0.8284201414,
				"z": -0.6378339658,
				"element": "H" 
			},
			{
				"x": -1.8286346576,
				"y": 0.5913803536,
				"z": 1.9924359506,
				"element": "H" 
			},
			{
				"x": -2.8673094089,
				"y": 2.6541097889,
				"z": 1.1987476853,
				"element": "H" 
			},
			{
				"x": -1.6470218586,
				"y": 4.1835725575,
				"z": -0.3423216539,
				"element": "H" 
			},
			{
				"x": 0.6603967783,
				"y": 3.5578550133,
				"z": -1.0975112524,
				"element": "H" 
			},
			{
				"x": 3.5892082967,
				"y": -2.1255855792,
				"z": 1.0084629437,
				"element": "H" 
			},
			{
				"x": 2.6352610608,
				"y": -3.4100527435,
				"z": 2.9141334357,
				"element": "H" 
			},
			{
				"x": 0.4505353909,
				"y": -2.7065265211,
				"z": 3.8919144695,
				"element": "H" 
			},
			{
				"x": -0.7237740851,
				"y": -0.7539173834,
				"z": 2.9987410927,
				"element": "H" 
			}
		],
		 "valence_orbital": [ 
			{
				"type": "occ",
				"energy": -0.26559,
				"method": "rhf"
			},
			{
				"type": "occ",
				"energy": -0.2603,
				"method": "rhf"
			},
			{
				"type": "occ",
				"energy": -0.2529,
				"method": "rhf"
			},
			{
				"type": "occ",
				"energy": -0.24252,
				"method": "rhf"
			},
			{
				"type": "occ",
				"energy": -0.23071,
				"method": "rhf"
			},
			{
				"type": "unocc",
				"energy": -0.07289,
				"method": "rhf"
			},
			{
				"type": "unocc",
				"energy": -0.03873,
				"method": "rhf"
			},
			{
				"type": "unocc",
				"energy": -0.01897,
				"method": "rhf"
			},
			{
				"type": "unocc",
				"energy": -0.01055,
				"method": "rhf"
			},
			{
				"type": "unocc",
				"energy": 0.02369,
				"method": "rhf"
			}
		],
		"cosmo_sigma_profile": { 
			"-0.025": 0.0,
			"-0.024": 0.0,
			"-0.023": 0.0,
			"-0.022": 0.0,
			"-0.021": 0.0,
			"-0.02": 0.0,
			"-0.019": 0.0,
			"-0.018": 0.0,
			"-0.017": 0.0,
			"-0.016": 0.0,
			"-0.015": 0.0,
			"-0.014": 0.0,
			"-0.013": 0.0,
			"-0.012": 0.107119641681,
			"-0.011": 0.534309469067,
			"-0.01": 0.632400363524,
			"-0.009": 1.10006092938,
			"-0.008": 2.39199762473,
			"-0.007": 6.69865826663,
			"-0.006": 20.4379853283,
			"-0.005": 25.7379239456,
			"-0.004": 25.1067739507,
			"-0.003": 23.2383422567,
			"-0.002": 21.9637717695,
			"-0.001": 22.1330659708,
			"0.0": 18.0276449553,
			"0.001": 18.8931495326,
			"0.002": 20.831335681,
			"0.003": 20.3506003285,
			"0.004": 15.087397251,
			"0.005": 7.94868305709,
			"0.006": 5.54904366537,
			"0.007": 5.03271653549,
			"0.008": 4.92141921598,
			"0.009": 5.89722486144,
			"0.01": 5.96353207856,
			"0.011": 7.38962717164,
			"0.012": 3.31543841142,
			"0.013": 0.989592001276,
			"0.014": 0.0718488876591,
			"0.015": 0.0,
			"0.016": 0.0,
			"0.017": 0.0,
			"0.018": 0.0,
			"0.019": 0.0,
			"0.02": 0.0,
			"0.021": 0.0,
			"0.022": 0.0,
			"0.023": 0.0,
			"0.024": 0.0,
			"0.025": 0.0
		}
	}
}
