{
	 "smiles": "OC1=CC=C(SC2=CC=NC=C2)C=C1", 
	 "Tm": 513.15, 
	 "num_atms": 23, 
	 "gaussian": { 
		 "optdone": 1, 
		 "sigma_profile": "yes", 
		 "theory": "DFT", 
		 "functional": "B3LYP", 
		 "basiset": "6-31G**", 
		 "properties": { 
			 "R2extent": 3961.2065, 
			 "electric_dipole_moment_norm": 3.87264543303, 
			 "electric_quadrupole_moment_norm": 18.1294526043, 
			 "total_energy": -952.744090689, 
			 "HOMO_LUMO_gap": 0.20511, 
			 "cosmo_polarized_energy": -12.75, 
			 "cosmo_cavitation_energy": 29.32, 
			 "cosmo_dispersion_energy": -21.62, 
			 "cosmo_repulsion_energy": 1.65, 
			 "cosmo_total_nonelectrostatic_energy": 9.35, 
			 "SMD_solvation_energy": 3.56 
		},
		"coords": [
			{
				"x": 1.7913676506,
				"y": 3.9648122076,
				"z": 0.2846204686,
				"element": "O" 
			},
			{
				"x": 1.2624266317,
				"y": 2.7135232417,
				"z": 0.3742519913,
				"element": "C" 
			},
			{
				"x": -0.0696203326,
				"y": 2.4784549633,
				"z": 0.7364843722,
				"element": "C" 
			},
			{
				"x": -0.5490895788,
				"y": 1.172245947,
				"z": 0.8117964116,
				"element": "C" 
			},
			{
				"x": 0.2904403251,
				"y": 0.0889389727,
				"z": 0.5235668426,
				"element": "C" 
			},
			{
				"x": -0.3083549791,
				"y": -1.5882919682,
				"z": 0.6957673649,
				"element": "S" 
			},
			{
				"x": -0.9254174677,
				"y": -2.0022168974,
				"z": -0.9282901532,
				"element": "C" 
			},
			{
				"x": -1.4707178168,
				"y": -3.2822788908,
				"z": -1.1025000514,
				"element": "C" 
			},
			{
				"x": -1.9606995613,
				"y": -3.6348087623,
				"z": -2.357226395,
				"element": "C" 
			},
			{
				"x": -1.948344705,
				"y": -2.8269020951,
				"z": -3.426611898,
				"element": "N" 
			},
			{
				"x": -1.4241122528,
				"y": -1.6095307854,
				"z": -3.2427919922,
				"element": "C" 
			},
			{
				"x": -0.9042368634,
				"y": -1.1460325487,
				"z": -2.0335530319,
				"element": "C" 
			},
			{
				"x": 1.625769317,
				"y": 0.3352178294,
				"z": 0.1672086379,
				"element": "C" 
			},
			{
				"x": 2.1110701287,
				"y": 1.6357359752,
				"z": 0.0891634862,
				"element": "C" 
			},
			{
				"x": 1.1146254758,
				"y": 4.6175971285,
				"z": 0.5070904661,
				"element": "H" 
			},
			{
				"x": -0.728868346,
				"y": 3.3138249885,
				"z": 0.9624339848,
				"element": "H" 
			},
			{
				"x": -1.5802906507,
				"y": 0.9914141065,
				"z": 1.0973499622,
				"element": "H" 
			},
			{
				"x": -1.5137918055,
				"y": -3.9903572513,
				"z": -0.2802834077,
				"element": "H" 
			},
			{
				"x": -2.3874743211,
				"y": -4.6251302376,
				"z": -2.5086733042,
				"element": "H" 
			},
			{
				"x": -1.4150039529,
				"y": -0.9554095616,
				"z": -4.1137084794,
				"element": "H" 
			},
			{
				"x": -0.4952948955,
				"y": -0.1448719881,
				"z": -1.9625888613,
				"element": "H" 
			},
			{
				"x": 2.2842147504,
				"y": -0.500280716,
				"z": -0.0475788683,
				"element": "H" 
			},
			{
				"x": 3.1410032499,
				"y": 1.8375463423,
				"z": -0.1852275456,
				"element": "H" 
			}
		],
		 "valence_orbital": [ 
			{
				"type": "occ",
				"energy": -0.2709,
				"method": "rhf"
			},
			{
				"type": "occ",
				"energy": -0.25879,
				"method": "rhf"
			},
			{
				"type": "occ",
				"energy": -0.24938,
				"method": "rhf"
			},
			{
				"type": "occ",
				"energy": -0.23904,
				"method": "rhf"
			},
			{
				"type": "occ",
				"energy": -0.22777,
				"method": "rhf"
			},
			{
				"type": "unocc",
				"energy": -0.02266,
				"method": "rhf"
			},
			{
				"type": "unocc",
				"energy": -0.02073,
				"method": "rhf"
			},
			{
				"type": "unocc",
				"energy": -0.01542,
				"method": "rhf"
			},
			{
				"type": "unocc",
				"energy": -0.00558,
				"method": "rhf"
			},
			{
				"type": "unocc",
				"energy": 0.03902,
				"method": "rhf"
			}
		],
		"cosmo_sigma_profile": { 
			"-0.025": 0.0,
			"-0.024": 0.0,
			"-0.023": 0.0,
			"-0.022": 0.0,
			"-0.021": 0.0,
			"-0.02": 0.0,
			"-0.019": 0.0138484347525,
			"-0.018": 0.844357209586,
			"-0.017": 1.36484509836,
			"-0.016": 0.817726374488,
			"-0.015": 1.41666872167,
			"-0.014": 0.892184725168,
			"-0.013": 0.974023519563,
			"-0.012": 1.00505879324,
			"-0.011": 0.716423035349,
			"-0.01": 1.26240792258,
			"-0.009": 1.29360070324,
			"-0.008": 1.28445251363,
			"-0.007": 6.93611653408,
			"-0.006": 15.48588574,
			"-0.005": 15.1856379439,
			"-0.004": 13.1203322553,
			"-0.003": 10.622072387,
			"-0.002": 11.8547597228,
			"-0.001": 15.2035478925,
			"0.0": 16.8477760876,
			"0.001": 18.5835103833,
			"0.002": 26.0713440605,
			"0.003": 28.3543569935,
			"0.004": 14.5182967556,
			"0.005": 6.32846632549,
			"0.006": 5.53203196365,
			"0.007": 4.45444226639,
			"0.008": 3.63043423038,
			"0.009": 2.68981896254,
			"0.01": 2.54924467657,
			"0.011": 2.01875060131,
			"0.012": 0.912580637715,
			"0.013": 1.25444299697,
			"0.014": 1.19135378423,
			"0.015": 0.519458721239,
			"0.016": 0.938119645837,
			"0.017": 0.687811513797,
			"0.018": 0.0,
			"0.019": 0.0,
			"0.02": 0.0,
			"0.021": 0.0,
			"0.022": 0.0,
			"0.023": 0.0,
			"0.024": 0.0,
			"0.025": 0.0
		}
	}
}
