{
	 "smiles": "O=C(CC1=CC=CC=C1)OC1CC2=CC=CC=C12", 
	 "Tm": 315.15, 
	 "num_atms": 32, 
	 "gaussian": { 
		 "optdone": 1, 
		 "sigma_profile": "yes", 
		 "theory": "DFT", 
		 "functional": "B3LYP", 
		 "basiset": "6-31G**", 
		 "properties": { 
			 "R2extent": 5779.1557, 
			 "electric_dipole_moment_norm": 1.546868401, 
			 "electric_quadrupole_moment_norm": 7.8817522062, 
			 "total_energy": -768.564545982, 
			 "HOMO_LUMO_gap": 0.22767, 
			 "cosmo_polarized_energy": -9.27, 
			 "cosmo_cavitation_energy": 36.48, 
			 "cosmo_dispersion_energy": -25.38, 
			 "cosmo_repulsion_energy": 2.0, 
			 "cosmo_total_nonelectrostatic_energy": 13.1, 
			 "SMD_solvation_energy": 6.29 
		},
		"coords": [
			{
				"x": 1.5067276855,
				"y": -0.7025419557,
				"z": 2.5932353424,
				"element": "O" 
			},
			{
				"x": 1.6438511562,
				"y": 0.4193977709,
				"z": 2.1501997563,
				"element": "C" 
			},
			{
				"x": 1.1372931939,
				"y": 1.6832925449,
				"z": 2.8280697696,
				"element": "C" 
			},
			{
				"x": -0.3775760888,
				"y": 1.8009125262,
				"z": 2.7527410017,
				"element": "C" 
			},
			{
				"x": -0.9728100372,
				"y": 2.8793418761,
				"z": 2.0892370676,
				"element": "C" 
			},
			{
				"x": -2.363014393,
				"y": 2.9981142491,
				"z": 2.0281898624,
				"element": "C" 
			},
			{
				"x": -3.1740193043,
				"y": 2.0346182778,
				"z": 2.6279836366,
				"element": "C" 
			},
			{
				"x": -2.5870962356,
				"y": 0.9518412744,
				"z": 3.2877329005,
				"element": "C" 
			},
			{
				"x": -1.1990730943,
				"y": 0.8349025439,
				"z": 3.350645592,
				"element": "C" 
			},
			{
				"x": 2.2598053657,
				"y": 0.693995013,
				"z": 0.98141984,
				"element": "O" 
			},
			{
				"x": 2.7701292582,
				"y": -0.4490717173,
				"z": 0.261137609,
				"element": "C" 
			},
			{
				"x": 3.3674261133,
				"y": -0.0288579867,
				"z": -1.128294129,
				"element": "C" 
			},
			{
				"x": 2.3419651209,
				"y": -0.9787496328,
				"z": -1.7370761099,
				"element": "C" 
			},
			{
				"x": 1.8902583551,
				"y": -1.5402766699,
				"z": -2.9238094068,
				"element": "C" 
			},
			{
				"x": 0.8077464399,
				"y": -2.4264366505,
				"z": -2.8060328049,
				"element": "C" 
			},
			{
				"x": 0.2288937452,
				"y": -2.7338534599,
				"z": -1.5640467665,
				"element": "C" 
			},
			{
				"x": 0.7068597485,
				"y": -2.1759274482,
				"z": -0.3689552302,
				"element": "C" 
			},
			{
				"x": 1.7720050629,
				"y": -1.2968839329,
				"z": -0.5054274598,
				"element": "C" 
			},
			{
				"x": 1.6098418844,
				"y": 2.5564172472,
				"z": 2.3741243663,
				"element": "H" 
			},
			{
				"x": 1.4552948388,
				"y": 1.6235420887,
				"z": 3.8749902571,
				"element": "H" 
			},
			{
				"x": -0.3452163688,
				"y": 3.6322808016,
				"z": 1.6191284471,
				"element": "H" 
			},
			{
				"x": -2.8094726333,
				"y": 3.842635742,
				"z": 1.5107834524,
				"element": "H" 
			},
			{
				"x": -4.2555022403,
				"y": 2.1254381703,
				"z": 2.5822129928,
				"element": "H" 
			},
			{
				"x": -3.2120632481,
				"y": 0.1963496735,
				"z": 3.7557407366,
				"element": "H" 
			},
			{
				"x": -0.7423173694,
				"y": -0.0133848262,
				"z": 3.8512193018,
				"element": "H" 
			},
			{
				"x": 3.4447291613,
				"y": -1.0038339601,
				"z": 0.9192661529,
				"element": "H" 
			},
			{
				"x": 3.2119856268,
				"y": 1.0316480682,
				"z": -1.3484683648,
				"element": "H" 
			},
			{
				"x": 4.4245939314,
				"y": -0.273554288,
				"z": -1.2758713536,
				"element": "H" 
			},
			{
				"x": 2.3257429538,
				"y": -1.3161575527,
				"z": -3.8935421619,
				"element": "H" 
			},
			{
				"x": 0.4017413014,
				"y": -2.8901358509,
				"z": -3.7011737971,
				"element": "H" 
			},
			{
				"x": -0.6076502736,
				"y": -3.4265466258,
				"z": -1.5330374639,
				"element": "H" 
			},
			{
				"x": 0.2683203436,
				"y": -2.4186153099,
				"z": 0.5931769632,
				"element": "H" 
			}
		],
		 "valence_orbital": [ 
			{
				"type": "occ",
				"energy": -0.27345,
				"method": "rhf"
			},
			{
				"type": "occ",
				"energy": -0.25024,
				"method": "rhf"
			},
			{
				"type": "occ",
				"energy": -0.24757,
				"method": "rhf"
			},
			{
				"type": "occ",
				"energy": -0.2424,
				"method": "rhf"
			},
			{
				"type": "occ",
				"energy": -0.23969,
				"method": "rhf"
			},
			{
				"type": "unocc",
				"energy": -0.01202,
				"method": "rhf"
			},
			{
				"type": "unocc",
				"energy": -0.00655,
				"method": "rhf"
			},
			{
				"type": "unocc",
				"energy": 0.00085,
				"method": "rhf"
			},
			{
				"type": "unocc",
				"energy": 0.00249,
				"method": "rhf"
			},
			{
				"type": "unocc",
				"energy": 0.01886,
				"method": "rhf"
			}
		],
		"cosmo_sigma_profile": { 
			"-0.025": 0.0,
			"-0.024": 0.0,
			"-0.023": 0.0,
			"-0.022": 0.0,
			"-0.021": 0.0,
			"-0.02": 0.0,
			"-0.019": 0.0,
			"-0.018": 0.0,
			"-0.017": 0.0,
			"-0.016": 0.0,
			"-0.015": 0.0,
			"-0.014": 0.0,
			"-0.013": 0.0,
			"-0.012": 0.0,
			"-0.011": 0.0,
			"-0.01": 0.0,
			"-0.009": 0.0,
			"-0.008": 0.0,
			"-0.007": 0.779064252899,
			"-0.006": 14.7380602913,
			"-0.005": 26.8764308231,
			"-0.004": 30.8891881883,
			"-0.003": 29.2326761423,
			"-0.002": 22.6311808913,
			"-0.001": 21.6753361286,
			"0.0": 17.9852912182,
			"0.001": 19.2123590283,
			"0.002": 19.752985393,
			"0.003": 19.5136190553,
			"0.004": 20.875831301,
			"0.005": 20.6599733822,
			"0.006": 13.6659646215,
			"0.007": 2.8234253235,
			"0.008": 2.16366390823,
			"0.009": 1.34670800578,
			"0.01": 1.69861119979,
			"0.011": 2.45460786326,
			"0.012": 2.22505044819,
			"0.013": 0.0398586098689,
			"0.014": 0.0,
			"0.015": 0.0,
			"0.016": 0.0,
			"0.017": 0.0,
			"0.018": 0.0,
			"0.019": 0.0,
			"0.02": 0.0,
			"0.021": 0.0,
			"0.022": 0.0,
			"0.023": 0.0,
			"0.024": 0.0,
			"0.025": 0.0
		}
	}
}
