{
	 "smiles": "OC(=O)C1CSC(N1)C1=CC(Br)=CC=C1", 
	 "Tm": 439.15, 
	 "num_atms": 25, 
	 "gaussian": { 
		 "optdone": 1, 
		 "sigma_profile": "yes", 
		 "theory": "DFT", 
		 "functional": "B3LYP", 
		 "basiset": "6-31G**", 
		 "properties": { 
			 "R2extent": 6994.836, 
			 "electric_dipole_moment_norm": 1.44969286402, 
			 "electric_quadrupole_moment_norm": 14.9093608626, 
			 "total_energy": -3561.88744659, 
			 "HOMO_LUMO_gap": 0.19465, 
			 "cosmo_polarized_energy": -14.3, 
			 "cosmo_cavitation_energy": 32.87, 
			 "cosmo_dispersion_energy": -24.28, 
			 "cosmo_repulsion_energy": 1.89, 
			 "cosmo_total_nonelectrostatic_energy": 10.47, 
			 "SMD_solvation_energy": 2.45 
		},
		"coords": [
			{
				"x": 1.7500976416,
				"y": -4.0977376933,
				"z": 0.3442509766,
				"element": "O" 
			},
			{
				"x": 0.763678087,
				"y": -4.387759509,
				"z": 1.227697882,
				"element": "C" 
			},
			{
				"x": 0.4294729852,
				"y": -5.5165876534,
				"z": 1.4994836679,
				"element": "O" 
			},
			{
				"x": 0.1922821708,
				"y": -3.133143948,
				"z": 1.8648896232,
				"element": "C" 
			},
			{
				"x": 1.0847046476,
				"y": -2.6576344278,
				"z": 3.0560222834,
				"element": "C" 
			},
			{
				"x": 0.6853068422,
				"y": -0.8819600097,
				"z": 3.2839569191,
				"element": "S" 
			},
			{
				"x": -0.2885363452,
				"y": -0.83569624,
				"z": 1.6292244434,
				"element": "C" 
			},
			{
				"x": 0.0468168059,
				"y": -2.0425169963,
				"z": 0.9106187351,
				"element": "N" 
			},
			{
				"x": -0.0360792281,
				"y": 0.4170870161,
				"z": 0.8225045011,
				"element": "C" 
			},
			{
				"x": 1.2699244718,
				"y": 0.8311702577,
				"z": 0.5279231076,
				"element": "C" 
			},
			{
				"x": 1.4705432473,
				"y": 1.9545387707,
				"z": -0.2679501176,
				"element": "C" 
			},
			{
				"x": 3.2566380362,
				"y": 2.5090672757,
				"z": -0.6686052513,
				"element": "Br" 
			},
			{
				"x": 0.3989735593,
				"y": 2.6911952189,
				"z": -0.7727289046,
				"element": "C" 
			},
			{
				"x": -0.8984922373,
				"y": 2.2808771063,
				"z": -0.4679752006,
				"element": "C" 
			},
			{
				"x": -1.1165444593,
				"y": 1.151443722,
				"z": 0.3222645158,
				"element": "C" 
			},
			{
				"x": 2.074342176,
				"y": -4.9468341597,
				"z": -0.000144108,
				"element": "H" 
			},
			{
				"x": -0.7943399673,
				"y": -3.3997272966,
				"z": 2.2548670761,
				"element": "H" 
			},
			{
				"x": 2.1454805892,
				"y": -2.773528342,
				"z": 2.8169222043,
				"element": "H" 
			},
			{
				"x": 0.8608988959,
				"y": -3.2185660837,
				"z": 3.9657421802,
				"element": "H" 
			},
			{
				"x": -1.3407985457,
				"y": -0.8764802591,
				"z": 1.9212384238,
				"element": "H" 
			},
			{
				"x": 0.9122798265,
				"y": -1.9206469104,
				"z": 0.3887879353,
				"element": "H" 
			},
			{
				"x": 2.1175479667,
				"y": 0.2954316156,
				"z": 0.9405939785,
				"element": "H" 
			},
			{
				"x": 0.5781359113,
				"y": 3.567733748,
				"z": -1.3846337474,
				"element": "H" 
			},
			{
				"x": -1.7423152885,
				"y": 2.8468763273,
				"z": -0.8510123907,
				"element": "H" 
			},
			{
				"x": -2.1306177892,
				"y": 0.834798471,
				"z": 0.5484612671,
				"element": "H" 
			}
		],
		 "valence_orbital": [ 
			{
				"type": "occ",
				"energy": -0.28863,
				"method": "rhf"
			},
			{
				"type": "occ",
				"energy": -0.26984,
				"method": "rhf"
			},
			{
				"type": "occ",
				"energy": -0.25409,
				"method": "rhf"
			},
			{
				"type": "occ",
				"energy": -0.24812,
				"method": "rhf"
			},
			{
				"type": "occ",
				"energy": -0.22649,
				"method": "rhf"
			},
			{
				"type": "unocc",
				"energy": -0.03184,
				"method": "rhf"
			},
			{
				"type": "unocc",
				"energy": -0.02092,
				"method": "rhf"
			},
			{
				"type": "unocc",
				"energy": -0.01407,
				"method": "rhf"
			},
			{
				"type": "unocc",
				"energy": 0.00391,
				"method": "rhf"
			},
			{
				"type": "unocc",
				"energy": 0.02764,
				"method": "rhf"
			}
		],
		"cosmo_sigma_profile": { 
			"-0.025": 0.0,
			"-0.024": 0.0,
			"-0.023": 0.0,
			"-0.022": 0.0,
			"-0.021": 0.0,
			"-0.02": 0.0,
			"-0.019": 0.515228037616,
			"-0.018": 0.895510803987,
			"-0.017": 1.01127327443,
			"-0.016": 1.14165884432,
			"-0.015": 0.908223575169,
			"-0.014": 0.169122006478,
			"-0.013": 0.178127652475,
			"-0.012": 0.842287539593,
			"-0.011": 1.18473021758,
			"-0.01": 0.640341675452,
			"-0.009": 1.97751591562,
			"-0.008": 2.89363945152,
			"-0.007": 11.9905329787,
			"-0.006": 18.5901656896,
			"-0.005": 17.8527916237,
			"-0.004": 14.8513170888,
			"-0.003": 16.0585379984,
			"-0.002": 15.6879796495,
			"-0.001": 13.5313386164,
			"0.0": 14.4994938624,
			"0.001": 17.306927495,
			"0.002": 21.0838387501,
			"0.003": 25.4843957976,
			"0.004": 20.660285725,
			"0.005": 12.6882315056,
			"0.006": 5.84060986536,
			"0.007": 5.87401521848,
			"0.008": 3.81907511143,
			"0.009": 4.37715347106,
			"0.01": 4.35932901127,
			"0.011": 6.34394720627,
			"0.012": 2.44769696226,
			"0.013": 0.35527877961,
			"0.014": 0.398327728591,
			"0.015": 0.0282111975536,
			"0.016": 0.0,
			"0.017": 0.0,
			"0.018": 0.0,
			"0.019": 0.0,
			"0.02": 0.0,
			"0.021": 0.0,
			"0.022": 0.0,
			"0.023": 0.0,
			"0.024": 0.0,
			"0.025": 0.0
		}
	}
}
