{
	 "smiles": "CC(=O)N1CCN(CC#N)CC1", 
	 "Tm": 381.15, 
	 "num_atms": 25, 
	 "gaussian": { 
		 "optdone": 1, 
		 "sigma_profile": "yes", 
		 "theory": "DFT", 
		 "functional": "B3LYP", 
		 "basiset": "6-31G**", 
		 "properties": { 
			 "R2extent": 2827.2381, 
			 "electric_dipole_moment_norm": 2.01095694882, 
			 "electric_quadrupole_moment_norm": 32.6574349898, 
			 "total_energy": -552.136604312, 
			 "HOMO_LUMO_gap": 0.25081, 
			 "cosmo_polarized_energy": -17.89, 
			 "cosmo_cavitation_energy": 27.7, 
			 "cosmo_dispersion_energy": -19.66, 
			 "cosmo_repulsion_energy": 1.57, 
			 "cosmo_total_nonelectrostatic_energy": 9.61, 
			 "SMD_solvation_energy": 3.45 
		},
		"coords": [
			{
				"x": -1.4732033494,
				"y": 2.064607039,
				"z": -1.519477189,
				"element": "C" 
			},
			{
				"x": -1.6236235992,
				"y": 0.5773922033,
				"z": -1.2342068027,
				"element": "C" 
			},
			{
				"x": -2.6190954306,
				"y": -0.0466056479,
				"z": -1.5877867486,
				"element": "O" 
			},
			{
				"x": -0.5857360724,
				"y": -0.0342057913,
				"z": -0.5681633487,
				"element": "N" 
			},
			{
				"x": 0.6023846237,
				"y": 0.6645155636,
				"z": -0.0701913224,
				"element": "C" 
			},
			{
				"x": 1.6997639215,
				"y": -0.3636198855,
				"z": 0.2297138582,
				"element": "C" 
			},
			{
				"x": 1.300636168,
				"y": -1.3888669437,
				"z": 1.210111457,
				"element": "N" 
			},
			{
				"x": 1.743194321,
				"y": -1.1413629655,
				"z": 2.5755155166,
				"element": "C" 
			},
			{
				"x": 3.2097031395,
				"y": -1.1200275047,
				"z": 2.6949705464,
				"element": "C" 
			},
			{
				"x": 4.3650827817,
				"y": -1.0777766637,
				"z": 2.7915495157,
				"element": "N" 
			},
			{
				"x": -0.1402447919,
				"y": -1.6935142552,
				"z": 1.1792019378,
				"element": "C" 
			},
			{
				"x": -0.7208577254,
				"y": -1.4499502415,
				"z": -0.209031984,
				"element": "C" 
			},
			{
				"x": -2.4055548274,
				"y": 2.4102947289,
				"z": -1.9646213213,
				"element": "H" 
			},
			{
				"x": -0.6548523036,
				"y": 2.2535772487,
				"z": -2.2232677816,
				"element": "H" 
			},
			{
				"x": -1.2684146407,
				"y": 2.641821436,
				"z": -0.6118688541,
				"element": "H" 
			},
			{
				"x": 0.9727939681,
				"y": 1.3686742422,
				"z": -0.8216990078,
				"element": "H" 
			},
			{
				"x": 0.3725663721,
				"y": 1.2490088084,
				"z": 0.8347771955,
				"element": "H" 
			},
			{
				"x": 1.9793744868,
				"y": -0.8591202751,
				"z": -0.7075991542,
				"element": "H" 
			},
			{
				"x": 2.5967342384,
				"y": 0.1480705232,
				"z": 0.5887440704,
				"element": "H" 
			},
			{
				"x": 1.3702534759,
				"y": -1.9534193307,
				"z": 3.2113392179,
				"element": "H" 
			},
			{
				"x": 1.3540775775,
				"y": -0.2006012857,
				"z": 3.013653114,
				"element": "H" 
			},
			{
				"x": -0.2939575212,
				"y": -2.7406074936,
				"z": 1.4687405652,
				"element": "H" 
			},
			{
				"x": -0.7022620651,
				"y": -1.0708921328,
				"z": 1.8997799694,
				"element": "H" 
			},
			{
				"x": -1.7838068504,
				"y": -1.6935496551,
				"z": -0.2343728107,
				"element": "H" 
			},
			{
				"x": -0.219855897,
				"y": -2.0916417214,
				"z": -0.9464106391,
				"element": "H" 
			}
		],
		 "valence_orbital": [ 
			{
				"type": "occ",
				"energy": -0.33871,
				"method": "rhf"
			},
			{
				"type": "occ",
				"energy": -0.33304,
				"method": "rhf"
			},
			{
				"type": "occ",
				"energy": -0.24927,
				"method": "rhf"
			},
			{
				"type": "occ",
				"energy": -0.24271,
				"method": "rhf"
			},
			{
				"type": "occ",
				"energy": -0.23714,
				"method": "rhf"
			},
			{
				"type": "unocc",
				"energy": 0.01367,
				"method": "rhf"
			},
			{
				"type": "unocc",
				"energy": 0.02477,
				"method": "rhf"
			},
			{
				"type": "unocc",
				"energy": 0.03037,
				"method": "rhf"
			},
			{
				"type": "unocc",
				"energy": 0.05838,
				"method": "rhf"
			},
			{
				"type": "unocc",
				"energy": 0.0926,
				"method": "rhf"
			}
		],
		"cosmo_sigma_profile": { 
			"-0.025": 0.0,
			"-0.024": 0.0,
			"-0.023": 0.0,
			"-0.022": 0.0,
			"-0.021": 0.0,
			"-0.02": 0.0,
			"-0.019": 0.0,
			"-0.018": 0.0,
			"-0.017": 0.0,
			"-0.016": 0.0,
			"-0.015": 0.0,
			"-0.014": 0.0,
			"-0.013": 0.0,
			"-0.012": 0.0,
			"-0.011": 0.0,
			"-0.01": 0.0,
			"-0.009": 1.3768175247,
			"-0.008": 3.04926259083,
			"-0.007": 9.556474819,
			"-0.006": 16.5125122172,
			"-0.005": 23.7753018122,
			"-0.004": 28.535865916,
			"-0.003": 23.9777713772,
			"-0.002": 15.6847521812,
			"-0.001": 13.8548653179,
			"0.0": 9.1534906624,
			"0.001": 5.54024603408,
			"0.002": 4.35221972137,
			"0.003": 5.82397275823,
			"0.004": 5.70674628068,
			"0.005": 4.37853777312,
			"0.006": 4.3914277437,
			"0.007": 4.92529005487,
			"0.008": 5.55473720487,
			"0.009": 5.69451636106,
			"0.01": 4.31552157555,
			"0.011": 4.40968417766,
			"0.012": 4.65905718888,
			"0.013": 4.23929402521,
			"0.014": 5.32433493349,
			"0.015": 2.44693243966,
			"0.016": 0.274302309975,
			"0.017": 0.0,
			"0.018": 0.0,
			"0.019": 0.0,
			"0.02": 0.0,
			"0.021": 0.0,
			"0.022": 0.0,
			"0.023": 0.0,
			"0.024": 0.0,
			"0.025": 0.0
		}
	}
}
