{
	 "smiles": "CC(C)NC(=O)CCl", 
	 "Tm": 332.15, 
	 "num_atms": 18, 
	 "gaussian": { 
		 "optdone": 1, 
		 "sigma_profile": "yes", 
		 "theory": "DFT", 
		 "functional": "B3LYP", 
		 "basiset": "6-31G**", 
		 "properties": { 
			 "R2extent": 1583.9879, 
			 "electric_dipole_moment_norm": 2.04490754314, 
			 "electric_quadrupole_moment_norm": 7.5290858376, 
			 "total_energy": -786.756500552, 
			 "HOMO_LUMO_gap": 0.27144, 
			 "cosmo_polarized_energy": -9.23, 
			 "cosmo_cavitation_energy": 22.88, 
			 "cosmo_dispersion_energy": -16.47, 
			 "cosmo_repulsion_energy": 1.42, 
			 "cosmo_total_nonelectrostatic_energy": 7.82, 
			 "SMD_solvation_energy": 4.4 
		},
		"coords": [
			{
				"x": -0.5224092158,
				"y": -2.0256139283,
				"z": -1.7837192102,
				"element": "C" 
			},
			{
				"x": -0.2451055664,
				"y": -1.5740257674,
				"z": -0.3444449273,
				"element": "C" 
			},
			{
				"x": 0.7877924214,
				"y": -2.4660386919,
				"z": 0.3550726607,
				"element": "C" 
			},
			{
				"x": 0.187961235,
				"y": -0.1745460197,
				"z": -0.3207403962,
				"element": "N" 
			},
			{
				"x": -0.5154637609,
				"y": 0.8021314594,
				"z": 0.2947386701,
				"element": "C" 
			},
			{
				"x": -1.5730271336,
				"y": 0.6453450067,
				"z": 0.8952219293,
				"element": "O" 
			},
			{
				"x": 0.0399110617,
				"y": 2.2294441477,
				"z": 0.2488745176,
				"element": "C" 
			},
			{
				"x": 1.6085026409,
				"y": 2.4796822518,
				"z": -0.6385378491,
				"element": "Cl" 
			},
			{
				"x": -0.8813714245,
				"y": -3.0596828336,
				"z": -1.7989065336,
				"element": "H" 
			},
			{
				"x": -1.28032572,
				"y": -1.3916034587,
				"z": -2.2522327548,
				"element": "H" 
			},
			{
				"x": 0.3875004629,
				"y": -1.9800900385,
				"z": -2.3943408553,
				"element": "H" 
			},
			{
				"x": -1.1788088568,
				"y": -1.586984739,
				"z": 0.2244024864,
				"element": "H" 
			},
			{
				"x": 1.7519073988,
				"y": -2.438489836,
				"z": -0.1670982443,
				"element": "H" 
			},
			{
				"x": 0.4481578261,
				"y": -3.5065792102,
				"z": 0.3704074447,
				"element": "H" 
			},
			{
				"x": 0.94879025,
				"y": -2.141496603,
				"z": 1.3869019666,
				"element": "H" 
			},
			{
				"x": 1.0493556102,
				"y": 0.0782854411,
				"z": -0.7866111867,
				"element": "H" 
			},
			{
				"x": 0.1949038546,
				"y": 2.5699614591,
				"z": 1.2726440415,
				"element": "H" 
			},
			{
				"x": -0.7016710833,
				"y": 2.8706013604,
				"z": -0.2276317595,
				"element": "H" 
			}
		],
		 "valence_orbital": [ 
			{
				"type": "occ",
				"energy": -0.35057,
				"method": "rhf"
			},
			{
				"type": "occ",
				"energy": -0.32234,
				"method": "rhf"
			},
			{
				"type": "occ",
				"energy": -0.30992,
				"method": "rhf"
			},
			{
				"type": "occ",
				"energy": -0.25806,
				"method": "rhf"
			},
			{
				"type": "occ",
				"energy": -0.2566,
				"method": "rhf"
			},
			{
				"type": "unocc",
				"energy": 0.01484,
				"method": "rhf"
			},
			{
				"type": "unocc",
				"energy": 0.02155,
				"method": "rhf"
			},
			{
				"type": "unocc",
				"energy": 0.0798,
				"method": "rhf"
			},
			{
				"type": "unocc",
				"energy": 0.10601,
				"method": "rhf"
			},
			{
				"type": "unocc",
				"energy": 0.11754,
				"method": "rhf"
			}
		],
		"cosmo_sigma_profile": { 
			"-0.025": 0.0,
			"-0.024": 0.0,
			"-0.023": 0.0,
			"-0.022": 0.0,
			"-0.021": 0.0,
			"-0.02": 0.0,
			"-0.019": 0.0,
			"-0.018": 0.0,
			"-0.017": 0.0,
			"-0.016": 0.0,
			"-0.015": 0.0,
			"-0.014": 0.0,
			"-0.013": 0.0,
			"-0.012": 0.188536029433,
			"-0.011": 0.836850310715,
			"-0.01": 1.20815095165,
			"-0.009": 2.6990925394,
			"-0.008": 5.57791446494,
			"-0.007": 4.60468088114,
			"-0.006": 4.73646586555,
			"-0.005": 5.71631952446,
			"-0.004": 12.0863049872,
			"-0.003": 19.7876332373,
			"-0.002": 17.8293550421,
			"-0.001": 18.9000456599,
			"0.0": 21.8084315653,
			"0.001": 17.3153938596,
			"0.002": 6.20144935935,
			"0.003": 5.73417881219,
			"0.004": 4.64549244972,
			"0.005": 8.72297813388,
			"0.006": 5.49049821898,
			"0.007": 1.10519415113,
			"0.008": 1.17919545862,
			"0.009": 1.29600413332,
			"0.01": 1.18172343538,
			"0.011": 1.86121077529,
			"0.012": 1.86780677409,
			"0.013": 4.71494022443,
			"0.014": 3.80486547013,
			"0.015": 0.144150939763,
			"0.016": 0.0,
			"0.017": 0.0,
			"0.018": 0.0,
			"0.019": 0.0,
			"0.02": 0.0,
			"0.021": 0.0,
			"0.022": 0.0,
			"0.023": 0.0,
			"0.024": 0.0,
			"0.025": 0.0
		}
	}
}
