{
	 "smiles": "FC(Br)C(F)(F)F", 
	 "Tm": 193.15, 
	 "num_atms": 8, 
	 "gaussian": { 
		 "optdone": 1, 
		 "sigma_profile": "yes", 
		 "theory": "DFT", 
		 "functional": "B3LYP", 
		 "basiset": "6-31G**", 
		 "properties": { 
			 "R2extent": 2082.5761, 
			 "electric_dipole_moment_norm": 1.2745932763, 
			 "electric_quadrupole_moment_norm": 3.00609245699, 
			 "total_energy": -3047.56525133, 
			 "HOMO_LUMO_gap": 0.27457, 
			 "cosmo_polarized_energy": -3.48, 
			 "cosmo_cavitation_energy": 16.32, 
			 "cosmo_dispersion_energy": -11.95, 
			 "cosmo_repulsion_energy": 0.95, 
			 "cosmo_total_nonelectrostatic_energy": 5.31, 
			 "SMD_solvation_energy": 3.41 
		},
		"coords": [
			{
				"x": 0.3067800543,
				"y": 0.3344094564,
				"z": 2.0137016676,
				"element": "F" 
			},
			{
				"x": -0.7708163423,
				"y": 0.7387557651,
				"z": 1.2955420429,
				"element": "C" 
			},
			{
				"x": -2.3855868915,
				"y": 0.6488773191,
				"z": 2.3951193473,
				"element": "Br" 
			},
			{
				"x": -0.893566757,
				"y": -0.1599241822,
				"z": 0.0597820954,
				"element": "C" 
			},
			{
				"x": -1.0670194299,
				"y": -1.4438358376,
				"z": 0.3863562546,
				"element": "F" 
			},
			{
				"x": -1.9193379545,
				"y": 0.2402288957,
				"z": -0.7069450153,
				"element": "F" 
			},
			{
				"x": 0.2394334767,
				"y": -0.0523279357,
				"z": -0.6590042427,
				"element": "F" 
			},
			{
				"x": -0.6553861559,
				"y": 1.7792165191,
				"z": 0.9894478504,
				"element": "H" 
			}
		],
		 "valence_orbital": [ 
			{
				"type": "occ",
				"energy": -0.42031,
				"method": "rhf"
			},
			{
				"type": "occ",
				"energy": -0.38784,
				"method": "rhf"
			},
			{
				"type": "occ",
				"energy": -0.37543,
				"method": "rhf"
			},
			{
				"type": "occ",
				"energy": -0.31036,
				"method": "rhf"
			},
			{
				"type": "occ",
				"energy": -0.3046,
				"method": "rhf"
			},
			{
				"type": "unocc",
				"energy": -0.03003,
				"method": "rhf"
			},
			{
				"type": "unocc",
				"energy": 0.0647,
				"method": "rhf"
			},
			{
				"type": "unocc",
				"energy": 0.09518,
				"method": "rhf"
			},
			{
				"type": "unocc",
				"energy": 0.17413,
				"method": "rhf"
			},
			{
				"type": "unocc",
				"energy": 0.19174,
				"method": "rhf"
			}
		],
		"cosmo_sigma_profile": { 
			"-0.025": 0.0,
			"-0.024": 0.0,
			"-0.023": 0.0,
			"-0.022": 0.0,
			"-0.021": 0.0,
			"-0.02": 0.0,
			"-0.019": 0.0,
			"-0.018": 0.0,
			"-0.017": 0.0,
			"-0.016": 0.0,
			"-0.015": 0.0,
			"-0.014": 0.0,
			"-0.013": 0.716361753538,
			"-0.012": 2.57572463138,
			"-0.011": 2.30192294087,
			"-0.01": 1.37423566332,
			"-0.009": 1.38502952115,
			"-0.008": 1.96370932948,
			"-0.007": 0.951464744852,
			"-0.006": 1.5798998409,
			"-0.005": 2.48427912421,
			"-0.004": 2.79819287811,
			"-0.003": 4.0739230505,
			"-0.002": 4.92002107854,
			"-0.001": 7.22667419491,
			"0.0": 12.8620791689,
			"0.001": 24.9039992505,
			"0.002": 39.9562911739,
			"0.003": 18.8159917789,
			"0.004": 3.20842364205,
			"0.005": 0.0,
			"0.006": 0.0,
			"0.007": 0.0,
			"0.008": 0.0,
			"0.009": 0.0,
			"0.01": 0.0,
			"0.011": 0.0,
			"0.012": 0.0,
			"0.013": 0.0,
			"0.014": 0.0,
			"0.015": 0.0,
			"0.016": 0.0,
			"0.017": 0.0,
			"0.018": 0.0,
			"0.019": 0.0,
			"0.02": 0.0,
			"0.021": 0.0,
			"0.022": 0.0,
			"0.023": 0.0,
			"0.024": 0.0,
			"0.025": 0.0
		}
	}
}
