{
	 "smiles": "NC1=CC(OC2=NC=C(C=C2)C#N)=CC=C1", 
	 "Tm": 386.15, 
	 "num_atms": 25, 
	 "gaussian": { 
		 "optdone": 1, 
		 "sigma_profile": "yes", 
		 "theory": "DFT", 
		 "functional": "B3LYP", 
		 "basiset": "6-31G**", 
		 "properties": { 
			 "R2extent": 4949.5826, 
			 "electric_dipole_moment_norm": 6.78027399668, 
			 "electric_quadrupole_moment_norm": 27.4096583581, 
			 "total_energy": -702.154070324, 
			 "HOMO_LUMO_gap": 0.16874, 
			 "cosmo_polarized_energy": -17.49, 
			 "cosmo_cavitation_energy": 31.55, 
			 "cosmo_dispersion_energy": -22.24, 
			 "cosmo_repulsion_energy": 1.74, 
			 "cosmo_total_nonelectrostatic_energy": 11.05, 
			 "SMD_solvation_energy": 5.55 
		},
		"coords": [
			{
				"x": -3.5885130545,
				"y": 0.0451122031,
				"z": -2.8438850264,
				"element": "N" 
			},
			{
				"x": -2.9489684039,
				"y": -0.26950392,
				"z": -1.6506036489,
				"element": "C" 
			},
			{
				"x": -1.6560005237,
				"y": -0.8226724845,
				"z": -1.6582592382,
				"element": "C" 
			},
			{
				"x": -1.0586326636,
				"y": -1.189904656,
				"z": -0.4577817213,
				"element": "C" 
			},
			{
				"x": 0.1925793943,
				"y": -1.8055851203,
				"z": -0.5139029475,
				"element": "O" 
			},
			{
				"x": 1.3143741517,
				"y": -1.0955790581,
				"z": -0.2294353456,
				"element": "C" 
			},
			{
				"x": 2.4205379843,
				"y": -1.8394921562,
				"z": -0.2424769313,
				"element": "N" 
			},
			{
				"x": 3.5798398074,
				"y": -1.2395852876,
				"z": 0.0120467701,
				"element": "C" 
			},
			{
				"x": 3.6995443687,
				"y": 0.132039218,
				"z": 0.2927975714,
				"element": "C" 
			},
			{
				"x": 2.5213528105,
				"y": 0.8999598059,
				"z": 0.2991755599,
				"element": "C" 
			},
			{
				"x": 1.3080441706,
				"y": 0.2864853102,
				"z": 0.0352912153,
				"element": "C" 
			},
			{
				"x": 4.9763028147,
				"y": 0.7164478937,
				"z": 0.5590443302,
				"element": "C" 
			},
			{
				"x": 6.0170860448,
				"y": 1.1903121971,
				"z": 0.7749945557,
				"element": "N" 
			},
			{
				"x": -1.6964792702,
				"y": -1.0283138291,
				"z": 0.7710114198,
				"element": "C" 
			},
			{
				"x": -2.9776546643,
				"y": -0.4719075285,
				"z": 0.7710293097,
				"element": "C" 
			},
			{
				"x": -3.6003527062,
				"y": -0.0934917289,
				"z": -0.4150353522,
				"element": "C" 
			},
			{
				"x": -4.341576888,
				"y": 0.7147727604,
				"z": -2.7801896765,
				"element": "H" 
			},
			{
				"x": -2.9910575929,
				"y": 0.2025863487,
				"z": -3.6425430736,
				"element": "H" 
			},
			{
				"x": -1.1226532904,
				"y": -0.9871108848,
				"z": -2.5894676076,
				"element": "H" 
			},
			{
				"x": 4.4666248515,
				"y": -1.8692285863,
				"z": -0.004487355,
				"element": "H" 
			},
			{
				"x": 2.5669735368,
				"y": 1.9638236771,
				"z": 0.5079654304,
				"element": "H" 
			},
			{
				"x": 0.3836022528,
				"y": 0.8492462775,
				"z": 0.0323323037,
				"element": "H" 
			},
			{
				"x": -1.207267649,
				"y": -1.3417827163,
				"z": 1.686164976,
				"element": "H" 
			},
			{
				"x": -3.5009281334,
				"y": -0.3347356194,
				"z": 1.7128032818,
				"element": "H" 
			},
			{
				"x": -4.6012773479,
				"y": 0.3291078841,
				"z": -0.3941887999,
				"element": "H" 
			}
		],
		 "valence_orbital": [ 
			{
				"type": "occ",
				"energy": -0.30578,
				"method": "rhf"
			},
			{
				"type": "occ",
				"energy": -0.281,
				"method": "rhf"
			},
			{
				"type": "occ",
				"energy": -0.259,
				"method": "rhf"
			},
			{
				"type": "occ",
				"energy": -0.25169,
				"method": "rhf"
			},
			{
				"type": "occ",
				"energy": -0.21847,
				"method": "rhf"
			},
			{
				"type": "unocc",
				"energy": -0.04973,
				"method": "rhf"
			},
			{
				"type": "unocc",
				"energy": -0.04092,
				"method": "rhf"
			},
			{
				"type": "unocc",
				"energy": -0.01256,
				"method": "rhf"
			},
			{
				"type": "unocc",
				"energy": 0.00089,
				"method": "rhf"
			},
			{
				"type": "unocc",
				"energy": 0.03332,
				"method": "rhf"
			}
		],
		"cosmo_sigma_profile": { 
			"-0.025": 0.0,
			"-0.024": 0.0,
			"-0.023": 0.0,
			"-0.022": 0.0,
			"-0.021": 0.0,
			"-0.02": 0.0,
			"-0.019": 0.0,
			"-0.018": 0.0,
			"-0.017": 0.0,
			"-0.016": 0.0,
			"-0.015": 0.0,
			"-0.014": 0.0,
			"-0.013": 1.00202303567,
			"-0.012": 3.09578780465,
			"-0.011": 2.77238690962,
			"-0.01": 3.16736330583,
			"-0.009": 6.95296138436,
			"-0.008": 8.85360889743,
			"-0.007": 9.06548762511,
			"-0.006": 12.9510813011,
			"-0.005": 13.1974713463,
			"-0.004": 13.2079531222,
			"-0.003": 16.4660415106,
			"-0.002": 19.4605640265,
			"-0.001": 22.0328280869,
			"0.0": 16.5631630909,
			"0.001": 10.6953472288,
			"0.002": 10.3831688308,
			"0.003": 12.6531564468,
			"0.004": 12.2346832813,
			"0.005": 13.5633193296,
			"0.006": 8.24638159484,
			"0.007": 5.53218708693,
			"0.008": 6.16689459634,
			"0.009": 6.04024123206,
			"0.01": 5.66238451154,
			"0.011": 5.6276408473,
			"0.012": 3.97905911771,
			"0.013": 3.20050248949,
			"0.014": 1.31671127566,
			"0.015": 0.43588792874,
			"0.016": 0.0,
			"0.017": 0.0,
			"0.018": 0.0,
			"0.019": 0.0,
			"0.02": 0.0,
			"0.021": 0.0,
			"0.022": 0.0,
			"0.023": 0.0,
			"0.024": 0.0,
			"0.025": 0.0
		}
	}
}
