{
	 "smiles": "CCOC(=O)C1=C(N)C(=CN1CCOC)C#N", 
	 "Tm": 373.15, 
	 "num_atms": 32, 
	 "gaussian": { 
		 "optdone": 1, 
		 "sigma_profile": "yes", 
		 "theory": "DFT", 
		 "functional": "B3LYP", 
		 "basiset": "6-31G**", 
		 "properties": { 
			 "R2extent": 5080.4037, 
			 "electric_dipole_moment_norm": 5.66676878741, 
			 "electric_quadrupole_moment_norm": 24.2056404906, 
			 "total_energy": -818.124347091, 
			 "HOMO_LUMO_gap": 0.17585, 
			 "cosmo_polarized_energy": -16.44, 
			 "cosmo_cavitation_energy": 36.8, 
			 "cosmo_dispersion_energy": -24.85, 
			 "cosmo_repulsion_energy": 1.97, 
			 "cosmo_total_nonelectrostatic_energy": 13.91, 
			 "SMD_solvation_energy": 9.09 
		},
		"coords": [
			{
				"x": -3.430483581,
				"y": 0.602031514,
				"z": 0.958775488,
				"element": "C" 
			},
			{
				"x": -2.6952689428,
				"y": -0.6873269342,
				"z": 1.2916236702,
				"element": "C" 
			},
			{
				"x": -1.3478943501,
				"y": -0.6860007603,
				"z": 0.7587705187,
				"element": "O" 
			},
			{
				"x": -0.3972911082,
				"y": -0.0820314573,
				"z": 1.5208751688,
				"element": "C" 
			},
			{
				"x": -0.653964179,
				"y": 0.4501210611,
				"z": 2.5996904206,
				"element": "O" 
			},
			{
				"x": 0.9354646967,
				"y": -0.1187632605,
				"z": 0.9689191548,
				"element": "C" 
			},
			{
				"x": 2.0549043312,
				"y": 0.4363264581,
				"z": 1.6135601604,
				"element": "C" 
			},
			{
				"x": 2.0502935274,
				"y": 1.1497290284,
				"z": 2.769962841,
				"element": "N" 
			},
			{
				"x": 3.1950635551,
				"y": 0.1359499252,
				"z": 0.8015479309,
				"element": "C" 
			},
			{
				"x": 2.7295262806,
				"y": -0.5812080878,
				"z": -0.2996883339,
				"element": "C" 
			},
			{
				"x": 1.3931430352,
				"y": -0.7427202671,
				"z": -0.2126150552,
				"element": "N" 
			},
			{
				"x": 0.5986283467,
				"y": -1.3864943653,
				"z": -1.2566716852,
				"element": "C" 
			},
			{
				"x": -0.0481134538,
				"y": -0.3752186235,
				"z": -2.2053405774,
				"element": "C" 
			},
			{
				"x": -0.723051893,
				"y": -1.1243642989,
				"z": -3.1927572362,
				"element": "O" 
			},
			{
				"x": -1.3886238978,
				"y": -0.3142469898,
				"z": -4.1400503998,
				"element": "C" 
			},
			{
				"x": 4.5334387664,
				"y": 0.4920094644,
				"z": 1.0901539506,
				"element": "C" 
			},
			{
				"x": 5.6223171344,
				"y": 0.8023219096,
				"z": 1.3677445507,
				"element": "N" 
			},
			{
				"x": -2.9496758941,
				"y": 1.4533973445,
				"z": 1.4458812809,
				"element": "H" 
			},
			{
				"x": -3.4509835965,
				"y": 0.7737257123,
				"z": -0.1217512684,
				"element": "H" 
			},
			{
				"x": -4.4645625861,
				"y": 0.5408549932,
				"z": 1.3144120667,
				"element": "H" 
			},
			{
				"x": -3.1688724733,
				"y": -1.5519655739,
				"z": 0.8205312887,
				"element": "H" 
			},
			{
				"x": -2.6452312864,
				"y": -0.8435023515,
				"z": 2.3712982599,
				"element": "H" 
			},
			{
				"x": 1.1873300238,
				"y": 1.1285838772,
				"z": 3.2979105707,
				"element": "H" 
			},
			{
				"x": 2.922789169,
				"y": 1.2837691866,
				"z": 3.2564619175,
				"element": "H" 
			},
			{
				"x": 3.289269833,
				"y": -0.9803547042,
				"z": -1.1330192665,
				"element": "H" 
			},
			{
				"x": -0.1730894701,
				"y": -2.0027910799,
				"z": -0.797890512,
				"element": "H" 
			},
			{
				"x": 1.2675649436,
				"y": -2.0364556748,
				"z": -1.826382036,
				"element": "H" 
			},
			{
				"x": -0.7433064951,
				"y": 0.270301669,
				"z": -1.6483499656,
				"element": "H" 
			},
			{
				"x": 0.7272242221,
				"y": 0.2692734684,
				"z": -2.6534772381,
				"element": "H" 
			},
			{
				"x": -2.1524161665,
				"y": 0.3226069622,
				"z": -3.6672782082,
				"element": "H" 
			},
			{
				"x": -0.6872543871,
				"y": 0.3361384669,
				"z": -4.6855872947,
				"element": "H" 
			},
			{
				"x": -1.8769741043,
				"y": -0.983396612,
				"z": -4.8521601621,
				"element": "H" 
			}
		],
		 "valence_orbital": [ 
			{
				"type": "occ",
				"energy": -0.30228,
				"method": "rhf"
			},
			{
				"type": "occ",
				"energy": -0.28111,
				"method": "rhf"
			},
			{
				"type": "occ",
				"energy": -0.26944,
				"method": "rhf"
			},
			{
				"type": "occ",
				"energy": -0.24048,
				"method": "rhf"
			},
			{
				"type": "occ",
				"energy": -0.20738,
				"method": "rhf"
			},
			{
				"type": "unocc",
				"energy": -0.03153,
				"method": "rhf"
			},
			{
				"type": "unocc",
				"energy": -0.00114,
				"method": "rhf"
			},
			{
				"type": "unocc",
				"energy": 0.03304,
				"method": "rhf"
			},
			{
				"type": "unocc",
				"energy": 0.06992,
				"method": "rhf"
			},
			{
				"type": "unocc",
				"energy": 0.08413,
				"method": "rhf"
			}
		],
		"cosmo_sigma_profile": { 
			"-0.025": 0.0,
			"-0.024": 0.0,
			"-0.023": 0.0,
			"-0.022": 0.0,
			"-0.021": 0.0,
			"-0.02": 0.0,
			"-0.019": 0.0,
			"-0.018": 0.0,
			"-0.017": 0.0,
			"-0.016": 0.0,
			"-0.015": 0.0,
			"-0.014": 0.200728185102,
			"-0.013": 1.0126122887,
			"-0.012": 1.27428129915,
			"-0.011": 1.09178439113,
			"-0.01": 4.85790255001,
			"-0.009": 4.36067709819,
			"-0.008": 5.39110554985,
			"-0.007": 5.10700245879,
			"-0.006": 5.28586971777,
			"-0.005": 11.5160085029,
			"-0.004": 26.9868440463,
			"-0.003": 35.6107317705,
			"-0.002": 31.4694690329,
			"-0.001": 23.1259011807,
			"0.0": 23.2818619523,
			"0.001": 21.9275284112,
			"0.002": 16.9762045237,
			"0.003": 9.44270296574,
			"0.004": 8.07985244202,
			"0.005": 6.24399448204,
			"0.006": 6.69180730993,
			"0.007": 6.20133554018,
			"0.008": 5.77178734133,
			"0.009": 6.47393794971,
			"0.01": 7.36053780495,
			"0.011": 6.27573372301,
			"0.012": 5.81890438495,
			"0.013": 2.93914806838,
			"0.014": 0.784945297526,
			"0.015": 0.0,
			"0.016": 0.0,
			"0.017": 0.0,
			"0.018": 0.0,
			"0.019": 0.0,
			"0.02": 0.0,
			"0.021": 0.0,
			"0.022": 0.0,
			"0.023": 0.0,
			"0.024": 0.0,
			"0.025": 0.0
		}
	}
}
