{
	 "smiles": "OC(C1CC1)(C1=CC=CC=C1)C1=CC=CC=C1", 
	 "Tm": 358.15, 
	 "num_atms": 33, 
	 "gaussian": { 
		 "optdone": 1, 
		 "sigma_profile": "yes", 
		 "theory": "DFT", 
		 "functional": "B3LYP", 
		 "basiset": "6-31G**", 
		 "properties": { 
			 "R2extent": 4000.0614, 
			 "electric_dipole_moment_norm": 1.3102619967, 
			 "electric_quadrupole_moment_norm": 2.92682307631, 
			 "total_energy": -694.532337366, 
			 "HOMO_LUMO_gap": 0.22887, 
			 "cosmo_polarized_energy": -8.7, 
			 "cosmo_cavitation_energy": 34.36, 
			 "cosmo_dispersion_energy": -24.11, 
			 "cosmo_repulsion_energy": 1.87, 
			 "cosmo_total_nonelectrostatic_energy": 12.13, 
			 "SMD_solvation_energy": 5.58 
		},
		"coords": [
			{
				"x": 2.1580180576,
				"y": -1.2718499448,
				"z": -1.1169424789,
				"element": "O" 
			},
			{
				"x": 1.3600884524,
				"y": -0.4794286583,
				"z": -0.2179054205,
				"element": "C" 
			},
			{
				"x": 2.2419542358,
				"y": -0.1060969503,
				"z": 0.9857481374,
				"element": "C" 
			},
			{
				"x": 3.3531555272,
				"y": 0.9036527641,
				"z": 0.8737795978,
				"element": "C" 
			},
			{
				"x": 2.162987215,
				"y": 1.1947734198,
				"z": 1.7519545498,
				"element": "C" 
			},
			{
				"x": 0.1417352163,
				"y": -1.3111530967,
				"z": 0.224590703,
				"element": "C" 
			},
			{
				"x": -0.4601171918,
				"y": -2.1755933568,
				"z": -0.7021218397,
				"element": "C" 
			},
			{
				"x": -1.5687695858,
				"y": -2.9419314824,
				"z": -0.3472455454,
				"element": "C" 
			},
			{
				"x": -2.0988778407,
				"y": -2.8578083952,
				"z": 0.9429440832,
				"element": "C" 
			},
			{
				"x": -1.5095017685,
				"y": -2.0009387852,
				"z": 1.8715974956,
				"element": "C" 
			},
			{
				"x": -0.3964393962,
				"y": -1.2338887496,
				"z": 1.5153798405,
				"element": "C" 
			},
			{
				"x": 0.918892143,
				"y": 0.7456865997,
				"z": -1.0312689746,
				"element": "C" 
			},
			{
				"x": 1.6415650086,
				"y": 1.1379040822,
				"z": -2.1664046857,
				"element": "C" 
			},
			{
				"x": 1.261439679,
				"y": 2.2655451192,
				"z": -2.8971030822,
				"element": "C" 
			},
			{
				"x": 0.1561774791,
				"y": 3.0211732941,
				"z": -2.5051961671,
				"element": "C" 
			},
			{
				"x": -0.571194915,
				"y": 2.6367559467,
				"z": -1.3775845786,
				"element": "C" 
			},
			{
				"x": -0.1952992571,
				"y": 1.5068973063,
				"z": -0.6501438942,
				"element": "C" 
			},
			{
				"x": 2.4862909278,
				"y": -2.027315496,
				"z": -0.6111441438,
				"element": "H" 
			},
			{
				"x": 2.4677892784,
				"y": -0.9810264906,
				"z": 1.5957747318,
				"element": "H" 
			},
			{
				"x": 3.4358436376,
				"y": 1.4606314033,
				"z": -0.0538750202,
				"element": "H" 
			},
			{
				"x": 4.3036600933,
				"y": 0.6683854209,
				"z": 1.3430448662,
				"element": "H" 
			},
			{
				"x": 1.4641964687,
				"y": 1.950057354,
				"z": 1.4079508992,
				"element": "H" 
			},
			{
				"x": 2.286528135,
				"y": 1.1538604164,
				"z": 2.8305058998,
				"element": "H" 
			},
			{
				"x": -0.0417297483,
				"y": -2.2436965635,
				"z": -1.7007507035,
				"element": "H" 
			},
			{
				"x": -2.0200096053,
				"y": -3.6068649431,
				"z": -1.078680402,
				"element": "H" 
			},
			{
				"x": -2.9622608106,
				"y": -3.4558789397,
				"z": 1.2204666907,
				"element": "H" 
			},
			{
				"x": -1.911070446,
				"y": -1.9287253865,
				"z": 2.8787020595,
				"element": "H" 
			},
			{
				"x": 0.0539000668,
				"y": -0.5736519337,
				"z": 2.2490636363,
				"element": "H" 
			},
			{
				"x": 2.4928596857,
				"y": 0.5449819549,
				"z": -2.4780702537,
				"element": "H" 
			},
			{
				"x": 1.8313366858,
				"y": 2.5502467502,
				"z": -3.7774130016,
				"element": "H" 
			},
			{
				"x": -0.1396844134,
				"y": 3.8972808828,
				"z": -3.0753438622,
				"element": "H" 
			},
			{
				"x": -1.4397699171,
				"y": 3.2105573444,
				"z": -1.0664945128,
				"element": "H" 
			},
			{
				"x": -0.7840930972,
				"y": 1.2054591133,
				"z": 0.2103853762,
				"element": "H" 
			}
		],
		 "valence_orbital": [ 
			{
				"type": "occ",
				"energy": -0.27197,
				"method": "rhf"
			},
			{
				"type": "occ",
				"energy": -0.24707,
				"method": "rhf"
			},
			{
				"type": "occ",
				"energy": -0.24485,
				"method": "rhf"
			},
			{
				"type": "occ",
				"energy": -0.24234,
				"method": "rhf"
			},
			{
				"type": "occ",
				"energy": -0.2344,
				"method": "rhf"
			},
			{
				"type": "unocc",
				"energy": -0.00553,
				"method": "rhf"
			},
			{
				"type": "unocc",
				"energy": -0.00103,
				"method": "rhf"
			},
			{
				"type": "unocc",
				"energy": 0.00281,
				"method": "rhf"
			},
			{
				"type": "unocc",
				"energy": 0.00943,
				"method": "rhf"
			},
			{
				"type": "unocc",
				"energy": 0.08146,
				"method": "rhf"
			}
		],
		"cosmo_sigma_profile": { 
			"-0.025": 0.0,
			"-0.024": 0.0,
			"-0.023": 0.0,
			"-0.022": 0.0,
			"-0.021": 0.0,
			"-0.02": 0.0,
			"-0.019": 0.0,
			"-0.018": 0.0,
			"-0.017": 0.0,
			"-0.016": 0.0,
			"-0.015": 0.748448602703,
			"-0.014": 0.765247250462,
			"-0.013": 0.781527115189,
			"-0.012": 1.21941674311,
			"-0.011": 0.683799804143,
			"-0.01": 0.603698173932,
			"-0.009": 0.545910506102,
			"-0.008": 1.37847101251,
			"-0.007": 1.18558427477,
			"-0.006": 5.11277383061,
			"-0.005": 16.0480237977,
			"-0.004": 24.2198246198,
			"-0.003": 28.9485448093,
			"-0.002": 25.9091216816,
			"-0.001": 26.55249212,
			"0.0": 19.7753608659,
			"0.001": 19.0367327031,
			"0.002": 17.5242158632,
			"0.003": 17.1465855098,
			"0.004": 19.4668880896,
			"0.005": 20.7389543424,
			"0.006": 14.7573542525,
			"0.007": 2.76709280395,
			"0.008": 1.57324177537,
			"0.009": 2.29835408297,
			"0.01": 1.84829716539,
			"0.011": 0.589823074239,
			"0.012": 0.492625750093,
			"0.013": 0.0184760603499,
			"0.014": 0.0,
			"0.015": 0.0,
			"0.016": 0.0,
			"0.017": 0.0,
			"0.018": 0.0,
			"0.019": 0.0,
			"0.02": 0.0,
			"0.021": 0.0,
			"0.022": 0.0,
			"0.023": 0.0,
			"0.024": 0.0,
			"0.025": 0.0
		}
	}
}
