{
	 "smiles": "CC1=CC2=C(C=CC=N2)C=C1", 
	 "Tm": 310.95, 
	 "num_atms": 20, 
	 "gaussian": { 
		 "optdone": 1, 
		 "sigma_profile": "yes", 
		 "theory": "DFT", 
		 "functional": "B3LYP", 
		 "basiset": "6-31G**", 
		 "properties": { 
			 "R2extent": 1868.6691, 
			 "electric_dipole_moment_norm": 1.9861623851, 
			 "electric_quadrupole_moment_norm": 8.55107260933, 
			 "total_energy": -441.25336275, 
			 "HOMO_LUMO_gap": 0.17968, 
			 "cosmo_polarized_energy": -6.86, 
			 "cosmo_cavitation_energy": 23.46, 
			 "cosmo_dispersion_energy": -17.61, 
			 "cosmo_repulsion_energy": 1.39, 
			 "cosmo_total_nonelectrostatic_energy": 7.23, 
			 "SMD_solvation_energy": 2.46 
		},
		"coords": [
			{
				"x": 2.2133264791,
				"y": 2.0026583694,
				"z": 0.4713122615,
				"element": "C" 
			},
			{
				"x": 1.048826212,
				"y": 1.09423206,
				"z": 0.1601503366,
				"element": "C" 
			},
			{
				"x": 0.0801998769,
				"y": 0.8114417261,
				"z": 1.101202914,
				"element": "C" 
			},
			{
				"x": -1.0147520648,
				"y": -0.0438141581,
				"z": 0.8057909139,
				"element": "C" 
			},
			{
				"x": -1.1123073893,
				"y": -0.6236678353,
				"z": -0.4987031379,
				"element": "C" 
			},
			{
				"x": -2.2172014963,
				"y": -1.471860507,
				"z": -0.7592200096,
				"element": "C" 
			},
			{
				"x": -3.1383520073,
				"y": -1.7011243126,
				"z": 0.2362790417,
				"element": "C" 
			},
			{
				"x": -2.9478466293,
				"y": -1.076726412,
				"z": 1.4946500058,
				"element": "C" 
			},
			{
				"x": -1.937508668,
				"y": -0.2806837852,
				"z": 1.7848258708,
				"element": "N" 
			},
			{
				"x": -0.1074839466,
				"y": -0.3230979221,
				"z": -1.4565569093,
				"element": "C" 
			},
			{
				"x": 0.9378857048,
				"y": 0.5091057222,
				"z": -1.1347246131,
				"element": "C" 
			},
			{
				"x": 2.2320957902,
				"y": 2.8679771039,
				"z": -0.2018630746,
				"element": "H" 
			},
			{
				"x": 3.1688268602,
				"y": 1.4796887722,
				"z": 0.345560445,
				"element": "H" 
			},
			{
				"x": 2.1661795898,
				"y": 2.3755249384,
				"z": 1.4975556276,
				"element": "H" 
			},
			{
				"x": 0.1239169225,
				"y": 1.2346529742,
				"z": 2.1003332784,
				"element": "H" 
			},
			{
				"x": -2.3221361058,
				"y": -1.929221662,
				"z": -1.7401910194,
				"element": "H" 
			},
			{
				"x": -3.9979757462,
				"y": -2.3442718917,
				"z": 0.0761623475,
				"element": "H" 
			},
			{
				"x": -3.6701055132,
				"y": -1.2497627752,
				"z": 2.2923133693,
				"element": "H" 
			},
			{
				"x": -0.1774881631,
				"y": -0.7614675842,
				"z": -2.4491495953,
				"element": "H" 
			},
			{
				"x": 1.6998002943,
				"y": 0.7302171789,
				"z": -1.878328053,
				"element": "H" 
			}
		],
		 "valence_orbital": [ 
			{
				"type": "occ",
				"energy": -0.3305,
				"method": "rhf"
			},
			{
				"type": "occ",
				"energy": -0.30008,
				"method": "rhf"
			},
			{
				"type": "occ",
				"energy": -0.24903,
				"method": "rhf"
			},
			{
				"type": "occ",
				"energy": -0.24311,
				"method": "rhf"
			},
			{
				"type": "occ",
				"energy": -0.22719,
				"method": "rhf"
			},
			{
				"type": "unocc",
				"energy": -0.04751,
				"method": "rhf"
			},
			{
				"type": "unocc",
				"energy": -0.01294,
				"method": "rhf"
			},
			{
				"type": "unocc",
				"energy": 0.02496,
				"method": "rhf"
			},
			{
				"type": "unocc",
				"energy": 0.08783,
				"method": "rhf"
			},
			{
				"type": "unocc",
				"energy": 0.09896,
				"method": "rhf"
			}
		],
		"cosmo_sigma_profile": { 
			"-0.025": 0.0,
			"-0.024": 0.0,
			"-0.023": 0.0,
			"-0.022": 0.0,
			"-0.021": 0.0,
			"-0.02": 0.0,
			"-0.019": 0.0,
			"-0.018": 0.0,
			"-0.017": 0.0,
			"-0.016": 0.0,
			"-0.015": 0.0,
			"-0.014": 0.0,
			"-0.013": 0.0,
			"-0.012": 0.0,
			"-0.011": 0.0,
			"-0.01": 0.0,
			"-0.009": 0.0,
			"-0.008": 0.00681592096305,
			"-0.007": 3.39644877747,
			"-0.006": 10.9525942264,
			"-0.005": 12.9984988979,
			"-0.004": 18.4516039093,
			"-0.003": 16.916038097,
			"-0.002": 13.4202748022,
			"-0.001": 14.8026107904,
			"0.0": 14.2781003119,
			"0.001": 13.2670549744,
			"0.002": 17.817571846,
			"0.003": 19.1463061862,
			"0.004": 14.1501824966,
			"0.005": 5.43296444573,
			"0.006": 1.9208812241,
			"0.007": 1.49809196598,
			"0.008": 1.31198674244,
			"0.009": 1.33886804778,
			"0.01": 1.30665977936,
			"0.011": 0.924835434296,
			"0.012": 0.756332223358,
			"0.013": 0.644623430994,
			"0.014": 1.19955245969,
			"0.015": 0.621496772236,
			"0.016": 0.827266134026,
			"0.017": 0.291357243225,
			"0.018": 0.0,
			"0.019": 0.0,
			"0.02": 0.0,
			"0.021": 0.0,
			"0.022": 0.0,
			"0.023": 0.0,
			"0.024": 0.0,
			"0.025": 0.0
		}
	}
}
