{
	 "smiles": "NC1=CC=C(C=C1)S(=O)(=O)N=C1CCCCCN1", 
	 "Tm": 389.15, 
	 "num_atms": 35, 
	 "gaussian": { 
		 "optdone": 1, 
		 "sigma_profile": "yes", 
		 "theory": "DFT", 
		 "functional": "B3LYP", 
		 "basiset": "6-31G**", 
		 "properties": { 
			 "R2extent": 6776.5687, 
			 "electric_dipole_moment_norm": 6.39020200072, 
			 "electric_quadrupole_moment_norm": 30.4238746157, 
			 "total_energy": -1180.36230478, 
			 "HOMO_LUMO_gap": 0.19693, 
			 "cosmo_polarized_energy": -23.33, 
			 "cosmo_cavitation_energy": 37.83, 
			 "cosmo_dispersion_energy": -27.87, 
			 "cosmo_repulsion_energy": 2.15, 
			 "cosmo_total_nonelectrostatic_energy": 12.1, 
			 "SMD_solvation_energy": 3.54 
		},
		"coords": [
			{
				"x": -4.1676965024,
				"y": -2.9560036027,
				"z": 1.9430681229,
				"element": "N" 
			},
			{
				"x": -3.5325747557,
				"y": -1.8388374906,
				"z": 1.4193991196,
				"element": "C" 
			},
			{
				"x": -4.0119783852,
				"y": -1.2290989238,
				"z": 0.2425626639,
				"element": "C" 
			},
			{
				"x": -3.4116178588,
				"y": -0.0803975191,
				"z": -0.2536432325,
				"element": "C" 
			},
			{
				"x": -2.3162423749,
				"y": 0.4751503911,
				"z": 0.4145838531,
				"element": "C" 
			},
			{
				"x": -1.8321408183,
				"y": -0.1108053296,
				"z": 1.5856798927,
				"element": "C" 
			},
			{
				"x": -2.435502506,
				"y": -1.2591759465,
				"z": 2.0845716508,
				"element": "C" 
			},
			{
				"x": -1.5536128895,
				"y": 1.9509601449,
				"z": -0.2256878866,
				"element": "S" 
			},
			{
				"x": -2.602831445,
				"y": 2.811955695,
				"z": -0.7868341209,
				"element": "O" 
			},
			{
				"x": -0.6880335411,
				"y": 2.501584764,
				"z": 0.8543078642,
				"element": "O" 
			},
			{
				"x": -0.6527863956,
				"y": 1.3283911222,
				"z": -1.4927785003,
				"element": "N" 
			},
			{
				"x": 0.5450656603,
				"y": 1.7859262744,
				"z": -1.7673013188,
				"element": "C" 
			},
			{
				"x": 1.2342363743,
				"y": 1.1871918335,
				"z": -2.9774416113,
				"element": "C" 
			},
			{
				"x": 2.4730679618,
				"y": 0.3056921012,
				"z": -2.6343276691,
				"element": "C" 
			},
			{
				"x": 3.1345960043,
				"y": 0.5879093213,
				"z": -1.2741492898,
				"element": "C" 
			},
			{
				"x": 3.6483448824,
				"y": 2.0211010368,
				"z": -1.0609906405,
				"element": "C" 
			},
			{
				"x": 2.6052908723,
				"y": 3.1100908473,
				"z": -1.4033042817,
				"element": "C" 
			},
			{
				"x": 1.2302105266,
				"y": 2.7370738384,
				"z": -1.0895168649,
				"element": "N" 
			},
			{
				"x": -3.6258354995,
				"y": -3.5230688996,
				"z": 2.5787626883,
				"element": "H" 
			},
			{
				"x": -4.7189709793,
				"y": -3.5020296895,
				"z": 1.2971010888,
				"element": "H" 
			},
			{
				"x": -4.8674565962,
				"y": -1.658830552,
				"z": -0.2722144728,
				"element": "H" 
			},
			{
				"x": -3.7920603544,
				"y": 0.3944694656,
				"z": -1.1515069153,
				"element": "H" 
			},
			{
				"x": -0.9945834954,
				"y": 0.3443292608,
				"z": 2.1027922694,
				"element": "H" 
			},
			{
				"x": -2.0660241797,
				"y": -1.710607415,
				"z": 3.0017959509,
				"element": "H" 
			},
			{
				"x": 1.5284185233,
				"y": 2.0094222829,
				"z": -3.6397294503,
				"element": "H" 
			},
			{
				"x": 0.4864131176,
				"y": 0.601004989,
				"z": -3.512124456,
				"element": "H" 
			},
			{
				"x": 2.1602512933,
				"y": -0.7437629183,
				"z": -2.6382444954,
				"element": "H" 
			},
			{
				"x": 3.211148184,
				"y": 0.4095868967,
				"z": -3.4387379947,
				"element": "H" 
			},
			{
				"x": 3.9691212641,
				"y": -0.1097034374,
				"z": -1.1376229551,
				"element": "H" 
			},
			{
				"x": 2.4150078113,
				"y": 0.3518962386,
				"z": -0.4812813723,
				"element": "H" 
			},
			{
				"x": 4.5425023584,
				"y": 2.2031161747,
				"z": -1.6708219211,
				"element": "H" 
			},
			{
				"x": 3.9590196569,
				"y": 2.1240339656,
				"z": -0.0146294404,
				"element": "H" 
			},
			{
				"x": 2.6679855748,
				"y": 3.3664581062,
				"z": -2.4658621505,
				"element": "H" 
			},
			{
				"x": 2.8222159118,
				"y": 4.0309238249,
				"z": -0.8554347979,
				"element": "H" 
			},
			{
				"x": 0.8164525996,
				"y": 3.033253149,
				"z": -0.2074393262,
				"element": "H" 
			}
		],
		 "valence_orbital": [ 
			{
				"type": "occ",
				"energy": -0.27744,
				"method": "rhf"
			},
			{
				"type": "occ",
				"energy": -0.2552,
				"method": "rhf"
			},
			{
				"type": "occ",
				"energy": -0.25337,
				"method": "rhf"
			},
			{
				"type": "occ",
				"energy": -0.23874,
				"method": "rhf"
			},
			{
				"type": "occ",
				"energy": -0.20972,
				"method": "rhf"
			},
			{
				"type": "unocc",
				"energy": -0.01279,
				"method": "rhf"
			},
			{
				"type": "unocc",
				"energy": -0.00328,
				"method": "rhf"
			},
			{
				"type": "unocc",
				"energy": 0.0125,
				"method": "rhf"
			},
			{
				"type": "unocc",
				"energy": 0.06716,
				"method": "rhf"
			},
			{
				"type": "unocc",
				"energy": 0.07128,
				"method": "rhf"
			}
		],
		"cosmo_sigma_profile": { 
			"-0.025": 0.0,
			"-0.024": 0.0,
			"-0.023": 0.0,
			"-0.022": 0.0,
			"-0.021": 0.0,
			"-0.02": 0.0,
			"-0.019": 0.0,
			"-0.018": 0.0,
			"-0.017": 0.0,
			"-0.016": 0.0,
			"-0.015": 0.0,
			"-0.014": 0.000847238536224,
			"-0.013": 2.06553791925,
			"-0.012": 3.08733285519,
			"-0.011": 3.7309000781,
			"-0.01": 3.83936579311,
			"-0.009": 3.85971192883,
			"-0.008": 4.28783370832,
			"-0.007": 7.10442858519,
			"-0.006": 13.3814977462,
			"-0.005": 14.9248218195,
			"-0.004": 19.5609186168,
			"-0.003": 31.732489996,
			"-0.002": 31.4450510409,
			"-0.001": 26.0893296538,
			"0.0": 20.6948125371,
			"0.001": 12.2344294811,
			"0.002": 12.0050801138,
			"0.003": 11.1181603347,
			"0.004": 18.2374308139,
			"0.005": 9.19677455744,
			"0.006": 4.60112438748,
			"0.007": 4.91004497606,
			"0.008": 5.07625211915,
			"0.009": 5.1286828607,
			"0.01": 5.69656541162,
			"0.011": 8.0805632045,
			"0.012": 10.4487385883,
			"0.013": 5.2349979184,
			"0.014": 0.0,
			"0.015": 0.0,
			"0.016": 0.0,
			"0.017": 0.0,
			"0.018": 0.0,
			"0.019": 0.0,
			"0.02": 0.0,
			"0.021": 0.0,
			"0.022": 0.0,
			"0.023": 0.0,
			"0.024": 0.0,
			"0.025": 0.0
		}
	}
}
