{
	 "smiles": "CC1=CC=C(NN=C2C(=O)NC3=C(C=CC=C3)N=C2C)C=C1", 
	 "Tm": 452.15, 
	 "num_atms": 38, 
	 "gaussian": { 
		 "optdone": 1, 
		 "sigma_profile": "yes", 
		 "theory": "DFT", 
		 "functional": "B3LYP", 
		 "basiset": "6-31G**", 
		 "properties": { 
			 "R2extent": 9056.9173, 
			 "electric_dipole_moment_norm": 3.84805746709, 
			 "electric_quadrupole_moment_norm": 21.264006531, 
			 "total_energy": -951.6432021, 
			 "HOMO_LUMO_gap": 0.15282, 
			 "cosmo_polarized_energy": -18.5, 
			 "cosmo_cavitation_energy": 41.47, 
			 "cosmo_dispersion_energy": -28.3, 
			 "cosmo_repulsion_energy": 2.16, 
			 "cosmo_total_nonelectrostatic_energy": 15.33, 
			 "SMD_solvation_energy": 5.71 
		},
		"coords": [
			{
				"x": 1.7655192573,
				"y": 2.7371718969,
				"z": -1.4301210588,
				"element": "C" 
			},
			{
				"x": 0.6194391361,
				"y": 1.9800483746,
				"z": -0.8024206556,
				"element": "C" 
			},
			{
				"x": 0.0738607303,
				"y": 2.3762351737,
				"z": 0.4257120075,
				"element": "C" 
			},
			{
				"x": -0.9533061862,
				"y": 1.6525183688,
				"z": 1.0273311651,
				"element": "C" 
			},
			{
				"x": -1.4761979126,
				"y": 0.5156352679,
				"z": 0.3992787138,
				"element": "C" 
			},
			{
				"x": -2.5915924618,
				"y": -0.1292076064,
				"z": 1.0196952154,
				"element": "N" 
			},
			{
				"x": -3.0432009634,
				"y": -1.3881869221,
				"z": 0.85442769,
				"element": "N" 
			},
			{
				"x": -2.2735476511,
				"y": -2.4093459603,
				"z": 0.6622388894,
				"element": "C" 
			},
			{
				"x": -3.0267095275,
				"y": -3.7113903252,
				"z": 0.551499348,
				"element": "C" 
			},
			{
				"x": -4.0020046588,
				"y": -3.9958244792,
				"z": 1.2233966452,
				"element": "O" 
			},
			{
				"x": -2.5087163995,
				"y": -4.6123266202,
				"z": -0.3704805188,
				"element": "N" 
			},
			{
				"x": -1.6410588454,
				"y": -4.3615762762,
				"z": -1.4508494887,
				"element": "C" 
			},
			{
				"x": -0.4617851193,
				"y": -3.5890602774,
				"z": -1.310623852,
				"element": "C" 
			},
			{
				"x": 0.3852066406,
				"y": -3.4534051972,
				"z": -2.4274379174,
				"element": "C" 
			},
			{
				"x": 0.0819338685,
				"y": -4.0360837272,
				"z": -3.6503167253,
				"element": "C" 
			},
			{
				"x": -1.0757989089,
				"y": -4.8120645824,
				"z": -3.7751357836,
				"element": "C" 
			},
			{
				"x": -1.921109839,
				"y": -4.9724955386,
				"z": -2.6839689165,
				"element": "C" 
			},
			{
				"x": -0.0063452058,
				"y": -3.0386205654,
				"z": -0.1097416302,
				"element": "N" 
			},
			{
				"x": -0.7822572573,
				"y": -2.5120583599,
				"z": 0.7682089792,
				"element": "C" 
			},
			{
				"x": -0.1772958838,
				"y": -2.0638409902,
				"z": 2.0773003253,
				"element": "C" 
			},
			{
				"x": -0.95884699,
				"y": 0.1174068503,
				"z": -0.8385672651,
				"element": "C" 
			},
			{
				"x": 0.0803231385,
				"y": 0.8426713778,
				"z": -1.4181739765,
				"element": "C" 
			},
			{
				"x": 1.7619364691,
				"y": 3.7896671004,
				"z": -1.1312938803,
				"element": "H" 
			},
			{
				"x": 1.7216319707,
				"y": 2.6956549753,
				"z": -2.5228121609,
				"element": "H" 
			},
			{
				"x": 2.7330047063,
				"y": 2.3163237392,
				"z": -1.1283910888,
				"element": "H" 
			},
			{
				"x": 0.464163101,
				"y": 3.2588151114,
				"z": 0.9262543249,
				"element": "H" 
			},
			{
				"x": -1.3567577922,
				"y": 1.9650095211,
				"z": 1.9867157329,
				"element": "H" 
			},
			{
				"x": -3.3764181082,
				"y": 0.4891572552,
				"z": 1.1784358316,
				"element": "H" 
			},
			{
				"x": -3.0974705671,
				"y": -5.4330496044,
				"z": -0.452838517,
				"element": "H" 
			},
			{
				"x": 1.2973974949,
				"y": -2.8824389419,
				"z": -2.2869161196,
				"element": "H" 
			},
			{
				"x": 0.7505787045,
				"y": -3.9067619642,
				"z": -4.4957396594,
				"element": "H" 
			},
			{
				"x": -1.318991216,
				"y": -5.2912352696,
				"z": -4.7185660186,
				"element": "H" 
			},
			{
				"x": -2.8249200268,
				"y": -5.5695291379,
				"z": -2.7770468055,
				"element": "H" 
			},
			{
				"x": 0.9104949392,
				"y": -2.1057397103,
				"z": 2.0044248501,
				"element": "H" 
			},
			{
				"x": -0.4926358137,
				"y": -1.05399866,
				"z": 2.3505526557,
				"element": "H" 
			},
			{
				"x": -0.5082273598,
				"y": -2.7328828885,
				"z": 2.8814303443,
				"element": "H" 
			},
			{
				"x": -1.372541189,
				"y": -0.739996261,
				"z": -1.3564480733,
				"element": "H" 
			},
			{
				"x": 0.4696457265,
				"y": 0.521004853,
				"z": -2.3809126066,
				"element": "H" 
			}
		],
		 "valence_orbital": [ 
			{
				"type": "occ",
				"energy": -0.25962,
				"method": "rhf"
			},
			{
				"type": "occ",
				"energy": -0.25658,
				"method": "rhf"
			},
			{
				"type": "occ",
				"energy": -0.23391,
				"method": "rhf"
			},
			{
				"type": "occ",
				"energy": -0.22159,
				"method": "rhf"
			},
			{
				"type": "occ",
				"energy": -0.20868,
				"method": "rhf"
			},
			{
				"type": "unocc",
				"energy": -0.05586,
				"method": "rhf"
			},
			{
				"type": "unocc",
				"energy": -0.02686,
				"method": "rhf"
			},
			{
				"type": "unocc",
				"energy": -0.00981,
				"method": "rhf"
			},
			{
				"type": "unocc",
				"energy": -0.00826,
				"method": "rhf"
			},
			{
				"type": "unocc",
				"energy": 6e-05,
				"method": "rhf"
			}
		],
		"cosmo_sigma_profile": { 
			"-0.025": 0.0,
			"-0.024": 0.0,
			"-0.023": 0.0,
			"-0.022": 0.0,
			"-0.021": 0.0,
			"-0.02": 0.0,
			"-0.019": 0.0,
			"-0.018": 0.0,
			"-0.017": 0.0,
			"-0.016": 0.0,
			"-0.015": 1.0359210448,
			"-0.014": 2.28751534538,
			"-0.013": 2.4920657559,
			"-0.012": 1.99545280379,
			"-0.011": 2.405692822,
			"-0.01": 2.21385513823,
			"-0.009": 2.09541672904,
			"-0.008": 2.35668861929,
			"-0.007": 4.09149673201,
			"-0.006": 13.0713994078,
			"-0.005": 20.2340910626,
			"-0.004": 27.7158748696,
			"-0.003": 27.589251914,
			"-0.002": 27.3118767596,
			"-0.001": 29.1767424848,
			"0.0": 29.1578467949,
			"0.001": 20.1754339388,
			"0.002": 19.8267478592,
			"0.003": 18.1666736994,
			"0.004": 21.3149168116,
			"0.005": 19.5715196346,
			"0.006": 4.42740857987,
			"0.007": 3.54655174383,
			"0.008": 2.41902860466,
			"0.009": 3.36346993279,
			"0.01": 2.6118243333,
			"0.011": 3.63204210461,
			"0.012": 5.81813167004,
			"0.013": 5.4911141147,
			"0.014": 3.04859989369,
			"0.015": 1.56885871058,
			"0.016": 0.180385816531,
			"0.017": 0.0,
			"0.018": 0.0,
			"0.019": 0.0,
			"0.02": 0.0,
			"0.021": 0.0,
			"0.022": 0.0,
			"0.023": 0.0,
			"0.024": 0.0,
			"0.025": 0.0
		}
	}
}
