{
	 "smiles": "CCC(C)OC(=O)C1=C2N(OC3=CC=CN=C23)C(Cl)C(Cl)C1Cl", 
	 "Tm": 370.15, 
	 "num_atms": 38, 
	 "gaussian": { 
		 "optdone": 1, 
		 "sigma_profile": "yes", 
		 "theory": "DFT", 
		 "functional": "B3LYP", 
		 "basiset": "6-31G**", 
		 "properties": { 
			 "R2extent": 11154.8611, 
			 "electric_dipole_moment_norm": 5.21008246576, 
			 "electric_quadrupole_moment_norm": 32.0002054047, 
			 "total_energy": -2296.32878678, 
			 "HOMO_LUMO_gap": 0.14155, 
			 "cosmo_polarized_energy": -21.07, 
			 "cosmo_cavitation_energy": 45.88, 
			 "cosmo_dispersion_energy": -31.34, 
			 "cosmo_repulsion_energy": 2.41, 
			 "cosmo_total_nonelectrostatic_energy": 16.95, 
			 "SMD_solvation_energy": 6.38 
		},
		"coords": [
			{
				"x": -2.281578757,
				"y": 0.8888872285,
				"z": 2.5863703667,
				"element": "C" 
			},
			{
				"x": -0.8595346199,
				"y": 0.7217813529,
				"z": 3.1294346322,
				"element": "C" 
			},
			{
				"x": -0.0301647206,
				"y": -0.3194617318,
				"z": 2.380073807,
				"element": "C" 
			},
			{
				"x": 1.3595953199,
				"y": -0.5334228962,
				"z": 2.9705976178,
				"element": "C" 
			},
			{
				"x": 0.0998935652,
				"y": 0.167718517,
				"z": 1.0119351246,
				"element": "O" 
			},
			{
				"x": 0.283457554,
				"y": -0.7617372395,
				"z": 0.0380450736,
				"element": "C" 
			},
			{
				"x": 0.2880929094,
				"y": -1.9574358715,
				"z": 0.237135019,
				"element": "O" 
			},
			{
				"x": 0.4880610449,
				"y": -0.093926828,
				"z": -1.2734181873,
				"element": "C" 
			},
			{
				"x": 0.1908610696,
				"y": -0.7035399387,
				"z": -2.4594714397,
				"element": "C" 
			},
			{
				"x": 0.3464484711,
				"y": -0.007469612,
				"z": -3.6684977295,
				"element": "N" 
			},
			{
				"x": 0.2372471469,
				"y": -0.8736919898,
				"z": -4.7976655668,
				"element": "O" 
			},
			{
				"x": -0.262868941,
				"y": -2.0271835847,
				"z": -4.2798101171,
				"element": "C" 
			},
			{
				"x": -0.6717916314,
				"y": -3.1325516979,
				"z": -5.0143578365,
				"element": "C" 
			},
			{
				"x": -1.185256765,
				"y": -4.184428005,
				"z": -4.2589669858,
				"element": "C" 
			},
			{
				"x": -1.2769100869,
				"y": -4.0692919807,
				"z": -2.860690019,
				"element": "C" 
			},
			{
				"x": -0.876223859,
				"y": -3.0008629849,
				"z": -2.1681921458,
				"element": "N" 
			},
			{
				"x": -0.3595325783,
				"y": -2.0002936174,
				"z": -2.8815501195,
				"element": "C" 
			},
			{
				"x": 1.2479188544,
				"y": 1.0694650505,
				"z": -3.8420302941,
				"element": "C" 
			},
			{
				"x": 2.9955089961,
				"y": 0.537824822,
				"z": -4.0462620523,
				"element": "Cl" 
			},
			{
				"x": 0.9840191491,
				"y": 1.9767548495,
				"z": -2.6259459813,
				"element": "C" 
			},
			{
				"x": 1.8819473286,
				"y": 3.5245886494,
				"z": -2.7493683362,
				"element": "Cl" 
			},
			{
				"x": 1.1105436046,
				"y": 1.278652762,
				"z": -1.2628415202,
				"element": "C" 
			},
			{
				"x": 2.8536014229,
				"y": 1.178892242,
				"z": -0.651168975,
				"element": "Cl" 
			},
			{
				"x": -2.8331117144,
				"y": 1.6442685732,
				"z": 3.1547114457,
				"element": "H" 
			},
			{
				"x": -2.2652956163,
				"y": 1.199298447,
				"z": 1.537773326,
				"element": "H" 
			},
			{
				"x": -2.8418176028,
				"y": -0.0509035524,
				"z": 2.648018371,
				"element": "H" 
			},
			{
				"x": -0.8956917409,
				"y": 0.4175519853,
				"z": 4.1829245006,
				"element": "H" 
			},
			{
				"x": -0.3274684679,
				"y": 1.681271531,
				"z": 3.100673434,
				"element": "H" 
			},
			{
				"x": -0.5643662069,
				"y": -1.2737886569,
				"z": 2.334380471,
				"element": "H" 
			},
			{
				"x": 1.9091857897,
				"y": -1.2803826358,
				"z": 2.3935201863,
				"element": "H" 
			},
			{
				"x": 1.9289637339,
				"y": 0.4011950962,
				"z": 2.968539144,
				"element": "H" 
			},
			{
				"x": 1.2783897259,
				"y": -0.8896299652,
				"z": 4.0028716391,
				"element": "H" 
			},
			{
				"x": -0.5961583807,
				"y": -3.1640645781,
				"z": -6.095238658,
				"element": "H" 
			},
			{
				"x": -1.5268747744,
				"y": -5.0916210188,
				"z": -4.7467629497,
				"element": "H" 
			},
			{
				"x": -1.6981623342,
				"y": -4.8844161462,
				"z": -2.2773783022,
				"element": "H" 
			},
			{
				"x": 1.01606185,
				"y": 1.5923018479,
				"z": -4.7688359502,
				"element": "H" 
			},
			{
				"x": -0.0719964455,
				"y": 2.252332558,
				"z": -2.7142026337,
				"element": "H" 
			},
			{
				"x": 0.6349077069,
				"y": 1.9043190193,
				"z": -0.5103483586,
				"element": "H" 
			}
		],
		 "valence_orbital": [ 
			{
				"type": "occ",
				"energy": -0.28779,
				"method": "rhf"
			},
			{
				"type": "occ",
				"energy": -0.28127,
				"method": "rhf"
			},
			{
				"type": "occ",
				"energy": -0.27876,
				"method": "rhf"
			},
			{
				"type": "occ",
				"energy": -0.2569,
				"method": "rhf"
			},
			{
				"type": "occ",
				"energy": -0.22298,
				"method": "rhf"
			},
			{
				"type": "unocc",
				"energy": -0.08143,
				"method": "rhf"
			},
			{
				"type": "unocc",
				"energy": -0.03085,
				"method": "rhf"
			},
			{
				"type": "unocc",
				"energy": -0.01472,
				"method": "rhf"
			},
			{
				"type": "unocc",
				"energy": -0.00527,
				"method": "rhf"
			},
			{
				"type": "unocc",
				"energy": 0.00983,
				"method": "rhf"
			}
		],
		"cosmo_sigma_profile": { 
			"-0.025": 0.0,
			"-0.024": 0.0,
			"-0.023": 0.0,
			"-0.022": 0.0,
			"-0.021": 0.0,
			"-0.02": 0.0,
			"-0.019": 0.0,
			"-0.018": 0.0,
			"-0.017": 0.0,
			"-0.016": 0.0,
			"-0.015": 0.0,
			"-0.014": 0.0,
			"-0.013": 0.0,
			"-0.012": 0.893205397306,
			"-0.011": 5.84181813892,
			"-0.01": 4.94001164596,
			"-0.009": 6.13154527996,
			"-0.008": 9.63854959843,
			"-0.007": 10.3789805864,
			"-0.006": 8.34256407726,
			"-0.005": 8.16187246143,
			"-0.004": 18.317177618,
			"-0.003": 30.486101954,
			"-0.002": 31.9329101455,
			"-0.001": 35.7754496654,
			"0.0": 41.0998939895,
			"0.001": 33.3846070987,
			"0.002": 19.6561961619,
			"0.003": 20.4925723332,
			"0.004": 24.3104974876,
			"0.005": 19.6276483543,
			"0.006": 11.7383849882,
			"0.007": 10.1812204595,
			"0.008": 2.94041667927,
			"0.009": 1.60336146363,
			"0.01": 2.13023790839,
			"0.011": 1.81141301299,
			"0.012": 2.5217767558,
			"0.013": 2.68426645185,
			"0.014": 1.67040737979,
			"0.015": 1.71108592748,
			"0.016": 0.986270060159,
			"0.017": 0.720021040762,
			"0.018": 0.0152726203699,
			"0.019": 0.0,
			"0.02": 0.0,
			"0.021": 0.0,
			"0.022": 0.0,
			"0.023": 0.0,
			"0.024": 0.0,
			"0.025": 0.0
		}
	}
}
