{
	 "smiles": "BrC1=C2OCCCOC2=CC(C=O)=C1", 
	 "Tm": 347.15, 
	 "num_atms": 23, 
	 "gaussian": { 
		 "optdone": 1, 
		 "sigma_profile": "yes", 
		 "theory": "DFT", 
		 "functional": "B3LYP", 
		 "basiset": "6-31G**", 
		 "properties": { 
			 "R2extent": 5739.1597, 
			 "electric_dipole_moment_norm": 4.08114938467, 
			 "electric_quadrupole_moment_norm": 9.84467621306, 
			 "total_energy": -3183.52998388, 
			 "HOMO_LUMO_gap": 0.17266, 
			 "cosmo_polarized_energy": -10.75, 
			 "cosmo_cavitation_energy": 28.82, 
			 "cosmo_dispersion_energy": -21.69, 
			 "cosmo_repulsion_energy": 1.71, 
			 "cosmo_total_nonelectrostatic_energy": 8.84, 
			 "SMD_solvation_energy": 5.02 
		},
		"coords": [
			{
				"x": 0.6350449317,
				"y": -1.9461667103,
				"z": 4.2203780158,
				"element": "Br" 
			},
			{
				"x": -0.1768511498,
				"y": -1.1364674539,
				"z": 2.6980577557,
				"element": "C" 
			},
			{
				"x": 0.6147748129,
				"y": -0.3697327908,
				"z": 1.8256535917,
				"element": "C" 
			},
			{
				"x": 1.9387183053,
				"y": -0.2434022296,
				"z": 2.1086671727,
				"element": "O" 
			},
			{
				"x": 2.5694494856,
				"y": 1.0115316175,
				"z": 1.787401478,
				"element": "C" 
			},
			{
				"x": 3.0681492505,
				"y": 1.0359169,
				"z": 0.3440279219,
				"element": "C" 
			},
			{
				"x": 1.999318405,
				"y": 0.4735348865,
				"z": -0.595083384,
				"element": "C" 
			},
			{
				"x": 0.6899763372,
				"y": 0.9480803308,
				"z": -0.2403633314,
				"element": "O" 
			},
			{
				"x": -0.003215078,
				"y": 0.2091219567,
				"z": 0.6855689454,
				"element": "C" 
			},
			{
				"x": -1.3690616112,
				"y": 0.0572357648,
				"z": 0.4831092715,
				"element": "C" 
			},
			{
				"x": -2.1435642122,
				"y": -0.6872586735,
				"z": 1.3805576595,
				"element": "C" 
			},
			{
				"x": -3.5952337817,
				"y": -0.8515285627,
				"z": 1.1546288758,
				"element": "C" 
			},
			{
				"x": -4.209414459,
				"y": -0.3639502815,
				"z": 0.2245611868,
				"element": "O" 
			},
			{
				"x": -1.5391231843,
				"y": -1.3015653248,
				"z": 2.4827871148,
				"element": "C" 
			},
			{
				"x": 1.861661782,
				"y": 1.8267353099,
				"z": 1.9687176488,
				"element": "H" 
			},
			{
				"x": 3.3938621869,
				"y": 1.1076530388,
				"z": 2.4978195394,
				"element": "H" 
			},
			{
				"x": 3.3145837419,
				"y": 2.0708308103,
				"z": 0.0798873839,
				"element": "H" 
			},
			{
				"x": 3.9832670842,
				"y": 0.4424210589,
				"z": 0.2371555224,
				"element": "H" 
			},
			{
				"x": 2.0058545445,
				"y": -0.6220076202,
				"z": -0.5794344652,
				"element": "H" 
			},
			{
				"x": 2.1632759689,
				"y": 0.7996833316,
				"z": -1.6253602221,
				"element": "H" 
			},
			{
				"x": -1.83394014,
				"y": 0.5071734388,
				"z": -0.3871624719,
				"element": "H" 
			},
			{
				"x": -4.112308153,
				"y": -1.4739728289,
				"z": 1.9184544037,
				"element": "H" 
			},
			{
				"x": -2.1281250676,
				"y": -1.8918659684,
				"z": 3.1770703867,
				"element": "H" 
			}
		],
		 "valence_orbital": [ 
			{
				"type": "occ",
				"energy": -0.3002,
				"method": "rhf"
			},
			{
				"type": "occ",
				"energy": -0.28723,
				"method": "rhf"
			},
			{
				"type": "occ",
				"energy": -0.25547,
				"method": "rhf"
			},
			{
				"type": "occ",
				"energy": -0.2437,
				"method": "rhf"
			},
			{
				"type": "occ",
				"energy": -0.23518,
				"method": "rhf"
			},
			{
				"type": "unocc",
				"energy": -0.06252,
				"method": "rhf"
			},
			{
				"type": "unocc",
				"energy": -0.01767,
				"method": "rhf"
			},
			{
				"type": "unocc",
				"energy": 0.00102,
				"method": "rhf"
			},
			{
				"type": "unocc",
				"energy": 0.03788,
				"method": "rhf"
			},
			{
				"type": "unocc",
				"energy": 0.0686,
				"method": "rhf"
			}
		],
		"cosmo_sigma_profile": { 
			"-0.025": 0.0,
			"-0.024": 0.0,
			"-0.023": 0.0,
			"-0.022": 0.0,
			"-0.021": 0.0,
			"-0.02": 0.0,
			"-0.019": 0.0,
			"-0.018": 0.0,
			"-0.017": 0.0,
			"-0.016": 0.0,
			"-0.015": 0.0,
			"-0.014": 0.0,
			"-0.013": 0.0,
			"-0.012": 0.0,
			"-0.011": 0.0,
			"-0.01": 0.0,
			"-0.009": 0.597580522438,
			"-0.008": 3.07988366999,
			"-0.007": 4.96171469789,
			"-0.006": 13.3837818317,
			"-0.005": 23.1242321011,
			"-0.004": 24.3916450948,
			"-0.003": 18.7761592584,
			"-0.002": 14.2566123028,
			"-0.001": 12.9380762771,
			"0.0": 16.1321206817,
			"0.001": 20.5567673638,
			"0.002": 18.297432273,
			"0.003": 9.74729018072,
			"0.004": 14.2224590202,
			"0.005": 8.19959926415,
			"0.006": 3.54949424422,
			"0.007": 4.74574630105,
			"0.008": 4.41117437508,
			"0.009": 4.80179249772,
			"0.01": 4.45408230365,
			"0.011": 4.60540407501,
			"0.012": 2.88017324572,
			"0.013": 0.710739725783,
			"0.014": 0.0,
			"0.015": 0.0,
			"0.016": 0.0,
			"0.017": 0.0,
			"0.018": 0.0,
			"0.019": 0.0,
			"0.02": 0.0,
			"0.021": 0.0,
			"0.022": 0.0,
			"0.023": 0.0,
			"0.024": 0.0,
			"0.025": 0.0
		}
	}
}
