{
	 "smiles": "COC1=C(F)C(F)=C(N)C(F)=C1F", 
	 "Tm": 352.15, 
	 "num_atms": 18, 
	 "gaussian": { 
		 "optdone": 1, 
		 "sigma_profile": "yes", 
		 "theory": "DFT", 
		 "functional": "B3LYP", 
		 "basiset": "6-31G**", 
		 "properties": { 
			 "R2extent": 3086.0924, 
			 "electric_dipole_moment_norm": 1.44689044851, 
			 "electric_quadrupole_moment_norm": 13.4960517823, 
			 "total_energy": -799.025970767, 
			 "HOMO_LUMO_gap": 0.21336, 
			 "cosmo_polarized_energy": -7.89, 
			 "cosmo_cavitation_energy": 24.5, 
			 "cosmo_dispersion_energy": -17.5, 
			 "cosmo_repulsion_energy": 1.32, 
			 "cosmo_total_nonelectrostatic_energy": 8.31, 
			 "SMD_solvation_energy": 6.87 
		},
		"coords": [
			{
				"x": 1.1269082365,
				"y": -1.846466119,
				"z": -1.857814511,
				"element": "C" 
			},
			{
				"x": 0.9518361742,
				"y": -0.6431640554,
				"z": -1.0981014504,
				"element": "O" 
			},
			{
				"x": -0.333038633,
				"y": -0.3686481589,
				"z": -0.7270864307,
				"element": "C" 
			},
			{
				"x": -1.0284193905,
				"y": -1.1362492462,
				"z": 0.2157640483,
				"element": "C" 
			},
			{
				"x": -0.4440047834,
				"y": -2.2247121726,
				"z": 0.7474777451,
				"element": "F" 
			},
			{
				"x": -2.3158265362,
				"y": -0.7987096996,
				"z": 0.6126453975,
				"element": "C" 
			},
			{
				"x": -2.9577045124,
				"y": -1.5536315392,
				"z": 1.5316719234,
				"element": "F" 
			},
			{
				"x": -2.9698652054,
				"y": 0.3314335893,
				"z": 0.1079955884,
				"element": "C" 
			},
			{
				"x": -4.2749793557,
				"y": 0.6366274015,
				"z": 0.4654309721,
				"element": "N" 
			},
			{
				"x": -2.264233699,
				"y": 1.1013662833,
				"z": -0.8234863262,
				"element": "C" 
			},
			{
				"x": -2.8606318594,
				"y": 2.2082552088,
				"z": -1.3191103943,
				"element": "F" 
			},
			{
				"x": -0.9826773409,
				"y": 0.7604448077,
				"z": -1.2403792929,
				"element": "C" 
			},
			{
				"x": -0.3625721182,
				"y": 1.5332379659,
				"z": -2.1419886629,
				"element": "F" 
			},
			{
				"x": 0.5449651528,
				"y": -1.8115762496,
				"z": -2.7865926335,
				"element": "H" 
			},
			{
				"x": 0.8400553639,
				"y": -2.7285237922,
				"z": -1.2768606826,
				"element": "H" 
			},
			{
				"x": 2.1902159354,
				"y": -1.8982138015,
				"z": -2.0976860626,
				"element": "H" 
			},
			{
				"x": -4.5630800952,
				"y": 0.2629374775,
				"z": 1.3586772348,
				"element": "H" 
			},
			{
				"x": -4.5306473336,
				"y": 1.6041921001,
				"z": 0.3276435375,
				"element": "H" 
			}
		],
		 "valence_orbital": [ 
			{
				"type": "occ",
				"energy": -0.35838,
				"method": "rhf"
			},
			{
				"type": "occ",
				"energy": -0.31071,
				"method": "rhf"
			},
			{
				"type": "occ",
				"energy": -0.28688,
				"method": "rhf"
			},
			{
				"type": "occ",
				"energy": -0.24336,
				"method": "rhf"
			},
			{
				"type": "occ",
				"energy": -0.21535,
				"method": "rhf"
			},
			{
				"type": "unocc",
				"energy": -0.00199,
				"method": "rhf"
			},
			{
				"type": "unocc",
				"energy": -0.00029,
				"method": "rhf"
			},
			{
				"type": "unocc",
				"energy": 0.02308,
				"method": "rhf"
			},
			{
				"type": "unocc",
				"energy": 0.08478,
				"method": "rhf"
			},
			{
				"type": "unocc",
				"energy": 0.11086,
				"method": "rhf"
			}
		],
		"cosmo_sigma_profile": { 
			"-0.025": 0.0,
			"-0.024": 0.0,
			"-0.023": 0.0,
			"-0.022": 0.0,
			"-0.021": 0.0,
			"-0.02": 0.0,
			"-0.019": 0.0,
			"-0.018": 0.0,
			"-0.017": 0.0,
			"-0.016": 0.0,
			"-0.015": 0.0,
			"-0.014": 0.143962086415,
			"-0.013": 1.58017310013,
			"-0.012": 2.13515800183,
			"-0.011": 2.28991583401,
			"-0.01": 2.28572491089,
			"-0.009": 2.34246909033,
			"-0.008": 1.96380267901,
			"-0.007": 2.29771684104,
			"-0.006": 4.72619590796,
			"-0.005": 8.17489558736,
			"-0.004": 10.4329877509,
			"-0.003": 13.2392455262,
			"-0.002": 11.8404088486,
			"-0.001": 23.5029380078,
			"0.0": 15.8789943692,
			"0.001": 12.0720518631,
			"0.002": 14.1029774027,
			"0.003": 31.3120332692,
			"0.004": 18.671906935,
			"0.005": 3.92316490862,
			"0.006": 2.51939003812,
			"0.007": 2.05287242517,
			"0.008": 2.40356638029,
			"0.009": 2.53796370652,
			"0.01": 1.95366975315,
			"0.011": 1.325496894,
			"0.012": 0.625475427349,
			"0.013": 0.262024546143,
			"0.014": 0.0,
			"0.015": 0.0,
			"0.016": 0.0,
			"0.017": 0.0,
			"0.018": 0.0,
			"0.019": 0.0,
			"0.02": 0.0,
			"0.021": 0.0,
			"0.022": 0.0,
			"0.023": 0.0,
			"0.024": 0.0,
			"0.025": 0.0
		}
	}
}
