{
	 "smiles": "ClC1=C2N=CC(Br)=CC2=NC=C1", 
	 "Tm": 456.15, 
	 "num_atms": 16, 
	 "gaussian": { 
		 "optdone": 1, 
		 "sigma_profile": "yes", 
		 "theory": "DFT", 
		 "functional": "B3LYP", 
		 "basiset": "6-31G**", 
		 "properties": { 
			 "R2extent": 5726.1136, 
			 "electric_dipole_moment_norm": 1.32472146506, 
			 "electric_quadrupole_moment_norm": 7.52969699855, 
			 "total_energy": -3448.35589902, 
			 "HOMO_LUMO_gap": 0.1744, 
			 "cosmo_polarized_energy": -7.36, 
			 "cosmo_cavitation_energy": 24.99, 
			 "cosmo_dispersion_energy": -19.36, 
			 "cosmo_repulsion_energy": 1.52, 
			 "cosmo_total_nonelectrostatic_energy": 7.15, 
			 "SMD_solvation_energy": 0.1 
		},
		"coords": [
			{
				"x": -2.3623364398,
				"y": -0.086659452,
				"z": 1.6499439725,
				"element": "Cl" 
			},
			{
				"x": -1.0534747447,
				"y": 0.0307812095,
				"z": 0.5120373218,
				"element": "C" 
			},
			{
				"x": -0.3813914498,
				"y": -1.1467589834,
				"z": 0.0709185837,
				"element": "C" 
			},
			{
				"x": -0.7489961679,
				"y": -2.3708040835,
				"z": 0.5282264646,
				"element": "N" 
			},
			{
				"x": -0.0975523044,
				"y": -3.4252130024,
				"z": 0.0903591194,
				"element": "C" 
			},
			{
				"x": 0.972989568,
				"y": -3.3412078628,
				"z": -0.8391748133,
				"element": "C" 
			},
			{
				"x": 1.833381209,
				"y": -4.9460531107,
				"z": -1.3937798583,
				"element": "Br" 
			},
			{
				"x": 1.3681142303,
				"y": -2.1186828079,
				"z": -1.3197375111,
				"element": "C" 
			},
			{
				"x": 0.6845478419,
				"y": -0.9597431252,
				"z": -0.8663436525,
				"element": "C" 
			},
			{
				"x": 1.0733837708,
				"y": 0.2552629836,
				"z": -1.3408300026,
				"element": "N" 
			},
			{
				"x": 0.4153348835,
				"y": 1.3076193456,
				"z": -0.897327264,
				"element": "C" 
			},
			{
				"x": -0.655379206,
				"y": 1.2562087024,
				"z": 0.0283100437,
				"element": "C" 
			},
			{
				"x": -0.4057949103,
				"y": -4.3975490101,
				"z": 0.4675341049,
				"element": "H" 
			},
			{
				"x": 2.1784557112,
				"y": -2.001144915,
				"z": -2.0295267918,
				"element": "H" 
			},
			{
				"x": 0.7316072043,
				"y": 2.2763437639,
				"z": -1.2810485867,
				"element": "H" 
			},
			{
				"x": -1.1489891962,
				"y": 2.1670003478,
				"z": 0.3469388696,
				"element": "H" 
			}
		],
		 "valence_orbital": [ 
			{
				"type": "occ",
				"energy": -0.30207,
				"method": "rhf"
			},
			{
				"type": "occ",
				"energy": -0.29814,
				"method": "rhf"
			},
			{
				"type": "occ",
				"energy": -0.2713,
				"method": "rhf"
			},
			{
				"type": "occ",
				"energy": -0.26317,
				"method": "rhf"
			},
			{
				"type": "occ",
				"energy": -0.2595,
				"method": "rhf"
			},
			{
				"type": "unocc",
				"energy": -0.0851,
				"method": "rhf"
			},
			{
				"type": "unocc",
				"energy": -0.04451,
				"method": "rhf"
			},
			{
				"type": "unocc",
				"energy": -0.01244,
				"method": "rhf"
			},
			{
				"type": "unocc",
				"energy": -0.00658,
				"method": "rhf"
			},
			{
				"type": "unocc",
				"energy": 0.02206,
				"method": "rhf"
			}
		],
		"cosmo_sigma_profile": { 
			"-0.025": 0.0,
			"-0.024": 0.0,
			"-0.023": 0.0,
			"-0.022": 0.0,
			"-0.021": 0.0,
			"-0.02": 0.0,
			"-0.019": 0.0,
			"-0.018": 0.0,
			"-0.017": 0.0,
			"-0.016": 0.0,
			"-0.015": 0.0,
			"-0.014": 0.0,
			"-0.013": 0.0,
			"-0.012": 0.0,
			"-0.011": 0.0,
			"-0.01": 0.0,
			"-0.009": 2.05816717767,
			"-0.008": 7.25537643112,
			"-0.007": 7.02274069129,
			"-0.006": 7.22353450749,
			"-0.005": 7.9870847758,
			"-0.004": 7.45516476896,
			"-0.003": 13.8373480356,
			"-0.002": 22.1057690782,
			"-0.001": 26.9438368128,
			"0.0": 23.0577740348,
			"0.001": 13.0539354327,
			"0.002": 13.6772190827,
			"0.003": 21.376143394,
			"0.004": 13.1876093747,
			"0.005": 3.77577516058,
			"0.006": 2.78846488832,
			"0.007": 1.56175711572,
			"0.008": 2.00097484591,
			"0.009": 3.24587483739,
			"0.01": 2.36645169095,
			"0.011": 1.78597502991,
			"0.012": 1.87119121014,
			"0.013": 1.16786376605,
			"0.014": 1.13370166763,
			"0.015": 0.335560197736,
			"0.016": 0.0,
			"0.017": 0.0,
			"0.018": 0.0,
			"0.019": 0.0,
			"0.02": 0.0,
			"0.021": 0.0,
			"0.022": 0.0,
			"0.023": 0.0,
			"0.024": 0.0,
			"0.025": 0.0
		}
	}
}
