{
	 "smiles": "COC(=O)C1=C(OC)C2=C(C=CC=C2)C(Cl)=N1", 
	 "Tm": 377.15, 
	 "num_atms": 27, 
	 "gaussian": { 
		 "optdone": 1, 
		 "sigma_profile": "yes", 
		 "theory": "DFT", 
		 "functional": "B3LYP", 
		 "basiset": "6-31G**", 
		 "properties": { 
			 "R2extent": 5108.0374, 
			 "electric_dipole_moment_norm": 2.87170045966, 
			 "electric_quadrupole_moment_norm": 14.3030190544, 
			 "total_energy": -1203.91242713, 
			 "HOMO_LUMO_gap": 0.16598, 
			 "cosmo_polarized_energy": -11.91, 
			 "cosmo_cavitation_energy": 33.13, 
			 "cosmo_dispersion_energy": -24.24, 
			 "cosmo_repulsion_energy": 1.88, 
			 "cosmo_total_nonelectrostatic_energy": 10.77, 
			 "SMD_solvation_energy": 6.33 
		},
		"coords": [
			{
				"x": 0.7399426148,
				"y": 1.3233237754,
				"z": -4.6542657412,
				"element": "C" 
			},
			{
				"x": 1.0298817436,
				"y": 0.8872768384,
				"z": -3.3175939065,
				"element": "O" 
			},
			{
				"x": 0.0944020441,
				"y": 0.1005209393,
				"z": -2.7600135267,
				"element": "C" 
			},
			{
				"x": -0.919225506,
				"y": -0.2456387235,
				"z": -3.3376052045,
				"element": "O" 
			},
			{
				"x": 0.4649519346,
				"y": -0.2917213729,
				"z": -1.3607196277,
				"element": "C" 
			},
			{
				"x": -0.0226373903,
				"y": -1.4470878621,
				"z": -0.7625107976,
				"element": "C" 
			},
			{
				"x": -0.8395330189,
				"y": -2.3374448222,
				"z": -1.3935468848,
				"element": "O" 
			},
			{
				"x": -2.2490746129,
				"y": -2.0530185012,
				"z": -1.3427554486,
				"element": "C" 
			},
			{
				"x": 0.4226787983,
				"y": -1.7776654625,
				"z": 0.55818204,
				"element": "C" 
			},
			{
				"x": 1.3158277981,
				"y": -0.8912141063,
				"z": 1.2329807102,
				"element": "C" 
			},
			{
				"x": 1.7515469633,
				"y": -1.2080062594,
				"z": 2.5420799938,
				"element": "C" 
			},
			{
				"x": 1.3205280773,
				"y": -2.3660556321,
				"z": 3.1539293047,
				"element": "C" 
			},
			{
				"x": 0.4473503334,
				"y": -3.2522614468,
				"z": 2.4819002111,
				"element": "C" 
			},
			{
				"x": 0.0070580754,
				"y": -2.9676345851,
				"z": 1.2077157813,
				"element": "C" 
			},
			{
				"x": 1.707746728,
				"y": 0.2692022359,
				"z": 0.4931116727,
				"element": "C" 
			},
			{
				"x": 2.8024179368,
				"y": 1.4351110123,
				"z": 1.2540149194,
				"element": "Cl" 
			},
			{
				"x": 1.3291492163,
				"y": 0.5420837547,
				"z": -0.7116970384,
				"element": "N" 
			},
			{
				"x": -0.1921306744,
				"y": 1.8936743508,
				"z": -4.6801554728,
				"element": "H" 
			},
			{
				"x": 1.5821032446,
				"y": 1.9509128671,
				"z": -4.9445009701,
				"element": "H" 
			},
			{
				"x": 0.6467596164,
				"y": 0.4674464062,
				"z": -5.327857257,
				"element": "H" 
			},
			{
				"x": -2.4689852517,
				"y": -1.1283802586,
				"z": -1.8784584355,
				"element": "H" 
			},
			{
				"x": -2.5938215399,
				"y": -1.9941695004,
				"z": -0.3030836769,
				"element": "H" 
			},
			{
				"x": -2.7373803029,
				"y": -2.891761605,
				"z": -1.8413015619,
				"element": "H" 
			},
			{
				"x": 2.4282557733,
				"y": -0.5313059167,
				"z": 3.0500861443,
				"element": "H" 
			},
			{
				"x": 1.6589591832,
				"y": -2.6037646647,
				"z": 4.1578648258,
				"element": "H" 
			},
			{
				"x": 0.1267756736,
				"y": -4.1656004792,
				"z": 2.9742262252,
				"element": "H" 
			},
			{
				"x": -0.647247458,
				"y": -3.6461209817,
				"z": 0.6731737218,
				"element": "H" 
			}
		],
		 "valence_orbital": [ 
			{
				"type": "occ",
				"energy": -0.28863,
				"method": "rhf"
			},
			{
				"type": "occ",
				"energy": -0.28285,
				"method": "rhf"
			},
			{
				"type": "occ",
				"energy": -0.27811,
				"method": "rhf"
			},
			{
				"type": "occ",
				"energy": -0.26055,
				"method": "rhf"
			},
			{
				"type": "occ",
				"energy": -0.23508,
				"method": "rhf"
			},
			{
				"type": "unocc",
				"energy": -0.0691,
				"method": "rhf"
			},
			{
				"type": "unocc",
				"energy": -0.05368,
				"method": "rhf"
			},
			{
				"type": "unocc",
				"energy": 0.00763,
				"method": "rhf"
			},
			{
				"type": "unocc",
				"energy": 0.02715,
				"method": "rhf"
			},
			{
				"type": "unocc",
				"energy": 0.0347,
				"method": "rhf"
			}
		],
		"cosmo_sigma_profile": { 
			"-0.025": 0.0,
			"-0.024": 0.0,
			"-0.023": 0.0,
			"-0.022": 0.0,
			"-0.021": 0.0,
			"-0.02": 0.0,
			"-0.019": 0.0,
			"-0.018": 0.0,
			"-0.017": 0.0,
			"-0.016": 0.0,
			"-0.015": 0.0,
			"-0.014": 0.0,
			"-0.013": 0.0,
			"-0.012": 0.0,
			"-0.011": 0.0,
			"-0.01": 0.0,
			"-0.009": 0.0,
			"-0.008": 0.396336465906,
			"-0.007": 5.73496009901,
			"-0.006": 15.7266798345,
			"-0.005": 19.5670811691,
			"-0.004": 23.0500446378,
			"-0.003": 29.0572735131,
			"-0.002": 26.6927898338,
			"-0.001": 21.5726472165,
			"0.0": 20.1667409169,
			"0.001": 20.6808038431,
			"0.002": 19.6971294079,
			"0.003": 13.7449421487,
			"0.004": 11.0636739264,
			"0.005": 6.99641337996,
			"0.006": 4.95826353698,
			"0.007": 5.36619815848,
			"0.008": 4.18921342567,
			"0.009": 3.950663929,
			"0.01": 5.8265203081,
			"0.011": 4.42947973607,
			"0.012": 2.53335214983,
			"0.013": 0.827134459991,
			"0.014": 0.806751375173,
			"0.015": 0.987367329283,
			"0.016": 0.0276995107682,
			"0.017": 0.0,
			"0.018": 0.0,
			"0.019": 0.0,
			"0.02": 0.0,
			"0.021": 0.0,
			"0.022": 0.0,
			"0.023": 0.0,
			"0.024": 0.0,
			"0.025": 0.0
		}
	}
}
