{
	 "smiles": "CCC(C)NC(=O)C1=CC(C)=C(N)C=C1", 
	 "Tm": 397.15, 
	 "num_atms": 33, 
	 "gaussian": { 
		 "optdone": 1, 
		 "sigma_profile": "yes", 
		 "theory": "DFT", 
		 "functional": "B3LYP", 
		 "basiset": "6-31G**", 
		 "properties": { 
			 "R2extent": 5046.8763, 
			 "electric_dipole_moment_norm": 4.88733919633, 
			 "electric_quadrupole_moment_norm": 20.3771046788, 
			 "total_energy": -652.896399206, 
			 "HOMO_LUMO_gap": 0.18951, 
			 "cosmo_polarized_energy": -16.82, 
			 "cosmo_cavitation_energy": 34.83, 
			 "cosmo_dispersion_energy": -25.12, 
			 "cosmo_repulsion_energy": 1.99, 
			 "cosmo_total_nonelectrostatic_energy": 11.71, 
			 "SMD_solvation_energy": 5.91 
		},
		"coords": [
			{
				"x": -4.6449558642,
				"y": 1.4541659925,
				"z": -1.014187959,
				"element": "C" 
			},
			{
				"x": -3.1740132054,
				"y": 1.043532049,
				"z": -1.1412000212,
				"element": "C" 
			},
			{
				"x": -2.5124599122,
				"y": 0.6777545331,
				"z": 0.2026719614,
				"element": "C" 
			},
			{
				"x": -2.4247093611,
				"y": 1.8548548758,
				"z": 1.1871273032,
				"element": "C" 
			},
			{
				"x": -1.1956106243,
				"y": 0.0525592413,
				"z": -0.0138580395,
				"element": "N" 
			},
			{
				"x": -0.1206698204,
				"y": 0.6979106611,
				"z": -0.5704952791,
				"element": "C" 
			},
			{
				"x": -0.1871094714,
				"y": 1.8524628741,
				"z": -0.9962215398,
				"element": "O" 
			},
			{
				"x": 1.1562086469,
				"y": -0.0849674118,
				"z": -0.6363511992,
				"element": "C" 
			},
			{
				"x": 1.2299203751,
				"y": -1.4834640275,
				"z": -0.5543022448,
				"element": "C" 
			},
			{
				"x": 2.439721739,
				"y": -2.1731723533,
				"z": -0.6256463469,
				"element": "C" 
			},
			{
				"x": 2.4872689114,
				"y": -3.6798083877,
				"z": -0.5638547804,
				"element": "C" 
			},
			{
				"x": 3.6343512494,
				"y": -1.4302401325,
				"z": -0.7824029228,
				"element": "C" 
			},
			{
				"x": 4.8570154119,
				"y": -2.0848279449,
				"z": -0.9043618859,
				"element": "N" 
			},
			{
				"x": 3.5659247382,
				"y": -0.0292228076,
				"z": -0.8824274958,
				"element": "C" 
			},
			{
				"x": 2.3470917414,
				"y": 0.6295159909,
				"z": -0.8204477714,
				"element": "C" 
			},
			{
				"x": -5.2386470676,
				"y": 0.6791247954,
				"z": -0.5136958461,
				"element": "H" 
			},
			{
				"x": -5.0847898589,
				"y": 1.6173802167,
				"z": -2.003246072,
				"element": "H" 
			},
			{
				"x": -4.7663483764,
				"y": 2.3829017232,
				"z": -0.4478114914,
				"element": "H" 
			},
			{
				"x": -3.0963941883,
				"y": 0.1679183493,
				"z": -1.7971270608,
				"element": "H" 
			},
			{
				"x": -2.5918148772,
				"y": 1.8409492165,
				"z": -1.6109636721,
				"element": "H" 
			},
			{
				"x": -3.1215776282,
				"y": -0.1115188668,
				"z": 0.6637622774,
				"element": "H" 
			},
			{
				"x": -1.8152207401,
				"y": 2.6547600585,
				"z": 0.7617278086,
				"element": "H" 
			},
			{
				"x": -1.9676936233,
				"y": 1.533111491,
				"z": 2.1287401332,
				"element": "H" 
			},
			{
				"x": -3.419622036,
				"y": 2.2484485279,
				"z": 1.4158033984,
				"element": "H" 
			},
			{
				"x": -1.0002053003,
				"y": -0.7828213988,
				"z": 0.5155456585,
				"element": "H" 
			},
			{
				"x": 0.3189795663,
				"y": -2.0720465731,
				"z": -0.4719604074,
				"element": "H" 
			},
			{
				"x": 2.9801692038,
				"y": -4.103305752,
				"z": -1.4478663617,
				"element": "H" 
			},
			{
				"x": 1.4813338021,
				"y": -4.1032399722,
				"z": -0.5064169632,
				"element": "H" 
			},
			{
				"x": 3.0396099849,
				"y": -4.0408768397,
				"z": 0.3159436222,
				"element": "H" 
			},
			{
				"x": 5.6736561921,
				"y": -1.507847604,
				"z": -0.7603819818,
				"element": "H" 
			},
			{
				"x": 4.9333432421,
				"y": -2.9825829635,
				"z": -0.4486183129,
				"element": "H" 
			},
			{
				"x": 4.4844727827,
				"y": 0.5378297767,
				"z": -1.0155449142,
				"element": "H" 
			},
			{
				"x": 2.2900743679,
				"y": 1.7090626624,
				"z": -0.9092315932,
				"element": "H" 
			}
		],
		 "valence_orbital": [ 
			{
				"type": "occ",
				"energy": -0.30349,
				"method": "rhf"
			},
			{
				"type": "occ",
				"energy": -0.24544,
				"method": "rhf"
			},
			{
				"type": "occ",
				"energy": -0.24034,
				"method": "rhf"
			},
			{
				"type": "occ",
				"energy": -0.23084,
				"method": "rhf"
			},
			{
				"type": "occ",
				"energy": -0.2039,
				"method": "rhf"
			},
			{
				"type": "unocc",
				"energy": -0.01439,
				"method": "rhf"
			},
			{
				"type": "unocc",
				"energy": 0.00312,
				"method": "rhf"
			},
			{
				"type": "unocc",
				"energy": 0.06844,
				"method": "rhf"
			},
			{
				"type": "unocc",
				"energy": 0.07443,
				"method": "rhf"
			},
			{
				"type": "unocc",
				"energy": 0.08191,
				"method": "rhf"
			}
		],
		"cosmo_sigma_profile": { 
			"-0.025": 0.0,
			"-0.024": 0.0,
			"-0.023": 0.0,
			"-0.022": 0.0,
			"-0.021": 0.0,
			"-0.02": 0.0,
			"-0.019": 0.0,
			"-0.018": 0.0,
			"-0.017": 0.0,
			"-0.016": 0.0,
			"-0.015": 0.0,
			"-0.014": 0.134841605692,
			"-0.013": 1.41623130756,
			"-0.012": 3.64021733727,
			"-0.011": 2.98509868376,
			"-0.01": 4.70570037183,
			"-0.009": 4.4314255038,
			"-0.008": 4.37322013678,
			"-0.007": 5.17549227835,
			"-0.006": 5.0971856944,
			"-0.005": 8.75724858979,
			"-0.004": 14.3372705392,
			"-0.003": 20.9870762656,
			"-0.002": 24.1543615116,
			"-0.001": 26.7374053225,
			"0.0": 29.784808397,
			"0.001": 29.1244992307,
			"0.002": 17.6537467306,
			"0.003": 11.4580909218,
			"0.004": 10.7261511693,
			"0.005": 12.6911137666,
			"0.006": 10.8315219692,
			"0.007": 3.42836831751,
			"0.008": 2.57886111849,
			"0.009": 2.43895098367,
			"0.01": 2.71055882996,
			"0.011": 2.07146670225,
			"0.012": 2.66309754615,
			"0.013": 2.03249068589,
			"0.014": 3.40698273385,
			"0.015": 1.91463119762,
			"0.016": 0.00167204028463,
			"0.017": 0.0,
			"0.018": 0.0,
			"0.019": 0.0,
			"0.02": 0.0,
			"0.021": 0.0,
			"0.022": 0.0,
			"0.023": 0.0,
			"0.024": 0.0,
			"0.025": 0.0
		}
	}
}
