{
	 "smiles": "OC1=C(C=O)C=C(Br)C=C1[N+]([O-])=O", 
	 "Tm": 399.15, 
	 "num_atms": 17, 
	 "gaussian": { 
		 "optdone": 1, 
		 "sigma_profile": "yes", 
		 "theory": "DFT", 
		 "functional": "B3LYP", 
		 "basiset": "6-31G**", 
		 "properties": { 
			 "R2extent": 5055.2036, 
			 "electric_dipole_moment_norm": 4.92764768323, 
			 "electric_quadrupole_moment_norm": 14.4270675964, 
			 "total_energy": -3196.09038807, 
			 "HOMO_LUMO_gap": 0.14837, 
			 "cosmo_polarized_energy": -13.5, 
			 "cosmo_cavitation_energy": 25.19, 
			 "cosmo_dispersion_energy": -19.11, 
			 "cosmo_repulsion_energy": 1.5, 
			 "cosmo_total_nonelectrostatic_energy": 7.57, 
			 "SMD_solvation_energy": 6.73 
		},
		"coords": [
			{
				"x": 0.3031541146,
				"y": 2.5978019223,
				"z": -0.5148916783,
				"element": "O" 
			},
			{
				"x": 0.0925632716,
				"y": 1.6660363111,
				"z": 0.4004289099,
				"element": "C" 
			},
			{
				"x": -0.2376201167,
				"y": 0.3283942768,
				"z": 0.022895149,
				"element": "C" 
			},
			{
				"x": -0.329099777,
				"y": -0.0142202859,
				"z": -1.3929744188,
				"element": "C" 
			},
			{
				"x": -0.1473846052,
				"y": 0.7901616748,
				"z": -2.3081864037,
				"element": "O" 
			},
			{
				"x": -0.4795770325,
				"y": -0.6598226117,
				"z": 0.9863050916,
				"element": "C" 
			},
			{
				"x": -0.4148115333,
				"y": -0.3493702401,
				"z": 2.3366215876,
				"element": "C" 
			},
			{
				"x": -0.7461780909,
				"y": -1.6887777074,
				"z": 3.6480546777,
				"element": "Br" 
			},
			{
				"x": -0.1071389832,
				"y": 0.9503380707,
				"z": 2.7335647314,
				"element": "C" 
			},
			{
				"x": 0.1528135876,
				"y": 1.9399076623,
				"z": 1.7884692871,
				"element": "C" 
			},
			{
				"x": 0.490725572,
				"y": 3.2749218069,
				"z": 2.308271083,
				"element": "N" 
			},
			{
				"x": 1.0439139928,
				"y": 4.0651816659,
				"z": 1.5528418218,
				"element": "O" 
			},
			{
				"x": 0.2053155156,
				"y": 3.501594251,
				"z": 3.4861407841,
				"element": "O" 
			},
			{
				"x": 0.183756073,
				"y": 2.1671430499,
				"z": -1.4035931951,
				"element": "H" 
			},
			{
				"x": -0.5793329096,
				"y": -1.0660843312,
				"z": -1.6250349596,
				"element": "H" 
			},
			{
				"x": -0.7217077731,
				"y": -1.6682002991,
				"z": 0.6646119105,
				"element": "H" 
			},
			{
				"x": -0.0636913059,
				"y": 1.2248947836,
				"z": 3.7796756217,
				"element": "H" 
			}
		],
		 "valence_orbital": [ 
			{
				"type": "occ",
				"energy": -0.31371,
				"method": "rhf"
			},
			{
				"type": "occ",
				"energy": -0.31209,
				"method": "rhf"
			},
			{
				"type": "occ",
				"energy": -0.2996,
				"method": "rhf"
			},
			{
				"type": "occ",
				"energy": -0.29208,
				"method": "rhf"
			},
			{
				"type": "occ",
				"energy": -0.25922,
				"method": "rhf"
			},
			{
				"type": "unocc",
				"energy": -0.11085,
				"method": "rhf"
			},
			{
				"type": "unocc",
				"energy": -0.08595,
				"method": "rhf"
			},
			{
				"type": "unocc",
				"energy": -0.02688,
				"method": "rhf"
			},
			{
				"type": "unocc",
				"energy": -0.01982,
				"method": "rhf"
			},
			{
				"type": "unocc",
				"energy": 0.00524,
				"method": "rhf"
			}
		],
		"cosmo_sigma_profile": { 
			"-0.025": 0.0,
			"-0.024": 0.0,
			"-0.023": 0.0,
			"-0.022": 0.0,
			"-0.021": 0.0,
			"-0.02": 0.0,
			"-0.019": 0.0,
			"-0.018": 0.0,
			"-0.017": 0.0,
			"-0.016": 0.0,
			"-0.015": 0.0,
			"-0.014": 0.0,
			"-0.013": 0.0,
			"-0.012": 0.260851247888,
			"-0.011": 1.94583686713,
			"-0.01": 3.20102579883,
			"-0.009": 4.66783709836,
			"-0.008": 5.49496787663,
			"-0.007": 7.63249959448,
			"-0.006": 10.7051595658,
			"-0.005": 13.189695636,
			"-0.004": 14.7201337505,
			"-0.003": 14.785880085,
			"-0.002": 15.2129255358,
			"-0.001": 17.2315101734,
			"0.0": 9.31740717505,
			"0.001": 8.24569356434,
			"0.002": 10.3491018568,
			"0.003": 13.2264337547,
			"0.004": 10.0140960016,
			"0.005": 5.29501522224,
			"0.006": 5.47440339028,
			"0.007": 9.75692054218,
			"0.008": 10.2505429329,
			"0.009": 7.46441935445,
			"0.01": 4.73595925042,
			"0.011": 2.55315148678,
			"0.012": 1.06756171639,
			"0.013": 0.0663647751312,
			"0.014": 0.0,
			"0.015": 0.0,
			"0.016": 0.0,
			"0.017": 0.0,
			"0.018": 0.0,
			"0.019": 0.0,
			"0.02": 0.0,
			"0.021": 0.0,
			"0.022": 0.0,
			"0.023": 0.0,
			"0.024": 0.0,
			"0.025": 0.0
		}
	}
}
