{
	 "smiles": "CC(C)OC1=CC=C2C(=O)C(=COC2=C1)C1=CC=CC=C1", 
	 "Tm": 388.15, 
	 "num_atms": 37, 
	 "gaussian": { 
		 "optdone": 1, 
		 "sigma_profile": "yes", 
		 "theory": "DFT", 
		 "functional": "B3LYP", 
		 "basiset": "6-31G**", 
		 "properties": { 
			 "R2extent": 9447.0651, 
			 "electric_dipole_moment_norm": 4.91472330961, 
			 "electric_quadrupole_moment_norm": 15.4624271458, 
			 "total_energy": -921.232839523, 
			 "HOMO_LUMO_gap": 0.17259, 
			 "cosmo_polarized_energy": -13.12, 
			 "cosmo_cavitation_energy": 40.56, 
			 "cosmo_dispersion_energy": -29.49, 
			 "cosmo_repulsion_energy": 2.23, 
			 "cosmo_total_nonelectrostatic_energy": 13.3, 
			 "SMD_solvation_energy": 8.11 
		},
		"coords": [
			{
				"x": -3.8478084375,
				"y": -1.0853283402,
				"z": -3.505567083,
				"element": "C" 
			},
			{
				"x": -4.3541751535,
				"y": -1.2958237305,
				"z": -2.0789449001,
				"element": "C" 
			},
			{
				"x": -5.7789763805,
				"y": -1.8349066684,
				"z": -2.0323608292,
				"element": "C" 
			},
			{
				"x": -3.5451879898,
				"y": -2.2794964331,
				"z": -1.3984374544,
				"element": "O" 
			},
			{
				"x": -2.3457760999,
				"y": -1.9470765798,
				"z": -0.861247036,
				"element": "C" 
			},
			{
				"x": -1.6512625877,
				"y": -3.0157253299,
				"z": -0.2445031632,
				"element": "C" 
			},
			{
				"x": -0.4276480109,
				"y": -2.7977879265,
				"z": 0.3514029946,
				"element": "C" 
			},
			{
				"x": 0.158833504,
				"y": -1.5157464167,
				"z": 0.3633937807,
				"element": "C" 
			},
			{
				"x": 1.4680446133,
				"y": -1.2778839189,
				"z": 0.9977056888,
				"element": "C" 
			},
			{
				"x": 2.117688195,
				"y": -2.1871561193,
				"z": 1.5154730838,
				"element": "O" 
			},
			{
				"x": 1.9193523733,
				"y": 0.133665421,
				"z": 0.9557086723,
				"element": "C" 
			},
			{
				"x": 1.1512500681,
				"y": 1.0408288601,
				"z": 0.3018625416,
				"element": "C" 
			},
			{
				"x": -0.0405296776,
				"y": 0.794490898,
				"z": -0.2928958409,
				"element": "O" 
			},
			{
				"x": -0.5466319728,
				"y": -0.4780892272,
				"z": -0.2530661614,
				"element": "C" 
			},
			{
				"x": -1.7879976639,
				"y": -0.6677213744,
				"z": -0.8697176577,
				"element": "C" 
			},
			{
				"x": 3.180632814,
				"y": 0.5688064661,
				"z": 1.6032473107,
				"element": "C" 
			},
			{
				"x": 4.3312589259,
				"y": -0.2388174261,
				"z": 1.5727388791,
				"element": "C" 
			},
			{
				"x": 5.5202953272,
				"y": 0.2034474651,
				"z": 2.1505174745,
				"element": "C" 
			},
			{
				"x": 5.5870269616,
				"y": 1.4519040383,
				"z": 2.7723385226,
				"element": "C" 
			},
			{
				"x": 4.4474915529,
				"y": 2.2561587431,
				"z": 2.8224066963,
				"element": "C" 
			},
			{
				"x": 3.2553217807,
				"y": 1.8149301412,
				"z": 2.2501791086,
				"element": "C" 
			},
			{
				"x": -2.8091311123,
				"y": -0.7451432768,
				"z": -3.520192771,
				"element": "H" 
			},
			{
				"x": -3.9081191211,
				"y": -2.0230970537,
				"z": -4.0664897852,
				"element": "H" 
			},
			{
				"x": -4.4593363551,
				"y": -0.3360091014,
				"z": -4.0183117886,
				"element": "H" 
			},
			{
				"x": -4.3100011917,
				"y": -0.3541876611,
				"z": -1.5161721205,
				"element": "H" 
			},
			{
				"x": -6.4649063757,
				"y": -1.1351780815,
				"z": -2.5191451361,
				"element": "H" 
			},
			{
				"x": -6.1033902362,
				"y": -1.9792437213,
				"z": -0.9985090188,
				"element": "H" 
			},
			{
				"x": -5.8394239805,
				"y": -2.7968081054,
				"z": -2.5506531069,
				"element": "H" 
			},
			{
				"x": -2.1126396283,
				"y": -3.997181913,
				"z": -0.2557713938,
				"element": "H" 
			},
			{
				"x": 0.1205492604,
				"y": -3.6027557032,
				"z": 0.8293095512,
				"element": "H" 
			},
			{
				"x": 1.4292080904,
				"y": 2.0809184632,
				"z": 0.1774701692,
				"element": "H" 
			},
			{
				"x": -2.2683335381,
				"y": 0.1834221057,
				"z": -1.3334308859,
				"element": "H" 
			},
			{
				"x": 4.281492619,
				"y": -1.2140838423,
				"z": 1.1059165642,
				"element": "H" 
			},
			{
				"x": 6.3998873177,
				"y": -0.4331996485,
				"z": 2.1146263118,
				"element": "H" 
			},
			{
				"x": 6.5153642076,
				"y": 1.7900827541,
				"z": 3.2238347,
				"element": "H" 
			},
			{
				"x": 4.4807604876,
				"y": 3.2215203534,
				"z": 3.3196846088,
				"element": "H" 
			},
			{
				"x": 2.3644174144,
				"y": 2.4320718902,
				"z": 2.3280994739,
				"element": "H" 
			}
		],
		 "valence_orbital": [ 
			{
				"type": "occ",
				"energy": -0.2563,
				"method": "rhf"
			},
			{
				"type": "occ",
				"energy": -0.24628,
				"method": "rhf"
			},
			{
				"type": "occ",
				"energy": -0.23552,
				"method": "rhf"
			},
			{
				"type": "occ",
				"energy": -0.23076,
				"method": "rhf"
			},
			{
				"type": "occ",
				"energy": -0.22012,
				"method": "rhf"
			},
			{
				"type": "unocc",
				"energy": -0.04753,
				"method": "rhf"
			},
			{
				"type": "unocc",
				"energy": -0.02553,
				"method": "rhf"
			},
			{
				"type": "unocc",
				"energy": -0.00199,
				"method": "rhf"
			},
			{
				"type": "unocc",
				"energy": 0.00532,
				"method": "rhf"
			},
			{
				"type": "unocc",
				"energy": 0.02195,
				"method": "rhf"
			}
		],
		"cosmo_sigma_profile": { 
			"-0.025": 0.0,
			"-0.024": 0.0,
			"-0.023": 0.0,
			"-0.022": 0.0,
			"-0.021": 0.0,
			"-0.02": 0.0,
			"-0.019": 0.0,
			"-0.018": 0.0,
			"-0.017": 0.0,
			"-0.016": 0.0,
			"-0.015": 0.0,
			"-0.014": 0.0,
			"-0.013": 0.0,
			"-0.012": 0.0,
			"-0.011": 0.0,
			"-0.01": 0.476930073329,
			"-0.009": 1.89721471819,
			"-0.008": 3.96975262269,
			"-0.007": 4.28237751056,
			"-0.006": 11.8487524033,
			"-0.005": 17.34024418,
			"-0.004": 30.0191002932,
			"-0.003": 31.8542810742,
			"-0.002": 26.9965116716,
			"-0.001": 29.9982058912,
			"0.0": 32.2637648137,
			"0.001": 28.5393193988,
			"0.002": 25.6801096614,
			"0.003": 18.6404782601,
			"0.004": 14.8021686279,
			"0.005": 13.9457190624,
			"0.006": 9.90344744136,
			"0.007": 4.02472756241,
			"0.008": 3.2379340787,
			"0.009": 2.33319751984,
			"0.01": 1.92553418243,
			"0.011": 2.22418272377,
			"0.012": 2.66154628578,
			"0.013": 3.94503714445,
			"0.014": 0.999188358501,
			"0.015": 0.0,
			"0.016": 0.0,
			"0.017": 0.0,
			"0.018": 0.0,
			"0.019": 0.0,
			"0.02": 0.0,
			"0.021": 0.0,
			"0.022": 0.0,
			"0.023": 0.0,
			"0.024": 0.0,
			"0.025": 0.0
		}
	}
}
