{
	 "smiles": "CCCCCCCCCC(Cl)=O", 
	 "Tm": 238.35, 
	 "num_atms": 31, 
	 "gaussian": { 
		 "optdone": 1, 
		 "sigma_profile": "yes", 
		 "theory": "DFT", 
		 "functional": "B3LYP", 
		 "basiset": "6-31G**", 
		 "properties": { 
			 "R2extent": 6193.5589, 
			 "electric_dipole_moment_norm": 3.46853488522, 
			 "electric_quadrupole_moment_norm": 17.194868538, 
			 "total_energy": -927.964159799, 
			 "HOMO_LUMO_gap": 0.25916, 
			 "cosmo_polarized_energy": -5.61, 
			 "cosmo_cavitation_energy": 34.45, 
			 "cosmo_dispersion_energy": -24.15, 
			 "cosmo_repulsion_energy": 2.01, 
			 "cosmo_total_nonelectrostatic_energy": 12.31, 
			 "SMD_solvation_energy": 5.54 
		},
		"coords": [
			{
				"x": 3.236541993,
				"y": -1.7375616825,
				"z": -1.5505870896,
				"element": "C" 
			},
			{
				"x": 3.2999013904,
				"y": -0.2969553377,
				"z": -2.072847578,
				"element": "C" 
			},
			{
				"x": 2.0769671782,
				"y": 0.5651368499,
				"z": -1.7173972116,
				"element": "C" 
			},
			{
				"x": 0.7725555576,
				"y": 0.1277675412,
				"z": -2.4050978665,
				"element": "C" 
			},
			{
				"x": -0.450741308,
				"y": 1.0302092917,
				"z": -2.1233850761,
				"element": "C" 
			},
			{
				"x": -1.3605548074,
				"y": 0.5956623268,
				"z": -0.9592422484,
				"element": "C" 
			},
			{
				"x": -0.7111170727,
				"y": 0.6014947424,
				"z": 0.4324381824,
				"element": "C" 
			},
			{
				"x": -1.6587026974,
				"y": 0.2070949035,
				"z": 1.578219265,
				"element": "C" 
			},
			{
				"x": -2.7634595479,
				"y": 1.237548181,
				"z": 1.8405470891,
				"element": "C" 
			},
			{
				"x": -3.644323163,
				"y": 0.8624396211,
				"z": 3.005464674,
				"element": "C" 
			},
			{
				"x": -4.9481303089,
				"y": 2.1259596295,
				"z": 3.3090199303,
				"element": "Cl" 
			},
			{
				"x": -3.5823553213,
				"y": -0.1017576029,
				"z": 3.6962524536,
				"element": "O" 
			},
			{
				"x": 4.153734819,
				"y": -2.2847351365,
				"z": -1.7920383546,
				"element": "H" 
			},
			{
				"x": 3.1171390614,
				"y": -1.7568494984,
				"z": -0.4607697096,
				"element": "H" 
			},
			{
				"x": 2.4002171486,
				"y": -2.2949320487,
				"z": -1.9848596534,
				"element": "H" 
			},
			{
				"x": 4.1984773075,
				"y": 0.1871632404,
				"z": -1.6694981758,
				"element": "H" 
			},
			{
				"x": 3.4271879868,
				"y": -0.3091201426,
				"z": -3.1642711705,
				"element": "H" 
			},
			{
				"x": 1.95069765,
				"y": 0.5738251244,
				"z": -0.6270294654,
				"element": "H" 
			},
			{
				"x": 2.2838379145,
				"y": 1.6053618397,
				"z": -2.0038432438,
				"element": "H" 
			},
			{
				"x": 0.5266551719,
				"y": -0.9071794355,
				"z": -2.1323968158,
				"element": "H" 
			},
			{
				"x": 0.9579226021,
				"y": 0.1121770039,
				"z": -3.4874582133,
				"element": "H" 
			},
			{
				"x": -1.0754321498,
				"y": 1.0665831618,
				"z": -3.0242562303,
				"element": "H" 
			},
			{
				"x": -0.1122933022,
				"y": 2.0625393412,
				"z": -1.9558331704,
				"element": "H" 
			},
			{
				"x": -1.7445139662,
				"y": -0.413882229,
				"z": -1.1654274779,
				"element": "H" 
			},
			{
				"x": -2.2379463027,
				"y": 1.256120043,
				"z": -0.9573493614,
				"element": "H" 
			},
			{
				"x": -0.2835571244,
				"y": 1.5938701995,
				"z": 0.6359092115,
				"element": "H" 
			},
			{
				"x": 0.131118393,
				"y": -0.0992147203,
				"z": 0.4417231759,
				"element": "H" 
			},
			{
				"x": -2.1173003413,
				"y": -0.7657843124,
				"z": 1.3647202136,
				"element": "H" 
			},
			{
				"x": -1.0814826103,
				"y": 0.0736529208,
				"z": 2.4995472372,
				"element": "H" 
			},
			{
				"x": -3.4211750896,
				"y": 1.3762386576,
				"z": 0.9749129308,
				"element": "H" 
			},
			{
				"x": -2.3478690607,
				"y": 2.2307275269,
				"z": 2.0534337489,
				"element": "H" 
			}
		],
		 "valence_orbital": [ 
			{
				"type": "occ",
				"energy": -0.31805,
				"method": "rhf"
			},
			{
				"type": "occ",
				"energy": -0.31598,
				"method": "rhf"
			},
			{
				"type": "occ",
				"energy": -0.31018,
				"method": "rhf"
			},
			{
				"type": "occ",
				"energy": -0.30619,
				"method": "rhf"
			},
			{
				"type": "occ",
				"energy": -0.29528,
				"method": "rhf"
			},
			{
				"type": "unocc",
				"energy": -0.03612,
				"method": "rhf"
			},
			{
				"type": "unocc",
				"energy": 0.01786,
				"method": "rhf"
			},
			{
				"type": "unocc",
				"energy": 0.07393,
				"method": "rhf"
			},
			{
				"type": "unocc",
				"energy": 0.086,
				"method": "rhf"
			},
			{
				"type": "unocc",
				"energy": 0.09644,
				"method": "rhf"
			}
		],
		"cosmo_sigma_profile": { 
			"-0.025": 0.0,
			"-0.024": 0.0,
			"-0.023": 0.0,
			"-0.022": 0.0,
			"-0.021": 0.0,
			"-0.02": 0.0,
			"-0.019": 0.0,
			"-0.018": 0.0,
			"-0.017": 0.0,
			"-0.016": 0.0,
			"-0.015": 0.0,
			"-0.014": 0.0,
			"-0.013": 0.0,
			"-0.012": 0.0,
			"-0.011": 0.0,
			"-0.01": 0.0,
			"-0.009": 0.0,
			"-0.008": 0.418191092227,
			"-0.007": 5.14078618872,
			"-0.006": 5.75623518646,
			"-0.005": 6.73739474907,
			"-0.004": 9.24472065639,
			"-0.003": 13.5085685269,
			"-0.002": 33.6438411376,
			"-0.001": 48.0607059126,
			"0.0": 46.6327454531,
			"0.001": 38.6472937946,
			"0.002": 18.0246316913,
			"0.003": 7.284113449,
			"0.004": 9.93373672601,
			"0.005": 10.6262768013,
			"0.006": 4.72972372053,
			"0.007": 3.10342299143,
			"0.008": 4.67066645472,
			"0.009": 2.5057113617,
			"0.01": 0.0538775253489,
			"0.011": 0.0,
			"0.012": 0.0,
			"0.013": 0.0,
			"0.014": 0.0,
			"0.015": 0.0,
			"0.016": 0.0,
			"0.017": 0.0,
			"0.018": 0.0,
			"0.019": 0.0,
			"0.02": 0.0,
			"0.021": 0.0,
			"0.022": 0.0,
			"0.023": 0.0,
			"0.024": 0.0,
			"0.025": 0.0
		}
	}
}
