{
	 "smiles": "CSC(SC)=NC1=NC=CS1", 
	 "Tm": 467.15, 
	 "num_atms": 19, 
	 "gaussian": { 
		 "optdone": 1, 
		 "sigma_profile": "yes", 
		 "theory": "DFT", 
		 "functional": "B3LYP", 
		 "basiset": "6-31G**", 
		 "properties": { 
			 "R2extent": 4198.9412, 
			 "electric_dipole_moment_norm": 1.75283751957, 
			 "electric_quadrupole_moment_norm": 9.83832793975, 
			 "total_energy": -1537.49974435, 
			 "HOMO_LUMO_gap": 0.15647, 
			 "cosmo_polarized_energy": -7.75, 
			 "cosmo_cavitation_energy": 27.75, 
			 "cosmo_dispersion_energy": -21.32, 
			 "cosmo_repulsion_energy": 1.59, 
			 "cosmo_total_nonelectrostatic_energy": 8.02, 
			 "SMD_solvation_energy": 3.75 
		},
		"coords": [
			{
				"x": -2.5535516396,
				"y": 0.4027870763,
				"z": 0.2992056566,
				"element": "C" 
			},
			{
				"x": -3.0241918093,
				"y": 0.5154314577,
				"z": -1.4627154026,
				"element": "S" 
			},
			{
				"x": -1.5115998838,
				"y": 0.9716495597,
				"z": -2.2964274579,
				"element": "C" 
			},
			{
				"x": -1.9326173775,
				"y": 2.08057996,
				"z": -3.6193518139,
				"element": "S" 
			},
			{
				"x": -0.4140333051,
				"y": 2.0302671094,
				"z": -4.6290828659,
				"element": "C" 
			},
			{
				"x": -0.2832590358,
				"y": 0.6530503257,
				"z": -2.1112288756,
				"element": "N" 
			},
			{
				"x": 0.2456103964,
				"y": -0.3409513603,
				"z": -1.336908168,
				"element": "C" 
			},
			{
				"x": -0.330677778,
				"y": -1.3921468644,
				"z": -0.8024823623,
				"element": "N" 
			},
			{
				"x": 0.5922529112,
				"y": -2.1975747992,
				"z": -0.1838313517,
				"element": "C" 
			},
			{
				"x": 1.8932960065,
				"y": -1.781150635,
				"z": -0.224498277,
				"element": "C" 
			},
			{
				"x": 2.0032177339,
				"y": -0.2937128195,
				"z": -1.1046667937,
				"element": "S" 
			},
			{
				"x": -3.4993103689,
				"y": 0.4045143202,
				"z": 0.8455165081,
				"element": "H" 
			},
			{
				"x": -1.9684124529,
				"y": 1.2757737049,
				"z": 0.5934502663,
				"element": "H" 
			},
			{
				"x": -1.9977576824,
				"y": -0.5156073933,
				"z": 0.4826798606,
				"element": "H" 
			},
			{
				"x": -0.217171402,
				"y": 1.0139807976,
				"z": -4.9733292909,
				"element": "H" 
			},
			{
				"x": 0.4349004737,
				"y": 2.3948215633,
				"z": -4.0510968831,
				"element": "H" 
			},
			{
				"x": -0.5996998746,
				"y": 2.6849311703,
				"z": -5.4833597287,
				"element": "H" 
			},
			{
				"x": 0.2532736748,
				"y": -3.1069094334,
				"z": 0.2995139745,
				"element": "H" 
			},
			{
				"x": 2.7633314134,
				"y": -2.2547337401,
				"z": 0.2071130054,
				"element": "H" 
			}
		],
		 "valence_orbital": [ 
			{
				"type": "occ",
				"energy": -0.2808,
				"method": "rhf"
			},
			{
				"type": "occ",
				"energy": -0.278,
				"method": "rhf"
			},
			{
				"type": "occ",
				"energy": -0.26164,
				"method": "rhf"
			},
			{
				"type": "occ",
				"energy": -0.2439,
				"method": "rhf"
			},
			{
				"type": "occ",
				"energy": -0.21673,
				"method": "rhf"
			},
			{
				"type": "unocc",
				"energy": -0.06026,
				"method": "rhf"
			},
			{
				"type": "unocc",
				"energy": 0.01257,
				"method": "rhf"
			},
			{
				"type": "unocc",
				"energy": 0.01698,
				"method": "rhf"
			},
			{
				"type": "unocc",
				"energy": 0.02057,
				"method": "rhf"
			},
			{
				"type": "unocc",
				"energy": 0.0501,
				"method": "rhf"
			}
		],
		"cosmo_sigma_profile": { 
			"-0.025": 0.0,
			"-0.024": 0.0,
			"-0.023": 0.0,
			"-0.022": 0.0,
			"-0.021": 0.0,
			"-0.02": 0.0,
			"-0.019": 0.0,
			"-0.018": 0.0,
			"-0.017": 0.0,
			"-0.016": 0.0,
			"-0.015": 0.0,
			"-0.014": 0.0,
			"-0.013": 0.0,
			"-0.012": 0.0,
			"-0.011": 0.0,
			"-0.01": 0.0185136419246,
			"-0.009": 1.57246013316,
			"-0.008": 3.32016674754,
			"-0.007": 9.1688049286,
			"-0.006": 11.4419157216,
			"-0.005": 13.0957034991,
			"-0.004": 12.9333867006,
			"-0.003": 15.0897675184,
			"-0.002": 20.8067579893,
			"-0.001": 14.7143586903,
			"0.0": 14.6018848678,
			"0.001": 20.7712248043,
			"0.002": 21.0447479399,
			"0.003": 24.9138295507,
			"0.004": 17.201326239,
			"0.005": 9.85356676411,
			"0.006": 7.49297471482,
			"0.007": 3.48242387347,
			"0.008": 1.36428222036,
			"0.009": 1.29267242459,
			"0.01": 1.29991218258,
			"0.011": 1.01813617454,
			"0.012": 0.83238667734,
			"0.013": 0.696980304069,
			"0.014": 0.114646317832,
			"0.015": 0.0,
			"0.016": 0.0,
			"0.017": 0.0,
			"0.018": 0.0,
			"0.019": 0.0,
			"0.02": 0.0,
			"0.021": 0.0,
			"0.022": 0.0,
			"0.023": 0.0,
			"0.024": 0.0,
			"0.025": 0.0
		}
	}
}
