{
	 "smiles": "CC(C)C1=CC=C(C=C1)C(O)=O", 
	 "Tm": 391.15, 
	 "num_atms": 24, 
	 "gaussian": { 
		 "optdone": 1, 
		 "sigma_profile": "yes", 
		 "theory": "DFT", 
		 "functional": "B3LYP", 
		 "basiset": "6-31G**", 
		 "properties": { 
			 "R2extent": 2768.3812, 
			 "electric_dipole_moment_norm": 5.25932922149, 
			 "electric_quadrupole_moment_norm": 14.6799730139, 
			 "total_energy": -538.767337877, 
			 "HOMO_LUMO_gap": 0.20903, 
			 "cosmo_polarized_energy": -13.45, 
			 "cosmo_cavitation_energy": 27.34, 
			 "cosmo_dispersion_energy": -19.66, 
			 "cosmo_repulsion_energy": 1.57, 
			 "cosmo_total_nonelectrostatic_energy": 9.26, 
			 "SMD_solvation_energy": 5.94 
		},
		"coords": [
			{
				"x": -0.054224846,
				"y": 1.7683677849,
				"z": -3.6122154562,
				"element": "C" 
			},
			{
				"x": -1.1579336546,
				"y": 1.3893095647,
				"z": -2.6062120135,
				"element": "C" 
			},
			{
				"x": -1.9977797082,
				"y": 2.6198071195,
				"z": -2.2133489475,
				"element": "C" 
			},
			{
				"x": -0.5874529508,
				"y": 0.6829797282,
				"z": -1.3847178733,
				"element": "C" 
			},
			{
				"x": -0.9543858258,
				"y": -0.6351572396,
				"z": -1.0856740441,
				"element": "C" 
			},
			{
				"x": -0.4339934119,
				"y": -1.2953680537,
				"z": 0.026783743,
				"element": "C" 
			},
			{
				"x": 0.4725775084,
				"y": -0.6473248802,
				"z": 0.875538812,
				"element": "C" 
			},
			{
				"x": 0.8279765088,
				"y": 0.6800998173,
				"z": 0.5962998784,
				"element": "C" 
			},
			{
				"x": 0.312644533,
				"y": 1.3283341927,
				"z": -0.5197394366,
				"element": "C" 
			},
			{
				"x": 1.0608430483,
				"y": -1.2865597469,
				"z": 2.0954214998,
				"element": "C" 
			},
			{
				"x": 1.0390827719,
				"y": -2.6470619685,
				"z": 2.1457391207,
				"element": "O" 
			},
			{
				"x": 1.5421022717,
				"y": -0.6590153746,
				"z": 3.009825592,
				"element": "O" 
			},
			{
				"x": 0.5225771272,
				"y": 0.8906411987,
				"z": -3.9196338105,
				"element": "H" 
			},
			{
				"x": -0.4915470905,
				"y": 2.2203991177,
				"z": -4.5087793345,
				"element": "H" 
			},
			{
				"x": 0.6447171296,
				"y": 2.4937933444,
				"z": -3.1819820265,
				"element": "H" 
			},
			{
				"x": -1.8286523197,
				"y": 0.677519779,
				"z": -3.1048563965,
				"element": "H" 
			},
			{
				"x": -1.3826526458,
				"y": 3.3819504528,
				"z": -1.7228614836,
				"element": "H" 
			},
			{
				"x": -2.8039221628,
				"y": 2.347790076,
				"z": -1.525179902,
				"element": "H" 
			},
			{
				"x": -2.4467265616,
				"y": 3.0768201107,
				"z": -3.1016130769,
				"element": "H" 
			},
			{
				"x": -1.6638431239,
				"y": -1.1501261022,
				"z": -1.7282686445,
				"element": "H" 
			},
			{
				"x": -0.7774338766,
				"y": -2.3048826035,
				"z": 0.2422823325,
				"element": "H" 
			},
			{
				"x": 1.5133025215,
				"y": 1.182491449,
				"z": 1.2706478678,
				"element": "H" 
			},
			{
				"x": 0.6118772228,
				"y": 2.3533341797,
				"z": -0.7200315481,
				"element": "H" 
			},
			{
				"x": 0.7799475351,
				"y": -3.0066419461,
				"z": 1.2862751483,
				"element": "H" 
			}
		],
		 "valence_orbital": [ 
			{
				"type": "occ",
				"energy": -0.33635,
				"method": "rhf"
			},
			{
				"type": "occ",
				"energy": -0.31203,
				"method": "rhf"
			},
			{
				"type": "occ",
				"energy": -0.2719,
				"method": "rhf"
			},
			{
				"type": "occ",
				"energy": -0.26712,
				"method": "rhf"
			},
			{
				"type": "occ",
				"energy": -0.25619,
				"method": "rhf"
			},
			{
				"type": "unocc",
				"energy": -0.04716,
				"method": "rhf"
			},
			{
				"type": "unocc",
				"energy": -0.01903,
				"method": "rhf"
			},
			{
				"type": "unocc",
				"energy": 0.05025,
				"method": "rhf"
			},
			{
				"type": "unocc",
				"energy": 0.06366,
				"method": "rhf"
			},
			{
				"type": "unocc",
				"energy": 0.08085,
				"method": "rhf"
			}
		],
		"cosmo_sigma_profile": { 
			"-0.025": 0.0,
			"-0.024": 0.0,
			"-0.023": 0.0,
			"-0.022": 0.0,
			"-0.021": 0.0,
			"-0.02": 0.0,
			"-0.019": 0.0409492257929,
			"-0.018": 0.704011648547,
			"-0.017": 1.17288005841,
			"-0.016": 0.701486159241,
			"-0.015": 1.38809704095,
			"-0.014": 0.530777656007,
			"-0.013": 0.917758690146,
			"-0.012": 1.21628675352,
			"-0.011": 1.25232521778,
			"-0.01": 0.711230520629,
			"-0.009": 1.48112649272,
			"-0.008": 1.78496457727,
			"-0.007": 1.57893741419,
			"-0.006": 5.86039193417,
			"-0.005": 11.5032554652,
			"-0.004": 11.9501963906,
			"-0.003": 19.8328877374,
			"-0.002": 21.3667356632,
			"-0.001": 23.1091375333,
			"0.0": 19.0231353946,
			"0.001": 23.2428014586,
			"0.002": 12.4618760995,
			"0.003": 11.3953368585,
			"0.004": 11.8325965894,
			"0.005": 2.39061741054,
			"0.006": 2.72831362535,
			"0.007": 1.97521043107,
			"0.008": 3.1276752756,
			"0.009": 3.15350417632,
			"0.01": 4.1093937536,
			"0.011": 5.33196152283,
			"0.012": 5.50997538933,
			"0.013": 2.10536226571,
			"0.014": 0.214059562929,
			"0.015": 0.0,
			"0.016": 0.0,
			"0.017": 0.0,
			"0.018": 0.0,
			"0.019": 0.0,
			"0.02": 0.0,
			"0.021": 0.0,
			"0.022": 0.0,
			"0.023": 0.0,
			"0.024": 0.0,
			"0.025": 0.0
		}
	}
}
