{
	 "smiles": "FC1=C(C=O)C(F)=C(Br)C=C1", 
	 "Tm": 328.15, 
	 "num_atms": 14, 
	 "gaussian": { 
		 "optdone": 1, 
		 "sigma_profile": "yes", 
		 "theory": "DFT", 
		 "functional": "B3LYP", 
		 "basiset": "6-31G**", 
		 "properties": { 
			 "R2extent": 4075.064, 
			 "electric_dipole_moment_norm": 3.1019128953, 
			 "electric_quadrupole_moment_norm": 8.97503080663, 
			 "total_energy": -3114.82584028, 
			 "HOMO_LUMO_gap": 0.177, 
			 "cosmo_polarized_energy": -7.89, 
			 "cosmo_cavitation_energy": 22.38, 
			 "cosmo_dispersion_energy": -16.66, 
			 "cosmo_repulsion_energy": 1.29, 
			 "cosmo_total_nonelectrostatic_energy": 7.01, 
			 "SMD_solvation_energy": 4.74 
		},
		"coords": [
			{
				"x": 2.42115552,
				"y": 0.1968032591,
				"z": -0.8426661922,
				"element": "F" 
			},
			{
				"x": 1.6025154182,
				"y": -0.1909128824,
				"z": 0.1370694288,
				"element": "C" 
			},
			{
				"x": 1.2995754589,
				"y": 0.6992207706,
				"z": 1.1827355114,
				"element": "C" 
			},
			{
				"x": 1.8449895884,
				"y": 2.0800464652,
				"z": 1.2716339851,
				"element": "C" 
			},
			{
				"x": 2.5996858785,
				"y": 2.5795694848,
				"z": 0.4626547195,
				"element": "O" 
			},
			{
				"x": 0.4317578795,
				"y": 0.2260855251,
				"z": 2.1803617542,
				"element": "C" 
			},
			{
				"x": 0.1185669931,
				"y": 1.0454717067,
				"z": 3.1947858159,
				"element": "F" 
			},
			{
				"x": -0.1101787591,
				"y": -1.0559533823,
				"z": 2.1512968938,
				"element": "C" 
			},
			{
				"x": -1.276012224,
				"y": -1.625789097,
				"z": 3.5348865848,
				"element": "Br" 
			},
			{
				"x": 0.2183771181,
				"y": -1.9047875008,
				"z": 1.0942026035,
				"element": "C" 
			},
			{
				"x": 1.0759770628,
				"y": -1.4756738547,
				"z": 0.082949016,
				"element": "C" 
			},
			{
				"x": 1.5023983264,
				"y": 2.6416248236,
				"z": 2.1610177047,
				"element": "H" 
			},
			{
				"x": -0.2010146053,
				"y": -2.9040810948,
				"z": 1.0669701558,
				"element": "H" 
			},
			{
				"x": 1.3410063445,
				"y": -2.1229242231,
				"z": -0.7449979814,
				"element": "H" 
			}
		],
		 "valence_orbital": [ 
			{
				"type": "occ",
				"energy": -0.32781,
				"method": "rhf"
			},
			{
				"type": "occ",
				"energy": -0.30713,
				"method": "rhf"
			},
			{
				"type": "occ",
				"energy": -0.28701,
				"method": "rhf"
			},
			{
				"type": "occ",
				"energy": -0.26379,
				"method": "rhf"
			},
			{
				"type": "occ",
				"energy": -0.25903,
				"method": "rhf"
			},
			{
				"type": "unocc",
				"energy": -0.08203,
				"method": "rhf"
			},
			{
				"type": "unocc",
				"energy": -0.02984,
				"method": "rhf"
			},
			{
				"type": "unocc",
				"energy": -0.01689,
				"method": "rhf"
			},
			{
				"type": "unocc",
				"energy": 0.014,
				"method": "rhf"
			},
			{
				"type": "unocc",
				"energy": 0.07857,
				"method": "rhf"
			}
		],
		"cosmo_sigma_profile": { 
			"-0.025": 0.0,
			"-0.024": 0.0,
			"-0.023": 0.0,
			"-0.022": 0.0,
			"-0.021": 0.0,
			"-0.02": 0.0,
			"-0.019": 0.0,
			"-0.018": 0.0,
			"-0.017": 0.0,
			"-0.016": 0.0,
			"-0.015": 0.0,
			"-0.014": 0.0,
			"-0.013": 0.0,
			"-0.012": 0.0,
			"-0.011": 0.0,
			"-0.01": 0.0525430352829,
			"-0.009": 2.94183291059,
			"-0.008": 4.4411768839,
			"-0.007": 5.77064309277,
			"-0.006": 8.31522899984,
			"-0.005": 8.45708982579,
			"-0.004": 10.0767332749,
			"-0.003": 14.3418504974,
			"-0.002": 19.0253286532,
			"-0.001": 16.6906874841,
			"0.0": 15.550294958,
			"0.001": 11.506263561,
			"0.002": 13.9697202648,
			"0.003": 20.772454211,
			"0.004": 11.6784539339,
			"0.005": 2.56924790946,
			"0.006": 1.62954127605,
			"0.007": 2.47738110521,
			"0.008": 2.30232202629,
			"0.009": 2.19963301323,
			"0.01": 4.08377664136,
			"0.011": 4.52649865718,
			"0.012": 1.28996511147,
			"0.013": 0.0744173864063,
			"0.014": 0.0,
			"0.015": 0.0,
			"0.016": 0.0,
			"0.017": 0.0,
			"0.018": 0.0,
			"0.019": 0.0,
			"0.02": 0.0,
			"0.021": 0.0,
			"0.022": 0.0,
			"0.023": 0.0,
			"0.024": 0.0,
			"0.025": 0.0
		}
	}
}
