{
	 "smiles": "C1CCC(CC1)N1N=NC2=C1C=CC=C2", 
	 "Tm": 377.15, 
	 "num_atms": 30, 
	 "gaussian": { 
		 "optdone": 1, 
		 "sigma_profile": "yes", 
		 "theory": "DFT", 
		 "functional": "B3LYP", 
		 "basiset": "6-31G**", 
		 "properties": { 
			 "R2extent": 3941.9273, 
			 "electric_dipole_moment_norm": 4.04046558456, 
			 "electric_quadrupole_moment_norm": 11.752909031, 
			 "total_energy": -630.550578583, 
			 "HOMO_LUMO_gap": 0.19228, 
			 "cosmo_polarized_energy": -10.53, 
			 "cosmo_cavitation_energy": 31.42, 
			 "cosmo_dispersion_energy": -22.97, 
			 "cosmo_repulsion_energy": 1.79, 
			 "cosmo_total_nonelectrostatic_energy": 10.24, 
			 "SMD_solvation_energy": 2.62 
		},
		"coords": [
			{
				"x": -0.9711192086,
				"y": 2.5660078974,
				"z": 1.9898284351,
				"element": "C" 
			},
			{
				"x": -1.4559694013,
				"y": 1.1596847972,
				"z": 2.3659261192,
				"element": "C" 
			},
			{
				"x": -1.0906135709,
				"y": 0.1260702923,
				"z": 1.275549001,
				"element": "C" 
			},
			{
				"x": 0.2234541304,
				"y": 0.4944971574,
				"z": 0.5418031221,
				"element": "C" 
			},
			{
				"x": 1.1837505175,
				"y": 1.2554791854,
				"z": 1.469696376,
				"element": "C" 
			},
			{
				"x": 0.5736165704,
				"y": 2.6135270982,
				"z": 1.8915068675,
				"element": "C" 
			},
			{
				"x": 0.8555349631,
				"y": -0.6956314728,
				"z": -0.0348669322,
				"element": "N" 
			},
			{
				"x": 1.2028950458,
				"y": -1.7454423853,
				"z": 0.7630545044,
				"element": "N" 
			},
			{
				"x": 1.788296721,
				"y": -2.6565965215,
				"z": 0.0530787431,
				"element": "N" 
			},
			{
				"x": 1.8470370411,
				"y": -2.2160070741,
				"z": -1.2515341008,
				"element": "C" 
			},
			{
				"x": 1.2488320491,
				"y": -0.940313049,
				"z": -1.3222760085,
				"element": "C" 
			},
			{
				"x": 1.1588037033,
				"y": -0.2267777822,
				"z": -2.5286247244,
				"element": "C" 
			},
			{
				"x": 1.6882701295,
				"y": -0.8434772843,
				"z": -3.6523504638,
				"element": "C" 
			},
			{
				"x": 2.289685016,
				"y": -2.1254253645,
				"z": -3.5930886882,
				"element": "C" 
			},
			{
				"x": 2.3771862278,
				"y": -2.825544805,
				"z": -2.4010772704,
				"element": "C" 
			},
			{
				"x": -1.3245341734,
				"y": 3.305064853,
				"z": 2.7167909995,
				"element": "H" 
			},
			{
				"x": -1.4171979317,
				"y": 2.8507311702,
				"z": 1.027306896,
				"element": "H" 
			},
			{
				"x": -0.9985999203,
				"y": 0.8685639475,
				"z": 3.3198227219,
				"element": "H" 
			},
			{
				"x": -2.5384735461,
				"y": 1.1528825282,
				"z": 2.5318993795,
				"element": "H" 
			},
			{
				"x": -0.9680298303,
				"y": -0.8633913238,
				"z": 1.7235984815,
				"element": "H" 
			},
			{
				"x": -1.8966162824,
				"y": 0.0459717487,
				"z": 0.5370949719,
				"element": "H" 
			},
			{
				"x": -0.0059115663,
				"y": 1.1342663001,
				"z": -0.3174516237,
				"element": "H" 
			},
			{
				"x": 1.3791385882,
				"y": 0.6264889233,
				"z": 2.3447523026,
				"element": "H" 
			},
			{
				"x": 2.1466714785,
				"y": 1.4029328415,
				"z": 0.9699174466,
				"element": "H" 
			},
			{
				"x": 0.9997500382,
				"y": 2.9034413235,
				"z": 2.8583837485,
				"element": "H" 
			},
			{
				"x": 0.871083798,
				"y": 3.3928323846,
				"z": 1.1800817722,
				"element": "H" 
			},
			{
				"x": 0.7016345748,
				"y": 0.7557286008,
				"z": -2.5873646305,
				"element": "H" 
			},
			{
				"x": 1.6418388236,
				"y": -0.3294801627,
				"z": -4.6080414174,
				"element": "H" 
			},
			{
				"x": 2.687938146,
				"y": -2.5606497169,
				"z": -4.5045129345,
				"element": "H" 
			},
			{
				"x": 2.8351478693,
				"y": -3.8072341071,
				"z": -2.3417030942,
				"element": "H" 
			}
		],
		 "valence_orbital": [ 
			{
				"type": "occ",
				"energy": -0.31172,
				"method": "rhf"
			},
			{
				"type": "occ",
				"energy": -0.29744,
				"method": "rhf"
			},
			{
				"type": "occ",
				"energy": -0.25884,
				"method": "rhf"
			},
			{
				"type": "occ",
				"energy": -0.24657,
				"method": "rhf"
			},
			{
				"type": "occ",
				"energy": -0.23026,
				"method": "rhf"
			},
			{
				"type": "unocc",
				"energy": -0.03798,
				"method": "rhf"
			},
			{
				"type": "unocc",
				"energy": 0.01437,
				"method": "rhf"
			},
			{
				"type": "unocc",
				"energy": 0.03867,
				"method": "rhf"
			},
			{
				"type": "unocc",
				"energy": 0.06563,
				"method": "rhf"
			},
			{
				"type": "unocc",
				"energy": 0.08694,
				"method": "rhf"
			}
		],
		"cosmo_sigma_profile": { 
			"-0.025": 0.0,
			"-0.024": 0.0,
			"-0.023": 0.0,
			"-0.022": 0.0,
			"-0.021": 0.0,
			"-0.02": 0.0,
			"-0.019": 0.0,
			"-0.018": 0.0,
			"-0.017": 0.0,
			"-0.016": 0.0,
			"-0.015": 0.0,
			"-0.014": 0.0,
			"-0.013": 0.0,
			"-0.012": 0.0,
			"-0.011": 0.0,
			"-0.01": 0.0,
			"-0.009": 0.0,
			"-0.008": 1.52740209445,
			"-0.007": 5.1839795628,
			"-0.006": 10.0216684334,
			"-0.005": 10.8184173861,
			"-0.004": 13.9583880483,
			"-0.003": 24.7422752389,
			"-0.002": 33.3764801142,
			"-0.001": 31.3474588158,
			"0.0": 30.6162582561,
			"0.001": 20.4983514732,
			"0.002": 12.0052033446,
			"0.003": 13.3817182776,
			"0.004": 11.9554579615,
			"0.005": 5.80531164753,
			"0.006": 2.32495872292,
			"0.007": 1.79349552871,
			"0.008": 1.95905681717,
			"0.009": 2.58659782097,
			"0.01": 2.57144478252,
			"0.011": 3.75609866048,
			"0.012": 2.34033962594,
			"0.013": 1.34517428501,
			"0.014": 1.64434205407,
			"0.015": 1.07892197677,
			"0.016": 0.727062913389,
			"0.017": 0.00186055467461,
			"0.018": 0.0,
			"0.019": 0.0,
			"0.02": 0.0,
			"0.021": 0.0,
			"0.022": 0.0,
			"0.023": 0.0,
			"0.024": 0.0,
			"0.025": 0.0
		}
	}
}
