{
	 "smiles": "ON=CC1=CC=C(OCC2=NC=CC=C2)C=C1", 
	 "Tm": 428.15, 
	 "num_atms": 29, 
	 "gaussian": { 
		 "optdone": 1, 
		 "sigma_profile": "yes", 
		 "theory": "DFT", 
		 "functional": "B3LYP", 
		 "basiset": "6-31G**", 
		 "properties": { 
			 "R2extent": 6431.0306, 
			 "electric_dipole_moment_norm": 2.4236171191, 
			 "electric_quadrupole_moment_norm": 5.7996924496, 
			 "total_energy": -762.493828771, 
			 "HOMO_LUMO_gap": 0.1746, 
			 "cosmo_polarized_energy": -12.58, 
			 "cosmo_cavitation_energy": 34.3, 
			 "cosmo_dispersion_energy": -24.52, 
			 "cosmo_repulsion_energy": 1.92, 
			 "cosmo_total_nonelectrostatic_energy": 11.69, 
			 "SMD_solvation_energy": 5.17 
		},
		"coords": [
			{
				"x": 5.0753071885,
				"y": -4.6549146213,
				"z": -2.162600487,
				"element": "O" 
			},
			{
				"x": 3.7112708213,
				"y": -4.3727189151,
				"z": -1.9915301004,
				"element": "N" 
			},
			{
				"x": 3.5264974276,
				"y": -3.117081245,
				"z": -1.8074721627,
				"element": "C" 
			},
			{
				"x": 2.1908623946,
				"y": -2.5560759857,
				"z": -1.6024239876,
				"element": "C" 
			},
			{
				"x": 2.046632287,
				"y": -1.1775191597,
				"z": -1.4023908021,
				"element": "C" 
			},
			{
				"x": 0.7952146312,
				"y": -0.592468084,
				"z": -1.201167359,
				"element": "C" 
			},
			{
				"x": -0.3457807955,
				"y": -1.4021348523,
				"z": -1.2034558289,
				"element": "C" 
			},
			{
				"x": -1.6266930994,
				"y": -0.9523350943,
				"z": -1.0297306615,
				"element": "O" 
			},
			{
				"x": -1.8543783708,
				"y": 0.4500223939,
				"z": -0.9204117862,
				"element": "C" 
			},
			{
				"x": -1.5151840931,
				"y": 1.0221318903,
				"z": 0.4445407443,
				"element": "C" 
			},
			{
				"x": -1.1230440936,
				"y": 2.304164254,
				"z": 0.4505288434,
				"element": "N" 
			},
			{
				"x": -0.8595695261,
				"y": 2.8698513599,
				"z": 1.6354239703,
				"element": "C" 
			},
			{
				"x": -0.9612852854,
				"y": 2.1955432175,
				"z": 2.8521129213,
				"element": "C" 
			},
			{
				"x": -1.3626555409,
				"y": 0.8593829057,
				"z": 2.8338022422,
				"element": "C" 
			},
			{
				"x": -1.6489467269,
				"y": 0.2595270813,
				"z": 1.6097634572,
				"element": "C" 
			},
			{
				"x": -0.21795339,
				"y": -2.7883309967,
				"z": -1.3998044232,
				"element": "C" 
			},
			{
				"x": 1.0295267766,
				"y": -3.3551360858,
				"z": -1.5958364229,
				"element": "C" 
			},
			{
				"x": 5.0738829694,
				"y": -5.6126637532,
				"z": -2.2907382235,
				"element": "H" 
			},
			{
				"x": 4.3795506161,
				"y": -2.433040479,
				"z": -1.8006924764,
				"element": "H" 
			},
			{
				"x": 2.9297224469,
				"y": -0.543501188,
				"z": -1.3988247964,
				"element": "H" 
			},
			{
				"x": 0.7269384414,
				"y": 0.4755385386,
				"z": -1.0333056167,
				"element": "H" 
			},
			{
				"x": -2.926148111,
				"y": 0.5690740317,
				"z": -1.1130962249,
				"element": "H" 
			},
			{
				"x": -1.3144002912,
				"y": 1.0098762749,
				"z": -1.691528165,
				"element": "H" 
			},
			{
				"x": -0.54454755,
				"y": 3.9115682571,
				"z": 1.6070640895,
				"element": "H" 
			},
			{
				"x": -0.7274832214,
				"y": 2.7030396656,
				"z": 3.7825524947,
				"element": "H" 
			},
			{
				"x": -1.4515921957,
				"y": 0.29462083,
				"z": 3.7574915575,
				"element": "H" 
			},
			{
				"x": -1.9623009011,
				"y": -0.7767498138,
				"z": 1.544164659,
				"element": "H" 
			},
			{
				"x": -1.1178935301,
				"y": -3.3948469425,
				"z": -1.3992903521,
				"element": "H" 
			},
			{
				"x": 1.1262507218,
				"y": -4.424523484,
				"z": -1.7501451027,
				"element": "H" 
			}
		],
		 "valence_orbital": [ 
			{
				"type": "occ",
				"energy": -0.27041,
				"method": "rhf"
			},
			{
				"type": "occ",
				"energy": -0.26404,
				"method": "rhf"
			},
			{
				"type": "occ",
				"energy": -0.26107,
				"method": "rhf"
			},
			{
				"type": "occ",
				"energy": -0.25247,
				"method": "rhf"
			},
			{
				"type": "occ",
				"energy": -0.20681,
				"method": "rhf"
			},
			{
				"type": "unocc",
				"energy": -0.03221,
				"method": "rhf"
			},
			{
				"type": "unocc",
				"energy": -0.02955,
				"method": "rhf"
			},
			{
				"type": "unocc",
				"energy": -0.01938,
				"method": "rhf"
			},
			{
				"type": "unocc",
				"energy": -0.00148,
				"method": "rhf"
			},
			{
				"type": "unocc",
				"energy": 0.0623,
				"method": "rhf"
			}
		],
		"cosmo_sigma_profile": { 
			"-0.025": 0.0,
			"-0.024": 0.0,
			"-0.023": 0.0,
			"-0.022": 0.0,
			"-0.021": 0.0,
			"-0.02": 0.0,
			"-0.019": 0.0,
			"-0.018": 0.122916371858,
			"-0.017": 0.937714468526,
			"-0.016": 0.952808862081,
			"-0.015": 1.03386355961,
			"-0.014": 0.431422829132,
			"-0.013": 0.653921740833,
			"-0.012": 0.930401239985,
			"-0.011": 0.41396678611,
			"-0.01": 0.514965137116,
			"-0.009": 0.57782549567,
			"-0.008": 1.97743617584,
			"-0.007": 10.215815111,
			"-0.006": 18.5846539577,
			"-0.005": 21.4273841776,
			"-0.004": 20.2594086547,
			"-0.003": 15.2278397795,
			"-0.002": 15.1639893502,
			"-0.001": 15.0194630971,
			"0.0": 15.9488303839,
			"0.001": 18.8189349418,
			"0.002": 25.51603041,
			"0.003": 26.0885740431,
			"0.004": 21.4102761802,
			"0.005": 9.54113075752,
			"0.006": 6.5136515549,
			"0.007": 5.43136761733,
			"0.008": 4.60887161553,
			"0.009": 5.48708958227,
			"0.01": 3.44780130588,
			"0.011": 3.79366712749,
			"0.012": 0.99373561646,
			"0.013": 0.755984418891,
			"0.014": 0.539314259988,
			"0.015": 0.662710176781,
			"0.016": 0.302727247358,
			"0.017": 0.0,
			"0.018": 0.0,
			"0.019": 0.0,
			"0.02": 0.0,
			"0.021": 0.0,
			"0.022": 0.0,
			"0.023": 0.0,
			"0.024": 0.0,
			"0.025": 0.0
		}
	}
}
