{
	 "smiles": "CC(=O)NC1=C2CCNCC2=CC=C1", 
	 "Tm": 415.15, 
	 "num_atms": 28, 
	 "gaussian": { 
		 "optdone": 1, 
		 "sigma_profile": "yes", 
		 "theory": "DFT", 
		 "functional": "B3LYP", 
		 "basiset": "6-31G**", 
		 "properties": { 
			 "R2extent": 3457.4607, 
			 "electric_dipole_moment_norm": 3.2075419327, 
			 "electric_quadrupole_moment_norm": 19.0214786247, 
			 "total_energy": -612.355925909, 
			 "HOMO_LUMO_gap": 0.20279, 
			 "cosmo_polarized_energy": -14.82, 
			 "cosmo_cavitation_energy": 29.71, 
			 "cosmo_dispersion_energy": -22.2, 
			 "cosmo_repulsion_energy": 1.74, 
			 "cosmo_total_nonelectrostatic_energy": 9.24, 
			 "SMD_solvation_energy": 2.41 
		},
		"coords": [
			{
				"x": 1.3355269074,
				"y": -3.5989391223,
				"z": -2.1460878669,
				"element": "C" 
			},
			{
				"x": 0.1108856483,
				"y": -3.1366874747,
				"z": -1.3655377089,
				"element": "C" 
			},
			{
				"x": -0.7630339424,
				"y": -3.9254173442,
				"z": -1.0359144596,
				"element": "O" 
			},
			{
				"x": 0.0992192746,
				"y": -1.7875339979,
				"z": -1.0786985606,
				"element": "N" 
			},
			{
				"x": -0.8610901312,
				"y": -1.0299950153,
				"z": -0.3691429758,
				"element": "C" 
			},
			{
				"x": -0.6506477102,
				"y": 0.3679899063,
				"z": -0.2698813063,
				"element": "C" 
			},
			{
				"x": 0.5559929088,
				"y": 1.0238882474,
				"z": -0.9246134425,
				"element": "C" 
			},
			{
				"x": 0.4665376258,
				"y": 2.5619016858,
				"z": -0.9393609628,
				"element": "C" 
			},
			{
				"x": -0.0179531096,
				"y": 3.1331913475,
				"z": 0.3138562959,
				"element": "N" 
			},
			{
				"x": -1.3640919164,
				"y": 2.6449440843,
				"z": 0.6077656522,
				"element": "C" 
			},
			{
				"x": -1.5626752261,
				"y": 1.140385437,
				"z": 0.4653703281,
				"element": "C" 
			},
			{
				"x": -2.6753781173,
				"y": 0.5359774422,
				"z": 1.0613633104,
				"element": "C" 
			},
			{
				"x": -2.8817780274,
				"y": -0.8333174377,
				"z": 0.9344102705,
				"element": "C" 
			},
			{
				"x": -1.9807510936,
				"y": -1.626343107,
				"z": 0.2257490907,
				"element": "C" 
			},
			{
				"x": 1.8795840212,
				"y": -4.330124214,
				"z": -1.5414176923,
				"element": "H" 
			},
			{
				"x": 0.9970429427,
				"y": -4.1127448888,
				"z": -3.0495379252,
				"element": "H" 
			},
			{
				"x": 2.0214964732,
				"y": -2.7958324708,
				"z": -2.4303862622,
				"element": "H" 
			},
			{
				"x": 0.8942740669,
				"y": -1.268279845,
				"z": -1.4147477363,
				"element": "H" 
			},
			{
				"x": 1.4756801986,
				"y": 0.7240981484,
				"z": -0.3961339622,
				"element": "H" 
			},
			{
				"x": 0.6711868685,
				"y": 0.6743653519,
				"z": -1.9614626149,
				"element": "H" 
			},
			{
				"x": -0.2235048703,
				"y": 2.8795359207,
				"z": -1.7315473275,
				"element": "H" 
			},
			{
				"x": 1.4452918788,
				"y": 2.9911813977,
				"z": -1.1794392348,
				"element": "H" 
			},
			{
				"x": 0.6083155023,
				"y": 2.8596942064,
				"z": 1.0692447055,
				"element": "H" 
			},
			{
				"x": -1.6359847039,
				"y": 2.9572562886,
				"z": 1.6221795319,
				"element": "H" 
			},
			{
				"x": -2.0615998873,
				"y": 3.1645618973,
				"z": -0.0662714174,
				"element": "H" 
			},
			{
				"x": -3.3752904908,
				"y": 1.1458105338,
				"z": 1.6279988423,
				"element": "H" 
			},
			{
				"x": -3.7456561634,
				"y": -1.300066219,
				"z": 1.3992279299,
				"element": "H" 
			},
			{
				"x": -2.1244989271,
				"y": -2.6923007586,
				"z": 0.1264154988,
				"element": "H" 
			}
		],
		 "valence_orbital": [ 
			{
				"type": "occ",
				"energy": -0.29864,
				"method": "rhf"
			},
			{
				"type": "occ",
				"energy": -0.25055,
				"method": "rhf"
			},
			{
				"type": "occ",
				"energy": -0.2371,
				"method": "rhf"
			},
			{
				"type": "occ",
				"energy": -0.22482,
				"method": "rhf"
			},
			{
				"type": "occ",
				"energy": -0.21457,
				"method": "rhf"
			},
			{
				"type": "unocc",
				"energy": -0.01178,
				"method": "rhf"
			},
			{
				"type": "unocc",
				"energy": 0.0045,
				"method": "rhf"
			},
			{
				"type": "unocc",
				"energy": 0.04659,
				"method": "rhf"
			},
			{
				"type": "unocc",
				"energy": 0.06383,
				"method": "rhf"
			},
			{
				"type": "unocc",
				"energy": 0.08577,
				"method": "rhf"
			}
		],
		"cosmo_sigma_profile": { 
			"-0.025": 0.0,
			"-0.024": 0.0,
			"-0.023": 0.0,
			"-0.022": 0.0,
			"-0.021": 0.0,
			"-0.02": 0.0,
			"-0.019": 0.0,
			"-0.018": 0.0,
			"-0.017": 0.0,
			"-0.016": 0.0,
			"-0.015": 0.0,
			"-0.014": 0.207066179954,
			"-0.013": 0.930348572274,
			"-0.012": 1.58940253612,
			"-0.011": 1.12074952065,
			"-0.01": 2.26562193979,
			"-0.009": 3.49080687496,
			"-0.008": 2.69350602243,
			"-0.007": 2.9748782105,
			"-0.006": 7.57911531129,
			"-0.005": 14.3158618404,
			"-0.004": 24.2431961014,
			"-0.003": 28.8599661341,
			"-0.002": 25.0478919169,
			"-0.001": 19.255119174,
			"0.0": 11.7223399457,
			"0.001": 9.01102736097,
			"0.002": 10.3390374973,
			"0.003": 10.6557508797,
			"0.004": 11.2816245896,
			"0.005": 9.6930046103,
			"0.006": 9.57168294673,
			"0.007": 5.28110890119,
			"0.008": 1.86235542699,
			"0.009": 2.86428542021,
			"0.01": 2.39112745933,
			"0.011": 2.2467956001,
			"0.012": 3.72846314876,
			"0.013": 3.31491812902,
			"0.014": 2.48886712471,
			"0.015": 1.23875779174,
			"0.016": 0.568503459003,
			"0.017": 0.5198549431,
			"0.018": 0.589724434285,
			"0.019": 0.0230324664878,
			"0.02": 0.0,
			"0.021": 0.0,
			"0.022": 0.0,
			"0.023": 0.0,
			"0.024": 0.0,
			"0.025": 0.0
		}
	}
}
