{
	 "smiles": "C1=CC=C2N=CN=CC2=C1", 
	 "Tm": 320.65, 
	 "num_atms": 16, 
	 "gaussian": { 
		 "optdone": 1, 
		 "sigma_profile": "yes", 
		 "theory": "DFT", 
		 "functional": "B3LYP", 
		 "basiset": "6-31G**", 
		 "properties": { 
			 "R2extent": 1255.1551, 
			 "electric_dipole_moment_norm": 2.96483650983, 
			 "electric_quadrupole_moment_norm": 3.82292386008, 
			 "total_energy": -417.969757394, 
			 "HOMO_LUMO_gap": 0.18056, 
			 "cosmo_polarized_energy": -7.82, 
			 "cosmo_cavitation_energy": 20.09, 
			 "cosmo_dispersion_energy": -15.33, 
			 "cosmo_repulsion_energy": 1.21, 
			 "cosmo_total_nonelectrostatic_energy": 5.97, 
			 "SMD_solvation_energy": 0.48 
		},
		"coords": [
			{
				"x": 0.1576490084,
				"y": 2.6351765204,
				"z": 1.0600465884,
				"element": "C" 
			},
			{
				"x": 1.2826509361,
				"y": 2.4152399475,
				"z": 0.2226970254,
				"element": "C" 
			},
			{
				"x": 1.4965784444,
				"y": 1.1915356861,
				"z": -0.3721736232,
				"element": "C" 
			},
			{
				"x": 0.582389467,
				"y": 0.1291757752,
				"z": -0.1492193568,
				"element": "C" 
			},
			{
				"x": 0.7924685764,
				"y": -1.0847701102,
				"z": -0.7379174836,
				"element": "N" 
			},
			{
				"x": -0.0961923709,
				"y": -2.0211682829,
				"z": -0.4857940299,
				"element": "C" 
			},
			{
				"x": -1.2084694912,
				"y": -1.9267789329,
				"z": 0.2968449852,
				"element": "N" 
			},
			{
				"x": -1.4141115554,
				"y": -0.7569231947,
				"z": 0.866289742,
				"element": "C" 
			},
			{
				"x": -0.5474845908,
				"y": 0.3523338272,
				"z": 0.6925823822,
				"element": "C" 
			},
			{
				"x": -0.7444265996,
				"y": 1.6217539684,
				"z": 1.292896248,
				"element": "C" 
			},
			{
				"x": 0.0143130449,
				"y": 3.610205085,
				"z": 1.5158198532,
				"element": "H" 
			},
			{
				"x": 1.9819967739,
				"y": 3.2288317415,
				"z": 0.0524824832,
				"element": "H" 
			},
			{
				"x": 2.3500177827,
				"y": 1.0036136044,
				"z": -1.0151433035,
				"element": "H" 
			},
			{
				"x": 0.0651965801,
				"y": -2.9915750362,
				"z": -0.9516661622,
				"element": "H" 
			},
			{
				"x": -2.2988937327,
				"y": -0.6578567201,
				"z": 1.4975851124,
				"element": "H" 
			},
			{
				"x": -1.6095822733,
				"y": 1.7785061212,
				"z": 1.9322695395,
				"element": "H" 
			}
		],
		 "valence_orbital": [ 
			{
				"type": "occ",
				"energy": -0.32746,
				"method": "rhf"
			},
			{
				"type": "occ",
				"energy": -0.29817,
				"method": "rhf"
			},
			{
				"type": "occ",
				"energy": -0.27319,
				"method": "rhf"
			},
			{
				"type": "occ",
				"energy": -0.24995,
				"method": "rhf"
			},
			{
				"type": "occ",
				"energy": -0.24761,
				"method": "rhf"
			},
			{
				"type": "unocc",
				"energy": -0.06705,
				"method": "rhf"
			},
			{
				"type": "unocc",
				"energy": -0.03125,
				"method": "rhf"
			},
			{
				"type": "unocc",
				"energy": 0.01003,
				"method": "rhf"
			},
			{
				"type": "unocc",
				"energy": 0.07502,
				"method": "rhf"
			},
			{
				"type": "unocc",
				"energy": 0.08942,
				"method": "rhf"
			}
		],
		"cosmo_sigma_profile": { 
			"-0.025": 0.0,
			"-0.024": 0.0,
			"-0.023": 0.0,
			"-0.022": 0.0,
			"-0.021": 0.0,
			"-0.02": 0.0,
			"-0.019": 0.0,
			"-0.018": 0.0,
			"-0.017": 0.0,
			"-0.016": 0.0,
			"-0.015": 0.0,
			"-0.014": 0.0,
			"-0.013": 0.0,
			"-0.012": 0.0,
			"-0.011": 0.0,
			"-0.01": 0.0,
			"-0.009": 0.0124314261356,
			"-0.008": 3.02943318929,
			"-0.007": 9.75952844572,
			"-0.006": 11.2663679301,
			"-0.005": 12.0917560769,
			"-0.004": 10.0262892466,
			"-0.003": 8.93824758432,
			"-0.002": 9.82782009666,
			"-0.001": 14.0374959911,
			"0.0": 13.4050169082,
			"0.001": 14.7705659771,
			"0.002": 14.3873177029,
			"0.003": 13.990268535,
			"0.004": 4.57650335473,
			"0.005": 2.04314440109,
			"0.006": 2.20850476183,
			"0.007": 3.17631307823,
			"0.008": 2.59397981628,
			"0.009": 1.46572530657,
			"0.01": 1.81391391719,
			"0.011": 1.98278889239,
			"0.012": 1.5518437591,
			"0.013": 1.69564581544,
			"0.014": 1.92589438284,
			"0.015": 1.17278161537,
			"0.016": 0.714672768974,
			"0.017": 0.0,
			"0.018": 0.0,
			"0.019": 0.0,
			"0.02": 0.0,
			"0.021": 0.0,
			"0.022": 0.0,
			"0.023": 0.0,
			"0.024": 0.0,
			"0.025": 0.0
		}
	}
}
