{
	 "smiles": "CCC(C)(C)C1=CC=C(C=C1)S(Cl)(=O)=O", 
	 "Tm": 319.65, 
	 "num_atms": 30, 
	 "gaussian": { 
		 "optdone": 1, 
		 "sigma_profile": "yes", 
		 "theory": "DFT", 
		 "functional": "B3LYP", 
		 "basiset": "6-31G**", 
		 "properties": { 
			 "R2extent": 5627.3988, 
			 "electric_dipole_moment_norm": 6.47653565496, 
			 "electric_quadrupole_moment_norm": 16.0347138805, 
			 "total_energy": -1436.98786855, 
			 "HOMO_LUMO_gap": 0.18991, 
			 "cosmo_polarized_energy": -9.11, 
			 "cosmo_cavitation_energy": 35.03, 
			 "cosmo_dispersion_energy": -24.97, 
			 "cosmo_repulsion_energy": 1.91, 
			 "cosmo_total_nonelectrostatic_energy": 11.97, 
			 "SMD_solvation_energy": 4.76 
		},
		"coords": [
			{
				"x": -1.5203182223,
				"y": 2.2268660287,
				"z": -2.0930876718,
				"element": "C" 
			},
			{
				"x": -1.2426294954,
				"y": 2.6752867836,
				"z": -0.6541194884,
				"element": "C" 
			},
			{
				"x": -1.5752559962,
				"y": 1.6414343055,
				"z": 0.4642556009,
				"element": "C" 
			},
			{
				"x": -3.0894161125,
				"y": 1.3543647897,
				"z": 0.4670778082,
				"element": "C" 
			},
			{
				"x": -1.2123205367,
				"y": 2.2706120078,
				"z": 1.8325800973,
				"element": "C" 
			},
			{
				"x": -0.7376014665,
				"y": 0.3656563637,
				"z": 0.2713013645,
				"element": "C" 
			},
			{
				"x": -1.3154880003,
				"y": -0.9055045312,
				"z": 0.1279257233,
				"element": "C" 
			},
			{
				"x": -0.5355731525,
				"y": -2.0502716362,
				"z": -0.0352688375,
				"element": "C" 
			},
			{
				"x": 0.8503237794,
				"y": -1.917647148,
				"z": -0.0531267991,
				"element": "C" 
			},
			{
				"x": 1.4689534986,
				"y": -0.6740838309,
				"z": 0.0865827529,
				"element": "C" 
			},
			{
				"x": 0.668162728,
				"y": 0.4505520595,
				"z": 0.2491890529,
				"element": "C" 
			},
			{
				"x": 1.8600845926,
				"y": -3.3733365929,
				"z": -0.2428726662,
				"element": "S" 
			},
			{
				"x": 2.0786236341,
				"y": -3.4662669719,
				"z": -2.3704550043,
				"element": "Cl" 
			},
			{
				"x": 3.194132825,
				"y": -3.1131303977,
				"z": 0.2843904602,
				"element": "O" 
			},
			{
				"x": 1.0908389613,
				"y": -4.55358206,
				"z": 0.1319942687,
				"element": "O" 
			},
			{
				"x": -0.9600323555,
				"y": 1.3219871681,
				"z": -2.3488329012,
				"element": "H" 
			},
			{
				"x": -2.5819574721,
				"y": 2.0224737551,
				"z": -2.2625156629,
				"element": "H" 
			},
			{
				"x": -1.2238931014,
				"y": 3.0098312211,
				"z": -2.7981638515,
				"element": "H" 
			},
			{
				"x": -1.8170272813,
				"y": 3.5856091926,
				"z": -0.4385752633,
				"element": "H" 
			},
			{
				"x": -0.1878012586,
				"y": 2.9628045013,
				"z": -0.5678787598,
				"element": "H" 
			},
			{
				"x": -3.6384804861,
				"y": 2.29360336,
				"z": 0.5873226293,
				"element": "H" 
			},
			{
				"x": -3.373227563,
				"y": 0.7010845158,
				"z": 1.2986011899,
				"element": "H" 
			},
			{
				"x": -3.4327534866,
				"y": 0.8892374291,
				"z": -0.4611002022,
				"element": "H" 
			},
			{
				"x": -1.4209372527,
				"y": 1.5761268414,
				"z": 2.6526726195,
				"element": "H" 
			},
			{
				"x": -1.8029588008,
				"y": 3.1780578982,
				"z": 1.9982288569,
				"element": "H" 
			},
			{
				"x": -0.1554647416,
				"y": 2.5476038108,
				"z": 1.8887027916,
				"element": "H" 
			},
			{
				"x": -2.3922931394,
				"y": -1.0201068538,
				"z": 0.1452668759,
				"element": "H" 
			},
			{
				"x": -0.9933606435,
				"y": -3.0278538472,
				"z": -0.1373192069,
				"element": "H" 
			},
			{
				"x": 2.5503902509,
				"y": -0.5964917649,
				"z": 0.0789389685,
				"element": "H" 
			},
			{
				"x": 1.1532802952,
				"y": 1.4141836026,
				"z": 0.3643852547,
				"element": "H" 
			}
		],
		 "valence_orbital": [ 
			{
				"type": "occ",
				"energy": -0.32714,
				"method": "rhf"
			},
			{
				"type": "occ",
				"energy": -0.3247,
				"method": "rhf"
			},
			{
				"type": "occ",
				"energy": -0.30825,
				"method": "rhf"
			},
			{
				"type": "occ",
				"energy": -0.28265,
				"method": "rhf"
			},
			{
				"type": "occ",
				"energy": -0.27566,
				"method": "rhf"
			},
			{
				"type": "unocc",
				"energy": -0.08575,
				"method": "rhf"
			},
			{
				"type": "unocc",
				"energy": -0.0387,
				"method": "rhf"
			},
			{
				"type": "unocc",
				"energy": -0.03274,
				"method": "rhf"
			},
			{
				"type": "unocc",
				"energy": 0.05316,
				"method": "rhf"
			},
			{
				"type": "unocc",
				"energy": 0.06872,
				"method": "rhf"
			}
		],
		"cosmo_sigma_profile": { 
			"-0.025": 0.0,
			"-0.024": 0.0,
			"-0.023": 0.0,
			"-0.022": 0.0,
			"-0.021": 0.0,
			"-0.02": 0.0,
			"-0.019": 0.0,
			"-0.018": 0.0,
			"-0.017": 0.0,
			"-0.016": 0.0,
			"-0.015": 0.0,
			"-0.014": 0.0,
			"-0.013": 0.0,
			"-0.012": 0.0,
			"-0.011": 0.0,
			"-0.01": 0.0,
			"-0.009": 0.158630270839,
			"-0.008": 2.08260185501,
			"-0.007": 6.40153132632,
			"-0.006": 9.68672805064,
			"-0.005": 8.99459324647,
			"-0.004": 11.9460986547,
			"-0.003": 28.5906994264,
			"-0.002": 27.5120003992,
			"-0.001": 30.1974255591,
			"0.0": 38.7910509825,
			"0.001": 36.7569021741,
			"0.002": 22.4079175674,
			"0.003": 13.0687596817,
			"0.004": 13.9887990275,
			"0.005": 3.71519432764,
			"0.006": 3.04453304289,
			"0.007": 4.92402075157,
			"0.008": 10.1795622744,
			"0.009": 5.82311857781,
			"0.01": 0.161475358771,
			"0.011": 0.0,
			"0.012": 0.0,
			"0.013": 0.0,
			"0.014": 0.0,
			"0.015": 0.0,
			"0.016": 0.0,
			"0.017": 0.0,
			"0.018": 0.0,
			"0.019": 0.0,
			"0.02": 0.0,
			"0.021": 0.0,
			"0.022": 0.0,
			"0.023": 0.0,
			"0.024": 0.0,
			"0.025": 0.0
		}
	}
}
