{
	 "smiles": "C[C@H](O)CC[C@H](C)O", 
	 "Tm": 326.15, 
	 "num_atms": 22, 
	 "gaussian": { 
		 "optdone": 1, 
		 "sigma_profile": "yes", 
		 "theory": "DFT", 
		 "functional": "B3LYP", 
		 "basiset": "6-31G**", 
		 "properties": { 
			 "R2extent": 1542.4505, 
			 "electric_dipole_moment_norm": 0.978552655711, 
			 "electric_quadrupole_moment_norm": 10.5468817207, 
			 "total_energy": -387.519233463, 
			 "HOMO_LUMO_gap": 0.32337, 
			 "cosmo_polarized_energy": -11.13, 
			 "cosmo_cavitation_energy": 23.42, 
			 "cosmo_dispersion_energy": -16.85, 
			 "cosmo_repulsion_energy": 1.42, 
			 "cosmo_total_nonelectrostatic_energy": 7.99, 
			 "SMD_solvation_energy": 3.82 
		},
		"coords": [
			{
				"x": -0.5159837084,
				"y": 2.3352588549,
				"z": -0.0385256805,
				"element": "C" 
			},
			{
				"x": -0.1018282249,
				"y": 0.9579769937,
				"z": 0.467494768,
				"element": "C" 
			},
			{
				"x": 0.3097888494,
				"y": 1.1431601057,
				"z": 1.8237192298,
				"element": "O" 
			},
			{
				"x": 1.0297106208,
				"y": 0.3533000278,
				"z": -0.3830842849,
				"element": "C" 
			},
			{
				"x": 1.4473365817,
				"y": -1.0899392911,
				"z": -0.0258539254,
				"element": "C" 
			},
			{
				"x": 0.7903808678,
				"y": -2.2064437452,
				"z": -0.8561522074,
				"element": "C" 
			},
			{
				"x": -0.7248549707,
				"y": -2.3277798708,
				"z": -0.6840064114,
				"element": "C" 
			},
			{
				"x": 1.4279770085,
				"y": -3.4576531776,
				"z": -0.5917264954,
				"element": "O" 
			},
			{
				"x": -1.2888538943,
				"y": 2.7588893458,
				"z": 0.6084412175,
				"element": "H" 
			},
			{
				"x": -0.9072887889,
				"y": 2.275363628,
				"z": -1.0588725457,
				"element": "H" 
			},
			{
				"x": 0.34244563,
				"y": 3.0150569457,
				"z": -0.0333722489,
				"element": "H" 
			},
			{
				"x": -0.9810810793,
				"y": 0.2939808785,
				"z": 0.4367586352,
				"element": "H" 
			},
			{
				"x": 0.5248738881,
				"y": 0.2784059284,
				"z": 2.1950922551,
				"element": "H" 
			},
			{
				"x": 1.893195247,
				"y": 1.0192659753,
				"z": -0.2697376927,
				"element": "H" 
			},
			{
				"x": 0.7447756123,
				"y": 0.3960719888,
				"z": -1.4432057312,
				"element": "H" 
			},
			{
				"x": 1.2619739817,
				"y": -1.2928857376,
				"z": 1.0422078312,
				"element": "H" 
			},
			{
				"x": 2.5280078815,
				"y": -1.2046516498,
				"z": -0.1590722854,
				"element": "H" 
			},
			{
				"x": 1.008551606,
				"y": -2.0122279758,
				"z": -1.9142818678,
				"element": "H" 
			},
			{
				"x": -1.0959193614,
				"y": -3.1766094656,
				"z": -1.2653055824,
				"element": "H" 
			},
			{
				"x": -0.9867950859,
				"y": -2.4952898878,
				"z": 0.3691873837,
				"element": "H" 
			},
			{
				"x": -1.2496706164,
				"y": -1.4276482582,
				"z": -1.0183600492,
				"element": "H" 
			},
			{
				"x": 1.2329579552,
				"y": -3.6950016131,
				"z": 0.325355688,
				"element": "H" 
			}
		],
		 "valence_orbital": [ 
			{
				"type": "occ",
				"energy": -0.3325,
				"method": "rhf"
			},
			{
				"type": "occ",
				"energy": -0.32268,
				"method": "rhf"
			},
			{
				"type": "occ",
				"energy": -0.31176,
				"method": "rhf"
			},
			{
				"type": "occ",
				"energy": -0.26649,
				"method": "rhf"
			},
			{
				"type": "occ",
				"energy": -0.26195,
				"method": "rhf"
			},
			{
				"type": "unocc",
				"energy": 0.06142,
				"method": "rhf"
			},
			{
				"type": "unocc",
				"energy": 0.08107,
				"method": "rhf"
			},
			{
				"type": "unocc",
				"energy": 0.09133,
				"method": "rhf"
			},
			{
				"type": "unocc",
				"energy": 0.11428,
				"method": "rhf"
			},
			{
				"type": "unocc",
				"energy": 0.12341,
				"method": "rhf"
			}
		],
		"cosmo_sigma_profile": { 
			"-0.025": 0.0,
			"-0.024": 0.0,
			"-0.023": 0.0,
			"-0.022": 0.0,
			"-0.021": 0.0,
			"-0.02": 0.0,
			"-0.019": 0.0,
			"-0.018": 0.0,
			"-0.017": 0.0,
			"-0.016": 0.0,
			"-0.015": 0.287483343608,
			"-0.014": 1.33484570015,
			"-0.013": 1.88380396099,
			"-0.012": 2.13849573964,
			"-0.011": 1.80763655838,
			"-0.01": 1.98538576642,
			"-0.009": 1.9363647753,
			"-0.008": 1.55649378484,
			"-0.007": 2.02213939414,
			"-0.006": 3.46982120527,
			"-0.005": 3.41387774067,
			"-0.004": 6.76941291907,
			"-0.003": 23.3079337415,
			"-0.002": 23.9504081261,
			"-0.001": 22.2962601571,
			"0.0": 21.3984039592,
			"0.001": 18.6827998915,
			"0.002": 5.82388166074,
			"0.003": 2.81486929604,
			"0.004": 2.42243103733,
			"0.005": 2.70413896736,
			"0.006": 2.78217171126,
			"0.007": 1.77710756686,
			"0.008": 3.23332962478,
			"0.009": 2.49458950056,
			"0.01": 2.27434124757,
			"0.011": 2.06306494348,
			"0.012": 2.53640076467,
			"0.013": 3.44556350746,
			"0.014": 3.63389974076,
			"0.015": 3.29594904824,
			"0.016": 0.0,
			"0.017": 0.0,
			"0.018": 0.0,
			"0.019": 0.0,
			"0.02": 0.0,
			"0.021": 0.0,
			"0.022": 0.0,
			"0.023": 0.0,
			"0.024": 0.0,
			"0.025": 0.0
		}
	}
}
