{
	 "smiles": "CC1=C(C=CC(N)=C1)N1C=NN=N1", 
	 "Tm": 409.15, 
	 "num_atms": 22, 
	 "gaussian": { 
		 "optdone": 1, 
		 "sigma_profile": "yes", 
		 "theory": "DFT", 
		 "functional": "B3LYP", 
		 "basiset": "6-31G**", 
		 "properties": { 
			 "R2extent": 3683.0205, 
			 "electric_dipole_moment_norm": 7.52514852744, 
			 "electric_quadrupole_moment_norm": 21.3011796075, 
			 "total_energy": -583.981966297, 
			 "HOMO_LUMO_gap": 0.19473, 
			 "cosmo_polarized_energy": -18.35, 
			 "cosmo_cavitation_energy": 26.57, 
			 "cosmo_dispersion_energy": -19.2, 
			 "cosmo_repulsion_energy": 1.5, 
			 "cosmo_total_nonelectrostatic_energy": 8.87, 
			 "SMD_solvation_energy": 3.47 
		},
		"coords": [
			{
				"x": 0.3058467545,
				"y": -1.0438028158,
				"z": -0.650359372,
				"element": "C" 
			},
			{
				"x": -0.3687384189,
				"y": -0.3201773809,
				"z": 0.4891757107,
				"element": "C" 
			},
			{
				"x": -0.3861589369,
				"y": -0.8432569857,
				"z": 1.7958736705,
				"element": "C" 
			},
			{
				"x": -1.0234997237,
				"y": -0.1600465503,
				"z": 2.8335706429,
				"element": "C" 
			},
			{
				"x": -1.6622538619,
				"y": 1.0500737528,
				"z": 2.5965708551,
				"element": "C" 
			},
			{
				"x": -1.6576596403,
				"y": 1.6035533031,
				"z": 1.3046173892,
				"element": "C" 
			},
			{
				"x": -2.3285509325,
				"y": 2.7891844763,
				"z": 1.0354954539,
				"element": "N" 
			},
			{
				"x": -1.0049747135,
				"y": 0.9018344121,
				"z": 0.2741113622,
				"element": "C" 
			},
			{
				"x": 0.2391141634,
				"y": -2.0958528518,
				"z": 2.0856817826,
				"element": "N" 
			},
			{
				"x": -0.2860599373,
				"y": -3.2163797993,
				"z": 2.6305046623,
				"element": "C" 
			},
			{
				"x": 0.659261186,
				"y": -4.1231271037,
				"z": 2.7579780929,
				"element": "N" 
			},
			{
				"x": 1.7912817031,
				"y": -3.5386682417,
				"z": 2.2746057009,
				"element": "N" 
			},
			{
				"x": 1.5635317946,
				"y": -2.3310193143,
				"z": 1.8748086343,
				"element": "N" 
			},
			{
				"x": -0.0400265296,
				"y": -2.0804499595,
				"z": -0.7235692567,
				"element": "H" 
			},
			{
				"x": 1.3893890496,
				"y": -1.0838640395,
				"z": -0.508002616,
				"element": "H" 
			},
			{
				"x": 0.0957042745,
				"y": -0.5471799271,
				"z": -1.6005861637,
				"element": "H" 
			},
			{
				"x": -1.002767952,
				"y": -0.5762634611,
				"z": 3.8362103056,
				"element": "H" 
			},
			{
				"x": -2.1579396914,
				"y": 1.5717666916,
				"z": 3.4102801512,
				"element": "H" 
			},
			{
				"x": -2.0305049785,
				"y": 3.2920107815,
				"z": 0.2119723819,
				"element": "H" 
			},
			{
				"x": -2.4932494869,
				"y": 3.3960577075,
				"z": 1.8257064732,
				"element": "H" 
			},
			{
				"x": -1.0058981286,
				"y": 1.3202219508,
				"z": -0.7295495201,
				"element": "H" 
			},
			{
				"x": -1.3261459938,
				"y": -3.3248146451,
				"z": 2.8969036591,
				"element": "H" 
			}
		],
		 "valence_orbital": [ 
			{
				"type": "occ",
				"energy": -0.2957,
				"method": "rhf"
			},
			{
				"type": "occ",
				"energy": -0.28986,
				"method": "rhf"
			},
			{
				"type": "occ",
				"energy": -0.27759,
				"method": "rhf"
			},
			{
				"type": "occ",
				"energy": -0.26186,
				"method": "rhf"
			},
			{
				"type": "occ",
				"energy": -0.21921,
				"method": "rhf"
			},
			{
				"type": "unocc",
				"energy": -0.02448,
				"method": "rhf"
			},
			{
				"type": "unocc",
				"energy": -0.01677,
				"method": "rhf"
			},
			{
				"type": "unocc",
				"energy": 0.00735,
				"method": "rhf"
			},
			{
				"type": "unocc",
				"energy": 0.02815,
				"method": "rhf"
			},
			{
				"type": "unocc",
				"energy": 0.0651,
				"method": "rhf"
			}
		],
		"cosmo_sigma_profile": { 
			"-0.025": 0.0,
			"-0.024": 0.0,
			"-0.023": 0.0,
			"-0.022": 0.0,
			"-0.021": 0.0,
			"-0.02": 0.0,
			"-0.019": 0.0,
			"-0.018": 0.0,
			"-0.017": 0.0,
			"-0.016": 0.0,
			"-0.015": 0.0,
			"-0.014": 0.0,
			"-0.013": 1.5436210021,
			"-0.012": 4.39686248706,
			"-0.011": 4.4764191647,
			"-0.01": 4.18387148464,
			"-0.009": 5.45768695474,
			"-0.008": 4.29373389451,
			"-0.007": 9.90334690885,
			"-0.006": 9.00078689222,
			"-0.005": 12.1339140648,
			"-0.004": 13.0467353942,
			"-0.003": 12.4879757183,
			"-0.002": 12.7742485247,
			"-0.001": 12.6716331757,
			"0.0": 12.3929872398,
			"0.001": 9.90159164465,
			"0.002": 8.55615590847,
			"0.003": 10.2819732967,
			"0.004": 13.8542900815,
			"0.005": 11.4231940194,
			"0.006": 4.20457541859,
			"0.007": 3.37312425346,
			"0.008": 6.18647998417,
			"0.009": 5.33743652493,
			"0.01": 5.2852897613,
			"0.011": 5.18572874442,
			"0.012": 3.86946062512,
			"0.013": 3.03406091519,
			"0.014": 2.0669255588,
			"0.015": 0.839943909064,
			"0.016": 0.00641963982612,
			"0.017": 0.0,
			"0.018": 0.0,
			"0.019": 0.0,
			"0.02": 0.0,
			"0.021": 0.0,
			"0.022": 0.0,
			"0.023": 0.0,
			"0.024": 0.0,
			"0.025": 0.0
		}
	}
}
