{
	 "smiles": "[O-][N+](=O)C1=CN(N=C1C1=CC=CC=C1)C1=CC=C(C=C1)[N+]([O-])=O", 
	 "Tm": 504.15, 
	 "num_atms": 33, 
	 "gaussian": { 
		 "optdone": 1, 
		 "sigma_profile": "yes", 
		 "theory": "DFT", 
		 "functional": "B3LYP", 
		 "basiset": "6-31G**", 
		 "properties": { 
			 "R2extent": 10769.6538, 
			 "electric_dipole_moment_norm": 1.77471266688, 
			 "electric_quadrupole_moment_norm": 31.5358394637, 
			 "total_energy": -1097.30122999, 
			 "HOMO_LUMO_gap": 0.13878, 
			 "cosmo_polarized_energy": -17.27, 
			 "cosmo_cavitation_energy": 40.01, 
			 "cosmo_dispersion_energy": -28.8, 
			 "cosmo_repulsion_energy": 2.14, 
			 "cosmo_total_nonelectrostatic_energy": 13.35, 
			 "SMD_solvation_energy": 10.63 
		},
		"coords": [
			{
				"x": -1.8239704961,
				"y": -2.8256780974,
				"z": -1.2426056585,
				"element": "O" 
			},
			{
				"x": -0.7467475225,
				"y": -2.6874554699,
				"z": -0.6632489684,
				"element": "N" 
			},
			{
				"x": -0.0409030431,
				"y": -3.6170644152,
				"z": -0.2590977035,
				"element": "O" 
			},
			{
				"x": -0.2611866984,
				"y": -1.3576717415,
				"z": -0.4137774876,
				"element": "C" 
			},
			{
				"x": 0.8960033377,
				"y": -1.1391598401,
				"z": 0.3062433577,
				"element": "C" 
			},
			{
				"x": 1.0212855885,
				"y": 0.202648448,
				"z": 0.4161055257,
				"element": "N" 
			},
			{
				"x": 0.004880831,
				"y": 0.8640791409,
				"z": -0.2095020765,
				"element": "N" 
			},
			{
				"x": -0.8008343063,
				"y": -0.0637969122,
				"z": -0.724415705,
				"element": "C" 
			},
			{
				"x": -2.0084390917,
				"y": 0.3808205359,
				"z": -1.4485260799,
				"element": "C" 
			},
			{
				"x": -2.4929968073,
				"y": -0.2829180419,
				"z": -2.5858959014,
				"element": "C" 
			},
			{
				"x": -3.5995189797,
				"y": 0.2168266717,
				"z": -3.2704669837,
				"element": "C" 
			},
			{
				"x": -4.2380241146,
				"y": 1.377514433,
				"z": -2.8306282395,
				"element": "C" 
			},
			{
				"x": -3.7599940213,
				"y": 2.0452426172,
				"z": -1.700928887,
				"element": "C" 
			},
			{
				"x": -2.6512913565,
				"y": 1.554161354,
				"z": -1.0165811876,
				"element": "C" 
			},
			{
				"x": 2.0518793597,
				"y": 0.9414766435,
				"z": 1.0509047254,
				"element": "C" 
			},
			{
				"x": 2.1634114529,
				"y": 2.313770394,
				"z": 0.7897052564,
				"element": "C" 
			},
			{
				"x": 3.1714109485,
				"y": 3.0486042853,
				"z": 1.4013754806,
				"element": "C" 
			},
			{
				"x": 4.0565381893,
				"y": 2.4028082422,
				"z": 2.2627296136,
				"element": "C" 
			},
			{
				"x": 3.9535354266,
				"y": 1.0400965534,
				"z": 2.534121888,
				"element": "C" 
			},
			{
				"x": 2.9411240707,
				"y": 0.3058459283,
				"z": 1.9284147345,
				"element": "C" 
			},
			{
				"x": 5.1253512057,
				"y": 3.1792702458,
				"z": 2.9068463861,
				"element": "N" 
			},
			{
				"x": 5.8908136259,
				"y": 2.5775138267,
				"z": 3.6593363212,
				"element": "O" 
			},
			{
				"x": 5.1870876988,
				"y": 4.3812787625,
				"z": 2.6525628553,
				"element": "O" 
			},
			{
				"x": 1.592802933,
				"y": -1.854180318,
				"z": 0.7098510351,
				"element": "H" 
			},
			{
				"x": -2.0099572033,
				"y": -1.1876585867,
				"z": -2.9307970259,
				"element": "H" 
			},
			{
				"x": -3.9629450194,
				"y": -0.3049839991,
				"z": -4.1506761884,
				"element": "H" 
			},
			{
				"x": -5.1042196254,
				"y": 1.7586999898,
				"z": -3.3636872872,
				"element": "H" 
			},
			{
				"x": -4.2525881644,
				"y": 2.9473935396,
				"z": -1.3503009066,
				"element": "H" 
			},
			{
				"x": -2.2745651321,
				"y": 2.0699038461,
				"z": -0.1399522388,
				"element": "H" 
			},
			{
				"x": 1.4599996392,
				"y": 2.7809990139,
				"z": 0.1130461016,
				"element": "H" 
			},
			{
				"x": 3.2855806471,
				"y": 4.1095027074,
				"z": 1.2179342343,
				"element": "H" 
			},
			{
				"x": 4.6544750454,
				"y": 0.5779678445,
				"z": 3.2175128587,
				"element": "H" 
			},
			{
				"x": 2.8418015821,
				"y": -0.7488576018,
				"z": 2.1567981514,
				"element": "H" 
			}
		],
		 "valence_orbital": [ 
			{
				"type": "occ",
				"energy": -0.2975,
				"method": "rhf"
			},
			{
				"type": "occ",
				"energy": -0.29596,
				"method": "rhf"
			},
			{
				"type": "occ",
				"energy": -0.27949,
				"method": "rhf"
			},
			{
				"type": "occ",
				"energy": -0.25918,
				"method": "rhf"
			},
			{
				"type": "occ",
				"energy": -0.24732,
				"method": "rhf"
			},
			{
				"type": "unocc",
				"energy": -0.10854,
				"method": "rhf"
			},
			{
				"type": "unocc",
				"energy": -0.08909,
				"method": "rhf"
			},
			{
				"type": "unocc",
				"energy": -0.05061,
				"method": "rhf"
			},
			{
				"type": "unocc",
				"energy": -0.04753,
				"method": "rhf"
			},
			{
				"type": "unocc",
				"energy": -0.01356,
				"method": "rhf"
			}
		],
		"cosmo_sigma_profile": { 
			"-0.025": 0.0,
			"-0.024": 0.0,
			"-0.023": 0.0,
			"-0.022": 0.0,
			"-0.021": 0.0,
			"-0.02": 0.0,
			"-0.019": 0.0,
			"-0.018": 0.0,
			"-0.017": 0.0,
			"-0.016": 0.0,
			"-0.015": 0.0,
			"-0.014": 0.149617852266,
			"-0.013": 1.40333942234,
			"-0.012": 2.06557101552,
			"-0.011": 1.56830013355,
			"-0.01": 2.05561818131,
			"-0.009": 2.16435892159,
			"-0.008": 6.30077323562,
			"-0.007": 9.41089255693,
			"-0.006": 16.3375901508,
			"-0.005": 19.9916907228,
			"-0.004": 25.4462242424,
			"-0.003": 23.9875969947,
			"-0.002": 26.7103617811,
			"-0.001": 25.6660411258,
			"0.0": 25.5249571645,
			"0.001": 17.0799067133,
			"0.002": 12.5000342754,
			"0.003": 15.3769709835,
			"0.004": 17.9732158129,
			"0.005": 15.3727784621,
			"0.006": 10.758041136,
			"0.007": 16.9717097309,
			"0.008": 14.4838743501,
			"0.009": 8.79670454368,
			"0.01": 5.19438558993,
			"0.011": 0.260699816905,
			"0.012": 0.0,
			"0.013": 0.0,
			"0.014": 0.0,
			"0.015": 0.0,
			"0.016": 0.0,
			"0.017": 0.0,
			"0.018": 0.0,
			"0.019": 0.0,
			"0.02": 0.0,
			"0.021": 0.0,
			"0.022": 0.0,
			"0.023": 0.0,
			"0.024": 0.0,
			"0.025": 0.0
		}
	}
}
