{
	 "smiles": "CNC(C)(CN1C=C(Br)C=N1)C#N", 
	 "Tm": 307.15, 
	 "num_atms": 24, 
	 "gaussian": { 
		 "optdone": 1, 
		 "sigma_profile": "yes", 
		 "theory": "DFT", 
		 "functional": "B3LYP", 
		 "basiset": "6-31G**", 
		 "properties": { 
			 "R2extent": 5138.1652, 
			 "electric_dipole_moment_norm": 3.42537114048, 
			 "electric_quadrupole_moment_norm": 11.738357351, 
			 "total_energy": -3101.83744332, 
			 "HOMO_LUMO_gap": 0.23359, 
			 "cosmo_polarized_energy": -13.43, 
			 "cosmo_cavitation_energy": 30.31, 
			 "cosmo_dispersion_energy": -21.16, 
			 "cosmo_repulsion_energy": 1.7, 
			 "cosmo_total_nonelectrostatic_energy": 10.85, 
			 "SMD_solvation_energy": 3.54 
		},
		"coords": [
			{
				"x": -2.5875385772,
				"y": -1.7333569602,
				"z": 0.1913893917,
				"element": "C" 
			},
			{
				"x": -1.660323435,
				"y": -0.7696610434,
				"z": 0.7821150657,
				"element": "N" 
			},
			{
				"x": -0.23728648,
				"y": -1.0865348224,
				"z": 0.7112880869,
				"element": "C" 
			},
			{
				"x": 0.1068310241,
				"y": -2.2443593102,
				"z": 1.6717191608,
				"element": "C" 
			},
			{
				"x": 0.5634762418,
				"y": 0.1684758164,
				"z": 1.1592618686,
				"element": "C" 
			},
			{
				"x": 0.4940418243,
				"y": 1.2890277171,
				"z": 0.2373561096,
				"element": "N" 
			},
			{
				"x": 1.4559217018,
				"y": 1.7254918324,
				"z": -0.6196572589,
				"element": "C" 
			},
			{
				"x": 0.9028740243,
				"y": 2.7889077208,
				"z": -1.3054584522,
				"element": "C" 
			},
			{
				"x": 1.7391000933,
				"y": 3.8413792802,
				"z": -2.6221346475,
				"element": "Br" 
			},
			{
				"x": -0.4071372027,
				"y": 2.9216616374,
				"z": -0.8039177448,
				"element": "C" 
			},
			{
				"x": -0.6509776863,
				"y": 2.0087987987,
				"z": 0.134652176,
				"element": "N" 
			},
			{
				"x": 0.2041888863,
				"y": -1.4631933533,
				"z": -0.6666815556,
				"element": "C" 
			},
			{
				"x": 0.4993861601,
				"y": -1.7655395971,
				"z": -1.7487989081,
				"element": "N" 
			},
			{
				"x": -2.5876253669,
				"y": -2.6676806197,
				"z": 0.7613772022,
				"element": "H" 
			},
			{
				"x": -3.5956935473,
				"y": -1.31586304,
				"z": 0.2538099991,
				"element": "H" 
			},
			{
				"x": -2.3777858485,
				"y": -1.9755049486,
				"z": -0.8625230525,
				"element": "H" 
			},
			{
				"x": -1.8144017824,
				"y": 0.1602289288,
				"z": 0.3965559214,
				"element": "H" 
			},
			{
				"x": -0.1794420497,
				"y": -1.9580552028,
				"z": 2.6872407412,
				"element": "H" 
			},
			{
				"x": -0.4394053809,
				"y": -3.1497798383,
				"z": 1.4008730457,
				"element": "H" 
			},
			{
				"x": 1.1754027521,
				"y": -2.4757658348,
				"z": 1.6424507634,
				"element": "H" 
			},
			{
				"x": 0.1556445378,
				"y": 0.4871652032,
				"z": 2.1218383342,
				"element": "H" 
			},
			{
				"x": 1.6165650091,
				"y": -0.0917657174,
				"z": 1.2821327139,
				"element": "H" 
			},
			{
				"x": 2.4302282082,
				"y": 1.2665675252,
				"z": -0.684024697,
				"element": "H" 
			},
			{
				"x": -1.1635431061,
				"y": 3.6407558278,
				"z": -1.0840642641,
				"element": "H" 
			}
		],
		 "valence_orbital": [ 
			{
				"type": "occ",
				"energy": -0.31662,
				"method": "rhf"
			},
			{
				"type": "occ",
				"energy": -0.28744,
				"method": "rhf"
			},
			{
				"type": "occ",
				"energy": -0.27337,
				"method": "rhf"
			},
			{
				"type": "occ",
				"energy": -0.24578,
				"method": "rhf"
			},
			{
				"type": "occ",
				"energy": -0.24001,
				"method": "rhf"
			},
			{
				"type": "unocc",
				"energy": -0.00642,
				"method": "rhf"
			},
			{
				"type": "unocc",
				"energy": 0.01137,
				"method": "rhf"
			},
			{
				"type": "unocc",
				"energy": 0.02544,
				"method": "rhf"
			},
			{
				"type": "unocc",
				"energy": 0.03163,
				"method": "rhf"
			},
			{
				"type": "unocc",
				"energy": 0.04947,
				"method": "rhf"
			}
		],
		"cosmo_sigma_profile": { 
			"-0.025": 0.0,
			"-0.024": 0.0,
			"-0.023": 0.0,
			"-0.022": 0.0,
			"-0.021": 0.0,
			"-0.02": 0.0,
			"-0.019": 0.0,
			"-0.018": 0.0,
			"-0.017": 0.0,
			"-0.016": 0.0,
			"-0.015": 0.0,
			"-0.014": 0.0,
			"-0.013": 0.0,
			"-0.012": 0.0448662127662,
			"-0.011": 1.47342090577,
			"-0.01": 3.34826365807,
			"-0.009": 4.77671536152,
			"-0.008": 5.52329989647,
			"-0.007": 7.34667617611,
			"-0.006": 10.7991694194,
			"-0.005": 17.0190298942,
			"-0.004": 16.7052887545,
			"-0.003": 15.824586132,
			"-0.002": 20.4951377745,
			"-0.001": 21.8351455978,
			"0.0": 13.8461022551,
			"0.001": 12.3513432509,
			"0.002": 15.7283304562,
			"0.003": 19.4562538529,
			"0.004": 17.3499234797,
			"0.005": 7.9654220817,
			"0.006": 4.21866208648,
			"0.007": 4.48500795835,
			"0.008": 4.69843765148,
			"0.009": 4.23132895654,
			"0.01": 3.95920221411,
			"0.011": 4.10553826086,
			"0.012": 3.68108403334,
			"0.013": 2.35819702341,
			"0.014": 0.49697974382,
			"0.015": 0.18129498794,
			"0.016": 0.0,
			"0.017": 0.0,
			"0.018": 0.0,
			"0.019": 0.0,
			"0.02": 0.0,
			"0.021": 0.0,
			"0.022": 0.0,
			"0.023": 0.0,
			"0.024": 0.0,
			"0.025": 0.0
		}
	}
}
