{
	 "smiles": "ClC1=NC=NC2=C1SC=C2", 
	 "Tm": 399.15, 
	 "num_atms": 13, 
	 "gaussian": { 
		 "optdone": 1, 
		 "sigma_profile": "yes", 
		 "theory": "DFT", 
		 "functional": "B3LYP", 
		 "basiset": "6-31G**", 
		 "properties": { 
			 "R2extent": 2197.6768, 
			 "electric_dipole_moment_norm": 2.98820804329, 
			 "electric_quadrupole_moment_norm": 5.35574118027, 
			 "total_energy": -1198.31819671, 
			 "HOMO_LUMO_gap": 0.19063, 
			 "cosmo_polarized_energy": -6.92, 
			 "cosmo_cavitation_energy": 21.0, 
			 "cosmo_dispersion_energy": -16.69, 
			 "cosmo_repulsion_energy": 1.28, 
			 "cosmo_total_nonelectrostatic_energy": 5.59, 
			 "SMD_solvation_energy": 0.27 
		},
		"coords": [
			{
				"x": 1.76288388,
				"y": 1.9571029859,
				"z": 2.8045917607,
				"element": "Cl" 
			},
			{
				"x": 0.6379502369,
				"y": 1.5871096805,
				"z": 1.5113285552,
				"element": "C" 
			},
			{
				"x": -0.5114557704,
				"y": 2.2263573202,
				"z": 1.4890493912,
				"element": "N" 
			},
			{
				"x": -1.3612608682,
				"y": 1.9239249832,
				"z": 0.4830743075,
				"element": "C" 
			},
			{
				"x": -1.1722377418,
				"y": 1.0494112758,
				"z": -0.495806579,
				"element": "N" 
			},
			{
				"x": 0.0075392706,
				"y": 0.3983369021,
				"z": -0.4665113237,
				"element": "C" 
			},
			{
				"x": 0.9735328078,
				"y": 0.6383069173,
				"z": 0.5446193494,
				"element": "C" 
			},
			{
				"x": 2.3985657605,
				"y": -0.3419168274,
				"z": 0.3325476915,
				"element": "S" 
			},
			{
				"x": 1.6936105794,
				"y": -1.061526983,
				"z": -1.1006457248,
				"element": "C" 
			},
			{
				"x": 0.4548532132,
				"y": -0.593343296,
				"z": -1.4064796003,
				"element": "C" 
			},
			{
				"x": -2.3037485072,
				"y": 2.4655036976,
				"z": 0.486660535,
				"element": "H" 
			},
			{
				"x": 2.2649674009,
				"y": -1.8077862451,
				"z": -1.6367608358,
				"element": "H" 
			},
			{
				"x": -0.1382002616,
				"y": -0.9169804111,
				"z": -2.252367527,
				"element": "H" 
			}
		],
		 "valence_orbital": [ 
			{
				"type": "occ",
				"energy": -0.31501,
				"method": "rhf"
			},
			{
				"type": "occ",
				"energy": -0.31291,
				"method": "rhf"
			},
			{
				"type": "occ",
				"energy": -0.27584,
				"method": "rhf"
			},
			{
				"type": "occ",
				"energy": -0.27238,
				"method": "rhf"
			},
			{
				"type": "occ",
				"energy": -0.25855,
				"method": "rhf"
			},
			{
				"type": "unocc",
				"energy": -0.06792,
				"method": "rhf"
			},
			{
				"type": "unocc",
				"energy": -0.03874,
				"method": "rhf"
			},
			{
				"type": "unocc",
				"energy": -0.00574,
				"method": "rhf"
			},
			{
				"type": "unocc",
				"energy": 0.02029,
				"method": "rhf"
			},
			{
				"type": "unocc",
				"energy": 0.03445,
				"method": "rhf"
			}
		],
		"cosmo_sigma_profile": { 
			"-0.025": 0.0,
			"-0.024": 0.0,
			"-0.023": 0.0,
			"-0.022": 0.0,
			"-0.021": 0.0,
			"-0.02": 0.0,
			"-0.019": 0.0,
			"-0.018": 0.0,
			"-0.017": 0.0,
			"-0.016": 0.0,
			"-0.015": 0.0,
			"-0.014": 0.0,
			"-0.013": 0.0,
			"-0.012": 0.0,
			"-0.011": 0.255103406142,
			"-0.01": 2.52055815072,
			"-0.009": 2.7930001283,
			"-0.008": 5.43181377291,
			"-0.007": 5.21743422849,
			"-0.006": 5.10331074992,
			"-0.005": 5.28924956295,
			"-0.004": 5.77063280426,
			"-0.003": 11.8425149645,
			"-0.002": 16.0235866273,
			"-0.001": 17.2826673924,
			"0.0": 20.8451645732,
			"0.001": 20.3264176923,
			"0.002": 16.9013021989,
			"0.003": 13.5831564092,
			"0.004": 4.64003602838,
			"0.005": 4.19550096675,
			"0.006": 2.16929110866,
			"0.007": 3.15823197395,
			"0.008": 2.04358314418,
			"0.009": 1.87419180668,
			"0.01": 1.27812955357,
			"0.011": 2.727184607,
			"0.012": 1.10481157776,
			"0.013": 1.80779055421,
			"0.014": 0.757918550425,
			"0.015": 0.229554466983,
			"0.016": 0.0,
			"0.017": 0.0,
			"0.018": 0.0,
			"0.019": 0.0,
			"0.02": 0.0,
			"0.021": 0.0,
			"0.022": 0.0,
			"0.023": 0.0,
			"0.024": 0.0,
			"0.025": 0.0
		}
	}
}
