{
	 "smiles": "FC(F)(Br)CBr", 
	 "Tm": 212.15, 
	 "num_atms": 8, 
	 "gaussian": { 
		 "optdone": 1, 
		 "sigma_profile": "yes", 
		 "theory": "DFT", 
		 "functional": "B3LYP", 
		 "basiset": "6-31G**", 
		 "properties": { 
			 "R2extent": 2939.063, 
			 "electric_dipole_moment_norm": 1.56102728676, 
			 "electric_quadrupole_moment_norm": 4.57326153965, 
			 "total_energy": -5419.8990259, 
			 "HOMO_LUMO_gap": 0.24187, 
			 "cosmo_polarized_energy": -4.39, 
			 "cosmo_cavitation_energy": 17.42, 
			 "cosmo_dispersion_energy": -13.49, 
			 "cosmo_repulsion_energy": 1.13, 
			 "cosmo_total_nonelectrostatic_energy": 5.07, 
			 "SMD_solvation_energy": 1.48 
		},
		"coords": [
			{
				"x": -0.1893405535,
				"y": 1.9606569792,
				"z": 0.4905372099,
				"element": "F" 
			},
			{
				"x": 0.4629337606,
				"y": 1.5439486838,
				"z": -0.6034749863,
				"element": "C" 
			},
			{
				"x": -0.1021133424,
				"y": 0.4054436345,
				"z": -1.028345291,
				"element": "F" 
			},
			{
				"x": 0.219735398,
				"y": 2.9198017591,
				"z": -2.0262275142,
				"element": "Br" 
			},
			{
				"x": 1.9493217966,
				"y": 1.3874249335,
				"z": -0.3579152336,
				"element": "C" 
			},
			{
				"x": 2.3017578191,
				"y": 0.0464052198,
				"z": 1.0357466062,
				"element": "Br" 
			},
			{
				"x": 2.4434473388,
				"y": 1.0494672418,
				"z": -1.2656658323,
				"element": "H" 
			},
			{
				"x": 2.3718577827,
				"y": 2.3292515483,
				"z": -0.0161549587,
				"element": "H" 
			}
		],
		 "valence_orbital": [ 
			{
				"type": "occ",
				"energy": -0.36116,
				"method": "rhf"
			},
			{
				"type": "occ",
				"energy": -0.30925,
				"method": "rhf"
			},
			{
				"type": "occ",
				"energy": -0.30836,
				"method": "rhf"
			},
			{
				"type": "occ",
				"energy": -0.29684,
				"method": "rhf"
			},
			{
				"type": "occ",
				"energy": -0.29347,
				"method": "rhf"
			},
			{
				"type": "unocc",
				"energy": -0.0516,
				"method": "rhf"
			},
			{
				"type": "unocc",
				"energy": -0.00241,
				"method": "rhf"
			},
			{
				"type": "unocc",
				"energy": 0.09447,
				"method": "rhf"
			},
			{
				"type": "unocc",
				"energy": 0.096,
				"method": "rhf"
			},
			{
				"type": "unocc",
				"energy": 0.15639,
				"method": "rhf"
			}
		],
		"cosmo_sigma_profile": { 
			"-0.025": 0.0,
			"-0.024": 0.0,
			"-0.023": 0.0,
			"-0.022": 0.0,
			"-0.021": 0.0,
			"-0.02": 0.0,
			"-0.019": 0.0,
			"-0.018": 0.0,
			"-0.017": 0.0,
			"-0.016": 0.0,
			"-0.015": 0.0,
			"-0.014": 0.0,
			"-0.013": 0.0,
			"-0.012": 0.0,
			"-0.011": 0.650705780222,
			"-0.01": 3.82368319001,
			"-0.009": 3.5750574656,
			"-0.008": 3.67378053471,
			"-0.007": 3.55198206448,
			"-0.006": 3.84381689816,
			"-0.005": 4.20113625724,
			"-0.004": 5.35177307199,
			"-0.003": 4.85116123055,
			"-0.002": 6.70373779606,
			"-0.001": 7.66752238786,
			"0.0": 9.59213594034,
			"0.001": 13.9270780948,
			"0.002": 31.4966117347,
			"0.003": 23.082983273,
			"0.004": 13.6935635916,
			"0.005": 6.02271812129,
			"0.006": 0.000726867442368,
			"0.007": 0.0,
			"0.008": 0.0,
			"0.009": 0.0,
			"0.01": 0.0,
			"0.011": 0.0,
			"0.012": 0.0,
			"0.013": 0.0,
			"0.014": 0.0,
			"0.015": 0.0,
			"0.016": 0.0,
			"0.017": 0.0,
			"0.018": 0.0,
			"0.019": 0.0,
			"0.02": 0.0,
			"0.021": 0.0,
			"0.022": 0.0,
			"0.023": 0.0,
			"0.024": 0.0,
			"0.025": 0.0
		}
	}
}
