{
	 "smiles": "CC(C)(C)OC(=O)N1CCCC2=C1C=C(N)C=C2", 
	 "Tm": 364.15, 
	 "num_atms": 38, 
	 "gaussian": { 
		 "optdone": 1, 
		 "sigma_profile": "yes", 
		 "theory": "DFT", 
		 "functional": "B3LYP", 
		 "basiset": "6-31G**", 
		 "properties": { 
			 "R2extent": 4986.1206, 
			 "electric_dipole_moment_norm": 2.67079010033, 
			 "electric_quadrupole_moment_norm": 10.8228628532, 
			 "total_energy": -805.542691821, 
			 "HOMO_LUMO_gap": 0.19626, 
			 "cosmo_polarized_energy": -12.35, 
			 "cosmo_cavitation_energy": 38.56, 
			 "cosmo_dispersion_energy": -26.59, 
			 "cosmo_repulsion_energy": 2.06, 
			 "cosmo_total_nonelectrostatic_energy": 14.02, 
			 "SMD_solvation_energy": 6.64 
		},
		"coords": [
			{
				"x": 0.8681696765,
				"y": 3.4195903961,
				"z": 0.65979469,
				"element": "C" 
			},
			{
				"x": 0.7996350544,
				"y": 2.6417606835,
				"z": -0.6586956326,
				"element": "C" 
			},
			{
				"x": -0.3677223942,
				"y": 3.1349400374,
				"z": -1.5187570186,
				"element": "C" 
			},
			{
				"x": 2.1134858387,
				"y": 2.7104268237,
				"z": -1.4447266717,
				"element": "C" 
			},
			{
				"x": 0.4339851341,
				"y": 1.237933943,
				"z": -0.4055260229,
				"element": "O" 
			},
			{
				"x": 1.2363627081,
				"y": 0.43748333,
				"z": 0.3273538257,
				"element": "C" 
			},
			{
				"x": 2.2851907238,
				"y": 0.7897723141,
				"z": 0.8495794917,
				"element": "O" 
			},
			{
				"x": 0.7439408242,
				"y": -0.8542794889,
				"z": 0.4294342617,
				"element": "N" 
			},
			{
				"x": 1.6552224744,
				"y": -1.8563788231,
				"z": 1.0014014476,
				"element": "C" 
			},
			{
				"x": 2.1108991656,
				"y": -2.812771139,
				"z": -0.1005912746,
				"element": "C" 
			},
			{
				"x": 0.8962650993,
				"y": -3.5495830293,
				"z": -0.6799062735,
				"element": "C" 
			},
			{
				"x": -0.3453529096,
				"y": -2.6787811474,
				"z": -0.7735236842,
				"element": "C" 
			},
			{
				"x": -0.4118754949,
				"y": -1.3791541193,
				"z": -0.2291506867,
				"element": "C" 
			},
			{
				"x": -1.6122976422,
				"y": -0.6582663444,
				"z": -0.2679152248,
				"element": "C" 
			},
			{
				"x": -2.7513478131,
				"y": -1.1813577261,
				"z": -0.889247856,
				"element": "C" 
			},
			{
				"x": -3.9542065366,
				"y": -0.4647976149,
				"z": -0.88038314,
				"element": "N" 
			},
			{
				"x": -2.6841271153,
				"y": -2.4652464174,
				"z": -1.4555262817,
				"element": "C" 
			},
			{
				"x": -1.5006761471,
				"y": -3.1870835813,
				"z": -1.3795386179,
				"element": "C" 
			},
			{
				"x": 1.0181577037,
				"y": 4.4837057853,
				"z": 0.4495414489,
				"element": "H" 
			},
			{
				"x": -0.0703875055,
				"y": 3.3130814162,
				"z": 1.2133701402,
				"element": "H" 
			},
			{
				"x": 1.6881826359,
				"y": 3.0623715532,
				"z": 1.2823452977,
				"element": "H" 
			},
			{
				"x": -0.2085905843,
				"y": 4.1791025434,
				"z": -1.8039892557,
				"element": "H" 
			},
			{
				"x": -0.4568895196,
				"y": 2.5345271586,
				"z": -2.4284766743,
				"element": "H" 
			},
			{
				"x": -1.3106074185,
				"y": 3.069316861,
				"z": -0.9672974418,
				"element": "H" 
			},
			{
				"x": 2.0400412704,
				"y": 2.1125037616,
				"z": -2.358719208,
				"element": "H" 
			},
			{
				"x": 2.3139732664,
				"y": 3.747611037,
				"z": -1.7327725971,
				"element": "H" 
			},
			{
				"x": 2.9467046701,
				"y": 2.3429005029,
				"z": -0.8459955996,
				"element": "H" 
			},
			{
				"x": 2.4881759567,
				"y": -1.3202534877,
				"z": 1.4513246947,
				"element": "H" 
			},
			{
				"x": 1.1218134099,
				"y": -2.4024746475,
				"z": 1.789673201,
				"element": "H" 
			},
			{
				"x": 2.6171963045,
				"y": -2.2262656264,
				"z": -0.8763187732,
				"element": "H" 
			},
			{
				"x": 2.8422204668,
				"y": -3.5278645295,
				"z": 0.2922595622,
				"element": "H" 
			},
			{
				"x": 1.1372007182,
				"y": -3.9655515673,
				"z": -1.6659509251,
				"element": "H" 
			},
			{
				"x": 0.6655549755,
				"y": -4.4135926015,
				"z": -0.040302434,
				"element": "H" 
			},
			{
				"x": -1.6558345229,
				"y": 0.3228512478,
				"z": 0.1867983716,
				"element": "H" 
			},
			{
				"x": -3.8468507714,
				"y": 0.5384110873,
				"z": -0.8157305678,
				"element": "H" 
			},
			{
				"x": -4.6006775403,
				"y": -0.7197554811,
				"z": -1.6147072749,
				"element": "H" 
			},
			{
				"x": -3.5590790828,
				"y": -2.8933705596,
				"z": -1.9379680133,
				"element": "H" 
			},
			{
				"x": -1.463555079,
				"y": -4.1853625502,
				"z": -1.8106592829,
				"element": "H" 
			}
		],
		 "valence_orbital": [ 
			{
				"type": "occ",
				"energy": -0.28559,
				"method": "rhf"
			},
			{
				"type": "occ",
				"energy": -0.26869,
				"method": "rhf"
			},
			{
				"type": "occ",
				"energy": -0.2588,
				"method": "rhf"
			},
			{
				"type": "occ",
				"energy": -0.21256,
				"method": "rhf"
			},
			{
				"type": "occ",
				"energy": -0.19206,
				"method": "rhf"
			},
			{
				"type": "unocc",
				"energy": 0.0042,
				"method": "rhf"
			},
			{
				"type": "unocc",
				"energy": 0.01894,
				"method": "rhf"
			},
			{
				"type": "unocc",
				"energy": 0.06154,
				"method": "rhf"
			},
			{
				"type": "unocc",
				"energy": 0.07359,
				"method": "rhf"
			},
			{
				"type": "unocc",
				"energy": 0.09096,
				"method": "rhf"
			}
		],
		"cosmo_sigma_profile": { 
			"-0.025": 0.0,
			"-0.024": 0.0,
			"-0.023": 0.0,
			"-0.022": 0.0,
			"-0.021": 0.0,
			"-0.02": 0.0,
			"-0.019": 0.0,
			"-0.018": 0.0,
			"-0.017": 0.0,
			"-0.016": 0.0,
			"-0.015": 0.0,
			"-0.014": 0.0,
			"-0.013": 0.0,
			"-0.012": 1.23449053516,
			"-0.011": 2.75789413236,
			"-0.01": 2.59743318773,
			"-0.009": 3.29128460687,
			"-0.008": 3.13060547377,
			"-0.007": 2.42072627085,
			"-0.006": 3.61467240879,
			"-0.005": 6.09962076728,
			"-0.004": 22.6225409866,
			"-0.003": 37.3381269239,
			"-0.002": 37.8999762344,
			"-0.001": 34.4413361006,
			"0.0": 36.9930667946,
			"0.001": 25.1084627725,
			"0.002": 11.2502368817,
			"0.003": 10.6825703379,
			"0.004": 9.54545449787,
			"0.005": 9.89815121886,
			"0.006": 11.229849418,
			"0.007": 10.285215844,
			"0.008": 3.93799814537,
			"0.009": 2.66449378318,
			"0.01": 2.68019849419,
			"0.011": 2.04772750535,
			"0.012": 3.00130402979,
			"0.013": 3.19428852944,
			"0.014": 0.663891814826,
			"0.015": 0.462809247799,
			"0.016": 0.105150470368,
			"0.017": 0.0,
			"0.018": 0.0,
			"0.019": 0.0,
			"0.02": 0.0,
			"0.021": 0.0,
			"0.022": 0.0,
			"0.023": 0.0,
			"0.024": 0.0,
			"0.025": 0.0
		}
	}
}
