{
	 "smiles": "COC1=C(C=C(C)C=C1)N1C=C(C=CC1=O)C(O)=O", 
	 "Tm": 518.15, 
	 "num_atms": 32, 
	 "gaussian": { 
		 "optdone": 1, 
		 "sigma_profile": "yes", 
		 "theory": "DFT", 
		 "functional": "B3LYP", 
		 "basiset": "6-31G**", 
		 "properties": { 
			 "R2extent": 5418.3849, 
			 "electric_dipole_moment_norm": 5.33342390027, 
			 "electric_quadrupole_moment_norm": 24.8684939695, 
			 "total_energy": -896.968890173, 
			 "HOMO_LUMO_gap": 0.16927, 
			 "cosmo_polarized_energy": -20.35, 
			 "cosmo_cavitation_energy": 36.96, 
			 "cosmo_dispersion_energy": -25.2, 
			 "cosmo_repulsion_energy": 1.95, 
			 "cosmo_total_nonelectrostatic_energy": 13.71, 
			 "SMD_solvation_energy": 9.17 
		},
		"coords": [
			{
				"x": 0.6409197242,
				"y": 1.864519737,
				"z": -2.4208678058,
				"element": "C" 
			},
			{
				"x": 0.3901083097,
				"y": 2.1309111765,
				"z": -1.0351985861,
				"element": "O" 
			},
			{
				"x": 1.361618698,
				"y": 1.6490842609,
				"z": -0.1805807675,
				"element": "C" 
			},
			{
				"x": 1.1557014033,
				"y": 0.4499700687,
				"z": 0.5206096864,
				"element": "C" 
			},
			{
				"x": 2.1260268364,
				"y": -0.0135711527,
				"z": 1.4113353059,
				"element": "C" 
			},
			{
				"x": 3.3120324348,
				"y": 0.6958572061,
				"z": 1.6204323154,
				"element": "C" 
			},
			{
				"x": 4.3711158631,
				"y": 0.1653655833,
				"z": 2.5576384768,
				"element": "C" 
			},
			{
				"x": 3.4977369322,
				"y": 1.8992375603,
				"z": 0.9251024902,
				"element": "C" 
			},
			{
				"x": 2.5359955721,
				"y": 2.3717758801,
				"z": 0.0359714442,
				"element": "C" 
			},
			{
				"x": -0.0665654487,
				"y": -0.283022006,
				"z": 0.3299671866,
				"element": "N" 
			},
			{
				"x": -1.2524693998,
				"y": 0.3707471039,
				"z": 0.4923977472,
				"element": "C" 
			},
			{
				"x": -2.462646114,
				"y": -0.2354729166,
				"z": 0.2767090903,
				"element": "C" 
			},
			{
				"x": -2.4618391632,
				"y": -1.6209541001,
				"z": -0.0821571996,
				"element": "C" 
			},
			{
				"x": -1.2928116933,
				"y": -2.2925942025,
				"z": -0.2550523414,
				"element": "C" 
			},
			{
				"x": 0.004684368,
				"y": -1.6657821708,
				"z": -0.075552718,
				"element": "C" 
			},
			{
				"x": 1.0887154513,
				"y": -2.2092965937,
				"z": -0.2339210435,
				"element": "O" 
			},
			{
				"x": -3.7586693864,
				"y": 0.4642021095,
				"z": 0.4738800759,
				"element": "C" 
			},
			{
				"x": -3.7349733138,
				"y": 1.8280906688,
				"z": 0.4429930858,
				"element": "O" 
			},
			{
				"x": -4.8028486947,
				"y": -0.1182422968,
				"z": 0.6560238604,
				"element": "O" 
			},
			{
				"x": 1.5824516211,
				"y": 2.3219158977,
				"z": -2.747040932,
				"element": "H" 
			},
			{
				"x": 0.6816306448,
				"y": 0.7861368646,
				"z": -2.6151606841,
				"element": "H" 
			},
			{
				"x": -0.1881230569,
				"y": 2.3063843183,
				"z": -2.9767829085,
				"element": "H" 
			},
			{
				"x": 1.9515039117,
				"y": -0.9476934467,
				"z": 1.9327990034,
				"element": "H" 
			},
			{
				"x": 4.9606109426,
				"y": 0.9767163889,
				"z": 2.9945722409,
				"element": "H" 
			},
			{
				"x": 5.0664820702,
				"y": -0.4979347907,
				"z": 2.0288756442,
				"element": "H" 
			},
			{
				"x": 3.9302889469,
				"y": -0.4126114575,
				"z": 3.3749375629,
				"element": "H" 
			},
			{
				"x": 4.4047954539,
				"y": 2.4759594945,
				"z": 1.0853876577,
				"element": "H" 
			},
			{
				"x": 2.6741360896,
				"y": 3.3108094182,
				"z": -0.4909419355,
				"element": "H" 
			},
			{
				"x": -1.1622496542,
				"y": 1.3921276095,
				"z": 0.8402993527,
				"element": "H" 
			},
			{
				"x": -3.4218386438,
				"y": -2.1108167874,
				"z": -0.2107477701,
				"element": "H" 
			},
			{
				"x": -1.2651719269,
				"y": -3.3382834317,
				"z": -0.5386406154,
				"element": "H" 
			},
			{
				"x": -2.9073487778,
				"y": 2.1414640062,
				"z": 0.0518130805,
				"element": "H" 
			}
		],
		 "valence_orbital": [ 
			{
				"type": "occ",
				"energy": -0.27612,
				"method": "rhf"
			},
			{
				"type": "occ",
				"energy": -0.26947,
				"method": "rhf"
			},
			{
				"type": "occ",
				"energy": -0.26189,
				"method": "rhf"
			},
			{
				"type": "occ",
				"energy": -0.24945,
				"method": "rhf"
			},
			{
				"type": "occ",
				"energy": -0.22979,
				"method": "rhf"
			},
			{
				"type": "unocc",
				"energy": -0.06052,
				"method": "rhf"
			},
			{
				"type": "unocc",
				"energy": -0.03431,
				"method": "rhf"
			},
			{
				"type": "unocc",
				"energy": -0.01828,
				"method": "rhf"
			},
			{
				"type": "unocc",
				"energy": -0.01425,
				"method": "rhf"
			},
			{
				"type": "unocc",
				"energy": 0.05159,
				"method": "rhf"
			}
		],
		"cosmo_sigma_profile": { 
			"-0.025": 0.0,
			"-0.024": 0.0,
			"-0.023": 0.0,
			"-0.022": 0.0,
			"-0.021": 0.0,
			"-0.02": 0.0,
			"-0.019": 0.0,
			"-0.018": 0.0,
			"-0.017": 0.389157505331,
			"-0.016": 1.06271462209,
			"-0.015": 1.28268090444,
			"-0.014": 1.07740373469,
			"-0.013": 1.31933324718,
			"-0.012": 1.48948359368,
			"-0.011": 1.75299652892,
			"-0.01": 1.85012242188,
			"-0.009": 1.23474785872,
			"-0.008": 2.08548326798,
			"-0.007": 5.84864316822,
			"-0.006": 12.6836120343,
			"-0.005": 21.3012348746,
			"-0.004": 29.5561028534,
			"-0.003": 30.5865258382,
			"-0.002": 24.6323940095,
			"-0.001": 22.628563015,
			"0.0": 22.1815750665,
			"0.001": 19.4602192419,
			"0.002": 13.6579573314,
			"0.003": 11.9362996705,
			"0.004": 10.848368582,
			"0.005": 6.35900185401,
			"0.006": 4.32941532722,
			"0.007": 5.23912019934,
			"0.008": 4.03817970762,
			"0.009": 4.61485168299,
			"0.01": 7.03765831053,
			"0.011": 8.15419852409,
			"0.012": 6.96345826132,
			"0.013": 6.59478907583,
			"0.014": 2.41169219754,
			"0.015": 0.0886334899812,
			"0.016": 0.0,
			"0.017": 0.0,
			"0.018": 0.0,
			"0.019": 0.0,
			"0.02": 0.0,
			"0.021": 0.0,
			"0.022": 0.0,
			"0.023": 0.0,
			"0.024": 0.0,
			"0.025": 0.0
		}
	}
}
