{
	 "smiles": "CC1=C(C=C(N)C=C1N(=O)=O)N(=O)=O", 
	 "Tm": 444.15, 
	 "num_atms": 21, 
	 "gaussian": { 
		 "optdone": 1, 
		 "sigma_profile": "yes", 
		 "theory": "DFT", 
		 "functional": "B3LYP", 
		 "basiset": "6-31G**", 
		 "properties": { 
			 "R2extent": 3759.8804, 
			 "electric_dipole_moment_norm": 4.94701398927, 
			 "electric_quadrupole_moment_norm": 30.5843151244, 
			 "total_energy": -735.908715795, 
			 "HOMO_LUMO_gap": 0.14163, 
			 "cosmo_polarized_energy": -16.02, 
			 "cosmo_cavitation_energy": 26.39, 
			 "cosmo_dispersion_energy": -19.32, 
			 "cosmo_repulsion_energy": 1.51, 
			 "cosmo_total_nonelectrostatic_energy": 8.58, 
			 "SMD_solvation_energy": 8.86 
		},
		"coords": [
			{
				"x": 0.3353235842,
				"y": -1.8082025286,
				"z": 1.3143749364,
				"element": "C" 
			},
			{
				"x": 1.1790860774,
				"y": -0.7256373083,
				"z": 0.6814238833,
				"element": "C" 
			},
			{
				"x": 1.8149633171,
				"y": 0.2959068785,
				"z": 1.4149740522,
				"element": "C" 
			},
			{
				"x": 2.5031908868,
				"y": 1.3641844078,
				"z": 0.8483805846,
				"element": "C" 
			},
			{
				"x": 2.6212806156,
				"y": 1.4730710917,
				"z": -0.5432010274,
				"element": "C" 
			},
			{
				"x": 3.2651179425,
				"y": 2.548741037,
				"z": -1.1284274723,
				"element": "N" 
			},
			{
				"x": 2.0154153525,
				"y": 0.4767214218,
				"z": -1.3194108993,
				"element": "C" 
			},
			{
				"x": 1.3365681475,
				"y": -0.5742895415,
				"z": -0.7107762364,
				"element": "C" 
			},
			{
				"x": 0.7840050271,
				"y": -1.5747690911,
				"z": -1.6509043138,
				"element": "N" 
			},
			{
				"x": 0.4624108588,
				"y": -1.1798897645,
				"z": -2.77106114,
				"element": "O" 
			},
			{
				"x": 0.7102256054,
				"y": -2.7421914386,
				"z": -1.2729802261,
				"element": "O" 
			},
			{
				"x": 1.8072043414,
				"y": 0.2860656082,
				"z": 2.8948498381,
				"element": "N" 
			},
			{
				"x": 1.8664502211,
				"y": 1.3737659174,
				"z": 3.4671290991,
				"element": "O" 
			},
			{
				"x": 1.7765377335,
				"y": -0.8029857086,
				"z": 3.4642136286,
				"element": "O" 
			},
			{
				"x": -0.4618625375,
				"y": -2.1208974483,
				"z": 0.641482403,
				"element": "H" 
			},
			{
				"x": -0.0997715774,
				"y": -1.4621414437,
				"z": 2.250843931,
				"element": "H" 
			},
			{
				"x": 0.9365916657,
				"y": -2.6927439324,
				"z": 1.5411552858,
				"element": "H" 
			},
			{
				"x": 2.9355449116,
				"y": 2.1071462781,
				"z": 1.5079375363,
				"element": "H" 
			},
			{
				"x": 3.5742791812,
				"y": 2.4315383497,
				"z": -2.0819269567,
				"element": "H" 
			},
			{
				"x": 3.9185007239,
				"y": 3.0578966736,
				"z": -0.5519465211,
				"element": "H" 
			},
			{
				"x": 2.0558379216,
				"y": 0.5066105419,
				"z": -2.4017303851,
				"element": "H" 
			}
		],
		 "valence_orbital": [ 
			{
				"type": "occ",
				"energy": -0.31659,
				"method": "rhf"
			},
			{
				"type": "occ",
				"energy": -0.3078,
				"method": "rhf"
			},
			{
				"type": "occ",
				"energy": -0.30024,
				"method": "rhf"
			},
			{
				"type": "occ",
				"energy": -0.28365,
				"method": "rhf"
			},
			{
				"type": "occ",
				"energy": -0.24048,
				"method": "rhf"
			},
			{
				"type": "unocc",
				"energy": -0.09885,
				"method": "rhf"
			},
			{
				"type": "unocc",
				"energy": -0.08978,
				"method": "rhf"
			},
			{
				"type": "unocc",
				"energy": -0.0151,
				"method": "rhf"
			},
			{
				"type": "unocc",
				"energy": -0.01191,
				"method": "rhf"
			},
			{
				"type": "unocc",
				"energy": 0.0535,
				"method": "rhf"
			}
		],
		"cosmo_sigma_profile": { 
			"-0.025": 0.0,
			"-0.024": 0.0,
			"-0.023": 0.0,
			"-0.022": 0.0,
			"-0.021": 0.0,
			"-0.02": 0.0,
			"-0.019": 0.0,
			"-0.018": 0.0,
			"-0.017": 0.0,
			"-0.016": 0.0,
			"-0.015": 0.0121838330005,
			"-0.014": 1.87336928951,
			"-0.013": 3.89748409953,
			"-0.012": 4.04712887817,
			"-0.011": 3.15875959305,
			"-0.01": 3.48617455496,
			"-0.009": 3.96001753185,
			"-0.008": 5.21697332109,
			"-0.007": 6.0859346761,
			"-0.006": 7.1738320266,
			"-0.005": 8.88007451307,
			"-0.004": 10.2343239718,
			"-0.003": 9.90834555382,
			"-0.002": 12.3850488317,
			"-0.001": 20.6225925278,
			"0.0": 18.1528948378,
			"0.001": 9.95069020411,
			"0.002": 7.1749691865,
			"0.003": 6.81278557252,
			"0.004": 6.29781282429,
			"0.005": 8.17957671202,
			"0.006": 9.40454573906,
			"0.007": 17.8615383537,
			"0.008": 13.0275919546,
			"0.009": 8.93481772923,
			"0.01": 2.90151662733,
			"0.011": 0.615702252796,
			"0.012": 0.240678598027,
			"0.013": 0.0,
			"0.014": 0.0,
			"0.015": 0.0,
			"0.016": 0.0,
			"0.017": 0.0,
			"0.018": 0.0,
			"0.019": 0.0,
			"0.02": 0.0,
			"0.021": 0.0,
			"0.022": 0.0,
			"0.023": 0.0,
			"0.024": 0.0,
			"0.025": 0.0
		}
	}
}
