{
	 "smiles": "[O-][N+](=O)C1=CC(=C(C=C1)S(Cl)(=O)=O)[N+]([O-])=O", 
	 "Tm": 375.15, 
	 "num_atms": 19, 
	 "gaussian": { 
		 "optdone": 1, 
		 "sigma_profile": "yes", 
		 "theory": "DFT", 
		 "functional": "B3LYP", 
		 "basiset": "6-31G**", 
		 "properties": { 
			 "R2extent": 5000.1037, 
			 "electric_dipole_moment_norm": 3.27434189724, 
			 "electric_quadrupole_moment_norm": 18.0316240023, 
			 "total_energy": -1649.36809551, 
			 "HOMO_LUMO_gap": 0.17435, 
			 "cosmo_polarized_energy": -15.69, 
			 "cosmo_cavitation_energy": 29.02, 
			 "cosmo_dispersion_energy": -21.55, 
			 "cosmo_repulsion_energy": 1.62, 
			 "cosmo_total_nonelectrostatic_energy": 9.08, 
			 "SMD_solvation_energy": 8.2 
		},
		"coords": [
			{
				"x": -2.5696313058,
				"y": -2.2082809124,
				"z": -1.707387338,
				"element": "O" 
			},
			{
				"x": -2.5929740151,
				"y": -1.548192949,
				"z": -0.6737805278,
				"element": "N" 
			},
			{
				"x": -3.587411073,
				"y": -1.310825407,
				"z": 0.0048471254,
				"element": "O" 
			},
			{
				"x": -1.3072472994,
				"y": -0.9878552326,
				"z": -0.2006983972,
				"element": "C" 
			},
			{
				"x": -0.1623155378,
				"y": -1.2270918711,
				"z": -0.9511763853,
				"element": "C" 
			},
			{
				"x": 1.0471742422,
				"y": -0.7177996002,
				"z": -0.495028773,
				"element": "C" 
			},
			{
				"x": 1.1016683275,
				"y": 0.0514195175,
				"z": 0.6783702382,
				"element": "C" 
			},
			{
				"x": -0.0708901236,
				"y": 0.2942341657,
				"z": 1.3970206806,
				"element": "C" 
			},
			{
				"x": -1.2856968445,
				"y": -0.2393262273,
				"z": 0.9691914054,
				"element": "C" 
			},
			{
				"x": 2.56579159,
				"y": 0.9520485937,
				"z": 1.2811745359,
				"element": "S" 
			},
			{
				"x": 3.5992963881,
				"y": -0.5219678584,
				"z": 2.357611248,
				"element": "Cl" 
			},
			{
				"x": 2.0835765239,
				"y": 1.8993226174,
				"z": 2.2781520327,
				"element": "O" 
			},
			{
				"x": 3.3700684398,
				"y": 1.3792315382,
				"z": 0.149262602,
				"element": "O" 
			},
			{
				"x": 2.2406448934,
				"y": -1.0789471418,
				"z": -1.2915952144,
				"element": "N" 
			},
			{
				"x": 3.2731461912,
				"y": -1.3009031278,
				"z": -0.6732204827,
				"element": "O" 
			},
			{
				"x": 2.0825636008,
				"y": -1.1728145734,
				"z": -2.5034849859,
				"element": "O" 
			},
			{
				"x": -0.2060969306,
				"y": -1.8006308661,
				"z": -1.8677504971,
				"element": "H" 
			},
			{
				"x": -0.0249476763,
				"y": 0.9159616182,
				"z": 2.2829069107,
				"element": "H" 
			},
			{
				"x": -2.2035193908,
				"y": -0.0712822836,
				"z": 1.5183858225,
				"element": "H" 
			}
		],
		 "valence_orbital": [ 
			{
				"type": "occ",
				"energy": -0.33896,
				"method": "rhf"
			},
			{
				"type": "occ",
				"energy": -0.33418,
				"method": "rhf"
			},
			{
				"type": "occ",
				"energy": -0.33322,
				"method": "rhf"
			},
			{
				"type": "occ",
				"energy": -0.33057,
				"method": "rhf"
			},
			{
				"type": "occ",
				"energy": -0.3187,
				"method": "rhf"
			},
			{
				"type": "unocc",
				"energy": -0.14435,
				"method": "rhf"
			},
			{
				"type": "unocc",
				"energy": -0.119,
				"method": "rhf"
			},
			{
				"type": "unocc",
				"energy": -0.10159,
				"method": "rhf"
			},
			{
				"type": "unocc",
				"energy": -0.06842,
				"method": "rhf"
			},
			{
				"type": "unocc",
				"energy": -0.05181,
				"method": "rhf"
			}
		],
		"cosmo_sigma_profile": { 
			"-0.025": 0.0,
			"-0.024": 0.0,
			"-0.023": 0.0,
			"-0.022": 0.0,
			"-0.021": 0.0,
			"-0.02": 0.0,
			"-0.019": 0.0,
			"-0.018": 0.0,
			"-0.017": 0.0,
			"-0.016": 0.0,
			"-0.015": 0.0,
			"-0.014": 0.0,
			"-0.013": 0.0,
			"-0.012": 0.0,
			"-0.011": 1.7940694616,
			"-0.01": 5.30248203047,
			"-0.009": 6.20332297476,
			"-0.008": 8.38190036149,
			"-0.007": 10.5779327212,
			"-0.006": 14.0986783993,
			"-0.005": 16.7888487245,
			"-0.004": 14.8347877081,
			"-0.003": 13.9514260187,
			"-0.002": 9.49966679122,
			"-0.001": 8.84621762678,
			"0.0": 9.377389248,
			"0.001": 11.5482453075,
			"0.002": 15.6449121818,
			"0.003": 11.597163345,
			"0.004": 9.86987964956,
			"0.005": 13.7782652552,
			"0.006": 22.24676586,
			"0.007": 19.017096382,
			"0.008": 12.4406144025,
			"0.009": 1.51413516515,
			"0.01": 0.0,
			"0.011": 0.0,
			"0.012": 0.0,
			"0.013": 0.0,
			"0.014": 0.0,
			"0.015": 0.0,
			"0.016": 0.0,
			"0.017": 0.0,
			"0.018": 0.0,
			"0.019": 0.0,
			"0.02": 0.0,
			"0.021": 0.0,
			"0.022": 0.0,
			"0.023": 0.0,
			"0.024": 0.0,
			"0.025": 0.0
		}
	}
}
