{
	 "smiles": "CCC(C)I", 
	 "Tm": 169.15, 
	 "num_atms": 14, 
	 "gaussian": { 
		 "optdone": 1, 
		 "sigma_profile": "no", 
		 "theory": "DFT", 
		 "functional": "B3LYP", 
		 "basiset": "6-31G**", 
		 "properties": { 
			 "R2extent": 1100.8778, 
			 "electric_dipole_moment_norm": 2.64480718579, 
			 "electric_quadrupole_moment_norm": 6.14537703481, 
			 "total_energy": -169.255354781, 
			 "HOMO_LUMO_gap": 0.21056, 
			 "cosmo_polarized_energy": -94306.4, 
			 "cosmo_cavitation_energy": 19.1, 
			 "cosmo_dispersion_energy": -15.44, 
			 "cosmo_repulsion_energy": 1.3, 
			 "cosmo_total_nonelectrostatic_energy": 4.96, 
			 "SMD_solvation_energy": 2.45 
		},
		"coords": [
			{
				"x": -1.8801628236,
				"y": 1.1950407901,
				"z": -0.7398190643,
				"element": "C" 
			},
			{
				"x": -0.4970105923,
				"y": 1.1520960134,
				"z": -0.0690433427,
				"element": "C" 
			},
			{
				"x": -0.4705782862,
				"y": 1.892764986,
				"z": 1.2701039569,
				"element": "C" 
			},
			{
				"x": -1.3403689434,
				"y": 1.2867666057,
				"z": 2.3634499152,
				"element": "C" 
			},
			{
				"x": 1.6298408436,
				"y": 2.0025695807,
				"z": 1.996480861,
				"element": "I" 
			},
			{
				"x": -2.2235853002,
				"y": 2.226002894,
				"z": -0.8814308806,
				"element": "H" 
			},
			{
				"x": -1.8320719698,
				"y": 0.7239502171,
				"z": -1.7264794663,
				"element": "H" 
			},
			{
				"x": -2.6392608785,
				"y": 0.6635478944,
				"z": -0.1583890558,
				"element": "H" 
			},
			{
				"x": 0.2405672416,
				"y": 1.6007480952,
				"z": -0.7414836174,
				"element": "H" 
			},
			{
				"x": -0.1880721951,
				"y": 0.1117878764,
				"z": 0.0863996538,
				"element": "H" 
			},
			{
				"x": -0.7071885648,
				"y": 2.9490965532,
				"z": 1.1272827514,
				"element": "H" 
			},
			{
				"x": -1.2595898681,
				"y": 1.8451061002,
				"z": 3.2984786522,
				"element": "H" 
			},
			{
				"x": -1.065852887,
				"y": 0.2458390151,
				"z": 2.5582770041,
				"element": "H" 
			},
			{
				"x": -2.3906657761,
				"y": 1.3100833786,
				"z": 2.0479726327,
				"element": "H" 
			}
		],
		 "valence_orbital": [ 
			{
				"type": "occ",
				"energy": -0.35006,
				"method": "rhf"
			},
			{
				"type": "occ",
				"energy": -0.34653,
				"method": "rhf"
			},
			{
				"type": "occ",
				"energy": -0.31152,
				"method": "rhf"
			},
			{
				"type": "occ",
				"energy": -0.25258,
				"method": "rhf"
			},
			{
				"type": "occ",
				"energy": -0.25234,
				"method": "rhf"
			},
			{
				"type": "unocc",
				"energy": -0.04178,
				"method": "rhf"
			},
			{
				"type": "unocc",
				"energy": 0.04089,
				"method": "rhf"
			},
			{
				"type": "unocc",
				"energy": 0.04583,
				"method": "rhf"
			},
			{
				"type": "unocc",
				"energy": 0.05685,
				"method": "rhf"
			},
			{
				"type": "unocc",
				"energy": 0.09614,
				"method": "rhf"
			}
		],
		"cosmo_sigma_profile": { 
			"0.0": 0.0,
			"0.0": 0.0,
			"0.0": 0.0,
			"0.0": 0.0,
			"0.0": 0.0,
			"0.0": 0.0,
			"0.0": 0.0,
			"0.0": 0.0,
			"0.0": 0.0,
			"0.0": 0.0,
			"0.0": 0.0,
			"0.0": 0.0,
			"0.0": 0.0,
			"0.0": 0.0,
			"0.0": 0.0,
			"0.0": 0.0,
			"0.0": 0.0,
			"0.0": 0.0,
			"0.0": 0.0,
			"0.0": 0.0,
			"0.0": 0.0,
			"0.0": 0.0,
			"0.0": 0.0,
			"0.0": 0.0,
			"0.0": 0.0,
			"0.0": 0.0,
			"0.0": 0.0,
			"0.0": 0.0,
			"0.0": 0.0,
			"0.0": 0.0,
			"0.0": 0.0,
			"0.0": 0.0,
			"0.0": 0.0,
			"0.0": 0.0,
			"0.0": 0.0,
			"0.0": 0.0,
			"0.0": 0.0,
			"0.0": 0.0,
			"0.0": 0.0,
			"0.0": 0.0,
			"0.0": 0.0,
			"0.0": 0.0,
			"0.0": 0.0,
			"0.0": 0.0,
			"0.0": 0.0,
			"0.0": 0.0,
			"0.0": 0.0,
			"0.0": 0.0,
			"0.0": 0.0,
			"0.0": 0.0,
			"0.0": 0.0
		}
	}
}
