{
	 "smiles": "N#CC1=C(N2CCNCC2)C2=C(C=CC=C2)N=C1", 
	 "Tm": 434.15, 
	 "num_atms": 32, 
	 "gaussian": { 
		 "optdone": 1, 
		 "sigma_profile": "yes", 
		 "theory": "DFT", 
		 "functional": "B3LYP", 
		 "basiset": "6-31G**", 
		 "properties": { 
			 "R2extent": 5075.5498, 
			 "electric_dipole_moment_norm": 4.23805200298, 
			 "electric_quadrupole_moment_norm": 8.31678376117, 
			 "total_energy": -760.894268104, 
			 "HOMO_LUMO_gap": 0.14952, 
			 "cosmo_polarized_energy": -13.2, 
			 "cosmo_cavitation_energy": 34.15, 
			 "cosmo_dispersion_energy": -24.41, 
			 "cosmo_repulsion_energy": 1.84, 
			 "cosmo_total_nonelectrostatic_energy": 11.58, 
			 "SMD_solvation_energy": 2.04 
		},
		"coords": [
			{
				"x": 1.2306746304,
				"y": -2.8217571734,
				"z": 0.4487585395,
				"element": "N" 
			},
			{
				"x": 0.3734415258,
				"y": -2.092228627,
				"z": 0.7490104632,
				"element": "C" 
			},
			{
				"x": -0.6900014601,
				"y": -1.2300313247,
				"z": 1.1543376681,
				"element": "C" 
			},
			{
				"x": -0.6854018426,
				"y": 0.1532033232,
				"z": 0.9168280265,
				"element": "C" 
			},
			{
				"x": 0.310939672,
				"y": 0.8315068128,
				"z": 0.2108004394,
				"element": "N" 
			},
			{
				"x": 1.199785689,
				"y": 1.7320775291,
				"z": 0.9731491636,
				"element": "C" 
			},
			{
				"x": 2.1255197957,
				"y": 2.4636829992,
				"z": -0.0033670549,
				"element": "C" 
			},
			{
				"x": 2.9791940701,
				"y": 1.5655940713,
				"z": -0.7929251844,
				"element": "N" 
			},
			{
				"x": 2.4138345547,
				"y": 0.2179826645,
				"z": -0.9865001126,
				"element": "C" 
			},
			{
				"x": 0.8888718423,
				"y": 0.2930365415,
				"z": -1.0364622655,
				"element": "C" 
			},
			{
				"x": -1.7943521669,
				"y": 0.8952133382,
				"z": 1.4579917629,
				"element": "C" 
			},
			{
				"x": -2.7632950484,
				"y": 0.2057462659,
				"z": 2.2531970659,
				"element": "C" 
			},
			{
				"x": -3.8425290698,
				"y": 0.9333639362,
				"z": 2.8161198056,
				"element": "C" 
			},
			{
				"x": -3.9837567616,
				"y": 2.2816352275,
				"z": 2.5724482353,
				"element": "C" 
			},
			{
				"x": -3.0625067268,
				"y": 2.9527690084,
				"z": 1.7347317342,
				"element": "C" 
			},
			{
				"x": -1.9954088879,
				"y": 2.2741946008,
				"z": 1.1870022349,
				"element": "C" 
			},
			{
				"x": -2.7233553124,
				"y": -1.1449241812,
				"z": 2.4759294542,
				"element": "N" 
			},
			{
				"x": -1.7425515527,
				"y": -1.8137570542,
				"z": 1.9255845356,
				"element": "C" 
			},
			{
				"x": 0.6041495291,
				"y": 2.4479120717,
				"z": 1.5468950574,
				"element": "H" 
			},
			{
				"x": 1.8037022806,
				"y": 1.1594228821,
				"z": 1.6963770743,
				"element": "H" 
			},
			{
				"x": 1.5053683798,
				"y": 3.0718056705,
				"z": -0.6772160742,
				"element": "H" 
			},
			{
				"x": 2.758548925,
				"y": 3.1625351518,
				"z": 0.5521602577,
				"element": "H" 
			},
			{
				"x": 3.8911449853,
				"y": 1.4866493118,
				"z": -0.3565527034,
				"element": "H" 
			},
			{
				"x": 2.7765185377,
				"y": -0.1966298486,
				"z": -1.9353650184,
				"element": "H" 
			},
			{
				"x": 2.7031977562,
				"y": -0.4902483166,
				"z": -0.1964113543,
				"element": "H" 
			},
			{
				"x": 0.5922807456,
				"y": 0.9471975113,
				"z": -1.868711263,
				"element": "H" 
			},
			{
				"x": 0.4766320135,
				"y": -0.6941781273,
				"z": -1.2458733301,
				"element": "H" 
			},
			{
				"x": -4.5499723923,
				"y": 0.3818683417,
				"z": 3.4262867644,
				"element": "H" 
			},
			{
				"x": -4.8171364094,
				"y": 2.8287660216,
				"z": 3.0033207948,
				"element": "H" 
			},
			{
				"x": -3.2072030524,
				"y": 4.0052114955,
				"z": 1.5095481859,
				"element": "H" 
			},
			{
				"x": -1.3136723559,
				"y": 2.7770187348,
				"z": 0.5107320232,
				"element": "H" 
			},
			{
				"x": -1.7154618939,
				"y": -2.8887388585,
				"z": 2.0974750741,
				"element": "H" 
			}
		],
		 "valence_orbital": [ 
			{
				"type": "occ",
				"energy": -0.26701,
				"method": "rhf"
			},
			{
				"type": "occ",
				"energy": -0.26094,
				"method": "rhf"
			},
			{
				"type": "occ",
				"energy": -0.24943,
				"method": "rhf"
			},
			{
				"type": "occ",
				"energy": -0.22211,
				"method": "rhf"
			},
			{
				"type": "occ",
				"energy": -0.22124,
				"method": "rhf"
			},
			{
				"type": "unocc",
				"energy": -0.07172,
				"method": "rhf"
			},
			{
				"type": "unocc",
				"energy": -0.04036,
				"method": "rhf"
			},
			{
				"type": "unocc",
				"energy": 0.00747,
				"method": "rhf"
			},
			{
				"type": "unocc",
				"energy": 0.02899,
				"method": "rhf"
			},
			{
				"type": "unocc",
				"energy": 0.04086,
				"method": "rhf"
			}
		],
		"cosmo_sigma_profile": { 
			"-0.025": 0.0,
			"-0.024": 0.0,
			"-0.023": 0.0,
			"-0.022": 0.0,
			"-0.021": 0.0,
			"-0.02": 0.0,
			"-0.019": 0.0,
			"-0.018": 0.0,
			"-0.017": 0.0,
			"-0.016": 0.0,
			"-0.015": 0.0,
			"-0.014": 0.0,
			"-0.013": 0.0,
			"-0.012": 0.0,
			"-0.011": 0.122042874248,
			"-0.01": 1.11959550046,
			"-0.009": 1.90396155265,
			"-0.008": 2.16071856638,
			"-0.007": 4.98558952372,
			"-0.006": 12.6654399079,
			"-0.005": 18.85376423,
			"-0.004": 26.4372451599,
			"-0.003": 33.5688550907,
			"-0.002": 27.3294584225,
			"-0.001": 24.138268547,
			"0.0": 17.235060195,
			"0.001": 14.7532176665,
			"0.002": 18.5633437288,
			"0.003": 16.4547373941,
			"0.004": 10.1068369521,
			"0.005": 5.13871983807,
			"0.006": 3.77879965226,
			"0.007": 4.57632012169,
			"0.008": 4.50931529804,
			"0.009": 4.5370680462,
			"0.01": 3.87331008722,
			"0.011": 4.10900090479,
			"0.012": 3.69393190872,
			"0.013": 2.92789880529,
			"0.014": 1.73185424899,
			"0.015": 0.902650545858,
			"0.016": 0.972499964859,
			"0.017": 0.396189605531,
			"0.018": 0.453784998196,
			"0.019": 0.0698899015207,
			"0.02": 0.0,
			"0.021": 0.0,
			"0.022": 0.0,
			"0.023": 0.0,
			"0.024": 0.0,
			"0.025": 0.0
		}
	}
}
