{
	 "smiles": "OC1=CC=C2C[C@H]3N(CC=C)CC[C@@]45[C@@H](OC1=C24)C(=O)CC[C@@]35O", 
	 "Tm": 475.65, 
	 "num_atms": 45, 
	 "gaussian": { 
		 "optdone": 1, 
		 "sigma_profile": "yes", 
		 "theory": "DFT", 
		 "functional": "B3LYP", 
		 "basiset": "6-31G**", 
		 "properties": { 
			 "R2extent": 7484.0577, 
			 "electric_dipole_moment_norm": 3.08170695232, 
			 "electric_quadrupole_moment_norm": 16.6032728108, 
			 "total_energy": -1092.26361563, 
			 "HOMO_LUMO_gap": 0.16413, 
			 "cosmo_polarized_energy": -18.78, 
			 "cosmo_cavitation_energy": 42.39, 
			 "cosmo_dispersion_energy": -29.65, 
			 "cosmo_repulsion_energy": 2.19, 
			 "cosmo_total_nonelectrostatic_energy": 14.93, 
			 "SMD_solvation_energy": 6.47 
		},
		"coords": [
			{
				"x": 3.0926241521,
				"y": 0.119646115,
				"z": 4.9472404027,
				"element": "O" 
			},
			{
				"x": 2.0248749597,
				"y": 0.1618400508,
				"z": 4.0994783121,
				"element": "C" 
			},
			{
				"x": 0.7174639688,
				"y": 0.0132379084,
				"z": 4.5943195367,
				"element": "C" 
			},
			{
				"x": -0.3960518929,
				"y": -0.0144543274,
				"z": 3.746197709,
				"element": "C" 
			},
			{
				"x": -0.253252167,
				"y": 0.1407838292,
				"z": 2.3557779432,
				"element": "C" 
			},
			{
				"x": -1.3470072196,
				"y": -0.0116818584,
				"z": 1.3148090256,
				"element": "C" 
			},
			{
				"x": -0.8963679665,
				"y": 0.3324391475,
				"z": -0.1378632139,
				"element": "C" 
			},
			{
				"x": -1.030227223,
				"y": 1.7758292146,
				"z": -0.3874040939,
				"element": "N" 
			},
			{
				"x": -1.3883707395,
				"y": 2.1712767706,
				"z": -1.7571831694,
				"element": "C" 
			},
			{
				"x": -2.7615152005,
				"y": 1.6790210795,
				"z": -2.1333442385,
				"element": "C" 
			},
			{
				"x": -3.0402704222,
				"y": 0.9823242914,
				"z": -3.2358498793,
				"element": "C" 
			},
			{
				"x": -0.0088631678,
				"y": 2.5967073538,
				"z": 0.2698970674,
				"element": "C" 
			},
			{
				"x": 1.4344515686,
				"y": 2.0775041854,
				"z": 0.1204825685,
				"element": "C" 
			},
			{
				"x": 1.4981002615,
				"y": 0.5706852202,
				"z": 0.4804752891,
				"element": "C" 
			},
			{
				"x": 2.9611456396,
				"y": 0.0552834631,
				"z": 0.6527415362,
				"element": "C" 
			},
			{
				"x": 3.3323135828,
				"y": 0.4168225132,
				"z": 2.0106320359,
				"element": "O" 
			},
			{
				"x": 2.1493726288,
				"y": 0.325984221,
				"z": 2.7241667171,
				"element": "C" 
			},
			{
				"x": 1.0389832288,
				"y": 0.3422066698,
				"z": 1.9012698229,
				"element": "C" 
			},
			{
				"x": 3.0937445835,
				"y": -1.4822457886,
				"z": 0.5036745632,
				"element": "C" 
			},
			{
				"x": 3.8868457358,
				"y": -2.1041902623,
				"z": 1.1770848214,
				"element": "O" 
			},
			{
				"x": 2.1723418647,
				"y": -2.1484772721,
				"z": -0.5062424224,
				"element": "C" 
			},
			{
				"x": 0.7028033349,
				"y": -1.7222938676,
				"z": -0.2962892186,
				"element": "C" 
			},
			{
				"x": 0.5449054653,
				"y": -0.2012147057,
				"z": -0.463936321,
				"element": "C" 
			},
			{
				"x": 0.7611286218,
				"y": 0.1293348518,
				"z": -1.8446933807,
				"element": "O" 
			},
			{
				"x": 3.898767333,
				"y": 0.0960836204,
				"z": 4.4115891541,
				"element": "H" 
			},
			{
				"x": 0.5963005195,
				"y": -0.1245135704,
				"z": 5.6642344517,
				"element": "H" 
			},
			{
				"x": -1.3798740712,
				"y": -0.1784815091,
				"z": 4.1780421519,
				"element": "H" 
			},
			{
				"x": -2.2114757245,
				"y": 0.6215668412,
				"z": 1.5400812977,
				"element": "H" 
			},
			{
				"x": -1.7121879752,
				"y": -1.0476237409,
				"z": 1.3382867368,
				"element": "H" 
			},
			{
				"x": -1.5853130496,
				"y": -0.166323689,
				"z": -0.8261563682,
				"element": "H" 
			},
			{
				"x": -1.4106514717,
				"y": 3.2700262233,
				"z": -1.7607648634,
				"element": "H" 
			},
			{
				"x": -0.6594917576,
				"y": 1.8568646175,
				"z": -2.5162677444,
				"element": "H" 
			},
			{
				"x": -3.5571329699,
				"y": 1.9369980612,
				"z": -1.4340446135,
				"element": "H" 
			},
			{
				"x": -4.0532550216,
				"y": 0.6748615582,
				"z": -3.4794832837,
				"element": "H" 
			},
			{
				"x": -2.2605568283,
				"y": 0.7007178623,
				"z": -3.9398372481,
				"element": "H" 
			},
			{
				"x": -0.0814711424,
				"y": 3.6158207994,
				"z": -0.1220296303,
				"element": "H" 
			},
			{
				"x": -0.2423122887,
				"y": 2.6597020879,
				"z": 1.3400164477,
				"element": "H" 
			},
			{
				"x": 1.7856643409,
				"y": 2.2122652854,
				"z": -0.9081967869,
				"element": "H" 
			},
			{
				"x": 2.1012075045,
				"y": 2.6419922813,
				"z": 0.782116714,
				"element": "H" 
			},
			{
				"x": 3.6784982818,
				"y": 0.5440096749,
				"z": -0.0169135114,
				"element": "H" 
			},
			{
				"x": 2.3035605575,
				"y": -3.2294460335,
				"z": -0.4150692947,
				"element": "H" 
			},
			{
				"x": 2.49809743,
				"y": -1.8763938094,
				"z": -1.5217504984,
				"element": "H" 
			},
			{
				"x": 0.3828871404,
				"y": -2.0399350165,
				"z": 0.6999697954,
				"element": "H" 
			},
			{
				"x": 0.061690014,
				"y": -2.225206809,
				"z": -1.0276251225,
				"element": "H" 
			},
			{
				"x": 1.6799755812,
				"y": -0.0581535385,
				"z": -2.0738391969,
				"element": "H" 
			}
		],
		 "valence_orbital": [ 
			{
				"type": "occ",
				"energy": -0.25753,
				"method": "rhf"
			},
			{
				"type": "occ",
				"energy": -0.25422,
				"method": "rhf"
			},
			{
				"type": "occ",
				"energy": -0.22882,
				"method": "rhf"
			},
			{
				"type": "occ",
				"energy": -0.20756,
				"method": "rhf"
			},
			{
				"type": "occ",
				"energy": -0.19898,
				"method": "rhf"
			},
			{
				"type": "unocc",
				"energy": -0.03485,
				"method": "rhf"
			},
			{
				"type": "unocc",
				"energy": 0.00226,
				"method": "rhf"
			},
			{
				"type": "unocc",
				"energy": 0.01401,
				"method": "rhf"
			},
			{
				"type": "unocc",
				"energy": 0.01687,
				"method": "rhf"
			},
			{
				"type": "unocc",
				"energy": 0.04195,
				"method": "rhf"
			}
		],
		"cosmo_sigma_profile": { 
			"-0.025": 0.0,
			"-0.024": 0.0,
			"-0.023": 0.0,
			"-0.022": 0.0,
			"-0.021": 0.0,
			"-0.02": 0.0,
			"-0.019": 0.0,
			"-0.018": 0.00925564747022,
			"-0.017": 0.524496048528,
			"-0.016": 1.80825487021,
			"-0.015": 1.44595662231,
			"-0.014": 2.33601203903,
			"-0.013": 1.3363556523,
			"-0.012": 1.62642493949,
			"-0.011": 1.57445709264,
			"-0.01": 2.651696936,
			"-0.009": 3.27341461573,
			"-0.008": 4.36218301993,
			"-0.007": 3.69636874174,
			"-0.006": 6.1176787929,
			"-0.005": 13.8666001417,
			"-0.004": 28.4188284921,
			"-0.003": 32.7268369181,
			"-0.002": 34.560409421,
			"-0.001": 31.8088089115,
			"0.0": 24.5169897125,
			"0.001": 19.6535289188,
			"0.002": 17.2694140039,
			"0.003": 16.5037986325,
			"0.004": 17.5224716277,
			"0.005": 13.7775358993,
			"0.006": 11.2248470371,
			"0.007": 7.76133186218,
			"0.008": 5.81711196445,
			"0.009": 5.68834332037,
			"0.01": 6.30585480037,
			"0.011": 7.21263955403,
			"0.012": 4.75065855871,
			"0.013": 1.52925869158,
			"0.014": 0.0914340457235,
			"0.015": 0.0,
			"0.016": 0.0,
			"0.017": 0.0,
			"0.018": 0.0,
			"0.019": 0.0,
			"0.02": 0.0,
			"0.021": 0.0,
			"0.022": 0.0,
			"0.023": 0.0,
			"0.024": 0.0,
			"0.025": 0.0
		}
	}
}
