{
	 "smiles": "CC#CC(O)=O", 
	 "Tm": 350.65, 
	 "num_atms": 10, 
	 "gaussian": { 
		 "optdone": 1, 
		 "sigma_profile": "yes", 
		 "theory": "DFT", 
		 "functional": "B3LYP", 
		 "basiset": "6-31G**", 
		 "properties": { 
			 "R2extent": 1500.9766, 
			 "electric_dipole_moment_norm": 5.35808113227, 
			 "electric_quadrupole_moment_norm": 15.1410709849, 
			 "total_energy": -305.220895713, 
			 "HOMO_LUMO_gap": 0.23261, 
			 "cosmo_polarized_energy": -12.79, 
			 "cosmo_cavitation_energy": 15.73, 
			 "cosmo_dispersion_energy": -11.32, 
			 "cosmo_repulsion_energy": 1.03, 
			 "cosmo_total_nonelectrostatic_energy": 5.45, 
			 "SMD_solvation_energy": 4.95 
		},
		"coords": [
			{
				"x": 0.4995068996,
				"y": -1.7093475136,
				"z": -1.8424023806,
				"element": "C" 
			},
			{
				"x": -0.0705572717,
				"y": -1.8146948055,
				"z": -0.5062023772,
				"element": "C" 
			},
			{
				"x": -0.5325084842,
				"y": -1.9051523345,
				"z": 0.6103008335,
				"element": "C" 
			},
			{
				"x": -1.0416840512,
				"y": -2.0262422882,
				"z": 1.9649955903,
				"element": "C" 
			},
			{
				"x": -2.3680087722,
				"y": -1.7583444861,
				"z": 2.0941427304,
				"element": "O" 
			},
			{
				"x": -0.3730572509,
				"y": -2.3363187159,
				"z": 2.9199478236,
				"element": "O" 
			},
			{
				"x": 1.0233313955,
				"y": -2.632550686,
				"z": -2.1126362985,
				"element": "H" 
			},
			{
				"x": 1.2243795141,
				"y": -0.8892908996,
				"z": -1.8877992416,
				"element": "H" 
			},
			{
				"x": -0.2733771276,
				"y": -1.5222013249,
				"z": -2.5951996434,
				"element": "H" 
			},
			{
				"x": -2.7339248514,
				"y": -1.5293569456,
				"z": 1.2269529636,
				"element": "H" 
			}
		],
		 "valence_orbital": [ 
			{
				"type": "occ",
				"energy": -0.40378,
				"method": "rhf"
			},
			{
				"type": "occ",
				"energy": -0.32236,
				"method": "rhf"
			},
			{
				"type": "occ",
				"energy": -0.3028,
				"method": "rhf"
			},
			{
				"type": "occ",
				"energy": -0.28998,
				"method": "rhf"
			},
			{
				"type": "occ",
				"energy": -0.27281,
				"method": "rhf"
			},
			{
				"type": "unocc",
				"energy": -0.0402,
				"method": "rhf"
			},
			{
				"type": "unocc",
				"energy": 0.02113,
				"method": "rhf"
			},
			{
				"type": "unocc",
				"energy": 0.07841,
				"method": "rhf"
			},
			{
				"type": "unocc",
				"energy": 0.09232,
				"method": "rhf"
			},
			{
				"type": "unocc",
				"energy": 0.10532,
				"method": "rhf"
			}
		],
		"cosmo_sigma_profile": { 
			"-0.025": 0.0,
			"-0.024": 0.0,
			"-0.023": 0.0,
			"-0.022": 0.0,
			"-0.021": 0.0,
			"-0.02": 0.00285737643864,
			"-0.019": 0.589736136335,
			"-0.018": 1.09253217742,
			"-0.017": 0.655530288464,
			"-0.016": 1.13688697433,
			"-0.015": 0.720096203676,
			"-0.014": 0.512464876029,
			"-0.013": 0.591869692512,
			"-0.012": 1.23484890273,
			"-0.011": 0.906286698267,
			"-0.01": 0.448908428347,
			"-0.009": 1.34872501384,
			"-0.008": 1.69659305647,
			"-0.007": 6.4448448375,
			"-0.006": 6.30833385221,
			"-0.005": 7.93691033974,
			"-0.004": 9.41556835565,
			"-0.003": 11.2589627935,
			"-0.002": 7.70605372782,
			"-0.001": 5.07458442281,
			"0.0": 5.27751240925,
			"0.001": 5.60133965432,
			"0.002": 5.40179369733,
			"0.003": 6.35459890136,
			"0.004": 5.67682598296,
			"0.005": 3.87587783731,
			"0.006": 2.55379496218,
			"0.007": 3.1291870715,
			"0.008": 3.11378313773,
			"0.009": 4.15687473847,
			"0.01": 5.82933554852,
			"0.011": 6.3819358112,
			"0.012": 3.5945726471,
			"0.013": 0.327699542711,
			"0.014": 0.0,
			"0.015": 0.0,
			"0.016": 0.0,
			"0.017": 0.0,
			"0.018": 0.0,
			"0.019": 0.0,
			"0.02": 0.0,
			"0.021": 0.0,
			"0.022": 0.0,
			"0.023": 0.0,
			"0.024": 0.0,
			"0.025": 0.0
		}
	}
}
