{
	 "smiles": "CC1=NN(CC1)C1=CC=C(C=C1)C(O)=O", 
	 "Tm": 535.15, 
	 "num_atms": 27, 
	 "gaussian": { 
		 "optdone": 1, 
		 "sigma_profile": "yes", 
		 "theory": "DFT", 
		 "functional": "B3LYP", 
		 "basiset": "6-31G**", 
		 "properties": { 
			 "R2extent": 5343.7327, 
			 "electric_dipole_moment_norm": 6.2078840437, 
			 "electric_quadrupole_moment_norm": 14.6101228397, 
			 "total_energy": -686.351019464, 
			 "HOMO_LUMO_gap": 0.16037, 
			 "cosmo_polarized_energy": -14.92, 
			 "cosmo_cavitation_energy": 30.98, 
			 "cosmo_dispersion_energy": -22.94, 
			 "cosmo_repulsion_energy": 1.8, 
			 "cosmo_total_nonelectrostatic_energy": 9.84, 
			 "SMD_solvation_energy": 5.24 
		},
		"coords": [
			{
				"x": 2.8747950197,
				"y": 1.5635182914,
				"z": -3.7567198637,
				"element": "C" 
			},
			{
				"x": 1.9522087428,
				"y": 1.4858392197,
				"z": -2.5861124085,
				"element": "C" 
			},
			{
				"x": 2.1019878551,
				"y": 0.6173274984,
				"z": -1.6502465788,
				"element": "N" 
			},
			{
				"x": 1.1042623816,
				"y": 0.7749445831,
				"z": -0.7142735886,
				"element": "N" 
			},
			{
				"x": 0.2093585696,
				"y": 1.9035570319,
				"z": -1.0214954673,
				"element": "C" 
			},
			{
				"x": 0.7515825382,
				"y": 2.3926794767,
				"z": -2.3813804512,
				"element": "C" 
			},
			{
				"x": 1.0670928182,
				"y": 0.0053999196,
				"z": 0.4287757498,
				"element": "C" 
			},
			{
				"x": 0.0646442506,
				"y": 0.2260326501,
				"z": 1.398786271,
				"element": "C" 
			},
			{
				"x": 0.0183651068,
				"y": -0.5518659806,
				"z": 2.5480646666,
				"element": "C" 
			},
			{
				"x": 0.9608480762,
				"y": -1.5662516894,
				"z": 2.7682756143,
				"element": "C" 
			},
			{
				"x": 1.9574564798,
				"y": -1.7818053817,
				"z": 1.7996231824,
				"element": "C" 
			},
			{
				"x": 2.0189478688,
				"y": -1.0171613486,
				"z": 0.6489830983,
				"element": "C" 
			},
			{
				"x": 0.9516534907,
				"y": -2.4165363852,
				"z": 3.9725241219,
				"element": "C" 
			},
			{
				"x": -0.0577640987,
				"y": -2.1153034906,
				"z": 4.8377519539,
				"element": "O" 
			},
			{
				"x": 1.7450944395,
				"y": -3.30951149,
				"z": 4.2127712071,
				"element": "O" 
			},
			{
				"x": 3.3508646463,
				"y": 2.550238871,
				"z": -3.8195681639,
				"element": "H" 
			},
			{
				"x": 3.653089229,
				"y": 0.8024362887,
				"z": -3.6759068624,
				"element": "H" 
			},
			{
				"x": 2.3311451147,
				"y": 1.4133507672,
				"z": -4.698236979,
				"element": "H" 
			},
			{
				"x": -0.8318271138,
				"y": 1.5673496296,
				"z": -1.0746630356,
				"element": "H" 
			},
			{
				"x": 0.2768588392,
				"y": 2.6707309497,
				"z": -0.2403127804,
				"element": "H" 
			},
			{
				"x": 1.0404530529,
				"y": 3.4494969859,
				"z": -2.3680690502,
				"element": "H" 
			},
			{
				"x": 0.0247026253,
				"y": 2.2723368661,
				"z": -3.1936041239,
				"element": "H" 
			},
			{
				"x": -0.6767779105,
				"y": 1.0036366996,
				"z": 1.2530984457,
				"element": "H" 
			},
			{
				"x": -0.7560046458,
				"y": -0.372888148,
				"z": 3.2857272121,
				"element": "H" 
			},
			{
				"x": 2.6845751136,
				"y": -2.5677982425,
				"z": 1.9755911714,
				"element": "H" 
			},
			{
				"x": 2.787941221,
				"y": -1.1851825245,
				"z": -0.0938881787,
				"element": "H" 
			},
			{
				"x": 0.0475462891,
				"y": -2.7372710475,
				"z": 5.5756048376,
				"element": "H" 
			}
		],
		 "valence_orbital": [ 
			{
				"type": "occ",
				"energy": -0.29498,
				"method": "rhf"
			},
			{
				"type": "occ",
				"energy": -0.27172,
				"method": "rhf"
			},
			{
				"type": "occ",
				"energy": -0.25848,
				"method": "rhf"
			},
			{
				"type": "occ",
				"energy": -0.24927,
				"method": "rhf"
			},
			{
				"type": "occ",
				"energy": -0.19101,
				"method": "rhf"
			},
			{
				"type": "unocc",
				"energy": -0.03064,
				"method": "rhf"
			},
			{
				"type": "unocc",
				"energy": 0.00126,
				"method": "rhf"
			},
			{
				"type": "unocc",
				"energy": 0.00683,
				"method": "rhf"
			},
			{
				"type": "unocc",
				"energy": 0.07429,
				"method": "rhf"
			},
			{
				"type": "unocc",
				"energy": 0.07975,
				"method": "rhf"
			}
		],
		"cosmo_sigma_profile": { 
			"-0.025": 0.0,
			"-0.024": 0.0,
			"-0.023": 0.0,
			"-0.022": 0.0,
			"-0.021": 0.0,
			"-0.02": 0.0,
			"-0.019": 0.0,
			"-0.018": 0.300212058394,
			"-0.017": 0.611676002506,
			"-0.016": 1.05120979121,
			"-0.015": 0.85294224067,
			"-0.014": 0.801569843629,
			"-0.013": 0.464144358037,
			"-0.012": 0.293781825793,
			"-0.011": 1.03731827105,
			"-0.01": 0.60073766993,
			"-0.009": 0.613576537279,
			"-0.008": 0.303488158897,
			"-0.007": 1.3888753306,
			"-0.006": 11.4836246534,
			"-0.005": 28.1180251611,
			"-0.004": 24.6228366504,
			"-0.003": 20.3358461842,
			"-0.002": 17.6682751901,
			"-0.001": 16.305706358,
			"0.0": 13.1308862867,
			"0.001": 10.9623135493,
			"0.002": 14.1972455336,
			"0.003": 17.666349578,
			"0.004": 17.8135480001,
			"0.005": 13.735759703,
			"0.006": 5.14046809355,
			"0.007": 4.60958682723,
			"0.008": 4.72962275582,
			"0.009": 3.43004631775,
			"0.01": 3.35442992052,
			"0.011": 2.55502759445,
			"0.012": 4.38979768293,
			"0.013": 3.36446440716,
			"0.014": 0.00551611170649,
			"0.015": 0.0,
			"0.016": 0.0,
			"0.017": 0.0,
			"0.018": 0.0,
			"0.019": 0.0,
			"0.02": 0.0,
			"0.021": 0.0,
			"0.022": 0.0,
			"0.023": 0.0,
			"0.024": 0.0,
			"0.025": 0.0
		}
	}
}
