{
	 "smiles": "ON=CC1=CC=C(C=C1)N1CCOCC1", 
	 "Tm": 460.15, 
	 "num_atms": 29, 
	 "gaussian": { 
		 "optdone": 1, 
		 "sigma_profile": "yes", 
		 "theory": "DFT", 
		 "functional": "B3LYP", 
		 "basiset": "6-31G**", 
		 "properties": { 
			 "R2extent": 4510.9435, 
			 "electric_dipole_moment_norm": 1.83594904341, 
			 "electric_quadrupole_moment_norm": 14.2016420382, 
			 "total_energy": -687.474783873, 
			 "HOMO_LUMO_gap": 0.16168, 
			 "cosmo_polarized_energy": -13.29, 
			 "cosmo_cavitation_energy": 31.11, 
			 "cosmo_dispersion_energy": -23.21, 
			 "cosmo_repulsion_energy": 1.8, 
			 "cosmo_total_nonelectrostatic_energy": 9.7, 
			 "SMD_solvation_energy": 4.15 
		},
		"coords": [
			{
				"x": 4.078151179,
				"y": 1.7790029097,
				"z": 2.8469582993,
				"element": "O" 
			},
			{
				"x": 3.9420688622,
				"y": 2.8894502797,
				"z": 1.9930159458,
				"element": "N" 
			},
			{
				"x": 3.083618514,
				"y": 2.7103725879,
				"z": 1.0507644944,
				"element": "C" 
			},
			{
				"x": 2.2120830206,
				"y": 1.598811385,
				"z": 0.6737482991,
				"element": "C" 
			},
			{
				"x": 2.1167658764,
				"y": 0.3569371088,
				"z": 1.3379859921,
				"element": "C" 
			},
			{
				"x": 1.2528944917,
				"y": -0.6316250233,
				"z": 0.8928595466,
				"element": "C" 
			},
			{
				"x": 0.4211461308,
				"y": -0.4459138725,
				"z": -0.236553081,
				"element": "C" 
			},
			{
				"x": 0.5155284022,
				"y": 0.7976472835,
				"z": -0.9002179408,
				"element": "C" 
			},
			{
				"x": 1.3903941816,
				"y": 1.7784078787,
				"z": -0.4539806714,
				"element": "C" 
			},
			{
				"x": -0.4078759592,
				"y": -1.4751128475,
				"z": -0.6864015884,
				"element": "N" 
			},
			{
				"x": -1.1427851579,
				"y": -1.3873170309,
				"z": -1.9464517084,
				"element": "C" 
			},
			{
				"x": -2.5986842049,
				"y": -0.9739364306,
				"z": -1.711702872,
				"element": "C" 
			},
			{
				"x": -3.2306898788,
				"y": -1.8852772287,
				"z": -0.8192766623,
				"element": "O" 
			},
			{
				"x": -2.5505405768,
				"y": -1.9542977018,
				"z": 0.4277757068,
				"element": "C" 
			},
			{
				"x": -1.0867468177,
				"y": -2.3785342067,
				"z": 0.2464436385,
				"element": "C" 
			},
			{
				"x": 4.7444021301,
				"y": 2.0916014256,
				"z": 3.4721406968,
				"element": "H" 
			},
			{
				"x": 3.0113890873,
				"y": 3.5925889202,
				"z": 0.4136219537,
				"element": "H" 
			},
			{
				"x": 2.7391669391,
				"y": 0.1668537594,
				"z": 2.2007113147,
				"element": "H" 
			},
			{
				"x": 1.2508311586,
				"y": -1.5827452286,
				"z": 1.4139162693,
				"element": "H" 
			},
			{
				"x": -0.1126447798,
				"y": 1.0176745367,
				"z": -1.7550464025,
				"element": "H" 
			},
			{
				"x": 1.4270459302,
				"y": 2.7242711876,
				"z": -0.9896004328,
				"element": "H" 
			},
			{
				"x": -1.1406811374,
				"y": -2.3863960724,
				"z": -2.4037699542,
				"element": "H" 
			},
			{
				"x": -0.6360617314,
				"y": -0.7138927373,
				"z": -2.6392176669,
				"element": "H" 
			},
			{
				"x": -3.1723048817,
				"y": -1.004620613,
				"z": -2.643334054,
				"element": "H" 
			},
			{
				"x": -2.6408803758,
				"y": 0.0502527088,
				"z": -1.3058182683,
				"element": "H" 
			},
			{
				"x": -3.0933198733,
				"y": -2.6843766507,
				"z": 1.0364317036,
				"element": "H" 
			},
			{
				"x": -2.5861116662,
				"y": -0.9767842298,
				"z": 0.9371075372,
				"element": "H" 
			},
			{
				"x": -0.5828348876,
				"y": -2.3851531947,
				"z": 1.2127838078,
				"element": "H" 
			},
			{
				"x": -1.0535239754,
				"y": -3.398588903,
				"z": -0.1591939027,
				"element": "H" 
			}
		],
		 "valence_orbital": [ 
			{
				"type": "occ",
				"energy": -0.27201,
				"method": "rhf"
			},
			{
				"type": "occ",
				"energy": -0.25989,
				"method": "rhf"
			},
			{
				"type": "occ",
				"energy": -0.24973,
				"method": "rhf"
			},
			{
				"type": "occ",
				"energy": -0.24327,
				"method": "rhf"
			},
			{
				"type": "occ",
				"energy": -0.18773,
				"method": "rhf"
			},
			{
				"type": "unocc",
				"energy": -0.02605,
				"method": "rhf"
			},
			{
				"type": "unocc",
				"energy": 0.00027,
				"method": "rhf"
			},
			{
				"type": "unocc",
				"energy": 0.06667,
				"method": "rhf"
			},
			{
				"type": "unocc",
				"energy": 0.07518,
				"method": "rhf"
			},
			{
				"type": "unocc",
				"energy": 0.08918,
				"method": "rhf"
			}
		],
		"cosmo_sigma_profile": { 
			"-0.025": 0.0,
			"-0.024": 0.0,
			"-0.023": 0.0,
			"-0.022": 0.0,
			"-0.021": 0.0,
			"-0.02": 0.0,
			"-0.019": 0.0,
			"-0.018": 0.000379089835662,
			"-0.017": 0.572361416163,
			"-0.016": 0.95894171675,
			"-0.015": 1.25998939793,
			"-0.014": 0.513296212946,
			"-0.013": 0.505777781569,
			"-0.012": 0.720728052475,
			"-0.011": 0.946766188872,
			"-0.01": 0.507011552461,
			"-0.009": 0.223048245231,
			"-0.008": 2.33263136763,
			"-0.007": 7.30842937407,
			"-0.006": 11.3465104406,
			"-0.005": 18.5183323552,
			"-0.004": 29.031914573,
			"-0.003": 26.0053209296,
			"-0.002": 17.9916133307,
			"-0.001": 12.9018275263,
			"0.0": 9.03305578847,
			"0.001": 10.0386534459,
			"0.002": 9.73139786535,
			"0.003": 12.1407636001,
			"0.004": 15.5488881437,
			"0.005": 17.4915092895,
			"0.006": 13.4610947197,
			"0.007": 5.59521564679,
			"0.008": 4.92276146495,
			"0.009": 3.57512488717,
			"0.01": 3.27693402225,
			"0.011": 2.48198299914,
			"0.012": 2.44108678958,
			"0.013": 2.94691805157,
			"0.014": 1.12793205763,
			"0.015": 0.194136769774,
			"0.016": 0.0,
			"0.017": 0.0,
			"0.018": 0.0,
			"0.019": 0.0,
			"0.02": 0.0,
			"0.021": 0.0,
			"0.022": 0.0,
			"0.023": 0.0,
			"0.024": 0.0,
			"0.025": 0.0
		}
	}
}
