{
	 "smiles": "CC1=CC(OC2=NC=C(N)C=C2)=CC(C)=C1Cl", 
	 "Tm": 370.15, 
	 "num_atms": 30, 
	 "gaussian": { 
		 "optdone": 1, 
		 "sigma_profile": "yes", 
		 "theory": "DFT", 
		 "functional": "B3LYP", 
		 "basiset": "6-31G**", 
		 "properties": { 
			 "R2extent": 6850.5178, 
			 "electric_dipole_moment_norm": 4.45524526485, 
			 "electric_quadrupole_moment_norm": 14.3273894506, 
			 "total_energy": -1148.14305641, 
			 "HOMO_LUMO_gap": 0.17842, 
			 "cosmo_polarized_energy": -14.51, 
			 "cosmo_cavitation_energy": 35.74, 
			 "cosmo_dispersion_energy": -25.78, 
			 "cosmo_repulsion_energy": 2.01, 
			 "cosmo_total_nonelectrostatic_energy": 11.97, 
			 "SMD_solvation_energy": 4.45 
		},
		"coords": [
			{
				"x": -5.2142764554,
				"y": -0.7802129512,
				"z": -1.3598802376,
				"element": "C" 
			},
			{
				"x": -3.7920440154,
				"y": -0.89407859,
				"z": -0.8727100953,
				"element": "C" 
			},
			{
				"x": -3.2572737392,
				"y": 0.0793195552,
				"z": -0.0237995183,
				"element": "C" 
			},
			{
				"x": -1.9442884457,
				"y": -0.0148891934,
				"z": 0.4359106788,
				"element": "C" 
			},
			{
				"x": -1.531896814,
				"y": 0.9565284666,
				"z": 1.3208550607,
				"element": "O" 
			},
			{
				"x": -0.2128272886,
				"y": 1.3673702435,
				"z": 1.3435134781,
				"element": "C" 
			},
			{
				"x": 0.3033401338,
				"y": 1.5162215181,
				"z": 2.5533531983,
				"element": "N" 
			},
			{
				"x": 1.5459083352,
				"y": 1.9963511154,
				"z": 2.6538366962,
				"element": "C" 
			},
			{
				"x": 2.3466437788,
				"y": 2.3414228582,
				"z": 1.5536128453,
				"element": "C" 
			},
			{
				"x": 3.6648046185,
				"y": 2.7699980956,
				"z": 1.717841204,
				"element": "N" 
			},
			{
				"x": 1.7731230947,
				"y": 2.1761382219,
				"z": 0.2811814866,
				"element": "C" 
			},
			{
				"x": 0.4771122946,
				"y": 1.6916823001,
				"z": 0.168562888,
				"element": "C" 
			},
			{
				"x": -1.1397170648,
				"y": -1.0898684606,
				"z": 0.0557802758,
				"element": "C" 
			},
			{
				"x": -1.6346093052,
				"y": -2.0811959142,
				"z": -0.7994056449,
				"element": "C" 
			},
			{
				"x": -0.7579295456,
				"y": -3.2404884758,
				"z": -1.2015488121,
				"element": "C" 
			},
			{
				"x": -2.9579971372,
				"y": -1.9586958037,
				"z": -1.248782581,
				"element": "C" 
			},
			{
				"x": -3.6035911936,
				"y": -3.1992007422,
				"z": -2.3314671777,
				"element": "Cl" 
			},
			{
				"x": -5.807583113,
				"y": -1.6503539762,
				"z": -1.0595777464,
				"element": "H" 
			},
			{
				"x": -5.2584625635,
				"y": -0.7309250221,
				"z": -2.4530722093,
				"element": "H" 
			},
			{
				"x": -5.6900994909,
				"y": 0.116186783,
				"z": -0.9553171525,
				"element": "H" 
			},
			{
				"x": -3.8621472913,
				"y": 0.9220696106,
				"z": 0.2944443012,
				"element": "H" 
			},
			{
				"x": 1.9368486568,
				"y": 2.1108028374,
				"z": 3.6649735944,
				"element": "H" 
			},
			{
				"x": 3.8758297234,
				"y": 3.1539500735,
				"z": 2.6292227701,
				"element": "H" 
			},
			{
				"x": 4.0203860657,
				"y": 3.3580442756,
				"z": 0.9762855851,
				"element": "H" 
			},
			{
				"x": 2.3393489814,
				"y": 2.4333058489,
				"z": -0.6105649472,
				"element": "H" 
			},
			{
				"x": 0.00745708,
				"y": 1.56925186,
				"z": -0.8009113043,
				"element": "H" 
			},
			{
				"x": -0.1252835862,
				"y": -1.1677842016,
				"z": 0.4315872504,
				"element": "H" 
			},
			{
				"x": -0.6300689994,
				"y": -3.2847540572,
				"z": -2.2884160287,
				"element": "H" 
			},
			{
				"x": 0.2298732944,
				"y": -3.1555745781,
				"z": -0.7423927296,
				"element": "H" 
			},
			{
				"x": -1.1978800084,
				"y": -4.1960216974,
				"z": -0.8972151279,
				"element": "H" 
			}
		],
		 "valence_orbital": [ 
			{
				"type": "occ",
				"energy": -0.28087,
				"method": "rhf"
			},
			{
				"type": "occ",
				"energy": -0.26273,
				"method": "rhf"
			},
			{
				"type": "occ",
				"energy": -0.24503,
				"method": "rhf"
			},
			{
				"type": "occ",
				"energy": -0.22748,
				"method": "rhf"
			},
			{
				"type": "occ",
				"energy": -0.20357,
				"method": "rhf"
			},
			{
				"type": "unocc",
				"energy": -0.02515,
				"method": "rhf"
			},
			{
				"type": "unocc",
				"energy": -0.00517,
				"method": "rhf"
			},
			{
				"type": "unocc",
				"energy": -0.00066,
				"method": "rhf"
			},
			{
				"type": "unocc",
				"energy": 0.01277,
				"method": "rhf"
			},
			{
				"type": "unocc",
				"energy": 0.04065,
				"method": "rhf"
			}
		],
		"cosmo_sigma_profile": { 
			"-0.025": 0.0,
			"-0.024": 0.0,
			"-0.023": 0.0,
			"-0.022": 0.0,
			"-0.021": 0.0,
			"-0.02": 0.0,
			"-0.019": 0.0,
			"-0.018": 0.0,
			"-0.017": 0.0,
			"-0.016": 0.0,
			"-0.015": 0.0,
			"-0.014": 0.0,
			"-0.013": 1.35612858447,
			"-0.012": 3.21459102236,
			"-0.011": 3.05119835626,
			"-0.01": 3.32797000942,
			"-0.009": 3.36714780498,
			"-0.008": 3.5371930434,
			"-0.007": 6.59556896511,
			"-0.006": 10.9870072065,
			"-0.005": 13.7220940764,
			"-0.004": 17.5303265292,
			"-0.003": 17.7731595625,
			"-0.002": 18.8163415024,
			"-0.001": 25.3952569411,
			"0.0": 26.4602396288,
			"0.001": 20.5019164713,
			"0.002": 25.2682215264,
			"0.003": 29.0192182821,
			"0.004": 21.2874814094,
			"0.005": 8.63976553381,
			"0.006": 4.36722645106,
			"0.007": 2.83637175791,
			"0.008": 3.10105515048,
			"0.009": 3.2091038611,
			"0.01": 2.25428661737,
			"0.011": 2.79112736815,
			"0.012": 1.53730254977,
			"0.013": 1.90118199999,
			"0.014": 1.92868214007,
			"0.015": 1.29055400888,
			"0.016": 0.84630358391,
			"0.017": 0.157154220233,
			"0.018": 0.0,
			"0.019": 0.0,
			"0.02": 0.0,
			"0.021": 0.0,
			"0.022": 0.0,
			"0.023": 0.0,
			"0.024": 0.0,
			"0.025": 0.0
		}
	}
}
