{
	 "smiles": "CC1=NN(CC2=CC=CC=C2)C(C)=C1C=NO", 
	 "Tm": 409.15, 
	 "num_atms": 32, 
	 "gaussian": { 
		 "optdone": 1, 
		 "sigma_profile": "yes", 
		 "theory": "DFT", 
		 "functional": "B3LYP", 
		 "basiset": "6-31G**", 
		 "properties": { 
			 "R2extent": 5582.4465, 
			 "electric_dipole_moment_norm": 2.1205529609, 
			 "electric_quadrupole_moment_norm": 8.56371431506, 
			 "total_energy": -743.84173545, 
			 "HOMO_LUMO_gap": 0.19112, 
			 "cosmo_polarized_energy": -12.41, 
			 "cosmo_cavitation_energy": 36.05, 
			 "cosmo_dispersion_energy": -25.07, 
			 "cosmo_repulsion_energy": 1.98, 
			 "cosmo_total_nonelectrostatic_energy": 12.95, 
			 "SMD_solvation_energy": 5.82 
		},
		"coords": [
			{
				"x": -1.1804847431,
				"y": -0.3335345075,
				"z": -2.3909108211,
				"element": "C" 
			},
			{
				"x": -0.8254599166,
				"y": -0.4099904386,
				"z": -0.9369427499,
				"element": "C" 
			},
			{
				"x": 0.2038989714,
				"y": -1.1492081522,
				"z": -0.5363216449,
				"element": "N" 
			},
			{
				"x": 0.2373242457,
				"y": -1.0080318247,
				"z": 0.818468044,
				"element": "N" 
			},
			{
				"x": 1.3111860322,
				"y": -1.6491708554,
				"z": 1.5661928,
				"element": "C" 
			},
			{
				"x": 2.4906515891,
				"y": -0.7359627747,
				"z": 1.858476316,
				"element": "C" 
			},
			{
				"x": 3.0726425783,
				"y": 0.0224522101,
				"z": 0.8335182292,
				"element": "C" 
			},
			{
				"x": 4.1733918204,
				"y": 0.8355588795,
				"z": 1.0988440233,
				"element": "C" 
			},
			{
				"x": 4.7088461049,
				"y": 0.8984913482,
				"z": 2.3885405092,
				"element": "C" 
			},
			{
				"x": 4.135295797,
				"y": 0.1453223475,
				"z": 3.4127449943,
				"element": "C" 
			},
			{
				"x": 3.0288224867,
				"y": -0.6654749312,
				"z": 3.147567156,
				"element": "C" 
			},
			{
				"x": -0.7384692066,
				"y": -0.1878629466,
				"z": 1.2907212548,
				"element": "C" 
			},
			{
				"x": -0.9012512097,
				"y": 0.1329027778,
				"z": 2.7415006406,
				"element": "C" 
			},
			{
				"x": -1.4666686789,
				"y": 0.2230955052,
				"z": 0.1698200684,
				"element": "C" 
			},
			{
				"x": -2.6248338,
				"y": 1.0916964137,
				"z": 0.0766836535,
				"element": "C" 
			},
			{
				"x": -3.1993059498,
				"y": 1.6178575064,
				"z": 1.0985874896,
				"element": "N" 
			},
			{
				"x": -4.286073745,
				"y": 2.4163483912,
				"z": 0.6899883785,
				"element": "O" 
			},
			{
				"x": -1.1402430122,
				"y": 0.6961291748,
				"z": -2.7642485814,
				"element": "H" 
			},
			{
				"x": -2.1915873037,
				"y": -0.710918559,
				"z": -2.5816960439,
				"element": "H" 
			},
			{
				"x": -0.476392701,
				"y": -0.9353894974,
				"z": -2.9694461946,
				"element": "H" 
			},
			{
				"x": 1.6231582969,
				"y": -2.4993763408,
				"z": 0.9533203175,
				"element": "H" 
			},
			{
				"x": 0.9011839754,
				"y": -2.0450918435,
				"z": 2.5001899816,
				"element": "H" 
			},
			{
				"x": 2.6534073756,
				"y": -0.0293199473,
				"z": -0.1672204002,
				"element": "H" 
			},
			{
				"x": 4.6162643994,
				"y": 1.4205057078,
				"z": 0.2976679158,
				"element": "H" 
			},
			{
				"x": 5.5667924515,
				"y": 1.5326707945,
				"z": 2.5925120358,
				"element": "H" 
			},
			{
				"x": 4.5424860144,
				"y": 0.1914231075,
				"z": 4.4188025827,
				"element": "H" 
			},
			{
				"x": 2.5824882634,
				"y": -1.2491103698,
				"z": 3.9496337512,
				"element": "H" 
			},
			{
				"x": -1.7023852792,
				"y": 0.8622867959,
				"z": 2.858585589,
				"element": "H" 
			},
			{
				"x": -1.1652748577,
				"y": -0.7597596658,
				"z": 3.3228648013,
				"element": "H" 
			},
			{
				"x": 0.0217252683,
				"y": 0.5431079867,
				"z": 3.1660867379,
				"element": "H" 
			},
			{
				"x": -3.017545645,
				"y": 1.3011895162,
				"z": -0.9218455492,
				"element": "H" 
			},
			{
				"x": -4.6306896222,
				"y": 2.7411641914,
				"z": 1.531914715,
				"element": "H" 
			}
		],
		 "valence_orbital": [ 
			{
				"type": "occ",
				"energy": -0.26968,
				"method": "rhf"
			},
			{
				"type": "occ",
				"energy": -0.25385,
				"method": "rhf"
			},
			{
				"type": "occ",
				"energy": -0.25123,
				"method": "rhf"
			},
			{
				"type": "occ",
				"energy": -0.23544,
				"method": "rhf"
			},
			{
				"type": "occ",
				"energy": -0.2081,
				"method": "rhf"
			},
			{
				"type": "unocc",
				"energy": -0.01698,
				"method": "rhf"
			},
			{
				"type": "unocc",
				"energy": -0.009,
				"method": "rhf"
			},
			{
				"type": "unocc",
				"energy": -0.00488,
				"method": "rhf"
			},
			{
				"type": "unocc",
				"energy": 0.0302,
				"method": "rhf"
			},
			{
				"type": "unocc",
				"energy": 0.08259,
				"method": "rhf"
			}
		],
		"cosmo_sigma_profile": { 
			"-0.025": 0.0,
			"-0.024": 0.0,
			"-0.023": 0.0,
			"-0.022": 0.0,
			"-0.021": 0.0,
			"-0.02": 0.0,
			"-0.019": 0.0,
			"-0.018": 0.0,
			"-0.017": 0.688938525679,
			"-0.016": 0.957197439884,
			"-0.015": 0.945060792957,
			"-0.014": 1.23287855571,
			"-0.013": 0.144948870767,
			"-0.012": 0.0632169366654,
			"-0.011": 0.954184014746,
			"-0.01": 1.00451525226,
			"-0.009": 0.662951143157,
			"-0.008": 0.600487618719,
			"-0.007": 4.24132466717,
			"-0.006": 13.183862258,
			"-0.005": 21.3166819158,
			"-0.004": 24.9299338902,
			"-0.003": 24.9851199302,
			"-0.002": 22.7197620768,
			"-0.001": 24.4470275989,
			"0.0": 20.3653128855,
			"0.001": 16.3293306473,
			"0.002": 17.8372490954,
			"0.003": 20.1562727309,
			"0.004": 18.3082839407,
			"0.005": 13.9798794427,
			"0.006": 12.3495653581,
			"0.007": 5.70731124524,
			"0.008": 4.61558971155,
			"0.009": 3.8561799346,
			"0.01": 2.49941978205,
			"0.011": 3.7051725489,
			"0.012": 1.31194805551,
			"0.013": 0.548544386383,
			"0.014": 0.663782978236,
			"0.015": 0.582137757045,
			"0.016": 0.229639006344,
			"0.017": 0.0,
			"0.018": 0.0,
			"0.019": 0.0,
			"0.02": 0.0,
			"0.021": 0.0,
			"0.022": 0.0,
			"0.023": 0.0,
			"0.024": 0.0,
			"0.025": 0.0
		}
	}
}
