{
	 "smiles": "CC1=CC=CC=C1P(C1=CC=CC=C1)C1=CC=CC=C1", 
	 "Tm": 345.15, 
	 "num_atms": 37, 
	 "gaussian": { 
		 "optdone": 1, 
		 "sigma_profile": "yes", 
		 "theory": "DFT", 
		 "functional": "B3LYP", 
		 "basiset": "6-31G**", 
		 "properties": { 
			 "R2extent": 6360.9378, 
			 "electric_dipole_moment_norm": 1.17250901063, 
			 "electric_quadrupole_moment_norm": 6.10976370001, 
			 "total_energy": -1075.62334337, 
			 "HOMO_LUMO_gap": 0.18976, 
			 "cosmo_polarized_energy": -7.3, 
			 "cosmo_cavitation_energy": 41.11, 
			 "cosmo_dispersion_energy": -28.22, 
			 "cosmo_repulsion_energy": 2.23, 
			 "cosmo_total_nonelectrostatic_energy": 15.12, 
			 "SMD_solvation_energy": 7.0 
		},
		"coords": [
			{
				"x": 2.1433844091,
				"y": -2.1854936289,
				"z": -1.8950788672,
				"element": "C" 
			},
			{
				"x": 0.8229789683,
				"y": -2.4752733729,
				"z": -1.2191951344,
				"element": "C" 
			},
			{
				"x": -0.067855028,
				"y": -3.3797814243,
				"z": -1.8098360236,
				"element": "C" 
			},
			{
				"x": -1.3016454909,
				"y": -3.6769735264,
				"z": -1.2304713684,
				"element": "C" 
			},
			{
				"x": -1.6661854055,
				"y": -3.0607915739,
				"z": -0.0353606976,
				"element": "C" 
			},
			{
				"x": -0.79454202,
				"y": -2.1527935348,
				"z": 0.5675542102,
				"element": "C" 
			},
			{
				"x": 0.448990807,
				"y": -1.8446820011,
				"z": -0.0054216041,
				"element": "C" 
			},
			{
				"x": 1.6720367383,
				"y": -0.7195192288,
				"z": 0.822978464,
				"element": "P" 
			},
			{
				"x": 1.4864904538,
				"y": 0.8558655599,
				"z": -0.1373922866,
				"element": "C" 
			},
			{
				"x": 0.4056659339,
				"y": 1.1425039677,
				"z": -0.986302346,
				"element": "C" 
			},
			{
				"x": 0.3515786535,
				"y": 2.3501247478,
				"z": -1.68630196,
				"element": "C" 
			},
			{
				"x": 1.3723321574,
				"y": 3.2916705242,
				"z": -1.5443444209,
				"element": "C" 
			},
			{
				"x": 2.4538925802,
				"y": 3.0180818709,
				"z": -0.7041154234,
				"element": "C" 
			},
			{
				"x": 2.5137087494,
				"y": 1.8069061864,
				"z": -0.0147640909,
				"element": "C" 
			},
			{
				"x": 0.841475588,
				"y": -0.3083189027,
				"z": 2.4267499972,
				"element": "C" 
			},
			{
				"x": 1.1679206645,
				"y": -1.1087300907,
				"z": 3.534690887,
				"element": "C" 
			},
			{
				"x": 0.6038273687,
				"y": -0.863080117,
				"z": 4.7868480451,
				"element": "C" 
			},
			{
				"x": -0.2833470019,
				"y": 0.2017749652,
				"z": 4.9562908474,
				"element": "C" 
			},
			{
				"x": -0.6055085587,
				"y": 1.0137111554,
				"z": 3.8670639934,
				"element": "C" 
			},
			{
				"x": -0.0502962971,
				"y": 0.7599598795,
				"z": 2.6113318187,
				"element": "C" 
			},
			{
				"x": 2.9817934777,
				"y": -2.2853479188,
				"z": -1.1967883998,
				"element": "H" 
			},
			{
				"x": 2.3115300147,
				"y": -2.8682189156,
				"z": -2.7323622777,
				"element": "H" 
			},
			{
				"x": 2.1786788611,
				"y": -1.1621061856,
				"z": -2.2866671369,
				"element": "H" 
			},
			{
				"x": 0.2179035554,
				"y": -3.8628175913,
				"z": -2.7411750928,
				"element": "H" 
			},
			{
				"x": -1.9691465644,
				"y": -4.3876932065,
				"z": -1.7097639327,
				"element": "H" 
			},
			{
				"x": -2.6231702149,
				"y": -3.2816673721,
				"z": 0.4291330455,
				"element": "H" 
			},
			{
				"x": -1.0857721793,
				"y": -1.6783311774,
				"z": 1.4985650084,
				"element": "H" 
			},
			{
				"x": -0.3941678351,
				"y": 0.4173744313,
				"z": -1.1017551985,
				"element": "H" 
			},
			{
				"x": -0.491038987,
				"y": 2.5553655704,
				"z": -2.3411052557,
				"element": "H" 
			},
			{
				"x": 1.3285070468,
				"y": 4.2304273293,
				"z": -2.0893357123,
				"element": "H" 
			},
			{
				"x": 3.2556709959,
				"y": 3.7429324798,
				"z": -0.5936196047,
				"element": "H" 
			},
			{
				"x": 3.3676806703,
				"y": 1.5927598648,
				"z": 0.6231646398,
				"element": "H" 
			},
			{
				"x": 1.8735110067,
				"y": -1.9269802403,
				"z": 3.41388044,
				"element": "H" 
			},
			{
				"x": 0.8653834943,
				"y": -1.4952528317,
				"z": 5.6308639337,
				"element": "H" 
			},
			{
				"x": -0.7160897804,
				"y": 0.4015125969,
				"z": 5.9325463075,
				"element": "H" 
			},
			{
				"x": -1.2917864872,
				"y": 1.8466908813,
				"z": 3.9935887011,
				"element": "H" 
			},
			{
				"x": -0.3088903445,
				"y": 1.3977908302,
				"z": 1.7720064953,
				"element": "H" 
			}
		],
		 "valence_orbital": [ 
			{
				"type": "occ",
				"energy": -0.25245,
				"method": "rhf"
			},
			{
				"type": "occ",
				"energy": -0.25141,
				"method": "rhf"
			},
			{
				"type": "occ",
				"energy": -0.24644,
				"method": "rhf"
			},
			{
				"type": "occ",
				"energy": -0.2379,
				"method": "rhf"
			},
			{
				"type": "occ",
				"energy": -0.20965,
				"method": "rhf"
			},
			{
				"type": "unocc",
				"energy": -0.01989,
				"method": "rhf"
			},
			{
				"type": "unocc",
				"energy": -0.01798,
				"method": "rhf"
			},
			{
				"type": "unocc",
				"energy": -0.00784,
				"method": "rhf"
			},
			{
				"type": "unocc",
				"energy": 0.00176,
				"method": "rhf"
			},
			{
				"type": "unocc",
				"energy": 0.00216,
				"method": "rhf"
			}
		],
		"cosmo_sigma_profile": { 
			"-0.025": 0.0,
			"-0.024": 0.0,
			"-0.023": 0.0,
			"-0.022": 0.0,
			"-0.021": 0.0,
			"-0.02": 0.0,
			"-0.019": 0.0,
			"-0.018": 0.0,
			"-0.017": 0.0,
			"-0.016": 0.0,
			"-0.015": 0.0,
			"-0.014": 0.0,
			"-0.013": 0.0,
			"-0.012": 0.0,
			"-0.011": 0.0,
			"-0.01": 0.0,
			"-0.009": 0.0,
			"-0.008": 0.0,
			"-0.007": 0.038748291857,
			"-0.006": 10.5153115008,
			"-0.005": 25.2173680213,
			"-0.004": 30.9121801721,
			"-0.003": 31.2049364879,
			"-0.002": 26.2261348513,
			"-0.001": 27.1803407348,
			"0.0": 31.9818014336,
			"0.001": 28.0127152335,
			"0.002": 25.9427795473,
			"0.003": 26.8187777932,
			"0.004": 26.059152767,
			"0.005": 23.9574179725,
			"0.006": 9.90618498026,
			"0.007": 0.929869788393,
			"0.008": 0.916757421097,
			"0.009": 0.469675011757,
			"0.01": 0.489078450345,
			"0.011": 0.884557725557,
			"0.012": 0.27631216076,
			"0.013": 0.43193042472,
			"0.014": 0.0,
			"0.015": 0.0,
			"0.016": 0.0,
			"0.017": 0.0,
			"0.018": 0.0,
			"0.019": 0.0,
			"0.02": 0.0,
			"0.021": 0.0,
			"0.022": 0.0,
			"0.023": 0.0,
			"0.024": 0.0,
			"0.025": 0.0
		}
	}
}
