{
	 "smiles": "O=CC1=CC=CO1", 
	 "Tm": 236.15, 
	 "num_atms": 11, 
	 "gaussian": { 
		 "optdone": 1, 
		 "sigma_profile": "yes", 
		 "theory": "DFT", 
		 "functional": "B3LYP", 
		 "basiset": "6-31G**", 
		 "properties": { 
			 "R2extent": 1180.732, 
			 "electric_dipole_moment_norm": 3.57610188194, 
			 "electric_quadrupole_moment_norm": 10.5836335481, 
			 "total_energy": -343.347945373, 
			 "HOMO_LUMO_gap": 0.18554, 
			 "cosmo_polarized_energy": -7.66, 
			 "cosmo_cavitation_energy": 16.0, 
			 "cosmo_dispersion_energy": -11.79, 
			 "cosmo_repulsion_energy": 0.99, 
			 "cosmo_total_nonelectrostatic_energy": 5.21, 
			 "SMD_solvation_energy": 5.12 
		},
		"coords": [
			{
				"x": -2.5997526596,
				"y": 0.3610087,
				"z": -1.0371252958,
				"element": "O" 
			},
			{
				"x": -1.4942264469,
				"y": 0.1924919585,
				"z": -0.5514031224,
				"element": "C" 
			},
			{
				"x": -1.0818478225,
				"y": -1.0413420938,
				"z": 0.1015811634,
				"element": "C" 
			},
			{
				"x": -1.7229323208,
				"y": -2.2323890849,
				"z": 0.3391967455,
				"element": "C" 
			},
			{
				"x": -0.7925762473,
				"y": -3.061396031,
				"z": 1.0251137471,
				"element": "C" 
			},
			{
				"x": 0.349689979,
				"y": -2.3184303459,
				"z": 1.1571816773,
				"element": "C" 
			},
			{
				"x": 0.1955114537,
				"y": -1.0935941626,
				"z": 0.6054067161,
				"element": "O" 
			},
			{
				"x": -0.7114336186,
				"y": 0.9796476438,
				"z": -0.5727221988,
				"element": "H" 
			},
			{
				"x": -2.7372365039,
				"y": -2.4637556042,
				"z": 0.0490752233,
				"element": "H" 
			},
			{
				"x": -0.9437719356,
				"y": -4.0721202752,
				"z": 1.3754058591,
				"element": "H" 
			},
			{
				"x": 1.3126761226,
				"y": -2.5192207047,
				"z": 1.6019894851,
				"element": "H" 
			}
		],
		 "valence_orbital": [ 
			{
				"type": "occ",
				"energy": -0.39236,
				"method": "rhf"
			},
			{
				"type": "occ",
				"energy": -0.38528,
				"method": "rhf"
			},
			{
				"type": "occ",
				"energy": -0.29918,
				"method": "rhf"
			},
			{
				"type": "occ",
				"energy": -0.25766,
				"method": "rhf"
			},
			{
				"type": "occ",
				"energy": -0.24794,
				"method": "rhf"
			},
			{
				"type": "unocc",
				"energy": -0.0624,
				"method": "rhf"
			},
			{
				"type": "unocc",
				"energy": 0.02713,
				"method": "rhf"
			},
			{
				"type": "unocc",
				"energy": 0.09343,
				"method": "rhf"
			},
			{
				"type": "unocc",
				"energy": 0.10608,
				"method": "rhf"
			},
			{
				"type": "unocc",
				"energy": 0.12326,
				"method": "rhf"
			}
		],
		"cosmo_sigma_profile": { 
			"-0.025": 0.0,
			"-0.024": 0.0,
			"-0.023": 0.0,
			"-0.022": 0.0,
			"-0.021": 0.0,
			"-0.02": 0.0,
			"-0.019": 0.0,
			"-0.018": 0.0,
			"-0.017": 0.0,
			"-0.016": 0.0,
			"-0.015": 0.0,
			"-0.014": 0.0,
			"-0.013": 0.0,
			"-0.012": 0.0,
			"-0.011": 0.0807349898,
			"-0.01": 1.64477917064,
			"-0.009": 2.13129349942,
			"-0.008": 5.17092028518,
			"-0.007": 5.83304753551,
			"-0.006": 8.22428493124,
			"-0.005": 8.49280074278,
			"-0.004": 7.90106458987,
			"-0.003": 6.93904244102,
			"-0.002": 7.27251772252,
			"-0.001": 8.15895350946,
			"0.0": 10.3482030826,
			"0.001": 10.8756278933,
			"0.002": 10.8332130014,
			"0.003": 8.17423731705,
			"0.004": 3.60917243123,
			"0.005": 2.71896033068,
			"0.006": 2.89310883246,
			"0.007": 2.38613234748,
			"0.008": 2.13945145045,
			"0.009": 1.78776022391,
			"0.01": 2.19676873684,
			"0.011": 4.01490799082,
			"0.012": 4.16146518141,
			"0.013": 1.22675519474,
			"0.014": 0.0634032511406,
			"0.015": 0.0,
			"0.016": 0.0,
			"0.017": 0.0,
			"0.018": 0.0,
			"0.019": 0.0,
			"0.02": 0.0,
			"0.021": 0.0,
			"0.022": 0.0,
			"0.023": 0.0,
			"0.024": 0.0,
			"0.025": 0.0
		}
	}
}
