{
	 "smiles": "CCC1=C(NC2=NC(CCl)=NC(N)=N2)C=CC=C1", 
	 "Tm": 421.15, 
	 "num_atms": 32, 
	 "gaussian": { 
		 "optdone": 1, 
		 "sigma_profile": "yes", 
		 "theory": "DFT", 
		 "functional": "B3LYP", 
		 "basiset": "6-31G**", 
		 "properties": { 
			 "R2extent": 7057.3532, 
			 "electric_dipole_moment_norm": 3.24435229437, 
			 "electric_quadrupole_moment_norm": 16.3680037418, 
			 "total_energy": -1199.71533827, 
			 "HOMO_LUMO_gap": 0.19144, 
			 "cosmo_polarized_energy": -15.01, 
			 "cosmo_cavitation_energy": 37.96, 
			 "cosmo_dispersion_energy": -26.64, 
			 "cosmo_repulsion_energy": 2.14, 
			 "cosmo_total_nonelectrostatic_energy": 13.46, 
			 "SMD_solvation_energy": 2.63 
		},
		"coords": [
			{
				"x": 1.5201225553,
				"y": -2.2491258379,
				"z": -0.2720107045,
				"element": "C" 
			},
			{
				"x": 0.452551542,
				"y": -1.8777468094,
				"z": 0.7733970224,
				"element": "C" 
			},
			{
				"x": 0.7607162124,
				"y": -0.5888570897,
				"z": 1.5054040349,
				"element": "C" 
			},
			{
				"x": 0.5734257091,
				"y": 0.6785402664,
				"z": 0.9198223034,
				"element": "C" 
			},
			{
				"x": 0.0603574731,
				"y": 0.8195902439,
				"z": -0.4084558505,
				"element": "N" 
			},
			{
				"x": -1.2321210876,
				"y": 0.6415036019,
				"z": -0.8066777975,
				"element": "C" 
			},
			{
				"x": -1.5019687241,
				"y": 1.0471241237,
				"z": -2.0718395164,
				"element": "N" 
			},
			{
				"x": -2.7688036097,
				"y": 0.863951584,
				"z": -2.438509036,
				"element": "C" 
			},
			{
				"x": -3.1425073623,
				"y": 1.31550231,
				"z": -3.827157606,
				"element": "C" 
			},
			{
				"x": -3.7186427917,
				"y": 3.042839351,
				"z": -3.8096205983,
				"element": "Cl" 
			},
			{
				"x": -3.7429400804,
				"y": 0.3226999486,
				"z": -1.7038811099,
				"element": "N" 
			},
			{
				"x": -3.3467800559,
				"y": -0.0458079279,
				"z": -0.4660457881,
				"element": "C" 
			},
			{
				"x": -4.2793893204,
				"y": -0.6225620526,
				"z": 0.328429788,
				"element": "N" 
			},
			{
				"x": -2.1099337491,
				"y": 0.0926038634,
				"z": 0.0401033041,
				"element": "N" 
			},
			{
				"x": 0.9475168712,
				"y": 1.8419424004,
				"z": 1.6013512103,
				"element": "C" 
			},
			{
				"x": 1.5055168478,
				"y": 1.7719561173,
				"z": 2.8764253491,
				"element": "C" 
			},
			{
				"x": 1.676213911,
				"y": 0.5269631653,
				"z": 3.480642182,
				"element": "C" 
			},
			{
				"x": 1.3029930676,
				"y": -0.6300848618,
				"z": 2.7971708896,
				"element": "C" 
			},
			{
				"x": 2.5045401605,
				"y": -2.3640206682,
				"z": 0.1934922075,
				"element": "H" 
			},
			{
				"x": 1.2660083047,
				"y": -3.1937829542,
				"z": -0.7641918862,
				"element": "H" 
			},
			{
				"x": 1.6003047669,
				"y": -1.4786203883,
				"z": -1.0442664263,
				"element": "H" 
			},
			{
				"x": 0.3791903473,
				"y": -2.6850497509,
				"z": 1.51133422,
				"element": "H" 
			},
			{
				"x": -0.5280469281,
				"y": -1.805838073,
				"z": 0.2952444806,
				"element": "H" 
			},
			{
				"x": 0.596570925,
				"y": 1.3745013848,
				"z": -1.0622287866,
				"element": "H" 
			},
			{
				"x": -2.2768485836,
				"y": 1.2849044551,
				"z": -4.4864103933,
				"element": "H" 
			},
			{
				"x": -3.9664037011,
				"y": 0.7192428266,
				"z": -4.2154451974,
				"element": "H" 
			},
			{
				"x": -4.0567467026,
				"y": -0.7739946112,
				"z": 1.2986089385,
				"element": "H" 
			},
			{
				"x": -5.2397905381,
				"y": -0.6005364055,
				"z": 0.027139926,
				"element": "H" 
			},
			{
				"x": 0.7860641003,
				"y": 2.8044702125,
				"z": 1.12364038,
				"element": "H" 
			},
			{
				"x": 1.7913625477,
				"y": 2.6824760329,
				"z": 3.3944833492,
				"element": "H" 
			},
			{
				"x": 2.1006019307,
				"y": 0.4547473964,
				"z": 4.4778775459,
				"element": "H" 
			},
			{
				"x": 1.4465659624,
				"y": -1.5995318536,
				"z": 3.2680735656,
				"element": "H" 
			}
		],
		 "valence_orbital": [ 
			{
				"type": "occ",
				"energy": -0.26644,
				"method": "rhf"
			},
			{
				"type": "occ",
				"energy": -0.26104,
				"method": "rhf"
			},
			{
				"type": "occ",
				"energy": -0.25202,
				"method": "rhf"
			},
			{
				"type": "occ",
				"energy": -0.24688,
				"method": "rhf"
			},
			{
				"type": "occ",
				"energy": -0.22975,
				"method": "rhf"
			},
			{
				"type": "unocc",
				"energy": -0.03831,
				"method": "rhf"
			},
			{
				"type": "unocc",
				"energy": -0.01148,
				"method": "rhf"
			},
			{
				"type": "unocc",
				"energy": -0.00302,
				"method": "rhf"
			},
			{
				"type": "unocc",
				"energy": 0.00673,
				"method": "rhf"
			},
			{
				"type": "unocc",
				"energy": 0.0496,
				"method": "rhf"
			}
		],
		"cosmo_sigma_profile": { 
			"-0.025": 0.0,
			"-0.024": 0.0,
			"-0.023": 0.0,
			"-0.022": 0.0,
			"-0.021": 0.0,
			"-0.02": 0.0,
			"-0.019": 0.0,
			"-0.018": 0.0,
			"-0.017": 0.0,
			"-0.016": 0.0,
			"-0.015": 0.321367336039,
			"-0.014": 2.68837744802,
			"-0.013": 2.65167362357,
			"-0.012": 2.61140056005,
			"-0.011": 3.27145985651,
			"-0.01": 3.03753651077,
			"-0.009": 2.77884526826,
			"-0.008": 4.8793015109,
			"-0.007": 6.21047971818,
			"-0.006": 10.5603801181,
			"-0.005": 14.83028568,
			"-0.004": 15.3733908739,
			"-0.003": 20.906314653,
			"-0.002": 19.8128368466,
			"-0.001": 26.9762784016,
			"0.0": 27.0764977064,
			"0.001": 25.0978278963,
			"0.002": 19.332062145,
			"0.003": 16.1993696529,
			"0.004": 16.6620435879,
			"0.005": 19.3427706052,
			"0.006": 21.1134872071,
			"0.007": 5.11128108242,
			"0.008": 3.50199672799,
			"0.009": 3.22865262001,
			"0.01": 3.02771616132,
			"0.011": 2.71555279837,
			"0.012": 2.24983984674,
			"0.013": 1.83624455094,
			"0.014": 0.216574035929,
			"0.015": 0.0,
			"0.016": 0.0,
			"0.017": 0.0,
			"0.018": 0.0,
			"0.019": 0.0,
			"0.02": 0.0,
			"0.021": 0.0,
			"0.022": 0.0,
			"0.023": 0.0,
			"0.024": 0.0,
			"0.025": 0.0
		}
	}
}
