{
	 "smiles": "OC1=CC=C(Br)C=C1C(=O)NC1=CC=C(Cl)C=C1", 
	 "Tm": 513.15, 
	 "num_atms": 27, 
	 "gaussian": { 
		 "optdone": 1, 
		 "sigma_profile": "yes", 
		 "theory": "DFT", 
		 "functional": "B3LYP", 
		 "basiset": "6-31G**", 
		 "properties": { 
			 "R2extent": 11321.5056, 
			 "electric_dipole_moment_norm": 2.06080380677, 
			 "electric_quadrupole_moment_norm": 6.60755445986, 
			 "total_energy": -3737.63274067, 
			 "HOMO_LUMO_gap": 0.15985, 
			 "cosmo_polarized_energy": -12.88, 
			 "cosmo_cavitation_energy": 35.91, 
			 "cosmo_dispersion_energy": -27.27, 
			 "cosmo_repulsion_energy": 2.08, 
			 "cosmo_total_nonelectrostatic_energy": 10.71, 
			 "SMD_solvation_energy": 5.11 
		},
		"coords": [
			{
				"x": -0.7203144906,
				"y": 1.4324277381,
				"z": -2.7808583915,
				"element": "O" 
			},
			{
				"x": 0.1867385003,
				"y": 0.4524721551,
				"z": -2.856976859,
				"element": "C" 
			},
			{
				"x": 0.499195399,
				"y": -0.0514037282,
				"z": -4.133173387,
				"element": "C" 
			},
			{
				"x": 1.4481484599,
				"y": -1.0465987652,
				"z": -4.2940526072,
				"element": "C" 
			},
			{
				"x": 2.1118728514,
				"y": -1.5578317415,
				"z": -3.1714772543,
				"element": "C" 
			},
			{
				"x": 3.4508610782,
				"y": -2.9030880405,
				"z": -3.3939314971,
				"element": "Br" 
			},
			{
				"x": 1.8126080649,
				"y": -1.0892130041,
				"z": -1.9039664815,
				"element": "C" 
			},
			{
				"x": 0.8337331541,
				"y": -0.0937595198,
				"z": -1.7144654632,
				"element": "C" 
			},
			{
				"x": 0.4414279751,
				"y": 0.423968583,
				"z": -0.3767201815,
				"element": "C" 
			},
			{
				"x": -0.2752570049,
				"y": 1.4368283754,
				"z": -0.2681448229,
				"element": "O" 
			},
			{
				"x": 0.882951147,
				"y": -0.26857199,
				"z": 0.7174864777,
				"element": "N" 
			},
			{
				"x": 0.6837358927,
				"y": 0.0051154337,
				"z": 2.088643841,
				"element": "C" 
			},
			{
				"x": 0.018674143,
				"y": 1.1424067671,
				"z": 2.5719062586,
				"element": "C" 
			},
			{
				"x": -0.1190720316,
				"y": 1.3303202919,
				"z": 3.9465910755,
				"element": "C" 
			},
			{
				"x": 0.3995401794,
				"y": 0.3952642743,
				"z": 4.8397819555,
				"element": "C" 
			},
			{
				"x": 0.2179588816,
				"y": 0.6437701364,
				"z": 6.5692013609,
				"element": "Cl" 
			},
			{
				"x": 1.0625604647,
				"y": -0.7388803852,
				"z": 4.3723983922,
				"element": "C" 
			},
			{
				"x": 1.201712952,
				"y": -0.9273579725,
				"z": 3.0016327361,
				"element": "C" 
			},
			{
				"x": -0.7636890829,
				"y": 1.6985735217,
				"z": -1.8251291104,
				"element": "H" 
			},
			{
				"x": -0.0190562542,
				"y": 0.3719856441,
				"z": -4.9867057324,
				"element": "H" 
			},
			{
				"x": 1.6866444582,
				"y": -1.4218192704,
				"z": -5.282897381,
				"element": "H" 
			},
			{
				"x": 2.3761976099,
				"y": -1.4869533487,
				"z": -1.0670730886,
				"element": "H" 
			},
			{
				"x": 1.3629255367,
				"y": -1.1357773559,
				"z": 0.5316160593,
				"element": "H" 
			},
			{
				"x": -0.3871416061,
				"y": 1.8628963075,
				"z": 1.8775045386,
				"element": "H" 
			},
			{
				"x": -0.633443968,
				"y": 2.2086469944,
				"z": 4.32056831,
				"element": "H" 
			},
			{
				"x": 1.4651556312,
				"y": -1.4644733152,
				"z": 5.0700610424,
				"element": "H" 
			},
			{
				"x": 1.7206320589,
				"y": -1.8115477855,
				"z": 2.63858021,
				"element": "H" 
			}
		],
		 "valence_orbital": [ 
			{
				"type": "occ",
				"energy": -0.28686,
				"method": "rhf"
			},
			{
				"type": "occ",
				"energy": -0.28166,
				"method": "rhf"
			},
			{
				"type": "occ",
				"energy": -0.27352,
				"method": "rhf"
			},
			{
				"type": "occ",
				"energy": -0.23776,
				"method": "rhf"
			},
			{
				"type": "occ",
				"energy": -0.22759,
				"method": "rhf"
			},
			{
				"type": "unocc",
				"energy": -0.06774,
				"method": "rhf"
			},
			{
				"type": "unocc",
				"energy": -0.02354,
				"method": "rhf"
			},
			{
				"type": "unocc",
				"energy": -0.01912,
				"method": "rhf"
			},
			{
				"type": "unocc",
				"energy": -0.00936,
				"method": "rhf"
			},
			{
				"type": "unocc",
				"energy": -0.00413,
				"method": "rhf"
			}
		],
		"cosmo_sigma_profile": { 
			"-0.025": 0.0,
			"-0.024": 0.0,
			"-0.023": 0.0,
			"-0.022": 0.0,
			"-0.021": 0.0,
			"-0.02": 0.0,
			"-0.019": 0.0,
			"-0.018": 0.0552801806701,
			"-0.017": 0.859793501381,
			"-0.016": 0.904363324657,
			"-0.015": 1.22467399559,
			"-0.014": 1.73236645901,
			"-0.013": 1.29832112952,
			"-0.012": 0.985571423096,
			"-0.011": 1.2863617072,
			"-0.01": 1.96841354228,
			"-0.009": 1.74215180447,
			"-0.008": 4.09335827772,
			"-0.007": 9.28032837623,
			"-0.006": 12.9339888072,
			"-0.005": 11.0870079465,
			"-0.004": 12.2561984383,
			"-0.003": 15.2802150332,
			"-0.002": 16.0943146583,
			"-0.001": 19.4463930927,
			"0.0": 23.8427565593,
			"0.001": 28.5974723162,
			"0.002": 38.8876644351,
			"0.003": 33.7626251266,
			"0.004": 25.9223986672,
			"0.005": 15.9409562481,
			"0.006": 3.13859906023,
			"0.007": 2.68505423016,
			"0.008": 3.3929557024,
			"0.009": 3.13705029146,
			"0.01": 1.54498346293,
			"0.011": 1.73221224225,
			"0.012": 0.220869936131,
			"0.013": 0.0,
			"0.014": 0.0,
			"0.015": 0.0,
			"0.016": 0.0,
			"0.017": 0.0,
			"0.018": 0.0,
			"0.019": 0.0,
			"0.02": 0.0,
			"0.021": 0.0,
			"0.022": 0.0,
			"0.023": 0.0,
			"0.024": 0.0,
			"0.025": 0.0
		}
	}
}
