{
	 "smiles": "CC(=O)NCCC1=CC=CC=C1", 
	 "Tm": 323.15, 
	 "num_atms": 25, 
	 "gaussian": { 
		 "optdone": 1, 
		 "sigma_profile": "yes", 
		 "theory": "DFT", 
		 "functional": "B3LYP", 
		 "basiset": "6-31G**", 
		 "properties": { 
			 "R2extent": 2828.904, 
			 "electric_dipole_moment_norm": 3.51772999817, 
			 "electric_quadrupole_moment_norm": 15.7256060173, 
			 "total_energy": -518.901887599, 
			 "HOMO_LUMO_gap": 0.23103, 
			 "cosmo_polarized_energy": -11.92, 
			 "cosmo_cavitation_energy": 28.5, 
			 "cosmo_dispersion_energy": -19.94, 
			 "cosmo_repulsion_energy": 1.62, 
			 "cosmo_total_nonelectrostatic_energy": 10.18, 
			 "SMD_solvation_energy": 5.12 
		},
		"coords": [
			{
				"x": 1.77166414,
				"y": 3.8307055827,
				"z": 0.1306714238,
				"element": "C" 
			},
			{
				"x": 0.4583228062,
				"y": 3.3189351116,
				"z": 0.7055495258,
				"element": "C" 
			},
			{
				"x": -0.0572686553,
				"y": 3.8328368029,
				"z": 1.6910167301,
				"element": "O" 
			},
			{
				"x": -0.1005514669,
				"y": 2.2630054021,
				"z": 0.0355363911,
				"element": "N" 
			},
			{
				"x": -1.3268771463,
				"y": 1.6197271648,
				"z": 0.4745312701,
				"element": "C" 
			},
			{
				"x": -1.1027925269,
				"y": 0.1918520941,
				"z": 1.0194132798,
				"element": "C" 
			},
			{
				"x": -0.523557734,
				"y": -0.7547426093,
				"z": -0.0102841051,
				"element": "C" 
			},
			{
				"x": 0.8591422412,
				"y": -0.9754805303,
				"z": -0.0916154396,
				"element": "C" 
			},
			{
				"x": 1.3969185418,
				"y": -1.8135127673,
				"z": -1.0713358817,
				"element": "C" 
			},
			{
				"x": 0.557807999,
				"y": -2.4469773743,
				"z": -1.9888608616,
				"element": "C" 
			},
			{
				"x": -0.8216012788,
				"y": -2.2383241435,
				"z": -1.9183819304,
				"element": "C" 
			},
			{
				"x": -1.3542112293,
				"y": -1.4000113399,
				"z": -0.9388991314,
				"element": "C" 
			},
			{
				"x": 1.6454841917,
				"y": 4.8799610228,
				"z": -0.1501400585,
				"element": "H" 
			},
			{
				"x": 2.5347706438,
				"y": 3.7942018635,
				"z": 0.9128218339,
				"element": "H" 
			},
			{
				"x": 2.1248114538,
				"y": 3.2704390565,
				"z": -0.739743284,
				"element": "H" 
			},
			{
				"x": 0.4047969036,
				"y": 1.8465382934,
				"z": -0.7320735711,
				"element": "H" 
			},
			{
				"x": -1.7419834232,
				"y": 2.2587286386,
				"z": 1.2567506724,
				"element": "H" 
			},
			{
				"x": -2.0405023797,
				"y": 1.5876428104,
				"z": -0.3584812273,
				"element": "H" 
			},
			{
				"x": -0.441782437,
				"y": 0.2530499458,
				"z": 1.8906472457,
				"element": "H" 
			},
			{
				"x": -2.0690851102,
				"y": -0.1877248884,
				"z": 1.3731737683,
				"element": "H" 
			},
			{
				"x": 1.5172432281,
				"y": -0.4945448986,
				"z": 0.627942762,
				"element": "H" 
			},
			{
				"x": 2.4705065017,
				"y": -1.9757417428,
				"z": -1.112505356,
				"element": "H" 
			},
			{
				"x": 0.9734317196,
				"y": -3.1026109881,
				"z": -2.7485629286,
				"element": "H" 
			},
			{
				"x": -1.4835682412,
				"y": -2.733020534,
				"z": -2.6237529157,
				"element": "H" 
			},
			{
				"x": -2.4301187417,
				"y": -1.2481319727,
				"z": -0.887818212,
				"element": "H" 
			}
		],
		 "valence_orbital": [ 
			{
				"type": "occ",
				"energy": -0.33521,
				"method": "rhf"
			},
			{
				"type": "occ",
				"energy": -0.25575,
				"method": "rhf"
			},
			{
				"type": "occ",
				"energy": -0.25273,
				"method": "rhf"
			},
			{
				"type": "occ",
				"energy": -0.24352,
				"method": "rhf"
			},
			{
				"type": "occ",
				"energy": -0.23875,
				"method": "rhf"
			},
			{
				"type": "unocc",
				"energy": -0.00772,
				"method": "rhf"
			},
			{
				"type": "unocc",
				"energy": -0.00637,
				"method": "rhf"
			},
			{
				"type": "unocc",
				"energy": 0.03634,
				"method": "rhf"
			},
			{
				"type": "unocc",
				"energy": 0.08156,
				"method": "rhf"
			},
			{
				"type": "unocc",
				"energy": 0.09039,
				"method": "rhf"
			}
		],
		"cosmo_sigma_profile": { 
			"-0.025": 0.0,
			"-0.024": 0.0,
			"-0.023": 0.0,
			"-0.022": 0.0,
			"-0.021": 0.0,
			"-0.02": 0.0,
			"-0.019": 0.0,
			"-0.018": 0.0,
			"-0.017": 0.0,
			"-0.016": 0.0,
			"-0.015": 0.0,
			"-0.014": 0.0,
			"-0.013": 0.219672258598,
			"-0.012": 0.679983104787,
			"-0.011": 1.04775798404,
			"-0.01": 1.24168382712,
			"-0.009": 0.784867653665,
			"-0.008": 2.00249461233,
			"-0.007": 1.36445072301,
			"-0.006": 4.38808073571,
			"-0.005": 17.7801588454,
			"-0.004": 25.0877038025,
			"-0.003": 29.5476723424,
			"-0.002": 23.8736722621,
			"-0.001": 23.6599120133,
			"0.0": 14.8135318766,
			"0.001": 9.83615787445,
			"0.002": 10.5645712768,
			"0.003": 10.4669039621,
			"0.004": 9.11064227834,
			"0.005": 9.20092887154,
			"0.006": 8.26526824748,
			"0.007": 2.53266055038,
			"0.008": 1.50882087641,
			"0.009": 1.41981338268,
			"0.01": 1.57782754105,
			"0.011": 1.1660332295,
			"0.012": 1.56870684817,
			"0.013": 2.25913022275,
			"0.014": 5.08278091553,
			"0.015": 3.36590129421,
			"0.016": 0.39415576401,
			"0.017": 0.0,
			"0.018": 0.0,
			"0.019": 0.0,
			"0.02": 0.0,
			"0.021": 0.0,
			"0.022": 0.0,
			"0.023": 0.0,
			"0.024": 0.0,
			"0.025": 0.0
		}
	}
}
