{
	 "smiles": "BrCC1=C2N=CC=CC2=CC(Br)=C1", 
	 "Tm": 414.15, 
	 "num_atms": 20, 
	 "gaussian": { 
		 "optdone": 1, 
		 "sigma_profile": "yes", 
		 "theory": "DFT", 
		 "functional": "B3LYP", 
		 "basiset": "6-31G**", 
		 "properties": { 
			 "R2extent": 5514.9774, 
			 "electric_dipole_moment_norm": 3.4714297602, 
			 "electric_quadrupole_moment_norm": 13.4644466674, 
			 "total_energy": -5582.85416467, 
			 "HOMO_LUMO_gap": 0.16576, 
			 "cosmo_polarized_energy": -8.97, 
			 "cosmo_cavitation_energy": 28.88, 
			 "cosmo_dispersion_energy": -21.74, 
			 "cosmo_repulsion_energy": 1.72, 
			 "cosmo_total_nonelectrostatic_energy": 8.86, 
			 "SMD_solvation_energy": 1.37 
		},
		"coords": [
			{
				"x": -1.0980053845,
				"y": 4.0129475587,
				"z": -0.7968267252,
				"element": "Br" 
			},
			{
				"x": 0.0911542722,
				"y": 2.9443921913,
				"z": 0.4109545768,
				"element": "C" 
			},
			{
				"x": -0.0813005216,
				"y": 1.4779328445,
				"z": 0.1924290983,
				"element": "C" 
			},
			{
				"x": -1.0317924804,
				"y": 0.7462845156,
				"z": 0.9757202673,
				"element": "C" 
			},
			{
				"x": -1.7471551068,
				"y": 1.4133751231,
				"z": 1.9231884328,
				"element": "N" 
			},
			{
				"x": -2.6241229818,
				"y": 0.7338861089,
				"z": 2.6347390458,
				"element": "C" 
			},
			{
				"x": -2.8684170353,
				"y": -0.6532215031,
				"z": 2.4775508281,
				"element": "C" 
			},
			{
				"x": -2.1476009459,
				"y": -1.3464410086,
				"z": 1.5351195677,
				"element": "C" 
			},
			{
				"x": -1.191412221,
				"y": -0.6567241932,
				"z": 0.7450094241,
				"element": "C" 
			},
			{
				"x": -0.4069559006,
				"y": -1.3065948347,
				"z": -0.2420890532,
				"element": "C" 
			},
			{
				"x": 0.5033830794,
				"y": -0.5743732068,
				"z": -0.965677082,
				"element": "C" 
			},
			{
				"x": 1.5766793337,
				"y": -1.4333224903,
				"z": -2.2905198434,
				"element": "Br" 
			},
			{
				"x": 0.6703507404,
				"y": 0.812074971,
				"z": -0.7569058154,
				"element": "C" 
			},
			{
				"x": -0.207484189,
				"y": 3.2408597625,
				"z": 1.4118482684,
				"element": "H" 
			},
			{
				"x": 1.096038995,
				"y": 3.2859576696,
				"z": 0.1721202558,
				"element": "H" 
			},
			{
				"x": -3.1789253636,
				"y": 1.2969869603,
				"z": 3.384009963,
				"element": "H" 
			},
			{
				"x": -3.6088798034,
				"y": -1.1462013767,
				"z": 3.0990849406,
				"element": "H" 
			},
			{
				"x": -2.295517528,
				"y": -2.4124246724,
				"z": 1.3837140185,
				"element": "H" 
			},
			{
				"x": -0.5291978902,
				"y": -2.3704237187,
				"z": -0.415192106,
				"element": "H" 
			},
			{
				"x": 1.3901609314,
				"y": 1.3558292992,
				"z": -1.3591780622,
				"element": "H" 
			}
		],
		 "valence_orbital": [ 
			{
				"type": "occ",
				"energy": -0.27471,
				"method": "rhf"
			},
			{
				"type": "occ",
				"energy": -0.26726,
				"method": "rhf"
			},
			{
				"type": "occ",
				"energy": -0.26419,
				"method": "rhf"
			},
			{
				"type": "occ",
				"energy": -0.25793,
				"method": "rhf"
			},
			{
				"type": "occ",
				"energy": -0.24031,
				"method": "rhf"
			},
			{
				"type": "unocc",
				"energy": -0.07455,
				"method": "rhf"
			},
			{
				"type": "unocc",
				"energy": -0.03351,
				"method": "rhf"
			},
			{
				"type": "unocc",
				"energy": -0.0212,
				"method": "rhf"
			},
			{
				"type": "unocc",
				"energy": -0.00155,
				"method": "rhf"
			},
			{
				"type": "unocc",
				"energy": 0.02987,
				"method": "rhf"
			}
		],
		"cosmo_sigma_profile": { 
			"-0.025": 0.0,
			"-0.024": 0.0,
			"-0.023": 0.0,
			"-0.022": 0.0,
			"-0.021": 0.0,
			"-0.02": 0.0,
			"-0.019": 0.0,
			"-0.018": 0.0,
			"-0.017": 0.0,
			"-0.016": 0.0,
			"-0.015": 0.0,
			"-0.014": 0.0,
			"-0.013": 0.0,
			"-0.012": 0.0,
			"-0.011": 0.0,
			"-0.01": 0.0,
			"-0.009": 0.92291753599,
			"-0.008": 8.13270510419,
			"-0.007": 12.2149075898,
			"-0.006": 12.3319332867,
			"-0.005": 12.2745959593,
			"-0.004": 12.2618392117,
			"-0.003": 11.1189947493,
			"-0.002": 12.0295902102,
			"-0.001": 13.5960358817,
			"0.0": 22.9078081717,
			"0.001": 32.1609522234,
			"0.002": 21.63895344,
			"0.003": 14.2009354809,
			"0.004": 18.1294492734,
			"0.005": 11.2271818377,
			"0.006": 11.958823744,
			"0.007": 6.62745325125,
			"0.008": 2.21010457925,
			"0.009": 0.940275206817,
			"0.01": 1.06617531747,
			"0.011": 0.656151990919,
			"0.012": 0.337883699353,
			"0.013": 0.0,
			"0.014": 0.0,
			"0.015": 0.0,
			"0.016": 0.0,
			"0.017": 0.0,
			"0.018": 0.0,
			"0.019": 0.0,
			"0.02": 0.0,
			"0.021": 0.0,
			"0.022": 0.0,
			"0.023": 0.0,
			"0.024": 0.0,
			"0.025": 0.0
		}
	}
}
