{
	 "smiles": "CN(C)S(=O)(=O)C1=CC(C(O)=O)=C(C=C1)N1CCOCC1", 
	 "Tm": 492.15, 
	 "num_atms": 39, 
	 "gaussian": { 
		 "optdone": 1, 
		 "sigma_profile": "yes", 
		 "theory": "DFT", 
		 "functional": "B3LYP", 
		 "basiset": "6-31G**", 
		 "properties": { 
			 "R2extent": 8370.9811, 
			 "electric_dipole_moment_norm": 5.82411059905, 
			 "electric_quadrupole_moment_norm": 30.1321691184, 
			 "total_energy": -1389.94017356, 
			 "HOMO_LUMO_gap": 0.16886, 
			 "cosmo_polarized_energy": -26.2, 
			 "cosmo_cavitation_energy": 41.66, 
			 "cosmo_dispersion_energy": -29.8, 
			 "cosmo_repulsion_energy": 2.23, 
			 "cosmo_total_nonelectrostatic_energy": 14.1, 
			 "SMD_solvation_energy": 5.84 
		},
		"coords": [
			{
				"x": -4.1953669587,
				"y": 1.1279526592,
				"z": 1.119303959,
				"element": "C" 
			},
			{
				"x": -4.2360935028,
				"y": -0.3393321049,
				"z": 1.1164591859,
				"element": "N" 
			},
			{
				"x": -5.4476151733,
				"y": -0.8897834103,
				"z": 1.745182056,
				"element": "C" 
			},
			{
				"x": -3.8872608184,
				"y": -1.0248682179,
				"z": -0.411606113,
				"element": "S" 
			},
			{
				"x": -4.1515133813,
				"y": -2.4607889059,
				"z": -0.2701463776,
				"element": "O" 
			},
			{
				"x": -4.5155473475,
				"y": -0.2516958537,
				"z": -1.4941127037,
				"element": "O" 
			},
			{
				"x": -2.127047772,
				"y": -0.76450368,
				"z": -0.5239638884,
				"element": "C" 
			},
			{
				"x": -1.2649371006,
				"y": -1.516294992,
				"z": 0.2667074825,
				"element": "C" 
			},
			{
				"x": 0.1245114693,
				"y": -1.3687554845,
				"z": 0.1743971756,
				"element": "C" 
			},
			{
				"x": 0.9600586147,
				"y": -2.3979969228,
				"z": 0.8739147042,
				"element": "C" 
			},
			{
				"x": 0.5310391349,
				"y": -2.7662643462,
				"z": 2.1144017526,
				"element": "O" 
			},
			{
				"x": 1.9297678697,
				"y": -2.9379074976,
				"z": 0.3944046835,
				"element": "O" 
			},
			{
				"x": 0.6784772245,
				"y": -0.4046188408,
				"z": -0.730602742,
				"element": "C" 
			},
			{
				"x": -0.2326539174,
				"y": 0.3150569012,
				"z": -1.5465340993,
				"element": "C" 
			},
			{
				"x": -1.602915072,
				"y": 0.139175487,
				"z": -1.4523493441,
				"element": "C" 
			},
			{
				"x": 2.0306338062,
				"y": -0.159102969,
				"z": -0.8021657789,
				"element": "N" 
			},
			{
				"x": 2.9190817773,
				"y": -0.2507963094,
				"z": 0.3648389724,
				"element": "C" 
			},
			{
				"x": 3.9089683722,
				"y": 0.9328471961,
				"z": 0.3523853084,
				"element": "C" 
			},
			{
				"x": 3.2741018705,
				"y": 2.1153427187,
				"z": -0.1033315913,
				"element": "O" 
			},
			{
				"x": 2.9292194594,
				"y": 2.0378567349,
				"z": -1.4838849775,
				"element": "C" 
			},
			{
				"x": 2.6335151579,
				"y": 0.5832624317,
				"z": -1.9026882009,
				"element": "C" 
			},
			{
				"x": -5.0204928442,
				"y": 1.5775941544,
				"z": 0.5510705088,
				"element": "H" 
			},
			{
				"x": -3.2476086476,
				"y": 1.4757412095,
				"z": 0.7016207235,
				"element": "H" 
			},
			{
				"x": -4.2497909737,
				"y": 1.4638453481,
				"z": 2.1587054592,
				"element": "H" 
			},
			{
				"x": -5.4456588628,
				"y": -0.5801152879,
				"z": 2.7943695572,
				"element": "H" 
			},
			{
				"x": -5.4192467531,
				"y": -1.977555958,
				"z": 1.694985127,
				"element": "H" 
			},
			{
				"x": -6.3731153853,
				"y": -0.529742066,
				"z": 1.2732464113,
				"element": "H" 
			},
			{
				"x": -1.6844582664,
				"y": -2.2837173803,
				"z": 0.9101217572,
				"element": "H" 
			},
			{
				"x": -0.1671997719,
				"y": -2.165832382,
				"z": 2.4118770539,
				"element": "H" 
			},
			{
				"x": 0.1385020066,
				"y": 1.061416609,
				"z": -2.237251263,
				"element": "H" 
			},
			{
				"x": -2.2776472634,
				"y": 0.7077061259,
				"z": -2.0833057506,
				"element": "H" 
			},
			{
				"x": 3.4562265424,
				"y": -1.2059272794,
				"z": 0.3928694944,
				"element": "H" 
			},
			{
				"x": 2.301256878,
				"y": -0.1924748455,
				"z": 1.2664741399,
				"element": "H" 
			},
			{
				"x": 4.2571331046,
				"y": 1.1292694426,
				"z": 1.3697390198,
				"element": "H" 
			},
			{
				"x": 4.7960157627,
				"y": 0.6998783111,
				"z": -0.2569703483,
				"element": "H" 
			},
			{
				"x": 3.7380983575,
				"y": 2.4442194929,
				"z": -2.1125902113,
				"element": "H" 
			},
			{
				"x": 2.0473340455,
				"y": 2.6742516477,
				"z": -1.6114031469,
				"element": "H" 
			},
			{
				"x": 3.5660184231,
				"y": 0.0720790599,
				"z": -2.1709247621,
				"element": "H" 
			},
			{
				"x": 2.0035099353,
				"y": 0.543379204,
				"z": -2.7913432334,
				"element": "H" 
			}
		],
		 "valence_orbital": [ 
			{
				"type": "occ",
				"energy": -0.28441,
				"method": "rhf"
			},
			{
				"type": "occ",
				"energy": -0.27229,
				"method": "rhf"
			},
			{
				"type": "occ",
				"energy": -0.2698,
				"method": "rhf"
			},
			{
				"type": "occ",
				"energy": -0.25444,
				"method": "rhf"
			},
			{
				"type": "occ",
				"energy": -0.21896,
				"method": "rhf"
			},
			{
				"type": "unocc",
				"energy": -0.0501,
				"method": "rhf"
			},
			{
				"type": "unocc",
				"energy": -0.03772,
				"method": "rhf"
			},
			{
				"type": "unocc",
				"energy": 0.02198,
				"method": "rhf"
			},
			{
				"type": "unocc",
				"energy": 0.05449,
				"method": "rhf"
			},
			{
				"type": "unocc",
				"energy": 0.06832,
				"method": "rhf"
			}
		],
		"cosmo_sigma_profile": { 
			"-0.025": 0.0,
			"-0.024": 0.0,
			"-0.023": 0.0,
			"-0.022": 0.0,
			"-0.021": 0.0,
			"-0.02": 0.0,
			"-0.019": 0.0903096257236,
			"-0.018": 0.832296203047,
			"-0.017": 1.06395144228,
			"-0.016": 1.0597572474,
			"-0.015": 0.721456558499,
			"-0.014": 1.01994952985,
			"-0.013": 1.01731329913,
			"-0.012": 1.25122237182,
			"-0.011": 0.857296699911,
			"-0.01": 1.00917668799,
			"-0.009": 2.32346396659,
			"-0.008": 4.49887520165,
			"-0.007": 9.13587122217,
			"-0.006": 21.087373858,
			"-0.005": 29.6076088448,
			"-0.004": 36.102082935,
			"-0.003": 30.8453619942,
			"-0.002": 28.4702128633,
			"-0.001": 13.6128781979,
			"0.0": 13.9880058509,
			"0.001": 18.6448763187,
			"0.002": 14.9802186291,
			"0.003": 10.4073889389,
			"0.004": 8.16429004289,
			"0.005": 6.93878140136,
			"0.006": 7.38862320653,
			"0.007": 7.61470053356,
			"0.008": 7.09165263553,
			"0.009": 8.51846741915,
			"0.01": 11.6998555126,
			"0.011": 14.7312460482,
			"0.012": 10.540344139,
			"0.013": 3.0525567985,
			"0.014": 0.0955369839294,
			"0.015": 0.0,
			"0.016": 0.0,
			"0.017": 0.0,
			"0.018": 0.0,
			"0.019": 0.0,
			"0.02": 0.0,
			"0.021": 0.0,
			"0.022": 0.0,
			"0.023": 0.0,
			"0.024": 0.0,
			"0.025": 0.0
		}
	}
}
