{
	 "smiles": "O=C(OCC1=CC=CC=C1)N1CCNC(=O)C1", 
	 "Tm": 393.15, 
	 "num_atms": 31, 
	 "gaussian": { 
		 "optdone": 1, 
		 "sigma_profile": "yes", 
		 "theory": "DFT", 
		 "functional": "B3LYP", 
		 "basiset": "6-31G**", 
		 "properties": { 
			 "R2extent": 5944.8288, 
			 "electric_dipole_moment_norm": 5.21981406853, 
			 "electric_quadrupole_moment_norm": 17.544513148, 
			 "total_energy": -800.919817654, 
			 "HOMO_LUMO_gap": 0.22502, 
			 "cosmo_polarized_energy": -17.53, 
			 "cosmo_cavitation_energy": 34.46, 
			 "cosmo_dispersion_energy": -25.0, 
			 "cosmo_repulsion_energy": 1.97, 
			 "cosmo_total_nonelectrostatic_energy": 11.43, 
			 "SMD_solvation_energy": 6.22 
		},
		"coords": [
			{
				"x": -0.7452471486,
				"y": 1.0031008154,
				"z": -0.7912467758,
				"element": "O" 
			},
			{
				"x": 0.2957506466,
				"y": 1.0732983163,
				"z": -0.1551200711,
				"element": "C" 
			},
			{
				"x": 1.5358117518,
				"y": 0.9172715425,
				"z": -0.6915003559,
				"element": "O" 
			},
			{
				"x": 1.5788374896,
				"y": 0.5877626852,
				"z": -2.1062285513,
				"element": "C" 
			},
			{
				"x": 1.630174853,
				"y": -0.9027801569,
				"z": -2.3352795599,
				"element": "C" 
			},
			{
				"x": 0.4520826171,
				"y": -1.6641812782,
				"z": -2.3343137941,
				"element": "C" 
			},
			{
				"x": 0.5053304444,
				"y": -3.0431829467,
				"z": -2.5361918235,
				"element": "C" 
			},
			{
				"x": 1.7331814471,
				"y": -3.6766791079,
				"z": -2.7441877807,
				"element": "C" 
			},
			{
				"x": 2.9098712964,
				"y": -2.9258986415,
				"z": -2.7484352235,
				"element": "C" 
			},
			{
				"x": 2.8559898832,
				"y": -1.5462970898,
				"z": -2.5435832823,
				"element": "C" 
			},
			{
				"x": 0.3564007178,
				"y": 1.3322036294,
				"z": 1.1873476366,
				"element": "N" 
			},
			{
				"x": 1.5782908018,
				"y": 1.4015795483,
				"z": 1.9753933625,
				"element": "C" 
			},
			{
				"x": 1.6863275987,
				"y": 2.786319493,
				"z": 2.6101748168,
				"element": "C" 
			},
			{
				"x": 0.4438410588,
				"y": 3.1042252359,
				"z": 3.3046981071,
				"element": "N" 
			},
			{
				"x": -0.7998539509,
				"y": 2.6225459622,
				"z": 2.9995004077,
				"element": "C" 
			},
			{
				"x": -1.8082738689,
				"y": 2.9925660783,
				"z": 3.5835229218,
				"element": "O" 
			},
			{
				"x": -0.8852798556,
				"y": 1.5422009995,
				"z": 1.9213194207,
				"element": "C" 
			},
			{
				"x": 0.7085508626,
				"y": 1.035916232,
				"z": -2.5883169352,
				"element": "H" 
			},
			{
				"x": 2.4898623744,
				"y": 1.0695003608,
				"z": -2.4682116645,
				"element": "H" 
			},
			{
				"x": -0.497788443,
				"y": -1.1659558673,
				"z": -2.1661812907,
				"element": "H" 
			},
			{
				"x": -0.4127252838,
				"y": -3.6240137667,
				"z": -2.5358218949,
				"element": "H" 
			},
			{
				"x": 1.7719102953,
				"y": -4.7503209476,
				"z": -2.9054861982,
				"element": "H" 
			},
			{
				"x": 3.8671294412,
				"y": -3.4124751415,
				"z": -2.9128858335,
				"element": "H" 
			},
			{
				"x": 3.7734622664,
				"y": -0.9623132359,
				"z": -2.5493937701,
				"element": "H" 
			},
			{
				"x": 2.4346945734,
				"y": 1.2050313099,
				"z": 1.3343078557,
				"element": "H" 
			},
			{
				"x": 1.5487247043,
				"y": 0.6346625156,
				"z": 2.7625807596,
				"element": "H" 
			},
			{
				"x": 1.9065866568,
				"y": 3.529732202,
				"z": 1.8306820601,
				"element": "H" 
			},
			{
				"x": 2.5116756252,
				"y": 2.801649714,
				"z": 3.3309745476,
				"element": "H" 
			},
			{
				"x": 0.4371843404,
				"y": 3.8494659826,
				"z": 3.989026937,
				"element": "H" 
			},
			{
				"x": -1.6687161222,
				"y": 1.8231541455,
				"z": 1.2173380538,
				"element": "H" 
			},
			{
				"x": -1.2154870732,
				"y": 0.6190114115,
				"z": 2.4201179182,
				"element": "H" 
			}
		],
		 "valence_orbital": [ 
			{
				"type": "occ",
				"energy": -0.26856,
				"method": "rhf"
			},
			{
				"type": "occ",
				"energy": -0.25464,
				"method": "rhf"
			},
			{
				"type": "occ",
				"energy": -0.25239,
				"method": "rhf"
			},
			{
				"type": "occ",
				"energy": -0.24973,
				"method": "rhf"
			},
			{
				"type": "occ",
				"energy": -0.23706,
				"method": "rhf"
			},
			{
				"type": "unocc",
				"energy": -0.01204,
				"method": "rhf"
			},
			{
				"type": "unocc",
				"energy": -0.0033,
				"method": "rhf"
			},
			{
				"type": "unocc",
				"energy": 0.0242,
				"method": "rhf"
			},
			{
				"type": "unocc",
				"energy": 0.04644,
				"method": "rhf"
			},
			{
				"type": "unocc",
				"energy": 0.07659,
				"method": "rhf"
			}
		],
		"cosmo_sigma_profile": { 
			"-0.025": 0.0,
			"-0.024": 0.0,
			"-0.023": 0.0,
			"-0.022": 0.0,
			"-0.021": 0.0,
			"-0.02": 0.0,
			"-0.019": 0.0,
			"-0.018": 0.0,
			"-0.017": 0.0,
			"-0.016": 0.0,
			"-0.015": 0.0,
			"-0.014": 0.722776739354,
			"-0.013": 1.55122868298,
			"-0.012": 0.910646984124,
			"-0.011": 1.06989021831,
			"-0.01": 0.696746187592,
			"-0.009": 1.30978684144,
			"-0.008": 1.04654703508,
			"-0.007": 4.24822592983,
			"-0.006": 19.8771788862,
			"-0.005": 29.0651855327,
			"-0.004": 26.8741426558,
			"-0.003": 26.1824860727,
			"-0.002": 19.2289265651,
			"-0.001": 16.5880636966,
			"0.0": 14.6390866859,
			"0.001": 14.4886753544,
			"0.002": 11.8626155114,
			"0.003": 14.5945452566,
			"0.004": 14.1247865669,
			"0.005": 15.000877846,
			"0.006": 8.63722821731,
			"0.007": 2.64579107797,
			"0.008": 2.32439120497,
			"0.009": 1.7431683038,
			"0.01": 2.35663408287,
			"0.011": 3.18259172528,
			"0.012": 4.66757551841,
			"0.013": 6.2288931908,
			"0.014": 5.58963913311,
			"0.015": 1.59775654125,
			"0.016": 0.0,
			"0.017": 0.0,
			"0.018": 0.0,
			"0.019": 0.0,
			"0.02": 0.0,
			"0.021": 0.0,
			"0.022": 0.0,
			"0.023": 0.0,
			"0.024": 0.0,
			"0.025": 0.0
		}
	}
}
