{
	 "smiles": "CC1=CC(C)=NC(=N1)N1NC(=CC1=O)C(O)=O", 
	 "Tm": 520.15, 
	 "num_atms": 27, 
	 "gaussian": { 
		 "optdone": 1, 
		 "sigma_profile": "yes", 
		 "theory": "DFT", 
		 "functional": "B3LYP", 
		 "basiset": "6-31G**", 
		 "properties": { 
			 "R2extent": 6148.2004, 
			 "electric_dipole_moment_norm": 6.99389413775, 
			 "electric_quadrupole_moment_norm": 20.2425783708, 
			 "total_energy": -831.757402649, 
			 "HOMO_LUMO_gap": 0.15875, 
			 "cosmo_polarized_energy": -24.62, 
			 "cosmo_cavitation_energy": 32.92, 
			 "cosmo_dispersion_energy": -23.66, 
			 "cosmo_repulsion_energy": 1.86, 
			 "cosmo_total_nonelectrostatic_energy": 11.12, 
			 "SMD_solvation_energy": 6.0 
		},
		"coords": [
			{
				"x": -0.1129305805,
				"y": -1.3667077303,
				"z": 2.5287130668,
				"element": "C" 
			},
			{
				"x": -0.3072894852,
				"y": -0.9409700177,
				"z": 1.0990138378,
				"element": "C" 
			},
			{
				"x": -1.5199140118,
				"y": -1.1024392182,
				"z": 0.4266276338,
				"element": "C" 
			},
			{
				"x": -1.5974544222,
				"y": -0.6714641556,
				"z": -0.9034706389,
				"element": "C" 
			},
			{
				"x": -2.8533192479,
				"y": -0.8018803679,
				"z": -1.7199707535,
				"element": "C" 
			},
			{
				"x": -0.5463103419,
				"y": -0.1072879115,
				"z": -1.5158503494,
				"element": "N" 
			},
			{
				"x": 0.5629595272,
				"y": -0.0092280523,
				"z": -0.7883468932,
				"element": "C" 
			},
			{
				"x": 0.7534122028,
				"y": -0.3946994266,
				"z": 0.4819670014,
				"element": "N" 
			},
			{
				"x": 1.6875804046,
				"y": 0.5538039365,
				"z": -1.3994692269,
				"element": "N" 
			},
			{
				"x": 2.789663938,
				"y": 0.8411778276,
				"z": -0.5846940828,
				"element": "N" 
			},
			{
				"x": 3.8657990425,
				"y": 1.0392013897,
				"z": -1.4484379774,
				"element": "C" 
			},
			{
				"x": 3.4735719351,
				"y": 0.9964791227,
				"z": -2.7418480495,
				"element": "C" 
			},
			{
				"x": 2.0477172447,
				"y": 0.6548028176,
				"z": -2.7910770639,
				"element": "C" 
			},
			{
				"x": 1.302193895,
				"y": 0.4945995146,
				"z": -3.7335880518,
				"element": "O" 
			},
			{
				"x": 5.2025707766,
				"y": 1.3819325634,
				"z": -0.8865930903,
				"element": "C" 
			},
			{
				"x": 5.1730903918,
				"y": 1.8540785003,
				"z": 0.3855461593,
				"element": "O" 
			},
			{
				"x": 6.2334160334,
				"y": 1.2497609583,
				"z": -1.4957693812,
				"element": "O" 
			},
			{
				"x": -1.012767188,
				"y": -1.8312959553,
				"z": 2.9374696756,
				"element": "H" 
			},
			{
				"x": 0.7166994799,
				"y": -2.0770993203,
				"z": 2.6021065657,
				"element": "H" 
			},
			{
				"x": 0.1487829154,
				"y": -0.5020418476,
				"z": 3.1475872296,
				"element": "H" 
			},
			{
				"x": -2.3758575018,
				"y": -1.5477338947,
				"z": 0.9209666947,
				"element": "H" 
			},
			{
				"x": -3.6627378266,
				"y": -1.2665738436,
				"z": -1.1524997428,
				"element": "H" 
			},
			{
				"x": -3.1776874616,
				"y": 0.1850993769,
				"z": -2.0644143982,
				"element": "H" 
			},
			{
				"x": -2.6533966603,
				"y": -1.398903812,
				"z": -2.6152259316,
				"element": "H" 
			},
			{
				"x": 2.8548214366,
				"y": 0.1705790089,
				"z": 0.1824537535,
				"element": "H" 
			},
			{
				"x": 4.0783059666,
				"y": 1.2014596971,
				"z": -3.6112529187,
				"element": "H" 
			},
			{
				"x": 4.2555795377,
				"y": 2.0515508399,
				"z": 0.6368569317,
				"element": "H" 
			}
		],
		 "valence_orbital": [ 
			{
				"type": "occ",
				"energy": -0.29365,
				"method": "rhf"
			},
			{
				"type": "occ",
				"energy": -0.27594,
				"method": "rhf"
			},
			{
				"type": "occ",
				"energy": -0.27186,
				"method": "rhf"
			},
			{
				"type": "occ",
				"energy": -0.2535,
				"method": "rhf"
			},
			{
				"type": "occ",
				"energy": -0.23416,
				"method": "rhf"
			},
			{
				"type": "unocc",
				"energy": -0.07541,
				"method": "rhf"
			},
			{
				"type": "unocc",
				"energy": -0.05093,
				"method": "rhf"
			},
			{
				"type": "unocc",
				"energy": -0.02196,
				"method": "rhf"
			},
			{
				"type": "unocc",
				"energy": 0.03608,
				"method": "rhf"
			},
			{
				"type": "unocc",
				"energy": 0.05486,
				"method": "rhf"
			}
		],
		"cosmo_sigma_profile": { 
			"-0.025": 0.0,
			"-0.024": 0.0,
			"-0.023": 0.0,
			"-0.022": 0.0,
			"-0.021": 0.0,
			"-0.02": 0.0,
			"-0.019": 0.0,
			"-0.018": 0.244377631381,
			"-0.017": 1.38342324301,
			"-0.016": 2.65190835857,
			"-0.015": 1.67230189655,
			"-0.014": 1.95697533411,
			"-0.013": 1.45383978154,
			"-0.012": 2.16852851823,
			"-0.011": 1.79652044785,
			"-0.01": 1.2645135132,
			"-0.009": 2.16208930999,
			"-0.008": 4.11549096686,
			"-0.007": 5.76893304607,
			"-0.006": 11.7140403257,
			"-0.005": 15.8985904077,
			"-0.004": 16.5853258679,
			"-0.003": 21.4455502308,
			"-0.002": 25.9159307403,
			"-0.001": 31.3730751328,
			"0.0": 19.3340559646,
			"0.001": 12.7123845606,
			"0.002": 7.9212471329,
			"0.003": 7.46625595618,
			"0.004": 7.98641227638,
			"0.005": 4.64919667072,
			"0.006": 5.0651671626,
			"0.007": 6.00915888017,
			"0.008": 5.68420577032,
			"0.009": 6.22005766242,
			"0.01": 6.95193211736,
			"0.011": 7.07635507946,
			"0.012": 4.88045101383,
			"0.013": 5.091157561,
			"0.014": 2.14940399903,
			"0.015": 1.3305014083,
			"0.016": 1.07364711146,
			"0.017": 1.08418673388,
			"0.018": 0.726973538644,
			"0.019": 0.278901285638,
			"0.02": 0.0,
			"0.021": 0.0,
			"0.022": 0.0,
			"0.023": 0.0,
			"0.024": 0.0,
			"0.025": 0.0
		}
	}
}
