{
	 "smiles": "CCN1C(=O)CC(=O)NC1=O", 
	 "Tm": 392.15, 
	 "num_atms": 19, 
	 "gaussian": { 
		 "optdone": 1, 
		 "sigma_profile": "yes", 
		 "theory": "DFT", 
		 "functional": "B3LYP", 
		 "basiset": "6-31G**", 
		 "properties": { 
			 "R2extent": 1735.1867, 
			 "electric_dipole_moment_norm": 0.830603039966, 
			 "electric_quadrupole_moment_norm": 7.28280041399, 
			 "total_energy": -568.691153775, 
			 "HOMO_LUMO_gap": 0.21907, 
			 "cosmo_polarized_energy": -14.68, 
			 "cosmo_cavitation_energy": 23.21, 
			 "cosmo_dispersion_energy": -17.03, 
			 "cosmo_repulsion_energy": 1.38, 
			 "cosmo_total_nonelectrostatic_energy": 7.56, 
			 "SMD_solvation_energy": 6.13 
		},
		"coords": [
			{
				"x": 1.6213383333,
				"y": 0.046781607,
				"z": -2.3502027294,
				"element": "C" 
			},
			{
				"x": 1.8774356023,
				"y": 0.2982980819,
				"z": -0.8654271716,
				"element": "C" 
			},
			{
				"x": 0.7067498346,
				"y": -0.0369079527,
				"z": -0.0249738684,
				"element": "N" 
			},
			{
				"x": 0.5918687083,
				"y": -1.3420359407,
				"z": 0.4567555164,
				"element": "C" 
			},
			{
				"x": 1.4176326836,
				"y": -2.1942377054,
				"z": 0.1873595199,
				"element": "O" 
			},
			{
				"x": -0.5860063705,
				"y": -1.6496625868,
				"z": 1.3646716595,
				"element": "C" 
			},
			{
				"x": -1.6668963869,
				"y": -0.6013518129,
				"z": 1.5067951018,
				"element": "C" 
			},
			{
				"x": -2.7076204969,
				"y": -0.7857957055,
				"z": 2.1043744453,
				"element": "O" 
			},
			{
				"x": -1.3727845889,
				"y": 0.615222797,
				"z": 0.9124470915,
				"element": "N" 
			},
			{
				"x": -0.2533868288,
				"y": 0.9635176951,
				"z": 0.1567912462,
				"element": "C" 
			},
			{
				"x": -0.1401137392,
				"y": 2.079360691,
				"z": -0.3135861885,
				"element": "O" 
			},
			{
				"x": 0.7939289817,
				"y": 0.6631803104,
				"z": -2.7121832593,
				"element": "H" 
			},
			{
				"x": 1.39174045,
				"y": -1.0066408933,
				"z": -2.5319391805,
				"element": "H" 
			},
			{
				"x": 2.5147936459,
				"y": 0.304675579,
				"z": -2.9274820575,
				"element": "H" 
			},
			{
				"x": 2.6991713796,
				"y": -0.3201018983,
				"z": -0.5038432875,
				"element": "H" 
			},
			{
				"x": 2.1041032609,
				"y": 1.3486075538,
				"z": -0.6820943621,
				"element": "H" 
			},
			{
				"x": -1.0433136901,
				"y": -2.5851667698,
				"z": 1.0312373098,
				"element": "H" 
			},
			{
				"x": -0.1855041689,
				"y": -1.8577536304,
				"z": 2.3643213249,
				"element": "H" 
			},
			{
				"x": -2.06423661,
				"y": 1.3506105805,
				"z": 1.0027788894,
				"element": "H" 
			}
		],
		 "valence_orbital": [ 
			{
				"type": "occ",
				"energy": -0.31364,
				"method": "rhf"
			},
			{
				"type": "occ",
				"energy": -0.30428,
				"method": "rhf"
			},
			{
				"type": "occ",
				"energy": -0.3032,
				"method": "rhf"
			},
			{
				"type": "occ",
				"energy": -0.28899,
				"method": "rhf"
			},
			{
				"type": "occ",
				"energy": -0.26732,
				"method": "rhf"
			},
			{
				"type": "unocc",
				"energy": -0.04825,
				"method": "rhf"
			},
			{
				"type": "unocc",
				"energy": -0.00697,
				"method": "rhf"
			},
			{
				"type": "unocc",
				"energy": 0.04836,
				"method": "rhf"
			},
			{
				"type": "unocc",
				"energy": 0.07884,
				"method": "rhf"
			},
			{
				"type": "unocc",
				"energy": 0.09979,
				"method": "rhf"
			}
		],
		"cosmo_sigma_profile": { 
			"-0.025": 0.0,
			"-0.024": 0.0,
			"-0.023": 0.0,
			"-0.022": 0.0,
			"-0.021": 0.0,
			"-0.02": 0.0,
			"-0.019": 0.0,
			"-0.018": 0.0,
			"-0.017": 0.0298137306194,
			"-0.016": 0.922799625581,
			"-0.015": 0.917639885251,
			"-0.014": 0.901996519663,
			"-0.013": 0.847223221355,
			"-0.012": 0.539730826531,
			"-0.011": 1.24518471722,
			"-0.01": 5.24422559543,
			"-0.009": 6.53727489791,
			"-0.008": 6.206571896,
			"-0.007": 5.54989236495,
			"-0.006": 5.18845709898,
			"-0.005": 9.04881111109,
			"-0.004": 14.145962156,
			"-0.003": 20.0229800321,
			"-0.002": 14.9005962056,
			"-0.001": 11.584185669,
			"0.0": 11.8628869905,
			"0.001": 6.45219934196,
			"0.002": 4.03920686116,
			"0.003": 4.47739995097,
			"0.004": 4.81792199652,
			"0.005": 3.83048042758,
			"0.006": 3.68942180665,
			"0.007": 2.96550322552,
			"0.008": 4.38069001732,
			"0.009": 4.22785996006,
			"0.01": 6.23688972921,
			"0.011": 12.4604626938,
			"0.012": 9.41634284772,
			"0.013": 0.894288795779,
			"0.014": 0.0,
			"0.015": 0.0,
			"0.016": 0.0,
			"0.017": 0.0,
			"0.018": 0.0,
			"0.019": 0.0,
			"0.02": 0.0,
			"0.021": 0.0,
			"0.022": 0.0,
			"0.023": 0.0,
			"0.024": 0.0,
			"0.025": 0.0
		}
	}
}
