{
	 "smiles": "CC1=C2NC(=O)CNC2=NC=C1", 
	 "Tm": 490.15, 
	 "num_atms": 21, 
	 "gaussian": { 
		 "optdone": 1, 
		 "sigma_profile": "yes", 
		 "theory": "DFT", 
		 "functional": "B3LYP", 
		 "basiset": "6-31G**", 
		 "properties": { 
			 "R2extent": 2012.7787, 
			 "electric_dipole_moment_norm": 2.16195155126, 
			 "electric_quadrupole_moment_norm": 15.7697159762, 
			 "total_energy": -549.77976647, 
			 "HOMO_LUMO_gap": 0.18124, 
			 "cosmo_polarized_energy": -13.93, 
			 "cosmo_cavitation_energy": 24.33, 
			 "cosmo_dispersion_energy": -18.48, 
			 "cosmo_repulsion_energy": 1.46, 
			 "cosmo_total_nonelectrostatic_energy": 7.31, 
			 "SMD_solvation_energy": 2.23 
		},
		"coords": [
			{
				"x": 2.7445795417,
				"y": -0.9817575591,
				"z": -1.4581023307,
				"element": "C" 
			},
			{
				"x": 1.7810650528,
				"y": 0.1641023959,
				"z": -1.2775384164,
				"element": "C" 
			},
			{
				"x": 0.7169493418,
				"y": 0.07840842,
				"z": -0.3797009968,
				"element": "C" 
			},
			{
				"x": 0.4863113087,
				"y": -1.0496203696,
				"z": 0.4289112509,
				"element": "N" 
			},
			{
				"x": -0.6589944819,
				"y": -1.2821789214,
				"z": 1.1533190609,
				"element": "C" 
			},
			{
				"x": -0.8126781585,
				"y": -2.2831589262,
				"z": 1.8328656764,
				"element": "O" 
			},
			{
				"x": -1.7474987719,
				"y": -0.2234439205,
				"z": 0.9886234482,
				"element": "C" 
			},
			{
				"x": -1.1829262217,
				"y": 1.083077067,
				"z": 0.6861734396,
				"element": "N" 
			},
			{
				"x": -0.1622916779,
				"y": 1.1773942041,
				"z": -0.2434137176,
				"element": "C" 
			},
			{
				"x": -0.0247600472,
				"y": 2.3127108538,
				"z": -0.927038251,
				"element": "N" 
			},
			{
				"x": 1.0099106989,
				"y": 2.3968391701,
				"z": -1.7776109685,
				"element": "C" 
			},
			{
				"x": 1.9189059102,
				"y": 1.3677324861,
				"z": -1.9889197514,
				"element": "C" 
			},
			{
				"x": 3.4636037165,
				"y": -0.764337872,
				"z": -2.2509008357,
				"element": "H" 
			},
			{
				"x": 3.3173057081,
				"y": -1.1797283981,
				"z": -0.542612222,
				"element": "H" 
			},
			{
				"x": 2.2236949488,
				"y": -1.9094560512,
				"z": -1.7248426414,
				"element": "H" 
			},
			{
				"x": 1.1866605536,
				"y": -1.7764788378,
				"z": 0.4926652228,
				"element": "H" 
			},
			{
				"x": -2.3004164104,
				"y": -0.1846179978,
				"z": 1.9293060769,
				"element": "H" 
			},
			{
				"x": -2.4424442212,
				"y": -0.5904304723,
				"z": 0.2114522164,
				"element": "H" 
			},
			{
				"x": -1.8317937862,
				"y": 1.8582599321,
				"z": 0.6375550329,
				"element": "H" 
			},
			{
				"x": 1.1060318189,
				"y": 3.3368553318,
				"z": -2.3167374646,
				"element": "H" 
			},
			{
				"x": 2.7311851767,
				"y": 1.4895294649,
				"z": -2.6983538289,
				"element": "H" 
			}
		],
		 "valence_orbital": [ 
			{
				"type": "occ",
				"energy": -0.30528,
				"method": "rhf"
			},
			{
				"type": "occ",
				"energy": -0.26503,
				"method": "rhf"
			},
			{
				"type": "occ",
				"energy": -0.26269,
				"method": "rhf"
			},
			{
				"type": "occ",
				"energy": -0.2489,
				"method": "rhf"
			},
			{
				"type": "occ",
				"energy": -0.20327,
				"method": "rhf"
			},
			{
				"type": "unocc",
				"energy": -0.02203,
				"method": "rhf"
			},
			{
				"type": "unocc",
				"energy": -0.00275,
				"method": "rhf"
			},
			{
				"type": "unocc",
				"energy": 0.03197,
				"method": "rhf"
			},
			{
				"type": "unocc",
				"energy": 0.06891,
				"method": "rhf"
			},
			{
				"type": "unocc",
				"energy": 0.09523,
				"method": "rhf"
			}
		],
		"cosmo_sigma_profile": { 
			"-0.025": 0.0,
			"-0.024": 0.0,
			"-0.023": 0.0,
			"-0.022": 0.0,
			"-0.021": 0.0,
			"-0.02": 0.0,
			"-0.019": 0.0,
			"-0.018": 0.0,
			"-0.017": 0.0,
			"-0.016": 0.0,
			"-0.015": 0.0191472540163,
			"-0.014": 0.678109124303,
			"-0.013": 1.59439653054,
			"-0.012": 2.10191336009,
			"-0.011": 2.43001154088,
			"-0.01": 2.20760498683,
			"-0.009": 2.24736532355,
			"-0.008": 3.11604203961,
			"-0.007": 4.3112615692,
			"-0.006": 12.283464747,
			"-0.005": 17.77073758,
			"-0.004": 14.7080773727,
			"-0.003": 12.9217732397,
			"-0.002": 11.0238035153,
			"-0.001": 13.9704618906,
			"0.0": 12.8615100582,
			"0.001": 10.3827020833,
			"0.002": 10.0154782935,
			"0.003": 9.9427256856,
			"0.004": 9.34133492227,
			"0.005": 5.82325749848,
			"0.006": 3.97761046174,
			"0.007": 3.47196919289,
			"0.008": 2.85091898514,
			"0.009": 3.04139448659,
			"0.01": 2.72743426366,
			"0.011": 3.00193693174,
			"0.012": 4.43858018078,
			"0.013": 6.07359334117,
			"0.014": 2.35464260088,
			"0.015": 1.07157690375,
			"0.016": 0.368919435044,
			"0.017": 0.0,
			"0.018": 0.0,
			"0.019": 0.0,
			"0.02": 0.0,
			"0.021": 0.0,
			"0.022": 0.0,
			"0.023": 0.0,
			"0.024": 0.0,
			"0.025": 0.0
		}
	}
}
