{
	 "smiles": "NC1=C(N)C=C(C=C1)C#N", 
	 "Tm": 417.15, 
	 "num_atms": 17, 
	 "gaussian": { 
		 "optdone": 1, 
		 "sigma_profile": "yes", 
		 "theory": "DFT", 
		 "functional": "B3LYP", 
		 "basiset": "6-31G**", 
		 "properties": { 
			 "R2extent": 2967.5648, 
			 "electric_dipole_moment_norm": 6.49215510982, 
			 "electric_quadrupole_moment_norm": 28.4207233177, 
			 "total_energy": -435.210969743, 
			 "HOMO_LUMO_gap": 0.18042, 
			 "cosmo_polarized_energy": -16.43, 
			 "cosmo_cavitation_energy": 22.02, 
			 "cosmo_dispersion_energy": -15.96, 
			 "cosmo_repulsion_energy": 1.3, 
			 "cosmo_total_nonelectrostatic_energy": 7.35, 
			 "SMD_solvation_energy": 5.19 
		},
		"coords": [
			{
				"x": -0.0112960536,
				"y": -1.1523663282,
				"z": -0.4717360329,
				"element": "N" 
			},
			{
				"x": -0.8275995755,
				"y": -0.1323476325,
				"z": -0.9618698048,
				"element": "C" 
			},
			{
				"x": -0.2549467371,
				"y": 1.1564947109,
				"z": -1.121800685,
				"element": "C" 
			},
			{
				"x": 1.1153307442,
				"y": 1.3000015601,
				"z": -0.8294365248,
				"element": "N" 
			},
			{
				"x": -1.0403666249,
				"y": 2.1981449646,
				"z": -1.6029500297,
				"element": "C" 
			},
			{
				"x": -2.3974371285,
				"y": 1.9916119901,
				"z": -1.9166722431,
				"element": "C" 
			},
			{
				"x": -2.9697709196,
				"y": 0.7257863081,
				"z": -1.7231046848,
				"element": "C" 
			},
			{
				"x": -2.1834582166,
				"y": -0.3212504595,
				"z": -1.252769434,
				"element": "C" 
			},
			{
				"x": -3.1876171935,
				"y": 3.0762540166,
				"z": -2.4131549744,
				"element": "C" 
			},
			{
				"x": -3.8294747243,
				"y": 3.9598215538,
				"z": -2.8170976762,
				"element": "N" 
			},
			{
				"x": -0.4025055963,
				"y": -2.0811858828,
				"z": -0.5585570021,
				"element": "H" 
			},
			{
				"x": 0.9369676682,
				"y": -1.1096732232,
				"z": -0.8304499353,
				"element": "H" 
			},
			{
				"x": 1.3608468665,
				"y": 0.9090808408,
				"z": 0.0758300279,
				"element": "H" 
			},
			{
				"x": 1.4378210797,
				"y": 2.2581612022,
				"z": -0.8906731521,
				"element": "H" 
			},
			{
				"x": -0.6066107803,
				"y": 3.1855649155,
				"z": -1.7313787315,
				"element": "H" 
			},
			{
				"x": -4.0169250251,
				"y": 0.5650596913,
				"z": -1.9539219746,
				"element": "H" 
			},
			{
				"x": -2.6199577831,
				"y": -1.3079582279,
				"z": -1.1211571425,
				"element": "H" 
			}
		],
		 "valence_orbital": [ 
			{
				"type": "occ",
				"energy": -0.3282,
				"method": "rhf"
			},
			{
				"type": "occ",
				"energy": -0.31548,
				"method": "rhf"
			},
			{
				"type": "occ",
				"energy": -0.30007,
				"method": "rhf"
			},
			{
				"type": "occ",
				"energy": -0.24287,
				"method": "rhf"
			},
			{
				"type": "occ",
				"energy": -0.20854,
				"method": "rhf"
			},
			{
				"type": "unocc",
				"energy": -0.02812,
				"method": "rhf"
			},
			{
				"type": "unocc",
				"energy": -0.004,
				"method": "rhf"
			},
			{
				"type": "unocc",
				"energy": 0.04907,
				"method": "rhf"
			},
			{
				"type": "unocc",
				"energy": 0.0605,
				"method": "rhf"
			},
			{
				"type": "unocc",
				"energy": 0.08961,
				"method": "rhf"
			}
		],
		"cosmo_sigma_profile": { 
			"-0.025": 0.0,
			"-0.024": 0.0,
			"-0.023": 0.0,
			"-0.022": 0.0,
			"-0.021": 0.0,
			"-0.02": 0.0,
			"-0.019": 0.0,
			"-0.018": 0.0,
			"-0.017": 0.0,
			"-0.016": 0.0,
			"-0.015": 0.0,
			"-0.014": 0.0,
			"-0.013": 1.34802360962,
			"-0.012": 3.69006612785,
			"-0.011": 5.45311582138,
			"-0.01": 5.59423929195,
			"-0.009": 6.64121857572,
			"-0.008": 5.24515710433,
			"-0.007": 7.84734286218,
			"-0.006": 7.93380439151,
			"-0.005": 9.63472286277,
			"-0.004": 6.41765752342,
			"-0.003": 6.50286872096,
			"-0.002": 6.57481995448,
			"-0.001": 6.27961067696,
			"0.0": 8.36314717901,
			"0.001": 12.2553486544,
			"0.002": 8.12704337419,
			"0.003": 12.3571436287,
			"0.004": 14.8196168032,
			"0.005": 6.36275738325,
			"0.006": 4.2546099301,
			"0.007": 3.0281550581,
			"0.008": 4.65749967169,
			"0.009": 4.69604633388,
			"0.01": 4.93322026481,
			"0.011": 4.26216758548,
			"0.012": 3.87441209596,
			"0.013": 3.45847454564,
			"0.014": 1.40607262083,
			"0.015": 0.00576529060794,
			"0.016": 0.0,
			"0.017": 0.0,
			"0.018": 0.0,
			"0.019": 0.0,
			"0.02": 0.0,
			"0.021": 0.0,
			"0.022": 0.0,
			"0.023": 0.0,
			"0.024": 0.0,
			"0.025": 0.0
		}
	}
}
