{
	 "smiles": "COC1=C(OC)C=C(C(O)=O)C(NC(=O)C2=CC=CO2)=C1", 
	 "Tm": 362.15, 
	 "num_atms": 34, 
	 "gaussian": { 
		 "optdone": 1, 
		 "sigma_profile": "yes", 
		 "theory": "DFT", 
		 "functional": "B3LYP", 
		 "basiset": "6-31G**", 
		 "properties": { 
			 "R2extent": 6771.2351, 
			 "electric_dipole_moment_norm": 8.67270932177, 
			 "electric_quadrupole_moment_norm": 14.2687605145, 
			 "total_energy": -1047.37730462, 
			 "HOMO_LUMO_gap": 0.16397, 
			 "cosmo_polarized_energy": -24.64, 
			 "cosmo_cavitation_energy": 39.21, 
			 "cosmo_dispersion_energy": -26.95, 
			 "cosmo_repulsion_energy": 2.08, 
			 "cosmo_total_nonelectrostatic_energy": 14.34, 
			 "SMD_solvation_energy": 10.86 
		},
		"coords": [
			{
				"x": -3.3149434624,
				"y": 0.7952511083,
				"z": 1.6591441052,
				"element": "C" 
			},
			{
				"x": -3.2613141334,
				"y": -0.4246027512,
				"z": 0.9255063075,
				"element": "O" 
			},
			{
				"x": -2.1114561834,
				"y": -0.7469138268,
				"z": 0.2825831531,
				"element": "C" 
			},
			{
				"x": -2.1026986616,
				"y": -1.997593693,
				"z": -0.385374659,
				"element": "C" 
			},
			{
				"x": -3.1671381488,
				"y": -2.8598595398,
				"z": -0.330938985,
				"element": "O" 
			},
			{
				"x": -4.3482806251,
				"y": -2.4449836886,
				"z": -1.0243908062,
				"element": "C" 
			},
			{
				"x": -0.9406633032,
				"y": -2.3972702221,
				"z": -1.0188577963,
				"element": "C" 
			},
			{
				"x": 0.2234761136,
				"y": -1.603237717,
				"z": -1.0508332831,
				"element": "C" 
			},
			{
				"x": 1.4564491787,
				"y": -2.0993699952,
				"z": -1.7156813879,
				"element": "C" 
			},
			{
				"x": 1.3048592475,
				"y": -3.0619252018,
				"z": -2.6611340175,
				"element": "O" 
			},
			{
				"x": 2.5809485479,
				"y": -1.7060759413,
				"z": -1.4619520673,
				"element": "O" 
			},
			{
				"x": 0.2047137335,
				"y": -0.3490024355,
				"z": -0.3870064472,
				"element": "C" 
			},
			{
				"x": 1.3613660305,
				"y": 0.4319753217,
				"z": -0.3596099486,
				"element": "N" 
			},
			{
				"x": 1.577323186,
				"y": 1.7789861826,
				"z": -0.0822530815,
				"element": "C" 
			},
			{
				"x": 2.6625479092,
				"y": 2.1550079874,
				"z": 0.3344315033,
				"element": "O" 
			},
			{
				"x": 0.5155033589,
				"y": 2.7525858801,
				"z": -0.4225362242,
				"element": "C" 
			},
			{
				"x": -0.4859523143,
				"y": 2.7984431545,
				"z": -1.3599953975,
				"element": "C" 
			},
			{
				"x": -1.0374587843,
				"y": 4.1128830898,
				"z": -1.3041308691,
				"element": "C" 
			},
			{
				"x": -0.3312048874,
				"y": 4.7717196673,
				"z": -0.3381082371,
				"element": "C" 
			},
			{
				"x": 0.6145092028,
				"y": 3.9677162661,
				"z": 0.1991537025,
				"element": "O" 
			},
			{
				"x": -0.9678532793,
				"y": 0.0484226191,
				"z": 0.281046782,
				"element": "C" 
			},
			{
				"x": -2.5823025393,
				"y": 0.8016678319,
				"z": 2.4745919745,
				"element": "H" 
			},
			{
				"x": -4.3208345549,
				"y": 0.8457499436,
				"z": 2.0769084836,
				"element": "H" 
			},
			{
				"x": -3.1440428338,
				"y": 1.662050886,
				"z": 1.0096943448,
				"element": "H" 
			},
			{
				"x": -5.0637010195,
				"y": -3.2624853126,
				"z": -0.9173623427,
				"element": "H" 
			},
			{
				"x": -4.1402573265,
				"y": -2.2843255143,
				"z": -2.090394007,
				"element": "H" 
			},
			{
				"x": -4.7686155928,
				"y": -1.5325732703,
				"z": -0.5920740224,
				"element": "H" 
			},
			{
				"x": -0.9494444558,
				"y": -3.3941881589,
				"z": -1.4503360562,
				"element": "H" 
			},
			{
				"x": 0.3704281577,
				"y": -3.1610274616,
				"z": -2.8886436121,
				"element": "H" 
			},
			{
				"x": 2.2222726346,
				"y": -0.1020717641,
				"z": -0.4783420133,
				"element": "H" 
			},
			{
				"x": -0.7828181065,
				"y": 1.9923878181,
				"z": -2.0141332917,
				"element": "H" 
			},
			{
				"x": -1.8406432886,
				"y": 4.5150278914,
				"z": -1.9044928249,
				"element": "H" 
			},
			{
				"x": -0.3836257929,
				"y": 5.7713362945,
				"z": 0.065654789,
				"element": "H" 
			},
			{
				"x": -0.962648007,
				"y": 0.9813945516,
				"z": 0.8243662321,
				"element": "H" 
			}
		],
		 "valence_orbital": [ 
			{
				"type": "occ",
				"energy": -0.28091,
				"method": "rhf"
			},
			{
				"type": "occ",
				"energy": -0.26491,
				"method": "rhf"
			},
			{
				"type": "occ",
				"energy": -0.25419,
				"method": "rhf"
			},
			{
				"type": "occ",
				"energy": -0.24228,
				"method": "rhf"
			},
			{
				"type": "occ",
				"energy": -0.2201,
				"method": "rhf"
			},
			{
				"type": "unocc",
				"energy": -0.05613,
				"method": "rhf"
			},
			{
				"type": "unocc",
				"energy": -0.04306,
				"method": "rhf"
			},
			{
				"type": "unocc",
				"energy": -0.01045,
				"method": "rhf"
			},
			{
				"type": "unocc",
				"energy": 0.03592,
				"method": "rhf"
			},
			{
				"type": "unocc",
				"energy": 0.04676,
				"method": "rhf"
			}
		],
		"cosmo_sigma_profile": { 
			"-0.025": 0.0,
			"-0.024": 0.0,
			"-0.023": 0.0,
			"-0.022": 0.0,
			"-0.021": 0.0,
			"-0.02": 0.0,
			"-0.019": 0.138887732082,
			"-0.018": 1.16074217075,
			"-0.017": 0.702269746996,
			"-0.016": 1.36323997504,
			"-0.015": 0.890420808923,
			"-0.014": 0.73702171377,
			"-0.013": 0.709154356435,
			"-0.012": 1.26808589827,
			"-0.011": 1.14439761987,
			"-0.01": 2.09948053426,
			"-0.009": 2.8676364468,
			"-0.008": 5.69920739678,
			"-0.007": 9.65553932166,
			"-0.006": 16.2967337792,
			"-0.005": 20.8304652415,
			"-0.004": 25.7541335743,
			"-0.003": 27.1938837601,
			"-0.002": 22.4157088261,
			"-0.001": 21.5225006405,
			"0.0": 21.0744177552,
			"0.001": 25.9206690728,
			"0.002": 20.1338319149,
			"0.003": 12.3344545495,
			"0.004": 7.51478767565,
			"0.005": 6.32888006817,
			"0.006": 5.8148842853,
			"0.007": 6.26748774558,
			"0.008": 6.9370170345,
			"0.009": 7.33585578351,
			"0.01": 9.72199630529,
			"0.011": 7.59346130891,
			"0.012": 7.75148754765,
			"0.013": 5.85890892269,
			"0.014": 0.80709095803,
			"0.015": 0.0,
			"0.016": 0.0,
			"0.017": 0.0,
			"0.018": 0.0,
			"0.019": 0.0,
			"0.02": 0.0,
			"0.021": 0.0,
			"0.022": 0.0,
			"0.023": 0.0,
			"0.024": 0.0,
			"0.0": 0.0
		}
	}
}
