{
	 "smiles": "NC(=O)CC(N)=S", 
	 "Tm": 377.15, 
	 "num_atms": 13, 
	 "gaussian": { 
		 "optdone": 1, 
		 "sigma_profile": "yes", 
		 "theory": "DFT", 
		 "functional": "B3LYP", 
		 "basiset": "6-31G**", 
		 "properties": { 
			 "R2extent": 1749.105, 
			 "electric_dipole_moment_norm": 4.27133381276, 
			 "electric_quadrupole_moment_norm": 22.601362856, 
			 "total_energy": -700.879237051, 
			 "HOMO_LUMO_gap": 0.17661, 
			 "cosmo_polarized_energy": -18.63, 
			 "cosmo_cavitation_energy": 18.78, 
			 "cosmo_dispersion_energy": -14.6, 
			 "cosmo_repulsion_energy": 1.22, 
			 "cosmo_total_nonelectrostatic_energy": 5.4, 
			 "SMD_solvation_energy": 3.06 
		},
		"coords": [
			{
				"x": 1.7282905989,
				"y": 0.5121821984,
				"z": -0.7529191671,
				"element": "N" 
			},
			{
				"x": 0.6126022351,
				"y": -0.2596522582,
				"z": -0.7231152815,
				"element": "C" 
			},
			{
				"x": -0.5179094759,
				"y": 0.2255900134,
				"z": -0.7563899006,
				"element": "O" 
			},
			{
				"x": 0.8606073112,
				"y": -1.7692684356,
				"z": -0.6931531252,
				"element": "C" 
			},
			{
				"x": 0.0175380127,
				"y": -2.5477709699,
				"z": 0.3166684689,
				"element": "C" 
			},
			{
				"x": -1.255177641,
				"y": -2.1429344526,
				"z": 0.4061530041,
				"element": "N" 
			},
			{
				"x": 0.6559195067,
				"y": -3.8369020287,
				"z": 1.1570696431,
				"element": "S" 
			},
			{
				"x": 2.6541549148,
				"y": 0.1278328663,
				"z": -0.6602456205,
				"element": "H" 
			},
			{
				"x": 1.6133154111,
				"y": 1.5147607368,
				"z": -0.7780671212,
				"element": "H" 
			},
			{
				"x": 1.9085015575,
				"y": -2.0139923704,
				"z": -0.5220091332,
				"element": "H" 
			},
			{
				"x": 0.5970344319,
				"y": -2.1426539151,
				"z": -1.6921953152,
				"element": "H" 
			},
			{
				"x": -1.8598170501,
				"y": -2.5994320211,
				"z": 1.0735983423,
				"element": "H" 
			},
			{
				"x": -1.5225598129,
				"y": -1.2639593634,
				"z": -0.0353947939,
				"element": "H" 
			}
		],
		 "valence_orbital": [ 
			{
				"type": "occ",
				"energy": -0.35536,
				"method": "rhf"
			},
			{
				"type": "occ",
				"energy": -0.29402,
				"method": "rhf"
			},
			{
				"type": "occ",
				"energy": -0.27955,
				"method": "rhf"
			},
			{
				"type": "occ",
				"energy": -0.22618,
				"method": "rhf"
			},
			{
				"type": "occ",
				"energy": -0.20493,
				"method": "rhf"
			},
			{
				"type": "unocc",
				"energy": -0.02832,
				"method": "rhf"
			},
			{
				"type": "unocc",
				"energy": 0.004,
				"method": "rhf"
			},
			{
				"type": "unocc",
				"energy": 0.05407,
				"method": "rhf"
			},
			{
				"type": "unocc",
				"energy": 0.08341,
				"method": "rhf"
			},
			{
				"type": "unocc",
				"energy": 0.10903,
				"method": "rhf"
			}
		],
		"cosmo_sigma_profile": { 
			"-0.025": 0.0,
			"-0.024": 0.0,
			"-0.023": 0.0,
			"-0.022": 0.0,
			"-0.021": 0.0,
			"-0.02": 0.0,
			"-0.019": 0.0,
			"-0.018": 0.0,
			"-0.017": 0.0,
			"-0.016": 0.161713437772,
			"-0.015": 1.85585926884,
			"-0.014": 4.67766090144,
			"-0.013": 3.05572828447,
			"-0.012": 3.9322779787,
			"-0.011": 4.22767699033,
			"-0.01": 4.82668910776,
			"-0.009": 3.81020532638,
			"-0.008": 6.21708949411,
			"-0.007": 5.09690883639,
			"-0.006": 5.50995628979,
			"-0.005": 5.45391022431,
			"-0.004": 6.28537436638,
			"-0.003": 5.68471344971,
			"-0.002": 5.89172462147,
			"-0.001": 4.60358006589,
			"0.0": 6.00002429637,
			"0.001": 6.21882337087,
			"0.002": 5.65132952346,
			"0.003": 5.86238545706,
			"0.004": 6.09410253572,
			"0.005": 4.04481544464,
			"0.006": 4.23309008969,
			"0.007": 6.20468694748,
			"0.008": 5.12254123736,
			"0.009": 8.13628691964,
			"0.01": 7.13572689964,
			"0.011": 5.99196105604,
			"0.012": 5.63713049385,
			"0.013": 2.79256445122,
			"0.014": 0.578636568221,
			"0.015": 0.0,
			"0.016": 0.0,
			"0.017": 0.0,
			"0.018": 0.0,
			"0.019": 0.0,
			"0.02": 0.0,
			"0.021": 0.0,
			"0.022": 0.0,
			"0.023": 0.0,
			"0.024": 0.0,
			"0.025": 0.0
		}
	}
}
