{
	 "smiles": "FC(F)(F)COC1=CC(C=O)=CC=C1", 
	 "Tm": 303.15, 
	 "num_atms": 21, 
	 "gaussian": { 
		 "optdone": 1, 
		 "sigma_profile": "yes", 
		 "theory": "DFT", 
		 "functional": "B3LYP", 
		 "basiset": "6-31G**", 
		 "properties": { 
			 "R2extent": 4336.6931, 
			 "electric_dipole_moment_norm": 4.79793970783, 
			 "electric_quadrupole_moment_norm": 10.2219237534, 
			 "total_energy": -797.127422676, 
			 "HOMO_LUMO_gap": 0.17717, 
			 "cosmo_polarized_energy": -11.36, 
			 "cosmo_cavitation_energy": 27.86, 
			 "cosmo_dispersion_energy": -19.55, 
			 "cosmo_repulsion_energy": 1.48, 
			 "cosmo_total_nonelectrostatic_energy": 9.78, 
			 "SMD_solvation_energy": 7.24 
		},
		"coords": [
			{
				"x": 2.6403216297,
				"y": 1.0166333075,
				"z": -1.8220212559,
				"element": "F" 
			},
			{
				"x": 2.4304604568,
				"y": 1.8649443441,
				"z": -0.8021784309,
				"element": "C" 
			},
			{
				"x": 2.1010132914,
				"y": 3.0622415005,
				"z": -1.3137585771,
				"element": "F" 
			},
			{
				"x": 3.5917681613,
				"y": 2.0027669097,
				"z": -0.1246640158,
				"element": "F" 
			},
			{
				"x": 1.3686813165,
				"y": 1.3477294981,
				"z": 0.1530822053,
				"element": "C" 
			},
			{
				"x": 0.1711802457,
				"y": 1.213665509,
				"z": -0.5781050579,
				"element": "O" 
			},
			{
				"x": -0.9433764365,
				"y": 0.7588720096,
				"z": 0.0733617537,
				"element": "C" 
			},
			{
				"x": -2.0963712972,
				"y": 0.6486679137,
				"z": -0.7064056668,
				"element": "C" 
			},
			{
				"x": -3.2831431969,
				"y": 0.1931037778,
				"z": -0.1281907619,
				"element": "C" 
			},
			{
				"x": -4.5078997475,
				"y": 0.0762510571,
				"z": -0.9573458246,
				"element": "C" 
			},
			{
				"x": -4.5709353713,
				"y": 0.3529349398,
				"z": -2.1391686437,
				"element": "O" 
			},
			{
				"x": -3.3256664723,
				"y": -0.1547323413,
				"z": 1.2304099806,
				"element": "C" 
			},
			{
				"x": -2.1728937271,
				"y": -0.0422465313,
				"z": 2.0004934039,
				"element": "C" 
			},
			{
				"x": -0.9788303318,
				"y": 0.4128790552,
				"z": 1.431858435,
				"element": "C" 
			},
			{
				"x": 1.7134831333,
				"y": 0.3878703991,
				"z": 0.5579676684,
				"element": "H" 
			},
			{
				"x": 1.2706273013,
				"y": 2.0679103042,
				"z": 0.9751921282,
				"element": "H" 
			},
			{
				"x": -2.0735519047,
				"y": 0.9151061571,
				"z": -1.7575077325,
				"element": "H" 
			},
			{
				"x": -5.4020988794,
				"y": -0.2943434084,
				"z": -0.4085648045,
				"element": "H" 
			},
			{
				"x": -4.2541600682,
				"y": -0.5081068809,
				"z": 1.6706097287,
				"element": "H" 
			},
			{
				"x": -2.1895919253,
				"y": -0.3075296142,
				"z": 3.0532926543,
				"element": "H" 
			},
			{
				"x": -0.0937161777,
				"y": 0.4919820936,
				"z": 2.0525428135,
				"element": "H" 
			}
		],
		 "valence_orbital": [ 
			{
				"type": "occ",
				"energy": -0.35405,
				"method": "rhf"
			},
			{
				"type": "occ",
				"energy": -0.34136,
				"method": "rhf"
			},
			{
				"type": "occ",
				"energy": -0.27243,
				"method": "rhf"
			},
			{
				"type": "occ",
				"energy": -0.25969,
				"method": "rhf"
			},
			{
				"type": "occ",
				"energy": -0.24605,
				"method": "rhf"
			},
			{
				"type": "unocc",
				"energy": -0.06888,
				"method": "rhf"
			},
			{
				"type": "unocc",
				"energy": -0.0147,
				"method": "rhf"
			},
			{
				"type": "unocc",
				"energy": 0.03651,
				"method": "rhf"
			},
			{
				"type": "unocc",
				"energy": 0.076,
				"method": "rhf"
			},
			{
				"type": "unocc",
				"energy": 0.07853,
				"method": "rhf"
			}
		],
		"cosmo_sigma_profile": { 
			"-0.025": 0.0,
			"-0.024": 0.0,
			"-0.023": 0.0,
			"-0.022": 0.0,
			"-0.021": 0.0,
			"-0.02": 0.0,
			"-0.019": 0.0,
			"-0.018": 0.0,
			"-0.017": 0.0,
			"-0.016": 0.0,
			"-0.015": 0.0,
			"-0.014": 0.0,
			"-0.013": 0.0,
			"-0.012": 0.0,
			"-0.011": 0.0,
			"-0.01": 0.00245307057313,
			"-0.009": 5.51026263499,
			"-0.008": 9.8702855208,
			"-0.007": 11.2538678259,
			"-0.006": 13.1830314788,
			"-0.005": 10.2568335503,
			"-0.004": 11.8446325155,
			"-0.003": 8.63948196391,
			"-0.002": 8.79296875065,
			"-0.001": 10.4997003633,
			"0.0": 11.8531924021,
			"0.001": 16.5796169086,
			"0.002": 36.5132458382,
			"0.003": 35.3320195638,
			"0.004": 8.49027949332,
			"0.005": 3.95419198122,
			"0.006": 3.63760682848,
			"0.007": 3.14029572309,
			"0.008": 1.57752705559,
			"0.009": 2.35876632389,
			"0.01": 2.72075860791,
			"0.011": 4.26574287062,
			"0.012": 2.45630594286,
			"0.013": 0.47458884766,
			"0.014": 0.0,
			"0.015": 0.0,
			"0.016": 0.0,
			"0.017": 0.0,
			"0.018": 0.0,
			"0.019": 0.0,
			"0.02": 0.0,
			"0.021": 0.0,
			"0.022": 0.0,
			"0.023": 0.0,
			"0.024": 0.0,
			"0.025": 0.0
		}
	}
}
