{
	 "smiles": "CC(C)(C)C1=NOC(=N1)C(N1CCOCC1)N1CCOCC1", 
	 "Tm": 354.15, 
	 "num_atms": 48, 
	 "gaussian": { 
		 "optdone": 1, 
		 "sigma_profile": "yes", 
		 "theory": "DFT", 
		 "functional": "B3LYP", 
		 "basiset": "6-31G**", 
		 "properties": { 
			 "R2extent": 8277.9528, 
			 "electric_dipole_moment_norm": 1.53981278407, 
			 "electric_quadrupole_moment_norm": 7.24018170697, 
			 "total_energy": -1031.85033925, 
			 "HOMO_LUMO_gap": 0.1972, 
			 "cosmo_polarized_energy": -13.77, 
			 "cosmo_cavitation_energy": 46.61, 
			 "cosmo_dispersion_energy": -31.19, 
			 "cosmo_repulsion_energy": 2.41, 
			 "cosmo_total_nonelectrostatic_energy": 17.83, 
			 "SMD_solvation_energy": 5.02 
		},
		"coords": [
			{
				"x": -0.952258354,
				"y": 4.8170710445,
				"z": -0.5313684242,
				"element": "C" 
			},
			{
				"x": -0.9889664508,
				"y": 3.3262750606,
				"z": -0.9102838041,
				"element": "C" 
			},
			{
				"x": -2.4504019043,
				"y": 2.8252186107,
				"z": -0.9529499638,
				"element": "C" 
			},
			{
				"x": -0.3309060932,
				"y": 3.1132542774,
				"z": -2.2924232313,
				"element": "C" 
			},
			{
				"x": -0.2340355865,
				"y": 2.4995636642,
				"z": 0.1070176009,
				"element": "C" 
			},
			{
				"x": 0.3586473396,
				"y": 3.0137764016,
				"z": 1.1564543826,
				"element": "N" 
			},
			{
				"x": 0.914133525,
				"y": 1.8881756086,
				"z": 1.8015007642,
				"element": "O" 
			},
			{
				"x": 0.5845335383,
				"y": 0.8176226646,
				"z": 1.0558835014,
				"element": "C" 
			},
			{
				"x": -0.1141040977,
				"y": 1.1245163457,
				"z": 0.0017988584,
				"element": "N" 
			},
			{
				"x": 1.1828997591,
				"y": -0.5134177145,
				"z": 1.4765377579,
				"element": "C" 
			},
			{
				"x": 0.2091330922,
				"y": -1.5907962189,
				"z": 1.3355415855,
				"element": "N" 
			},
			{
				"x": -1.1044463688,
				"y": -1.2731592768,
				"z": 1.9270890987,
				"element": "C" 
			},
			{
				"x": -1.8794737963,
				"y": -2.5580638773,
				"z": 2.1926043477,
				"element": "C" 
			},
			{
				"x": -1.2495452384,
				"y": -3.3858169098,
				"z": 3.1664744669,
				"element": "O" 
			},
			{
				"x": 0.1751419978,
				"y": -3.2933215645,
				"z": 3.1654661171,
				"element": "C" 
			},
			{
				"x": 0.7230784779,
				"y": -2.901469388,
				"z": 1.7958279507,
				"element": "C" 
			},
			{
				"x": 2.3872276249,
				"y": -0.8139585653,
				"z": 0.7166414391,
				"element": "N" 
			},
			{
				"x": 2.2616594176,
				"y": -0.9197762035,
				"z": -0.7348006011,
				"element": "C" 
			},
			{
				"x": 3.436255861,
				"y": -1.7700491492,
				"z": -1.2494155603,
				"element": "C" 
			},
			{
				"x": 4.6357039175,
				"y": -1.5584665241,
				"z": -0.5016834993,
				"element": "O" 
			},
			{
				"x": 4.6886476071,
				"y": -0.2673553036,
				"z": 0.0729124042,
				"element": "C" 
			},
			{
				"x": 3.591929168,
				"y": -0.0908063186,
				"z": 1.1405942953,
				"element": "C" 
			},
			{
				"x": -1.4095189635,
				"y": 4.9915949985,
				"z": 0.4465763335,
				"element": "H" 
			},
			{
				"x": 0.0737915228,
				"y": 5.1932245544,
				"z": -0.4898680376,
				"element": "H" 
			},
			{
				"x": -1.5023712061,
				"y": 5.3995346413,
				"z": -1.2774986857,
				"element": "H" 
			},
			{
				"x": -3.0116989311,
				"y": 3.3791074204,
				"z": -1.7128193253,
				"element": "H" 
			},
			{
				"x": -2.9466753066,
				"y": 2.975548404,
				"z": 0.0114573426,
				"element": "H" 
			},
			{
				"x": -2.4927948317,
				"y": 1.7607136876,
				"z": -1.1988918647,
				"element": "H" 
			},
			{
				"x": -0.3254033034,
				"y": 2.0544249107,
				"z": -2.5648941129,
				"element": "H" 
			},
			{
				"x": 0.7027467553,
				"y": 3.4747090212,
				"z": -2.296514708,
				"element": "H" 
			},
			{
				"x": -0.8857554885,
				"y": 3.6656459048,
				"z": -3.0581025834,
				"element": "H" 
			},
			{
				"x": 1.5138808522,
				"y": -0.3733918285,
				"z": 2.5241791788,
				"element": "H" 
			},
			{
				"x": -1.0087006582,
				"y": -0.7263418089,
				"z": 2.8832934443,
				"element": "H" 
			},
			{
				"x": -1.6712939085,
				"y": -0.6363615543,
				"z": 1.2412497756,
				"element": "H" 
			},
			{
				"x": -2.0120269768,
				"y": -3.1055110343,
				"z": 1.2462368727,
				"element": "H" 
			},
			{
				"x": -2.874872508,
				"y": -2.3178368705,
				"z": 2.5795161833,
				"element": "H" 
			},
			{
				"x": 0.5045347343,
				"y": -2.5663629725,
				"z": 3.9258732443,
				"element": "H" 
			},
			{
				"x": 0.5606305286,
				"y": -4.2749223871,
				"z": 3.4635060754,
				"element": "H" 
			},
			{
				"x": 0.4428069161,
				"y": -3.6724060806,
				"z": 1.0669508714,
				"element": "H" 
			},
			{
				"x": 1.8147392421,
				"y": -2.8632376683,
				"z": 1.8102868219,
				"element": "H" 
			},
			{
				"x": 1.3112545777,
				"y": -1.4047735897,
				"z": -0.9665742532,
				"element": "H" 
			},
			{
				"x": 2.2440105609,
				"y": 0.0659945005,
				"z": -1.228838361,
				"element": "H" 
			},
			{
				"x": 3.2079267392,
				"y": -2.8360010717,
				"z": -1.1496533202,
				"element": "H" 
			},
			{
				"x": 3.6090045518,
				"y": -1.553547348,
				"z": -2.3158324703,
				"element": "H" 
			},
			{
				"x": 5.6772410981,
				"y": -0.1609382889,
				"z": 0.5276768156,
				"element": "H" 
			},
			{
				"x": 4.5980886541,
				"y": 0.5116294091,
				"z": -0.7007747179,
				"element": "H" 
			},
			{
				"x": 3.9227705762,
				"y": -0.5042198877,
				"z": 2.1019071032,
				"element": "H" 
			},
			{
				"x": 3.4179313371,
				"y": 0.9891082749,
				"z": 1.2902328909,
				"element": "H" 
			}
		],
		 "valence_orbital": [ 
			{
				"type": "occ",
				"energy": -0.28659,
				"method": "rhf"
			},
			{
				"type": "occ",
				"energy": -0.25096,
				"method": "rhf"
			},
			{
				"type": "occ",
				"energy": -0.24775,
				"method": "rhf"
			},
			{
				"type": "occ",
				"energy": -0.22367,
				"method": "rhf"
			},
			{
				"type": "occ",
				"energy": -0.22179,
				"method": "rhf"
			},
			{
				"type": "unocc",
				"energy": -0.02459,
				"method": "rhf"
			},
			{
				"type": "unocc",
				"energy": 0.03478,
				"method": "rhf"
			},
			{
				"type": "unocc",
				"energy": 0.07164,
				"method": "rhf"
			},
			{
				"type": "unocc",
				"energy": 0.07822,
				"method": "rhf"
			},
			{
				"type": "unocc",
				"energy": 0.08554,
				"method": "rhf"
			}
		],
		"cosmo_sigma_profile": { 
			"-0.025": 0.0,
			"-0.024": 0.0,
			"-0.023": 0.0,
			"-0.022": 0.0,
			"-0.021": 0.0,
			"-0.02": 0.0,
			"-0.019": 0.0,
			"-0.018": 0.0,
			"-0.017": 0.0,
			"-0.016": 0.0,
			"-0.015": 0.0,
			"-0.014": 0.0,
			"-0.013": 0.0,
			"-0.012": 0.0,
			"-0.011": 0.0,
			"-0.01": 0.0,
			"-0.009": 0.0,
			"-0.008": 0.0,
			"-0.007": 0.0,
			"-0.006": 3.45622870337,
			"-0.005": 15.1768584365,
			"-0.004": 46.809024627,
			"-0.003": 66.8713932683,
			"-0.002": 47.3335690983,
			"-0.001": 35.6286221054,
			"0.0": 34.0224685656,
			"0.001": 25.1065785986,
			"0.002": 10.5547019844,
			"0.003": 9.38317880159,
			"0.004": 8.34659831019,
			"0.005": 7.58648595505,
			"0.006": 7.26199350919,
			"0.007": 8.51863087282,
			"0.008": 6.42414574564,
			"0.009": 6.04459918229,
			"0.01": 5.71472352519,
			"0.011": 4.59614634904,
			"0.012": 4.95394829951,
			"0.013": 5.42983525296,
			"0.014": 1.78797863205,
			"0.015": 0.0,
			"0.016": 0.0,
			"0.017": 0.0,
			"0.018": 0.0,
			"0.019": 0.0,
			"0.02": 0.0,
			"0.021": 0.0,
			"0.022": 0.0,
			"0.023": 0.0,
			"0.024": 0.0,
			"0.025": 0.0
		}
	}
}
