{
	 "smiles": "CS(=O)(=O)NCC1=CC=C(N)C=C1", 
	 "Tm": 420.15, 
	 "num_atms": 25, 
	 "gaussian": { 
		 "optdone": 1, 
		 "sigma_profile": "yes", 
		 "theory": "DFT", 
		 "functional": "B3LYP", 
		 "basiset": "6-31G**", 
		 "properties": { 
			 "R2extent": 4839.0198, 
			 "electric_dipole_moment_norm": 5.21983717466, 
			 "electric_quadrupole_moment_norm": 25.8329129012, 
			 "total_energy": -970.161562903, 
			 "HOMO_LUMO_gap": 0.20267, 
			 "cosmo_polarized_energy": -19.31, 
			 "cosmo_cavitation_energy": 30.33, 
			 "cosmo_dispersion_energy": -22.32, 
			 "cosmo_repulsion_energy": 1.74, 
			 "cosmo_total_nonelectrostatic_energy": 9.75, 
			 "SMD_solvation_energy": 4.16 
		},
		"coords": [
			{
				"x": 2.5495651531,
				"y": -0.3104813801,
				"z": -3.6339998232,
				"element": "C" 
			},
			{
				"x": 1.2083329049,
				"y": -1.5060380969,
				"z": -3.5294096158,
				"element": "S" 
			},
			{
				"x": 0.1211090772,
				"y": -1.021393601,
				"z": -4.3882301215,
				"element": "O" 
			},
			{
				"x": 1.7701554804,
				"y": -2.8497082068,
				"z": -3.7013103673,
				"element": "O" 
			},
			{
				"x": 0.7705671345,
				"y": -1.3961381731,
				"z": -1.8961824847,
				"element": "N" 
			},
			{
				"x": -0.3860009279,
				"y": -0.5361842848,
				"z": -1.5464172403,
				"element": "C" 
			},
			{
				"x": -0.6936349619,
				"y": -0.6651205302,
				"z": -0.0738381031,
				"element": "C" 
			},
			{
				"x": -1.9085800354,
				"y": -1.2051701654,
				"z": 0.362190693,
				"element": "C" 
			},
			{
				"x": -2.2025004871,
				"y": -1.3305543857,
				"z": 1.7178619799,
				"element": "C" 
			},
			{
				"x": -1.2754818999,
				"y": -0.9182047492,
				"z": 2.6892814532,
				"element": "C" 
			},
			{
				"x": -1.5817531808,
				"y": -0.9868181443,
				"z": 4.0469041693,
				"element": "N" 
			},
			{
				"x": -0.0492083346,
				"y": -0.3790995176,
				"z": 2.2555443736,
				"element": "C" 
			},
			{
				"x": 0.2299269275,
				"y": -0.2574321089,
				"z": 0.8999904127,
				"element": "C" 
			},
			{
				"x": 2.8858003424,
				"y": -0.3006710394,
				"z": -4.6722818479,
				"element": "H" 
			},
			{
				"x": 3.3520684505,
				"y": -0.6273328795,
				"z": -2.9684027749,
				"element": "H" 
			},
			{
				"x": 2.1725428152,
				"y": 0.6742597126,
				"z": -3.3536009407,
				"element": "H" 
			},
			{
				"x": 0.6697270892,
				"y": -2.3490343882,
				"z": -1.5515557759,
				"element": "H" 
			},
			{
				"x": -1.2690171413,
				"y": -0.7847790434,
				"z": -2.1458203774,
				"element": "H" 
			},
			{
				"x": -0.1105047229,
				"y": 0.4951049656,
				"z": -1.7960090296,
				"element": "H" 
			},
			{
				"x": -2.6419398817,
				"y": -1.5336474448,
				"z": -0.3704379643,
				"element": "H" 
			},
			{
				"x": -3.1569137971,
				"y": -1.7476655141,
				"z": 2.0294916243,
				"element": "H" 
			},
			{
				"x": -2.289608039,
				"y": -1.6618854252,
				"z": 4.3001400693,
				"element": "H" 
			},
			{
				"x": -0.7882610123,
				"y": -1.0130561508,
				"z": 4.6718470228,
				"element": "H" 
			},
			{
				"x": 0.6800973851,
				"y": -0.0500262621,
				"z": 2.9918709949,
				"element": "H" 
			},
			{
				"x": 1.1861116619,
				"y": 0.1545768134,
				"z": 0.5882736738,
				"element": "H" 
			}
		],
		 "valence_orbital": [ 
			{
				"type": "occ",
				"energy": -0.3028,
				"method": "rhf"
			},
			{
				"type": "occ",
				"energy": -0.2929,
				"method": "rhf"
			},
			{
				"type": "occ",
				"energy": -0.26961,
				"method": "rhf"
			},
			{
				"type": "occ",
				"energy": -0.25345,
				"method": "rhf"
			},
			{
				"type": "occ",
				"energy": -0.20838,
				"method": "rhf"
			},
			{
				"type": "unocc",
				"energy": -0.00571,
				"method": "rhf"
			},
			{
				"type": "unocc",
				"energy": 0.00324,
				"method": "rhf"
			},
			{
				"type": "unocc",
				"energy": 0.07155,
				"method": "rhf"
			},
			{
				"type": "unocc",
				"energy": 0.07512,
				"method": "rhf"
			},
			{
				"type": "unocc",
				"energy": 0.08174,
				"method": "rhf"
			}
		],
		"cosmo_sigma_profile": { 
			"-0.025": 0.0,
			"-0.024": 0.0,
			"-0.023": 0.0,
			"-0.022": 0.0,
			"-0.021": 0.0,
			"-0.02": 0.0,
			"-0.019": 0.0,
			"-0.018": 0.0,
			"-0.017": 0.0,
			"-0.016": 0.0,
			"-0.015": 0.0,
			"-0.014": 0.18831785237,
			"-0.013": 1.08978292067,
			"-0.012": 3.46013079141,
			"-0.011": 3.18232573022,
			"-0.01": 3.82101352447,
			"-0.009": 5.79046482016,
			"-0.008": 10.5849533992,
			"-0.007": 9.4376806594,
			"-0.006": 12.7714836881,
			"-0.005": 17.4842599159,
			"-0.004": 18.7532776215,
			"-0.003": 18.6887023944,
			"-0.002": 10.8684539039,
			"-0.001": 11.0697718608,
			"0.0": 7.73390210696,
			"0.001": 9.86074533892,
			"0.002": 9.14492357319,
			"0.003": 8.4356736544,
			"0.004": 10.6572790366,
			"0.005": 9.84173425238,
			"0.006": 12.7818036601,
			"0.007": 7.4175955831,
			"0.008": 5.36734111558,
			"0.009": 3.03728442046,
			"0.01": 5.06889283946,
			"0.011": 12.3286667588,
			"0.012": 8.74858374653,
			"0.013": 1.0779611049,
			"0.014": 0.561321784517,
			"0.015": 0.127861527666,
			"0.016": 0.0,
			"0.017": 0.0,
			"0.018": 0.0,
			"0.019": 0.0,
			"0.02": 0.0,
			"0.021": 0.0,
			"0.022": 0.0,
			"0.023": 0.0,
			"0.024": 0.0,
			"0.025": 0.0
		}
	}
}
