{
	 "smiles": "C1C=CC=CC=C1", 
	 "Tm": 193.35, 
	 "num_atms": 15, 
	 "gaussian": { 
		 "optdone": 1, 
		 "sigma_profile": "yes", 
		 "theory": "DFT", 
		 "functional": "B3LYP", 
		 "basiset": "6-31G**", 
		 "properties": { 
			 "R2extent": 878.867, 
			 "electric_dipole_moment_norm": 0.290557481404, 
			 "electric_quadrupole_moment_norm": 4.24828135721, 
			 "total_energy": -271.516155296, 
			 "HOMO_LUMO_gap": 0.18421, 
			 "cosmo_polarized_energy": -2.94, 
			 "cosmo_cavitation_energy": 17.64, 
			 "cosmo_dispersion_energy": -13.41, 
			 "cosmo_repulsion_energy": 1.13, 
			 "cosmo_total_nonelectrostatic_energy": 5.36, 
			 "SMD_solvation_energy": 2.98 
		},
		"coords": [
			{
				"x": 1.7587271677,
				"y": -0.8108556388,
				"z": 0.0677245612,
				"element": "C" 
			},
			{
				"x": 2.5047406169,
				"y": 0.3850780353,
				"z": -0.4716585777,
				"element": "C" 
			},
			{
				"x": 1.9446516213,
				"y": 1.6139364795,
				"z": -0.5175519199,
				"element": "C" 
			},
			{
				"x": 0.5567493371,
				"y": 1.913416448,
				"z": -0.2377976248,
				"element": "C" 
			},
			{
				"x": -0.5023300674,
				"y": 1.0793105818,
				"z": -0.4563983132,
				"element": "C" 
			},
			{
				"x": -0.4305619817,
				"y": -0.256719696,
				"z": -1.0078183475,
				"element": "C" 
			},
			{
				"x": 0.6084746336,
				"y": -1.1083653245,
				"z": -0.8630079451,
				"element": "C" 
			},
			{
				"x": 1.3681528683,
				"y": -0.5772910553,
				"z": 1.0689302464,
				"element": "H" 
			},
			{
				"x": 2.4202682533,
				"y": -1.6757549791,
				"z": 0.1627150686,
				"element": "H" 
			},
			{
				"x": 3.5264195541,
				"y": 0.2483728639,
				"z": -0.8199480139,
				"element": "H" 
			},
			{
				"x": 2.5689450544,
				"y": 2.4569763844,
				"z": -0.8112473746,
				"element": "H" 
			},
			{
				"x": 0.3303879003,
				"y": 2.9388044033,
				"z": 0.0506435323,
				"element": "H" 
			},
			{
				"x": -1.4993301896,
				"y": 1.4977776272,
				"z": -0.3270419777,
				"element": "H" 
			},
			{
				"x": -1.2827816685,
				"y": -0.5765171457,
				"z": -1.606291972,
				"element": "H" 
			},
			{
				"x": 0.6172869003,
				"y": -2.0427689839,
				"z": -1.420351342,
				"element": "H" 
			}
		],
		 "valence_orbital": [ 
			{
				"type": "occ",
				"energy": -0.34888,
				"method": "rhf"
			},
			{
				"type": "occ",
				"energy": -0.33642,
				"method": "rhf"
			},
			{
				"type": "occ",
				"energy": -0.3071,
				"method": "rhf"
			},
			{
				"type": "occ",
				"energy": -0.24859,
				"method": "rhf"
			},
			{
				"type": "occ",
				"energy": -0.21322,
				"method": "rhf"
			},
			{
				"type": "unocc",
				"energy": -0.02901,
				"method": "rhf"
			},
			{
				"type": "unocc",
				"energy": 0.0266,
				"method": "rhf"
			},
			{
				"type": "unocc",
				"energy": 0.08857,
				"method": "rhf"
			},
			{
				"type": "unocc",
				"energy": 0.10259,
				"method": "rhf"
			},
			{
				"type": "unocc",
				"energy": 0.13263,
				"method": "rhf"
			}
		],
		"cosmo_sigma_profile": { 
			"-0.025": 0.0,
			"-0.024": 0.0,
			"-0.023": 0.0,
			"-0.022": 0.0,
			"-0.021": 0.0,
			"-0.02": 0.0,
			"-0.019": 0.0,
			"-0.018": 0.0,
			"-0.017": 0.0,
			"-0.016": 0.0,
			"-0.015": 0.0,
			"-0.014": 0.0,
			"-0.013": 0.0,
			"-0.012": 0.0,
			"-0.011": 0.0,
			"-0.01": 0.0,
			"-0.009": 0.0,
			"-0.008": 0.0,
			"-0.007": 0.0,
			"-0.006": 0.404114356956,
			"-0.005": 9.47266660445,
			"-0.004": 15.8036855263,
			"-0.003": 19.0082006504,
			"-0.002": 14.8098302452,
			"-0.001": 11.1482541709,
			"0.0": 12.8167504867,
			"0.001": 8.98289635109,
			"0.002": 9.29549288555,
			"0.003": 8.5572121823,
			"0.004": 8.62367651411,
			"0.005": 9.24270215857,
			"0.006": 6.64518998132,
			"0.007": 2.95527641943,
			"0.008": 1.64387536775,
			"0.009": 0.406844480892,
			"0.01": 0.0,
			"0.011": 0.0,
			"0.012": 0.0,
			"0.013": 0.0,
			"0.014": 0.0,
			"0.015": 0.0,
			"0.016": 0.0,
			"0.017": 0.0,
			"0.018": 0.0,
			"0.019": 0.0,
			"0.02": 0.0,
			"0.021": 0.0,
			"0.022": 0.0,
			"0.023": 0.0,
			"0.024": 0.0,
			"0.025": 0.0
		}
	}
}
