{
	 "smiles": "CC(C)(C)OC(=O)N1CCCC(C1)C(=O)NC1CCCNC1", 
	 "Tm": 390.15, 
	 "num_atms": 51, 
	 "gaussian": { 
		 "optdone": 1, 
		 "sigma_profile": "yes", 
		 "theory": "DFT", 
		 "functional": "B3LYP", 
		 "basiset": "6-31G**", 
		 "properties": { 
			 "R2extent": 7157.4746, 
			 "electric_dipole_moment_norm": 2.52677984399, 
			 "electric_quadrupole_moment_norm": 22.5307555566, 
			 "total_energy": -1017.17078474, 
			 "HOMO_LUMO_gap": 0.26137, 
			 "cosmo_polarized_energy": -16.41, 
			 "cosmo_cavitation_energy": 48.15, 
			 "cosmo_dispersion_energy": -30.86, 
			 "cosmo_repulsion_energy": 2.33, 
			 "cosmo_total_nonelectrostatic_energy": 19.62, 
			 "SMD_solvation_energy": 7.73 
		},
		"coords": [
			{
				"x": -2.2497123856,
				"y": -1.0925586618,
				"z": 2.1069576992,
				"element": "C" 
			},
			{
				"x": -1.1735086833,
				"y": -2.0505122152,
				"z": 1.5890082086,
				"element": "C" 
			},
			{
				"x": 0.1312281681,
				"y": -1.8716053561,
				"z": 2.3720081111,
				"element": "C" 
			},
			{
				"x": -1.6781581369,
				"y": -3.4970433394,
				"z": 1.6087444352,
				"element": "C" 
			},
			{
				"x": -0.9923912748,
				"y": -1.5995429771,
				"z": 0.1981023253,
				"element": "O" 
			},
			{
				"x": -0.1072370667,
				"y": -2.2248336593,
				"z": -0.6229215332,
				"element": "C" 
			},
			{
				"x": 0.6291010199,
				"y": -3.1468456307,
				"z": -0.3009668964,
				"element": "O" 
			},
			{
				"x": -0.1098157411,
				"y": -1.6763675772,
				"z": -1.8786482671,
				"element": "N" 
			},
			{
				"x": 0.7613198136,
				"y": -2.3185257104,
				"z": -2.8755426555,
				"element": "C" 
			},
			{
				"x": 0.8528341656,
				"y": -1.4536379302,
				"z": -4.1426097846,
				"element": "C" 
			},
			{
				"x": 0.8711105645,
				"y": 0.0313967497,
				"z": -3.7706619991,
				"element": "C" 
			},
			{
				"x": -0.4900589499,
				"y": 0.4447324793,
				"z": -3.1457536906,
				"element": "C" 
			},
			{
				"x": -1.12114066,
				"y": -0.7422289388,
				"z": -2.3759600818,
				"element": "C" 
			},
			{
				"x": -0.3013307027,
				"y": 1.7671892144,
				"z": -2.3955194759,
				"element": "C" 
			},
			{
				"x": -0.2240580156,
				"y": 2.8166185232,
				"z": -3.0328419542,
				"element": "O" 
			},
			{
				"x": -0.1793884354,
				"y": 1.7344174661,
				"z": -1.0369246729,
				"element": "N" 
			},
			{
				"x": 0.0997497213,
				"y": 2.9647368264,
				"z": -0.2940510367,
				"element": "C" 
			},
			{
				"x": 1.6047909645,
				"y": 3.3086451498,
				"z": -0.2794125204,
				"element": "C" 
			},
			{
				"x": 2.3989230154,
				"y": 2.3266705892,
				"z": 0.594451448,
				"element": "C" 
			},
			{
				"x": 1.7746200951,
				"y": 2.2162540514,
				"z": 1.9897291085,
				"element": "C" 
			},
			{
				"x": 0.3611027535,
				"y": 1.8345656413,
				"z": 1.8669174914,
				"element": "N" 
			},
			{
				"x": -0.4194026941,
				"y": 2.8428505893,
				"z": 1.1426439483,
				"element": "C" 
			},
			{
				"x": -2.4834134744,
				"y": -1.3191312299,
				"z": 3.151597186,
				"element": "H" 
			},
			{
				"x": -1.8979785589,
				"y": -0.059152949,
				"z": 2.0426062826,
				"element": "H" 
			},
			{
				"x": -3.1681355471,
				"y": -1.1853831226,
				"z": 1.5195907487,
				"element": "H" 
			},
			{
				"x": -0.0484374717,
				"y": -2.0701463366,
				"z": 3.4342040712,
				"element": "H" 
			},
			{
				"x": 0.4833712424,
				"y": -0.8413319379,
				"z": 2.2633950954,
				"element": "H" 
			},
			{
				"x": 0.8996405759,
				"y": -2.5544436573,
				"z": 2.0096328645,
				"element": "H" 
			},
			{
				"x": -1.9183338927,
				"y": -3.7864521533,
				"z": 2.6370811002,
				"element": "H" 
			},
			{
				"x": -2.5891127506,
				"y": -3.5914390823,
				"z": 1.0087064316,
				"element": "H" 
			},
			{
				"x": -0.923064965,
				"y": -4.1792633359,
				"z": 1.2180181955,
				"element": "H" 
			},
			{
				"x": 1.7487531919,
				"y": -2.4371443795,
				"z": -2.4214312902,
				"element": "H" 
			},
			{
				"x": 0.3985868909,
				"y": -3.3289890784,
				"z": -3.109765031,
				"element": "H" 
			},
			{
				"x": 0.0073795951,
				"y": -1.6560156824,
				"z": -4.8124108942,
				"element": "H" 
			},
			{
				"x": 1.7568989147,
				"y": -1.732873338,
				"z": -4.6935779523,
				"element": "H" 
			},
			{
				"x": 1.6756148455,
				"y": 0.2052283293,
				"z": -3.0446109981,
				"element": "H" 
			},
			{
				"x": 1.0804500565,
				"y": 0.667848266,
				"z": -4.6339334089,
				"element": "H" 
			},
			{
				"x": -1.1698953462,
				"y": 0.703200072,
				"z": -3.9644930396,
				"element": "H" 
			},
			{
				"x": -1.7996906383,
				"y": -1.2776979567,
				"z": -3.0553652431,
				"element": "H" 
			},
			{
				"x": -1.7252216955,
				"y": -0.4029585505,
				"z": -1.5371187106,
				"element": "H" 
			},
			{
				"x": -0.1619461726,
				"y": 0.8607979244,
				"z": -0.5265164689,
				"element": "H" 
			},
			{
				"x": -0.4376766924,
				"y": 3.7635586371,
				"z": -0.8119685383,
				"element": "H" 
			},
			{
				"x": 1.7179495707,
				"y": 4.3265705255,
				"z": 0.1185513767,
				"element": "H" 
			},
			{
				"x": 1.9773959651,
				"y": 3.3253595039,
				"z": -1.307708819,
				"element": "H" 
			},
			{
				"x": 3.4434381796,
				"y": 2.6472160625,
				"z": 0.6792373788,
				"element": "H" 
			},
			{
				"x": 2.4030749091,
				"y": 1.333524612,
				"z": 0.1296228449,
				"element": "H" 
			},
			{
				"x": 1.8964591199,
				"y": 3.182755501,
				"z": 2.5164504984,
				"element": "H" 
			},
			{
				"x": 2.2899171526,
				"y": 1.4532977465,
				"z": 2.5829244414,
				"element": "H" 
			},
			{
				"x": -0.0386270505,
				"y": 1.6877521299,
				"z": 2.7890367889,
				"element": "H" 
			},
			{
				"x": -1.4722474751,
				"y": 2.5412013972,
				"z": 1.1377691226,
				"element": "H" 
			},
			{
				"x": -0.3584260141,
				"y": 3.842836799,
				"z": 1.6115277598,
				"element": "H" 
			}
		],
		 "valence_orbital": [ 
			{
				"type": "occ",
				"energy": -0.2589,
				"method": "rhf"
			},
			{
				"type": "occ",
				"energy": -0.24904,
				"method": "rhf"
			},
			{
				"type": "occ",
				"energy": -0.24383,
				"method": "rhf"
			},
			{
				"type": "occ",
				"energy": -0.2306,
				"method": "rhf"
			},
			{
				"type": "occ",
				"energy": -0.22493,
				"method": "rhf"
			},
			{
				"type": "unocc",
				"energy": 0.03644,
				"method": "rhf"
			},
			{
				"type": "unocc",
				"energy": 0.05099,
				"method": "rhf"
			},
			{
				"type": "unocc",
				"energy": 0.05675,
				"method": "rhf"
			},
			{
				"type": "unocc",
				"energy": 0.07702,
				"method": "rhf"
			},
			{
				"type": "unocc",
				"energy": 0.09149,
				"method": "rhf"
			}
		],
		"cosmo_sigma_profile": { 
			"-0.025": 0.0,
			"-0.024": 0.0,
			"-0.023": 0.0,
			"-0.022": 0.0,
			"-0.021": 0.0,
			"-0.02": 0.0,
			"-0.019": 0.0,
			"-0.018": 0.0,
			"-0.017": 0.0,
			"-0.016": 0.0,
			"-0.015": 0.0,
			"-0.014": 0.0,
			"-0.013": 0.0,
			"-0.012": 0.0,
			"-0.011": 0.0111633264496,
			"-0.01": 0.711791615641,
			"-0.009": 1.22123739837,
			"-0.008": 1.4121646532,
			"-0.007": 0.910429580723,
			"-0.006": 1.78477523084,
			"-0.005": 8.45821011159,
			"-0.004": 32.0997531615,
			"-0.003": 55.5828597874,
			"-0.002": 60.9093369883,
			"-0.001": 52.9032622054,
			"0.0": 47.0371967127,
			"0.001": 32.5709484626,
			"0.002": 13.9058898079,
			"0.003": 9.75278724225,
			"0.004": 6.76227310075,
			"0.005": 5.6702688068,
			"0.006": 5.88848692874,
			"0.007": 4.46219302528,
			"0.008": 2.51925657313,
			"0.009": 3.54596284687,
			"0.01": 3.07794346567,
			"0.011": 3.28797481011,
			"0.012": 2.67993681362,
			"0.013": 4.8958182404,
			"0.014": 5.90678864305,
			"0.015": 3.24100308935,
			"0.016": 0.337659885338,
			"0.017": 0.0,
			"0.018": 0.0,
			"0.019": 0.0,
			"0.02": 0.0,
			"0.021": 0.0,
			"0.022": 0.0,
			"0.023": 0.0,
			"0.024": 0.0,
			"0.025": 0.0
		}
	}
}
