{
	 "smiles": "OC(=O)C1C2C1C1CCC2C1", 
	 "Tm": 370.15, 
	 "num_atms": 23, 
	 "gaussian": { 
		 "optdone": 1, 
		 "sigma_profile": "yes", 
		 "theory": "DFT", 
		 "functional": "B3LYP", 
		 "basiset": "6-31G**", 
		 "properties": { 
			 "R2extent": 1810.5232, 
			 "electric_dipole_moment_norm": 1.56820357735, 
			 "electric_quadrupole_moment_norm": 5.77980651752, 
			 "total_energy": -500.595329709, 
			 "HOMO_LUMO_gap": 0.26261, 
			 "cosmo_polarized_energy": -8.44, 
			 "cosmo_cavitation_energy": 23.33, 
			 "cosmo_dispersion_energy": -18.02, 
			 "cosmo_repulsion_energy": 1.45, 
			 "cosmo_total_nonelectrostatic_energy": 6.76, 
			 "SMD_solvation_energy": 3.69 
		},
		"coords": [
			{
				"x": -1.3800651649,
				"y": -0.0024344414,
				"z": 3.256362289,
				"element": "O" 
			},
			{
				"x": -1.4953576134,
				"y": 0.1784122323,
				"z": 1.9143956571,
				"element": "C" 
			},
			{
				"x": -2.2978633121,
				"y": -0.4426869735,
				"z": 1.2514319229,
				"element": "O" 
			},
			{
				"x": -0.6224403202,
				"y": 1.3075122202,
				"z": 1.445389308,
				"element": "C" 
			},
			{
				"x": 0.8802646264,
				"y": 1.4796232811,
				"z": 1.4849196451,
				"element": "C" 
			},
			{
				"x": 0.1295755652,
				"y": 1.4946898314,
				"z": 0.150108814,
				"element": "C" 
			},
			{
				"x": 0.8088938016,
				"y": 0.3650409363,
				"z": -0.6643667797,
				"element": "C" 
			},
			{
				"x": 0.4931599775,
				"y": -1.0498847621,
				"z": -0.1272509148,
				"element": "C" 
			},
			{
				"x": 1.2239793462,
				"y": -1.0638012535,
				"z": 1.258329561,
				"element": "C" 
			},
			{
				"x": 1.898886176,
				"y": 0.3283078855,
				"z": 1.3148607141,
				"element": "C" 
			},
			{
				"x": 2.2755898453,
				"y": 0.5309276306,
				"z": -0.1787106784,
				"element": "C" 
			},
			{
				"x": -2.0384484337,
				"y": -0.6797619592,
				"z": 3.488067369,
				"element": "H" 
			},
			{
				"x": -1.119472802,
				"y": 2.2294708676,
				"z": 1.7571404332,
				"element": "H" 
			},
			{
				"x": 1.2552722758,
				"y": 2.393547841,
				"z": 1.9389495445,
				"element": "H" 
			},
			{
				"x": -0.0528225552,
				"y": 2.4248324055,
				"z": -0.3826643903,
				"element": "H" 
			},
			{
				"x": 0.6390536398,
				"y": 0.4722558845,
				"z": -1.7385972836,
				"element": "H" 
			},
			{
				"x": -0.5750567493,
				"y": -1.2509522819,
				"z": -0.0606003751,
				"element": "H" 
			},
			{
				"x": 0.9293712102,
				"y": -1.7956925407,
				"z": -0.8002179057,
				"element": "H" 
			},
			{
				"x": 1.9895805214,
				"y": -1.8459827385,
				"z": 1.2904570695,
				"element": "H" 
			},
			{
				"x": 0.5589272109,
				"y": -1.2412886726,
				"z": 2.1063014857,
				"element": "H" 
			},
			{
				"x": 2.7180208367,
				"y": 0.3885785726,
				"z": 2.0358929536,
				"element": "H" 
			},
			{
				"x": 2.9601950585,
				"y": -0.2311879957,
				"z": -0.5715296733,
				"element": "H" 
			},
			{
				"x": 2.6891568595,
				"y": 1.5236740302,
				"z": -0.3844687657,
				"element": "H" 
			}
		],
		 "valence_orbital": [ 
			{
				"type": "occ",
				"energy": -0.31473,
				"method": "rhf"
			},
			{
				"type": "occ",
				"energy": -0.30127,
				"method": "rhf"
			},
			{
				"type": "occ",
				"energy": -0.29243,
				"method": "rhf"
			},
			{
				"type": "occ",
				"energy": -0.27465,
				"method": "rhf"
			},
			{
				"type": "occ",
				"energy": -0.25875,
				"method": "rhf"
			},
			{
				"type": "unocc",
				"energy": 0.00386,
				"method": "rhf"
			},
			{
				"type": "unocc",
				"energy": 0.07585,
				"method": "rhf"
			},
			{
				"type": "unocc",
				"energy": 0.07777,
				"method": "rhf"
			},
			{
				"type": "unocc",
				"energy": 0.10683,
				"method": "rhf"
			},
			{
				"type": "unocc",
				"energy": 0.11432,
				"method": "rhf"
			}
		],
		"cosmo_sigma_profile": { 
			"-0.025": 0.0,
			"-0.024": 0.0,
			"-0.023": 0.0,
			"-0.022": 0.0,
			"-0.021": 0.0,
			"-0.02": 0.0,
			"-0.019": 0.0,
			"-0.018": 0.425934069516,
			"-0.017": 1.17611993267,
			"-0.016": 0.836612545411,
			"-0.015": 0.711396881623,
			"-0.014": 0.466189265139,
			"-0.013": 0.884875585404,
			"-0.012": 0.62941869359,
			"-0.011": 0.680696178048,
			"-0.01": 0.61756167661,
			"-0.009": 0.710959663163,
			"-0.008": 1.01762079624,
			"-0.007": 3.61967413127,
			"-0.006": 3.0251133449,
			"-0.005": 5.08439541164,
			"-0.004": 8.73009987323,
			"-0.003": 14.4700056305,
			"-0.002": 23.0236883613,
			"-0.001": 23.2154707042,
			"0.0": 22.3493943803,
			"0.001": 21.0217897894,
			"0.002": 11.2485341969,
			"0.003": 4.48111646126,
			"0.004": 3.8180183451,
			"0.005": 4.41755913176,
			"0.006": 4.23094109869,
			"0.007": 2.29383486499,
			"0.008": 3.23740429652,
			"0.009": 3.5302601401,
			"0.01": 3.75485360297,
			"0.011": 3.27272469813,
			"0.012": 4.00122392973,
			"0.013": 0.672817906718,
			"0.014": 0.0,
			"0.015": 0.0,
			"0.016": 0.0,
			"0.017": 0.0,
			"0.018": 0.0,
			"0.019": 0.0,
			"0.02": 0.0,
			"0.021": 0.0,
			"0.022": 0.0,
			"0.023": 0.0,
			"0.024": 0.0,
			"0.025": 0.0
		}
	}
}
