{
	 "smiles": "CC(C)(C)OC(=O)NC(C)(C)C(C)(C)C(O)=O", 
	 "Tm": 399.15, 
	 "num_atms": 40, 
	 "gaussian": { 
		 "optdone": 1, 
		 "sigma_profile": "yes", 
		 "theory": "DFT", 
		 "functional": "B3LYP", 
		 "basiset": "6-31G**", 
		 "properties": { 
			 "R2extent": 4338.8081, 
			 "electric_dipole_moment_norm": 1.60757587379, 
			 "electric_quadrupole_moment_norm": 14.1994626768, 
			 "total_energy": -826.846499433, 
			 "HOMO_LUMO_gap": 0.25076, 
			 "cosmo_polarized_energy": -14.9, 
			 "cosmo_cavitation_energy": 38.4, 
			 "cosmo_dispersion_energy": -25.34, 
			 "cosmo_repulsion_energy": 1.9, 
			 "cosmo_total_nonelectrostatic_energy": 14.96, 
			 "SMD_solvation_energy": 8.3 
		},
		"coords": [
			{
				"x": -2.2239480184,
				"y": -0.0677615577,
				"z": 2.8770293923,
				"element": "C" 
			},
			{
				"x": -1.2118827179,
				"y": -1.1073738464,
				"z": 2.3875149709,
				"element": "C" 
			},
			{
				"x": -1.9108159564,
				"y": -2.4278020186,
				"z": 2.0452246997,
				"element": "C" 
			},
			{
				"x": -0.0868346061,
				"y": -1.3025384473,
				"z": 3.4093344228,
				"element": "C" 
			},
			{
				"x": -0.6791133495,
				"y": -0.4826196669,
				"z": 1.164985926,
				"element": "O" 
			},
			{
				"x": 0.2723526108,
				"y": -1.0946585164,
				"z": 0.4275177374,
				"element": "C" 
			},
			{
				"x": 0.753249411,
				"y": -2.1958701375,
				"z": 0.6510758706,
				"element": "O" 
			},
			{
				"x": 0.6817726058,
				"y": -0.3326141185,
				"z": -0.638766364,
				"element": "N" 
			},
			{
				"x": 0.2926544198,
				"y": 0.9970265625,
				"z": -1.1531808668,
				"element": "C" 
			},
			{
				"x": 1.5291948284,
				"y": 1.4719911212,
				"z": -1.9485253644,
				"element": "C" 
			},
			{
				"x": 0.0643273566,
				"y": 2.0060847766,
				"z": -0.0095812186,
				"element": "C" 
			},
			{
				"x": -0.9867655461,
				"y": 0.8877576665,
				"z": -2.115009051,
				"element": "C" 
			},
			{
				"x": -1.4476364616,
				"y": 2.2771043501,
				"z": -2.6083626411,
				"element": "C" 
			},
			{
				"x": -0.6878239257,
				"y": -0.0078147399,
				"z": -3.33587272,
				"element": "C" 
			},
			{
				"x": -2.1590534961,
				"y": 0.3022083704,
				"z": -1.3127593525,
				"element": "C" 
			},
			{
				"x": -2.2692501326,
				"y": -1.0414497265,
				"z": -1.4314867825,
				"element": "O" 
			},
			{
				"x": -2.9408017589,
				"y": 0.9487717471,
				"z": -0.6452467349,
				"element": "O" 
			},
			{
				"x": -2.9623125786,
				"y": 0.1450513173,
				"z": 2.0991092512,
				"element": "H" 
			},
			{
				"x": -1.7214462573,
				"y": 0.8689870187,
				"z": 3.135567952,
				"element": "H" 
			},
			{
				"x": -2.7416081071,
				"y": -0.4383268534,
				"z": 3.7670273593,
				"element": "H" 
			},
			{
				"x": -2.3621047073,
				"y": -2.8489737542,
				"z": 2.9493648465,
				"element": "H" 
			},
			{
				"x": -2.714481364,
				"y": -2.2592285234,
				"z": 1.3207775418,
				"element": "H" 
			},
			{
				"x": -1.2042636617,
				"y": -3.1470389233,
				"z": 1.631359016,
				"element": "H" 
			},
			{
				"x": 0.4264839845,
				"y": -0.3532128362,
				"z": 3.5923588046,
				"element": "H" 
			},
			{
				"x": 0.6388738663,
				"y": -2.0358782229,
				"z": 3.0571371653,
				"element": "H" 
			},
			{
				"x": -0.5097159446,
				"y": -1.6472517415,
				"z": 4.3586782506,
				"element": "H" 
			},
			{
				"x": 1.3554218894,
				"y": -0.842296976,
				"z": -1.1912825943,
				"element": "H" 
			},
			{
				"x": 1.3469165739,
				"y": 2.4285395213,
				"z": -2.4418817645,
				"element": "H" 
			},
			{
				"x": 1.8336375164,
				"y": 0.7498965707,
				"z": -2.7120530948,
				"element": "H" 
			},
			{
				"x": 2.3666694174,
				"y": 1.6035149268,
				"z": -1.2574484451,
				"element": "H" 
			},
			{
				"x": -0.8825560553,
				"y": 1.8522614886,
				"z": 0.5030101452,
				"element": "H" 
			},
			{
				"x": 0.8750054892,
				"y": 1.9168940622,
				"z": 0.7183867406,
				"element": "H" 
			},
			{
				"x": 0.0818624894,
				"y": 3.0232360836,
				"z": -0.4096754202,
				"element": "H" 
			},
			{
				"x": -0.6468773209,
				"y": 2.7923401553,
				"z": -3.144765243,
				"element": "H" 
			},
			{
				"x": -1.7920566588,
				"y": 2.9043083426,
				"z": -1.7863451334,
				"element": "H" 
			},
			{
				"x": -2.2853158558,
				"y": 2.1622534396,
				"z": -3.3036201572,
				"element": "H" 
			},
			{
				"x": -0.283814701,
				"y": -0.9786270955,
				"z": -3.0426282188,
				"element": "H" 
			},
			{
				"x": -1.603794746,
				"y": -0.1937612143,
				"z": -3.9035980785,
				"element": "H" 
			},
			{
				"x": 0.0196512761,
				"y": 0.4831536806,
				"z": -4.0093588619,
				"element": "H" 
			},
			{
				"x": -3.0195998073,
				"y": -1.2970822853,
				"z": -0.8693119854,
				"element": "H" 
			}
		],
		 "valence_orbital": [ 
			{
				"type": "occ",
				"energy": -0.31457,
				"method": "rhf"
			},
			{
				"type": "occ",
				"energy": -0.28469,
				"method": "rhf"
			},
			{
				"type": "occ",
				"energy": -0.26917,
				"method": "rhf"
			},
			{
				"type": "occ",
				"energy": -0.25699,
				"method": "rhf"
			},
			{
				"type": "occ",
				"energy": -0.24519,
				"method": "rhf"
			},
			{
				"type": "unocc",
				"energy": 0.00557,
				"method": "rhf"
			},
			{
				"type": "unocc",
				"energy": 0.05382,
				"method": "rhf"
			},
			{
				"type": "unocc",
				"energy": 0.05936,
				"method": "rhf"
			},
			{
				"type": "unocc",
				"energy": 0.07103,
				"method": "rhf"
			},
			{
				"type": "unocc",
				"energy": 0.09673,
				"method": "rhf"
			}
		],
		"cosmo_sigma_profile": { 
			"-0.025": 0.0,
			"-0.024": 0.0,
			"-0.023": 0.0,
			"-0.022": 0.0,
			"-0.021": 0.0,
			"-0.02": 0.0,
			"-0.019": 0.0,
			"-0.018": 0.0,
			"-0.017": 0.150385426613,
			"-0.016": 0.57899322715,
			"-0.015": 0.564398119518,
			"-0.014": 1.00967182733,
			"-0.013": 0.583861282753,
			"-0.012": 1.44415154475,
			"-0.011": 2.16602521579,
			"-0.01": 1.97645866946,
			"-0.009": 1.7913252743,
			"-0.008": 1.99654720126,
			"-0.007": 2.36293120474,
			"-0.006": 3.85799407074,
			"-0.005": 7.30607769435,
			"-0.004": 25.0609101714,
			"-0.003": 32.9225995139,
			"-0.002": 31.3857982086,
			"-0.001": 33.4136078402,
			"0.0": 44.1590338315,
			"0.001": 33.1327289475,
			"0.002": 10.9026683586,
			"0.003": 7.71863277686,
			"0.004": 7.46513242885,
			"0.005": 6.5152436179,
			"0.006": 6.61908739905,
			"0.007": 5.40376493277,
			"0.008": 5.18548085002,
			"0.009": 3.13103131755,
			"0.01": 2.93659974768,
			"0.011": 3.66207530735,
			"0.012": 4.82963439066,
			"0.013": 2.78868301618,
			"0.014": 3.16295462078,
			"0.015": 0.201872120858,
			"0.016": 0.0,
			"0.017": 0.0,
			"0.018": 0.0,
			"0.019": 0.0,
			"0.02": 0.0,
			"0.021": 0.0,
			"0.022": 0.0,
			"0.023": 0.0,
			"0.024": 0.0,
			"0.025": 0.0
		}
	}
}
