{
	 "smiles": "C=CN1CCCCCC1=O", 
	 "Tm": 307.15, 
	 "num_atms": 23, 
	 "gaussian": { 
		 "optdone": 1, 
		 "sigma_profile": "yes", 
		 "theory": "DFT", 
		 "functional": "B3LYP", 
		 "basiset": "6-31G**", 
		 "properties": { 
			 "R2extent": 1511.0318, 
			 "electric_dipole_moment_norm": 4.04487549129, 
			 "electric_quadrupole_moment_norm": 9.05789300555, 
			 "total_energy": -442.652145714, 
			 "HOMO_LUMO_gap": 0.21488, 
			 "cosmo_polarized_energy": -9.71, 
			 "cosmo_cavitation_energy": 23.88, 
			 "cosmo_dispersion_energy": -17.79, 
			 "cosmo_repulsion_energy": 1.43, 
			 "cosmo_total_nonelectrostatic_energy": 7.52, 
			 "SMD_solvation_energy": 4.89 
		},
		"coords": [
			{
				"x": 1.9999034586,
				"y": 2.4248503809,
				"z": -1.0236447367,
				"element": "C" 
			},
			{
				"x": 1.5083686472,
				"y": 1.1881177531,
				"z": -1.165077179,
				"element": "C" 
			},
			{
				"x": 0.2725525359,
				"y": 0.6530717619,
				"z": -0.7365771778,
				"element": "N" 
			},
			{
				"x": 0.0476059028,
				"y": -0.783239806,
				"z": -0.9613601503,
				"element": "C" 
			},
			{
				"x": 0.2936450492,
				"y": -1.6468748947,
				"z": 0.2903091624,
				"element": "C" 
			},
			{
				"x": -0.2482839597,
				"y": -1.0107946153,
				"z": 1.5797859248,
				"element": "C" 
			},
			{
				"x": -1.6886519604,
				"y": -0.4796717307,
				"z": 1.4880771032,
				"element": "C" 
			},
			{
				"x": -1.9215069216,
				"y": 0.6372418728,
				"z": 0.4246806187,
				"element": "C" 
			},
			{
				"x": -0.6643633274,
				"y": 1.3897288984,
				"z": -0.0171140564,
				"element": "C" 
			},
			{
				"x": -0.507958983,
				"y": 2.5736605557,
				"z": 0.2505938607,
				"element": "O" 
			},
			{
				"x": 1.4675458817,
				"y": 3.2175373674,
				"z": -0.5226044959,
				"element": "H" 
			},
			{
				"x": 2.980755367,
				"y": 2.6278364114,
				"z": -1.4408441075,
				"element": "H" 
			},
			{
				"x": 2.1017775109,
				"y": 0.4400281832,
				"z": -1.6840623278,
				"element": "H" 
			},
			{
				"x": -0.9730801281,
				"y": -0.929279902,
				"z": -1.3235846317,
				"element": "H" 
			},
			{
				"x": 0.7029665648,
				"y": -1.1000652865,
				"z": -1.7762857433,
				"element": "H" 
			},
			{
				"x": 1.3689982129,
				"y": -1.8261255472,
				"z": 0.4090631393,
				"element": "H" 
			},
			{
				"x": -0.1716920746,
				"y": -2.6267307552,
				"z": 0.1213860131,
				"element": "H" 
			},
			{
				"x": -0.1899375568,
				"y": -1.7454955846,
				"z": 2.3911789145,
				"element": "H" 
			},
			{
				"x": 0.4125880469,
				"y": -0.1861858712,
				"z": 1.8730634317,
				"element": "H" 
			},
			{
				"x": -1.9605636111,
				"y": -0.0822258818,
				"z": 2.4714122415,
				"element": "H" 
			},
			{
				"x": -2.3783093726,
				"y": -1.3098970272,
				"z": 1.2927996976,
				"element": "H" 
			},
			{
				"x": -2.58297797,
				"y": 1.4068695459,
				"z": 0.8253599996,
				"element": "H" 
			},
			{
				"x": -2.4203813126,
				"y": 0.2226441717,
				"z": -0.4585555007,
				"element": "H" 
			}
		],
		 "valence_orbital": [ 
			{
				"type": "occ",
				"energy": -0.33154,
				"method": "rhf"
			},
			{
				"type": "occ",
				"energy": -0.32505,
				"method": "rhf"
			},
			{
				"type": "occ",
				"energy": -0.30292,
				"method": "rhf"
			},
			{
				"type": "occ",
				"energy": -0.2406,
				"method": "rhf"
			},
			{
				"type": "occ",
				"energy": -0.21249,
				"method": "rhf"
			},
			{
				"type": "unocc",
				"energy": 0.00239,
				"method": "rhf"
			},
			{
				"type": "unocc",
				"energy": 0.0642,
				"method": "rhf"
			},
			{
				"type": "unocc",
				"energy": 0.07037,
				"method": "rhf"
			},
			{
				"type": "unocc",
				"energy": 0.08889,
				"method": "rhf"
			},
			{
				"type": "unocc",
				"energy": 0.1123,
				"method": "rhf"
			}
		],
		"cosmo_sigma_profile": { 
			"-0.025": 0.0,
			"-0.024": 0.0,
			"-0.023": 0.0,
			"-0.022": 0.0,
			"-0.021": 0.0,
			"-0.02": 0.0,
			"-0.019": 0.0,
			"-0.018": 0.0,
			"-0.017": 0.0,
			"-0.016": 0.0,
			"-0.015": 0.0,
			"-0.014": 0.0,
			"-0.013": 0.0,
			"-0.012": 0.0,
			"-0.011": 0.0,
			"-0.01": 0.0,
			"-0.009": 0.0,
			"-0.008": 1.05934456647,
			"-0.007": 4.52940466369,
			"-0.006": 6.59595779097,
			"-0.005": 7.56412063501,
			"-0.004": 13.7277037231,
			"-0.003": 27.3135862469,
			"-0.002": 27.4389064403,
			"-0.001": 24.7204749356,
			"0.0": 17.6233275702,
			"0.001": 8.5183408294,
			"0.002": 5.49123178535,
			"0.003": 4.75482568417,
			"0.004": 4.79489282834,
			"0.005": 4.85696300414,
			"0.006": 4.43950849812,
			"0.007": 5.88852427267,
			"0.008": 3.98479081813,
			"0.009": 1.45413070595,
			"0.01": 2.27149177394,
			"0.011": 1.53617333312,
			"0.012": 2.54314303664,
			"0.013": 2.89947898116,
			"0.014": 2.07815191475,
			"0.015": 0.415994607882,
			"0.016": 0.0,
			"0.017": 0.0,
			"0.018": 0.0,
			"0.019": 0.0,
			"0.02": 0.0,
			"0.021": 0.0,
			"0.022": 0.0,
			"0.023": 0.0,
			"0.024": 0.0,
			"0.025": 0.0
		}
	}
}
