{
	 "smiles": "COC(=O)C1=CC=C(N=C1)N1CCCCC1", 
	 "Tm": 344.15, 
	 "num_atms": 32, 
	 "gaussian": { 
		 "optdone": 1, 
		 "sigma_profile": "yes", 
		 "theory": "DFT", 
		 "functional": "B3LYP", 
		 "basiset": "6-31G**", 
		 "properties": { 
			 "R2extent": 6016.3392, 
			 "electric_dipole_moment_norm": 4.19782890194, 
			 "electric_quadrupole_moment_norm": 12.1085884669, 
			 "total_energy": -726.895060862, 
			 "HOMO_LUMO_gap": 0.17431, 
			 "cosmo_polarized_energy": -10.42, 
			 "cosmo_cavitation_energy": 33.88, 
			 "cosmo_dispersion_energy": -25.26, 
			 "cosmo_repulsion_energy": 1.97, 
			 "cosmo_total_nonelectrostatic_energy": 10.59, 
			 "SMD_solvation_energy": 5.24 
		},
		"coords": [
			{
				"x": 0.8328877396,
				"y": 5.2424377774,
				"z": 4.049999471,
				"element": "C" 
			},
			{
				"x": 0.9257132666,
				"y": 4.1292836198,
				"z": 3.1512214265,
				"element": "O" 
			},
			{
				"x": -0.2616301216,
				"y": 3.5548507692,
				"z": 2.8225593602,
				"element": "C" 
			},
			{
				"x": -1.3274337879,
				"y": 3.9523212672,
				"z": 3.2575253911,
				"element": "O" 
			},
			{
				"x": -0.0954664846,
				"y": 2.4185219151,
				"z": 1.8968359513,
				"element": "C" 
			},
			{
				"x": 1.1429128498,
				"y": 1.980066755,
				"z": 1.3983110084,
				"element": "C" 
			},
			{
				"x": 1.1998159003,
				"y": 0.9056651289,
				"z": 0.5321214978,
				"element": "C" 
			},
			{
				"x": -0.0074990213,
				"y": 0.2499055223,
				"z": 0.1642183681,
				"element": "C" 
			},
			{
				"x": -1.2002970461,
				"y": 0.6865712237,
				"z": 0.6304101973,
				"element": "N" 
			},
			{
				"x": -1.2291777813,
				"y": 1.7229977619,
				"z": 1.4605817217,
				"element": "C" 
			},
			{
				"x": -0.0409489795,
				"y": -0.8559927102,
				"z": -0.6567056156,
				"element": "N" 
			},
			{
				"x": -1.3127102392,
				"y": -1.3215000867,
				"z": -1.2259884312,
				"element": "C" 
			},
			{
				"x": -1.3946026486,
				"y": -2.8508826189,
				"z": -1.2328525232,
				"element": "C" 
			},
			{
				"x": -0.1877429664,
				"y": -3.4639842495,
				"z": -1.9534875001,
				"element": "C" 
			},
			{
				"x": 1.1132728939,
				"y": -2.9369530382,
				"z": -1.3372596259,
				"element": "C" 
			},
			{
				"x": 1.147382284,
				"y": -1.40118133,
				"z": -1.3088459558,
				"element": "C" 
			},
			{
				"x": 0.3788692551,
				"y": 4.9392165741,
				"z": 4.997077656,
				"element": "H" 
			},
			{
				"x": 0.2290529884,
				"y": 6.0430304445,
				"z": 3.6146682348,
				"element": "H" 
			},
			{
				"x": 1.8573998698,
				"y": 5.5802793866,
				"z": 4.2086855469,
				"element": "H" 
			},
			{
				"x": 2.0529391395,
				"y": 2.4935819831,
				"z": 1.6890656175,
				"element": "H" 
			},
			{
				"x": 2.1590497198,
				"y": 0.5954255703,
				"z": 0.1399803512,
				"element": "H" 
			},
			{
				"x": -2.2085602628,
				"y": 2.0389669413,
				"z": 1.8132149828,
				"element": "H" 
			},
			{
				"x": -1.3987401463,
				"y": -0.9458846814,
				"z": -2.2600202808,
				"element": "H" 
			},
			{
				"x": -2.1177445865,
				"y": -0.8789620236,
				"z": -0.6436212136,
				"element": "H" 
			},
			{
				"x": -1.4313495931,
				"y": -3.2112976755,
				"z": -0.1970107122,
				"element": "H" 
			},
			{
				"x": -2.3315804255,
				"y": -3.1540599252,
				"z": -1.7143953614,
				"element": "H" 
			},
			{
				"x": -0.2233537071,
				"y": -3.193751291,
				"z": -3.0186147826,
				"element": "H" 
			},
			{
				"x": -0.2181680806,
				"y": -4.5583070266,
				"z": -1.9050984482,
				"element": "H" 
			},
			{
				"x": 1.2087640347,
				"y": -3.307758814,
				"z": -0.3088541059,
				"element": "H" 
			},
			{
				"x": 1.9858042294,
				"y": -3.2981740586,
				"z": -1.8942247066,
				"element": "H" 
			},
			{
				"x": 1.2198868965,
				"y": -1.0131196491,
				"z": -2.339366798,
				"element": "H" 
			},
			{
				"x": 2.0424548111,
				"y": -1.079013462,
				"z": -0.7787307214,
				"element": "H" 
			}
		],
		 "valence_orbital": [ 
			{
				"type": "occ",
				"energy": -0.29112,
				"method": "rhf"
			},
			{
				"type": "occ",
				"energy": -0.27903,
				"method": "rhf"
			},
			{
				"type": "occ",
				"energy": -0.26587,
				"method": "rhf"
			},
			{
				"type": "occ",
				"energy": -0.24867,
				"method": "rhf"
			},
			{
				"type": "occ",
				"energy": -0.20399,
				"method": "rhf"
			},
			{
				"type": "unocc",
				"energy": -0.02968,
				"method": "rhf"
			},
			{
				"type": "unocc",
				"energy": -0.01418,
				"method": "rhf"
			},
			{
				"type": "unocc",
				"energy": 0.06478,
				"method": "rhf"
			},
			{
				"type": "unocc",
				"energy": 0.08273,
				"method": "rhf"
			},
			{
				"type": "unocc",
				"energy": 0.10533,
				"method": "rhf"
			}
		],
		"cosmo_sigma_profile": { 
			"-0.025": 0.0,
			"-0.024": 0.0,
			"-0.023": 0.0,
			"-0.022": 0.0,
			"-0.021": 0.0,
			"-0.02": 0.0,
			"-0.019": 0.0,
			"-0.018": 0.0,
			"-0.017": 0.0,
			"-0.016": 0.0,
			"-0.015": 0.0,
			"-0.014": 0.0,
			"-0.013": 0.0,
			"-0.012": 0.0,
			"-0.011": 0.0,
			"-0.01": 0.0,
			"-0.009": 0.34486574844,
			"-0.008": 1.71198330564,
			"-0.007": 2.40901743007,
			"-0.006": 7.41213296446,
			"-0.005": 11.5441337302,
			"-0.004": 16.2112567783,
			"-0.003": 36.6396334525,
			"-0.002": 37.2011538978,
			"-0.001": 31.1840217414,
			"0.0": 26.7941585806,
			"0.001": 22.0148819566,
			"0.002": 17.6473805223,
			"0.003": 13.2209766992,
			"0.004": 8.48637323338,
			"0.005": 6.09765240916,
			"0.006": 5.62055629948,
			"0.007": 3.35624498722,
			"0.008": 3.16909247823,
			"0.009": 2.98300599981,
			"0.01": 2.94741640167,
			"0.011": 3.45341895624,
			"0.012": 4.08757899042,
			"0.013": 2.37269280689,
			"0.014": 0.0,
			"0.015": 0.0,
			"0.016": 0.0,
			"0.017": 0.0,
			"0.018": 0.0,
			"0.019": 0.0,
			"0.02": 0.0,
			"0.021": 0.0,
			"0.022": 0.0,
			"0.023": 0.0,
			"0.024": 0.0,
			"0.025": 0.0
		}
	}
}
