{
	 "smiles": "CC1=C(C=CC=C1)C1=NN=C(N)N1", 
	 "Tm": 493.15, 
	 "num_atms": 23, 
	 "gaussian": { 
		 "optdone": 1, 
		 "sigma_profile": "yes", 
		 "theory": "DFT", 
		 "functional": "B3LYP", 
		 "basiset": "6-31G**", 
		 "properties": { 
			 "R2extent": 2941.9936, 
			 "electric_dipole_moment_norm": 4.78246481012, 
			 "electric_quadrupole_moment_norm": 19.86101141, 
			 "total_energy": -567.982455036, 
			 "HOMO_LUMO_gap": 0.18162, 
			 "cosmo_polarized_energy": -21.76, 
			 "cosmo_cavitation_energy": 26.81, 
			 "cosmo_dispersion_energy": -20.08, 
			 "cosmo_repulsion_energy": 1.58, 
			 "cosmo_total_nonelectrostatic_energy": 8.32, 
			 "SMD_solvation_energy": 2.61 
		},
		"coords": [
			{
				"x": -2.0315565404,
				"y": 1.0540363072,
				"z": -0.1767418094,
				"element": "C" 
			},
			{
				"x": -1.8638973362,
				"y": -0.4431962773,
				"z": -0.0967206009,
				"element": "C" 
			},
			{
				"x": -0.7123677191,
				"y": -1.0610605206,
				"z": 0.4546948828,
				"element": "C" 
			},
			{
				"x": -0.6388767366,
				"y": -2.4656124332,
				"z": 0.497049441,
				"element": "C" 
			},
			{
				"x": -1.6621683575,
				"y": -3.2654228437,
				"z": -0.001982242,
				"element": "C" 
			},
			{
				"x": -2.7921549128,
				"y": -2.6629636686,
				"z": -0.5525349534,
				"element": "C" 
			},
			{
				"x": -2.8797541528,
				"y": -1.2718675698,
				"z": -0.5898611219,
				"element": "C" 
			},
			{
				"x": 0.4131855152,
				"y": -0.2798162934,
				"z": 0.9807386787,
				"element": "C" 
			},
			{
				"x": 0.40487976,
				"y": 0.960096135,
				"z": 1.4226088992,
				"element": "N" 
			},
			{
				"x": 1.6849049221,
				"y": 1.2919373239,
				"z": 1.8255941668,
				"element": "N" 
			},
			{
				"x": 2.4386926025,
				"y": 0.2340061926,
				"z": 1.6287198444,
				"element": "C" 
			},
			{
				"x": 3.7795528154,
				"y": 0.1063753667,
				"z": 1.96798951,
				"element": "N" 
			},
			{
				"x": 1.6992080388,
				"y": -0.7871821304,
				"z": 1.1013563123,
				"element": "N" 
			},
			{
				"x": -2.1020595465,
				"y": 1.5012409644,
				"z": 0.8182868412,
				"element": "H" 
			},
			{
				"x": -2.9318350207,
				"y": 1.304685793,
				"z": -0.7448201968,
				"element": "H" 
			},
			{
				"x": -1.1690036036,
				"y": 1.5316809875,
				"z": -0.650833368,
				"element": "H" 
			},
			{
				"x": 0.2196346311,
				"y": -2.9457361596,
				"z": 0.9595703294,
				"element": "H" 
			},
			{
				"x": -1.5797255914,
				"y": -4.346990692,
				"z": 0.0488239932,
				"element": "H" 
			},
			{
				"x": -3.6024576306,
				"y": -3.2693331836,
				"z": -0.9467435206,
				"element": "H" 
			},
			{
				"x": -3.762508323,
				"y": -0.8051386199,
				"z": -1.0190491222,
				"element": "H" 
			},
			{
				"x": 4.3720803427,
				"y": -0.2027489954,
				"z": 1.2044124705,
				"element": "H" 
			},
			{
				"x": 4.1198362507,
				"y": 0.9864117109,
				"z": 2.3395583947,
				"element": "H" 
			},
			{
				"x": 2.0219905929,
				"y": -1.7112013936,
				"z": 0.8620831712,
				"element": "H" 
			}
		],
		 "valence_orbital": [ 
			{
				"type": "occ",
				"energy": -0.29583,
				"method": "rhf"
			},
			{
				"type": "occ",
				"energy": -0.26718,
				"method": "rhf"
			},
			{
				"type": "occ",
				"energy": -0.24602,
				"method": "rhf"
			},
			{
				"type": "occ",
				"energy": -0.24373,
				"method": "rhf"
			},
			{
				"type": "occ",
				"energy": -0.20946,
				"method": "rhf"
			},
			{
				"type": "unocc",
				"energy": -0.02784,
				"method": "rhf"
			},
			{
				"type": "unocc",
				"energy": -0.00149,
				"method": "rhf"
			},
			{
				"type": "unocc",
				"energy": 0.04764,
				"method": "rhf"
			},
			{
				"type": "unocc",
				"energy": 0.05823,
				"method": "rhf"
			},
			{
				"type": "unocc",
				"energy": 0.07201,
				"method": "rhf"
			}
		],
		"cosmo_sigma_profile": { 
			"-0.025": 0.0,
			"-0.024": 0.0,
			"-0.023": 0.0,
			"-0.022": 0.0,
			"-0.021": 0.0,
			"-0.02": 0.0,
			"-0.019": 0.0,
			"-0.018": 0.0296897440383,
			"-0.017": 0.953490405093,
			"-0.016": 1.5035067987,
			"-0.015": 1.58736070795,
			"-0.014": 2.97680291628,
			"-0.013": 3.76322991847,
			"-0.012": 4.84453322588,
			"-0.011": 3.35539113776,
			"-0.01": 3.31056841373,
			"-0.009": 2.95844188248,
			"-0.008": 3.04140537472,
			"-0.007": 3.09144714341,
			"-0.006": 6.46150082408,
			"-0.005": 9.57712861526,
			"-0.004": 13.3216147367,
			"-0.003": 12.5461810488,
			"-0.002": 11.4030117018,
			"-0.001": 12.1644870858,
			"0.0": 17.0681687915,
			"0.001": 16.8844768024,
			"0.002": 11.7787052056,
			"0.003": 12.1557962852,
			"0.004": 12.2614831047,
			"0.005": 12.47095455,
			"0.006": 4.6710517648,
			"0.007": 1.95009745382,
			"0.008": 2.78106614406,
			"0.009": 3.11163287657,
			"0.01": 2.68582691782,
			"0.011": 2.68321228262,
			"0.012": 2.92437255491,
			"0.013": 2.7702520984,
			"0.014": 3.3231802026,
			"0.015": 3.85590787629,
			"0.016": 1.53103329109,
			"0.017": 1.23118388912,
			"0.018": 0.38531528057,
			"0.019": 0.0,
			"0.02": 0.0,
			"0.021": 0.0,
			"0.022": 0.0,
			"0.023": 0.0,
			"0.024": 0.0,
			"0.025": 0.0
		}
	}
}
