{
	 "smiles": "CCCN1CC2=C(C1)C=C(N)C=C2", 
	 "Tm": 322.15, 
	 "num_atms": 29, 
	 "gaussian": { 
		 "optdone": 1, 
		 "sigma_profile": "yes", 
		 "theory": "DFT", 
		 "functional": "B3LYP", 
		 "basiset": "6-31G**", 
		 "properties": { 
			 "R2extent": 3806.5229, 
			 "electric_dipole_moment_norm": 1.93671000927, 
			 "electric_quadrupole_moment_norm": 13.8169203001, 
			 "total_energy": -538.312591831, 
			 "HOMO_LUMO_gap": 0.1904, 
			 "cosmo_polarized_energy": -8.62, 
			 "cosmo_cavitation_energy": 30.24, 
			 "cosmo_dispersion_energy": -22.12, 
			 "cosmo_repulsion_energy": 1.77, 
			 "cosmo_total_nonelectrostatic_energy": 9.88, 
			 "SMD_solvation_energy": 2.79 
		},
		"coords": [
			{
				"x": -0.7081175472,
				"y": -2.9339456121,
				"z": 0.1802851494,
				"element": "C" 
			},
			{
				"x": 0.7535198146,
				"y": -3.1152434937,
				"z": 0.6020918446,
				"element": "C" 
			},
			{
				"x": 1.1895143172,
				"y": -2.3149141262,
				"z": 1.8504945652,
				"element": "C" 
			},
			{
				"x": 1.1318619763,
				"y": -0.8687719905,
				"z": 1.7931748837,
				"element": "N" 
			},
			{
				"x": -0.0885707868,
				"y": -0.1517486725,
				"z": 2.1686540518,
				"element": "C" 
			},
			{
				"x": 0.1938327114,
				"y": 1.2464537664,
				"z": 1.6771823939,
				"element": "C" 
			},
			{
				"x": 1.3291482968,
				"y": 1.2455063471,
				"z": 0.8630387998,
				"element": "C" 
			},
			{
				"x": 1.8730198647,
				"y": -0.1582886973,
				"z": 0.7559351017,
				"element": "C" 
			},
			{
				"x": 1.7912115902,
				"y": 2.4101628578,
				"z": 0.2622286569,
				"element": "C" 
			},
			{
				"x": 1.1032547874,
				"y": 3.6174485286,
				"z": 0.4820349569,
				"element": "C" 
			},
			{
				"x": 1.5845653796,
				"y": 4.817172144,
				"z": -0.0569741785,
				"element": "N" 
			},
			{
				"x": -0.040836327,
				"y": 3.614066863,
				"z": 1.3022984558,
				"element": "C" 
			},
			{
				"x": -0.4950477504,
				"y": 2.4362315416,
				"z": 1.8965278814,
				"element": "C" 
			},
			{
				"x": -0.9123711851,
				"y": -1.9068184168,
				"z": -0.1372406222,
				"element": "H" 
			},
			{
				"x": -1.3931564872,
				"y": -3.1702785427,
				"z": 1.0029702842,
				"element": "H" 
			},
			{
				"x": -0.9595576987,
				"y": -3.5919983869,
				"z": -0.6585614813,
				"element": "H" 
			},
			{
				"x": 0.9435292404,
				"y": -4.1760011101,
				"z": 0.8157925435,
				"element": "H" 
			},
			{
				"x": 1.4100775943,
				"y": -2.8612143334,
				"z": -0.2402961665,
				"element": "H" 
			},
			{
				"x": 2.2247200906,
				"y": -2.608702729,
				"z": 2.0848851795,
				"element": "H" 
			},
			{
				"x": 0.5834014319,
				"y": -2.6320199442,
				"z": 2.7094487493,
				"element": "H" 
			},
			{
				"x": -1.0091834956,
				"y": -0.5507576053,
				"z": 1.703960816,
				"element": "H" 
			},
			{
				"x": -0.2439906175,
				"y": -0.1996043607,
				"z": 3.2579423805,
				"element": "H" 
			},
			{
				"x": 1.7103774837,
				"y": -0.553027966,
				"z": -0.2667813655,
				"element": "H" 
			},
			{
				"x": 2.9577576834,
				"y": -0.2140206269,
				"z": 0.9396768375,
				"element": "H" 
			},
			{
				"x": 2.6794751062,
				"y": 2.4016383846,
				"z": -0.3661643336,
				"element": "H" 
			},
			{
				"x": 2.1458481562,
				"y": 4.7096840874,
				"z": -0.8911438349,
				"element": "H" 
			},
			{
				"x": 0.8849276661,
				"y": 5.5375928836,
				"z": -0.1745966406,
				"element": "H" 
			},
			{
				"x": -0.5689909452,
				"y": 4.5480962554,
				"z": 1.4786985738,
				"element": "H" 
			},
			{
				"x": -1.3819203504,
				"y": 2.4610029547,
				"z": 2.5250365179,
				"element": "H" 
			}
		],
		 "valence_orbital": [ 
			{
				"type": "occ",
				"energy": -0.32125,
				"method": "rhf"
			},
			{
				"type": "occ",
				"energy": -0.29233,
				"method": "rhf"
			},
			{
				"type": "occ",
				"energy": -0.23573,
				"method": "rhf"
			},
			{
				"type": "occ",
				"energy": -0.1942,
				"method": "rhf"
			},
			{
				"type": "occ",
				"energy": -0.18368,
				"method": "rhf"
			},
			{
				"type": "unocc",
				"energy": 0.00672,
				"method": "rhf"
			},
			{
				"type": "unocc",
				"energy": 0.02653,
				"method": "rhf"
			},
			{
				"type": "unocc",
				"energy": 0.08443,
				"method": "rhf"
			},
			{
				"type": "unocc",
				"energy": 0.08746,
				"method": "rhf"
			},
			{
				"type": "unocc",
				"energy": 0.11068,
				"method": "rhf"
			}
		],
		"cosmo_sigma_profile": { 
			"-0.025": 0.0,
			"-0.024": 0.0,
			"-0.023": 0.0,
			"-0.022": 0.0,
			"-0.021": 0.0,
			"-0.02": 0.0,
			"-0.019": 0.0,
			"-0.018": 0.0,
			"-0.017": 0.0,
			"-0.016": 0.0,
			"-0.015": 0.0,
			"-0.014": 0.0,
			"-0.013": 0.00600268595843,
			"-0.012": 1.51748511824,
			"-0.011": 3.02746413091,
			"-0.01": 2.67266898989,
			"-0.009": 2.85719073533,
			"-0.008": 3.08165195918,
			"-0.007": 2.70299578428,
			"-0.006": 3.88687109267,
			"-0.005": 6.34482616372,
			"-0.004": 6.78029867678,
			"-0.003": 15.5001869689,
			"-0.002": 34.9478495468,
			"-0.001": 37.3153501208,
			"0.0": 30.4159572079,
			"0.001": 19.8848720093,
			"0.002": 12.6993991626,
			"0.003": 6.7018201984,
			"0.004": 6.90525996215,
			"0.005": 7.6461875629,
			"0.006": 9.81493312217,
			"0.007": 10.1235051047,
			"0.008": 2.3766474791,
			"0.009": 2.02607231737,
			"0.01": 1.51686319184,
			"0.011": 1.64591662183,
			"0.012": 1.20785185087,
			"0.013": 0.637566064799,
			"0.014": 0.930933036829,
			"0.015": 0.881878779802,
			"0.016": 0.0,
			"0.017": 0.0,
			"0.018": 0.0,
			"0.019": 0.0,
			"0.02": 0.0,
			"0.021": 0.0,
			"0.022": 0.0,
			"0.023": 0.0,
			"0.024": 0.0,
			"0.025": 0.0
		}
	}
}
