{
	 "smiles": "OC1=CC=C(Br)C=C1C(=O)CC(=O)C1=CC=CC=C1", 
	 "Tm": 375.15, 
	 "num_atms": 30, 
	 "gaussian": { 
		 "optdone": 1, 
		 "sigma_profile": "yes", 
		 "theory": "DFT", 
		 "functional": "B3LYP", 
		 "basiset": "6-31G**", 
		 "properties": { 
			 "R2extent": 8705.9283, 
			 "electric_dipole_moment_norm": 4.16368919229, 
			 "electric_quadrupole_moment_norm": 16.6951431887, 
			 "total_energy": -3375.30907569, 
			 "HOMO_LUMO_gap": 0.1525, 
			 "cosmo_polarized_energy": -14.04, 
			 "cosmo_cavitation_energy": 37.35, 
			 "cosmo_dispersion_energy": -27.0, 
			 "cosmo_repulsion_energy": 2.07, 
			 "cosmo_total_nonelectrostatic_energy": 12.42, 
			 "SMD_solvation_energy": 6.16 
		},
		"coords": [
			{
				"x": -4.2501977177,
				"y": -0.5732065821,
				"z": -0.5101294468,
				"element": "O" 
			},
			{
				"x": -3.4134802412,
				"y": 0.4241336575,
				"z": -0.8088394046,
				"element": "C" 
			},
			{
				"x": -3.9408229365,
				"y": 1.5625639224,
				"z": -1.445135757,
				"element": "C" 
			},
			{
				"x": -3.12104614,
				"y": 2.6278794382,
				"z": -1.776575213,
				"element": "C" 
			},
			{
				"x": -1.7513335619,
				"y": 2.5778649749,
				"z": -1.476457093,
				"element": "C" 
			},
			{
				"x": -0.6334185725,
				"y": 4.0585495635,
				"z": -1.937184672,
				"element": "Br" 
			},
			{
				"x": -1.2084107729,
				"y": 1.4707396912,
				"z": -0.8529916099,
				"element": "C" 
			},
			{
				"x": -2.0216839083,
				"y": 0.3699120636,
				"z": -0.5109759798,
				"element": "C" 
			},
			{
				"x": -1.4792272897,
				"y": -0.82953024,
				"z": 0.1394637546,
				"element": "C" 
			},
			{
				"x": -2.2127482424,
				"y": -1.7823099772,
				"z": 0.4419729166,
				"element": "O" 
			},
			{
				"x": 0.008007874,
				"y": -0.9591216401,
				"z": 0.4344276427,
				"element": "C" 
			},
			{
				"x": 0.4291746735,
				"y": -0.185813315,
				"z": 1.6926118908,
				"element": "C" 
			},
			{
				"x": -0.3851611924,
				"y": 0.4845131352,
				"z": 2.3062645485,
				"element": "O" 
			},
			{
				"x": 1.8531451293,
				"y": -0.284406935,
				"z": 2.1384592605,
				"element": "C" 
			},
			{
				"x": 2.2294308613,
				"y": 0.4312686354,
				"z": 3.2872763171,
				"element": "C" 
			},
			{
				"x": 3.5403797026,
				"y": 0.3811357014,
				"z": 3.7495202939,
				"element": "C" 
			},
			{
				"x": 4.4924579813,
				"y": -0.3852707663,
				"z": 3.0699234653,
				"element": "C" 
			},
			{
				"x": 4.1285234353,
				"y": -1.1008969134,
				"z": 1.9275919318,
				"element": "C" 
			},
			{
				"x": 2.8147482731,
				"y": -1.0516840465,
				"z": 1.4626546417,
				"element": "C" 
			},
			{
				"x": -3.703439227,
				"y": -1.2719703881,
				"z": -0.0628162739,
				"element": "H" 
			},
			{
				"x": -5.0027466483,
				"y": 1.5814206369,
				"z": -1.6647917183,
				"element": "H" 
			},
			{
				"x": -3.5342321143,
				"y": 3.5025334555,
				"z": -2.2666431446,
				"element": "H" 
			},
			{
				"x": -0.1511832726,
				"y": 1.4604148802,
				"z": -0.6200290946,
				"element": "H" 
			},
			{
				"x": 0.2054916135,
				"y": -2.0247408843,
				"z": 0.5874537096,
				"element": "H" 
			},
			{
				"x": 0.6159280512,
				"y": -0.6334612391,
				"z": -0.4173193048,
				"element": "H" 
			},
			{
				"x": 1.4725702749,
				"y": 1.0180825666,
				"z": 3.7966464287,
				"element": "H" 
			},
			{
				"x": 3.8234432267,
				"y": 0.937390717,
				"z": 4.6381847626,
				"element": "H" 
			},
			{
				"x": 5.5162510776,
				"y": -0.4247682383,
				"z": 3.4307178771,
				"element": "H" 
			},
			{
				"x": 4.866642376,
				"y": -1.6971843147,
				"z": 1.3997189648,
				"element": "H" 
			},
			{
				"x": 2.5469372873,
				"y": -1.6153375596,
				"z": 0.574800306,
				"element": "H" 
			}
		],
		 "valence_orbital": [ 
			{
				"type": "occ",
				"energy": -0.27543,
				"method": "rhf"
			},
			{
				"type": "occ",
				"energy": -0.27217,
				"method": "rhf"
			},
			{
				"type": "occ",
				"energy": -0.26883,
				"method": "rhf"
			},
			{
				"type": "occ",
				"energy": -0.26329,
				"method": "rhf"
			},
			{
				"type": "occ",
				"energy": -0.22598,
				"method": "rhf"
			},
			{
				"type": "unocc",
				"energy": -0.07348,
				"method": "rhf"
			},
			{
				"type": "unocc",
				"energy": -0.06938,
				"method": "rhf"
			},
			{
				"type": "unocc",
				"energy": -0.01996,
				"method": "rhf"
			},
			{
				"type": "unocc",
				"energy": -0.00864,
				"method": "rhf"
			},
			{
				"type": "unocc",
				"energy": 0.00366,
				"method": "rhf"
			}
		],
		"cosmo_sigma_profile": { 
			"-0.025": 0.0,
			"-0.024": 0.0,
			"-0.023": 0.0,
			"-0.022": 0.0,
			"-0.021": 0.0,
			"-0.02": 0.0,
			"-0.019": 0.0,
			"-0.018": 0.0,
			"-0.017": 0.0,
			"-0.016": 0.0,
			"-0.015": 0.0,
			"-0.014": 0.0,
			"-0.013": 0.0,
			"-0.012": 0.0051881220171,
			"-0.011": 0.675670272946,
			"-0.01": 1.38886924667,
			"-0.009": 2.38823982256,
			"-0.008": 8.53194651542,
			"-0.007": 14.509584377,
			"-0.006": 17.6010424963,
			"-0.005": 18.72672193,
			"-0.004": 20.339956676,
			"-0.003": 17.1558051322,
			"-0.002": 15.5684010543,
			"-0.001": 17.1347078864,
			"0.0": 19.7027354651,
			"0.001": 29.3064923134,
			"0.002": 28.934303386,
			"0.003": 24.1089913413,
			"0.004": 25.7990794711,
			"0.005": 10.1048830442,
			"0.006": 4.28244612738,
			"0.007": 5.23231918966,
			"0.008": 4.95980242322,
			"0.009": 4.16869170566,
			"0.01": 5.86875626224,
			"0.011": 6.03701545717,
			"0.012": 0.906140721977,
			"0.013": 0.0,
			"0.014": 0.0,
			"0.015": 0.0,
			"0.016": 0.0,
			"0.017": 0.0,
			"0.018": 0.0,
			"0.019": 0.0,
			"0.02": 0.0,
			"0.021": 0.0,
			"0.022": 0.0,
			"0.023": 0.0,
			"0.024": 0.0,
			"0.025": 0.0
		}
	}
}
