{
	 "smiles": "CC1=CC=CC2=C1CC(N(C2)C(=O)OC(C)(C)C)C(O)=O", 
	 "Tm": 416.15, 
	 "num_atms": 42, 
	 "gaussian": { 
		 "optdone": 1, 
		 "sigma_profile": "yes", 
		 "theory": "DFT", 
		 "functional": "B3LYP", 
		 "basiset": "6-31G**", 
		 "properties": { 
			 "R2extent": 6343.2787, 
			 "electric_dipole_moment_norm": 5.95024402441, 
			 "electric_quadrupole_moment_norm": 20.5953018342, 
			 "total_energy": -978.061917395, 
			 "HOMO_LUMO_gap": 0.23339, 
			 "cosmo_polarized_energy": -18.08, 
			 "cosmo_cavitation_energy": 42.67, 
			 "cosmo_dispersion_energy": -28.5, 
			 "cosmo_repulsion_energy": 2.19, 
			 "cosmo_total_nonelectrostatic_energy": 16.36, 
			 "SMD_solvation_energy": 7.89 
		},
		"coords": [
			{
				"x": -2.7687146865,
				"y": 3.0549924914,
				"z": -1.2450622518,
				"element": "C" 
			},
			{
				"x": -2.6805771057,
				"y": 1.5532835536,
				"z": -1.1033401839,
				"element": "C" 
			},
			{
				"x": -3.8440961526,
				"y": 0.7988912009,
				"z": -0.9267105338,
				"element": "C" 
			},
			{
				"x": -3.7909861914,
				"y": -0.5885509978,
				"z": -0.7884668778,
				"element": "C" 
			},
			{
				"x": -2.5596457155,
				"y": -1.2339025892,
				"z": -0.8164965808,
				"element": "C" 
			},
			{
				"x": -1.3793489739,
				"y": -0.5020847785,
				"z": -0.9917193297,
				"element": "C" 
			},
			{
				"x": -1.4306050196,
				"y": 0.8957709173,
				"z": -1.1478930706,
				"element": "C" 
			},
			{
				"x": -0.159087842,
				"y": 1.7056898624,
				"z": -1.3498702736,
				"element": "C" 
			},
			{
				"x": 1.0212057884,
				"y": 0.8014819429,
				"z": -1.6957515121,
				"element": "C" 
			},
			{
				"x": 1.0892245427,
				"y": -0.3536285761,
				"z": -0.7815865711,
				"element": "N" 
			},
			{
				"x": -0.05213234,
				"y": -1.2514630325,
				"z": -1.0147444601,
				"element": "C" 
			},
			{
				"x": 1.4774771906,
				"y": -0.0570771581,
				"z": 0.5298718144,
				"element": "C" 
			},
			{
				"x": 2.0458656761,
				"y": 0.9816169633,
				"z": 0.823661381,
				"element": "O" 
			},
			{
				"x": 1.2004285049,
				"y": -1.0734751247,
				"z": 1.3631651672,
				"element": "O" 
			},
			{
				"x": 1.5737270927,
				"y": -1.0101808546,
				"z": 2.7943515535,
				"element": "C" 
			},
			{
				"x": 0.8510840009,
				"y": 0.1590113178,
				"z": 3.4695623998,
				"element": "C" 
			},
			{
				"x": 3.0961817907,
				"y": -0.9157028819,
				"z": 2.9286405903,
				"element": "C" 
			},
			{
				"x": 1.0590514781,
				"y": -2.349957192,
				"z": 3.3250771455,
				"element": "C" 
			},
			{
				"x": 2.3539922931,
				"y": 1.5425172412,
				"z": -1.850601896,
				"element": "C" 
			},
			{
				"x": 3.4465054956,
				"y": 0.7480485095,
				"z": -1.8371012462,
				"element": "O" 
			},
			{
				"x": 2.4242298103,
				"y": 2.7189379477,
				"z": -2.1012489779,
				"element": "O" 
			},
			{
				"x": -3.7993585477,
				"y": 3.3985664261,
				"z": -1.1257652293,
				"element": "H" 
			},
			{
				"x": -2.1541330526,
				"y": 3.5706688121,
				"z": -0.4981901985,
				"element": "H" 
			},
			{
				"x": -2.4176837644,
				"y": 3.3930748302,
				"z": -2.2277103915,
				"element": "H" 
			},
			{
				"x": -4.8041242637,
				"y": 1.3077115393,
				"z": -0.8953700509,
				"element": "H" 
			},
			{
				"x": -4.7048739954,
				"y": -1.1585277588,
				"z": -0.6479193,
				"element": "H" 
			},
			{
				"x": -2.5067490993,
				"y": -2.3134920195,
				"z": -0.6941695135,
				"element": "H" 
			},
			{
				"x": -0.2845797415,
				"y": 2.440982046,
				"z": -2.1497330534,
				"element": "H" 
			},
			{
				"x": 0.0875497243,
				"y": 2.2806828382,
				"z": -0.4490271356,
				"element": "H" 
			},
			{
				"x": 0.841134529,
				"y": 0.3609926687,
				"z": -2.6874085948,
				"element": "H" 
			},
			{
				"x": 0.0986404775,
				"y": -1.7334875096,
				"z": -1.9897612579,
				"element": "H" 
			},
			{
				"x": -0.0410581273,
				"y": -2.0375865356,
				"z": -0.2612063916,
				"element": "H" 
			},
			{
				"x": 1.2074499183,
				"y": 1.1162153196,
				"z": 3.0887612384,
				"element": "H" 
			},
			{
				"x": -0.2280514583,
				"y": 0.0874377693,
				"z": 3.3015874401,
				"element": "H" 
			},
			{
				"x": 1.0297696827,
				"y": 0.1212238555,
				"z": 4.5488874596,
				"element": "H" 
			},
			{
				"x": 3.3728681901,
				"y": -0.9842666692,
				"z": 3.9855472851,
				"element": "H" 
			},
			{
				"x": 3.5779457613,
				"y": -1.7436627867,
				"z": 2.3989145716,
				"element": "H" 
			},
			{
				"x": 3.4691247977,
				"y": 0.0275938527,
				"z": 2.5290931835,
				"element": "H" 
			},
			{
				"x": -0.022993015,
				"y": -2.4316009039,
				"z": 3.1869599782,
				"element": "H" 
			},
			{
				"x": 1.2785733349,
				"y": -2.4369600609,
				"z": 4.3931172477,
				"element": "H" 
			},
			{
				"x": 1.5395173001,
				"y": -3.1834607017,
				"z": 2.8045160426,
				"element": "H" 
			},
			{
				"x": 3.1724517122,
				"y": -0.1395237744,
				"z": -1.5518596162,
				"element": "H" 
			}
		],
		 "valence_orbital": [ 
			{
				"type": "occ",
				"energy": -0.28288,
				"method": "rhf"
			},
			{
				"type": "occ",
				"energy": -0.26958,
				"method": "rhf"
			},
			{
				"type": "occ",
				"energy": -0.25599,
				"method": "rhf"
			},
			{
				"type": "occ",
				"energy": -0.2448,
				"method": "rhf"
			},
			{
				"type": "occ",
				"energy": -0.24122,
				"method": "rhf"
			},
			{
				"type": "unocc",
				"energy": -0.00783,
				"method": "rhf"
			},
			{
				"type": "unocc",
				"energy": -0.00541,
				"method": "rhf"
			},
			{
				"type": "unocc",
				"energy": 0.02082,
				"method": "rhf"
			},
			{
				"type": "unocc",
				"energy": 0.02669,
				"method": "rhf"
			},
			{
				"type": "unocc",
				"energy": 0.07167,
				"method": "rhf"
			}
		],
		"cosmo_sigma_profile": { 
			"-0.025": 0.0,
			"-0.024": 0.0,
			"-0.023": 0.0,
			"-0.022": 0.0,
			"-0.021": 0.0,
			"-0.02": 0.0,
			"-0.019": 0.0,
			"-0.018": 0.0,
			"-0.017": 0.0,
			"-0.016": 0.292721300874,
			"-0.015": 0.541000406663,
			"-0.014": 0.771929076527,
			"-0.013": 0.360999823048,
			"-0.012": 1.00728814165,
			"-0.011": 1.21052664358,
			"-0.01": 1.19474904167,
			"-0.009": 4.16049880866,
			"-0.008": 4.30376928035,
			"-0.007": 3.52937519084,
			"-0.006": 7.25593687049,
			"-0.005": 17.7495845035,
			"-0.004": 34.8290354621,
			"-0.003": 32.0687115137,
			"-0.002": 31.9798566965,
			"-0.001": 32.9162419946,
			"0.0": 38.1055410313,
			"0.001": 24.7274294079,
			"0.002": 14.2108894073,
			"0.003": 10.9885275972,
			"0.004": 11.432618497,
			"0.005": 10.7301694348,
			"0.006": 10.7682399571,
			"0.007": 6.11665283802,
			"0.008": 5.49680783721,
			"0.009": 6.29175206872,
			"0.01": 7.49961312475,
			"0.011": 6.20373237637,
			"0.012": 6.22758898983,
			"0.013": 1.20773495914,
			"0.014": 0.010293010636,
			"0.015": 0.0,
			"0.016": 0.0,
			"0.017": 0.0,
			"0.018": 0.0,
			"0.019": 0.0,
			"0.02": 0.0,
			"0.021": 0.0,
			"0.022": 0.0,
			"0.023": 0.0,
			"0.024": 0.0,
			"0.025": 0.0
		}
	}
}
