{
	 "smiles": "CC1=C(C=C(C=C1)C(O)=O)S(C)(=O)=O", 
	 "Tm": 483.15, 
	 "num_atms": 24, 
	 "gaussian": { 
		 "optdone": 1, 
		 "sigma_profile": "yes", 
		 "theory": "DFT", 
		 "functional": "B3LYP", 
		 "basiset": "6-31G**", 
		 "properties": { 
			 "R2extent": 3413.8738, 
			 "electric_dipole_moment_norm": 4.69939195322, 
			 "electric_quadrupole_moment_norm": 23.5328743595, 
			 "total_energy": -1048.01604995, 
			 "HOMO_LUMO_gap": 0.20747, 
			 "cosmo_polarized_energy": -22.18, 
			 "cosmo_cavitation_energy": 29.09, 
			 "cosmo_dispersion_energy": -21.59, 
			 "cosmo_repulsion_energy": 1.63, 
			 "cosmo_total_nonelectrostatic_energy": 9.14, 
			 "SMD_solvation_energy": 6.09 
		},
		"coords": [
			{
				"x": 0.3239030795,
				"y": -2.8080578636,
				"z": -1.0338656504,
				"element": "C" 
			},
			{
				"x": 0.8394736586,
				"y": -1.4684995029,
				"z": -0.565365482,
				"element": "C" 
			},
			{
				"x": 0.0127634475,
				"y": -0.392713292,
				"z": -0.1809386621,
				"element": "C" 
			},
			{
				"x": 0.5431254942,
				"y": 0.8149664995,
				"z": 0.2752307535,
				"element": "C" 
			},
			{
				"x": 1.9265815889,
				"y": 0.9968409553,
				"z": 0.3508406018,
				"element": "C" 
			},
			{
				"x": 2.7645066092,
				"y": -0.0467146314,
				"z": -0.059005432,
				"element": "C" 
			},
			{
				"x": 2.2253558566,
				"y": -1.2514263664,
				"z": -0.4950838264,
				"element": "C" 
			},
			{
				"x": 2.5664399335,
				"y": 2.2725239084,
				"z": 0.815522505,
				"element": "C" 
			},
			{
				"x": 1.7963840379,
				"y": 3.1230867725,
				"z": 1.5391110462,
				"element": "O" 
			},
			{
				"x": 3.7151473021,
				"y": 2.5542185913,
				"z": 0.5669798359,
				"element": "O" 
			},
			{
				"x": -1.7994408371,
				"y": -0.4792249851,
				"z": -0.1957238573,
				"element": "S" 
			},
			{
				"x": -2.2423536517,
				"y": -0.3504932231,
				"z": -1.9433178088,
				"element": "C" 
			},
			{
				"x": -2.2236053825,
				"y": -1.8022677075,
				"z": 0.2867169147,
				"element": "O" 
			},
			{
				"x": -2.2905069873,
				"y": 0.7430806988,
				"z": 0.4621279977,
				"element": "O" 
			},
			{
				"x": -0.2001444769,
				"y": -2.7278268344,
				"z": -1.9935017223,
				"element": "H" 
			},
			{
				"x": 1.1545272285,
				"y": -3.5031751565,
				"z": -1.1743029185,
				"element": "H" 
			},
			{
				"x": -0.385518613,
				"y": -3.2311352734,
				"z": -0.3204044848,
				"element": "H" 
			},
			{
				"x": -0.1591955764,
				"y": 1.5983277324,
				"z": 0.543947964,
				"element": "H" 
			},
			{
				"x": 3.8377608584,
				"y": 0.105986947,
				"z": -0.0211808112,
				"element": "H" 
			},
			{
				"x": 2.8915908598,
				"y": -2.0577156395,
				"z": -0.78822329,
				"element": "H" 
			},
			{
				"x": 0.9608184486,
				"y": 2.7053701811,
				"z": 1.7906286975,
				"element": "H" 
			},
			{
				"x": -1.8229695047,
				"y": -1.190830785,
				"z": -2.4970035726,
				"element": "H" 
			},
			{
				"x": -3.3333584332,
				"y": -0.3837393759,
				"z": -1.9779984793,
				"element": "H" 
			},
			{
				"x": -1.8785849403,
				"y": 0.6017183505,
				"z": -2.3313903187,
				"element": "H" 
			}
		],
		 "valence_orbital": [ 
			{
				"type": "occ",
				"energy": -0.30886,
				"method": "rhf"
			},
			{
				"type": "occ",
				"energy": -0.30506,
				"method": "rhf"
			},
			{
				"type": "occ",
				"energy": -0.2898,
				"method": "rhf"
			},
			{
				"type": "occ",
				"energy": -0.2854,
				"method": "rhf"
			},
			{
				"type": "occ",
				"energy": -0.27645,
				"method": "rhf"
			},
			{
				"type": "unocc",
				"energy": -0.06898,
				"method": "rhf"
			},
			{
				"type": "unocc",
				"energy": -0.05136,
				"method": "rhf"
			},
			{
				"type": "unocc",
				"energy": 0.02669,
				"method": "rhf"
			},
			{
				"type": "unocc",
				"energy": 0.04585,
				"method": "rhf"
			},
			{
				"type": "unocc",
				"energy": 0.05541,
				"method": "rhf"
			}
		],
		"cosmo_sigma_profile": { 
			"-0.025": 0.0,
			"-0.024": 0.0,
			"-0.023": 0.0,
			"-0.022": 0.0,
			"-0.021": 0.0,
			"-0.02": 0.0525590242353,
			"-0.019": 0.617726732722,
			"-0.018": 0.737357300294,
			"-0.017": 1.48205850542,
			"-0.016": 0.664390846027,
			"-0.015": 1.12128917632,
			"-0.014": 0.832201929692,
			"-0.013": 1.13028150666,
			"-0.012": 0.674898332374,
			"-0.011": 1.35620141851,
			"-0.01": 1.06712582547,
			"-0.009": 5.87919618037,
			"-0.008": 8.10904155617,
			"-0.007": 12.3354353311,
			"-0.006": 13.0876079674,
			"-0.005": 13.7047288943,
			"-0.004": 15.8439757681,
			"-0.003": 14.3955285391,
			"-0.002": 14.2670518534,
			"-0.001": 17.0667512797,
			"0.0": 14.3853577291,
			"0.001": 15.3605631499,
			"0.002": 8.03653385426,
			"0.003": 4.51322602552,
			"0.004": 4.24204918942,
			"0.005": 4.71581729818,
			"0.006": 4.67429833995,
			"0.007": 4.25295349588,
			"0.008": 5.75780341396,
			"0.009": 7.55127886715,
			"0.01": 9.73018400856,
			"0.011": 13.0381061536,
			"0.012": 10.2775531368,
			"0.013": 1.19812799029,
			"0.014": 0.0,
			"0.015": 0.0,
			"0.016": 0.0,
			"0.017": 0.0,
			"0.018": 0.0,
			"0.019": 0.0,
			"0.02": 0.0,
			"0.021": 0.0,
			"0.022": 0.0,
			"0.023": 0.0,
			"0.024": 0.0,
			"0.025": 0.0
		}
	}
}
