{
	 "smiles": "O=C1CC2OCC=C3CN4CC[C@@]56[C@@H]4C[C@@H]3[C@@H]2C5N1C1=C6C=CC=C1", 
	 "Tm": 560.15, 
	 "num_atms": 47, 
	 "gaussian": { 
		 "optdone": 1, 
		 "sigma_profile": "yes", 
		 "theory": "DFT", 
		 "functional": "B3LYP", 
		 "basiset": "6-31G**", 
		 "properties": { 
			 "R2extent": 7187.7351, 
			 "electric_dipole_moment_norm": 3.86580104247, 
			 "electric_quadrupole_moment_norm": 18.624619318, 
			 "total_energy": -1073.39642804, 
			 "HOMO_LUMO_gap": 0.20133, 
			 "cosmo_polarized_energy": -14.6, 
			 "cosmo_cavitation_energy": 41.43, 
			 "cosmo_dispersion_energy": -30.59, 
			 "cosmo_repulsion_energy": 2.19, 
			 "cosmo_total_nonelectrostatic_energy": 13.03, 
			 "SMD_solvation_energy": 2.67 
		},
		"coords": [
			{
				"x": 3.6883017829,
				"y": -2.4436458462,
				"z": 0.2831135016,
				"element": "O" 
			},
			{
				"x": 2.9880223389,
				"y": -1.731599729,
				"z": -0.4237538284,
				"element": "C" 
			},
			{
				"x": 3.5931497968,
				"y": -0.6734304182,
				"z": -1.3713183025,
				"element": "C" 
			},
			{
				"x": 2.6621262041,
				"y": 0.5271718468,
				"z": -1.5874695765,
				"element": "C" 
			},
			{
				"x": 3.2136404331,
				"y": 1.4970550073,
				"z": -2.4714340231,
				"element": "O" 
			},
			{
				"x": 2.8740449433,
				"y": 2.8383492785,
				"z": -2.1185670644,
				"element": "C" 
			},
			{
				"x": 1.4599716665,
				"y": 3.1035363739,
				"z": -1.6364829708,
				"element": "C" 
			},
			{
				"x": 0.3536485171,
				"y": 2.3610883782,
				"z": -1.7935574673,
				"element": "C" 
			},
			{
				"x": -0.9772293479,
				"y": 2.7284864371,
				"z": -1.1519175021,
				"element": "C" 
			},
			{
				"x": -1.6206910355,
				"y": 1.6365843138,
				"z": -0.3787217597,
				"element": "N" 
			},
			{
				"x": -1.091334934,
				"y": 1.4853116238,
				"z": 0.9799090852,
				"element": "C" 
			},
			{
				"x": 0.1473045811,
				"y": 0.591100353,
				"z": 0.8425079877,
				"element": "C" 
			},
			{
				"x": -0.32471564,
				"y": -0.4670842315,
				"z": -0.2137068126,
				"element": "C" 
			},
			{
				"x": -1.4820024109,
				"y": 0.2862400134,
				"z": -0.9952956908,
				"element": "C" 
			},
			{
				"x": -1.1226242074,
				"y": 0.4503823345,
				"z": -2.4858259904,
				"element": "C" 
			},
			{
				"x": 0.2948917061,
				"y": 1.0703197836,
				"z": -2.6053039993,
				"element": "C" 
			},
			{
				"x": 1.3556243088,
				"y": 0.0077333471,
				"z": -2.1785618722,
				"element": "C" 
			},
			{
				"x": 0.7085540834,
				"y": -0.986374322,
				"z": -1.2348757526,
				"element": "C" 
			},
			{
				"x": 1.6117241031,
				"y": -1.8049540136,
				"z": -0.4211274015,
				"element": "N" 
			},
			{
				"x": 0.7520965785,
				"y": -2.4688260257,
				"z": 0.4981160679,
				"element": "C" 
			},
			{
				"x": -0.4921580726,
				"y": -1.7881456178,
				"z": 0.547211399,
				"element": "C" 
			},
			{
				"x": -1.5146614462,
				"y": -2.2906339639,
				"z": 1.3385239117,
				"element": "C" 
			},
			{
				"x": -1.293630855,
				"y": -3.4647133804,
				"z": 2.0764487707,
				"element": "C" 
			},
			{
				"x": -0.0529440301,
				"y": -4.1025083438,
				"z": 2.0405235991,
				"element": "C" 
			},
			{
				"x": 0.9949246324,
				"y": -3.6124939376,
				"z": 1.2482021453,
				"element": "C" 
			},
			{
				"x": 3.8247695384,
				"y": -1.1468628155,
				"z": -2.3341402529,
				"element": "H" 
			},
			{
				"x": 4.5432440588,
				"y": -0.3713457419,
				"z": -0.9253636179,
				"element": "H" 
			},
			{
				"x": 2.4971510717,
				"y": 0.988864949,
				"z": -0.6086805032,
				"element": "H" 
			},
			{
				"x": 3.0986423763,
				"y": 3.4408838838,
				"z": -3.0089152786,
				"element": "H" 
			},
			{
				"x": 3.5576821087,
				"y": 3.1889761325,
				"z": -1.3258798952,
				"element": "H" 
			},
			{
				"x": 1.3789075373,
				"y": 4.019033905,
				"z": -1.0481969426,
				"element": "H" 
			},
			{
				"x": -0.86493176,
				"y": 3.5885613135,
				"z": -0.4863235381,
				"element": "H" 
			},
			{
				"x": -1.6795267864,
				"y": 3.0415710987,
				"z": -1.9365319637,
				"element": "H" 
			},
			{
				"x": -1.8509836709,
				"y": 0.9919691689,
				"z": 1.6019738639,
				"element": "H" 
			},
			{
				"x": -0.8849540237,
				"y": 2.4600058656,
				"z": 1.4310991601,
				"element": "H" 
			},
			{
				"x": 0.4558273507,
				"y": 0.1240872472,
				"z": 1.7803070202,
				"element": "H" 
			},
			{
				"x": 0.9770613554,
				"y": 1.1956789633,
				"z": 0.4789928547,
				"element": "H" 
			},
			{
				"x": -2.4314227598,
				"y": -0.2535617448,
				"z": -0.8864499666,
				"element": "H" 
			},
			{
				"x": -1.8677294989,
				"y": 1.0898614136,
				"z": -2.9681875422,
				"element": "H" 
			},
			{
				"x": -1.1692252706,
				"y": -0.5094309523,
				"z": -3.0089177362,
				"element": "H" 
			},
			{
				"x": 0.4863988355,
				"y": 1.3229505092,
				"z": -3.6541565555,
				"element": "H" 
			},
			{
				"x": 1.6428990267,
				"y": -0.534971297,
				"z": -3.0886791018,
				"element": "H" 
			},
			{
				"x": 0.1444102672,
				"y": -1.7015764139,
				"z": -1.8502054816,
				"element": "H" 
			},
			{
				"x": -2.4740472406,
				"y": -1.7828729053,
				"z": 1.393252615,
				"element": "H" 
			},
			{
				"x": -2.0931997613,
				"y": -3.8736495105,
				"z": 2.6871619209,
				"element": "H" 
			},
			{
				"x": 0.1057638703,
				"y": -5.0017971074,
				"z": 2.6286593395,
				"element": "H" 
			},
			{
				"x": 1.9639296788,
				"y": -4.0938252228,
				"z": 1.2122451478,
				"element": "H" 
			}
		],
		 "valence_orbital": [ 
			{
				"type": "occ",
				"energy": -0.24979,
				"method": "rhf"
			},
			{
				"type": "occ",
				"energy": -0.24371,
				"method": "rhf"
			},
			{
				"type": "occ",
				"energy": -0.24074,
				"method": "rhf"
			},
			{
				"type": "occ",
				"energy": -0.21309,
				"method": "rhf"
			},
			{
				"type": "occ",
				"energy": -0.21181,
				"method": "rhf"
			},
			{
				"type": "unocc",
				"energy": -0.01048,
				"method": "rhf"
			},
			{
				"type": "unocc",
				"energy": -0.00156,
				"method": "rhf"
			},
			{
				"type": "unocc",
				"energy": 0.00108,
				"method": "rhf"
			},
			{
				"type": "unocc",
				"energy": 0.04064,
				"method": "rhf"
			},
			{
				"type": "unocc",
				"energy": 0.07166,
				"method": "rhf"
			}
		],
		"cosmo_sigma_profile": { 
			"-0.025": 0.0,
			"-0.024": 0.0,
			"-0.023": 0.0,
			"-0.022": 0.0,
			"-0.021": 0.0,
			"-0.02": 0.0,
			"-0.019": 0.0,
			"-0.018": 0.0,
			"-0.017": 0.0,
			"-0.016": 0.0,
			"-0.015": 0.0,
			"-0.014": 0.0,
			"-0.013": 0.0,
			"-0.012": 0.0,
			"-0.011": 0.0,
			"-0.01": 0.0,
			"-0.009": 0.0,
			"-0.008": 0.0,
			"-0.007": 0.0448411935888,
			"-0.006": 9.31043898346,
			"-0.005": 28.7003370037,
			"-0.004": 43.9763892259,
			"-0.003": 42.6591588445,
			"-0.002": 34.3991420382,
			"-0.001": 32.2663389753,
			"0.0": 23.22356367,
			"0.001": 15.3813400428,
			"0.002": 15.2764328512,
			"0.003": 12.5207843701,
			"0.004": 11.5341478234,
			"0.005": 14.576010069,
			"0.006": 8.48429986878,
			"0.007": 3.45764384521,
			"0.008": 3.97785485488,
			"0.009": 3.29732486553,
			"0.01": 3.46307535651,
			"0.011": 3.02659486502,
			"0.012": 4.8251532741,
			"0.013": 5.3296871652,
			"0.014": 3.03965710379,
			"0.015": 0.760339106762,
			"0.016": 0.650990879423,
			"0.017": 0.315779904685,
			"0.018": 0.0,
			"0.019": 0.0,
			"0.02": 0.0,
			"0.021": 0.0,
			"0.022": 0.0,
			"0.023": 0.0,
			"0.024": 0.0,
			"0.025": 0.0
		}
	}
}
