{
	 "smiles": "CCS(=O)(=O)NC(C)C(O)=O", 
	 "Tm": 403.15, 
	 "num_atms": 22, 
	 "gaussian": { 
		 "optdone": 1, 
		 "sigma_profile": "yes", 
		 "theory": "DFT", 
		 "functional": "B3LYP", 
		 "basiset": "6-31G**", 
		 "properties": { 
			 "R2extent": 3093.1283, 
			 "electric_dipole_moment_norm": 6.54768343844, 
			 "electric_quadrupole_moment_norm": 15.4411905396, 
			 "total_energy": -950.952046346, 
			 "HOMO_LUMO_gap": 0.25871, 
			 "cosmo_polarized_energy": -18.83, 
			 "cosmo_cavitation_energy": 26.3, 
			 "cosmo_dispersion_energy": -19.18, 
			 "cosmo_repulsion_energy": 1.5, 
			 "cosmo_total_nonelectrostatic_energy": 8.61, 
			 "SMD_solvation_energy": 4.9 
		},
		"coords": [
			{
				"x": 1.3772502136,
				"y": 0.9055865365,
				"z": 1.8871769899,
				"element": "C" 
			},
			{
				"x": 2.6019649742,
				"y": 0.554493164,
				"z": 1.0508257623,
				"element": "C" 
			},
			{
				"x": 2.3624392644,
				"y": 0.7792834501,
				"z": -0.7293598078,
				"element": "S" 
			},
			{
				"x": 3.5748539708,
				"y": 0.3230450423,
				"z": -1.4096177619,
				"element": "O" 
			},
			{
				"x": 1.8430764978,
				"y": 2.1540927155,
				"z": -0.923473581,
				"element": "O" 
			},
			{
				"x": 1.1258510454,
				"y": -0.2894035043,
				"z": -1.1306002589,
				"element": "N" 
			},
			{
				"x": -0.2302297722,
				"y": 0.1978376271,
				"z": -1.4847187804,
				"element": "C" 
			},
			{
				"x": -1.2494032547,
				"y": -0.9059911555,
				"z": -1.2191318848,
				"element": "C" 
			},
			{
				"x": -0.3053544373,
				"y": 0.6831900927,
				"z": -2.9564949383,
				"element": "C" 
			},
			{
				"x": 0.4063143027,
				"y": 1.7791534017,
				"z": -3.2564720481,
				"element": "O" 
			},
			{
				"x": -0.960328219,
				"y": 0.1030809668,
				"z": -3.7910062972,
				"element": "O" 
			},
			{
				"x": 0.536304497,
				"y": 0.2481039075,
				"z": 1.6511193498,
				"element": "H" 
			},
			{
				"x": 1.0763046091,
				"y": 1.9430305356,
				"z": 1.7248521719,
				"element": "H" 
			},
			{
				"x": 1.6164718217,
				"y": 0.7783522664,
				"z": 2.9468444871,
				"element": "H" 
			},
			{
				"x": 2.9124912825,
				"y": -0.486847354,
				"z": 1.1679103244,
				"element": "H" 
			},
			{
				"x": 3.4574644307,
				"y": 1.1974606669,
				"z": 1.2795384862,
				"element": "H" 
			},
			{
				"x": 1.4951784016,
				"y": -1.0045200043,
				"z": -1.7530051293,
				"element": "H" 
			},
			{
				"x": -0.4289700422,
				"y": 1.0560522394,
				"z": -0.8356030503,
				"element": "H" 
			},
			{
				"x": -1.1942589579,
				"y": -1.2278110235,
				"z": -0.1762594769,
				"element": "H" 
			},
			{
				"x": -1.0701125021,
				"y": -1.7639703862,
				"z": -1.8718783949,
				"element": "H" 
			},
			{
				"x": -2.2572538186,
				"y": -0.5430430849,
				"z": -1.4324865621,
				"element": "H" 
			},
			{
				"x": 0.8948456923,
				"y": 2.1171239001,
				"z": -2.4741595999,
				"element": "H" 
			}
		],
		 "valence_orbital": [ 
			{
				"type": "occ",
				"energy": -0.33201,
				"method": "rhf"
			},
			{
				"type": "occ",
				"energy": -0.32654,
				"method": "rhf"
			},
			{
				"type": "occ",
				"energy": -0.30952,
				"method": "rhf"
			},
			{
				"type": "occ",
				"energy": -0.3045,
				"method": "rhf"
			},
			{
				"type": "occ",
				"energy": -0.2616,
				"method": "rhf"
			},
			{
				"type": "unocc",
				"energy": -0.00289,
				"method": "rhf"
			},
			{
				"type": "unocc",
				"energy": 0.03964,
				"method": "rhf"
			},
			{
				"type": "unocc",
				"energy": 0.05451,
				"method": "rhf"
			},
			{
				"type": "unocc",
				"energy": 0.05928,
				"method": "rhf"
			},
			{
				"type": "unocc",
				"energy": 0.08086,
				"method": "rhf"
			}
		],
		"cosmo_sigma_profile": { 
			"-0.025": 0.0,
			"-0.024": 0.0,
			"-0.023": 0.0,
			"-0.022": 0.0,
			"-0.021": 0.0,
			"-0.02": 0.0,
			"-0.019": 0.0,
			"-0.018": 0.0,
			"-0.017": 0.0,
			"-0.016": 0.351929907812,
			"-0.015": 0.868434350684,
			"-0.014": 1.19432416586,
			"-0.013": 1.02046115619,
			"-0.012": 1.21352210067,
			"-0.011": 1.18467694022,
			"-0.01": 1.01229631021,
			"-0.009": 4.20719349182,
			"-0.008": 7.75137056542,
			"-0.007": 8.18921548059,
			"-0.006": 10.0141745816,
			"-0.005": 16.305592422,
			"-0.004": 20.2837629255,
			"-0.003": 16.3355316163,
			"-0.002": 14.116718342,
			"-0.001": 15.572385367,
			"0.0": 10.7108607952,
			"0.001": 6.2172148767,
			"0.002": 5.16201338016,
			"0.003": 4.34571948335,
			"0.004": 4.6036814167,
			"0.005": 4.23162111076,
			"0.006": 5.11267912924,
			"0.007": 5.06483431083,
			"0.008": 5.44729612412,
			"0.009": 6.91054135656,
			"0.01": 11.2493086844,
			"0.011": 10.5990007456,
			"0.012": 5.26600408781,
			"0.013": 1.6693148349,
			"0.014": 0.0974104626901,
			"0.015": 0.0,
			"0.016": 0.0,
			"0.017": 0.0,
			"0.018": 0.0,
			"0.019": 0.0,
			"0.02": 0.0,
			"0.021": 0.0,
			"0.022": 0.0,
			"0.023": 0.0,
			"0.024": 0.0,
			"0.025": 0.0
		}
	}
}
