{
	 "smiles": "CC(=O)NC1=CC=CC(=C1)C(F)(F)F", 
	 "Tm": 378.15, 
	 "num_atms": 22, 
	 "gaussian": { 
		 "optdone": 1, 
		 "sigma_profile": "yes", 
		 "theory": "DFT", 
		 "functional": "B3LYP", 
		 "basiset": "6-31G**", 
		 "properties": { 
			 "R2extent": 3277.0727, 
			 "electric_dipole_moment_norm": 2.59543089486, 
			 "electric_quadrupole_moment_norm": 14.4381586939, 
			 "total_energy": -777.299101222, 
			 "HOMO_LUMO_gap": 0.20029, 
			 "cosmo_polarized_energy": -11.42, 
			 "cosmo_cavitation_energy": 27.84, 
			 "cosmo_dispersion_energy": -19.46, 
			 "cosmo_repulsion_energy": 1.48, 
			 "cosmo_total_nonelectrostatic_energy": 9.86, 
			 "SMD_solvation_energy": 6.81 
		},
		"coords": [
			{
				"x": -1.1367376614,
				"y": -0.3739931226,
				"z": 3.1243572695,
				"element": "C" 
			},
			{
				"x": -1.2872588943,
				"y": 1.1099971064,
				"z": 2.8557133398,
				"element": "C" 
			},
			{
				"x": -1.6787277241,
				"y": 1.887911788,
				"z": 3.7119495686,
				"element": "O" 
			},
			{
				"x": -0.9891471139,
				"y": 1.6015059716,
				"z": 1.5897776945,
				"element": "N" 
			},
			{
				"x": -0.5586223561,
				"y": 0.9779145328,
				"z": 0.4027775809,
				"element": "C" 
			},
			{
				"x": -1.0421368049,
				"y": 1.4711671771,
				"z": -0.8211170724,
				"element": "C" 
			},
			{
				"x": -0.6248231751,
				"y": 0.9129907752,
				"z": -2.0257585028,
				"element": "C" 
			},
			{
				"x": 0.2716016776,
				"y": -0.1554728234,
				"z": -2.038212096,
				"element": "C" 
			},
			{
				"x": 0.7596736105,
				"y": -0.6411578011,
				"z": -0.8240076852,
				"element": "C" 
			},
			{
				"x": 0.3669443945,
				"y": -0.0741516863,
				"z": 0.3895409453,
				"element": "C" 
			},
			{
				"x": 1.7929341471,
				"y": -1.7376716019,
				"z": -0.8229968516,
				"element": "C" 
			},
			{
				"x": 1.6133315185,
				"y": -2.5950787137,
				"z": -1.8511216057,
				"element": "F" 
			},
			{
				"x": 3.0454793005,
				"y": -1.2402407063,
				"z": -0.9401131167,
				"element": "F" 
			},
			{
				"x": 1.7624203607,
				"y": -2.4596406086,
				"z": 0.3196923665,
				"element": "F" 
			},
			{
				"x": -1.3920919105,
				"y": -0.993792325,
				"z": 2.2619339805,
				"element": "H" 
			},
			{
				"x": -0.1075171194,
				"y": -0.6056467191,
				"z": 3.4187303598,
				"element": "H" 
			},
			{
				"x": -1.7869968589,
				"y": -0.6158492024,
				"z": 3.965489499,
				"element": "H" 
			},
			{
				"x": -1.2483213065,
				"y": 2.5779719407,
				"z": 1.5139800336,
				"element": "H" 
			},
			{
				"x": -1.7584579327,
				"y": 2.2882023713,
				"z": -0.8179672423,
				"element": "H" 
			},
			{
				"x": -1.0135054216,
				"y": 1.3050726411,
				"z": -2.9604896527,
				"element": "H" 
			},
			{
				"x": 0.5861530405,
				"y": -0.6073661308,
				"z": -2.9719155431,
				"element": "H" 
			},
			{
				"x": 0.7937062297,
				"y": -0.4459728632,
				"z": 1.3110567305,
				"element": "H" 
			}
		],
		 "valence_orbital": [ 
			{
				"type": "occ",
				"energy": -0.36305,
				"method": "rhf"
			},
			{
				"type": "occ",
				"energy": -0.31378,
				"method": "rhf"
			},
			{
				"type": "occ",
				"energy": -0.27918,
				"method": "rhf"
			},
			{
				"type": "occ",
				"energy": -0.26132,
				"method": "rhf"
			},
			{
				"type": "occ",
				"energy": -0.23932,
				"method": "rhf"
			},
			{
				"type": "unocc",
				"energy": -0.03903,
				"method": "rhf"
			},
			{
				"type": "unocc",
				"energy": -0.02877,
				"method": "rhf"
			},
			{
				"type": "unocc",
				"energy": 0.02282,
				"method": "rhf"
			},
			{
				"type": "unocc",
				"energy": 0.07378,
				"method": "rhf"
			},
			{
				"type": "unocc",
				"energy": 0.0948,
				"method": "rhf"
			}
		],
		"cosmo_sigma_profile": { 
			"-0.025": 0.0,
			"-0.024": 0.0,
			"-0.023": 0.0,
			"-0.022": 0.0,
			"-0.021": 0.0,
			"-0.02": 0.0,
			"-0.019": 0.0,
			"-0.018": 0.0,
			"-0.017": 0.0,
			"-0.016": 0.0,
			"-0.015": 0.158527372527,
			"-0.014": 0.942362592733,
			"-0.013": 1.2300100583,
			"-0.012": 0.916758846775,
			"-0.011": 1.01572109064,
			"-0.01": 1.58473185678,
			"-0.009": 1.91361807762,
			"-0.008": 4.1435138337,
			"-0.007": 7.14257744751,
			"-0.006": 10.27584561,
			"-0.005": 13.222121166,
			"-0.004": 13.354060059,
			"-0.003": 13.2551641238,
			"-0.002": 14.3813401891,
			"-0.001": 16.1578024013,
			"0.0": 13.2202486213,
			"0.001": 16.8022796186,
			"0.002": 28.6376792357,
			"0.003": 37.740564191,
			"0.004": 5.68295993315,
			"0.005": 1.59464827627,
			"0.006": 0.862221820155,
			"0.007": 1.597677105,
			"0.008": 1.51693419909,
			"0.009": 0.765918330724,
			"0.01": 1.56828056269,
			"0.011": 1.56045612624,
			"0.012": 2.62824590314,
			"0.013": 5.76669837163,
			"0.014": 2.57708003707,
			"0.015": 0.238899414569,
			"0.016": 0.0,
			"0.017": 0.0,
			"0.018": 0.0,
			"0.019": 0.0,
			"0.02": 0.0,
			"0.021": 0.0,
			"0.022": 0.0,
			"0.023": 0.0,
			"0.024": 0.0,
			"0.025": 0.0
		}
	}
}
