{
	 "smiles": "CCOC(=O)NC1=C(C=C(C)C=C1[N+]([O-])=O)[N+]([O-])=O", 
	 "Tm": 338.15, 
	 "num_atms": 30, 
	 "gaussian": { 
		 "optdone": 1, 
		 "sigma_profile": "yes", 
		 "theory": "DFT", 
		 "functional": "B3LYP", 
		 "basiset": "6-31G**", 
		 "properties": { 
			 "R2extent": 5099.4614, 
			 "electric_dipole_moment_norm": 5.13911491601, 
			 "electric_quadrupole_moment_norm": 14.4389128351, 
			 "total_energy": -1003.10976909, 
			 "HOMO_LUMO_gap": 0.14589, 
			 "cosmo_polarized_energy": -15.27, 
			 "cosmo_cavitation_energy": 35.07, 
			 "cosmo_dispersion_energy": -24.61, 
			 "cosmo_repulsion_energy": 1.88, 
			 "cosmo_total_nonelectrostatic_energy": 12.34, 
			 "SMD_solvation_energy": 11.17 
		},
		"coords": [
			{
				"x": 0.1956640006,
				"y": 1.0501261756,
				"z": -4.6752189503,
				"element": "C" 
			},
			{
				"x": -1.0118400796,
				"y": 0.6938354176,
				"z": -3.8234568492,
				"element": "C" 
			},
			{
				"x": -0.6709429272,
				"y": 0.6404042398,
				"z": -2.4100831061,
				"element": "O" 
			},
			{
				"x": -0.6501016427,
				"y": 1.8144688353,
				"z": -1.7587360503,
				"element": "C" 
			},
			{
				"x": -0.9956668273,
				"y": 2.8867680024,
				"z": -2.2033307634,
				"element": "O" 
			},
			{
				"x": -0.2360848453,
				"y": 1.671768689,
				"z": -0.4332755192,
				"element": "N" 
			},
			{
				"x": 0.1852312702,
				"y": 0.537074357,
				"z": 0.2345808742,
				"element": "C" 
			},
			{
				"x": 1.0258620925,
				"y": -0.4525515866,
				"z": -0.3337139203,
				"element": "C" 
			},
			{
				"x": 1.3516159158,
				"y": -1.6324216161,
				"z": 0.3206429085,
				"element": "C" 
			},
			{
				"x": 0.9208635561,
				"y": -1.8878218116,
				"z": 1.6277283795,
				"element": "C" 
			},
			{
				"x": 1.3009332655,
				"y": -3.1637446701,
				"z": 2.3376001018,
				"element": "C" 
			},
			{
				"x": 0.1509165756,
				"y": -0.9067135554,
				"z": 2.2413246099,
				"element": "C" 
			},
			{
				"x": -0.2102024835,
				"y": 0.2667428091,
				"z": 1.572295756,
				"element": "C" 
			},
			{
				"x": -1.0399827603,
				"y": 1.2031136798,
				"z": 2.3385697543,
				"element": "N" 
			},
			{
				"x": -1.5976256703,
				"y": 0.7818819722,
				"z": 3.3479041165,
				"element": "O" 
			},
			{
				"x": -1.1273230146,
				"y": 2.377412652,
				"z": 1.9513287257,
				"element": "O" 
			},
			{
				"x": 1.7077326816,
				"y": -0.2404169385,
				"z": -1.6235937012,
				"element": "N" 
			},
			{
				"x": 1.8735492509,
				"y": -1.2252844176,
				"z": -2.3405946101,
				"element": "O" 
			},
			{
				"x": 2.1179831479,
				"y": 0.8892336487,
				"z": -1.8699780496,
				"element": "O" 
			},
			{
				"x": 1.0206380842,
				"y": 0.3574466403,
				"z": -4.4906636306,
				"element": "H" 
			},
			{
				"x": -0.07891801,
				"y": 0.9946438583,
				"z": -5.7339594079,
				"element": "H" 
			},
			{
				"x": 0.5329903465,
				"y": 2.0667308309,
				"z": -4.4606326598,
				"element": "H" 
			},
			{
				"x": -1.8242032435,
				"y": 1.4122145813,
				"z": -3.9522154432,
				"element": "H" 
			},
			{
				"x": -1.3764683233,
				"y": -0.3126589375,
				"z": -4.0385235911,
				"element": "H" 
			},
			{
				"x": -0.5305357487,
				"y": 2.4346326445,
				"z": 0.1677293698,
				"element": "H" 
			},
			{
				"x": 1.9792878435,
				"y": -2.3421157223,
				"z": -0.2071883738,
				"element": "H" 
			},
			{
				"x": 2.3885107066,
				"y": -3.2594850619,
				"z": 2.4279583827,
				"element": "H" 
			},
			{
				"x": 0.9419399945,
				"y": -4.0416978978,
				"z": 1.7897524015,
				"element": "H" 
			},
			{
				"x": 0.8758275174,
				"y": -3.1983201663,
				"z": 3.3433940889,
				"element": "H" 
			},
			{
				"x": -0.2051506731,
				"y": -1.0314666522,
				"z": 3.2565551565,
				"element": "H" 
			}
		],
		 "valence_orbital": [ 
			{
				"type": "occ",
				"energy": -0.31216,
				"method": "rhf"
			},
			{
				"type": "occ",
				"energy": -0.30778,
				"method": "rhf"
			},
			{
				"type": "occ",
				"energy": -0.29401,
				"method": "rhf"
			},
			{
				"type": "occ",
				"energy": -0.2903,
				"method": "rhf"
			},
			{
				"type": "occ",
				"energy": -0.25695,
				"method": "rhf"
			},
			{
				"type": "unocc",
				"energy": -0.11106,
				"method": "rhf"
			},
			{
				"type": "unocc",
				"energy": -0.09775,
				"method": "rhf"
			},
			{
				"type": "unocc",
				"energy": -0.03466,
				"method": "rhf"
			},
			{
				"type": "unocc",
				"energy": -0.02118,
				"method": "rhf"
			},
			{
				"type": "unocc",
				"energy": 0.03751,
				"method": "rhf"
			}
		],
		"cosmo_sigma_profile": { 
			"-0.025": 0.0,
			"-0.024": 0.0,
			"-0.023": 0.0,
			"-0.022": 0.0,
			"-0.021": 0.0,
			"-0.02": 0.0,
			"-0.019": 0.0,
			"-0.018": 0.0,
			"-0.017": 0.0,
			"-0.016": 0.0,
			"-0.015": 0.0,
			"-0.014": 0.0,
			"-0.013": 0.0,
			"-0.012": 0.0,
			"-0.011": 0.0,
			"-0.01": 0.201053799008,
			"-0.009": 1.67250388389,
			"-0.008": 6.25894611138,
			"-0.007": 8.74563748532,
			"-0.006": 14.9700422672,
			"-0.005": 22.5558950506,
			"-0.004": 24.2723935818,
			"-0.003": 23.6724039517,
			"-0.002": 25.6048237831,
			"-0.001": 28.8312220105,
			"0.0": 18.3408438239,
			"0.001": 11.3042263279,
			"0.002": 9.75585507127,
			"0.003": 9.97261637694,
			"0.004": 9.8047995307,
			"0.005": 8.48180630384,
			"0.006": 12.3085802549,
			"0.007": 16.846328483,
			"0.008": 9.60265398645,
			"0.009": 6.13556136846,
			"0.01": 2.70101502516,
			"0.011": 3.58326453828,
			"0.012": 3.64034695742,
			"0.013": 0.0654013962938,
			"0.014": 0.0,
			"0.015": 0.0,
			"0.016": 0.0,
			"0.017": 0.0,
			"0.018": 0.0,
			"0.019": 0.0,
			"0.02": 0.0,
			"0.021": 0.0,
			"0.022": 0.0,
			"0.023": 0.0,
			"0.024": 0.0,
			"0.025": 0.0
		}
	}
}
