{
	 "smiles": "CN(C)C1=CC(OC2=C(N)C=C(C)C=C2)=CC=C1", 
	 "Tm": 338.15, 
	 "num_atms": 36, 
	 "gaussian": { 
		 "optdone": 1, 
		 "sigma_profile": "yes", 
		 "theory": "DFT", 
		 "functional": "B3LYP", 
		 "basiset": "6-31G**", 
		 "properties": { 
			 "R2extent": 6851.1678, 
			 "electric_dipole_moment_norm": 2.24097256342, 
			 "electric_quadrupole_moment_norm": 17.9197801164, 
			 "total_energy": -767.166141829, 
			 "HOMO_LUMO_gap": 0.19299, 
			 "cosmo_polarized_energy": -11.12, 
			 "cosmo_cavitation_energy": 38.52, 
			 "cosmo_dispersion_energy": -27.61, 
			 "cosmo_repulsion_energy": 2.14, 
			 "cosmo_total_nonelectrostatic_energy": 13.05, 
			 "SMD_solvation_energy": 6.19 
		},
		"coords": [
			{
				"x": 1.667296208,
				"y": 1.1615549022,
				"z": -4.6431234325,
				"element": "C" 
			},
			{
				"x": 0.5888854056,
				"y": 1.3341707859,
				"z": -3.6851822941,
				"element": "N" 
			},
			{
				"x": -0.2196548484,
				"y": 2.5375996132,
				"z": -3.776354568,
				"element": "C" 
			},
			{
				"x": 0.6253570339,
				"y": 0.628920696,
				"z": -2.4867375162,
				"element": "C" 
			},
			{
				"x": -0.2756879639,
				"y": 0.9269156578,
				"z": -1.4432530534,
				"element": "C" 
			},
			{
				"x": -0.2560470162,
				"y": 0.1957606841,
				"z": -0.2566097019,
				"element": "C" 
			},
			{
				"x": -1.1513021739,
				"y": 0.6254125544,
				"z": 0.7091746549,
				"element": "O" 
			},
			{
				"x": -1.5827694937,
				"y": -0.244823162,
				"z": 1.7043012232,
				"element": "C" 
			},
			{
				"x": -1.4875780468,
				"y": 0.2235607518,
				"z": 3.0293940666,
				"element": "C" 
			},
			{
				"x": -0.9815126114,
				"y": 1.495975146,
				"z": 3.2814565116,
				"element": "N" 
			},
			{
				"x": -1.9720936396,
				"y": -0.6021877375,
				"z": 4.0547004393,
				"element": "C" 
			},
			{
				"x": -2.5369423302,
				"y": -1.8542405429,
				"z": 3.7905203445,
				"element": "C" 
			},
			{
				"x": -3.0134694922,
				"y": -2.7314269797,
				"z": 4.9256021318,
				"element": "C" 
			},
			{
				"x": -2.632388939,
				"y": -2.2836063197,
				"z": 2.4607450874,
				"element": "C" 
			},
			{
				"x": -2.1618843883,
				"y": -1.4774421679,
				"z": 1.4231369715,
				"element": "C" 
			},
			{
				"x": 0.6514597955,
				"y": -0.8457606538,
				"z": -0.0518199649,
				"element": "C" 
			},
			{
				"x": 1.54675311,
				"y": -1.1327884704,
				"z": -1.082819827,
				"element": "C" 
			},
			{
				"x": 1.5521672489,
				"y": -0.419866792,
				"z": -2.2775871942,
				"element": "C" 
			},
			{
				"x": 1.4620530822,
				"y": 1.7704388351,
				"z": -5.5252468172,
				"element": "H" 
			},
			{
				"x": 2.6510265813,
				"y": 1.4555319871,
				"z": -4.2436862708,
				"element": "H" 
			},
			{
				"x": 1.7364426448,
				"y": 0.1192066047,
				"z": -4.9740412036,
				"element": "H" 
			},
			{
				"x": 0.0926712705,
				"y": 3.3217477253,
				"z": -3.0683399035,
				"element": "H" 
			},
			{
				"x": -1.2760513178,
				"y": 2.3160522072,
				"z": -3.5875021575,
				"element": "H" 
			},
			{
				"x": -0.1464298594,
				"y": 2.9419033549,
				"z": -4.7873732791,
				"element": "H" 
			},
			{
				"x": -1.0044512208,
				"y": 1.7222784848,
				"z": -1.5248391738,
				"element": "H" 
			},
			{
				"x": -0.4469079077,
				"y": 1.8831531591,
				"z": 2.5160244382,
				"element": "H" 
			},
			{
				"x": -0.5365964559,
				"y": 1.6140534966,
				"z": 4.1804653324,
				"element": "H" 
			},
			{
				"x": -1.9077330002,
				"y": -0.2471308048,
				"z": 5.0814272571,
				"element": "H" 
			},
			{
				"x": -2.184012355,
				"y": -3.2960167904,
				"z": 5.3704196197,
				"element": "H" 
			},
			{
				"x": -3.4680180217,
				"y": -2.140406685,
				"z": 5.7272529905,
				"element": "H" 
			},
			{
				"x": -3.754655398,
				"y": -3.4589507881,
				"z": 4.5819036701,
				"element": "H" 
			},
			{
				"x": -3.0802294254,
				"y": -3.2465438447,
				"z": 2.2323402659,
				"element": "H" 
			},
			{
				"x": -2.2336716134,
				"y": -1.8022660001,
				"z": 0.3900253019,
				"element": "H" 
			},
			{
				"x": 0.66018924,
				"y": -1.4030344948,
				"z": 0.8766081541,
				"element": "H" 
			},
			{
				"x": 2.2699060214,
				"y": -1.9326517391,
				"z": -0.9469471823,
				"element": "H" 
			},
			{
				"x": 2.2736798769,
				"y": -0.6798926735,
				"z": -3.0412349206,
				"element": "H" 
			}
		],
		 "valence_orbital": [ 
			{
				"type": "occ",
				"energy": -0.27311,
				"method": "rhf"
			},
			{
				"type": "occ",
				"energy": -0.23336,
				"method": "rhf"
			},
			{
				"type": "occ",
				"energy": -0.21486,
				"method": "rhf"
			},
			{
				"type": "occ",
				"energy": -0.19035,
				"method": "rhf"
			},
			{
				"type": "occ",
				"energy": -0.18453,
				"method": "rhf"
			},
			{
				"type": "unocc",
				"energy": 0.00846,
				"method": "rhf"
			},
			{
				"type": "unocc",
				"energy": 0.01217,
				"method": "rhf"
			},
			{
				"type": "unocc",
				"energy": 0.02738,
				"method": "rhf"
			},
			{
				"type": "unocc",
				"energy": 0.03176,
				"method": "rhf"
			},
			{
				"type": "unocc",
				"energy": 0.08769,
				"method": "rhf"
			}
		],
		"cosmo_sigma_profile": { 
			"-0.025": 0.0,
			"-0.024": 0.0,
			"-0.023": 0.0,
			"-0.022": 0.0,
			"-0.021": 0.0,
			"-0.02": 0.0,
			"-0.019": 0.0,
			"-0.018": 0.0,
			"-0.017": 0.0,
			"-0.016": 0.0,
			"-0.015": 0.0,
			"-0.014": 0.0,
			"-0.013": 0.151258205492,
			"-0.012": 1.09949262889,
			"-0.011": 1.95454566482,
			"-0.01": 1.94810039876,
			"-0.009": 2.53421515999,
			"-0.008": 2.58736991479,
			"-0.007": 2.99323413847,
			"-0.006": 5.89029354848,
			"-0.005": 17.4875633924,
			"-0.004": 25.100267226,
			"-0.003": 33.635426499,
			"-0.002": 32.6071238222,
			"-0.001": 31.2069872316,
			"0.0": 23.6172975131,
			"0.001": 18.3226769388,
			"0.002": 13.9531243654,
			"0.003": 13.964400653,
			"0.004": 16.3841637938,
			"0.005": 17.8420160571,
			"0.006": 21.0646759897,
			"0.007": 11.6345815005,
			"0.008": 2.37667479847,
			"0.009": 2.34237165835,
			"0.01": 0.716682426361,
			"0.011": 0.881770862337,
			"0.012": 0.650254914586,
			"0.013": 0.419785019298,
			"0.014": 0.810991173059,
			"0.015": 0.235230184284,
			"0.016": 0.0,
			"0.017": 0.0,
			"0.018": 0.0,
			"0.019": 0.0,
			"0.02": 0.0,
			"0.021": 0.0,
			"0.022": 0.0,
			"0.023": 0.0,
			"0.024": 0.0,
			"0.025": 0.0
		}
	}
}
