{
	 "smiles": "OC(=O)C(N1C=CC=N1)C1=CC=CC=C1", 
	 "Tm": 415.15, 
	 "num_atms": 25, 
	 "gaussian": { 
		 "optdone": 1, 
		 "sigma_profile": "yes", 
		 "theory": "DFT", 
		 "functional": "B3LYP", 
		 "basiset": "6-31G**", 
		 "properties": { 
			 "R2extent": 3518.8622, 
			 "electric_dipole_moment_norm": 4.13307666999, 
			 "electric_quadrupole_moment_norm": 17.8223065822, 
			 "total_energy": -685.122075122, 
			 "HOMO_LUMO_gap": 0.21051, 
			 "cosmo_polarized_energy": -15.89, 
			 "cosmo_cavitation_energy": 29.33, 
			 "cosmo_dispersion_energy": -20.77, 
			 "cosmo_repulsion_energy": 1.62, 
			 "cosmo_total_nonelectrostatic_energy": 10.19, 
			 "SMD_solvation_energy": 5.49 
		},
		"coords": [
			{
				"x": 2.2869881127,
				"y": 1.2400212252,
				"z": -1.4590175518,
				"element": "O" 
			},
			{
				"x": 1.6281523524,
				"y": 1.9719818894,
				"z": -0.5365591694,
				"element": "C" 
			},
			{
				"x": 2.2204178534,
				"y": 2.6927435135,
				"z": 0.2245717077,
				"element": "O" 
			},
			{
				"x": 0.0871136958,
				"y": 1.8392579028,
				"z": -0.6094360858,
				"element": "C" 
			},
			{
				"x": -0.5700090846,
				"y": 2.462298894,
				"z": 0.5243845743,
				"element": "N" 
			},
			{
				"x": -0.2068141196,
				"y": 2.5102320892,
				"z": 1.8395175578,
				"element": "C" 
			},
			{
				"x": -1.264960304,
				"y": 3.0790687378,
				"z": 2.5187951801,
				"element": "C" 
			},
			{
				"x": -2.2321164797,
				"y": 3.3369750102,
				"z": 1.5215882866,
				"element": "C" 
			},
			{
				"x": -1.8170067936,
				"y": 2.9572993334,
				"z": 0.3160992193,
				"element": "N" 
			},
			{
				"x": -0.3533271929,
				"y": 0.3969273007,
				"z": -0.8547227624,
				"element": "C" 
			},
			{
				"x": -0.3382893901,
				"y": -0.5542541916,
				"z": 0.1749795782,
				"element": "C" 
			},
			{
				"x": -0.7054348363,
				"y": -1.8736358498,
				"z": -0.0815525933,
				"element": "C" 
			},
			{
				"x": -1.0849046219,
				"y": -2.2634020325,
				"z": -1.3695477422,
				"element": "C" 
			},
			{
				"x": -1.1047029794,
				"y": -1.3238241385,
				"z": -2.3991183592,
				"element": "C" 
			},
			{
				"x": -0.7447472909,
				"y": 0.0020423072,
				"z": -2.1409855952,
				"element": "C" 
			},
			{
				"x": 1.6720486803,
				"y": 0.6363532338,
				"z": -1.9081962381,
				"element": "H" 
			},
			{
				"x": -0.2193875872,
				"y": 2.4337212126,
				"z": -1.4784993442,
				"element": "H" 
			},
			{
				"x": 0.7711648405,
				"y": 2.1974357601,
				"z": 2.1669908394,
				"element": "H" 
			},
			{
				"x": -1.3178851155,
				"y": 3.2965572387,
				"z": 3.5750021164,
				"element": "H" 
			},
			{
				"x": -3.2084847012,
				"y": 3.7905216742,
				"z": 1.6300983939,
				"element": "H" 
			},
			{
				"x": -0.0543186322,
				"y": -0.2567052426,
				"z": 1.1800559002,
				"element": "H" 
			},
			{
				"x": -0.6948521839,
				"y": -2.600707208,
				"z": 0.7250416337,
				"element": "H" 
			},
			{
				"x": -1.3697313554,
				"y": -3.292822412,
				"z": -1.5650876157,
				"element": "H" 
			},
			{
				"x": -1.4125950336,
				"y": -1.6136868892,
				"z": -3.3993088747,
				"element": "H" 
			},
			{
				"x": -0.7922178333,
				"y": 0.7392006412,
				"z": -2.9394930559,
				"element": "H" 
			}
		],
		 "valence_orbital": [ 
			{
				"type": "occ",
				"energy": -0.28664,
				"method": "rhf"
			},
			{
				"type": "occ",
				"energy": -0.27403,
				"method": "rhf"
			},
			{
				"type": "occ",
				"energy": -0.26649,
				"method": "rhf"
			},
			{
				"type": "occ",
				"energy": -0.24872,
				"method": "rhf"
			},
			{
				"type": "occ",
				"energy": -0.24121,
				"method": "rhf"
			},
			{
				"type": "unocc",
				"energy": -0.0307,
				"method": "rhf"
			},
			{
				"type": "unocc",
				"energy": -0.02999,
				"method": "rhf"
			},
			{
				"type": "unocc",
				"energy": -0.00183,
				"method": "rhf"
			},
			{
				"type": "unocc",
				"energy": 0.01758,
				"method": "rhf"
			},
			{
				"type": "unocc",
				"energy": 0.07173,
				"method": "rhf"
			}
		],
		"cosmo_sigma_profile": { 
			"-0.025": 0.0,
			"-0.024": 0.0,
			"-0.023": 0.0,
			"-0.022": 0.0,
			"-0.021": 0.0,
			"-0.02": 0.0,
			"-0.019": 0.0,
			"-0.018": 0.0,
			"-0.017": 0.0,
			"-0.016": 0.0,
			"-0.015": 0.282599667963,
			"-0.014": 0.91138626239,
			"-0.013": 1.58280353288,
			"-0.012": 1.5145908658,
			"-0.011": 2.38672671753,
			"-0.01": 3.30664534001,
			"-0.009": 3.32204180458,
			"-0.008": 4.29842268229,
			"-0.007": 9.91283689899,
			"-0.006": 16.5377895858,
			"-0.005": 17.0998844446,
			"-0.004": 16.255392073,
			"-0.003": 13.6854894453,
			"-0.002": 11.6406294033,
			"-0.001": 12.497426951,
			"0.0": 10.84333964,
			"0.001": 13.1037697502,
			"0.002": 11.6005837725,
			"0.003": 13.9901459813,
			"0.004": 18.5180584521,
			"0.005": 12.5906702025,
			"0.006": 7.02581435864,
			"0.007": 4.93736750323,
			"0.008": 4.51612655428,
			"0.009": 6.06008616016,
			"0.01": 6.52469106866,
			"0.011": 4.99051106914,
			"0.012": 2.70031121571,
			"0.013": 0.749869974703,
			"0.014": 0.947439347416,
			"0.015": 0.837771664279,
			"0.016": 0.0758761098519,
			"0.017": 0.0,
			"0.018": 0.0,
			"0.019": 0.0,
			"0.02": 0.0,
			"0.021": 0.0,
			"0.022": 0.0,
			"0.023": 0.0,
			"0.024": 0.0,
			"0.025": 0.0
		}
	}
}
