{
	 "smiles": "FC1=CC=CC(F)=C1C1=CC=C(O1)C=O", 
	 "Tm": 325.15, 
	 "num_atms": 21, 
	 "gaussian": { 
		 "optdone": 1, 
		 "sigma_profile": "yes", 
		 "theory": "DFT", 
		 "functional": "B3LYP", 
		 "basiset": "6-31G**", 
		 "properties": { 
			 "R2extent": 3331.9347, 
			 "electric_dipole_moment_norm": 4.53241014141, 
			 "electric_quadrupole_moment_norm": 17.0304509723, 
			 "total_energy": -772.869114765, 
			 "HOMO_LUMO_gap": 0.15387, 
			 "cosmo_polarized_energy": -11.55, 
			 "cosmo_cavitation_energy": 27.5, 
			 "cosmo_dispersion_energy": -19.79, 
			 "cosmo_repulsion_energy": 1.48, 
			 "cosmo_total_nonelectrostatic_energy": 9.19, 
			 "SMD_solvation_energy": 7.11 
		},
		"coords": [
			{
				"x": -1.3402820676,
				"y": -1.0263818555,
				"z": -2.3246991023,
				"element": "F" 
			},
			{
				"x": -1.6736984524,
				"y": -0.5375871675,
				"z": -1.1104688266,
				"element": "C" 
			},
			{
				"x": -3.0114419258,
				"y": -0.5717559308,
				"z": -0.7517008831,
				"element": "C" 
			},
			{
				"x": -3.3857011237,
				"y": -0.0758965288,
				"z": 0.4972427354,
				"element": "C" 
			},
			{
				"x": -2.4219359737,
				"y": 0.4433892545,
				"z": 1.3588918114,
				"element": "C" 
			},
			{
				"x": -1.0902669202,
				"y": 0.4613381952,
				"z": 0.9633091283,
				"element": "C" 
			},
			{
				"x": -0.1977229372,
				"y": 0.976883961,
				"z": 1.8195133489,
				"element": "F" 
			},
			{
				"x": -0.6514383454,
				"y": -0.0282894788,
				"z": -0.2852494645,
				"element": "C" 
			},
			{
				"x": 0.7409472482,
				"y": -0.020450713,
				"z": -0.7175261148,
				"element": "C" 
			},
			{
				"x": 1.3474581168,
				"y": -0.3360091342,
				"z": -1.9212296902,
				"element": "C" 
			},
			{
				"x": 2.7346174355,
				"y": -0.1337446797,
				"z": -1.7339682424,
				"element": "C" 
			},
			{
				"x": 2.9008859702,
				"y": 0.2893146561,
				"z": -0.4350154484,
				"element": "C" 
			},
			{
				"x": 1.6863509814,
				"y": 0.3585876732,
				"z": 0.1840830466,
				"element": "O" 
			},
			{
				"x": 4.1019452208,
				"y": 0.6431875159,
				"z": 0.3052124328,
				"element": "C" 
			},
			{
				"x": 4.1356535318,
				"y": 1.0094549034,
				"z": 1.4662095967,
				"element": "O" 
			},
			{
				"x": -3.7307531504,
				"y": -0.9840372605,
				"z": -1.4496282439,
				"element": "H" 
			},
			{
				"x": -4.4281737298,
				"y": -0.0939060072,
				"z": 0.7971342587,
				"element": "H" 
			},
			{
				"x": -2.6757637234,
				"y": 0.8397101795,
				"z": 2.3352188955,
				"element": "H" 
			},
			{
				"x": 0.8492024977,
				"y": -0.6659574684,
				"z": -2.816748685,
				"element": "H" 
			},
			{
				"x": 3.5212466186,
				"y": -0.2794986589,
				"z": -2.4611420855,
				"element": "H" 
			},
			{
				"x": 5.0246707286,
				"y": 0.5454485447,
				"z": -0.3077384675,
				"element": "H" 
			}
		],
		 "valence_orbital": [ 
			{
				"type": "occ",
				"energy": -0.30479,
				"method": "rhf"
			},
			{
				"type": "occ",
				"energy": -0.29514,
				"method": "rhf"
			},
			{
				"type": "occ",
				"energy": -0.26016,
				"method": "rhf"
			},
			{
				"type": "occ",
				"energy": -0.2525,
				"method": "rhf"
			},
			{
				"type": "occ",
				"energy": -0.22697,
				"method": "rhf"
			},
			{
				"type": "unocc",
				"energy": -0.0731,
				"method": "rhf"
			},
			{
				"type": "unocc",
				"energy": -0.02413,
				"method": "rhf"
			},
			{
				"type": "unocc",
				"energy": -0.01315,
				"method": "rhf"
			},
			{
				"type": "unocc",
				"energy": 0.05181,
				"method": "rhf"
			},
			{
				"type": "unocc",
				"energy": 0.06748,
				"method": "rhf"
			}
		],
		"cosmo_sigma_profile": { 
			"-0.025": 0.0,
			"-0.024": 0.0,
			"-0.023": 0.0,
			"-0.022": 0.0,
			"-0.021": 0.0,
			"-0.02": 0.0,
			"-0.019": 0.0,
			"-0.018": 0.0,
			"-0.017": 0.0,
			"-0.016": 0.0,
			"-0.015": 0.0,
			"-0.014": 0.0,
			"-0.013": 0.0,
			"-0.012": 0.0,
			"-0.011": 0.0,
			"-0.01": 0.0,
			"-0.009": 1.5118469712,
			"-0.008": 7.47149201902,
			"-0.007": 11.4326946884,
			"-0.006": 12.476922482,
			"-0.005": 10.8920058151,
			"-0.004": 9.28165080052,
			"-0.003": 10.7040322664,
			"-0.002": 13.4332217718,
			"-0.001": 25.4528147737,
			"0.0": 27.7167123691,
			"0.001": 19.3921458089,
			"0.002": 19.5259681222,
			"0.003": 16.1745890111,
			"0.004": 8.49309380764,
			"0.005": 3.53367190211,
			"0.006": 3.22063811902,
			"0.007": 2.27552001632,
			"0.008": 2.62668441564,
			"0.009": 3.52336427874,
			"0.01": 2.63607715781,
			"0.011": 4.51480312856,
			"0.012": 4.70427484597,
			"0.013": 1.89735237748,
			"0.014": 0.0795848303786,
			"0.015": 0.0,
			"0.016": 0.0,
			"0.017": 0.0,
			"0.018": 0.0,
			"0.019": 0.0,
			"0.02": 0.0,
			"0.021": 0.0,
			"0.022": 0.0,
			"0.023": 0.0,
			"0.024": 0.0,
			"0.025": 0.0
		}
	}
}
