{
	 "smiles": "OC(=O)CCCCCC(O)=O", 
	 "Tm": 378.15, 
	 "num_atms": 23, 
	 "gaussian": { 
		 "optdone": 1, 
		 "sigma_profile": "yes", 
		 "theory": "DFT", 
		 "functional": "B3LYP", 
		 "basiset": "6-31G**", 
		 "properties": { 
			 "R2extent": 2090.579, 
			 "electric_dipole_moment_norm": 7.59030330949, 
			 "electric_quadrupole_moment_norm": 8.62031058837, 
			 "total_energy": -574.900763185, 
			 "HOMO_LUMO_gap": 0.23151, 
			 "cosmo_polarized_energy": -20.9, 
			 "cosmo_cavitation_energy": 24.78, 
			 "cosmo_dispersion_energy": -18.33, 
			 "cosmo_repulsion_energy": 1.48, 
			 "cosmo_total_nonelectrostatic_energy": 7.94, 
			 "SMD_solvation_energy": 5.79 
		},
		"coords": [
			{
				"x": 0.6047194283,
				"y": -1.2922083559,
				"z": -2.2671608047,
				"element": "O" 
			},
			{
				"x": 1.0656303149,
				"y": -0.0357179247,
				"z": -2.0731967962,
				"element": "C" 
			},
			{
				"x": 2.1362122836,
				"y": 0.3077462283,
				"z": -2.5184769842,
				"element": "O" 
			},
			{
				"x": 0.1702046939,
				"y": 0.9002467339,
				"z": -1.2647611476,
				"element": "C" 
			},
			{
				"x": 0.8482504328,
				"y": 1.4180065034,
				"z": 0.0215755997,
				"element": "C" 
			},
			{
				"x": 1.4730847895,
				"y": 0.3505968508,
				"z": 0.9461927382,
				"element": "C" 
			},
			{
				"x": 0.6715681073,
				"y": -0.9473377026,
				"z": 1.1639985881,
				"element": "C" 
			},
			{
				"x": -0.7946336715,
				"y": -0.7814960379,
				"z": 1.6208820176,
				"element": "C" 
			},
			{
				"x": -1.7952729336,
				"y": -1.5209080512,
				"z": 0.7371234712,
				"element": "C" 
			},
			{
				"x": -2.9859640817,
				"y": -1.8151190079,
				"z": 1.3004923083,
				"element": "O" 
			},
			{
				"x": -1.6124027101,
				"y": -1.8126725394,
				"z": -0.4269067398,
				"element": "O" 
			},
			{
				"x": -0.2242966683,
				"y": -1.4433523762,
				"z": -1.7732960273,
				"element": "H" 
			},
			{
				"x": -0.7834130383,
				"y": 0.4201584444,
				"z": -1.035281309,
				"element": "H" 
			},
			{
				"x": -0.0503757271,
				"y": 1.7582558068,
				"z": -1.9090220018,
				"element": "H" 
			},
			{
				"x": 1.6416281708,
				"y": 2.1173521485,
				"z": -0.2605155303,
				"element": "H" 
			},
			{
				"x": 0.1042284858,
				"y": 2.0091507464,
				"z": 0.5708911459,
				"element": "H" 
			},
			{
				"x": 2.4432644527,
				"y": 0.0561968683,
				"z": 0.5300547694,
				"element": "H" 
			},
			{
				"x": 1.6893812833,
				"y": 0.8238980827,
				"z": 1.9126696376,
				"element": "H" 
			},
			{
				"x": 0.677573505,
				"y": -1.52573681,
				"z": 0.2387721097,
				"element": "H" 
			},
			{
				"x": 1.2038926751,
				"y": -1.5603533862,
				"z": 1.8988082146,
				"element": "H" 
			},
			{
				"x": -1.1011179165,
				"y": 0.2734835498,
				"z": 1.5923786922,
				"element": "H" 
			},
			{
				"x": -0.9258300362,
				"y": -1.0991658947,
				"z": 2.6623750847,
				"element": "H" 
			},
			{
				"x": -2.9946318394,
				"y": -1.5478238764,
				"z": 2.2307029635,
				"element": "H" 
			}
		],
		 "valence_orbital": [ 
			{
				"type": "occ",
				"energy": -0.3318,
				"method": "rhf"
			},
			{
				"type": "occ",
				"energy": -0.32986,
				"method": "rhf"
			},
			{
				"type": "occ",
				"energy": -0.3053,
				"method": "rhf"
			},
			{
				"type": "occ",
				"energy": -0.29292,
				"method": "rhf"
			},
			{
				"type": "occ",
				"energy": -0.25199,
				"method": "rhf"
			},
			{
				"type": "unocc",
				"energy": -0.02048,
				"method": "rhf"
			},
			{
				"type": "unocc",
				"energy": 0.02301,
				"method": "rhf"
			},
			{
				"type": "unocc",
				"energy": 0.03075,
				"method": "rhf"
			},
			{
				"type": "unocc",
				"energy": 0.07376,
				"method": "rhf"
			},
			{
				"type": "unocc",
				"energy": 0.09117,
				"method": "rhf"
			}
		],
		"cosmo_sigma_profile": { 
			"-0.025": 0.0,
			"-0.024": 0.0,
			"-0.023": 0.0,
			"-0.022": 0.0,
			"-0.021": 0.0,
			"-0.02": 0.114731085035,
			"-0.019": 1.12876994735,
			"-0.018": 0.963256394914,
			"-0.017": 1.22191230622,
			"-0.016": 0.850031843321,
			"-0.015": 1.18128950656,
			"-0.014": 1.18351281468,
			"-0.013": 1.25496654547,
			"-0.012": 1.32642167472,
			"-0.011": 0.813061958439,
			"-0.01": 1.01864000856,
			"-0.009": 1.42103428411,
			"-0.008": 4.00451389215,
			"-0.007": 5.51541492443,
			"-0.006": 8.03064905755,
			"-0.005": 9.57564774204,
			"-0.004": 13.8759988965,
			"-0.003": 18.9625783117,
			"-0.002": 23.1706865792,
			"-0.001": 18.0778111493,
			"0.0": 12.661883966,
			"0.001": 5.16511300318,
			"0.002": 3.84806405267,
			"0.003": 4.71497135545,
			"0.004": 3.36713129884,
			"0.005": 3.69179959004,
			"0.006": 4.61355191512,
			"0.007": 4.9321627965,
			"0.008": 4.54974323791,
			"0.009": 5.83617710539,
			"0.01": 7.58797349216,
			"0.011": 6.22980331264,
			"0.012": 6.88195183898,
			"0.013": 4.83453113379,
			"0.014": 0.987797942067,
			"0.015": 0.0,
			"0.016": 0.0,
			"0.017": 0.0,
			"0.018": 0.0,
			"0.019": 0.0,
			"0.02": 0.0,
			"0.021": 0.0,
			"0.022": 0.0,
			"0.023": 0.0,
			"0.024": 0.0,
			"0.025": 0.0
		}
	}
}
