{
	 "smiles": "FC1=CN=C(C=C1)C#N", 
	 "Tm": 316.15, 
	 "num_atms": 12, 
	 "gaussian": { 
		 "optdone": 1, 
		 "sigma_profile": "yes", 
		 "theory": "DFT", 
		 "functional": "B3LYP", 
		 "basiset": "6-31G**", 
		 "properties": { 
			 "R2extent": 2146.5469, 
			 "electric_dipole_moment_norm": 4.56696609359, 
			 "electric_quadrupole_moment_norm": 21.9963603032, 
			 "total_energy": -439.750034377, 
			 "HOMO_LUMO_gap": 0.20899, 
			 "cosmo_polarized_energy": -10.14, 
			 "cosmo_cavitation_energy": 18.58, 
			 "cosmo_dispersion_energy": -13.1, 
			 "cosmo_repulsion_energy": 1.05, 
			 "cosmo_total_nonelectrostatic_energy": 6.53, 
			 "SMD_solvation_energy": 3.91 
		},
		"coords": [
			{
				"x": -1.6811394736,
				"y": -0.8111630961,
				"z": -1.2668607804,
				"element": "F" 
			},
			{
				"x": -1.5424352503,
				"y": 0.0766275204,
				"z": -0.2723681543,
				"element": "C" 
			},
			{
				"x": -1.6801600705,
				"y": -0.351950801,
				"z": 1.0494929285,
				"element": "C" 
			},
			{
				"x": -1.5540307792,
				"y": 0.4803205571,
				"z": 2.0806083012,
				"element": "N" 
			},
			{
				"x": -1.2852271535,
				"y": 1.7704072733,
				"z": 1.8135359627,
				"element": "C" 
			},
			{
				"x": -1.1322812829,
				"y": 2.2793912818,
				"z": 0.5152230143,
				"element": "C" 
			},
			{
				"x": -1.2649056312,
				"y": 1.4060159123,
				"z": -0.5604853761,
				"element": "C" 
			},
			{
				"x": -1.1525463125,
				"y": 2.6554261661,
				"z": 2.9449385252,
				"element": "C" 
			},
			{
				"x": -1.0390968825,
				"y": 3.3966334237,
				"z": 3.8327324293,
				"element": "N" 
			},
			{
				"x": -1.897479632,
				"y": -1.3957773859,
				"z": 1.2619828591,
				"element": "H" 
			},
			{
				"x": -0.9157207473,
				"y": 3.3307928414,
				"z": 0.3618087575,
				"element": "H" 
			},
			{
				"x": -1.1586767845,
				"y": 1.7347763068,
				"z": -1.5884084669,
				"element": "H" 
			}
		],
		 "valence_orbital": [ 
			{
				"type": "occ",
				"energy": -0.35673,
				"method": "rhf"
			},
			{
				"type": "occ",
				"energy": -0.34255,
				"method": "rhf"
			},
			{
				"type": "occ",
				"energy": -0.32276,
				"method": "rhf"
			},
			{
				"type": "occ",
				"energy": -0.29474,
				"method": "rhf"
			},
			{
				"type": "occ",
				"energy": -0.27915,
				"method": "rhf"
			},
			{
				"type": "unocc",
				"energy": -0.07016,
				"method": "rhf"
			},
			{
				"type": "unocc",
				"energy": -0.05585,
				"method": "rhf"
			},
			{
				"type": "unocc",
				"energy": 0.02645,
				"method": "rhf"
			},
			{
				"type": "unocc",
				"energy": 0.06544,
				"method": "rhf"
			},
			{
				"type": "unocc",
				"energy": 0.06726,
				"method": "rhf"
			}
		],
		"cosmo_sigma_profile": { 
			"-0.025": 0.0,
			"-0.024": 0.0,
			"-0.023": 0.0,
			"-0.022": 0.0,
			"-0.021": 0.0,
			"-0.02": 0.0,
			"-0.019": 0.0,
			"-0.018": 0.0,
			"-0.017": 0.0,
			"-0.016": 0.0,
			"-0.015": 0.0,
			"-0.014": 0.0,
			"-0.013": 0.0,
			"-0.012": 0.0,
			"-0.011": 0.0,
			"-0.01": 2.04014700239,
			"-0.009": 6.09131347898,
			"-0.008": 7.03805911746,
			"-0.007": 5.00136665914,
			"-0.006": 5.32770636697,
			"-0.005": 5.49882421575,
			"-0.004": 6.2489805258,
			"-0.003": 17.1930024407,
			"-0.002": 16.0309366388,
			"-0.001": 11.9429579155,
			"0.0": 6.10249575963,
			"0.001": 6.64117556347,
			"0.002": 7.77871404968,
			"0.003": 13.3986321465,
			"0.004": 3.78439297409,
			"0.005": 4.23785529472,
			"0.006": 4.2195186359,
			"0.007": 4.49607334343,
			"0.008": 4.15663365391,
			"0.009": 3.83224306499,
			"0.01": 3.59209618126,
			"0.011": 3.25838405102,
			"0.012": 2.96688969956,
			"0.013": 0.873091683307,
			"0.014": 0.119752721943,
			"0.015": 0.0,
			"0.016": 0.0,
			"0.017": 0.0,
			"0.018": 0.0,
			"0.019": 0.0,
			"0.02": 0.0,
			"0.021": 0.0,
			"0.022": 0.0,
			"0.023": 0.0,
			"0.024": 0.0,
			"0.025": 0.0
		}
	}
}
