{
	 "smiles": "OC(=O)C1=NN(C=C1)C(F)F", 
	 "Tm": 409.15, 
	 "num_atms": 15, 
	 "gaussian": { 
		 "optdone": 1, 
		 "sigma_profile": "yes", 
		 "theory": "DFT", 
		 "functional": "B3LYP", 
		 "basiset": "6-31G**", 
		 "properties": { 
			 "R2extent": 2669.5815, 
			 "electric_dipole_moment_norm": 4.30665426288, 
			 "electric_quadrupole_moment_norm": 18.8805112836, 
			 "total_energy": -652.552997912, 
			 "HOMO_LUMO_gap": 0.22683, 
			 "cosmo_polarized_energy": -12.7, 
			 "cosmo_cavitation_energy": 21.57, 
			 "cosmo_dispersion_energy": -15.58, 
			 "cosmo_repulsion_energy": 1.23, 
			 "cosmo_total_nonelectrostatic_energy": 7.22, 
			 "SMD_solvation_energy": 5.49 
		},
		"coords": [
			{
				"x": -1.7721485555,
				"y": 2.9447728176,
				"z": 1.2531935509,
				"element": "O" 
			},
			{
				"x": -1.9446857087,
				"y": 2.0540088098,
				"z": 2.2528230736,
				"element": "C" 
			},
			{
				"x": -2.6523062344,
				"y": 2.2795351181,
				"z": 3.2056286947,
				"element": "O" 
			},
			{
				"x": -1.1969281647,
				"y": 0.7778781689,
				"z": 2.0853139185,
				"element": "C" 
			},
			{
				"x": -0.431259354,
				"y": 0.5850534604,
				"z": 1.0117597975,
				"element": "N" 
			},
			{
				"x": 0.0851082824,
				"y": -0.6490737575,
				"z": 1.181930158,
				"element": "N" 
			},
			{
				"x": -0.3398677322,
				"y": -1.240694096,
				"z": 2.343645094,
				"element": "C" 
			},
			{
				"x": -1.1760267935,
				"y": -0.3394066502,
				"z": 2.9565281379,
				"element": "C" 
			},
			{
				"x": 0.9722215822,
				"y": -1.1879429363,
				"z": 0.1935989431,
				"element": "C" 
			},
			{
				"x": 2.1658612446,
				"y": -1.4870929327,
				"z": 0.7619505074,
				"element": "F" 
			},
			{
				"x": 0.4653145011,
				"y": -2.3457071172,
				"z": -0.2962010466,
				"element": "F" 
			},
			{
				"x": -1.1679538049,
				"y": 2.5598757599,
				"z": 0.5947692157,
				"element": "H" 
			},
			{
				"x": -0.0118896939,
				"y": -2.2315622044,
				"z": 2.6193363611,
				"element": "H" 
			},
			{
				"x": -1.7048877654,
				"y": -0.4440888334,
				"z": 3.89064326,
				"element": "H" 
			},
			{
				"x": 1.0968481969,
				"y": -0.4524556069,
				"z": -0.6034196659,
				"element": "H" 
			}
		],
		 "valence_orbital": [ 
			{
				"type": "occ",
				"energy": -0.34558,
				"method": "rhf"
			},
			{
				"type": "occ",
				"energy": -0.31933,
				"method": "rhf"
			},
			{
				"type": "occ",
				"energy": -0.29429,
				"method": "rhf"
			},
			{
				"type": "occ",
				"energy": -0.28858,
				"method": "rhf"
			},
			{
				"type": "occ",
				"energy": -0.27909,
				"method": "rhf"
			},
			{
				"type": "unocc",
				"energy": -0.05226,
				"method": "rhf"
			},
			{
				"type": "unocc",
				"energy": -0.00497,
				"method": "rhf"
			},
			{
				"type": "unocc",
				"energy": 0.07862,
				"method": "rhf"
			},
			{
				"type": "unocc",
				"energy": 0.09432,
				"method": "rhf"
			},
			{
				"type": "unocc",
				"energy": 0.1037,
				"method": "rhf"
			}
		],
		"cosmo_sigma_profile": { 
			"-0.025": 0.0,
			"-0.024": 0.0,
			"-0.023": 0.0,
			"-0.022": 0.0,
			"-0.021": 0.0,
			"-0.02": 0.0,
			"-0.019": 0.0,
			"-0.018": 0.0,
			"-0.017": 0.0,
			"-0.016": 0.0469113365382,
			"-0.015": 0.536116498085,
			"-0.014": 0.546392618026,
			"-0.013": 0.98191343336,
			"-0.012": 1.68486786019,
			"-0.011": 3.77908148245,
			"-0.01": 3.77562211825,
			"-0.009": 5.13329599892,
			"-0.008": 4.26901617946,
			"-0.007": 5.17507455669,
			"-0.006": 6.43665719944,
			"-0.005": 5.87677907507,
			"-0.004": 7.47514624163,
			"-0.003": 9.13148011621,
			"-0.002": 9.55877431339,
			"-0.001": 13.1233789708,
			"0.0": 13.4867913292,
			"0.001": 10.6263359874,
			"0.002": 14.9051796103,
			"0.003": 21.1598450992,
			"0.004": 5.72710001106,
			"0.005": 3.96925272911,
			"0.006": 1.58216644692,
			"0.007": 2.27188363465,
			"0.008": 3.4727909005,
			"0.009": 4.07462897492,
			"0.01": 4.6926857836,
			"0.011": 5.76480282924,
			"0.012": 3.59442034058,
			"0.013": 0.815081016808,
			"0.014": 0.0,
			"0.015": 0.0,
			"0.016": 0.0,
			"0.017": 0.0,
			"0.018": 0.0,
			"0.019": 0.0,
			"0.02": 0.0,
			"0.021": 0.0,
			"0.022": 0.0,
			"0.023": 0.0,
			"0.024": 0.0,
			"0.025": 0.0
		}
	}
}
