{
	 "smiles": "COC1=C(OC2=C(N)C=C(F)C=C2)C=CC(C)=C1", 
	 "Tm": 334.15, 
	 "num_atms": 32, 
	 "gaussian": { 
		 "optdone": 1, 
		 "sigma_profile": "yes", 
		 "theory": "DFT", 
		 "functional": "B3LYP", 
		 "basiset": "6-31G**", 
		 "properties": { 
			 "R2extent": 5329.3711, 
			 "electric_dipole_moment_norm": 2.88993683149, 
			 "electric_quadrupole_moment_norm": 12.2003388461, 
			 "total_energy": -846.941527113, 
			 "HOMO_LUMO_gap": 0.19851, 
			 "cosmo_polarized_energy": -10.02, 
			 "cosmo_cavitation_energy": 36.36, 
			 "cosmo_dispersion_energy": -25.33, 
			 "cosmo_repulsion_energy": 1.95, 
			 "cosmo_total_nonelectrostatic_energy": 12.98, 
			 "SMD_solvation_energy": 7.68 
		},
		"coords": [
			{
				"x": -0.8070267795,
				"y": 2.5224184826,
				"z": 2.4038105858,
				"element": "C" 
			},
			{
				"x": 0.3262558876,
				"y": 1.7064312551,
				"z": 2.0883938797,
				"element": "O" 
			},
			{
				"x": 0.7670723825,
				"y": 1.7739027566,
				"z": 0.7867839339,
				"element": "C" 
			},
			{
				"x": 0.0158017878,
				"y": 1.2573115983,
				"z": -0.2805112116,
				"element": "C" 
			},
			{
				"x": -1.2659379462,
				"y": 0.7641439972,
				"z": -0.045417231,
				"element": "O" 
			},
			{
				"x": -1.4062225184,
				"y": -0.6265957064,
				"z": 0.0012245629,
				"element": "C" 
			},
			{
				"x": -2.2214982218,
				"y": -1.2142505891,
				"z": -0.9863191444,
				"element": "C" 
			},
			{
				"x": -2.7414173281,
				"y": -0.4248496982,
				"z": -2.0088566183,
				"element": "N" 
			},
			{
				"x": -2.4361268626,
				"y": -2.5992548108,
				"z": -0.9273927814,
				"element": "C" 
			},
			{
				"x": -1.8360621696,
				"y": -3.3386902194,
				"z": 0.0840222975,
				"element": "C" 
			},
			{
				"x": -2.0559657638,
				"y": -4.6724417873,
				"z": 0.1151232058,
				"element": "F" 
			},
			{
				"x": -1.0293529391,
				"y": -2.7661525632,
				"z": 1.0598419817,
				"element": "C" 
			},
			{
				"x": -0.8251676855,
				"y": -1.3850444957,
				"z": 1.0099933774,
				"element": "C" 
			},
			{
				"x": 0.53556861,
				"y": 1.2834125387,
				"z": -1.5726087276,
				"element": "C" 
			},
			{
				"x": 1.8040371289,
				"y": 1.8145032797,
				"z": -1.8070159739,
				"element": "C" 
			},
			{
				"x": 2.5737432139,
				"y": 2.3296747814,
				"z": -0.7563049906,
				"element": "C" 
			},
			{
				"x": 3.9613270244,
				"y": 2.876679319,
				"z": -0.998826472,
				"element": "C" 
			},
			{
				"x": 2.0324631867,
				"y": 2.3069952188,
				"z": 0.5351239726,
				"element": "C" 
			},
			{
				"x": -0.5817980818,
				"y": 3.5824433564,
				"z": 2.2296627948,
				"element": "H" 
			},
			{
				"x": -1.0066175867,
				"y": 2.367409247,
				"z": 3.4660775503,
				"element": "H" 
			},
			{
				"x": -1.6840252352,
				"y": 2.2328108603,
				"z": 1.8180951614,
				"element": "H" 
			},
			{
				"x": -3.5825681391,
				"y": -0.7787192962,
				"z": -2.4424871886,
				"element": "H" 
			},
			{
				"x": -2.8013684924,
				"y": 0.5554947804,
				"z": -1.7678626822,
				"element": "H" 
			},
			{
				"x": -3.0515628095,
				"y": -3.1030748575,
				"z": -1.6656595721,
				"element": "H" 
			},
			{
				"x": -0.5874904089,
				"y": -3.3834572918,
				"z": 1.8329893829,
				"element": "H" 
			},
			{
				"x": -0.2228937537,
				"y": -0.8795806593,
				"z": 1.7577631406,
				"element": "H" 
			},
			{
				"x": -0.0636518099,
				"y": 0.8783094275,
				"z": -2.3824209775,
				"element": "H" 
			},
			{
				"x": 2.1988079714,
				"y": 1.8265842031,
				"z": -2.8193635904,
				"element": "H" 
			},
			{
				"x": 4.0974318413,
				"y": 3.1700168066,
				"z": -2.043741878,
				"element": "H" 
			},
			{
				"x": 4.7289922143,
				"y": 2.1282097833,
				"z": -0.7659432329,
				"element": "H" 
			},
			{
				"x": 4.1631583446,
				"y": 3.7514848345,
				"z": -0.3727002367,
				"element": "H" 
			},
			{
				"x": 2.5934949384,
				"y": 2.6942754482,
				"z": 1.381026682,
				"element": "H" 
			}
		],
		 "valence_orbital": [ 
			{
				"type": "occ",
				"energy": -0.27619,
				"method": "rhf"
			},
			{
				"type": "occ",
				"energy": -0.24313,
				"method": "rhf"
			},
			{
				"type": "occ",
				"energy": -0.23542,
				"method": "rhf"
			},
			{
				"type": "occ",
				"energy": -0.22637,
				"method": "rhf"
			},
			{
				"type": "occ",
				"energy": -0.20299,
				"method": "rhf"
			},
			{
				"type": "unocc",
				"energy": -0.00448,
				"method": "rhf"
			},
			{
				"type": "unocc",
				"energy": 0.00275,
				"method": "rhf"
			},
			{
				"type": "unocc",
				"energy": 0.00602,
				"method": "rhf"
			},
			{
				"type": "unocc",
				"energy": 0.02266,
				"method": "rhf"
			},
			{
				"type": "unocc",
				"energy": 0.08198,
				"method": "rhf"
			}
		],
		"cosmo_sigma_profile": { 
			"-0.025": 0.0,
			"-0.024": 0.0,
			"-0.023": 0.0,
			"-0.022": 0.0,
			"-0.021": 0.0,
			"-0.02": 0.0,
			"-0.019": 0.0,
			"-0.018": 0.0,
			"-0.017": 0.0,
			"-0.016": 0.0,
			"-0.015": 0.0,
			"-0.014": 0.00163592588664,
			"-0.013": 0.875259588879,
			"-0.012": 1.47761379394,
			"-0.011": 2.1986224668,
			"-0.01": 2.38391010597,
			"-0.009": 2.93693710581,
			"-0.008": 2.00112034014,
			"-0.007": 4.14009544066,
			"-0.006": 6.90797034278,
			"-0.005": 14.7817976335,
			"-0.004": 22.3186182519,
			"-0.003": 24.3856544587,
			"-0.002": 23.9651876568,
			"-0.001": 22.2326504072,
			"0.0": 21.6669748266,
			"0.001": 19.5886301044,
			"0.002": 23.167471678,
			"0.003": 25.6234431157,
			"0.004": 32.863377957,
			"0.005": 23.3243985996,
			"0.006": 3.73919802341,
			"0.007": 2.01102424052,
			"0.008": 1.25308260621,
			"0.009": 1.45536891935,
			"0.01": 1.87987533904,
			"0.011": 1.01447928546,
			"0.012": 0.944375302512,
			"0.013": 0.232721315153,
			"0.014": 0.0,
			"0.015": 0.0,
			"0.016": 0.0,
			"0.017": 0.0,
			"0.018": 0.0,
			"0.019": 0.0,
			"0.02": 0.0,
			"0.021": 0.0,
			"0.022": 0.0,
			"0.023": 0.0,
			"0.024": 0.0,
			"0.025": 0.0
		}
	}
}
