{
	 "smiles": "C1CC(CCN1)N1C=NC=N1", 
	 "Tm": 371.15, 
	 "num_atms": 23, 
	 "gaussian": { 
		 "optdone": 1, 
		 "sigma_profile": "yes", 
		 "theory": "DFT", 
		 "functional": "B3LYP", 
		 "basiset": "6-31G**", 
		 "properties": { 
			 "R2extent": 2452.8254, 
			 "electric_dipole_moment_norm": 3.85043249649, 
			 "electric_quadrupole_moment_norm": 8.41804134998, 
			 "total_energy": -492.958237354, 
			 "HOMO_LUMO_gap": 0.23898, 
			 "cosmo_polarized_energy": -11.16, 
			 "cosmo_cavitation_energy": 24.85, 
			 "cosmo_dispersion_energy": -18.49, 
			 "cosmo_repulsion_energy": 1.48, 
			 "cosmo_total_nonelectrostatic_energy": 7.83, 
			 "SMD_solvation_energy": 0.05 
		},
		"coords": [
			{
				"x": 1.7241018312,
				"y": -1.9757424167,
				"z": 1.0901161521,
				"element": "C" 
			},
			{
				"x": 1.7116897775,
				"y": -0.5326354216,
				"z": 1.6435182271,
				"element": "C" 
			},
			{
				"x": 0.8821465347,
				"y": 0.3895777082,
				"z": 0.7228934601,
				"element": "C" 
			},
			{
				"x": -0.3136465743,
				"y": -0.3739073478,
				"z": 0.134496079,
				"element": "C" 
			},
			{
				"x": 0.1778333759,
				"y": -1.5557012987,
				"z": -0.736564404,
				"element": "C" 
			},
			{
				"x": 1.5490273211,
				"y": -1.9237554983,
				"z": -0.3619066855,
				"element": "N" 
			},
			{
				"x": 0.4479813353,
				"y": 1.5916043721,
				"z": 1.4367858633,
				"element": "N" 
			},
			{
				"x": 0.7217299018,
				"y": 2.8889384421,
				"z": 1.1716072102,
				"element": "C" 
			},
			{
				"x": 0.1238631037,
				"y": 3.6830351291,
				"z": 2.0461957157,
				"element": "N" 
			},
			{
				"x": -0.5232567075,
				"y": 2.792652599,
				"z": 2.8469564936,
				"element": "C" 
			},
			{
				"x": -0.3624215576,
				"y": 1.515740528,
				"z": 2.524061016,
				"element": "N" 
			},
			{
				"x": 0.9431734612,
				"y": -2.5770706453,
				"z": 1.5919504254,
				"element": "H" 
			},
			{
				"x": 2.6815327546,
				"y": -2.4560821425,
				"z": 1.3131404949,
				"element": "H" 
			},
			{
				"x": 1.2727138904,
				"y": -0.5136242656,
				"z": 2.645100449,
				"element": "H" 
			},
			{
				"x": 2.7297623972,
				"y": -0.1372503814,
				"z": 1.7201791245,
				"element": "H" 
			},
			{
				"x": 1.5129875336,
				"y": 0.7482058229,
				"z": -0.0954906851,
				"element": "H" 
			},
			{
				"x": -0.9296269003,
				"y": -0.7293408678,
				"z": 0.9663526243,
				"element": "H" 
			},
			{
				"x": -0.9409837274,
				"y": 0.3013766439,
				"z": -0.4553273675,
				"element": "H" 
			},
			{
				"x": 0.1818869715,
				"y": -1.2701820262,
				"z": -1.7952723259,
				"element": "H" 
			},
			{
				"x": -0.5369242127,
				"y": -2.3912220042,
				"z": -0.630658578,
				"element": "H" 
			},
			{
				"x": 1.7998160133,
				"y": -2.8102539362,
				"z": -0.7879972137,
				"element": "H" 
			},
			{
				"x": 1.3509022346,
				"y": 3.1987950062,
				"z": 0.3482384804,
				"element": "H" 
			},
			{
				"x": -1.1298887579,
				"y": 3.0893420007,
				"z": 3.6918254438,
				"element": "H" 
			}
		],
		 "valence_orbital": [ 
			{
				"type": "occ",
				"energy": -0.31475,
				"method": "rhf"
			},
			{
				"type": "occ",
				"energy": -0.27763,
				"method": "rhf"
			},
			{
				"type": "occ",
				"energy": -0.26808,
				"method": "rhf"
			},
			{
				"type": "occ",
				"energy": -0.25707,
				"method": "rhf"
			},
			{
				"type": "occ",
				"energy": -0.22554,
				"method": "rhf"
			},
			{
				"type": "unocc",
				"energy": 0.01344,
				"method": "rhf"
			},
			{
				"type": "unocc",
				"energy": 0.05976,
				"method": "rhf"
			},
			{
				"type": "unocc",
				"energy": 0.06862,
				"method": "rhf"
			},
			{
				"type": "unocc",
				"energy": 0.09136,
				"method": "rhf"
			},
			{
				"type": "unocc",
				"energy": 0.11938,
				"method": "rhf"
			}
		],
		"cosmo_sigma_profile": { 
			"-0.025": 0.0,
			"-0.024": 0.0,
			"-0.023": 0.0,
			"-0.022": 0.0,
			"-0.021": 0.0,
			"-0.02": 0.0,
			"-0.019": 0.0,
			"-0.018": 0.0,
			"-0.017": 0.0,
			"-0.016": 0.0,
			"-0.015": 0.0,
			"-0.014": 0.0,
			"-0.013": 0.0,
			"-0.012": 0.0,
			"-0.011": 0.0617318915838,
			"-0.01": 3.09696525536,
			"-0.009": 4.50234763576,
			"-0.008": 4.71375013254,
			"-0.007": 5.76083271843,
			"-0.006": 4.78007732358,
			"-0.005": 6.60659302167,
			"-0.004": 12.3798879788,
			"-0.003": 21.4444835511,
			"-0.002": 28.0338425632,
			"-0.001": 24.0829869529,
			"0.0": 16.1561661958,
			"0.001": 7.77931600914,
			"0.002": 7.64729971266,
			"0.003": 6.39270999495,
			"0.004": 5.59589022383,
			"0.005": 5.17406511179,
			"0.006": 3.66507260073,
			"0.007": 4.23009931314,
			"0.008": 3.51234069197,
			"0.009": 2.20469631408,
			"0.01": 2.68468718406,
			"0.011": 2.89423492421,
			"0.012": 2.65014096099,
			"0.013": 2.43670967173,
			"0.014": 2.04205054329,
			"0.015": 1.88902498863,
			"0.016": 1.40758878364,
			"0.017": 0.83252514154,
			"0.018": 0.00161880293989,
			"0.019": 0.0,
			"0.02": 0.0,
			"0.021": 0.0,
			"0.022": 0.0,
			"0.023": 0.0,
			"0.024": 0.0,
			"0.025": 0.0
		}
	}
}
