{
	 "smiles": "COCCC#N", 
	 "Tm": 210.25, 
	 "num_atms": 13, 
	 "gaussian": { 
		 "optdone": 1, 
		 "sigma_profile": "yes", 
		 "theory": "DFT", 
		 "functional": "B3LYP", 
		 "basiset": "6-31G**", 
		 "properties": { 
			 "R2extent": 1124.234, 
			 "electric_dipole_moment_norm": 4.59981501585, 
			 "electric_quadrupole_moment_norm": 15.8897140506, 
			 "total_energy": -286.583681605, 
			 "HOMO_LUMO_gap": 0.30419, 
			 "cosmo_polarized_energy": -11.05, 
			 "cosmo_cavitation_energy": 17.45, 
			 "cosmo_dispersion_energy": -12.3, 
			 "cosmo_repulsion_energy": 1.1, 
			 "cosmo_total_nonelectrostatic_energy": 6.25, 
			 "SMD_solvation_energy": 5.2 
		},
		"coords": [
			{
				"x": -1.4905450048,
				"y": -0.5868684276,
				"z": -1.3269600719,
				"element": "C" 
			},
			{
				"x": -0.0980159172,
				"y": -0.8284929165,
				"z": -1.2843100541,
				"element": "O" 
			},
			{
				"x": 0.563467279,
				"y": -0.0675485339,
				"z": -0.3026924081,
				"element": "C" 
			},
			{
				"x": 2.0649290517,
				"y": -0.3520151933,
				"z": -0.4155334338,
				"element": "C" 
			},
			{
				"x": 2.644457202,
				"y": 0.1258343047,
				"z": -1.6742253901,
				"element": "C" 
			},
			{
				"x": 3.1111883016,
				"y": 0.5195242754,
				"z": -2.6608462496,
				"element": "N" 
			},
			{
				"x": -1.9788566187,
				"y": -0.8434472818,
				"z": -0.3737354194,
				"element": "H" 
			},
			{
				"x": -1.9020357067,
				"y": -1.2187448575,
				"z": -2.1166737962,
				"element": "H" 
			},
			{
				"x": -1.7134311476,
				"y": 0.4656122395,
				"z": -1.5593355972,
				"element": "H" 
			},
			{
				"x": 0.3707370134,
				"y": 1.0092348659,
				"z": -0.4352803386,
				"element": "H" 
			},
			{
				"x": 0.2263273511,
				"y": -0.3437183258,
				"z": 0.7107649296,
				"element": "H" 
			},
			{
				"x": 2.5935007868,
				"y": 0.1252904228,
				"z": 0.4174005721,
				"element": "H" 
			},
			{
				"x": 2.2308774091,
				"y": -1.4319605719,
				"z": -0.3375727427,
				"element": "H" 
			}
		],
		 "valence_orbital": [ 
			{
				"type": "occ",
				"energy": -0.35182,
				"method": "rhf"
			},
			{
				"type": "occ",
				"energy": -0.33774,
				"method": "rhf"
			},
			{
				"type": "occ",
				"energy": -0.31974,
				"method": "rhf"
			},
			{
				"type": "occ",
				"energy": -0.31847,
				"method": "rhf"
			},
			{
				"type": "occ",
				"energy": -0.27153,
				"method": "rhf"
			},
			{
				"type": "unocc",
				"energy": 0.03266,
				"method": "rhf"
			},
			{
				"type": "unocc",
				"energy": 0.04272,
				"method": "rhf"
			},
			{
				"type": "unocc",
				"energy": 0.08774,
				"method": "rhf"
			},
			{
				"type": "unocc",
				"energy": 0.09958,
				"method": "rhf"
			},
			{
				"type": "unocc",
				"energy": 0.12825,
				"method": "rhf"
			}
		],
		"cosmo_sigma_profile": { 
			"-0.025": 0.0,
			"-0.024": 0.0,
			"-0.023": 0.0,
			"-0.022": 0.0,
			"-0.021": 0.0,
			"-0.02": 0.0,
			"-0.019": 0.0,
			"-0.018": 0.0,
			"-0.017": 0.0,
			"-0.016": 0.0,
			"-0.015": 0.0,
			"-0.014": 0.0,
			"-0.013": 0.0,
			"-0.012": 0.0,
			"-0.011": 0.0,
			"-0.01": 0.0,
			"-0.009": 1.73593999782,
			"-0.008": 5.43682599314,
			"-0.007": 5.46963327399,
			"-0.006": 7.56852274529,
			"-0.005": 15.6631241954,
			"-0.004": 17.438887984,
			"-0.003": 13.5438709226,
			"-0.002": 12.4265996018,
			"-0.001": 5.2835214134,
			"0.0": 3.62631020098,
			"0.001": 2.62337512473,
			"0.002": 3.42829873487,
			"0.003": 3.32051832064,
			"0.004": 2.97156040118,
			"0.005": 3.0907002602,
			"0.006": 5.68008347624,
			"0.007": 4.5966028659,
			"0.008": 3.91692862082,
			"0.009": 4.92322942032,
			"0.01": 4.87214378042,
			"0.011": 4.63638481105,
			"0.012": 3.20364830869,
			"0.013": 2.00724590771,
			"0.014": 0.513034157739,
			"0.015": 0.0,
			"0.016": 0.0,
			"0.017": 0.0,
			"0.018": 0.0,
			"0.019": 0.0,
			"0.02": 0.0,
			"0.021": 0.0,
			"0.022": 0.0,
			"0.023": 0.0,
			"0.024": 0.0,
			"0.025": 0.0
		}
	}
}
