{
	 "smiles": "CC1=C(N=C(O1)C1=CC=CC=C1)C(O)=O", 
	 "Tm": 455.15, 
	 "num_atms": 24, 
	 "gaussian": { 
		 "optdone": 1, 
		 "sigma_profile": "yes", 
		 "theory": "DFT", 
		 "functional": "B3LYP", 
		 "basiset": "6-31G**", 
		 "properties": { 
			 "R2extent": 4362.9615, 
			 "electric_dipole_moment_norm": 5.89338220295, 
			 "electric_quadrupole_moment_norm": 20.4579504702, 
			 "total_energy": -705.021944668, 
			 "HOMO_LUMO_gap": 0.18019, 
			 "cosmo_polarized_energy": -18.76, 
			 "cosmo_cavitation_energy": 29.43, 
			 "cosmo_dispersion_energy": -21.55, 
			 "cosmo_repulsion_energy": 1.69, 
			 "cosmo_total_nonelectrostatic_energy": 9.57, 
			 "SMD_solvation_energy": 5.18 
		},
		"coords": [
			{
				"x": -2.029610611,
				"y": -0.0202666458,
				"z": 1.204686816,
				"element": "C" 
			},
			{
				"x": -0.9547226559,
				"y": 0.1640902972,
				"z": 0.1924475039,
				"element": "C" 
			},
			{
				"x": -0.8879477592,
				"y": 0.5858461219,
				"z": -1.1114143983,
				"element": "C" 
			},
			{
				"x": 0.4138380676,
				"y": 0.4590439309,
				"z": -1.5730181729,
				"element": "N" 
			},
			{
				"x": 1.0853844629,
				"y": -0.0047947613,
				"z": -0.5626703195,
				"element": "C" 
			},
			{
				"x": 0.3085807146,
				"y": -0.215615603,
				"z": 0.5516054709,
				"element": "O" 
			},
			{
				"x": 2.5102980475,
				"y": -0.3104726627,
				"z": -0.4832920833,
				"element": "C" 
			},
			{
				"x": 3.3121461837,
				"y": -0.1104478087,
				"z": -1.6194087293,
				"element": "C" 
			},
			{
				"x": 4.6729846359,
				"y": -0.3963275047,
				"z": -1.5676521728,
				"element": "C" 
			},
			{
				"x": 5.2467118845,
				"y": -0.8820967321,
				"z": -0.38884333,
				"element": "C" 
			},
			{
				"x": 4.451444919,
				"y": -1.0817961717,
				"z": 0.7416663465,
				"element": "C" 
			},
			{
				"x": 3.0878187964,
				"y": -0.7983678696,
				"z": 0.6993125869,
				"element": "C" 
			},
			{
				"x": -1.9823882969,
				"y": 1.0313212087,
				"z": -2.0154059529,
				"element": "C" 
			},
			{
				"x": -3.0225320515,
				"y": 1.6735024235,
				"z": -1.3992430338,
				"element": "O" 
			},
			{
				"x": -2.0021109429,
				"y": 0.8347999551,
				"z": -3.2020567302,
				"element": "O" 
			},
			{
				"x": -2.0188404064,
				"y": -1.0451345103,
				"z": 1.5901119466,
				"element": "H" 
			},
			{
				"x": -3.0082663627,
				"y": 0.1620733046,
				"z": 0.7565835606,
				"element": "H" 
			},
			{
				"x": -1.9001501613,
				"y": 0.6526376598,
				"z": 2.0607311227,
				"element": "H" 
			},
			{
				"x": 2.8517140668,
				"y": 0.2658860199,
				"z": -2.5266198183,
				"element": "H" 
			},
			{
				"x": 5.2885696061,
				"y": -0.2407498158,
				"z": -2.4486003371,
				"element": "H" 
			},
			{
				"x": 6.3091924338,
				"y": -1.104218034,
				"z": -0.3522272886,
				"element": "H" 
			},
			{
				"x": 4.8936263064,
				"y": -1.4592320209,
				"z": 1.6589220269,
				"element": "H" 
			},
			{
				"x": 2.4684224098,
				"y": -0.9530965051,
				"z": 1.5762927632,
				"element": "H" 
			},
			{
				"x": -2.749463287,
				"y": 1.959815724,
				"z": -0.5165077772,
				"element": "H" 
			}
		],
		 "valence_orbital": [ 
			{
				"type": "occ",
				"energy": -0.2994,
				"method": "rhf"
			},
			{
				"type": "occ",
				"energy": -0.29144,
				"method": "rhf"
			},
			{
				"type": "occ",
				"energy": -0.27301,
				"method": "rhf"
			},
			{
				"type": "occ",
				"energy": -0.26266,
				"method": "rhf"
			},
			{
				"type": "occ",
				"energy": -0.23302,
				"method": "rhf"
			},
			{
				"type": "unocc",
				"energy": -0.05283,
				"method": "rhf"
			},
			{
				"type": "unocc",
				"energy": -0.03056,
				"method": "rhf"
			},
			{
				"type": "unocc",
				"energy": -0.01121,
				"method": "rhf"
			},
			{
				"type": "unocc",
				"energy": 0.04602,
				"method": "rhf"
			},
			{
				"type": "unocc",
				"energy": 0.05364,
				"method": "rhf"
			}
		],
		"cosmo_sigma_profile": { 
			"-0.025": 0.0,
			"-0.024": 0.0,
			"-0.023": 0.0,
			"-0.022": 0.0,
			"-0.021": 0.0,
			"-0.02": 0.0,
			"-0.019": 0.141539668351,
			"-0.018": 0.732892694088,
			"-0.017": 0.788431126615,
			"-0.016": 0.815444020748,
			"-0.015": 1.12014718935,
			"-0.014": 1.09494683067,
			"-0.013": 0.748980990064,
			"-0.012": 1.14871455631,
			"-0.011": 1.39027776092,
			"-0.01": 0.574243913078,
			"-0.009": 0.806962240472,
			"-0.008": 1.57810110174,
			"-0.007": 5.87597385485,
			"-0.006": 16.5625056234,
			"-0.005": 18.1974547027,
			"-0.004": 19.1518070648,
			"-0.003": 19.7956643728,
			"-0.002": 17.2299472324,
			"-0.001": 13.6736997265,
			"0.0": 13.0370261177,
			"0.001": 13.6777772071,
			"0.002": 14.2912576583,
			"0.003": 14.2308991276,
			"0.004": 16.1999497147,
			"0.005": 5.91339230213,
			"0.006": 3.27150977671,
			"0.007": 3.04868317476,
			"0.008": 3.45307540024,
			"0.009": 5.30646706785,
			"0.01": 6.17277640331,
			"0.011": 6.92255304871,
			"0.012": 5.48584236149,
			"0.013": 2.93517054655,
			"0.014": 1.04810849446,
			"0.015": 0.0260839916461,
			"0.016": 0.0,
			"0.017": 0.0,
			"0.018": 0.0,
			"0.019": 0.0,
			"0.02": 0.0,
			"0.021": 0.0,
			"0.022": 0.0,
			"0.023": 0.0,
			"0.024": 0.0,
			"0.025": 0.0
		}
	}
}
