{
	 "smiles": "ClC1=CC=C(OCC#N)C(Cl)=C1", 
	 "Tm": 320.15, 
	 "num_atms": 17, 
	 "gaussian": { 
		 "optdone": 1, 
		 "sigma_profile": "yes", 
		 "theory": "DFT", 
		 "functional": "B3LYP", 
		 "basiset": "6-31G**", 
		 "properties": { 
			 "R2extent": 3262.1141, 
			 "electric_dipole_moment_norm": 1.69197111086, 
			 "electric_quadrupole_moment_norm": 12.8016714752, 
			 "total_energy": -1358.17874027, 
			 "HOMO_LUMO_gap": 0.21992, 
			 "cosmo_polarized_energy": -9.83, 
			 "cosmo_cavitation_energy": 26.46, 
			 "cosmo_dispersion_energy": -18.74, 
			 "cosmo_repulsion_energy": 1.51, 
			 "cosmo_total_nonelectrostatic_energy": 9.24, 
			 "SMD_solvation_energy": 5.68 
		},
		"coords": [
			{
				"x": 2.3244165975,
				"y": -1.0808100947,
				"z": -3.1375599083,
				"element": "Cl" 
			},
			{
				"x": 1.4959135509,
				"y": -0.7031740947,
				"z": -1.6392050625,
				"element": "C" 
			},
			{
				"x": 0.110022763,
				"y": -0.5480032699,
				"z": -1.63675682,
				"element": "C" 
			},
			{
				"x": -0.5349069981,
				"y": -0.2482501318,
				"z": -0.4387718622,
				"element": "C" 
			},
			{
				"x": 0.1881907737,
				"y": -0.1054849295,
				"z": 0.7468577523,
				"element": "C" 
			},
			{
				"x": -0.4829137623,
				"y": 0.1261498306,
				"z": 1.9299209147,
				"element": "O" 
			},
			{
				"x": -0.5248143942,
				"y": 1.4817245262,
				"z": 2.3695079531,
				"element": "C" 
			},
			{
				"x": -1.432596741,
				"y": 2.3082716518,
				"z": 1.5513952642,
				"element": "C" 
			},
			{
				"x": -2.1482592568,
				"y": 2.946813165,
				"z": 0.8985944867,
				"element": "N" 
			},
			{
				"x": 1.5808851566,
				"y": -0.2700904347,
				"z": 0.7208775617,
				"element": "C" 
			},
			{
				"x": 2.5084519028,
				"y": -0.119524543,
				"z": 2.1984247675,
				"element": "Cl" 
			},
			{
				"x": 2.2425004476,
				"y": -0.5692624127,
				"z": -0.4691541408,
				"element": "C" 
			},
			{
				"x": -0.453851609,
				"y": -0.6581870933,
				"z": -2.5556177963,
				"element": "H" 
			},
			{
				"x": -1.6117059662,
				"y": -0.124132299,
				"z": -0.4040339354,
				"element": "H" 
			},
			{
				"x": -0.8939086557,
				"y": 1.4549736177,
				"z": 3.3981319319,
				"element": "H" 
			},
			{
				"x": 0.4727674445,
				"y": 1.9364105712,
				"z": 2.3726633565,
				"element": "H" 
			},
			{
				"x": 3.3177087468,
				"y": -0.6988240592,
				"z": -0.4780744631,
				"element": "H" 
			}
		],
		 "valence_orbital": [ 
			{
				"type": "occ",
				"energy": -0.3294,
				"method": "rhf"
			},
			{
				"type": "occ",
				"energy": -0.32601,
				"method": "rhf"
			},
			{
				"type": "occ",
				"energy": -0.31904,
				"method": "rhf"
			},
			{
				"type": "occ",
				"energy": -0.27586,
				"method": "rhf"
			},
			{
				"type": "occ",
				"energy": -0.25775,
				"method": "rhf"
			},
			{
				"type": "unocc",
				"energy": -0.03783,
				"method": "rhf"
			},
			{
				"type": "unocc",
				"energy": -0.03495,
				"method": "rhf"
			},
			{
				"type": "unocc",
				"energy": -0.00799,
				"method": "rhf"
			},
			{
				"type": "unocc",
				"energy": -0.00046,
				"method": "rhf"
			},
			{
				"type": "unocc",
				"energy": 0.02337,
				"method": "rhf"
			}
		],
		"cosmo_sigma_profile": { 
			"-0.025": 0.0,
			"-0.024": 0.0,
			"-0.023": 0.0,
			"-0.022": 0.0,
			"-0.021": 0.0,
			"-0.02": 0.0,
			"-0.019": 0.0,
			"-0.018": 0.0,
			"-0.017": 0.0,
			"-0.016": 0.0,
			"-0.015": 0.0,
			"-0.014": 0.0,
			"-0.013": 0.0,
			"-0.012": 0.0,
			"-0.011": 1.05154339565,
			"-0.01": 4.77225059993,
			"-0.009": 5.84875218406,
			"-0.008": 8.92411113316,
			"-0.007": 8.8263768243,
			"-0.006": 7.87040837555,
			"-0.005": 5.98356125689,
			"-0.004": 7.76466914747,
			"-0.003": 9.71167798804,
			"-0.002": 11.7435164864,
			"-0.001": 15.4068406565,
			"0.0": 21.7113431488,
			"0.001": 26.4812419812,
			"0.002": 18.3808440292,
			"0.003": 15.8853457457,
			"0.004": 18.1428852354,
			"0.005": 6.09385522935,
			"0.006": 3.57762025986,
			"0.007": 4.30094544451,
			"0.008": 4.29959300706,
			"0.009": 4.1920239475,
			"0.01": 2.81516751732,
			"0.011": 2.26733654209,
			"0.012": 1.97238429549,
			"0.013": 0.308997894491,
			"0.014": 0.0,
			"0.015": 0.0,
			"0.016": 0.0,
			"0.017": 0.0,
			"0.018": 0.0,
			"0.019": 0.0,
			"0.02": 0.0,
			"0.021": 0.0,
			"0.022": 0.0,
			"0.023": 0.0,
			"0.024": 0.0,
			"0.025": 0.0
		}
	}
}
