{
	 "smiles": "OCCC#C", 
	 "Tm": 209.85, 
	 "num_atms": 11, 
	 "gaussian": { 
		 "optdone": 1, 
		 "sigma_profile": "yes", 
		 "theory": "DFT", 
		 "functional": "B3LYP", 
		 "basiset": "6-31G**", 
		 "properties": { 
			 "R2extent": 515.7103, 
			 "electric_dipole_moment_norm": 1.37222559734, 
			 "electric_quadrupole_moment_norm": 6.58029204215, 
			 "total_energy": -231.181176957, 
			 "HOMO_LUMO_gap": 0.30346, 
			 "cosmo_polarized_energy": -6.8, 
			 "cosmo_cavitation_energy": 15.15, 
			 "cosmo_dispersion_energy": -10.72, 
			 "cosmo_repulsion_energy": 0.96, 
			 "cosmo_total_nonelectrostatic_energy": 5.4, 
			 "SMD_solvation_energy": 4.06 
		},
		"coords": [
			{
				"x": 0.3032094413,
				"y": 0.111048117,
				"z": -1.3760744822,
				"element": "O" 
			},
			{
				"x": 1.138468706,
				"y": 0.9004060697,
				"z": -0.5547808365,
				"element": "C" 
			},
			{
				"x": 0.4159758139,
				"y": 1.3932814348,
				"z": 0.7169809531,
				"element": "C" 
			},
			{
				"x": -0.0566883835,
				"y": 0.2716825778,
				"z": 1.529521005,
				"element": "C" 
			},
			{
				"x": -0.4368279345,
				"y": -0.6979826297,
				"z": 2.143161403,
				"element": "C" 
			},
			{
				"x": -0.0105133274,
				"y": -0.6271446213,
				"z": -0.8338379927,
				"element": "H" 
			},
			{
				"x": 2.0525309707,
				"y": 0.3605054555,
				"z": -0.262064477,
				"element": "H" 
			},
			{
				"x": 1.4382208345,
				"y": 1.7647065992,
				"z": -1.1554835188,
				"element": "H" 
			},
			{
				"x": 1.0945040859,
				"y": 2.0259348088,
				"z": 1.3039893533,
				"element": "H" 
			},
			{
				"x": -0.4363581408,
				"y": 2.0174813625,
				"z": 0.4220029524,
				"element": "H" 
			},
			{
				"x": -0.7744220662,
				"y": -1.5324191745,
				"z": 2.7131856404,
				"element": "H" 
			}
		],
		 "valence_orbital": [ 
			{
				"type": "occ",
				"energy": -0.4007,
				"method": "rhf"
			},
			{
				"type": "occ",
				"energy": -0.33186,
				"method": "rhf"
			},
			{
				"type": "occ",
				"energy": -0.28333,
				"method": "rhf"
			},
			{
				"type": "occ",
				"energy": -0.27191,
				"method": "rhf"
			},
			{
				"type": "occ",
				"energy": -0.26144,
				"method": "rhf"
			},
			{
				"type": "unocc",
				"energy": 0.04202,
				"method": "rhf"
			},
			{
				"type": "unocc",
				"energy": 0.05037,
				"method": "rhf"
			},
			{
				"type": "unocc",
				"energy": 0.10071,
				"method": "rhf"
			},
			{
				"type": "unocc",
				"energy": 0.11484,
				"method": "rhf"
			},
			{
				"type": "unocc",
				"energy": 0.12664,
				"method": "rhf"
			}
		],
		"cosmo_sigma_profile": { 
			"-0.025": 0.0,
			"-0.024": 0.0,
			"-0.023": 0.0,
			"-0.022": 0.0,
			"-0.021": 0.0,
			"-0.02": 0.0,
			"-0.019": 0.0,
			"-0.018": 0.0,
			"-0.017": 0.0,
			"-0.016": 0.0,
			"-0.015": 0.0,
			"-0.014": 0.0,
			"-0.013": 0.133127043497,
			"-0.012": 0.693994776406,
			"-0.011": 1.80030348462,
			"-0.01": 2.07043375186,
			"-0.009": 1.67503722672,
			"-0.008": 1.8649432026,
			"-0.007": 1.7483016409,
			"-0.006": 5.65379655533,
			"-0.005": 9.25025783997,
			"-0.004": 13.6947147029,
			"-0.003": 11.7386283883,
			"-0.002": 8.80569742411,
			"-0.001": 6.40066680144,
			"0.0": 4.85275026138,
			"0.001": 6.28898310083,
			"0.002": 5.73718416899,
			"0.003": 4.31322737471,
			"0.004": 4.85315984765,
			"0.005": 5.06432295919,
			"0.006": 5.66368011232,
			"0.007": 6.72673266621,
			"0.008": 1.56252444498,
			"0.009": 1.02484281739,
			"0.01": 1.52483420017,
			"0.011": 1.14264150851,
			"0.012": 1.22588680057,
			"0.013": 1.96823036796,
			"0.014": 2.31168979114,
			"0.015": 0.423136602399,
			"0.016": 0.0,
			"0.017": 0.0,
			"0.018": 0.0,
			"0.019": 0.0,
			"0.02": 0.0,
			"0.021": 0.0,
			"0.022": 0.0,
			"0.023": 0.0,
			"0.024": 0.0,
			"0.025": 0.0
		}
	}
}
