{
	 "smiles": "CN(C)C1=NC(Cl)=NC=C1", 
	 "Tm": 353.15, 
	 "num_atms": 18, 
	 "gaussian": { 
		 "optdone": 1, 
		 "sigma_profile": "yes", 
		 "theory": "DFT", 
		 "functional": "B3LYP", 
		 "basiset": "6-31G**", 
		 "properties": { 
			 "R2extent": 3126.0097, 
			 "electric_dipole_moment_norm": 5.91047086957, 
			 "electric_quadrupole_moment_norm": 15.5981294882, 
			 "total_energy": -857.90655848, 
			 "HOMO_LUMO_gap": 0.1989, 
			 "cosmo_polarized_energy": -10.64, 
			 "cosmo_cavitation_energy": 23.32, 
			 "cosmo_dispersion_energy": -17.6, 
			 "cosmo_repulsion_energy": 1.43, 
			 "cosmo_total_nonelectrostatic_energy": 7.15, 
			 "SMD_solvation_energy": 1.47 
		},
		"coords": [
			{
				"x": 1.3549279705,
				"y": 1.2358826936,
				"z": -0.2964941033,
				"element": "C" 
			},
			{
				"x": 1.2517129514,
				"y": -0.1521891061,
				"z": 0.1403921167,
				"element": "N" 
			},
			{
				"x": 1.7044114085,
				"y": -0.4731680033,
				"z": 1.4849183521,
				"element": "C" 
			},
			{
				"x": 0.8445300806,
				"y": -1.1416777119,
				"z": -0.7032599,
				"element": "C" 
			},
			{
				"x": 0.4584825606,
				"y": -0.7876573018,
				"z": -1.9500597415,
				"element": "N" 
			},
			{
				"x": 0.0562268875,
				"y": -1.7612418471,
				"z": -2.7448525883,
				"element": "C" 
			},
			{
				"x": -0.4391872655,
				"y": -1.2505418235,
				"z": -4.3584146028,
				"element": "Cl" 
			},
			{
				"x": -0.028002575,
				"y": -3.0617479302,
				"z": -2.5087228195,
				"element": "N" 
			},
			{
				"x": 0.3635732026,
				"y": -3.4079706766,
				"z": -1.2668029244,
				"element": "C" 
			},
			{
				"x": 0.8099729215,
				"y": -2.5076734247,
				"z": -0.3185971767,
				"element": "C" 
			},
			{
				"x": 0.7895692842,
				"y": 1.8874296611,
				"z": 0.3795474808,
				"element": "H" 
			},
			{
				"x": 2.4017769906,
				"y": 1.5654264871,
				"z": -0.3039902984,
				"element": "H" 
			},
			{
				"x": 0.9487175505,
				"y": 1.3209085913,
				"z": -1.3018035386,
				"element": "H" 
			},
			{
				"x": 1.9090832684,
				"y": 0.4576159189,
				"z": 2.0156053987,
				"element": "H" 
			},
			{
				"x": 2.6247322117,
				"y": -1.0725787849,
				"z": 1.480303934,
				"element": "H" 
			},
			{
				"x": 0.938083918,
				"y": -1.0192942405,
				"z": 2.0470901872,
				"element": "H" 
			},
			{
				"x": 0.3134145864,
				"y": -4.4697920404,
				"z": -1.0337813246,
				"element": "H" 
			},
			{
				"x": 1.1185740476,
				"y": -2.8466304607,
				"z": 0.6608215485,
				"element": "H" 
			}
		],
		 "valence_orbital": [ 
			{
				"type": "occ",
				"energy": -0.30787,
				"method": "rhf"
			},
			{
				"type": "occ",
				"energy": -0.30412,
				"method": "rhf"
			},
			{
				"type": "occ",
				"energy": -0.27419,
				"method": "rhf"
			},
			{
				"type": "occ",
				"energy": -0.25578,
				"method": "rhf"
			},
			{
				"type": "occ",
				"energy": -0.22814,
				"method": "rhf"
			},
			{
				"type": "unocc",
				"energy": -0.02924,
				"method": "rhf"
			},
			{
				"type": "unocc",
				"energy": -0.01109,
				"method": "rhf"
			},
			{
				"type": "unocc",
				"energy": 0.0489,
				"method": "rhf"
			},
			{
				"type": "unocc",
				"energy": 0.07934,
				"method": "rhf"
			},
			{
				"type": "unocc",
				"energy": 0.1049,
				"method": "rhf"
			}
		],
		"cosmo_sigma_profile": { 
			"-0.025": 0.0,
			"-0.024": 0.0,
			"-0.023": 0.0,
			"-0.022": 0.0,
			"-0.021": 0.0,
			"-0.02": 0.0,
			"-0.019": 0.0,
			"-0.018": 0.0,
			"-0.017": 0.0,
			"-0.016": 0.0,
			"-0.015": 0.0,
			"-0.014": 0.0,
			"-0.013": 0.0,
			"-0.012": 0.0,
			"-0.011": 0.0,
			"-0.01": 0.0,
			"-0.009": 0.0,
			"-0.008": 1.38711589201,
			"-0.007": 5.56478572494,
			"-0.006": 9.43616039058,
			"-0.005": 16.4239038624,
			"-0.004": 16.6045528829,
			"-0.003": 16.6343557774,
			"-0.002": 17.5366171532,
			"-0.001": 14.8571210664,
			"0.0": 13.8375951049,
			"0.001": 13.8813460353,
			"0.002": 10.554297184,
			"0.003": 8.45995518095,
			"0.004": 9.68445459549,
			"0.005": 9.78932070803,
			"0.006": 6.08776705305,
			"0.007": 3.96148458183,
			"0.008": 3.57818501137,
			"0.009": 2.76850312598,
			"0.01": 2.10951312435,
			"0.011": 1.22297503124,
			"0.012": 0.985082483364,
			"0.013": 1.0908313106,
			"0.014": 0.56101682813,
			"0.015": 1.16546248455,
			"0.016": 0.1546959681,
			"0.017": 0.0,
			"0.018": 0.0,
			"0.019": 0.0,
			"0.02": 0.0,
			"0.021": 0.0,
			"0.022": 0.0,
			"0.023": 0.0,
			"0.024": 0.0,
			"0.025": 0.0
		}
	}
}
