{
	 "smiles": "OC1C[C@H](N(C1)C(=O)OCC1C2=C(C=CC=C2)C2=C1C=CC=C2)C(O)=O", 
	 "Tm": 463.15, 
	 "num_atms": 45, 
	 "gaussian": { 
		 "optdone": 1, 
		 "sigma_profile": "yes", 
		 "theory": "DFT", 
		 "functional": "B3LYP", 
		 "basiset": "6-31G**", 
		 "properties": { 
			 "R2extent": 12271.0673, 
			 "electric_dipole_moment_norm": 3.18111587497, 
			 "electric_quadrupole_moment_norm": 31.1990142448, 
			 "total_energy": -1204.490342, 
			 "HOMO_LUMO_gap": 0.18435, 
			 "cosmo_polarized_energy": -22.82, 
			 "cosmo_cavitation_energy": 48.75, 
			 "cosmo_dispersion_energy": -33.15, 
			 "cosmo_repulsion_energy": 2.51, 
			 "cosmo_total_nonelectrostatic_energy": 18.11, 
			 "SMD_solvation_energy": 8.65 
		},
		"coords": [
			{
				"x": 1.1666994896,
				"y": -2.5524060062,
				"z": 4.6253044027,
				"element": "O" 
			},
			{
				"x": 1.2040479801,
				"y": -1.3116124065,
				"z": 3.9485730418,
				"element": "C" 
			},
			{
				"x": 2.4080085675,
				"y": -0.4199619376,
				"z": 4.3168084268,
				"element": "C" 
			},
			{
				"x": 2.6263398713,
				"y": 0.4676578661,
				"z": 3.0664421187,
				"element": "C" 
			},
			{
				"x": 1.9729983263,
				"y": -0.2900343968,
				"z": 2.0021292541,
				"element": "N" 
			},
			{
				"x": 1.4095105942,
				"y": -1.5605033141,
				"z": 2.450793677,
				"element": "C" 
			},
			{
				"x": 2.0042345251,
				"y": 0.1907403263,
				"z": 0.7296518988,
				"element": "C" 
			},
			{
				"x": 2.5199993517,
				"y": 1.2546965816,
				"z": 0.4187582518,
				"element": "O" 
			},
			{
				"x": 1.3797629957,
				"y": -0.6510654783,
				"z": -0.1367918075,
				"element": "O" 
			},
			{
				"x": 1.4017777568,
				"y": -0.2412532942,
				"z": -1.518933882,
				"element": "C" 
			},
			{
				"x": 0.29201793,
				"y": 0.7713909315,
				"z": -1.852156148,
				"element": "C" 
			},
			{
				"x": 0.3816478382,
				"y": 1.2230751873,
				"z": -3.3016598346,
				"element": "C" 
			},
			{
				"x": -0.8155609725,
				"y": 0.9236185768,
				"z": -3.9838244318,
				"element": "C" 
			},
			{
				"x": -0.9578798432,
				"y": 1.2441220364,
				"z": -5.3355679045,
				"element": "C" 
			},
			{
				"x": 0.1053428853,
				"y": 1.8631446451,
				"z": -5.9971774661,
				"element": "C" 
			},
			{
				"x": 1.2920220659,
				"y": 2.1619297858,
				"z": -5.3188628319,
				"element": "C" 
			},
			{
				"x": 1.4365103113,
				"y": 1.8429673907,
				"z": -3.9633478944,
				"element": "C" 
			},
			{
				"x": -1.7463420778,
				"y": 0.2933615926,
				"z": -3.0382189563,
				"element": "C" 
			},
			{
				"x": -1.117026242,
				"y": 0.2041003944,
				"z": -1.7778781873,
				"element": "C" 
			},
			{
				"x": -1.7938806272,
				"y": -0.3467994706,
				"z": -0.694143471,
				"element": "C" 
			},
			{
				"x": -3.1013023061,
				"y": -0.8136882915,
				"z": -0.87423225,
				"element": "C" 
			},
			{
				"x": -3.7230971819,
				"y": -0.7270647903,
				"z": -2.1243569528,
				"element": "C" 
			},
			{
				"x": -3.0510554539,
				"y": -0.1717817683,
				"z": -3.2154484293,
				"element": "C" 
			},
			{
				"x": 4.1172006985,
				"y": 0.6577360619,
				"z": 2.7904791704,
				"element": "C" 
			},
			{
				"x": 4.5621507814,
				"y": 1.8203271479,
				"z": 3.3150222484,
				"element": "O" 
			},
			{
				"x": 4.8321135256,
				"y": -0.1466706437,
				"z": 2.2407692644,
				"element": "O" 
			},
			{
				"x": 0.9188143776,
				"y": -2.3918733191,
				"z": 5.5443174113,
				"element": "H" 
			},
			{
				"x": 0.2674651072,
				"y": -0.7515312997,
				"z": 4.0958605292,
				"element": "H" 
			},
			{
				"x": 2.2583614977,
				"y": 0.1737455242,
				"z": 5.2220699146,
				"element": "H" 
			},
			{
				"x": 3.2687570523,
				"y": -1.0794628655,
				"z": 4.4683290223,
				"element": "H" 
			},
			{
				"x": 2.1681886818,
				"y": 1.4555582036,
				"z": 3.1740028616,
				"element": "H" 
			},
			{
				"x": 0.4855767166,
				"y": -1.7905111726,
				"z": 1.9188747326,
				"element": "H" 
			},
			{
				"x": 2.1103123168,
				"y": -2.3944776085,
				"z": 2.313264205,
				"element": "H" 
			},
			{
				"x": 1.2650524944,
				"y": -1.1633383923,
				"z": -2.0873379893,
				"element": "H" 
			},
			{
				"x": 2.3797460353,
				"y": 0.1899390645,
				"z": -1.7417388341,
				"element": "H" 
			},
			{
				"x": 0.4189457941,
				"y": 1.6239537724,
				"z": -1.1726911337,
				"element": "H" 
			},
			{
				"x": -1.8781223265,
				"y": 1.0191070007,
				"z": -5.8677142055,
				"element": "H" 
			},
			{
				"x": 0.0088955207,
				"y": 2.1182247337,
				"z": -7.0487623139,
				"element": "H" 
			},
			{
				"x": 2.1069093499,
				"y": 2.64803403,
				"z": -5.8474614992,
				"element": "H" 
			},
			{
				"x": 2.3570752019,
				"y": 2.0861866002,
				"z": -3.4391812902,
				"element": "H" 
			},
			{
				"x": -1.3160287673,
				"y": -0.4154204777,
				"z": 0.2778443382,
				"element": "H" 
			},
			{
				"x": -3.6387225198,
				"y": -1.246128851,
				"z": -0.0349822187,
				"element": "H" 
			},
			{
				"x": -4.7388453269,
				"y": -1.0924665186,
				"z": -2.2466698463,
				"element": "H" 
			},
			{
				"x": -3.5400121681,
				"y": -0.1026753135,
				"z": -4.1833667587,
				"element": "H" 
			},
			{
				"x": 5.5163901723,
				"y": 1.8543101628,
				"z": 3.1324117674,
				"element": "H" 
			}
		],
		 "valence_orbital": [ 
			{
				"type": "occ",
				"energy": -0.27357,
				"method": "rhf"
			},
			{
				"type": "occ",
				"energy": -0.24758,
				"method": "rhf"
			},
			{
				"type": "occ",
				"energy": -0.24708,
				"method": "rhf"
			},
			{
				"type": "occ",
				"energy": -0.2403,
				"method": "rhf"
			},
			{
				"type": "occ",
				"energy": -0.21278,
				"method": "rhf"
			},
			{
				"type": "unocc",
				"energy": -0.02843,
				"method": "rhf"
			},
			{
				"type": "unocc",
				"energy": -0.00924,
				"method": "rhf"
			},
			{
				"type": "unocc",
				"energy": 0.00702,
				"method": "rhf"
			},
			{
				"type": "unocc",
				"energy": 0.01013,
				"method": "rhf"
			},
			{
				"type": "unocc",
				"energy": 0.04212,
				"method": "rhf"
			}
		],
		"cosmo_sigma_profile": { 
			"-0.025": 0.0,
			"-0.024": 0.0,
			"-0.023": 0.0,
			"-0.022": 0.0,
			"-0.021": 0.0,
			"-0.02": 0.0,
			"-0.019": 0.127382567339,
			"-0.018": 0.89396028924,
			"-0.017": 1.27231654137,
			"-0.016": 1.88571248609,
			"-0.015": 1.65617266709,
			"-0.014": 1.99265469415,
			"-0.013": 1.65767145733,
			"-0.012": 1.86215876876,
			"-0.011": 1.41421925261,
			"-0.01": 0.911839883454,
			"-0.009": 0.990712999933,
			"-0.008": 2.72167729223,
			"-0.007": 3.19453150077,
			"-0.006": 18.0323907813,
			"-0.005": 37.3723183872,
			"-0.004": 36.4041138639,
			"-0.003": 37.0647309831,
			"-0.002": 26.2190410495,
			"-0.001": 23.01594592,
			"0.0": 18.7382798718,
			"0.001": 18.7367659192,
			"0.002": 19.8021955394,
			"0.003": 21.9110117565,
			"0.004": 24.4087254584,
			"0.005": 24.1849922287,
			"0.006": 17.1742640118,
			"0.007": 5.5448699173,
			"0.008": 6.64734876873,
			"0.009": 5.54135783862,
			"0.01": 5.94908466859,
			"0.011": 6.50071291932,
			"0.012": 8.01388499996,
			"0.013": 3.94199739934,
			"0.014": 0.124361144994,
			"0.015": 0.0,
			"0.016": 0.0,
			"0.017": 0.0,
			"0.018": 0.0,
			"0.019": 0.0,
			"0.02": 0.0,
			"0.021": 0.0,
			"0.022": 0.0,
			"0.023": 0.0,
			"0.024": 0.0,
			"0.025": 0.0
		}
	}
}
