{
	 "smiles": "CCCC#C", 
	 "Tm": 183.15, 
	 "num_atms": 13, 
	 "gaussian": { 
		 "optdone": 1, 
		 "sigma_profile": "yes", 
		 "theory": "DFT", 
		 "functional": "B3LYP", 
		 "basiset": "6-31G**", 
		 "properties": { 
			 "R2extent": 713.1572, 
			 "electric_dipole_moment_norm": 0.662280582533, 
			 "electric_quadrupole_moment_norm": 3.59572149505, 
			 "total_energy": -195.288499527, 
			 "HOMO_LUMO_gap": 0.3124, 
			 "cosmo_polarized_energy": -3.43, 
			 "cosmo_cavitation_energy": 16.57, 
			 "cosmo_dispersion_energy": -11.6, 
			 "cosmo_repulsion_energy": 1.04, 
			 "cosmo_total_nonelectrostatic_energy": 6.01, 
			 "SMD_solvation_energy": 4.32 
		},
		"coords": [
			{
				"x": -0.4499703357,
				"y": 0.8585265201,
				"z": -1.4678122122,
				"element": "C" 
			},
			{
				"x": -1.7691889996,
				"y": 1.057762774,
				"z": -0.7183355011,
				"element": "C" 
			},
			{
				"x": -2.1292162852,
				"y": -0.1187733549,
				"z": 0.2170885718,
				"element": "C" 
			},
			{
				"x": -1.1649723056,
				"y": -0.3231638433,
				"z": 1.2996148861,
				"element": "C" 
			},
			{
				"x": -0.3626417692,
				"y": -0.4766583611,
				"z": 2.1899535566,
				"element": "C" 
			},
			{
				"x": -0.2299049338,
				"y": 1.7159864879,
				"z": -2.1116546012,
				"element": "H" 
			},
			{
				"x": 0.382517994,
				"y": 0.7369618213,
				"z": -0.7680313334,
				"element": "H" 
			},
			{
				"x": -0.4862959162,
				"y": -0.034726432,
				"z": -2.1021671036,
				"element": "H" 
			},
			{
				"x": -1.7260294187,
				"y": 1.9788550816,
				"z": -0.1255012269,
				"element": "H" 
			},
			{
				"x": -2.5911115406,
				"y": 1.1820167466,
				"z": -1.4339437675,
				"element": "H" 
			},
			{
				"x": -2.2078288804,
				"y": -1.041683541,
				"z": -0.3741553227,
				"element": "H" 
			},
			{
				"x": -3.1232541594,
				"y": 0.0514478336,
				"z": 0.6506928986,
				"element": "H" 
			},
			{
				"x": 0.3403965506,
				"y": -0.6170517328,
				"z": 2.9776511553,
				"element": "H" 
			}
		],
		 "valence_orbital": [ 
			{
				"type": "occ",
				"energy": -0.3533,
				"method": "rhf"
			},
			{
				"type": "occ",
				"energy": -0.34944,
				"method": "rhf"
			},
			{
				"type": "occ",
				"energy": -0.33816,
				"method": "rhf"
			},
			{
				"type": "occ",
				"energy": -0.25876,
				"method": "rhf"
			},
			{
				"type": "occ",
				"energy": -0.25766,
				"method": "rhf"
			},
			{
				"type": "unocc",
				"energy": 0.05474,
				"method": "rhf"
			},
			{
				"type": "unocc",
				"energy": 0.06175,
				"method": "rhf"
			},
			{
				"type": "unocc",
				"energy": 0.1075,
				"method": "rhf"
			},
			{
				"type": "unocc",
				"energy": 0.13073,
				"method": "rhf"
			},
			{
				"type": "unocc",
				"energy": 0.14278,
				"method": "rhf"
			}
		],
		"cosmo_sigma_profile": { 
			"-0.025": 0.0,
			"-0.024": 0.0,
			"-0.023": 0.0,
			"-0.022": 0.0,
			"-0.021": 0.0,
			"-0.02": 0.0,
			"-0.019": 0.0,
			"-0.018": 0.0,
			"-0.017": 0.0,
			"-0.016": 0.0,
			"-0.015": 0.0,
			"-0.014": 0.0,
			"-0.013": 0.0,
			"-0.012": 0.00350166974686,
			"-0.011": 0.949903442151,
			"-0.01": 1.05050619932,
			"-0.009": 0.896270489818,
			"-0.008": 0.929858178108,
			"-0.007": 1.7492062223,
			"-0.006": 0.984560331249,
			"-0.005": 4.6925931621,
			"-0.004": 6.07046444271,
			"-0.003": 13.7626116847,
			"-0.002": 18.6219946597,
			"-0.001": 15.9174346959,
			"0.0": 13.8276820979,
			"0.001": 13.8718735458,
			"0.002": 7.01029106141,
			"0.003": 4.82508070307,
			"0.004": 4.2727461154,
			"0.005": 5.32940217653,
			"0.006": 5.39509207963,
			"0.007": 6.82171602256,
			"0.008": 3.8488443349,
			"0.009": 0.0,
			"0.01": 0.0,
			"0.011": 0.0,
			"0.012": 0.0,
			"0.013": 0.0,
			"0.014": 0.0,
			"0.015": 0.0,
			"0.016": 0.0,
			"0.017": 0.0,
			"0.018": 0.0,
			"0.019": 0.0,
			"0.02": 0.0,
			"0.021": 0.0,
			"0.022": 0.0,
			"0.023": 0.0,
			"0.024": 0.0,
			"0.025": 0.0
		}
	}
}
