{
	 "smiles": "CC1=C(C=C(S1)C(O)=O)S(N)(=O)=O", 
	 "Tm": 523.15, 
	 "num_atms": 20, 
	 "gaussian": { 
		 "optdone": 1, 
		 "sigma_profile": "yes", 
		 "theory": "DFT", 
		 "functional": "B3LYP", 
		 "basiset": "6-31G**", 
		 "properties": { 
			 "R2extent": 3592.151, 
			 "electric_dipole_moment_norm": 4.49171652823, 
			 "electric_quadrupole_moment_norm": 24.9196836667, 
			 "total_energy": -1384.8071446, 
			 "HOMO_LUMO_gap": 0.19074, 
			 "cosmo_polarized_energy": -23.59, 
			 "cosmo_cavitation_energy": 27.68, 
			 "cosmo_dispersion_energy": -21.22, 
			 "cosmo_repulsion_energy": 1.6, 
			 "cosmo_total_nonelectrostatic_energy": 8.06, 
			 "SMD_solvation_energy": 5.5 
		},
		"coords": [
			{
				"x": 1.2213105626,
				"y": -1.3565180261,
				"z": 1.656338682,
				"element": "C" 
			},
			{
				"x": 0.1856282857,
				"y": -1.0000770635,
				"z": 0.6344594376,
				"element": "C" 
			},
			{
				"x": 0.3708650891,
				"y": -0.5196151222,
				"z": -0.6489694861,
				"element": "C" 
			},
			{
				"x": -0.8334330115,
				"y": -0.2778262903,
				"z": -1.3632097054,
				"element": "C" 
			},
			{
				"x": -1.9477228168,
				"y": -0.5796145049,
				"z": -0.618818179,
				"element": "C" 
			},
			{
				"x": -1.5041615023,
				"y": -1.1716433896,
				"z": 0.9612331393,
				"element": "S" 
			},
			{
				"x": -3.3879548456,
				"y": -0.5070625609,
				"z": -0.9469919292,
				"element": "C" 
			},
			{
				"x": -3.7192033705,
				"y": 0.0768795237,
				"z": -2.1255544855,
				"element": "O" 
			},
			{
				"x": -4.2458125393,
				"y": -0.9449577102,
				"z": -0.2145015212,
				"element": "O" 
			},
			{
				"x": 1.9548291158,
				"y": -0.1603641406,
				"z": -1.3732359334,
				"element": "S" 
			},
			{
				"x": 2.6893197652,
				"y": -1.6876703728,
				"z": -1.4247259435,
				"element": "N" 
			},
			{
				"x": 2.7661477936,
				"y": 0.6181611399,
				"z": -0.4344437872,
				"element": "O" 
			},
			{
				"x": 1.6851135597,
				"y": 0.3187647948,
				"z": -2.7332080845,
				"element": "O" 
			},
			{
				"x": 1.887610965,
				"y": -0.5062793456,
				"z": 1.8281628926,
				"element": "H" 
			},
			{
				"x": 1.8356192297,
				"y": -2.1867772143,
				"z": 1.2915647294,
				"element": "H" 
			},
			{
				"x": 0.7658093596,
				"y": -1.6491133492,
				"z": 2.6046469232,
				"element": "H" 
			},
			{
				"x": -0.8262554487,
				"y": 0.0920023443,
				"z": -2.3824085554,
				"element": "H" 
			},
			{
				"x": -2.9432572341,
				"y": 0.4618666296,
				"z": -2.5559184816,
				"element": "H" 
			},
			{
				"x": 2.5334915213,
				"y": -2.1281319836,
				"z": -2.3289139573,
				"element": "H" 
			},
			{
				"x": 3.6842555214,
				"y": -1.5648233586,
				"z": -1.248305755,
				"element": "H" 
			}
		],
		 "valence_orbital": [ 
			{
				"type": "occ",
				"energy": -0.3193,
				"method": "rhf"
			},
			{
				"type": "occ",
				"energy": -0.31193,
				"method": "rhf"
			},
			{
				"type": "occ",
				"energy": -0.2868,
				"method": "rhf"
			},
			{
				"type": "occ",
				"energy": -0.28558,
				"method": "rhf"
			},
			{
				"type": "occ",
				"energy": -0.265,
				"method": "rhf"
			},
			{
				"type": "unocc",
				"energy": -0.07426,
				"method": "rhf"
			},
			{
				"type": "unocc",
				"energy": -0.02264,
				"method": "rhf"
			},
			{
				"type": "unocc",
				"energy": -0.00412,
				"method": "rhf"
			},
			{
				"type": "unocc",
				"energy": 0.03964,
				"method": "rhf"
			},
			{
				"type": "unocc",
				"energy": 0.049,
				"method": "rhf"
			}
		],
		"cosmo_sigma_profile": { 
			"-0.025": 0.0,
			"-0.024": 0.0,
			"-0.023": 0.0,
			"-0.022": 0.0,
			"-0.021": 0.0,
			"-0.02": 0.284291593099,
			"-0.019": 1.215823444,
			"-0.018": 1.5152175301,
			"-0.017": 0.691436283038,
			"-0.016": 0.89351341575,
			"-0.015": 3.16298032649,
			"-0.014": 3.86289977807,
			"-0.013": 3.82138072452,
			"-0.012": 3.91865583012,
			"-0.011": 3.23765585317,
			"-0.01": 2.60356814309,
			"-0.009": 3.2085275951,
			"-0.008": 3.5238477288,
			"-0.007": 4.97645206673,
			"-0.006": 4.8557615924,
			"-0.005": 7.81381569958,
			"-0.004": 11.7525230034,
			"-0.003": 15.0107465299,
			"-0.002": 15.4328331967,
			"-0.001": 16.6745059545,
			"0.0": 16.667315364,
			"0.001": 13.879910211,
			"0.002": 9.69247331272,
			"0.003": 5.05236599828,
			"0.004": 5.46112464654,
			"0.005": 6.38026119467,
			"0.006": 5.81393800289,
			"0.007": 5.52155186529,
			"0.008": 6.91362325889,
			"0.009": 7.42722426375,
			"0.01": 13.3228292537,
			"0.011": 12.8504136867,
			"0.012": 4.59499208588,
			"0.013": 0.794291771194,
			"0.014": 0.0,
			"0.015": 0.0,
			"0.016": 0.0,
			"0.017": 0.0,
			"0.018": 0.0,
			"0.019": 0.0,
			"0.02": 0.0,
			"0.021": 0.0,
			"0.022": 0.0,
			"0.023": 0.0,
			"0.024": 0.0,
			"0.025": 0.0
		}
	}
}
