{
	 "smiles": "OC1=C(C=O)C=CC=C1Cl", 
	 "Tm": 326.15, 
	 "num_atms": 15, 
	 "gaussian": { 
		 "optdone": 1, 
		 "sigma_profile": "yes", 
		 "theory": "DFT", 
		 "functional": "B3LYP", 
		 "basiset": "6-31G**", 
		 "properties": { 
			 "R2extent": 2012.9794, 
			 "electric_dipole_moment_norm": 3.80418478258, 
			 "electric_quadrupole_moment_norm": 4.11794930518, 
			 "total_energy": -880.395978469, 
			 "HOMO_LUMO_gap": 0.15858, 
			 "cosmo_polarized_energy": -8.48, 
			 "cosmo_cavitation_energy": 21.13, 
			 "cosmo_dispersion_energy": -16.14, 
			 "cosmo_repulsion_energy": 1.29, 
			 "cosmo_total_nonelectrostatic_energy": 6.28, 
			 "SMD_solvation_energy": 4.67 
		},
		"coords": [
			{
				"x": -1.8052158857,
				"y": -0.9136197678,
				"z": 0.9459604309,
				"element": "O" 
			},
			{
				"x": -1.1191366042,
				"y": 0.1288674144,
				"z": 0.4801648365,
				"element": "C" 
			},
			{
				"x": 0.2470179727,
				"y": 0.3416334962,
				"z": 0.8140662374,
				"element": "C" 
			},
			{
				"x": 0.9192058633,
				"y": -0.6055191408,
				"z": 1.6906294518,
				"element": "C" 
			},
			{
				"x": 0.3814621756,
				"y": -1.6034315573,
				"z": 2.1782655069,
				"element": "O" 
			},
			{
				"x": 0.940241637,
				"y": 1.4544239429,
				"z": 0.3030873754,
				"element": "C" 
			},
			{
				"x": 0.3039654664,
				"y": 2.357943004,
				"z": -0.5312965437,
				"element": "C" 
			},
			{
				"x": -1.04393656,
				"y": 2.1539831027,
				"z": -0.8647295082,
				"element": "C" 
			},
			{
				"x": -1.7462155423,
				"y": 1.0617212521,
				"z": -0.3708482964,
				"element": "C" 
			},
			{
				"x": -3.4233071544,
				"y": 0.8276274566,
				"z": -0.7990952683,
				"element": "Cl" 
			},
			{
				"x": -1.1835586795,
				"y": -1.4350612989,
				"z": 1.5164162983,
				"element": "H" 
			},
			{
				"x": 1.9812958885,
				"y": -0.3902030852,
				"z": 1.9163303909,
				"element": "H" 
			},
			{
				"x": 1.983730757,
				"y": 1.5906565432,
				"z": 0.5759112744,
				"element": "H" 
			},
			{
				"x": 0.8327366703,
				"y": 3.2175490527,
				"z": -0.9283431016,
				"element": "H" 
			},
			{
				"x": -1.5585860046,
				"y": 2.8516295851,
				"z": -1.5171190844,
				"element": "H" 
			}
		],
		 "valence_orbital": [ 
			{
				"type": "occ",
				"energy": -0.34102,
				"method": "rhf"
			},
			{
				"type": "occ",
				"energy": -0.31558,
				"method": "rhf"
			},
			{
				"type": "occ",
				"energy": -0.28189,
				"method": "rhf"
			},
			{
				"type": "occ",
				"energy": -0.27122,
				"method": "rhf"
			},
			{
				"type": "occ",
				"energy": -0.2397,
				"method": "rhf"
			},
			{
				"type": "unocc",
				"energy": -0.08112,
				"method": "rhf"
			},
			{
				"type": "unocc",
				"energy": -0.01549,
				"method": "rhf"
			},
			{
				"type": "unocc",
				"energy": 0.02155,
				"method": "rhf"
			},
			{
				"type": "unocc",
				"energy": 0.02593,
				"method": "rhf"
			},
			{
				"type": "unocc",
				"energy": 0.08965,
				"method": "rhf"
			}
		],
		"cosmo_sigma_profile": { 
			"-0.025": 0.0,
			"-0.024": 0.0,
			"-0.023": 0.0,
			"-0.022": 0.0,
			"-0.021": 0.0,
			"-0.02": 0.0,
			"-0.019": 0.0,
			"-0.018": 0.0,
			"-0.017": 0.0,
			"-0.016": 0.0,
			"-0.015": 0.0,
			"-0.014": 0.0,
			"-0.013": 0.0,
			"-0.012": 0.0,
			"-0.011": 0.0,
			"-0.01": 0.0274697149406,
			"-0.009": 1.90142732434,
			"-0.008": 7.12674034502,
			"-0.007": 8.870453114,
			"-0.006": 9.31258892828,
			"-0.005": 9.33471337697,
			"-0.004": 10.9321144899,
			"-0.003": 8.930508484,
			"-0.002": 9.54841998439,
			"-0.001": 10.8453148383,
			"0.0": 14.6607660678,
			"0.001": 16.7544509733,
			"0.002": 14.3173905537,
			"0.003": 10.8835176393,
			"0.004": 11.1412330936,
			"0.005": 6.63107887555,
			"0.006": 3.39740919467,
			"0.007": 3.82969230829,
			"0.008": 3.30384035755,
			"0.009": 3.53239769601,
			"0.01": 3.71931955618,
			"0.011": 2.66722973142,
			"0.012": 0.824442094933,
			"0.013": 0.00724983054313,
			"0.014": 0.0,
			"0.015": 0.0,
			"0.016": 0.0,
			"0.017": 0.0,
			"0.018": 0.0,
			"0.019": 0.0,
			"0.02": 0.0,
			"0.021": 0.0,
			"0.022": 0.0,
			"0.023": 0.0,
			"0.024": 0.0,
			"0.025": 0.0
		}
	}
}
