{
	 "smiles": "CC(=O)C1=CC=C(C)S1", 
	 "Tm": 299.95, 
	 "num_atms": 17, 
	 "gaussian": { 
		 "optdone": 1, 
		 "sigma_profile": "yes", 
		 "theory": "DFT", 
		 "functional": "B3LYP", 
		 "basiset": "6-31G**", 
		 "properties": { 
			 "R2extent": 1963.9255, 
			 "electric_dipole_moment_norm": 3.5159784641, 
			 "electric_quadrupole_moment_norm": 7.36360084605, 
			 "total_energy": -744.973601348, 
			 "HOMO_LUMO_gap": 0.17789, 
			 "cosmo_polarized_energy": -8.05, 
			 "cosmo_cavitation_energy": 22.51, 
			 "cosmo_dispersion_energy": -16.9, 
			 "cosmo_repulsion_energy": 1.34, 
			 "cosmo_total_nonelectrostatic_energy": 6.95, 
			 "SMD_solvation_energy": 4.53 
		},
		"coords": [
			{
				"x": -2.4040157089,
				"y": 2.2397733615,
				"z": 1.3866837866,
				"element": "C" 
			},
			{
				"x": -1.9345898763,
				"y": 0.7956117381,
				"z": 1.3590250943,
				"element": "C" 
			},
			{
				"x": -2.7105555022,
				"y": -0.1327657538,
				"z": 1.5401626214,
				"element": "O" 
			},
			{
				"x": -0.5034081388,
				"y": 0.5247729138,
				"z": 1.1061878377,
				"element": "C" 
			},
			{
				"x": 0.074561739,
				"y": -0.7231106619,
				"z": 1.050376705,
				"element": "C" 
			},
			{
				"x": 1.46880234,
				"y": -0.6879307495,
				"z": 0.7918358511,
				"element": "C" 
			},
			{
				"x": 1.9707228895,
				"y": 0.5847279681,
				"z": 0.6475453815,
				"element": "C" 
			},
			{
				"x": 3.3861339074,
				"y": 0.9939645937,
				"z": 0.3698509705,
				"element": "C" 
			},
			{
				"x": 0.7045618277,
				"y": 1.7674817353,
				"z": 0.8329758221,
				"element": "S" 
			},
			{
				"x": -2.1987641963,
				"y": 2.7344622365,
				"z": 0.4304516787,
				"element": "H" 
			},
			{
				"x": -1.8786654547,
				"y": 2.8053402611,
				"z": 2.1647375998,
				"element": "H" 
			},
			{
				"x": -3.4762308719,
				"y": 2.260590362,
				"z": 1.5837280194,
				"element": "H" 
			},
			{
				"x": -0.5121017372,
				"y": -1.6224153213,
				"z": 1.1951204428,
				"element": "H" 
			},
			{
				"x": 2.0929578058,
				"y": -1.5716644663,
				"z": 0.7126450484,
				"element": "H" 
			},
			{
				"x": 3.4715576864,
				"y": 1.55491633,
				"z": -0.5675307162,
				"element": "H" 
			},
			{
				"x": 4.018561602,
				"y": 0.1058910966,
				"z": 0.2893544057,
				"element": "H" 
			},
			{
				"x": 3.7916716885,
				"y": 1.6255543561,
				"z": 1.1681494511,
				"element": "H" 
			}
		],
		 "valence_orbital": [ 
			{
				"type": "occ",
				"energy": -0.34673,
				"method": "rhf"
			},
			{
				"type": "occ",
				"energy": -0.346,
				"method": "rhf"
			},
			{
				"type": "occ",
				"energy": -0.25996,
				"method": "rhf"
			},
			{
				"type": "occ",
				"energy": -0.24645,
				"method": "rhf"
			},
			{
				"type": "occ",
				"energy": -0.23553,
				"method": "rhf"
			},
			{
				"type": "unocc",
				"energy": -0.05764,
				"method": "rhf"
			},
			{
				"type": "unocc",
				"energy": 0.02031,
				"method": "rhf"
			},
			{
				"type": "unocc",
				"energy": 0.02732,
				"method": "rhf"
			},
			{
				"type": "unocc",
				"energy": 0.07989,
				"method": "rhf"
			},
			{
				"type": "unocc",
				"energy": 0.08399,
				"method": "rhf"
			}
		],
		"cosmo_sigma_profile": { 
			"-0.025": 0.0,
			"-0.024": 0.0,
			"-0.023": 0.0,
			"-0.022": 0.0,
			"-0.021": 0.0,
			"-0.02": 0.0,
			"-0.019": 0.0,
			"-0.018": 0.0,
			"-0.017": 0.0,
			"-0.016": 0.0,
			"-0.015": 0.0,
			"-0.014": 0.0,
			"-0.013": 0.0,
			"-0.012": 0.0,
			"-0.011": 0.0,
			"-0.01": 0.0,
			"-0.009": 0.0,
			"-0.008": 0.00119960192346,
			"-0.007": 1.88500790465,
			"-0.006": 9.16783640923,
			"-0.005": 17.606148518,
			"-0.004": 17.3179595881,
			"-0.003": 18.0809290874,
			"-0.002": 16.9020632071,
			"-0.001": 18.6774786317,
			"0.0": 11.3479136733,
			"0.001": 9.26774936756,
			"0.002": 12.5648997757,
			"0.003": 15.8812780028,
			"0.004": 11.1392664987,
			"0.005": 1.93147589386,
			"0.006": 2.59943084352,
			"0.007": 1.2461481042,
			"0.008": 1.1067534537,
			"0.009": 2.07246145004,
			"0.01": 1.97807045903,
			"0.011": 2.49033091435,
			"0.012": 4.64416079122,
			"0.013": 2.61082485215,
			"0.014": 0.366454774772,
			"0.015": 0.0,
			"0.016": 0.0,
			"0.017": 0.0,
			"0.018": 0.0,
			"0.019": 0.0,
			"0.02": 0.0,
			"0.021": 0.0,
			"0.022": 0.0,
			"0.023": 0.0,
			"0.024": 0.0,
			"0.025": 0.0
		}
	}
}
