{
	 "smiles": "NC(=N)NC1=NC2=C(N1)C=CC=C2", 
	 "Tm": 516.15, 
	 "num_atms": 22, 
	 "gaussian": { 
		 "optdone": 1, 
		 "sigma_profile": "yes", 
		 "theory": "DFT", 
		 "functional": "B3LYP", 
		 "basiset": "6-31G**", 
		 "properties": { 
			 "R2extent": 2971.1408, 
			 "electric_dipole_moment_norm": 2.73047885361, 
			 "electric_quadrupole_moment_norm": 13.695709511, 
			 "total_energy": -584.050127984, 
			 "HOMO_LUMO_gap": 0.19567, 
			 "cosmo_polarized_energy": -19.11, 
			 "cosmo_cavitation_energy": 26.35, 
			 "cosmo_dispersion_energy": -19.9, 
			 "cosmo_repulsion_energy": 1.58, 
			 "cosmo_total_nonelectrostatic_energy": 8.03, 
			 "SMD_solvation_energy": 1.42 
		},
		"coords": [
			{
				"x": 1.2999747628,
				"y": 1.3250291524,
				"z": -3.5689885887,
				"element": "N" 
			},
			{
				"x": 1.4676769751,
				"y": 0.5502323537,
				"z": -2.4320189918,
				"element": "C" 
			},
			{
				"x": 2.187784684,
				"y": -0.5114078465,
				"z": -2.4608798007,
				"element": "N" 
			},
			{
				"x": 0.7887428207,
				"y": 1.1019330662,
				"z": -1.3339183622,
				"element": "N" 
			},
			{
				"x": 0.4878362387,
				"y": 0.4563287449,
				"z": -0.1495083333,
				"element": "C" 
			},
			{
				"x": 0.1966075709,
				"y": 1.0883186193,
				"z": 0.9600373567,
				"element": "N" 
			},
			{
				"x": -0.1269328181,
				"y": 0.0770894038,
				"z": 1.8598825235,
				"element": "C" 
			},
			{
				"x": -0.0102669305,
				"y": -1.1931849143,
				"z": 1.2450563473,
				"element": "C" 
			},
			{
				"x": 0.400216515,
				"y": -0.9166794947,
				"z": -0.0571864787,
				"element": "N" 
			},
			{
				"x": -0.2675605925,
				"y": -2.3840385963,
				"z": 1.9184094128,
				"element": "C" 
			},
			{
				"x": -0.6606412653,
				"y": -2.2773394713,
				"z": 3.2539489843,
				"element": "C" 
			},
			{
				"x": -0.7818710652,
				"y": -1.02542215,
				"z": 3.8827662082,
				"element": "C" 
			},
			{
				"x": -0.5177277135,
				"y": 0.1610722481,
				"z": 3.1998250242,
				"element": "C" 
			},
			{
				"x": 0.3605746306,
				"y": 1.6562423614,
				"z": -3.7467665775,
				"element": "H" 
			},
			{
				"x": 1.7485849401,
				"y": 0.9129542359,
				"z": -4.3763699843,
				"element": "H" 
			},
			{
				"x": 2.4096450249,
				"y": -0.8342762829,
				"z": -1.5203626804,
				"element": "H" 
			},
			{
				"x": 0.7088920263,
				"y": 2.1087335293,
				"z": -1.2809044639,
				"element": "H" 
			},
			{
				"x": 0.4918878902,
				"y": -1.5613517371,
				"z": -0.8275789368,
				"element": "H" 
			},
			{
				"x": -0.1723323464,
				"y": -3.3509836725,
				"z": 1.4334964083,
				"element": "H" 
			},
			{
				"x": -0.8760772851,
				"y": -3.1806117648,
				"z": 3.8167515521,
				"element": "H" 
			},
			{
				"x": -1.0879351706,
				"y": -0.984559535,
				"z": 4.9240077674,
				"element": "H" 
			},
			{
				"x": -0.6099788923,
				"y": 1.1285217505,
				"z": 3.6826016132,
				"element": "H" 
			}
		],
		 "valence_orbital": [ 
			{
				"type": "occ",
				"energy": -0.27893,
				"method": "rhf"
			},
			{
				"type": "occ",
				"energy": -0.27403,
				"method": "rhf"
			},
			{
				"type": "occ",
				"energy": -0.25729,
				"method": "rhf"
			},
			{
				"type": "occ",
				"energy": -0.22505,
				"method": "rhf"
			},
			{
				"type": "occ",
				"energy": -0.20617,
				"method": "rhf"
			},
			{
				"type": "unocc",
				"energy": -0.0105,
				"method": "rhf"
			},
			{
				"type": "unocc",
				"energy": 0.02097,
				"method": "rhf"
			},
			{
				"type": "unocc",
				"energy": 0.03167,
				"method": "rhf"
			},
			{
				"type": "unocc",
				"energy": 0.0616,
				"method": "rhf"
			},
			{
				"type": "unocc",
				"energy": 0.08095,
				"method": "rhf"
			}
		],
		"cosmo_sigma_profile": { 
			"-0.025": 0.0,
			"-0.024": 0.0,
			"-0.023": 0.0,
			"-0.022": 0.0,
			"-0.021": 0.0,
			"-0.02": 0.0,
			"-0.019": 0.0,
			"-0.018": 0.0,
			"-0.017": 0.0,
			"-0.016": 0.261776560725,
			"-0.015": 1.56713530154,
			"-0.014": 2.14111085953,
			"-0.013": 4.03097190066,
			"-0.012": 3.92486631278,
			"-0.011": 4.88681203812,
			"-0.01": 5.60970961539,
			"-0.009": 5.59814480961,
			"-0.008": 4.05007448442,
			"-0.007": 5.34700636305,
			"-0.006": 8.34749035631,
			"-0.005": 10.3867608613,
			"-0.004": 11.7281896856,
			"-0.003": 11.6544441894,
			"-0.002": 9.6925117825,
			"-0.001": 10.8814589106,
			"0.0": 11.151634524,
			"0.001": 10.0687710619,
			"0.002": 10.3820990395,
			"0.003": 10.7826132254,
			"0.004": 11.0805592391,
			"0.005": 12.7126138032,
			"0.006": 11.9490117718,
			"0.007": 7.42106854672,
			"0.008": 2.36880043231,
			"0.009": 3.54564305162,
			"0.01": 2.07978023771,
			"0.011": 2.92316851459,
			"0.012": 2.00086143042,
			"0.013": 2.73510474608,
			"0.014": 2.12624331122,
			"0.015": 1.79933576508,
			"0.016": 1.8842634336,
			"0.017": 2.12811479319,
			"0.018": 0.72006700184,
			"0.019": 0.119096283136,
			"0.02": 0.0,
			"0.021": 0.0,
			"0.022": 0.0,
			"0.023": 0.0,
			"0.024": 0.0,
			"0.025": 0.0
		}
	}
}
