{
	 "smiles": "CCCCCCCCCC=CC(O)=O", 
	 "Tm": 290.25, 
	 "num_atms": 36, 
	 "gaussian": { 
		 "optdone": 1, 
		 "sigma_profile": "yes", 
		 "theory": "DFT", 
		 "functional": "B3LYP", 
		 "basiset": "6-31G**", 
		 "properties": { 
			 "R2extent": 6748.1972, 
			 "electric_dipole_moment_norm": 2.78494593843, 
			 "electric_quadrupole_moment_norm": 24.0962045746, 
			 "total_energy": -621.007815911, 
			 "HOMO_LUMO_gap": 0.22644, 
			 "cosmo_polarized_energy": -8.83, 
			 "cosmo_cavitation_energy": 38.07, 
			 "cosmo_dispersion_energy": -25.94, 
			 "cosmo_repulsion_energy": 2.14, 
			 "cosmo_total_nonelectrostatic_energy": 14.27, 
			 "SMD_solvation_energy": 6.94 
		},
		"coords": [
			{
				"x": 2.7111116559,
				"y": -3.3659503412,
				"z": -2.1472958461,
				"element": "C" 
			},
			{
				"x": 2.1049662075,
				"y": -2.4253173041,
				"z": -1.100508895,
				"element": "C" 
			},
			{
				"x": 0.9857236463,
				"y": -1.540960146,
				"z": -1.668649393,
				"element": "C" 
			},
			{
				"x": 0.2974318637,
				"y": -0.6286837185,
				"z": -0.6394474606,
				"element": "C" 
			},
			{
				"x": 1.2004662511,
				"y": 0.4726795399,
				"z": -0.0617447161,
				"element": "C" 
			},
			{
				"x": 0.4774407169,
				"y": 1.4741660445,
				"z": 0.8548972338,
				"element": "C" 
			},
			{
				"x": -0.0062147137,
				"y": 0.8763921781,
				"z": 2.1874439316,
				"element": "C" 
			},
			{
				"x": -0.6697851445,
				"y": 1.8833122379,
				"z": 3.149615979,
				"element": "C" 
			},
			{
				"x": -2.2000019146,
				"y": 2.0730923801,
				"z": 2.9924929562,
				"element": "C" 
			},
			{
				"x": -2.6468774323,
				"y": 2.5771471538,
				"z": 1.6524423053,
				"element": "C" 
			},
			{
				"x": -3.1520040143,
				"y": 3.7981597959,
				"z": 1.4263008387,
				"element": "C" 
			},
			{
				"x": -3.5773982034,
				"y": 4.2912206444,
				"z": 0.1030444429,
				"element": "C" 
			},
			{
				"x": -3.3948991584,
				"y": 3.3921606657,
				"z": -0.9030196704,
				"element": "O" 
			},
			{
				"x": -4.0472816563,
				"y": 5.3944372598,
				"z": -0.0985031563,
				"element": "O" 
			},
			{
				"x": 1.9513824669,
				"y": -4.0369475234,
				"z": -2.564536274,
				"element": "H" 
			},
			{
				"x": 3.1457028821,
				"y": -2.8027720325,
				"z": -2.9812209867,
				"element": "H" 
			},
			{
				"x": 3.5038844111,
				"y": -3.9873289646,
				"z": -1.7178471959,
				"element": "H" 
			},
			{
				"x": 1.7061533614,
				"y": -3.0162512555,
				"z": -0.2640840972,
				"element": "H" 
			},
			{
				"x": 2.8992670688,
				"y": -1.7977745282,
				"z": -0.6773829871,
				"element": "H" 
			},
			{
				"x": 1.3906800186,
				"y": -0.9252744447,
				"z": -2.4850135777,
				"element": "H" 
			},
			{
				"x": 0.2269921622,
				"y": -2.1892316393,
				"z": -2.1282136641,
				"element": "H" 
			},
			{
				"x": -0.5708920666,
				"y": -0.1528805262,
				"z": -1.1162582389,
				"element": "H" 
			},
			{
				"x": -0.104487463,
				"y": -1.2500154373,
				"z": 0.172333922,
				"element": "H" 
			},
			{
				"x": 1.6525558185,
				"y": 1.0257406202,
				"z": -0.8965381507,
				"element": "H" 
			},
			{
				"x": 2.0358074102,
				"y": 0.0222635249,
				"z": 0.4910614897,
				"element": "H" 
			},
			{
				"x": 1.1620873468,
				"y": 2.3026424684,
				"z": 1.0814824406,
				"element": "H" 
			},
			{
				"x": -0.360767149,
				"y": 1.9222516993,
				"z": 0.3065484494,
				"element": "H" 
			},
			{
				"x": -0.6958369999,
				"y": 0.041195123,
				"z": 2.0059055319,
				"element": "H" 
			},
			{
				"x": 0.8647809691,
				"y": 0.4358757908,
				"z": 2.6909612244,
				"element": "H" 
			},
			{
				"x": -0.1774206837,
				"y": 2.8599384379,
				"z": 3.057592389,
				"element": "H" 
			},
			{
				"x": -0.502861342,
				"y": 1.5534269405,
				"z": 4.1820824737,
				"element": "H" 
			},
			{
				"x": -2.5482359357,
				"y": 2.7585155517,
				"z": 3.7739368094,
				"element": "H" 
			},
			{
				"x": -2.6839179308,
				"y": 1.1038308929,
				"z": 3.1801606872,
				"element": "H" 
			},
			{
				"x": -2.5532230044,
				"y": 1.8970904467,
				"z": 0.8090368268,
				"element": "H" 
			},
			{
				"x": -3.2830342347,
				"y": 4.5197775239,
				"z": 2.2277279303,
				"element": "H" 
			},
			{
				"x": -3.7119952099,
				"y": 3.8367709412,
				"z": -1.7058035523,
				"element": "H" 
			}
		],
		 "valence_orbital": [ 
			{
				"type": "occ",
				"energy": -0.31104,
				"method": "rhf"
			},
			{
				"type": "occ",
				"energy": -0.30821,
				"method": "rhf"
			},
			{
				"type": "occ",
				"energy": -0.30665,
				"method": "rhf"
			},
			{
				"type": "occ",
				"energy": -0.26812,
				"method": "rhf"
			},
			{
				"type": "occ",
				"energy": -0.26784,
				"method": "rhf"
			},
			{
				"type": "unocc",
				"energy": -0.0414,
				"method": "rhf"
			},
			{
				"type": "unocc",
				"energy": 0.07803,
				"method": "rhf"
			},
			{
				"type": "unocc",
				"energy": 0.08525,
				"method": "rhf"
			},
			{
				"type": "unocc",
				"energy": 0.08963,
				"method": "rhf"
			},
			{
				"type": "unocc",
				"energy": 0.09954,
				"method": "rhf"
			}
		],
		"cosmo_sigma_profile": { 
			"-0.025": 0.0,
			"-0.024": 0.0,
			"-0.023": 0.0,
			"-0.022": 0.0,
			"-0.021": 0.0,
			"-0.02": 0.0,
			"-0.019": 0.0,
			"-0.018": 0.36883111,
			"-0.017": 0.745719519966,
			"-0.016": 0.555276663733,
			"-0.015": 1.34265553276,
			"-0.014": 1.03266094384,
			"-0.013": 0.351250559334,
			"-0.012": 0.250689109563,
			"-0.011": 0.631566602575,
			"-0.01": 0.979090887853,
			"-0.009": 1.16500915349,
			"-0.008": 0.275499476281,
			"-0.007": 0.523366226705,
			"-0.006": 2.18681191724,
			"-0.005": 4.28119504907,
			"-0.004": 9.85235107372,
			"-0.003": 15.3061162269,
			"-0.002": 39.618809663,
			"-0.001": 56.2558289958,
			"0.0": 55.7172064563,
			"0.001": 46.2191158546,
			"0.002": 21.3515919034,
			"0.003": 6.14006194101,
			"0.004": 3.22042104756,
			"0.005": 2.76356524362,
			"0.006": 3.11976778675,
			"0.007": 2.40233684805,
			"0.008": 3.30010220069,
			"0.009": 1.4782288767,
			"0.01": 1.74413691363,
			"0.011": 2.49739691898,
			"0.012": 5.42023787953,
			"0.013": 2.75776252882,
			"0.014": 0.195148198674,
			"0.015": 0.0,
			"0.016": 0.0,
			"0.017": 0.0,
			"0.018": 0.0,
			"0.019": 0.0,
			"0.02": 0.0,
			"0.021": 0.0,
			"0.022": 0.0,
			"0.023": 0.0,
			"0.024": 0.0,
			"0.025": 0.0
		}
	}
}
