{
	 "smiles": "COC(=O)C1=C(CBr)C=CC(F)=C1", 
	 "Tm": 315.15, 
	 "num_atms": 21, 
	 "gaussian": { 
		 "optdone": 1, 
		 "sigma_profile": "yes", 
		 "theory": "DFT", 
		 "functional": "B3LYP", 
		 "basiset": "6-31G**", 
		 "properties": { 
			 "R2extent": 4187.7384, 
			 "electric_dipole_moment_norm": 2.59672456953, 
			 "electric_quadrupole_moment_norm": 13.8937886816, 
			 "total_energy": -3169.47580922, 
			 "HOMO_LUMO_gap": 0.18866, 
			 "cosmo_polarized_energy": -9.22, 
			 "cosmo_cavitation_energy": 28.14, 
			 "cosmo_dispersion_energy": -20.15, 
			 "cosmo_repulsion_energy": 1.57, 
			 "cosmo_total_nonelectrostatic_energy": 9.56, 
			 "SMD_solvation_energy": 5.73 
		},
		"coords": [
			{
				"x": -0.3550217942,
				"y": 2.9043502179,
				"z": 1.1695903087,
				"element": "C" 
			},
			{
				"x": -0.0869516434,
				"y": 1.505002421,
				"z": 1.3709777255,
				"element": "O" 
			},
			{
				"x": 0.543025008,
				"y": 0.8868906716,
				"z": 0.3529609384,
				"element": "C" 
			},
			{
				"x": 0.9046702058,
				"y": 1.4755790362,
				"z": -0.6468331639,
				"element": "O" 
			},
			{
				"x": 0.773070323,
				"y": -0.5823324755,
				"z": 0.5696263369,
				"element": "C" 
			},
			{
				"x": 0.2238084388,
				"y": -1.3814740478,
				"z": 1.6035986328,
				"element": "C" 
			},
			{
				"x": -0.6815382102,
				"y": -0.8864814667,
				"z": 2.6893670135,
				"element": "C" 
			},
			{
				"x": -2.5874838567,
				"y": -0.7458611141,
				"z": 2.0797730254,
				"element": "Br" 
			},
			{
				"x": 0.5438882467,
				"y": -2.7484764426,
				"z": 1.618738719,
				"element": "C" 
			},
			{
				"x": 1.3788529191,
				"y": -3.3305446008,
				"z": 0.6699079889,
				"element": "C" 
			},
			{
				"x": 1.9013617237,
				"y": -2.5189046604,
				"z": -0.3289748928,
				"element": "C" 
			},
			{
				"x": 2.7113821505,
				"y": -3.0588785644,
				"z": -1.2585583623,
				"element": "F" 
			},
			{
				"x": 1.608271016,
				"y": -1.1666549749,
				"z": -0.3923880838,
				"element": "C" 
			},
			{
				"x": -0.9712852027,
				"y": 3.0485178894,
				"z": 0.279665125,
				"element": "H" 
			},
			{
				"x": 0.5786277124,
				"y": 3.4588189747,
				"z": 1.0498166854,
				"element": "H" 
			},
			{
				"x": -0.8871623087,
				"y": 3.2299373522,
				"z": 2.0627229767,
				"element": "H" 
			},
			{
				"x": -0.4423029384,
				"y": 0.109888082,
				"z": 3.0396288348,
				"element": "H" 
			},
			{
				"x": -0.7217887256,
				"y": -1.5913144757,
				"z": 3.517022249,
				"element": "H" 
			},
			{
				"x": 0.1192708478,
				"y": -3.3742197503,
				"z": 2.3984145841,
				"element": "H" 
			},
			{
				"x": 1.6222664707,
				"y": -4.3870380777,
				"z": 0.6947734586,
				"element": "H" 
			},
			{
				"x": 2.0162396172,
				"y": -0.5510039938,
				"z": -1.1847300997,
				"element": "H" 
			}
		],
		 "valence_orbital": [ 
			{
				"type": "occ",
				"energy": -0.28632,
				"method": "rhf"
			},
			{
				"type": "occ",
				"energy": -0.27761,
				"method": "rhf"
			},
			{
				"type": "occ",
				"energy": -0.27518,
				"method": "rhf"
			},
			{
				"type": "occ",
				"energy": -0.26878,
				"method": "rhf"
			},
			{
				"type": "occ",
				"energy": -0.25395,
				"method": "rhf"
			},
			{
				"type": "unocc",
				"energy": -0.06529,
				"method": "rhf"
			},
			{
				"type": "unocc",
				"energy": -0.03376,
				"method": "rhf"
			},
			{
				"type": "unocc",
				"energy": 0.02143,
				"method": "rhf"
			},
			{
				"type": "unocc",
				"energy": 0.047,
				"method": "rhf"
			},
			{
				"type": "unocc",
				"energy": 0.07847,
				"method": "rhf"
			}
		],
		"cosmo_sigma_profile": { 
			"-0.025": 0.0,
			"-0.024": 0.0,
			"-0.023": 0.0,
			"-0.022": 0.0,
			"-0.021": 0.0,
			"-0.02": 0.0,
			"-0.019": 0.0,
			"-0.018": 0.0,
			"-0.017": 0.0,
			"-0.016": 0.0,
			"-0.015": 0.0,
			"-0.014": 0.0,
			"-0.013": 0.0,
			"-0.012": 0.0,
			"-0.011": 0.0,
			"-0.01": 0.0,
			"-0.009": 1.2974311922,
			"-0.008": 5.02169260283,
			"-0.007": 7.81575753879,
			"-0.006": 13.3376014917,
			"-0.005": 13.6663580255,
			"-0.004": 17.0721818588,
			"-0.003": 17.0842946306,
			"-0.002": 12.7348407797,
			"-0.001": 17.7551241153,
			"0.0": 19.4491938574,
			"0.001": 21.5914688851,
			"0.002": 15.4761247999,
			"0.003": 13.0894936718,
			"0.004": 16.5446668313,
			"0.005": 9.40871799789,
			"0.006": 12.300130202,
			"0.007": 3.94440956483,
			"0.008": 1.33049531741,
			"0.009": 1.64904269325,
			"0.01": 2.297240349,
			"0.011": 3.65538515785,
			"0.012": 1.92441741579,
			"0.013": 0.0,
			"0.014": 0.0,
			"0.015": 0.0,
			"0.016": 0.0,
			"0.017": 0.0,
			"0.018": 0.0,
			"0.019": 0.0,
			"0.02": 0.0,
			"0.021": 0.0,
			"0.022": 0.0,
			"0.023": 0.0,
			"0.024": 0.0,
			"0.025": 0.0
		}
	}
}
