{
	 "smiles": "NC1=NC=CN=C1", 
	 "Tm": 392.65, 
	 "num_atms": 12, 
	 "gaussian": { 
		 "optdone": 1, 
		 "sigma_profile": "yes", 
		 "theory": "DFT", 
		 "functional": "B3LYP", 
		 "basiset": "6-31G**", 
		 "properties": { 
			 "R2extent": 1021.791, 
			 "electric_dipole_moment_norm": 2.09001488272, 
			 "electric_quadrupole_moment_norm": 12.7794623498, 
			 "total_energy": -319.685157516, 
			 "HOMO_LUMO_gap": 0.18731, 
			 "cosmo_polarized_energy": -10.03, 
			 "cosmo_cavitation_energy": 16.12, 
			 "cosmo_dispersion_energy": -12.4, 
			 "cosmo_repulsion_energy": 1.05, 
			 "cosmo_total_nonelectrostatic_energy": 4.77, 
			 "SMD_solvation_energy": 0.21 
		},
		"coords": [
			{
				"x": 1.7656145578,
				"y": -2.0927782571,
				"z": 2.1269901607,
				"element": "N" 
			},
			{
				"x": 1.4510658988,
				"y": -1.0933912044,
				"z": 1.233049884,
				"element": "C" 
			},
			{
				"x": 0.2730707818,
				"y": -1.1823619973,
				"z": 0.6006498875,
				"element": "N" 
			},
			{
				"x": 0.0099524558,
				"y": -0.2304507631,
				"z": -0.303424713,
				"element": "C" 
			},
			{
				"x": 0.8935047916,
				"y": 0.8082754785,
				"z": -0.5780998068,
				"element": "C" 
			},
			{
				"x": 2.0716602789,
				"y": 0.9053754195,
				"z": 0.0621780767,
				"element": "N" 
			},
			{
				"x": 2.3493819034,
				"y": -0.0347886234,
				"z": 0.9550566129,
				"element": "C" 
			},
			{
				"x": 0.9830575806,
				"y": -2.6621723218,
				"z": 2.4164787254,
				"element": "H" 
			},
			{
				"x": 2.4402411821,
				"y": -1.8849507541,
				"z": 2.8473811618,
				"element": "H" 
			},
			{
				"x": -0.9456472555,
				"y": -0.3022446703,
				"z": -0.8197624954,
				"element": "H" 
			},
			{
				"x": 0.6594566485,
				"y": 1.5735423366,
				"z": -1.3131518312,
				"element": "H" 
			},
			{
				"x": 3.3045411763,
				"y": 0.0326453568,
				"z": 1.4751543373,
				"element": "H" 
			}
		],
		 "valence_orbital": [ 
			{
				"type": "occ",
				"energy": -0.34341,
				"method": "rhf"
			},
			{
				"type": "occ",
				"energy": -0.30576,
				"method": "rhf"
			},
			{
				"type": "occ",
				"energy": -0.29983,
				"method": "rhf"
			},
			{
				"type": "occ",
				"energy": -0.2438,
				"method": "rhf"
			},
			{
				"type": "occ",
				"energy": -0.22385,
				"method": "rhf"
			},
			{
				"type": "unocc",
				"energy": -0.03654,
				"method": "rhf"
			},
			{
				"type": "unocc",
				"energy": 0.00011,
				"method": "rhf"
			},
			{
				"type": "unocc",
				"energy": 0.07818,
				"method": "rhf"
			},
			{
				"type": "unocc",
				"energy": 0.12537,
				"method": "rhf"
			},
			{
				"type": "unocc",
				"energy": 0.1301,
				"method": "rhf"
			}
		],
		"cosmo_sigma_profile": { 
			"-0.025": 0.0,
			"-0.024": 0.0,
			"-0.023": 0.0,
			"-0.022": 0.0,
			"-0.021": 0.0,
			"-0.02": 0.0,
			"-0.019": 0.0,
			"-0.018": 0.0,
			"-0.017": 0.0,
			"-0.016": 0.0,
			"-0.015": 0.00234977544318,
			"-0.014": 0.86953112644,
			"-0.013": 2.50131420839,
			"-0.012": 2.45093373287,
			"-0.011": 2.52740354475,
			"-0.01": 2.88472725077,
			"-0.009": 2.64629252721,
			"-0.008": 2.41025917816,
			"-0.007": 4.94211338047,
			"-0.006": 7.51783271644,
			"-0.005": 5.77494475508,
			"-0.004": 6.38021630976,
			"-0.003": 5.56043040684,
			"-0.002": 4.71707687099,
			"-0.001": 6.58166645002,
			"0.0": 9.0220808546,
			"0.001": 10.6448455266,
			"0.002": 9.53736129712,
			"0.003": 6.85503801984,
			"0.004": 5.73375684372,
			"0.005": 4.49311042532,
			"0.006": 2.44176724229,
			"0.007": 4.020582646,
			"0.008": 3.974007144,
			"0.009": 2.6386789416,
			"0.01": 1.90592903388,
			"0.011": 2.91953798884,
			"0.012": 2.11396589748,
			"0.013": 1.46099726994,
			"0.014": 1.67987003705,
			"0.015": 1.23119445944,
			"0.016": 0.465070652668,
			"0.017": 0.0,
			"0.018": 0.0,
			"0.019": 0.0,
			"0.02": 0.0,
			"0.021": 0.0,
			"0.022": 0.0,
			"0.023": 0.0,
			"0.024": 0.0,
			"0.025": 0.0
		}
	}
}
