{
	 "smiles": "CCC(CC)(CC)CC", 
	 "Tm": 240.15, 
	 "num_atms": 29, 
	 "gaussian": { 
		 "optdone": 1, 
		 "sigma_profile": "yes", 
		 "theory": "DFT", 
		 "functional": "B3LYP", 
		 "basiset": "6-31G**", 
		 "properties": { 
			 "R2extent": 1662.1676, 
			 "electric_dipole_moment_norm": 0.000141421356237, 
			 "electric_quadrupole_moment_norm": 0.219624770916, 
			 "total_energy": -355.03538496, 
			 "HOMO_LUMO_gap": 0.37111, 
			 "cosmo_polarized_energy": -0.79, 
			 "cosmo_cavitation_energy": 27.09, 
			 "cosmo_dispersion_energy": -19.35, 
			 "cosmo_repulsion_energy": 1.57, 
			 "cosmo_total_nonelectrostatic_energy": 9.3, 
			 "SMD_solvation_energy": 4.72 
		},
		"coords": [
			{
				"x": 0.1774550524,
				"y": -1.5170037486,
				"z": 1.312522482,
				"element": "C" 
			},
			{
				"x": 0.1696174114,
				"y": 0.0174300809,
				"z": 1.3665821525,
				"element": "C" 
			},
			{
				"x": 0.0337832864,
				"y": 0.7739512663,
				"z": 0.0134372769,
				"element": "C" 
			},
			{
				"x": 1.2887586504,
				"y": 0.4727147961,
				"z": -0.8560867085,
				"element": "C" 
			},
			{
				"x": 1.4140108142,
				"y": 1.226627227,
				"z": -2.1877331117,
				"element": "C" 
			},
			{
				"x": -1.2336745149,
				"y": 0.3076568994,
				"z": -0.7597383828,
				"element": "C" 
			},
			{
				"x": -2.5767832368,
				"y": 0.4000549392,
				"z": -0.0215262772,
				"element": "C" 
			},
			{
				"x": -0.0897525688,
				"y": 2.297936624,
				"z": 0.3031482895,
				"element": "C" 
			},
			{
				"x": 1.1205513135,
				"y": 2.9873077731,
				"z": 0.9491895762,
				"element": "C" 
			},
			{
				"x": -0.7507447375,
				"y": -1.9217076788,
				"z": 0.8967187899,
				"element": "H" 
			},
			{
				"x": 0.2880555885,
				"y": -1.9286030628,
				"z": 2.3214481148,
				"element": "H" 
			},
			{
				"x": 1.0061017319,
				"y": -1.9059292871,
				"z": 0.7126370117,
				"element": "H" 
			},
			{
				"x": 1.095507684,
				"y": 0.3460574821,
				"z": 1.8541152237,
				"element": "H" 
			},
			{
				"x": -0.6430525476,
				"y": 0.3393371253,
				"z": 2.0303781636,
				"element": "H" 
			},
			{
				"x": 2.1860110101,
				"y": 0.6718495445,
				"z": -0.2561149679,
				"element": "H" 
			},
			{
				"x": 1.3103069925,
				"y": -0.6028451554,
				"z": -1.0697823581,
				"element": "H" 
			},
			{
				"x": 2.3285560463,
				"y": 0.92250823,
				"z": -2.7080127951,
				"element": "H" 
			},
			{
				"x": 1.4659027212,
				"y": 2.3108797712,
				"z": -2.0465790568,
				"element": "H" 
			},
			{
				"x": 0.5759775614,
				"y": 1.02024287,
				"z": -2.8606622971,
				"element": "H" 
			},
			{
				"x": -1.0837210864,
				"y": -0.7303158922,
				"z": -1.0834570137,
				"element": "H" 
			},
			{
				"x": -1.3107222872,
				"y": 0.8954597975,
				"z": -1.682512117,
				"element": "H" 
			},
			{
				"x": -2.8162331685,
				"y": 1.4258002051,
				"z": 0.2756165166,
				"element": "H" 
			},
			{
				"x": -2.5968759418,
				"y": -0.2192334491,
				"z": 0.8808415279,
				"element": "H" 
			},
			{
				"x": -3.3879492298,
				"y": 0.0541992582,
				"z": -0.6711119554,
				"element": "H" 
			},
			{
				"x": -0.3258619913,
				"y": 2.8145521952,
				"z": -0.6360078602,
				"element": "H" 
			},
			{
				"x": -0.9592450654,
				"y": 2.4561623633,
				"z": 0.9526688551,
				"element": "H" 
			},
			{
				"x": 0.9073216578,
				"y": 4.0494796975,
				"z": 1.1100772301,
				"element": "H" 
			},
			{
				"x": 2.0152717561,
				"y": 2.9270586675,
				"z": 0.3214362044,
				"element": "H" 
			},
			{
				"x": 1.3705270977,
				"y": 2.5569714607,
				"z": 1.9239074864,
				"element": "H" 
			}
		],
		 "valence_orbital": [ 
			{
				"type": "occ",
				"energy": -0.33748,
				"method": "rhf"
			},
			{
				"type": "occ",
				"energy": -0.31672,
				"method": "rhf"
			},
			{
				"type": "occ",
				"energy": -0.29577,
				"method": "rhf"
			},
			{
				"type": "occ",
				"energy": -0.28991,
				"method": "rhf"
			},
			{
				"type": "occ",
				"energy": -0.28989,
				"method": "rhf"
			},
			{
				"type": "unocc",
				"energy": 0.08122,
				"method": "rhf"
			},
			{
				"type": "unocc",
				"energy": 0.0948,
				"method": "rhf"
			},
			{
				"type": "unocc",
				"energy": 0.11404,
				"method": "rhf"
			},
			{
				"type": "unocc",
				"energy": 0.11404,
				"method": "rhf"
			},
			{
				"type": "unocc",
				"energy": 0.14107,
				"method": "rhf"
			}
		],
		"cosmo_sigma_profile": { 
			"-0.025": 0.0,
			"-0.024": 0.0,
			"-0.023": 0.0,
			"-0.022": 0.0,
			"-0.021": 0.0,
			"-0.02": 0.0,
			"-0.019": 0.0,
			"-0.018": 0.0,
			"-0.017": 0.0,
			"-0.016": 0.0,
			"-0.015": 0.0,
			"-0.014": 0.0,
			"-0.013": 0.0,
			"-0.012": 0.0,
			"-0.011": 0.0,
			"-0.01": 0.0,
			"-0.009": 0.0,
			"-0.008": 0.0,
			"-0.007": 0.0,
			"-0.006": 0.0,
			"-0.005": 0.0,
			"-0.004": 0.0,
			"-0.003": 3.49816007944,
			"-0.002": 29.1240835494,
			"-0.001": 46.5795685923,
			"0.0": 46.9150797661,
			"0.001": 49.3876835887,
			"0.002": 29.3365840902,
			"0.003": 2.12987885183,
			"0.004": 0.0,
			"0.005": 0.0,
			"0.006": 0.0,
			"0.007": 0.0,
			"0.008": 0.0,
			"0.009": 0.0,
			"0.01": 0.0,
			"0.011": 0.0,
			"0.012": 0.0,
			"0.013": 0.0,
			"0.014": 0.0,
			"0.015": 0.0,
			"0.016": 0.0,
			"0.017": 0.0,
			"0.018": 0.0,
			"0.019": 0.0,
			"0.02": 0.0,
			"0.021": 0.0,
			"0.022": 0.0,
			"0.023": 0.0,
			"0.024": 0.0,
			"0.025": 0.0
		}
	}
}
