{
	 "smiles": "FC(F)(F)C1CCC(CC1)NC(=O)CCl", 
	 "Tm": 339.15, 
	 "num_atms": 28, 
	 "gaussian": { 
		 "optdone": 1, 
		 "sigma_profile": "yes", 
		 "theory": "DFT", 
		 "functional": "B3LYP", 
		 "basiset": "6-31G**", 
		 "properties": { 
			 "R2extent": 4627.8253, 
			 "electric_dipole_moment_norm": 1.55048563038, 
			 "electric_quadrupole_moment_norm": 12.7870374782, 
			 "total_energy": -1240.52166234, 
			 "HOMO_LUMO_gap": 0.27064, 
			 "cosmo_polarized_energy": -11.47, 
			 "cosmo_cavitation_energy": 32.56, 
			 "cosmo_dispersion_energy": -22.55, 
			 "cosmo_repulsion_energy": 1.73, 
			 "cosmo_total_nonelectrostatic_energy": 11.74, 
			 "SMD_solvation_energy": 5.96 
		},
		"coords": [
			{
				"x": -2.6461872973,
				"y": -2.4222566634,
				"z": 0.5774455625,
				"element": "F" 
			},
			{
				"x": -2.5451191277,
				"y": -1.0726935128,
				"z": 0.55629739,
				"element": "C" 
			},
			{
				"x": -2.9482777108,
				"y": -0.6604991469,
				"z": -0.6666298053,
				"element": "F" 
			},
			{
				"x": -3.4388329748,
				"y": -0.5936557683,
				"z": 1.4544242811,
				"element": "F" 
			},
			{
				"x": -1.1326795339,
				"y": -0.6125400586,
				"z": 0.8604608816,
				"element": "C" 
			},
			{
				"x": -0.6748936448,
				"y": -1.0783899658,
				"z": 2.2516696388,
				"element": "C" 
			},
			{
				"x": 0.8192119405,
				"y": -0.7648675553,
				"z": 2.4778451007,
				"element": "C" 
			},
			{
				"x": 1.271223943,
				"y": 0.5784291106,
				"z": 1.8483369586,
				"element": "C" 
			},
			{
				"x": 0.06954587,
				"y": 1.5182781733,
				"z": 1.6510161203,
				"element": "C" 
			},
			{
				"x": -1.003326092,
				"y": 0.927232973,
				"z": 0.713364252,
				"element": "C" 
			},
			{
				"x": 1.9760935877,
				"y": 0.3364634283,
				"z": 0.5805589712,
				"element": "N" 
			},
			{
				"x": 2.8126358288,
				"y": 1.2552741274,
				"z": 0.0491235347,
				"element": "C" 
			},
			{
				"x": 3.0347972477,
				"y": 2.3591328863,
				"z": 0.5354854764,
				"element": "O" 
			},
			{
				"x": 3.5461021378,
				"y": 0.9062969516,
				"z": -1.2495070827,
				"element": "C" 
			},
			{
				"x": 3.2224627639,
				"y": -0.7367725429,
				"z": -1.9584938927,
				"element": "Cl" 
			},
			{
				"x": -0.5100594451,
				"y": -1.1063306735,
				"z": 0.1033159007,
				"element": "H" 
			},
			{
				"x": -0.854801603,
				"y": -2.1505238718,
				"z": 2.3723042053,
				"element": "H" 
			},
			{
				"x": -1.2871399033,
				"y": -0.5724494986,
				"z": 3.0063932839,
				"element": "H" 
			},
			{
				"x": 1.4387863023,
				"y": -1.5772876778,
				"z": 2.0784046568,
				"element": "H" 
			},
			{
				"x": 1.0188417242,
				"y": -0.7401842109,
				"z": 3.5536281307,
				"element": "H" 
			},
			{
				"x": 1.9928467674,
				"y": 1.0756105412,
				"z": 2.5035528733,
				"element": "H" 
			},
			{
				"x": -0.3613636622,
				"y": 1.71225618,
				"z": 2.6409612001,
				"element": "H" 
			},
			{
				"x": 0.4232122382,
				"y": 2.4795202443,
				"z": 1.2698819467,
				"element": "H" 
			},
			{
				"x": -1.9661288714,
				"y": 1.3968395423,
				"z": 0.9382860581,
				"element": "H" 
			},
			{
				"x": -0.7747436126,
				"y": 1.1697224117,
				"z": -0.3278689371,
				"element": "H" 
			},
			{
				"x": 1.8858390256,
				"y": -0.5557248763,
				"z": 0.115458636,
				"element": "H" 
			},
			{
				"x": 4.618635161,
				"y": 0.9706892905,
				"z": -1.0656301307,
				"element": "H" 
			},
			{
				"x": 3.2739189408,
				"y": 1.6405301623,
				"z": -2.007885211,
				"element": "H" 
			}
		],
		 "valence_orbital": [ 
			{
				"type": "occ",
				"energy": -0.32989,
				"method": "rhf"
			},
			{
				"type": "occ",
				"energy": -0.32406,
				"method": "rhf"
			},
			{
				"type": "occ",
				"energy": -0.31404,
				"method": "rhf"
			},
			{
				"type": "occ",
				"energy": -0.26512,
				"method": "rhf"
			},
			{
				"type": "occ",
				"energy": -0.26114,
				"method": "rhf"
			},
			{
				"type": "unocc",
				"energy": 0.0095,
				"method": "rhf"
			},
			{
				"type": "unocc",
				"energy": 0.01263,
				"method": "rhf"
			},
			{
				"type": "unocc",
				"energy": 0.05924,
				"method": "rhf"
			},
			{
				"type": "unocc",
				"energy": 0.07984,
				"method": "rhf"
			},
			{
				"type": "unocc",
				"energy": 0.09811,
				"method": "rhf"
			}
		],
		"cosmo_sigma_profile": { 
			"-0.025": 0.0,
			"-0.024": 0.0,
			"-0.023": 0.0,
			"-0.022": 0.0,
			"-0.021": 0.0,
			"-0.02": 0.0,
			"-0.019": 0.0,
			"-0.018": 0.0,
			"-0.017": 0.0,
			"-0.016": 0.0,
			"-0.015": 0.0,
			"-0.014": 0.0,
			"-0.013": 0.0,
			"-0.012": 0.0724178457653,
			"-0.011": 1.28508964053,
			"-0.01": 1.24966822958,
			"-0.009": 4.1240744876,
			"-0.008": 5.27709960274,
			"-0.007": 6.05872212286,
			"-0.006": 6.81520991686,
			"-0.005": 7.40514710897,
			"-0.004": 21.9823299968,
			"-0.003": 26.7584909533,
			"-0.002": 23.7411707598,
			"-0.001": 24.9025893263,
			"0.0": 20.7889696166,
			"0.001": 12.0923801805,
			"0.002": 14.5278692924,
			"0.003": 34.2703757528,
			"0.004": 16.3302939106,
			"0.005": 7.87972096861,
			"0.006": 4.91732906454,
			"0.007": 1.92247562163,
			"0.008": 1.10583191978,
			"0.009": 1.29998961681,
			"0.01": 1.32164672529,
			"0.011": 1.33321134255,
			"0.012": 2.13133992181,
			"0.013": 4.50856248916,
			"0.014": 2.8011117487,
			"0.015": 0.129438646986,
			"0.016": 0.0,
			"0.017": 0.0,
			"0.018": 0.0,
			"0.019": 0.0,
			"0.02": 0.0,
			"0.021": 0.0,
			"0.022": 0.0,
			"0.023": 0.0,
			"0.024": 0.0,
			"0.025": 0.0
		}
	}
}
