{
	 "smiles": "OCC1=NC2=C(C(=CS2)C2=CC=CC=C2)C(=O)N1", 
	 "Tm": 533.15, 
	 "num_atms": 28, 
	 "gaussian": { 
		 "optdone": 1, 
		 "sigma_profile": "yes", 
		 "theory": "DFT", 
		 "functional": "B3LYP", 
		 "basiset": "6-31G**", 
		 "properties": { 
			 "R2extent": 5760.8335, 
			 "electric_dipole_moment_norm": 2.41449845102, 
			 "electric_quadrupole_moment_norm": 14.8804604804, 
			 "total_energy": -1159.55963185, 
			 "HOMO_LUMO_gap": 0.16674, 
			 "cosmo_polarized_energy": -17.39, 
			 "cosmo_cavitation_energy": 33.98, 
			 "cosmo_dispersion_energy": -25.57, 
			 "cosmo_repulsion_energy": 1.92, 
			 "cosmo_total_nonelectrostatic_energy": 10.33, 
			 "SMD_solvation_energy": 4.22 
		},
		"coords": [
			{
				"x": -2.507607088,
				"y": -3.3582776133,
				"z": -2.3879824684,
				"element": "O" 
			},
			{
				"x": -1.6778483304,
				"y": -2.497729856,
				"z": -3.1534653337,
				"element": "C" 
			},
			{
				"x": -1.0822864882,
				"y": -1.374946694,
				"z": -2.3258255496,
				"element": "C" 
			},
			{
				"x": -0.6367023868,
				"y": -0.297646644,
				"z": -2.9068206436,
				"element": "N" 
			},
			{
				"x": -0.0707755635,
				"y": 0.6077288468,
				"z": -2.0579318949,
				"element": "C" 
			},
			{
				"x": 0.0538289938,
				"y": 0.5119481295,
				"z": -0.6679637851,
				"element": "C" 
			},
			{
				"x": 0.7318412962,
				"y": 1.6504289522,
				"z": -0.0843062489,
				"element": "C" 
			},
			{
				"x": 1.0818193518,
				"y": 2.5547535911,
				"z": -1.0556072782,
				"element": "C" 
			},
			{
				"x": 0.6245442386,
				"y": 2.085548541,
				"z": -2.6663035044,
				"element": "S" 
			},
			{
				"x": 1.0488563608,
				"y": 1.8930415887,
				"z": 1.3450052973,
				"element": "C" 
			},
			{
				"x": 2.3034769487,
				"y": 2.4225587408,
				"z": 1.6927770589,
				"element": "C" 
			},
			{
				"x": 2.6094416591,
				"y": 2.728374063,
				"z": 3.0183031765,
				"element": "C" 
			},
			{
				"x": 1.6658353016,
				"y": 2.5075535207,
				"z": 4.0223018596,
				"element": "C" 
			},
			{
				"x": 0.418418199,
				"y": 1.9752523031,
				"z": 3.6893407107,
				"element": "C" 
			},
			{
				"x": 0.1104081755,
				"y": 1.6689738299,
				"z": 2.3652747918,
				"element": "C" 
			},
			{
				"x": -0.4520142411,
				"y": -0.6982515898,
				"z": -0.0317135612,
				"element": "C" 
			},
			{
				"x": -0.4523399528,
				"y": -1.0090634179,
				"z": 1.1509736462,
				"element": "O" 
			},
			{
				"x": -1.0096944148,
				"y": -1.5875943367,
				"z": -0.984190456,
				"element": "N" 
			},
			{
				"x": -3.3611607935,
				"y": -2.9232178686,
				"z": -2.2606478092,
				"element": "H" 
			},
			{
				"x": -2.1876443582,
				"y": -2.0570072604,
				"z": -4.017740956,
				"element": "H" 
			},
			{
				"x": -0.8627948664,
				"y": -3.1218392044,
				"z": -3.5372892207,
				"element": "H" 
			},
			{
				"x": 1.5681382717,
				"y": 3.5073974256,
				"z": -0.8989721831,
				"element": "H" 
			},
			{
				"x": 3.0494723236,
				"y": 2.5736250772,
				"z": 0.9178860754,
				"element": "H" 
			},
			{
				"x": 3.5879587755,
				"y": 3.1301368152,
				"z": 3.2660359791,
				"element": "H" 
			},
			{
				"x": 1.9024867069,
				"y": 2.7410387834,
				"z": 5.0564758422,
				"element": "H" 
			},
			{
				"x": -0.320862339,
				"y": 1.7959146967,
				"z": 4.4647807455,
				"element": "H" 
			},
			{
				"x": -0.8555113134,
				"y": 1.2449729659,
				"z": 2.1212729765,
				"element": "H" 
			},
			{
				"x": -1.3920844668,
				"y": -2.4557733858,
				"z": -0.6217672667,
				"element": "H" 
			}
		],
		 "valence_orbital": [ 
			{
				"type": "occ",
				"energy": -0.27191,
				"method": "rhf"
			},
			{
				"type": "occ",
				"energy": -0.26349,
				"method": "rhf"
			},
			{
				"type": "occ",
				"energy": -0.24264,
				"method": "rhf"
			},
			{
				"type": "occ",
				"energy": -0.23822,
				"method": "rhf"
			},
			{
				"type": "occ",
				"energy": -0.21345,
				"method": "rhf"
			},
			{
				"type": "unocc",
				"energy": -0.04671,
				"method": "rhf"
			},
			{
				"type": "unocc",
				"energy": -0.02066,
				"method": "rhf"
			},
			{
				"type": "unocc",
				"energy": -0.00405,
				"method": "rhf"
			},
			{
				"type": "unocc",
				"energy": 0.00634,
				"method": "rhf"
			},
			{
				"type": "unocc",
				"energy": 0.02144,
				"method": "rhf"
			}
		],
		"cosmo_sigma_profile": { 
			"-0.025": 0.0,
			"-0.024": 0.0,
			"-0.023": 0.0,
			"-0.022": 0.0,
			"-0.021": 0.0,
			"-0.02": 0.0,
			"-0.019": 0.0,
			"-0.018": 0.0790630488438,
			"-0.017": 1.24714548107,
			"-0.016": 1.17097810945,
			"-0.015": 1.23769970642,
			"-0.014": 0.851506453985,
			"-0.013": 1.52594274991,
			"-0.012": 1.81443269735,
			"-0.011": 1.45756270747,
			"-0.01": 1.64639688402,
			"-0.009": 3.30882974047,
			"-0.008": 5.98622347786,
			"-0.007": 8.66700473448,
			"-0.006": 11.813833898,
			"-0.005": 16.5686411669,
			"-0.004": 17.8068839953,
			"-0.003": 20.392782153,
			"-0.002": 16.7374849308,
			"-0.001": 14.8116189171,
			"0.0": 16.8656713091,
			"0.001": 23.0595601046,
			"0.002": 22.864786065,
			"0.003": 19.6499324827,
			"0.004": 12.5340093992,
			"0.005": 12.1700104373,
			"0.006": 10.0092713569,
			"0.007": 4.31284574065,
			"0.008": 3.34153143203,
			"0.009": 2.66561735079,
			"0.01": 3.68910118736,
			"0.011": 4.38307879083,
			"0.012": 5.32610684119,
			"0.013": 5.78665684126,
			"0.014": 0.910263477714,
			"0.015": 0.0,
			"0.016": 0.0,
			"0.017": 0.0,
			"0.018": 0.0,
			"0.019": 0.0,
			"0.02": 0.0,
			"0.021": 0.0,
			"0.022": 0.0,
			"0.023": 0.0,
			"0.024": 0.0,
			"0.025": 0.0
		}
	}
}
