{
	 "smiles": "OC(=O)C=CC1=CC=CN=C1", 
	 "Tm": 508.15, 
	 "num_atms": 18, 
	 "gaussian": { 
		 "optdone": 1, 
		 "sigma_profile": "yes", 
		 "theory": "DFT", 
		 "functional": "B3LYP", 
		 "basiset": "6-31G**", 
		 "properties": { 
			 "R2extent": 2478.1876, 
			 "electric_dipole_moment_norm": 3.25783645384, 
			 "electric_quadrupole_moment_norm": 20.7294597824, 
			 "total_energy": -514.253528587, 
			 "HOMO_LUMO_gap": 0.17286, 
			 "cosmo_polarized_energy": -17.7, 
			 "cosmo_cavitation_energy": 23.48, 
			 "cosmo_dispersion_energy": -17.2, 
			 "cosmo_repulsion_energy": 1.37, 
			 "cosmo_total_nonelectrostatic_energy": 7.66, 
			 "SMD_solvation_energy": 4.07 
		},
		"coords": [
			{
				"x": -1.5844448988,
				"y": -0.5348007134,
				"z": 3.5318049355,
				"element": "O" 
			},
			{
				"x": -0.5157766535,
				"y": -0.4656806797,
				"z": 2.6907474991,
				"element": "C" 
			},
			{
				"x": 0.6068928491,
				"y": -0.4787470633,
				"z": 3.1425715745,
				"element": "O" 
			},
			{
				"x": -0.8385211008,
				"y": -0.3773135703,
				"z": 1.2417749366,
				"element": "C" 
			},
			{
				"x": 0.1615454788,
				"y": -0.3059948495,
				"z": 0.345033145,
				"element": "C" 
			},
			{
				"x": 0.0645664836,
				"y": -0.2141677761,
				"z": -1.110267274,
				"element": "C" 
			},
			{
				"x": 1.237360098,
				"y": -0.1487257452,
				"z": -1.8804293266,
				"element": "C" 
			},
			{
				"x": 1.1457513044,
				"y": -0.0614044032,
				"z": -3.265789565,
				"element": "C" 
			},
			{
				"x": -0.1223224025,
				"y": -0.0417626511,
				"z": -3.8469830718,
				"element": "C" 
			},
			{
				"x": -1.2603875624,
				"y": -0.1027128442,
				"z": -3.1388457914,
				"element": "N" 
			},
			{
				"x": -1.1567208091,
				"y": -0.1860188118,
				"z": -1.8131831395,
				"element": "C" 
			},
			{
				"x": -2.4118939282,
				"y": -0.5145800128,
				"z": 3.0314944894,
				"element": "H" 
			},
			{
				"x": -1.8827303874,
				"y": -0.3722789369,
				"z": 0.9367713559,
				"element": "H" 
			},
			{
				"x": 1.1687772256,
				"y": -0.3186066137,
				"z": 0.7599666417,
				"element": "H" 
			},
			{
				"x": 2.2062949223,
				"y": -0.1668331696,
				"z": -1.3883202712,
				"element": "H" 
			},
			{
				"x": 2.0354863381,
				"y": -0.0095347962,
				"z": -3.8850239034,
				"element": "H" 
			},
			{
				"x": -0.2341615967,
				"y": 0.0257459679,
				"z": -4.9273201548,
				"element": "H" 
			},
			{
				"x": -2.0996153605,
				"y": -0.2336833308,
				"z": -1.2714020801,
				"element": "H" 
			}
		],
		 "valence_orbital": [ 
			{
				"type": "occ",
				"energy": -0.31325,
				"method": "rhf"
			},
			{
				"type": "occ",
				"energy": -0.29583,
				"method": "rhf"
			},
			{
				"type": "occ",
				"energy": -0.27467,
				"method": "rhf"
			},
			{
				"type": "occ",
				"energy": -0.26851,
				"method": "rhf"
			},
			{
				"type": "occ",
				"energy": -0.25397,
				"method": "rhf"
			},
			{
				"type": "unocc",
				"energy": -0.08111,
				"method": "rhf"
			},
			{
				"type": "unocc",
				"energy": -0.0374,
				"method": "rhf"
			},
			{
				"type": "unocc",
				"energy": 0.00553,
				"method": "rhf"
			},
			{
				"type": "unocc",
				"energy": 0.05339,
				"method": "rhf"
			},
			{
				"type": "unocc",
				"energy": 0.08249,
				"method": "rhf"
			}
		],
		"cosmo_sigma_profile": { 
			"-0.025": 0.0,
			"-0.024": 0.0,
			"-0.023": 0.0,
			"-0.022": 0.0,
			"-0.021": 0.0,
			"-0.02": 0.0700587911447,
			"-0.019": 0.749856926842,
			"-0.018": 1.4563354909,
			"-0.017": 1.32332165453,
			"-0.016": 0.993721917119,
			"-0.015": 1.05107485097,
			"-0.014": 0.587010933713,
			"-0.013": 1.01087908917,
			"-0.012": 1.04096457463,
			"-0.011": 1.94786591688,
			"-0.01": 1.73774265085,
			"-0.009": 2.29702328089,
			"-0.008": 5.88519911172,
			"-0.007": 10.1558070415,
			"-0.006": 10.3370446641,
			"-0.005": 9.74460211087,
			"-0.004": 8.00717128715,
			"-0.003": 8.57975284609,
			"-0.002": 8.27154439653,
			"-0.001": 11.0054887439,
			"0.0": 14.7126597551,
			"0.001": 21.1785625209,
			"0.002": 13.6190605962,
			"0.003": 5.51617968745,
			"0.004": 4.66710867053,
			"0.005": 3.10415387262,
			"0.006": 3.80768276389,
			"0.007": 4.21087409397,
			"0.008": 3.74435690908,
			"0.009": 3.72040249848,
			"0.01": 4.90692122525,
			"0.011": 6.44965420131,
			"0.012": 6.25039957391,
			"0.013": 3.45511604171,
			"0.014": 1.36969212044,
			"0.015": 0.922632815357,
			"0.016": 0.593222940537,
			"0.017": 0.131841973762,
			"0.018": 0.0,
			"0.019": 0.0,
			"0.02": 0.0,
			"0.021": 0.0,
			"0.022": 0.0,
			"0.023": 0.0,
			"0.024": 0.0,
			"0.025": 0.0
		}
	}
}
