{
	 "smiles": "COC(=O)C1(CC1)S(=O)(=O)C1=CC=C(Cl)C=C1", 
	 "Tm": 389.15, 
	 "num_atms": 28, 
	 "gaussian": { 
		 "optdone": 1, 
		 "sigma_profile": "yes", 
		 "theory": "DFT", 
		 "functional": "B3LYP", 
		 "basiset": "6-31G**", 
		 "properties": { 
			 "R2extent": 7088.5237, 
			 "electric_dipole_moment_norm": 5.13402295379, 
			 "electric_quadrupole_moment_norm": 18.9313063738, 
			 "total_energy": -1584.98371116, 
			 "HOMO_LUMO_gap": 0.21669, 
			 "cosmo_polarized_energy": -15.32, 
			 "cosmo_cavitation_energy": 35.21, 
			 "cosmo_dispersion_energy": -25.15, 
			 "cosmo_repulsion_energy": 1.91, 
			 "cosmo_total_nonelectrostatic_energy": 11.97, 
			 "SMD_solvation_energy": 6.36 
		},
		"coords": [
			{
				"x": 2.7801801477,
				"y": -2.8567286914,
				"z": -0.9518576797,
				"element": "C" 
			},
			{
				"x": 2.3542368726,
				"y": -1.7165070928,
				"z": -0.1821811386,
				"element": "O" 
			},
			{
				"x": 1.1658760471,
				"y": -1.8563707295,
				"z": 0.4442043881,
				"element": "C" 
			},
			{
				"x": 0.4887297002,
				"y": -2.8595061114,
				"z": 0.3741194135,
				"element": "O" 
			},
			{
				"x": 0.799054543,
				"y": -0.6153338526,
				"z": 1.196160689,
				"element": "C" 
			},
			{
				"x": 1.0771730542,
				"y": 0.7474105,
				"z": 0.5684770635,
				"element": "C" 
			},
			{
				"x": 1.8923688778,
				"y": 0.3039062909,
				"z": 1.7323035074,
				"element": "C" 
			},
			{
				"x": -0.6583830437,
				"y": -0.7482251913,
				"z": 2.282328357,
				"element": "S" 
			},
			{
				"x": -0.8211149711,
				"y": 0.6019495692,
				"z": 2.8549274742,
				"element": "O" 
			},
			{
				"x": -0.4858644524,
				"y": -1.9170364732,
				"z": 3.1516161938,
				"element": "O" 
			},
			{
				"x": -2.0734115696,
				"y": -1.0302605177,
				"z": 1.2084105281,
				"element": "C" 
			},
			{
				"x": -2.8127036466,
				"y": 0.070405923,
				"z": 0.7695457244,
				"element": "C" 
			},
			{
				"x": -3.9362993719,
				"y": -0.1331415568,
				"z": -0.0296598717,
				"element": "C" 
			},
			{
				"x": -4.3018765479,
				"y": -1.4378485686,
				"z": -0.3649083961,
				"element": "C" 
			},
			{
				"x": -5.7153719218,
				"y": -1.6979854772,
				"z": -1.3699587418,
				"element": "Cl" 
			},
			{
				"x": -3.5746150901,
				"y": -2.5406622354,
				"z": 0.0874146027,
				"element": "C" 
			},
			{
				"x": -2.4498260861,
				"y": -2.3352621186,
				"z": 0.8836286392,
				"element": "C" 
			},
			{
				"x": 2.8909015093,
				"y": -3.7313651729,
				"z": -0.307100406,
				"element": "H" 
			},
			{
				"x": 3.7389044114,
				"y": -2.5735836877,
				"z": -1.3850727434,
				"element": "H" 
			},
			{
				"x": 2.053521521,
				"y": -3.082342044,
				"z": -1.7357052618,
				"element": "H" 
			},
			{
				"x": 1.51691453,
				"y": 0.7277836713,
				"z": -0.4224653899,
				"element": "H" 
			},
			{
				"x": 0.3323826957,
				"y": 1.515052299,
				"z": 0.7476776411,
				"element": "H" 
			},
			{
				"x": 1.688158718,
				"y": 0.770818293,
				"z": 2.6894740882,
				"element": "H" 
			},
			{
				"x": 2.9079519799,
				"y": -0.0359207401,
				"z": 1.5680300639,
				"element": "H" 
			},
			{
				"x": -2.525040339,
				"y": 1.0705147482,
				"z": 1.0734922498,
				"element": "H" 
			},
			{
				"x": -4.527454211,
				"y": 0.7054532666,
				"z": -0.3796441592,
				"element": "H" 
			},
			{
				"x": -3.8873982734,
				"y": -3.5440944143,
				"z": -0.1779874188,
				"element": "H" 
			},
			{
				"x": -1.8644950835,
				"y": -3.1708198858,
				"z": 1.2456305832,
				"element": "H" 
			}
		],
		 "valence_orbital": [ 
			{
				"type": "occ",
				"energy": -0.29936,
				"method": "rhf"
			},
			{
				"type": "occ",
				"energy": -0.29238,
				"method": "rhf"
			},
			{
				"type": "occ",
				"energy": -0.28972,
				"method": "rhf"
			},
			{
				"type": "occ",
				"energy": -0.2767,
				"method": "rhf"
			},
			{
				"type": "occ",
				"energy": -0.26351,
				"method": "rhf"
			},
			{
				"type": "unocc",
				"energy": -0.04682,
				"method": "rhf"
			},
			{
				"type": "unocc",
				"energy": -0.02749,
				"method": "rhf"
			},
			{
				"type": "unocc",
				"energy": -0.0114,
				"method": "rhf"
			},
			{
				"type": "unocc",
				"energy": 0.01913,
				"method": "rhf"
			},
			{
				"type": "unocc",
				"energy": 0.04892,
				"method": "rhf"
			}
		],
		"cosmo_sigma_profile": { 
			"-0.025": 0.0,
			"-0.024": 0.0,
			"-0.023": 0.0,
			"-0.022": 0.0,
			"-0.021": 0.0,
			"-0.02": 0.0,
			"-0.019": 0.0,
			"-0.018": 0.0,
			"-0.017": 0.0,
			"-0.016": 0.0,
			"-0.015": 0.0,
			"-0.014": 0.0,
			"-0.013": 0.0,
			"-0.012": 0.0,
			"-0.011": 0.0,
			"-0.01": 0.0,
			"-0.009": 0.448803865033,
			"-0.008": 4.8190565388,
			"-0.007": 11.5343874563,
			"-0.006": 18.711962494,
			"-0.005": 19.9378610071,
			"-0.004": 23.2410956652,
			"-0.003": 22.4084592166,
			"-0.002": 21.6077990696,
			"-0.001": 18.7145692606,
			"0.0": 23.8787227062,
			"0.001": 28.0978974823,
			"0.002": 16.2182362031,
			"0.003": 13.1877335752,
			"0.004": 14.971352001,
			"0.005": 5.47078016623,
			"0.006": 4.96069164968,
			"0.007": 3.47628723502,
			"0.008": 5.06607906726,
			"0.009": 5.75681787464,
			"0.01": 9.68030098395,
			"0.011": 8.85751020631,
			"0.012": 2.66359013798,
			"0.013": 0.0,
			"0.014": 0.0,
			"0.015": 0.0,
			"0.016": 0.0,
			"0.017": 0.0,
			"0.018": 0.0,
			"0.019": 0.0,
			"0.02": 0.0,
			"0.021": 0.0,
			"0.022": 0.0,
			"0.023": 0.0,
			"0.024": 0.0,
			"0.025": 0.0
		}
	}
}
