{
	 "smiles": "COC1=CC=C(C=C1)N1C=CC(=N1)C(O)=O", 
	 "Tm": 456.15, 
	 "num_atms": 26, 
	 "gaussian": { 
		 "optdone": 1, 
		 "sigma_profile": "yes", 
		 "theory": "DFT", 
		 "functional": "B3LYP", 
		 "basiset": "6-31G**", 
		 "properties": { 
			 "R2extent": 5587.0885, 
			 "electric_dipole_moment_norm": 7.17978190825, 
			 "electric_quadrupole_moment_norm": 24.6119842441, 
			 "total_energy": -760.351185098, 
			 "HOMO_LUMO_gap": 0.17458, 
			 "cosmo_polarized_energy": -15.8, 
			 "cosmo_cavitation_energy": 31.17, 
			 "cosmo_dispersion_energy": -23.03, 
			 "cosmo_repulsion_energy": 1.76, 
			 "cosmo_total_nonelectrostatic_energy": 9.9, 
			 "SMD_solvation_energy": 7.25 
		},
		"coords": [
			{
				"x": 1.157534862,
				"y": -0.2636736033,
				"z": 5.1474262204,
				"element": "C" 
			},
			{
				"x": 1.235250649,
				"y": -1.4043171806,
				"z": 4.3044962804,
				"element": "O" 
			},
			{
				"x": 0.7439090431,
				"y": -1.3064920318,
				"z": 3.038817839,
				"element": "C" 
			},
			{
				"x": 0.8471316603,
				"y": -2.4633092898,
				"z": 2.2519490942,
				"element": "C" 
			},
			{
				"x": 0.3776972587,
				"y": -2.473963469,
				"z": 0.9464260569,
				"element": "C" 
			},
			{
				"x": -0.2067724495,
				"y": -1.3230039645,
				"z": 0.3994695852,
				"element": "C" 
			},
			{
				"x": -0.3113307202,
				"y": -0.1702831076,
				"z": 1.1787873092,
				"element": "C" 
			},
			{
				"x": 0.1600089973,
				"y": -0.1577923704,
				"z": 2.4913522215,
				"element": "C" 
			},
			{
				"x": -0.694178549,
				"y": -1.3176642319,
				"z": -0.940678969,
				"element": "N" 
			},
			{
				"x": -0.6808976223,
				"y": -2.3404880836,
				"z": -1.855715618,
				"element": "C" 
			},
			{
				"x": -1.2594630047,
				"y": -1.8664950712,
				"z": -3.0107647889,
				"element": "C" 
			},
			{
				"x": -1.5997590144,
				"y": -0.5313616087,
				"z": -2.7069799493,
				"element": "C" 
			},
			{
				"x": -1.2558546296,
				"y": -0.2076285156,
				"z": -1.4570895363,
				"element": "N" 
			},
			{
				"x": -2.2558363088,
				"y": 0.4730968339,
				"z": -3.5816699073,
				"element": "C" 
			},
			{
				"x": -2.4517521714,
				"y": 1.6786301939,
				"z": -3.0011354331,
				"element": "O" 
			},
			{
				"x": -2.5910045544,
				"y": 0.2445523715,
				"z": -4.7208764505,
				"element": "O" 
			},
			{
				"x": 1.6017772266,
				"y": -0.5617970692,
				"z": 6.0978803751,
				"element": "H" 
			},
			{
				"x": 1.7214624018,
				"y": 0.5825618683,
				"z": 4.7349213306,
				"element": "H" 
			},
			{
				"x": 0.1177031396,
				"y": 0.0441346532,
				"z": 5.3156254165,
				"element": "H" 
			},
			{
				"x": 1.3011390011,
				"y": -3.3476004906,
				"z": 2.6859076633,
				"element": "H" 
			},
			{
				"x": 0.4726853866,
				"y": -3.3842199178,
				"z": 0.3657702438,
				"element": "H" 
			},
			{
				"x": -0.7630761094,
				"y": 0.7166785405,
				"z": 0.7536036964,
				"element": "H" 
			},
			{
				"x": 0.0650338743,
				"y": 0.7517482633,
				"z": 3.0718592075,
				"element": "H" 
			},
			{
				"x": -0.2696492034,
				"y": -3.3091098233,
				"z": -1.6229119025,
				"element": "H" 
			},
			{
				"x": -1.4207849332,
				"y": -2.3877454691,
				"z": -3.940989282,
				"element": "H" 
			},
			{
				"x": -2.1071742302,
				"y": 1.6336425733,
				"z": -2.0917807033,
				"element": "H" 
			}
		],
		 "valence_orbital": [ 
			{
				"type": "occ",
				"energy": -0.28706,
				"method": "rhf"
			},
			{
				"type": "occ",
				"energy": -0.27585,
				"method": "rhf"
			},
			{
				"type": "occ",
				"energy": -0.26915,
				"method": "rhf"
			},
			{
				"type": "occ",
				"energy": -0.26626,
				"method": "rhf"
			},
			{
				"type": "occ",
				"energy": -0.22261,
				"method": "rhf"
			},
			{
				"type": "unocc",
				"energy": -0.04803,
				"method": "rhf"
			},
			{
				"type": "unocc",
				"energy": -0.02338,
				"method": "rhf"
			},
			{
				"type": "unocc",
				"energy": -0.00308,
				"method": "rhf"
			},
			{
				"type": "unocc",
				"energy": 0.03524,
				"method": "rhf"
			},
			{
				"type": "unocc",
				"energy": 0.06765,
				"method": "rhf"
			}
		],
		"cosmo_sigma_profile": { 
			"-0.025": 0.0,
			"-0.024": 0.0,
			"-0.023": 0.0,
			"-0.022": 0.0,
			"-0.021": 0.0,
			"-0.02": 0.0,
			"-0.019": 0.0,
			"-0.018": 0.0,
			"-0.017": 0.0,
			"-0.016": 0.0,
			"-0.015": 0.108437245918,
			"-0.014": 0.458183105177,
			"-0.013": 0.647050259139,
			"-0.012": 1.17436417845,
			"-0.011": 2.17668491699,
			"-0.01": 2.54947168519,
			"-0.009": 2.68527245439,
			"-0.008": 4.45513486673,
			"-0.007": 6.08982442945,
			"-0.006": 16.9174092297,
			"-0.005": 18.9504593211,
			"-0.004": 18.2896555144,
			"-0.003": 16.9612833589,
			"-0.002": 13.7877044015,
			"-0.001": 14.6816367377,
			"0.0": 14.5289174876,
			"0.001": 19.9602025518,
			"0.002": 19.6509023653,
			"0.003": 20.1501437709,
			"0.004": 14.5406918579,
			"0.005": 6.35707088436,
			"0.006": 4.33897830752,
			"0.007": 2.97139311024,
			"0.008": 4.00262760135,
			"0.009": 5.58990741509,
			"0.01": 5.94611218238,
			"0.011": 5.1751786402,
			"0.012": 5.40572194545,
			"0.013": 1.66969837627,
			"0.014": 0.0927230840059,
			"0.015": 0.0,
			"0.016": 0.0,
			"0.017": 0.0,
			"0.018": 0.0,
			"0.019": 0.0,
			"0.02": 0.0,
			"0.021": 0.0,
			"0.022": 0.0,
			"0.023": 0.0,
			"0.024": 0.0,
			"0.025": 0.0
		}
	}
}
