{
	 "smiles": "COC1=C(OCC2=CC=C(Br)S2)C=CC(=C1)C(O)=O", 
	 "Tm": 453.15, 
	 "num_atms": 30, 
	 "gaussian": { 
		 "optdone": 1, 
		 "sigma_profile": "yes", 
		 "theory": "DFT", 
		 "functional": "B3LYP", 
		 "basiset": "6-31G**", 
		 "properties": { 
			 "R2extent": 15079.9135, 
			 "electric_dipole_moment_norm": 3.83173829743, 
			 "electric_quadrupole_moment_norm": 30.9830187099, 
			 "total_energy": -3772.4547359, 
			 "HOMO_LUMO_gap": 0.18505, 
			 "cosmo_polarized_energy": -17.69, 
			 "cosmo_cavitation_energy": 39.52, 
			 "cosmo_dispersion_energy": -28.46, 
			 "cosmo_repulsion_energy": 2.17, 
			 "cosmo_total_nonelectrostatic_energy": 13.23, 
			 "SMD_solvation_energy": 7.17 
		},
		"coords": [
			{
				"x": 3.0334614377,
				"y": 0.4695269837,
				"z": -0.6923723888,
				"element": "C" 
			},
			{
				"x": 1.8036373545,
				"y": 1.0502632078,
				"z": -0.2302290956,
				"element": "O" 
			},
			{
				"x": 0.6718970204,
				"y": 0.5618160472,
				"z": -0.839740859,
				"element": "C" 
			},
			{
				"x": 0.2026828535,
				"y": -0.7421987287,
				"z": -0.5724097467,
				"element": "C" 
			},
			{
				"x": 0.8819918602,
				"y": -1.5942914904,
				"z": 0.2630193645,
				"element": "O" 
			},
			{
				"x": 0.933078343,
				"y": -1.1938626156,
				"z": 1.6532912035,
				"element": "C" 
			},
			{
				"x": 1.6797284327,
				"y": -2.228583309,
				"z": 2.4253960593,
				"element": "C" 
			},
			{
				"x": 2.7661677412,
				"y": -2.0453827141,
				"z": 3.2391442587,
				"element": "C" 
			},
			{
				"x": 3.2162006521,
				"y": -3.2403991643,
				"z": 3.8779968827,
				"element": "C" 
			},
			{
				"x": 2.4551443479,
				"y": -4.3189615615,
				"z": 3.5253317473,
				"element": "C" 
			},
			{
				"x": 2.6913277357,
				"y": -6.1017499204,
				"z": 4.0912581979,
				"element": "Br" 
			},
			{
				"x": 1.1817008331,
				"y": -3.9058815064,
				"z": 2.4141837736,
				"element": "S" 
			},
			{
				"x": -0.9475886311,
				"y": -1.2063189322,
				"z": -1.2128385652,
				"element": "C" 
			},
			{
				"x": -1.6509062893,
				"y": -0.3797899367,
				"z": -2.0868288872,
				"element": "C" 
			},
			{
				"x": -1.2146317959,
				"y": 0.9313007033,
				"z": -2.322740783,
				"element": "C" 
			},
			{
				"x": -0.0395298664,
				"y": 1.3834018686,
				"z": -1.7074044291,
				"element": "C" 
			},
			{
				"x": -1.9146014055,
				"y": 1.8761262584,
				"z": -3.2515243229,
				"element": "C" 
			},
			{
				"x": -3.2175623713,
				"y": 1.6028084965,
				"z": -3.534041713,
				"element": "O" 
			},
			{
				"x": -1.3813739891,
				"y": 2.8427358671,
				"z": -3.7435363087,
				"element": "O" 
			},
			{
				"x": 3.830776079,
				"y": 0.9683144312,
				"z": -0.1385660772,
				"element": "H" 
			},
			{
				"x": 3.0632610196,
				"y": -0.6071552594,
				"z": -0.4979456993,
				"element": "H" 
			},
			{
				"x": 3.1664468584,
				"y": 0.6535822503,
				"z": -1.7648751914,
				"element": "H" 
			},
			{
				"x": 1.4378687744,
				"y": -0.2280113432,
				"z": 1.7550406053,
				"element": "H" 
			},
			{
				"x": -0.0984434132,
				"y": -1.0848359021,
				"z": 2.0158441542,
				"element": "H" 
			},
			{
				"x": 3.2326353442,
				"y": -1.077047196,
				"z": 3.3861210922,
				"element": "H" 
			},
			{
				"x": 4.0599176302,
				"y": -3.2989568873,
				"z": 4.5536915141,
				"element": "H" 
			},
			{
				"x": -1.2703016609,
				"y": -2.2234405621,
				"z": -1.0161814532,
				"element": "H" 
			},
			{
				"x": -2.520260419,
				"y": -0.7828939789,
				"z": -2.5999319134,
				"element": "H" 
			},
			{
				"x": 0.3217663905,
				"y": 2.3846543365,
				"z": -1.9136133595,
				"element": "H" 
			},
			{
				"x": -3.5482908666,
				"y": 0.9108305579,
				"z": -2.94503806,
				"element": "H" 
			}
		],
		 "valence_orbital": [ 
			{
				"type": "occ",
				"energy": -0.27548,
				"method": "rhf"
			},
			{
				"type": "occ",
				"energy": -0.2682,
				"method": "rhf"
			},
			{
				"type": "occ",
				"energy": -0.26315,
				"method": "rhf"
			},
			{
				"type": "occ",
				"energy": -0.25265,
				"method": "rhf"
			},
			{
				"type": "occ",
				"energy": -0.23652,
				"method": "rhf"
			},
			{
				"type": "unocc",
				"energy": -0.05147,
				"method": "rhf"
			},
			{
				"type": "unocc",
				"energy": -0.03605,
				"method": "rhf"
			},
			{
				"type": "unocc",
				"energy": -0.02354,
				"method": "rhf"
			},
			{
				"type": "unocc",
				"energy": -0.00882,
				"method": "rhf"
			},
			{
				"type": "unocc",
				"energy": 0.01521,
				"method": "rhf"
			}
		],
		"cosmo_sigma_profile": { 
			"-0.025": 0.0,
			"-0.024": 0.0,
			"-0.023": 0.0,
			"-0.022": 0.0,
			"-0.021": 0.0,
			"-0.02": 0.0,
			"-0.019": 0.253438516152,
			"-0.018": 0.756729771837,
			"-0.017": 0.892251641748,
			"-0.016": 1.06542350534,
			"-0.015": 1.11664951409,
			"-0.014": 0.728641287343,
			"-0.013": 1.17197794279,
			"-0.012": 0.881900525024,
			"-0.011": 1.07812589357,
			"-0.01": 1.67473721266,
			"-0.009": 1.24370348384,
			"-0.008": 3.76023768995,
			"-0.007": 8.90049409599,
			"-0.006": 15.6403438486,
			"-0.005": 19.4159072474,
			"-0.004": 20.6297645516,
			"-0.003": 23.218774829,
			"-0.002": 22.3364258791,
			"-0.001": 22.1473324576,
			"0.0": 20.8378757034,
			"0.001": 28.0775973347,
			"0.002": 33.9734420262,
			"0.003": 30.9958185127,
			"0.004": 17.0707085736,
			"0.005": 6.39857634118,
			"0.006": 4.12298281248,
			"0.007": 5.03734235884,
			"0.008": 4.57027872584,
			"0.009": 5.15461549281,
			"0.01": 5.88033576503,
			"0.011": 6.31742518115,
			"0.012": 4.99952000664,
			"0.013": 1.58085065581,
			"0.014": 0.0464816328668,
			"0.015": 0.0,
			"0.016": 0.0,
			"0.017": 0.0,
			"0.018": 0.0,
			"0.019": 0.0,
			"0.02": 0.0,
			"0.021": 0.0,
			"0.022": 0.0,
			"0.023": 0.0,
			"0.024": 0.0,
			"0.025": 0.0
		}
	}
}
