{
	 "smiles": "NC(=O)NC1=C(Br)C=CC=C1", 
	 "Tm": 473.15, 
	 "num_atms": 18, 
	 "gaussian": { 
		 "optdone": 1, 
		 "sigma_profile": "yes", 
		 "theory": "DFT", 
		 "functional": "B3LYP", 
		 "basiset": "6-31G**", 
		 "properties": { 
			 "R2extent": 2959.1679, 
			 "electric_dipole_moment_norm": 4.14764323562, 
			 "electric_quadrupole_moment_norm": 14.015074652, 
			 "total_energy": -3027.12092654, 
			 "HOMO_LUMO_gap": 0.20456, 
			 "cosmo_polarized_energy": -12.85, 
			 "cosmo_cavitation_energy": 24.37, 
			 "cosmo_dispersion_energy": -18.55, 
			 "cosmo_repulsion_energy": 1.5, 
			 "cosmo_total_nonelectrostatic_energy": 7.32, 
			 "SMD_solvation_energy": 4.12 
		},
		"coords": [
			{
				"x": -0.1195655318,
				"y": -2.1969271917,
				"z": 1.9485627813,
				"element": "N" 
			},
			{
				"x": 0.0384826274,
				"y": -2.7110438459,
				"z": 0.67536108,
				"element": "C" 
			},
			{
				"x": -0.0914658337,
				"y": -3.8974573891,
				"z": 0.4170469679,
				"element": "O" 
			},
			{
				"x": 0.378434653,
				"y": -1.8063657762,
				"z": -0.3309162282,
				"element": "N" 
			},
			{
				"x": 0.6763818764,
				"y": -0.4405516949,
				"z": -0.2894947911,
				"element": "C" 
			},
			{
				"x": 0.3744384023,
				"y": 0.3855680947,
				"z": -1.391677572,
				"element": "C" 
			},
			{
				"x": -0.4715041285,
				"y": -0.3614700607,
				"z": -2.9400131408,
				"element": "Br" 
			},
			{
				"x": 0.6860215731,
				"y": 1.7418242292,
				"z": -1.3978454703,
				"element": "C" 
			},
			{
				"x": 1.3031141911,
				"y": 2.3201144807,
				"z": -0.2890184662,
				"element": "C" 
			},
			{
				"x": 1.6244179859,
				"y": 1.5204562555,
				"z": 0.8075007069,
				"element": "C" 
			},
			{
				"x": 1.33098346,
				"y": 0.1589331101,
				"z": 0.8033796043,
				"element": "C" 
			},
			{
				"x": -0.5507463806,
				"y": -2.8612393701,
				"z": 2.5753743182,
				"element": "H" 
			},
			{
				"x": -0.4267503563,
				"y": -1.2396225851,
				"z": 2.0507749898,
				"element": "H" 
			},
			{
				"x": 0.2838809822,
				"y": -2.2236617905,
				"z": -1.2476531501,
				"element": "H" 
			},
			{
				"x": 0.4366768302,
				"y": 2.338808577,
				"z": -2.2677624806,
				"element": "H" 
			},
			{
				"x": 1.535984056,
				"y": 3.3799483891,
				"z": -0.2918319714,
				"element": "H" 
			},
			{
				"x": 2.1276044426,
				"y": 1.9502306895,
				"z": 1.6684216826,
				"element": "H" 
			},
			{
				"x": 1.6305111507,
				"y": -0.4641441215,
				"z": 1.6378911397,
				"element": "H" 
			}
		],
		 "valence_orbital": [ 
			{
				"type": "occ",
				"energy": -0.29948,
				"method": "rhf"
			},
			{
				"type": "occ",
				"energy": -0.27985,
				"method": "rhf"
			},
			{
				"type": "occ",
				"energy": -0.26204,
				"method": "rhf"
			},
			{
				"type": "occ",
				"energy": -0.25725,
				"method": "rhf"
			},
			{
				"type": "occ",
				"energy": -0.22851,
				"method": "rhf"
			},
			{
				"type": "unocc",
				"energy": -0.02395,
				"method": "rhf"
			},
			{
				"type": "unocc",
				"energy": -0.0204,
				"method": "rhf"
			},
			{
				"type": "unocc",
				"energy": -0.0028,
				"method": "rhf"
			},
			{
				"type": "unocc",
				"energy": 0.05657,
				"method": "rhf"
			},
			{
				"type": "unocc",
				"energy": 0.0884,
				"method": "rhf"
			}
		],
		"cosmo_sigma_profile": { 
			"-0.025": 0.0,
			"-0.024": 0.0,
			"-0.023": 0.0,
			"-0.022": 0.0,
			"-0.021": 0.0,
			"-0.02": 0.0,
			"-0.019": 0.0,
			"-0.018": 0.0,
			"-0.017": 0.0,
			"-0.016": 0.0,
			"-0.015": 0.0,
			"-0.014": 0.570949997003,
			"-0.013": 1.76612610374,
			"-0.012": 2.6689920583,
			"-0.011": 2.51064105009,
			"-0.01": 2.98687671034,
			"-0.009": 2.77619440671,
			"-0.008": 2.98856694623,
			"-0.007": 6.01469556552,
			"-0.006": 10.8687420268,
			"-0.005": 11.1279947969,
			"-0.004": 11.3526066804,
			"-0.003": 9.92208189507,
			"-0.002": 13.1604527894,
			"-0.001": 10.9821089003,
			"0.0": 11.6612427249,
			"0.001": 16.9605514478,
			"0.002": 17.6822706923,
			"0.003": 18.5556535702,
			"0.004": 17.4303684981,
			"0.005": 4.62879236073,
			"0.006": 1.63787443855,
			"0.007": 1.52906768995,
			"0.008": 1.81430144839,
			"0.009": 1.51906366191,
			"0.01": 1.54898192141,
			"0.011": 1.25369105502,
			"0.012": 1.42890684396,
			"0.013": 4.43048977387,
			"0.014": 5.73429277762,
			"0.015": 0.49881409532,
			"0.016": 0.0,
			"0.017": 0.0,
			"0.018": 0.0,
			"0.019": 0.0,
			"0.02": 0.0,
			"0.021": 0.0,
			"0.022": 0.0,
			"0.023": 0.0,
			"0.024": 0.0,
			"0.025": 0.0
		}
	}
}
