{
	 "smiles": "CCCCC1C(=O)NN(C1=O)C1=CC=CC=C1", 
	 "Tm": 375.15, 
	 "num_atms": 33, 
	 "gaussian": { 
		 "optdone": 1, 
		 "sigma_profile": "yes", 
		 "theory": "DFT", 
		 "functional": "B3LYP", 
		 "basiset": "6-31G**", 
		 "properties": { 
			 "R2extent": 4973.3106, 
			 "electric_dipole_moment_norm": 1.75074139724, 
			 "electric_quadrupole_moment_norm": 13.5514964539, 
			 "total_energy": -764.978022162, 
			 "HOMO_LUMO_gap": 0.1895, 
			 "cosmo_polarized_energy": -14.39, 
			 "cosmo_cavitation_energy": 36.18, 
			 "cosmo_dispersion_energy": -25.29, 
			 "cosmo_repulsion_energy": 2.0, 
			 "cosmo_total_nonelectrostatic_energy": 12.89, 
			 "SMD_solvation_energy": 6.95 
		},
		"coords": [
			{
				"x": 4.4419692952,
				"y": 0.564609276,
				"z": 1.137123964,
				"element": "C" 
			},
			{
				"x": 4.0222640017,
				"y": -0.0039056703,
				"z": -0.2219786679,
				"element": "C" 
			},
			{
				"x": 2.5605371449,
				"y": -0.4692079169,
				"z": -0.2524694866,
				"element": "C" 
			},
			{
				"x": 2.1513831501,
				"y": -1.0328526096,
				"z": -1.6189303621,
				"element": "C" 
			},
			{
				"x": 0.6911828107,
				"y": -1.5241768436,
				"z": -1.6994504202,
				"element": "C" 
			},
			{
				"x": 0.3329526697,
				"y": -2.6363184293,
				"z": -0.7261905796,
				"element": "C" 
			},
			{
				"x": 0.7840484297,
				"y": -3.7604363271,
				"z": -0.6566889582,
				"element": "O" 
			},
			{
				"x": -0.6753346049,
				"y": -2.1475273993,
				"z": 0.1062363943,
				"element": "N" 
			},
			{
				"x": -1.1578354757,
				"y": -0.9021840212,
				"z": -0.3857108401,
				"element": "N" 
			},
			{
				"x": -0.3333339674,
				"y": -0.4322365317,
				"z": -1.4047366798,
				"element": "C" 
			},
			{
				"x": -0.4134895865,
				"y": 0.6609097408,
				"z": -1.9344451636,
				"element": "O" 
			},
			{
				"x": -2.0281240487,
				"y": -0.1430954464,
				"z": 0.4370131648,
				"element": "C" 
			},
			{
				"x": -2.244681114,
				"y": -0.5218510346,
				"z": 1.7698211848,
				"element": "C" 
			},
			{
				"x": -3.1263384957,
				"y": 0.2123623297,
				"z": 2.5631592092,
				"element": "C" 
			},
			{
				"x": -3.792048223,
				"y": 1.3225105491,
				"z": 2.0449141346,
				"element": "C" 
			},
			{
				"x": -3.5667037792,
				"y": 1.6957878257,
				"z": 0.717910324,
				"element": "C" 
			},
			{
				"x": -2.6975148831,
				"y": 0.9713480399,
				"z": -0.0943368831,
				"element": "C" 
			},
			{
				"x": 5.4877732121,
				"y": 0.8881393405,
				"z": 1.1279887483,
				"element": "H" 
			},
			{
				"x": 3.8281114637,
				"y": 1.4300700848,
				"z": 1.4110562497,
				"element": "H" 
			},
			{
				"x": 4.3319779654,
				"y": -0.1832459813,
				"z": 1.9306226302,
				"element": "H" 
			},
			{
				"x": 4.6753800372,
				"y": -0.8469270538,
				"z": -0.4849335162,
				"element": "H" 
			},
			{
				"x": 4.175285111,
				"y": 0.7554566262,
				"z": -1.000552697,
				"element": "H" 
			},
			{
				"x": 1.9089191308,
				"y": 0.3761006584,
				"z": 0.0062593944,
				"element": "H" 
			},
			{
				"x": 2.4087673185,
				"y": -1.2320059663,
				"z": 0.5234179985,
				"element": "H" 
			},
			{
				"x": 2.2808274879,
				"y": -0.2662743378,
				"z": -2.3909867802,
				"element": "H" 
			},
			{
				"x": 2.79655374,
				"y": -1.8782477384,
				"z": -1.8837236173,
				"element": "H" 
			},
			{
				"x": 0.5112598042,
				"y": -1.9078350277,
				"z": -2.7117738217,
				"element": "H" 
			},
			{
				"x": -1.4050554548,
				"y": -2.8030050753,
				"z": 0.3709328951,
				"element": "H" 
			},
			{
				"x": -1.7100805241,
				"y": -1.3651193864,
				"z": 2.1913839063,
				"element": "H" 
			},
			{
				"x": -3.2842935343,
				"y": -0.0878907672,
				"z": 3.5949256581,
				"element": "H" 
			},
			{
				"x": -4.477691484,
				"y": 1.8904334773,
				"z": 2.6660830408,
				"element": "H" 
			},
			{
				"x": -4.0774967372,
				"y": 2.559235556,
				"z": 0.3017695526,
				"element": "H" 
			},
			{
				"x": -2.51877086,
				"y": 1.2646800596,
				"z": -1.1194099761,
				"element": "H" 
			}
		],
		 "valence_orbital": [ 
			{
				"type": "occ",
				"energy": -0.28653,
				"method": "rhf"
			},
			{
				"type": "occ",
				"energy": -0.28095,
				"method": "rhf"
			},
			{
				"type": "occ",
				"energy": -0.26098,
				"method": "rhf"
			},
			{
				"type": "occ",
				"energy": -0.25663,
				"method": "rhf"
			},
			{
				"type": "occ",
				"energy": -0.2203,
				"method": "rhf"
			},
			{
				"type": "unocc",
				"energy": -0.0308,
				"method": "rhf"
			},
			{
				"type": "unocc",
				"energy": -0.01205,
				"method": "rhf"
			},
			{
				"type": "unocc",
				"energy": -0.00563,
				"method": "rhf"
			},
			{
				"type": "unocc",
				"energy": 0.02998,
				"method": "rhf"
			},
			{
				"type": "unocc",
				"energy": 0.07603,
				"method": "rhf"
			}
		],
		"cosmo_sigma_profile": { 
			"-0.025": 0.0,
			"-0.024": 0.0,
			"-0.023": 0.0,
			"-0.022": 0.0,
			"-0.021": 0.0,
			"-0.02": 0.0,
			"-0.019": 0.0,
			"-0.018": 0.0,
			"-0.017": 0.103354879237,
			"-0.016": 1.25637288337,
			"-0.015": 1.13798914402,
			"-0.014": 1.17005131298,
			"-0.013": 1.11888190059,
			"-0.012": 1.10373416378,
			"-0.011": 1.11263242487,
			"-0.01": 1.26748053382,
			"-0.009": 3.77120747434,
			"-0.008": 4.46675425885,
			"-0.007": 4.72226126406,
			"-0.006": 8.39876698106,
			"-0.005": 11.7866453207,
			"-0.004": 16.6723193419,
			"-0.003": 24.8450554231,
			"-0.002": 31.4545883092,
			"-0.001": 30.0860354636,
			"0.0": 27.0889317352,
			"0.001": 25.8973922423,
			"0.002": 14.6660977452,
			"0.003": 11.3553211573,
			"0.004": 13.0088669085,
			"0.005": 14.8703844207,
			"0.006": 3.93575775799,
			"0.007": 2.32489408621,
			"0.008": 3.05598887677,
			"0.009": 3.29831823898,
			"0.01": 3.66644040705,
			"0.011": 5.63935932559,
			"0.012": 9.15208601502,
			"0.013": 2.72579642769,
			"0.014": 0.0,
			"0.015": 0.0,
			"0.016": 0.0,
			"0.017": 0.0,
			"0.018": 0.0,
			"0.019": 0.0,
			"0.02": 0.0,
			"0.021": 0.0,
			"0.022": 0.0,
			"0.023": 0.0,
			"0.024": 0.0,
			"0.025": 0.0
		}
	}
}
