{
	 "smiles": "COC1=CC=C(C=C1OC)C#N", 
	 "Tm": 340.15, 
	 "num_atms": 21, 
	 "gaussian": { 
		 "optdone": 1, 
		 "sigma_profile": "yes", 
		 "theory": "DFT", 
		 "functional": "B3LYP", 
		 "basiset": "6-31G**", 
		 "properties": { 
			 "R2extent": 2272.1443, 
			 "electric_dipole_moment_norm": 5.25331546169, 
			 "electric_quadrupole_moment_norm": 14.5978062266, 
			 "total_energy": -553.530205752, 
			 "HOMO_LUMO_gap": 0.19961, 
			 "cosmo_polarized_energy": -10.05, 
			 "cosmo_cavitation_energy": 26.06, 
			 "cosmo_dispersion_energy": -18.21, 
			 "cosmo_repulsion_energy": 1.47, 
			 "cosmo_total_nonelectrostatic_energy": 9.32, 
			 "SMD_solvation_energy": 7.47 
		},
		"coords": [
			{
				"x": -0.0618131669,
				"y": 2.9868169037,
				"z": -1.122275011,
				"element": "C" 
			},
			{
				"x": 0.865730516,
				"y": 2.2040762687,
				"z": -0.3534848788,
				"element": "O" 
			},
			{
				"x": 0.3556231512,
				"y": 1.0615510115,
				"z": 0.2049955416,
				"element": "C" 
			},
			{
				"x": 0.3157260295,
				"y": 0.9593749371,
				"z": 1.5984088215,
				"element": "C" 
			},
			{
				"x": -0.1705535198,
				"y": -0.1886522578,
				"z": 2.2153441044,
				"element": "C" 
			},
			{
				"x": -0.6358998681,
				"y": -1.255304465,
				"z": 1.4290323433,
				"element": "C" 
			},
			{
				"x": -0.58045674,
				"y": -1.1679543524,
				"z": 0.0279638867,
				"element": "C" 
			},
			{
				"x": -0.0789780171,
				"y": -0.0237705707,
				"z": -0.5860000842,
				"element": "C" 
			},
			{
				"x": -0.0558507804,
				"y": 0.0322788191,
				"z": -1.9587839325,
				"element": "O" 
			},
			{
				"x": 1.2560072913,
				"y": 0.0050997796,
				"z": -2.5411738787,
				"element": "C" 
			},
			{
				"x": -1.1538117969,
				"y": -2.4380386388,
				"z": 2.051550657,
				"element": "C" 
			},
			{
				"x": -1.5735381036,
				"y": -3.3974022564,
				"z": 2.5587719964,
				"element": "N" 
			},
			{
				"x": -0.4749226682,
				"y": 2.412287973,
				"z": -1.9556729634,
				"element": "H" 
			},
			{
				"x": -0.8774958648,
				"y": 3.3478607237,
				"z": -0.484576944,
				"element": "H" 
			},
			{
				"x": 0.5053698679,
				"y": 3.8387459539,
				"z": -1.5007816447,
				"element": "H" 
			},
			{
				"x": 0.6689449033,
				"y": 1.8027085247,
				"z": 2.1825048138,
				"element": "H" 
			},
			{
				"x": -0.2052441192,
				"y": -0.2602550451,
				"z": 3.2968210243,
				"element": "H" 
			},
			{
				"x": -0.9210490306,
				"y": -1.9872597154,
				"z": -0.5953171476,
				"element": "H" 
			},
			{
				"x": 1.8596619635,
				"y": 0.8529417646,
				"z": -2.203250668,
				"element": "H" 
			},
			{
				"x": 1.1093189929,
				"y": 0.0615173356,
				"z": -3.6211491001,
				"element": "H" 
			},
			{
				"x": 1.7685309599,
				"y": -0.9319226937,
				"z": -2.2924269362,
				"element": "H" 
			}
		],
		 "valence_orbital": [ 
			{
				"type": "occ",
				"energy": -0.32823,
				"method": "rhf"
			},
			{
				"type": "occ",
				"energy": -0.31138,
				"method": "rhf"
			},
			{
				"type": "occ",
				"energy": -0.28326,
				"method": "rhf"
			},
			{
				"type": "occ",
				"energy": -0.26474,
				"method": "rhf"
			},
			{
				"type": "occ",
				"energy": -0.24664,
				"method": "rhf"
			},
			{
				"type": "unocc",
				"energy": -0.04703,
				"method": "rhf"
			},
			{
				"type": "unocc",
				"energy": -0.02153,
				"method": "rhf"
			},
			{
				"type": "unocc",
				"energy": 0.0393,
				"method": "rhf"
			},
			{
				"type": "unocc",
				"energy": 0.06825,
				"method": "rhf"
			},
			{
				"type": "unocc",
				"energy": 0.07881,
				"method": "rhf"
			}
		],
		"cosmo_sigma_profile": { 
			"-0.025": 0.0,
			"-0.024": 0.0,
			"-0.023": 0.0,
			"-0.022": 0.0,
			"-0.021": 0.0,
			"-0.02": 0.0,
			"-0.019": 0.0,
			"-0.018": 0.0,
			"-0.017": 0.0,
			"-0.016": 0.0,
			"-0.015": 0.0,
			"-0.014": 0.0,
			"-0.013": 0.0,
			"-0.012": 0.0,
			"-0.011": 0.0,
			"-0.01": 0.0,
			"-0.009": 0.160856878805,
			"-0.008": 3.56703921338,
			"-0.007": 5.60579516283,
			"-0.006": 9.95178080457,
			"-0.005": 13.9962276519,
			"-0.004": 18.7680981411,
			"-0.003": 24.673051566,
			"-0.002": 19.939952525,
			"-0.001": 19.3771921441,
			"0.0": 14.7737491861,
			"0.001": 15.8132870527,
			"0.002": 12.9939545544,
			"0.003": 6.62723217536,
			"0.004": 4.82010018558,
			"0.005": 3.9798361059,
			"0.006": 5.68547674883,
			"0.007": 3.72729108455,
			"0.008": 4.98063593521,
			"0.009": 5.65036140269,
			"0.01": 5.18854908673,
			"0.011": 4.30669791485,
			"0.012": 2.52681670866,
			"0.013": 1.76112540225,
			"0.014": 0.114098477481,
			"0.015": 0.0,
			"0.016": 0.0,
			"0.017": 0.0,
			"0.018": 0.0,
			"0.019": 0.0,
			"0.02": 0.0,
			"0.021": 0.0,
			"0.022": 0.0,
			"0.023": 0.0,
			"0.024": 0.0,
			"0.025": 0.0
		}
	}
}
