{
	 "smiles": "CC1=CC=C(CC2=CC=C(CP(=O)(C3=CC=CC=C3)C3=CC=CC=C3)O2)O1", 
	 "Tm": 493.15, 
	 "num_atms": 48, 
	 "gaussian": { 
		 "optdone": 1, 
		 "sigma_profile": "yes", 
		 "theory": "DFT", 
		 "functional": "B3LYP", 
		 "basiset": "6-31G**", 
		 "properties": { 
			 "R2extent": 12869.4125, 
			 "electric_dipole_moment_norm": 4.36228032799, 
			 "electric_quadrupole_moment_norm": 9.74274509468, 
			 "total_energy": -1456.12250671, 
			 "HOMO_LUMO_gap": 0.15432, 
			 "cosmo_polarized_energy": -21.15, 
			 "cosmo_cavitation_energy": 53.84, 
			 "cosmo_dispersion_energy": -35.73, 
			 "cosmo_repulsion_energy": 2.7, 
			 "cosmo_total_nonelectrostatic_energy": 20.81, 
			 "SMD_solvation_energy": 10.33 
		},
		"coords": [
			{
				"x": 3.048320729,
				"y": 0.5558624857,
				"z": 6.7557982116,
				"element": "C" 
			},
			{
				"x": 2.2811457887,
				"y": 0.2434696911,
				"z": 5.5187911311,
				"element": "C" 
			},
			{
				"x": 2.396485947,
				"y": 0.6194110115,
				"z": 4.2144370141,
				"element": "C" 
			},
			{
				"x": 1.3345223853,
				"y": -0.0256725108,
				"z": 3.4925348377,
				"element": "C" 
			},
			{
				"x": 0.6410162422,
				"y": -0.7511911309,
				"z": 4.4138684557,
				"element": "C" 
			},
			{
				"x": -0.5456688288,
				"y": -1.6712482446,
				"z": 4.3647896963,
				"element": "C" 
			},
			{
				"x": -1.3551227847,
				"y": -1.53545526,
				"z": 3.1186854912,
				"element": "C" 
			},
			{
				"x": -2.6334905009,
				"y": -1.13397399,
				"z": 2.864845327,
				"element": "C" 
			},
			{
				"x": -2.8102978902,
				"y": -1.2011950253,
				"z": 1.4437269076,
				"element": "C" 
			},
			{
				"x": -1.6262638682,
				"y": -1.6432276199,
				"z": 0.928144222,
				"element": "C" 
			},
			{
				"x": -1.1017859983,
				"y": -1.8403396825,
				"z": -0.4493720604,
				"element": "C" 
			},
			{
				"x": -0.1880538406,
				"y": -0.3402313846,
				"z": -1.0678769394,
				"element": "P" 
			},
			{
				"x": 0.8651416477,
				"y": 0.1721451955,
				"z": -0.1239278153,
				"element": "O" 
			},
			{
				"x": -1.4699862976,
				"y": 0.9187425207,
				"z": -1.4151005876,
				"element": "C" 
			},
			{
				"x": -1.1869709391,
				"y": 2.2268705761,
				"z": -0.9979791944,
				"element": "C" 
			},
			{
				"x": -2.1012692952,
				"y": 3.2543185599,
				"z": -1.2343610265,
				"element": "C" 
			},
			{
				"x": -3.3060231094,
				"y": 2.9835588541,
				"z": -1.8848654889,
				"element": "C" 
			},
			{
				"x": -3.599559955,
				"y": 1.6810920148,
				"z": -2.2960085635,
				"element": "C" 
			},
			{
				"x": -2.6869897272,
				"y": 0.6526063334,
				"z": -2.0611091782,
				"element": "C" 
			},
			{
				"x": 0.5344421864,
				"y": -0.8681813915,
				"z": -2.6655772371,
				"element": "C" 
			},
			{
				"x": 1.9282519967,
				"y": -0.7741304303,
				"z": -2.7840163076,
				"element": "C" 
			},
			{
				"x": 2.5618482929,
				"y": -1.1779119951,
				"z": -3.9604256158,
				"element": "C" 
			},
			{
				"x": 1.8097916682,
				"y": -1.6792069456,
				"z": -5.0238766971,
				"element": "C" 
			},
			{
				"x": 0.4202669058,
				"y": -1.775929744,
				"z": -4.9123869037,
				"element": "C" 
			},
			{
				"x": -0.2157795799,
				"y": -1.3719954126,
				"z": -3.7388964937,
				"element": "C" 
			},
			{
				"x": -0.7346084619,
				"y": -1.8582514801,
				"z": 1.9432745327,
				"element": "O" 
			},
			{
				"x": 1.2068416511,
				"y": -0.5994519778,
				"z": 5.6564970804,
				"element": "O" 
			},
			{
				"x": 3.4667882861,
				"y": -0.3490949872,
				"z": 7.212601013,
				"element": "H" 
			},
			{
				"x": 3.8748452004,
				"y": 1.2296880659,
				"z": 6.5174082123,
				"element": "H" 
			},
			{
				"x": 2.4192348524,
				"y": 1.0416473374,
				"z": 7.5115392955,
				"element": "H" 
			},
			{
				"x": 3.1488576238,
				"y": 1.2803075146,
				"z": 3.8070358427,
				"element": "H" 
			},
			{
				"x": 1.1342475038,
				"y": 0.0381831354,
				"z": 2.4310458919,
				"element": "H" 
			},
			{
				"x": -1.1995027951,
				"y": -1.4618473042,
				"z": 5.2189859138,
				"element": "H" 
			},
			{
				"x": -0.2140545167,
				"y": -2.7145476639,
				"z": 4.4830668936,
				"element": "H" 
			},
			{
				"x": -3.360877586,
				"y": -0.8205773541,
				"z": 3.6000965641,
				"element": "H" 
			},
			{
				"x": -3.6955552819,
				"y": -0.9420436316,
				"z": 0.8807342528,
				"element": "H" 
			},
			{
				"x": -1.9110467164,
				"y": -2.0904245006,
				"z": -1.1421861742,
				"element": "H" 
			},
			{
				"x": -0.381378986,
				"y": -2.6647871788,
				"z": -0.4694321696,
				"element": "H" 
			},
			{
				"x": -0.252640695,
				"y": 2.4182623919,
				"z": -0.4796863266,
				"element": "H" 
			},
			{
				"x": -1.8743580364,
				"y": 4.2645136911,
				"z": -0.9061332025,
				"element": "H" 
			},
			{
				"x": -4.0183795714,
				"y": 3.7831119271,
				"z": -2.0673006385,
				"element": "H" 
			},
			{
				"x": -4.5397851216,
				"y": 1.4658371925,
				"z": -2.7955867337,
				"element": "H" 
			},
			{
				"x": -2.9386478018,
				"y": -0.3551459052,
				"z": -2.3799004674,
				"element": "H" 
			},
			{
				"x": 2.4970419357,
				"y": -0.3832277892,
				"z": -1.9460840515,
				"element": "H" 
			},
			{
				"x": 3.6419639846,
				"y": -1.1007846543,
				"z": -4.0456285408,
				"element": "H" 
			},
			{
				"x": 2.3031430371,
				"y": -1.9936881446,
				"z": -5.9391851143,
				"element": "H" 
			},
			{
				"x": -0.1671068241,
				"y": -2.1640366364,
				"z": -5.7396000411,
				"element": "H" 
			},
			{
				"x": -1.2974928555,
				"y": -1.4455285227,
				"z": -3.6728032176,
				"element": "H" 
			}
		],
		 "valence_orbital": [ 
			{
				"type": "occ",
				"energy": -0.25836,
				"method": "rhf"
			},
			{
				"type": "occ",
				"energy": -0.25615,
				"method": "rhf"
			},
			{
				"type": "occ",
				"energy": -0.2497,
				"method": "rhf"
			},
			{
				"type": "occ",
				"energy": -0.20651,
				"method": "rhf"
			},
			{
				"type": "occ",
				"energy": -0.1905,
				"method": "rhf"
			},
			{
				"type": "unocc",
				"energy": -0.03618,
				"method": "rhf"
			},
			{
				"type": "unocc",
				"energy": -0.0165,
				"method": "rhf"
			},
			{
				"type": "unocc",
				"energy": -0.01368,
				"method": "rhf"
			},
			{
				"type": "unocc",
				"energy": -0.00827,
				"method": "rhf"
			},
			{
				"type": "unocc",
				"energy": 0.01718,
				"method": "rhf"
			}
		],
		"cosmo_sigma_profile": { 
			"-0.025": 0.0,
			"-0.024": 0.0,
			"-0.023": 0.0,
			"-0.022": 0.0,
			"-0.021": 0.0,
			"-0.02": 0.0,
			"-0.019": 0.0,
			"-0.018": 0.000202498950294,
			"-0.017": 0.0857535186221,
			"-0.016": 0.106277980572,
			"-0.015": 0.183313294378,
			"-0.014": 0.0980714964446,
			"-0.013": 0.34577582484,
			"-0.012": 0.464374346549,
			"-0.011": 0.259672192304,
			"-0.01": 1.44048692361,
			"-0.009": 1.56296513512,
			"-0.008": 3.01333600817,
			"-0.007": 8.90888867618,
			"-0.006": 26.6479367912,
			"-0.005": 35.9184776292,
			"-0.004": 38.9767647828,
			"-0.003": 30.9739600496,
			"-0.002": 29.7306985333,
			"-0.001": 28.2755430878,
			"0.0": 27.2958193512,
			"0.001": 24.867757987,
			"0.002": 29.7451353871,
			"0.003": 33.8474081575,
			"0.004": 38.8869946939,
			"0.005": 25.7203067473,
			"0.006": 13.2813057852,
			"0.007": 8.83203431155,
			"0.008": 5.72464296718,
			"0.009": 3.64302834622,
			"0.01": 2.33608500572,
			"0.011": 2.23437870275,
			"0.012": 1.68278264001,
			"0.013": 1.04093979742,
			"0.014": 1.88102723488,
			"0.015": 1.0447016733,
			"0.016": 0.100944670254,
			"0.017": 0.0,
			"0.018": 0.0,
			"0.019": 0.0,
			"0.02": 0.0,
			"0.021": 0.0,
			"0.022": 0.0,
			"0.023": 0.0,
			"0.024": 0.0,
			"0.025": 0.0
		}
	}
}
