{
	 "smiles": "CC(C)(C)C1=C(OCC(O)=O)C=CC=C1", 
	 "Tm": 419.15, 
	 "num_atms": 31, 
	 "gaussian": { 
		 "optdone": 1, 
		 "sigma_profile": "yes", 
		 "theory": "DFT", 
		 "functional": "B3LYP", 
		 "basiset": "6-31G**", 
		 "properties": { 
			 "R2extent": 3979.0512, 
			 "electric_dipole_moment_norm": 0.433660189549, 
			 "electric_quadrupole_moment_norm": 8.2173331994, 
			 "total_energy": -692.599482772, 
			 "HOMO_LUMO_gap": 0.21374, 
			 "cosmo_polarized_energy": -11.43, 
			 "cosmo_cavitation_energy": 33.09, 
			 "cosmo_dispersion_energy": -22.94, 
			 "cosmo_repulsion_energy": 1.79, 
			 "cosmo_total_nonelectrostatic_energy": 11.94, 
			 "SMD_solvation_energy": 7.44 
		},
		"coords": [
			{
				"x": 3.8118817049,
				"y": 0.0971897585,
				"z": 1.0568472045,
				"element": "C" 
			},
			{
				"x": 2.6584081762,
				"y": 0.1285799468,
				"z": 0.0326040993,
				"element": "C" 
			},
			{
				"x": 2.8784809832,
				"y": 1.3674425021,
				"z": -0.8714391942,
				"element": "C" 
			},
			{
				"x": 2.7583113559,
				"y": -1.1651190187,
				"z": -0.8139977316,
				"element": "C" 
			},
			{
				"x": 1.280875008,
				"y": 0.2095352785,
				"z": 0.727544047,
				"element": "C" 
			},
			{
				"x": 0.0634211099,
				"y": 0.251257178,
				"z": -0.0009093163,
				"element": "C" 
			},
			{
				"x": 0.162923582,
				"y": 0.2159396321,
				"z": -1.3741750055,
				"element": "O" 
			},
			{
				"x": -1.0123154397,
				"y": 0.2553043208,
				"z": -2.1455985102,
				"element": "C" 
			},
			{
				"x": -0.6992844384,
				"y": 0.2082096734,
				"z": -3.6311893986,
				"element": "C" 
			},
			{
				"x": 0.6128735286,
				"y": 0.1409277807,
				"z": -3.9172996169,
				"element": "O" 
			},
			{
				"x": -1.5725795109,
				"y": 0.2306131381,
				"z": -4.4690809086,
				"element": "O" 
			},
			{
				"x": -1.1734416069,
				"y": 0.3243781181,
				"z": 0.6471583581,
				"element": "C" 
			},
			{
				"x": -1.2386192351,
				"y": 0.3583069083,
				"z": 2.0415907388,
				"element": "C" 
			},
			{
				"x": -0.0659163774,
				"y": 0.318951465,
				"z": 2.7829187139,
				"element": "C" 
			},
			{
				"x": 1.1642797295,
				"y": 0.2459085052,
				"z": 2.1221608595,
				"element": "C" 
			},
			{
				"x": 3.7550969501,
				"y": -0.7746163631,
				"z": 1.7171305902,
				"element": "H" 
			},
			{
				"x": 4.7645154235,
				"y": 0.040281469,
				"z": 0.5207766509,
				"element": "H" 
			},
			{
				"x": 3.8386205799,
				"y": 0.9990815641,
				"z": 1.6774251533,
				"element": "H" 
			},
			{
				"x": 3.8750048892,
				"y": 1.3218918069,
				"z": -1.32585288,
				"element": "H" 
			},
			{
				"x": 2.8203985342,
				"y": 2.2903774292,
				"z": -0.2840244535,
				"element": "H" 
			},
			{
				"x": 2.1423538263,
				"y": 1.4191837729,
				"z": -1.6737981677,
				"element": "H" 
			},
			{
				"x": 2.018110032,
				"y": -1.1834267945,
				"z": -1.6140721016,
				"element": "H" 
			},
			{
				"x": 3.7533333861,
				"y": -1.2342731276,
				"z": -1.2687151753,
				"element": "H" 
			},
			{
				"x": 2.6152840031,
				"y": -2.0509266735,
				"z": -0.1854096043,
				"element": "H" 
			},
			{
				"x": -1.6755193875,
				"y": -0.594585644,
				"z": -1.9310036022,
				"element": "H" 
			},
			{
				"x": -1.5910907874,
				"y": 1.1730142752,
				"z": -1.9693118497,
				"element": "H" 
			},
			{
				"x": 0.6739200202,
				"y": 0.1169446285,
				"z": -4.8877825883,
				"element": "H" 
			},
			{
				"x": -2.0935759974,
				"y": 0.3554274741,
				"z": 0.076357071,
				"element": "H" 
			},
			{
				"x": -2.2063859646,
				"y": 0.4151080023,
				"z": 2.5312349102,
				"element": "H" 
			},
			{
				"x": -0.0953327131,
				"y": 0.3443149213,
				"z": 3.8679731222,
				"element": "H" 
			},
			{
				"x": 2.0628686354,
				"y": 0.2165780727,
				"z": 2.7256385855,
				"element": "H" 
			}
		],
		 "valence_orbital": [ 
			{
				"type": "occ",
				"energy": -0.31483,
				"method": "rhf"
			},
			{
				"type": "occ",
				"energy": -0.30595,
				"method": "rhf"
			},
			{
				"type": "occ",
				"energy": -0.28809,
				"method": "rhf"
			},
			{
				"type": "occ",
				"energy": -0.24503,
				"method": "rhf"
			},
			{
				"type": "occ",
				"energy": -0.22021,
				"method": "rhf"
			},
			{
				"type": "unocc",
				"energy": -0.00647,
				"method": "rhf"
			},
			{
				"type": "unocc",
				"energy": 0.00464,
				"method": "rhf"
			},
			{
				"type": "unocc",
				"energy": 0.01117,
				"method": "rhf"
			},
			{
				"type": "unocc",
				"energy": 0.06321,
				"method": "rhf"
			},
			{
				"type": "unocc",
				"energy": 0.09023,
				"method": "rhf"
			}
		],
		"cosmo_sigma_profile": { 
			"-0.025": 0.0,
			"-0.024": 0.0,
			"-0.023": 0.0,
			"-0.022": 0.0,
			"-0.021": 0.0,
			"-0.02": 0.0,
			"-0.019": 0.531474652473,
			"-0.018": 0.812704964029,
			"-0.017": 1.24673273956,
			"-0.016": 0.631221348935,
			"-0.015": 0.54161481165,
			"-0.014": 0.899446974872,
			"-0.013": 0.621043052235,
			"-0.012": 0.710915193115,
			"-0.011": 0.829576555008,
			"-0.01": 0.297697812878,
			"-0.009": 0.354631711888,
			"-0.008": 7.77148664167,
			"-0.007": 7.94239200174,
			"-0.006": 6.92903571543,
			"-0.005": 9.39363661039,
			"-0.004": 10.6445234682,
			"-0.003": 19.4688450175,
			"-0.002": 25.9040176777,
			"-0.001": 21.59189786,
			"0.0": 21.2068695729,
			"0.001": 25.9367774662,
			"0.002": 23.8141394501,
			"0.003": 15.2094942857,
			"0.004": 12.4521370693,
			"0.005": 12.6718410068,
			"0.006": 11.7057882339,
			"0.007": 5.00761549438,
			"0.008": 2.11046391724,
			"0.009": 2.21751391743,
			"0.01": 2.17957990418,
			"0.011": 4.87640694509,
			"0.012": 3.14117868648,
			"0.013": 0.133196831973,
			"0.014": 0.0,
			"0.015": 0.0,
			"0.016": 0.0,
			"0.017": 0.0,
			"0.018": 0.0,
			"0.019": 0.0,
			"0.02": 0.0,
			"0.021": 0.0,
			"0.022": 0.0,
			"0.023": 0.0,
			"0.024": 0.0,
			"0.025": 0.0
		}
	}
}
