{
	 "smiles": "OC(=O)C1=NN=C(C=C1)N1C=CN=C1", 
	 "Tm": 512.15, 
	 "num_atms": 20, 
	 "gaussian": { 
		 "optdone": 1, 
		 "sigma_profile": "yes", 
		 "theory": "DFT", 
		 "functional": "B3LYP", 
		 "basiset": "6-31G**", 
		 "properties": { 
			 "R2extent": 3906.0226, 
			 "electric_dipole_moment_norm": 3.78182434018, 
			 "electric_quadrupole_moment_norm": 29.1361343515, 
			 "total_energy": -677.881120983, 
			 "HOMO_LUMO_gap": 0.16111, 
			 "cosmo_polarized_energy": -18.48, 
			 "cosmo_cavitation_energy": 25.82, 
			 "cosmo_dispersion_energy": -19.38, 
			 "cosmo_repulsion_energy": 1.48, 
			 "cosmo_total_nonelectrostatic_energy": 7.91, 
			 "SMD_solvation_energy": 3.74 
		},
		"coords": [
			{
				"x": -2.7419643926,
				"y": 1.7718624482,
				"z": -3.1932148349,
				"element": "O" 
			},
			{
				"x": -1.6900150284,
				"y": 0.9557614906,
				"z": -3.3363145249,
				"element": "C" 
			},
			{
				"x": -1.0984995205,
				"y": 0.8025113409,
				"z": -4.3804998509,
				"element": "O" 
			},
			{
				"x": -1.2941894465,
				"y": 0.2319875654,
				"z": -2.0766160689,
				"element": "C" 
			},
			{
				"x": -2.0331901515,
				"y": 0.4949329306,
				"z": -0.997585368,
				"element": "N" 
			},
			{
				"x": -1.7736057003,
				"y": -0.0852053175,
				"z": 0.1609884575,
				"element": "N" 
			},
			{
				"x": -0.7512552664,
				"y": -0.9491805,
				"z": 0.2449904816,
				"element": "C" 
			},
			{
				"x": 0.0706787362,
				"y": -1.2741978291,
				"z": -0.8525381086,
				"element": "C" 
			},
			{
				"x": -0.21449531,
				"y": -0.6598056169,
				"z": -2.0528989622,
				"element": "C" 
			},
			{
				"x": -0.5545637575,
				"y": -1.5118181021,
				"z": 1.5106814924,
				"element": "N" 
			},
			{
				"x": 0.4174438617,
				"y": -2.4327458591,
				"z": 1.9036856205,
				"element": "C" 
			},
			{
				"x": 0.1861262244,
				"y": -2.6636283069,
				"z": 3.2283197447,
				"element": "C" 
			},
			{
				"x": -0.8932329427,
				"y": -1.9227841603,
				"z": 3.6800654585,
				"element": "N" 
			},
			{
				"x": -1.3145490438,
				"y": -1.2489947913,
				"z": 2.6442644991,
				"element": "C" 
			},
			{
				"x": -3.0299108891,
				"y": 1.7113407044,
				"z": -2.2589299204,
				"element": "H" 
			},
			{
				"x": 0.890704974,
				"y": -1.9754280788,
				"z": -0.7592468834,
				"element": "H" 
			},
			{
				"x": 0.3539951137,
				"y": -0.8380609609,
				"z": -2.9585726,
				"element": "H" 
			},
			{
				"x": 1.1584676238,
				"y": -2.8251916962,
				"z": 1.2276515169,
				"element": "H" 
			},
			{
				"x": 0.73297342,
				"y": -3.3213094154,
				"z": 3.8892711945,
				"element": "H" 
			},
			{
				"x": -2.1430185045,
				"y": -0.5593458454,
				"z": 2.6094986563,
				"element": "H" 
			}
		],
		 "valence_orbital": [ 
			{
				"type": "occ",
				"energy": -0.28943,
				"method": "rhf"
			},
			{
				"type": "occ",
				"energy": -0.28718,
				"method": "rhf"
			},
			{
				"type": "occ",
				"energy": -0.28275,
				"method": "rhf"
			},
			{
				"type": "occ",
				"energy": -0.27804,
				"method": "rhf"
			},
			{
				"type": "occ",
				"energy": -0.25233,
				"method": "rhf"
			},
			{
				"type": "unocc",
				"energy": -0.09122,
				"method": "rhf"
			},
			{
				"type": "unocc",
				"energy": -0.08533,
				"method": "rhf"
			},
			{
				"type": "unocc",
				"energy": -0.00751,
				"method": "rhf"
			},
			{
				"type": "unocc",
				"energy": 0.04831,
				"method": "rhf"
			},
			{
				"type": "unocc",
				"energy": 0.04973,
				"method": "rhf"
			}
		],
		"cosmo_sigma_profile": { 
			"-0.025": 0.0,
			"-0.024": 0.0,
			"-0.023": 0.0,
			"-0.022": 0.0,
			"-0.021": 0.0,
			"-0.02": 0.0,
			"-0.019": 0.0,
			"-0.018": 0.0,
			"-0.017": 0.0,
			"-0.016": 0.0,
			"-0.015": 0.0,
			"-0.014": 0.259681732146,
			"-0.013": 1.56196433059,
			"-0.012": 2.63115485805,
			"-0.011": 2.86989283068,
			"-0.01": 3.97194160026,
			"-0.009": 5.18180145085,
			"-0.008": 5.58039344061,
			"-0.007": 9.09713870419,
			"-0.006": 10.8044061726,
			"-0.005": 14.6288108524,
			"-0.004": 18.0090548227,
			"-0.003": 14.8189990665,
			"-0.002": 13.4086428229,
			"-0.001": 8.26118960056,
			"0.0": 9.84135784694,
			"0.001": 9.67305710054,
			"0.002": 7.99740345388,
			"0.003": 8.95327023614,
			"0.004": 8.90944253329,
			"0.005": 5.86019014791,
			"0.006": 5.0825130096,
			"0.007": 5.62732106503,
			"0.008": 5.85416372226,
			"0.009": 8.32444568499,
			"0.01": 7.66975163322,
			"0.011": 6.14648286337,
			"0.012": 3.09768213511,
			"0.013": 1.36561068737,
			"0.014": 1.38851103046,
			"0.015": 0.928195629905,
			"0.016": 1.1234954652,
			"0.017": 0.530067794766,
			"0.018": 0.0,
			"0.019": 0.0,
			"0.02": 0.0,
			"0.021": 0.0,
			"0.022": 0.0,
			"0.023": 0.0,
			"0.024": 0.0,
			"0.025": 0.0
		}
	}
}
