{
	 "smiles": "COC(=O)C1=C(Cl)N=CC(=C1)S(N)(=O)=O", 
	 "Tm": 334.15, 
	 "num_atms": 22, 
	 "gaussian": { 
		 "optdone": 1, 
		 "sigma_profile": "yes", 
		 "theory": "DFT", 
		 "functional": "B3LYP", 
		 "basiset": "6-31G**", 
		 "properties": { 
			 "R2extent": 5185.3171, 
			 "electric_dipole_moment_norm": 2.76230847843, 
			 "electric_quadrupole_moment_norm": 19.9878596408, 
			 "total_energy": -1539.66353489, 
			 "HOMO_LUMO_gap": 0.19999, 
			 "cosmo_polarized_energy": -18.1, 
			 "cosmo_cavitation_energy": 30.81, 
			 "cosmo_dispersion_energy": -22.97, 
			 "cosmo_repulsion_energy": 1.77, 
			 "cosmo_total_nonelectrostatic_energy": 9.61, 
			 "SMD_solvation_energy": 5.01 
		},
		"coords": [
			{
				"x": -4.0696857876,
				"y": 1.6500938365,
				"z": 1.2928420675,
				"element": "C" 
			},
			{
				"x": -3.3318824198,
				"y": 0.7171039413,
				"z": 0.4806488749,
				"element": "O" 
			},
			{
				"x": -2.1697254248,
				"y": 0.3033030609,
				"z": 0.9966507436,
				"element": "C" 
			},
			{
				"x": -1.7236438413,
				"y": 0.6867358626,
				"z": 2.0601874492,
				"element": "O" 
			},
			{
				"x": -1.4143614493,
				"y": -0.6528558237,
				"z": 0.1165096213,
				"element": "C" 
			},
			{
				"x": -1.9079860335,
				"y": -1.4879099273,
				"z": -0.9111606734,
				"element": "C" 
			},
			{
				"x": -3.6143701405,
				"y": -1.6094978662,
				"z": -1.2766011142,
				"element": "Cl" 
			},
			{
				"x": -1.1413204595,
				"y": -2.273050234,
				"z": -1.6554168075,
				"element": "N" 
			},
			{
				"x": 0.1724341074,
				"y": -2.3043792734,
				"z": -1.4225935855,
				"element": "C" 
			},
			{
				"x": 0.7597501167,
				"y": -1.5603611899,
				"z": -0.3997381442,
				"element": "C" 
			},
			{
				"x": -0.0398733208,
				"y": -0.7248947942,
				"z": 0.3694193486,
				"element": "C" 
			},
			{
				"x": 2.5255229601,
				"y": -1.6544899876,
				"z": -0.1086090787,
				"element": "S" 
			},
			{
				"x": 2.652480799,
				"y": -2.8208545562,
				"z": 1.1059645732,
				"element": "N" 
			},
			{
				"x": 3.1276395776,
				"y": -2.2117552943,
				"z": -1.3213820909,
				"element": "O" 
			},
			{
				"x": 2.9393145031,
				"y": -0.3757196,
				"z": 0.4706781472,
				"element": "O" 
			},
			{
				"x": -4.3053550681,
				"y": 1.2074044883,
				"z": 2.2631747314,
				"element": "H" 
			},
			{
				"x": -3.4876366224,
				"y": 2.5612723699,
				"z": 1.4488794677,
				"element": "H" 
			},
			{
				"x": -4.9794772142,
				"y": 1.8629723034,
				"z": 0.7332543232,
				"element": "H" 
			},
			{
				"x": 0.7753475952,
				"y": -2.9329150532,
				"z": -2.0716162813,
				"element": "H" 
			},
			{
				"x": 0.3769769096,
				"y": -0.1105306249,
				"z": 1.1597410447,
				"element": "H" 
			},
			{
				"x": 3.0790231902,
				"y": -2.4120150125,
				"z": 1.9331245515,
				"element": "H" 
			},
			{
				"x": 3.1773280228,
				"y": -3.6214566255,
				"z": 0.7642428315,
				"element": "H" 
			}
		],
		 "valence_orbital": [ 
			{
				"type": "occ",
				"energy": -0.31458,
				"method": "rhf"
			},
			{
				"type": "occ",
				"energy": -0.31292,
				"method": "rhf"
			},
			{
				"type": "occ",
				"energy": -0.30056,
				"method": "rhf"
			},
			{
				"type": "occ",
				"energy": -0.28639,
				"method": "rhf"
			},
			{
				"type": "occ",
				"energy": -0.27962,
				"method": "rhf"
			},
			{
				"type": "unocc",
				"energy": -0.07963,
				"method": "rhf"
			},
			{
				"type": "unocc",
				"energy": -0.06518,
				"method": "rhf"
			},
			{
				"type": "unocc",
				"energy": 0.00921,
				"method": "rhf"
			},
			{
				"type": "unocc",
				"energy": 0.02194,
				"method": "rhf"
			},
			{
				"type": "unocc",
				"energy": 0.04488,
				"method": "rhf"
			}
		],
		"cosmo_sigma_profile": { 
			"-0.025": 0.0,
			"-0.024": 0.0,
			"-0.023": 0.0,
			"-0.022": 0.0,
			"-0.021": 0.0,
			"-0.02": 0.0,
			"-0.019": 0.0,
			"-0.018": 0.0,
			"-0.017": 0.0,
			"-0.016": 0.238547472153,
			"-0.015": 2.30149657024,
			"-0.014": 2.08207622319,
			"-0.013": 2.86239793661,
			"-0.012": 2.45400703406,
			"-0.011": 2.09668911597,
			"-0.01": 1.83186385625,
			"-0.009": 3.07933752441,
			"-0.008": 3.22161316833,
			"-0.007": 7.46277020045,
			"-0.006": 12.6821969288,
			"-0.005": 17.8300556243,
			"-0.004": 22.3829797172,
			"-0.003": 20.8659516627,
			"-0.002": 16.0723476579,
			"-0.001": 11.9122172802,
			"0.0": 10.9420346136,
			"0.001": 10.7935107097,
			"0.002": 11.032306155,
			"0.003": 12.7151558186,
			"0.004": 11.1049631801,
			"0.005": 8.6345602579,
			"0.006": 7.90622587687,
			"0.007": 6.99452192432,
			"0.008": 6.260332787,
			"0.009": 8.10085442979,
			"0.01": 13.2899710392,
			"0.011": 10.5238679705,
			"0.012": 1.19344492228,
			"0.013": 0.269706681401,
			"0.014": 0.0,
			"0.015": 0.0,
			"0.016": 0.0,
			"0.017": 0.0,
			"0.018": 0.0,
			"0.019": 0.0,
			"0.02": 0.0,
			"0.021": 0.0,
			"0.022": 0.0,
			"0.023": 0.0,
			"0.024": 0.0,
			"0.025": 0.0
		}
	}
}
