{
	 "smiles": "COC(=O)C1=C(N)C2=C(CC(CC2)C(C)(C)C)S1", 
	 "Tm": 427.15, 
	 "num_atms": 39, 
	 "gaussian": { 
		 "optdone": 1, 
		 "sigma_profile": "yes", 
		 "theory": "DFT", 
		 "functional": "B3LYP", 
		 "basiset": "6-31G**", 
		 "properties": { 
			 "R2extent": 8536.2882, 
			 "electric_dipole_moment_norm": 4.54959864713, 
			 "electric_quadrupole_moment_norm": 21.847432145, 
			 "total_energy": -1149.56745272, 
			 "HOMO_LUMO_gap": 0.1692, 
			 "cosmo_polarized_energy": -13.44, 
			 "cosmo_cavitation_energy": 39.9, 
			 "cosmo_dispersion_energy": -29.09, 
			 "cosmo_repulsion_energy": 2.18, 
			 "cosmo_total_nonelectrostatic_energy": 13.0, 
			 "SMD_solvation_energy": 7.1 
		},
		"coords": [
			{
				"x": -6.8473281382,
				"y": 2.0741529138,
				"z": 1.2124826772,
				"element": "C" 
			},
			{
				"x": -5.5429629381,
				"y": 1.4829835909,
				"z": 1.1228723616,
				"element": "O" 
			},
			{
				"x": -4.9960548354,
				"y": 1.4861133064,
				"z": -0.1388858469,
				"element": "C" 
			},
			{
				"x": -5.5864771571,
				"y": 1.9546131706,
				"z": -1.0973221027,
				"element": "O" 
			},
			{
				"x": -3.6834479246,
				"y": 0.8762061986,
				"z": -0.1727034012,
				"element": "C" 
			},
			{
				"x": -2.918023298,
				"y": 0.3068286445,
				"z": 0.8427161117,
				"element": "C" 
			},
			{
				"x": -3.244309744,
				"y": 0.2867459775,
				"z": 2.1792718705,
				"element": "N" 
			},
			{
				"x": -1.6754116481,
				"y": -0.2278798729,
				"z": 0.3514888804,
				"element": "C" 
			},
			{
				"x": -1.5147638034,
				"y": -0.0404844706,
				"z": -0.9964168411,
				"element": "C" 
			},
			{
				"x": -0.3088077247,
				"y": -0.4694919968,
				"z": -1.7879094368,
				"element": "C" 
			},
			{
				"x": 0.8919533032,
				"y": -0.7703920695,
				"z": -0.8582508243,
				"element": "C" 
			},
			{
				"x": 0.4011339373,
				"y": -1.6426203752,
				"z": 0.317622391,
				"element": "C" 
			},
			{
				"x": -0.6248091689,
				"y": -0.9024742764,
				"z": 1.1939085785,
				"element": "C" 
			},
			{
				"x": 2.1421189828,
				"y": -1.3467320072,
				"z": -1.6082391116,
				"element": "C" 
			},
			{
				"x": 3.3616581348,
				"y": -1.3266695805,
				"z": -0.660754031,
				"element": "C" 
			},
			{
				"x": 2.4844815019,
				"y": -0.4589311262,
				"z": -2.8244209109,
				"element": "C" 
			},
			{
				"x": 1.9147691242,
				"y": -2.792731553,
				"z": -2.0956884378,
				"element": "C" 
			},
			{
				"x": -2.8611842627,
				"y": 0.7806054994,
				"z": -1.7240021342,
				"element": "S" 
			},
			{
				"x": -6.8215358531,
				"y": 3.117900508,
				"z": 0.8900389517,
				"element": "H" 
			},
			{
				"x": -7.1309381164,
				"y": 2.006724025,
				"z": 2.2634471991,
				"element": "H" 
			},
			{
				"x": -7.5625924051,
				"y": 1.5328498501,
				"z": 0.5879190722,
				"element": "H" 
			},
			{
				"x": -4.2061245205,
				"y": 0.5096169673,
				"z": 2.3945247125,
				"element": "H" 
			},
			{
				"x": -2.8273313619,
				"y": -0.4436573675,
				"z": 2.7365320351,
				"element": "H" 
			},
			{
				"x": -0.5605437065,
				"y": -1.3600847003,
				"z": -2.3809913449,
				"element": "H" 
			},
			{
				"x": -0.0498179265,
				"y": 0.312896276,
				"z": -2.5079991547,
				"element": "H" 
			},
			{
				"x": 1.2110486944,
				"y": 0.1951503873,
				"z": -0.4362083605,
				"element": "H" 
			},
			{
				"x": -0.065374795,
				"y": -2.553164721,
				"z": -0.0789063853,
				"element": "H" 
			},
			{
				"x": 1.2377033381,
				"y": -1.9642491314,
				"z": 0.9445518703,
				"element": "H" 
			},
			{
				"x": -1.0858859419,
				"y": -1.6188841813,
				"z": 1.8897113294,
				"element": "H" 
			},
			{
				"x": -0.1152637708,
				"y": -0.1581837441,
				"z": 1.8238014849,
				"element": "H" 
			},
			{
				"x": 3.2240561369,
				"y": -1.9727362279,
				"z": 0.2114407259,
				"element": "H" 
			},
			{
				"x": 3.5652429136,
				"y": -0.3121028032,
				"z": -0.2993188977,
				"element": "H" 
			},
			{
				"x": 4.2570337979,
				"y": -1.6777078012,
				"z": -1.1853125805,
				"element": "H" 
			},
			{
				"x": 2.5902489829,
				"y": 0.5929699756,
				"z": -2.5338514941,
				"element": "H" 
			},
			{
				"x": 1.7237203581,
				"y": -0.5176057557,
				"z": -3.6085471935,
				"element": "H" 
			},
			{
				"x": 3.4337539365,
				"y": -0.7760723367,
				"z": -3.2696707788,
				"element": "H" 
			},
			{
				"x": 1.0530050902,
				"y": -2.8703313683,
				"z": -2.7671372942,
				"element": "H" 
			},
			{
				"x": 2.79106559,
				"y": -3.145510603,
				"z": -2.6506976784,
				"element": "H" 
			},
			{
				"x": 1.7555952179,
				"y": -3.4848592209,
				"z": -1.2628960107,
				"element": "H" 
			}
		],
		 "valence_orbital": [ 
			{
				"type": "occ",
				"energy": -0.30434,
				"method": "rhf"
			},
			{
				"type": "occ",
				"energy": -0.2888,
				"method": "rhf"
			},
			{
				"type": "occ",
				"energy": -0.26099,
				"method": "rhf"
			},
			{
				"type": "occ",
				"energy": -0.2248,
				"method": "rhf"
			},
			{
				"type": "occ",
				"energy": -0.19823,
				"method": "rhf"
			},
			{
				"type": "unocc",
				"energy": -0.02903,
				"method": "rhf"
			},
			{
				"type": "unocc",
				"energy": 0.03639,
				"method": "rhf"
			},
			{
				"type": "unocc",
				"energy": 0.04705,
				"method": "rhf"
			},
			{
				"type": "unocc",
				"energy": 0.06933,
				"method": "rhf"
			},
			{
				"type": "unocc",
				"energy": 0.07832,
				"method": "rhf"
			}
		],
		"cosmo_sigma_profile": { 
			"-0.025": 0.0,
			"-0.024": 0.0,
			"-0.023": 0.0,
			"-0.022": 0.0,
			"-0.021": 0.0,
			"-0.02": 0.0,
			"-0.019": 0.0,
			"-0.018": 0.0,
			"-0.017": 0.0,
			"-0.016": 0.0,
			"-0.015": 0.0,
			"-0.014": 0.0,
			"-0.013": 0.751709980142,
			"-0.012": 0.94989189501,
			"-0.011": 1.41668969136,
			"-0.01": 2.04721205696,
			"-0.009": 2.85938592098,
			"-0.008": 2.08880374438,
			"-0.007": 2.34400166803,
			"-0.006": 4.81090512575,
			"-0.005": 9.39309032387,
			"-0.004": 17.1556858781,
			"-0.003": 30.5060155834,
			"-0.002": 52.1468413728,
			"-0.001": 37.6775087909,
			"0.0": 29.536420432,
			"0.001": 28.0802577777,
			"0.002": 23.7478190639,
			"0.003": 12.9400246403,
			"0.004": 16.1837542126,
			"0.005": 10.7530216646,
			"0.006": 6.03786954917,
			"0.007": 2.65396209299,
			"0.008": 3.37335799482,
			"0.009": 1.38508085333,
			"0.01": 2.70298311802,
			"0.011": 2.84010874277,
			"0.012": 3.26073377035,
			"0.013": 5.04021842281,
			"0.014": 0.18061788476,
			"0.015": 0.0,
			"0.016": 0.0,
			"0.017": 0.0,
			"0.018": 0.0,
			"0.019": 0.0,
			"0.02": 0.0,
			"0.021": 0.0,
			"0.022": 0.0,
			"0.023": 0.0,
			"0.024": 0.0,
			"0.025": 0.0
		}
	}
}
