{
	 "smiles": "CN1C(=O)C(C2=NNC(=O)C2=N/NC2=CC=CC(Cl)=C2)=C(O)C2=CC=CC=C12", 
	 "Tm": 495.15, 
	 "num_atms": 42, 
	 "gaussian": { 
		 "optdone": 1, 
		 "sigma_profile": "yes", 
		 "theory": "DFT", 
		 "functional": "B3LYP", 
		 "basiset": "6-31G**", 
		 "properties": { 
			 "R2extent": 15786.9413, 
			 "electric_dipole_moment_norm": 3.3945974754, 
			 "electric_quadrupole_moment_norm": 10.2250108592, 
			 "total_energy": -1692.06202776, 
			 "HOMO_LUMO_gap": 0.10257, 
			 "cosmo_polarized_energy": -22.68, 
			 "cosmo_cavitation_energy": 48.38, 
			 "cosmo_dispersion_energy": -35.26, 
			 "cosmo_repulsion_energy": 2.58, 
			 "cosmo_total_nonelectrostatic_energy": 15.69, 
			 "SMD_solvation_energy": 7.67 
		},
		"coords": [
			{
				"x": 0.4395564038,
				"y": -3.1983215662,
				"z": 4.5824322035,
				"element": "C" 
			},
			{
				"x": 0.5952354332,
				"y": -2.3197234478,
				"z": 3.4237298538,
				"element": "N" 
			},
			{
				"x": 0.0592468359,
				"y": -1.0157433362,
				"z": 3.5408888412,
				"element": "C" 
			},
			{
				"x": -0.5340532066,
				"y": -0.6963586944,
				"z": 4.5646874392,
				"element": "O" 
			},
			{
				"x": 0.2446017355,
				"y": -0.1134343022,
				"z": 2.3840350916,
				"element": "C" 
			},
			{
				"x": -0.1692206217,
				"y": 1.2902033994,
				"z": 2.5694321533,
				"element": "C" 
			},
			{
				"x": -0.1182278176,
				"y": 1.8688010223,
				"z": 3.7479950971,
				"element": "N" 
			},
			{
				"x": -0.6073109863,
				"y": 3.1581156487,
				"z": 3.6136314043,
				"element": "N" 
			},
			{
				"x": -1.0249436596,
				"y": 3.4731225603,
				"z": 2.3566514128,
				"element": "C" 
			},
			{
				"x": -1.5117028479,
				"y": 4.5275905214,
				"z": 1.9256218989,
				"element": "O" 
			},
			{
				"x": -0.7181766298,
				"y": 2.2388708537,
				"z": 1.5992028505,
				"element": "C" 
			},
			{
				"x": -0.863091641,
				"y": 2.0891982764,
				"z": 0.3086916459,
				"element": "N" 
			},
			{
				"x": -1.384114777,
				"y": 3.0791042409,
				"z": -0.3908348415,
				"element": "N" 
			},
			{
				"x": -1.5615686542,
				"y": 2.9934073561,
				"z": -1.7768806,
				"element": "C" 
			},
			{
				"x": -1.2471722296,
				"y": 1.8349940749,
				"z": -2.5021119555,
				"element": "C" 
			},
			{
				"x": -1.4525365506,
				"y": 1.8235408755,
				"z": -3.8786558268,
				"element": "C" 
			},
			{
				"x": -1.9661963715,
				"y": 2.9363529121,
				"z": -4.5485082303,
				"element": "C" 
			},
			{
				"x": -2.2736950945,
				"y": 4.0751777669,
				"z": -3.8046821551,
				"element": "C" 
			},
			{
				"x": -2.9212556501,
				"y": 5.4897040369,
				"z": -4.6174027694,
				"element": "Cl" 
			},
			{
				"x": -2.079370756,
				"y": 4.1225462763,
				"z": -2.4278040703,
				"element": "C" 
			},
			{
				"x": 0.7843866816,
				"y": -0.6087589693,
				"z": 1.2121066884,
				"element": "C" 
			},
			{
				"x": 0.9291118851,
				"y": 0.0845895464,
				"z": 0.0680583894,
				"element": "O" 
			},
			{
				"x": 1.3043390153,
				"y": -1.958109316,
				"z": 1.139812723,
				"element": "C" 
			},
			{
				"x": 1.9083407238,
				"y": -2.4447199841,
				"z": -0.0348852258,
				"element": "C" 
			},
			{
				"x": 2.4281642187,
				"y": -3.7279014236,
				"z": -0.0900009278,
				"element": "C" 
			},
			{
				"x": 2.345039095,
				"y": -4.54971063,
				"z": 1.0419880329,
				"element": "C" 
			},
			{
				"x": 1.748456447,
				"y": -4.0964485882,
				"z": 2.2108574545,
				"element": "C" 
			},
			{
				"x": 1.2151339608,
				"y": -2.7927265742,
				"z": 2.2796341898,
				"element": "C" 
			},
			{
				"x": 1.4170755533,
				"y": -3.5023417307,
				"z": 4.9702829634,
				"element": "H" 
			},
			{
				"x": -0.1337500599,
				"y": -4.0916601557,
				"z": 4.3150838275,
				"element": "H" 
			},
			{
				"x": -0.0962319984,
				"y": -2.6340677302,
				"z": 5.3417439731,
				"element": "H" 
			},
			{
				"x": -0.678788277,
				"y": 3.7366260343,
				"z": 4.4366207622,
				"element": "H" 
			},
			{
				"x": -1.6452315845,
				"y": 3.9259013693,
				"z": 0.131479738,
				"element": "H" 
			},
			{
				"x": -0.8520141132,
				"y": 0.9635691748,
				"z": -1.9950962094,
				"element": "H" 
			},
			{
				"x": -1.2100435728,
				"y": 0.9284887942,
				"z": -4.4431539321,
				"element": "H" 
			},
			{
				"x": -2.1258337183,
				"y": 2.9234505428,
				"z": -5.6201485551,
				"element": "H" 
			},
			{
				"x": -2.32383133,
				"y": 5.0204052144,
				"z": -1.8701071932,
				"element": "H" 
			},
			{
				"x": 0.3251995315,
				"y": 0.8610181476,
				"z": 0.0350644149,
				"element": "H" 
			},
			{
				"x": 1.9599731327,
				"y": -1.7867594045,
				"z": -0.8937616919,
				"element": "H" 
			},
			{
				"x": 2.8940960184,
				"y": -4.0916071899,
				"z": -1.0001057756,
				"element": "H" 
			},
			{
				"x": 2.7488546675,
				"y": -5.5577012701,
				"z": 1.0124438753,
				"element": "H" 
			},
			{
				"x": 1.6953508089,
				"y": -4.7530843322,
				"z": 3.0692630351,
				"element": "H" 
			}
		],
		 "valence_orbital": [ 
			{
				"type": "occ",
				"energy": -0.26385,
				"method": "rhf"
			},
			{
				"type": "occ",
				"energy": -0.2443,
				"method": "rhf"
			},
			{
				"type": "occ",
				"energy": -0.23497,
				"method": "rhf"
			},
			{
				"type": "occ",
				"energy": -0.22313,
				"method": "rhf"
			},
			{
				"type": "occ",
				"energy": -0.2084,
				"method": "rhf"
			},
			{
				"type": "unocc",
				"energy": -0.10583,
				"method": "rhf"
			},
			{
				"type": "unocc",
				"energy": -0.05045,
				"method": "rhf"
			},
			{
				"type": "unocc",
				"energy": -0.02972,
				"method": "rhf"
			},
			{
				"type": "unocc",
				"energy": -0.00989,
				"method": "rhf"
			},
			{
				"type": "unocc",
				"energy": -0.00597,
				"method": "rhf"
			}
		],
		"cosmo_sigma_profile": { 
			"-0.025": 0.0,
			"-0.024": 0.0,
			"-0.023": 0.0,
			"-0.022": 0.0,
			"-0.021": 0.0,
			"-0.02": 0.0,
			"-0.019": 0.0,
			"-0.018": 0.0,
			"-0.017": 0.638605363495,
			"-0.016": 1.30881764022,
			"-0.015": 1.66924606918,
			"-0.014": 0.704294429197,
			"-0.013": 1.45039367044,
			"-0.012": 1.39632141792,
			"-0.011": 2.44100853712,
			"-0.01": 2.07455991465,
			"-0.009": 2.43358811928,
			"-0.008": 3.40793733916,
			"-0.007": 9.94709639237,
			"-0.006": 20.8918048691,
			"-0.005": 25.7157333048,
			"-0.004": 28.2155352726,
			"-0.003": 25.1093945739,
			"-0.002": 29.4332228894,
			"-0.001": 32.8105945887,
			"0.0": 30.9724521242,
			"0.001": 31.8732783271,
			"0.002": 31.0755449987,
			"0.003": 29.9997597083,
			"0.004": 25.8364778941,
			"0.005": 10.8545593712,
			"0.006": 4.52750932195,
			"0.007": 4.12593927198,
			"0.008": 4.55874776894,
			"0.009": 3.03814961254,
			"0.01": 3.32071885263,
			"0.011": 4.83825207567,
			"0.012": 4.7195312924,
			"0.013": 4.05044094405,
			"0.014": 3.36516022018,
			"0.015": 1.83364694281,
			"0.016": 1.69966836725,
			"0.017": 1.10173781804,
			"0.018": 1.0175481023,
			"0.019": 0.128893302365,
			"0.02": 0.0,
			"0.021": 0.0,
			"0.022": 0.0,
			"0.023": 0.0,
			"0.024": 0.0,
			"0.025": 0.0
		}
	}
}
