{
	 "smiles": "COC1=C(NC(=O)C(C)Cl)C=CC(=C1)[N+]([O-])=O", 
	 "Tm": 359.15, 
	 "num_atms": 28, 
	 "gaussian": { 
		 "optdone": 1, 
		 "sigma_profile": "yes", 
		 "theory": "DFT", 
		 "functional": "B3LYP", 
		 "basiset": "6-31G**", 
		 "properties": { 
			 "R2extent": 5410.0468, 
			 "electric_dipole_moment_norm": 2.3736683235, 
			 "electric_quadrupole_moment_norm": 34.43852952, 
			 "total_energy": -1258.18838846, 
			 "HOMO_LUMO_gap": 0.14988, 
			 "cosmo_polarized_energy": -16.8, 
			 "cosmo_cavitation_energy": 34.76, 
			 "cosmo_dispersion_energy": -24.22, 
			 "cosmo_repulsion_energy": 1.91, 
			 "cosmo_total_nonelectrostatic_energy": 12.45, 
			 "SMD_solvation_energy": 9.33 
		},
		"coords": [
			{
				"x": 2.7697438655,
				"y": -0.3634105708,
				"z": -2.4691705278,
				"element": "C" 
			},
			{
				"x": 2.0448225792,
				"y": -0.0306477109,
				"z": -1.2880788413,
				"element": "O" 
			},
			{
				"x": 0.9913051922,
				"y": -0.8131348529,
				"z": -0.9341984385,
				"element": "C" 
			},
			{
				"x": 0.3255026122,
				"y": -0.4200012013,
				"z": 0.2575531672,
				"element": "C" 
			},
			{
				"x": 0.8311260464,
				"y": 0.701518438,
				"z": 0.9356874699,
				"element": "N" 
			},
			{
				"x": 0.2081990079,
				"y": 1.8221590138,
				"z": 1.4622811902,
				"element": "C" 
			},
			{
				"x": 0.8786038342,
				"y": 2.7030729218,
				"z": 1.9725103908,
				"element": "O" 
			},
			{
				"x": -1.3174773329,
				"y": 1.9578369669,
				"z": 1.3461652602,
				"element": "C" 
			},
			{
				"x": -1.8619535843,
				"y": 3.0211140401,
				"z": 2.2824669268,
				"element": "C" 
			},
			{
				"x": -1.684196589,
				"y": 2.3946097183,
				"z": -0.3994163869,
				"element": "Cl" 
			},
			{
				"x": -0.7278226042,
				"y": -1.2031790515,
				"z": 0.7379014788,
				"element": "C" 
			},
			{
				"x": -1.1800650449,
				"y": -2.3142009216,
				"z": 0.0288967186,
				"element": "C" 
			},
			{
				"x": -0.5301061037,
				"y": -2.6537226242,
				"z": -1.1504610446,
				"element": "C" 
			},
			{
				"x": 0.559181586,
				"y": -1.929842645,
				"z": -1.6406555448,
				"element": "C" 
			},
			{
				"x": -0.9847418806,
				"y": -3.8261106127,
				"z": -1.9071961709,
				"element": "N" 
			},
			{
				"x": -1.9485796457,
				"y": -4.452224688,
				"z": -1.4668188554,
				"element": "O" 
			},
			{
				"x": -0.3739545962,
				"y": -4.1135324575,
				"z": -2.9379933443,
				"element": "O" 
			},
			{
				"x": 3.5583011822,
				"y": 0.3843408553,
				"z": -2.5545056465,
				"element": "H" 
			},
			{
				"x": 2.1251672695,
				"y": -0.3167463285,
				"z": -3.3543510933,
				"element": "H" 
			},
			{
				"x": 3.2168500625,
				"y": -1.3616238999,
				"z": -2.3940947429,
				"element": "H" 
			},
			{
				"x": 1.8241777773,
				"y": 0.8640750267,
				"z": 0.8083024036,
				"element": "H" 
			},
			{
				"x": -1.8248101744,
				"y": 1.0069342375,
				"z": 1.4931509988,
				"element": "H" 
			},
			{
				"x": -2.936896846,
				"y": 3.1418832759,
				"z": 2.1337697338,
				"element": "H" 
			},
			{
				"x": -1.3564663231,
				"y": 3.9729445361,
				"z": 2.1172303971,
				"element": "H" 
			},
			{
				"x": -1.6799347883,
				"y": 2.7169249409,
				"z": 3.3186375758,
				"element": "H" 
			},
			{
				"x": -1.1791895966,
				"y": -0.9616742019,
				"z": 1.6931733134,
				"element": "H" 
			},
			{
				"x": -1.9995651162,
				"y": -2.9232504487,
				"z": 0.3866894381,
				"element": "H" 
			},
			{
				"x": 1.0263792111,
				"y": -2.2523117559,
				"z": -2.5602758261,
				"element": "H" 
			}
		],
		 "valence_orbital": [ 
			{
				"type": "occ",
				"energy": -0.30632,
				"method": "rhf"
			},
			{
				"type": "occ",
				"energy": -0.29315,
				"method": "rhf"
			},
			{
				"type": "occ",
				"energy": -0.27596,
				"method": "rhf"
			},
			{
				"type": "occ",
				"energy": -0.27165,
				"method": "rhf"
			},
			{
				"type": "occ",
				"energy": -0.24356,
				"method": "rhf"
			},
			{
				"type": "unocc",
				"energy": -0.09368,
				"method": "rhf"
			},
			{
				"type": "unocc",
				"energy": -0.03897,
				"method": "rhf"
			},
			{
				"type": "unocc",
				"energy": -0.02616,
				"method": "rhf"
			},
			{
				"type": "unocc",
				"energy": 0.00025,
				"method": "rhf"
			},
			{
				"type": "unocc",
				"energy": 0.04546,
				"method": "rhf"
			}
		],
		"cosmo_sigma_profile": { 
			"-0.025": 0.0,
			"-0.024": 0.0,
			"-0.023": 0.0,
			"-0.022": 0.0,
			"-0.021": 0.0,
			"-0.02": 0.0,
			"-0.019": 0.0,
			"-0.018": 0.0,
			"-0.017": 0.0,
			"-0.016": 0.0,
			"-0.015": 0.0,
			"-0.014": 0.0346442482867,
			"-0.013": 0.599155933971,
			"-0.012": 1.00115252355,
			"-0.011": 1.67158698468,
			"-0.01": 3.19408136544,
			"-0.009": 2.82995266091,
			"-0.008": 5.18993641284,
			"-0.007": 11.2442151378,
			"-0.006": 17.4602772696,
			"-0.005": 19.0606968518,
			"-0.004": 19.3922325,
			"-0.003": 15.952817531,
			"-0.002": 17.2777799716,
			"-0.001": 22.1255505879,
			"0.0": 21.6534586384,
			"0.001": 19.1717044044,
			"0.002": 17.7987725682,
			"0.003": 12.1924098205,
			"0.004": 11.4623706346,
			"0.005": 12.4131754309,
			"0.006": 9.71084289437,
			"0.007": 7.94963987607,
			"0.008": 9.75139156516,
			"0.009": 6.01825241334,
			"0.01": 5.13064654021,
			"0.011": 3.42503042636,
			"0.012": 4.69068629185,
			"0.013": 0.477704077192,
			"0.014": 0.0,
			"0.015": 0.0,
			"0.016": 0.0,
			"0.017": 0.0,
			"0.018": 0.0,
			"0.019": 0.0,
			"0.02": 0.0,
			"0.021": 0.0,
			"0.022": 0.0,
			"0.023": 0.0,
			"0.024": 0.0,
			"0.025": 0.0
		}
	}
}
