{
	 "smiles": "CC1CCCC(C)N1C(=O)COC(=O)C1=CC=CC=C1", 
	 "Tm": 391.15, 
	 "num_atms": 41, 
	 "gaussian": { 
		 "optdone": 1, 
		 "sigma_profile": "yes", 
		 "theory": "DFT", 
		 "functional": "B3LYP", 
		 "basiset": "6-31G**", 
		 "properties": { 
			 "R2extent": 7927.9939, 
			 "electric_dipole_moment_norm": 3.54012473509, 
			 "electric_quadrupole_moment_norm": 14.7158437115, 
			 "total_energy": -902.817178655, 
			 "HOMO_LUMO_gap": 0.18058, 
			 "cosmo_polarized_energy": -12.19, 
			 "cosmo_cavitation_energy": 41.54, 
			 "cosmo_dispersion_energy": -28.2, 
			 "cosmo_repulsion_energy": 2.16, 
			 "cosmo_total_nonelectrostatic_energy": 15.5, 
			 "SMD_solvation_energy": 7.86 
		},
		"coords": [
			{
				"x": -1.2240619935,
				"y": 2.2776293186,
				"z": -1.2811387391,
				"element": "C" 
			},
			{
				"x": -0.0734759313,
				"y": 2.0391922302,
				"z": -0.295868582,
				"element": "C" 
			},
			{
				"x": 1.2518208578,
				"y": 2.6715895518,
				"z": -0.7525421577,
				"element": "C" 
			},
			{
				"x": 2.4249571512,
				"y": 2.0629249292,
				"z": 0.016649098,
				"element": "C" 
			},
			{
				"x": 2.5887249737,
				"y": 0.5785838461,
				"z": -0.3532374919,
				"element": "C" 
			},
			{
				"x": 1.2292300209,
				"y": -0.1465670194,
				"z": -0.6007497099,
				"element": "C" 
			},
			{
				"x": 0.9759098392,
				"y": -0.4379661382,
				"z": -2.0905151654,
				"element": "C" 
			},
			{
				"x": 0.1127303845,
				"y": 0.5969917871,
				"z": 0.0143072752,
				"element": "N" 
			},
			{
				"x": -0.7774772449,
				"y": 0.0593376067,
				"z": 0.9039201783,
				"element": "C" 
			},
			{
				"x": -1.661062554,
				"y": 0.7289227162,
				"z": 1.4382339143,
				"element": "O" 
			},
			{
				"x": -0.6685794491,
				"y": -1.4252532543,
				"z": 1.2775528748,
				"element": "C" 
			},
			{
				"x": -0.9746108239,
				"y": -2.2612219335,
				"z": 0.1413004841,
				"element": "O" 
			},
			{
				"x": -0.17203943,
				"y": -3.3313957518,
				"z": -0.0889600315,
				"element": "C" 
			},
			{
				"x": 0.8365895462,
				"y": -3.5647844624,
				"z": 0.5506933178,
				"element": "O" 
			},
			{
				"x": -0.6609066122,
				"y": -4.1672815312,
				"z": -1.2198642707,
				"element": "C" 
			},
			{
				"x": -1.8524437504,
				"y": -3.8829458974,
				"z": -1.9029268194,
				"element": "C" 
			},
			{
				"x": -2.2615411246,
				"y": -4.7031361663,
				"z": -2.9530884373,
				"element": "C" 
			},
			{
				"x": -1.4883970552,
				"y": -5.8062369988,
				"z": -3.3238277017,
				"element": "C" 
			},
			{
				"x": -0.3021157921,
				"y": -6.092701592,
				"z": -2.6423849759,
				"element": "C" 
			},
			{
				"x": 0.1112419813,
				"y": -5.2767299226,
				"z": -1.5926370534,
				"element": "C" 
			},
			{
				"x": -1.022412955,
				"y": 1.8189873077,
				"z": -2.2542572438,
				"element": "H" 
			},
			{
				"x": -2.1543913718,
				"y": 1.868481963,
				"z": -0.8817747156,
				"element": "H" 
			},
			{
				"x": -1.3637646784,
				"y": 3.3534883849,
				"z": -1.436014983,
				"element": "H" 
			},
			{
				"x": -0.3574108309,
				"y": 2.4953208526,
				"z": 0.6577798751,
				"element": "H" 
			},
			{
				"x": 1.1861461533,
				"y": 3.7527962302,
				"z": -0.5892078314,
				"element": "H" 
			},
			{
				"x": 1.4008968544,
				"y": 2.5327785174,
				"z": -1.8314454879,
				"element": "H" 
			},
			{
				"x": 3.3551653045,
				"y": 2.6041167632,
				"z": -0.1869457094,
				"element": "H" 
			},
			{
				"x": 2.2331867475,
				"y": 2.1629262158,
				"z": 1.0923990873,
				"element": "H" 
			},
			{
				"x": 3.1444936092,
				"y": 0.0596511283,
				"z": 0.4350128364,
				"element": "H" 
			},
			{
				"x": 3.1935782425,
				"y": 0.4939297943,
				"z": -1.2634661072,
				"element": "H" 
			},
			{
				"x": 1.2833237907,
				"y": -1.1101710318,
				"z": -0.0972393888,
				"element": "H" 
			},
			{
				"x": 1.7658094392,
				"y": -1.0894691842,
				"z": -2.47942081,
				"element": "H" 
			},
			{
				"x": 0.9718620501,
				"y": 0.4738577948,
				"z": -2.6943542032,
				"element": "H" 
			},
			{
				"x": 0.0164259229,
				"y": -0.9446762378,
				"z": -2.2245409415,
				"element": "H" 
			},
			{
				"x": 0.3085321449,
				"y": -1.702066714,
				"z": 1.6796727601,
				"element": "H" 
			},
			{
				"x": -1.4377953342,
				"y": -1.5977391741,
				"z": 2.0313842766,
				"element": "H" 
			},
			{
				"x": -2.4485112437,
				"y": -3.0280004382,
				"z": -1.6055510322,
				"element": "H" 
			},
			{
				"x": -3.1845208908,
				"y": -4.4832802676,
				"z": -3.4812987731,
				"element": "H" 
			},
			{
				"x": -1.8109742348,
				"y": -6.4434183612,
				"z": -4.1424134822,
				"element": "H" 
			},
			{
				"x": 0.2975207681,
				"y": -6.951225299,
				"z": -2.9298037941,
				"element": "H" 
			},
			{
				"x": 1.0266475185,
				"y": -5.4792395621,
				"z": -1.0471303387,
				"element": "H" 
			}
		],
		 "valence_orbital": [ 
			{
				"type": "occ",
				"energy": -0.28389,
				"method": "rhf"
			},
			{
				"type": "occ",
				"energy": -0.26526,
				"method": "rhf"
			},
			{
				"type": "occ",
				"energy": -0.26337,
				"method": "rhf"
			},
			{
				"type": "occ",
				"energy": -0.24346,
				"method": "rhf"
			},
			{
				"type": "occ",
				"energy": -0.23305,
				"method": "rhf"
			},
			{
				"type": "unocc",
				"energy": -0.05247,
				"method": "rhf"
			},
			{
				"type": "unocc",
				"energy": -0.01305,
				"method": "rhf"
			},
			{
				"type": "unocc",
				"energy": 0.01527,
				"method": "rhf"
			},
			{
				"type": "unocc",
				"energy": 0.0517,
				"method": "rhf"
			},
			{
				"type": "unocc",
				"energy": 0.07474,
				"method": "rhf"
			}
		],
		"cosmo_sigma_profile": { 
			"-0.025": 0.0,
			"-0.024": 0.0,
			"-0.023": 0.0,
			"-0.022": 0.0,
			"-0.021": 0.0,
			"-0.02": 0.0,
			"-0.019": 0.0,
			"-0.018": 0.0,
			"-0.017": 0.0,
			"-0.016": 0.0,
			"-0.015": 0.0,
			"-0.014": 0.0,
			"-0.013": 0.0,
			"-0.012": 0.0,
			"-0.011": 0.0,
			"-0.01": 0.0,
			"-0.009": 0.0,
			"-0.008": 0.2317122941,
			"-0.007": 4.6528385092,
			"-0.006": 12.6199021749,
			"-0.005": 14.7171320522,
			"-0.004": 22.9400023727,
			"-0.003": 37.1136704367,
			"-0.002": 38.9377749492,
			"-0.001": 42.2952746357,
			"0.0": 37.4002202454,
			"0.001": 31.1770069893,
			"0.002": 19.5690115148,
			"0.003": 16.549112847,
			"0.004": 14.5908925884,
			"0.005": 3.15813284049,
			"0.006": 2.63901472822,
			"0.007": 3.40672619029,
			"0.008": 2.58623729556,
			"0.009": 2.72252491748,
			"0.01": 3.84313562481,
			"0.011": 4.70816755897,
			"0.012": 2.99485023577,
			"0.013": 2.76480712524,
			"0.014": 4.22928594849,
			"0.015": 0.621101711145,
			"0.016": 0.0,
			"0.017": 0.0,
			"0.018": 0.0,
			"0.019": 0.0,
			"0.02": 0.0,
			"0.021": 0.0,
			"0.022": 0.0,
			"0.023": 0.0,
			"0.024": 0.0,
			"0.025": 0.0
		}
	}
}
