{
	 "smiles": "CCCCCCN1CC(CC1=O)C(O)=O", 
	 "Tm": 315.65, 
	 "num_atms": 34, 
	 "gaussian": { 
		 "optdone": 1, 
		 "sigma_profile": "yes", 
		 "theory": "DFT", 
		 "functional": "B3LYP", 
		 "basiset": "6-31G**", 
		 "properties": { 
			 "R2extent": 5234.2426, 
			 "electric_dipole_moment_norm": 4.96544503645, 
			 "electric_quadrupole_moment_norm": 23.7450570048, 
			 "total_energy": -711.08421667, 
			 "HOMO_LUMO_gap": 0.25508, 
			 "cosmo_polarized_energy": -18.19, 
			 "cosmo_cavitation_energy": 35.25, 
			 "cosmo_dispersion_energy": -24.01, 
			 "cosmo_repulsion_energy": 1.92, 
			 "cosmo_total_nonelectrostatic_energy": 13.16, 
			 "SMD_solvation_energy": 7.16 
		},
		"coords": [
			{
				"x": -0.7367116129,
				"y": -0.9888738024,
				"z": 3.2724829239,
				"element": "C" 
			},
			{
				"x": -1.0986117991,
				"y": 0.4840542524,
				"z": 3.0488537736,
				"element": "C" 
			},
			{
				"x": 0.0631388212,
				"y": 1.3526898056,
				"z": 2.5344800982,
				"element": "C" 
			},
			{
				"x": 0.6336568545,
				"y": 0.9628688264,
				"z": 1.1586840457,
				"element": "C" 
			},
			{
				"x": -0.3774636573,
				"y": 1.0837073737,
				"z": 0.0101041316,
				"element": "C" 
			},
			{
				"x": 0.2048034068,
				"y": 0.9122720137,
				"z": -1.4020952904,
				"element": "C" 
			},
			{
				"x": 0.7404839167,
				"y": -0.4181243705,
				"z": -1.7063894012,
				"element": "N" 
			},
			{
				"x": 2.131067895,
				"y": -0.8157565206,
				"z": -1.4703975524,
				"element": "C" 
			},
			{
				"x": 2.2177290792,
				"y": -2.2087381893,
				"z": -2.1463291325,
				"element": "C" 
			},
			{
				"x": 0.7755586646,
				"y": -2.7518900703,
				"z": -1.989722427,
				"element": "C" 
			},
			{
				"x": -0.1017830791,
				"y": -1.5044555673,
				"z": -1.8714900948,
				"element": "C" 
			},
			{
				"x": -1.3179267795,
				"y": -1.4474579247,
				"z": -1.9181913944,
				"element": "O" 
			},
			{
				"x": 2.6329623879,
				"y": -2.1193837504,
				"z": -3.6166553715,
				"element": "C" 
			},
			{
				"x": 1.9879446206,
				"y": -1.1854068664,
				"z": -4.3613530409,
				"element": "O" 
			},
			{
				"x": 3.4698873287,
				"y": -2.8311717766,
				"z": -4.1128608936,
				"element": "O" 
			},
			{
				"x": -1.5783584306,
				"y": -1.5384182158,
				"z": 3.7059834582,
				"element": "H" 
			},
			{
				"x": -0.4694442545,
				"y": -1.492123647,
				"z": 2.3371070429,
				"element": "H" 
			},
			{
				"x": 0.1134636884,
				"y": -1.0882158545,
				"z": 3.9577116076,
				"element": "H" 
			},
			{
				"x": -1.4499797817,
				"y": 0.9123980523,
				"z": 3.995978967,
				"element": "H" 
			},
			{
				"x": -1.9491312617,
				"y": 0.5503975141,
				"z": 2.3588654225,
				"element": "H" 
			},
			{
				"x": 0.8778390553,
				"y": 1.32293196,
				"z": 3.2707048087,
				"element": "H" 
			},
			{
				"x": -0.2693074241,
				"y": 2.3988701526,
				"z": 2.4917600186,
				"element": "H" 
			},
			{
				"x": 1.4981147771,
				"y": 1.608131132,
				"z": 0.947738065,
				"element": "H" 
			},
			{
				"x": 1.0238872719,
				"y": -0.0615629587,
				"z": 1.2050261185,
				"element": "H" 
			},
			{
				"x": -1.1913489709,
				"y": 0.3614115769,
				"z": 0.1287313547,
				"element": "H" 
			},
			{
				"x": -0.8410214377,
				"y": 2.0795841754,
				"z": 0.0433243588,
				"element": "H" 
			},
			{
				"x": 1.0078192734,
				"y": 1.6363631188,
				"z": -1.5810490163,
				"element": "H" 
			},
			{
				"x": -0.587686476,
				"y": 1.104688721,
				"z": -2.1316822881,
				"element": "H" 
			},
			{
				"x": 2.821534084,
				"y": -0.0860619115,
				"z": -1.9062529658,
				"element": "H" 
			},
			{
				"x": 2.3588107625,
				"y": -0.8917056901,
				"z": -0.399493622,
				"element": "H" 
			},
			{
				"x": 2.9571381136,
				"y": -2.8465770348,
				"z": -1.6620323537,
				"element": "H" 
			},
			{
				"x": 0.6724144724,
				"y": -3.3325394045,
				"z": -1.0659052419,
				"element": "H" 
			},
			{
				"x": 0.4375935055,
				"y": -3.3875513233,
				"z": -2.8112035904,
				"element": "H" 
			},
			{
				"x": 1.3522269858,
				"y": -0.6971537961,
				"z": -3.8099325187,
				"element": "H" 
			}
		],
		 "valence_orbital": [ 
			{
				"type": "occ",
				"energy": -0.32176,
				"method": "rhf"
			},
			{
				"type": "occ",
				"energy": -0.3161,
				"method": "rhf"
			},
			{
				"type": "occ",
				"energy": -0.27183,
				"method": "rhf"
			},
			{
				"type": "occ",
				"energy": -0.26926,
				"method": "rhf"
			},
			{
				"type": "occ",
				"energy": -0.2569,
				"method": "rhf"
			},
			{
				"type": "unocc",
				"energy": -0.00182,
				"method": "rhf"
			},
			{
				"type": "unocc",
				"energy": 0.012,
				"method": "rhf"
			},
			{
				"type": "unocc",
				"energy": 0.04853,
				"method": "rhf"
			},
			{
				"type": "unocc",
				"energy": 0.0753,
				"method": "rhf"
			},
			{
				"type": "unocc",
				"energy": 0.08395,
				"method": "rhf"
			}
		],
		"cosmo_sigma_profile": { 
			"-0.025": 0.0,
			"-0.024": 0.0,
			"-0.023": 0.0,
			"-0.022": 0.0,
			"-0.021": 0.0,
			"-0.02": 0.0,
			"-0.019": 0.0,
			"-0.018": 0.0,
			"-0.017": 0.0,
			"-0.016": 0.0,
			"-0.015": 0.0,
			"-0.014": 0.0,
			"-0.013": 0.256910042744,
			"-0.012": 0.831714764348,
			"-0.011": 1.23239596403,
			"-0.01": 1.83855261537,
			"-0.009": 1.35931662471,
			"-0.008": 2.29013462422,
			"-0.007": 13.826402861,
			"-0.006": 18.156215101,
			"-0.005": 15.2119662186,
			"-0.004": 14.9056680866,
			"-0.003": 21.6951384826,
			"-0.002": 31.2366249014,
			"-0.001": 29.470720314,
			"0.0": 29.1098360386,
			"0.001": 24.6649103417,
			"0.002": 10.2780303507,
			"0.003": 3.18845526885,
			"0.004": 4.00425959827,
			"0.005": 3.58936905898,
			"0.006": 3.40885427577,
			"0.007": 3.14804549752,
			"0.008": 3.66385508442,
			"0.009": 5.15422840444,
			"0.01": 6.84175670102,
			"0.011": 6.53278441497,
			"0.012": 8.14006749213,
			"0.013": 7.00686276763,
			"0.014": 2.32631297521,
			"0.015": 0.160272411158,
			"0.016": 0.0,
			"0.017": 0.0,
			"0.018": 0.0,
			"0.019": 0.0,
			"0.02": 0.0,
			"0.021": 0.0,
			"0.022": 0.0,
			"0.023": 0.0,
			"0.024": 0.0,
			"0.025": 0.0
		}
	}
}
