{
	 "smiles": "NN1C=NC2=C(C=C(Br)C=C2)C1=O", 
	 "Tm": 504.15, 
	 "num_atms": 19, 
	 "gaussian": { 
		 "optdone": 1, 
		 "sigma_profile": "yes", 
		 "theory": "DFT", 
		 "functional": "B3LYP", 
		 "basiset": "6-31G**", 
		 "properties": { 
			 "R2extent": 4772.7817, 
			 "electric_dipole_moment_norm": 1.74686616831, 
			 "electric_quadrupole_moment_norm": 13.1344387771, 
			 "total_energy": -3119.34226168, 
			 "HOMO_LUMO_gap": 0.17923, 
			 "cosmo_polarized_energy": -11.65, 
			 "cosmo_cavitation_energy": 26.15, 
			 "cosmo_dispersion_energy": -19.94, 
			 "cosmo_repulsion_energy": 1.55, 
			 "cosmo_total_nonelectrostatic_energy": 7.76, 
			 "SMD_solvation_energy": 3.14 
		},
		"coords": [
			{
				"x": -4.1156742308,
				"y": -1.298036091,
				"z": -0.3092246218,
				"element": "N" 
			},
			{
				"x": -2.7205574841,
				"y": -1.1093363931,
				"z": -0.1966599124,
				"element": "N" 
			},
			{
				"x": -1.9640736426,
				"y": -1.2811408228,
				"z": -1.3335973963,
				"element": "C" 
			},
			{
				"x": -0.6822386136,
				"y": -1.1460255488,
				"z": -1.3971833922,
				"element": "N" 
			},
			{
				"x": -0.0283398129,
				"y": -0.8009741586,
				"z": -0.2226458892,
				"element": "C" 
			},
			{
				"x": -0.7114901506,
				"y": -0.6007293812,
				"z": 1.0011074864,
				"element": "C" 
			},
			{
				"x": -0.0135053081,
				"y": -0.2521227991,
				"z": 2.1689267788,
				"element": "C" 
			},
			{
				"x": 1.3605200711,
				"y": -0.1054569713,
				"z": 2.1090936132,
				"element": "C" 
			},
			{
				"x": 2.3342168473,
				"y": 0.3678505123,
				"z": 3.6815454962,
				"element": "Br" 
			},
			{
				"x": 2.0612470702,
				"y": -0.29903222,
				"z": 0.9055856765,
				"element": "C" 
			},
			{
				"x": 1.372041922,
				"y": -0.6426907503,
				"z": -0.2450134123,
				"element": "C" 
			},
			{
				"x": -2.1679048526,
				"y": -0.7592345219,
				"z": 1.0511661801,
				"element": "C" 
			},
			{
				"x": -2.8901307111,
				"y": -0.6199120276,
				"z": 2.0301308473,
				"element": "O" 
			},
			{
				"x": -4.5532960348,
				"y": -0.4383357948,
				"z": 0.0235436391,
				"element": "H" 
			},
			{
				"x": -4.3703981133,
				"y": -2.0044633222,
				"z": 0.3817223346,
				"element": "H" 
			},
			{
				"x": -2.5480366483,
				"y": -1.5497935891,
				"z": -2.209701981,
				"element": "H" 
			},
			{
				"x": -0.567212386,
				"y": -0.1063158508,
				"z": 3.0887724438,
				"element": "H" 
			},
			{
				"x": 3.1384659807,
				"y": -0.1777046788,
				"z": 0.886619044,
				"element": "H" 
			},
			{
				"x": 1.8904660978,
				"y": -0.7973455909,
				"z": -1.1852869347,
				"element": "H" 
			}
		],
		 "valence_orbital": [ 
			{
				"type": "occ",
				"energy": -0.2862,
				"method": "rhf"
			},
			{
				"type": "occ",
				"energy": -0.28425,
				"method": "rhf"
			},
			{
				"type": "occ",
				"energy": -0.27859,
				"method": "rhf"
			},
			{
				"type": "occ",
				"energy": -0.27668,
				"method": "rhf"
			},
			{
				"type": "occ",
				"energy": -0.23554,
				"method": "rhf"
			},
			{
				"type": "unocc",
				"energy": -0.05631,
				"method": "rhf"
			},
			{
				"type": "unocc",
				"energy": -0.04838,
				"method": "rhf"
			},
			{
				"type": "unocc",
				"energy": 0.00133,
				"method": "rhf"
			},
			{
				"type": "unocc",
				"energy": 0.01414,
				"method": "rhf"
			},
			{
				"type": "unocc",
				"energy": 0.05737,
				"method": "rhf"
			}
		],
		"cosmo_sigma_profile": { 
			"-0.025": 0.0,
			"-0.024": 0.0,
			"-0.023": 0.0,
			"-0.022": 0.0,
			"-0.021": 0.0,
			"-0.02": 0.0,
			"-0.019": 0.0,
			"-0.018": 0.0,
			"-0.017": 0.0,
			"-0.016": 0.0,
			"-0.015": 0.0,
			"-0.014": 0.0,
			"-0.013": 1.61501370658,
			"-0.012": 2.65133805742,
			"-0.011": 3.27126011683,
			"-0.01": 2.80937398074,
			"-0.009": 2.91578756983,
			"-0.008": 4.15116786065,
			"-0.007": 8.49639355857,
			"-0.006": 8.7694366367,
			"-0.005": 10.5051592089,
			"-0.004": 12.4135659209,
			"-0.003": 12.0789669038,
			"-0.002": 11.5940404124,
			"-0.001": 11.9944683224,
			"0.0": 18.8672088949,
			"0.001": 24.1582591302,
			"0.002": 17.4869942179,
			"0.003": 12.1998804593,
			"0.004": 14.0912078933,
			"0.005": 4.9483214677,
			"0.006": 3.59491868447,
			"0.007": 2.14552104291,
			"0.008": 3.31865664073,
			"0.009": 3.26824712636,
			"0.01": 2.72673735433,
			"0.011": 3.4379311763,
			"0.012": 6.38043931825,
			"0.013": 2.33679236207,
			"0.014": 0.850097344916,
			"0.015": 0.462701416524,
			"0.016": 0.0119750791765,
			"0.017": 0.0,
			"0.018": 0.0,
			"0.019": 0.0,
			"0.02": 0.0,
			"0.021": 0.0,
			"0.022": 0.0,
			"0.023": 0.0,
			"0.024": 0.0,
			"0.025": 0.0
		}
	}
}
