{
	 "smiles": "CC1=C(Cl)SC(N)=N1", 
	 "Tm": 374.15, 
	 "num_atms": 13, 
	 "gaussian": { 
		 "optdone": 1, 
		 "sigma_profile": "yes", 
		 "theory": "DFT", 
		 "functional": "B3LYP", 
		 "basiset": "6-31G**", 
		 "properties": { 
			 "R2extent": 1955.5378, 
			 "electric_dipole_moment_norm": 2.48407052436, 
			 "electric_quadrupole_moment_norm": 11.264013002, 
			 "total_energy": -1123.31514164, 
			 "HOMO_LUMO_gap": 0.19861, 
			 "cosmo_polarized_energy": -8.8, 
			 "cosmo_cavitation_energy": 20.44, 
			 "cosmo_dispersion_energy": -16.09, 
			 "cosmo_repulsion_energy": 1.31, 
			 "cosmo_total_nonelectrostatic_energy": 5.66, 
			 "SMD_solvation_energy": 1.58 
		},
		"coords": [
			{
				"x": 0.1495873948,
				"y": 1.0669829058,
				"z": 2.2479193158,
				"element": "C" 
			},
			{
				"x": 0.5800784678,
				"y": 0.0695262446,
				"z": 1.217624543,
				"element": "C" 
			},
			{
				"x": 1.8570581678,
				"y": -0.1856399186,
				"z": 0.8128103434,
				"element": "C" 
			},
			{
				"x": 3.3294333328,
				"y": 0.5403995546,
				"z": 1.3696757766,
				"element": "Cl" 
			},
			{
				"x": 1.8982581176,
				"y": -1.436826166,
				"z": -0.4270493427,
				"element": "S" 
			},
			{
				"x": 0.1381531313,
				"y": -1.5246033002,
				"z": -0.2725070847,
				"element": "C" 
			},
			{
				"x": -0.599168749,
				"y": -2.3547345728,
				"z": -1.0863066236,
				"element": "N" 
			},
			{
				"x": -0.3848157236,
				"y": -0.7062737014,
				"z": 0.5920850075,
				"element": "N" 
			},
			{
				"x": 1.0031647713,
				"y": 1.5989214266,
				"z": 2.6711130001,
				"element": "H" 
			},
			{
				"x": -0.3907332484,
				"y": 0.5663851968,
				"z": 3.0584480102,
				"element": "H" 
			},
			{
				"x": -0.5352077766,
				"y": 1.7980777335,
				"z": 1.8048033591,
				"element": "H" 
			},
			{
				"x": -1.5628016796,
				"y": -2.4361354356,
				"z": -0.7875114982,
				"element": "H" 
			},
			{
				"x": -0.1766062061,
				"y": -3.2342799674,
				"z": -1.3477048066,
				"element": "H" 
			}
		],
		 "valence_orbital": [ 
			{
				"type": "occ",
				"energy": -0.32097,
				"method": "rhf"
			},
			{
				"type": "occ",
				"energy": -0.30345,
				"method": "rhf"
			},
			{
				"type": "occ",
				"energy": -0.2754,
				"method": "rhf"
			},
			{
				"type": "occ",
				"energy": -0.27485,
				"method": "rhf"
			},
			{
				"type": "occ",
				"energy": -0.2085,
				"method": "rhf"
			},
			{
				"type": "unocc",
				"energy": -0.00989,
				"method": "rhf"
			},
			{
				"type": "unocc",
				"energy": -0.00081,
				"method": "rhf"
			},
			{
				"type": "unocc",
				"energy": 0.02917,
				"method": "rhf"
			},
			{
				"type": "unocc",
				"energy": 0.05577,
				"method": "rhf"
			},
			{
				"type": "unocc",
				"energy": 0.07309,
				"method": "rhf"
			}
		],
		"cosmo_sigma_profile": { 
			"-0.025": 0.0,
			"-0.024": 0.0,
			"-0.023": 0.0,
			"-0.022": 0.0,
			"-0.021": 0.0,
			"-0.02": 0.0,
			"-0.019": 0.0,
			"-0.018": 0.0,
			"-0.017": 0.0,
			"-0.016": 0.0,
			"-0.015": 0.724841668962,
			"-0.014": 2.29184580112,
			"-0.013": 2.65782274225,
			"-0.012": 2.99713722794,
			"-0.011": 2.20624948555,
			"-0.01": 2.28544358944,
			"-0.009": 1.91397087967,
			"-0.008": 2.01435633869,
			"-0.007": 2.09702764983,
			"-0.006": 1.54277204385,
			"-0.005": 3.75519447995,
			"-0.004": 6.76750122749,
			"-0.003": 8.27482527355,
			"-0.002": 10.4825286759,
			"-0.001": 15.6555721777,
			"0.0": 16.703078742,
			"0.001": 15.4515697327,
			"0.002": 18.5615360968,
			"0.003": 19.1664485731,
			"0.004": 12.6929726276,
			"0.005": 4.77916512294,
			"0.006": 2.02889656593,
			"0.007": 1.78264579601,
			"0.008": 2.00913992097,
			"0.009": 2.13165327922,
			"0.01": 1.57382853577,
			"0.011": 1.5753879991,
			"0.012": 0.915120071683,
			"0.013": 1.05233978233,
			"0.014": 0.843062101028,
			"0.015": 0.432188125951,
			"0.016": 0.0,
			"0.017": 0.0,
			"0.018": 0.0,
			"0.019": 0.0,
			"0.02": 0.0,
			"0.021": 0.0,
			"0.022": 0.0,
			"0.023": 0.0,
			"0.024": 0.0,
			"0.025": 0.0
		}
	}
}
