{
	 "smiles": "CC(C)(NC(=O)C1=CC(Cl)=CC(Cl)=C1)C#C", 
	 "Tm": 429.15, 
	 "num_atms": 27, 
	 "gaussian": { 
		 "optdone": 1, 
		 "sigma_profile": "yes", 
		 "theory": "DFT", 
		 "functional": "B3LYP", 
		 "basiset": "6-31G**", 
		 "properties": { 
			 "R2extent": 6589.6917, 
			 "electric_dipole_moment_norm": 3.6188778012, 
			 "electric_quadrupole_moment_norm": 6.7182311675, 
			 "total_energy": -1514.19993759, 
			 "HOMO_LUMO_gap": 0.20165, 
			 "cosmo_polarized_energy": -10.84, 
			 "cosmo_cavitation_energy": 35.37, 
			 "cosmo_dispersion_energy": -23.74, 
			 "cosmo_repulsion_energy": 1.87, 
			 "cosmo_total_nonelectrostatic_energy": 13.5, 
			 "SMD_solvation_energy": 7.11 
		},
		"coords": [
			{
				"x": -2.069316331,
				"y": 0.2748676741,
				"z": -0.2060650139,
				"element": "C" 
			},
			{
				"x": -1.3857591432,
				"y": -0.4663072801,
				"z": 0.966524625,
				"element": "C" 
			},
			{
				"x": -1.711470824,
				"y": -1.9760300026,
				"z": 0.9181356541,
				"element": "C" 
			},
			{
				"x": 0.0917677343,
				"y": -0.2070449308,
				"z": 1.0071677918,
				"element": "N" 
			},
			{
				"x": 0.9822369753,
				"y": 0.0346351051,
				"z": -0.0200736374,
				"element": "C" 
			},
			{
				"x": 1.9168004825,
				"y": 0.81261379,
				"z": 0.133374943,
				"element": "O" 
			},
			{
				"x": 0.8697787021,
				"y": -0.7307563285,
				"z": -1.3137254577,
				"element": "C" 
			},
			{
				"x": 0.8037158394,
				"y": -2.1280034161,
				"z": -1.3343290898,
				"element": "C" 
			},
			{
				"x": 0.826533521,
				"y": -2.7902128591,
				"z": -2.5618432234,
				"element": "C" 
			},
			{
				"x": 0.7600225648,
				"y": -4.5437422528,
				"z": -2.592571506,
				"element": "Cl" 
			},
			{
				"x": 0.9038196725,
				"y": -2.0962039277,
				"z": -3.7673830892,
				"element": "C" 
			},
			{
				"x": 0.9843352051,
				"y": -0.7030393614,
				"z": -3.7186273918,
				"element": "C" 
			},
			{
				"x": 1.0959712674,
				"y": 0.1905901916,
				"z": -5.2236901023,
				"element": "Cl" 
			},
			{
				"x": 0.988733525,
				"y": -0.0130299519,
				"z": -2.5105229095,
				"element": "C" 
			},
			{
				"x": -1.907139498,
				"y": 0.0780050461,
				"z": 2.2344604836,
				"element": "C" 
			},
			{
				"x": -2.3367871163,
				"y": 0.5226380358,
				"z": 3.27122993,
				"element": "C" 
			},
			{
				"x": -1.8548642763,
				"y": 1.3455603032,
				"z": -0.1608164464,
				"element": "H" 
			},
			{
				"x": -1.7245445935,
				"y": -0.1173068853,
				"z": -1.1652729315,
				"element": "H" 
			},
			{
				"x": -3.1519357221,
				"y": 0.1361146336,
				"z": -0.1475415394,
				"element": "H" 
			},
			{
				"x": -2.7842004848,
				"y": -2.1262322723,
				"z": 1.0664653246,
				"element": "H" 
			},
			{
				"x": -1.4384778923,
				"y": -2.4000808301,
				"z": -0.0496111416,
				"element": "H" 
			},
			{
				"x": -1.1737993203,
				"y": -2.5063186404,
				"z": 1.7077205455,
				"element": "H" 
			},
			{
				"x": 0.3647438685,
				"y": 0.3473529244,
				"z": 1.8113309706,
				"element": "H" 
			},
			{
				"x": 0.7704728201,
				"y": -2.6935377996,
				"z": -0.4118166705,
				"element": "H" 
			},
			{
				"x": 0.9120388636,
				"y": -2.6218531328,
				"z": -4.7140721905,
				"element": "H" 
			},
			{
				"x": 1.0904899425,
				"y": 1.0652792824,
				"z": -2.4872921933,
				"element": "H" 
			},
			{
				"x": -2.7196657823,
				"y": 0.9151428853,
				"z": 4.1851442658,
				"element": "H" 
			}
		],
		 "valence_orbital": [ 
			{
				"type": "occ",
				"energy": -0.28606,
				"method": "rhf"
			},
			{
				"type": "occ",
				"energy": -0.27757,
				"method": "rhf"
			},
			{
				"type": "occ",
				"energy": -0.26902,
				"method": "rhf"
			},
			{
				"type": "occ",
				"energy": -0.2604,
				"method": "rhf"
			},
			{
				"type": "occ",
				"energy": -0.25239,
				"method": "rhf"
			},
			{
				"type": "unocc",
				"energy": -0.05074,
				"method": "rhf"
			},
			{
				"type": "unocc",
				"energy": -0.0339,
				"method": "rhf"
			},
			{
				"type": "unocc",
				"energy": -0.00021,
				"method": "rhf"
			},
			{
				"type": "unocc",
				"energy": 0.01162,
				"method": "rhf"
			},
			{
				"type": "unocc",
				"energy": 0.03234,
				"method": "rhf"
			}
		],
		"cosmo_sigma_profile": { 
			"-0.025": -0.535478304294,
			"-0.024": 0.0225604257871,
			"-0.023": 0.00349615822951,
			"-0.022": 0.0726631426084,
			"-0.021": 0.398438615593,
			"-0.02": 0.0220215993004,
			"-0.019": 0.0,
			"-0.018": 0.0,
			"-0.017": 0.0,
			"-0.016": 0.0,
			"-0.015": 0.000560453876191,
			"-0.014": 0.0216811102705,
			"-0.013": 0.0146066258533,
			"-0.012": 1.03314901594,
			"-0.011": 1.80386951158,
			"-0.01": 2.77532033552,
			"-0.009": 2.22775563063,
			"-0.008": 3.65991092589,
			"-0.007": 5.28734337338,
			"-0.006": 6.1332522346,
			"-0.005": 12.2986011455,
			"-0.004": 20.136189681,
			"-0.003": 25.0592498108,
			"-0.002": 25.744133407,
			"-0.001": 26.7197701158,
			"0.0": 31.6084691619,
			"0.001": 26.23583969,
			"0.002": 17.4552994077,
			"0.003": 20.5839470734,
			"0.004": 25.2907342557,
			"0.005": 9.48483017022,
			"0.006": 6.43888994274,
			"0.007": 1.59096430717,
			"0.008": 0.955518514193,
			"0.009": 1.34860656948,
			"0.01": 0.978389724741,
			"0.011": 1.17232167074,
			"0.012": 2.76087811617,
			"0.013": 4.97551989763,
			"0.014": 1.89209904896,
			"0.015": 0.918323462859,
			"0.016": 0.0718929146697,
			"0.017": 0.0,
			"0.018": 0.0,
			"0.019": 0.0,
			"0.02": 0.0,
			"0.021": 0.0,
			"0.022": 0.0,
			"0.023": 0.0,
			"0.024": 3.2353044278,
			"0.025": -3.16195299202
		}
	}
}
