{
	 "smiles": "CN1C=CC(=N1)C1=CC=C(Br)C=C1", 
	 "Tm": 353.35, 
	 "num_atms": 22, 
	 "gaussian": { 
		 "optdone": 1, 
		 "sigma_profile": "yes", 
		 "theory": "DFT", 
		 "functional": "B3LYP", 
		 "basiset": "6-31G**", 
		 "properties": { 
			 "R2extent": 6726.1063, 
			 "electric_dipole_moment_norm": 4.75019347185, 
			 "electric_quadrupole_moment_norm": 9.69512273362, 
			 "total_energy": -3067.38219428, 
			 "HOMO_LUMO_gap": 0.18704, 
			 "cosmo_polarized_energy": -9.33, 
			 "cosmo_cavitation_energy": 28.66, 
			 "cosmo_dispersion_energy": -21.61, 
			 "cosmo_repulsion_energy": 1.69, 
			 "cosmo_total_nonelectrostatic_energy": 8.75, 
			 "SMD_solvation_energy": 3.32 
		},
		"coords": [
			{
				"x": -4.0919846934,
				"y": -0.5151118305,
				"z": 0.5794153039,
				"element": "C" 
			},
			{
				"x": -2.8147027994,
				"y": -0.0594978277,
				"z": 0.0652069155,
				"element": "N" 
			},
			{
				"x": -2.4885271839,
				"y": 1.177507612,
				"z": -0.3978615724,
				"element": "C" 
			},
			{
				"x": -1.1631126106,
				"y": 1.1248157459,
				"z": -0.7757910179,
				"element": "C" 
			},
			{
				"x": -0.7589575692,
				"y": -0.2084040094,
				"z": -0.5011455796,
				"element": "C" 
			},
			{
				"x": -1.7782705773,
				"y": -0.9147885668,
				"z": 0.0107029016,
				"element": "N" 
			},
			{
				"x": 0.5555070645,
				"y": -0.836922517,
				"z": -0.7053188762,
				"element": "C" 
			},
			{
				"x": 0.7604910795,
				"y": -2.1854976085,
				"z": -0.3669222421,
				"element": "C" 
			},
			{
				"x": 1.997931311,
				"y": -2.7941548121,
				"z": -0.5539622744,
				"element": "C" 
			},
			{
				"x": 3.051172697,
				"y": -2.0509815512,
				"z": -1.0865493112,
				"element": "C" 
			},
			{
				"x": 4.7551882725,
				"y": -2.8797560045,
				"z": -1.3467936901,
				"element": "Br" 
			},
			{
				"x": 2.8787529416,
				"y": -0.7124482073,
				"z": -1.4316840036,
				"element": "C" 
			},
			{
				"x": 1.6343294859,
				"y": -0.1152433116,
				"z": -1.2391736938,
				"element": "C" 
			},
			{
				"x": -4.4688289271,
				"y": -1.3418874924,
				"z": -0.0284481409,
				"element": "H" 
			},
			{
				"x": -4.8027698974,
				"y": 0.3121917298,
				"z": 0.5455265677,
				"element": "H" 
			},
			{
				"x": -3.98162102,
				"y": -0.8560979012,
				"z": 1.6121867383,
				"element": "H" 
			},
			{
				"x": -3.2101059247,
				"y": 1.9812166207,
				"z": -0.4215471886,
				"element": "H" 
			},
			{
				"x": -0.5789496879,
				"y": 1.9328295897,
				"z": -1.1884378329,
				"element": "H" 
			},
			{
				"x": -0.0661049238,
				"y": -2.7528910342,
				"z": 0.0463684953,
				"element": "H" 
			},
			{
				"x": 2.1446254272,
				"y": -3.8352993022,
				"z": -0.2892509056,
				"element": "H" 
			},
			{
				"x": 3.7042886149,
				"y": -0.1441083871,
				"z": -1.8449378942,
				"element": "H" 
			},
			{
				"x": 1.5092489209,
				"y": 0.9283290654,
				"z": -1.5109826989,
				"element": "H" 
			}
		],
		 "valence_orbital": [ 
			{
				"type": "occ",
				"energy": -0.27998,
				"method": "rhf"
			},
			{
				"type": "occ",
				"energy": -0.26745,
				"method": "rhf"
			},
			{
				"type": "occ",
				"energy": -0.25666,
				"method": "rhf"
			},
			{
				"type": "occ",
				"energy": -0.24815,
				"method": "rhf"
			},
			{
				"type": "occ",
				"energy": -0.21328,
				"method": "rhf"
			},
			{
				"type": "unocc",
				"energy": -0.02624,
				"method": "rhf"
			},
			{
				"type": "unocc",
				"energy": -0.00604,
				"method": "rhf"
			},
			{
				"type": "unocc",
				"energy": 0.01493,
				"method": "rhf"
			},
			{
				"type": "unocc",
				"energy": 0.02588,
				"method": "rhf"
			},
			{
				"type": "unocc",
				"energy": 0.08412,
				"method": "rhf"
			}
		],
		"cosmo_sigma_profile": { 
			"-0.025": 0.0,
			"-0.024": 0.0,
			"-0.023": 0.0,
			"-0.022": 0.0,
			"-0.021": 0.0,
			"-0.02": 0.0,
			"-0.019": 0.0,
			"-0.018": 0.0,
			"-0.017": 0.0,
			"-0.016": 0.0,
			"-0.015": 0.0,
			"-0.014": 0.0,
			"-0.013": 0.0,
			"-0.012": 0.0,
			"-0.011": 0.0,
			"-0.01": 0.0101154153607,
			"-0.009": 2.51867990745,
			"-0.008": 4.46213664483,
			"-0.007": 9.26001348392,
			"-0.006": 13.7095171551,
			"-0.005": 14.5739820449,
			"-0.004": 17.703603529,
			"-0.003": 18.0782516838,
			"-0.002": 13.3422598722,
			"-0.001": 10.756459654,
			"0.0": 11.9448404364,
			"0.001": 13.3900180398,
			"0.002": 19.0409026503,
			"0.003": 25.8355426535,
			"0.004": 29.7580571346,
			"0.005": 16.2826793916,
			"0.006": 3.50811530346,
			"0.007": 2.01551860761,
			"0.008": 1.57405629847,
			"0.009": 1.77594442909,
			"0.01": 0.948219406869,
			"0.011": 0.933466329782,
			"0.012": 1.18935950784,
			"0.013": 0.74301868411,
			"0.014": 0.0513846829953,
			"0.015": 0.0,
			"0.016": 0.0,
			"0.017": 0.0,
			"0.018": 0.0,
			"0.019": 0.0,
			"0.02": 0.0,
			"0.021": 0.0,
			"0.022": 0.0,
			"0.023": 0.0,
			"0.024": 0.0,
			"0.025": 0.0
		}
	}
}
