{
	 "smiles": "COC1=C(OC(C)=O)C2=C(C=C(F)C=C2)C(OC(C)=O)=C1OC", 
	 "Tm": 375.15, 
	 "num_atms": 38, 
	 "gaussian": { 
		 "optdone": 1, 
		 "sigma_profile": "yes", 
		 "theory": "DFT", 
		 "functional": "B3LYP", 
		 "basiset": "6-31G**", 
		 "properties": { 
			 "R2extent": 7707.6658, 
			 "electric_dipole_moment_norm": 1.7011515541, 
			 "electric_quadrupole_moment_norm": 26.3386260788, 
			 "total_energy": -1169.90963297, 
			 "HOMO_LUMO_gap": 0.16713, 
			 "cosmo_polarized_energy": -16.16, 
			 "cosmo_cavitation_energy": 43.95, 
			 "cosmo_dispersion_energy": -28.44, 
			 "cosmo_repulsion_energy": 2.19, 
			 "cosmo_total_nonelectrostatic_energy": 17.71, 
			 "SMD_solvation_energy": 11.71 
		},
		"coords": [
			{
				"x": 2.0178895842,
				"y": -1.904415013,
				"z": 1.7540676857,
				"element": "C" 
			},
			{
				"x": 0.6745655051,
				"y": -1.4043953127,
				"z": 1.6462802399,
				"element": "O" 
			},
			{
				"x": 0.522345581,
				"y": -0.3841207643,
				"z": 0.7440087426,
				"element": "C" 
			},
			{
				"x": 0.2857960544,
				"y": 0.8997949611,
				"z": 1.1892462211,
				"element": "C" 
			},
			{
				"x": 0.2878067996,
				"y": 1.1624257344,
				"z": 2.5547655201,
				"element": "O" 
			},
			{
				"x": -0.7749281311,
				"y": 0.6921668425,
				"z": 3.3018484718,
				"element": "C" 
			},
			{
				"x": -0.508606904,
				"y": 0.9319202615,
				"z": 4.7656769668,
				"element": "C" 
			},
			{
				"x": -1.7508784141,
				"y": 0.177410613,
				"z": 2.8240986273,
				"element": "O" 
			},
			{
				"x": 0.1088615665,
				"y": 1.9818866793,
				"z": 0.2871604997,
				"element": "C" 
			},
			{
				"x": 0.2030633133,
				"y": 1.725738424,
				"z": -1.1201254274,
				"element": "C" 
			},
			{
				"x": 0.0427432771,
				"y": 2.7987004572,
				"z": -2.0341691961,
				"element": "C" 
			},
			{
				"x": -0.1877404956,
				"y": 4.0596908929,
				"z": -1.548338734,
				"element": "C" 
			},
			{
				"x": -0.3402318618,
				"y": 5.0858590356,
				"z": -2.4115996019,
				"element": "F" 
			},
			{
				"x": -0.2756455552,
				"y": 4.3396449476,
				"z": -0.1699157346,
				"element": "C" 
			},
			{
				"x": -0.1272563441,
				"y": 3.3099481426,
				"z": 0.7304869821,
				"element": "C" 
			},
			{
				"x": 0.4245510584,
				"y": 0.3923283084,
				"z": -1.5538532704,
				"element": "C" 
			},
			{
				"x": 0.4266527615,
				"y": 0.1271336846,
				"z": -2.9186456941,
				"element": "O" 
			},
			{
				"x": 1.6281477895,
				"y": -0.2239941618,
				"z": -3.5032572969,
				"element": "C" 
			},
			{
				"x": 1.396059728,
				"y": -0.6106612697,
				"z": -4.9412087159,
				"element": "C" 
			},
			{
				"x": 2.6817997448,
				"y": -0.209315422,
				"z": -2.9240566334,
				"element": "O" 
			},
			{
				"x": 0.5691998685,
				"y": -0.6462923536,
				"z": -0.6566910341,
				"element": "C" 
			},
			{
				"x": 0.7969572694,
				"y": -1.9155697283,
				"z": -1.1168749794,
				"element": "O" 
			},
			{
				"x": -0.3045565187,
				"y": -2.8218718234,
				"z": -0.9370601174,
				"element": "C" 
			},
			{
				"x": 1.9801491021,
				"y": -2.7159400824,
				"z": 2.4832211916,
				"element": "H" 
			},
			{
				"x": 2.6929494959,
				"y": -1.1193535247,
				"z": 2.1142131844,
				"element": "H" 
			},
			{
				"x": 2.3745928387,
				"y": -2.2849930398,
				"z": 0.7927374193,
				"element": "H" 
			},
			{
				"x": 0.3167720784,
				"y": 0.2920048161,
				"z": 5.0930863111,
				"element": "H" 
			},
			{
				"x": -0.2075175456,
				"y": 1.9685765543,
				"z": 4.9382605165,
				"element": "H" 
			},
			{
				"x": -1.4041211283,
				"y": 0.6959473079,
				"z": 5.3393999355,
				"element": "H" 
			},
			{
				"x": 0.0959873892,
				"y": 2.6253832286,
				"z": -3.101501567,
				"element": "H" 
			},
			{
				"x": -0.4576770208,
				"y": 5.3591686386,
				"z": 0.1518454018,
				"element": "H" 
			},
			{
				"x": -0.1838277665,
				"y": 3.5020376226,
				"z": 1.7956292513,
				"element": "H" 
			},
			{
				"x": 0.8124163235,
				"y": -1.5357154628,
				"z": -4.9789946638,
				"element": "H" 
			},
			{
				"x": 0.8200636403,
				"y": 0.1610991512,
				"z": -5.4587878417,
				"element": "H" 
			},
			{
				"x": 2.3556765471,
				"y": -0.7619919764,
				"z": -5.4341245184,
				"element": "H" 
			},
			{
				"x": -0.566361567,
				"y": -2.9186384493,
				"z": 0.1202386934,
				"element": "H" 
			},
			{
				"x": -1.1781813781,
				"y": -2.4819941152,
				"z": -1.505261463,
				"element": "H" 
			},
			{
				"x": 0.0315833145,
				"y": -3.7847038046,
				"z": -1.3262053725,
				"element": "H" 
			}
		],
		 "valence_orbital": [ 
			{
				"type": "occ",
				"energy": -0.27779,
				"method": "rhf"
			},
			{
				"type": "occ",
				"energy": -0.2754,
				"method": "rhf"
			},
			{
				"type": "occ",
				"energy": -0.27201,
				"method": "rhf"
			},
			{
				"type": "occ",
				"energy": -0.2367,
				"method": "rhf"
			},
			{
				"type": "occ",
				"energy": -0.21321,
				"method": "rhf"
			},
			{
				"type": "unocc",
				"energy": -0.04608,
				"method": "rhf"
			},
			{
				"type": "unocc",
				"energy": -0.01371,
				"method": "rhf"
			},
			{
				"type": "unocc",
				"energy": 0.00547,
				"method": "rhf"
			},
			{
				"type": "unocc",
				"energy": 0.00671,
				"method": "rhf"
			},
			{
				"type": "unocc",
				"energy": 0.03009,
				"method": "rhf"
			}
		],
		"cosmo_sigma_profile": { 
			"-0.025": 0.0,
			"-0.024": 0.0,
			"-0.023": 0.0,
			"-0.022": 0.0,
			"-0.021": 0.0,
			"-0.02": 0.0,
			"-0.019": 0.0,
			"-0.018": 0.0,
			"-0.017": 0.0,
			"-0.016": 0.0,
			"-0.015": 0.0,
			"-0.014": 0.0,
			"-0.013": 0.0,
			"-0.012": 0.0,
			"-0.011": 0.0,
			"-0.01": 0.0,
			"-0.009": 0.0,
			"-0.008": 0.8866632311,
			"-0.007": 9.28967518802,
			"-0.006": 20.4750096831,
			"-0.005": 28.7041464621,
			"-0.004": 33.1352213881,
			"-0.003": 38.1481001826,
			"-0.002": 32.2384667818,
			"-0.001": 20.5583973255,
			"0.0": 23.1078281222,
			"0.001": 28.4569805112,
			"0.002": 26.0361985089,
			"0.003": 16.9981487646,
			"0.004": 17.4479906326,
			"0.005": 7.60773774651,
			"0.006": 5.56796274206,
			"0.007": 6.19335676357,
			"0.008": 5.72503321803,
			"0.009": 5.88157599879,
			"0.01": 10.2305046695,
			"0.011": 10.3645791345,
			"0.012": 3.35536332633,
			"0.013": 0.0460823040649,
			"0.014": 0.0,
			"0.015": 0.0,
			"0.016": 0.0,
			"0.017": 0.0,
			"0.018": 0.0,
			"0.019": 0.0,
			"0.02": 0.0,
			"0.021": 0.0,
			"0.022": 0.0,
			"0.023": 0.0,
			"0.024": 0.0,
			"0.025": 0.0
		}
	}
}
