{
	 "smiles": "OC1=CC(NC(=O)C2=CC=CC=C2)=CC=C1", 
	 "Tm": 445.15, 
	 "num_atms": 27, 
	 "gaussian": { 
		 "optdone": 1, 
		 "sigma_profile": "yes", 
		 "theory": "DFT", 
		 "functional": "B3LYP", 
		 "basiset": "6-31G**", 
		 "properties": { 
			 "R2extent": 5680.7235, 
			 "electric_dipole_moment_norm": 4.50322306576, 
			 "electric_quadrupole_moment_norm": 5.69470767204, 
			 "total_energy": -707.228082745, 
			 "HOMO_LUMO_gap": 0.16686, 
			 "cosmo_polarized_energy": -18.02, 
			 "cosmo_cavitation_energy": 31.62, 
			 "cosmo_dispersion_energy": -23.4, 
			 "cosmo_repulsion_energy": 1.79, 
			 "cosmo_total_nonelectrostatic_energy": 10.01, 
			 "SMD_solvation_energy": 6.07 
		},
		"coords": [
			{
				"x": 3.1903542827,
				"y": -2.580509149,
				"z": -4.0842942318,
				"element": "O" 
			},
			{
				"x": 2.8077375665,
				"y": -1.3402434948,
				"z": -3.6548701053,
				"element": "C" 
			},
			{
				"x": 1.9771129526,
				"y": -1.1572633192,
				"z": -2.5492666258,
				"element": "C" 
			},
			{
				"x": 1.6104606065,
				"y": 0.1373941167,
				"z": -2.1430511678,
				"element": "C" 
			},
			{
				"x": 0.7598256854,
				"y": 0.2319226698,
				"z": -1.0220959974,
				"element": "N" 
			},
			{
				"x": 0.3027612957,
				"y": 1.3606316233,
				"z": -0.3736724921,
				"element": "C" 
			},
			{
				"x": 0.6210359777,
				"y": 2.5032419035,
				"z": -0.6833848334,
				"element": "O" 
			},
			{
				"x": -0.6216454452,
				"y": 1.0931762814,
				"z": 0.7838637994,
				"element": "C" 
			},
			{
				"x": -0.7041772213,
				"y": 2.081542799,
				"z": 1.7744519107,
				"element": "C" 
			},
			{
				"x": -1.5394307018,
				"y": 1.908726714,
				"z": 2.8752616466,
				"element": "C" 
			},
			{
				"x": -2.3164195452,
				"y": 0.7529700491,
				"z": 2.9914041058,
				"element": "C" 
			},
			{
				"x": -2.2588821699,
				"y": -0.2256761824,
				"z": 1.9977544238,
				"element": "C" 
			},
			{
				"x": -1.4157158271,
				"y": -0.0574643685,
				"z": 0.8988838132,
				"element": "C" 
			},
			{
				"x": 2.0801164532,
				"y": 1.2510202961,
				"z": -2.8531144947,
				"element": "C" 
			},
			{
				"x": 2.9088089332,
				"y": 1.0401163316,
				"z": -3.9574189768,
				"element": "C" 
			},
			{
				"x": 3.2810051857,
				"y": -0.235307351,
				"z": -4.3708088843,
				"element": "C" 
			},
			{
				"x": 2.8032058674,
				"y": -3.2518179381,
				"z": -3.5080601472,
				"element": "H" 
			},
			{
				"x": 1.6111231668,
				"y": -2.0234497419,
				"z": -1.9990161798,
				"element": "H" 
			},
			{
				"x": 0.5290772632,
				"y": -0.6484061851,
				"z": -0.5863628359,
				"element": "H" 
			},
			{
				"x": -0.1045110078,
				"y": 2.9776243474,
				"z": 1.656574429,
				"element": "H" 
			},
			{
				"x": -1.5881200138,
				"y": 2.6761873974,
				"z": 3.6421984288,
				"element": "H" 
			},
			{
				"x": -2.9712417189,
				"y": 0.6199932552,
				"z": 3.8477141216,
				"element": "H" 
			},
			{
				"x": -2.877612984,
				"y": -1.1151989945,
				"z": 2.0715082269,
				"element": "H" 
			},
			{
				"x": -1.4165074321,
				"y": -0.8103482752,
				"z": 0.1149308729,
				"element": "H" 
			},
			{
				"x": 1.8032879025,
				"y": 2.2446526313,
				"z": -2.5349558171,
				"element": "H" 
			},
			{
				"x": 3.2738003554,
				"y": 1.9024666098,
				"z": -4.5079991099,
				"element": "H" 
			},
			{
				"x": 3.9255505725,
				"y": -0.3963820258,
				"z": -5.2277738797,
				"element": "H" 
			}
		],
		 "valence_orbital": [ 
			{
				"type": "occ",
				"energy": -0.26651,
				"method": "rhf"
			},
			{
				"type": "occ",
				"energy": -0.26409,
				"method": "rhf"
			},
			{
				"type": "occ",
				"energy": -0.25214,
				"method": "rhf"
			},
			{
				"type": "occ",
				"energy": -0.2335,
				"method": "rhf"
			},
			{
				"type": "occ",
				"energy": -0.21183,
				"method": "rhf"
			},
			{
				"type": "unocc",
				"energy": -0.04497,
				"method": "rhf"
			},
			{
				"type": "unocc",
				"energy": -0.01475,
				"method": "rhf"
			},
			{
				"type": "unocc",
				"energy": 0.00385,
				"method": "rhf"
			},
			{
				"type": "unocc",
				"energy": 0.01664,
				"method": "rhf"
			},
			{
				"type": "unocc",
				"energy": 0.06363,
				"method": "rhf"
			}
		],
		"cosmo_sigma_profile": { 
			"-0.025": 0.0,
			"-0.024": 0.0,
			"-0.023": 0.0,
			"-0.022": 0.0,
			"-0.021": 0.0,
			"-0.02": 0.0,
			"-0.019": 0.0,
			"-0.018": 0.313699443584,
			"-0.017": 1.27258100997,
			"-0.016": 1.16128037577,
			"-0.015": 1.79779226319,
			"-0.014": 2.34515742341,
			"-0.013": 2.34121764617,
			"-0.012": 2.36488184974,
			"-0.011": 2.1648623448,
			"-0.01": 2.55975875883,
			"-0.009": 3.91713971612,
			"-0.008": 2.37737125339,
			"-0.007": 3.80963584744,
			"-0.006": 13.0909292977,
			"-0.005": 15.5223340821,
			"-0.004": 14.5249418269,
			"-0.003": 15.4144877653,
			"-0.002": 12.9836611384,
			"-0.001": 13.2564147393,
			"0.0": 14.7735903047,
			"0.001": 13.2041704258,
			"0.002": 17.6190601501,
			"0.003": 20.1526454171,
			"0.004": 27.3172316633,
			"0.005": 17.1551053719,
			"0.006": 8.84751052924,
			"0.007": 3.43206170498,
			"0.008": 2.98993730967,
			"0.009": 3.33716438516,
			"0.01": 3.55558489557,
			"0.011": 3.90363359805,
			"0.012": 3.55389834551,
			"0.013": 2.29527697019,
			"0.014": 0.267671966602,
			"0.015": 0.0,
			"0.016": 0.0,
			"0.017": 0.0,
			"0.018": 0.0,
			"0.019": 0.0,
			"0.02": 0.0,
			"0.021": 0.0,
			"0.022": 0.0,
			"0.023": 0.0,
			"0.024": 0.0,
			"0.025": 0.0
		}
	}
}
