{
	 "smiles": "FC(F)(F)C1=NC2=C(C=C(Br)C=C2)C(Cl)=N1", 
	 "Tm": 375.15, 
	 "num_atms": 19, 
	 "gaussian": { 
		 "optdone": 1, 
		 "sigma_profile": "yes", 
		 "theory": "DFT", 
		 "functional": "B3LYP", 
		 "basiset": "6-31G**", 
		 "properties": { 
			 "R2extent": 6895.5899, 
			 "electric_dipole_moment_norm": 3.8465358818, 
			 "electric_quadrupole_moment_norm": 13.8301129482, 
			 "total_energy": -3785.38933731, 
			 "HOMO_LUMO_gap": 0.16695, 
			 "cosmo_polarized_energy": -7.33, 
			 "cosmo_cavitation_energy": 30.17, 
			 "cosmo_dispersion_energy": -22.28, 
			 "cosmo_repulsion_energy": 1.68, 
			 "cosmo_total_nonelectrostatic_energy": 9.56, 
			 "SMD_solvation_energy": 2.2 
		},
		"coords": [
			{
				"x": -1.5044670356,
				"y": -4.7408648244,
				"z": -1.6321024986,
				"element": "F" 
			},
			{
				"x": -0.8636047311,
				"y": -4.5535873611,
				"z": -0.4621975587,
				"element": "C" 
			},
			{
				"x": -1.6827784482,
				"y": -4.922012264,
				"z": 0.529274152,
				"element": "F" 
			},
			{
				"x": 0.2105177758,
				"y": -5.36623592,
				"z": -0.4475631075,
				"element": "F" 
			},
			{
				"x": -0.4267053591,
				"y": -3.0997798511,
				"z": -0.327365941,
				"element": "C" 
			},
			{
				"x": -0.876231551,
				"y": -2.4055435461,
				"z": 0.6844158456,
				"element": "N" 
			},
			{
				"x": -0.4560692251,
				"y": -1.1092819117,
				"z": 0.7601664779,
				"element": "C" 
			},
			{
				"x": 0.4255603388,
				"y": -0.5438229843,
				"z": -0.2122278293,
				"element": "C" 
			},
			{
				"x": 0.8378721106,
				"y": 0.8038714927,
				"z": -0.0978844623,
				"element": "C" 
			},
			{
				"x": 0.3763212351,
				"y": 1.5539953297,
				"z": 0.9607662361,
				"element": "C" 
			},
			{
				"x": 0.9169215355,
				"y": 3.3710128525,
				"z": 1.137317039,
				"element": "Br" 
			},
			{
				"x": -0.497302569,
				"y": 1.0105254802,
				"z": 1.9329995481,
				"element": "C" 
			},
			{
				"x": -0.9057282963,
				"y": -0.299788843,
				"z": 1.8327067511,
				"element": "C" 
			},
			{
				"x": 0.8151598058,
				"y": -1.4472064052,
				"z": -1.2477996606,
				"element": "C" 
			},
			{
				"x": 1.8951059402,
				"y": -0.896455136,
				"z": -2.5137289491,
				"element": "Cl" 
			},
			{
				"x": 0.4108874858,
				"y": -2.681232119,
				"z": -1.3138075326,
				"element": "N" 
			},
			{
				"x": 1.5056329315,
				"y": 1.2313171341,
				"z": -0.8347721131,
				"element": "H" 
			},
			{
				"x": -0.8375375349,
				"y": 1.6351910742,
				"z": 2.7509661407,
				"element": "H" 
			},
			{
				"x": -1.5742544088,
				"y": -0.7446021973,
				"z": 2.5615374623,
				"element": "H" 
			}
		],
		 "valence_orbital": [ 
			{
				"type": "occ",
				"energy": -0.3211,
				"method": "rhf"
			},
			{
				"type": "occ",
				"energy": -0.31094,
				"method": "rhf"
			},
			{
				"type": "occ",
				"energy": -0.2968,
				"method": "rhf"
			},
			{
				"type": "occ",
				"energy": -0.28838,
				"method": "rhf"
			},
			{
				"type": "occ",
				"energy": -0.26547,
				"method": "rhf"
			},
			{
				"type": "unocc",
				"energy": -0.09852,
				"method": "rhf"
			},
			{
				"type": "unocc",
				"energy": -0.06966,
				"method": "rhf"
			},
			{
				"type": "unocc",
				"energy": -0.01962,
				"method": "rhf"
			},
			{
				"type": "unocc",
				"energy": -0.01701,
				"method": "rhf"
			},
			{
				"type": "unocc",
				"energy": 0.01085,
				"method": "rhf"
			}
		],
		"cosmo_sigma_profile": { 
			"-0.025": 0.0,
			"-0.024": 0.0,
			"-0.023": 0.0,
			"-0.022": 0.0,
			"-0.021": 0.0,
			"-0.02": 0.0,
			"-0.019": 0.0,
			"-0.018": 0.0,
			"-0.017": 0.0,
			"-0.016": 0.0,
			"-0.015": 0.0,
			"-0.014": 0.0,
			"-0.013": 0.0,
			"-0.012": 0.0,
			"-0.011": 0.0,
			"-0.01": 0.0,
			"-0.009": 1.22942204058,
			"-0.008": 4.91553297176,
			"-0.007": 6.329889777,
			"-0.006": 6.99962806335,
			"-0.005": 10.2858441007,
			"-0.004": 15.6663385355,
			"-0.003": 16.7071079726,
			"-0.002": 19.3996251679,
			"-0.001": 24.3086975012,
			"0.0": 25.5581231338,
			"0.001": 20.1043631959,
			"0.002": 38.858844644,
			"0.003": 31.9040785794,
			"0.004": 11.1451177322,
			"0.005": 4.47559560693,
			"0.006": 2.69799673788,
			"0.007": 2.32170504726,
			"0.008": 2.65795927274,
			"0.009": 1.78062027677,
			"0.01": 1.62305792935,
			"0.011": 1.26318132527,
			"0.012": 0.170488650869,
			"0.013": 0.0,
			"0.014": 0.0,
			"0.015": 0.0,
			"0.016": 0.0,
			"0.017": 0.0,
			"0.018": 0.0,
			"0.019": 0.0,
			"0.02": 0.0,
			"0.021": 0.0,
			"0.022": 0.0,
			"0.023": 0.0,
			"0.024": 0.0,
			"0.025": 0.0
		}
	}
}
