{
	 "smiles": "CC(C)CC(=O)OC(=O)CC(C)C", 
	 "Tm": 208.15, 
	 "num_atms": 31, 
	 "gaussian": { 
		 "optdone": 1, 
		 "sigma_profile": "yes", 
		 "theory": "DFT", 
		 "functional": "B3LYP", 
		 "basiset": "6-31G**", 
		 "properties": { 
			 "R2extent": 4724.8439, 
			 "electric_dipole_moment_norm": 3.25970058134, 
			 "electric_quadrupole_moment_norm": 11.039030096, 
			 "total_energy": -617.627860769, 
			 "HOMO_LUMO_gap": 0.24468, 
			 "cosmo_polarized_energy": -10.01, 
			 "cosmo_cavitation_energy": 33.82, 
			 "cosmo_dispersion_energy": -23.6, 
			 "cosmo_repulsion_energy": 1.93, 
			 "cosmo_total_nonelectrostatic_energy": 12.16, 
			 "SMD_solvation_energy": 7.41 
		},
		"coords": [
			{
				"x": 2.4539052719,
				"y": -0.4945564071,
				"z": 2.7188736924,
				"element": "C" 
			},
			{
				"x": 2.1980120162,
				"y": -1.6739378604,
				"z": 1.7690550828,
				"element": "C" 
			},
			{
				"x": 2.0419876717,
				"y": -2.9886853075,
				"z": 2.5460991772,
				"element": "C" 
			},
			{
				"x": 0.9640092413,
				"y": -1.4302128391,
				"z": 0.8861684455,
				"element": "C" 
			},
			{
				"x": 1.139477953,
				"y": -0.3291472903,
				"z": -0.1341463817,
				"element": "C" 
			},
			{
				"x": 2.1644443552,
				"y": 0.2087344581,
				"z": -0.451723565,
				"element": "O" 
			},
			{
				"x": -0.1021669929,
				"y": 0.0267135364,
				"z": -0.6640151347,
				"element": "O" 
			},
			{
				"x": -0.2083497236,
				"y": 0.5494514012,
				"z": -1.954156997,
				"element": "C" 
			},
			{
				"x": 0.5586681493,
				"y": 0.2756082791,
				"z": -2.8358829423,
				"element": "O" 
			},
			{
				"x": -1.4221514373,
				"y": 1.4453446465,
				"z": -2.045251029,
				"element": "C" 
			},
			{
				"x": -1.832068772,
				"y": 1.8072614407,
				"z": -3.481470832,
				"element": "C" 
			},
			{
				"x": -2.8602836234,
				"y": 2.9471045363,
				"z": -3.4674028643,
				"element": "C" 
			},
			{
				"x": -2.3688285455,
				"y": 0.5844610055,
				"z": -4.2398717243,
				"element": "C" 
			},
			{
				"x": 3.3485967305,
				"y": -0.6719032786,
				"z": 3.3246298227,
				"element": "H" 
			},
			{
				"x": 2.6044932036,
				"y": 0.4360022039,
				"z": 2.1653916645,
				"element": "H" 
			},
			{
				"x": 1.6104143227,
				"y": -0.3553728867,
				"z": 3.4068960878,
				"element": "H" 
			},
			{
				"x": 3.0631082733,
				"y": -1.7640946137,
				"z": 1.1004451854,
				"element": "H" 
			},
			{
				"x": 1.1752412829,
				"y": -2.9513900047,
				"z": 3.2174706586,
				"element": "H" 
			},
			{
				"x": 2.9265703876,
				"y": -3.1851582711,
				"z": 3.1604776295,
				"element": "H" 
			},
			{
				"x": 1.90594813,
				"y": -3.8422319501,
				"z": 1.8726948647,
				"element": "H" 
			},
			{
				"x": 0.0759948426,
				"y": -1.2053991333,
				"z": 1.4901894873,
				"element": "H" 
			},
			{
				"x": 0.7088538871,
				"y": -2.3346863267,
				"z": 0.315546629,
				"element": "H" 
			},
			{
				"x": -2.2467597429,
				"y": 0.9692201954,
				"z": -1.5000492891,
				"element": "H" 
			},
			{
				"x": -1.1751546216,
				"y": 2.3499948301,
				"z": -1.4713051022,
				"element": "H" 
			},
			{
				"x": -0.9298991776,
				"y": 2.1571648894,
				"z": -3.9983890469,
				"element": "H" 
			},
			{
				"x": -3.7760299557,
				"y": 2.6478405803,
				"z": -2.9427771044,
				"element": "H" 
			},
			{
				"x": -2.4668135057,
				"y": 3.839977962,
				"z": -2.9689335536,
				"element": "H" 
			},
			{
				"x": -3.1419306933,
				"y": 3.230012726,
				"z": -4.4868111086,
				"element": "H" 
			},
			{
				"x": -1.6235033444,
				"y": -0.2139494758,
				"z": -4.2846317173,
				"element": "H" 
			},
			{
				"x": -2.6345675924,
				"y": 0.8519057185,
				"z": -5.2678375602,
				"element": "H" 
			},
			{
				"x": -3.2712179904,
				"y": 0.1888272356,
				"z": -3.7567824748,
				"element": "H" 
			}
		],
		 "valence_orbital": [ 
			{
				"type": "occ",
				"energy": -0.33067,
				"method": "rhf"
			},
			{
				"type": "occ",
				"energy": -0.33044,
				"method": "rhf"
			},
			{
				"type": "occ",
				"energy": -0.31779,
				"method": "rhf"
			},
			{
				"type": "occ",
				"energy": -0.29409,
				"method": "rhf"
			},
			{
				"type": "occ",
				"energy": -0.2702,
				"method": "rhf"
			},
			{
				"type": "unocc",
				"energy": -0.02552,
				"method": "rhf"
			},
			{
				"type": "unocc",
				"energy": 0.01661,
				"method": "rhf"
			},
			{
				"type": "unocc",
				"energy": 0.07953,
				"method": "rhf"
			},
			{
				"type": "unocc",
				"energy": 0.08224,
				"method": "rhf"
			},
			{
				"type": "unocc",
				"energy": 0.12326,
				"method": "rhf"
			}
		],
		"cosmo_sigma_profile": { 
			"-0.025": 0.0,
			"-0.024": 0.0,
			"-0.023": 0.0,
			"-0.022": 0.0,
			"-0.021": 0.0,
			"-0.02": 0.0,
			"-0.019": 0.0,
			"-0.018": 0.0,
			"-0.017": 0.0,
			"-0.016": 0.0,
			"-0.015": 0.0,
			"-0.014": 0.0,
			"-0.013": 0.0,
			"-0.012": 0.0,
			"-0.011": 0.0,
			"-0.01": 0.0,
			"-0.009": 0.0,
			"-0.008": 0.126833122725,
			"-0.007": 3.76352231701,
			"-0.006": 6.86960825944,
			"-0.005": 9.38915190367,
			"-0.004": 15.4202431779,
			"-0.003": 32.3459325589,
			"-0.002": 39.3993204375,
			"-0.001": 34.8487776453,
			"0.0": 30.4618957638,
			"0.001": 33.5278173467,
			"0.002": 13.2859395548,
			"0.003": 4.42448852424,
			"0.004": 4.60411957467,
			"0.005": 3.85937437633,
			"0.006": 3.23352817715,
			"0.007": 3.58059484142,
			"0.008": 3.10086026562,
			"0.009": 3.56204493468,
			"0.01": 7.30496421233,
			"0.011": 7.45630483465,
			"0.012": 1.81267312722,
			"0.013": 0.0,
			"0.014": 0.0,
			"0.015": 0.0,
			"0.016": 0.0,
			"0.017": 0.0,
			"0.018": 0.0,
			"0.019": 0.0,
			"0.02": 0.0,
			"0.021": 0.0,
			"0.022": 0.0,
			"0.023": 0.0,
			"0.024": 0.0,
			"0.025": 0.0
		}
	}
}
