{
	 "smiles": "NC1=CC=C(C=C1)C(=O)NCC1=C(F)C=CC=C1", 
	 "Tm": 369.15, 
	 "num_atms": 31, 
	 "gaussian": { 
		 "optdone": 1, 
		 "sigma_profile": "yes", 
		 "theory": "DFT", 
		 "functional": "B3LYP", 
		 "basiset": "6-31G**", 
		 "properties": { 
			 "R2extent": 5750.7353, 
			 "electric_dipole_moment_norm": 5.88243743018, 
			 "electric_quadrupole_moment_norm": 25.3121381282, 
			 "total_energy": -825.905130949, 
			 "HOMO_LUMO_gap": 0.18771, 
			 "cosmo_polarized_energy": -18.1, 
			 "cosmo_cavitation_energy": 35.89, 
			 "cosmo_dispersion_energy": -24.84, 
			 "cosmo_repulsion_energy": 1.92, 
			 "cosmo_total_nonelectrostatic_energy": 12.98, 
			 "SMD_solvation_energy": 6.04 
		},
		"coords": [
			{
				"x": 5.2023204858,
				"y": -0.6802322156,
				"z": 2.8873513011,
				"element": "N" 
			},
			{
				"x": 4.1593296724,
				"y": -0.0754193409,
				"z": 2.1976478015,
				"element": "C" 
			},
			{
				"x": 3.1108028194,
				"y": 0.5601453632,
				"z": 2.8912230971,
				"element": "C" 
			},
			{
				"x": 2.1025557514,
				"y": 1.2147830847,
				"z": 2.1986977753,
				"element": "C" 
			},
			{
				"x": 2.0795296143,
				"y": 1.2362985991,
				"z": 0.7958183968,
				"element": "C" 
			},
			{
				"x": 3.1337987109,
				"y": 0.6169503927,
				"z": 0.1070457756,
				"element": "C" 
			},
			{
				"x": 4.1588508566,
				"y": -0.0268617738,
				"z": 0.7912128647,
				"element": "C" 
			},
			{
				"x": 0.9939492283,
				"y": 2.0120035191,
				"z": 0.1222581412,
				"element": "C" 
			},
			{
				"x": 0.5281546059,
				"y": 3.0278699008,
				"z": 0.6297988064,
				"element": "O" 
			},
			{
				"x": 0.5674974153,
				"y": 1.5951380979,
				"z": -1.132457643,
				"element": "N" 
			},
			{
				"x": 0.3607866669,
				"y": 0.1983998714,
				"z": -1.5336342311,
				"element": "C" 
			},
			{
				"x": -0.9597817554,
				"y": -0.3858873595,
				"z": -1.0659645084,
				"element": "C" 
			},
			{
				"x": -2.1663184991,
				"y": 0.1298385386,
				"z": -1.5427256189,
				"element": "C" 
			},
			{
				"x": -2.110606119,
				"y": 1.1615219618,
				"z": -2.4258830711,
				"element": "F" 
			},
			{
				"x": -3.4075985342,
				"y": -0.3531762951,
				"z": -1.1567897427,
				"element": "C" 
			},
			{
				"x": -3.4547078777,
				"y": -1.4105978445,
				"z": -0.2450485373,
				"element": "C" 
			},
			{
				"x": -2.2718327743,
				"y": -1.9543936421,
				"z": 0.2574925105,
				"element": "C" 
			},
			{
				"x": -1.0382117676,
				"y": -1.4415577593,
				"z": -0.1514628943,
				"element": "C" 
			},
			{
				"x": 5.007806435,
				"y": -0.9536119581,
				"z": 3.8396739736,
				"element": "H" 
			},
			{
				"x": 5.7330172148,
				"y": -1.3725221685,
				"z": 2.3788949285,
				"element": "H" 
			},
			{
				"x": 3.1047318652,
				"y": 0.5473787522,
				"z": 3.9784560106,
				"element": "H" 
			},
			{
				"x": 1.310789161,
				"y": 1.7267512246,
				"z": 2.7358858605,
				"element": "H" 
			},
			{
				"x": 3.1731821476,
				"y": 0.6689237971,
				"z": -0.9769786204,
				"element": "H" 
			},
			{
				"x": 4.9777792653,
				"y": -0.4822571623,
				"z": 0.2397669191,
				"element": "H" 
			},
			{
				"x": -0.1580551224,
				"y": 2.2177509259,
				"z": -1.472727116,
				"element": "H" 
			},
			{
				"x": 0.4169972495,
				"y": 0.155693477,
				"z": -2.627074009,
				"element": "H" 
			},
			{
				"x": 1.1768258353,
				"y": -0.4084200203,
				"z": -1.1433814629,
				"element": "H" 
			},
			{
				"x": -4.3062799927,
				"y": 0.0955303495,
				"z": -1.5659269016,
				"element": "H" 
			},
			{
				"x": -4.4163887713,
				"y": -1.8032649427,
				"z": 0.0708528594,
				"element": "H" 
			},
			{
				"x": -2.3079820066,
				"y": -2.7741869963,
				"z": 0.9682101843,
				"element": "H" 
			},
			{
				"x": -0.1173417808,
				"y": -1.8624883765,
				"z": 0.2435671503,
				"element": "H" 
			}
		],
		 "valence_orbital": [ 
			{
				"type": "occ",
				"energy": -0.25364,
				"method": "rhf"
			},
			{
				"type": "occ",
				"energy": -0.25275,
				"method": "rhf"
			},
			{
				"type": "occ",
				"energy": -0.2433,
				"method": "rhf"
			},
			{
				"type": "occ",
				"energy": -0.23144,
				"method": "rhf"
			},
			{
				"type": "occ",
				"energy": -0.20705,
				"method": "rhf"
			},
			{
				"type": "unocc",
				"energy": -0.01934,
				"method": "rhf"
			},
			{
				"type": "unocc",
				"energy": -0.01151,
				"method": "rhf"
			},
			{
				"type": "unocc",
				"energy": -0.00386,
				"method": "rhf"
			},
			{
				"type": "unocc",
				"energy": -0.00226,
				"method": "rhf"
			},
			{
				"type": "unocc",
				"energy": 0.06132,
				"method": "rhf"
			}
		],
		"cosmo_sigma_profile": { 
			"-0.025": 0.0,
			"-0.024": 0.0,
			"-0.023": 0.0,
			"-0.022": 0.0,
			"-0.021": 0.0,
			"-0.02": 0.0,
			"-0.019": 0.0,
			"-0.018": 0.0,
			"-0.017": 0.0,
			"-0.016": 0.0,
			"-0.015": 0.0,
			"-0.014": 0.0,
			"-0.013": 1.48842592316,
			"-0.012": 2.86722931795,
			"-0.011": 2.96794014207,
			"-0.01": 3.4216051117,
			"-0.009": 3.71833440791,
			"-0.008": 3.81264317339,
			"-0.007": 6.80230517777,
			"-0.006": 16.071937656,
			"-0.005": 22.0277303727,
			"-0.004": 22.5166210275,
			"-0.003": 18.3633407742,
			"-0.002": 15.3122945768,
			"-0.001": 15.6406327881,
			"0.0": 17.8981581174,
			"0.001": 20.1088972067,
			"0.002": 19.2976576394,
			"0.003": 19.6713612334,
			"0.004": 23.6849397117,
			"0.005": 19.1874801858,
			"0.006": 5.776515117,
			"0.007": 3.16480509813,
			"0.008": 3.28050942224,
			"0.009": 1.74903564024,
			"0.01": 2.12624664616,
			"0.011": 2.3206220075,
			"0.012": 2.6578601457,
			"0.013": 4.1772905113,
			"0.014": 5.23613612248,
			"0.015": 0.837636869566,
			"0.016": 0.0,
			"0.017": 0.0,
			"0.018": 0.0,
			"0.019": 0.0,
			"0.02": 0.0,
			"0.021": 0.0,
			"0.022": 0.0,
			"0.023": 0.0,
			"0.024": 0.0,
			"0.025": 0.0
		}
	}
}
