{
	 "smiles": "OC(=O)CCCNS(=O)(=O)C1=CC(Cl)=C(Cl)C=C1", 
	 "Tm": 397.15, 
	 "num_atms": 29, 
	 "gaussian": { 
		 "optdone": 1, 
		 "sigma_profile": "yes", 
		 "theory": "DFT", 
		 "functional": "B3LYP", 
		 "basiset": "6-31G**", 
		 "properties": { 
			 "R2extent": 8295.9783, 
			 "electric_dipole_moment_norm": 3.84395585433, 
			 "electric_quadrupole_moment_norm": 19.7201410931, 
			 "total_energy": -2061.85756401, 
			 "HOMO_LUMO_gap": 0.20625, 
			 "cosmo_polarized_energy": -18.7, 
			 "cosmo_cavitation_energy": 38.77, 
			 "cosmo_dispersion_energy": -27.6, 
			 "cosmo_repulsion_energy": 2.14, 
			 "cosmo_total_nonelectrostatic_energy": 13.32, 
			 "SMD_solvation_energy": 5.69 
		},
		"coords": [
			{
				"x": 2.5049937909,
				"y": 5.2615399745,
				"z": 1.0857403032,
				"element": "O" 
			},
			{
				"x": 2.212284056,
				"y": 3.9621678452,
				"z": 1.3240114692,
				"element": "C" 
			},
			{
				"x": 2.8556871466,
				"y": 3.2809991498,
				"z": 2.0946220705,
				"element": "O" 
			},
			{
				"x": 1.0157721272,
				"y": 3.5076163813,
				"z": 0.5139119631,
				"element": "C" 
			},
			{
				"x": 0.6553089897,
				"y": 2.0330337363,
				"z": 0.716626754,
				"element": "C" 
			},
			{
				"x": 0.110773533,
				"y": 1.742051737,
				"z": 2.1185741341,
				"element": "C" 
			},
			{
				"x": -0.2305879716,
				"y": 0.3161790633,
				"z": 2.2972360006,
				"element": "N" 
			},
			{
				"x": -1.7591411865,
				"y": -0.233390995,
				"z": 1.8405197589,
				"element": "S" 
			},
			{
				"x": -2.6627765032,
				"y": 0.901330131,
				"z": 1.618733407,
				"element": "O" 
			},
			{
				"x": -2.0761351778,
				"y": -1.3057399675,
				"z": 2.7888175416,
				"element": "O" 
			},
			{
				"x": -1.4752849052,
				"y": -0.9917338588,
				"z": 0.2347199452,
				"element": "C" 
			},
			{
				"x": -2.1000628774,
				"y": -0.450020764,
				"z": -0.8838691489,
				"element": "C" 
			},
			{
				"x": -1.9125034033,
				"y": -1.0498708322,
				"z": -2.1317751165,
				"element": "C" 
			},
			{
				"x": -2.7011100461,
				"y": -0.3523695381,
				"z": -3.5215508291,
				"element": "Cl" 
			},
			{
				"x": -1.1042946209,
				"y": -2.1902751206,
				"z": -2.2418615758,
				"element": "C" 
			},
			{
				"x": -0.8396558657,
				"y": -2.9701394328,
				"z": -3.7768724359,
				"element": "Cl" 
			},
			{
				"x": -0.4925890793,
				"y": -2.7268276459,
				"z": -1.1026010076,
				"element": "C" 
			},
			{
				"x": -0.6768973505,
				"y": -2.1334537207,
				"z": 0.1401404892,
				"element": "C" 
			},
			{
				"x": 3.2771735733,
				"y": 5.4731879796,
				"z": 1.6371445059,
				"element": "H" 
			},
			{
				"x": 1.2405472968,
				"y": 3.7117409969,
				"z": -0.5394584588,
				"element": "H" 
			},
			{
				"x": 0.1730245356,
				"y": 4.1652928552,
				"z": 0.7632805502,
				"element": "H" 
			},
			{
				"x": -0.0954980819,
				"y": 1.7582224056,
				"z": -0.031615765,
				"element": "H" 
			},
			{
				"x": 1.5348461832,
				"y": 1.4062060389,
				"z": 0.5398904584,
				"element": "H" 
			},
			{
				"x": 0.8860360096,
				"y": 1.962625912,
				"z": 2.855222645,
				"element": "H" 
			},
			{
				"x": -0.7570986946,
				"y": 2.3789758293,
				"z": 2.330022152,
				"element": "H" 
			},
			{
				"x": -0.069073693,
				"y": -0.0350134361,
				"z": 3.2369871549,
				"element": "H" 
			},
			{
				"x": -2.731416417,
				"y": 0.4249114017,
				"z": -0.7837770781,
				"element": "H" 
			},
			{
				"x": 0.1236631086,
				"y": -3.6127983879,
				"z": -1.2056021053,
				"element": "H" 
			},
			{
				"x": -0.2105844766,
				"y": -2.5536477381,
				"z": 1.0239822181,
				"element": "H" 
			}
		],
		 "valence_orbital": [ 
			{
				"type": "occ",
				"energy": -0.31053,
				"method": "rhf"
			},
			{
				"type": "occ",
				"energy": -0.28897,
				"method": "rhf"
			},
			{
				"type": "occ",
				"energy": -0.2871,
				"method": "rhf"
			},
			{
				"type": "occ",
				"energy": -0.27922,
				"method": "rhf"
			},
			{
				"type": "occ",
				"energy": -0.26242,
				"method": "rhf"
			},
			{
				"type": "unocc",
				"energy": -0.05617,
				"method": "rhf"
			},
			{
				"type": "unocc",
				"energy": -0.04187,
				"method": "rhf"
			},
			{
				"type": "unocc",
				"energy": -0.01094,
				"method": "rhf"
			},
			{
				"type": "unocc",
				"energy": -0.00307,
				"method": "rhf"
			},
			{
				"type": "unocc",
				"energy": 0.04582,
				"method": "rhf"
			}
		],
		"cosmo_sigma_profile": { 
			"-0.025": 0.0,
			"-0.024": 0.0,
			"-0.023": 0.0,
			"-0.022": 0.0,
			"-0.021": 0.0,
			"-0.02": 0.0,
			"-0.019": 0.0,
			"-0.018": 0.577702562162,
			"-0.017": 1.13306471511,
			"-0.016": 0.51708081975,
			"-0.015": 1.4578353876,
			"-0.014": 1.84668600948,
			"-0.013": 1.95332979693,
			"-0.012": 1.96327942666,
			"-0.011": 1.30933230786,
			"-0.01": 1.90568928612,
			"-0.009": 3.57122993668,
			"-0.008": 6.06978117752,
			"-0.007": 8.37725926453,
			"-0.006": 13.9604659556,
			"-0.005": 12.7264460102,
			"-0.004": 19.7081876429,
			"-0.003": 23.5873982049,
			"-0.002": 23.8246685142,
			"-0.001": 31.1774199756,
			"0.0": 24.3218056274,
			"0.001": 18.8453624023,
			"0.002": 18.9545290392,
			"0.003": 22.011082082,
			"0.004": 14.7829001293,
			"0.005": 7.73893333614,
			"0.006": 5.63592912462,
			"0.007": 6.00763631843,
			"0.008": 6.13349356635,
			"0.009": 6.3788318186,
			"0.01": 11.6262809985,
			"0.011": 10.3595658167,
			"0.012": 4.08156935082,
			"0.013": 0.073991034637,
			"0.014": 0.0,
			"0.015": 0.0,
			"0.016": 0.0,
			"0.017": 0.0,
			"0.018": 0.0,
			"0.019": 0.0,
			"0.02": 0.0,
			"0.021": 0.0,
			"0.022": 0.0,
			"0.023": 0.0,
			"0.024": 0.0,
			"0.025": 0.0
		}
	}
}
