{
	 "smiles": "[O-][N+](=O)C1=C(C=C2N=CNC(=O)C2=C1)N1CCOCC1", 
	 "Tm": 583.15, 
	 "num_atms": 32, 
	 "gaussian": { 
		 "optdone": 1, 
		 "sigma_profile": "yes", 
		 "theory": "DFT", 
		 "functional": "B3LYP", 
		 "basiset": "6-31G**", 
		 "properties": { 
			 "R2extent": 6065.9138, 
			 "electric_dipole_moment_norm": 5.97054902166, 
			 "electric_quadrupole_moment_norm": 17.9179822218, 
			 "total_energy": -984.297934393, 
			 "HOMO_LUMO_gap": 0.13472, 
			 "cosmo_polarized_energy": -22.44, 
			 "cosmo_cavitation_energy": 35.03, 
			 "cosmo_dispersion_energy": -26.06, 
			 "cosmo_repulsion_energy": 1.94, 
			 "cosmo_total_nonelectrostatic_energy": 10.92, 
			 "SMD_solvation_energy": 6.72 
		},
		"coords": [
			{
				"x": 0.9458690473,
				"y": 3.1058788271,
				"z": 0.6078521873,
				"element": "O" 
			},
			{
				"x": 0.1994528487,
				"y": 2.159745111,
				"z": 0.8607201719,
				"element": "N" 
			},
			{
				"x": -0.8049223721,
				"y": 2.2388093056,
				"z": 1.5735232831,
				"element": "O" 
			},
			{
				"x": 0.5642455405,
				"y": 0.8400227438,
				"z": 0.3369476883,
				"element": "C" 
			},
			{
				"x": -0.4036734885,
				"y": -0.1784715294,
				"z": 0.0244999705,
				"element": "C" 
			},
			{
				"x": 0.1199108441,
				"y": -1.4705635265,
				"z": -0.185214447,
				"element": "C" 
			},
			{
				"x": 1.490264184,
				"y": -1.7454525531,
				"z": -0.1681313345,
				"element": "C" 
			},
			{
				"x": 1.8990092491,
				"y": -3.0546293996,
				"z": -0.4058670346,
				"element": "N" 
			},
			{
				"x": 3.1729260618,
				"y": -3.2683480866,
				"z": -0.4073490889,
				"element": "C" 
			},
			{
				"x": 4.1349242906,
				"y": -2.3167859168,
				"z": -0.1962866726,
				"element": "N" 
			},
			{
				"x": 3.8523562217,
				"y": -0.957787871,
				"z": 0.0479649261,
				"element": "C" 
			},
			{
				"x": 4.7549345845,
				"y": -0.1543874158,
				"z": 0.2259575191,
				"element": "O" 
			},
			{
				"x": 2.4148269825,
				"y": -0.6917349855,
				"z": 0.0518813424,
				"element": "C" 
			},
			{
				"x": 1.9273626114,
				"y": 0.5893729678,
				"z": 0.3055916896,
				"element": "C" 
			},
			{
				"x": -1.7566817876,
				"y": 0.0369271303,
				"z": -0.0884381718,
				"element": "N" 
			},
			{
				"x": -2.3693748584,
				"y": 1.2638222217,
				"z": -0.597437302,
				"element": "C" 
			},
			{
				"x": -3.5744618763,
				"y": 1.6463658864,
				"z": 0.2783202956,
				"element": "C" 
			},
			{
				"x": -4.2630935114,
				"y": 0.4931179509,
				"z": 0.763950437,
				"element": "O" 
			},
			{
				"x": -4.1299559849,
				"y": -0.6113401821,
				"z": -0.1035389026,
				"element": "C" 
			},
			{
				"x": -2.6712680885,
				"y": -1.1087609615,
				"z": -0.1394793439,
				"element": "C" 
			},
			{
				"x": -0.532140305,
				"y": -2.3005574423,
				"z": -0.4175372481,
				"element": "H" 
			},
			{
				"x": 3.5455249181,
				"y": -4.2752606957,
				"z": -0.5869574769,
				"element": "H" 
			},
			{
				"x": 5.116791512,
				"y": -2.5646263666,
				"z": -0.2110931565,
				"element": "H" 
			},
			{
				"x": 2.6206929725,
				"y": 1.3920052416,
				"z": 0.5263755516,
				"element": "H" 
			},
			{
				"x": -2.6897300619,
				"y": 1.0854957233,
				"z": -1.6352612279,
				"element": "H" 
			},
			{
				"x": -1.6604824842,
				"y": 2.0858461315,
				"z": -0.6345029977,
				"element": "H" 
			},
			{
				"x": -4.2570160093,
				"y": 2.2822166247,
				"z": -0.307653829,
				"element": "H" 
			},
			{
				"x": -3.2416533063,
				"y": 2.1987292833,
				"z": 1.1583994478,
				"element": "H" 
			},
			{
				"x": -4.483780911,
				"y": -0.3685982107,
				"z": -1.1183544122,
				"element": "H" 
			},
			{
				"x": -4.7739066495,
				"y": -1.4056240117,
				"z": 0.2831615176,
				"element": "H" 
			},
			{
				"x": -2.4727193653,
				"y": -1.7443635027,
				"z": 0.7295642401,
				"element": "H" 
			},
			{
				"x": -2.5221308088,
				"y": -1.7191624915,
				"z": -1.0459076216,
				"element": "H" 
			}
		],
		 "valence_orbital": [ 
			{
				"type": "occ",
				"energy": -0.28673,
				"method": "rhf"
			},
			{
				"type": "occ",
				"energy": -0.27313,
				"method": "rhf"
			},
			{
				"type": "occ",
				"energy": -0.26234,
				"method": "rhf"
			},
			{
				"type": "occ",
				"energy": -0.24749,
				"method": "rhf"
			},
			{
				"type": "occ",
				"energy": -0.22223,
				"method": "rhf"
			},
			{
				"type": "unocc",
				"energy": -0.08751,
				"method": "rhf"
			},
			{
				"type": "unocc",
				"energy": -0.04768,
				"method": "rhf"
			},
			{
				"type": "unocc",
				"energy": -0.03534,
				"method": "rhf"
			},
			{
				"type": "unocc",
				"energy": 0.01531,
				"method": "rhf"
			},
			{
				"type": "unocc",
				"energy": 0.05689,
				"method": "rhf"
			}
		],
		"cosmo_sigma_profile": { 
			"-0.025": 0.0,
			"-0.024": 0.0,
			"-0.023": 0.0,
			"-0.022": 0.0,
			"-0.021": 0.0,
			"-0.02": 0.0,
			"-0.019": 0.0,
			"-0.018": 0.0,
			"-0.017": 1.19946621315,
			"-0.016": 1.65818365264,
			"-0.015": 1.52559982537,
			"-0.014": 0.852351893167,
			"-0.013": 0.88592705611,
			"-0.012": 1.41623917027,
			"-0.011": 2.0556986406,
			"-0.01": 2.97726443002,
			"-0.009": 2.91871047276,
			"-0.008": 3.47160686226,
			"-0.007": 5.72672631657,
			"-0.006": 16.6601668745,
			"-0.005": 29.4078829559,
			"-0.004": 24.572415583,
			"-0.003": 21.7883075567,
			"-0.002": 18.0007203593,
			"-0.001": 13.3121742664,
			"0.0": 19.9492838365,
			"0.001": 13.5499380854,
			"0.002": 11.0793199471,
			"0.003": 7.10313790813,
			"0.004": 7.71321038002,
			"0.005": 7.44943567756,
			"0.006": 7.21621216601,
			"0.007": 9.800118068,
			"0.008": 12.2868765193,
			"0.009": 8.75915138577,
			"0.01": 6.0171822166,
			"0.011": 5.39056520446,
			"0.012": 7.17158080026,
			"0.013": 5.24565259578,
			"0.014": 1.33573021527,
			"0.015": 0.380221616093,
			"0.016": 0.0,
			"0.017": 0.0,
			"0.018": 0.0,
			"0.019": 0.0,
			"0.02": 0.0,
			"0.021": 0.0,
			"0.022": 0.0,
			"0.023": 0.0,
			"0.024": 0.0,
			"0.025": 0.0
		}
	}
}
