{
	 "smiles": "CC(=O)C1=CC=CC=C1C(C)=O", 
	 "Tm": 313.15, 
	 "num_atms": 22, 
	 "gaussian": { 
		 "optdone": 1, 
		 "sigma_profile": "yes", 
		 "theory": "DFT", 
		 "functional": "B3LYP", 
		 "basiset": "6-31G**", 
		 "properties": { 
			 "R2extent": 2204.9986, 
			 "electric_dipole_moment_norm": 4.98583372767, 
			 "electric_quadrupole_moment_norm": 11.1585107263, 
			 "total_energy": -537.535825251, 
			 "HOMO_LUMO_gap": 0.16939, 
			 "cosmo_polarized_energy": -13.24, 
			 "cosmo_cavitation_energy": 25.95, 
			 "cosmo_dispersion_energy": -18.46, 
			 "cosmo_repulsion_energy": 1.48, 
			 "cosmo_total_nonelectrostatic_energy": 8.97, 
			 "SMD_solvation_energy": 5.74 
		},
		"coords": [
			{
				"x": 2.8042897131,
				"y": -0.092010344,
				"z": -0.5936247141,
				"element": "C" 
			},
			{
				"x": 1.7422973724,
				"y": -0.1366835066,
				"z": 0.4891633386,
				"element": "C" 
			},
			{
				"x": 1.9922891476,
				"y": -0.5015865389,
				"z": 1.6223965907,
				"element": "O" 
			},
			{
				"x": 0.2943181741,
				"y": 0.0625665334,
				"z": 0.0735419801,
				"element": "C" 
			},
			{
				"x": -0.5221929743,
				"y": -1.0720537876,
				"z": 0.1062161697,
				"element": "C" 
			},
			{
				"x": -1.8616389867,
				"y": -1.0041115734,
				"z": -0.2787380202,
				"element": "C" 
			},
			{
				"x": -2.4092514157,
				"y": 0.2126457841,
				"z": -0.6868161397,
				"element": "C" 
			},
			{
				"x": -1.6134510091,
				"y": 1.3556866836,
				"z": -0.6970106872,
				"element": "C" 
			},
			{
				"x": -0.2626461253,
				"y": 1.3007942426,
				"z": -0.3177379624,
				"element": "C" 
			},
			{
				"x": 0.5794211357,
				"y": 2.5341217304,
				"z": -0.255832538,
				"element": "C" 
			},
			{
				"x": 0.0104562182,
				"y": 3.85428119,
				"z": -0.7457169244,
				"element": "C" 
			},
			{
				"x": 1.7161712162,
				"y": 2.4839051268,
				"z": 0.1953301462,
				"element": "O" 
			},
			{
				"x": 2.8506085538,
				"y": -1.0851739004,
				"z": -1.0597657834,
				"element": "H" 
			},
			{
				"x": 2.5856666976,
				"y": 0.6391917404,
				"z": -1.3724095418,
				"element": "H" 
			},
			{
				"x": 3.7741822055,
				"y": 0.1201466394,
				"z": -0.1406534161,
				"element": "H" 
			},
			{
				"x": -0.0977858996,
				"y": -2.0152058032,
				"z": 0.4369545375,
				"element": "H" 
			},
			{
				"x": -2.4768331778,
				"y": -1.8989268438,
				"z": -0.2537426218,
				"element": "H" 
			},
			{
				"x": -3.4519494732,
				"y": 0.2737494621,
				"z": -0.9831869042,
				"element": "H" 
			},
			{
				"x": -2.0528121235,
				"y": 2.3035198457,
				"z": -0.9894395956,
				"element": "H" 
			},
			{
				"x": 0.7870997899,
				"y": 4.615257594,
				"z": -0.667094001,
				"element": "H" 
			},
			{
				"x": -0.3297640923,
				"y": 3.7819995493,
				"z": -1.7841356341,
				"element": "H" 
			},
			{
				"x": -0.8498749465,
				"y": 4.156686176,
				"z": -0.1384982787,
				"element": "H" 
			}
		],
		 "valence_orbital": [ 
			{
				"type": "occ",
				"energy": -0.34066,
				"method": "rhf"
			},
			{
				"type": "occ",
				"energy": -0.27105,
				"method": "rhf"
			},
			{
				"type": "occ",
				"energy": -0.26857,
				"method": "rhf"
			},
			{
				"type": "occ",
				"energy": -0.25829,
				"method": "rhf"
			},
			{
				"type": "occ",
				"energy": -0.23691,
				"method": "rhf"
			},
			{
				"type": "unocc",
				"energy": -0.06752,
				"method": "rhf"
			},
			{
				"type": "unocc",
				"energy": -0.02629,
				"method": "rhf"
			},
			{
				"type": "unocc",
				"energy": 0.00662,
				"method": "rhf"
			},
			{
				"type": "unocc",
				"energy": 0.03066,
				"method": "rhf"
			},
			{
				"type": "unocc",
				"energy": 0.08081,
				"method": "rhf"
			}
		],
		"cosmo_sigma_profile": { 
			"-0.025": 0.0,
			"-0.024": 0.0,
			"-0.023": 0.0,
			"-0.022": 0.0,
			"-0.021": 0.0,
			"-0.02": 0.0,
			"-0.019": 0.0,
			"-0.018": 0.0,
			"-0.017": 0.0,
			"-0.016": 0.0,
			"-0.015": 0.0,
			"-0.014": 0.0,
			"-0.013": 0.0,
			"-0.012": 0.0,
			"-0.011": 0.0,
			"-0.01": 0.0,
			"-0.009": 0.0,
			"-0.008": 0.0991080362124,
			"-0.007": 8.04733070624,
			"-0.006": 19.2990117248,
			"-0.005": 20.5793989052,
			"-0.004": 18.0660494982,
			"-0.003": 15.8917103986,
			"-0.002": 16.5481347728,
			"-0.001": 18.8698508651,
			"0.0": 11.8080574562,
			"0.001": 9.83921600398,
			"0.002": 11.010155418,
			"0.003": 13.3548831615,
			"0.004": 5.94308200812,
			"0.005": 2.39189097047,
			"0.006": 3.59324974988,
			"0.007": 3.53341647339,
			"0.008": 3.51778041572,
			"0.009": 4.18490785385,
			"0.01": 4.53036957557,
			"0.011": 5.50299260462,
			"0.012": 6.33883549789,
			"0.013": 3.29496126579,
			"0.014": 0.140761276768,
			"0.015": 0.0,
			"0.016": 0.0,
			"0.017": 0.0,
			"0.018": 0.0,
			"0.019": 0.0,
			"0.02": 0.0,
			"0.021": 0.0,
			"0.022": 0.0,
			"0.023": 0.0,
			"0.024": 0.0,
			"0.025": 0.0
		}
	}
}
