{
	 "smiles": "CC(C)CCNC1=C(N)N(CC2=CC=CC=C2)C(=O)NC1=O", 
	 "Tm": 477.15, 
	 "num_atms": 44, 
	 "gaussian": { 
		 "optdone": 1, 
		 "sigma_profile": "yes", 
		 "theory": "DFT", 
		 "functional": "B3LYP", 
		 "basiset": "6-31G**", 
		 "properties": { 
			 "R2extent": 9155.2489, 
			 "electric_dipole_moment_norm": 4.79572794266, 
			 "electric_quadrupole_moment_norm": 10.0956129997, 
			 "total_energy": -992.476704871, 
			 "HOMO_LUMO_gap": 0.18729, 
			 "cosmo_polarized_energy": -17.48, 
			 "cosmo_cavitation_energy": 45.91, 
			 "cosmo_dispersion_energy": -31.48, 
			 "cosmo_repulsion_energy": 2.41, 
			 "cosmo_total_nonelectrostatic_energy": 16.84, 
			 "SMD_solvation_energy": 8.13 
		},
		"coords": [
			{
				"x": 3.7643381892,
				"y": 3.2720241326,
				"z": 1.3824017712,
				"element": "C" 
			},
			{
				"x": 3.5744585097,
				"y": 2.476478068,
				"z": 2.6829132813,
				"element": "C" 
			},
			{
				"x": 4.1799728014,
				"y": 3.234531132,
				"z": 3.8735194102,
				"element": "C" 
			},
			{
				"x": 4.1705077108,
				"y": 1.0571607437,
				"z": 2.5953099065,
				"element": "C" 
			},
			{
				"x": 3.5726291485,
				"y": 0.1377829114,
				"z": 1.5264563186,
				"element": "C" 
			},
			{
				"x": 2.1201958878,
				"y": -0.0642222884,
				"z": 1.7380259335,
				"element": "N" 
			},
			{
				"x": 1.5082018169,
				"y": -0.9216538697,
				"z": 0.7758417603,
				"element": "C" 
			},
			{
				"x": 0.7451034227,
				"y": -0.3606781706,
				"z": -0.2234433492,
				"element": "C" 
			},
			{
				"x": 0.6139062794,
				"y": 1.0039153365,
				"z": -0.3235253721,
				"element": "N" 
			},
			{
				"x": 0.1322240433,
				"y": -1.1389729794,
				"z": -1.1981468313,
				"element": "N" 
			},
			{
				"x": -0.5356191224,
				"y": -0.5255523983,
				"z": -2.3614070299,
				"element": "C" 
			},
			{
				"x": -1.9260957333,
				"y": 0.0108273201,
				"z": -2.0709201838,
				"element": "C" 
			},
			{
				"x": -2.9214034755,
				"y": -0.8356124714,
				"z": -1.5602346001,
				"element": "C" 
			},
			{
				"x": -4.2013540451,
				"y": -0.3448593054,
				"z": -1.3100027975,
				"element": "C" 
			},
			{
				"x": -4.5077509132,
				"y": 0.9945836246,
				"z": -1.5705170268,
				"element": "C" 
			},
			{
				"x": -3.5276927442,
				"y": 1.8403411877,
				"z": -2.0878847099,
				"element": "C" 
			},
			{
				"x": -2.2424899892,
				"y": 1.3489199225,
				"z": -2.3361662186,
				"element": "C" 
			},
			{
				"x": 0.1839171242,
				"y": -2.5412453361,
				"z": -1.1579826451,
				"element": "C" 
			},
			{
				"x": -0.3940417277,
				"y": -3.2413990795,
				"z": -1.9794532185,
				"element": "O" 
			},
			{
				"x": 0.9335898905,
				"y": -3.0581390334,
				"z": -0.1275239148,
				"element": "N" 
			},
			{
				"x": 1.638902769,
				"y": -2.352355244,
				"z": 0.8731017651,
				"element": "C" 
			},
			{
				"x": 2.2541885749,
				"y": -2.9645623997,
				"z": 1.7418197375,
				"element": "O" 
			},
			{
				"x": 3.2683952953,
				"y": 2.7969022378,
				"z": 0.5298121942,
				"element": "H" 
			},
			{
				"x": 4.8287856959,
				"y": 3.3706936512,
				"z": 1.1347159299,
				"element": "H" 
			},
			{
				"x": 3.3540823544,
				"y": 4.2833267306,
				"z": 1.47958664,
				"element": "H" 
			},
			{
				"x": 2.4958940962,
				"y": 2.370885077,
				"z": 2.860794419,
				"element": "H" 
			},
			{
				"x": 3.7354404572,
				"y": 4.2302326057,
				"z": 3.9792864111,
				"element": "H" 
			},
			{
				"x": 5.2616482532,
				"y": 3.3670451767,
				"z": 3.7460872167,
				"element": "H" 
			},
			{
				"x": 4.0211688448,
				"y": 2.6955470571,
				"z": 4.8141320745,
				"element": "H" 
			},
			{
				"x": 5.2520535603,
				"y": 1.1298466416,
				"z": 2.4132526091,
				"element": "H" 
			},
			{
				"x": 4.0651143145,
				"y": 0.5680643622,
				"z": 3.5746810948,
				"element": "H" 
			},
			{
				"x": 3.7016980507,
				"y": 0.5712029811,
				"z": 0.5287044864,
				"element": "H" 
			},
			{
				"x": 4.109490838,
				"y": -0.8216840755,
				"z": 1.5319463937,
				"element": "H" 
			},
			{
				"x": 1.996452061,
				"y": -0.4823673363,
				"z": 2.6590585902,
				"element": "H" 
			},
			{
				"x": -0.2879332876,
				"y": 1.3451538772,
				"z": -0.6330775763,
				"element": "H" 
			},
			{
				"x": 0.9567990832,
				"y": 1.4403735426,
				"z": 0.5288909038,
				"element": "H" 
			},
			{
				"x": 0.1110012279,
				"y": 0.2715193592,
				"z": -2.7382957194,
				"element": "H" 
			},
			{
				"x": -0.5880045218,
				"y": -1.3167898364,
				"z": -3.1110565281,
				"element": "H" 
			},
			{
				"x": -2.6874591407,
				"y": -1.8801833172,
				"z": -1.3765071979,
				"element": "H" 
			},
			{
				"x": -4.9649554126,
				"y": -1.0095034793,
				"z": -0.9162605743,
				"element": "H" 
			},
			{
				"x": -5.5067219536,
				"y": 1.3730082293,
				"z": -1.3746196225,
				"element": "H" 
			},
			{
				"x": -3.7586571428,
				"y": 2.8803659254,
				"z": -2.2995536831,
				"element": "H" 
			},
			{
				"x": -1.4834763177,
				"y": 2.0090549283,
				"z": -2.7518255587,
				"element": "H" 
			},
			{
				"x": 0.9753952264,
				"y": -4.0687061412,
				"z": -0.0831344896,
				"element": "H" 
			}
		],
		 "valence_orbital": [ 
			{
				"type": "occ",
				"energy": -0.26483,
				"method": "rhf"
			},
			{
				"type": "occ",
				"energy": -0.26059,
				"method": "rhf"
			},
			{
				"type": "occ",
				"energy": -0.25517,
				"method": "rhf"
			},
			{
				"type": "occ",
				"energy": -0.24365,
				"method": "rhf"
			},
			{
				"type": "occ",
				"energy": -0.20766,
				"method": "rhf"
			},
			{
				"type": "unocc",
				"energy": -0.02037,
				"method": "rhf"
			},
			{
				"type": "unocc",
				"energy": -0.0176,
				"method": "rhf"
			},
			{
				"type": "unocc",
				"energy": -0.01044,
				"method": "rhf"
			},
			{
				"type": "unocc",
				"energy": 0.01957,
				"method": "rhf"
			},
			{
				"type": "unocc",
				"energy": 0.06726,
				"method": "rhf"
			}
		],
		"cosmo_sigma_profile": { 
			"-0.025": 0.0,
			"-0.024": 0.0,
			"-0.023": 0.0,
			"-0.022": 0.0,
			"-0.021": 0.0,
			"-0.02": 0.0,
			"-0.019": 0.0,
			"-0.018": 0.0,
			"-0.017": 0.0,
			"-0.016": 0.147884084398,
			"-0.015": 0.698211492069,
			"-0.014": 0.933792194204,
			"-0.013": 0.727349186075,
			"-0.012": 1.05219920407,
			"-0.011": 0.615540353393,
			"-0.01": 1.99582468101,
			"-0.009": 4.04119046235,
			"-0.008": 4.48633842319,
			"-0.007": 6.58613337862,
			"-0.006": 12.7980119524,
			"-0.005": 15.6678299444,
			"-0.004": 22.2821508417,
			"-0.003": 26.9662291166,
			"-0.002": 39.0707591562,
			"-0.001": 45.5465655651,
			"0.0": 39.2616527476,
			"0.001": 36.7550782235,
			"0.002": 23.5604060886,
			"0.003": 13.9581738084,
			"0.004": 12.1350869743,
			"0.005": 12.9527400264,
			"0.006": 5.43069533542,
			"0.007": 3.24251271998,
			"0.008": 3.00214040317,
			"0.009": 3.02304163781,
			"0.01": 3.29043198102,
			"0.011": 3.03711177528,
			"0.012": 4.93851594806,
			"0.013": 6.53512059022,
			"0.014": 5.18045261521,
			"0.015": 0.64185359809,
			"0.016": 0.0,
			"0.017": 0.0,
			"0.018": 0.0,
			"0.019": 0.0,
			"0.02": 0.0,
			"0.021": 0.0,
			"0.022": 0.0,
			"0.023": 0.0,
			"0.024": 0.0,
			"0.025": 0.0
		}
	}
}
