{
	 "smiles": "[O-][N+](=O)C1=C(Br)C=CC(=C1)C(=O)N1CCOCC1", 
	 "Tm": 388.15, 
	 "num_atms": 29, 
	 "gaussian": { 
		 "optdone": 1, 
		 "sigma_profile": "yes", 
		 "theory": "DFT", 
		 "functional": "B3LYP", 
		 "basiset": "6-31G**", 
		 "properties": { 
			 "R2extent": 8828.5319, 
			 "electric_dipole_moment_norm": 2.91995736441, 
			 "electric_quadrupole_moment_norm": 14.5883555057, 
			 "total_energy": -3407.47658231, 
			 "HOMO_LUMO_gap": 0.15689, 
			 "cosmo_polarized_energy": -16.21, 
			 "cosmo_cavitation_energy": 35.16, 
			 "cosmo_dispersion_energy": -25.72, 
			 "cosmo_repulsion_energy": 1.99, 
			 "cosmo_total_nonelectrostatic_energy": 11.42, 
			 "SMD_solvation_energy": 6.67 
		},
		"coords": [
			{
				"x": -2.1985577414,
				"y": -1.3475624471,
				"z": -2.0054809943,
				"element": "O" 
			},
			{
				"x": -1.9924566056,
				"y": -0.484462377,
				"z": -2.8603164395,
				"element": "N" 
			},
			{
				"x": -2.5651323348,
				"y": -0.411313095,
				"z": -3.94111214,
				"element": "O" 
			},
			{
				"x": -0.9977302554,
				"y": 0.5517336248,
				"z": -2.5239544681,
				"element": "C" 
			},
			{
				"x": -0.2143548338,
				"y": 1.2131327748,
				"z": -3.4793208172,
				"element": "C" 
			},
			{
				"x": -0.2096588869,
				"y": 0.8093995468,
				"z": -5.3316472382,
				"element": "Br" 
			},
			{
				"x": 0.668215773,
				"y": 2.2074042968,
				"z": -3.0419081004,
				"element": "C" 
			},
			{
				"x": 0.7566298351,
				"y": 2.5391130928,
				"z": -1.6958724962,
				"element": "C" 
			},
			{
				"x": 0.0008626853,
				"y": 1.851086956,
				"z": -0.7356879519,
				"element": "C" 
			},
			{
				"x": -0.8781673832,
				"y": 0.8592733991,
				"z": -1.1665474423,
				"element": "C" 
			},
			{
				"x": 0.0988028855,
				"y": 2.3225234785,
				"z": 0.6930702456,
				"element": "C" 
			},
			{
				"x": 0.2503081436,
				"y": 3.5220989117,
				"z": 0.9200932847,
				"element": "O" 
			},
			{
				"x": -0.0114338756,
				"y": 1.4108185178,
				"z": 1.7103198153,
				"element": "N" 
			},
			{
				"x": 0.0159985691,
				"y": 1.9547044221,
				"z": 3.0780917651,
				"element": "C" 
			},
			{
				"x": -0.3998238769,
				"y": 0.8721296678,
				"z": 4.0655430498,
				"element": "C" 
			},
			{
				"x": 0.4511838367,
				"y": -0.2726253173,
				"z": 4.0327368837,
				"element": "O" 
			},
			{
				"x": 1.045023605,
				"y": -0.5298882414,
				"z": 2.7662005807,
				"element": "C" 
			},
			{
				"x": 0.187654785,
				"y": -0.0422159417,
				"z": 1.5984565899,
				"element": "C" 
			},
			{
				"x": 1.2809962854,
				"y": 2.7197623831,
				"z": -3.7742700275,
				"element": "H" 
			},
			{
				"x": 1.4097359378,
				"y": 3.3409262159,
				"z": -1.3690513288,
				"element": "H" 
			},
			{
				"x": -1.5084674423,
				"y": 0.3168753433,
				"z": -0.4740072419,
				"element": "H" 
			},
			{
				"x": 1.0178226983,
				"y": 2.333685429,
				"z": 3.3188627527,
				"element": "H" 
			},
			{
				"x": -0.6659838113,
				"y": 2.8071284957,
				"z": 3.1310627496,
				"element": "H" 
			},
			{
				"x": -1.4409951013,
				"y": 0.5739573942,
				"z": 3.8670012213,
				"element": "H" 
			},
			{
				"x": -0.3579957581,
				"y": 1.2687103968,
				"z": 5.0846248429,
				"element": "H" 
			},
			{
				"x": 1.1839500741,
				"y": -1.6134789079,
				"z": 2.6909007805,
				"element": "H" 
			},
			{
				"x": 2.0382869877,
				"y": -0.0582686518,
				"z": 2.7059074736,
				"element": "H" 
			},
			{
				"x": 0.6906434006,
				"y": -0.2784795872,
				"z": 0.6585820769,
				"element": "H" 
			},
			{
				"x": -0.7726575956,
				"y": -0.5749697806,
				"z": 1.6060225742,
				"element": "H" 
			}
		],
		 "valence_orbital": [ 
			{
				"type": "occ",
				"energy": -0.28533,
				"method": "rhf"
			},
			{
				"type": "occ",
				"energy": -0.27617,
				"method": "rhf"
			},
			{
				"type": "occ",
				"energy": -0.26924,
				"method": "rhf"
			},
			{
				"type": "occ",
				"energy": -0.25967,
				"method": "rhf"
			},
			{
				"type": "occ",
				"energy": -0.25451,
				"method": "rhf"
			},
			{
				"type": "unocc",
				"energy": -0.09762,
				"method": "rhf"
			},
			{
				"type": "unocc",
				"energy": -0.06077,
				"method": "rhf"
			},
			{
				"type": "unocc",
				"energy": -0.02615,
				"method": "rhf"
			},
			{
				"type": "unocc",
				"energy": -0.01654,
				"method": "rhf"
			},
			{
				"type": "unocc",
				"energy": 0.03018,
				"method": "rhf"
			}
		],
		"cosmo_sigma_profile": { 
			"-0.025": 0.0,
			"-0.024": 0.0,
			"-0.023": 0.0,
			"-0.022": 0.0,
			"-0.021": 0.0,
			"-0.02": 0.0,
			"-0.019": 0.0,
			"-0.018": 0.0,
			"-0.017": 0.0,
			"-0.016": 0.0,
			"-0.015": 0.0,
			"-0.014": 0.0,
			"-0.013": 0.0,
			"-0.012": 0.0,
			"-0.011": 0.0,
			"-0.01": 0.0,
			"-0.009": 0.817347269889,
			"-0.008": 5.53682912565,
			"-0.007": 10.1135951867,
			"-0.006": 17.5471314839,
			"-0.005": 30.4286671673,
			"-0.004": 29.666567432,
			"-0.003": 21.2696599365,
			"-0.002": 21.7469938407,
			"-0.001": 21.167634519,
			"0.0": 17.957529873,
			"0.001": 13.3462269758,
			"0.002": 10.3040082453,
			"0.003": 14.9264058745,
			"0.004": 6.46262317959,
			"0.005": 6.83705798891,
			"0.006": 7.25220785047,
			"0.007": 13.397664498,
			"0.008": 10.4635574761,
			"0.009": 5.67278423699,
			"0.01": 2.84972701274,
			"0.011": 2.58868960279,
			"0.012": 3.83750546407,
			"0.013": 6.21012032564,
			"0.014": 2.20808984441,
			"0.015": 0.0,
			"0.016": 0.0,
			"0.017": 0.0,
			"0.018": 0.0,
			"0.019": 0.0,
			"0.02": 0.0,
			"0.021": 0.0,
			"0.022": 0.0,
			"0.023": 0.0,
			"0.024": 0.0,
			"0.025": 0.0
		}
	}
}
