{
	 "smiles": "NC1=CC(Cl)=C(F)C=C1", 
	 "Tm": 318.95, 
	 "num_atms": 14, 
	 "gaussian": { 
		 "optdone": 1, 
		 "sigma_profile": "yes", 
		 "theory": "DFT", 
		 "functional": "B3LYP", 
		 "basiset": "6-31G**", 
		 "properties": { 
			 "R2extent": 2092.1947, 
			 "electric_dipole_moment_norm": 3.99970582293, 
			 "electric_quadrupole_moment_norm": 7.79078540007, 
			 "total_energy": -846.427734834, 
			 "HOMO_LUMO_gap": 0.19306, 
			 "cosmo_polarized_energy": -8.89, 
			 "cosmo_cavitation_energy": 20.39, 
			 "cosmo_dispersion_energy": -15.33, 
			 "cosmo_repulsion_energy": 1.24, 
			 "cosmo_total_nonelectrostatic_energy": 6.3, 
			 "SMD_solvation_energy": 3.73 
		},
		"coords": [
			{
				"x": 1.2396794041,
				"y": 1.650176511,
				"z": 0.9295309361,
				"element": "N" 
			},
			{
				"x": 0.4001879561,
				"y": 0.5397393709,
				"z": 0.8072768592,
				"element": "C" 
			},
			{
				"x": -0.7767481501,
				"y": 0.4502037018,
				"z": 1.5687672773,
				"element": "C" 
			},
			{
				"x": -1.643443775,
				"y": -0.6273249543,
				"z": 1.4017606129,
				"element": "C" 
			},
			{
				"x": -3.1045022169,
				"y": -0.7345541927,
				"z": 2.3562063686,
				"element": "Cl" 
			},
			{
				"x": -1.3507203317,
				"y": -1.6285373777,
				"z": 0.4765056323,
				"element": "C" 
			},
			{
				"x": -2.1867091801,
				"y": -2.6713985408,
				"z": 0.3169867739,
				"element": "F" 
			},
			{
				"x": -0.1893687805,
				"y": -1.5513735583,
				"z": -0.2824698334,
				"element": "C" 
			},
			{
				"x": 0.6814317044,
				"y": -0.4775595797,
				"z": -0.1213496394,
				"element": "C" 
			},
			{
				"x": 2.1985546528,
				"y": 1.490912796,
				"z": 0.6519257314,
				"element": "H" 
			},
			{
				"x": 1.1852709645,
				"y": 2.1329206284,
				"z": 1.8160233663,
				"element": "H" 
			},
			{
				"x": -1.0255354237,
				"y": 1.2215794937,
				"z": 2.2903498673,
				"element": "H" 
			},
			{
				"x": 0.0199732817,
				"y": -2.3421943958,
				"z": -0.9950336393,
				"element": "H" 
			},
			{
				"x": 1.5843298943,
				"y": -0.4226899026,
				"z": -0.7228803131,
				"element": "H" 
			}
		],
		 "valence_orbital": [ 
			{
				"type": "occ",
				"energy": -0.35194,
				"method": "rhf"
			},
			{
				"type": "occ",
				"energy": -0.31247,
				"method": "rhf"
			},
			{
				"type": "occ",
				"energy": -0.30188,
				"method": "rhf"
			},
			{
				"type": "occ",
				"energy": -0.25259,
				"method": "rhf"
			},
			{
				"type": "occ",
				"energy": -0.20985,
				"method": "rhf"
			},
			{
				"type": "unocc",
				"energy": -0.01679,
				"method": "rhf"
			},
			{
				"type": "unocc",
				"energy": 0.01032,
				"method": "rhf"
			},
			{
				"type": "unocc",
				"energy": 0.027,
				"method": "rhf"
			},
			{
				"type": "unocc",
				"energy": 0.07152,
				"method": "rhf"
			},
			{
				"type": "unocc",
				"energy": 0.10537,
				"method": "rhf"
			}
		],
		"cosmo_sigma_profile": { 
			"-0.025": 0.0,
			"-0.024": 0.0,
			"-0.023": 0.0,
			"-0.022": 0.0,
			"-0.021": 0.0,
			"-0.02": 0.0,
			"-0.019": 0.0,
			"-0.018": 0.0,
			"-0.017": 0.0,
			"-0.016": 0.0,
			"-0.015": 0.0,
			"-0.014": 0.0,
			"-0.013": 1.06274936933,
			"-0.012": 3.31709212625,
			"-0.011": 2.65880997614,
			"-0.01": 3.34617521003,
			"-0.009": 4.06114103654,
			"-0.008": 4.18633814001,
			"-0.007": 5.96002514692,
			"-0.006": 5.46431829165,
			"-0.005": 6.28587982003,
			"-0.004": 5.61894723988,
			"-0.003": 4.97608894011,
			"-0.002": 5.69537358287,
			"-0.001": 6.61432991072,
			"0.0": 9.20530188262,
			"0.001": 15.1370899438,
			"0.002": 16.6673198966,
			"0.003": 17.8127729406,
			"0.004": 26.1817551567,
			"0.005": 12.9422619016,
			"0.006": 2.4996498321,
			"0.007": 0.697424400435,
			"0.008": 0.693190891082,
			"0.009": 1.11861332562,
			"0.01": 0.776909926647,
			"0.011": 0.533658808038,
			"0.012": 0.367261254624,
			"0.013": 0.61027287952,
			"0.014": 0.796789870425,
			"0.015": 0.0477978451118,
			"0.016": 0.0,
			"0.017": 0.0,
			"0.018": 0.0,
			"0.019": 0.0,
			"0.02": 0.0,
			"0.021": 0.0,
			"0.022": 0.0,
			"0.023": 0.0,
			"0.024": 0.0,
			"0.025": 0.0
		}
	}
}
