{
	 "smiles": "CCOC(=O)CCC(N[P+]([O-])(OC)C(C)NC(=O)CCCCN1C(=O)C2=CC=CC=C2C1=O)C(=O)OCC", 
	 "Tm": 354.15, 
	 "num_atms": 74, 
	 "gaussian": { 
		 "optdone": 1, 
		 "sigma_profile": "yes", 
		 "theory": "DFT", 
		 "functional": "B3LYP", 
		 "basiset": "6-31G**", 
		 "properties": { 
			 "R2extent": 20489.823, 
			 "electric_dipole_moment_norm": 5.58667872264, 
			 "electric_quadrupole_moment_norm": 38.9367049126, 
			 "total_energy": -2157.13589193, 
			 "HOMO_LUMO_gap": 0.14339, 
			 "cosmo_polarized_energy": -33.77, 
			 "cosmo_cavitation_energy": 78.2, 
			 "cosmo_dispersion_energy": -43.99, 
			 "cosmo_repulsion_energy": 3.26, 
			 "cosmo_total_nonelectrostatic_energy": 37.48, 
			 "SMD_solvation_energy": 16.3 
		},
		"coords": [
			{
				"x": -0.7206629357,
				"y": 1.4767572687,
				"z": -5.6756097122,
				"element": "C" 
			},
			{
				"x": -1.9383071191,
				"y": 0.9005330645,
				"z": -4.9689543155,
				"element": "C" 
			},
			{
				"x": -1.6170287705,
				"y": 0.4816025736,
				"z": -3.6197856551,
				"element": "O" 
			},
			{
				"x": -1.1123224731,
				"y": -0.7748234713,
				"z": -3.483427244,
				"element": "C" 
			},
			{
				"x": -0.927806063,
				"y": -1.5253315028,
				"z": -4.4160708398,
				"element": "O" 
			},
			{
				"x": -0.8438125335,
				"y": -1.0870694775,
				"z": -2.0276758943,
				"element": "C" 
			},
			{
				"x": -0.0352237615,
				"y": -2.3726138383,
				"z": -1.8394902675,
				"element": "C" 
			},
			{
				"x": 0.3576215764,
				"y": -2.6440051355,
				"z": -0.3708650951,
				"element": "C" 
			},
			{
				"x": 1.2432357944,
				"y": -1.6420781329,
				"z": 0.2162835352,
				"element": "N" 
			},
			{
				"x": 2.9077322971,
				"y": -1.6880536291,
				"z": 0.0108926032,
				"element": "P" 
			},
			{
				"x": 3.526193868,
				"y": -1.4835461459,
				"z": -1.3313179271,
				"element": "O" 
			},
			{
				"x": 3.1885819749,
				"y": -3.1677874493,
				"z": 0.6384073492,
				"element": "O" 
			},
			{
				"x": 4.4023276661,
				"y": -3.8553505962,
				"z": 0.2869852332,
				"element": "C" 
			},
			{
				"x": 3.4826643158,
				"y": -0.4550148334,
				"z": 1.257664723,
				"element": "C" 
			},
			{
				"x": 3.4633557225,
				"y": 0.9723392346,
				"z": 0.680078463,
				"element": "C" 
			},
			{
				"x": 2.6984485128,
				"y": -0.5860018615,
				"z": 2.4817043567,
				"element": "N" 
			},
			{
				"x": 3.086472614,
				"y": -0.0116380436,
				"z": 3.6567736128,
				"element": "C" 
			},
			{
				"x": 4.1459121264,
				"y": 0.5957175538,
				"z": 3.7837816815,
				"element": "O" 
			},
			{
				"x": 2.077491595,
				"y": -0.1163462377,
				"z": 4.7978313176,
				"element": "C" 
			},
			{
				"x": 1.5442454277,
				"y": 1.2804880262,
				"z": 5.1811201252,
				"element": "C" 
			},
			{
				"x": 0.8289761727,
				"y": 2.0405541797,
				"z": 4.0509196249,
				"element": "C" 
			},
			{
				"x": -0.4490035434,
				"y": 1.3477837149,
				"z": 3.5578548568,
				"element": "C" 
			},
			{
				"x": -1.1271392004,
				"y": 2.0864206005,
				"z": 2.4948991601,
				"element": "N" 
			},
			{
				"x": -2.0205602344,
				"y": 3.1527020846,
				"z": 2.7361580175,
				"element": "C" 
			},
			{
				"x": -2.3175500651,
				"y": 3.5712868073,
				"z": 3.835770083,
				"element": "O" 
			},
			{
				"x": -2.4915112022,
				"y": 3.5953571744,
				"z": 1.391559131,
				"element": "C" 
			},
			{
				"x": -3.3848454138,
				"y": 4.5959329255,
				"z": 1.0408714015,
				"element": "C" 
			},
			{
				"x": -3.6550750162,
				"y": 4.7664915636,
				"z": -0.324160524,
				"element": "C" 
			},
			{
				"x": -3.0506274363,
				"y": 3.9504158163,
				"z": -1.2881943798,
				"element": "C" 
			},
			{
				"x": -2.148242855,
				"y": 2.9396328732,
				"z": -0.9261379092,
				"element": "C" 
			},
			{
				"x": -1.8807895715,
				"y": 2.7879763891,
				"z": 0.4275779392,
				"element": "C" 
			},
			{
				"x": -0.988239617,
				"y": 1.8239451431,
				"z": 1.1324648774,
				"element": "C" 
			},
			{
				"x": -0.2688914812,
				"y": 0.9618732297,
				"z": 0.6483009495,
				"element": "O" 
			},
			{
				"x": -0.8835178112,
				"y": -2.9075558235,
				"z": 0.4931303016,
				"element": "C" 
			},
			{
				"x": -1.8609714419,
				"y": -3.4896081169,
				"z": 0.0696271358,
				"element": "O" 
			},
			{
				"x": -0.7605237109,
				"y": -2.4800168211,
				"z": 1.767095531,
				"element": "O" 
			},
			{
				"x": -1.8647655777,
				"y": -2.804820009,
				"z": 2.6520234147,
				"element": "C" 
			},
			{
				"x": -3.0053884936,
				"y": -1.8061784644,
				"z": 2.5284421134,
				"element": "C" 
			},
			{
				"x": 0.0440074041,
				"y": 0.7078329157,
				"z": -5.8081781065,
				"element": "H" 
			},
			{
				"x": -1.0065131431,
				"y": 1.850995442,
				"z": -6.6644161046,
				"element": "H" 
			},
			{
				"x": -0.2920639323,
				"y": 2.3063515403,
				"z": -5.1052114729,
				"element": "H" 
			},
			{
				"x": -2.3415226317,
				"y": 0.0449875397,
				"z": -5.5155577926,
				"element": "H" 
			},
			{
				"x": -2.7229516148,
				"y": 1.6512886122,
				"z": -4.8430281465,
				"element": "H" 
			},
			{
				"x": -0.3473468992,
				"y": -0.2200319291,
				"z": -1.5816396161,
				"element": "H" 
			},
			{
				"x": -1.8181245933,
				"y": -1.1666193464,
				"z": -1.5279888877,
				"element": "H" 
			},
			{
				"x": 0.8886022989,
				"y": -2.3160003482,
				"z": -2.4220468667,
				"element": "H" 
			},
			{
				"x": -0.6093944969,
				"y": -3.2232685305,
				"z": -2.2136435127,
				"element": "H" 
			},
			{
				"x": 0.9045413905,
				"y": -3.5949841961,
				"z": -0.3472284297,
				"element": "H" 
			},
			{
				"x": 0.8356353799,
				"y": -0.7137069113,
				"z": 0.303420618,
				"element": "H" 
			},
			{
				"x": 4.6569232245,
				"y": -3.6836663561,
				"z": -0.7614735161,
				"element": "H" 
			},
			{
				"x": 4.2229554588,
				"y": -4.9177511155,
				"z": 0.4624621966,
				"element": "H" 
			},
			{
				"x": 5.2270574795,
				"y": -3.5196612498,
				"z": 0.9252248029,
				"element": "H" 
			},
			{
				"x": 4.5238054071,
				"y": -0.7173290463,
				"z": 1.4851386046,
				"element": "H" 
			},
			{
				"x": 3.8910247855,
				"y": 1.6549983907,
				"z": 1.4174507951,
				"element": "H" 
			},
			{
				"x": 4.0549567282,
				"y": 1.0143066022,
				"z": -0.237431431,
				"element": "H" 
			},
			{
				"x": 2.4416317689,
				"y": 1.2916615695,
				"z": 0.4520035897,
				"element": "H" 
			},
			{
				"x": 1.8247707619,
				"y": -1.0929920199,
				"z": 2.4249228523,
				"element": "H" 
			},
			{
				"x": 1.258845704,
				"y": -0.8003954856,
				"z": 4.5458612717,
				"element": "H" 
			},
			{
				"x": 2.600069532,
				"y": -0.5426215748,
				"z": 5.6603411333,
				"element": "H" 
			},
			{
				"x": 2.3977344739,
				"y": 1.8808686423,
				"z": 5.51121382,
				"element": "H" 
			},
			{
				"x": 0.8721942984,
				"y": 1.1806915985,
				"z": 6.0429299911,
				"element": "H" 
			},
			{
				"x": 1.5112798309,
				"y": 2.1779118234,
				"z": 3.2044744476,
				"element": "H" 
			},
			{
				"x": 0.5608820142,
				"y": 3.0402647218,
				"z": 4.4097818729,
				"element": "H" 
			},
			{
				"x": -1.1626700436,
				"y": 1.2420412321,
				"z": 4.3810088273,
				"element": "H" 
			},
			{
				"x": -0.2352910664,
				"y": 0.3566516716,
				"z": 3.1519787383,
				"element": "H" 
			},
			{
				"x": -3.8537495561,
				"y": 5.2161759941,
				"z": 1.7977874021,
				"element": "H" 
			},
			{
				"x": -4.34827686,
				"y": 5.5401242352,
				"z": -0.6404078823,
				"element": "H" 
			},
			{
				"x": -3.2882367268,
				"y": 4.1025125863,
				"z": -2.3367073863,
				"element": "H" 
			},
			{
				"x": -1.6953035433,
				"y": 2.2938026579,
				"z": -1.6722774076,
				"element": "H" 
			},
			{
				"x": -1.4207459553,
				"y": -2.7864097105,
				"z": 3.6502516721,
				"element": "H" 
			},
			{
				"x": -2.2066799552,
				"y": -3.8175791973,
				"z": 2.4264256729,
				"element": "H" 
			},
			{
				"x": -3.451478502,
				"y": -1.8544900835,
				"z": 1.5328275145,
				"element": "H" 
			},
			{
				"x": -2.6582378032,
				"y": -0.7855503219,
				"z": 2.7143726599,
				"element": "H" 
			},
			{
				"x": -3.7815839535,
				"y": -2.0414809863,
				"z": 3.2642303017,
				"element": "H" 
			}
		],
		 "valence_orbital": [ 
			{
				"type": "occ",
				"energy": -0.27475,
				"method": "rhf"
			},
			{
				"type": "occ",
				"energy": -0.27004,
				"method": "rhf"
			},
			{
				"type": "occ",
				"energy": -0.25132,
				"method": "rhf"
			},
			{
				"type": "occ",
				"energy": -0.24999,
				"method": "rhf"
			},
			{
				"type": "occ",
				"energy": -0.24031,
				"method": "rhf"
			},
			{
				"type": "unocc",
				"energy": -0.09692,
				"method": "rhf"
			},
			{
				"type": "unocc",
				"energy": -0.05114,
				"method": "rhf"
			},
			{
				"type": "unocc",
				"energy": 0.00063,
				"method": "rhf"
			},
			{
				"type": "unocc",
				"energy": 0.01487,
				"method": "rhf"
			},
			{
				"type": "unocc",
				"energy": 0.0158,
				"method": "rhf"
			}
		],
		"cosmo_sigma_profile": { 
			"-0.025": 0.0,
			"-0.024": 0.0,
			"-0.023": 0.0,
			"-0.022": 0.0,
			"-0.021": 0.0,
			"-0.02": 0.0,
			"-0.019": 0.0,
			"-0.018": 0.0,
			"-0.017": 0.0,
			"-0.016": 0.0,
			"-0.015": 0.0,
			"-0.014": 0.0,
			"-0.013": 0.0,
			"-0.012": 0.0,
			"-0.011": 0.0,
			"-0.01": 0.0579358686253,
			"-0.009": 0.8166505046,
			"-0.008": 4.48950915952,
			"-0.007": 13.0668121088,
			"-0.006": 22.1252152533,
			"-0.005": 39.2101117244,
			"-0.004": 59.2056534388,
			"-0.003": 74.3454478637,
			"-0.002": 64.4037344035,
			"-0.001": 66.7211474825,
			"0.0": 63.067267747,
			"0.001": 43.4625126032,
			"0.002": 34.6862974519,
			"0.003": 18.3762559765,
			"0.004": 12.4536456971,
			"0.005": 11.4776799122,
			"0.006": 10.2781733272,
			"0.007": 9.19760345481,
			"0.008": 8.0780934714,
			"0.009": 7.56091404093,
			"0.01": 9.22223528169,
			"0.011": 12.241257814,
			"0.012": 10.9194726618,
			"0.013": 4.47999439788,
			"0.014": 6.95559412633,
			"0.015": 5.57420496714,
			"0.016": 0.295638906158,
			"0.017": 0.0,
			"0.018": 0.0,
			"0.019": 0.0,
			"0.02": 0.0,
			"0.021": 0.0,
			"0.022": 0.0,
			"0.023": 0.0,
			"0.024": 0.0,
			"0.025": 0.0
		}
	}
}
