{
	 "smiles": "CCC1=NN=C(CO)N1C", 
	 "Tm": 315.15, 
	 "num_atms": 21, 
	 "gaussian": { 
		 "optdone": 1, 
		 "sigma_profile": "yes", 
		 "theory": "DFT", 
		 "functional": "B3LYP", 
		 "basiset": "6-31G**", 
		 "properties": { 
			 "R2extent": 2037.3472, 
			 "electric_dipole_moment_norm": 4.43048688182, 
			 "electric_quadrupole_moment_norm": 11.3400111459, 
			 "total_energy": -474.724869376, 
			 "HOMO_LUMO_gap": 0.25149, 
			 "cosmo_polarized_energy": -17.93, 
			 "cosmo_cavitation_energy": 24.07, 
			 "cosmo_dispersion_energy": -17.39, 
			 "cosmo_repulsion_energy": 1.43, 
			 "cosmo_total_nonelectrostatic_energy": 8.12, 
			 "SMD_solvation_energy": 2.22 
		},
		"coords": [
			{
				"x": 2.2100083149,
				"y": -2.193559485,
				"z": 2.7490715327,
				"element": "C" 
			},
			{
				"x": 2.3666182283,
				"y": -1.4481076845,
				"z": 1.410221491,
				"element": "C" 
			},
			{
				"x": 1.4123710487,
				"y": -0.3058009081,
				"z": 1.2475428494,
				"element": "C" 
			},
			{
				"x": 1.6894788408,
				"y": 0.9513959899,
				"z": 1.5249751133,
				"element": "N" 
			},
			{
				"x": 0.5520095217,
				"y": 1.6933042265,
				"z": 1.290713813,
				"element": "N" 
			},
			{
				"x": -0.3797859295,
				"y": 0.867876506,
				"z": 0.8687429156,
				"element": "C" 
			},
			{
				"x": -1.774867629,
				"y": 1.2634507973,
				"z": 0.5007497968,
				"element": "C" 
			},
			{
				"x": -2.7708425852,
				"y": 0.5950056809,
				"z": 1.2778361714,
				"element": "O" 
			},
			{
				"x": 0.1062778285,
				"y": -0.4186932074,
				"z": 0.8311280944,
				"element": "N" 
			},
			{
				"x": -0.6081131106,
				"y": -1.6096143082,
				"z": 0.3885201919,
				"element": "C" 
			},
			{
				"x": 2.9505580661,
				"y": -2.9951017617,
				"z": 2.831415298,
				"element": "H" 
			},
			{
				"x": 2.3539359749,
				"y": -1.5052755747,
				"z": 3.5864853333,
				"element": "H" 
			},
			{
				"x": 1.2169127151,
				"y": -2.643605851,
				"z": 2.8533623646,
				"element": "H" 
			},
			{
				"x": 3.3720364699,
				"y": -1.0232539639,
				"z": 1.3458798197,
				"element": "H" 
			},
			{
				"x": 2.263066563,
				"y": -2.1501985352,
				"z": 0.5738337672,
				"element": "H" 
			},
			{
				"x": -1.8346754616,
				"y": 2.3546222465,
				"z": 0.5925240993,
				"element": "H" 
			},
			{
				"x": -2.0000437726,
				"y": 1.002154606,
				"z": -0.539049993,
				"element": "H" 
			},
			{
				"x": -2.6313625943,
				"y": 0.8468126684,
				"z": 2.2009375966,
				"element": "H" 
			},
			{
				"x": -1.6690664974,
				"y": -1.4767560934,
				"z": 0.6038068851,
				"element": "H" 
			},
			{
				"x": -0.2431672172,
				"y": -2.4831031272,
				"z": 0.9313073844,
				"element": "H" 
			},
			{
				"x": -0.4697487744,
				"y": -1.7787522213,
				"z": -0.6848045248,
				"element": "H" 
			}
		],
		 "valence_orbital": [ 
			{
				"type": "occ",
				"energy": -0.30011,
				"method": "rhf"
			},
			{
				"type": "occ",
				"energy": -0.28754,
				"method": "rhf"
			},
			{
				"type": "occ",
				"energy": -0.28104,
				"method": "rhf"
			},
			{
				"type": "occ",
				"energy": -0.24378,
				"method": "rhf"
			},
			{
				"type": "occ",
				"energy": -0.24294,
				"method": "rhf"
			},
			{
				"type": "unocc",
				"energy": 0.00855,
				"method": "rhf"
			},
			{
				"type": "unocc",
				"energy": 0.0444,
				"method": "rhf"
			},
			{
				"type": "unocc",
				"energy": 0.07011,
				"method": "rhf"
			},
			{
				"type": "unocc",
				"energy": 0.09052,
				"method": "rhf"
			},
			{
				"type": "unocc",
				"energy": 0.11984,
				"method": "rhf"
			}
		],
		"cosmo_sigma_profile": { 
			"-0.025": 0.0,
			"-0.024": 0.0,
			"-0.023": 0.0,
			"-0.022": 0.0,
			"-0.021": 0.0,
			"-0.02": 0.0,
			"-0.019": 0.0,
			"-0.018": 0.0,
			"-0.017": 0.146149455784,
			"-0.016": 0.840970887739,
			"-0.015": 0.800534862612,
			"-0.014": 1.57574232767,
			"-0.013": 0.49040238033,
			"-0.012": 0.73957335224,
			"-0.011": 0.829915060194,
			"-0.01": 0.82906574228,
			"-0.009": 0.675045165757,
			"-0.008": 0.941507179736,
			"-0.007": 4.42274918079,
			"-0.006": 13.6108247481,
			"-0.005": 18.3519503132,
			"-0.004": 19.0633326965,
			"-0.003": 21.2159961856,
			"-0.002": 16.8152500567,
			"-0.001": 15.1821904168,
			"0.0": 14.2939112145,
			"0.001": 8.17231775852,
			"0.002": 4.03224829241,
			"0.003": 2.70872903452,
			"0.004": 3.26250986005,
			"0.005": 3.26639293112,
			"0.006": 3.10301971169,
			"0.007": 1.98848797527,
			"0.008": 2.84452101485,
			"0.009": 2.52150634646,
			"0.01": 2.78968880115,
			"0.011": 3.54666140258,
			"0.012": 3.07397014771,
			"0.013": 3.76420254897,
			"0.014": 4.08088272228,
			"0.015": 2.72341259416,
			"0.016": 3.0983465674,
			"0.017": 2.35390646299,
			"0.018": 0.840014827268,
			"0.019": 0.0,
			"0.02": 0.0,
			"0.021": 0.0,
			"0.022": 0.0,
			"0.023": 0.0,
			"0.024": 0.0,
			"0.025": 0.0
		}
	}
}
