{
	 "smiles": "C[C@@H]1[C@@H]2C[C@H](OC(C)=O)[C@@H]3C([C@@H]2OC(C)=O)([C@@H](C[C@@H]2C(C)(C)CC[C@@H](OC(C)=O)[C@@]32C=O)OC(C)=O)C1=O", 
	 "Tm": 524.15, 
	 "num_atms": 76, 
	 "gaussian": { 
		 "optdone": 1, 
		 "sigma_profile": "yes", 
		 "theory": "DFT", 
		 "functional": "B3LYP", 
		 "basiset": "6-31G**", 
		 "properties": { 
			 "R2extent": 15877.335, 
			 "electric_dipole_moment_norm": 3.71214142376, 
			 "electric_quadrupole_moment_norm": 24.6049655125, 
			 "total_energy": -1842.15318188, 
			 "HOMO_LUMO_gap": 0.21584, 
			 "cosmo_polarized_energy": -24.64, 
			 "cosmo_cavitation_energy": 67.63, 
			 "cosmo_dispersion_energy": -40.59, 
			 "cosmo_repulsion_energy": 2.94, 
			 "cosmo_total_nonelectrostatic_energy": 29.98, 
			 "SMD_solvation_energy": 14.85 
		},
		"coords": [
			{
				"x": 2.6245300803,
				"y": -1.7649946538,
				"z": 2.5869951249,
				"element": "C" 
			},
			{
				"x": 2.0339137506,
				"y": -0.3565833013,
				"z": 2.7017149976,
				"element": "C" 
			},
			{
				"x": 0.5222279857,
				"y": -0.2040019081,
				"z": 3.033709595,
				"element": "C" 
			},
			{
				"x": -0.4284869953,
				"y": -1.2353357317,
				"z": 2.4129152765,
				"element": "C" 
			},
			{
				"x": -0.6221264362,
				"y": -1.1324554839,
				"z": 0.8760481624,
				"element": "C" 
			},
			{
				"x": -0.192056442,
				"y": -2.3906562573,
				"z": 0.2621787651,
				"element": "O" 
			},
			{
				"x": -1.0475521334,
				"y": -3.4316826671,
				"z": 0.3396495057,
				"element": "C" 
			},
			{
				"x": -0.5298637365,
				"y": -4.6151185436,
				"z": -0.4428903894,
				"element": "C" 
			},
			{
				"x": -2.0976254465,
				"y": -3.4036658408,
				"z": 0.9478642014,
				"element": "O" 
			},
			{
				"x": 0.2123597475,
				"y": -0.0617636674,
				"z": 0.1146091632,
				"element": "C" 
			},
			{
				"x": 0.8541200439,
				"y": 1.0831712528,
				"z": 1.0390321244,
				"element": "C" 
			},
			{
				"x": 0.1662918812,
				"y": 1.1545346023,
				"z": 2.4178520076,
				"element": "C" 
			},
			{
				"x": 0.8339449368,
				"y": 2.200214766,
				"z": 3.1702310822,
				"element": "O" 
			},
			{
				"x": 0.0774510094,
				"y": 3.0309188637,
				"z": 3.9358438156,
				"element": "C" 
			},
			{
				"x": 0.9427270903,
				"y": 4.0706435395,
				"z": 4.6021228323,
				"element": "C" 
			},
			{
				"x": -1.1284560612,
				"y": 2.9527081384,
				"z": 4.0265719877,
				"element": "O" 
			},
			{
				"x": 1.0126138422,
				"y": 2.4763896644,
				"z": 0.3887425121,
				"element": "C" 
			},
			{
				"x": 1.3719908437,
				"y": 2.479962689,
				"z": -1.1009570045,
				"element": "C" 
			},
			{
				"x": 0.8614339019,
				"y": 1.2497905581,
				"z": -1.8778044733,
				"element": "C" 
			},
			{
				"x": 0.8378982492,
				"y": 1.4165379868,
				"z": -3.4308681483,
				"element": "C" 
			},
			{
				"x": 2.2006913443,
				"y": 1.9804608015,
				"z": -3.8934264268,
				"element": "C" 
			},
			{
				"x": -0.252319579,
				"y": 2.3830689759,
				"z": -3.9455929947,
				"element": "C" 
			},
			{
				"x": 0.6741122162,
				"y": -0.0114352376,
				"z": -4.0647989083,
				"element": "C" 
			},
			{
				"x": 0.0415491468,
				"y": -1.0659110557,
				"z": -3.1281737094,
				"element": "C" 
			},
			{
				"x": -1.0160542337,
				"y": -0.3879645863,
				"z": -2.265583854,
				"element": "C" 
			},
			{
				"x": -1.9368616802,
				"y": -1.3462465664,
				"z": -1.7072976677,
				"element": "O" 
			},
			{
				"x": -3.2473215026,
				"y": -1.2379351561,
				"z": -2.0957321308,
				"element": "C" 
			},
			{
				"x": -4.0864313581,
				"y": -2.3251228785,
				"z": -1.4790783487,
				"element": "C" 
			},
			{
				"x": -3.65066883,
				"y": -0.3887917304,
				"z": -2.8583390174,
				"element": "O" 
			},
			{
				"x": -0.3950802858,
				"y": 0.5733003133,
				"z": -1.1878053812,
				"element": "C" 
			},
			{
				"x": -1.5912328206,
				"y": 1.476381352,
				"z": -0.862725818,
				"element": "C" 
			},
			{
				"x": -2.3828968882,
				"y": 1.2307648237,
				"z": 0.0233202038,
				"element": "O" 
			},
			{
				"x": -0.2520977845,
				"y": 3.1778747625,
				"z": 0.5572798082,
				"element": "O" 
			},
			{
				"x": -0.2295526899,
				"y": 4.459027378,
				"z": 1.0103628319,
				"element": "C" 
			},
			{
				"x": -1.6318265612,
				"y": 4.9800471783,
				"z": 1.1967250535,
				"element": "C" 
			},
			{
				"x": 0.7893652596,
				"y": 5.0658518579,
				"z": 1.2643742234,
				"element": "O" 
			},
			{
				"x": 2.2183437204,
				"y": 0.4779240579,
				"z": 1.4263239438,
				"element": "C" 
			},
			{
				"x": 3.2526919529,
				"y": 0.6135992073,
				"z": 0.8063613151,
				"element": "O" 
			},
			{
				"x": 2.554370268,
				"y": -2.2992420147,
				"z": 3.5398668514,
				"element": "H" 
			},
			{
				"x": 2.1115185989,
				"y": -2.3588909726,
				"z": 1.8249439184,
				"element": "H" 
			},
			{
				"x": 3.6794681082,
				"y": -1.6969087693,
				"z": 2.3075193447,
				"element": "H" 
			},
			{
				"x": 2.5955539282,
				"y": 0.189693204,
				"z": 3.4716169932,
				"element": "H" 
			},
			{
				"x": 0.3625074854,
				"y": -0.1919095987,
				"z": 4.1161941313,
				"element": "H" 
			},
			{
				"x": -0.1054818574,
				"y": -2.2494626731,
				"z": 2.6583602636,
				"element": "H" 
			},
			{
				"x": -1.4089305367,
				"y": -1.1095339691,
				"z": 2.8817647556,
				"element": "H" 
			},
			{
				"x": -1.6775747624,
				"y": -1.0081772533,
				"z": 0.662136661,
				"element": "H" 
			},
			{
				"x": -1.0966297204,
				"y": -5.5063938643,
				"z": -0.1742965876,
				"element": "H" 
			},
			{
				"x": -0.6561601738,
				"y": -4.4143322999,
				"z": -1.5118895153,
				"element": "H" 
			},
			{
				"x": 0.5361055071,
				"y": -4.7702069375,
				"z": -0.2597808619,
				"element": "H" 
			},
			{
				"x": 1.0639754434,
				"y": -0.6420670601,
				"z": -0.2515020757,
				"element": "H" 
			},
			{
				"x": -0.9021047542,
				"y": 1.361415794,
				"z": 2.3802966992,
				"element": "H" 
			},
			{
				"x": 0.3783878054,
				"y": 4.5567709853,
				"z": 5.3977496539,
				"element": "H" 
			},
			{
				"x": 1.2287150181,
				"y": 4.8132287037,
				"z": 3.8498384081,
				"element": "H" 
			},
			{
				"x": 1.8579080189,
				"y": 3.6236293973,
				"z": 4.9969309005,
				"element": "H" 
			},
			{
				"x": 1.7614903227,
				"y": 3.0377586642,
				"z": 0.9463231093,
				"element": "H" 
			},
			{
				"x": 0.9923215667,
				"y": 3.4166522002,
				"z": -1.5214919786,
				"element": "H" 
			},
			{
				"x": 2.4606223608,
				"y": 2.5152998285,
				"z": -1.1827582063,
				"element": "H" 
			},
			{
				"x": 1.6441494092,
				"y": 0.4960743337,
				"z": -1.7339119015,
				"element": "H" 
			},
			{
				"x": 2.2652190148,
				"y": 1.9470255664,
				"z": -4.9865247912,
				"element": "H" 
			},
			{
				"x": 2.3427135709,
				"y": 3.021956915,
				"z": -3.5896726505,
				"element": "H" 
			},
			{
				"x": 3.0344945647,
				"y": 1.3929256362,
				"z": -3.4927156425,
				"element": "H" 
			},
			{
				"x": -1.2704511177,
				"y": 2.0161903432,
				"z": -3.7946734211,
				"element": "H" 
			},
			{
				"x": -0.1763760463,
				"y": 3.3651967163,
				"z": -3.4661671937,
				"element": "H" 
			},
			{
				"x": -0.1279169017,
				"y": 2.5407449547,
				"z": -5.0226849608,
				"element": "H" 
			},
			{
				"x": 1.6534353321,
				"y": -0.3781344987,
				"z": -4.3906064281,
				"element": "H" 
			},
			{
				"x": 0.0637321134,
				"y": 0.0749357555,
				"z": -4.9712250594,
				"element": "H" 
			},
			{
				"x": -0.4379947385,
				"y": -1.8520413463,
				"z": -3.7201168394,
				"element": "H" 
			},
			{
				"x": 0.7933298353,
				"y": -1.558275668,
				"z": -2.5019249303,
				"element": "H" 
			},
			{
				"x": -1.6188701653,
				"y": 0.2350603471,
				"z": -2.9296840521,
				"element": "H" 
			},
			{
				"x": -3.8671306403,
				"y": -3.2755546606,
				"z": -1.9780892007,
				"element": "H" 
			},
			{
				"x": -5.1394129227,
				"y": -2.0841287569,
				"z": -1.6221003171,
				"element": "H" 
			},
			{
				"x": -3.8503971034,
				"y": -2.455313991,
				"z": -0.4214962269,
				"element": "H" 
			},
			{
				"x": -1.769366532,
				"y": 2.3159477,
				"z": -1.5634008698,
				"element": "H" 
			},
			{
				"x": -2.0136024831,
				"y": 4.5953816777,
				"z": 2.1485280259,
				"element": "H" 
			},
			{
				"x": -2.2953352464,
				"y": 4.6230980606,
				"z": 0.4066993469,
				"element": "H" 
			},
			{
				"x": -1.6145281077,
				"y": 6.0695800473,
				"z": 1.2285903866,
				"element": "H" 
			}
		],
		 "valence_orbital": [ 
			{
				"type": "occ",
				"energy": -0.27765,
				"method": "rhf"
			},
			{
				"type": "occ",
				"energy": -0.27547,
				"method": "rhf"
			},
			{
				"type": "occ",
				"energy": -0.27327,
				"method": "rhf"
			},
			{
				"type": "occ",
				"energy": -0.24839,
				"method": "rhf"
			},
			{
				"type": "occ",
				"energy": -0.24558,
				"method": "rhf"
			},
			{
				"type": "unocc",
				"energy": -0.02974,
				"method": "rhf"
			},
			{
				"type": "unocc",
				"energy": -0.02297,
				"method": "rhf"
			},
			{
				"type": "unocc",
				"energy": -0.00146,
				"method": "rhf"
			},
			{
				"type": "unocc",
				"energy": 0.00403,
				"method": "rhf"
			},
			{
				"type": "unocc",
				"energy": 0.01072,
				"method": "rhf"
			}
		],
		"cosmo_sigma_profile": { 
			"-0.025": 0.0,
			"-0.024": 0.0,
			"-0.023": 0.0,
			"-0.022": 0.0,
			"-0.021": 0.0,
			"-0.02": 0.0,
			"-0.019": 0.0,
			"-0.018": 0.0,
			"-0.017": 0.0,
			"-0.016": 0.0,
			"-0.015": 0.0,
			"-0.014": 0.0,
			"-0.013": 0.0,
			"-0.012": 0.0,
			"-0.011": 0.0,
			"-0.01": 0.0,
			"-0.009": 0.00125022373451,
			"-0.008": 0.285375997569,
			"-0.007": 2.31923383661,
			"-0.006": 16.1661239356,
			"-0.005": 32.3020936773,
			"-0.004": 55.4998565916,
			"-0.003": 75.6334677602,
			"-0.002": 77.017223134,
			"-0.001": 59.0137572685,
			"0.0": 39.743941845,
			"0.001": 31.6174053628,
			"0.002": 20.6416085262,
			"0.003": 15.6544087754,
			"0.004": 12.4917279853,
			"0.005": 11.8011465959,
			"0.006": 9.85527318491,
			"0.007": 7.62496202008,
			"0.008": 8.17572700205,
			"0.009": 8.19861166576,
			"0.01": 12.1542196239,
			"0.011": 15.0042889133,
			"0.012": 12.6263771032,
			"0.013": 1.94761713123,
			"0.014": 0.0,
			"0.015": 0.0,
			"0.016": 0.0,
			"0.017": 0.0,
			"0.018": 0.0,
			"0.019": 0.0,
			"0.02": 0.0,
			"0.021": 0.0,
			"0.022": 0.0,
			"0.023": 0.0,
			"0.024": 0.0,
			"0.025": 0.0
		}
	}
}
