{
	 "smiles": "COC1=CC=C(C=C1)C(=O)NC1=CC=C(C=C1)C1=CC2=NN(N=C2C=C1)C1=CC=CC=C1", 
	 "Tm": 515.15, 
	 "num_atms": 52, 
	 "gaussian": { 
		 "optdone": 1, 
		 "sigma_profile": "yes", 
		 "theory": "DFT", 
		 "functional": "B3LYP", 
		 "basiset": "6-31G**", 
		 "properties": { 
			 "R2extent": 26915.185, 
			 "electric_dipole_moment_norm": 4.54201743061, 
			 "electric_quadrupole_moment_norm": 16.1830109559, 
			 "total_energy": -1372.25795164, 
			 "HOMO_LUMO_gap": 0.14069, 
			 "cosmo_polarized_energy": -18.95, 
			 "cosmo_cavitation_energy": 57.55, 
			 "cosmo_dispersion_energy": -41.1, 
			 "cosmo_repulsion_energy": 3.02, 
			 "cosmo_total_nonelectrostatic_energy": 19.47, 
			 "SMD_solvation_energy": 8.72 
		},
		"coords": [
			{
				"x": 2.6388577563,
				"y": -0.6364711879,
				"z": 5.9923806049,
				"element": "C" 
			},
			{
				"x": 1.4298137672,
				"y": -0.1688002315,
				"z": 6.5731601042,
				"element": "O" 
			},
			{
				"x": 0.6217186252,
				"y": 0.6353840412,
				"z": 5.8313206042,
				"element": "C" 
			},
			{
				"x": 0.8942592596,
				"y": 1.0442539365,
				"z": 4.5186547991,
				"element": "C" 
			},
			{
				"x": -0.015888343,
				"y": 1.8615867015,
				"z": 3.8480777648,
				"element": "C" 
			},
			{
				"x": -1.1959651402,
				"y": 2.2890555649,
				"z": 4.4674119406,
				"element": "C" 
			},
			{
				"x": -1.4401684462,
				"y": 1.8955954109,
				"z": 5.7952872543,
				"element": "C" 
			},
			{
				"x": -0.554550396,
				"y": 1.0689862148,
				"z": 6.4664837678,
				"element": "C" 
			},
			{
				"x": -2.1582058636,
				"y": 3.2437641147,
				"z": 3.8419018449,
				"element": "C" 
			},
			{
				"x": -2.7947063157,
				"y": 4.044518327,
				"z": 4.5191813625,
				"element": "O" 
			},
			{
				"x": -2.2816504358,
				"y": 3.284344595,
				"z": 2.4564614483,
				"element": "N" 
			},
			{
				"x": -2.1261027142,
				"y": 2.2769113921,
				"z": 1.4759726159,
				"element": "C" 
			},
			{
				"x": -2.3041375275,
				"y": 0.9129234992,
				"z": 1.7500727933,
				"element": "C" 
			},
			{
				"x": -2.1659051958,
				"y": -0.0288205589,
				"z": 0.7350068277,
				"element": "C" 
			},
			{
				"x": -1.8745403416,
				"y": 0.3472019471,
				"z": -0.5875196433,
				"element": "C" 
			},
			{
				"x": -1.7266763431,
				"y": 1.7191962388,
				"z": -0.8526036564,
				"element": "C" 
			},
			{
				"x": -1.8396443884,
				"y": 2.6667337446,
				"z": 0.1592403617,
				"element": "C" 
			},
			{
				"x": -1.7279768847,
				"y": -0.6638116544,
				"z": -1.6645503154,
				"element": "C" 
			},
			{
				"x": -0.7738110528,
				"y": -0.5051032146,
				"z": -2.6577418937,
				"element": "C" 
			},
			{
				"x": -0.6861491546,
				"y": -1.4980117677,
				"z": -3.6577474754,
				"element": "C" 
			},
			{
				"x": 0.1400192121,
				"y": -1.5958343607,
				"z": -4.7202062354,
				"element": "N" 
			},
			{
				"x": -0.2402788507,
				"y": -2.7420142933,
				"z": -5.2903087041,
				"element": "N" 
			},
			{
				"x": -1.2363289836,
				"y": -3.4136466068,
				"z": -4.7072888348,
				"element": "N" 
			},
			{
				"x": -1.5447762086,
				"y": -2.6370865268,
				"z": -3.6500419676,
				"element": "C" 
			},
			{
				"x": -2.517705621,
				"y": -2.7973127083,
				"z": -2.6359181287,
				"element": "C" 
			},
			{
				"x": -2.5893133911,
				"y": -1.8174565681,
				"z": -1.6741092247,
				"element": "C" 
			},
			{
				"x": 0.3903506975,
				"y": -3.2282362803,
				"z": -6.4725034382,
				"element": "C" 
			},
			{
				"x": -0.0434687289,
				"y": -4.4314344209,
				"z": -7.037123331,
				"element": "C" 
			},
			{
				"x": 0.5791179439,
				"y": -4.8983693079,
				"z": -8.1928485621,
				"element": "C" 
			},
			{
				"x": 1.6209503359,
				"y": -4.176482722,
				"z": -8.7796701866,
				"element": "C" 
			},
			{
				"x": 2.0419759551,
				"y": -2.9762613782,
				"z": -8.2026123026,
				"element": "C" 
			},
			{
				"x": 1.4317051424,
				"y": -2.4932026068,
				"z": -7.0469072657,
				"element": "C" 
			},
			{
				"x": 2.4490699727,
				"y": -1.2426837706,
				"z": 5.0976947635,
				"element": "H" 
			},
			{
				"x": 3.308002523,
				"y": 0.1925965583,
				"z": 5.7300789284,
				"element": "H" 
			},
			{
				"x": 3.1164318865,
				"y": -1.2566803403,
				"z": 6.7521016137,
				"element": "H" 
			},
			{
				"x": 1.8042733487,
				"y": 0.739570039,
				"z": 4.0161551953,
				"element": "H" 
			},
			{
				"x": 0.2121837466,
				"y": 2.1778211631,
				"z": 2.8360412849,
				"element": "H" 
			},
			{
				"x": -2.3361972969,
				"y": 2.2597480446,
				"z": 6.2865130306,
				"element": "H" 
			},
			{
				"x": -0.7394953903,
				"y": 0.7495687325,
				"z": 7.4867195733,
				"element": "H" 
			},
			{
				"x": -2.8187727478,
				"y": 4.0951827257,
				"z": 2.1717697419,
				"element": "H" 
			},
			{
				"x": -2.5468509375,
				"y": 0.5903694874,
				"z": 2.7557935259,
				"element": "H" 
			},
			{
				"x": -2.2804107701,
				"y": -1.080438574,
				"z": 0.9801381085,
				"element": "H" 
			},
			{
				"x": -1.5349051478,
				"y": 2.0499684833,
				"z": -1.868795671,
				"element": "H" 
			},
			{
				"x": -1.7116878716,
				"y": 3.7218430378,
				"z": -0.0671892852,
				"element": "H" 
			},
			{
				"x": -0.0922704264,
				"y": 0.3383653515,
				"z": -2.6598260691,
				"element": "H" 
			},
			{
				"x": -3.1836564904,
				"y": -3.6534524664,
				"z": -2.6301583847,
				"element": "H" 
			},
			{
				"x": -3.3438779429,
				"y": -1.8951657777,
				"z": -0.8978456349,
				"element": "H" 
			},
			{
				"x": -0.8525052771,
				"y": -4.9776201894,
				"z": -6.5687800908,
				"element": "H" 
			},
			{
				"x": 0.2458217346,
				"y": -5.8322448256,
				"z": -8.6353595323,
				"element": "H" 
			},
			{
				"x": 2.101246637,
				"y": -4.5466034811,
				"z": -9.6803546597,
				"element": "H" 
			},
			{
				"x": 2.851151094,
				"y": -2.4090958878,
				"z": -8.6527253567,
				"element": "H" 
			},
			{
				"x": 1.7447309875,
				"y": -1.5649476435,
				"z": -6.5858840104,
				"element": "H" 
			}
		],
		 "valence_orbital": [ 
			{
				"type": "occ",
				"energy": -0.25292,
				"method": "rhf"
			},
			{
				"type": "occ",
				"energy": -0.24192,
				"method": "rhf"
			},
			{
				"type": "occ",
				"energy": -0.23353,
				"method": "rhf"
			},
			{
				"type": "occ",
				"energy": -0.22637,
				"method": "rhf"
			},
			{
				"type": "occ",
				"energy": -0.21055,
				"method": "rhf"
			},
			{
				"type": "unocc",
				"energy": -0.06986,
				"method": "rhf"
			},
			{
				"type": "unocc",
				"energy": -0.0365,
				"method": "rhf"
			},
			{
				"type": "unocc",
				"energy": -0.01835,
				"method": "rhf"
			},
			{
				"type": "unocc",
				"energy": -0.01393,
				"method": "rhf"
			},
			{
				"type": "unocc",
				"energy": -0.01093,
				"method": "rhf"
			}
		],
		"cosmo_sigma_profile": { 
			"-0.025": 0.0,
			"-0.024": 0.0,
			"-0.023": 0.0,
			"-0.022": 0.0,
			"-0.021": 0.0,
			"-0.02": 0.0,
			"-0.019": 0.0,
			"-0.018": 0.0,
			"-0.017": 0.0,
			"-0.016": 0.0,
			"-0.015": 0.0,
			"-0.014": 0.81011840433,
			"-0.013": 0.974141417316,
			"-0.012": 0.879149713337,
			"-0.011": 0.967153171037,
			"-0.01": 0.918367944009,
			"-0.009": 1.35903157085,
			"-0.008": 1.30757042897,
			"-0.007": 8.61805974212,
			"-0.006": 34.1550305661,
			"-0.005": 39.2572647035,
			"-0.004": 37.1524138733,
			"-0.003": 29.7663107363,
			"-0.002": 27.8488898636,
			"-0.001": 26.5761989224,
			"0.0": 32.1368560918,
			"0.001": 38.3936029452,
			"0.002": 42.6636658853,
			"0.003": 47.4091511815,
			"0.004": 40.1815559597,
			"0.005": 12.5983190561,
			"0.006": 5.64758650605,
			"0.007": 5.07667365082,
			"0.008": 5.02805797719,
			"0.009": 5.42229422238,
			"0.01": 5.51807326271,
			"0.011": 1.78755592069,
			"0.012": 2.74909174258,
			"0.013": 5.35297565373,
			"0.014": 2.10158252939,
			"0.015": 0.0121589346932,
			"0.016": 0.0,
			"0.017": 0.0,
			"0.018": 0.0,
			"0.019": 0.0,
			"0.02": 0.0,
			"0.021": 0.0,
			"0.022": 0.0,
			"0.023": 0.0,
			"0.024": 0.0,
			"0.025": 0.0
		}
	}
}
