{
	 "smiles": "CC(C=CC=C(C)C=CC1=C(C)CCCC1(C)C)=CC=CC=C(C)C=CC=C(C)C=CC1=C(C)CCCC1(C)C", 
	 "Tm": 453.15, 
	 "num_atms": 96, 
	 "gaussian": { 
		 "optdone": 1, 
		 "sigma_profile": "yes", 
		 "theory": "DFT", 
		 "functional": "B3LYP", 
		 "basiset": "6-31G**", 
		 "properties": { 
			 "R2extent": 45110.1274, 
			 "electric_dipole_moment_norm": 0.313965428033, 
			 "electric_quadrupole_moment_norm": 14.043728789, 
			 "total_energy": -1557.91799992, 
			 "HOMO_LUMO_gap": 0.09752, 
			 "cosmo_polarized_energy": -9.17, 
			 "cosmo_cavitation_energy": 91.89, 
			 "cosmo_dispersion_energy": -56.74, 
			 "cosmo_repulsion_energy": 4.31, 
			 "cosmo_total_nonelectrostatic_energy": 39.46, 
			 "SMD_solvation_energy": 14.79 
		},
		"coords": [
			{
				"x": 2.5856006578,
				"y": -1.2259452416,
				"z": 1.9306911365,
				"element": "C" 
			},
			{
				"x": 1.7052963193,
				"y": -0.166707144,
				"z": 1.3015918367,
				"element": "C" 
			},
			{
				"x": 1.7677359379,
				"y": 1.1428671239,
				"z": 1.9424710825,
				"element": "C" 
			},
			{
				"x": 1.6761837018,
				"y": 2.3518794035,
				"z": 1.3236310972,
				"element": "C" 
			},
			{
				"x": 1.7558140709,
				"y": 3.6809833754,
				"z": 1.8986847018,
				"element": "C" 
			},
			{
				"x": 1.4756362947,
				"y": 4.1085074288,
				"z": 3.1632228991,
				"element": "C" 
			},
			{
				"x": 0.9567575992,
				"y": 3.1878718663,
				"z": 4.2469635604,
				"element": "C" 
			},
			{
				"x": 1.6824414209,
				"y": 5.4971454494,
				"z": 3.6012749484,
				"element": "C" 
			},
			{
				"x": 1.8898989201,
				"y": 6.6587159142,
				"z": 2.9363660233,
				"element": "C" 
			},
			{
				"x": 1.9176368813,
				"y": 6.9895670644,
				"z": 1.4917889576,
				"element": "C" 
			},
			{
				"x": 0.8489957488,
				"y": 6.8134297938,
				"z": 0.6773830304,
				"element": "C" 
			},
			{
				"x": -0.44514213,
				"y": 6.1831362516,
				"z": 1.1252557579,
				"element": "C" 
			},
			{
				"x": 0.8603310949,
				"y": 7.2010468031,
				"z": -0.7891168658,
				"element": "C" 
			},
			{
				"x": 2.0005320725,
				"y": 8.142580493,
				"z": -1.180652903,
				"element": "C" 
			},
			{
				"x": 3.3011942627,
				"y": 7.6842966948,
				"z": -0.5246945057,
				"element": "C" 
			},
			{
				"x": 3.2237982664,
				"y": 7.6741196064,
				"z": 1.0192165019,
				"element": "C" 
			},
			{
				"x": 4.4546491455,
				"y": 6.9052389024,
				"z": 1.5496130055,
				"element": "C" 
			},
			{
				"x": 3.2848652468,
				"y": 9.1254479236,
				"z": 1.557785368,
				"element": "C" 
			},
			{
				"x": 0.9215940948,
				"y": -0.492105412,
				"z": 0.2292065561,
				"element": "C" 
			},
			{
				"x": -0.0927899453,
				"y": 0.3035909552,
				"z": -0.4076639037,
				"element": "C" 
			},
			{
				"x": -0.7692352742,
				"y": -0.0922525102,
				"z": -1.5229923997,
				"element": "C" 
			},
			{
				"x": -1.7822559307,
				"y": 0.7013956579,
				"z": -2.1636760383,
				"element": "C" 
			},
			{
				"x": -2.5696903073,
				"y": 0.3669125446,
				"z": -3.2309165226,
				"element": "C" 
			},
			{
				"x": -3.4424654844,
				"y": 1.4236562669,
				"z": -3.8746504265,
				"element": "C" 
			},
			{
				"x": -2.6423844962,
				"y": -0.9497594738,
				"z": -3.8514147867,
				"element": "C" 
			},
			{
				"x": -2.5331880515,
				"y": -2.1611097652,
				"z": -3.2430688317,
				"element": "C" 
			},
			{
				"x": -2.6346492153,
				"y": -3.4088804578,
				"z": -3.9562917262,
				"element": "C" 
			},
			{
				"x": -2.5658862887,
				"y": -4.6775355865,
				"z": -3.4496267223,
				"element": "C" 
			},
			{
				"x": -2.6899397888,
				"y": -5.8525495023,
				"z": -4.3912017961,
				"element": "C" 
			},
			{
				"x": -2.3758615902,
				"y": -4.9445341873,
				"z": -2.0314381716,
				"element": "C" 
			},
			{
				"x": -2.3063594239,
				"y": -6.1717704652,
				"z": -1.4630532175,
				"element": "C" 
			},
			{
				"x": -2.1326421298,
				"y": -6.4468480469,
				"z": -0.023334146,
				"element": "C" 
			},
			{
				"x": -1.1950166388,
				"y": -5.8199771239,
				"z": 0.7322520777,
				"element": "C" 
			},
			{
				"x": -0.1319127788,
				"y": -4.894413407,
				"z": 0.1868280165,
				"element": "C" 
			},
			{
				"x": -1.0779055822,
				"y": -6.0218926596,
				"z": 2.2296300821,
				"element": "C" 
			},
			{
				"x": -2.2909583038,
				"y": -6.7060947069,
				"z": 2.8568777553,
				"element": "C" 
			},
			{
				"x": -2.6921729418,
				"y": -7.9029610063,
				"z": 1.9987101035,
				"element": "C" 
			},
			{
				"x": -3.1042734965,
				"y": -7.5001984686,
				"z": 0.5633087911,
				"element": "C" 
			},
			{
				"x": -3.1028588948,
				"y": -8.7910996053,
				"z": -0.2905947801,
				"element": "C" 
			},
			{
				"x": -4.5399452651,
				"y": -6.9224057534,
				"z": 0.5665715394,
				"element": "C" 
			},
			{
				"x": 2.3368874307,
				"y": -1.3613137594,
				"z": 2.9917837826,
				"element": "H" 
			},
			{
				"x": 3.6448910157,
				"y": -0.9419541128,
				"z": 1.8928589418,
				"element": "H" 
			},
			{
				"x": 2.4740627102,
				"y": -2.1935143917,
				"z": 1.4343930362,
				"element": "H" 
			},
			{
				"x": 2.0131326298,
				"y": 1.1209828957,
				"z": 3.0023509181,
				"element": "H" 
			},
			{
				"x": 1.6082277791,
				"y": 2.340949283,
				"z": 0.2368345595,
				"element": "H" 
			},
			{
				"x": 2.0653667174,
				"y": 4.4466844484,
				"z": 1.1930797118,
				"element": "H" 
			},
			{
				"x": 0.375644143,
				"y": 2.3617729736,
				"z": 3.8292621402,
				"element": "H" 
			},
			{
				"x": 0.3206681828,
				"y": 3.7367697385,
				"z": 4.9489756193,
				"element": "H" 
			},
			{
				"x": 1.7738024182,
				"y": 2.7482212294,
				"z": 4.8353308755,
				"element": "H" 
			},
			{
				"x": 1.6898135632,
				"y": 5.5947646094,
				"z": 4.6878257491,
				"element": "H" 
			},
			{
				"x": 2.1147924163,
				"y": 7.5086348404,
				"z": 3.5833948751,
				"element": "H" 
			},
			{
				"x": -1.3006126812,
				"y": 6.7553464644,
				"z": 0.7460029544,
				"element": "H" 
			},
			{
				"x": -0.5414372179,
				"y": 5.1653747175,
				"z": 0.7219162009,
				"element": "H" 
			},
			{
				"x": -0.5242546505,
				"y": 6.1127215907,
				"z": 2.210281506,
				"element": "H" 
			},
			{
				"x": 0.9181772402,
				"y": 6.2772249544,
				"z": -1.3878495458,
				"element": "H" 
			},
			{
				"x": -0.1086813224,
				"y": 7.6480354089,
				"z": -1.0478736084,
				"element": "H" 
			},
			{
				"x": 2.1087140902,
				"y": 8.1738428481,
				"z": -2.2710356046,
				"element": "H" 
			},
			{
				"x": 1.7599328438,
				"y": 9.16483557,
				"z": -0.8644903199,
				"element": "H" 
			},
			{
				"x": 3.5341358736,
				"y": 6.6685465868,
				"z": -0.873213306,
				"element": "H" 
			},
			{
				"x": 4.1406221957,
				"y": 8.3194178196,
				"z": -0.8349772106,
				"element": "H" 
			},
			{
				"x": 4.4355884691,
				"y": 5.8586296984,
				"z": 1.2282545168,
				"element": "H" 
			},
			{
				"x": 5.375937002,
				"y": 7.3595466944,
				"z": 1.1667941598,
				"element": "H" 
			},
			{
				"x": 4.5032444148,
				"y": 6.916005815,
				"z": 2.6421653755,
				"element": "H" 
			},
			{
				"x": 2.4468248325,
				"y": 9.7286873174,
				"z": 1.1971384669,
				"element": "H" 
			},
			{
				"x": 4.2157087975,
				"y": 9.6090351132,
				"z": 1.2389112223,
				"element": "H" 
			},
			{
				"x": 3.2639582366,
				"y": 9.1520784481,
				"z": 2.6516692089,
				"element": "H" 
			},
			{
				"x": 1.0377994576,
				"y": -1.4997889744,
				"z": -0.1714190605,
				"element": "H" 
			},
			{
				"x": -0.3563992475,
				"y": 1.2547390974,
				"z": 0.0497635432,
				"element": "H" 
			},
			{
				"x": -0.5021823837,
				"y": -1.0423788836,
				"z": -1.9805935653,
				"element": "H" 
			},
			{
				"x": -1.8920922719,
				"y": 1.7142981034,
				"z": -1.7750426457,
				"element": "H" 
			},
			{
				"x": -3.1919568848,
				"y": 1.5425360423,
				"z": -4.9372456607,
				"element": "H" 
			},
			{
				"x": -3.3238261951,
				"y": 2.3970543464,
				"z": -3.391615933,
				"element": "H" 
			},
			{
				"x": -4.5038010407,
				"y": 1.1481224496,
				"z": -3.8332922103,
				"element": "H" 
			},
			{
				"x": -2.8797824349,
				"y": -0.9491959675,
				"z": -4.9177328515,
				"element": "H" 
			},
			{
				"x": -2.3940907653,
				"y": -2.1871600027,
				"z": -2.1668748673,
				"element": "H" 
			},
			{
				"x": -2.7784720559,
				"y": -3.3137233838,
				"z": -5.0326004338,
				"element": "H" 
			},
			{
				"x": -3.5418965567,
				"y": -6.4903165973,
				"z": -4.1242062995,
				"element": "H" 
			},
			{
				"x": -2.8294317378,
				"y": -5.520013173,
				"z": -5.4226698512,
				"element": "H" 
			},
			{
				"x": -1.7966054235,
				"y": -6.4882048691,
				"z": -4.3579882801,
				"element": "H" 
			},
			{
				"x": -2.3034345569,
				"y": -4.082527145,
				"z": -1.3749463715,
				"element": "H" 
			},
			{
				"x": -2.4437246039,
				"y": -7.0386879685,
				"z": -2.1047832591,
				"element": "H" 
			},
			{
				"x": -0.3399502898,
				"y": -3.8465536075,
				"z": 0.4438975265,
				"element": "H" 
			},
			{
				"x": 0.8353072696,
				"y": -5.1353031379,
				"z": 0.6481018177,
				"element": "H" 
			},
			{
				"x": -0.0242757349,
				"y": -4.9597931766,
				"z": -0.89632248,
				"element": "H" 
			},
			{
				"x": -0.168023706,
				"y": -6.6089743124,
				"z": 2.4354087348,
				"element": "H" 
			},
			{
				"x": -0.899541499,
				"y": -5.0453516909,
				"z": 2.7017689892,
				"element": "H" 
			},
			{
				"x": -3.1231424818,
				"y": -5.9949719065,
				"z": 2.9269327984,
				"element": "H" 
			},
			{
				"x": -2.063586951,
				"y": -7.0222934175,
				"z": 3.8815206968,
				"element": "H" 
			},
			{
				"x": -3.5165178953,
				"y": -8.4608748691,
				"z": 2.4601901124,
				"element": "H" 
			},
			{
				"x": -1.8399985307,
				"y": -8.5948071427,
				"z": 1.9437090942,
				"element": "H" 
			},
			{
				"x": -3.5579156316,
				"y": -8.6450901503,
				"z": -1.274427456,
				"element": "H" 
			},
			{
				"x": -3.6827481356,
				"y": -9.5688400021,
				"z": 0.2190766911,
				"element": "H" 
			},
			{
				"x": -2.0860022807,
				"y": -9.1720715409,
				"z": -0.4352777399,
				"element": "H" 
			},
			{
				"x": -4.6226721302,
				"y": -6.0509000594,
				"z": 1.2232179017,
				"element": "H" 
			},
			{
				"x": -5.2585911055,
				"y": -7.6764463396,
				"z": 0.9090596517,
				"element": "H" 
			},
			{
				"x": -4.8352191052,
				"y": -6.6033575175,
				"z": -0.4377299034,
				"element": "H" 
			}
		],
		 "valence_orbital": [ 
			{
				"type": "occ",
				"energy": -0.23518,
				"method": "rhf"
			},
			{
				"type": "occ",
				"energy": -0.22542,
				"method": "rhf"
			},
			{
				"type": "occ",
				"energy": -0.20883,
				"method": "rhf"
			},
			{
				"type": "occ",
				"energy": -0.19234,
				"method": "rhf"
			},
			{
				"type": "occ",
				"energy": -0.16677,
				"method": "rhf"
			},
			{
				"type": "unocc",
				"energy": -0.06925,
				"method": "rhf"
			},
			{
				"type": "unocc",
				"energy": -0.0466,
				"method": "rhf"
			},
			{
				"type": "unocc",
				"energy": -0.01706,
				"method": "rhf"
			},
			{
				"type": "unocc",
				"energy": 0.01028,
				"method": "rhf"
			},
			{
				"type": "unocc",
				"energy": 0.02347,
				"method": "rhf"
			}
		],
		"cosmo_sigma_profile": { 
			"-0.025": 0.0,
			"-0.024": 0.0,
			"-0.023": 0.0,
			"-0.022": 0.0,
			"-0.021": 0.0,
			"-0.02": 0.0,
			"-0.019": 0.0,
			"-0.018": 0.0,
			"-0.017": 0.0,
			"-0.016": 0.0,
			"-0.015": 0.0,
			"-0.014": 0.0,
			"-0.013": 0.0,
			"-0.012": 0.0,
			"-0.011": 0.0,
			"-0.01": 0.0,
			"-0.009": 0.0,
			"-0.008": 0.0,
			"-0.007": 0.103772287415,
			"-0.006": 0.914359339836,
			"-0.005": 6.3949246974,
			"-0.004": 38.4111562976,
			"-0.003": 69.0961168683,
			"-0.002": 105.643652885,
			"-0.001": 112.788557166,
			"0.0": 113.486233487,
			"0.001": 97.5912760586,
			"0.002": 54.664618215,
			"0.003": 30.4901745564,
			"0.004": 33.7611152746,
			"0.005": 32.4986294905,
			"0.006": 18.4941132656,
			"0.007": 0.981305027498,
			"0.008": 0.0,
			"0.009": 0.0,
			"0.01": 0.0,
			"0.011": 0.0,
			"0.012": 0.0,
			"0.013": 0.0,
			"0.014": 0.0,
			"0.015": 0.0,
			"0.016": 0.0,
			"0.017": 0.0,
			"0.018": 0.0,
			"0.019": 0.0,
			"0.02": 0.0,
			"0.021": 0.0,
			"0.022": 0.0,
			"0.023": 0.0,
			"0.024": 0.0,
			"0.025": 0.0
		}
	}
}
