{
	 "smiles": "ClC1=CC=C(OCC#N)C=C1", 
	 "Tm": 320.15, 
	 "num_atms": 17, 
	 "gaussian": { 
		 "optdone": 1, 
		 "sigma_profile": "yes", 
		 "theory": "DFT", 
		 "functional": "B3LYP", 
		 "basiset": "6-31G**", 
		 "properties": { 
			 "R2extent": 2854.8179, 
			 "electric_dipole_moment_norm": 3.33895659301, 
			 "electric_quadrupole_moment_norm": 14.6213022731, 
			 "total_energy": -898.593873851, 
			 "HOMO_LUMO_gap": 0.21109, 
			 "cosmo_polarized_energy": -11.08, 
			 "cosmo_cavitation_energy": 24.34, 
			 "cosmo_dispersion_energy": -17.53, 
			 "cosmo_repulsion_energy": 1.42, 
			 "cosmo_total_nonelectrostatic_energy": 8.22, 
			 "SMD_solvation_energy": 5.63 
		},
		"coords": [
			{
				"x": 2.1797426253,
				"y": 0.9811890134,
				"z": -2.3875328011,
				"element": "Cl" 
			},
			{
				"x": 1.1279781059,
				"y": 1.0470825527,
				"z": -0.9810939251,
				"element": "C" 
			},
			{
				"x": 1.6773418074,
				"y": 1.2913857441,
				"z": 0.2801165201,
				"element": "C" 
			},
			{
				"x": 0.8432221322,
				"y": 1.3458492575,
				"z": 1.3904535524,
				"element": "C" 
			},
			{
				"x": -0.5362817967,
				"y": 1.1566494321,
				"z": 1.2443982878,
				"element": "C" 
			},
			{
				"x": -1.2615059001,
				"y": 1.2417368674,
				"z": 2.413050597,
				"element": "O" 
			},
			{
				"x": -2.6720805683,
				"y": 1.225300882,
				"z": 2.3446939928,
				"element": "C" 
			},
			{
				"x": -3.2336067302,
				"y": -0.1202751795,
				"z": 2.1080073778,
				"element": "C" 
			},
			{
				"x": -3.6844789511,
				"y": -1.1734268567,
				"z": 1.9254529312,
				"element": "N" 
			},
			{
				"x": -1.0808641065,
				"y": 0.904458779,
				"z": -0.0169154234,
				"element": "C" 
			},
			{
				"x": -0.2406771256,
				"y": 0.8519440479,
				"z": -1.1333862056,
				"element": "C" 
			},
			{
				"x": 2.7458814205,
				"y": 1.4394781716,
				"z": 0.3890145304,
				"element": "H" 
			},
			{
				"x": 1.2429834771,
				"y": 1.5371121523,
				"z": 2.3804883987,
				"element": "H" 
			},
			{
				"x": -3.0504405675,
				"y": 1.9105119662,
				"z": 1.5743430113,
				"element": "H" 
			},
			{
				"x": -3.0227417432,
				"y": 1.5803390685,
				"z": 3.317710672,
				"element": "H" 
			},
			{
				"x": -2.140528222,
				"y": 0.7252545795,
				"z": -0.1546424837,
				"element": "H" 
			},
			{
				"x": -0.6564438573,
				"y": 0.6527095221,
				"z": -2.1146590328,
				"element": "H" 
			}
		],
		 "valence_orbital": [ 
			{
				"type": "occ",
				"energy": -0.34082,
				"method": "rhf"
			},
			{
				"type": "occ",
				"energy": -0.31924,
				"method": "rhf"
			},
			{
				"type": "occ",
				"energy": -0.31587,
				"method": "rhf"
			},
			{
				"type": "occ",
				"energy": -0.27409,
				"method": "rhf"
			},
			{
				"type": "occ",
				"energy": -0.23686,
				"method": "rhf"
			},
			{
				"type": "unocc",
				"energy": -0.02577,
				"method": "rhf"
			},
			{
				"type": "unocc",
				"energy": -0.01187,
				"method": "rhf"
			},
			{
				"type": "unocc",
				"energy": -0.00402,
				"method": "rhf"
			},
			{
				"type": "unocc",
				"energy": 0.01918,
				"method": "rhf"
			},
			{
				"type": "unocc",
				"energy": 0.02729,
				"method": "rhf"
			}
		],
		"cosmo_sigma_profile": { 
			"-0.025": 0.0,
			"-0.024": 0.0,
			"-0.023": 0.0,
			"-0.022": 0.0,
			"-0.021": 0.0,
			"-0.02": 0.0,
			"-0.019": 0.0,
			"-0.018": 0.0,
			"-0.017": 0.0,
			"-0.016": 0.0,
			"-0.015": 0.0,
			"-0.014": 0.0,
			"-0.013": 0.0,
			"-0.012": 0.163706986969,
			"-0.011": 2.7205001185,
			"-0.01": 6.08848703287,
			"-0.009": 5.8405118408,
			"-0.008": 6.16267295509,
			"-0.007": 10.3278434393,
			"-0.006": 8.86784719751,
			"-0.005": 7.82237148345,
			"-0.004": 6.59498914111,
			"-0.003": 7.97887768927,
			"-0.002": 7.57919395849,
			"-0.001": 10.1079697451,
			"0.0": 12.5788508343,
			"0.001": 15.0254798881,
			"0.002": 20.885145016,
			"0.003": 20.9920141018,
			"0.004": 15.0728067676,
			"0.005": 10.6311736865,
			"0.006": 4.62312398608,
			"0.007": 4.45600531082,
			"0.008": 3.94362863859,
			"0.009": 3.11611169807,
			"0.01": 2.78170182932,
			"0.011": 2.37152019156,
			"0.012": 1.88902367593,
			"0.013": 0.223760160943,
			"0.014": 0.0,
			"0.015": 0.0,
			"0.016": 0.0,
			"0.017": 0.0,
			"0.018": 0.0,
			"0.019": 0.0,
			"0.02": 0.0,
			"0.021": 0.0,
			"0.022": 0.0,
			"0.023": 0.0,
			"0.024": 0.0,
			"0.025": 0.0
		}
	}
}
