{
	 "smiles": "COC(=O)C1=CC(=CC(N)=C1)C(F)(F)F", 
	 "Tm": 352.15, 
	 "num_atms": 23, 
	 "gaussian": { 
		 "optdone": 1, 
		 "sigma_profile": "yes", 
		 "theory": "DFT", 
		 "functional": "B3LYP", 
		 "basiset": "6-31G**", 
		 "properties": { 
			 "R2extent": 3961.946, 
			 "electric_dipole_moment_norm": 2.06103825777, 
			 "electric_quadrupole_moment_norm": 23.6408404022, 
			 "total_energy": -852.522512704, 
			 "HOMO_LUMO_gap": 0.16991, 
			 "cosmo_polarized_energy": -11.77, 
			 "cosmo_cavitation_energy": 29.46, 
			 "cosmo_dispersion_energy": -20.9, 
			 "cosmo_repulsion_energy": 1.59, 
			 "cosmo_total_nonelectrostatic_energy": 10.15, 
			 "SMD_solvation_energy": 7.79 
		},
		"coords": [
			{
				"x": 2.6653189528,
				"y": -0.9621193374,
				"z": 3.0581316196,
				"element": "C" 
			},
			{
				"x": 1.6255436376,
				"y": -0.4027524618,
				"z": 2.2408747925,
				"element": "O" 
			},
			{
				"x": 1.8601739812,
				"y": -0.4302220886,
				"z": 0.9109161567,
				"element": "C" 
			},
			{
				"x": 2.8733033244,
				"y": -0.8929142025,
				"z": 0.4232733962,
				"element": "O" 
			},
			{
				"x": 0.7410972158,
				"y": 0.1663310236,
				"z": 0.1224016385,
				"element": "C" 
			},
			{
				"x": -0.4118855186,
				"y": 0.6733501524,
				"z": 0.7331067396,
				"element": "C" 
			},
			{
				"x": -1.4107124953,
				"y": 1.2131062181,
				"z": -0.0766793518,
				"element": "C" 
			},
			{
				"x": -1.2740266134,
				"y": 1.2538525939,
				"z": -1.4638705268,
				"element": "C" 
			},
			{
				"x": -0.1172750623,
				"y": 0.7459166721,
				"z": -2.0795946191,
				"element": "C" 
			},
			{
				"x": 0.0525045353,
				"y": 0.8363919364,
				"z": -3.4561740191,
				"element": "N" 
			},
			{
				"x": 0.8873374071,
				"y": 0.2003710463,
				"z": -1.2656034544,
				"element": "C" 
			},
			{
				"x": -2.6909965577,
				"y": 1.7028619435,
				"z": 0.5473955817,
				"element": "C" 
			},
			{
				"x": -3.2492931374,
				"y": 2.7076847932,
				"z": -0.1656995636,
				"element": "F" 
			},
			{
				"x": -2.4997329366,
				"y": 2.1553687385,
				"z": 1.805028921,
				"element": "F" 
			},
			{
				"x": -3.6162824398,
				"y": 0.7167763298,
				"z": 0.6207376291,
				"element": "F" 
			},
			{
				"x": 3.6024385762,
				"y": -0.4188690504,
				"z": 2.9130643475,
				"element": "H" 
			},
			{
				"x": 2.8264140483,
				"y": -2.0139536427,
				"z": 2.808943462,
				"element": "H" 
			},
			{
				"x": 2.3178409928,
				"y": -0.8601031296,
				"z": 4.0860092992,
				"element": "H" 
			},
			{
				"x": -0.5201314998,
				"y": 0.6506209099,
				"z": 1.8089834833,
				"element": "H" 
			},
			{
				"x": -2.0611729976,
				"y": 1.693099885,
				"z": -2.0687857474,
				"element": "H" 
			},
			{
				"x": 0.7252013587,
				"y": 0.2004180223,
				"z": -3.8598241963,
				"element": "H" 
			},
			{
				"x": -0.7923688558,
				"y": 0.9111675908,
				"z": -4.0043293764,
				"element": "H" 
			},
			{
				"x": 1.798804084,
				"y": -0.1997839428,
				"z": -1.698806212,
				"element": "H" 
			}
		],
		 "valence_orbital": [ 
			{
				"type": "occ",
				"energy": -0.32497,
				"method": "rhf"
			},
			{
				"type": "occ",
				"energy": -0.30503,
				"method": "rhf"
			},
			{
				"type": "occ",
				"energy": -0.27769,
				"method": "rhf"
			},
			{
				"type": "occ",
				"energy": -0.26892,
				"method": "rhf"
			},
			{
				"type": "occ",
				"energy": -0.22156,
				"method": "rhf"
			},
			{
				"type": "unocc",
				"energy": -0.05165,
				"method": "rhf"
			},
			{
				"type": "unocc",
				"energy": -0.01435,
				"method": "rhf"
			},
			{
				"type": "unocc",
				"energy": 0.05112,
				"method": "rhf"
			},
			{
				"type": "unocc",
				"energy": 0.07242,
				"method": "rhf"
			},
			{
				"type": "unocc",
				"energy": 0.10423,
				"method": "rhf"
			}
		],
		"cosmo_sigma_profile": { 
			"-0.025": 0.0,
			"-0.024": 0.0,
			"-0.023": 0.0,
			"-0.022": 0.0,
			"-0.021": 0.0,
			"-0.02": 0.0,
			"-0.019": 0.0,
			"-0.018": 0.0,
			"-0.017": 0.0,
			"-0.016": 0.0,
			"-0.015": 0.0,
			"-0.014": 0.141380984806,
			"-0.013": 2.34809411172,
			"-0.012": 3.2880535799,
			"-0.011": 3.68795496681,
			"-0.01": 2.67262683745,
			"-0.009": 3.53073918022,
			"-0.008": 3.33890697141,
			"-0.007": 4.25658581587,
			"-0.006": 8.1160526316,
			"-0.005": 10.9924687134,
			"-0.004": 12.4782124999,
			"-0.003": 15.9135262509,
			"-0.002": 12.1497847574,
			"-0.001": 10.3111050393,
			"0.0": 15.4160554968,
			"0.001": 19.9740571145,
			"0.002": 31.3324793309,
			"0.003": 42.1942368272,
			"0.004": 6.73801054863,
			"0.005": 4.57416008279,
			"0.006": 3.46254593266,
			"0.007": 2.62266888231,
			"0.008": 1.8347250573,
			"0.009": 1.96283219127,
			"0.01": 3.07055269164,
			"0.011": 3.9205048328,
			"0.012": 4.09576585895,
			"0.013": 0.530961469218,
			"0.014": 0.0268709222133,
			"0.015": 0.0,
			"0.016": 0.0,
			"0.017": 0.0,
			"0.018": 0.0,
			"0.019": 0.0,
			"0.02": 0.0,
			"0.021": 0.0,
			"0.022": 0.0,
			"0.023": 0.0,
			"0.024": 0.0,
			"0.025": 0.0
		}
	}
}
