{
	 "smiles": "COC1=CC(=CC=C1)C(=O)C1=C(N)SC2=C1CCC2", 
	 "Tm": 401.15, 
	 "num_atms": 34, 
	 "gaussian": { 
		 "optdone": 1, 
		 "sigma_profile": "yes", 
		 "theory": "DFT", 
		 "functional": "B3LYP", 
		 "basiset": "6-31G**", 
		 "properties": { 
			 "R2extent": 7499.396, 
			 "electric_dipole_moment_norm": 2.35810344769, 
			 "electric_quadrupole_moment_norm": 7.45581227299, 
			 "total_energy": -1184.00178054, 
			 "HOMO_LUMO_gap": 0.13907, 
			 "cosmo_polarized_energy": -13.74, 
			 "cosmo_cavitation_energy": 38.09, 
			 "cosmo_dispersion_energy": -28.12, 
			 "cosmo_repulsion_energy": 2.14, 
			 "cosmo_total_nonelectrostatic_energy": 12.11, 
			 "SMD_solvation_energy": 6.46 
		},
		"coords": [
			{
				"x": -2.8551803909,
				"y": -2.010092682,
				"z": 4.0235699159,
				"element": "C" 
			},
			{
				"x": -1.6470230187,
				"y": -1.284730843,
				"z": 4.2036735318,
				"element": "O" 
			},
			{
				"x": -1.0254041925,
				"y": -0.7875252834,
				"z": 3.0968624436,
				"element": "C" 
			},
			{
				"x": -1.4745656092,
				"y": -0.9642002706,
				"z": 1.7878644617,
				"element": "C" 
			},
			{
				"x": -0.7445813331,
				"y": -0.4237651799,
				"z": 0.7150048483,
				"element": "C" 
			},
			{
				"x": 0.4153084336,
				"y": 0.3208308136,
				"z": 0.9600732765,
				"element": "C" 
			},
			{
				"x": 0.8492523358,
				"y": 0.5067776939,
				"z": 2.2777769924,
				"element": "C" 
			},
			{
				"x": 0.1451114872,
				"y": -0.0469252764,
				"z": 3.3393665282,
				"element": "C" 
			},
			{
				"x": -1.3277053067,
				"y": -0.5808972534,
				"z": -0.6651442903,
				"element": "C" 
			},
			{
				"x": -2.5523468014,
				"y": -0.642933852,
				"z": -0.781307215,
				"element": "O" 
			},
			{
				"x": -0.4651747545,
				"y": -0.6383885696,
				"z": -1.8627089553,
				"element": "C" 
			},
			{
				"x": 0.8199163718,
				"y": -1.1730267038,
				"z": -1.9651765052,
				"element": "C" 
			},
			{
				"x": 1.6773958773,
				"y": -1.6546215043,
				"z": -0.9974542152,
				"element": "N" 
			},
			{
				"x": 1.3959270571,
				"y": -1.1982955727,
				"z": -3.6331057523,
				"element": "S" 
			},
			{
				"x": -0.120149304,
				"y": -0.530319611,
				"z": -4.1953282289,
				"element": "C" 
			},
			{
				"x": -0.9764344122,
				"y": -0.2962200927,
				"z": -3.1727271207,
				"element": "C" 
			},
			{
				"x": -2.2439203585,
				"y": 0.3473196248,
				"z": -3.6785371642,
				"element": "C" 
			},
			{
				"x": -2.1251399,
				"y": 0.1654886324,
				"z": -5.2228302232,
				"element": "C" 
			},
			{
				"x": -0.6168849668,
				"y": -0.0875433697,
				"z": -5.5407985363,
				"element": "C" 
			},
			{
				"x": -3.1813509776,
				"y": -2.3028282399,
				"z": 5.022626556,
				"element": "H" 
			},
			{
				"x": -3.6310888794,
				"y": -1.3923253275,
				"z": 3.5547383086,
				"element": "H" 
			},
			{
				"x": -2.6994685625,
				"y": -2.9102980721,
				"z": 3.4155152479,
				"element": "H" 
			},
			{
				"x": -2.390596195,
				"y": -1.493685066,
				"z": 1.5581462993,
				"element": "H" 
			},
			{
				"x": 0.96042965,
				"y": 0.7666611525,
				"z": 0.1352360232,
				"element": "H" 
			},
			{
				"x": 1.7412435889,
				"y": 1.094209616,
				"z": 2.4751417434,
				"element": "H" 
			},
			{
				"x": 0.4709489726,
				"y": 0.0833138276,
				"z": 4.3662889647,
				"element": "H" 
			},
			{
				"x": 1.2854310818,
				"y": -1.7486228652,
				"z": -0.0707737435,
				"element": "H" 
			},
			{
				"x": 2.2683295976,
				"y": -2.4276641679,
				"z": -1.2702677341,
				"element": "H" 
			},
			{
				"x": -3.1433126848,
				"y": -0.1135737755,
				"z": -3.2644810513,
				"element": "H" 
			},
			{
				"x": -2.2771482284,
				"y": 1.4088506987,
				"z": -3.3959514224,
				"element": "H" 
			},
			{
				"x": -2.7014412646,
				"y": -0.7149908434,
				"z": -5.5242271362,
				"element": "H" 
			},
			{
				"x": -2.5237321056,
				"y": 1.0197523617,
				"z": -5.7773245729,
				"element": "H" 
			},
			{
				"x": -0.1110385225,
				"y": 0.8289592137,
				"z": -5.8767554138,
				"element": "H" 
			},
			{
				"x": -0.4823066847,
				"y": -0.8324892128,
				"z": -6.3335858605,
				"element": "H" 
			}
		],
		 "valence_orbital": [ 
			{
				"type": "occ",
				"energy": -0.25877,
				"method": "rhf"
			},
			{
				"type": "occ",
				"energy": -0.2439,
				"method": "rhf"
			},
			{
				"type": "occ",
				"energy": -0.23499,
				"method": "rhf"
			},
			{
				"type": "occ",
				"energy": -0.22674,
				"method": "rhf"
			},
			{
				"type": "occ",
				"energy": -0.19094,
				"method": "rhf"
			},
			{
				"type": "unocc",
				"energy": -0.05187,
				"method": "rhf"
			},
			{
				"type": "unocc",
				"energy": 0.00038,
				"method": "rhf"
			},
			{
				"type": "unocc",
				"energy": 0.00303,
				"method": "rhf"
			},
			{
				"type": "unocc",
				"energy": 0.01848,
				"method": "rhf"
			},
			{
				"type": "unocc",
				"energy": 0.03369,
				"method": "rhf"
			}
		],
		"cosmo_sigma_profile": { 
			"-0.025": 0.0,
			"-0.024": 0.0,
			"-0.023": 0.0,
			"-0.022": 0.0,
			"-0.021": 0.0,
			"-0.02": 0.0,
			"-0.019": 0.0,
			"-0.018": 0.0,
			"-0.017": 0.0,
			"-0.016": 0.0,
			"-0.015": 0.127913115598,
			"-0.014": 1.15601219817,
			"-0.013": 1.50420840823,
			"-0.012": 1.59530970194,
			"-0.011": 2.33997948187,
			"-0.01": 2.01893998419,
			"-0.009": 2.50736323945,
			"-0.008": 1.88117725224,
			"-0.007": 3.0277841694,
			"-0.006": 10.9052280551,
			"-0.005": 16.652751094,
			"-0.004": 20.1416612189,
			"-0.003": 28.6853260929,
			"-0.002": 28.3482955598,
			"-0.001": 29.5679861109,
			"0.0": 25.6584787713,
			"0.001": 20.6186508724,
			"0.002": 20.6642642748,
			"0.003": 20.8408817081,
			"0.004": 22.4296925668,
			"0.005": 12.202673652,
			"0.006": 5.3793036953,
			"0.007": 4.98629189439,
			"0.008": 4.82017092633,
			"0.009": 3.63282573882,
			"0.01": 3.51964270703,
			"0.011": 3.12680526238,
			"0.012": 2.84128724926,
			"0.013": 2.70988394143,
			"0.014": 0.531954361904,
			"0.015": 0.0,
			"0.016": 0.0,
			"0.017": 0.0,
			"0.018": 0.0,
			"0.019": 0.0,
			"0.02": 0.0,
			"0.021": 0.0,
			"0.022": 0.0,
			"0.023": 0.0,
			"0.024": 0.0,
			"0.025": 0.0
		}
	}
}
