{
	 "smiles": "NC(N)=NN=CC1=C(Cl)C=CC=C1Cl", 
	 "Tm": 501.15, 
	 "num_atms": 22, 
	 "gaussian": { 
		 "optdone": 1, 
		 "sigma_profile": "yes", 
		 "theory": "DFT", 
		 "functional": "B3LYP", 
		 "basiset": "6-31G**", 
		 "properties": { 
			 "R2extent": 5085.1064, 
			 "electric_dipole_moment_norm": 2.26215225173, 
			 "electric_quadrupole_moment_norm": 27.2628543047, 
			 "total_energy": -1449.03358116, 
			 "HOMO_LUMO_gap": 0.15428, 
			 "cosmo_polarized_energy": -14.78, 
			 "cosmo_cavitation_energy": 30.51, 
			 "cosmo_dispersion_energy": -22.51, 
			 "cosmo_repulsion_energy": 1.8, 
			 "cosmo_total_nonelectrostatic_energy": 9.8, 
			 "SMD_solvation_energy": 3.9 
		},
		"coords": [
			{
				"x": -5.1197371603,
				"y": -0.5566757504,
				"z": 3.3792314741,
				"element": "N" 
			},
			{
				"x": -3.8694702079,
				"y": -0.0945616688,
				"z": 3.0289679908,
				"element": "C" 
			},
			{
				"x": -3.3586423004,
				"y": 0.9188604955,
				"z": 3.7984017561,
				"element": "N" 
			},
			{
				"x": -3.2743931556,
				"y": -0.6417726587,
				"z": 1.9966403148,
				"element": "N" 
			},
			{
				"x": -1.9742389567,
				"y": -0.1935887216,
				"z": 1.8814023517,
				"element": "N" 
			},
			{
				"x": -1.3578220854,
				"y": -0.6452649486,
				"z": 0.846250247,
				"element": "C" 
			},
			{
				"x": 0.0332048006,
				"y": -0.3048731462,
				"z": 0.5223618923,
				"element": "C" 
			},
			{
				"x": 1.0285761239,
				"y": 0.090604094,
				"z": 1.4499935463,
				"element": "C" 
			},
			{
				"x": 0.7094262123,
				"y": 0.2007474836,
				"z": 3.1757158212,
				"element": "Cl" 
			},
			{
				"x": 2.3375217848,
				"y": 0.3769428675,
				"z": 1.0654747787,
				"element": "C" 
			},
			{
				"x": 2.7113630609,
				"y": 0.2763842532,
				"z": -0.2713456492,
				"element": "C" 
			},
			{
				"x": 1.7746964293,
				"y": -0.1160936863,
				"z": -1.223172878,
				"element": "C" 
			},
			{
				"x": 0.4729756146,
				"y": -0.3979958752,
				"z": -0.8218265753,
				"element": "C" 
			},
			{
				"x": -0.6549813379,
				"y": -0.8623683162,
				"z": -2.095987838,
				"element": "Cl" 
			},
			{
				"x": -5.4999797553,
				"y": -1.1897376282,
				"z": 2.6876325488,
				"element": "H" 
			},
			{
				"x": -5.77401413,
				"y": 0.148669527,
				"z": 3.6917060928,
				"element": "H" 
			},
			{
				"x": -2.3777244069,
				"y": 1.0803594382,
				"z": 3.5928927362,
				"element": "H" 
			},
			{
				"x": -3.599896445,
				"y": 0.8974734277,
				"z": 4.779308092,
				"element": "H" 
			},
			{
				"x": -1.8830160683,
				"y": -1.2951792356,
				"z": 0.1460498342,
				"element": "H" 
			},
			{
				"x": 3.0559391484,
				"y": 0.669587281,
				"z": 1.8224052841,
				"element": "H" 
			},
			{
				"x": 3.730703922,
				"y": 0.499985384,
				"z": -0.5694519621,
				"element": "H" 
			},
			{
				"x": 2.0404089128,
				"y": -0.200402616,
				"z": -2.2704498588,
				"element": "H" 
			}
		],
		 "valence_orbital": [ 
			{
				"type": "occ",
				"energy": -0.27876,
				"method": "rhf"
			},
			{
				"type": "occ",
				"energy": -0.26913,
				"method": "rhf"
			},
			{
				"type": "occ",
				"energy": -0.24538,
				"method": "rhf"
			},
			{
				"type": "occ",
				"energy": -0.22209,
				"method": "rhf"
			},
			{
				"type": "occ",
				"energy": -0.20367,
				"method": "rhf"
			},
			{
				"type": "unocc",
				"energy": -0.04939,
				"method": "rhf"
			},
			{
				"type": "unocc",
				"energy": -0.01795,
				"method": "rhf"
			},
			{
				"type": "unocc",
				"energy": 0.01173,
				"method": "rhf"
			},
			{
				"type": "unocc",
				"energy": 0.02848,
				"method": "rhf"
			},
			{
				"type": "unocc",
				"energy": 0.05628,
				"method": "rhf"
			}
		],
		"cosmo_sigma_profile": { 
			"-0.025": 0.0,
			"-0.024": 0.0,
			"-0.023": 0.0,
			"-0.022": 0.0,
			"-0.021": 0.0,
			"-0.02": 0.0,
			"-0.019": 0.0,
			"-0.018": 0.0,
			"-0.017": 0.0,
			"-0.016": 0.0,
			"-0.015": 0.0228756421559,
			"-0.014": 1.59175702622,
			"-0.013": 3.71494260472,
			"-0.012": 3.20467520819,
			"-0.011": 4.46144184946,
			"-0.01": 4.25872080912,
			"-0.009": 3.12807681816,
			"-0.008": 5.68782817452,
			"-0.007": 9.07820359497,
			"-0.006": 8.41181931821,
			"-0.005": 8.33047289915,
			"-0.004": 7.02650227254,
			"-0.003": 9.89239179836,
			"-0.002": 12.6984545019,
			"-0.001": 13.0385698454,
			"0.0": 17.9219800977,
			"0.001": 29.063222939,
			"0.002": 25.1088128055,
			"0.003": 21.6698598519,
			"0.004": 20.7960177625,
			"0.005": 12.1106580972,
			"0.006": 7.25750121796,
			"0.007": 4.5084640745,
			"0.008": 4.03363488509,
			"0.009": 2.16344489843,
			"0.01": 1.77907622451,
			"0.011": 2.8865031228,
			"0.012": 1.33978804803,
			"0.013": 0.913046919449,
			"0.014": 1.01988243189,
			"0.015": 0.82790971923,
			"0.016": 0.164569449169,
			"0.017": 0.0,
			"0.018": 0.0,
			"0.019": 0.0,
			"0.02": 0.0,
			"0.021": 0.0,
			"0.022": 0.0,
			"0.023": 0.0,
			"0.024": 0.0,
			"0.025": 0.0
		}
	}
}
