{
	 "smiles": "FC(F)(F)C1=CC2=C(SC3=CC=CC=C3N2)C=C1", 
	 "Tm": 462.15, 
	 "num_atms": 26, 
	 "gaussian": { 
		 "optdone": 1, 
		 "sigma_profile": "yes", 
		 "theory": "DFT", 
		 "functional": "B3LYP", 
		 "basiset": "6-31G**", 
		 "properties": { 
			 "R2extent": 6407.0888, 
			 "electric_dipole_moment_norm": 2.63241038404, 
			 "electric_quadrupole_moment_norm": 12.0459355261, 
			 "total_energy": -1252.67935355, 
			 "HOMO_LUMO_gap": 0.15997, 
			 "cosmo_polarized_energy": -9.58, 
			 "cosmo_cavitation_energy": 32.85, 
			 "cosmo_dispersion_energy": -24.39, 
			 "cosmo_repulsion_energy": 1.73, 
			 "cosmo_total_nonelectrostatic_energy": 10.18, 
			 "SMD_solvation_energy": 5.66 
		},
		"coords": [
			{
				"x": -2.4169940614,
				"y": 2.2528484971,
				"z": -3.3075749943,
				"element": "F" 
			},
			{
				"x": -1.8891196607,
				"y": 3.1409985245,
				"z": -2.4319178984,
				"element": "C" 
			},
			{
				"x": -0.8285580665,
				"y": 3.710581469,
				"z": -3.0499153653,
				"element": "F" 
			},
			{
				"x": -2.816912929,
				"y": 4.1045289369,
				"z": -2.2448769548,
				"element": "F" 
			},
			{
				"x": -1.4959616014,
				"y": 2.4810841944,
				"z": -1.1391301915,
				"element": "C" 
			},
			{
				"x": -0.231520682,
				"y": 1.8997332482,
				"z": -1.0263484737,
				"element": "C" 
			},
			{
				"x": 0.1456174577,
				"y": 1.2454787558,
				"z": 0.1502813696,
				"element": "C" 
			},
			{
				"x": -0.7758956903,
				"y": 1.1639603431,
				"z": 1.2128979205,
				"element": "C" 
			},
			{
				"x": -0.2769012657,
				"y": 0.4637775846,
				"z": 2.7734501379,
				"element": "S" 
			},
			{
				"x": 0.936236474,
				"y": -0.7176370586,
				"z": 2.2041650869,
				"element": "C" 
			},
			{
				"x": 1.1916080664,
				"y": -1.8664488112,
				"z": 2.9536988377,
				"element": "C" 
			},
			{
				"x": 2.2222577288,
				"y": -2.7357724263,
				"z": 2.589624413,
				"element": "C" 
			},
			{
				"x": 2.9810376639,
				"y": -2.4639262907,
				"z": 1.4516656485,
				"element": "C" 
			},
			{
				"x": 2.7049634007,
				"y": -1.3383871536,
				"z": 0.6757682449,
				"element": "C" 
			},
			{
				"x": 1.6884602065,
				"y": -0.4501516268,
				"z": 1.0471545899,
				"element": "C" 
			},
			{
				"x": 1.426880585,
				"y": 0.6954739695,
				"z": 0.2773303361,
				"element": "N" 
			},
			{
				"x": -2.0500378018,
				"y": 1.7152330799,
				"z": 1.0738449952,
				"element": "C" 
			},
			{
				"x": -2.4139354561,
				"y": 2.3869759383,
				"z": -0.0930751016,
				"element": "C" 
			},
			{
				"x": 0.4709549103,
				"y": 1.973083456,
				"z": -1.8512117587,
				"element": "H" 
			},
			{
				"x": 0.5885029335,
				"y": -2.0695131626,
				"z": 3.833683758,
				"element": "H" 
			},
			{
				"x": 2.4247366843,
				"y": -3.6165304421,
				"z": 3.1903954631,
				"element": "H" 
			},
			{
				"x": 3.7825683396,
				"y": -3.1332019905,
				"z": 1.1543460246,
				"element": "H" 
			},
			{
				"x": 3.2832215724,
				"y": -1.1389314239,
				"z": -0.2234573708,
				"element": "H" 
			},
			{
				"x": 2.0020277243,
				"y": 0.7817387243,
				"z": -0.5492276128,
				"element": "H" 
			},
			{
				"x": -2.7554319222,
				"y": 1.6325631745,
				"z": 1.8949074956,
				"element": "H" 
			},
			{
				"x": -3.3959046102,
				"y": 2.8360404902,
				"z": -0.1848785995,
				"element": "H" 
			}
		],
		 "valence_orbital": [ 
			{
				"type": "occ",
				"energy": -0.30878,
				"method": "rhf"
			},
			{
				"type": "occ",
				"energy": -0.26994,
				"method": "rhf"
			},
			{
				"type": "occ",
				"energy": -0.26724,
				"method": "rhf"
			},
			{
				"type": "occ",
				"energy": -0.23652,
				"method": "rhf"
			},
			{
				"type": "occ",
				"energy": -0.1949,
				"method": "rhf"
			},
			{
				"type": "unocc",
				"energy": -0.03493,
				"method": "rhf"
			},
			{
				"type": "unocc",
				"energy": -0.02125,
				"method": "rhf"
			},
			{
				"type": "unocc",
				"energy": -0.01242,
				"method": "rhf"
			},
			{
				"type": "unocc",
				"energy": 0.00961,
				"method": "rhf"
			},
			{
				"type": "unocc",
				"energy": 0.02702,
				"method": "rhf"
			}
		],
		"cosmo_sigma_profile": { 
			"-0.025": 0.0,
			"-0.024": 0.0,
			"-0.023": 0.0,
			"-0.022": 0.0,
			"-0.021": 0.0,
			"-0.02": 0.0,
			"-0.019": 0.0,
			"-0.018": 0.0,
			"-0.017": 0.0,
			"-0.016": 0.0,
			"-0.015": 0.718003026628,
			"-0.014": 1.64971132336,
			"-0.013": 1.64754464242,
			"-0.012": 2.08134481906,
			"-0.011": 1.26823910322,
			"-0.01": 1.70804896359,
			"-0.009": 1.84198432504,
			"-0.008": 2.02057248962,
			"-0.007": 6.88763410203,
			"-0.006": 12.1496442965,
			"-0.005": 13.4192838721,
			"-0.004": 14.966799505,
			"-0.003": 11.8248379035,
			"-0.002": 11.6918312225,
			"-0.001": 14.1682953264,
			"0.0": 16.4864200955,
			"0.001": 21.3779100975,
			"0.002": 34.0679649781,
			"0.003": 53.7371321576,
			"0.004": 19.918367815,
			"0.005": 13.1303957242,
			"0.006": 6.00247044804,
			"0.007": 2.7431678733,
			"0.008": 1.02576493379,
			"0.009": 0.0,
			"0.01": 0.0,
			"0.011": 0.0,
			"0.012": 0.0,
			"0.013": 0.0,
			"0.014": 0.0,
			"0.015": 0.0,
			"0.016": 0.0,
			"0.017": 0.0,
			"0.018": 0.0,
			"0.019": 0.0,
			"0.02": 0.0,
			"0.021": 0.0,
			"0.022": 0.0,
			"0.023": 0.0,
			"0.024": 0.0,
			"0.025": 0.0
		}
	}
}
