{
	 "smiles": "CC(=O)N(NC1=CC=C(C=C1)C1=CC=C(C=C1)[N+]([O-])=O)C1=CC=CC=C1", 
	 "Tm": 434.15, 
	 "num_atms": 43, 
	 "gaussian": { 
		 "optdone": 1, 
		 "sigma_profile": "yes", 
		 "theory": "DFT", 
		 "functional": "B3LYP", 
		 "basiset": "6-31G**", 
		 "properties": { 
			 "R2extent": 15760.1801, 
			 "electric_dipole_moment_norm": 8.31078820029, 
			 "electric_quadrupole_moment_norm": 28.8359348414, 
			 "total_energy": -1162.19275003, 
			 "HOMO_LUMO_gap": 0.13032, 
			 "cosmo_polarized_energy": -17.9, 
			 "cosmo_cavitation_energy": 48.35, 
			 "cosmo_dispersion_energy": -33.61, 
			 "cosmo_repulsion_energy": 2.51, 
			 "cosmo_total_nonelectrostatic_energy": 17.25, 
			 "SMD_solvation_energy": 11.25 
		},
		"coords": [
			{
				"x": -3.0019240631,
				"y": 5.0420725804,
				"z": -2.0794403536,
				"element": "C" 
			},
			{
				"x": -2.5279146117,
				"y": 3.6372126996,
				"z": -2.388773224,
				"element": "C" 
			},
			{
				"x": -1.833204815,
				"y": 3.3873603529,
				"z": -3.3659315942,
				"element": "O" 
			},
			{
				"x": -2.9199462587,
				"y": 2.5984573674,
				"z": -1.540383763,
				"element": "N" 
			},
			{
				"x": -2.6042592896,
				"y": 1.3069728044,
				"z": -2.0102915495,
				"element": "N" 
			},
			{
				"x": -1.5022142903,
				"y": 0.6562836426,
				"z": -1.4097920118,
				"element": "C" 
			},
			{
				"x": -0.8971041187,
				"y": -0.3999561984,
				"z": -2.1101235948,
				"element": "C" 
			},
			{
				"x": 0.1425346912,
				"y": -1.1200818981,
				"z": -1.5388138642,
				"element": "C" 
			},
			{
				"x": 0.62119593,
				"y": -0.8183117301,
				"z": -0.250226996,
				"element": "C" 
			},
			{
				"x": 0.003927551,
				"y": 0.2395707606,
				"z": 0.4369555482,
				"element": "C" 
			},
			{
				"x": -1.0420555735,
				"y": 0.9667684286,
				"z": -0.1236420786,
				"element": "C" 
			},
			{
				"x": 1.7313931644,
				"y": -1.5859040516,
				"z": 0.3558682876,
				"element": "C" 
			},
			{
				"x": 1.8788207354,
				"y": -2.9655899591,
				"z": 0.1095614581,
				"element": "C" 
			},
			{
				"x": 2.9195324056,
				"y": -3.6935435129,
				"z": 0.6730438943,
				"element": "C" 
			},
			{
				"x": 3.8283094257,
				"y": -3.0371815788,
				"z": 1.5022034439,
				"element": "C" 
			},
			{
				"x": 3.7161956851,
				"y": -1.6738231505,
				"z": 1.7725063336,
				"element": "C" 
			},
			{
				"x": 2.6731049937,
				"y": -0.9593745509,
				"z": 1.1964932038,
				"element": "C" 
			},
			{
				"x": 4.9274584939,
				"y": -3.7982205872,
				"z": 2.1039232407,
				"element": "N" 
			},
			{
				"x": 5.0031892222,
				"y": -4.9999093483,
				"z": 1.8427454795,
				"element": "O" 
			},
			{
				"x": 5.7112991402,
				"y": -3.1918099135,
				"z": 2.8359935916,
				"element": "O" 
			},
			{
				"x": -3.9563799994,
				"y": 2.6638126498,
				"z": -0.5515311838,
				"element": "C" 
			},
			{
				"x": -3.8316907748,
				"y": 3.529516185,
				"z": 0.54108949,
				"element": "C" 
			},
			{
				"x": -4.8449469808,
				"y": 3.5939114013,
				"z": 1.4992002281,
				"element": "C" 
			},
			{
				"x": -5.970151883,
				"y": 2.7769926251,
				"z": 1.3896538377,
				"element": "C" 
			},
			{
				"x": -6.0776024779,
				"y": 1.8924155148,
				"z": 0.3129951544,
				"element": "C" 
			},
			{
				"x": -5.0791877616,
				"y": 1.8330988363,
				"z": -0.6568169815,
				"element": "C" 
			},
			{
				"x": -4.0380124496,
				"y": 5.0751831373,
				"z": -1.7372263624,
				"element": "H" 
			},
			{
				"x": -2.8889981906,
				"y": 5.6258338152,
				"z": -2.9932835376,
				"element": "H" 
			},
			{
				"x": -2.3774388895,
				"y": 5.4957443178,
				"z": -1.303448273,
				"element": "H" 
			},
			{
				"x": -2.4873437423,
				"y": 1.3723258384,
				"z": -3.0193776633,
				"element": "H" 
			},
			{
				"x": -1.2402080203,
				"y": -0.6460685627,
				"z": -3.1116715461,
				"element": "H" 
			},
			{
				"x": 0.6147452393,
				"y": -1.9086310997,
				"z": -2.1168871896,
				"element": "H" 
			},
			{
				"x": 0.3268618238,
				"y": 0.4841239723,
				"z": 1.444536866,
				"element": "H" 
			},
			{
				"x": -1.5060542062,
				"y": 1.7663887235,
				"z": 0.4406266559,
				"element": "H" 
			},
			{
				"x": 1.1507408787,
				"y": -3.4783752696,
				"z": -0.5103619781,
				"element": "H" 
			},
			{
				"x": 3.0339139188,
				"y": -4.7554529886,
				"z": 0.4947111902,
				"element": "H" 
			},
			{
				"x": 4.4480046918,
				"y": -1.1971865491,
				"z": 2.4126626437,
				"element": "H" 
			},
			{
				"x": 2.6006673152,
				"y": 0.1080222034,
				"z": 1.3773554891,
				"element": "H" 
			},
			{
				"x": -2.9411437717,
				"y": 4.1403742433,
				"z": 0.6452534779,
				"element": "H" 
			},
			{
				"x": -4.7413639602,
				"y": 4.2719606342,
				"z": 2.3411229565,
				"element": "H" 
			},
			{
				"x": -6.7520658646,
				"y": 2.820099786,
				"z": 2.1416055765,
				"element": "H" 
			},
			{
				"x": -6.9464352221,
				"y": 1.2468342605,
				"z": 0.2241180469,
				"element": "H" 
			},
			{
				"x": -5.148548091,
				"y": 1.1413841681,
				"z": -1.4885023487,
				"element": "H" 
			}
		],
		 "valence_orbital": [ 
			{
				"type": "occ",
				"energy": -0.27161,
				"method": "rhf"
			},
			{
				"type": "occ",
				"energy": -0.26923,
				"method": "rhf"
			},
			{
				"type": "occ",
				"energy": -0.26248,
				"method": "rhf"
			},
			{
				"type": "occ",
				"energy": -0.24225,
				"method": "rhf"
			},
			{
				"type": "occ",
				"energy": -0.21388,
				"method": "rhf"
			},
			{
				"type": "unocc",
				"energy": -0.08356,
				"method": "rhf"
			},
			{
				"type": "unocc",
				"energy": -0.02744,
				"method": "rhf"
			},
			{
				"type": "unocc",
				"energy": -0.02256,
				"method": "rhf"
			},
			{
				"type": "unocc",
				"energy": -0.02125,
				"method": "rhf"
			},
			{
				"type": "unocc",
				"energy": -0.01835,
				"method": "rhf"
			}
		],
		"cosmo_sigma_profile": { 
			"-0.025": 0.0,
			"-0.024": 0.0,
			"-0.023": 0.0,
			"-0.022": 0.0,
			"-0.021": 0.0,
			"-0.02": 0.0,
			"-0.019": 0.0,
			"-0.018": 0.0,
			"-0.017": 0.0,
			"-0.016": 0.0,
			"-0.015": 0.0,
			"-0.014": 0.0,
			"-0.013": 0.0,
			"-0.012": 0.31806377597,
			"-0.011": 0.803035006934,
			"-0.01": 0.927284268513,
			"-0.009": 1.45465997197,
			"-0.008": 2.36329363364,
			"-0.007": 13.9742550231,
			"-0.006": 26.6284440627,
			"-0.005": 29.8772316664,
			"-0.004": 33.2877446619,
			"-0.003": 28.412847263,
			"-0.002": 26.8974632245,
			"-0.001": 28.0229937861,
			"0.0": 23.189205759,
			"0.001": 26.8850957541,
			"0.002": 31.3287629529,
			"0.003": 23.3476739617,
			"0.004": 25.2586957237,
			"0.005": 19.4079244689,
			"0.006": 5.72957444496,
			"0.007": 8.03487598701,
			"0.008": 10.4447290931,
			"0.009": 5.92817307721,
			"0.01": 5.51409995403,
			"0.011": 2.63164521232,
			"0.012": 3.27501439877,
			"0.013": 2.78185222529,
			"0.014": 0.920163800276,
			"0.015": 0.0,
			"0.016": 0.0,
			"0.017": 0.0,
			"0.018": 0.0,
			"0.019": 0.0,
			"0.02": 0.0,
			"0.021": 0.0,
			"0.022": 0.0,
			"0.023": 0.0,
			"0.024": 0.0,
			"0.025": 0.0
		}
	}
}
