{
	 "smiles": "CC1(C)CCC(CC(O)=O)C2=C1C=CC=C2", 
	 "Tm": 355.15, 
	 "num_atms": 34, 
	 "gaussian": { 
		 "optdone": 1, 
		 "sigma_profile": "yes", 
		 "theory": "DFT", 
		 "functional": "B3LYP", 
		 "basiset": "6-31G**", 
		 "properties": { 
			 "R2extent": 3468.8938, 
			 "electric_dipole_moment_norm": 1.32437890726, 
			 "electric_quadrupole_moment_norm": 8.14672902152, 
			 "total_energy": -694.820683691, 
			 "HOMO_LUMO_gap": 0.23127, 
			 "cosmo_polarized_energy": -10.92, 
			 "cosmo_cavitation_energy": 33.91, 
			 "cosmo_dispersion_energy": -23.36, 
			 "cosmo_repulsion_energy": 1.79, 
			 "cosmo_total_nonelectrostatic_energy": 12.34, 
			 "SMD_solvation_energy": 6.32 
		},
		"coords": [
			{
				"x": -0.9466393367,
				"y": 0.3798769167,
				"z": -2.9442182921,
				"element": "C" 
			},
			{
				"x": 0.2069370095,
				"y": 0.3386621716,
				"z": -1.9166817174,
				"element": "C" 
			},
			{
				"x": 1.529112651,
				"y": 0.6973487763,
				"z": -2.6390474405,
				"element": "C" 
			},
			{
				"x": -0.1014603412,
				"y": 1.3980738914,
				"z": -0.8328345827,
				"element": "C" 
			},
			{
				"x": 0.7295541103,
				"y": 1.232315817,
				"z": 0.4407058435,
				"element": "C" 
			},
			{
				"x": 0.5188785599,
				"y": -0.140711457,
				"z": 1.1037156592,
				"element": "C" 
			},
			{
				"x": -0.6982349007,
				"y": -0.1757615838,
				"z": 2.0840831869,
				"element": "C" 
			},
			{
				"x": -2.0492538439,
				"y": 0.1473137336,
				"z": 1.4868920753,
				"element": "C" 
			},
			{
				"x": -2.5960074402,
				"y": -0.9125008006,
				"z": 0.8439139125,
				"element": "O" 
			},
			{
				"x": -2.6109649132,
				"y": 1.2208293149,
				"z": 1.5579397568,
				"element": "O" 
			},
			{
				"x": 0.5014826292,
				"y": -1.2764465774,
				"z": 0.0858809999,
				"element": "C" 
			},
			{
				"x": 0.3459540114,
				"y": -1.0640774999,
				"z": -1.2984207393,
				"element": "C" 
			},
			{
				"x": 0.3755316687,
				"y": -2.1854409451,
				"z": -2.1474678041,
				"element": "C" 
			},
			{
				"x": 0.5420752235,
				"y": -3.4777795707,
				"z": -1.6615234898,
				"element": "C" 
			},
			{
				"x": 0.6974710525,
				"y": -3.6826145173,
				"z": -0.2893055686,
				"element": "C" 
			},
			{
				"x": 0.680376152,
				"y": -2.5855596793,
				"z": 0.5631371908,
				"element": "C" 
			},
			{
				"x": -0.7521496887,
				"y": -0.246906947,
				"z": -3.8192777574,
				"element": "H" 
			},
			{
				"x": -1.0897514137,
				"y": 1.4053386049,
				"z": -3.3034135614,
				"element": "H" 
			},
			{
				"x": -1.8850955261,
				"y": 0.0451620577,
				"z": -2.4905224858,
				"element": "H" 
			},
			{
				"x": 2.3740229011,
				"y": 0.7303271477,
				"z": -1.9442433592,
				"element": "H" 
			},
			{
				"x": 1.7697366652,
				"y": -0.0409144616,
				"z": -3.4103392792,
				"element": "H" 
			},
			{
				"x": 1.4474547542,
				"y": 1.677749122,
				"z": -3.1228392911,
				"element": "H" 
			},
			{
				"x": -1.1659006194,
				"y": 1.3615233476,
				"z": -0.5813592352,
				"element": "H" 
			},
			{
				"x": 0.0677377374,
				"y": 2.3948502457,
				"z": -1.2583844785,
				"element": "H" 
			},
			{
				"x": 1.7939159152,
				"y": 1.3428470427,
				"z": 0.2002507457,
				"element": "H" 
			},
			{
				"x": 0.4880366546,
				"y": 2.0305052454,
				"z": 1.1516192617,
				"element": "H" 
			},
			{
				"x": 1.3782529961,
				"y": -0.3225867463,
				"z": 1.7626573213,
				"element": "H" 
			},
			{
				"x": -0.7539900961,
				"y": -1.170014459,
				"z": 2.5370379592,
				"element": "H" 
			},
			{
				"x": -0.5260159274,
				"y": 0.5580890842,
				"z": 2.8757184303,
				"element": "H" 
			},
			{
				"x": -3.4474319143,
				"y": -0.6021671776,
				"z": 0.4915284423,
				"element": "H" 
			},
			{
				"x": 0.2696992832,
				"y": -2.0427631011,
				"z": -3.2185550456,
				"element": "H" 
			},
			{
				"x": 0.5571257486,
				"y": -4.3186100189,
				"z": -2.3493507216,
				"element": "H" 
			},
			{
				"x": 0.8385482983,
				"y": -4.6834220909,
				"z": 0.108690596,
				"element": "H" 
			},
			{
				"x": 0.8171919397,
				"y": -2.7400348858,
				"z": 1.6316134681,
				"element": "H" 
			}
		],
		 "valence_orbital": [ 
			{
				"type": "occ",
				"energy": -0.3032,
				"method": "rhf"
			},
			{
				"type": "occ",
				"energy": -0.2974,
				"method": "rhf"
			},
			{
				"type": "occ",
				"energy": -0.26941,
				"method": "rhf"
			},
			{
				"type": "occ",
				"energy": -0.23843,
				"method": "rhf"
			},
			{
				"type": "occ",
				"energy": -0.2341,
				"method": "rhf"
			},
			{
				"type": "unocc",
				"energy": -0.00283,
				"method": "rhf"
			},
			{
				"type": "unocc",
				"energy": 0.00249,
				"method": "rhf"
			},
			{
				"type": "unocc",
				"energy": 0.01108,
				"method": "rhf"
			},
			{
				"type": "unocc",
				"energy": 0.06974,
				"method": "rhf"
			},
			{
				"type": "unocc",
				"energy": 0.08652,
				"method": "rhf"
			}
		],
		"cosmo_sigma_profile": { 
			"-0.025": 0.0,
			"-0.024": 0.0,
			"-0.023": 0.0,
			"-0.022": 0.0,
			"-0.021": 0.0,
			"-0.02": 0.0,
			"-0.019": 0.0,
			"-0.018": 0.497214138168,
			"-0.017": 0.574006134664,
			"-0.016": 1.10089327,
			"-0.015": 0.949088193406,
			"-0.014": 0.699227540377,
			"-0.013": 0.883139988369,
			"-0.012": 0.216994752014,
			"-0.011": 0.567858734421,
			"-0.01": 0.688712361419,
			"-0.009": 0.566100545807,
			"-0.008": 0.714431127254,
			"-0.007": 0.901390094685,
			"-0.006": 4.32469169181,
			"-0.005": 13.4933728699,
			"-0.004": 20.2730128545,
			"-0.003": 31.2807905679,
			"-0.002": 32.7131093869,
			"-0.001": 26.6214373084,
			"0.0": 24.0400985083,
			"0.001": 25.9577364328,
			"0.002": 14.7316289626,
			"0.003": 10.0125441872,
			"0.004": 8.27366420528,
			"0.005": 9.10457273074,
			"0.006": 8.46969138674,
			"0.007": 6.84329657088,
			"0.008": 3.63066987726,
			"0.009": 4.41570394914,
			"0.01": 2.70569512086,
			"0.011": 2.57046323133,
			"0.012": 4.92472195786,
			"0.013": 1.55351693272,
			"0.014": 0.0659772393816,
			"0.015": 0.0,
			"0.016": 0.0,
			"0.017": 0.0,
			"0.018": 0.0,
			"0.019": 0.0,
			"0.02": 0.0,
			"0.021": 0.0,
			"0.022": 0.0,
			"0.023": 0.0,
			"0.024": 0.0,
			"0.025": 0.0
		}
	}
}
