{
	 "smiles": "COC1=C(C(O)=O)C(OC)=C(SC)C=C1", 
	 "Tm": 391.15, 
	 "num_atms": 27, 
	 "gaussian": { 
		 "optdone": 1, 
		 "sigma_profile": "yes", 
		 "theory": "DFT", 
		 "functional": "B3LYP", 
		 "basiset": "6-31G**", 
		 "properties": { 
			 "R2extent": 3918.8768, 
			 "electric_dipole_moment_norm": 5.53361472276, 
			 "electric_quadrupole_moment_norm": 22.1614485149, 
			 "total_energy": -1087.35620063, 
			 "HOMO_LUMO_gap": 0.1753, 
			 "cosmo_polarized_energy": -15.42, 
			 "cosmo_cavitation_energy": 31.55, 
			 "cosmo_dispersion_energy": -23.21, 
			 "cosmo_repulsion_energy": 1.77, 
			 "cosmo_total_nonelectrostatic_energy": 10.11, 
			 "SMD_solvation_energy": 8.13 
		},
		"coords": [
			{
				"x": -3.7197424979,
				"y": -0.2095191248,
				"z": 0.6499504607,
				"element": "C" 
			},
			{
				"x": -2.3420514649,
				"y": 0.0575006251,
				"z": 0.9009607623,
				"element": "O" 
			},
			{
				"x": -1.4113404821,
				"y": -0.2245041722,
				"z": -0.0703581717,
				"element": "C" 
			},
			{
				"x": -0.0640971423,
				"y": 0.0838580552,
				"z": 0.2430301884,
				"element": "C" 
			},
			{
				"x": 0.3351548827,
				"y": 0.7386802444,
				"z": 1.5482483188,
				"element": "C" 
			},
			{
				"x": -0.4247034695,
				"y": 0.4608100582,
				"z": 2.6294320593,
				"element": "O" 
			},
			{
				"x": 1.2970876581,
				"y": 1.4627564135,
				"z": 1.6638843748,
				"element": "O" 
			},
			{
				"x": 0.9289760803,
				"y": -0.2297309423,
				"z": -0.7140624034,
				"element": "C" 
			},
			{
				"x": 2.2480454286,
				"y": -0.0410874948,
				"z": -0.4272148826,
				"element": "O" 
			},
			{
				"x": 2.8236210199,
				"y": 1.2049610763,
				"z": -0.8641161943,
				"element": "C" 
			},
			{
				"x": 0.5841211983,
				"y": -0.8463646122,
				"z": -1.9386181923,
				"element": "C" 
			},
			{
				"x": 1.8123432568,
				"y": -1.2568656472,
				"z": -3.1744536058,
				"element": "S" 
			},
			{
				"x": 2.8117432519,
				"y": -2.5226299524,
				"z": -2.3012542718,
				"element": "C" 
			},
			{
				"x": -0.7590778006,
				"y": -1.1025900696,
				"z": -2.2128196727,
				"element": "C" 
			},
			{
				"x": -1.7601748738,
				"y": -0.7871398497,
				"z": -1.29697585,
				"element": "C" 
			},
			{
				"x": -3.8936082121,
				"y": -1.2765543606,
				"z": 0.470455403,
				"element": "H" 
			},
			{
				"x": -4.0817814631,
				"y": 0.3719730665,
				"z": -0.2046266957,
				"element": "H" 
			},
			{
				"x": -4.2498759947,
				"y": 0.1009219093,
				"z": 1.5506280843,
				"element": "H" 
			},
			{
				"x": -1.2524798348,
				"y": 0.0350436288,
				"z": 2.3468647162,
				"element": "H" 
			},
			{
				"x": 3.8793187104,
				"y": 1.1503264668,
				"z": -0.594228544,
				"element": "H" 
			},
			{
				"x": 2.7283737788,
				"y": 1.3121426724,
				"z": -1.9491737241,
				"element": "H" 
			},
			{
				"x": 2.3547206344,
				"y": 2.0359419258,
				"z": -0.335143099,
				"element": "H" 
			},
			{
				"x": 3.2358184603,
				"y": -2.1007111238,
				"z": -1.390202153,
				"element": "H" 
			},
			{
				"x": 2.2077849451,
				"y": -3.403040687,
				"z": -2.0726750706,
				"element": "H" 
			},
			{
				"x": 3.6132763682,
				"y": -2.8037452899,
				"z": -2.9883986937,
				"element": "H" 
			},
			{
				"x": -1.0227087991,
				"y": -1.5708949388,
				"z": -3.1555630909,
				"element": "H" 
			},
			{
				"x": -2.792343639,
				"y": -1.0068378767,
				"z": -1.5375700521,
				"element": "H" 
			}
		],
		 "valence_orbital": [ 
			{
				"type": "occ",
				"energy": -0.27598,
				"method": "rhf"
			},
			{
				"type": "occ",
				"energy": -0.26419,
				"method": "rhf"
			},
			{
				"type": "occ",
				"energy": -0.25382,
				"method": "rhf"
			},
			{
				"type": "occ",
				"energy": -0.2522,
				"method": "rhf"
			},
			{
				"type": "occ",
				"energy": -0.21969,
				"method": "rhf"
			},
			{
				"type": "unocc",
				"energy": -0.04439,
				"method": "rhf"
			},
			{
				"type": "unocc",
				"energy": -0.01868,
				"method": "rhf"
			},
			{
				"type": "unocc",
				"energy": 0.03638,
				"method": "rhf"
			},
			{
				"type": "unocc",
				"energy": 0.05265,
				"method": "rhf"
			},
			{
				"type": "unocc",
				"energy": 0.07301,
				"method": "rhf"
			}
		],
		"cosmo_sigma_profile": { 
			"-0.025": 0.0,
			"-0.024": 0.0,
			"-0.023": 0.0,
			"-0.022": 0.0,
			"-0.021": 0.0,
			"-0.02": 0.0,
			"-0.019": 0.0,
			"-0.018": 0.0,
			"-0.017": 0.0,
			"-0.016": 0.0,
			"-0.015": 0.0,
			"-0.014": 0.0,
			"-0.013": 0.0,
			"-0.012": 0.187623947281,
			"-0.011": 0.5657610427,
			"-0.01": 0.761842986646,
			"-0.009": 1.49174554761,
			"-0.008": 2.76530238144,
			"-0.007": 9.56047375048,
			"-0.006": 16.3360076705,
			"-0.005": 18.5282794673,
			"-0.004": 18.9452888322,
			"-0.003": 20.3131050463,
			"-0.002": 23.6969366106,
			"-0.001": 20.1761768247,
			"0.0": 18.5319844781,
			"0.001": 19.9763309302,
			"0.002": 14.3352175425,
			"0.003": 12.6754698662,
			"0.004": 7.51698352364,
			"0.005": 6.9628246262,
			"0.006": 6.13084131614,
			"0.007": 5.47940485813,
			"0.008": 5.24265601529,
			"0.009": 4.61645939797,
			"0.01": 5.1155723165,
			"0.011": 6.02995243096,
			"0.012": 4.31365975024,
			"0.013": 2.13129554889,
			"0.014": 0.394003862174,
			"0.015": 0.0,
			"0.016": 0.0,
			"0.017": 0.0,
			"0.018": 0.0,
			"0.019": 0.0,
			"0.02": 0.0,
			"0.021": 0.0,
			"0.022": 0.0,
			"0.023": 0.0,
			"0.024": 0.0,
			"0.025": 0.0
		}
	}
}
