{
	 "smiles": "COC1=CC(O)=CC=C1O", 
	 "Tm": 362.65, 
	 "num_atms": 18, 
	 "gaussian": { 
		 "optdone": 1, 
		 "sigma_profile": "yes", 
		 "theory": "DFT", 
		 "functional": "B3LYP", 
		 "basiset": "6-31G**", 
		 "properties": { 
			 "R2extent": 1839.7342, 
			 "electric_dipole_moment_norm": 4.00931405106, 
			 "electric_quadrupole_moment_norm": 14.3333224519, 
			 "total_energy": -497.212985796, 
			 "HOMO_LUMO_gap": 0.19722, 
			 "cosmo_polarized_energy": -12.61, 
			 "cosmo_cavitation_energy": 21.83, 
			 "cosmo_dispersion_energy": -16.56, 
			 "cosmo_repulsion_energy": 1.35, 
			 "cosmo_total_nonelectrostatic_energy": 6.62, 
			 "SMD_solvation_energy": 5.14 
		},
		"coords": [
			{
				"x": 3.4798710646,
				"y": -1.83394389,
				"z": -1.020816761,
				"element": "C" 
			},
			{
				"x": 2.0878279992,
				"y": -2.0501011247,
				"z": -1.1817712641,
				"element": "O" 
			},
			{
				"x": 1.2155982562,
				"y": -1.1923316538,
				"z": -0.5542399932,
				"element": "C" 
			},
			{
				"x": 1.5808398094,
				"y": -0.1072253,
				"z": 0.2422319136,
				"element": "C" 
			},
			{
				"x": 0.5817434186,
				"y": 0.687650212,
				"z": 0.8232883258,
				"element": "C" 
			},
			{
				"x": 0.8805488191,
				"y": 1.767540052,
				"z": 1.6157826378,
				"element": "O" 
			},
			{
				"x": -0.7637358372,
				"y": 0.3948271297,
				"z": 0.6060083287,
				"element": "C" 
			},
			{
				"x": -1.116440172,
				"y": -0.6946074571,
				"z": -0.1936071196,
				"element": "C" 
			},
			{
				"x": -0.1403217406,
				"y": -1.4941471289,
				"z": -0.778134546,
				"element": "C" 
			},
			{
				"x": -0.4941072966,
				"y": -2.5588058199,
				"z": -1.5596414114,
				"element": "O" 
			},
			{
				"x": 3.7780634397,
				"y": -1.9107678624,
				"z": 0.0326254369,
				"element": "H" 
			},
			{
				"x": 3.979256783,
				"y": -2.6165324887,
				"z": -1.5938920878,
				"element": "H" 
			},
			{
				"x": 3.7805559077,
				"y": -0.8527698882,
				"z": -1.4099788628,
				"element": "H" 
			},
			{
				"x": 2.6269982911,
				"y": 0.1254720481,
				"z": 0.4148288916,
				"element": "H" 
			},
			{
				"x": 1.8393533096,
				"y": 1.8559625126,
				"z": 1.6822952865,
				"element": "H" 
			},
			{
				"x": -1.5208589237,
				"y": 1.0213373134,
				"z": 1.0640459409,
				"element": "H" 
			},
			{
				"x": -2.1584819879,
				"y": -0.9376855836,
				"z": -0.3738517701,
				"element": "H" 
			},
			{
				"x": 0.3282888599,
				"y": -2.9724710705,
				"z": -1.8615729459,
				"element": "H" 
			}
		],
		 "valence_orbital": [ 
			{
				"type": "occ",
				"energy": -0.33995,
				"method": "rhf"
			},
			{
				"type": "occ",
				"energy": -0.33846,
				"method": "rhf"
			},
			{
				"type": "occ",
				"energy": -0.2897,
				"method": "rhf"
			},
			{
				"type": "occ",
				"energy": -0.23532,
				"method": "rhf"
			},
			{
				"type": "occ",
				"energy": -0.18827,
				"method": "rhf"
			},
			{
				"type": "unocc",
				"energy": 0.00895,
				"method": "rhf"
			},
			{
				"type": "unocc",
				"energy": 0.03287,
				"method": "rhf"
			},
			{
				"type": "unocc",
				"energy": 0.06563,
				"method": "rhf"
			},
			{
				"type": "unocc",
				"energy": 0.08546,
				"method": "rhf"
			},
			{
				"type": "unocc",
				"energy": 0.09104,
				"method": "rhf"
			}
		],
		"cosmo_sigma_profile": { 
			"-0.025": 0.0,
			"-0.024": 0.0,
			"-0.023": 0.0,
			"-0.022": 0.0,
			"-0.021": 0.0,
			"-0.02": 0.0,
			"-0.019": 0.0,
			"-0.018": 0.108621079116,
			"-0.017": 0.966268728996,
			"-0.016": 1.1208112538,
			"-0.015": 1.14475086953,
			"-0.014": 1.6209880616,
			"-0.013": 1.11853303816,
			"-0.012": 1.90602210386,
			"-0.011": 1.19691515841,
			"-0.01": 1.88076071542,
			"-0.009": 1.63279611501,
			"-0.008": 2.23877085241,
			"-0.007": 2.47837395919,
			"-0.006": 9.04748318981,
			"-0.005": 14.3860978167,
			"-0.004": 13.5021840526,
			"-0.003": 12.5241066881,
			"-0.002": 7.8989397126,
			"-0.001": 7.63689173575,
			"0.0": 6.29262864472,
			"0.001": 7.77452415501,
			"0.002": 8.71295702085,
			"0.003": 9.94733357092,
			"0.004": 13.7343766853,
			"0.005": 15.6485303205,
			"0.006": 8.44766246438,
			"0.007": 3.16117909912,
			"0.008": 3.35482710705,
			"0.009": 2.96452129546,
			"0.01": 2.78137252002,
			"0.011": 3.84090973759,
			"0.012": 3.78119567813,
			"0.013": 0.214299521918,
			"0.014": 0.0,
			"0.015": 0.0,
			"0.016": 0.0,
			"0.017": 0.0,
			"0.018": 0.0,
			"0.019": 0.0,
			"0.02": 0.0,
			"0.021": 0.0,
			"0.022": 0.0,
			"0.023": 0.0,
			"0.024": 0.0,
			"0.025": 0.0
		}
	}
}
