{
	 "smiles": "CC1=CC(C(O)=O)=C(C)N1C1=CC(Br)=CC=C1", 
	 "Tm": 432.15, 
	 "num_atms": 29, 
	 "gaussian": { 
		 "optdone": 1, 
		 "sigma_profile": "yes", 
		 "theory": "DFT", 
		 "functional": "B3LYP", 
		 "basiset": "6-31G**", 
		 "properties": { 
			 "R2extent": 7870.1738, 
			 "electric_dipole_moment_norm": 7.02094602529, 
			 "electric_quadrupole_moment_norm": 23.4675393699, 
			 "total_energy": -3279.23073804, 
			 "HOMO_LUMO_gap": 0.17316, 
			 "cosmo_polarized_energy": -17.91, 
			 "cosmo_cavitation_energy": 35.67, 
			 "cosmo_dispersion_energy": -24.89, 
			 "cosmo_repulsion_energy": 1.95, 
			 "cosmo_total_nonelectrostatic_energy": 12.73, 
			 "SMD_solvation_energy": 6.05 
		},
		"coords": [
			{
				"x": -1.0038156673,
				"y": -0.3686462188,
				"z": -3.3331160489,
				"element": "C" 
			},
			{
				"x": -1.0071891376,
				"y": -0.8984904724,
				"z": -1.9349722483,
				"element": "C" 
			},
			{
				"x": -1.4363107635,
				"y": -2.1021951847,
				"z": -1.4430139386,
				"element": "C" 
			},
			{
				"x": -1.1638406334,
				"y": -2.1376260043,
				"z": -0.0404276288,
				"element": "C" 
			},
			{
				"x": -1.5353074332,
				"y": -3.2841704494,
				"z": 0.8114394579,
				"element": "C" 
			},
			{
				"x": -0.8705899083,
				"y": -3.4147504596,
				"z": 2.004001271,
				"element": "O" 
			},
			{
				"x": -2.3762821264,
				"y": -4.1000114693,
				"z": 0.5105412003,
				"element": "O" 
			},
			{
				"x": -0.5782724661,
				"y": -0.9233817729,
				"z": 0.3069113311,
				"element": "C" 
			},
			{
				"x": -0.1823598633,
				"y": -0.3531788365,
				"z": 1.6363961978,
				"element": "C" 
			},
			{
				"x": -0.4837365155,
				"y": -0.175892618,
				"z": -0.8559228131,
				"element": "N" 
			},
			{
				"x": 0.0508990043,
				"y": 1.1464142241,
				"z": -0.9398685979,
				"element": "C" 
			},
			{
				"x": -0.8139021363,
				"y": 2.2268533148,
				"z": -1.1467026126,
				"element": "C" 
			},
			{
				"x": -0.281161774,
				"y": 3.5111216226,
				"z": -1.2364801543,
				"element": "C" 
			},
			{
				"x": -1.4562722595,
				"y": 4.9881067811,
				"z": -1.5224322656,
				"element": "Br" 
			},
			{
				"x": 1.0891308628,
				"y": 3.7388751076,
				"z": -1.1131688142,
				"element": "C" 
			},
			{
				"x": 1.9381637436,
				"y": 2.6519203892,
				"z": -0.8999924914,
				"element": "C" 
			},
			{
				"x": 1.4279728685,
				"y": 1.3563323224,
				"z": -0.8179445176,
				"element": "C" 
			},
			{
				"x": -1.6316038332,
				"y": 0.5220411097,
				"z": -3.4512728814,
				"element": "H" 
			},
			{
				"x": 0.0045244823,
				"y": -0.0998935833,
				"z": -3.6699234159,
				"element": "H" 
			},
			{
				"x": -1.3886398467,
				"y": -1.1375388185,
				"z": -4.0066545557,
				"element": "H" 
			},
			{
				"x": -1.8894632872,
				"y": -2.9038269795,
				"z": -2.0075265028,
				"element": "H" 
			},
			{
				"x": -0.0967545082,
				"y": -2.8360596059,
				"z": 2.0050726705,
				"element": "H" 
			},
			{
				"x": -0.478912192,
				"y": 0.6969264575,
				"z": 1.7200255584,
				"element": "H" 
			},
			{
				"x": 0.9007310778,
				"y": -0.3904345688,
				"z": 1.8145404602,
				"element": "H" 
			},
			{
				"x": -0.6792717155,
				"y": -0.8965019467,
				"z": 2.443183675,
				"element": "H" 
			},
			{
				"x": -1.8815850082,
				"y": 2.0602447746,
				"z": -1.2262835118,
				"element": "H" 
			},
			{
				"x": 1.4826321643,
				"y": 4.7462563825,
				"z": -1.1832567547,
				"element": "H" 
			},
			{
				"x": 3.0067208372,
				"y": 2.8191902373,
				"z": -0.806227844,
				"element": "H" 
			},
			{
				"x": 2.0857960346,
				"y": 0.5063162652,
				"z": -0.6702242245,
				"element": "H" 
			}
		],
		 "valence_orbital": [ 
			{
				"type": "occ",
				"energy": -0.28809,
				"method": "rhf"
			},
			{
				"type": "occ",
				"energy": -0.26523,
				"method": "rhf"
			},
			{
				"type": "occ",
				"energy": -0.25915,
				"method": "rhf"
			},
			{
				"type": "occ",
				"energy": -0.24622,
				"method": "rhf"
			},
			{
				"type": "occ",
				"energy": -0.21639,
				"method": "rhf"
			},
			{
				"type": "unocc",
				"energy": -0.04323,
				"method": "rhf"
			},
			{
				"type": "unocc",
				"energy": -0.03869,
				"method": "rhf"
			},
			{
				"type": "unocc",
				"energy": -0.01251,
				"method": "rhf"
			},
			{
				"type": "unocc",
				"energy": -0.00686,
				"method": "rhf"
			},
			{
				"type": "unocc",
				"energy": 0.03507,
				"method": "rhf"
			}
		],
		"cosmo_sigma_profile": { 
			"-0.025": 0.0,
			"-0.024": 0.0,
			"-0.023": 0.0,
			"-0.022": 0.0,
			"-0.021": 0.0,
			"-0.02": 0.0,
			"-0.019": 0.0,
			"-0.018": 0.0,
			"-0.017": 0.234267951759,
			"-0.016": 0.509051403792,
			"-0.015": 1.04821725162,
			"-0.014": 0.521544347797,
			"-0.013": 0.66853645443,
			"-0.012": 0.97262825873,
			"-0.011": 1.40096436214,
			"-0.01": 1.01705326389,
			"-0.009": 0.879070588322,
			"-0.008": 2.96871190449,
			"-0.007": 7.86807521468,
			"-0.006": 13.047176933,
			"-0.005": 19.9232414607,
			"-0.004": 22.8737712558,
			"-0.003": 23.5240458779,
			"-0.002": 24.3898351776,
			"-0.001": 25.0496610011,
			"0.0": 20.8714640434,
			"0.001": 20.6996805162,
			"0.002": 21.3832500961,
			"0.003": 16.611738349,
			"0.004": 17.2792621862,
			"0.005": 8.26945358737,
			"0.006": 5.85898940679,
			"0.007": 3.33660131762,
			"0.008": 3.06087483265,
			"0.009": 2.77392704636,
			"0.01": 3.53541068476,
			"0.011": 4.99777144354,
			"0.012": 5.5710907048,
			"0.013": 5.21537590852,
			"0.014": 1.44768822285,
			"0.015": 0.0202427000049,
			"0.016": 0.0,
			"0.017": 0.0,
			"0.018": 0.0,
			"0.019": 0.0,
			"0.02": 0.0,
			"0.021": 0.0,
			"0.022": 0.0,
			"0.023": 0.0,
			"0.024": 0.0,
			"0.025": 0.0
		}
	}
}
