{
	 "smiles": "NCCCO", 
	 "Tm": 284.15, 
	 "num_atms": 14, 
	 "gaussian": { 
		 "optdone": 1, 
		 "sigma_profile": "yes", 
		 "theory": "DFT", 
		 "functional": "B3LYP", 
		 "basiset": "6-31G**", 
		 "properties": { 
			 "R2extent": 854.2161, 
			 "electric_dipole_moment_norm": 1.63614977921, 
			 "electric_quadrupole_moment_norm": 10.220134845, 
			 "total_energy": -249.703094509, 
			 "HOMO_LUMO_gap": 0.30611, 
			 "cosmo_polarized_energy": -10.16, 
			 "cosmo_cavitation_energy": 16.65, 
			 "cosmo_dispersion_energy": -12.46, 
			 "cosmo_repulsion_energy": 1.14, 
			 "cosmo_total_nonelectrostatic_energy": 5.33, 
			 "SMD_solvation_energy": 1.52 
		},
		"coords": [
			{
				"x": -1.7171124293,
				"y": -0.1769522467,
				"z": -0.6593199845,
				"element": "N" 
			},
			{
				"x": -0.3755892056,
				"y": -0.0826094642,
				"z": -0.0782681738,
				"element": "C" 
			},
			{
				"x": -0.1490123062,
				"y": 1.0634939067,
				"z": 0.9221892283,
				"element": "C" 
			},
			{
				"x": 1.2704034347,
				"y": 1.0971200199,
				"z": 1.4930926679,
				"element": "C" 
			},
			{
				"x": 1.4971258173,
				"y": 2.198723152,
				"z": 2.3631289599,
				"element": "O" 
			},
			{
				"x": -2.4063589348,
				"y": -0.2815292211,
				"z": 0.0825711827,
				"element": "H" 
			},
			{
				"x": -1.9471303265,
				"y": 0.6941077752,
				"z": -1.1333257898,
				"element": "H" 
			},
			{
				"x": -0.1537565746,
				"y": -1.0423030718,
				"z": 0.4065294249,
				"element": "H" 
			},
			{
				"x": 0.3400955652,
				"y": 0.0107518424,
				"z": -0.9053109601,
				"element": "H" 
			},
			{
				"x": -0.8693845611,
				"y": 0.9658073626,
				"z": 1.7494453595,
				"element": "H" 
			},
			{
				"x": -0.3549417953,
				"y": 2.0277106076,
				"z": 0.4392183078,
				"element": "H" 
			},
			{
				"x": 1.4969444003,
				"y": 0.1400900901,
				"z": 1.9925671266,
				"element": "H" 
			},
			{
				"x": 1.9974052771,
				"y": 1.2108000281,
				"z": 0.6811521975,
				"element": "H" 
			},
			{
				"x": 0.892511639,
				"y": 2.1095892192,
				"z": 3.1111304532,
				"element": "H" 
			}
		],
		 "valence_orbital": [ 
			{
				"type": "occ",
				"energy": -0.36138,
				"method": "rhf"
			},
			{
				"type": "occ",
				"energy": -0.34111,
				"method": "rhf"
			},
			{
				"type": "occ",
				"energy": -0.32365,
				"method": "rhf"
			},
			{
				"type": "occ",
				"energy": -0.27143,
				"method": "rhf"
			},
			{
				"type": "occ",
				"energy": -0.23036,
				"method": "rhf"
			},
			{
				"type": "unocc",
				"energy": 0.07575,
				"method": "rhf"
			},
			{
				"type": "unocc",
				"energy": 0.08131,
				"method": "rhf"
			},
			{
				"type": "unocc",
				"energy": 0.11152,
				"method": "rhf"
			},
			{
				"type": "unocc",
				"energy": 0.12077,
				"method": "rhf"
			},
			{
				"type": "unocc",
				"energy": 0.14184,
				"method": "rhf"
			}
		],
		"cosmo_sigma_profile": { 
			"-0.025": 0.0,
			"-0.024": 0.0,
			"-0.023": 0.0,
			"-0.022": 0.0,
			"-0.021": 0.0,
			"-0.02": 0.0,
			"-0.019": 0.0,
			"-0.018": 0.0,
			"-0.017": 0.0,
			"-0.016": 0.0,
			"-0.015": 0.610487634538,
			"-0.014": 1.04976661423,
			"-0.013": 1.07716648667,
			"-0.012": 0.645556118313,
			"-0.011": 1.1155002916,
			"-0.01": 0.94869247588,
			"-0.009": 2.7979782807,
			"-0.008": 3.3404736285,
			"-0.007": 4.79145607812,
			"-0.006": 3.91263893472,
			"-0.005": 3.93698149244,
			"-0.004": 7.24591674774,
			"-0.003": 19.6644820774,
			"-0.002": 16.7476311774,
			"-0.001": 12.0157838602,
			"0.0": 7.67901012195,
			"0.001": 5.21947320317,
			"0.002": 2.32059143233,
			"0.003": 2.73907825543,
			"0.004": 2.83374370755,
			"0.005": 2.78548421754,
			"0.006": 1.69970271187,
			"0.007": 1.31879465761,
			"0.008": 1.8319370903,
			"0.009": 2.98329837538,
			"0.01": 1.36460783105,
			"0.011": 1.67999051485,
			"0.012": 2.39756900549,
			"0.013": 2.28323256849,
			"0.014": 3.07042865436,
			"0.015": 2.36666764046,
			"0.016": 0.273880759993,
			"0.017": 0.910385042915,
			"0.018": 0.744145877038,
			"0.019": 0.584624134607,
			"0.02": 0.484822413818,
			"0.021": 0.0592713222901,
			"0.022": 0.0,
			"0.023": 0.0,
			"0.024": 0.0,
			"0.025": 0.0
		}
	}
}
