{
	 "smiles": "O[C@@H]([C@@H]1CCC2=C(C=CC=C2)C1=O)C1=CC=C(Cl)C=C1Cl", 
	 "Tm": 445.15, 
	 "num_atms": 35, 
	 "gaussian": { 
		 "optdone": 1, 
		 "sigma_profile": "yes", 
		 "theory": "DFT", 
		 "functional": "B3LYP", 
		 "basiset": "6-31G**", 
		 "properties": { 
			 "R2extent": 9361.003, 
			 "electric_dipole_moment_norm": 3.7794332247, 
			 "electric_quadrupole_moment_norm": 9.17194933043, 
			 "total_energy": -1727.0860509, 
			 "HOMO_LUMO_gap": 0.18048, 
			 "cosmo_polarized_energy": -13.41, 
			 "cosmo_cavitation_energy": 41.03, 
			 "cosmo_dispersion_energy": -29.31, 
			 "cosmo_repulsion_energy": 2.23, 
			 "cosmo_total_nonelectrostatic_energy": 13.96, 
			 "SMD_solvation_energy": 6.13 
		},
		"coords": [
			{
				"x": -0.7414534153,
				"y": 0.0726883152,
				"z": 3.2702892498,
				"element": "O" 
			},
			{
				"x": -0.6952418053,
				"y": 0.1879265734,
				"z": 1.8418099995,
				"element": "C" 
			},
			{
				"x": 0.2151073473,
				"y": -0.9639628153,
				"z": 1.3684124702,
				"element": "C" 
			},
			{
				"x": 1.5591924797,
				"y": -1.0099932042,
				"z": 2.1214311764,
				"element": "C" 
			},
			{
				"x": 2.3456364987,
				"y": -2.2637683386,
				"z": 1.7260877168,
				"element": "C" 
			},
			{
				"x": 2.5051517218,
				"y": -2.398356322,
				"z": 0.2274228371,
				"element": "C" 
			},
			{
				"x": 1.6026920876,
				"y": -1.7624880504,
				"z": -0.6485534865,
				"element": "C" 
			},
			{
				"x": 1.7605386239,
				"y": -1.8865082942,
				"z": -2.0389400159,
				"element": "C" 
			},
			{
				"x": 2.7966774105,
				"y": -2.6462731693,
				"z": -2.5660721261,
				"element": "C" 
			},
			{
				"x": 3.6942245877,
				"y": -3.2821030448,
				"z": -1.7002531629,
				"element": "C" 
			},
			{
				"x": 3.5494785719,
				"y": -3.1538494382,
				"z": -0.3202630883,
				"element": "C" 
			},
			{
				"x": 0.4682239735,
				"y": -0.9336031401,
				"z": -0.1390348859,
				"element": "C" 
			},
			{
				"x": -0.2261152969,
				"y": -0.2748693021,
				"z": -0.8998581809,
				"element": "O" 
			},
			{
				"x": -2.1119658045,
				"y": 0.1380789189,
				"z": 1.2837980225,
				"element": "C" 
			},
			{
				"x": -2.9377759455,
				"y": -0.9387742217,
				"z": 1.6398021734,
				"element": "C" 
			},
			{
				"x": -4.256585641,
				"y": -1.0433919369,
				"z": 1.2090896133,
				"element": "C" 
			},
			{
				"x": -4.7784188821,
				"y": -0.0300959173,
				"z": 0.4065753204,
				"element": "C" 
			},
			{
				"x": -6.4394066768,
				"y": -0.1312096739,
				"z": -0.1540801088,
				"element": "Cl" 
			},
			{
				"x": -4.007370084,
				"y": 1.0717825103,
				"z": 0.0490186178,
				"element": "C" 
			},
			{
				"x": -2.6867966352,
				"y": 1.1455007077,
				"z": 0.4961862266,
				"element": "C" 
			},
			{
				"x": -1.779306401,
				"y": 2.5809405394,
				"z": 0.0368751989,
				"element": "Cl" 
			},
			{
				"x": -1.3161862122,
				"y": 0.7757473962,
				"z": 3.6003866203,
				"element": "H" 
			},
			{
				"x": -0.2278919745,
				"y": 1.1355857871,
				"z": 1.5507363826,
				"element": "H" 
			},
			{
				"x": -0.305204324,
				"y": -1.9134592306,
				"z": 1.5746451864,
				"element": "H" 
			},
			{
				"x": 2.143659247,
				"y": -0.11220134,
				"z": 1.8787687147,
				"element": "H" 
			},
			{
				"x": 1.373231937,
				"y": -0.9935233408,
				"z": 3.1965479756,
				"element": "H" 
			},
			{
				"x": 3.3314800183,
				"y": -2.2661706337,
				"z": 2.2046288889,
				"element": "H" 
			},
			{
				"x": 1.81992439,
				"y": -3.1505233211,
				"z": 2.1123270338,
				"element": "H" 
			},
			{
				"x": 1.050083291,
				"y": -1.3734789854,
				"z": -2.6787806726,
				"element": "H" 
			},
			{
				"x": 2.912278072,
				"y": -2.7437211904,
				"z": -3.6413924287,
				"element": "H" 
			},
			{
				"x": 4.5126432715,
				"y": -3.8722015888,
				"z": -2.1034193909,
				"element": "H" 
			},
			{
				"x": 4.2590194684,
				"y": -3.639824097,
				"z": 0.3450059469,
				"element": "H" 
			},
			{
				"x": -2.5308458124,
				"y": -1.7068984815,
				"z": 2.2903272829,
				"element": "H" 
			},
			{
				"x": -4.8717651015,
				"y": -1.8894790415,
				"z": 1.4932143179,
				"element": "H" 
			},
			{
				"x": -4.4212129856,
				"y": 1.8622773714,
				"z": -0.5644394254,
				"element": "H" 
			}
		],
		 "valence_orbital": [ 
			{
				"type": "occ",
				"energy": -0.25867,
				"method": "rhf"
			},
			{
				"type": "occ",
				"energy": -0.257,
				"method": "rhf"
			},
			{
				"type": "occ",
				"energy": -0.2539,
				"method": "rhf"
			},
			{
				"type": "occ",
				"energy": -0.25139,
				"method": "rhf"
			},
			{
				"type": "occ",
				"energy": -0.23641,
				"method": "rhf"
			},
			{
				"type": "unocc",
				"energy": -0.05593,
				"method": "rhf"
			},
			{
				"type": "unocc",
				"energy": -0.02394,
				"method": "rhf"
			},
			{
				"type": "unocc",
				"energy": -0.01901,
				"method": "rhf"
			},
			{
				"type": "unocc",
				"energy": -0.01018,
				"method": "rhf"
			},
			{
				"type": "unocc",
				"energy": 0.01194,
				"method": "rhf"
			}
		],
		"cosmo_sigma_profile": { 
			"-0.025": 0.0,
			"-0.024": 0.0,
			"-0.023": 0.0,
			"-0.022": 0.0,
			"-0.021": 0.0,
			"-0.02": 0.0,
			"-0.019": 0.0,
			"-0.018": 0.0,
			"-0.017": 0.0,
			"-0.016": 0.470956971902,
			"-0.015": 1.03860004638,
			"-0.014": 0.908042402547,
			"-0.013": 0.90426540275,
			"-0.012": 0.659883828621,
			"-0.011": 1.10287001835,
			"-0.01": 0.639711395384,
			"-0.009": 1.03695156373,
			"-0.008": 2.76420445916,
			"-0.007": 6.0639776347,
			"-0.006": 15.8818522289,
			"-0.005": 21.3202090354,
			"-0.004": 24.3803603579,
			"-0.003": 23.7259688592,
			"-0.002": 26.8542713955,
			"-0.001": 23.2879761074,
			"0.0": 22.3625328667,
			"0.001": 29.0472737594,
			"0.002": 29.4530329351,
			"0.003": 28.9119274807,
			"0.004": 30.2396466851,
			"0.005": 13.1057867754,
			"0.006": 4.03309663511,
			"0.007": 4.13672052654,
			"0.008": 4.06860668613,
			"0.009": 3.80822634022,
			"0.01": 5.00915253202,
			"0.011": 3.00993140141,
			"0.012": 2.33041615994,
			"0.013": 0.279278344424,
			"0.014": 0.0,
			"0.015": 0.0,
			"0.016": 0.0,
			"0.017": 0.0,
			"0.018": 0.0,
			"0.019": 0.0,
			"0.02": 0.0,
			"0.021": 0.0,
			"0.022": 0.0,
			"0.023": 0.0,
			"0.024": 0.0,
			"0.025": 0.0
		}
	}
}
