{
	 "smiles": "NC1=C(C(=O)CN1NC(=O)C1=CC=CS1)C1=NC2=C(N1)C=CC=C2", 
	 "Tm": 544.15, 
	 "num_atms": 37, 
	 "gaussian": { 
		 "optdone": 1, 
		 "sigma_profile": "yes", 
		 "theory": "DFT", 
		 "functional": "B3LYP", 
		 "basiset": "6-31G**", 
		 "properties": { 
			 "R2extent": 13294.6952, 
			 "electric_dipole_moment_norm": 9.48518590118, 
			 "electric_quadrupole_moment_norm": 38.3491244159, 
			 "total_energy": -1439.90486579, 
			 "HOMO_LUMO_gap": 0.12536, 
			 "cosmo_polarized_energy": -37.72, 
			 "cosmo_cavitation_energy": 44.11, 
			 "cosmo_dispersion_energy": -32.37, 
			 "cosmo_repulsion_energy": 2.39, 
			 "cosmo_total_nonelectrostatic_energy": 14.14, 
			 "SMD_solvation_energy": 5.94 
		},
		"coords": [
			{
				"x": 0.3565284922,
				"y": 0.4173833799,
				"z": 0.1180171015,
				"element": "N" 
			},
			{
				"x": 0.2926638797,
				"y": -0.8045438754,
				"z": -0.4728289584,
				"element": "C" 
			},
			{
				"x": -0.4567666877,
				"y": -1.9162561241,
				"z": -0.1279772061,
				"element": "C" 
			},
			{
				"x": -0.1749115586,
				"y": -2.9734936815,
				"z": -1.0929050273,
				"element": "C" 
			},
			{
				"x": -0.5903588363,
				"y": -4.115299613,
				"z": -1.163675308,
				"element": "O" 
			},
			{
				"x": 0.8221625461,
				"y": -2.3702719359,
				"z": -2.1121666794,
				"element": "C" 
			},
			{
				"x": 1.1180290767,
				"y": -1.0410100506,
				"z": -1.5759425268,
				"element": "N" 
			},
			{
				"x": 1.3724278801,
				"y": -0.0329649254,
				"z": -2.5003298395,
				"element": "N" 
			},
			{
				"x": 2.3299129348,
				"y": 0.9333596583,
				"z": -2.2684721275,
				"element": "C" 
			},
			{
				"x": 2.8851284872,
				"y": 1.0746005188,
				"z": -1.180030736,
				"element": "O" 
			},
			{
				"x": 2.6096547654,
				"y": 1.8061866708,
				"z": -3.422905695,
				"element": "C" 
			},
			{
				"x": 2.3483935963,
				"y": 1.6293711642,
				"z": -4.7655250734,
				"element": "C" 
			},
			{
				"x": 2.8030679038,
				"y": 2.7127324112,
				"z": -5.5640825811,
				"element": "C" 
			},
			{
				"x": 3.4082863295,
				"y": 3.6922044967,
				"z": -4.8165555829,
				"element": "C" 
			},
			{
				"x": 3.442279173,
				"y": 3.3091952453,
				"z": -3.1347016057,
				"element": "S" 
			},
			{
				"x": -1.3090215974,
				"y": -2.0249204648,
				"z": 1.0445725943,
				"element": "C" 
			},
			{
				"x": -1.4715736529,
				"y": -3.0814740275,
				"z": 1.8058831308,
				"element": "N" 
			},
			{
				"x": -2.3832004263,
				"y": -2.6991396237,
				"z": 2.7787708805,
				"element": "C" 
			},
			{
				"x": -2.7768626858,
				"y": -1.3515324457,
				"z": 2.5955258685,
				"element": "C" 
			},
			{
				"x": -2.0479672577,
				"y": -0.9213173685,
				"z": 1.4941579213,
				"element": "N" 
			},
			{
				"x": -3.6940890567,
				"y": -0.7155716324,
				"z": 3.4315754321,
				"element": "C" 
			},
			{
				"x": -4.2195369723,
				"y": -1.4728867902,
				"z": 4.4780953047,
				"element": "C" 
			},
			{
				"x": -3.8329196636,
				"y": -2.8118902271,
				"z": 4.6818855978,
				"element": "C" 
			},
			{
				"x": -2.9155421041,
				"y": -3.438153559,
				"z": 3.8426869281,
				"element": "C" 
			},
			{
				"x": 1.2523745062,
				"y": 0.8893410649,
				"z": -0.0066351086,
				"element": "H" 
			},
			{
				"x": -0.0276769432,
				"y": 0.4567193249,
				"z": 1.0535730581,
				"element": "H" 
			},
			{
				"x": 1.7246626155,
				"y": -2.9815503063,
				"z": -2.1980516865,
				"element": "H" 
			},
			{
				"x": 0.3488467899,
				"y": -2.3059773324,
				"z": -3.1003831472,
				"element": "H" 
			},
			{
				"x": 0.6693507339,
				"y": 0.1313055184,
				"z": -3.2144764905,
				"element": "H" 
			},
			{
				"x": 1.8765350725,
				"y": 0.7414808295,
				"z": -5.1716676032,
				"element": "H" 
			},
			{
				"x": 2.6952428424,
				"y": 2.7594888318,
				"z": -6.6413017769,
				"element": "H" 
			},
			{
				"x": 3.844747734,
				"y": 4.6178774147,
				"z": -5.1667658285,
				"element": "H" 
			},
			{
				"x": -2.2913031704,
				"y": -0.1323671448,
				"z": 0.9128347676,
				"element": "H" 
			},
			{
				"x": -3.9912792367,
				"y": 0.3181397709,
				"z": 3.2798179719,
				"element": "H" 
			},
			{
				"x": -4.9410610495,
				"y": -1.0188710104,
				"z": 5.1510097131,
				"element": "H" 
			},
			{
				"x": -4.2631182952,
				"y": -3.3646528282,
				"z": 5.5119286895,
				"element": "H" 
			},
			{
				"x": -2.6154061651,
				"y": -4.4701413338,
				"z": 3.9920456287,
				"element": "H" 
			}
		],
		 "valence_orbital": [ 
			{
				"type": "occ",
				"energy": -0.25931,
				"method": "rhf"
			},
			{
				"type": "occ",
				"energy": -0.24336,
				"method": "rhf"
			},
			{
				"type": "occ",
				"energy": -0.22992,
				"method": "rhf"
			},
			{
				"type": "occ",
				"energy": -0.2206,
				"method": "rhf"
			},
			{
				"type": "occ",
				"energy": -0.19821,
				"method": "rhf"
			},
			{
				"type": "unocc",
				"energy": -0.07285,
				"method": "rhf"
			},
			{
				"type": "unocc",
				"energy": -0.0284,
				"method": "rhf"
			},
			{
				"type": "unocc",
				"energy": -0.0097,
				"method": "rhf"
			},
			{
				"type": "unocc",
				"energy": 0.00603,
				"method": "rhf"
			},
			{
				"type": "unocc",
				"energy": 0.01446,
				"method": "rhf"
			}
		],
		"cosmo_sigma_profile": { 
			"-0.025": 0.0,
			"-0.024": 0.0,
			"-0.023": 0.0,
			"-0.022": 0.0,
			"-0.021": 0.0,
			"-0.02": 0.0,
			"-0.019": 0.0,
			"-0.018": 0.0,
			"-0.017": 0.0207867674562,
			"-0.016": 1.5333278836,
			"-0.015": 3.05840784395,
			"-0.014": 2.87239033802,
			"-0.013": 3.91705244999,
			"-0.012": 4.20413416412,
			"-0.011": 5.15673758647,
			"-0.01": 5.32567556841,
			"-0.009": 7.96945551873,
			"-0.008": 9.30110093605,
			"-0.007": 12.8251480889,
			"-0.006": 15.0502579547,
			"-0.005": 19.6726329009,
			"-0.004": 20.2139771406,
			"-0.003": 20.5335307043,
			"-0.002": 18.0906161839,
			"-0.001": 18.0322622908,
			"0.0": 20.2546671919,
			"0.001": 21.2279406991,
			"0.002": 26.2523597723,
			"0.003": 25.1273291965,
			"0.004": 18.4596827697,
			"0.005": 14.1833768581,
			"0.006": 13.4609100383,
			"0.007": 6.1746594832,
			"0.008": 4.07484306562,
			"0.009": 5.43483095365,
			"0.01": 3.78356302534,
			"0.011": 5.71623031609,
			"0.012": 5.91941823607,
			"0.013": 6.40370740633,
			"0.014": 4.51348569608,
			"0.015": 2.90096209011,
			"0.016": 1.71677273599,
			"0.017": 1.8763872536,
			"0.018": 1.19176181617,
			"0.019": 0.0345582678938,
			"0.02": 0.0,
			"0.021": 0.0,
			"0.022": 0.0,
			"0.023": 0.0,
			"0.024": 0.0,
			"0.025": 0.0
		}
	}
}
