{
	 "smiles": "CCOC(=O)C1=CC2=C(OC1=O)C1=C3N(CCCC3=C2)CCC1", 
	 "Tm": 415.15, 
	 "num_atms": 42, 
	 "gaussian": { 
		 "optdone": 1, 
		 "sigma_profile": "yes", 
		 "theory": "DFT", 
		 "functional": "B3LYP", 
		 "basiset": "6-31G**", 
		 "properties": { 
			 "R2extent": 9985.4723, 
			 "electric_dipole_moment_norm": 9.12537222528, 
			 "electric_quadrupole_moment_norm": 29.9439262387, 
			 "total_energy": -1053.05662809, 
			 "HOMO_LUMO_gap": 0.1319, 
			 "cosmo_polarized_energy": -21.22, 
			 "cosmo_cavitation_energy": 43.22, 
			 "cosmo_dispersion_energy": -31.79, 
			 "cosmo_repulsion_energy": 2.41, 
			 "cosmo_total_nonelectrostatic_energy": 13.84, 
			 "SMD_solvation_energy": 7.33 
		},
		"coords": [
			{
				"x": -2.3950217796,
				"y": -5.6761328486,
				"z": 2.5036964286,
				"element": "C" 
			},
			{
				"x": -3.1349423084,
				"y": -4.8922590181,
				"z": 1.4292516634,
				"element": "C" 
			},
			{
				"x": -2.3653263079,
				"y": -3.7571457377,
				"z": 0.9773269267,
				"element": "O" 
			},
			{
				"x": -1.4503411344,
				"y": -4.0069971247,
				"z": -0.0063673735,
				"element": "C" 
			},
			{
				"x": -1.2843781203,
				"y": -5.1073309229,
				"z": -0.4869533897,
				"element": "O" 
			},
			{
				"x": -0.7245320068,
				"y": -2.7655748916,
				"z": -0.3827920103,
				"element": "C" 
			},
			{
				"x": -1.012699177,
				"y": -1.5637394263,
				"z": 0.2124396562,
				"element": "C" 
			},
			{
				"x": -0.3380461793,
				"y": -0.3634751964,
				"z": -0.1307747656,
				"element": "C" 
			},
			{
				"x": 0.6606054309,
				"y": -0.4294844279,
				"z": -1.1231966045,
				"element": "C" 
			},
			{
				"x": 0.9580485774,
				"y": -1.6174648324,
				"z": -1.7144433957,
				"element": "O" 
			},
			{
				"x": 0.3174983627,
				"y": -2.8429456516,
				"z": -1.4132383603,
				"element": "C" 
			},
			{
				"x": 0.6995921298,
				"y": -3.8020797756,
				"z": -2.0306967024,
				"element": "O" 
			},
			{
				"x": 1.3800586342,
				"y": 0.6874210936,
				"z": -1.5449574596,
				"element": "C" 
			},
			{
				"x": 1.0979692562,
				"y": 1.9385512314,
				"z": -0.9382923593,
				"element": "C" 
			},
			{
				"x": 1.7728364817,
				"y": 3.0738465159,
				"z": -1.3502177369,
				"element": "N" 
			},
			{
				"x": 1.6283881765,
				"y": 4.3367500908,
				"z": -0.6316040707,
				"element": "C" 
			},
			{
				"x": 0.1998109841,
				"y": 4.5304073838,
				"z": -0.1327406556,
				"element": "C" 
			},
			{
				"x": -0.1868375533,
				"y": 3.354037745,
				"z": 0.7639790301,
				"element": "C" 
			},
			{
				"x": 0.0944479901,
				"y": 2.0297661402,
				"z": 0.0831742862,
				"element": "C" 
			},
			{
				"x": -0.5974586688,
				"y": 0.8944034722,
				"z": 0.4504410422,
				"element": "C" 
			},
			{
				"x": 2.9443673871,
				"y": 2.9573453714,
				"z": -2.2157662192,
				"element": "C" 
			},
			{
				"x": 2.7307622814,
				"y": 1.8896528821,
				"z": -3.284405962,
				"element": "C" 
			},
			{
				"x": 2.4298320532,
				"y": 0.5431724282,
				"z": -2.6253961399,
				"element": "C" 
			},
			{
				"x": -3.0315978157,
				"y": -6.4838066456,
				"z": 2.8808122587,
				"element": "H" 
			},
			{
				"x": -2.1270599022,
				"y": -5.0289763571,
				"z": 3.3444290238,
				"element": "H" 
			},
			{
				"x": -1.4848168883,
				"y": -6.119778783,
				"z": 2.0934793323,
				"element": "H" 
			},
			{
				"x": -3.3649801161,
				"y": -5.5280096168,
				"z": 0.5709467,
				"element": "H" 
			},
			{
				"x": -4.0599829924,
				"y": -4.4577283408,
				"z": 1.8174764615,
				"element": "H" 
			},
			{
				"x": -1.7861107057,
				"y": -1.5322790603,
				"z": 0.9729594573,
				"element": "H" 
			},
			{
				"x": 2.3316705313,
				"y": 4.3875827946,
				"z": 0.2177164256,
				"element": "H" 
			},
			{
				"x": 1.9049755962,
				"y": 5.1423486054,
				"z": -1.3205276988,
				"element": "H" 
			},
			{
				"x": 0.1270522089,
				"y": 5.4781613595,
				"z": 0.4104552656,
				"element": "H" 
			},
			{
				"x": -0.4770621716,
				"y": 4.5894736703,
				"z": -0.9929982575,
				"element": "H" 
			},
			{
				"x": 0.3841481963,
				"y": 3.4179935163,
				"z": 1.7017158945,
				"element": "H" 
			},
			{
				"x": -1.2441285805,
				"y": 3.4098406775,
				"z": 1.0447599889,
				"element": "H" 
			},
			{
				"x": -1.3635214481,
				"y": 0.9646955717,
				"z": 1.2195191922,
				"element": "H" 
			},
			{
				"x": 3.1123069814,
				"y": 3.9357083351,
				"z": -2.6783433494,
				"element": "H" 
			},
			{
				"x": 3.8447640346,
				"y": 2.7232386259,
				"z": -1.6224631705,
				"element": "H" 
			},
			{
				"x": 1.8942947606,
				"y": 2.1917102775,
				"z": -3.9253034296,
				"element": "H" 
			},
			{
				"x": 3.6206558257,
				"y": 1.8206524954,
				"z": -3.9182037161,
				"element": "H" 
			},
			{
				"x": 2.0950738499,
				"y": -0.1880632491,
				"z": -3.3664453617,
				"element": "H" 
			},
			{
				"x": 3.3498841258,
				"y": 0.1258116226,
				"z": -2.192750845,
				"element": "H" 
			}
		],
		 "valence_orbital": [ 
			{
				"type": "occ",
				"energy": -0.27312,
				"method": "rhf"
			},
			{
				"type": "occ",
				"energy": -0.26658,
				"method": "rhf"
			},
			{
				"type": "occ",
				"energy": -0.24407,
				"method": "rhf"
			},
			{
				"type": "occ",
				"energy": -0.23147,
				"method": "rhf"
			},
			{
				"type": "occ",
				"energy": -0.19801,
				"method": "rhf"
			},
			{
				"type": "unocc",
				"energy": -0.06611,
				"method": "rhf"
			},
			{
				"type": "unocc",
				"energy": -0.00819,
				"method": "rhf"
			},
			{
				"type": "unocc",
				"energy": 0.01485,
				"method": "rhf"
			},
			{
				"type": "unocc",
				"energy": 0.03077,
				"method": "rhf"
			},
			{
				"type": "unocc",
				"energy": 0.06989,
				"method": "rhf"
			}
		],
		"cosmo_sigma_profile": { 
			"-0.025": 0.0,
			"-0.024": 0.0,
			"-0.023": 0.0,
			"-0.022": 0.0,
			"-0.021": 0.0,
			"-0.02": 0.0,
			"-0.019": 0.0,
			"-0.018": 0.0,
			"-0.017": 0.0,
			"-0.016": 0.0,
			"-0.015": 0.0,
			"-0.014": 0.0,
			"-0.013": 0.0,
			"-0.012": 0.0,
			"-0.011": 0.0,
			"-0.01": 0.0,
			"-0.009": 0.0,
			"-0.008": 1.21903675,
			"-0.007": 2.8305963795,
			"-0.006": 6.50108061591,
			"-0.005": 12.5205563963,
			"-0.004": 39.3405355695,
			"-0.003": 52.0808100328,
			"-0.002": 49.3203310355,
			"-0.001": 38.8595051484,
			"0.0": 33.7650843822,
			"0.001": 21.1715092719,
			"0.002": 15.5663302812,
			"0.003": 15.2349551636,
			"0.004": 7.85332139708,
			"0.005": 5.29881154237,
			"0.006": 3.32638226209,
			"0.007": 2.73571444765,
			"0.008": 2.55950242761,
			"0.009": 3.27562221874,
			"0.01": 3.21526990692,
			"0.011": 4.45236815126,
			"0.012": 8.93593225148,
			"0.013": 4.62579507929,
			"0.014": 2.38882779677,
			"0.015": 1.53165642827,
			"0.016": 1.22728872425,
			"0.017": 0.857312698107,
			"0.018": 0.0912762251952,
			"0.019": 0.0,
			"0.02": 0.0,
			"0.021": 0.0,
			"0.022": 0.0,
			"0.023": 0.0,
			"0.024": 0.0,
			"0.025": 0.0
		}
	}
}
