{
	 "smiles": "NC(CCC(O)=O)C=C", 
	 "Tm": 482.15, 
	 "num_atms": 20, 
	 "gaussian": { 
		 "optdone": 1, 
		 "sigma_profile": "yes", 
		 "theory": "DFT", 
		 "functional": "B3LYP", 
		 "basiset": "6-31G**", 
		 "properties": { 
			 "R2extent": 1951.698, 
			 "electric_dipole_moment_norm": 7.10947286372, 
			 "electric_quadrupole_moment_norm": 23.7859049143, 
			 "total_energy": -440.459718244, 
			 "HOMO_LUMO_gap": 0.22428, 
			 "cosmo_polarized_energy": -16.91, 
			 "cosmo_cavitation_energy": 22.83, 
			 "cosmo_dispersion_energy": -16.44, 
			 "cosmo_repulsion_energy": 1.37, 
			 "cosmo_total_nonelectrostatic_energy": 7.76, 
			 "SMD_solvation_energy": 5.61 
		},
		"coords": [
			{
				"x": -1.6036262973,
				"y": -1.0086181522,
				"z": 1.7275407784,
				"element": "N" 
			},
			{
				"x": -0.337521753,
				"y": -0.3918100907,
				"z": 1.2612761522,
				"element": "C" 
			},
			{
				"x": -0.2627386383,
				"y": -0.4674486132,
				"z": -0.28345295,
				"element": "C" 
			},
			{
				"x": -1.23311416,
				"y": 0.412673607,
				"z": -1.1036923093,
				"element": "C" 
			},
			{
				"x": -2.6690775001,
				"y": -0.078759066,
				"z": -1.3400194147,
				"element": "C" 
			},
			{
				"x": -3.3465950003,
				"y": -0.5582146466,
				"z": -0.2895008655,
				"element": "O" 
			},
			{
				"x": -3.1829230478,
				"y": 0.006620022,
				"z": -2.4347986688,
				"element": "O" 
			},
			{
				"x": -0.262986494,
				"y": 1.0180515605,
				"z": 1.7921848166,
				"element": "C" 
			},
			{
				"x": 0.7882363243,
				"y": 1.5211197083,
				"z": 2.4387779204,
				"element": "C" 
			},
			{
				"x": -1.5647389938,
				"y": -2.0196409756,
				"z": 1.6092869403,
				"element": "H" 
			},
			{
				"x": -1.7440469474,
				"y": -0.8309515457,
				"z": 2.7194711752,
				"element": "H" 
			},
			{
				"x": 0.534111366,
				"y": -0.9410154055,
				"z": 1.6492894213,
				"element": "H" 
			},
			{
				"x": 0.7571047756,
				"y": -0.1763867927,
				"z": -0.5575875348,
				"element": "H" 
			},
			{
				"x": -0.3675028346,
				"y": -1.5183327323,
				"z": -0.5861839865,
				"element": "H" 
			},
			{
				"x": -1.2954191707,
				"y": 1.4141445781,
				"z": -0.6588021883,
				"element": "H" 
			},
			{
				"x": -0.8192767869,
				"y": 0.5539464418,
				"z": -2.1041081558,
				"element": "H" 
			},
			{
				"x": -2.7800379835,
				"y": -0.6132116799,
				"z": 0.5323416681,
				"element": "H" 
			},
			{
				"x": -1.1426551929,
				"y": 1.639171615,
				"z": 1.6263858625,
				"element": "H" 
			},
			{
				"x": 1.6787064881,
				"y": 0.9272023825,
				"z": 2.6324791754,
				"element": "H" 
			},
			{
				"x": 0.8020018467,
				"y": 2.5473597852,
				"z": 2.7930121635,
				"element": "H" 
			}
		],
		 "valence_orbital": [ 
			{
				"type": "occ",
				"energy": -0.33953,
				"method": "rhf"
			},
			{
				"type": "occ",
				"energy": -0.2873,
				"method": "rhf"
			},
			{
				"type": "occ",
				"energy": -0.28018,
				"method": "rhf"
			},
			{
				"type": "occ",
				"energy": -0.27797,
				"method": "rhf"
			},
			{
				"type": "occ",
				"energy": -0.23568,
				"method": "rhf"
			},
			{
				"type": "unocc",
				"energy": -0.0114,
				"method": "rhf"
			},
			{
				"type": "unocc",
				"energy": 0.03913,
				"method": "rhf"
			},
			{
				"type": "unocc",
				"energy": 0.05706,
				"method": "rhf"
			},
			{
				"type": "unocc",
				"energy": 0.09263,
				"method": "rhf"
			},
			{
				"type": "unocc",
				"energy": 0.10107,
				"method": "rhf"
			}
		],
		"cosmo_sigma_profile": { 
			"-0.025": 0.0,
			"-0.024": 0.0,
			"-0.023": 0.0,
			"-0.022": 0.0,
			"-0.021": 0.0,
			"-0.02": 0.0,
			"-0.019": 0.0,
			"-0.018": 0.0,
			"-0.017": 0.0,
			"-0.016": 0.0,
			"-0.015": 0.0,
			"-0.014": 0.0,
			"-0.013": 0.0,
			"-0.012": 1.01406949397,
			"-0.011": 2.77019204934,
			"-0.01": 3.36631212381,
			"-0.009": 3.4699479399,
			"-0.008": 2.89093198174,
			"-0.007": 4.09418524913,
			"-0.006": 7.27856701531,
			"-0.005": 13.6654689249,
			"-0.004": 19.3787923002,
			"-0.003": 18.9520982987,
			"-0.002": 16.9017414231,
			"-0.001": 13.9495451967,
			"0.0": 8.83743779706,
			"0.001": 7.19888871128,
			"0.002": 5.9204958721,
			"0.003": 5.2098470726,
			"0.004": 5.0698221465,
			"0.005": 4.00658252071,
			"0.006": 3.29222377656,
			"0.007": 2.73368938147,
			"0.008": 1.90412821611,
			"0.009": 2.2316351574,
			"0.01": 2.49419845632,
			"0.011": 3.76344234068,
			"0.012": 4.50520127714,
			"0.013": 7.7640971248,
			"0.014": 4.49432040395,
			"0.015": 1.21121125167,
			"0.016": 0.0219662009072,
			"0.017": 0.0,
			"0.018": 0.0,
			"0.019": 0.0,
			"0.02": 0.0,
			"0.021": 0.0,
			"0.022": 0.0,
			"0.023": 0.0,
			"0.024": 0.0,
			"0.025": 0.0
		}
	}
}
