{
	 "smiles": "COC1=CC(CC#N)=C(OC)C=C1CC#N", 
	 "Tm": 472.15, 
	 "num_atms": 28, 
	 "gaussian": { 
		 "optdone": 1, 
		 "sigma_profile": "yes", 
		 "theory": "DFT", 
		 "functional": "B3LYP", 
		 "basiset": "6-31G**", 
		 "properties": { 
			 "R2extent": 4559.1711, 
			 "electric_dipole_moment_norm": 0.0001, 
			 "electric_quadrupole_moment_norm": 40.9218343564, 
			 "total_energy": -724.400969607, 
			 "HOMO_LUMO_gap": 0.18751, 
			 "cosmo_polarized_energy": -20.06, 
			 "cosmo_cavitation_energy": 34.23, 
			 "cosmo_dispersion_energy": -22.62, 
			 "cosmo_repulsion_energy": 1.81, 
			 "cosmo_total_nonelectrostatic_energy": 13.42, 
			 "SMD_solvation_energy": 10.12 
		},
		"coords": [
			{
				"x": 2.6190758651,
				"y": -2.0930685071,
				"z": -0.4516261781,
				"element": "C" 
			},
			{
				"x": 2.2478658429,
				"y": -1.2234389899,
				"z": 0.607674101,
				"element": "O" 
			},
			{
				"x": 1.3927792269,
				"y": -0.1928539072,
				"z": 0.3377739065,
				"element": "C" 
			},
			{
				"x": 0.8689564155,
				"y": 0.0965140013,
				"z": -0.9264781254,
				"element": "C" 
			},
			{
				"x": 0.0000388461,
				"y": 1.1728116968,
				"z": -1.1123638619,
				"element": "C" 
			},
			{
				"x": -0.569569238,
				"y": 1.4863599017,
				"z": -2.4853170809,
				"element": "C" 
			},
			{
				"x": 0.1087710782,
				"y": 2.6141171825,
				"z": -3.1408613216,
				"element": "C" 
			},
			{
				"x": 0.6550481261,
				"y": 3.4960272314,
				"z": -3.6610979985,
				"element": "N" 
			},
			{
				"x": -0.3505452713,
				"y": 1.9776989285,
				"z": -0.0164949282,
				"element": "C" 
			},
			{
				"x": -1.205650037,
				"y": 3.0082662923,
				"z": -0.2863911285,
				"element": "O" 
			},
			{
				"x": -1.5768404382,
				"y": 3.8779093505,
				"z": 0.7729049788,
				"element": "C" 
			},
			{
				"x": 0.1732803926,
				"y": 1.6883327979,
				"z": 1.2477547962,
				"element": "C" 
			},
			{
				"x": 1.0422031544,
				"y": 0.6120378824,
				"z": 1.4336388044,
				"element": "C" 
			},
			{
				"x": 1.6118082098,
				"y": 0.2984884532,
				"z": 2.8065942915,
				"element": "C" 
			},
			{
				"x": 0.933392462,
				"y": -0.8291971409,
				"z": 3.4621811873,
				"element": "C" 
			},
			{
				"x": 0.3871014116,
				"y": -1.7111228898,
				"z": 3.9823761714,
				"element": "N" 
			},
			{
				"x": 3.1537364678,
				"y": -1.5565093009,
				"z": -1.2458572,
				"element": "H" 
			},
			{
				"x": 3.28294228,
				"y": -2.8373611892,
				"z": -0.0103125096,
				"element": "H" 
			},
			{
				"x": 1.7450850961,
				"y": -2.5989684363,
				"z": -0.8805369878,
				"element": "H" 
			},
			{
				"x": 1.1330463312,
				"y": -0.5132602088,
				"z": -1.7828558585,
				"element": "H" 
			},
			{
				"x": -1.6329536606,
				"y": 1.7357736504,
				"z": -2.4052373343,
				"element": "H" 
			},
			{
				"x": -0.4836760256,
				"y": 0.6112337941,
				"z": -3.1379438456,
				"element": "H" 
			},
			{
				"x": -2.1114856741,
				"y": 3.3413609726,
				"z": 1.5671537206,
				"element": "H" 
			},
			{
				"x": -0.7028404209,
				"y": 4.3838137003,
				"z": 1.201791622,
				"element": "H" 
			},
			{
				"x": -2.2407156795,
				"y": 4.6221951799,
				"z": 0.33159356,
				"element": "H" 
			},
			{
				"x": -0.0908105227,
				"y": 2.2981056996,
				"z": 2.1041335558,
				"element": "H" 
			},
			{
				"x": 2.6751730169,
				"y": 0.0489977656,
				"z": 2.7265034734,
				"element": "H" 
			},
			{
				"x": 1.5259827446,
				"y": 1.1736360892,
				"z": 3.4592001898,
				"element": "H" 
			}
		],
		 "valence_orbital": [ 
			{
				"type": "occ",
				"energy": -0.31984,
				"method": "rhf"
			},
			{
				"type": "occ",
				"energy": -0.31601,
				"method": "rhf"
			},
			{
				"type": "occ",
				"energy": -0.30659,
				"method": "rhf"
			},
			{
				"type": "occ",
				"energy": -0.26968,
				"method": "rhf"
			},
			{
				"type": "occ",
				"energy": -0.21828,
				"method": "rhf"
			},
			{
				"type": "unocc",
				"energy": -0.03077,
				"method": "rhf"
			},
			{
				"type": "unocc",
				"energy": -6e-05,
				"method": "rhf"
			},
			{
				"type": "unocc",
				"energy": 0.03536,
				"method": "rhf"
			},
			{
				"type": "unocc",
				"energy": 0.04373,
				"method": "rhf"
			},
			{
				"type": "unocc",
				"energy": 0.04412,
				"method": "rhf"
			}
		],
		"cosmo_sigma_profile": { 
			"-0.025": 0.0,
			"-0.024": 0.0,
			"-0.023": 0.0,
			"-0.022": 0.0,
			"-0.021": 0.0,
			"-0.02": 0.0,
			"-0.019": 0.0,
			"-0.018": 0.0,
			"-0.017": 0.0,
			"-0.016": 0.0,
			"-0.015": 0.0,
			"-0.014": 0.0,
			"-0.013": 0.0,
			"-0.012": 0.0,
			"-0.011": 0.0,
			"-0.01": 0.022564811336,
			"-0.009": 5.79359324502,
			"-0.008": 9.74334656005,
			"-0.007": 13.4267039235,
			"-0.006": 20.295109456,
			"-0.005": 29.2142752512,
			"-0.004": 21.7719888987,
			"-0.003": 21.6284651447,
			"-0.002": 11.2134295209,
			"-0.001": 10.3857530953,
			"0.0": 10.4643681472,
			"0.001": 14.0796619823,
			"0.002": 14.6715805097,
			"0.003": 15.7346605978,
			"0.004": 12.4927777752,
			"0.005": 7.96930917192,
			"0.006": 11.1431029336,
			"0.007": 7.13491193774,
			"0.008": 7.23495394073,
			"0.009": 6.96315732369,
			"0.01": 6.89378643635,
			"0.011": 6.0184180439,
			"0.012": 4.72321029045,
			"0.013": 4.22520816851,
			"0.014": 0.756081784159,
			"0.015": 0.0,
			"0.016": 0.0,
			"0.017": 0.0,
			"0.018": 0.0,
			"0.019": 0.0,
			"0.02": 0.0,
			"0.021": 0.0,
			"0.022": 0.0,
			"0.023": 0.0,
			"0.024": 0.0,
			"0.025": 0.0
		}
	}
}
