{
	 "smiles": "ClC1=CC=C(C=C(/C#N)C2=NC(=CS2)C2=C3C=CC=CC3=CC=C2)C=C1", 
	 "Tm": 403.15, 
	 "num_atms": 39, 
	 "gaussian": { 
		 "optdone": 1, 
		 "sigma_profile": "yes", 
		 "theory": "DFT", 
		 "functional": "B3LYP", 
		 "basiset": "6-31G**", 
		 "properties": { 
			 "R2extent": 15813.4257, 
			 "electric_dipole_moment_norm": 3.58543724251, 
			 "electric_quadrupole_moment_norm": 12.5060965621, 
			 "total_energy": -1814.04138256, 
			 "HOMO_LUMO_gap": 0.11617, 
			 "cosmo_polarized_energy": -12.35, 
			 "cosmo_cavitation_energy": 48.59, 
			 "cosmo_dispersion_energy": -34.42, 
			 "cosmo_repulsion_energy": 2.52, 
			 "cosmo_total_nonelectrostatic_energy": 16.69, 
			 "SMD_solvation_energy": 7.52 
		},
		"coords": [
			{
				"x": -1.0535433602,
				"y": -3.66618788,
				"z": 6.4202883775,
				"element": "Cl" 
			},
			{
				"x": -0.5471373173,
				"y": -2.5454884996,
				"z": 5.1730045505,
				"element": "C" 
			},
			{
				"x": -0.4407716255,
				"y": -2.9868330182,
				"z": 3.8536277942,
				"element": "C" 
			},
			{
				"x": -0.0383137417,
				"y": -2.0863054672,
				"z": 2.8749473765,
				"element": "C" 
			},
			{
				"x": 0.2653411504,
				"y": -0.74156742,
				"z": 3.1811301448,
				"element": "C" 
			},
			{
				"x": 0.675823076,
				"y": 0.1041604007,
				"z": 2.0720880053,
				"element": "C" 
			},
			{
				"x": 1.048242584,
				"y": 1.4163102103,
				"z": 2.0152050989,
				"element": "C" 
			},
			{
				"x": 1.1152052488,
				"y": 2.2773063965,
				"z": 3.1560708977,
				"element": "C" 
			},
			{
				"x": 1.1819665963,
				"y": 3.0069422699,
				"z": 4.0614057034,
				"element": "N" 
			},
			{
				"x": 1.4137133275,
				"y": 2.0191127414,
				"z": 0.7234082864,
				"element": "C" 
			},
			{
				"x": 1.3703033719,
				"y": 1.3807476392,
				"z": -0.4160080459,
				"element": "N" 
			},
			{
				"x": 1.7833747439,
				"y": 2.1692031319,
				"z": -1.4678992992,
				"element": "C" 
			},
			{
				"x": 2.139186749,
				"y": 3.4504170747,
				"z": -1.1092344141,
				"element": "C" 
			},
			{
				"x": 1.9712779856,
				"y": 3.6844479888,
				"z": 0.5925830426,
				"element": "S" 
			},
			{
				"x": 1.8667595183,
				"y": 1.6414193306,
				"z": -2.8501849392,
				"element": "C" 
			},
			{
				"x": 0.8157769387,
				"y": 0.8596915734,
				"z": -3.4440235201,
				"element": "C" 
			},
			{
				"x": -0.3975937374,
				"y": 0.5401489507,
				"z": -2.7734046265,
				"element": "C" 
			},
			{
				"x": -1.3795540737,
				"y": -0.2004815066,
				"z": -3.3939133856,
				"element": "C" 
			},
			{
				"x": -1.2061691315,
				"y": -0.6636732352,
				"z": -4.7192029745,
				"element": "C" 
			},
			{
				"x": -0.049810599,
				"y": -0.3655706518,
				"z": -5.4014927184,
				"element": "C" 
			},
			{
				"x": 0.9817430467,
				"y": 0.4017079671,
				"z": -4.7952352789,
				"element": "C" 
			},
			{
				"x": 2.1639346341,
				"y": 0.7300153425,
				"z": -5.5107956006,
				"element": "C" 
			},
			{
				"x": 3.1503361855,
				"y": 1.4863894923,
				"z": -4.9241835986,
				"element": "C" 
			},
			{
				"x": 2.9985434515,
				"y": 1.9358889619,
				"z": -3.5943931444,
				"element": "C" 
			},
			{
				"x": 0.1461331401,
				"y": -0.330027734,
				"z": 4.5269799709,
				"element": "C" 
			},
			{
				"x": -0.2559403175,
				"y": -1.2221362662,
				"z": 5.5137234332,
				"element": "C" 
			},
			{
				"x": -0.6696097696,
				"y": -4.0162041023,
				"z": 3.6019863917,
				"element": "H" 
			},
			{
				"x": 0.0458565075,
				"y": -2.426224626,
				"z": 1.8465658065,
				"element": "H" 
			},
			{
				"x": 0.6947345853,
				"y": -0.3901605847,
				"z": 1.1036709324,
				"element": "H" 
			},
			{
				"x": 2.4591894959,
				"y": 4.2556041587,
				"z": -1.7542615103,
				"element": "H" 
			},
			{
				"x": -0.5390002629,
				"y": 0.8778882953,
				"z": -1.7546919033,
				"element": "H" 
			},
			{
				"x": -2.2978326469,
				"y": -0.4300176525,
				"z": -2.8608058283,
				"element": "H" 
			},
			{
				"x": -1.9878536406,
				"y": -1.248712525,
				"z": -5.1950878116,
				"element": "H" 
			},
			{
				"x": 0.0924482907,
				"y": -0.7089203807,
				"z": -6.4230184035,
				"element": "H" 
			},
			{
				"x": 2.2734319236,
				"y": 0.3718014036,
				"z": -6.5311196382,
				"element": "H" 
			},
			{
				"x": 4.0554418751,
				"y": 1.732036614,
				"z": -5.471603342,
				"element": "H" 
			},
			{
				"x": 3.7995374265,
				"y": 2.5044937305,
				"z": -3.131615097,
				"element": "H" 
			},
			{
				"x": 0.3661876875,
				"y": 0.6904303436,
				"z": 4.8129874013,
				"element": "H" 
			},
			{
				"x": -0.3445593168,
				"y": -0.8962524679,
				"z": 6.5440018662,
				"element": "H" 
			}
		],
		 "valence_orbital": [ 
			{
				"type": "occ",
				"energy": -0.27913,
				"method": "rhf"
			},
			{
				"type": "occ",
				"energy": -0.26656,
				"method": "rhf"
			},
			{
				"type": "occ",
				"energy": -0.24731,
				"method": "rhf"
			},
			{
				"type": "occ",
				"energy": -0.23089,
				"method": "rhf"
			},
			{
				"type": "occ",
				"energy": -0.21236,
				"method": "rhf"
			},
			{
				"type": "unocc",
				"energy": -0.09619,
				"method": "rhf"
			},
			{
				"type": "unocc",
				"energy": -0.05018,
				"method": "rhf"
			},
			{
				"type": "unocc",
				"energy": -0.02762,
				"method": "rhf"
			},
			{
				"type": "unocc",
				"energy": -0.0214,
				"method": "rhf"
			},
			{
				"type": "unocc",
				"energy": -0.01338,
				"method": "rhf"
			}
		],
		"cosmo_sigma_profile": { 
			"-0.025": 0.0,
			"-0.024": 0.0,
			"-0.023": 0.0,
			"-0.022": 0.0,
			"-0.021": 0.0,
			"-0.02": 0.0,
			"-0.019": 0.0,
			"-0.018": 0.0,
			"-0.017": 0.0,
			"-0.016": 0.0,
			"-0.015": 0.0,
			"-0.014": 0.0,
			"-0.013": 0.0,
			"-0.012": 0.0,
			"-0.011": 0.0,
			"-0.01": 0.407042287386,
			"-0.009": 3.46919835952,
			"-0.008": 6.43659837896,
			"-0.007": 8.86245859944,
			"-0.006": 20.4347658081,
			"-0.005": 20.9263945592,
			"-0.004": 24.6993486733,
			"-0.003": 25.5906193696,
			"-0.002": 28.6519570663,
			"-0.001": 30.4382964243,
			"0.0": 40.0694664253,
			"0.001": 44.3080046398,
			"0.002": 39.7162506258,
			"0.003": 27.9470914266,
			"0.004": 35.3945375495,
			"0.005": 17.8993042603,
			"0.006": 4.76610538072,
			"0.007": 3.7511076405,
			"0.008": 3.50175205215,
			"0.009": 3.63431079415,
			"0.01": 3.08538423293,
			"0.011": 2.47517228133,
			"0.012": 1.76471011734,
			"0.013": 0.176825494724,
			"0.014": 0.0,
			"0.015": 0.0,
			"0.016": 0.0,
			"0.017": 0.0,
			"0.018": 0.0,
			"0.019": 0.0,
			"0.02": 0.0,
			"0.021": 0.0,
			"0.022": 0.0,
			"0.023": 0.0,
			"0.024": 0.0,
			"0.025": 0.0
		}
	}
}
