{
	 "smiles": "NC1=C(Cl)C=CC(=C1)N1C=NN=N1", 
	 "Tm": 433.15, 
	 "num_atms": 19, 
	 "gaussian": { 
		 "optdone": 1, 
		 "sigma_profile": "yes", 
		 "theory": "DFT", 
		 "functional": "B3LYP", 
		 "basiset": "6-31G**", 
		 "properties": { 
			 "R2extent": 3482.1283, 
			 "electric_dipole_moment_norm": 5.87775826825, 
			 "electric_quadrupole_moment_norm": 16.2037356724, 
			 "total_energy": -1004.25278161, 
			 "HOMO_LUMO_gap": 0.1791, 
			 "cosmo_polarized_energy": -17.89, 
			 "cosmo_cavitation_energy": 26.05, 
			 "cosmo_dispersion_energy": -19.41, 
			 "cosmo_repulsion_energy": 1.51, 
			 "cosmo_total_nonelectrostatic_energy": 8.14, 
			 "SMD_solvation_energy": 2.79 
		},
		"coords": [
			{
				"x": -1.4402257281,
				"y": -0.2973042938,
				"z": -2.9793926978,
				"element": "N" 
			},
			{
				"x": -0.7851547539,
				"y": -0.7747515562,
				"z": -1.8624251827,
				"element": "C" 
			},
			{
				"x": -0.3900509771,
				"y": -2.1246347447,
				"z": -1.7495148626,
				"element": "C" 
			},
			{
				"x": -0.6795642625,
				"y": -3.2135602372,
				"z": -3.1008227309,
				"element": "Cl" 
			},
			{
				"x": 0.2323732675,
				"y": -2.6106114084,
				"z": -0.6045598534,
				"element": "C" 
			},
			{
				"x": 0.4759203822,
				"y": -1.7731204626,
				"z": 0.4806120351,
				"element": "C" 
			},
			{
				"x": 0.090654835,
				"y": -0.4347420567,
				"z": 0.3812164843,
				"element": "C" 
			},
			{
				"x": -0.5177331763,
				"y": 0.0665164536,
				"z": -0.7674365291,
				"element": "C" 
			},
			{
				"x": 0.3225942665,
				"y": 0.4385985139,
				"z": 1.4806530311,
				"element": "N" 
			},
			{
				"x": -0.3689513099,
				"y": 1.5199034497,
				"z": 1.9110260956,
				"element": "C" 
			},
			{
				"x": 0.2158001936,
				"y": 2.0078163534,
				"z": 2.9830872957,
				"element": "N" 
			},
			{
				"x": 1.2904599672,
				"y": 1.2012014729,
				"z": 3.2133173476,
				"element": "N" 
			},
			{
				"x": 1.3700293608,
				"y": 0.2618845525,
				"z": 2.331558237,
				"element": "N" 
			},
			{
				"x": -1.4051841178,
				"y": 0.6992784992,
				"z": -3.1326364104,
				"element": "H" 
			},
			{
				"x": -1.3550038909,
				"y": -0.8492075108,
				"z": -3.8206544274,
				"element": "H" 
			},
			{
				"x": 0.5221093406,
				"y": -3.6546144293,
				"z": -0.5636626393,
				"element": "H" 
			},
			{
				"x": 0.9524317328,
				"y": -2.1387148885,
				"z": 1.3808924091,
				"element": "H" 
			},
			{
				"x": -0.7757826101,
				"y": 1.118579405,
				"z": -0.8371588481,
				"element": "H" 
			},
			{
				"x": -1.2709225195,
				"y": 1.8898828881,
				"z": 1.4497012462,
				"element": "H" 
			}
		],
		 "valence_orbital": [ 
			{
				"type": "occ",
				"energy": -0.30774,
				"method": "rhf"
			},
			{
				"type": "occ",
				"energy": -0.30068,
				"method": "rhf"
			},
			{
				"type": "occ",
				"energy": -0.28837,
				"method": "rhf"
			},
			{
				"type": "occ",
				"energy": -0.26358,
				"method": "rhf"
			},
			{
				"type": "occ",
				"energy": -0.23118,
				"method": "rhf"
			},
			{
				"type": "unocc",
				"energy": -0.05208,
				"method": "rhf"
			},
			{
				"type": "unocc",
				"energy": -0.02235,
				"method": "rhf"
			},
			{
				"type": "unocc",
				"energy": 0.00564,
				"method": "rhf"
			},
			{
				"type": "unocc",
				"energy": 0.01212,
				"method": "rhf"
			},
			{
				"type": "unocc",
				"energy": 0.02111,
				"method": "rhf"
			}
		],
		"cosmo_sigma_profile": { 
			"-0.025": 0.0,
			"-0.024": 0.0,
			"-0.023": 0.0,
			"-0.022": 0.0,
			"-0.021": 0.0,
			"-0.02": 0.0,
			"-0.019": 0.0,
			"-0.018": 0.0,
			"-0.017": 0.0,
			"-0.016": 0.0,
			"-0.015": 0.00197808253432,
			"-0.014": 0.985360863472,
			"-0.013": 1.72928119139,
			"-0.012": 3.29179798381,
			"-0.011": 4.79560560939,
			"-0.01": 5.84366142886,
			"-0.009": 6.42193756173,
			"-0.008": 6.10202666672,
			"-0.007": 6.94087769194,
			"-0.006": 7.87093833178,
			"-0.005": 9.60691808454,
			"-0.004": 9.55101233158,
			"-0.003": 10.3984468915,
			"-0.002": 9.04299126231,
			"-0.001": 10.4065318037,
			"0.0": 12.2229356955,
			"0.001": 14.5069161708,
			"0.002": 22.1032064645,
			"0.003": 15.1475256741,
			"0.004": 12.2828759361,
			"0.005": 6.64002979726,
			"0.006": 3.44346127916,
			"0.007": 4.8820395602,
			"0.008": 5.94111814154,
			"0.009": 5.32377938608,
			"0.01": 5.68676473767,
			"0.011": 3.81979719576,
			"0.012": 2.95308656397,
			"0.013": 2.44817443719,
			"0.014": 1.39002893699,
			"0.015": 0.463518907832,
			"0.016": 0.0,
			"0.017": 0.0,
			"0.018": 0.0,
			"0.019": 0.0,
			"0.02": 0.0,
			"0.021": 0.0,
			"0.022": 0.0,
			"0.023": 0.0,
			"0.024": 0.0,
			"0.025": 0.0
		}
	}
}
