{
	 "smiles": "OCC1=CC(=O)N2C=C(Br)C=CC2=N1", 
	 "Tm": 478.15, 
	 "num_atms": 21, 
	 "gaussian": { 
		 "optdone": 1, 
		 "sigma_profile": "yes", 
		 "theory": "DFT", 
		 "functional": "B3LYP", 
		 "basiset": "6-31G**", 
		 "properties": { 
			 "R2extent": 6226.4421, 
			 "electric_dipole_moment_norm": 3.18186867422, 
			 "electric_quadrupole_moment_norm": 13.3895991527, 
			 "total_energy": -3178.52330508, 
			 "HOMO_LUMO_gap": 0.15024, 
			 "cosmo_polarized_energy": -12.57, 
			 "cosmo_cavitation_energy": 27.82, 
			 "cosmo_dispersion_energy": -21.35, 
			 "cosmo_repulsion_energy": 1.67, 
			 "cosmo_total_nonelectrostatic_energy": 8.14, 
			 "SMD_solvation_energy": 3.63 
		},
		"coords": [
			{
				"x": 1.0642093101,
				"y": -2.7296418405,
				"z": 1.4354604943,
				"element": "O" 
			},
			{
				"x": -0.0036707142,
				"y": -2.1107840349,
				"z": 2.1062304531,
				"element": "C" 
			},
			{
				"x": -0.5269911354,
				"y": -0.8889173791,
				"z": 1.3687582857,
				"element": "C" 
			},
			{
				"x": -1.7672702233,
				"y": -0.3494912032,
				"z": 1.6348519156,
				"element": "C" 
			},
			{
				"x": -2.2276369041,
				"y": 0.8223250487,
				"z": 0.9711952151,
				"element": "C" 
			},
			{
				"x": -3.2864314783,
				"y": 1.4191887383,
				"z": 1.0935062838,
				"element": "O" 
			},
			{
				"x": -1.2395200305,
				"y": 1.3407914754,
				"z": 0.0028456824,
				"element": "N" 
			},
			{
				"x": -1.6031842539,
				"y": 2.4699879162,
				"z": -0.6916561409,
				"element": "C" 
			},
			{
				"x": -0.7571985345,
				"y": 3.0196909971,
				"z": -1.6071959573,
				"element": "C" 
			},
			{
				"x": -1.2723206856,
				"y": 4.5792653955,
				"z": -2.5590819908,
				"element": "Br" 
			},
			{
				"x": 0.5108687488,
				"y": 2.4256832809,
				"z": -1.8501844101,
				"element": "C" 
			},
			{
				"x": 0.8641809602,
				"y": 1.3024453122,
				"z": -1.1557023722,
				"element": "C" 
			},
			{
				"x": -0.0118183391,
				"y": 0.7159408067,
				"z": -0.1938425769,
				"element": "C" 
			},
			{
				"x": 0.3448691671,
				"y": -0.3727135945,
				"z": 0.4732300979,
				"element": "N" 
			},
			{
				"x": 1.435353592,
				"y": -2.042471747,
				"z": 0.8558298421,
				"element": "H" 
			},
			{
				"x": 0.293160085,
				"y": -1.7832303151,
				"z": 3.1194866562,
				"element": "H" 
			},
			{
				"x": -0.8165108963,
				"y": -2.8362245744,
				"z": 2.2365788565,
				"element": "H" 
			},
			{
				"x": -2.4405242844,
				"y": -0.7987232588,
				"z": 2.355517097,
				"element": "H" 
			},
			{
				"x": -2.5851955726,
				"y": 2.8467956678,
				"z": -0.4375989598,
				"element": "H" 
			},
			{
				"x": 1.1812604292,
				"y": 2.8658028267,
				"z": -2.5795313275,
				"element": "H" 
			},
			{
				"x": 1.8179707595,
				"y": 0.8105804822,
				"z": -1.3035971441,
				"element": "H" 
			}
		],
		 "valence_orbital": [ 
			{
				"type": "occ",
				"energy": -0.30158,
				"method": "rhf"
			},
			{
				"type": "occ",
				"energy": -0.28231,
				"method": "rhf"
			},
			{
				"type": "occ",
				"energy": -0.2776,
				"method": "rhf"
			},
			{
				"type": "occ",
				"energy": -0.26006,
				"method": "rhf"
			},
			{
				"type": "occ",
				"energy": -0.23084,
				"method": "rhf"
			},
			{
				"type": "unocc",
				"energy": -0.0806,
				"method": "rhf"
			},
			{
				"type": "unocc",
				"energy": -0.06174,
				"method": "rhf"
			},
			{
				"type": "unocc",
				"energy": -0.01962,
				"method": "rhf"
			},
			{
				"type": "unocc",
				"energy": -0.00219,
				"method": "rhf"
			},
			{
				"type": "unocc",
				"energy": 0.06317,
				"method": "rhf"
			}
		],
		"cosmo_sigma_profile": { 
			"-0.025": 0.0,
			"-0.024": 0.0,
			"-0.023": 0.0,
			"-0.022": 0.0,
			"-0.021": 0.0,
			"-0.02": 0.0,
			"-0.019": 0.0,
			"-0.018": 0.0,
			"-0.017": 0.0,
			"-0.016": 0.0,
			"-0.015": 0.0,
			"-0.014": 0.0,
			"-0.013": 0.0,
			"-0.012": 0.0,
			"-0.011": 0.0,
			"-0.01": 0.156500216377,
			"-0.009": 3.4847157884,
			"-0.008": 5.33596462925,
			"-0.007": 8.77296684101,
			"-0.006": 10.039735725,
			"-0.005": 18.0515773585,
			"-0.004": 17.0340734272,
			"-0.003": 17.591870806,
			"-0.002": 19.3091180446,
			"-0.001": 21.9648177979,
			"0.0": 18.4088751767,
			"0.001": 14.7374736609,
			"0.002": 13.0300302906,
			"0.003": 16.1136124398,
			"0.004": 7.8362986167,
			"0.005": 4.48951608802,
			"0.006": 2.52775099644,
			"0.007": 2.90254715297,
			"0.008": 2.46025243704,
			"0.009": 2.57296130441,
			"0.01": 2.19606588582,
			"0.011": 4.27841584366,
			"0.012": 5.10365361427,
			"0.013": 4.68997151556,
			"0.014": 3.42190680864,
			"0.015": 0.444948917232,
			"0.016": 0.0,
			"0.017": 0.0,
			"0.018": 0.0,
			"0.019": 0.0,
			"0.02": 0.0,
			"0.021": 0.0,
			"0.022": 0.0,
			"0.023": 0.0,
			"0.024": 0.0,
			"0.025": 0.0
		}
	}
}
