{
	 "smiles": "NCCCNC1=C(Cl)C=C(C=N1)C(F)(F)F", 
	 "Tm": 335.65, 
	 "num_atms": 27, 
	 "gaussian": { 
		 "optdone": 1, 
		 "sigma_profile": "yes", 
		 "theory": "DFT", 
		 "functional": "B3LYP", 
		 "basiset": "6-31G**", 
		 "properties": { 
			 "R2extent": 6061.125, 
			 "electric_dipole_moment_norm": 4.46154839714, 
			 "electric_quadrupole_moment_norm": 6.56698224834, 
			 "total_energy": -1273.55436868, 
			 "HOMO_LUMO_gap": 0.1852, 
			 "cosmo_polarized_energy": -10.78, 
			 "cosmo_cavitation_energy": 33.87, 
			 "cosmo_dispersion_energy": -23.66, 
			 "cosmo_repulsion_energy": 1.82, 
			 "cosmo_total_nonelectrostatic_energy": 12.03, 
			 "SMD_solvation_energy": 3.01 
		},
		"coords": [
			{
				"x": -3.8478765155,
				"y": -3.1443715054,
				"z": 0.4210381087,
				"element": "N" 
			},
			{
				"x": -2.527058943,
				"y": -3.5621037737,
				"z": 0.9040081485,
				"element": "C" 
			},
			{
				"x": -1.5300961017,
				"y": -2.3968906284,
				"z": 0.9056638919,
				"element": "C" 
			},
			{
				"x": -1.8983730037,
				"y": -1.2862880863,
				"z": 1.9020043984,
				"element": "C" 
			},
			{
				"x": -0.8815220084,
				"y": -0.2386647232,
				"z": 2.0366653521,
				"element": "N" 
			},
			{
				"x": -0.4355202316,
				"y": 0.6412339789,
				"z": 1.0777972336,
				"element": "C" 
			},
			{
				"x": -1.2185472515,
				"y": 1.2889657853,
				"z": 0.0848270957,
				"element": "C" 
			},
			{
				"x": -2.9583429788,
				"y": 1.0782587853,
				"z": -0.0549959651,
				"element": "Cl" 
			},
			{
				"x": -0.6114416404,
				"y": 2.169545391,
				"z": -0.7958436579,
				"element": "C" 
			},
			{
				"x": 0.7544746498,
				"y": 2.4366782823,
				"z": -0.678664612,
				"element": "C" 
			},
			{
				"x": 1.4466992385,
				"y": 1.7991539236,
				"z": 0.3503599705,
				"element": "C" 
			},
			{
				"x": 0.8807249343,
				"y": 0.9316565177,
				"z": 1.1821143598,
				"element": "N" 
			},
			{
				"x": 1.4229677782,
				"y": 3.4264767458,
				"z": -1.5819037137,
				"element": "C" 
			},
			{
				"x": 0.9092229675,
				"y": 3.385613277,
				"z": -2.8330215322,
				"element": "F" 
			},
			{
				"x": 1.2721914664,
				"y": 4.699704019,
				"z": -1.1445811811,
				"element": "F" 
			},
			{
				"x": 2.7519044869,
				"y": 3.1996128683,
				"z": -1.6748179208,
				"element": "F" 
			},
			{
				"x": -4.4236064688,
				"y": -3.96135087,
				"z": 0.2362904644,
				"element": "H" 
			},
			{
				"x": -4.338209167,
				"y": -2.6132807018,
				"z": 1.1359836935,
				"element": "H" 
			},
			{
				"x": -2.5416153669,
				"y": -4.0232820717,
				"z": 1.9096060227,
				"element": "H" 
			},
			{
				"x": -2.1536801269,
				"y": -4.3318053309,
				"z": 0.2194176479,
				"element": "H" 
			},
			{
				"x": -0.5334546965,
				"y": -2.7833194152,
				"z": 1.1565618004,
				"element": "H" 
			},
			{
				"x": -1.4764134144,
				"y": -1.9754824021,
				"z": -0.104427241,
				"element": "H" 
			},
			{
				"x": -2.0193025725,
				"y": -1.7127721291,
				"z": 2.9050069539,
				"element": "H" 
			},
			{
				"x": -2.8516083902,
				"y": -0.834048132,
				"z": 1.6310794486,
				"element": "H" 
			},
			{
				"x": -0.0857722265,
				"y": -0.5190591581,
				"z": 2.5987550333,
				"element": "H" 
			},
			{
				"x": -1.2059684184,
				"y": 2.6514613545,
				"z": -1.5638863625,
				"element": "H" 
			},
			{
				"x": 2.5079240009,
				"y": 1.9835579994,
				"z": 0.4970625622,
				"element": "H" 
			}
		],
		 "valence_orbital": [ 
			{
				"type": "occ",
				"energy": -0.31665,
				"method": "rhf"
			},
			{
				"type": "occ",
				"energy": -0.28147,
				"method": "rhf"
			},
			{
				"type": "occ",
				"energy": -0.27509,
				"method": "rhf"
			},
			{
				"type": "occ",
				"energy": -0.24088,
				"method": "rhf"
			},
			{
				"type": "occ",
				"energy": -0.22317,
				"method": "rhf"
			},
			{
				"type": "unocc",
				"energy": -0.03797,
				"method": "rhf"
			},
			{
				"type": "unocc",
				"energy": -0.02288,
				"method": "rhf"
			},
			{
				"type": "unocc",
				"energy": 0.02177,
				"method": "rhf"
			},
			{
				"type": "unocc",
				"energy": 0.06833,
				"method": "rhf"
			},
			{
				"type": "unocc",
				"energy": 0.08289,
				"method": "rhf"
			}
		],
		"cosmo_sigma_profile": { 
			"-0.025": 0.0,
			"-0.024": 0.0,
			"-0.023": 0.0,
			"-0.022": 0.0,
			"-0.021": 0.0,
			"-0.02": 0.0,
			"-0.019": 0.0,
			"-0.018": 0.0,
			"-0.017": 0.0,
			"-0.016": 0.0,
			"-0.015": 0.0,
			"-0.014": 0.0,
			"-0.013": 0.182143425612,
			"-0.012": 1.01513082028,
			"-0.011": 0.980490872865,
			"-0.01": 1.33831051544,
			"-0.009": 4.51993991648,
			"-0.008": 5.71180102948,
			"-0.007": 7.40241840788,
			"-0.006": 8.31480297876,
			"-0.005": 10.5525320988,
			"-0.004": 13.2014632781,
			"-0.003": 17.0992192112,
			"-0.002": 22.5321453034,
			"-0.001": 26.8710143345,
			"0.0": 30.5917175368,
			"0.001": 21.7362462484,
			"0.002": 25.2931627523,
			"0.003": 35.8407422094,
			"0.004": 11.7614256256,
			"0.005": 5.14912069722,
			"0.006": 3.42650854382,
			"0.007": 2.26008305835,
			"0.008": 2.82602912388,
			"0.009": 2.28911519998,
			"0.01": 1.04067252599,
			"0.011": 1.48145606381,
			"0.012": 1.61444813868,
			"0.013": 1.85332622511,
			"0.014": 0.586831666505,
			"0.015": 0.287663025839,
			"0.016": 0.271983287188,
			"0.017": 0.869948555916,
			"0.018": 0.527033713686,
			"0.019": 0.403489910677,
			"0.02": 0.106190645015,
			"0.021": 0.0,
			"0.022": 0.0,
			"0.023": 0.0,
			"0.024": 0.0,
			"0.025": 0.0
		}
	}
}
