{
	 "smiles": "CC=CCC=C", 
	 "Tm": 134.15, 
	 "num_atms": 16, 
	 "gaussian": { 
		 "optdone": 1, 
		 "sigma_profile": "yes", 
		 "theory": "DFT", 
		 "functional": "B3LYP", 
		 "basiset": "6-31G**", 
		 "properties": { 
			 "R2extent": 1184.1003, 
			 "electric_dipole_moment_norm": 0.431987661861, 
			 "electric_quadrupole_moment_norm": 1.86480514532, 
			 "total_energy": -234.627275989, 
			 "HOMO_LUMO_gap": 0.24928, 
			 "cosmo_polarized_energy": -2.2, 
			 "cosmo_cavitation_energy": 19.5, 
			 "cosmo_dispersion_energy": -13.88, 
			 "cosmo_repulsion_energy": 1.23, 
			 "cosmo_total_nonelectrostatic_energy": 6.84, 
			 "SMD_solvation_energy": 4.35 
		},
		"coords": [
			{
				"x": -1.4945475895,
				"y": 2.6026043575,
				"z": 1.1994338458,
				"element": "C" 
			},
			{
				"x": -0.1601118312,
				"y": 1.9449047655,
				"z": 1.404441481,
				"element": "C" 
			},
			{
				"x": 0.3871512206,
				"y": 1.0408505289,
				"z": 0.5878840774,
				"element": "C" 
			},
			{
				"x": 1.7265539776,
				"y": 0.3763582142,
				"z": 0.8019245657,
				"element": "C" 
			},
			{
				"x": 1.6066050076,
				"y": -1.1212444995,
				"z": 0.958928408,
				"element": "C" 
			},
			{
				"x": 2.1621039339,
				"y": -2.0235468674,
				"z": 0.1500048197,
				"element": "C" 
			},
			{
				"x": -2.1689790394,
				"y": 2.4062464352,
				"z": 2.0428810239,
				"element": "H" 
			},
			{
				"x": -1.3943377435,
				"y": 3.6932808518,
				"z": 1.1276925235,
				"element": "H" 
			},
			{
				"x": -1.9821106744,
				"y": 2.2469297779,
				"z": 0.2866325625,
				"element": "H" 
			},
			{
				"x": 0.3926024817,
				"y": 2.2463322623,
				"z": 2.2963269068,
				"element": "H" 
			},
			{
				"x": -0.1597781613,
				"y": 0.7277164983,
				"z": -0.3028030451,
				"element": "H" 
			},
			{
				"x": 2.1987014119,
				"y": 0.8044851116,
				"z": 1.6970473986,
				"element": "H" 
			},
			{
				"x": 2.392814039,
				"y": 0.5925310335,
				"z": -0.044654821,
				"element": "H" 
			},
			{
				"x": 0.9986538555,
				"y": -1.4573638526,
				"z": 1.799319562,
				"element": "H" 
			},
			{
				"x": 2.0353651522,
				"y": -3.0903638397,
				"z": 0.3098725482,
				"element": "H" 
			},
			{
				"x": 2.7693139593,
				"y": -1.7274207776,
				"z": -0.7027318569,
				"element": "H" 
			}
		],
		 "valence_orbital": [ 
			{
				"type": "occ",
				"energy": -0.35181,
				"method": "rhf"
			},
			{
				"type": "occ",
				"energy": -0.34469,
				"method": "rhf"
			},
			{
				"type": "occ",
				"energy": -0.33823,
				"method": "rhf"
			},
			{
				"type": "occ",
				"energy": -0.2556,
				"method": "rhf"
			},
			{
				"type": "occ",
				"energy": -0.23824,
				"method": "rhf"
			},
			{
				"type": "unocc",
				"energy": 0.01104,
				"method": "rhf"
			},
			{
				"type": "unocc",
				"energy": 0.04685,
				"method": "rhf"
			},
			{
				"type": "unocc",
				"energy": 0.11707,
				"method": "rhf"
			},
			{
				"type": "unocc",
				"energy": 0.12139,
				"method": "rhf"
			},
			{
				"type": "unocc",
				"energy": 0.12634,
				"method": "rhf"
			}
		],
		"cosmo_sigma_profile": { 
			"-0.025": 0.0,
			"-0.024": 0.0,
			"-0.023": 0.0,
			"-0.022": 0.0,
			"-0.021": 0.0,
			"-0.02": 0.0,
			"-0.019": 0.0,
			"-0.018": 0.0,
			"-0.017": 0.0,
			"-0.016": 0.0,
			"-0.015": 0.0,
			"-0.014": 0.0,
			"-0.013": 0.0,
			"-0.012": 0.0,
			"-0.011": 0.0,
			"-0.01": 0.0,
			"-0.009": 0.0,
			"-0.008": 0.0,
			"-0.007": 0.0,
			"-0.006": 0.00144051246861,
			"-0.005": 1.78639506222,
			"-0.004": 13.0476244167,
			"-0.003": 20.6014946726,
			"-0.002": 19.1339548893,
			"-0.001": 22.1923098623,
			"0.0": 19.5090853078,
			"0.001": 14.8083366619,
			"0.002": 10.3706547792,
			"0.003": 8.28455748054,
			"0.004": 7.48337111508,
			"0.005": 6.50045051337,
			"0.006": 5.04915845858,
			"0.007": 3.97768147471,
			"0.008": 0.303571714315,
			"0.009": 0.0,
			"0.01": 0.0,
			"0.011": 0.0,
			"0.012": 0.0,
			"0.013": 0.0,
			"0.014": 0.0,
			"0.015": 0.0,
			"0.016": 0.0,
			"0.017": 0.0,
			"0.018": 0.0,
			"0.019": 0.0,
			"0.02": 0.0,
			"0.021": 0.0,
			"0.022": 0.0,
			"0.023": 0.0,
			"0.024": 0.0,
			"0.025": 0.0
		}
	}
}
