{
	 "smiles": "OC(=O)C1=C(N=CC=C1)N1CCN(CC2=CC(Cl)=CC=C2)CC1", 
	 "Tm": 462.15, 
	 "num_atms": 41, 
	 "gaussian": { 
		 "optdone": 1, 
		 "sigma_profile": "yes", 
		 "theory": "DFT", 
		 "functional": "B3LYP", 
		 "basiset": "6-31G**", 
		 "properties": { 
			 "R2extent": 12825.6094, 
			 "electric_dipole_moment_norm": 3.41958359307, 
			 "electric_quadrupole_moment_norm": 40.5506348498, 
			 "total_energy": -1433.54800512, 
			 "HOMO_LUMO_gap": 0.16476, 
			 "cosmo_polarized_energy": -16.59, 
			 "cosmo_cavitation_energy": 45.01, 
			 "cosmo_dispersion_energy": -31.6, 
			 "cosmo_repulsion_energy": 2.39, 
			 "cosmo_total_nonelectrostatic_energy": 15.79, 
			 "SMD_solvation_energy": 5.89 
		},
		"coords": [
			{
				"x": 3.0344266579,
				"y": -0.2848079959,
				"z": 2.9262828697,
				"element": "O" 
			},
			{
				"x": 2.7981634876,
				"y": 0.2805529812,
				"z": 4.1147050438,
				"element": "C" 
			},
			{
				"x": 3.5382144001,
				"y": 0.1311361504,
				"z": 5.0645407952,
				"element": "O" 
			},
			{
				"x": 1.5607354658,
				"y": 1.146569358,
				"z": 4.2124794972,
				"element": "C" 
			},
			{
				"x": 0.5923263339,
				"y": 1.2976878489,
				"z": 3.1992912641,
				"element": "C" 
			},
			{
				"x": -0.4409659357,
				"y": 2.1375255665,
				"z": 3.2968199806,
				"element": "N" 
			},
			{
				"x": -0.5689568692,
				"y": 2.8596045572,
				"z": 4.4155602146,
				"element": "C" 
			},
			{
				"x": 0.3096776099,
				"y": 2.7619713951,
				"z": 5.4951387735,
				"element": "C" 
			},
			{
				"x": 1.389956289,
				"y": 1.8939877734,
				"z": 5.3826787285,
				"element": "C" 
			},
			{
				"x": 0.6951293745,
				"y": 0.5053068936,
				"z": 2.0006086735,
				"element": "N" 
			},
			{
				"x": 0.3372628108,
				"y": 1.2179230805,
				"z": 0.7390514356,
				"element": "C" 
			},
			{
				"x": -1.0332929597,
				"y": 0.793167548,
				"z": 0.2055813678,
				"element": "C" 
			},
			{
				"x": -1.119289239,
				"y": -0.6590181758,
				"z": -0.0591257012,
				"element": "N" 
			},
			{
				"x": -1.0065978991,
				"y": -1.023431341,
				"z": -1.4675270531,
				"element": "C" 
			},
			{
				"x": -2.1941089248,
				"y": -0.5787666466,
				"z": -2.303513055,
				"element": "C" 
			},
			{
				"x": -3.4913374439,
				"y": -0.6634394024,
				"z": -1.781469752,
				"element": "C" 
			},
			{
				"x": -4.5758758602,
				"y": -0.301513197,
				"z": -2.5752620617,
				"element": "C" 
			},
			{
				"x": -6.2020007818,
				"y": -0.4086897965,
				"z": -1.9078461469,
				"element": "Cl" 
			},
			{
				"x": -4.4074642773,
				"y": 0.1450285055,
				"z": -3.8865626838,
				"element": "C" 
			},
			{
				"x": -3.1135903108,
				"y": 0.2294560524,
				"z": -4.3997109076,
				"element": "C" 
			},
			{
				"x": -2.0148192811,
				"y": -0.1249622241,
				"z": -3.6146632403,
				"element": "C" 
			},
			{
				"x": -0.2027182558,
				"y": -1.4415139366,
				"z": 0.7782848406,
				"element": "C" 
			},
			{
				"x": -0.0381373628,
				"y": -0.7898827811,
				"z": 2.1445313647,
				"element": "C" 
			},
			{
				"x": 2.2920843101,
				"y": -0.009902597,
				"z": 2.3091537922,
				"element": "H" 
			},
			{
				"x": -1.41701861,
				"y": 3.5408439398,
				"z": 4.4494146726,
				"element": "H" 
			},
			{
				"x": 0.1542724345,
				"y": 3.3587852996,
				"z": 6.387691276,
				"element": "H" 
			},
			{
				"x": 2.1279637475,
				"y": 1.7808897045,
				"z": 6.1699007805,
				"element": "H" 
			},
			{
				"x": 1.1163069647,
				"y": 1.0012590857,
				"z": -0.0017710166,
				"element": "H" 
			},
			{
				"x": 0.3467721362,
				"y": 2.2920909599,
				"z": 0.9306701768,
				"element": "H" 
			},
			{
				"x": -1.2511712737,
				"y": 1.3366682072,
				"z": -0.7183249516,
				"element": "H" 
			},
			{
				"x": -1.7971700957,
				"y": 1.0863870521,
				"z": 0.9338321944,
				"element": "H" 
			},
			{
				"x": -0.0743404962,
				"y": -0.6489469721,
				"z": -1.9339193556,
				"element": "H" 
			},
			{
				"x": -0.9415089473,
				"y": -2.1194242006,
				"z": -1.5101971561,
				"element": "H" 
			},
			{
				"x": -3.6366902921,
				"y": -0.9981260848,
				"z": -0.7607479503,
				"element": "H" 
			},
			{
				"x": -5.2684884783,
				"y": 0.4230169895,
				"z": -4.4839665447,
				"element": "H" 
			},
			{
				"x": -2.9636852767,
				"y": 0.5812780129,
				"z": -5.4162316586,
				"element": "H" 
			},
			{
				"x": -1.0107585134,
				"y": -0.0485598546,
				"z": -4.0238606152,
				"element": "H" 
			},
			{
				"x": -0.6030509858,
				"y": -2.4547802512,
				"z": 0.9052436466,
				"element": "H" 
			},
			{
				"x": 0.7997396018,
				"y": -1.5496499489,
				"z": 0.3219236426,
				"element": "H" 
			},
			{
				"x": 0.5395961193,
				"y": -1.4412791929,
				"z": 2.8066884756,
				"element": "H" 
			},
			{
				"x": -1.0257893735,
				"y": -0.628642363,
				"z": 2.5971263438,
				"element": "H" 
			}
		],
		 "valence_orbital": [ 
			{
				"type": "occ",
				"energy": -0.26148,
				"method": "rhf"
			},
			{
				"type": "occ",
				"energy": -0.26084,
				"method": "rhf"
			},
			{
				"type": "occ",
				"energy": -0.25377,
				"method": "rhf"
			},
			{
				"type": "occ",
				"energy": -0.24771,
				"method": "rhf"
			},
			{
				"type": "occ",
				"energy": -0.22237,
				"method": "rhf"
			},
			{
				"type": "unocc",
				"energy": -0.05761,
				"method": "rhf"
			},
			{
				"type": "unocc",
				"energy": -0.03886,
				"method": "rhf"
			},
			{
				"type": "unocc",
				"energy": -0.01844,
				"method": "rhf"
			},
			{
				"type": "unocc",
				"energy": -0.01503,
				"method": "rhf"
			},
			{
				"type": "unocc",
				"energy": 0.03032,
				"method": "rhf"
			}
		],
		"cosmo_sigma_profile": { 
			"-0.025": 0.0,
			"-0.024": 0.0,
			"-0.023": 0.0,
			"-0.022": 0.0,
			"-0.021": 0.0,
			"-0.02": 0.0,
			"-0.019": 0.0,
			"-0.018": 0.0,
			"-0.017": 0.0,
			"-0.016": 0.0,
			"-0.015": 0.0,
			"-0.014": 0.0,
			"-0.013": 0.0,
			"-0.012": 0.0,
			"-0.011": 0.0,
			"-0.01": 0.0,
			"-0.009": 0.0,
			"-0.008": 0.959630927486,
			"-0.007": 7.80580862255,
			"-0.006": 16.3895397962,
			"-0.005": 26.1299694818,
			"-0.004": 42.6238343817,
			"-0.003": 37.9746804048,
			"-0.002": 31.5442453245,
			"-0.001": 26.4776428547,
			"0.0": 24.9187637623,
			"0.001": 25.8313014093,
			"0.002": 23.2866206611,
			"0.003": 19.3029401991,
			"0.004": 21.8615408915,
			"0.005": 15.9490437993,
			"0.006": 5.56693831901,
			"0.007": 3.7837803516,
			"0.008": 4.20314578294,
			"0.009": 4.47335713328,
			"0.01": 4.19959206514,
			"0.011": 5.84734894759,
			"0.012": 6.71880692971,
			"0.013": 2.72020331267,
			"0.014": 0.842415675869,
			"0.015": 0.0,
			"0.016": 0.0,
			"0.017": 0.0,
			"0.018": 0.0,
			"0.019": 0.0,
			"0.02": 0.0,
			"0.021": 0.0,
			"0.022": 0.0,
			"0.023": 0.0,
			"0.024": 0.0,
			"0.025": 0.0
		}
	}
}
