{
	 "smiles": "CCOC1=C(C=CC=C1)C1=NN=C(S)N1N", 
	 "Tm": 427.15, 
	 "num_atms": 28, 
	 "gaussian": { 
		 "optdone": 1, 
		 "sigma_profile": "yes", 
		 "theory": "DFT", 
		 "functional": "B3LYP", 
		 "basiset": "6-31G**", 
		 "properties": { 
			 "R2extent": 4910.1782, 
			 "electric_dipole_moment_norm": 6.58469800371, 
			 "electric_quadrupole_moment_norm": 20.1823953207, 
			 "total_energy": -1080.65059573, 
			 "HOMO_LUMO_gap": 0.18226, 
			 "cosmo_polarized_energy": -18.69, 
			 "cosmo_cavitation_energy": 33.63, 
			 "cosmo_dispersion_energy": -23.74, 
			 "cosmo_repulsion_energy": 1.82, 
			 "cosmo_total_nonelectrostatic_energy": 11.71, 
			 "SMD_solvation_energy": 3.58 
		},
		"coords": [
			{
				"x": -2.3330575075,
				"y": -2.5016855713,
				"z": 0.5436026741,
				"element": "C" 
			},
			{
				"x": -1.1442758315,
				"y": -1.7639369267,
				"z": -0.041840111,
				"element": "C" 
			},
			{
				"x": -1.574391877,
				"y": -0.429521553,
				"z": -0.4029886828,
				"element": "O" 
			},
			{
				"x": -0.577193491,
				"y": 0.3649437926,
				"z": -0.9507884404,
				"element": "C" 
			},
			{
				"x": 0.2220409208,
				"y": 1.1767084895,
				"z": -0.1233619176,
				"element": "C" 
			},
			{
				"x": 1.2416305246,
				"y": 1.9371777616,
				"z": -0.7210433342,
				"element": "C" 
			},
			{
				"x": 1.4421748241,
				"y": 1.9097834222,
				"z": -2.0985808472,
				"element": "C" 
			},
			{
				"x": 0.6186556566,
				"y": 1.1242585245,
				"z": -2.9089283394,
				"element": "C" 
			},
			{
				"x": -0.3877834747,
				"y": 0.3497077237,
				"z": -2.3330651263,
				"element": "C" 
			},
			{
				"x": 0.0671620574,
				"y": 1.2293436285,
				"z": 1.3373868313,
				"element": "C" 
			},
			{
				"x": 1.0568213996,
				"y": 1.2163691842,
				"z": 2.2033994249,
				"element": "N" 
			},
			{
				"x": 0.5246019986,
				"y": 1.3200489769,
				"z": 3.476336502,
				"element": "N" 
			},
			{
				"x": -0.7786742387,
				"y": 1.3934150534,
				"z": 3.3463771412,
				"element": "C" 
			},
			{
				"x": -1.9314227401,
				"y": 1.5391310137,
				"z": 4.6681284378,
				"element": "S" 
			},
			{
				"x": -1.1348843529,
				"y": 1.3433594543,
				"z": 2.0196528691,
				"element": "N" 
			},
			{
				"x": -2.4456615297,
				"y": 1.479097832,
				"z": 1.5451053957,
				"element": "N" 
			},
			{
				"x": -2.0438466562,
				"y": -3.5244217996,
				"z": 0.803584622,
				"element": "H" 
			},
			{
				"x": -3.1551086978,
				"y": -2.5468746727,
				"z": -0.1765844132,
				"element": "H" 
			},
			{
				"x": -2.6915647749,
				"y": -2.0092553783,
				"z": 1.4524983955,
				"element": "H" 
			},
			{
				"x": -0.7675031819,
				"y": -2.2668287877,
				"z": -0.9416946683,
				"element": "H" 
			},
			{
				"x": -0.3203202893,
				"y": -1.6948549236,
				"z": 0.6793761006,
				"element": "H" 
			},
			{
				"x": 1.8694964351,
				"y": 2.5455959702,
				"z": -0.078923723,
				"element": "H" 
			},
			{
				"x": 2.232806004,
				"y": 2.5083431363,
				"z": -2.5402753622,
				"element": "H" 
			},
			{
				"x": 0.7612554819,
				"y": 1.1103045925,
				"z": -3.9853602285,
				"element": "H" 
			},
			{
				"x": -1.0343414796,
				"y": -0.277441654,
				"z": -2.9388981059,
				"element": "H" 
			},
			{
				"x": -2.9941282955,
				"y": 1.5295262705,
				"z": 3.8331891061,
				"element": "H" 
			},
			{
				"x": -2.5252212848,
				"y": 2.3717238192,
				"z": 1.0603434566,
				"element": "H" 
			},
			{
				"x": -2.5953655997,
				"y": 0.727982621,
				"z": 0.8699523432,
				"element": "H" 
			}
		],
		 "valence_orbital": [ 
			{
				"type": "occ",
				"energy": -0.28825,
				"method": "rhf"
			},
			{
				"type": "occ",
				"energy": -0.26894,
				"method": "rhf"
			},
			{
				"type": "occ",
				"energy": -0.25998,
				"method": "rhf"
			},
			{
				"type": "occ",
				"energy": -0.2445,
				"method": "rhf"
			},
			{
				"type": "occ",
				"energy": -0.2183,
				"method": "rhf"
			},
			{
				"type": "unocc",
				"energy": -0.03604,
				"method": "rhf"
			},
			{
				"type": "unocc",
				"energy": -0.01569,
				"method": "rhf"
			},
			{
				"type": "unocc",
				"energy": 0.02415,
				"method": "rhf"
			},
			{
				"type": "unocc",
				"energy": 0.03137,
				"method": "rhf"
			},
			{
				"type": "unocc",
				"energy": 0.05119,
				"method": "rhf"
			}
		],
		"cosmo_sigma_profile": { 
			"-0.025": 0.0,
			"-0.024": 0.0,
			"-0.023": 0.0,
			"-0.022": 0.0,
			"-0.021": 0.0,
			"-0.02": 0.0,
			"-0.019": 0.0,
			"-0.018": 0.0,
			"-0.017": 0.0,
			"-0.016": 0.0,
			"-0.015": 0.0,
			"-0.014": 0.683714332259,
			"-0.013": 1.97784215229,
			"-0.012": 1.63125265871,
			"-0.011": 1.94886671236,
			"-0.01": 2.29623146764,
			"-0.009": 3.17413760589,
			"-0.008": 2.30835914744,
			"-0.007": 4.5649309606,
			"-0.006": 10.1588403719,
			"-0.005": 15.8033334409,
			"-0.004": 27.1315906515,
			"-0.003": 27.4525622147,
			"-0.002": 24.3392725871,
			"-0.001": 18.3492514306,
			"0.0": 19.3193973953,
			"0.001": 14.6539986979,
			"0.002": 17.5999133866,
			"0.003": 16.7384107002,
			"0.004": 16.9491477787,
			"0.005": 7.67583726857,
			"0.006": 7.0984317633,
			"0.007": 5.31538747667,
			"0.008": 2.35818015188,
			"0.009": 1.68239553303,
			"0.01": 2.45727687796,
			"0.011": 1.96001954165,
			"0.012": 3.21524427843,
			"0.013": 3.61500270305,
			"0.014": 2.64894987939,
			"0.015": 2.49390914702,
			"0.016": 2.30873839869,
			"0.017": 0.60944884177,
			"0.018": 0.0,
			"0.019": 0.0,
			"0.02": 0.0,
			"0.021": 0.0,
			"0.022": 0.0,
			"0.023": 0.0,
			"0.024": 0.0,
			"0.025": 0.0
		}
	}
}
