{
	 "smiles": "OC(=O)C1CCN(CC1)C(=O)C1=NC=CC=C1", 
	 "Tm": 420.15, 
	 "num_atms": 31, 
	 "gaussian": { 
		 "optdone": 1, 
		 "sigma_profile": "yes", 
		 "theory": "DFT", 
		 "functional": "B3LYP", 
		 "basiset": "6-31G**", 
		 "properties": { 
			 "R2extent": 5459.4656, 
			 "electric_dipole_moment_norm": 5.1955786338, 
			 "electric_quadrupole_moment_norm": 22.5437244418, 
			 "total_energy": -800.901140001, 
			 "HOMO_LUMO_gap": 0.18937, 
			 "cosmo_polarized_energy": -20.83, 
			 "cosmo_cavitation_energy": 33.66, 
			 "cosmo_dispersion_energy": -24.44, 
			 "cosmo_repulsion_energy": 1.88, 
			 "cosmo_total_nonelectrostatic_energy": 11.1, 
			 "SMD_solvation_energy": 5.49 
		},
		"coords": [
			{
				"x": -1.3705413362,
				"y": 0.559091554,
				"z": -4.3014745434,
				"element": "O" 
			},
			{
				"x": -0.0234560924,
				"y": 0.3606741594,
				"z": -4.3825097817,
				"element": "C" 
			},
			{
				"x": 0.5530718933,
				"y": 0.5927365265,
				"z": -5.4151916023,
				"element": "O" 
			},
			{
				"x": 0.6688873798,
				"y": -0.1233397245,
				"z": -3.1104601779,
				"element": "C" 
			},
			{
				"x": -0.0278162776,
				"y": -1.3402203532,
				"z": -2.4326518473,
				"element": "C" 
			},
			{
				"x": -0.8415908437,
				"y": -0.9616394466,
				"z": -1.1926316211,
				"element": "C" 
			},
			{
				"x": 0.0052508862,
				"y": -0.2996660613,
				"z": -0.1929723788,
				"element": "N" 
			},
			{
				"x": 1.1216301487,
				"y": 0.5262782159,
				"z": -0.6898314173,
				"element": "C" 
			},
			{
				"x": 0.8082639824,
				"y": 1.041772468,
				"z": -2.0970786623,
				"element": "C" 
			},
			{
				"x": -0.4275774849,
				"y": -0.3821809452,
				"z": 1.104895467,
				"element": "C" 
			},
			{
				"x": -1.5126219265,
				"y": -0.8980576165,
				"z": 1.3838663015,
				"element": "O" 
			},
			{
				"x": 0.4417517965,
				"y": 0.1283436675,
				"z": 2.2337121794,
				"element": "C" 
			},
			{
				"x": 1.771382626,
				"y": 0.207591533,
				"z": 2.073632658,
				"element": "N" 
			},
			{
				"x": 2.5052475507,
				"y": 0.589266554,
				"z": 3.1253523512,
				"element": "C" 
			},
			{
				"x": 1.9599855751,
				"y": 0.9159536987,
				"z": 4.367383729,
				"element": "C" 
			},
			{
				"x": 0.5762833597,
				"y": 0.8311118933,
				"z": 4.5263386703,
				"element": "C" 
			},
			{
				"x": -0.1982146337,
				"y": 0.4214983862,
				"z": 3.4453996548,
				"element": "C" 
			},
			{
				"x": -1.6993816094,
				"y": 0.3346765503,
				"z": -3.4191133769,
				"element": "H" 
			},
			{
				"x": 1.6678098427,
				"y": -0.4216377,
				"z": -3.4370594473,
				"element": "H" 
			},
			{
				"x": 0.740571423,
				"y": -2.0572917286,
				"z": -2.1272082108,
				"element": "H" 
			},
			{
				"x": -0.675019003,
				"y": -1.8700231193,
				"z": -3.1399922092,
				"element": "H" 
			},
			{
				"x": -1.7002476765,
				"y": -0.3161385116,
				"z": -1.4487911438,
				"element": "H" 
			},
			{
				"x": -1.2786729983,
				"y": -1.8459311294,
				"z": -0.7264905192,
				"element": "H" 
			},
			{
				"x": 2.0563394963,
				"y": -0.0470125206,
				"z": -0.6913478035,
				"element": "H" 
			},
			{
				"x": 1.2750701456,
				"y": 1.3658539616,
				"z": -0.0132584025,
				"element": "H" 
			},
			{
				"x": 1.6011425537,
				"y": 1.7222660251,
				"z": -2.4213284265,
				"element": "H" 
			},
			{
				"x": -0.1156598499,
				"y": 1.6323954035,
				"z": -2.0638887045,
				"element": "H" 
			},
			{
				"x": 3.5811612038,
				"y": 0.6343538275,
				"z": 2.9665693157,
				"element": "H" 
			},
			{
				"x": 2.6049277911,
				"y": 1.2242499551,
				"z": 5.1841543262,
				"element": "H" 
			},
			{
				"x": 0.1112756877,
				"y": 1.073622543,
				"z": 5.4774409106,
				"element": "H" 
			},
			{
				"x": -1.2734536105,
				"y": 0.3075019345,
				"z": 3.5113347125,
				"element": "H" 
			}
		],
		 "valence_orbital": [ 
			{
				"type": "occ",
				"energy": -0.28073,
				"method": "rhf"
			},
			{
				"type": "occ",
				"energy": -0.27207,
				"method": "rhf"
			},
			{
				"type": "occ",
				"energy": -0.26521,
				"method": "rhf"
			},
			{
				"type": "occ",
				"energy": -0.2532,
				"method": "rhf"
			},
			{
				"type": "occ",
				"energy": -0.24287,
				"method": "rhf"
			},
			{
				"type": "unocc",
				"energy": -0.0535,
				"method": "rhf"
			},
			{
				"type": "unocc",
				"energy": -0.03182,
				"method": "rhf"
			},
			{
				"type": "unocc",
				"energy": 0.0091,
				"method": "rhf"
			},
			{
				"type": "unocc",
				"energy": 0.0331,
				"method": "rhf"
			},
			{
				"type": "unocc",
				"energy": 0.05019,
				"method": "rhf"
			}
		],
		"cosmo_sigma_profile": { 
			"-0.025": 0.0,
			"-0.024": 0.0,
			"-0.023": 0.0,
			"-0.022": 0.0,
			"-0.021": 0.0,
			"-0.02": 0.0,
			"-0.019": 0.0,
			"-0.018": 0.0,
			"-0.017": 0.0303011707388,
			"-0.016": 0.817183589778,
			"-0.015": 1.51775482088,
			"-0.014": 1.74021494329,
			"-0.013": 0.575804459696,
			"-0.012": 1.12442989549,
			"-0.011": 1.46781200348,
			"-0.01": 1.08823013421,
			"-0.009": 1.63098081287,
			"-0.008": 1.89942656086,
			"-0.007": 8.37705492367,
			"-0.006": 14.313624639,
			"-0.005": 28.8339973943,
			"-0.004": 28.6987360655,
			"-0.003": 23.6477716194,
			"-0.002": 17.5801527814,
			"-0.001": 12.4263720304,
			"0.0": 13.2089651981,
			"0.001": 17.4382384068,
			"0.002": 18.3140291509,
			"0.003": 6.77505997419,
			"0.004": 5.73327178472,
			"0.005": 6.05189687165,
			"0.006": 4.97863894101,
			"0.007": 4.86224052454,
			"0.008": 5.29667143285,
			"0.009": 5.70056650393,
			"0.01": 6.3399914507,
			"0.011": 8.660703685,
			"0.012": 6.96566075436,
			"0.013": 6.03446790168,
			"0.014": 3.8259227908,
			"0.015": 0.0523687198555,
			"0.016": 0.0,
			"0.017": 0.0,
			"0.018": 0.0,
			"0.019": 0.0,
			"0.02": 0.0,
			"0.021": 0.0,
			"0.022": 0.0,
			"0.023": 0.0,
			"0.024": 0.0,
			"0.025": 0.0
		}
	}
}
