{
	 "smiles": "CC1(NC(=O)NC1=O)C1CCNCC1", 
	 "Tm": 517.15, 
	 "num_atms": 29, 
	 "gaussian": { 
		 "optdone": 1, 
		 "sigma_profile": "yes", 
		 "theory": "DFT", 
		 "functional": "B3LYP", 
		 "basiset": "6-31G**", 
		 "properties": { 
			 "R2extent": 3225.331, 
			 "electric_dipole_moment_norm": 2.56983414834, 
			 "electric_quadrupole_moment_norm": 15.6733043402, 
			 "total_energy": -666.735464245, 
			 "HOMO_LUMO_gap": 0.20623, 
			 "cosmo_polarized_energy": -18.64, 
			 "cosmo_cavitation_energy": 29.78, 
			 "cosmo_dispersion_energy": -21.45, 
			 "cosmo_repulsion_energy": 1.69, 
			 "cosmo_total_nonelectrostatic_energy": 10.02, 
			 "SMD_solvation_energy": 3.48 
		},
		"coords": [
			{
				"x": -0.6080010423,
				"y": 2.4711454767,
				"z": -0.8140292967,
				"element": "C" 
			},
			{
				"x": -0.3366318769,
				"y": 1.3103712394,
				"z": 0.1613635648,
				"element": "C" 
			},
			{
				"x": 1.0998108948,
				"y": 1.0247835541,
				"z": 0.2556635941,
				"element": "N" 
			},
			{
				"x": 1.6637788933,
				"y": 1.366365371,
				"z": 1.4564312394,
				"element": "C" 
			},
			{
				"x": 2.8290430496,
				"y": 1.3230916433,
				"z": 1.7922178254,
				"element": "O" 
			},
			{
				"x": 0.5837764917,
				"y": 1.7914146636,
				"z": 2.2625588782,
				"element": "N" 
			},
			{
				"x": -0.625265117,
				"y": 1.794821019,
				"z": 1.602783025,
				"element": "C" 
			},
			{
				"x": -1.7006281899,
				"y": 2.1323530848,
				"z": 2.0556438937,
				"element": "O" 
			},
			{
				"x": -1.1320058219,
				"y": 0.0226604425,
				"z": -0.2040664048,
				"element": "C" 
			},
			{
				"x": -0.8169484391,
				"y": -1.1630456955,
				"z": 0.7452679355,
				"element": "C" 
			},
			{
				"x": -1.9090835566,
				"y": -2.2636395997,
				"z": 0.660135041,
				"element": "C" 
			},
			{
				"x": -2.5953841482,
				"y": -2.3189149373,
				"z": -0.6297466579,
				"element": "N" 
			},
			{
				"x": -3.3101290197,
				"y": -1.0639942202,
				"z": -0.9132167244,
				"element": "C" 
			},
			{
				"x": -2.6568293285,
				"y": 0.207278392,
				"z": -0.3028495462,
				"element": "C" 
			},
			{
				"x": -0.4564586734,
				"y": 2.1458644951,
				"z": -1.8490301294,
				"element": "H" 
			},
			{
				"x": 0.0724332331,
				"y": 3.3029638505,
				"z": -0.6107255697,
				"element": "H" 
			},
			{
				"x": -1.6320153123,
				"y": 2.8337233586,
				"z": -0.7077188081,
				"element": "H" 
			},
			{
				"x": 1.6911624029,
				"y": 0.8348447718,
				"z": -0.5387629253,
				"element": "H" 
			},
			{
				"x": 0.7099290711,
				"y": 2.0843753024,
				"z": 3.2208667147,
				"element": "H" 
			},
			{
				"x": -0.7719740442,
				"y": -0.2472982248,
				"z": -1.2099778957,
				"element": "H" 
			},
			{
				"x": 0.1640129387,
				"y": -1.5789552839,
				"z": 0.4930132112,
				"element": "H" 
			},
			{
				"x": -0.7440064159,
				"y": -0.8124219574,
				"z": 1.7823835744,
				"element": "H" 
			},
			{
				"x": -1.4748637639,
				"y": -3.2454022495,
				"z": 0.8766768943,
				"element": "H" 
			},
			{
				"x": -2.6740597045,
				"y": -2.0895922406,
				"z": 1.4266819315,
				"element": "H" 
			},
			{
				"x": -1.913133443,
				"y": -2.4957569697,
				"z": -1.3623731173,
				"element": "H" 
			},
			{
				"x": -4.338429897,
				"y": -1.1493232282,
				"z": -0.5374471883,
				"element": "H" 
			},
			{
				"x": -3.3846333874,
				"y": -0.9627383222,
				"z": -2.0018432474,
				"element": "H" 
			},
			{
				"x": -2.9209142873,
				"y": 1.0732993641,
				"z": -0.9168414603,
				"element": "H" 
			},
			{
				"x": -3.0554515064,
				"y": 0.4087269003,
				"z": 0.6960416484,
				"element": "H" 
			}
		],
		 "valence_orbital": [ 
			{
				"type": "occ",
				"energy": -0.29065,
				"method": "rhf"
			},
			{
				"type": "occ",
				"energy": -0.28729,
				"method": "rhf"
			},
			{
				"type": "occ",
				"energy": -0.26673,
				"method": "rhf"
			},
			{
				"type": "occ",
				"energy": -0.26149,
				"method": "rhf"
			},
			{
				"type": "occ",
				"energy": -0.21774,
				"method": "rhf"
			},
			{
				"type": "unocc",
				"energy": -0.01151,
				"method": "rhf"
			},
			{
				"type": "unocc",
				"energy": 0.0557,
				"method": "rhf"
			},
			{
				"type": "unocc",
				"energy": 0.06181,
				"method": "rhf"
			},
			{
				"type": "unocc",
				"energy": 0.07714,
				"method": "rhf"
			},
			{
				"type": "unocc",
				"energy": 0.09264,
				"method": "rhf"
			}
		],
		"cosmo_sigma_profile": { 
			"-0.025": 0.0,
			"-0.024": 0.0,
			"-0.023": 0.0,
			"-0.022": 0.0,
			"-0.021": 0.0,
			"-0.02": 0.0,
			"-0.019": 0.0,
			"-0.018": 0.0,
			"-0.017": 0.287058014532,
			"-0.016": 1.07300863293,
			"-0.015": 2.21001292343,
			"-0.014": 2.29195282389,
			"-0.013": 1.35587839542,
			"-0.012": 1.44666844097,
			"-0.011": 2.42793699749,
			"-0.01": 1.76860926841,
			"-0.009": 3.18950020037,
			"-0.008": 3.85897393907,
			"-0.007": 4.24383390764,
			"-0.006": 4.76338575916,
			"-0.005": 10.2231309992,
			"-0.004": 15.4343245237,
			"-0.003": 24.0057337784,
			"-0.002": 33.0871222263,
			"-0.001": 27.4210263069,
			"0.0": 18.7805113998,
			"0.001": 8.97814368308,
			"0.002": 6.45754760428,
			"0.003": 5.0793506558,
			"0.004": 4.03005851022,
			"0.005": 3.37218476631,
			"0.006": 3.38486767266,
			"0.007": 3.73835668421,
			"0.008": 2.7934847978,
			"0.009": 4.09355619111,
			"0.01": 4.01361172139,
			"0.011": 4.3515439308,
			"0.012": 9.3151499605,
			"0.013": 8.58032101565,
			"0.014": 2.39777965038,
			"0.015": 0.680963936089,
			"0.016": 0.403120461057,
			"0.017": 0.519423344757,
			"0.018": 0.718910347472,
			"0.019": 0.211634856831,
			"0.02": 0.0,
			"0.021": 0.0,
			"0.022": 0.0,
			"0.023": 0.0,
			"0.024": 0.0,
			"0.025": 0.0
		}
	}
}
