{
	 "smiles": "CC1=C(C)C2=CC=C3C(O)=C(CC=C)C(=O)C(O)=C3C2(C)CC1=O", 
	 "Tm": 444.15, 
	 "num_atms": 44, 
	 "gaussian": { 
		 "optdone": 1, 
		 "sigma_profile": "yes", 
		 "theory": "DFT", 
		 "functional": "B3LYP", 
		 "basiset": "6-31G**", 
		 "properties": { 
			 "R2extent": 9229.3461, 
			 "electric_dipole_moment_norm": 6.64469934459, 
			 "electric_quadrupole_moment_norm": 12.9935329953, 
			 "total_energy": -1075.03105877, 
			 "HOMO_LUMO_gap": 0.09491, 
			 "cosmo_polarized_energy": -21.7, 
			 "cosmo_cavitation_energy": 44.53, 
			 "cosmo_dispersion_energy": -31.0, 
			 "cosmo_repulsion_energy": 2.32, 
			 "cosmo_total_nonelectrostatic_energy": 15.84, 
			 "SMD_solvation_energy": 9.48 
		},
		"coords": [
			{
				"x": 2.4318536149,
				"y": -3.7544895468,
				"z": 3.0115505947,
				"element": "C" 
			},
			{
				"x": 1.6865794691,
				"y": -2.8292704473,
				"z": 2.0867865665,
				"element": "C" 
			},
			{
				"x": 0.4183832993,
				"y": -2.3515543308,
				"z": 2.2798149009,
				"element": "C" 
			},
			{
				"x": -0.3858213133,
				"y": -2.6840583193,
				"z": 3.5194569176,
				"element": "C" 
			},
			{
				"x": -0.21519845,
				"y": -1.4671325932,
				"z": 1.2927592545,
				"element": "C" 
			},
			{
				"x": -1.2908457773,
				"y": -0.6979236684,
				"z": 1.6265753255,
				"element": "C" 
			},
			{
				"x": -1.8573103624,
				"y": 0.2572530254,
				"z": 0.7261263226,
				"element": "C" 
			},
			{
				"x": -1.3289742098,
				"y": 0.5097225977,
				"z": -0.5148322956,
				"element": "C" 
			},
			{
				"x": -1.874584695,
				"y": 1.5752627364,
				"z": -1.3586734375,
				"element": "C" 
			},
			{
				"x": -2.8466343481,
				"y": 2.3944066923,
				"z": -0.8683031898,
				"element": "O" 
			},
			{
				"x": -1.4568605891,
				"y": 1.7857865505,
				"z": -2.6424662275,
				"element": "C" 
			},
			{
				"x": -2.0138675796,
				"y": 2.8728072068,
				"z": -3.521611556,
				"element": "C" 
			},
			{
				"x": -3.2593728044,
				"y": 2.5133579615,
				"z": -4.3050607341,
				"element": "C" 
			},
			{
				"x": -3.9214911995,
				"y": 1.3583275302,
				"z": -4.273215218,
				"element": "C" 
			},
			{
				"x": -0.3981554644,
				"y": 0.9402014126,
				"z": -3.1548745165,
				"element": "C" 
			},
			{
				"x": 0.0902915212,
				"y": 1.0406636408,
				"z": -4.2959235998,
				"element": "O" 
			},
			{
				"x": 0.1913358666,
				"y": -0.0988933873,
				"z": -2.2740394155,
				"element": "C" 
			},
			{
				"x": 1.1578894853,
				"y": -0.8070898156,
				"z": -2.8939810488,
				"element": "O" 
			},
			{
				"x": -0.2286857545,
				"y": -0.3138260382,
				"z": -0.995521933,
				"element": "C" 
			},
			{
				"x": 0.321279525,
				"y": -1.4634274189,
				"z": -0.1361379582,
				"element": "C" 
			},
			{
				"x": -0.1203414004,
				"y": -2.8033229106,
				"z": -0.8068908375,
				"element": "C" 
			},
			{
				"x": 1.8659653224,
				"y": -1.3964933687,
				"z": -0.0548803145,
				"element": "C" 
			},
			{
				"x": 2.4676799107,
				"y": -2.4198112008,
				"z": 0.8871197338,
				"element": "C" 
			},
			{
				"x": 3.5945864897,
				"y": -2.8606113538,
				"z": 0.6971096662,
				"element": "O" 
			},
			{
				"x": 1.9637999066,
				"y": -3.8659210093,
				"z": 3.9888269621,
				"element": "H" 
			},
			{
				"x": 3.4545621159,
				"y": -3.3935872214,
				"z": 3.1484628893,
				"element": "H" 
			},
			{
				"x": 2.5263299347,
				"y": -4.7487475902,
				"z": 2.5579673148,
				"element": "H" 
			},
			{
				"x": -1.417869814,
				"y": -2.9363913197,
				"z": 3.25856473,
				"element": "H" 
			},
			{
				"x": -0.4238142807,
				"y": -1.830883322,
				"z": 4.2081382235,
				"element": "H" 
			},
			{
				"x": 0.0326435991,
				"y": -3.5262846173,
				"z": 4.067366991,
				"element": "H" 
			},
			{
				"x": -1.7180439551,
				"y": -0.7534953137,
				"z": 2.621425536,
				"element": "H" 
			},
			{
				"x": -2.7329788467,
				"y": 0.7976358671,
				"z": 1.0763738472,
				"element": "H" 
			},
			{
				"x": -2.8291840618,
				"y": 2.3829867449,
				"z": 0.0966489321,
				"element": "H" 
			},
			{
				"x": -1.2335980342,
				"y": 3.1627703717,
				"z": -4.2357221602,
				"element": "H" 
			},
			{
				"x": -2.2336239543,
				"y": 3.757701832,
				"z": -2.91070384,
				"element": "H" 
			},
			{
				"x": -3.6190009779,
				"y": 3.3101401842,
				"z": -4.9568045784,
				"element": "H" 
			},
			{
				"x": -3.6056816638,
				"y": 0.5303947653,
				"z": -3.6449160205,
				"element": "H" 
			},
			{
				"x": -4.8065674157,
				"y": 1.2003858085,
				"z": -4.8819029977,
				"element": "H" 
			},
			{
				"x": 1.1991881795,
				"y": -0.3882714423,
				"z": -3.7867106268,
				"element": "H" 
			},
			{
				"x": -1.2115807339,
				"y": -2.8650194282,
				"z": -0.8429713597,
				"element": "H" 
			},
			{
				"x": 0.2665150172,
				"y": -2.8481901162,
				"z": -1.8267372991,
				"element": "H" 
			},
			{
				"x": 0.2532820241,
				"y": -3.6674568006,
				"z": -0.2511565604,
				"element": "H" 
			},
			{
				"x": 2.3234621514,
				"y": -1.5203447063,
				"z": -1.0358772135,
				"element": "H" 
			},
			{
				"x": 2.1598602528,
				"y": -0.4045076411,
				"z": 0.3163402306,
				"element": "H" 
			}
		],
		 "valence_orbital": [ 
			{
				"type": "occ",
				"energy": -0.26413,
				"method": "rhf"
			},
			{
				"type": "occ",
				"energy": -0.24576,
				"method": "rhf"
			},
			{
				"type": "occ",
				"energy": -0.244,
				"method": "rhf"
			},
			{
				"type": "occ",
				"energy": -0.23166,
				"method": "rhf"
			},
			{
				"type": "occ",
				"energy": -0.2046,
				"method": "rhf"
			},
			{
				"type": "unocc",
				"energy": -0.10969,
				"method": "rhf"
			},
			{
				"type": "unocc",
				"energy": -0.05371,
				"method": "rhf"
			},
			{
				"type": "unocc",
				"energy": 0.00028,
				"method": "rhf"
			},
			{
				"type": "unocc",
				"energy": 0.01234,
				"method": "rhf"
			},
			{
				"type": "unocc",
				"energy": 0.03304,
				"method": "rhf"
			}
		],
		"cosmo_sigma_profile": { 
			"-0.025": 0.0,
			"-0.024": 0.0,
			"-0.023": 0.0,
			"-0.022": 0.0,
			"-0.021": 0.0,
			"-0.02": 0.0,
			"-0.019": 0.582393979082,
			"-0.018": 0.66728975329,
			"-0.017": 0.986607351008,
			"-0.016": 1.06643607782,
			"-0.015": 1.10975993137,
			"-0.014": 0.30005494975,
			"-0.013": 1.06950417448,
			"-0.012": 1.20290604326,
			"-0.011": 1.70645926557,
			"-0.01": 1.58936792773,
			"-0.009": 2.37129609273,
			"-0.008": 2.06005379198,
			"-0.007": 5.44819315742,
			"-0.006": 10.17738783,
			"-0.005": 15.0959942028,
			"-0.004": 22.4960231225,
			"-0.003": 29.6427779146,
			"-0.002": 38.4301438253,
			"-0.001": 44.0920701264,
			"0.0": 45.3490490838,
			"0.001": 30.5833615617,
			"0.002": 15.729595778,
			"0.003": 10.8688071894,
			"0.004": 7.69669955995,
			"0.005": 9.22874182511,
			"0.006": 9.46437436816,
			"0.007": 9.2705151299,
			"0.008": 7.69133289608,
			"0.009": 4.16170034159,
			"0.01": 4.52864485661,
			"0.011": 4.9824631602,
			"0.012": 6.21175494647,
			"0.013": 5.53643281616,
			"0.014": 0.988630930758,
			"0.015": 0.0,
			"0.016": 0.0,
			"0.017": 0.0,
			"0.018": 0.0,
			"0.019": 0.0,
			"0.02": 0.0,
			"0.021": 0.0,
			"0.022": 0.0,
			"0.023": 0.0,
			"0.024": 0.0,
			"0.025": 0.0
		}
	}
}
