{
	 "smiles": "CS(=O)(=O)C1=CC=C(C=C1)C(=O)CCC(O)=O", 
	 "Tm": 443.15, 
	 "num_atms": 29, 
	 "gaussian": { 
		 "optdone": 1, 
		 "sigma_profile": "yes", 
		 "theory": "DFT", 
		 "functional": "B3LYP", 
		 "basiset": "6-31G**", 
		 "properties": { 
			 "R2extent": 5968.1503, 
			 "electric_dipole_moment_norm": 6.23030745148, 
			 "electric_quadrupole_moment_norm": 43.0187302726, 
			 "total_energy": -1200.64845989, 
			 "HOMO_LUMO_gap": 0.18379, 
			 "cosmo_polarized_energy": -32.88, 
			 "cosmo_cavitation_energy": 35.28, 
			 "cosmo_dispersion_energy": -24.97, 
			 "cosmo_repulsion_energy": 1.91, 
			 "cosmo_total_nonelectrostatic_energy": 12.22, 
			 "SMD_solvation_energy": 7.25 
		},
		"coords": [
			{
				"x": 1.0962141682,
				"y": -3.7387219145,
				"z": 2.0041005673,
				"element": "C" 
			},
			{
				"x": 0.4476193571,
				"y": -2.1863870652,
				"z": 2.6687552859,
				"element": "S" 
			},
			{
				"x": -0.9349006678,
				"y": -2.4342586451,
				"z": 3.1033217298,
				"element": "O" 
			},
			{
				"x": 1.4551444864,
				"y": -1.6443198176,
				"z": 3.5938856526,
				"element": "O" 
			},
			{
				"x": 0.389882885,
				"y": -1.1038496795,
				"z": 1.2270693493,
				"element": "C" 
			},
			{
				"x": 1.4720865918,
				"y": -0.2630816844,
				"z": 0.9691027073,
				"element": "C" 
			},
			{
				"x": 1.4209235058,
				"y": 0.581345436,
				"z": -0.140027961,
				"element": "C" 
			},
			{
				"x": 0.3066089939,
				"y": 0.5713261903,
				"z": -0.9913563635,
				"element": "C" 
			},
			{
				"x": -0.7663701044,
				"y": -0.2902571141,
				"z": -0.7166358689,
				"element": "C" 
			},
			{
				"x": -0.7376989829,
				"y": -1.1182920277,
				"z": 0.400950831,
				"element": "C" 
			},
			{
				"x": 0.2289604516,
				"y": 1.4143654397,
				"z": -2.2365660756,
				"element": "C" 
			},
			{
				"x": -0.3840468597,
				"y": 1.006841807,
				"z": -3.2054494934,
				"element": "O" 
			},
			{
				"x": 0.9733647142,
				"y": 2.750528464,
				"z": -2.2968889761,
				"element": "C" 
			},
			{
				"x": 0.7537511112,
				"y": 3.7133430627,
				"z": -1.1201790563,
				"element": "C" 
			},
			{
				"x": -0.7205077478,
				"y": 3.9929110629,
				"z": -0.8500257045,
				"element": "C" 
			},
			{
				"x": -0.9797524138,
				"y": 5.0391038258,
				"z": -0.0255713096,
				"element": "O" 
			},
			{
				"x": -1.6244243221,
				"y": 3.3308751968,
				"z": -1.294685509,
				"element": "O" 
			},
			{
				"x": 0.413977856,
				"y": -4.1168420878,
				"z": 1.2415868551,
				"element": "H" 
			},
			{
				"x": 2.0920235534,
				"y": -3.5663821275,
				"z": 1.59358118,
				"element": "H" 
			},
			{
				"x": 1.1464290151,
				"y": -4.4318921079,
				"z": 2.8464435241,
				"element": "H" 
			},
			{
				"x": 2.3249500944,
				"y": -0.2624972028,
				"z": 1.6394260517,
				"element": "H" 
			},
			{
				"x": 2.2670578468,
				"y": 1.2290563626,
				"z": -0.3491795745,
				"element": "H" 
			},
			{
				"x": -1.6191985771,
				"y": -0.2840177809,
				"z": -1.386470543,
				"element": "H" 
			},
			{
				"x": -1.579681287,
				"y": -1.7569580876,
				"z": 0.6467603629,
				"element": "H" 
			},
			{
				"x": 2.0487060889,
				"y": 2.5431464914,
				"z": -2.3809549923,
				"element": "H" 
			},
			{
				"x": 0.6621746187,
				"y": 3.2173506582,
				"z": -3.2339971422,
				"element": "H" 
			},
			{
				"x": 1.2768869201,
				"y": 4.6568701848,
				"z": -1.3212995011,
				"element": "H" 
			},
			{
				"x": 1.1825740147,
				"y": 3.3163912959,
				"z": -0.191583204,
				"element": "H" 
			},
			{
				"x": -0.1579553109,
				"y": 5.4728018642,
				"z": 0.2446871778,
				"element": "H" 
			}
		],
		 "valence_orbital": [ 
			{
				"type": "occ",
				"energy": -0.29429,
				"method": "rhf"
			},
			{
				"type": "occ",
				"energy": -0.28642,
				"method": "rhf"
			},
			{
				"type": "occ",
				"energy": -0.28281,
				"method": "rhf"
			},
			{
				"type": "occ",
				"energy": -0.28117,
				"method": "rhf"
			},
			{
				"type": "occ",
				"energy": -0.25808,
				"method": "rhf"
			},
			{
				"type": "unocc",
				"energy": -0.07429,
				"method": "rhf"
			},
			{
				"type": "unocc",
				"energy": -0.03275,
				"method": "rhf"
			},
			{
				"type": "unocc",
				"energy": -0.00496,
				"method": "rhf"
			},
			{
				"type": "unocc",
				"energy": 0.00295,
				"method": "rhf"
			},
			{
				"type": "unocc",
				"energy": 0.04246,
				"method": "rhf"
			}
		],
		"cosmo_sigma_profile": { 
			"-0.025": 0.0,
			"-0.024": 0.0,
			"-0.023": 0.0,
			"-0.022": 0.0,
			"-0.021": 0.0,
			"-0.02": 0.00339654004789,
			"-0.019": 0.975163837254,
			"-0.018": 1.19902525685,
			"-0.017": 1.1385464868,
			"-0.016": 1.37594217385,
			"-0.015": 1.15587651142,
			"-0.014": 0.95703635089,
			"-0.013": 0.958100410643,
			"-0.012": 1.04707958924,
			"-0.011": 1.76762321712,
			"-0.01": 1.51030666377,
			"-0.009": 6.46809777931,
			"-0.008": 16.0081106866,
			"-0.007": 19.6665994151,
			"-0.006": 20.4752839297,
			"-0.005": 19.9204739496,
			"-0.004": 17.724409775,
			"-0.003": 12.7900427749,
			"-0.002": 10.5897672003,
			"-0.001": 9.59243872948,
			"0.0": 11.563384131,
			"0.001": 16.6278532177,
			"0.002": 11.937629781,
			"0.003": 6.58016248331,
			"0.004": 6.99991342295,
			"0.005": 6.33002136592,
			"0.006": 5.34069217172,
			"0.007": 6.14680039909,
			"0.008": 7.20681603523,
			"0.009": 9.02335003806,
			"0.01": 12.9602106846,
			"0.011": 18.7423283353,
			"0.012": 13.795091818,
			"0.013": 1.65087883823,
			"0.014": 0.0,
			"0.015": 0.0,
			"0.016": 0.0,
			"0.017": 0.0,
			"0.018": 0.0,
			"0.019": 0.0,
			"0.02": 0.0,
			"0.021": 0.0,
			"0.022": 0.0,
			"0.023": 0.0,
			"0.024": 0.0,
			"0.025": 0.0
		}
	}
}
