{
	 "smiles": "NC(=O)NC12CC3CC(CC(C3)C1)C2", 
	 "Tm": 523.15, 
	 "num_atms": 32, 
	 "gaussian": { 
		 "optdone": 1, 
		 "sigma_profile": "yes", 
		 "theory": "DFT", 
		 "functional": "B3LYP", 
		 "basiset": "6-31G**", 
		 "properties": { 
			 "R2extent": 2793.3481, 
			 "electric_dipole_moment_norm": 4.1409114842, 
			 "electric_quadrupole_moment_norm": 13.0808733695, 
			 "total_energy": -614.80038125, 
			 "HOMO_LUMO_gap": 0.28275, 
			 "cosmo_polarized_energy": -12.74, 
			 "cosmo_cavitation_energy": 29.42, 
			 "cosmo_dispersion_energy": -22.36, 
			 "cosmo_repulsion_energy": 1.73, 
			 "cosmo_total_nonelectrostatic_energy": 8.79, 
			 "SMD_solvation_energy": 4.08 
		},
		"coords": [
			{
				"x": 0.0100999535,
				"y": -2.9660532524,
				"z": 0.4047655567,
				"element": "N" 
			},
			{
				"x": 0.7615910799,
				"y": -2.1526862661,
				"z": 1.2449052673,
				"element": "C" 
			},
			{
				"x": 1.1217154543,
				"y": -2.5305914756,
				"z": 2.3541396449,
				"element": "O" 
			},
			{
				"x": 1.0857315727,
				"y": -0.8904075104,
				"z": 0.7753815421,
				"element": "N" 
			},
			{
				"x": 0.4117217005,
				"y": -0.0381762264,
				"z": -0.2233700108,
				"element": "C" 
			},
			{
				"x": -1.124360695,
				"y": 0.0242464758,
				"z": -0.0286524923,
				"element": "C" 
			},
			{
				"x": -1.7515569728,
				"y": 1.0035979994,
				"z": -1.0442631346,
				"element": "C" 
			},
			{
				"x": -1.1701281215,
				"y": 2.4151676739,
				"z": -0.825528159,
				"element": "C" 
			},
			{
				"x": 0.3584637609,
				"y": 2.3766449682,
				"z": -1.0287047959,
				"element": "C" 
			},
			{
				"x": 0.6755906112,
				"y": 1.9159795739,
				"z": -2.4655015752,
				"element": "C" 
			},
			{
				"x": 0.0963467428,
				"y": 0.5048817803,
				"z": -2.6864674453,
				"element": "C" 
			},
			{
				"x": -1.4325029488,
				"y": 0.5349647045,
				"z": -2.4793900401,
				"element": "C" 
			},
			{
				"x": 0.7298617593,
				"y": -0.4761215796,
				"z": -1.6761090585,
				"element": "C" 
			},
			{
				"x": 0.9840880121,
				"y": 1.3871028491,
				"z": -0.0266819187,
				"element": "C" 
			},
			{
				"x": -0.0034566763,
				"y": -3.9217182261,
				"z": 0.7331999923,
				"element": "H" 
			},
			{
				"x": 0.146158114,
				"y": -2.8695793518,
				"z": -0.5907179965,
				"element": "H" 
			},
			{
				"x": 1.5581329447,
				"y": -0.3836742968,
				"z": 1.5126563979,
				"element": "H" 
			},
			{
				"x": -1.3390380374,
				"y": 0.3481003811,
				"z": 0.9976228074,
				"element": "H" 
			},
			{
				"x": -1.5554968307,
				"y": -0.975720201,
				"z": -0.1418385076,
				"element": "H" 
			},
			{
				"x": -2.8385101816,
				"y": 1.0253374488,
				"z": -0.8971641767,
				"element": "H" 
			},
			{
				"x": -1.4085331202,
				"y": 2.7688891568,
				"z": 0.1859166132,
				"element": "H" 
			},
			{
				"x": -1.6245361266,
				"y": 3.1259853436,
				"z": -1.5277096673,
				"element": "H" 
			},
			{
				"x": 0.7814531228,
				"y": 3.3741216277,
				"z": -0.856841928,
				"element": "H" 
			},
			{
				"x": 0.2454470495,
				"y": 2.6184774423,
				"z": -3.1907240474,
				"element": "H" 
			},
			{
				"x": 1.7607862854,
				"y": 1.9098937239,
				"z": -2.6311575783,
				"element": "H" 
			},
			{
				"x": 0.3256494898,
				"y": 0.166944412,
				"z": -3.7048131952,
				"element": "H" 
			},
			{
				"x": -1.8572907256,
				"y": -0.4623202344,
				"z": -2.6543723911,
				"element": "H" 
			},
			{
				"x": -1.896672727,
				"y": 1.2107218245,
				"z": -3.209179137,
				"element": "H" 
			},
			{
				"x": 0.3384351842,
				"y": -1.4815600944,
				"z": -1.8771286995,
				"element": "H" 
			},
			{
				"x": 1.8176657024,
				"y": -0.5251144382,
				"z": -1.8056337724,
				"element": "H" 
			},
			{
				"x": 0.779666021,
				"y": 1.7145943279,
				"z": 1.0019264801,
				"element": "H" 
			},
			{
				"x": 2.0749786021,
				"y": 1.3575714399,
				"z": -0.1479645743,
				"element": "H" 
			}
		],
		 "valence_orbital": [ 
			{
				"type": "occ",
				"energy": -0.29161,
				"method": "rhf"
			},
			{
				"type": "occ",
				"energy": -0.28768,
				"method": "rhf"
			},
			{
				"type": "occ",
				"energy": -0.26279,
				"method": "rhf"
			},
			{
				"type": "occ",
				"energy": -0.24634,
				"method": "rhf"
			},
			{
				"type": "occ",
				"energy": -0.23302,
				"method": "rhf"
			},
			{
				"type": "unocc",
				"energy": 0.04973,
				"method": "rhf"
			},
			{
				"type": "unocc",
				"energy": 0.06678,
				"method": "rhf"
			},
			{
				"type": "unocc",
				"energy": 0.08705,
				"method": "rhf"
			},
			{
				"type": "unocc",
				"energy": 0.09913,
				"method": "rhf"
			},
			{
				"type": "unocc",
				"energy": 0.11744,
				"method": "rhf"
			}
		],
		"cosmo_sigma_profile": { 
			"-0.025": 0.0,
			"-0.024": 0.0,
			"-0.023": 0.0,
			"-0.022": 0.0,
			"-0.021": 0.0,
			"-0.02": 0.0,
			"-0.019": 0.0,
			"-0.018": 0.0,
			"-0.017": 0.0,
			"-0.016": 0.0,
			"-0.015": 0.0,
			"-0.014": 0.0,
			"-0.013": 0.680080134123,
			"-0.012": 2.02847410235,
			"-0.011": 2.56476962086,
			"-0.01": 3.05334801048,
			"-0.009": 3.34284054752,
			"-0.008": 3.47153318081,
			"-0.007": 2.48870482406,
			"-0.006": 3.91806735945,
			"-0.005": 3.35849488122,
			"-0.004": 3.9801272748,
			"-0.003": 12.2312383415,
			"-0.002": 40.3296919821,
			"-0.001": 40.0133412132,
			"0.0": 38.2482058127,
			"0.001": 21.5773892636,
			"0.002": 7.20190972216,
			"0.003": 3.4277464801,
			"0.004": 3.09118972194,
			"0.005": 3.81496617274,
			"0.006": 3.20836378525,
			"0.007": 2.81685289951,
			"0.008": 1.62873158884,
			"0.009": 1.78784167537,
			"0.01": 2.29972142819,
			"0.011": 1.05416362652,
			"0.012": 1.23157015309,
			"0.013": 1.69791226965,
			"0.014": 4.29954989588,
			"0.015": 6.11177648508,
			"0.016": 0.763776348948,
			"0.017": 0.0,
			"0.018": 0.0,
			"0.019": 0.0,
			"0.02": 0.0,
			"0.021": 0.0,
			"0.022": 0.0,
			"0.023": 0.0,
			"0.024": 0.0,
			"0.025": 0.0
		}
	}
}
