{
	 "smiles": "ClC1=C(Cl)C2(Cl)C(CBr)CC1(Cl)C2(Cl)Cl", 
	 "Tm": 350.15, 
	 "num_atms": 20, 
	 "gaussian": { 
		 "optdone": 1, 
		 "sigma_profile": "yes", 
		 "theory": "DFT", 
		 "functional": "B3LYP", 
		 "basiset": "6-31G**", 
		 "properties": { 
			 "R2extent": 5720.7267, 
			 "electric_dipole_moment_norm": 2.68654807141, 
			 "electric_quadrupole_moment_norm": 6.89696167671, 
			 "total_energy": -5640.36958863, 
			 "HOMO_LUMO_gap": 0.21307, 
			 "cosmo_polarized_energy": -7.73, 
			 "cosmo_cavitation_energy": 33.59, 
			 "cosmo_dispersion_energy": -24.07, 
			 "cosmo_repulsion_energy": 1.85, 
			 "cosmo_total_nonelectrostatic_energy": 11.37, 
			 "SMD_solvation_energy": 2.66 
		},
		"coords": [
			{
				"x": 2.0860293098,
				"y": -2.2975954786,
				"z": 1.1984511402,
				"element": "Cl" 
			},
			{
				"x": 1.0553279686,
				"y": -0.9638899227,
				"z": 0.9057915209,
				"element": "C" 
			},
			{
				"x": 1.3791766671,
				"y": 0.232467382,
				"z": 0.39235608,
				"element": "C" 
			},
			{
				"x": 2.9291028954,
				"y": 0.8094826212,
				"z": -0.0467928116,
				"element": "Cl" 
			},
			{
				"x": 0.0775834509,
				"y": 1.0144784787,
				"z": 0.2097121548,
				"element": "C" 
			},
			{
				"x": 0.2413876243,
				"y": 2.7761934342,
				"z": 0.0416014485,
				"element": "Cl" 
			},
			{
				"x": -0.7713556448,
				"y": 0.3470040875,
				"z": -0.931945951,
				"element": "C" 
			},
			{
				"x": -0.2177840587,
				"y": 0.4074271519,
				"z": -2.3535698923,
				"element": "C" 
			},
			{
				"x": 1.1825722843,
				"y": -0.9094544304,
				"z": -2.8296297858,
				"element": "Br" 
			},
			{
				"x": -1.0939399605,
				"y": -1.0570343635,
				"z": -0.3347832507,
				"element": "C" 
			},
			{
				"x": -0.4635290876,
				"y": -0.9923665941,
				"z": 1.0898061203,
				"element": "C" 
			},
			{
				"x": -1.0886143835,
				"y": -2.2125312683,
				"z": 2.2181631308,
				"element": "Cl" 
			},
			{
				"x": -0.6954273529,
				"y": 0.5059252758,
				"z": 1.4822707491,
				"element": "C" 
			},
			{
				"x": 0.0481523794,
				"y": 0.9949594357,
				"z": 3.0329868942,
				"element": "Cl" 
			},
			{
				"x": -2.4300154143,
				"y": 0.9782992798,
				"z": 1.5366450458,
				"element": "Cl" 
			},
			{
				"x": -1.6977456951,
				"y": 0.9284289056,
				"z": -0.9830092931,
				"element": "H" 
			},
			{
				"x": 0.2114040007,
				"y": 1.3861678453,
				"z": -2.566715205,
				"element": "H" 
			},
			{
				"x": -1.0175000182,
				"y": 0.2070892583,
				"z": -3.0653148087,
				"element": "H" 
			},
			{
				"x": -2.1696785899,
				"y": -1.2250397346,
				"z": -0.2677355061,
				"element": "H" 
			},
			{
				"x": -0.6390463752,
				"y": -1.8687113637,
				"z": -0.9047877802,
				"element": "H" 
			}
		],
		 "valence_orbital": [ 
			{
				"type": "occ",
				"energy": -0.31776,
				"method": "rhf"
			},
			{
				"type": "occ",
				"energy": -0.31286,
				"method": "rhf"
			},
			{
				"type": "occ",
				"energy": -0.29102,
				"method": "rhf"
			},
			{
				"type": "occ",
				"energy": -0.28522,
				"method": "rhf"
			},
			{
				"type": "occ",
				"energy": -0.26106,
				"method": "rhf"
			},
			{
				"type": "unocc",
				"energy": -0.04799,
				"method": "rhf"
			},
			{
				"type": "unocc",
				"energy": -0.0392,
				"method": "rhf"
			},
			{
				"type": "unocc",
				"energy": -0.01541,
				"method": "rhf"
			},
			{
				"type": "unocc",
				"energy": -0.00782,
				"method": "rhf"
			},
			{
				"type": "unocc",
				"energy": 0.00204,
				"method": "rhf"
			}
		],
		"cosmo_sigma_profile": { 
			"-0.025": 0.0,
			"-0.024": 0.0,
			"-0.023": 0.0,
			"-0.022": 0.0,
			"-0.021": 0.0,
			"-0.02": 0.0,
			"-0.019": 0.0,
			"-0.018": 0.0,
			"-0.017": 0.0,
			"-0.016": 0.0,
			"-0.015": 0.0,
			"-0.014": 0.0,
			"-0.013": 0.0,
			"-0.012": 0.0,
			"-0.011": 0.0,
			"-0.01": 0.0,
			"-0.009": 2.44808063073,
			"-0.008": 5.22556853658,
			"-0.007": 7.82535531888,
			"-0.006": 9.34810016969,
			"-0.005": 12.1627843118,
			"-0.004": 13.764333711,
			"-0.003": 16.706122995,
			"-0.002": 17.3170074658,
			"-0.001": 19.1353013373,
			"0.0": 27.0544370125,
			"0.001": 27.9250601571,
			"0.002": 43.2064683766,
			"0.003": 48.5134986442,
			"0.004": 21.3471867298,
			"0.005": 7.48923043807,
			"0.006": 3.45304536388,
			"0.007": 0.0,
			"0.008": 0.0,
			"0.009": 0.0,
			"0.01": 0.0,
			"0.011": 0.0,
			"0.012": 0.0,
			"0.013": 0.0,
			"0.014": 0.0,
			"0.015": 0.0,
			"0.016": 0.0,
			"0.017": 0.0,
			"0.018": 0.0,
			"0.019": 0.0,
			"0.02": 0.0,
			"0.021": 0.0,
			"0.022": 0.0,
			"0.023": 0.0,
			"0.024": 0.0,
			"0.025": 0.0
		}
	}
}
