{
	 "smiles": "CN(C)C1=CC=C(C=C[N+]([O-])=O)C=C1", 
	 "Tm": 461.15, 
	 "num_atms": 26, 
	 "gaussian": { 
		 "optdone": 1, 
		 "sigma_profile": "yes", 
		 "theory": "DFT", 
		 "functional": "B3LYP", 
		 "basiset": "6-31G**", 
		 "properties": { 
			 "R2extent": 5979.2932, 
			 "electric_dipole_moment_norm": 9.95746017717, 
			 "electric_quadrupole_moment_norm": 40.7846759695, 
			 "total_energy": -648.128830417, 
			 "HOMO_LUMO_gap": 0.12699, 
			 "cosmo_polarized_energy": -15.22, 
			 "cosmo_cavitation_energy": 30.36, 
			 "cosmo_dispersion_energy": -22.05, 
			 "cosmo_repulsion_energy": 1.71, 
			 "cosmo_total_nonelectrostatic_energy": 10.03, 
			 "SMD_solvation_energy": 7.77 
		},
		"coords": [
			{
				"x": -1.7982034495,
				"y": 0.2011328924,
				"z": 2.2618427681,
				"element": "C" 
			},
			{
				"x": -0.6043540298,
				"y": -0.3971721628,
				"z": 1.6847701486,
				"element": "N" 
			},
			{
				"x": 0.1620414075,
				"y": -1.3609572396,
				"z": 2.4589875456,
				"element": "C" 
			},
			{
				"x": -0.2023775475,
				"y": -0.0566589063,
				"z": 0.4141588019,
				"element": "C" 
			},
			{
				"x": -0.9335103006,
				"y": 0.8814054105,
				"z": -0.3636058119,
				"element": "C" 
			},
			{
				"x": -0.5266093594,
				"y": 1.2216021049,
				"z": -1.640093007,
				"element": "C" 
			},
			{
				"x": 0.6257894744,
				"y": 0.6579640767,
				"z": -2.2281658037,
				"element": "C" 
			},
			{
				"x": 1.093164448,
				"y": 0.9810243683,
				"z": -3.5599994926,
				"element": "C" 
			},
			{
				"x": 0.5386644087,
				"y": 1.8380493234,
				"z": -4.4379004143,
				"element": "C" 
			},
			{
				"x": 1.1343314857,
				"y": 2.047835166,
				"z": -5.7349095861,
				"element": "N" 
			},
			{
				"x": 2.1628159729,
				"y": 1.4339644338,
				"z": -6.0405115154,
				"element": "O" 
			},
			{
				"x": 0.5541720943,
				"y": 2.8537137198,
				"z": -6.4730473462,
				"element": "O" 
			},
			{
				"x": 1.3470491508,
				"y": -0.2716370914,
				"z": -1.4530344702,
				"element": "C" 
			},
			{
				"x": 0.9556984174,
				"y": -0.625453107,
				"z": -0.1725589138,
				"element": "C" 
			},
			{
				"x": -2.69596582,
				"y": -0.0284995031,
				"z": 1.6728255356,
				"element": "H" 
			},
			{
				"x": -1.7116886958,
				"y": 1.2930276756,
				"z": 2.3384922256,
				"element": "H" 
			},
			{
				"x": -1.9469767914,
				"y": -0.1942265574,
				"z": 3.2667906842,
				"element": "H" 
			},
			{
				"x": 1.192188425,
				"y": -1.0207936308,
				"z": 2.6285808664,
				"element": "H" 
			},
			{
				"x": 0.2047183486,
				"y": -2.3402680173,
				"z": 1.9641163825,
				"element": "H" 
			},
			{
				"x": -0.3106980136,
				"y": -1.4969653818,
				"z": 3.431800191,
				"element": "H" 
			},
			{
				"x": -1.8257287829,
				"y": 1.3445448524,
				"z": 0.0385893599,
				"element": "H" 
			},
			{
				"x": -1.1181957314,
				"y": 1.9433447623,
				"z": -2.1953689829,
				"element": "H" 
			},
			{
				"x": 1.995899029,
				"y": 0.4790532316,
				"z": -3.9009626045,
				"element": "H" 
			},
			{
				"x": -0.3516929015,
				"y": 2.4347626703,
				"z": -4.3028320081,
				"element": "H" 
			},
			{
				"x": 2.2403394581,
				"y": -0.7265634015,
				"z": -1.8734424302,
				"element": "H" 
			},
			{
				"x": 1.5501293032,
				"y": -1.3457296891,
				"z": 0.3750778778,
				"element": "H" 
			}
		],
		 "valence_orbital": [ 
			{
				"type": "occ",
				"energy": -0.28247,
				"method": "rhf"
			},
			{
				"type": "occ",
				"energy": -0.27497,
				"method": "rhf"
			},
			{
				"type": "occ",
				"energy": -0.26679,
				"method": "rhf"
			},
			{
				"type": "occ",
				"energy": -0.26396,
				"method": "rhf"
			},
			{
				"type": "occ",
				"energy": -0.20479,
				"method": "rhf"
			},
			{
				"type": "unocc",
				"energy": -0.0778,
				"method": "rhf"
			},
			{
				"type": "unocc",
				"energy": -0.01444,
				"method": "rhf"
			},
			{
				"type": "unocc",
				"energy": -0.00218,
				"method": "rhf"
			},
			{
				"type": "unocc",
				"energy": 0.06501,
				"method": "rhf"
			},
			{
				"type": "unocc",
				"energy": 0.06851,
				"method": "rhf"
			}
		],
		"cosmo_sigma_profile": { 
			"-0.025": 0.0,
			"-0.024": 0.0,
			"-0.023": 0.0,
			"-0.022": 0.0,
			"-0.021": 0.0,
			"-0.02": 0.0,
			"-0.019": 0.0,
			"-0.018": 0.0,
			"-0.017": 0.0,
			"-0.016": 0.0,
			"-0.015": 0.0,
			"-0.014": 0.0,
			"-0.013": 0.0,
			"-0.012": 0.0,
			"-0.011": 0.0,
			"-0.01": 0.136049067147,
			"-0.009": 1.53090358176,
			"-0.008": 3.97955013038,
			"-0.007": 7.36180286633,
			"-0.006": 13.2060854752,
			"-0.005": 21.0622445972,
			"-0.004": 22.5631586089,
			"-0.003": 20.602727626,
			"-0.002": 23.7658470995,
			"-0.001": 15.8259902685,
			"0.0": 13.3851808704,
			"0.001": 13.8958953961,
			"0.002": 15.4545850884,
			"0.003": 12.2101304226,
			"0.004": 13.5039201455,
			"0.005": 8.32211273768,
			"0.006": 2.83609145351,
			"0.007": 2.61439177896,
			"0.008": 3.83901760634,
			"0.009": 10.7997489686,
			"0.01": 7.55469197659,
			"0.011": 4.73572657551,
			"0.012": 2.15249070757,
			"0.013": 0.0296629423717,
			"0.014": 0.0,
			"0.015": 0.0,
			"0.016": 0.0,
			"0.017": 0.0,
			"0.018": 0.0,
			"0.019": 0.0,
			"0.02": 0.0,
			"0.021": 0.0,
			"0.022": 0.0,
			"0.023": 0.0,
			"0.024": 0.0,
			"0.025": 0.0
		}
	}
}
