{
	 "smiles": "OC(=O)C1=CC2=C(N1)C=C(OC(F)(F)F)C=C2", 
	 "Tm": 434.15, 
	 "num_atms": 23, 
	 "gaussian": { 
		 "optdone": 1, 
		 "sigma_profile": "yes", 
		 "theory": "DFT", 
		 "functional": "B3LYP", 
		 "basiset": "6-31G**", 
		 "properties": { 
			 "R2extent": 5562.6807, 
			 "electric_dipole_moment_norm": 2.76343556827, 
			 "electric_quadrupole_moment_norm": 26.2374967438, 
			 "total_energy": -964.634131277, 
			 "HOMO_LUMO_gap": 0.17014, 
			 "cosmo_polarized_energy": -18.24, 
			 "cosmo_cavitation_energy": 30.16, 
			 "cosmo_dispersion_energy": -21.81, 
			 "cosmo_repulsion_energy": 1.62, 
			 "cosmo_total_nonelectrostatic_energy": 9.97, 
			 "SMD_solvation_energy": 7.56 
		},
		"coords": [
			{
				"x": -1.2454570434,
				"y": -4.4479188472,
				"z": 2.1148806554,
				"element": "O" 
			},
			{
				"x": -1.7862360648,
				"y": -3.2738164539,
				"z": 2.5658218595,
				"element": "C" 
			},
			{
				"x": -2.553410364,
				"y": -3.2662255188,
				"z": 3.4977540973,
				"element": "O" 
			},
			{
				"x": -1.374705366,
				"y": -2.0646377826,
				"z": 1.8292843327,
				"element": "C" 
			},
			{
				"x": -1.3933255201,
				"y": -0.7640250276,
				"z": 2.2677794864,
				"element": "C" 
			},
			{
				"x": -0.856417064,
				"y": 0.0489158108,
				"z": 1.219194956,
				"element": "C" 
			},
			{
				"x": -0.5355490751,
				"y": -0.8209019789,
				"z": 0.1417123434,
				"element": "C" 
			},
			{
				"x": -0.8135478496,
				"y": -2.1127508887,
				"z": 0.5454050444,
				"element": "N" 
			},
			{
				"x": -0.0225189513,
				"y": -0.3682408735,
				"z": -1.0800373577,
				"element": "C" 
			},
			{
				"x": 0.1805637665,
				"y": 1.0006209477,
				"z": -1.1844220244,
				"element": "C" 
			},
			{
				"x": 0.686044362,
				"y": 1.6368621548,
				"z": -2.3204286497,
				"element": "O" 
			},
			{
				"x": 1.0303231012,
				"y": 0.9392153908,
				"z": -3.4291763909,
				"element": "C" 
			},
			{
				"x": 2.0032104626,
				"y": 0.0361109111,
				"z": -3.191475797,
				"element": "F" 
			},
			{
				"x": 1.475180481,
				"y": 1.8137040251,
				"z": -4.328171158,
				"element": "F" 
			},
			{
				"x": -0.0106293418,
				"y": 0.2679863251,
				"z": -3.962866252,
				"element": "F" 
			},
			{
				"x": -0.1062258427,
				"y": 1.894163994,
				"z": -0.1309686287,
				"element": "C" 
			},
			{
				"x": -0.6197309747,
				"y": 1.4280349589,
				"z": 1.0657818632,
				"element": "C" 
			},
			{
				"x": -0.4554341444,
				"y": -4.2632771877,
				"z": 1.5857822334,
				"element": "H" 
			},
			{
				"x": -1.7264172708,
				"y": -0.4490750241,
				"z": 3.2459099154,
				"element": "H" 
			},
			{
				"x": -0.9915501692,
				"y": -2.8644567145,
				"z": -0.1053959522,
				"element": "H" 
			},
			{
				"x": 0.2062213302,
				"y": -1.0519033747,
				"z": -1.8863547309,
				"element": "H" 
			},
			{
				"x": 0.0851651917,
				"y": 2.9491594839,
				"z": -0.2912560169,
				"element": "H" 
			},
			{
				"x": -0.8434536536,
				"y": 2.1209556702,
				"z": 1.8707461711,
				"element": "H" 
			}
		],
		 "valence_orbital": [ 
			{
				"type": "occ",
				"energy": -0.32506,
				"method": "rhf"
			},
			{
				"type": "occ",
				"energy": -0.30164,
				"method": "rhf"
			},
			{
				"type": "occ",
				"energy": -0.28229,
				"method": "rhf"
			},
			{
				"type": "occ",
				"energy": -0.24975,
				"method": "rhf"
			},
			{
				"type": "occ",
				"energy": -0.23054,
				"method": "rhf"
			},
			{
				"type": "unocc",
				"energy": -0.0604,
				"method": "rhf"
			},
			{
				"type": "unocc",
				"energy": -0.01089,
				"method": "rhf"
			},
			{
				"type": "unocc",
				"energy": 0.01171,
				"method": "rhf"
			},
			{
				"type": "unocc",
				"energy": 0.03712,
				"method": "rhf"
			},
			{
				"type": "unocc",
				"energy": 0.07873,
				"method": "rhf"
			}
		],
		"cosmo_sigma_profile": { 
			"-0.025": 0.0,
			"-0.024": 0.0,
			"-0.023": 0.0,
			"-0.022": 0.0,
			"-0.021": 0.0,
			"-0.02": 0.0,
			"-0.019": 0.39484819234,
			"-0.018": 1.63480937058,
			"-0.017": 2.02920543806,
			"-0.016": 2.76838220705,
			"-0.015": 2.54318621059,
			"-0.014": 1.77554092126,
			"-0.013": 2.18009770631,
			"-0.012": 1.41127254424,
			"-0.011": 1.87272709646,
			"-0.01": 1.94421163514,
			"-0.009": 2.0248645102,
			"-0.008": 2.59925019418,
			"-0.007": 6.67466722205,
			"-0.006": 7.63046547751,
			"-0.005": 8.70084131902,
			"-0.004": 8.50376119845,
			"-0.003": 7.20932370258,
			"-0.002": 9.25293509209,
			"-0.001": 13.7858636688,
			"0.0": 19.7847265145,
			"0.001": 30.5499350573,
			"0.002": 44.037803747,
			"0.003": 20.1184991397,
			"0.004": 10.0110988094,
			"0.005": 4.39186846254,
			"0.006": 3.08813362539,
			"0.007": 2.1740179757,
			"0.008": 2.84053905769,
			"0.009": 3.90069857681,
			"0.01": 4.48034219281,
			"0.011": 6.03499684849,
			"0.012": 5.07845958383,
			"0.013": 1.36945243192,
			"0.014": 0.0,
			"0.015": 0.0,
			"0.016": 0.0,
			"0.017": 0.0,
			"0.018": 0.0,
			"0.019": 0.0,
			"0.02": 0.0,
			"0.021": 0.0,
			"0.022": 0.0,
			"0.023": 0.0,
			"0.024": 0.0,
			"0.025": 0.0
		}
	}
}
