{
	 "smiles": "CC1=NN(N=C1C(O)=O)C1=CC(Cl)=CC=C1", 
	 "Tm": 476.15, 
	 "num_atms": 24, 
	 "gaussian": { 
		 "optdone": 1, 
		 "sigma_profile": "yes", 
		 "theory": "DFT", 
		 "functional": "B3LYP", 
		 "basiset": "6-31G**", 
		 "properties": { 
			 "R2extent": 5997.6918, 
			 "electric_dipole_moment_norm": 3.480180287, 
			 "electric_quadrupole_moment_norm": 23.7857425289, 
			 "total_energy": -1160.77090022, 
			 "HOMO_LUMO_gap": 0.17838, 
			 "cosmo_polarized_energy": -11.98, 
			 "cosmo_cavitation_energy": 31.52, 
			 "cosmo_dispersion_energy": -23.19, 
			 "cosmo_repulsion_energy": 1.81, 
			 "cosmo_total_nonelectrostatic_energy": 10.13, 
			 "SMD_solvation_energy": 5.07 
		},
		"coords": [
			{
				"x": -0.2267718238,
				"y": 4.0373978306,
				"z": -0.2074028267,
				"element": "C" 
			},
			{
				"x": -0.7141174785,
				"y": 2.6507941818,
				"z": -0.4624060732,
				"element": "C" 
			},
			{
				"x": -0.6856605436,
				"y": 1.6944519444,
				"z": 0.4649618448,
				"element": "N" 
			},
			{
				"x": -1.2017556182,
				"y": 0.6130851011,
				"z": -0.1455047524,
				"element": "N" 
			},
			{
				"x": -1.5638593917,
				"y": 0.8035128825,
				"z": -1.4090839219,
				"element": "N" 
			},
			{
				"x": -1.266814528,
				"y": 2.0866351956,
				"z": -1.6390190136,
				"element": "C" 
			},
			{
				"x": -1.5179308551,
				"y": 2.7173151073,
				"z": -2.954525183,
				"element": "C" 
			},
			{
				"x": -2.0630197418,
				"y": 1.9030200508,
				"z": -3.8841584156,
				"element": "O" 
			},
			{
				"x": -1.25879338,
				"y": 3.8763585704,
				"z": -3.1872626712,
				"element": "O" 
			},
			{
				"x": -1.3451295338,
				"y": -0.63610536,
				"z": 0.519480958,
				"element": "C" 
			},
			{
				"x": -0.9355753524,
				"y": -0.7398076681,
				"z": 1.8515490988,
				"element": "C" 
			},
			{
				"x": -1.0817804877,
				"y": -1.9682377571,
				"z": 2.4896451972,
				"element": "C" 
			},
			{
				"x": -0.5730692002,
				"y": -2.1181419413,
				"z": 4.1626447698,
				"element": "Cl" 
			},
			{
				"x": -1.6195657737,
				"y": -3.0770989928,
				"z": 1.8361734935,
				"element": "C" 
			},
			{
				"x": -2.0193000367,
				"y": -2.941594577,
				"z": 0.5058578402,
				"element": "C" 
			},
			{
				"x": -1.8876917691,
				"y": -1.7273464341,
				"z": -0.1639868128,
				"element": "C" 
			},
			{
				"x": 0.1369613824,
				"y": 4.1237267311,
				"z": 0.8179644776,
				"element": "H" 
			},
			{
				"x": 0.5776082891,
				"y": 4.297223702,
				"z": -0.9014295531,
				"element": "H" 
			},
			{
				"x": -1.0276761218,
				"y": 4.7639704493,
				"z": -0.3712830165,
				"element": "H" 
			},
			{
				"x": -2.1902338116,
				"y": 1.0215470863,
				"z": -3.4937725122,
				"element": "H" 
			},
			{
				"x": -0.5179226137,
				"y": 0.1170022139,
				"z": 2.3629098161,
				"element": "H" 
			},
			{
				"x": -1.7214048742,
				"y": -4.0212772471,
				"z": 2.3584915356,
				"element": "H" 
			},
			{
				"x": -2.4395361467,
				"y": -3.7956517466,
				"z": -0.0157866906,
				"element": "H" 
			},
			{
				"x": -2.1965605892,
				"y": -1.6183793228,
				"z": -1.1956575887,
				"element": "H" 
			}
		],
		 "valence_orbital": [ 
			{
				"type": "occ",
				"energy": -0.31669,
				"method": "rhf"
			},
			{
				"type": "occ",
				"energy": -0.30923,
				"method": "rhf"
			},
			{
				"type": "occ",
				"energy": -0.28333,
				"method": "rhf"
			},
			{
				"type": "occ",
				"energy": -0.26965,
				"method": "rhf"
			},
			{
				"type": "occ",
				"energy": -0.25209,
				"method": "rhf"
			},
			{
				"type": "unocc",
				"energy": -0.07371,
				"method": "rhf"
			},
			{
				"type": "unocc",
				"energy": -0.03441,
				"method": "rhf"
			},
			{
				"type": "unocc",
				"energy": -0.02268,
				"method": "rhf"
			},
			{
				"type": "unocc",
				"energy": 0.00811,
				"method": "rhf"
			},
			{
				"type": "unocc",
				"energy": 0.01627,
				"method": "rhf"
			}
		],
		"cosmo_sigma_profile": { 
			"-0.025": 0.0,
			"-0.024": 0.0,
			"-0.023": 0.0,
			"-0.022": 0.0,
			"-0.021": 0.0,
			"-0.02": 0.0,
			"-0.019": 0.0,
			"-0.018": 0.0,
			"-0.017": 0.0,
			"-0.016": 0.366191866471,
			"-0.015": 0.475972391171,
			"-0.014": 0.628084729237,
			"-0.013": 0.661249342156,
			"-0.012": 0.908472434319,
			"-0.011": 0.847579563381,
			"-0.01": 0.581730063623,
			"-0.009": 0.323770962402,
			"-0.008": 3.14035208106,
			"-0.007": 8.17250091558,
			"-0.006": 10.4280869249,
			"-0.005": 13.2753287695,
			"-0.004": 16.3383734406,
			"-0.003": 19.6280112161,
			"-0.002": 24.3400697909,
			"-0.001": 24.4350071589,
			"0.0": 20.0883580901,
			"0.001": 25.250738538,
			"0.002": 21.3967890704,
			"0.003": 14.46642672,
			"0.004": 14.2154047907,
			"0.005": 5.58983293882,
			"0.006": 3.80159163399,
			"0.007": 4.37884917035,
			"0.008": 4.16401859732,
			"0.009": 5.00443396085,
			"0.01": 5.07602221464,
			"0.011": 4.32838267471,
			"0.012": 2.88748419073,
			"0.013": 0.612623813015,
			"0.014": 0.0,
			"0.015": 0.0,
			"0.016": 0.0,
			"0.017": 0.0,
			"0.018": 0.0,
			"0.019": 0.0,
			"0.02": 0.0,
			"0.021": 0.0,
			"0.022": 0.0,
			"0.023": 0.0,
			"0.024": 0.0,
			"0.025": 0.0
		}
	}
}
