{
	 "smiles": "CC(C)C1=CC2=C(C(C(C)C)=C1O)C(C)(C)CC2(C)C", 
	 "Tm": 420.15, 
	 "num_atms": 50, 
	 "gaussian": { 
		 "optdone": 1, 
		 "sigma_profile": "yes", 
		 "theory": "DFT", 
		 "functional": "B3LYP", 
		 "basiset": "6-31G**", 
		 "properties": { 
			 "R2extent": 6131.558, 
			 "electric_dipole_moment_norm": 1.59936491771, 
			 "electric_quadrupole_moment_norm": 8.52585505389, 
			 "total_energy": -817.36646668, 
			 "HOMO_LUMO_gap": 0.208, 
			 "cosmo_polarized_energy": -5.88, 
			 "cosmo_cavitation_energy": 45.49, 
			 "cosmo_dispersion_energy": -30.26, 
			 "cosmo_repulsion_energy": 2.33, 
			 "cosmo_total_nonelectrostatic_energy": 17.56, 
			 "SMD_solvation_energy": 7.93 
		},
		"coords": [
			{
				"x": -1.4144387912,
				"y": 3.0238111221,
				"z": 2.965664807,
				"element": "C" 
			},
			{
				"x": -1.7867647139,
				"y": 1.6100438206,
				"z": 2.4658889007,
				"element": "C" 
			},
			{
				"x": -1.8744893639,
				"y": 0.5863259448,
				"z": 3.61944523,
				"element": "C" 
			},
			{
				"x": -0.929951755,
				"y": 1.1317155104,
				"z": 1.2930355497,
				"element": "C" 
			},
			{
				"x": -1.5400436478,
				"y": 0.9174379076,
				"z": 0.0531241544,
				"element": "C" 
			},
			{
				"x": -0.8110664186,
				"y": 0.4616647488,
				"z": -1.0377639227,
				"element": "C" 
			},
			{
				"x": 0.5647783387,
				"y": 0.2091320768,
				"z": -0.9243828411,
				"element": "C" 
			},
			{
				"x": 1.2353936457,
				"y": 0.4502353866,
				"z": 0.2917262067,
				"element": "C" 
			},
			{
				"x": 2.7465264257,
				"y": 0.2682481784,
				"z": 0.4520045237,
				"element": "C" 
			},
			{
				"x": 3.1173679427,
				"y": -0.8699866585,
				"z": 1.4247181324,
				"element": "C" 
			},
			{
				"x": 3.4742957023,
				"y": 1.5818934954,
				"z": 0.8086305762,
				"element": "C" 
			},
			{
				"x": 0.4558155747,
				"y": 0.8933561105,
				"z": 1.3852492645,
				"element": "C" 
			},
			{
				"x": 1.1306266571,
				"y": 1.0841768933,
				"z": 2.5733602128,
				"element": "O" 
			},
			{
				"x": 1.1279752126,
				"y": -0.2956810187,
				"z": -2.2695526777,
				"element": "C" 
			},
			{
				"x": 1.896677214,
				"y": -1.6336006865,
				"z": -2.1812684022,
				"element": "C" 
			},
			{
				"x": 2.0180894826,
				"y": 0.7700703646,
				"z": -2.9510321802,
				"element": "C" 
			},
			{
				"x": -0.1733143038,
				"y": -0.5405604994,
				"z": -3.1035717695,
				"element": "C" 
			},
			{
				"x": -1.3490293661,
				"y": 0.2291226268,
				"z": -2.4428876731,
				"element": "C" 
			},
			{
				"x": -2.6404904087,
				"y": -0.6104944081,
				"z": -2.4547351989,
				"element": "C" 
			},
			{
				"x": -1.6251155839,
				"y": 1.5776388053,
				"z": -3.1469429505,
				"element": "C" 
			},
			{
				"x": -2.1248603777,
				"y": 3.3588453142,
				"z": 3.7290945556,
				"element": "H" 
			},
			{
				"x": -0.413852946,
				"y": 3.0816778111,
				"z": 3.4106901741,
				"element": "H" 
			},
			{
				"x": -1.4348262247,
				"y": 3.7409983545,
				"z": 2.1400406189,
				"element": "H" 
			},
			{
				"x": -2.8041556641,
				"y": 1.6958796484,
				"z": 2.0658193277,
				"element": "H" 
			},
			{
				"x": -2.2230500267,
				"y": -0.3815757279,
				"z": 3.2478087445,
				"element": "H" 
			},
			{
				"x": -2.5762037401,
				"y": 0.9322798351,
				"z": 4.3861164424,
				"element": "H" 
			},
			{
				"x": -0.9138046528,
				"y": 0.4078163877,
				"z": 4.1164097539,
				"element": "H" 
			},
			{
				"x": -2.6066914591,
				"y": 1.1085682344,
				"z": -0.0443604922,
				"element": "H" 
			},
			{
				"x": 3.1305697574,
				"y": -0.0252953198,
				"z": -0.5251062461,
				"element": "H" 
			},
			{
				"x": 2.6560283421,
				"y": -1.8141592577,
				"z": 1.1167880875,
				"element": "H" 
			},
			{
				"x": 4.2038578312,
				"y": -1.0154583421,
				"z": 1.438416642,
				"element": "H" 
			},
			{
				"x": 2.7899166412,
				"y": -0.6464406507,
				"z": 2.4418950907,
				"element": "H" 
			},
			{
				"x": 3.1897079895,
				"y": 1.9444802173,
				"z": 1.7976159244,
				"element": "H" 
			},
			{
				"x": 4.5586438215,
				"y": 1.4212652419,
				"z": 0.8005115226,
				"element": "H" 
			},
			{
				"x": 3.2459598247,
				"y": 2.365616691,
				"z": 0.0783752983,
				"element": "H" 
			},
			{
				"x": 0.5172085987,
				"y": 1.4068067771,
				"z": 3.2409297165,
				"element": "H" 
			},
			{
				"x": 2.0544858644,
				"y": -2.0326749546,
				"z": -3.1903919861,
				"element": "H" 
			},
			{
				"x": 1.3241715753,
				"y": -2.374851945,
				"z": -1.6143115965,
				"element": "H" 
			},
			{
				"x": 2.8799600586,
				"y": -1.538976524,
				"z": -1.7146104597,
				"element": "H" 
			},
			{
				"x": 1.4813372022,
				"y": 1.7140502371,
				"z": -3.0831055214,
				"element": "H" 
			},
			{
				"x": 2.9192527958,
				"y": 0.9828998357,
				"z": -2.3684625316,
				"element": "H" 
			},
			{
				"x": 2.3366007098,
				"y": 0.4220468525,
				"z": -3.9407689083,
				"element": "H" 
			},
			{
				"x": -0.0350535341,
				"y": -0.2643562898,
				"z": -4.1549187875,
				"element": "H" 
			},
			{
				"x": -0.403055961,
				"y": -1.6121184513,
				"z": -3.0892708999,
				"element": "H" 
			},
			{
				"x": -2.9443823423,
				"y": -0.8380299129,
				"z": -3.4832719394,
				"element": "H" 
			},
			{
				"x": -3.4711592505,
				"y": -0.0776827863,
				"z": -1.9784770807,
				"element": "H" 
			},
			{
				"x": -2.5001898636,
				"y": -1.5576981591,
				"z": -1.9239921056,
				"element": "H" 
			},
			{
				"x": -0.7314084107,
				"y": 2.2075016623,
				"z": -3.1788148612,
				"element": "H" 
			},
			{
				"x": -2.4055040405,
				"y": 2.1390225441,
				"z": -2.6213020596,
				"element": "H" 
			},
			{
				"x": -1.9635443618,
				"y": 1.415112956,
				"z": -4.1772563653,
				"element": "H" 
			}
		],
		 "valence_orbital": [ 
			{
				"type": "occ",
				"energy": -0.29587,
				"method": "rhf"
			},
			{
				"type": "occ",
				"energy": -0.29567,
				"method": "rhf"
			},
			{
				"type": "occ",
				"energy": -0.28752,
				"method": "rhf"
			},
			{
				"type": "occ",
				"energy": -0.22521,
				"method": "rhf"
			},
			{
				"type": "occ",
				"energy": -0.2016,
				"method": "rhf"
			},
			{
				"type": "unocc",
				"energy": 0.0064,
				"method": "rhf"
			},
			{
				"type": "unocc",
				"energy": 0.02073,
				"method": "rhf"
			},
			{
				"type": "unocc",
				"energy": 0.06063,
				"method": "rhf"
			},
			{
				"type": "unocc",
				"energy": 0.08172,
				"method": "rhf"
			},
			{
				"type": "unocc",
				"energy": 0.09334,
				"method": "rhf"
			}
		],
		"cosmo_sigma_profile": { 
			"-0.025": 0.0,
			"-0.024": 0.0,
			"-0.023": 0.0,
			"-0.022": 0.0,
			"-0.021": 0.0,
			"-0.02": 0.0,
			"-0.019": 0.0,
			"-0.018": 0.0,
			"-0.017": 0.0,
			"-0.016": 0.0,
			"-0.015": 0.0,
			"-0.014": 0.428675334309,
			"-0.013": 0.551049965602,
			"-0.012": 0.697514618277,
			"-0.011": 0.711355461188,
			"-0.01": 0.750184556607,
			"-0.009": 1.24896620051,
			"-0.008": 0.658369214596,
			"-0.007": 1.00598468659,
			"-0.006": 0.626852290757,
			"-0.005": 2.38305471314,
			"-0.004": 9.31668530755,
			"-0.003": 26.0066348805,
			"-0.002": 50.2815644466,
			"-0.001": 57.8158267306,
			"0.0": 60.3668192795,
			"0.001": 56.9637903026,
			"0.002": 36.3588168556,
			"0.003": 11.4024075503,
			"0.004": 9.08325230517,
			"0.005": 9.72978110157,
			"0.006": 8.22864039171,
			"0.007": 6.14735860134,
			"0.008": 0.891655360351,
			"0.009": 0.0,
			"0.01": 0.0,
			"0.011": 0.0,
			"0.012": 0.0,
			"0.013": 0.0,
			"0.014": 0.0,
			"0.015": 0.0,
			"0.016": 0.0,
			"0.017": 0.0,
			"0.018": 0.0,
			"0.019": 0.0,
			"0.02": 0.0,
			"0.021": 0.0,
			"0.022": 0.0,
			"0.023": 0.0,
			"0.024": 0.0,
			"0.025": 0.0
		}
	}
}
