{
	 "smiles": "[O-][N+](=O)C1=CC=C(C=C/C2=CC=CC=C2[N+]([O-])=O)C=C1", 
	 "Tm": 411.15, 
	 "num_atms": 30, 
	 "gaussian": { 
		 "optdone": 1, 
		 "sigma_profile": "yes", 
		 "theory": "DFT", 
		 "functional": "B3LYP", 
		 "basiset": "6-31G**", 
		 "properties": { 
			 "R2extent": 7289.1488, 
			 "electric_dipole_moment_norm": 4.51081925375, 
			 "electric_quadrupole_moment_norm": 41.4606534503, 
			 "total_energy": -949.696785863, 
			 "HOMO_LUMO_gap": 0.14231, 
			 "cosmo_polarized_energy": -14.6, 
			 "cosmo_cavitation_energy": 36.3, 
			 "cosmo_dispersion_energy": -25.36, 
			 "cosmo_repulsion_energy": 1.94, 
			 "cosmo_total_nonelectrostatic_energy": 12.87, 
			 "SMD_solvation_energy": 10.41 
		},
		"coords": [
			{
				"x": -1.7056581687,
				"y": 1.6035398546,
				"z": -4.0793042395,
				"element": "O" 
			},
			{
				"x": -0.610040669,
				"y": 2.1521953596,
				"z": -3.9579355665,
				"element": "N" 
			},
			{
				"x": -0.075740529,
				"y": 2.8491919474,
				"z": -4.8210194362,
				"element": "O" 
			},
			{
				"x": 0.112835233,
				"y": 1.9585856058,
				"z": -2.6944266192,
				"element": "C" 
			},
			{
				"x": -0.469910869,
				"y": 1.18531886,
				"z": -1.6902476933,
				"element": "C" 
			},
			{
				"x": 0.2193441695,
				"y": 1.0004889748,
				"z": -0.4984768465,
				"element": "C" 
			},
			{
				"x": 1.4905554895,
				"y": 1.575318733,
				"z": -0.2976454341,
				"element": "C" 
			},
			{
				"x": 2.2476284897,
				"y": 1.4303488892,
				"z": 0.9565531325,
				"element": "C" 
			},
			{
				"x": 2.2657087582,
				"y": 0.4129752963,
				"z": 1.8398396628,
				"element": "C" 
			},
			{
				"x": 1.6802970862,
				"y": -0.9356897931,
				"z": 1.6770944398,
				"element": "C" 
			},
			{
				"x": 1.9472129258,
				"y": -1.6553939289,
				"z": 0.4967448893,
				"element": "C" 
			},
			{
				"x": 1.4999502279,
				"y": -2.9599430999,
				"z": 0.311583736,
				"element": "C" 
			},
			{
				"x": 0.7730097999,
				"y": -3.6046133121,
				"z": 1.3160300511,
				"element": "C" 
			},
			{
				"x": 0.5005473037,
				"y": -2.9315846069,
				"z": 2.5006887937,
				"element": "C" 
			},
			{
				"x": 0.9490888882,
				"y": -1.6197549509,
				"z": 2.6714663938,
				"element": "C" 
			},
			{
				"x": 0.5920541428,
				"y": -0.965276129,
				"z": 3.9434438741,
				"element": "N" 
			},
			{
				"x": 0.0524561279,
				"y": -1.6534734018,
				"z": 4.8090056149,
				"element": "O" 
			},
			{
				"x": 0.8452035913,
				"y": 0.2335482922,
				"z": 4.0722783246,
				"element": "O" 
			},
			{
				"x": 2.0313832414,
				"y": 2.3740337023,
				"z": -1.3250460317,
				"element": "C" 
			},
			{
				"x": 1.3572976092,
				"y": 2.5629164417,
				"z": -2.5255563519,
				"element": "C" 
			},
			{
				"x": -1.4496451901,
				"y": 0.7540673684,
				"z": -1.8534537874,
				"element": "H" 
			},
			{
				"x": -0.2393038693,
				"y": 0.4233155757,
				"z": 0.2957447401,
				"element": "H" 
			},
			{
				"x": 2.8667429873,
				"y": 2.2904532819,
				"z": 1.2059011055,
				"element": "H" 
			},
			{
				"x": 2.8240611931,
				"y": 0.5709689202,
				"z": 2.7570816877,
				"element": "H" 
			},
			{
				"x": 2.5336446094,
				"y": -1.1704559742,
				"z": -0.2756635589,
				"element": "H" 
			},
			{
				"x": 1.7283029407,
				"y": -3.4778955156,
				"z": -0.6150290609,
				"element": "H" 
			},
			{
				"x": 0.4240656749,
				"y": -4.6229094179,
				"z": 1.1793488128,
				"element": "H" 
			},
			{
				"x": -0.0587251674,
				"y": -3.3942943793,
				"z": 3.3035461589,
				"element": "H" 
			},
			{
				"x": 2.9992866214,
				"y": 2.8445422408,
				"z": -1.1778346327,
				"element": "H" 
			},
			{
				"x": 1.7698473511,
				"y": 3.1659751657,
				"z": -3.3246121589,
				"element": "H" 
			}
		],
		 "valence_orbital": [ 
			{
				"type": "occ",
				"energy": -0.29268,
				"method": "rhf"
			},
			{
				"type": "occ",
				"energy": -0.29088,
				"method": "rhf"
			},
			{
				"type": "occ",
				"energy": -0.28868,
				"method": "rhf"
			},
			{
				"type": "occ",
				"energy": -0.28039,
				"method": "rhf"
			},
			{
				"type": "occ",
				"energy": -0.2458,
				"method": "rhf"
			},
			{
				"type": "unocc",
				"energy": -0.10349,
				"method": "rhf"
			},
			{
				"type": "unocc",
				"energy": -0.09124,
				"method": "rhf"
			},
			{
				"type": "unocc",
				"energy": -0.05166,
				"method": "rhf"
			},
			{
				"type": "unocc",
				"energy": -0.03119,
				"method": "rhf"
			},
			{
				"type": "unocc",
				"energy": -0.01901,
				"method": "rhf"
			}
		],
		"cosmo_sigma_profile": { 
			"-0.025": 0.0,
			"-0.024": 0.0,
			"-0.023": 0.0,
			"-0.022": 0.0,
			"-0.021": 0.0,
			"-0.02": 0.0,
			"-0.019": 0.0,
			"-0.018": 0.0,
			"-0.017": 0.0,
			"-0.016": 0.0,
			"-0.015": 0.0,
			"-0.014": 0.0,
			"-0.013": 0.0,
			"-0.012": 0.0,
			"-0.011": 0.0,
			"-0.01": 0.0,
			"-0.009": 0.0,
			"-0.008": 2.27483349445,
			"-0.007": 16.9681599422,
			"-0.006": 24.6053255134,
			"-0.005": 20.9273184209,
			"-0.004": 18.8826709289,
			"-0.003": 17.2948916567,
			"-0.002": 17.284409467,
			"-0.001": 21.7289732136,
			"0.0": 27.1374793428,
			"0.001": 28.9161072395,
			"0.002": 22.8838693423,
			"0.003": 8.87957424953,
			"0.004": 4.75528455293,
			"0.005": 5.88506629462,
			"0.006": 7.50684414968,
			"0.007": 13.5895613472,
			"0.008": 17.226512937,
			"0.009": 9.17226798988,
			"0.01": 5.76987867259,
			"0.011": 0.490380259871,
			"0.012": 0.0,
			"0.013": 0.0,
			"0.014": 0.0,
			"0.015": 0.0,
			"0.016": 0.0,
			"0.017": 0.0,
			"0.018": 0.0,
			"0.019": 0.0,
			"0.02": 0.0,
			"0.021": 0.0,
			"0.022": 0.0,
			"0.023": 0.0,
			"0.024": 0.0,
			"0.025": 0.0
		}
	}
}
