{
	 "smiles": "CC1=CC=C2C=C3N=C(C)C=CC3=CC2=N1", 
	 "Tm": 511.15, 
	 "num_atms": 28, 
	 "gaussian": { 
		 "optdone": 1, 
		 "sigma_profile": "yes", 
		 "theory": "DFT", 
		 "functional": "B3LYP", 
		 "basiset": "6-31G**", 
		 "properties": { 
			 "R2extent": 4850.0495, 
			 "electric_dipole_moment_norm": 0.0, 
			 "electric_quadrupole_moment_norm": 14.763329997, 
			 "total_energy": -650.253718561, 
			 "HOMO_LUMO_gap": 0.13919, 
			 "cosmo_polarized_energy": -9.87, 
			 "cosmo_cavitation_energy": 31.66, 
			 "cosmo_dispersion_energy": -23.56, 
			 "cosmo_repulsion_energy": 1.8, 
			 "cosmo_total_nonelectrostatic_energy": 9.9, 
			 "SMD_solvation_energy": 2.25 
		},
		"coords": [
			{
				"x": -3.4685310552,
				"y": 0.0190887666,
				"z": 2.9213076248,
				"element": "C" 
			},
			{
				"x": -2.056544586,
				"y": 0.1936307342,
				"z": 2.4216417036,
				"element": "C" 
			},
			{
				"x": -1.2069099407,
				"y": 1.1783676589,
				"z": 3.0336878571,
				"element": "C" 
			},
			{
				"x": 0.0723639508,
				"y": 1.3408222894,
				"z": 2.5855088162,
				"element": "C" 
			},
			{
				"x": 0.551294711,
				"y": 0.5289508462,
				"z": 1.5123696663,
				"element": "C" 
			},
			{
				"x": 1.8462699928,
				"y": 0.6292677014,
				"z": 0.9922413133,
				"element": "C" 
			},
			{
				"x": 2.266109574,
				"y": -0.1913337084,
				"z": -0.0614498475,
				"element": "C" 
			},
			{
				"x": 3.5502985081,
				"y": -0.0487419827,
				"z": -0.5325625714,
				"element": "N" 
			},
			{
				"x": 3.949414101,
				"y": -0.8161989358,
				"z": -1.5212026694,
				"element": "C" 
			},
			{
				"x": 5.3614057482,
				"y": -0.6416654486,
				"z": -2.0208594189,
				"element": "C" 
			},
			{
				"x": 3.0997802609,
				"y": -1.800936552,
				"z": -2.1332478391,
				"element": "C" 
			},
			{
				"x": 1.8205051253,
				"y": -1.9633891091,
				"z": -1.6850693116,
				"element": "C" 
			},
			{
				"x": 1.3415759012,
				"y": -1.1515193064,
				"z": -0.6119306423,
				"element": "C" 
			},
			{
				"x": 0.0466003036,
				"y": -1.251836419,
				"z": -0.0918007314,
				"element": "C" 
			},
			{
				"x": -0.3732389843,
				"y": -0.4312359394,
				"z": 0.9618904787,
				"element": "C" 
			},
			{
				"x": -1.6574292173,
				"y": -0.5738257575,
				"z": 1.4330015438,
				"element": "N" 
			},
			{
				"x": -4.0385307407,
				"y": 0.9508511161,
				"z": 2.823658215,
				"element": "H" 
			},
			{
				"x": -3.4792486688,
				"y": -0.2526071068,
				"z": 3.98370293,
				"element": "H" 
			},
			{
				"x": -3.9682672763,
				"y": -0.7640666468,
				"z": 2.3497836769,
				"element": "H" 
			},
			{
				"x": -1.5955884318,
				"y": 1.7827981949,
				"z": 3.8481494415,
				"element": "H" 
			},
			{
				"x": 0.7361689116,
				"y": 2.078024062,
				"z": 3.0302942191,
				"element": "H" 
			},
			{
				"x": 2.5542631657,
				"y": 1.3472357998,
				"z": 1.3958085784,
				"element": "H" 
			},
			{
				"x": 5.9314101973,
				"y": -1.5734202352,
				"z": -1.9231663762,
				"element": "H" 
			},
			{
				"x": 5.86112831,
				"y": 0.1415155414,
				"z": -1.4493586608,
				"element": "H" 
			},
			{
				"x": 5.3721326975,
				"y": -0.3700118302,
				"z": -3.0832651433,
				"element": "H" 
			},
			{
				"x": 3.4884591872,
				"y": -2.4053690915,
				"z": -2.9477073785,
				"element": "H" 
			},
			{
				"x": 1.1567013469,
				"y": -2.7005911185,
				"z": -2.1298559279,
				"element": "H" 
			},
			{
				"x": -0.6613930921,
				"y": -1.969803523,
				"z": -0.4953695465,
				"element": "H" 
			}
		],
		 "valence_orbital": [ 
			{
				"type": "occ",
				"energy": -0.28636,
				"method": "rhf"
			},
			{
				"type": "occ",
				"energy": -0.25029,
				"method": "rhf"
			},
			{
				"type": "occ",
				"energy": -0.24976,
				"method": "rhf"
			},
			{
				"type": "occ",
				"energy": -0.23996,
				"method": "rhf"
			},
			{
				"type": "occ",
				"energy": -0.21038,
				"method": "rhf"
			},
			{
				"type": "unocc",
				"energy": -0.07119,
				"method": "rhf"
			},
			{
				"type": "unocc",
				"energy": -0.01974,
				"method": "rhf"
			},
			{
				"type": "unocc",
				"energy": -0.00997,
				"method": "rhf"
			},
			{
				"type": "unocc",
				"energy": 0.03433,
				"method": "rhf"
			},
			{
				"type": "unocc",
				"energy": 0.05129,
				"method": "rhf"
			}
		],
		"cosmo_sigma_profile": { 
			"-0.025": 0.0,
			"-0.024": 0.0,
			"-0.023": 0.0,
			"-0.022": 0.0,
			"-0.021": 0.0,
			"-0.02": 0.0,
			"-0.019": 0.0,
			"-0.018": 0.0,
			"-0.017": 0.0,
			"-0.016": 0.0,
			"-0.015": 0.0,
			"-0.014": 0.0,
			"-0.013": 0.0,
			"-0.012": 0.0,
			"-0.011": 0.0,
			"-0.01": 0.0,
			"-0.009": 0.0,
			"-0.008": 0.0900230043513,
			"-0.007": 7.06162589317,
			"-0.006": 13.3413051031,
			"-0.005": 17.1773618501,
			"-0.004": 24.2659526419,
			"-0.003": 19.9255259748,
			"-0.002": 18.0834488174,
			"-0.001": 20.470987904,
			"0.0": 21.6873300521,
			"0.001": 22.9781754086,
			"0.002": 30.6820449667,
			"0.003": 22.7205379901,
			"0.004": 7.79577003316,
			"0.005": 3.76282214804,
			"0.006": 3.71584977564,
			"0.007": 2.75679195302,
			"0.008": 3.26863885315,
			"0.009": 2.85595549608,
			"0.01": 2.29702452423,
			"0.011": 1.38207726889,
			"0.012": 1.4644941768,
			"0.013": 2.28525319029,
			"0.014": 1.10889992835,
			"0.015": 1.67058642416,
			"0.016": 0.43286318992,
			"0.017": 0.0,
			"0.018": 0.0,
			"0.019": 0.0,
			"0.02": 0.0,
			"0.021": 0.0,
			"0.022": 0.0,
			"0.023": 0.0,
			"0.024": 0.0,
			"0.025": 0.0
		}
	}
}
