{
	 "smiles": "OC(=O)C1=CC=C(C=C1)C1=CC=C(O)C=C1", 
	 "Tm": 589.15, 
	 "num_atms": 26, 
	 "gaussian": { 
		 "optdone": 1, 
		 "sigma_profile": "yes", 
		 "theory": "DFT", 
		 "functional": "B3LYP", 
		 "basiset": "6-31G**", 
		 "properties": { 
			 "R2extent": 5696.7663, 
			 "electric_dipole_moment_norm": 5.65052634097, 
			 "electric_quadrupole_moment_norm": 36.2920781371, 
			 "total_energy": -727.094741768, 
			 "HOMO_LUMO_gap": 0.16555, 
			 "cosmo_polarized_energy": -19.72, 
			 "cosmo_cavitation_energy": 30.96, 
			 "cosmo_dispersion_energy": -22.82, 
			 "cosmo_repulsion_energy": 1.74, 
			 "cosmo_total_nonelectrostatic_energy": 9.89, 
			 "SMD_solvation_energy": 6.55 
		},
		"coords": [
			{
				"x": 3.417658693,
				"y": 1.1255665983,
				"z": -4.0096278153,
				"element": "O" 
			},
			{
				"x": 2.3437382547,
				"y": 0.2950553066,
				"z": -4.1167241725,
				"element": "C" 
			},
			{
				"x": 2.0426860849,
				"y": -0.1612400533,
				"z": -5.195259022,
				"element": "O" 
			},
			{
				"x": 1.5933252575,
				"y": -0.0040357708,
				"z": -2.8567340044,
				"element": "C" 
			},
			{
				"x": 0.7566447644,
				"y": -1.1287764171,
				"z": -2.8441830241,
				"element": "C" 
			},
			{
				"x": 0.0302201146,
				"y": -1.4571706989,
				"z": -1.7069296595,
				"element": "C" 
			},
			{
				"x": 0.1014699597,
				"y": -0.6683256822,
				"z": -0.5424877737,
				"element": "C" 
			},
			{
				"x": 0.9266281806,
				"y": 0.4699431375,
				"z": -0.5713086092,
				"element": "C" 
			},
			{
				"x": 1.6585170129,
				"y": 0.7982060783,
				"z": -1.7085244314,
				"element": "C" 
			},
			{
				"x": -0.6722732832,
				"y": -1.0213446219,
				"z": 0.6707217705,
				"element": "C" 
			},
			{
				"x": -1.2318153774,
				"y": -0.0276742155,
				"z": 1.4957604639,
				"element": "C" 
			},
			{
				"x": -1.9586846572,
				"y": -0.3516200089,
				"z": 2.6345478094,
				"element": "C" 
			},
			{
				"x": -2.1449611602,
				"y": -1.6945937399,
				"z": 2.9836186265,
				"element": "C" 
			},
			{
				"x": -2.8644539206,
				"y": -1.9579301202,
				"z": 4.1115020851,
				"element": "O" 
			},
			{
				"x": -1.5973902875,
				"y": -2.6998898818,
				"z": 2.1790412328,
				"element": "C" 
			},
			{
				"x": -0.8733585221,
				"y": -2.3615916104,
				"z": 1.0387357611,
				"element": "C" 
			},
			{
				"x": 3.6320519862,
				"y": 1.2735839617,
				"z": -3.0784055093,
				"element": "H" 
			},
			{
				"x": 0.6850909085,
				"y": -1.7274548775,
				"z": -3.7459411829,
				"element": "H" 
			},
			{
				"x": -0.6269877996,
				"y": -2.3210465891,
				"z": -1.7260205514,
				"element": "H" 
			},
			{
				"x": 1.0098326372,
				"y": 1.0936278223,
				"z": 0.3131722632,
				"element": "H" 
			},
			{
				"x": 2.2583901947,
				"y": 1.7055699863,
				"z": -1.6948655163,
				"element": "H" 
			},
			{
				"x": -1.1203774779,
				"y": 1.0178448514,
				"z": 1.2245228928,
				"element": "H" 
			},
			{
				"x": -2.3984408543,
				"y": 0.4183898684,
				"z": 3.2595891004,
				"element": "H" 
			},
			{
				"x": -2.9270623536,
				"y": -2.9140907891,
				"z": 4.2348643658,
				"element": "H" 
			},
			{
				"x": -1.7282307724,
				"y": -3.7457154217,
				"z": 2.4491638369,
				"element": "H" 
			},
			{
				"x": -0.4340175832,
				"y": -3.1544871123,
				"z": 0.4410710636,
				"element": "H" 
			}
		],
		 "valence_orbital": [ 
			{
				"type": "occ",
				"energy": -0.278,
				"method": "rhf"
			},
			{
				"type": "occ",
				"energy": -0.27032,
				"method": "rhf"
			},
			{
				"type": "occ",
				"energy": -0.26493,
				"method": "rhf"
			},
			{
				"type": "occ",
				"energy": -0.26451,
				"method": "rhf"
			},
			{
				"type": "occ",
				"energy": -0.22165,
				"method": "rhf"
			},
			{
				"type": "unocc",
				"energy": -0.0561,
				"method": "rhf"
			},
			{
				"type": "unocc",
				"energy": -0.02109,
				"method": "rhf"
			},
			{
				"type": "unocc",
				"energy": -0.01427,
				"method": "rhf"
			},
			{
				"type": "unocc",
				"energy": 0.00583,
				"method": "rhf"
			},
			{
				"type": "unocc",
				"energy": 0.05591,
				"method": "rhf"
			}
		],
		"cosmo_sigma_profile": { 
			"-0.025": 0.0,
			"-0.024": 0.0,
			"-0.023": 0.0,
			"-0.022": 0.0,
			"-0.021": 0.0,
			"-0.02": 0.0,
			"-0.019": 0.0797961473514,
			"-0.018": 1.6603989346,
			"-0.017": 1.6806720368,
			"-0.016": 2.37585253106,
			"-0.015": 2.14555668499,
			"-0.014": 2.08211068978,
			"-0.013": 1.36324398106,
			"-0.012": 1.87136747752,
			"-0.011": 2.09374385787,
			"-0.01": 2.56799006823,
			"-0.009": 2.44517584573,
			"-0.008": 2.80853248159,
			"-0.007": 4.86750202394,
			"-0.006": 15.7663436234,
			"-0.005": 15.0929582682,
			"-0.004": 15.3832546118,
			"-0.003": 11.9145091043,
			"-0.002": 11.2425209032,
			"-0.001": 12.217025787,
			"0.0": 12.468938172,
			"0.001": 13.713321169,
			"0.002": 18.68824659,
			"0.003": 25.5864009529,
			"0.004": 17.8872225457,
			"0.005": 12.7666436378,
			"0.006": 4.09321756799,
			"0.007": 3.58179000822,
			"0.008": 4.36483444937,
			"0.009": 4.02216742874,
			"0.01": 6.39529333883,
			"0.011": 7.1142313761,
			"0.012": 5.65895519055,
			"0.013": 2.00975012623,
			"0.014": 0.159899318209,
			"0.015": 0.0,
			"0.016": 0.0,
			"0.017": 0.0,
			"0.018": 0.0,
			"0.019": 0.0,
			"0.02": 0.0,
			"0.021": 0.0,
			"0.022": 0.0,
			"0.023": 0.0,
			"0.024": 0.0,
			"0.025": 0.0
		}
	}
}
