{
	 "smiles": "C1CC2=C1C=C1OCOC1=C2", 
	 "Tm": 335.15, 
	 "num_atms": 19, 
	 "gaussian": { 
		 "optdone": 1, 
		 "sigma_profile": "yes", 
		 "theory": "DFT", 
		 "functional": "B3LYP", 
		 "basiset": "6-31G**", 
		 "properties": { 
			 "R2extent": 1839.138, 
			 "electric_dipole_moment_norm": 0.0572910987851, 
			 "electric_quadrupole_moment_norm": 6.10457111352, 
			 "total_energy": -498.16213309, 
			 "HOMO_LUMO_gap": 0.19325, 
			 "cosmo_polarized_energy": -4.98, 
			 "cosmo_cavitation_energy": 22.25, 
			 "cosmo_dispersion_energy": -17.38, 
			 "cosmo_repulsion_energy": 1.41, 
			 "cosmo_total_nonelectrostatic_energy": 6.28, 
			 "SMD_solvation_energy": 3.92 
		},
		"coords": [
			{
				"x": -3.3750473591,
				"y": -1.1047886708,
				"z": -1.0723318886,
				"element": "C" 
			},
			{
				"x": -3.2260100213,
				"y": -1.3710757707,
				"z": 0.4785152653,
				"element": "C" 
			},
			{
				"x": -1.882500318,
				"y": -0.66552663,
				"z": 0.3749706499,
				"element": "C" 
			},
			{
				"x": -2.0138628747,
				"y": -0.4308162661,
				"z": -0.9918430339,
				"element": "C" 
			},
			{
				"x": -1.0463278705,
				"y": 0.2297505269,
				"z": -1.7572869186,
				"element": "C" 
			},
			{
				"x": 0.0568678383,
				"y": 0.6263397523,
				"z": -1.0133118501,
				"element": "C" 
			},
			{
				"x": 1.1703966888,
				"y": 1.293743676,
				"z": -1.4730056978,
				"element": "O" 
			},
			{
				"x": 2.0258875096,
				"y": 1.4791343288,
				"z": -0.3422298315,
				"element": "C" 
			},
			{
				"x": 1.3889680427,
				"y": 0.9031852648,
				"z": 0.801237762,
				"element": "O" 
			},
			{
				"x": 0.1889664342,
				"y": 0.390305435,
				"z": 0.3611953861,
				"element": "C" 
			},
			{
				"x": -0.7695415181,
				"y": -0.2648167121,
				"z": 1.1227092191,
				"element": "C" 
			},
			{
				"x": -3.4246066218,
				"y": -2.010306878,
				"z": -1.6871699368,
				"element": "H" 
			},
			{
				"x": -4.2146769839,
				"y": -0.4555423765,
				"z": -1.3442612634,
				"element": "H" 
			},
			{
				"x": -3.9797586927,
				"y": -0.8752499451,
				"z": 1.1001810629,
				"element": "H" 
			},
			{
				"x": -3.1897119656,
				"y": -2.4300337833,
				"z": 0.757323176,
				"element": "H" 
			},
			{
				"x": -1.1205721508,
				"y": 0.4266834507,
				"z": -2.8211543659,
				"element": "H" 
			},
			{
				"x": 2.1827615418,
				"y": 2.5525010523,
				"z": -0.1729812204,
				"element": "H" 
			},
			{
				"x": 2.984615003,
				"y": 0.9748820528,
				"z": -0.5209618032,
				"element": "H" 
			},
			{
				"x": -0.6393466819,
				"y": -0.4331685073,
				"z": 2.1861052889,
				"element": "H" 
			}
		],
		 "valence_orbital": [ 
			{
				"type": "occ",
				"energy": -0.33404,
				"method": "rhf"
			},
			{
				"type": "occ",
				"energy": -0.31643,
				"method": "rhf"
			},
			{
				"type": "occ",
				"energy": -0.29785,
				"method": "rhf"
			},
			{
				"type": "occ",
				"energy": -0.24039,
				"method": "rhf"
			},
			{
				"type": "occ",
				"energy": -0.1941,
				"method": "rhf"
			},
			{
				"type": "unocc",
				"energy": -0.00085,
				"method": "rhf"
			},
			{
				"type": "unocc",
				"energy": 0.0242,
				"method": "rhf"
			},
			{
				"type": "unocc",
				"energy": 0.10596,
				"method": "rhf"
			},
			{
				"type": "unocc",
				"energy": 0.10712,
				"method": "rhf"
			},
			{
				"type": "unocc",
				"energy": 0.11399,
				"method": "rhf"
			}
		],
		"cosmo_sigma_profile": { 
			"-0.025": 0.0,
			"-0.024": 0.0,
			"-0.023": 0.0,
			"-0.022": 0.0,
			"-0.021": 0.0,
			"-0.02": 0.0,
			"-0.019": 0.0,
			"-0.018": 0.0,
			"-0.017": 0.0,
			"-0.016": 0.0,
			"-0.015": 0.0,
			"-0.014": 0.0,
			"-0.013": 0.0,
			"-0.012": 0.0,
			"-0.011": 0.0,
			"-0.01": 0.0,
			"-0.009": 0.0,
			"-0.008": 0.431040212446,
			"-0.007": 8.38736766709,
			"-0.006": 9.5070566023,
			"-0.005": 7.72899629276,
			"-0.004": 11.6899008313,
			"-0.003": 13.1151506841,
			"-0.002": 16.3870460695,
			"-0.001": 16.9364995653,
			"0.0": 19.6142470534,
			"0.001": 12.9440658026,
			"0.002": 11.2560977833,
			"0.003": 11.7642310382,
			"0.004": 11.4481500694,
			"0.005": 11.3816123311,
			"0.006": 4.22618131393,
			"0.007": 1.95215800161,
			"0.008": 2.91716377182,
			"0.009": 2.90490841766,
			"0.01": 3.04374625925,
			"0.011": 0.0278758599326,
			"0.012": 0.0,
			"0.013": 0.0,
			"0.014": 0.0,
			"0.015": 0.0,
			"0.016": 0.0,
			"0.017": 0.0,
			"0.018": 0.0,
			"0.019": 0.0,
			"0.02": 0.0,
			"0.021": 0.0,
			"0.022": 0.0,
			"0.023": 0.0,
			"0.024": 0.0,
			"0.025": 0.0
		}
	}
}
