{
	 "smiles": "CS(=O)(=O)NCC1=CC(Br)=CC=C1", 
	 "Tm": 340.15, 
	 "num_atms": 23, 
	 "gaussian": { 
		 "optdone": 1, 
		 "sigma_profile": "yes", 
		 "theory": "DFT", 
		 "functional": "B3LYP", 
		 "basiset": "6-31G**", 
		 "properties": { 
			 "R2extent": 6377.0916, 
			 "electric_dipole_moment_norm": 3.2667990832, 
			 "electric_quadrupole_moment_norm": 29.3043112833, 
			 "total_energy": -3485.60308805, 
			 "HOMO_LUMO_gap": 0.22144, 
			 "cosmo_polarized_energy": -18.1, 
			 "cosmo_cavitation_energy": 30.98, 
			 "cosmo_dispersion_energy": -23.1, 
			 "cosmo_repulsion_energy": 1.79, 
			 "cosmo_total_nonelectrostatic_energy": 9.67, 
			 "SMD_solvation_energy": 3.5 
		},
		"coords": [
			{
				"x": 3.8777048218,
				"y": 1.4653034543,
				"z": 2.0877193653,
				"element": "C" 
			},
			{
				"x": 2.4188956546,
				"y": 0.516206932,
				"z": 2.5765969275,
				"element": "S" 
			},
			{
				"x": 1.8249675572,
				"y": 1.1911454896,
				"z": 3.729517978,
				"element": "O" 
			},
			{
				"x": 2.8159537086,
				"y": -0.8918417833,
				"z": 2.6063930716,
				"element": "O" 
			},
			{
				"x": 1.3081470072,
				"y": 0.6786242194,
				"z": 1.3377588396,
				"element": "N" 
			},
			{
				"x": 1.5147235693,
				"y": 0.0468348316,
				"z": 0.0323503428,
				"element": "C" 
			},
			{
				"x": 0.1906273576,
				"y": -0.2375406451,
				"z": -0.6510757298,
				"element": "C" 
			},
			{
				"x": -0.0019836082,
				"y": 0.1407551857,
				"z": -1.9830539956,
				"element": "C" 
			},
			{
				"x": -1.209237968,
				"y": -0.1533380975,
				"z": -2.6164068265,
				"element": "C" 
			},
			{
				"x": -1.4573980814,
				"y": 0.3726356142,
				"z": -4.4384922102,
				"element": "Br" 
			},
			{
				"x": -2.2362250806,
				"y": -0.8131605076,
				"z": -1.9475087649,
				"element": "C" 
			},
			{
				"x": -2.0387354675,
				"y": -1.1833082093,
				"z": -0.6143976638,
				"element": "C" 
			},
			{
				"x": -0.8375994532,
				"y": -0.9000932202,
				"z": 0.0321824188,
				"element": "C" 
			},
			{
				"x": 4.6201144692,
				"y": 1.3394868751,
				"z": 2.8779084305,
				"element": "H" 
			},
			{
				"x": 3.6056092655,
				"y": 2.5176449704,
				"z": 1.9933905228,
				"element": "H" 
			},
			{
				"x": 4.2672585001,
				"y": 1.0723492957,
				"z": 1.1470401495,
				"element": "H" 
			},
			{
				"x": 0.8306560447,
				"y": 1.5736392793,
				"z": 1.3514869829,
				"element": "H" 
			},
			{
				"x": 2.1473133678,
				"y": 0.6544268954,
				"z": -0.6313551052,
				"element": "H" 
			},
			{
				"x": 2.0441826156,
				"y": -0.8916619285,
				"z": 0.2266205808,
				"element": "H" 
			},
			{
				"x": 0.7803886193,
				"y": 0.6604710451,
				"z": -2.5264783739,
				"element": "H" 
			},
			{
				"x": -3.1693789119,
				"y": -1.0303241945,
				"z": -2.4543645201,
				"element": "H" 
			},
			{
				"x": -2.8327693032,
				"y": -1.6981048866,
				"z": -0.081619586,
				"element": "H" 
			},
			{
				"x": -0.6899146845,
				"y": -1.181650615,
				"z": 1.0698871659,
				"element": "H" 
			}
		],
		 "valence_orbital": [ 
			{
				"type": "occ",
				"energy": -0.30427,
				"method": "rhf"
			},
			{
				"type": "occ",
				"energy": -0.29271,
				"method": "rhf"
			},
			{
				"type": "occ",
				"energy": -0.28685,
				"method": "rhf"
			},
			{
				"type": "occ",
				"energy": -0.26717,
				"method": "rhf"
			},
			{
				"type": "occ",
				"energy": -0.24748,
				"method": "rhf"
			},
			{
				"type": "unocc",
				"energy": -0.02604,
				"method": "rhf"
			},
			{
				"type": "unocc",
				"energy": -0.02137,
				"method": "rhf"
			},
			{
				"type": "unocc",
				"energy": 0.00104,
				"method": "rhf"
			},
			{
				"type": "unocc",
				"energy": 0.05812,
				"method": "rhf"
			},
			{
				"type": "unocc",
				"energy": 0.07325,
				"method": "rhf"
			}
		],
		"cosmo_sigma_profile": { 
			"-0.025": 0.0,
			"-0.024": 0.0,
			"-0.023": 0.0,
			"-0.022": 0.0,
			"-0.021": 0.0,
			"-0.02": 0.0,
			"-0.019": 0.0,
			"-0.018": 0.0,
			"-0.017": 0.0,
			"-0.016": 0.00916721139085,
			"-0.015": 0.716760143835,
			"-0.014": 1.19213014081,
			"-0.013": 1.66979125669,
			"-0.012": 0.669729850821,
			"-0.011": 1.27984073153,
			"-0.01": 1.64967321245,
			"-0.009": 2.8256478119,
			"-0.008": 7.79110055463,
			"-0.007": 11.5315587547,
			"-0.006": 17.9966732852,
			"-0.005": 19.4287156512,
			"-0.004": 17.6854013814,
			"-0.003": 13.9603873234,
			"-0.002": 11.6426529363,
			"-0.001": 11.1133596269,
			"0.0": 10.770026514,
			"0.001": 12.3452718591,
			"0.002": 18.0425076677,
			"0.003": 19.1293311167,
			"0.004": 22.1868497258,
			"0.005": 9.59658356644,
			"0.006": 3.22098859355,
			"0.007": 2.95251178191,
			"0.008": 2.93934103332,
			"0.009": 2.92251348134,
			"0.01": 4.86074649631,
			"0.011": 11.0780876213,
			"0.012": 7.98923668455,
			"0.013": 0.512025124799,
			"0.014": 0.0,
			"0.015": 0.0,
			"0.016": 0.0,
			"0.017": 0.0,
			"0.018": 0.0,
			"0.019": 0.0,
			"0.02": 0.0,
			"0.021": 0.0,
			"0.022": 0.0,
			"0.023": 0.0,
			"0.024": 0.0,
			"0.025": 0.0
		}
	}
}
