{
	 "smiles": "CNC1=NN=C(S1)C(F)(F)F", 
	 "Tm": 389.15, 
	 "num_atms": 15, 
	 "gaussian": { 
		 "optdone": 1, 
		 "sigma_profile": "yes", 
		 "theory": "DFT", 
		 "functional": "B3LYP", 
		 "basiset": "6-31G**", 
		 "properties": { 
			 "R2extent": 2623.9678, 
			 "electric_dipole_moment_norm": 5.72460194599, 
			 "electric_quadrupole_moment_norm": 4.97503261195, 
			 "total_energy": -1016.76001483, 
			 "HOMO_LUMO_gap": 0.19872, 
			 "cosmo_polarized_energy": -11.92, 
			 "cosmo_cavitation_energy": 22.87, 
			 "cosmo_dispersion_energy": -17.04, 
			 "cosmo_repulsion_energy": 1.28, 
			 "cosmo_total_nonelectrostatic_energy": 7.11, 
			 "SMD_solvation_energy": 2.69 
		},
		"coords": [
			{
				"x": -1.2232171399,
				"y": -2.4688349299,
				"z": -1.2922510064,
				"element": "C" 
			},
			{
				"x": -1.3947626923,
				"y": -1.0566250732,
				"z": -1.0071042037,
				"element": "N" 
			},
			{
				"x": -0.407671093,
				"y": -0.2508130385,
				"z": -0.549361137,
				"element": "C" 
			},
			{
				"x": -0.5207306675,
				"y": 1.0614602079,
				"z": -0.4898077963,
				"element": "N" 
			},
			{
				"x": 0.581980265,
				"y": 1.6507666274,
				"z": 0.0386899956,
				"element": "N" 
			},
			{
				"x": 1.5161437388,
				"y": 0.8170631032,
				"z": 0.3665276275,
				"element": "C" 
			},
			{
				"x": 1.1303857017,
				"y": -0.8744427294,
				"z": 0.0496595754,
				"element": "S" 
			},
			{
				"x": 2.8313911893,
				"y": 1.2250799651,
				"z": 0.9627511465,
				"element": "C" 
			},
			{
				"x": 3.8602473033,
				"y": 0.8305833694,
				"z": 0.1778225676,
				"element": "F" 
			},
			{
				"x": 2.9058246316,
				"y": 2.5487333829,
				"z": 1.1209803613,
				"element": "F" 
			},
			{
				"x": 3.0176590801,
				"y": 0.6396306192,
				"z": 2.1678572876,
				"element": "F" 
			},
			{
				"x": -0.493590481,
				"y": -2.6525538725,
				"z": -2.0928064827,
				"element": "H" 
			},
			{
				"x": -2.1856993941,
				"y": -2.8830516344,
				"z": -1.5963716234,
				"element": "H" 
			},
			{
				"x": -0.8967826375,
				"y": -3.0044893303,
				"z": -0.3938501423,
				"element": "H" 
			},
			{
				"x": -2.1683778044,
				"y": -0.5590066671,
				"z": -1.4253361697,
				"element": "H" 
			}
		],
		 "valence_orbital": [ 
			{
				"type": "occ",
				"energy": -0.34557,
				"method": "rhf"
			},
			{
				"type": "occ",
				"energy": -0.31652,
				"method": "rhf"
			},
			{
				"type": "occ",
				"energy": -0.30441,
				"method": "rhf"
			},
			{
				"type": "occ",
				"energy": -0.27115,
				"method": "rhf"
			},
			{
				"type": "occ",
				"energy": -0.23855,
				"method": "rhf"
			},
			{
				"type": "unocc",
				"energy": -0.03983,
				"method": "rhf"
			},
			{
				"type": "unocc",
				"energy": -0.01123,
				"method": "rhf"
			},
			{
				"type": "unocc",
				"energy": 0.02743,
				"method": "rhf"
			},
			{
				"type": "unocc",
				"energy": 0.04469,
				"method": "rhf"
			},
			{
				"type": "unocc",
				"energy": 0.08908,
				"method": "rhf"
			}
		],
		"cosmo_sigma_profile": { 
			"-0.025": 0.0,
			"-0.024": 0.0,
			"-0.023": 0.0,
			"-0.022": 0.0,
			"-0.021": 0.0,
			"-0.02": 0.0,
			"-0.019": 0.0,
			"-0.018": 0.0,
			"-0.017": 0.0,
			"-0.016": 0.166990146487,
			"-0.015": 1.42931687972,
			"-0.014": 1.00343414896,
			"-0.013": 1.1024012601,
			"-0.012": 1.13117251812,
			"-0.011": 0.865211245513,
			"-0.01": 0.947549266062,
			"-0.009": 1.50830791253,
			"-0.008": 1.70909361567,
			"-0.007": 3.03433177182,
			"-0.006": 7.69686475304,
			"-0.005": 10.2341982619,
			"-0.004": 11.5461939228,
			"-0.003": 13.7141987259,
			"-0.002": 14.1428713169,
			"-0.001": 14.8675596559,
			"0.0": 13.621506591,
			"0.001": 15.2709802023,
			"0.002": 32.9649238331,
			"0.003": 10.9896114951,
			"0.004": 3.40071453142,
			"0.005": 2.02401328075,
			"0.006": 2.34756826839,
			"0.007": 1.86718840074,
			"0.008": 2.26471512623,
			"0.009": 3.19609477009,
			"0.01": 2.40224915823,
			"0.011": 3.40876450805,
			"0.012": 2.77843424212,
			"0.013": 1.90329804297,
			"0.014": 1.51212429693,
			"0.015": 0.291115594093,
			"0.016": 0.0,
			"0.017": 0.0,
			"0.018": 0.0,
			"0.019": 0.0,
			"0.02": 0.0,
			"0.021": 0.0,
			"0.022": 0.0,
			"0.023": 0.0,
			"0.024": 0.0,
			"0.025": 0.0
		}
	}
}
