{
	 "smiles": "CN1C(SCC(O)=O)=NC=C1C1=CC=CC=C1", 
	 "Tm": 473.15, 
	 "num_atms": 29, 
	 "gaussian": { 
		 "optdone": 1, 
		 "sigma_profile": "yes", 
		 "theory": "DFT", 
		 "functional": "B3LYP", 
		 "basiset": "6-31G**", 
		 "properties": { 
			 "R2extent": 6277.1086, 
			 "electric_dipole_moment_norm": 1.89351243196, 
			 "electric_quadrupole_moment_norm": 12.1197904223, 
			 "total_energy": -1122.65544108, 
			 "HOMO_LUMO_gap": 0.17461, 
			 "cosmo_polarized_energy": -16.93, 
			 "cosmo_cavitation_energy": 35.0, 
			 "cosmo_dispersion_energy": -25.34, 
			 "cosmo_repulsion_energy": 1.94, 
			 "cosmo_total_nonelectrostatic_energy": 11.6, 
			 "SMD_solvation_energy": 5.58 
		},
		"coords": [
			{
				"x": -2.0903994036,
				"y": -0.3342042771,
				"z": -0.7809483218,
				"element": "C" 
			},
			{
				"x": -0.6524747487,
				"y": -0.1179799117,
				"z": -0.8492100302,
				"element": "N" 
			},
			{
				"x": 0.1387482705,
				"y": -0.3684946361,
				"z": -1.9378472944,
				"element": "C" 
			},
			{
				"x": -0.5145313595,
				"y": -1.1150559598,
				"z": -3.4057652278,
				"element": "S" 
			},
			{
				"x": 1.035580977,
				"y": -1.2017747371,
				"z": -4.3471754321,
				"element": "C" 
			},
			{
				"x": 1.9965630066,
				"y": -2.286909526,
				"z": -3.879017746,
				"element": "C" 
			},
			{
				"x": 3.2047341404,
				"y": -2.0974486401,
				"z": -4.4605651089,
				"element": "O" 
			},
			{
				"x": 1.7533177129,
				"y": -3.2092229048,
				"z": -3.1407952879,
				"element": "O" 
			},
			{
				"x": 1.3862594517,
				"y": 0.0136963499,
				"z": -1.7624401914,
				"element": "N" 
			},
			{
				"x": 1.4141789796,
				"y": 0.5497250379,
				"z": -0.497498426,
				"element": "C" 
			},
			{
				"x": 0.1769126339,
				"y": 0.4870504157,
				"z": 0.104841662,
				"element": "C" 
			},
			{
				"x": -0.2434135132,
				"y": 0.9130117257,
				"z": 1.4441682421,
				"element": "C" 
			},
			{
				"x": -1.0626893238,
				"y": 0.116847946,
				"z": 2.2665381441,
				"element": "C" 
			},
			{
				"x": -1.4113637267,
				"y": 0.5391986912,
				"z": 3.5489148548,
				"element": "C" 
			},
			{
				"x": -0.9371070259,
				"y": 1.7552330723,
				"z": 4.0442485282,
				"element": "C" 
			},
			{
				"x": -0.1114281271,
				"y": 2.5485188028,
				"z": 3.2443213508,
				"element": "C" 
			},
			{
				"x": 0.2249011003,
				"y": 2.1373611412,
				"z": 1.9562691968,
				"element": "C" 
			},
			{
				"x": -2.3278324516,
				"y": -1.3809028839,
				"z": -0.5632373342,
				"element": "H" 
			},
			{
				"x": -2.5114075401,
				"y": 0.2964536593,
				"z": 0.0016824924,
				"element": "H" 
			},
			{
				"x": -2.549448468,
				"y": -0.0603830775,
				"z": -1.734821066,
				"element": "H" 
			},
			{
				"x": 1.5424537612,
				"y": -0.2367135383,
				"z": -4.3094378663,
				"element": "H" 
			},
			{
				"x": 0.7507852157,
				"y": -1.4055160044,
				"z": -5.3841790417,
				"element": "H" 
			},
			{
				"x": 3.7735035052,
				"y": -2.8175703452,
				"z": -4.140407761,
				"element": "H" 
			},
			{
				"x": 2.3323268656,
				"y": 0.922480542,
				"z": -0.0648409305,
				"element": "H" 
			},
			{
				"x": -1.4017833543,
				"y": -0.8519187467,
				"z": 1.9124903667,
				"element": "H" 
			},
			{
				"x": -2.0428878317,
				"y": -0.0918088038,
				"z": 4.1679737628,
				"element": "H" 
			},
			{
				"x": -1.2065797053,
				"y": 2.0806215536,
				"z": 5.044714894,
				"element": "H" 
			},
			{
				"x": 0.2615532148,
				"y": 3.4973274926,
				"z": 3.6195711908,
				"element": "H" 
			},
			{
				"x": 0.8444277442,
				"y": 2.7683775623,
				"z": 1.3263523805,
				"element": "H" 
			}
		],
		 "valence_orbital": [ 
			{
				"type": "occ",
				"energy": -0.27372,
				"method": "rhf"
			},
			{
				"type": "occ",
				"energy": -0.26718,
				"method": "rhf"
			},
			{
				"type": "occ",
				"energy": -0.25556,
				"method": "rhf"
			},
			{
				"type": "occ",
				"energy": -0.25323,
				"method": "rhf"
			},
			{
				"type": "occ",
				"energy": -0.19529,
				"method": "rhf"
			},
			{
				"type": "unocc",
				"energy": -0.02068,
				"method": "rhf"
			},
			{
				"type": "unocc",
				"energy": -0.00713,
				"method": "rhf"
			},
			{
				"type": "unocc",
				"energy": 0.00928,
				"method": "rhf"
			},
			{
				"type": "unocc",
				"energy": 0.02171,
				"method": "rhf"
			},
			{
				"type": "unocc",
				"energy": 0.04048,
				"method": "rhf"
			}
		],
		"cosmo_sigma_profile": { 
			"-0.025": 0.0,
			"-0.024": 0.0,
			"-0.023": 0.0,
			"-0.022": 0.0,
			"-0.021": 0.0,
			"-0.02": 0.0,
			"-0.019": 0.0935880484099,
			"-0.018": 1.11203959443,
			"-0.017": 0.861530136936,
			"-0.016": 0.583264006911,
			"-0.015": 1.08592377886,
			"-0.014": 0.951815519066,
			"-0.013": 0.692469423444,
			"-0.012": 0.454550136262,
			"-0.011": 0.562774585139,
			"-0.01": 2.48973153132,
			"-0.009": 3.22590178992,
			"-0.008": 2.76831425773,
			"-0.007": 5.77127217912,
			"-0.006": 17.5235920764,
			"-0.005": 22.9610898408,
			"-0.004": 27.5212131753,
			"-0.003": 22.4115597126,
			"-0.002": 15.1498346907,
			"-0.001": 13.7051994195,
			"0.0": 12.5291919961,
			"0.001": 14.1114058102,
			"0.002": 17.9085994669,
			"0.003": 16.6989955011,
			"0.004": 17.1570424161,
			"0.005": 18.2471249199,
			"0.006": 9.11528348802,
			"0.007": 6.42487435891,
			"0.008": 6.60575179533,
			"0.009": 6.49580105928,
			"0.01": 4.0045202432,
			"0.011": 5.62192017873,
			"0.012": 4.09561695385,
			"0.013": 1.97697679766,
			"0.014": 0.249871813974,
			"0.015": 0.0,
			"0.016": 0.0,
			"0.017": 0.0,
			"0.018": 0.0,
			"0.019": 0.0,
			"0.02": 0.0,
			"0.021": 0.0,
			"0.022": 0.0,
			"0.023": 0.0,
			"0.024": 0.0,
			"0.025": 0.0
		}
	}
}
