{
	 "smiles": "COC1=C(N)C=C(C=C1)C(=O)N1CCCCCC1", 
	 "Tm": 407.15, 
	 "num_atms": 38, 
	 "gaussian": { 
		 "optdone": 1, 
		 "sigma_profile": "yes", 
		 "theory": "DFT", 
		 "functional": "B3LYP", 
		 "basiset": "6-31G**", 
		 "properties": { 
			 "R2extent": 6177.0186, 
			 "electric_dipole_moment_norm": 4.69058226236, 
			 "electric_quadrupole_moment_norm": 17.4310646344, 
			 "total_energy": -805.505605357, 
			 "HOMO_LUMO_gap": 0.18443, 
			 "cosmo_polarized_energy": -15.79, 
			 "cosmo_cavitation_energy": 38.33, 
			 "cosmo_dispersion_energy": -27.46, 
			 "cosmo_repulsion_energy": 2.14, 
			 "cosmo_total_nonelectrostatic_energy": 13.01, 
			 "SMD_solvation_energy": 6.19 
		},
		"coords": [
			{
				"x": 3.7477323511,
				"y": 1.8534694773,
				"z": -3.8896018581,
				"element": "C" 
			},
			{
				"x": 2.7629600282,
				"y": 2.5772355107,
				"z": -3.171210771,
				"element": "O" 
			},
			{
				"x": 2.2260491111,
				"y": 2.0010559797,
				"z": -2.0478274039,
				"element": "C" 
			},
			{
				"x": 1.2596560192,
				"y": 2.8003494937,
				"z": -1.3867081789,
				"element": "C" 
			},
			{
				"x": 0.9993453341,
				"y": 4.0810372777,
				"z": -1.8646280128,
				"element": "N" 
			},
			{
				"x": 0.6503613711,
				"y": 2.2895982681,
				"z": -0.2404347587,
				"element": "C" 
			},
			{
				"x": 0.9570088854,
				"y": 1.0101645058,
				"z": 0.2448437685,
				"element": "C" 
			},
			{
				"x": 1.9270369638,
				"y": 0.2454678101,
				"z": -0.4081845119,
				"element": "C" 
			},
			{
				"x": 2.5614370522,
				"y": 0.7443059234,
				"z": -1.551985533,
				"element": "C" 
			},
			{
				"x": 0.3148226413,
				"y": 0.588563247,
				"z": 1.5383357888,
				"element": "C" 
			},
			{
				"x": 0.2486389431,
				"y": 1.3825782478,
				"z": 2.4784279625,
				"element": "O" 
			},
			{
				"x": -0.1551820858,
				"y": -0.7007495278,
				"z": 1.668287545,
				"element": "N" 
			},
			{
				"x": -0.6122354248,
				"y": -1.1051066116,
				"z": 3.0028732784,
				"element": "C" 
			},
			{
				"x": -1.9921006617,
				"y": -0.5708291953,
				"z": 3.4382777317,
				"element": "C" 
			},
			{
				"x": -3.045072246,
				"y": -0.461072026,
				"z": 2.3198792304,
				"element": "C" 
			},
			{
				"x": -3.0680663878,
				"y": -1.6099493047,
				"z": 1.2922967949,
				"element": "C" 
			},
			{
				"x": -2.0397623677,
				"y": -1.4488121785,
				"z": 0.1590661119,
				"element": "C" 
			},
			{
				"x": -0.5600736736,
				"y": -1.5704946226,
				"z": 0.5587116242,
				"element": "C" 
			},
			{
				"x": 3.3539462283,
				"y": 0.9008232581,
				"z": -4.2673300784,
				"element": "H" 
			},
			{
				"x": 4.6319460723,
				"y": 1.6549665813,
				"z": -3.2707146441,
				"element": "H" 
			},
			{
				"x": 4.0342397463,
				"y": 2.4839690399,
				"z": -4.7329101809,
				"element": "H" 
			},
			{
				"x": 0.0945599522,
				"y": 4.4575125846,
				"z": -1.6217357707,
				"element": "H" 
			},
			{
				"x": 1.2502198162,
				"y": 4.2242974436,
				"z": -2.8325066152,
				"element": "H" 
			},
			{
				"x": -0.063032312,
				"y": 2.8994401464,
				"z": 0.3060379442,
				"element": "H" 
			},
			{
				"x": 2.2181462365,
				"y": -0.7237296698,
				"z": -0.0166464531,
				"element": "H" 
			},
			{
				"x": 3.3184415456,
				"y": 0.1453815733,
				"z": -2.0449160142,
				"element": "H" 
			},
			{
				"x": 0.1382358313,
				"y": -0.7783246736,
				"z": 3.7272169059,
				"element": "H" 
			},
			{
				"x": -0.6189709993,
				"y": -2.2004319609,
				"z": 3.0025775697,
				"element": "H" 
			},
			{
				"x": -2.3613350202,
				"y": -1.2376335336,
				"z": 4.2290665835,
				"element": "H" 
			},
			{
				"x": -1.8592526709,
				"y": 0.4164681791,
				"z": 3.8885393186,
				"element": "H" 
			},
			{
				"x": -4.0312217119,
				"y": -0.3758139611,
				"z": 2.7922371359,
				"element": "H" 
			},
			{
				"x": -2.8930528488,
				"y": 0.4808698706,
				"z": 1.777403972,
				"element": "H" 
			},
			{
				"x": -4.063137945,
				"y": -1.6501329023,
				"z": 0.8324109881,
				"element": "H" 
			},
			{
				"x": -2.9324004387,
				"y": -2.5782380008,
				"z": 1.7954985358,
				"element": "H" 
			},
			{
				"x": -2.1924868579,
				"y": -0.4690327359,
				"z": -0.3132993546,
				"element": "H" 
			},
			{
				"x": -2.2288578109,
				"y": -2.2004980677,
				"z": -0.6195294504,
				"element": "H" 
			},
			{
				"x": -0.3414250696,
				"y": -2.6043349067,
				"z": 0.8566808619,
				"element": "H" 
			},
			{
				"x": 0.0569824034,
				"y": -1.3513705393,
				"z": -0.3118000618,
				"element": "H" 
			}
		],
		 "valence_orbital": [ 
			{
				"type": "occ",
				"energy": -0.30102,
				"method": "rhf"
			},
			{
				"type": "occ",
				"energy": -0.24391,
				"method": "rhf"
			},
			{
				"type": "occ",
				"energy": -0.22592,
				"method": "rhf"
			},
			{
				"type": "occ",
				"energy": -0.21964,
				"method": "rhf"
			},
			{
				"type": "occ",
				"energy": -0.19129,
				"method": "rhf"
			},
			{
				"type": "unocc",
				"energy": -0.00686,
				"method": "rhf"
			},
			{
				"type": "unocc",
				"energy": 0.01244,
				"method": "rhf"
			},
			{
				"type": "unocc",
				"energy": 0.06355,
				"method": "rhf"
			},
			{
				"type": "unocc",
				"energy": 0.08569,
				"method": "rhf"
			},
			{
				"type": "unocc",
				"energy": 0.08867,
				"method": "rhf"
			}
		],
		"cosmo_sigma_profile": { 
			"-0.025": 0.0,
			"-0.024": 0.0,
			"-0.023": 0.0,
			"-0.022": 0.0,
			"-0.021": 0.0,
			"-0.02": 0.0,
			"-0.019": 0.0,
			"-0.018": 0.0,
			"-0.017": 0.0,
			"-0.016": 0.0,
			"-0.015": 0.0,
			"-0.014": 0.0,
			"-0.013": 0.227630883316,
			"-0.012": 1.34532051014,
			"-0.011": 1.55573593294,
			"-0.01": 2.44235018996,
			"-0.009": 2.57631856509,
			"-0.008": 2.27070944653,
			"-0.007": 2.78420223705,
			"-0.006": 7.86656334829,
			"-0.005": 16.9600878966,
			"-0.004": 20.8368066681,
			"-0.003": 29.1793556195,
			"-0.002": 38.2061255703,
			"-0.001": 37.4786790765,
			"0.0": 30.0363187805,
			"0.001": 23.4236761534,
			"0.002": 12.3119112072,
			"0.003": 10.6795556517,
			"0.004": 10.3293209952,
			"0.005": 11.9549660753,
			"0.006": 8.842871084,
			"0.007": 4.39434006321,
			"0.008": 3.42876102562,
			"0.009": 3.20819787733,
			"0.01": 2.22289582543,
			"0.011": 2.09507207075,
			"0.012": 2.51693362434,
			"0.013": 2.73767784168,
			"0.014": 4.28644736898,
			"0.015": 2.63395218667,
			"0.016": 0.327285207323,
			"0.017": 0.0,
			"0.018": 0.0,
			"0.019": 0.0,
			"0.02": 0.0,
			"0.021": 0.0,
			"0.022": 0.0,
			"0.023": 0.0,
			"0.024": 0.0,
			"0.025": 0.0
		}
	}
}
