{
	 "smiles": "OC(=O)CCC(NC(=O)CC1=CC2=C(C=CC=C2)C=C1)C(O)=O", 
	 "Tm": 447.15, 
	 "num_atms": 40, 
	 "gaussian": { 
		 "optdone": 1, 
		 "sigma_profile": "yes", 
		 "theory": "DFT", 
		 "functional": "B3LYP", 
		 "basiset": "6-31G**", 
		 "properties": { 
			 "R2extent": 8176.9496, 
			 "electric_dipole_moment_norm": 5.39892248879, 
			 "electric_quadrupole_moment_norm": 21.8488281047, 
			 "total_energy": -1088.9853232, 
			 "HOMO_LUMO_gap": 0.17606, 
			 "cosmo_polarized_energy": -25.44, 
			 "cosmo_cavitation_energy": 43.73, 
			 "cosmo_dispersion_energy": -28.99, 
			 "cosmo_repulsion_energy": 2.19, 
			 "cosmo_total_nonelectrostatic_energy": 16.93, 
			 "SMD_solvation_energy": 8.93 
		},
		"coords": [
			{
				"x": 2.16742699,
				"y": -0.2369285352,
				"z": 0.41526927,
				"element": "O" 
			},
			{
				"x": 2.5700495864,
				"y": -1.4633368098,
				"z": 0.0081343117,
				"element": "C" 
			},
			{
				"x": 3.195310985,
				"y": -2.2223986539,
				"z": 0.7140218742,
				"element": "O" 
			},
			{
				"x": 2.1649410641,
				"y": -1.7363245308,
				"z": -1.4294090166,
				"element": "C" 
			},
			{
				"x": 0.6696044027,
				"y": -1.5243921276,
				"z": -1.7281024228,
				"element": "C" 
			},
			{
				"x": -0.2821482176,
				"y": -2.5224000616,
				"z": -1.0099040114,
				"element": "C" 
			},
			{
				"x": -0.1737406891,
				"y": -2.5055349347,
				"z": 0.4361104311,
				"element": "N" 
			},
			{
				"x": -0.6622448894,
				"y": -1.5893360074,
				"z": 1.3324800985,
				"element": "C" 
			},
			{
				"x": -0.2937756293,
				"y": -1.6055885148,
				"z": 2.5016384995,
				"element": "O" 
			},
			{
				"x": -1.7125785085,
				"y": -0.5784382556,
				"z": 0.860709155,
				"element": "C" 
			},
			{
				"x": -1.1988245236,
				"y": 0.8510981246,
				"z": 0.8143515201,
				"element": "C" 
			},
			{
				"x": -1.335186633,
				"y": 1.6137286327,
				"z": -0.3273227554,
				"element": "C" 
			},
			{
				"x": -0.8883452515,
				"y": 2.9624173917,
				"z": -0.3823021932,
				"element": "C" 
			},
			{
				"x": -0.2815062686,
				"y": 3.5371502258,
				"z": 0.7802385937,
				"element": "C" 
			},
			{
				"x": 0.1646858988,
				"y": 4.884378316,
				"z": 0.7284622054,
				"element": "C" 
			},
			{
				"x": 0.0190138466,
				"y": 5.6321742166,
				"z": -0.4190753867,
				"element": "C" 
			},
			{
				"x": -0.5821335512,
				"y": 5.0642160933,
				"z": -1.5689422584,
				"element": "C" 
			},
			{
				"x": -1.025137804,
				"y": 3.7601627205,
				"z": -1.5498117734,
				"element": "C" 
			},
			{
				"x": -0.1536930742,
				"y": 2.732649245,
				"z": 1.9457824092,
				"element": "C" 
			},
			{
				"x": -0.5981359125,
				"y": 1.4320877319,
				"z": 1.96756607,
				"element": "C" 
			},
			{
				"x": -0.006239725,
				"y": -3.9481392174,
				"z": -1.4792228326,
				"element": "C" 
			},
			{
				"x": -0.3779806835,
				"y": -4.1196118249,
				"z": -2.7660515876,
				"element": "O" 
			},
			{
				"x": 0.508437098,
				"y": -4.8160884862,
				"z": -0.8121088361,
				"element": "O" 
			},
			{
				"x": 2.3960065472,
				"y": -0.1627127252,
				"z": 1.3571921849,
				"element": "H" 
			},
			{
				"x": 2.4910854202,
				"y": -2.7525146879,
				"z": -1.6646905598,
				"element": "H" 
			},
			{
				"x": 2.7385960574,
				"y": -1.0499291617,
				"z": -2.0636934535,
				"element": "H" 
			},
			{
				"x": 0.3824523045,
				"y": -0.5117900692,
				"z": -1.4314014453,
				"element": "H" 
			},
			{
				"x": 0.5019233215,
				"y": -1.6119231944,
				"z": -2.8064826419,
				"element": "H" 
			},
			{
				"x": -1.3055382358,
				"y": -2.2838078024,
				"z": -1.3172645592,
				"element": "H" 
			},
			{
				"x": 0.4792406695,
				"y": -3.1722858988,
				"z": 0.8363352536,
				"element": "H" 
			},
			{
				"x": -2.515442074,
				"y": -0.6506694085,
				"z": 1.60393183,
				"element": "H" 
			},
			{
				"x": -2.1460498837,
				"y": -0.8435325916,
				"z": -0.1067095596,
				"element": "H" 
			},
			{
				"x": -1.8055885813,
				"y": 1.1897623422,
				"z": -1.2126575652,
				"element": "H" 
			},
			{
				"x": 0.6245476388,
				"y": 5.3172581914,
				"z": 1.6133380878,
				"element": "H" 
			},
			{
				"x": 0.3642548592,
				"y": 6.6616424226,
				"z": -0.4464475309,
				"element": "H" 
			},
			{
				"x": -0.6931329806,
				"y": 5.6634686205,
				"z": -2.4681209265,
				"element": "H" 
			},
			{
				"x": -1.4878552448,
				"y": 3.3236144606,
				"z": -2.4316179821,
				"element": "H" 
			},
			{
				"x": 0.3014183072,
				"y": 3.1671576961,
				"z": 2.8326020521,
				"element": "H" 
			},
			{
				"x": -0.4911075794,
				"y": 0.8214034405,
				"z": 2.8578757906,
				"element": "H" 
			},
			{
				"x": -0.1417090562,
				"y": -5.0323863726,
				"z": -3.0042003395,
				"element": "H" 
			}
		],
		 "valence_orbital": [ 
			{
				"type": "occ",
				"energy": -0.27142,
				"method": "rhf"
			},
			{
				"type": "occ",
				"energy": -0.25831,
				"method": "rhf"
			},
			{
				"type": "occ",
				"energy": -0.25336,
				"method": "rhf"
			},
			{
				"type": "occ",
				"energy": -0.23825,
				"method": "rhf"
			},
			{
				"type": "occ",
				"energy": -0.2157,
				"method": "rhf"
			},
			{
				"type": "unocc",
				"energy": -0.03964,
				"method": "rhf"
			},
			{
				"type": "unocc",
				"energy": -0.01533,
				"method": "rhf"
			},
			{
				"type": "unocc",
				"energy": -0.01242,
				"method": "rhf"
			},
			{
				"type": "unocc",
				"energy": 0.00499,
				"method": "rhf"
			},
			{
				"type": "unocc",
				"energy": 0.02443,
				"method": "rhf"
			}
		],
		"cosmo_sigma_profile": { 
			"-0.025": 0.0,
			"-0.024": 0.0,
			"-0.023": 0.0,
			"-0.022": 0.0,
			"-0.021": 0.0,
			"-0.02": 0.0,
			"-0.019": 0.513181951556,
			"-0.018": 1.10619859462,
			"-0.017": 1.8159752389,
			"-0.016": 1.53037232131,
			"-0.015": 0.704209131569,
			"-0.014": 1.01729003751,
			"-0.013": 1.54662507634,
			"-0.012": 1.09729663164,
			"-0.011": 1.67571140535,
			"-0.01": 2.13767507897,
			"-0.009": 4.1384125105,
			"-0.008": 4.75159438056,
			"-0.007": 7.50772064197,
			"-0.006": 20.6104142581,
			"-0.005": 27.8249569879,
			"-0.004": 28.6078274965,
			"-0.003": 27.7885202423,
			"-0.002": 21.0365962794,
			"-0.001": 19.4673421868,
			"0.0": 17.3913914663,
			"0.001": 16.0147908468,
			"0.002": 16.6542670588,
			"0.003": 18.6335612257,
			"0.004": 27.3487870075,
			"0.005": 21.0629525795,
			"0.006": 9.0997459176,
			"0.007": 6.07995007704,
			"0.008": 6.57561625723,
			"0.009": 5.53723974894,
			"0.01": 5.92085627349,
			"0.011": 7.75885667528,
			"0.012": 6.29853182394,
			"0.013": 4.33799063275,
			"0.014": 2.51918955706,
			"0.015": 0.0707849092203,
			"0.016": 0.0,
			"0.017": 0.0,
			"0.018": 0.0,
			"0.019": 0.0,
			"0.02": 0.0,
			"0.021": 0.0,
			"0.022": 0.0,
			"0.023": 0.0,
			"0.024": 0.0,
			"0.025": 0.0
		}
	}
}
