{
	 "smiles": "OC(=O)CCCOC1=C(Cl)C(Cl)=CC=C1", 
	 "Tm": 395.15, 
	 "num_atms": 25, 
	 "gaussian": { 
		 "optdone": 1, 
		 "sigma_profile": "yes", 
		 "theory": "DFT", 
		 "functional": "B3LYP", 
		 "basiset": "6-31G**", 
		 "properties": { 
			 "R2extent": 6628.5386, 
			 "electric_dipole_moment_norm": 3.92704797653, 
			 "electric_quadrupole_moment_norm": 14.4283525172, 
			 "total_energy": -1533.15253387, 
			 "HOMO_LUMO_gap": 0.21559, 
			 "cosmo_polarized_energy": -11.15, 
			 "cosmo_cavitation_energy": 32.71, 
			 "cosmo_dispersion_energy": -23.47, 
			 "cosmo_repulsion_energy": 1.87, 
			 "cosmo_total_nonelectrostatic_energy": 11.12, 
			 "SMD_solvation_energy": 6.21 
		},
		"coords": [
			{
				"x": -0.9081452963,
				"y": -3.2484604335,
				"z": -2.548132712,
				"element": "O" 
			},
			{
				"x": -0.6756440063,
				"y": -2.4397456818,
				"z": -1.4897567482,
				"element": "C" 
			},
			{
				"x": -1.5243529425,
				"y": -2.2241052499,
				"z": -0.6461508236,
				"element": "O" 
			},
			{
				"x": 0.7181826192,
				"y": -1.8551829349,
				"z": -1.5338497733,
				"element": "C" 
			},
			{
				"x": 1.2379089644,
				"y": -1.3244218576,
				"z": -0.1915400804,
				"element": "C" 
			},
			{
				"x": 0.4797378649,
				"y": -0.1163203665,
				"z": 0.3474064844,
				"element": "C" 
			},
			{
				"x": 0.5387141108,
				"y": 0.929970795,
				"z": -0.6409202872,
				"element": "O" 
			},
			{
				"x": -0.4766874364,
				"y": 1.8375643818,
				"z": -0.6967470132,
				"element": "C" 
			},
			{
				"x": -0.1291084627,
				"y": 3.1978539764,
				"z": -0.8232969932,
				"element": "C" 
			},
			{
				"x": 1.5551125142,
				"y": 3.6428487969,
				"z": -0.81591,
				"element": "Cl" 
			},
			{
				"x": -1.1412540006,
				"y": 4.1587016843,
				"z": -0.9540531241,
				"element": "C" 
			},
			{
				"x": -0.7513319117,
				"y": 5.8560060326,
				"z": -1.1190585384,
				"element": "Cl" 
			},
			{
				"x": -2.4852037323,
				"y": 3.7827688872,
				"z": -0.9452609043,
				"element": "C" 
			},
			{
				"x": -2.8173969549,
				"y": 2.4361917003,
				"z": -0.8181125734,
				"element": "C" 
			},
			{
				"x": -1.8259948815,
				"y": 1.4650827838,
				"z": -0.700999488,
				"element": "C" 
			},
			{
				"x": -1.8288218028,
				"y": -3.5500164968,
				"z": -2.4643112362,
				"element": "H" 
			},
			{
				"x": 0.6989785662,
				"y": -1.0383043339,
				"z": -2.2662958296,
				"element": "H" 
			},
			{
				"x": 1.3930400183,
				"y": -2.6131804831,
				"z": -1.9425840824,
				"element": "H" 
			},
			{
				"x": 1.2004375817,
				"y": -2.1117054146,
				"z": 0.5702923483,
				"element": "H" 
			},
			{
				"x": 2.2913333553,
				"y": -1.0536486442,
				"z": -0.3211815561,
				"element": "H" 
			},
			{
				"x": -0.5527277635,
				"y": -0.3863588256,
				"z": 0.5689587728,
				"element": "H" 
			},
			{
				"x": 0.9548642115,
				"y": 0.2508206189,
				"z": 1.2661713072,
				"element": "H" 
			},
			{
				"x": -3.2500534137,
				"y": 4.5441223324,
				"z": -1.0434919853,
				"element": "H" 
			},
			{
				"x": -3.8615359969,
				"y": 2.139309372,
				"z": -0.8225071165,
				"element": "H" 
			},
			{
				"x": -2.0885512042,
				"y": 0.414509361,
				"z": -0.6356680472,
				"element": "H" 
			}
		],
		 "valence_orbital": [ 
			{
				"type": "occ",
				"energy": -0.30516,
				"method": "rhf"
			},
			{
				"type": "occ",
				"energy": -0.29714,
				"method": "rhf"
			},
			{
				"type": "occ",
				"energy": -0.28411,
				"method": "rhf"
			},
			{
				"type": "occ",
				"energy": -0.24492,
				"method": "rhf"
			},
			{
				"type": "occ",
				"energy": -0.23401,
				"method": "rhf"
			},
			{
				"type": "unocc",
				"energy": -0.01842,
				"method": "rhf"
			},
			{
				"type": "unocc",
				"energy": -0.01002,
				"method": "rhf"
			},
			{
				"type": "unocc",
				"energy": -0.00342,
				"method": "rhf"
			},
			{
				"type": "unocc",
				"energy": 0.00751,
				"method": "rhf"
			},
			{
				"type": "unocc",
				"energy": 0.06954,
				"method": "rhf"
			}
		],
		"cosmo_sigma_profile": { 
			"-0.025": 0.0,
			"-0.024": 0.0,
			"-0.023": 0.0,
			"-0.022": 0.0,
			"-0.021": 0.0,
			"-0.02": 0.0,
			"-0.019": 0.0027196032167,
			"-0.018": 0.512636888513,
			"-0.017": 1.15927171411,
			"-0.016": 0.822917596183,
			"-0.015": 0.428937512193,
			"-0.014": 0.783307850906,
			"-0.013": 0.804528168408,
			"-0.012": 0.695384352006,
			"-0.011": 1.16582904166,
			"-0.01": 0.655912386168,
			"-0.009": 0.249569603059,
			"-0.008": 1.05253444197,
			"-0.007": 4.87665156597,
			"-0.006": 8.09326885585,
			"-0.005": 16.1306384166,
			"-0.004": 20.7122727087,
			"-0.003": 25.2643840826,
			"-0.002": 20.5611571384,
			"-0.001": 16.593370051,
			"0.0": 18.0655840194,
			"0.001": 23.9892004596,
			"0.002": 22.6829321228,
			"0.003": 21.3179300435,
			"0.004": 21.0938857561,
			"0.005": 12.4855651215,
			"0.006": 4.39374235261,
			"0.007": 4.07574010807,
			"0.008": 4.42113775708,
			"0.009": 3.82848013323,
			"0.01": 3.23966491897,
			"0.011": 2.49215389683,
			"0.012": 1.85077864662,
			"0.013": 0.103121747139,
			"0.014": 0.0,
			"0.015": 0.0,
			"0.016": 0.0,
			"0.017": 0.0,
			"0.018": 0.0,
			"0.019": 0.0,
			"0.02": 0.0,
			"0.021": 0.0,
			"0.022": 0.0,
			"0.023": 0.0,
			"0.024": 0.0,
			"0.025": 0.0
		}
	}
}
