{
	 "smiles": "CC1(C)C2CCC1(C)C(=O)C2Cl", 
	 "Tm": 379.15, 
	 "num_atms": 27, 
	 "gaussian": { 
		 "optdone": 1, 
		 "sigma_profile": "yes", 
		 "theory": "DFT", 
		 "functional": "B3LYP", 
		 "basiset": "6-31G**", 
		 "properties": { 
			 "R2extent": 2411.0785, 
			 "electric_dipole_moment_norm": 4.18438876301, 
			 "electric_quadrupole_moment_norm": 10.2719225275, 
			 "total_energy": -925.524338766, 
			 "HOMO_LUMO_gap": 0.20732, 
			 "cosmo_polarized_energy": -8.73, 
			 "cosmo_cavitation_energy": 27.86, 
			 "cosmo_dispersion_energy": -20.1, 
			 "cosmo_repulsion_energy": 1.56, 
			 "cosmo_total_nonelectrostatic_energy": 9.32, 
			 "SMD_solvation_energy": 4.73 
		},
		"coords": [
			{
				"x": 0.0570699618,
				"y": -1.3712174494,
				"z": -0.6714598687,
				"element": "C" 
			},
			{
				"x": 0.1201941446,
				"y": 0.1649308077,
				"z": -0.797040617,
				"element": "C" 
			},
			{
				"x": 0.2891990782,
				"y": 0.4902080357,
				"z": -2.2910348407,
				"element": "C" 
			},
			{
				"x": 1.2041652592,
				"y": 0.8551803201,
				"z": 0.108470551,
				"element": "C" 
			},
			{
				"x": 0.9098323548,
				"y": 2.3589111883,
				"z": -0.0913790535,
				"element": "C" 
			},
			{
				"x": -0.6438638025,
				"y": 2.4027608717,
				"z": -0.1972027921,
				"element": "C" 
			},
			{
				"x": -1.0833990717,
				"y": 0.9012895557,
				"z": -0.1040592079,
				"element": "C" 
			},
			{
				"x": -2.5039954743,
				"y": 0.6146718698,
				"z": -0.5573335154,
				"element": "C" 
			},
			{
				"x": -0.8215162351,
				"y": 0.5641408421,
				"z": 1.36787841,
				"element": "C" 
			},
			{
				"x": -1.6350949724,
				"y": 0.4304404209,
				"z": 2.2505492952,
				"element": "O" 
			},
			{
				"x": 0.7183812455,
				"y": 0.4411245308,
				"z": 1.5103715737,
				"element": "C" 
			},
			{
				"x": 1.373613437,
				"y": 1.3872013237,
				"z": 2.9082669092,
				"element": "Cl" 
			},
			{
				"x": -0.2089945955,
				"y": -1.7278062418,
				"z": 0.327366734,
				"element": "H" 
			},
			{
				"x": 1.0203227765,
				"y": -1.8190793349,
				"z": -0.9400708726,
				"element": "H" 
			},
			{
				"x": -0.6921400368,
				"y": -1.7751300468,
				"z": -1.3598477023,
				"element": "H" 
			},
			{
				"x": -0.539499361,
				"y": 0.0671538252,
				"z": -2.8684366853,
				"element": "H" 
			},
			{
				"x": 0.3306663311,
				"y": 1.5586088554,
				"z": -2.50852202,
				"element": "H" 
			},
			{
				"x": 1.2136145476,
				"y": 0.0398113281,
				"z": -2.6699987041,
				"element": "H" 
			},
			{
				"x": 2.237142412,
				"y": 0.5611262449,
				"z": -0.0947931294,
				"element": "H" 
			},
			{
				"x": 1.290451685,
				"y": 2.9557417536,
				"z": 0.7393018313,
				"element": "H" 
			},
			{
				"x": 1.3892307531,
				"y": 2.7302389319,
				"z": -1.0003235805,
				"element": "H" 
			},
			{
				"x": -0.9808213426,
				"y": 2.8195133989,
				"z": -1.1514845267,
				"element": "H" 
			},
			{
				"x": -1.1059976362,
				"y": 3.0026381471,
				"z": 0.5923259735,
				"element": "H" 
			},
			{
				"x": -3.2180607218,
				"y": 1.1344953145,
				"z": 0.0881664824,
				"element": "H" 
			},
			{
				"x": -2.6663018024,
				"y": 0.9473930021,
				"z": -1.5875438404,
				"element": "H" 
			},
			{
				"x": -2.735325605,
				"y": -0.4536115032,
				"z": -0.5000823182,
				"element": "H" 
			},
			{
				"x": 0.9788266709,
				"y": -0.593135992,
				"z": 1.7388155146,
				"element": "H" 
			}
		],
		 "valence_orbital": [ 
			{
				"type": "occ",
				"energy": -0.33118,
				"method": "rhf"
			},
			{
				"type": "occ",
				"energy": -0.31096,
				"method": "rhf"
			},
			{
				"type": "occ",
				"energy": -0.29852,
				"method": "rhf"
			},
			{
				"type": "occ",
				"energy": -0.29267,
				"method": "rhf"
			},
			{
				"type": "occ",
				"energy": -0.24253,
				"method": "rhf"
			},
			{
				"type": "unocc",
				"energy": -0.03521,
				"method": "rhf"
			},
			{
				"type": "unocc",
				"energy": 0.04021,
				"method": "rhf"
			},
			{
				"type": "unocc",
				"energy": 0.06634,
				"method": "rhf"
			},
			{
				"type": "unocc",
				"energy": 0.09741,
				"method": "rhf"
			},
			{
				"type": "unocc",
				"energy": 0.10743,
				"method": "rhf"
			}
		],
		"cosmo_sigma_profile": { 
			"-0.025": 0.0,
			"-0.024": 0.0,
			"-0.023": 0.0,
			"-0.022": 0.0,
			"-0.021": 0.0,
			"-0.02": 0.0,
			"-0.019": 0.0,
			"-0.018": 0.0,
			"-0.017": 0.0,
			"-0.016": 0.0,
			"-0.015": 0.0,
			"-0.014": 0.0,
			"-0.013": 0.0,
			"-0.012": 0.0,
			"-0.011": 0.0,
			"-0.01": 0.0,
			"-0.009": 0.744824519145,
			"-0.008": 2.18297030074,
			"-0.007": 1.71151984393,
			"-0.006": 2.34601339524,
			"-0.005": 5.3180147245,
			"-0.004": 16.7798927399,
			"-0.003": 34.5488694982,
			"-0.002": 31.985519728,
			"-0.001": 25.2884579939,
			"0.0": 28.2393262664,
			"0.001": 17.1825745735,
			"0.002": 5.79296401878,
			"0.003": 4.99091305517,
			"0.004": 7.27969876308,
			"0.005": 7.29002171026,
			"0.006": 7.45801025608,
			"0.007": 3.16540990132,
			"0.008": 2.37982429298,
			"0.009": 2.82253563272,
			"0.01": 3.0041089143,
			"0.011": 5.18256332653,
			"0.012": 2.31799838684,
			"0.013": 0.113423718651,
			"0.014": 0.0,
			"0.015": 0.0,
			"0.016": 0.0,
			"0.017": 0.0,
			"0.018": 0.0,
			"0.019": 0.0,
			"0.02": 0.0,
			"0.021": 0.0,
			"0.022": 0.0,
			"0.023": 0.0,
			"0.024": 0.0,
			"0.025": 0.0
		}
	}
}
