{
	 "smiles": "CCOC1=C(OCCOC2=CC=CC=C2)C=CC(C=CC(O)=O)=C1", 
	 "Tm": 461.15, 
	 "num_atms": 44, 
	 "gaussian": { 
		 "optdone": 1, 
		 "sigma_profile": "yes", 
		 "theory": "DFT", 
		 "functional": "B3LYP", 
		 "basiset": "6-31G**", 
		 "properties": { 
			 "R2extent": 14444.6667, 
			 "electric_dipole_moment_norm": 4.97159993262, 
			 "electric_quadrupole_moment_norm": 21.0653157251, 
			 "total_energy": -1112.16986923, 
			 "HOMO_LUMO_gap": 0.1547, 
			 "cosmo_polarized_energy": -19.45, 
			 "cosmo_cavitation_energy": 49.47, 
			 "cosmo_dispersion_energy": -33.56, 
			 "cosmo_repulsion_energy": 2.59, 
			 "cosmo_total_nonelectrostatic_energy": 18.49, 
			 "SMD_solvation_energy": 10.24 
		},
		"coords": [
			{
				"x": -2.6258648219,
				"y": -1.7214492876,
				"z": 0.2377126689,
				"element": "C" 
			},
			{
				"x": -1.2475778781,
				"y": -1.087872149,
				"z": 0.1895117231,
				"element": "C" 
			},
			{
				"x": -1.2547751314,
				"y": 0.0224632103,
				"z": 1.1111032174,
				"element": "O" 
			},
			{
				"x": -0.0700541326,
				"y": 0.6859062405,
				"z": 1.287036511,
				"element": "C" 
			},
			{
				"x": 0.5109251369,
				"y": 1.4570802973,
				"z": 0.253228559,
				"element": "C" 
			},
			{
				"x": -0.1606788374,
				"y": 1.469878527,
				"z": -0.9305851159,
				"element": "O" 
			},
			{
				"x": 0.4259693064,
				"y": 2.1106323852,
				"z": -2.0565233226,
				"element": "C" 
			},
			{
				"x": -0.4691854702,
				"y": 1.8193592217,
				"z": -3.2528271991,
				"element": "C" 
			},
			{
				"x": -0.4927061588,
				"y": 0.4432577278,
				"z": -3.6062838658,
				"element": "O" 
			},
			{
				"x": 0.5298342938,
				"y": -0.0918822698,
				"z": -4.3479176128,
				"element": "C" 
			},
			{
				"x": 0.4260851442,
				"y": -1.4688176914,
				"z": -4.5943274357,
				"element": "C" 
			},
			{
				"x": 1.3951071866,
				"y": -2.1170033289,
				"z": -5.3517669308,
				"element": "C" 
			},
			{
				"x": 2.4820757604,
				"y": -1.4073429552,
				"z": -5.8739590962,
				"element": "C" 
			},
			{
				"x": 2.5819811377,
				"y": -0.0409095873,
				"z": -5.6254709331,
				"element": "C" 
			},
			{
				"x": 1.6154809141,
				"y": 0.6257833711,
				"z": -4.8642878738,
				"element": "C" 
			},
			{
				"x": 1.6973602875,
				"y": 2.1588947114,
				"z": 0.5038641923,
				"element": "C" 
			},
			{
				"x": 2.294198654,
				"y": 2.1124708591,
				"z": 1.7604898924,
				"element": "C" 
			},
			{
				"x": 1.7260077579,
				"y": 1.3653375035,
				"z": 2.8053150154,
				"element": "C" 
			},
			{
				"x": 2.3025024956,
				"y": 1.2824693888,
				"z": 4.1429782595,
				"element": "C" 
			},
			{
				"x": 3.4264999619,
				"y": 1.8691828333,
				"z": 4.5996458549,
				"element": "C" 
			},
			{
				"x": 3.847649396,
				"y": 1.6634098306,
				"z": 5.9944120951,
				"element": "C" 
			},
			{
				"x": 4.9995781135,
				"y": 2.333539015,
				"z": 6.2720602783,
				"element": "O" 
			},
			{
				"x": 3.2759345253,
				"y": 0.9901258448,
				"z": 6.8330219479,
				"element": "O" 
			},
			{
				"x": 0.5396879658,
				"y": 0.6547792682,
				"z": 2.5343935367,
				"element": "C" 
			},
			{
				"x": -3.3901316432,
				"y": -1.0000896923,
				"z": -0.0654652908,
				"element": "H" 
			},
			{
				"x": -2.6695398519,
				"y": -2.5779050111,
				"z": -0.4425858746,
				"element": "H" 
			},
			{
				"x": -2.8604432319,
				"y": -2.0672041918,
				"z": 1.2486064241,
				"element": "H" 
			},
			{
				"x": -0.4739476587,
				"y": -1.8041012583,
				"z": 0.5000800524,
				"element": "H" 
			},
			{
				"x": -1.0096498109,
				"y": -0.73616887,
				"z": -0.8191655514,
				"element": "H" 
			},
			{
				"x": 1.4421408371,
				"y": 1.7333951614,
				"z": -2.2253199377,
				"element": "H" 
			},
			{
				"x": 0.4795715602,
				"y": 3.1980422706,
				"z": -1.8988768198,
				"element": "H" 
			},
			{
				"x": -0.1743685388,
				"y": 2.446893938,
				"z": -4.1030301759,
				"element": "H" 
			},
			{
				"x": -1.501528354,
				"y": 2.0648829531,
				"z": -2.9907081628,
				"element": "H" 
			},
			{
				"x": -0.4249593153,
				"y": -2.003102079,
				"z": -4.1847812938,
				"element": "H" 
			},
			{
				"x": 1.3012561622,
				"y": -3.1833871495,
				"z": -5.5364065943,
				"element": "H" 
			},
			{
				"x": 3.2384614063,
				"y": -1.9154231636,
				"z": -6.4637002641,
				"element": "H" 
			},
			{
				"x": 3.4203293974,
				"y": 0.5248309196,
				"z": -6.0222566119,
				"element": "H" 
			},
			{
				"x": 1.7240069517,
				"y": 1.6897838466,
				"z": -4.6896543134,
				"element": "H" 
			},
			{
				"x": 2.1532706144,
				"y": 2.7560934561,
				"z": -0.2771416486,
				"element": "H" 
			},
			{
				"x": 3.2093400641,
				"y": 2.6718393216,
				"z": 1.9247109274,
				"element": "H" 
			},
			{
				"x": 1.7575741415,
				"y": 0.6710202554,
				"z": 4.8609463653,
				"element": "H" 
			},
			{
				"x": 4.0593270069,
				"y": 2.5019057074,
				"z": 3.9864535467,
				"element": "H" 
			},
			{
				"x": 5.1958101891,
				"y": 2.1396685759,
				"z": 7.2033827827,
				"element": "H" 
			},
			{
				"x": 0.0651444668,
				"y": 0.0620320434,
				"z": 3.3106880748,
				"element": "H" 
			}
		],
		 "valence_orbital": [ 
			{
				"type": "occ",
				"energy": -0.26461,
				"method": "rhf"
			},
			{
				"type": "occ",
				"energy": -0.25704,
				"method": "rhf"
			},
			{
				"type": "occ",
				"energy": -0.24564,
				"method": "rhf"
			},
			{
				"type": "occ",
				"energy": -0.22689,
				"method": "rhf"
			},
			{
				"type": "occ",
				"energy": -0.2134,
				"method": "rhf"
			},
			{
				"type": "unocc",
				"energy": -0.0587,
				"method": "rhf"
			},
			{
				"type": "unocc",
				"energy": -0.00864,
				"method": "rhf"
			},
			{
				"type": "unocc",
				"energy": -0.00558,
				"method": "rhf"
			},
			{
				"type": "unocc",
				"energy": 0.00593,
				"method": "rhf"
			},
			{
				"type": "unocc",
				"energy": 0.03044,
				"method": "rhf"
			}
		],
		"cosmo_sigma_profile": { 
			"-0.025": 0.0,
			"-0.024": 0.0,
			"-0.023": 0.0,
			"-0.022": 0.0,
			"-0.021": 0.0,
			"-0.02": 0.0,
			"-0.019": 0.0,
			"-0.018": 0.415718843505,
			"-0.017": 0.715883810367,
			"-0.016": 0.77149438223,
			"-0.015": 1.06621670721,
			"-0.014": 0.875152793193,
			"-0.013": 0.4024681047,
			"-0.012": 0.471247306658,
			"-0.011": 0.683133069342,
			"-0.01": 0.871403031228,
			"-0.009": 1.2598984705,
			"-0.008": 4.84726684567,
			"-0.007": 15.9618176339,
			"-0.006": 23.3481733905,
			"-0.005": 26.6751028986,
			"-0.004": 25.1551831199,
			"-0.003": 29.9075676328,
			"-0.002": 26.4873090145,
			"-0.001": 26.9889595428,
			"0.0": 28.9474920244,
			"0.001": 27.5166739987,
			"0.002": 26.5278257431,
			"0.003": 29.0883681617,
			"0.004": 26.1891655094,
			"0.005": 18.1634946306,
			"0.006": 14.7497751774,
			"0.007": 5.78588645433,
			"0.008": 5.14201933554,
			"0.009": 5.64215932126,
			"0.01": 6.38536987515,
			"0.011": 3.8407503788,
			"0.012": 5.55038590635,
			"0.013": 2.56545062939,
			"0.014": 0.0,
			"0.015": 0.0,
			"0.016": 0.0,
			"0.017": 0.0,
			"0.018": 0.0,
			"0.019": 0.0,
			"0.02": 0.0,
			"0.021": 0.0,
			"0.022": 0.0,
			"0.023": 0.0,
			"0.024": 0.0,
			"0.025": 0.0
		}
	}
}
