{
	 "smiles": "CN1C=C(NC2=CN(C)C(=O)C=C2)C=CC1=O", 
	 "Tm": 544.15, 
	 "num_atms": 30, 
	 "gaussian": { 
		 "optdone": 1, 
		 "sigma_profile": "yes", 
		 "theory": "DFT", 
		 "functional": "B3LYP", 
		 "basiset": "6-31G**", 
		 "properties": { 
			 "R2extent": 5646.9225, 
			 "electric_dipole_moment_norm": 3.95101364842, 
			 "electric_quadrupole_moment_norm": 37.4299855868, 
			 "total_energy": -779.808693471, 
			 "HOMO_LUMO_gap": 0.1435, 
			 "cosmo_polarized_energy": -24.73, 
			 "cosmo_cavitation_energy": 34.31, 
			 "cosmo_dispersion_energy": -24.45, 
			 "cosmo_repulsion_energy": 1.89, 
			 "cosmo_total_nonelectrostatic_energy": 11.75, 
			 "SMD_solvation_energy": 7.48 
		},
		"coords": [
			{
				"x": 1.9403615469,
				"y": -2.0907376263,
				"z": -2.9768113196,
				"element": "C" 
			},
			{
				"x": 1.7548408495,
				"y": -0.709957128,
				"z": -2.5318154266,
				"element": "N" 
			},
			{
				"x": 1.1192998321,
				"y": -0.4331491146,
				"z": -1.3467239693,
				"element": "C" 
			},
			{
				"x": 0.9681456802,
				"y": 0.8519104785,
				"z": -0.8955252967,
				"element": "C" 
			},
			{
				"x": 0.3734057134,
				"y": 1.1830437199,
				"z": 0.3497347053,
				"element": "N" 
			},
			{
				"x": 0.0782613583,
				"y": 0.1876863359,
				"z": 1.3113391296,
				"element": "C" 
			},
			{
				"x": -1.2028596642,
				"y": -0.0756034564,
				"z": 1.7185237044,
				"element": "C" 
			},
			{
				"x": -1.4757064654,
				"y": -0.9593080379,
				"z": 2.7317302284,
				"element": "N" 
			},
			{
				"x": -2.8480896094,
				"y": -1.1944974736,
				"z": 3.1785931443,
				"element": "C" 
			},
			{
				"x": -0.4778089091,
				"y": -1.7130529044,
				"z": 3.3926511056,
				"element": "C" 
			},
			{
				"x": -0.7950680208,
				"y": -2.5082998275,
				"z": 4.2769340731,
				"element": "O" 
			},
			{
				"x": 0.8719232891,
				"y": -1.439050281,
				"z": 2.9323190969,
				"element": "C" 
			},
			{
				"x": 1.1378033961,
				"y": -0.528024644,
				"z": 1.9549778166,
				"element": "C" 
			},
			{
				"x": 1.4687177705,
				"y": 1.9055934945,
				"z": -1.7212188786,
				"element": "C" 
			},
			{
				"x": 2.0621807097,
				"y": 1.638910261,
				"z": -2.9182515687,
				"element": "C" 
			},
			{
				"x": 2.2525207211,
				"y": 0.2841620895,
				"z": -3.4027298407,
				"element": "C" 
			},
			{
				"x": 2.7960718723,
				"y": -0.0380459406,
				"z": -4.4603557578,
				"element": "O" 
			},
			{
				"x": 1.4524178817,
				"y": -2.2392676429,
				"z": -3.9430459807,
				"element": "H" 
			},
			{
				"x": 1.5172914679,
				"y": -2.7686052149,
				"z": -2.2346349914,
				"element": "H" 
			},
			{
				"x": 3.0048104075,
				"y": -2.2987115788,
				"z": -3.1097670363,
				"element": "H" 
			},
			{
				"x": 0.7565997688,
				"y": -1.2873100161,
				"z": -0.7885094139,
				"element": "H" 
			},
			{
				"x": -0.3391414687,
				"y": 1.8984682399,
				"z": 0.2727151704,
				"element": "H" 
			},
			{
				"x": -2.0603857356,
				"y": 0.4195412357,
				"z": 1.2748822766,
				"element": "H" 
			},
			{
				"x": -3.1080011163,
				"y": -2.2474493454,
				"z": 3.0463826969,
				"element": "H" 
			},
			{
				"x": -3.5278777386,
				"y": -0.5659684133,
				"z": 2.6019616821,
				"element": "H" 
			},
			{
				"x": -2.9371566381,
				"y": -0.9637030307,
				"z": 4.2428080408,
				"element": "H" 
			},
			{
				"x": 1.6607997102,
				"y": -1.9874736367,
				"z": 3.4339528052,
				"element": "H" 
			},
			{
				"x": 2.1608145953,
				"y": -0.3199542886,
				"z": 1.6544453929,
				"element": "H" 
			},
			{
				"x": 1.3699104947,
				"y": 2.9309118572,
				"z": -1.3716977562,
				"element": "H" 
			},
			{
				"x": 2.4407183008,
				"y": 2.4275418897,
				"z": -3.5580638326,
				"element": "H" 
			}
		],
		 "valence_orbital": [ 
			{
				"type": "occ",
				"energy": -0.27593,
				"method": "rhf"
			},
			{
				"type": "occ",
				"energy": -0.2496,
				"method": "rhf"
			},
			{
				"type": "occ",
				"energy": -0.24402,
				"method": "rhf"
			},
			{
				"type": "occ",
				"energy": -0.21882,
				"method": "rhf"
			},
			{
				"type": "occ",
				"energy": -0.18998,
				"method": "rhf"
			},
			{
				"type": "unocc",
				"energy": -0.04648,
				"method": "rhf"
			},
			{
				"type": "unocc",
				"energy": -0.03738,
				"method": "rhf"
			},
			{
				"type": "unocc",
				"energy": 0.00467,
				"method": "rhf"
			},
			{
				"type": "unocc",
				"energy": 0.02918,
				"method": "rhf"
			},
			{
				"type": "unocc",
				"energy": 0.07314,
				"method": "rhf"
			}
		],
		"cosmo_sigma_profile": { 
			"-0.025": 0.0,
			"-0.024": 0.0,
			"-0.023": 0.0,
			"-0.022": 0.0,
			"-0.021": 0.0,
			"-0.02": 0.0,
			"-0.019": 0.0,
			"-0.018": 0.0,
			"-0.017": 0.0,
			"-0.016": 0.0,
			"-0.015": 0.0,
			"-0.014": 0.374085676967,
			"-0.013": 1.54000450826,
			"-0.012": 2.1039469417,
			"-0.011": 1.35767044671,
			"-0.01": 3.17201874027,
			"-0.009": 6.64814643183,
			"-0.008": 5.86130341011,
			"-0.007": 9.47313325776,
			"-0.006": 14.3506967184,
			"-0.005": 19.7903020074,
			"-0.004": 20.3142544781,
			"-0.003": 25.5715422248,
			"-0.002": 23.0533914407,
			"-0.001": 14.8967841398,
			"0.0": 20.3488577919,
			"0.001": 17.0226483743,
			"0.002": 17.1520570579,
			"0.003": 14.0136522533,
			"0.004": 7.34432575184,
			"0.005": 3.09456402188,
			"0.006": 3.70577577701,
			"0.007": 3.96860574295,
			"0.008": 2.89490476717,
			"0.009": 2.31611374297,
			"0.01": 3.97756988702,
			"0.011": 2.62835498077,
			"0.012": 2.05819779217,
			"0.013": 4.02492594288,
			"0.014": 6.83680190942,
			"0.015": 10.2735333331,
			"0.016": 2.76694356198,
			"0.017": 0.022759074603,
			"0.018": 0.0,
			"0.019": 0.0,
			"0.02": 0.0,
			"0.021": 0.0,
			"0.022": 0.0,
			"0.023": 0.0,
			"0.024": 0.0,
			"0.025": 0.0
		}
	}
}
