{
	 "smiles": "CC(=O)NC1=NC(=CC=C1)C(O)=O", 
	 "Tm": 500.15, 
	 "num_atms": 21, 
	 "gaussian": { 
		 "optdone": 1, 
		 "sigma_profile": "yes", 
		 "theory": "DFT", 
		 "functional": "B3LYP", 
		 "basiset": "6-31G**", 
		 "properties": { 
			 "R2extent": 2986.9552, 
			 "electric_dipole_moment_norm": 4.21314407776, 
			 "electric_quadrupole_moment_norm": 19.6322612429, 
			 "total_energy": -644.882713509, 
			 "HOMO_LUMO_gap": 0.17978, 
			 "cosmo_polarized_energy": -18.49, 
			 "cosmo_cavitation_energy": 26.12, 
			 "cosmo_dispersion_energy": -18.94, 
			 "cosmo_repulsion_energy": 1.48, 
			 "cosmo_total_nonelectrostatic_energy": 8.66, 
			 "SMD_solvation_energy": 6.25 
		},
		"coords": [
			{
				"x": -3.0444209865,
				"y": 1.4071388657,
				"z": 1.2942028561,
				"element": "C" 
			},
			{
				"x": -2.552734953,
				"y": 2.0016765247,
				"z": -0.0033845358,
				"element": "C" 
			},
			{
				"x": -3.1657640505,
				"y": 2.8658942064,
				"z": -0.6066263903,
				"element": "O" 
			},
			{
				"x": -1.3446668183,
				"y": 1.5600165389,
				"z": -0.5595240731,
				"element": "N" 
			},
			{
				"x": -0.3868711083,
				"y": 0.6209734596,
				"z": -0.1859626849,
				"element": "C" 
			},
			{
				"x": -0.5373313669,
				"y": -0.0853162237,
				"z": 0.9366255641,
				"element": "N" 
			},
			{
				"x": 0.4125177214,
				"y": -0.9827344623,
				"z": 1.260278806,
				"element": "C" 
			},
			{
				"x": 1.5470479027,
				"y": -1.2248506876,
				"z": 0.4988064272,
				"element": "C" 
			},
			{
				"x": 1.7002649598,
				"y": -0.4821555042,
				"z": -0.676782475,
				"element": "C" 
			},
			{
				"x": 0.7345235933,
				"y": 0.4467770669,
				"z": -1.0286802637,
				"element": "C" 
			},
			{
				"x": 0.1790082427,
				"y": -1.7463349319,
				"z": 2.5424801603,
				"element": "C" 
			},
			{
				"x": -0.9567135629,
				"y": -1.410742157,
				"z": 3.1757914488,
				"element": "O" 
			},
			{
				"x": 0.9459170481,
				"y": -2.5834957652,
				"z": 2.959565706,
				"element": "O" 
			},
			{
				"x": -3.1915616991,
				"y": 0.3280409574,
				"z": 1.1996486594,
				"element": "H" 
			},
			{
				"x": -3.9897893889,
				"y": 1.8929177031,
				"z": 1.5352287673,
				"element": "H" 
			},
			{
				"x": -2.3230175762,
				"y": 1.5722314017,
				"z": 2.0987972388,
				"element": "H" 
			},
			{
				"x": -1.1593867147,
				"y": 2.0551252657,
				"z": -1.423430715,
				"element": "H" 
			},
			{
				"x": 2.2650936283,
				"y": -1.9649872118,
				"z": 0.8288695653,
				"element": "H" 
			},
			{
				"x": 2.5678359093,
				"y": -0.6282553573,
				"z": -1.3130417291,
				"element": "H" 
			},
			{
				"x": 0.8304649719,
				"y": 1.0354438397,
				"z": -1.9357926461,
				"element": "H" 
			},
			{
				"x": -1.3797157522,
				"y": -0.719463529,
				"z": 2.6281303139,
				"element": "H" 
			}
		],
		 "valence_orbital": [ 
			{
				"type": "occ",
				"energy": -0.31535,
				"method": "rhf"
			},
			{
				"type": "occ",
				"energy": -0.3135,
				"method": "rhf"
			},
			{
				"type": "occ",
				"energy": -0.27537,
				"method": "rhf"
			},
			{
				"type": "occ",
				"energy": -0.27284,
				"method": "rhf"
			},
			{
				"type": "occ",
				"energy": -0.25329,
				"method": "rhf"
			},
			{
				"type": "unocc",
				"energy": -0.07351,
				"method": "rhf"
			},
			{
				"type": "unocc",
				"energy": -0.04796,
				"method": "rhf"
			},
			{
				"type": "unocc",
				"energy": 0.01073,
				"method": "rhf"
			},
			{
				"type": "unocc",
				"energy": 0.05072,
				"method": "rhf"
			},
			{
				"type": "unocc",
				"energy": 0.05857,
				"method": "rhf"
			}
		],
		"cosmo_sigma_profile": { 
			"-0.025": 0.0,
			"-0.024": 0.0,
			"-0.023": 0.0,
			"-0.022": 0.0,
			"-0.021": 0.0,
			"-0.02": 0.0,
			"-0.019": 0.0,
			"-0.018": 0.0,
			"-0.017": 0.0,
			"-0.016": 0.0804868458996,
			"-0.015": 1.3870721067,
			"-0.014": 1.25224528808,
			"-0.013": 1.11101790222,
			"-0.012": 1.09162855285,
			"-0.011": 1.33793826313,
			"-0.01": 2.42763867411,
			"-0.009": 3.87327636272,
			"-0.008": 5.90029287554,
			"-0.007": 9.24924818329,
			"-0.006": 11.039511073,
			"-0.005": 12.7312944705,
			"-0.004": 14.1671557255,
			"-0.003": 12.5570768154,
			"-0.002": 15.6798460727,
			"-0.001": 21.2123808588,
			"0.0": 17.5466485236,
			"0.001": 14.607925292,
			"0.002": 6.01611891577,
			"0.003": 3.62958700959,
			"0.004": 3.91667518652,
			"0.005": 2.37120220469,
			"0.006": 4.37181290017,
			"0.007": 4.02233712627,
			"0.008": 2.76806111539,
			"0.009": 5.70214770264,
			"0.01": 7.27727546233,
			"0.011": 6.99178062385,
			"0.012": 8.84441475194,
			"0.013": 5.05848470417,
			"0.014": 0.685552632669,
			"0.015": 0.0,
			"0.016": 0.0,
			"0.017": 0.0,
			"0.018": 0.0,
			"0.019": 0.0,
			"0.02": 0.0,
			"0.021": 0.0,
			"0.022": 0.0,
			"0.023": 0.0,
			"0.024": 0.0,
			"0.025": 0.0
		}
	}
}
