{
	 "smiles": "CCOC(=O)CNC(=O)C1=CN(CC)C2=NC(C)=CC=C2C1=O", 
	 "Tm": 471.15, 
	 "num_atms": 42, 
	 "gaussian": { 
		 "optdone": 1, 
		 "sigma_profile": "yes", 
		 "theory": "DFT", 
		 "functional": "B3LYP", 
		 "basiset": "6-31G**", 
		 "properties": { 
			 "R2extent": 9533.7399, 
			 "electric_dipole_moment_norm": 6.39440877486, 
			 "electric_quadrupole_moment_norm": 20.9121841392, 
			 "total_energy": -1086.35889374, 
			 "HOMO_LUMO_gap": 0.16339, 
			 "cosmo_polarized_energy": -23.22, 
			 "cosmo_cavitation_energy": 45.95, 
			 "cosmo_dispersion_energy": -31.51, 
			 "cosmo_repulsion_energy": 2.45, 
			 "cosmo_total_nonelectrostatic_energy": 16.89, 
			 "SMD_solvation_energy": 8.79 
		},
		"coords": [
			{
				"x": 0.5196558445,
				"y": -5.593776915,
				"z": 2.8579214744,
				"element": "C" 
			},
			{
				"x": -0.7236839641,
				"y": -4.7270326558,
				"z": 2.920325843,
				"element": "C" 
			},
			{
				"x": -0.2956919542,
				"y": -3.3718922474,
				"z": 3.1852430692,
				"element": "O" 
			},
			{
				"x": -1.2781898745,
				"y": -2.4550994886,
				"z": 3.2653597406,
				"element": "C" 
			},
			{
				"x": -2.4597352926,
				"y": -2.7015880485,
				"z": 3.1858957185,
				"element": "O" 
			},
			{
				"x": -0.6946080345,
				"y": -1.0788823447,
				"z": 3.5685648607,
				"element": "C" 
			},
			{
				"x": -1.641415713,
				"y": -0.0183835373,
				"z": 3.3266703939,
				"element": "N" 
			},
			{
				"x": -1.6174745671,
				"y": 1.0035081192,
				"z": 2.4217138342,
				"element": "C" 
			},
			{
				"x": -2.4249816338,
				"y": 1.9300109723,
				"z": 2.5153345965,
				"element": "O" 
			},
			{
				"x": -0.5830116755,
				"y": 1.0274462978,
				"z": 1.3282473682,
				"element": "C" 
			},
			{
				"x": -0.2016243852,
				"y": 2.2905406897,
				"z": 0.950004934,
				"element": "C" 
			},
			{
				"x": 0.6535197394,
				"y": 2.5865918903,
				"z": -0.0624867801,
				"element": "N" 
			},
			{
				"x": 0.9718025465,
				"y": 3.9942571441,
				"z": -0.3755903761,
				"element": "C" 
			},
			{
				"x": 0.0700996089,
				"y": 4.575528162,
				"z": -1.4643134896,
				"element": "C" 
			},
			{
				"x": 1.1642350263,
				"y": 1.5533225675,
				"z": -0.8462243883,
				"element": "C" 
			},
			{
				"x": 1.9968863225,
				"y": 1.8984890963,
				"z": -1.8413004239,
				"element": "N" 
			},
			{
				"x": 2.5006087198,
				"y": 0.9313934038,
				"z": -2.6110651606,
				"element": "C" 
			},
			{
				"x": 3.4343949885,
				"y": 1.3523400133,
				"z": -3.7173196853,
				"element": "C" 
			},
			{
				"x": 2.1808916472,
				"y": -0.428407798,
				"z": -2.4123731743,
				"element": "C" 
			},
			{
				"x": 1.3200206418,
				"y": -0.7718338314,
				"z": -1.3867080823,
				"element": "C" 
			},
			{
				"x": 0.7827182773,
				"y": 0.2277967303,
				"z": -0.5618971851,
				"element": "C" 
			},
			{
				"x": -0.1375033856,
				"y": -0.1224396539,
				"z": 0.5457144253,
				"element": "C" 
			},
			{
				"x": -0.4788111949,
				"y": -1.2967724895,
				"z": 0.7375310537,
				"element": "O" 
			},
			{
				"x": 1.0664958025,
				"y": -5.5643223114,
				"z": 3.8050632802,
				"element": "H" 
			},
			{
				"x": 0.239665623,
				"y": -6.6322738178,
				"z": 2.6547181597,
				"element": "H" 
			},
			{
				"x": 1.1900075914,
				"y": -5.2553564285,
				"z": 2.0627133007,
				"element": "H" 
			},
			{
				"x": -1.2805879822,
				"y": -4.7382071708,
				"z": 1.9785817612,
				"element": "H" 
			},
			{
				"x": -1.4083351623,
				"y": -5.0452984219,
				"z": 3.7133312742,
				"element": "H" 
			},
			{
				"x": -0.3981176434,
				"y": -1.0749418672,
				"z": 4.6278825014,
				"element": "H" 
			},
			{
				"x": 0.2099041147,
				"y": -0.9347180818,
				"z": 2.9842942855,
				"element": "H" 
			},
			{
				"x": -2.4559519489,
				"y": 0.0155733173,
				"z": 3.9251821003,
				"element": "H" 
			},
			{
				"x": -0.6152132537,
				"y": 3.1397662403,
				"z": 1.4830031427,
				"element": "H" 
			},
			{
				"x": 0.8686375424,
				"y": 4.5541394234,
				"z": 0.5574926631,
				"element": "H" 
			},
			{
				"x": 2.0165056998,
				"y": 4.0304341948,
				"z": -0.685068233,
				"element": "H" 
			},
			{
				"x": 0.2000220629,
				"y": 4.0290035432,
				"z": -2.4013266979,
				"element": "H" 
			},
			{
				"x": 0.331150977,
				"y": 5.6241389395,
				"z": -1.6393886793,
				"element": "H" 
			},
			{
				"x": -0.9835477526,
				"y": 4.5294907212,
				"z": -1.1725960604,
				"element": "H" 
			},
			{
				"x": 4.4173131983,
				"y": 0.8820148255,
				"z": -3.6008114149,
				"element": "H" 
			},
			{
				"x": 3.0456127431,
				"y": 1.0473240463,
				"z": -4.6954589316,
				"element": "H" 
			},
			{
				"x": 3.5590388156,
				"y": 2.4359800372,
				"z": -3.7101141353,
				"element": "H" 
			},
			{
				"x": 2.609188316,
				"y": -1.1848451557,
				"z": -3.0624927993,
				"element": "H" 
			},
			{
				"x": 1.0334095687,
				"y": -1.7989181103,
				"z": -1.1844540841,
				"element": "H" 
			}
		],
		 "valence_orbital": [ 
			{
				"type": "occ",
				"energy": -0.26393,
				"method": "rhf"
			},
			{
				"type": "occ",
				"energy": -0.25036,
				"method": "rhf"
			},
			{
				"type": "occ",
				"energy": -0.23805,
				"method": "rhf"
			},
			{
				"type": "occ",
				"energy": -0.23546,
				"method": "rhf"
			},
			{
				"type": "occ",
				"energy": -0.22198,
				"method": "rhf"
			},
			{
				"type": "unocc",
				"energy": -0.05859,
				"method": "rhf"
			},
			{
				"type": "unocc",
				"energy": -0.03843,
				"method": "rhf"
			},
			{
				"type": "unocc",
				"energy": -0.00335,
				"method": "rhf"
			},
			{
				"type": "unocc",
				"energy": 0.02952,
				"method": "rhf"
			},
			{
				"type": "unocc",
				"energy": 0.03355,
				"method": "rhf"
			}
		],
		"cosmo_sigma_profile": { 
			"-0.025": 0.0,
			"-0.024": 0.0,
			"-0.023": 0.0,
			"-0.022": 0.0,
			"-0.021": 0.0,
			"-0.02": 0.0,
			"-0.019": 0.0,
			"-0.018": 0.0,
			"-0.017": 0.0,
			"-0.016": 0.0,
			"-0.015": 0.0,
			"-0.014": 0.117289069874,
			"-0.013": 1.18807658188,
			"-0.012": 0.601683412688,
			"-0.011": 0.597159435181,
			"-0.01": 2.06607318751,
			"-0.009": 3.01183742081,
			"-0.008": 4.63109043227,
			"-0.007": 8.41567236701,
			"-0.006": 12.597664991,
			"-0.005": 24.1820785948,
			"-0.004": 36.4172326528,
			"-0.003": 37.8856667448,
			"-0.002": 37.6836956947,
			"-0.001": 36.1402515502,
			"0.0": 36.0441186999,
			"0.001": 22.6949147416,
			"0.002": 14.7174951652,
			"0.003": 9.1809587731,
			"0.004": 7.79713436132,
			"0.005": 6.64852764907,
			"0.006": 6.92263483816,
			"0.007": 6.9846887411,
			"0.008": 7.23736061612,
			"0.009": 5.71366970133,
			"0.01": 6.8119700964,
			"0.011": 6.88834257172,
			"0.012": 9.25371529824,
			"0.013": 5.13927490014,
			"0.014": 5.06645673351,
			"0.015": 0.684072797511,
			"0.016": 0.0,
			"0.017": 0.0,
			"0.018": 0.0,
			"0.019": 0.0,
			"0.02": 0.0,
			"0.021": 0.0,
			"0.022": 0.0,
			"0.023": 0.0,
			"0.024": 0.0,
			"0.025": 0.0
		}
	}
}
