{
	 "smiles": "CC1=CC=C(C)N1C1=CNN=C1", 
	 "Tm": 429.15, 
	 "num_atms": 23, 
	 "gaussian": { 
		 "optdone": 1, 
		 "sigma_profile": "yes", 
		 "theory": "DFT", 
		 "functional": "B3LYP", 
		 "basiset": "6-31G**", 
		 "properties": { 
			 "R2extent": 2351.7902, 
			 "electric_dipole_moment_norm": 2.78366227477, 
			 "electric_quadrupole_moment_norm": 12.542125658, 
			 "total_energy": -513.810718046, 
			 "HOMO_LUMO_gap": 0.19206, 
			 "cosmo_polarized_energy": -11.43, 
			 "cosmo_cavitation_energy": 26.87, 
			 "cosmo_dispersion_energy": -18.77, 
			 "cosmo_repulsion_energy": 1.52, 
			 "cosmo_total_nonelectrostatic_energy": 9.63, 
			 "SMD_solvation_energy": 4.22 
		},
		"coords": [
			{
				"x": -0.4505868031,
				"y": 1.3780740443,
				"z": 1.3275107733,
				"element": "C" 
			},
			{
				"x": -0.4766268831,
				"y": 0.6757650666,
				"z": 0.0084683294,
				"element": "C" 
			},
			{
				"x": -0.7670903401,
				"y": 1.1458572431,
				"z": -1.2516652656,
				"element": "C" 
			},
			{
				"x": -0.6433838527,
				"y": 0.06000949,
				"z": -2.1676658654,
				"element": "C" 
			},
			{
				"x": -0.278970105,
				"y": -1.059323773,
				"z": -1.4552145373,
				"element": "C" 
			},
			{
				"x": -0.0131241909,
				"y": -2.4583476994,
				"z": -1.9089059502,
				"element": "C" 
			},
			{
				"x": -0.1790847013,
				"y": -0.6812938476,
				"z": -0.1162426312,
				"element": "N" 
			},
			{
				"x": 0.1919301296,
				"y": -1.5352759805,
				"z": 0.9462381081,
				"element": "C" 
			},
			{
				"x": -0.6461189385,
				"y": -2.3050816664,
				"z": 1.737489346,
				"element": "C" 
			},
			{
				"x": 0.1621604303,
				"y": -2.9497043618,
				"z": 2.6139326883,
				"element": "N" 
			},
			{
				"x": 1.4722924165,
				"y": -2.6580076799,
				"z": 2.4550506368,
				"element": "N" 
			},
			{
				"x": 1.4946006996,
				"y": -1.7977070139,
				"z": 1.4410978694,
				"element": "C" 
			},
			{
				"x": 0.5366986371,
				"y": 1.3369355867,
				"z": 1.8040080704,
				"element": "H" 
			},
			{
				"x": -1.1671956792,
				"y": 0.9543939569,
				"z": 2.0423471662,
				"element": "H" 
			},
			{
				"x": -0.7076715093,
				"y": 2.4302559234,
				"z": 1.1824529833,
				"element": "H" 
			},
			{
				"x": -1.0393887788,
				"y": 2.1659452747,
				"z": -1.4870057384,
				"element": "H" 
			},
			{
				"x": -0.8028944851,
				"y": 0.0914080412,
				"z": -3.2370973862,
				"element": "H" 
			},
			{
				"x": -0.1415619406,
				"y": -2.5180151963,
				"z": -2.9924944479,
				"element": "H" 
			},
			{
				"x": 1.0064808563,
				"y": -2.787730693,
				"z": -1.6735933516,
				"element": "H" 
			},
			{
				"x": -0.6962186075,
				"y": -3.1847726411,
				"z": -1.4509465692,
				"element": "H" 
			},
			{
				"x": -1.7190412306,
				"y": -2.4273888209,
				"z": 1.7299740462,
				"element": "H" 
			},
			{
				"x": -0.1072803933,
				"y": -3.5956026694,
				"z": 3.3395552412,
				"element": "H" 
			},
			{
				"x": 2.4325752697,
				"y": -1.3886925838,
				"z": 1.0905064846,
				"element": "H" 
			}
		],
		 "valence_orbital": [ 
			{
				"type": "occ",
				"energy": -0.29893,
				"method": "rhf"
			},
			{
				"type": "occ",
				"energy": -0.26858,
				"method": "rhf"
			},
			{
				"type": "occ",
				"energy": -0.25574,
				"method": "rhf"
			},
			{
				"type": "occ",
				"energy": -0.22394,
				"method": "rhf"
			},
			{
				"type": "occ",
				"energy": -0.18517,
				"method": "rhf"
			},
			{
				"type": "unocc",
				"energy": 0.00689,
				"method": "rhf"
			},
			{
				"type": "unocc",
				"energy": 0.04552,
				"method": "rhf"
			},
			{
				"type": "unocc",
				"energy": 0.05541,
				"method": "rhf"
			},
			{
				"type": "unocc",
				"energy": 0.07005,
				"method": "rhf"
			},
			{
				"type": "unocc",
				"energy": 0.10154,
				"method": "rhf"
			}
		],
		"cosmo_sigma_profile": { 
			"-0.025": 0.0,
			"-0.024": 0.0,
			"-0.023": 0.0,
			"-0.022": 0.0,
			"-0.021": 0.0,
			"-0.02": 0.0,
			"-0.019": 0.0,
			"-0.018": 0.0,
			"-0.017": 0.899231843755,
			"-0.016": 2.02354073891,
			"-0.015": 1.00117342652,
			"-0.014": 1.07066227803,
			"-0.013": 1.0687818232,
			"-0.012": 1.16000394468,
			"-0.011": 1.40874594886,
			"-0.01": 1.3962052402,
			"-0.009": 3.45857351054,
			"-0.008": 2.32036659342,
			"-0.007": 4.30735746295,
			"-0.006": 3.25209280634,
			"-0.005": 4.81604869847,
			"-0.004": 12.7047996444,
			"-0.003": 17.1995544713,
			"-0.002": 20.1425362558,
			"-0.001": 23.8373266549,
			"0.0": 25.2674309794,
			"0.001": 16.4136679191,
			"0.002": 11.5302954477,
			"0.003": 11.2823623414,
			"0.004": 7.15218445787,
			"0.005": 6.60234183689,
			"0.006": 6.09890854462,
			"0.007": 5.99041171181,
			"0.008": 6.08561153861,
			"0.009": 5.82111632104,
			"0.01": 3.01964389827,
			"0.011": 0.997538138734,
			"0.012": 0.935956776815,
			"0.013": 1.27996068602,
			"0.014": 1.2917777998,
			"0.015": 1.03685220065,
			"0.016": 0.473257408978,
			"0.017": 0.0,
			"0.018": 0.0,
			"0.019": 0.0,
			"0.02": 0.0,
			"0.021": 0.0,
			"0.022": 0.0,
			"0.023": 0.0,
			"0.024": 0.0,
			"0.025": 0.0
		}
	}
}
