{
	 "smiles": "CC1=C(CCBr)C(C)=NN1", 
	 "Tm": 392.15, 
	 "num_atms": 21, 
	 "gaussian": { 
		 "optdone": 1, 
		 "sigma_profile": "yes", 
		 "theory": "DFT", 
		 "functional": "B3LYP", 
		 "basiset": "6-31G**", 
		 "properties": { 
			 "R2extent": 2719.7736, 
			 "electric_dipole_moment_norm": 3.95579615754, 
			 "electric_quadrupole_moment_norm": 9.00161356147, 
			 "total_energy": -2954.28268416, 
			 "HOMO_LUMO_gap": 0.2333, 
			 "cosmo_polarized_energy": -12.62, 
			 "cosmo_cavitation_energy": 26.06, 
			 "cosmo_dispersion_energy": -18.88, 
			 "cosmo_repulsion_energy": 1.55, 
			 "cosmo_total_nonelectrostatic_energy": 8.73, 
			 "SMD_solvation_energy": 2.35 
		},
		"coords": [
			{
				"x": 2.1585141463,
				"y": -1.2134294593,
				"z": -0.1904810492,
				"element": "C" 
			},
			{
				"x": 1.6912950372,
				"y": 0.2080306662,
				"z": -0.2059721119,
				"element": "C" 
			},
			{
				"x": 0.4938422976,
				"y": 0.7956724121,
				"z": 0.1825410001,
				"element": "C" 
			},
			{
				"x": -0.7043337084,
				"y": 0.1078442198,
				"z": 0.7708335886,
				"element": "C" 
			},
			{
				"x": -1.5741845214,
				"y": -0.6757520816,
				"z": -0.2137328021,
				"element": "C" 
			},
			{
				"x": -2.4908672227,
				"y": 0.4846629885,
				"z": -1.5353623676,
				"element": "Br" 
			},
			{
				"x": 0.6633500471,
				"y": 2.1851760047,
				"z": -0.0867541294,
				"element": "C" 
			},
			{
				"x": -0.3057099069,
				"y": 3.3033554206,
				"z": 0.1505313208,
				"element": "C" 
			},
			{
				"x": 1.8662306733,
				"y": 2.4376349125,
				"z": -0.6012610464,
				"element": "N" 
			},
			{
				"x": 2.4663630696,
				"y": 1.2264769337,
				"z": -0.6663642369,
				"element": "N" 
			},
			{
				"x": 1.9597339742,
				"y": -1.7257790008,
				"z": -1.1400277394,
				"element": "H" 
			},
			{
				"x": 3.2353236677,
				"y": -1.2783928832,
				"z": -0.0005355493,
				"element": "H" 
			},
			{
				"x": 1.6522933322,
				"y": -1.7769527459,
				"z": 0.5987666905,
				"element": "H" 
			},
			{
				"x": -1.3310780098,
				"y": 0.8331288162,
				"z": 1.2994867913,
				"element": "H" 
			},
			{
				"x": -0.3823354247,
				"y": -0.6237303342,
				"z": 1.5285054066,
				"element": "H" 
			},
			{
				"x": -0.9907945076,
				"y": -1.3748277838,
				"z": -0.8126009351,
				"element": "H" 
			},
			{
				"x": -2.3771036414,
				"y": -1.2101682417,
				"z": 0.2946226952,
				"element": "H" 
			},
			{
				"x": 0.1448072039,
				"y": 4.2487648095,
				"z": -0.1594337806,
				"element": "H" 
			},
			{
				"x": -0.5764108057,
				"y": 3.3850683423,
				"z": 1.2102164461,
				"element": "H" 
			},
			{
				"x": -1.2313947411,
				"y": 3.1525612943,
				"z": -0.4138675868,
				"element": "H" 
			},
			{
				"x": 3.4059590406,
				"y": 1.1657557101,
				"z": -1.0263106044,
				"element": "H" 
			}
		],
		 "valence_orbital": [ 
			{
				"type": "occ",
				"energy": -0.27518,
				"method": "rhf"
			},
			{
				"type": "occ",
				"energy": -0.26934,
				"method": "rhf"
			},
			{
				"type": "occ",
				"energy": -0.26628,
				"method": "rhf"
			},
			{
				"type": "occ",
				"energy": -0.23424,
				"method": "rhf"
			},
			{
				"type": "occ",
				"energy": -0.22704,
				"method": "rhf"
			},
			{
				"type": "unocc",
				"energy": 0.00626,
				"method": "rhf"
			},
			{
				"type": "unocc",
				"energy": 0.0266,
				"method": "rhf"
			},
			{
				"type": "unocc",
				"energy": 0.06458,
				"method": "rhf"
			},
			{
				"type": "unocc",
				"energy": 0.07594,
				"method": "rhf"
			},
			{
				"type": "unocc",
				"energy": 0.09345,
				"method": "rhf"
			}
		],
		"cosmo_sigma_profile": { 
			"-0.025": 0.0,
			"-0.024": 0.0,
			"-0.023": 0.0,
			"-0.022": 0.0,
			"-0.021": 0.0,
			"-0.02": 0.0,
			"-0.019": 0.0,
			"-0.018": 0.0,
			"-0.017": 0.0,
			"-0.016": 0.442621983529,
			"-0.015": 1.34407514193,
			"-0.014": 1.38497122116,
			"-0.013": 1.04728104127,
			"-0.012": 0.709968873757,
			"-0.011": 0.558802196532,
			"-0.01": 1.48595310462,
			"-0.009": 1.43848986647,
			"-0.008": 1.1594888705,
			"-0.007": 2.06254475868,
			"-0.006": 7.42059568002,
			"-0.005": 16.0106664776,
			"-0.004": 19.1721232912,
			"-0.003": 19.3976163292,
			"-0.002": 17.3133650337,
			"-0.001": 17.1743776876,
			"0.0": 15.732953262,
			"0.001": 13.2567542784,
			"0.002": 8.62147054639,
			"0.003": 8.66229003445,
			"0.004": 8.83877536656,
			"0.005": 9.64512125652,
			"0.006": 13.0433543571,
			"0.007": 8.86043975234,
			"0.008": 2.19046301371,
			"0.009": 1.86080282077,
			"0.01": 1.22341446973,
			"0.011": 1.21686055483,
			"0.012": 1.35687824019,
			"0.013": 1.34035783887,
			"0.014": 1.03338673502,
			"0.015": 0.717407652693,
			"0.016": 1.25158944994,
			"0.017": 0.765677728186,
			"0.018": 0.139056507669,
			"0.019": 0.0,
			"0.02": 0.0,
			"0.021": 0.0,
			"0.022": 0.0,
			"0.023": 0.0,
			"0.024": 0.0,
			"0.025": 0.0
		}
	}
}
