{
	 "smiles": "CC(O)C1=CC=C(OC2=CC=C(Br)C=C2)C=C1", 
	 "Tm": 341.15, 
	 "num_atms": 30, 
	 "gaussian": { 
		 "optdone": 1, 
		 "sigma_profile": "yes", 
		 "theory": "DFT", 
		 "functional": "B3LYP", 
		 "basiset": "6-31G**", 
		 "properties": { 
			 "R2extent": 10320.5841, 
			 "electric_dipole_moment_norm": 3.43968435325, 
			 "electric_quadrupole_moment_norm": 16.961088606, 
			 "total_energy": -3263.16453122, 
			 "HOMO_LUMO_gap": 0.19866, 
			 "cosmo_polarized_energy": -10.58, 
			 "cosmo_cavitation_energy": 36.57, 
			 "cosmo_dispersion_energy": -26.55, 
			 "cosmo_repulsion_energy": 2.08, 
			 "cosmo_total_nonelectrostatic_energy": 12.1, 
			 "SMD_solvation_energy": 5.25 
		},
		"coords": [
			{
				"x": 4.0877826521,
				"y": -1.2670396698,
				"z": -2.2663367089,
				"element": "C" 
			},
			{
				"x": 3.0055322372,
				"y": -2.3414966489,
				"z": -2.0829506091,
				"element": "C" 
			},
			{
				"x": 3.576174081,
				"y": -3.5601747724,
				"z": -1.6124642734,
				"element": "O" 
			},
			{
				"x": 1.9449439434,
				"y": -1.9037046537,
				"z": -1.0893207949,
				"element": "C" 
			},
			{
				"x": 0.905417307,
				"y": -1.0591443717,
				"z": -1.4987351282,
				"element": "C" 
			},
			{
				"x": -0.056705862,
				"y": -0.6075475939,
				"z": -0.5975576422,
				"element": "C" 
			},
			{
				"x": 0.023591923,
				"y": -1.0047905068,
				"z": 0.7399699005,
				"element": "C" 
			},
			{
				"x": -0.9485102566,
				"y": -0.6610900244,
				"z": 1.6665481243,
				"element": "O" 
			},
			{
				"x": -1.3458674862,
				"y": 0.6476651791,
				"z": 1.8145223715,
				"element": "C" 
			},
			{
				"x": -0.5121406255,
				"y": 1.7411085511,
				"z": 1.5584363527,
				"element": "C" 
			},
			{
				"x": -0.9778625939,
				"y": 3.0350103284,
				"z": 1.7935872835,
				"element": "C" 
			},
			{
				"x": -2.2660073446,
				"y": 3.2277262274,
				"z": 2.2883311509,
				"element": "C" 
			},
			{
				"x": -2.899804444,
				"y": 5.0039912678,
				"z": 2.6073347442,
				"element": "Br" 
			},
			{
				"x": -3.0986048391,
				"y": 2.1408423372,
				"z": 2.5539248464,
				"element": "C" 
			},
			{
				"x": -2.6366816713,
				"y": 0.8491977238,
				"z": 2.3131168744,
				"element": "C" 
			},
			{
				"x": 1.0449376326,
				"y": -1.8526228193,
				"z": 1.1657175375,
				"element": "C" 
			},
			{
				"x": 1.9982929748,
				"y": -2.3003430804,
				"z": 0.2511116012,
				"element": "C" 
			},
			{
				"x": 3.6555885764,
				"y": -0.326125731,
				"z": -2.620234877,
				"element": "H" 
			},
			{
				"x": 4.5948505075,
				"y": -1.0795024458,
				"z": -1.3150517708,
				"element": "H" 
			},
			{
				"x": 4.8344334009,
				"y": -1.5895125581,
				"z": -3.0031432788,
				"element": "H" 
			},
			{
				"x": 2.5130277262,
				"y": -2.508126354,
				"z": -3.0559185059,
				"element": "H" 
			},
			{
				"x": 4.3257064765,
				"y": -3.7730191199,
				"z": -2.1823544637,
				"element": "H" 
			},
			{
				"x": 0.8345682348,
				"y": -0.758431691,
				"z": -2.5416746558,
				"element": "H" 
			},
			{
				"x": -0.867786049,
				"y": 0.0338563915,
				"z": -0.9260406305,
				"element": "H" 
			},
			{
				"x": 0.4925140916,
				"y": 1.5856111776,
				"z": 1.1821836319,
				"element": "H" 
			},
			{
				"x": -0.336269869,
				"y": 3.8868280012,
				"z": 1.5982701236,
				"element": "H" 
			},
			{
				"x": -4.0989381919,
				"y": 2.3005439632,
				"z": 2.9398393756,
				"element": "H" 
			},
			{
				"x": -3.2640051403,
				"y": -0.0137972108,
				"z": 2.5094584536,
				"element": "H" 
			},
			{
				"x": 1.0747042975,
				"y": -2.1588943725,
				"z": 2.206320503,
				"element": "H" 
			},
			{
				"x": 2.7877183107,
				"y": -2.9710175238,
				"z": 0.5705104646,
				"element": "H" 
			}
		],
		 "valence_orbital": [ 
			{
				"type": "occ",
				"energy": -0.27724,
				"method": "rhf"
			},
			{
				"type": "occ",
				"energy": -0.26527,
				"method": "rhf"
			},
			{
				"type": "occ",
				"energy": -0.25537,
				"method": "rhf"
			},
			{
				"type": "occ",
				"energy": -0.24219,
				"method": "rhf"
			},
			{
				"type": "occ",
				"energy": -0.21674,
				"method": "rhf"
			},
			{
				"type": "unocc",
				"energy": -0.01808,
				"method": "rhf"
			},
			{
				"type": "unocc",
				"energy": -0.01129,
				"method": "rhf"
			},
			{
				"type": "unocc",
				"energy": -0.00363,
				"method": "rhf"
			},
			{
				"type": "unocc",
				"energy": 0.00474,
				"method": "rhf"
			},
			{
				"type": "unocc",
				"energy": 0.01149,
				"method": "rhf"
			}
		],
		"cosmo_sigma_profile": { 
			"-0.025": 0.0,
			"-0.024": 0.0,
			"-0.023": 0.0,
			"-0.022": 0.0,
			"-0.021": 0.0,
			"-0.02": 0.0,
			"-0.019": 0.0,
			"-0.018": 0.0,
			"-0.017": 0.0,
			"-0.016": 0.100540443155,
			"-0.015": 0.961751202701,
			"-0.014": 1.09239186331,
			"-0.013": 0.949977442596,
			"-0.012": 0.556669304455,
			"-0.011": 0.922436082674,
			"-0.01": 1.20560604606,
			"-0.009": 1.09968255982,
			"-0.008": 1.56170042545,
			"-0.007": 6.38272559269,
			"-0.006": 13.0384834317,
			"-0.005": 16.5581605158,
			"-0.004": 22.4072702539,
			"-0.003": 21.0012339707,
			"-0.002": 19.8017455339,
			"-0.001": 22.5534086016,
			"0.0": 23.1309968853,
			"0.001": 22.7474812671,
			"0.002": 25.812244723,
			"0.003": 32.2404678178,
			"0.004": 24.0657880138,
			"0.005": 18.6762522808,
			"0.006": 3.73859945298,
			"0.007": 3.19605286941,
			"0.008": 2.6571311795,
			"0.009": 2.43385164672,
			"0.01": 1.41122863269,
			"0.011": 0.987577818129,
			"0.012": 1.47746206165,
			"0.013": 0.902399121749,
			"0.014": 0.597964692707,
			"0.015": 0.0955892170937,
			"0.016": 0.0,
			"0.017": 0.0,
			"0.018": 0.0,
			"0.019": 0.0,
			"0.02": 0.0,
			"0.021": 0.0,
			"0.022": 0.0,
			"0.023": 0.0,
			"0.024": 0.0,
			"0.025": 0.0
		}
	}
}
