{
	 "smiles": "NC1=C(OCC2=CC=CC=C2)C=C(C(Cl)=C1)[N+]([O-])=O", 
	 "Tm": 409.15, 
	 "num_atms": 30, 
	 "gaussian": { 
		 "optdone": 1, 
		 "sigma_profile": "yes", 
		 "theory": "DFT", 
		 "functional": "B3LYP", 
		 "basiset": "6-31G**", 
		 "properties": { 
			 "R2extent": 7077.4867, 
			 "electric_dipole_moment_norm": 6.92327469194, 
			 "electric_quadrupole_moment_norm": 28.7014578797, 
			 "total_energy": -1297.26302346, 
			 "HOMO_LUMO_gap": 0.15754, 
			 "cosmo_polarized_energy": -17.7, 
			 "cosmo_cavitation_energy": 37.02, 
			 "cosmo_dispersion_energy": -25.52, 
			 "cosmo_repulsion_energy": 1.99, 
			 "cosmo_total_nonelectrostatic_energy": 13.49, 
			 "SMD_solvation_energy": 8.13 
		},
		"coords": [
			{
				"x": 2.7299199093,
				"y": -1.2688724296,
				"z": 2.9104118276,
				"element": "N" 
			},
			{
				"x": 1.8481885825,
				"y": -0.2167824797,
				"z": 2.8111959653,
				"element": "C" 
			},
			{
				"x": 0.6509458227,
				"y": -0.3894708984,
				"z": 2.0734126749,
				"element": "C" 
			},
			{
				"x": 0.3960868976,
				"y": -1.6444592171,
				"z": 1.5580401241,
				"element": "O" 
			},
			{
				"x": 0.8061756319,
				"y": -1.8462836759,
				"z": 0.1786952259,
				"element": "C" 
			},
			{
				"x": -0.1208428971,
				"y": -1.2019369331,
				"z": -0.8230412678,
				"element": "C" 
			},
			{
				"x": 0.3497158678,
				"y": -0.2350517002,
				"z": -1.7171359426,
				"element": "C" 
			},
			{
				"x": -0.5106004275,
				"y": 0.3490779104,
				"z": -2.6500366056,
				"element": "C" 
			},
			{
				"x": -1.8536397212,
				"y": -0.0238943345,
				"z": -2.6882086689,
				"element": "C" 
			},
			{
				"x": -2.3346120306,
				"y": -0.9854479219,
				"z": -1.7940308061,
				"element": "C" 
			},
			{
				"x": -1.4728377503,
				"y": -1.5728894595,
				"z": -0.8703118237,
				"element": "C" 
			},
			{
				"x": -0.2424797356,
				"y": 0.6555321128,
				"z": 1.9458081746,
				"element": "C" 
			},
			{
				"x": 0.0118149611,
				"y": 1.9028965726,
				"z": 2.536539854,
				"element": "C" 
			},
			{
				"x": 1.2061565446,
				"y": 2.0942588376,
				"z": 3.2555207948,
				"element": "C" 
			},
			{
				"x": 1.6915004766,
				"y": 3.6057158748,
				"z": 3.981597811,
				"element": "Cl" 
			},
			{
				"x": 2.106036195,
				"y": 1.037985382,
				"z": 3.3817894157,
				"element": "C" 
			},
			{
				"x": -1.0226320738,
				"y": 2.9234772881,
				"z": 2.3647494244,
				"element": "N" 
			},
			{
				"x": -1.8546684688,
				"y": 2.7326009328,
				"z": 1.4723939299,
				"element": "O" 
			},
			{
				"x": -1.0261709942,
				"y": 3.8960476126,
				"z": 3.1164640149,
				"element": "O" 
			},
			{
				"x": 2.3184193556,
				"y": -2.1773466441,
				"z": 2.7450206482,
				"element": "H" 
			},
			{
				"x": 3.4073612733,
				"y": -1.2365294926,
				"z": 3.6575791021,
				"element": "H" 
			},
			{
				"x": 1.8334975661,
				"y": -1.4871615476,
				"z": 0.0444056054,
				"element": "H" 
			},
			{
				"x": 0.8045871218,
				"y": -2.9347881717,
				"z": 0.0651260879,
				"element": "H" 
			},
			{
				"x": 1.3944510434,
				"y": 0.0641275092,
				"z": -1.6829075159,
				"element": "H" 
			},
			{
				"x": -0.133028679,
				"y": 1.0999818849,
				"z": -3.3378148074,
				"element": "H" 
			},
			{
				"x": -2.525961806,
				"y": 0.4337861382,
				"z": -3.4079022545,
				"element": "H" 
			},
			{
				"x": -3.3806561065,
				"y": -1.2767262281,
				"z": -1.8198732624,
				"element": "H" 
			},
			{
				"x": -1.8466941264,
				"y": -2.3174089266,
				"z": -0.172283403,
				"element": "H" 
			},
			{
				"x": -1.1623009734,
				"y": 0.5230565574,
				"z": 1.3926855577,
				"element": "H" 
			},
			{
				"x": 3.0263685413,
				"y": 1.200905447,
				"z": 3.9321101198,
				"element": "H" 
			}
		],
		 "valence_orbital": [ 
			{
				"type": "occ",
				"energy": -0.27055,
				"method": "rhf"
			},
			{
				"type": "occ",
				"energy": -0.25892,
				"method": "rhf"
			},
			{
				"type": "occ",
				"energy": -0.25677,
				"method": "rhf"
			},
			{
				"type": "occ",
				"energy": -0.25456,
				"method": "rhf"
			},
			{
				"type": "occ",
				"energy": -0.23062,
				"method": "rhf"
			},
			{
				"type": "unocc",
				"energy": -0.07308,
				"method": "rhf"
			},
			{
				"type": "unocc",
				"energy": -0.02711,
				"method": "rhf"
			},
			{
				"type": "unocc",
				"energy": -0.01476,
				"method": "rhf"
			},
			{
				"type": "unocc",
				"energy": -0.00832,
				"method": "rhf"
			},
			{
				"type": "unocc",
				"energy": 0.01171,
				"method": "rhf"
			}
		],
		"cosmo_sigma_profile": { 
			"-0.025": 0.0,
			"-0.024": 0.0,
			"-0.023": 0.0,
			"-0.022": 0.0,
			"-0.021": 0.0,
			"-0.02": 0.0,
			"-0.019": 0.0,
			"-0.018": 0.0,
			"-0.017": 0.0,
			"-0.016": 0.0,
			"-0.015": 0.133615316455,
			"-0.014": 1.57840363483,
			"-0.013": 2.26878368616,
			"-0.012": 2.60637520626,
			"-0.011": 2.60840433511,
			"-0.01": 2.53778307247,
			"-0.009": 3.46292922458,
			"-0.008": 2.29085912581,
			"-0.007": 3.24473136416,
			"-0.006": 13.5538858117,
			"-0.005": 19.9850653466,
			"-0.004": 22.2978979262,
			"-0.003": 21.330075285,
			"-0.002": 18.9711752408,
			"-0.001": 18.3798698472,
			"0.0": 25.1690547558,
			"0.001": 25.9175925871,
			"0.002": 19.84791933,
			"0.003": 18.8887531853,
			"0.004": 18.9886029952,
			"0.005": 12.4539854387,
			"0.006": 6.99020692083,
			"0.007": 6.52842793865,
			"0.008": 10.5677918224,
			"0.009": 9.65877415314,
			"0.01": 5.61780289808,
			"0.011": 2.11440367203,
			"0.012": 0.0,
			"0.013": 0.0,
			"0.014": 0.0,
			"0.015": 0.0,
			"0.016": 0.0,
			"0.017": 0.0,
			"0.018": 0.0,
			"0.019": 0.0,
			"0.02": 0.0,
			"0.021": 0.0,
			"0.022": 0.0,
			"0.023": 0.0,
			"0.024": 0.0,
			"0.025": 0.0
		}
	}
}
