{
	 "smiles": "CC(C)C1=CC=C(C=C1)C(C)(C)OO", 
	 "Tm": 306.65, 
	 "num_atms": 32, 
	 "gaussian": { 
		 "optdone": 1, 
		 "sigma_profile": "yes", 
		 "theory": "DFT", 
		 "functional": "B3LYP", 
		 "basiset": "6-31G**", 
		 "properties": { 
			 "R2extent": 3873.1811, 
			 "electric_dipole_moment_norm": 2.69481028646, 
			 "electric_quadrupole_moment_norm": 12.213264659, 
			 "total_energy": -618.498102805, 
			 "HOMO_LUMO_gap": 0.22942, 
			 "cosmo_polarized_energy": -8.27, 
			 "cosmo_cavitation_energy": 33.29, 
			 "cosmo_dispersion_energy": -23.16, 
			 "cosmo_repulsion_energy": 1.84, 
			 "cosmo_total_nonelectrostatic_energy": 11.97, 
			 "SMD_solvation_energy": 5.53 
		},
		"coords": [
			{
				"x": 1.2831156059,
				"y": 2.8584365832,
				"z": 2.8686056467,
				"element": "C" 
			},
			{
				"x": 0.2947060701,
				"y": 1.6782054557,
				"z": 2.8122403629,
				"element": "C" 
			},
			{
				"x": 0.6620865995,
				"y": 0.5991239839,
				"z": 3.8484587419,
				"element": "C" 
			},
			{
				"x": 0.1812464238,
				"y": 1.099628465,
				"z": 1.4082722886,
				"element": "C" 
			},
			{
				"x": -1.033963922,
				"y": 1.1324539906,
				"z": 0.7129228768,
				"element": "C" 
			},
			{
				"x": -1.1492936975,
				"y": 0.6024158651,
				"z": -0.5720759653,
				"element": "C" 
			},
			{
				"x": -0.0468879216,
				"y": 0.0237343586,
				"z": -1.2185298912,
				"element": "C" 
			},
			{
				"x": 1.1707763255,
				"y": -0.0063371062,
				"z": -0.5274554827,
				"element": "C" 
			},
			{
				"x": 1.2796059866,
				"y": 0.517264984,
				"z": 0.7611329782,
				"element": "C" 
			},
			{
				"x": -0.2277581135,
				"y": -0.5660797228,
				"z": -2.6225453902,
				"element": "C" 
			},
			{
				"x": 1.0759612439,
				"y": -0.7151421145,
				"z": -3.4125256187,
				"element": "C" 
			},
			{
				"x": -0.976975555,
				"y": -1.9074788005,
				"z": -2.5483474429,
				"element": "C" 
			},
			{
				"x": -1.1570661826,
				"y": 0.2560374881,
				"z": -3.3693857674,
				"element": "O" 
			},
			{
				"x": -0.5707140286,
				"y": 1.5675935124,
				"z": -3.5790040563,
				"element": "O" 
			},
			{
				"x": 2.3015033764,
				"y": 2.5361178749,
				"z": 2.6251178025,
				"element": "H" 
			},
			{
				"x": 1.0040373922,
				"y": 3.6440047594,
				"z": 2.1595333245,
				"element": "H" 
			},
			{
				"x": 1.3050270539,
				"y": 3.2967524524,
				"z": 3.8723392555,
				"element": "H" 
			},
			{
				"x": -0.6969883784,
				"y": 2.0666354777,
				"z": 3.0794665936,
				"element": "H" 
			},
			{
				"x": -0.0591149274,
				"y": -0.2239316269,
				"z": 3.8366704885,
				"element": "H" 
			},
			{
				"x": 1.6530780336,
				"y": 0.1770300924,
				"z": 3.6482643353,
				"element": "H" 
			},
			{
				"x": 0.6800385396,
				"y": 1.0231864037,
				"z": 4.8583806499,
				"element": "H" 
			},
			{
				"x": -1.9063547032,
				"y": 1.5779918898,
				"z": 1.1857969116,
				"element": "H" 
			},
			{
				"x": -2.106119394,
				"y": 0.6353216955,
				"z": -1.0862410719,
				"element": "H" 
			},
			{
				"x": 2.0507683446,
				"y": -0.4392488765,
				"z": -0.9915990758,
				"element": "H" 
			},
			{
				"x": 2.2420573701,
				"y": 0.4735714832,
				"z": 1.2645131977,
				"element": "H" 
			},
			{
				"x": 1.7383587635,
				"y": -1.4545604836,
				"z": -2.9533860334,
				"element": "H" 
			},
			{
				"x": 0.8380992658,
				"y": -1.0532768214,
				"z": -4.4244876261,
				"element": "H" 
			},
			{
				"x": 1.6004172297,
				"y": 0.2392218494,
				"z": -3.482513992,
				"element": "H" 
			},
			{
				"x": -0.3811885139,
				"y": -2.6327744735,
				"z": -1.9874961551,
				"element": "H" 
			},
			{
				"x": -1.9388670977,
				"y": -1.7887043494,
				"z": -2.0432197041,
				"element": "H" 
			},
			{
				"x": -1.1541890702,
				"y": -2.2974493727,
				"z": -3.5549229437,
				"element": "H" 
			},
			{
				"x": -0.8152021189,
				"y": 2.012155083,
				"z": -2.7480792372,
				"element": "H" 
			}
		],
		 "valence_orbital": [ 
			{
				"type": "occ",
				"energy": -0.32116,
				"method": "rhf"
			},
			{
				"type": "occ",
				"energy": -0.28029,
				"method": "rhf"
			},
			{
				"type": "occ",
				"energy": -0.26578,
				"method": "rhf"
			},
			{
				"type": "occ",
				"energy": -0.25277,
				"method": "rhf"
			},
			{
				"type": "occ",
				"energy": -0.23926,
				"method": "rhf"
			},
			{
				"type": "unocc",
				"energy": -0.00984,
				"method": "rhf"
			},
			{
				"type": "unocc",
				"energy": -0.00376,
				"method": "rhf"
			},
			{
				"type": "unocc",
				"energy": 0.03703,
				"method": "rhf"
			},
			{
				"type": "unocc",
				"energy": 0.08437,
				"method": "rhf"
			},
			{
				"type": "unocc",
				"energy": 0.09519,
				"method": "rhf"
			}
		],
		"cosmo_sigma_profile": { 
			"-0.025": 0.0,
			"-0.024": 0.0,
			"-0.023": 0.0,
			"-0.022": 0.0,
			"-0.021": 0.0,
			"-0.02": 0.0,
			"-0.019": 0.0,
			"-0.018": 0.0,
			"-0.017": 0.0,
			"-0.016": 0.0,
			"-0.015": 0.223995609315,
			"-0.014": 0.380372739951,
			"-0.013": 0.846530798994,
			"-0.012": 0.418245001365,
			"-0.011": 1.11330573451,
			"-0.01": 0.813674661273,
			"-0.009": 0.603393764208,
			"-0.008": 0.969462981701,
			"-0.007": 0.88065159019,
			"-0.006": 1.63860196461,
			"-0.005": 10.073918582,
			"-0.004": 21.1395500442,
			"-0.003": 29.0533440961,
			"-0.002": 31.6697373827,
			"-0.001": 29.9988362538,
			"0.0": 32.9970643877,
			"0.001": 28.393472192,
			"0.002": 14.6503422548,
			"0.003": 10.2252921465,
			"0.004": 9.3595098084,
			"0.005": 8.41860585993,
			"0.006": 7.05447824363,
			"0.007": 2.55104578383,
			"0.008": 2.28416879161,
			"0.009": 2.71263005179,
			"0.01": 3.37253530759,
			"0.011": 4.66887803778,
			"0.012": 2.49232926441,
			"0.013": 0.165291399965,
			"0.014": 0.0,
			"0.015": 0.0,
			"0.016": 0.0,
			"0.017": 0.0,
			"0.018": 0.0,
			"0.019": 0.0,
			"0.02": 0.0,
			"0.021": 0.0,
			"0.022": 0.0,
			"0.023": 0.0,
			"0.024": 0.0,
			"0.025": 0.0
		}
	}
}
