{
	 "smiles": "OC(=O)CNC(=O)NC1CCCCC1", 
	 "Tm": 436.15, 
	 "num_atms": 30, 
	 "gaussian": { 
		 "optdone": 1, 
		 "sigma_profile": "yes", 
		 "theory": "DFT", 
		 "functional": "B3LYP", 
		 "basiset": "6-31G**", 
		 "properties": { 
			 "R2extent": 4834.1258, 
			 "electric_dipole_moment_norm": 6.59835024078, 
			 "electric_quadrupole_moment_norm": 25.3819881784, 
			 "total_energy": -687.80298184, 
			 "HOMO_LUMO_gap": 0.23136, 
			 "cosmo_polarized_energy": -22.36, 
			 "cosmo_cavitation_energy": 31.57, 
			 "cosmo_dispersion_energy": -22.64, 
			 "cosmo_repulsion_energy": 1.82, 
			 "cosmo_total_nonelectrostatic_energy": 10.75, 
			 "SMD_solvation_energy": 4.94 
		},
		"coords": [
			{
				"x": 2.2269311356,
				"y": -4.0119452312,
				"z": 3.967002311,
				"element": "O" 
			},
			{
				"x": 1.8881515569,
				"y": -2.7030990961,
				"z": 3.9000356154,
				"element": "C" 
			},
			{
				"x": 2.0631374309,
				"y": -1.9693255156,
				"z": 4.8390986114,
				"element": "O" 
			},
			{
				"x": 1.252380298,
				"y": -2.259204991,
				"z": 2.5811105637,
				"element": "C" 
			},
			{
				"x": 0.9583135211,
				"y": -0.8434269122,
				"z": 2.6211740336,
				"element": "N" 
			},
			{
				"x": 1.3062387364,
				"y": 0.037823518,
				"z": 1.6050066809,
				"element": "C" 
			},
			{
				"x": 1.6681506022,
				"y": 1.183059707,
				"z": 1.8397201841,
				"element": "O" 
			},
			{
				"x": 1.239760187,
				"y": -0.4755411335,
				"z": 0.3055279645,
				"element": "N" 
			},
			{
				"x": 0.0301303236,
				"y": -1.1564042633,
				"z": -0.2081602375,
				"element": "C" 
			},
			{
				"x": -1.164499759,
				"y": -0.1820134262,
				"z": -0.4568978196,
				"element": "C" 
			},
			{
				"x": -1.3386834721,
				"y": 0.2085105818,
				"z": -1.9409341759,
				"element": "C" 
			},
			{
				"x": 0.015952283,
				"y": 0.3586885514,
				"z": -2.6466904926,
				"element": "C" 
			},
			{
				"x": 0.80387094,
				"y": -0.9776433511,
				"z": -2.6473014773,
				"element": "C" 
			},
			{
				"x": 0.3784294469,
				"y": -1.9178114307,
				"z": -1.4954333656,
				"element": "C" 
			},
			{
				"x": 2.033237685,
				"y": -4.4606095326,
				"z": 3.1309425797,
				"element": "H" 
			},
			{
				"x": 1.9339233965,
				"y": -2.4909498563,
				"z": 1.7518060481,
				"element": "H" 
			},
			{
				"x": 0.3502042194,
				"y": -2.8758173,
				"z": 2.4342115964,
				"element": "H" 
			},
			{
				"x": 1.1353597798,
				"y": -0.4377705239,
				"z": 3.5356737611,
				"element": "H" 
			},
			{
				"x": 1.5659161444,
				"y": 0.2550135116,
				"z": -0.3178880578,
				"element": "H" 
			},
			{
				"x": -0.2699439276,
				"y": -1.8781720863,
				"z": 0.5539850363,
				"element": "H" 
			},
			{
				"x": -1.0086305361,
				"y": 0.7166758167,
				"z": 0.1501172432,
				"element": "H" 
			},
			{
				"x": -2.0897701508,
				"y": -0.6426282178,
				"z": -0.0914578618,
				"element": "H" 
			},
			{
				"x": -1.9145562236,
				"y": 1.1375721329,
				"z": -2.0127438429,
				"element": "H" 
			},
			{
				"x": -1.9292558189,
				"y": -0.5566449677,
				"z": -2.4618808103,
				"element": "H" 
			},
			{
				"x": 0.5932801086,
				"y": 1.1419956735,
				"z": -2.1367471608,
				"element": "H" 
			},
			{
				"x": -0.1220745321,
				"y": 0.7147904564,
				"z": -3.6731478883,
				"element": "H" 
			},
			{
				"x": 0.6511817957,
				"y": -1.5012637158,
				"z": -3.5975687491,
				"element": "H" 
			},
			{
				"x": 1.8791276771,
				"y": -0.7755442506,
				"z": -2.586227463,
				"element": "H" 
			},
			{
				"x": 1.1664285274,
				"y": -2.6517389225,
				"z": -1.295238423,
				"element": "H" 
			},
			{
				"x": -0.5121913751,
				"y": -2.4835752248,
				"z": -1.7949944039,
				"element": "H" 
			}
		],
		 "valence_orbital": [ 
			{
				"type": "occ",
				"energy": -0.31111,
				"method": "rhf"
			},
			{
				"type": "occ",
				"energy": -0.29472,
				"method": "rhf"
			},
			{
				"type": "occ",
				"energy": -0.27,
				"method": "rhf"
			},
			{
				"type": "occ",
				"energy": -0.2587,
				"method": "rhf"
			},
			{
				"type": "occ",
				"energy": -0.23769,
				"method": "rhf"
			},
			{
				"type": "unocc",
				"energy": -0.00633,
				"method": "rhf"
			},
			{
				"type": "unocc",
				"energy": 0.03402,
				"method": "rhf"
			},
			{
				"type": "unocc",
				"energy": 0.04081,
				"method": "rhf"
			},
			{
				"type": "unocc",
				"energy": 0.05824,
				"method": "rhf"
			},
			{
				"type": "unocc",
				"energy": 0.07966,
				"method": "rhf"
			}
		],
		"cosmo_sigma_profile": { 
			"-0.025": 0.0,
			"-0.024": 0.0,
			"-0.023": 0.0,
			"-0.022": 0.0,
			"-0.021": 0.0,
			"-0.02": 0.645902050131,
			"-0.019": 1.30630560725,
			"-0.018": 1.39776726062,
			"-0.017": 1.5262171117,
			"-0.016": 0.69437680824,
			"-0.015": 0.814851473183,
			"-0.014": 1.53112098225,
			"-0.013": 1.26353344218,
			"-0.012": 1.14008263003,
			"-0.011": 1.47306174915,
			"-0.01": 2.1305586708,
			"-0.009": 3.52794502106,
			"-0.008": 4.99978921403,
			"-0.007": 6.12802450279,
			"-0.006": 5.66287287197,
			"-0.005": 7.6129028996,
			"-0.004": 7.03355648886,
			"-0.003": 19.5109095673,
			"-0.002": 31.2123125609,
			"-0.001": 29.9155756724,
			"0.0": 27.2708199962,
			"0.001": 20.9822621766,
			"0.002": 6.71037724872,
			"0.003": 5.6021763068,
			"0.004": 4.46222843657,
			"0.005": 4.07213134623,
			"0.006": 5.09270977054,
			"0.007": 4.30658544734,
			"0.008": 5.36979675069,
			"0.009": 5.55619477415,
			"0.01": 6.55674758309,
			"0.011": 5.09209668198,
			"0.012": 3.61559834839,
			"0.013": 2.47414916847,
			"0.014": 6.66370833423,
			"0.015": 1.84547069356,
			"0.016": 0.0,
			"0.017": 0.0,
			"0.018": 0.0,
			"0.019": 0.0,
			"0.02": 0.0,
			"0.021": 0.0,
			"0.022": 0.0,
			"0.023": 0.0,
			"0.024": 0.0,
			"0.025": 0.0
		}
	}
}
