{
	 "smiles": "CC(C)C(OC(=O)C1=CC=CN=C1)C1=CC=C(Cl)C=C1", 
	 "Tm": 334.15, 
	 "num_atms": 36, 
	 "gaussian": { 
		 "optdone": 1, 
		 "sigma_profile": "yes", 
		 "theory": "DFT", 
		 "functional": "B3LYP", 
		 "basiset": "6-31G**", 
		 "properties": { 
			 "R2extent": 7871.6126, 
			 "electric_dipole_moment_norm": 1.76945809784, 
			 "electric_quadrupole_moment_norm": 14.7327515624, 
			 "total_energy": -1284.75970858, 
			 "HOMO_LUMO_gap": 0.18606, 
			 "cosmo_polarized_energy": -10.85, 
			 "cosmo_cavitation_energy": 41.71, 
			 "cosmo_dispersion_energy": -28.33, 
			 "cosmo_repulsion_energy": 2.18, 
			 "cosmo_total_nonelectrostatic_energy": 15.57, 
			 "SMD_solvation_energy": 6.14 
		},
		"coords": [
			{
				"x": 1.1319069951,
				"y": -1.6049598043,
				"z": -2.3675561745,
				"element": "C" 
			},
			{
				"x": 0.1257413043,
				"y": -0.4637550408,
				"z": -2.5656329574,
				"element": "C" 
			},
			{
				"x": 0.631700073,
				"y": 0.5534009154,
				"z": -3.5985224729,
				"element": "C" 
			},
			{
				"x": -0.2855924037,
				"y": 0.2414565346,
				"z": -1.2505925226,
				"element": "C" 
			},
			{
				"x": -0.9482473471,
				"y": -0.7683068839,
				"z": -0.4395347873,
				"element": "O" 
			},
			{
				"x": -1.9683879502,
				"y": -0.3499736432,
				"z": 0.3473740436,
				"element": "C" 
			},
			{
				"x": -2.3639148254,
				"y": 0.7974793931,
				"z": 0.395035193,
				"element": "O" 
			},
			{
				"x": -2.5586764728,
				"y": -1.4625574298,
				"z": 1.144235645,
				"element": "C" 
			},
			{
				"x": -3.6111257653,
				"y": -1.1709139111,
				"z": 2.0196671391,
				"element": "C" 
			},
			{
				"x": -4.1647660752,
				"y": -2.2052845702,
				"z": 2.7654045882,
				"element": "C" 
			},
			{
				"x": -3.6440922906,
				"y": -3.4921958958,
				"z": 2.6055324052,
				"element": "C" 
			},
			{
				"x": -2.6389947184,
				"y": -3.7916263271,
				"z": 1.7720318949,
				"element": "N" 
			},
			{
				"x": -2.1135421024,
				"y": -2.7893276386,
				"z": 1.0599588039,
				"element": "C" 
			},
			{
				"x": 0.840446032,
				"y": 0.8840786571,
				"z": -0.4614558463,
				"element": "C" 
			},
			{
				"x": 1.614345613,
				"y": 0.152616745,
				"z": 0.4490327861,
				"element": "C" 
			},
			{
				"x": 2.6616258991,
				"y": 0.7526579056,
				"z": 1.1474492,
				"element": "C" 
			},
			{
				"x": 2.9403512856,
				"y": 2.1012805366,
				"z": 0.929741418,
				"element": "C" 
			},
			{
				"x": 4.2603107949,
				"y": 2.8651091582,
				"z": 1.8048342655,
				"element": "Cl" 
			},
			{
				"x": 2.1815598337,
				"y": 2.8553911603,
				"z": 0.0365038364,
				"element": "C" 
			},
			{
				"x": 1.1330127501,
				"y": 2.2407293021,
				"z": -0.647512918,
				"element": "C" 
			},
			{
				"x": 2.0987789697,
				"y": -1.2302025889,
				"z": -2.0165074501,
				"element": "H" 
			},
			{
				"x": 1.3017803975,
				"y": -2.1238293295,
				"z": -3.316519383,
				"element": "H" 
			},
			{
				"x": 0.7671935773,
				"y": -2.340901728,
				"z": -1.6454929847,
				"element": "H" 
			},
			{
				"x": -0.8072045676,
				"y": -0.8989432636,
				"z": -2.9489389351,
				"element": "H" 
			},
			{
				"x": -0.1007038309,
				"y": 1.3483540231,
				"z": -3.7781381349,
				"element": "H" 
			},
			{
				"x": 0.8233864198,
				"y": 0.0563896368,
				"z": -4.5545531107,
				"element": "H" 
			},
			{
				"x": 1.5666608996,
				"y": 1.021864252,
				"z": -3.2742084933,
				"element": "H" 
			},
			{
				"x": -1.026340025,
				"y": 1.0110465258,
				"z": -1.483961509,
				"element": "H" 
			},
			{
				"x": -3.966885376,
				"y": -0.1486036357,
				"z": 2.0946165723,
				"element": "H" 
			},
			{
				"x": -4.9813473866,
				"y": -2.0258401156,
				"z": 3.4573511009,
				"element": "H" 
			},
			{
				"x": -4.0547486691,
				"y": -4.3242348711,
				"z": 3.175039423,
				"element": "H" 
			},
			{
				"x": -1.3009669508,
				"y": -3.0474093598,
				"z": 0.3868150679,
				"element": "H" 
			},
			{
				"x": 1.3874684702,
				"y": -0.8928199584,
				"z": 0.6281348757,
				"element": "H" 
			},
			{
				"x": 3.2541916464,
				"y": 0.1822189998,
				"z": 1.8541609651,
				"element": "H" 
			},
			{
				"x": 2.3990798514,
				"y": 3.9073946196,
				"z": -0.1108831224,
				"element": "H" 
			},
			{
				"x": 0.5278959442,
				"y": 2.8336176302,
				"z": -1.3277084219,
				"element": "H" 
			}
		],
		 "valence_orbital": [ 
			{
				"type": "occ",
				"energy": -0.28837,
				"method": "rhf"
			},
			{
				"type": "occ",
				"energy": -0.27467,
				"method": "rhf"
			},
			{
				"type": "occ",
				"energy": -0.26574,
				"method": "rhf"
			},
			{
				"type": "occ",
				"energy": -0.26176,
				"method": "rhf"
			},
			{
				"type": "occ",
				"energy": -0.24526,
				"method": "rhf"
			},
			{
				"type": "unocc",
				"energy": -0.0592,
				"method": "rhf"
			},
			{
				"type": "unocc",
				"energy": -0.0309,
				"method": "rhf"
			},
			{
				"type": "unocc",
				"energy": -0.01898,
				"method": "rhf"
			},
			{
				"type": "unocc",
				"energy": -0.01731,
				"method": "rhf"
			},
			{
				"type": "unocc",
				"energy": 0.02856,
				"method": "rhf"
			}
		],
		"cosmo_sigma_profile": { 
			"-0.025": 0.0,
			"-0.024": 0.0,
			"-0.023": 0.0,
			"-0.022": 0.0,
			"-0.021": 0.0,
			"-0.02": 0.0,
			"-0.019": 0.0,
			"-0.018": 0.0,
			"-0.017": 0.0,
			"-0.016": 0.0,
			"-0.015": 0.0,
			"-0.014": 0.0,
			"-0.013": 0.0,
			"-0.012": 0.0,
			"-0.011": 0.0,
			"-0.01": 0.0,
			"-0.009": 0.0,
			"-0.008": 1.36999794809,
			"-0.007": 10.5859089331,
			"-0.006": 16.7245391639,
			"-0.005": 15.9943847114,
			"-0.004": 17.6801681488,
			"-0.003": 26.4040581421,
			"-0.002": 31.1846637909,
			"-0.001": 36.4058123409,
			"0.0": 40.2571426861,
			"0.001": 40.4678183985,
			"0.002": 22.5643455352,
			"0.003": 21.2124057181,
			"0.004": 17.8391093471,
			"0.005": 10.2901325748,
			"0.006": 2.87348539291,
			"0.007": 3.44011265378,
			"0.008": 3.57739628526,
			"0.009": 2.13805760927,
			"0.01": 2.55875763368,
			"0.011": 4.99598915624,
			"0.012": 2.15268453902,
			"0.013": 0.861591606761,
			"0.014": 0.969154507253,
			"0.015": 0.809505169011,
			"0.016": 0.603119082935,
			"0.017": 0.0266065249142,
			"0.018": 0.0,
			"0.019": 0.0,
			"0.02": 0.0,
			"0.021": 0.0,
			"0.022": 0.0,
			"0.023": 0.0,
			"0.024": 0.0,
			"0.025": 0.0
		}
	}
}
