{
	 "smiles": "O=C1N(C2CCCCC(=O)C2)C(=O)C2=C1C=CC=C2", 
	 "Tm": 393.15, 
	 "num_atms": 34, 
	 "gaussian": { 
		 "optdone": 1, 
		 "sigma_profile": "yes", 
		 "theory": "DFT", 
		 "functional": "B3LYP", 
		 "basiset": "6-31G**", 
		 "properties": { 
			 "R2extent": 6312.7483, 
			 "electric_dipole_moment_norm": 5.07476091457, 
			 "electric_quadrupole_moment_norm": 19.6765661351, 
			 "total_energy": -861.093979898, 
			 "HOMO_LUMO_gap": 0.14953, 
			 "cosmo_polarized_energy": -13.68, 
			 "cosmo_cavitation_energy": 35.7, 
			 "cosmo_dispersion_energy": -25.66, 
			 "cosmo_repulsion_energy": 1.94, 
			 "cosmo_total_nonelectrostatic_energy": 11.97, 
			 "SMD_solvation_energy": 6.84 
		},
		"coords": [
			{
				"x": 2.3858138951,
				"y": 2.6344693334,
				"z": -0.4759565987,
				"element": "O" 
			},
			{
				"x": 1.7593661118,
				"y": 1.6015679851,
				"z": -0.3517071397,
				"element": "C" 
			},
			{
				"x": 0.3487474402,
				"y": 1.5041267354,
				"z": -0.3264171705,
				"element": "N" 
			},
			{
				"x": -0.4985823984,
				"y": 2.7008363341,
				"z": -0.4636014599,
				"element": "C" 
			},
			{
				"x": -1.1002419756,
				"y": 3.181150153,
				"z": 0.875293066,
				"element": "C" 
			},
			{
				"x": -2.2867423032,
				"y": 2.4126370137,
				"z": 1.4836889019,
				"element": "C" 
			},
			{
				"x": -3.4844468757,
				"y": 2.1766791635,
				"z": 0.5370255658,
				"element": "C" 
			},
			{
				"x": -3.7492180017,
				"y": 3.3014607003,
				"z": -0.473605289,
				"element": "C" 
			},
			{
				"x": -2.6500062451,
				"y": 3.560211151,
				"z": -1.5110182823,
				"element": "C" 
			},
			{
				"x": -2.6889044576,
				"y": 4.5439878155,
				"z": -2.2256050903,
				"element": "O" 
			},
			{
				"x": -1.5201099884,
				"y": 2.5402840726,
				"z": -1.6237028019,
				"element": "C" 
			},
			{
				"x": -0.0706246878,
				"y": 0.1730349009,
				"z": -0.1736028489,
				"element": "C" 
			},
			{
				"x": -1.2224449892,
				"y": -0.2208699843,
				"z": -0.120770702,
				"element": "O" 
			},
			{
				"x": 1.1760930376,
				"y": -0.6452146159,
				"z": -0.0961421017,
				"element": "C" 
			},
			{
				"x": 2.2722720205,
				"y": 0.2105550954,
				"z": -0.2005962728,
				"element": "C" 
			},
			{
				"x": 3.5743990697,
				"y": -0.2668469715,
				"z": -0.1610257052,
				"element": "C" 
			},
			{
				"x": 3.7474421095,
				"y": -1.6492382091,
				"z": -0.0103849881,
				"element": "C" 
			},
			{
				"x": 2.6461615761,
				"y": -2.5091808174,
				"z": 0.0947755507,
				"element": "C" 
			},
			{
				"x": 1.335403196,
				"y": -2.0153116516,
				"z": 0.0526675749,
				"element": "C" 
			},
			{
				"x": 0.2144299617,
				"y": 3.4749517742,
				"z": -0.7603019188,
				"element": "H" 
			},
			{
				"x": -1.4027569218,
				"y": 4.2235413551,
				"z": 0.7096801822,
				"element": "H" 
			},
			{
				"x": -0.2854382913,
				"y": 3.2286101832,
				"z": 1.6069809886,
				"element": "H" 
			},
			{
				"x": -1.9521148071,
				"y": 1.4431270638,
				"z": 1.8662350664,
				"element": "H" 
			},
			{
				"x": -2.6181557879,
				"y": 2.9900473847,
				"z": 2.3563626849,
				"element": "H" 
			},
			{
				"x": -3.3292078079,
				"y": 1.2360284264,
				"z": 0.001536843,
				"element": "H" 
			},
			{
				"x": -4.3876670119,
				"y": 2.0307568159,
				"z": 1.140646358,
				"element": "H" 
			},
			{
				"x": -4.6543718411,
				"y": 3.0691024039,
				"z": -1.051672077,
				"element": "H" 
			},
			{
				"x": -3.9571488209,
				"y": 4.2595707489,
				"z": 0.0180402939,
				"element": "H" 
			},
			{
				"x": -1.9378504561,
				"y": 1.5311874797,
				"z": -1.6046881774,
				"element": "H" 
			},
			{
				"x": -1.0154762492,
				"y": 2.6977078302,
				"z": -2.5797045753,
				"element": "H" 
			},
			{
				"x": 4.4193028281,
				"y": 0.4089541479,
				"z": -0.2445470965,
				"element": "H" 
			},
			{
				"x": 4.7506780435,
				"y": -2.0631609107,
				"z": 0.0255838476,
				"element": "H" 
			},
			{
				"x": 2.8136783314,
				"y": -3.575836796,
				"z": 0.210303405,
				"element": "H" 
			},
			{
				"x": 0.4747222966,
				"y": -2.6714261111,
				"z": 0.1322299669,
				"element": "H" 
			}
		],
		 "valence_orbital": [ 
			{
				"type": "occ",
				"energy": -0.289,
				"method": "rhf"
			},
			{
				"type": "occ",
				"energy": -0.28231,
				"method": "rhf"
			},
			{
				"type": "occ",
				"energy": -0.27412,
				"method": "rhf"
			},
			{
				"type": "occ",
				"energy": -0.27088,
				"method": "rhf"
			},
			{
				"type": "occ",
				"energy": -0.2368,
				"method": "rhf"
			},
			{
				"type": "unocc",
				"energy": -0.08727,
				"method": "rhf"
			},
			{
				"type": "unocc",
				"energy": -0.04595,
				"method": "rhf"
			},
			{
				"type": "unocc",
				"energy": -0.01371,
				"method": "rhf"
			},
			{
				"type": "unocc",
				"energy": 0.02289,
				"method": "rhf"
			},
			{
				"type": "unocc",
				"energy": 0.06817,
				"method": "rhf"
			}
		],
		"cosmo_sigma_profile": { 
			"-0.025": 0.0,
			"-0.024": 0.0,
			"-0.023": 0.0,
			"-0.022": 0.0,
			"-0.021": 0.0,
			"-0.02": 0.0,
			"-0.019": 0.0,
			"-0.018": 0.0,
			"-0.017": 0.0,
			"-0.016": 0.0,
			"-0.015": 0.0,
			"-0.014": 0.0,
			"-0.013": 0.0,
			"-0.012": 0.0,
			"-0.011": 0.0,
			"-0.01": 0.0,
			"-0.009": 0.0,
			"-0.008": 1.56728509366,
			"-0.007": 8.20851673663,
			"-0.006": 12.2510053504,
			"-0.005": 23.7659176804,
			"-0.004": 25.1492976949,
			"-0.003": 30.976894849,
			"-0.002": 31.6596937776,
			"-0.001": 29.2238714567,
			"0.0": 21.8440105162,
			"0.001": 20.2840243085,
			"0.002": 16.8079481776,
			"0.003": 8.32980796989,
			"0.004": 3.56372298383,
			"0.005": 5.45598174707,
			"0.006": 4.14288458088,
			"0.007": 3.82422008195,
			"0.008": 4.63970308622,
			"0.009": 4.91638459649,
			"0.01": 6.70680273703,
			"0.011": 9.3257423718,
			"0.012": 6.93122356876,
			"0.013": 2.89424874513,
			"0.014": 0.305221811314,
			"0.015": 0.0,
			"0.016": 0.0,
			"0.017": 0.0,
			"0.018": 0.0,
			"0.019": 0.0,
			"0.02": 0.0,
			"0.021": 0.0,
			"0.022": 0.0,
			"0.023": 0.0,
			"0.024": 0.0,
			"0.025": 0.0
		}
	}
}
