{
	 "smiles": "OC(=O)C1(CCOCC1)OCC1=CC=CC=C1", 
	 "Tm": 343.15, 
	 "num_atms": 33, 
	 "gaussian": { 
		 "optdone": 1, 
		 "sigma_profile": "yes", 
		 "theory": "DFT", 
		 "functional": "B3LYP", 
		 "basiset": "6-31G**", 
		 "properties": { 
			 "R2extent": 4593.5204, 
			 "electric_dipole_moment_norm": 1.42975045725, 
			 "electric_quadrupole_moment_norm": 16.4280052127, 
			 "total_energy": -805.903035874, 
			 "HOMO_LUMO_gap": 0.23836, 
			 "cosmo_polarized_energy": -13.86, 
			 "cosmo_cavitation_energy": 34.8, 
			 "cosmo_dispersion_energy": -24.43, 
			 "cosmo_repulsion_energy": 1.91, 
			 "cosmo_total_nonelectrostatic_energy": 12.29, 
			 "SMD_solvation_energy": 6.54 
		},
		"coords": [
			{
				"x": 3.862901562,
				"y": 0.7404544605,
				"z": 0.1980960926,
				"element": "O" 
			},
			{
				"x": 2.5920040354,
				"y": 1.2191467826,
				"z": 0.1851958193,
				"element": "C" 
			},
			{
				"x": 2.3059274037,
				"y": 2.2797187879,
				"z": -0.320527612,
				"element": "O" 
			},
			{
				"x": 1.613175104,
				"y": 0.251137014,
				"z": 0.8723371716,
				"element": "C" 
			},
			{
				"x": 1.678288893,
				"y": -1.166867824,
				"z": 0.2163076609,
				"element": "C" 
			},
			{
				"x": 2.5714657443,
				"y": -2.1232794498,
				"z": 1.0083482966,
				"element": "C" 
			},
			{
				"x": 2.1182990764,
				"y": -2.3226658444,
				"z": 2.3456443647,
				"element": "O" 
			},
			{
				"x": 1.4721048552,
				"y": -1.1960960096,
				"z": 2.9387705773,
				"element": "C" 
			},
			{
				"x": 1.9728164579,
				"y": 0.1305817451,
				"z": 2.3761043466,
				"element": "C" 
			},
			{
				"x": 0.31131514,
				"y": 0.8117733098,
				"z": 0.8491397038,
				"element": "O" 
			},
			{
				"x": -0.3557431843,
				"y": 0.9218604345,
				"z": -0.4114338433,
				"element": "C" 
			},
			{
				"x": -1.5024460688,
				"y": -0.0611794953,
				"z": -0.5557457396,
				"element": "C" 
			},
			{
				"x": -1.8944584702,
				"y": -0.4995131046,
				"z": -1.8265438738,
				"element": "C" 
			},
			{
				"x": -2.9855411441,
				"y": -1.3564434852,
				"z": -1.9796539628,
				"element": "C" 
			},
			{
				"x": -3.6955342526,
				"y": -1.7917424592,
				"z": -0.8592124268,
				"element": "C" 
			},
			{
				"x": -3.308685266,
				"y": -1.3622086761,
				"z": 0.4120254531,
				"element": "C" 
			},
			{
				"x": -2.2218847051,
				"y": -0.4998229324,
				"z": 0.5627765392,
				"element": "C" 
			},
			{
				"x": 4.4083165465,
				"y": 1.4079624554,
				"z": -0.2517264534,
				"element": "H" 
			},
			{
				"x": 0.6593648904,
				"y": -1.5636214426,
				"z": 0.2031881089,
				"element": "H" 
			},
			{
				"x": 2.0242714293,
				"y": -1.119457965,
				"z": -0.821257785,
				"element": "H" 
			},
			{
				"x": 3.6075276395,
				"y": -1.7548654903,
				"z": 1.0046910524,
				"element": "H" 
			},
			{
				"x": 2.5715292901,
				"y": -3.1111773306,
				"z": 0.5357669918,
				"element": "H" 
			},
			{
				"x": 1.6686413398,
				"y": -1.2555701054,
				"z": 4.0145549584,
				"element": "H" 
			},
			{
				"x": 0.3831777744,
				"y": -1.2651383791,
				"z": 2.7951121959,
				"element": "H" 
			},
			{
				"x": 3.0557185787,
				"y": 0.1973939436,
				"z": 2.5127288209,
				"element": "H" 
			},
			{
				"x": 1.5104432741,
				"y": 0.9728685881,
				"z": 2.8989245551,
				"element": "H" 
			},
			{
				"x": 0.3432192973,
				"y": 0.8152985869,
				"z": -1.2472647092,
				"element": "H" 
			},
			{
				"x": -0.7370079821,
				"y": 1.9491918627,
				"z": -0.4600736606,
				"element": "H" 
			},
			{
				"x": -1.3411737673,
				"y": -0.1695779832,
				"z": -2.7033373735,
				"element": "H" 
			},
			{
				"x": -3.2750057941,
				"y": -1.6902805431,
				"z": -2.972244457,
				"element": "H" 
			},
			{
				"x": -4.5414619959,
				"y": -2.4631506704,
				"z": -0.9755350981,
				"element": "H" 
			},
			{
				"x": -3.8553940587,
				"y": -1.6982607848,
				"z": 1.2888352599,
				"element": "H" 
			},
			{
				"x": -1.9177716431,
				"y": -0.1644679963,
				"z": 1.5490090263,
				"element": "H" 
			}
		],
		 "valence_orbital": [ 
			{
				"type": "occ",
				"energy": -0.28224,
				"method": "rhf"
			},
			{
				"type": "occ",
				"energy": -0.26098,
				"method": "rhf"
			},
			{
				"type": "occ",
				"energy": -0.24842,
				"method": "rhf"
			},
			{
				"type": "occ",
				"energy": -0.24311,
				"method": "rhf"
			},
			{
				"type": "occ",
				"energy": -0.24039,
				"method": "rhf"
			},
			{
				"type": "unocc",
				"energy": -0.00203,
				"method": "rhf"
			},
			{
				"type": "unocc",
				"energy": -0.00124,
				"method": "rhf"
			},
			{
				"type": "unocc",
				"energy": 0.0002,
				"method": "rhf"
			},
			{
				"type": "unocc",
				"energy": 0.0636,
				"method": "rhf"
			},
			{
				"type": "unocc",
				"energy": 0.08787,
				"method": "rhf"
			}
		],
		"cosmo_sigma_profile": { 
			"-0.025": 0.0,
			"-0.024": 0.0,
			"-0.023": 0.0,
			"-0.022": 0.0,
			"-0.021": 0.0,
			"-0.02": 0.0,
			"-0.019": 0.151622063557,
			"-0.018": 0.923992914761,
			"-0.017": 0.964938346935,
			"-0.016": 1.03646562988,
			"-0.015": 0.652314699053,
			"-0.014": 0.304171412907,
			"-0.013": 0.498352034853,
			"-0.012": 1.05635245037,
			"-0.011": 1.13510096295,
			"-0.01": 0.348952181063,
			"-0.009": 0.266973785313,
			"-0.008": 1.33424220211,
			"-0.007": 2.95036058494,
			"-0.006": 7.36401696959,
			"-0.005": 20.7844174514,
			"-0.004": 26.5768913239,
			"-0.003": 32.0913767013,
			"-0.002": 27.9735309871,
			"-0.001": 21.2388998854,
			"0.0": 16.9382156218,
			"0.001": 15.0172064493,
			"0.002": 14.091730745,
			"0.003": 13.0422671189,
			"0.004": 12.5424960383,
			"0.005": 13.2909443896,
			"0.006": 11.8324111877,
			"0.007": 3.37446664026,
			"0.008": 3.43071301317,
			"0.009": 4.09404403572,
			"0.01": 4.49900853116,
			"0.011": 6.98398614324,
			"0.012": 3.45443065052,
			"0.013": 1.75366600813,
			"0.014": 1.36309077569,
			"0.015": 0.0473211193244,
			"0.016": 0.0,
			"0.017": 0.0,
			"0.018": 0.0,
			"0.019": 0.0,
			"0.02": 0.0,
			"0.021": 0.0,
			"0.022": 0.0,
			"0.023": 0.0,
			"0.024": 0.0,
			"0.025": 0.0
		}
	}
}
