{
	 "smiles": "CC(C)C1=CC(C(C)C)=C(C=C1C(C)C)C(C)C", 
	 "Tm": 392.15, 
	 "num_atms": 48, 
	 "gaussian": { 
		 "optdone": 1, 
		 "sigma_profile": "yes", 
		 "theory": "DFT", 
		 "functional": "B3LYP", 
		 "basiset": "6-31G**", 
		 "properties": { 
			 "R2extent": 5512.4259, 
			 "electric_dipole_moment_norm": 0.135688650962, 
			 "electric_quadrupole_moment_norm": 4.70868950983, 
			 "total_energy": -704.037898893, 
			 "HOMO_LUMO_gap": 0.22797, 
			 "cosmo_polarized_energy": -3.64, 
			 "cosmo_cavitation_energy": 45.08, 
			 "cosmo_dispersion_energy": -29.12, 
			 "cosmo_repulsion_energy": 2.3, 
			 "cosmo_total_nonelectrostatic_energy": 18.26, 
			 "SMD_solvation_energy": 8.04 
		},
		"coords": [
			{
				"x": -1.1824029533,
				"y": -0.1706496945,
				"z": 3.5073814139,
				"element": "C" 
			},
			{
				"x": 0.2343642135,
				"y": -0.2928206275,
				"z": 2.9123101591,
				"element": "C" 
			},
			{
				"x": 1.1792223853,
				"y": 0.7651588766,
				"z": 3.5158288015,
				"element": "C" 
			},
			{
				"x": 0.2164438787,
				"y": -0.2337087483,
				"z": 1.3835686524,
				"element": "C" 
			},
			{
				"x": -0.2458756701,
				"y": 0.9420212108,
				"z": 0.7798466624,
				"element": "C" 
			},
			{
				"x": -0.3244807024,
				"y": 1.1534633885,
				"z": -0.6020642181,
				"element": "C" 
			},
			{
				"x": -0.8559092113,
				"y": 2.5028136361,
				"z": -1.0895808797,
				"element": "C" 
			},
			{
				"x": 0.0482909332,
				"y": 3.6694396635,
				"z": -0.6449037213,
				"element": "C" 
			},
			{
				"x": -2.3147814822,
				"y": 2.737080158,
				"z": -0.6501859787,
				"element": "C" 
			},
			{
				"x": 0.0927386458,
				"y": 0.1055039192,
				"z": -1.4516801743,
				"element": "C" 
			},
			{
				"x": 0.5547308912,
				"y": -1.0702153596,
				"z": -0.844074538,
				"element": "C" 
			},
			{
				"x": 0.6344674192,
				"y": -1.2852867313,
				"z": 0.538789899,
				"element": "C" 
			},
			{
				"x": 1.1693299475,
				"y": -2.6475341195,
				"z": 0.9932211276,
				"element": "C" 
			},
			{
				"x": 2.5132673164,
				"y": -2.5720563688,
				"z": 1.7468753097,
				"element": "C" 
			},
			{
				"x": 0.1298456945,
				"y": -3.5093670532,
				"z": 1.7392344105,
				"element": "C" 
			},
			{
				"x": 0.0879085345,
				"y": 0.1318483644,
				"z": -2.9838569717,
				"element": "C" 
			},
			{
				"x": 1.0586471311,
				"y": 1.1637479767,
				"z": -3.5943123323,
				"element": "C" 
			},
			{
				"x": -1.3223985217,
				"y": 0.2205091,
				"z": -3.6026827577,
				"element": "C" 
			},
			{
				"x": -1.1522828422,
				"y": -0.2688824588,
				"z": 4.5984850689,
				"element": "H" 
			},
			{
				"x": -1.6343210429,
				"y": 0.7994532438,
				"z": 3.2749101562,
				"element": "H" 
			},
			{
				"x": -1.8456239922,
				"y": -0.9472590519,
				"z": 3.1134853363,
				"element": "H" 
			},
			{
				"x": 0.6194033859,
				"y": -1.2672019038,
				"z": 3.2155551398,
				"element": "H" 
			},
			{
				"x": 0.8448172271,
				"y": 1.7821182012,
				"z": 3.2848590782,
				"element": "H" 
			},
			{
				"x": 1.2187577629,
				"y": 0.6694756642,
				"z": 4.6068518376,
				"element": "H" 
			},
			{
				"x": 2.1964839465,
				"y": 0.6552611638,
				"z": 3.1269583613,
				"element": "H" 
			},
			{
				"x": -0.5675636829,
				"y": 1.7500760331,
				"z": 1.4318729562,
				"element": "H" 
			},
			{
				"x": -0.852851616,
				"y": 2.5011791679,
				"z": -2.1802770039,
				"element": "H" 
			},
			{
				"x": 1.0767249549,
				"y": 3.5276082011,
				"z": -0.9918169418,
				"element": "H" 
			},
			{
				"x": -0.3203341011,
				"y": 4.6189888549,
				"z": -1.049288878,
				"element": "H" 
			},
			{
				"x": 0.0770233123,
				"y": 3.7632501324,
				"z": 0.4458602309,
				"element": "H" 
			},
			{
				"x": -2.6921104149,
				"y": 3.6833145893,
				"z": -1.0543137547,
				"element": "H" 
			},
			{
				"x": -2.4041442125,
				"y": 2.7840298091,
				"z": 0.4403083373,
				"element": "H" 
			},
			{
				"x": -2.9680529164,
				"y": 1.9319741495,
				"z": -1.0011484385,
				"element": "H" 
			},
			{
				"x": 0.8765081189,
				"y": -1.8795125519,
				"z": -1.4971323868,
				"element": "H" 
			},
			{
				"x": 1.3861245531,
				"y": -3.1908971583,
				"z": 0.0646096109,
				"element": "H" 
			},
			{
				"x": 3.2496527011,
				"y": -2.0036650636,
				"z": 1.1700229649,
				"element": "H" 
			},
			{
				"x": 2.9139065321,
				"y": -3.5798441361,
				"z": 1.9056435358,
				"element": "H" 
			},
			{
				"x": 2.4235749325,
				"y": -2.0981561333,
				"z": 2.7283891869,
				"element": "H" 
			},
			{
				"x": 0.5229160418,
				"y": -4.5197510678,
				"z": 1.9003621236,
				"element": "H" 
			},
			{
				"x": -0.1345729149,
				"y": -3.1016889129,
				"z": 2.7189466751,
				"element": "H" 
			},
			{
				"x": -0.7923224304,
				"y": -3.5955199137,
				"z": 1.1559003698,
				"element": "H" 
			},
			{
				"x": 0.4774973389,
				"y": -0.8489067448,
				"z": -3.2853406204,
				"element": "H" 
			},
			{
				"x": 0.7486939634,
				"y": 2.19678332,
				"z": -3.4133648423,
				"element": "H" 
			},
			{
				"x": 2.0644941935,
				"y": 1.0417376933,
				"z": -3.1802075154,
				"element": "H" 
			},
			{
				"x": 1.1216552758,
				"y": 1.0264325597,
				"z": -4.6799078124,
				"element": "H" 
			},
			{
				"x": -1.8056834715,
				"y": 1.1845971408,
				"z": -3.4210515251,
				"element": "H" 
			},
			{
				"x": -1.9739084233,
				"y": -0.5591240962,
				"z": -3.1954902644,
				"element": "H" 
			},
			{
				"x": -1.2675706293,
				"y": 0.081381678,
				"z": -4.6884958501,
				"element": "H" 
			}
		],
		 "valence_orbital": [ 
			{
				"type": "occ",
				"energy": -0.30807,
				"method": "rhf"
			},
			{
				"type": "occ",
				"energy": -0.29907,
				"method": "rhf"
			},
			{
				"type": "occ",
				"energy": -0.29245,
				"method": "rhf"
			},
			{
				"type": "occ",
				"energy": -0.22764,
				"method": "rhf"
			},
			{
				"type": "occ",
				"energy": -0.21885,
				"method": "rhf"
			},
			{
				"type": "unocc",
				"energy": 0.00912,
				"method": "rhf"
			},
			{
				"type": "unocc",
				"energy": 0.00949,
				"method": "rhf"
			},
			{
				"type": "unocc",
				"energy": 0.08179,
				"method": "rhf"
			},
			{
				"type": "unocc",
				"energy": 0.08519,
				"method": "rhf"
			},
			{
				"type": "unocc",
				"energy": 0.09013,
				"method": "rhf"
			}
		],
		"cosmo_sigma_profile": { 
			"-0.025": 0.0,
			"-0.024": 0.0,
			"-0.023": 0.0,
			"-0.022": 0.0,
			"-0.021": 0.0,
			"-0.02": 0.0,
			"-0.019": 0.0,
			"-0.018": 0.0,
			"-0.017": 0.0,
			"-0.016": 0.0,
			"-0.015": 0.0,
			"-0.014": 0.0,
			"-0.013": 0.0,
			"-0.012": 0.0,
			"-0.011": 0.0,
			"-0.01": 0.0,
			"-0.009": 0.0,
			"-0.008": 0.0,
			"-0.007": 0.0,
			"-0.006": 0.0,
			"-0.005": 0.105446653401,
			"-0.004": 9.36841933157,
			"-0.003": 30.3921615093,
			"-0.002": 54.1542096504,
			"-0.001": 61.0236376614,
			"0.0": 59.208131485,
			"0.001": 66.346352467,
			"0.002": 36.4250029729,
			"0.003": 7.52735186705,
			"0.004": 6.60316970233,
			"0.005": 5.40992922706,
			"0.006": 4.55021085716,
			"0.007": 4.99526307955,
			"0.008": 2.45631997183,
			"0.009": 0.0,
			"0.01": 0.0,
			"0.011": 0.0,
			"0.012": 0.0,
			"0.013": 0.0,
			"0.014": 0.0,
			"0.015": 0.0,
			"0.016": 0.0,
			"0.017": 0.0,
			"0.018": 0.0,
			"0.019": 0.0,
			"0.02": 0.0,
			"0.021": 0.0,
			"0.022": 0.0,
			"0.023": 0.0,
			"0.024": 0.0,
			"0.025": 0.0
		}
	}
}
