{
	 "smiles": "OC(=O)CNC(=O)C1=CC2=C(CCCC2)S1", 
	 "Tm": 451.15, 
	 "num_atms": 29, 
	 "gaussian": { 
		 "optdone": 1, 
		 "sigma_profile": "yes", 
		 "theory": "DFT", 
		 "functional": "B3LYP", 
		 "basiset": "6-31G**", 
		 "properties": { 
			 "R2extent": 6388.3956, 
			 "electric_dipole_moment_norm": 6.89042148493, 
			 "electric_quadrupole_moment_norm": 21.5679753225, 
			 "total_energy": -1105.63493558, 
			 "HOMO_LUMO_gap": 0.18754, 
			 "cosmo_polarized_energy": -21.89, 
			 "cosmo_cavitation_energy": 33.49, 
			 "cosmo_dispersion_energy": -25.23, 
			 "cosmo_repulsion_energy": 1.94, 
			 "cosmo_total_nonelectrostatic_energy": 10.21, 
			 "SMD_solvation_energy": 5.77 
		},
		"coords": [
			{
				"x": -1.1542056409,
				"y": -5.7610023918,
				"z": -0.7123931077,
				"element": "O" 
			},
			{
				"x": -2.0355054633,
				"y": -4.896269216,
				"z": -0.1621130862,
				"element": "C" 
			},
			{
				"x": -3.1743548638,
				"y": -5.2226411864,
				"z": 0.0544358632,
				"element": "O" 
			},
			{
				"x": -1.4742919774,
				"y": -3.5083660593,
				"z": 0.1518151265,
				"element": "C" 
			},
			{
				"x": -2.5169532878,
				"y": -2.7039859495,
				"z": 0.7288512565,
				"element": "N" 
			},
			{
				"x": -2.5167138761,
				"y": -1.4008822844,
				"z": 1.1621588128,
				"element": "C" 
			},
			{
				"x": -3.5474646476,
				"y": -0.91277121,
				"z": 1.6201497718,
				"element": "O" 
			},
			{
				"x": -1.2869787165,
				"y": -0.564649477,
				"z": 1.0885840476,
				"element": "C" 
			},
			{
				"x": -1.2841205578,
				"y": 0.7404332808,
				"z": 1.5169980703,
				"element": "C" 
			},
			{
				"x": -0.0312864404,
				"y": 1.4038733907,
				"z": 1.378974389,
				"element": "C" 
			},
			{
				"x": 0.9375897625,
				"y": 0.5903236737,
				"z": 0.8404213183,
				"element": "C" 
			},
			{
				"x": 2.3587695452,
				"y": 0.9951124494,
				"z": 0.5560231095,
				"element": "C" 
			},
			{
				"x": 2.6966768916,
				"y": 2.2977342338,
				"z": 1.3069402702,
				"element": "C" 
			},
			{
				"x": 1.5741279105,
				"y": 3.3360392009,
				"z": 1.1595226693,
				"element": "C" 
			},
			{
				"x": 0.2581110109,
				"y": 2.83245349,
				"z": 1.7776487999,
				"element": "C" 
			},
			{
				"x": 0.3136076919,
				"y": -0.9970826416,
				"z": 0.4947538452,
				"element": "S" 
			},
			{
				"x": -0.2849550453,
				"y": -5.3480166224,
				"z": -0.8215835538,
				"element": "H" 
			},
			{
				"x": -1.0816352947,
				"y": -3.0834173631,
				"z": -0.7848384754,
				"element": "H" 
			},
			{
				"x": -0.6156754928,
				"y": -3.6374760536,
				"z": 0.8288231889,
				"element": "H" 
			},
			{
				"x": -3.4111929176,
				"y": -3.1735925576,
				"z": 0.8263585996,
				"element": "H" 
			},
			{
				"x": -2.1839778928,
				"y": 1.1908594177,
				"z": 1.918964067,
				"element": "H" 
			},
			{
				"x": 3.0569918693,
				"y": 0.1991226093,
				"z": 0.841382561,
				"element": "H" 
			},
			{
				"x": 2.4917647706,
				"y": 1.1463839957,
				"z": -0.5249892841,
				"element": "H" 
			},
			{
				"x": 2.8458898208,
				"y": 2.073408105,
				"z": 2.3710263407,
				"element": "H" 
			},
			{
				"x": 3.6439423992,
				"y": 2.6996077094,
				"z": 0.9312022538,
				"element": "H" 
			},
			{
				"x": 1.4182720099,
				"y": 3.5477068286,
				"z": 0.093324392,
				"element": "H" 
			},
			{
				"x": 1.8671319746,
				"y": 4.2814757836,
				"z": 1.6287131362,
				"element": "H" 
			},
			{
				"x": 0.3157292112,
				"y": 2.897857121,
				"z": 2.8736648625,
				"element": "H" 
			},
			{
				"x": -0.5750927535,
				"y": 3.4804617232,
				"z": 1.4807807552,
				"element": "H" 
			}
		],
		 "valence_orbital": [ 
			{
				"type": "occ",
				"energy": -0.2984,
				"method": "rhf"
			},
			{
				"type": "occ",
				"energy": -0.25415,
				"method": "rhf"
			},
			{
				"type": "occ",
				"energy": -0.25247,
				"method": "rhf"
			},
			{
				"type": "occ",
				"energy": -0.25124,
				"method": "rhf"
			},
			{
				"type": "occ",
				"energy": -0.23035,
				"method": "rhf"
			},
			{
				"type": "unocc",
				"energy": -0.04281,
				"method": "rhf"
			},
			{
				"type": "unocc",
				"energy": -0.01034,
				"method": "rhf"
			},
			{
				"type": "unocc",
				"energy": 0.01817,
				"method": "rhf"
			},
			{
				"type": "unocc",
				"energy": 0.03416,
				"method": "rhf"
			},
			{
				"type": "unocc",
				"energy": 0.03586,
				"method": "rhf"
			}
		],
		"cosmo_sigma_profile": { 
			"-0.025": 0.0,
			"-0.024": 0.0,
			"-0.023": 0.0,
			"-0.022": 0.0,
			"-0.021": 0.169934382177,
			"-0.02": 0.817785597366,
			"-0.019": 1.38756474628,
			"-0.018": 1.45328372306,
			"-0.017": 1.05633193193,
			"-0.016": 1.27450905571,
			"-0.015": 0.870300529375,
			"-0.014": 1.09272909378,
			"-0.013": 1.34582433904,
			"-0.012": 1.4889007685,
			"-0.011": 1.34144475672,
			"-0.01": 1.67943336112,
			"-0.009": 3.41988492973,
			"-0.008": 4.1282773068,
			"-0.007": 3.52603497344,
			"-0.006": 5.72349090909,
			"-0.005": 7.35419731652,
			"-0.004": 14.5731478448,
			"-0.003": 26.8540023351,
			"-0.002": 32.4213616943,
			"-0.001": 29.0921452321,
			"0.0": 21.6678932807,
			"0.001": 14.3318455059,
			"0.002": 12.3094692326,
			"0.003": 13.1300174803,
			"0.004": 15.5587748122,
			"0.005": 4.33362365328,
			"0.006": 4.32259017177,
			"0.007": 4.09162139346,
			"0.008": 5.08833890255,
			"0.009": 6.43259147957,
			"0.01": 5.98684800587,
			"0.011": 5.30602706825,
			"0.012": 2.50539601263,
			"0.013": 3.78113894296,
			"0.014": 5.43899061997,
			"0.015": 0.385424597966,
			"0.016": 0.0,
			"0.017": 0.0,
			"0.018": 0.0,
			"0.019": 0.0,
			"0.02": 0.0,
			"0.021": 0.0,
			"0.022": 0.0,
			"0.023": 0.0,
			"0.024": 0.0,
			"0.025": 0.0
		}
	}
}
