{
	 "smiles": "CC(N)C1=CC=C(NC(=O)NC2CC2)C=C1", 
	 "Tm": 416.15, 
	 "num_atms": 33, 
	 "gaussian": { 
		 "optdone": 1, 
		 "sigma_profile": "yes", 
		 "theory": "DFT", 
		 "functional": "B3LYP", 
		 "basiset": "6-31G**", 
		 "properties": { 
			 "R2extent": 6474.3814, 
			 "electric_dipole_moment_norm": 4.90010980387, 
			 "electric_quadrupole_moment_norm": 14.7909155913, 
			 "total_energy": -706.993517727, 
			 "HOMO_LUMO_gap": 0.20541, 
			 "cosmo_polarized_energy": -16.82, 
			 "cosmo_cavitation_energy": 35.91, 
			 "cosmo_dispersion_energy": -25.58, 
			 "cosmo_repulsion_energy": 2.04, 
			 "cosmo_total_nonelectrostatic_energy": 12.38, 
			 "SMD_solvation_energy": 5.2 
		},
		"coords": [
			{
				"x": 3.9761471756,
				"y": 1.0180141913,
				"z": 1.4198204173,
				"element": "C" 
			},
			{
				"x": 4.1521642945,
				"y": 0.3895403184,
				"z": 0.0274482946,
				"element": "C" 
			},
			{
				"x": 4.4395917781,
				"y": 1.375480829,
				"z": -1.0292728576,
				"element": "N" 
			},
			{
				"x": 2.9778808664,
				"y": -0.4842192771,
				"z": -0.4140914304,
				"element": "C" 
			},
			{
				"x": 1.9980014684,
				"y": -0.9510213128,
				"z": 0.4688170049,
				"element": "C" 
			},
			{
				"x": 0.9624982631,
				"y": -1.7838144724,
				"z": 0.0384001214,
				"element": "C" 
			},
			{
				"x": 0.8569212987,
				"y": -2.1472356788,
				"z": -1.3119535705,
				"element": "C" 
			},
			{
				"x": -0.1630417445,
				"y": -2.9986011706,
				"z": -1.7833679269,
				"element": "N" 
			},
			{
				"x": -1.544433038,
				"y": -2.9806370448,
				"z": -1.5589662002,
				"element": "C" 
			},
			{
				"x": -2.2604930459,
				"y": -3.8276023862,
				"z": -2.0771428823,
				"element": "O" 
			},
			{
				"x": -2.0191201218,
				"y": -1.9647732995,
				"z": -0.7662679271,
				"element": "N" 
			},
			{
				"x": -3.3989624718,
				"y": -1.8967183497,
				"z": -0.3837596941,
				"element": "C" 
			},
			{
				"x": -4.0429577781,
				"y": -0.5336703135,
				"z": -0.3325429438,
				"element": "C" 
			},
			{
				"x": -4.4310557244,
				"y": -1.5153923205,
				"z": -1.410302325,
				"element": "C" 
			},
			{
				"x": 1.8395603039,
				"y": -1.6862475778,
				"z": -2.2035137874,
				"element": "C" 
			},
			{
				"x": 2.8808293505,
				"y": -0.8800971102,
				"z": -1.7584852714,
				"element": "C" 
			},
			{
				"x": 3.077840082,
				"y": 1.6451731099,
				"z": 1.4603699785,
				"element": "H" 
			},
			{
				"x": 3.9031114385,
				"y": 0.2660790888,
				"z": 2.2126066065,
				"element": "H" 
			},
			{
				"x": 4.8402595052,
				"y": 1.6498540794,
				"z": 1.6507296727,
				"element": "H" 
			},
			{
				"x": 5.0402764083,
				"y": -0.2590345912,
				"z": 0.0733319158,
				"element": "H" 
			},
			{
				"x": 5.264939372,
				"y": 1.9143123764,
				"z": -0.7759865413,
				"element": "H" 
			},
			{
				"x": 3.6681210039,
				"y": 2.0380504224,
				"z": -1.0924751375,
				"element": "H" 
			},
			{
				"x": 2.0396012106,
				"y": -0.6905372261,
				"z": 1.5211136138,
				"element": "H" 
			},
			{
				"x": 0.2568522921,
				"y": -2.1807732795,
				"z": 0.7613526828,
				"element": "H" 
			},
			{
				"x": 0.0652026022,
				"y": -3.6153184506,
				"z": -2.5503796738,
				"element": "H" 
			},
			{
				"x": -1.3733115587,
				"y": -1.2982216667,
				"z": -0.3720115692,
				"element": "H" 
			},
			{
				"x": -3.7057051015,
				"y": -2.6204948802,
				"z": 0.3700798689,
				"element": "H" 
			},
			{
				"x": -3.4353896522,
				"y": 0.3185759817,
				"z": -0.6236191684,
				"element": "H" 
			},
			{
				"x": -4.741283963,
				"y": -0.3319747488,
				"z": 0.4737115383,
				"element": "H" 
			},
			{
				"x": -5.3999720737,
				"y": -2.0005813079,
				"z": -1.3531672411,
				"element": "H" 
			},
			{
				"x": -4.0734138419,
				"y": -1.3331522302,
				"z": -2.4173804577,
				"element": "H" 
			},
			{
				"x": 1.7730111002,
				"y": -1.9585711676,
				"z": -3.2537707923,
				"element": "H" 
			},
			{
				"x": 3.6257303012,
				"y": -0.5191905346,
				"z": -2.4596243173,
				"element": "H" 
			}
		],
		 "valence_orbital": [ 
			{
				"type": "occ",
				"energy": -0.25579,
				"method": "rhf"
			},
			{
				"type": "occ",
				"energy": -0.24904,
				"method": "rhf"
			},
			{
				"type": "occ",
				"energy": -0.24198,
				"method": "rhf"
			},
			{
				"type": "occ",
				"energy": -0.2401,
				"method": "rhf"
			},
			{
				"type": "occ",
				"energy": -0.21459,
				"method": "rhf"
			},
			{
				"type": "unocc",
				"energy": -0.00918,
				"method": "rhf"
			},
			{
				"type": "unocc",
				"energy": -0.00689,
				"method": "rhf"
			},
			{
				"type": "unocc",
				"energy": 0.0675,
				"method": "rhf"
			},
			{
				"type": "unocc",
				"energy": 0.07961,
				"method": "rhf"
			},
			{
				"type": "unocc",
				"energy": 0.09942,
				"method": "rhf"
			}
		],
		"cosmo_sigma_profile": { 
			"-0.025": 0.0,
			"-0.024": 0.0,
			"-0.023": 0.0,
			"-0.022": 0.0,
			"-0.021": 0.0,
			"-0.02": 0.0,
			"-0.019": 0.0,
			"-0.018": 0.0,
			"-0.017": 0.0,
			"-0.016": 0.0,
			"-0.015": 0.0,
			"-0.014": 0.400299236698,
			"-0.013": 1.01280686849,
			"-0.012": 0.787138830149,
			"-0.011": 0.918878541519,
			"-0.01": 2.1581274512,
			"-0.009": 5.05040227831,
			"-0.008": 4.42805804811,
			"-0.007": 5.94278498742,
			"-0.006": 10.5669903921,
			"-0.005": 17.1371400424,
			"-0.004": 25.4633137817,
			"-0.003": 25.6411894686,
			"-0.002": 24.8794873237,
			"-0.001": 24.3048602851,
			"0.0": 21.485254531,
			"0.001": 22.4158399292,
			"0.002": 16.9831033917,
			"0.003": 11.5011410229,
			"0.004": 13.0317132254,
			"0.005": 13.7018224673,
			"0.006": 6.49717221192,
			"0.007": 2.27170471775,
			"0.008": 1.79532121526,
			"0.009": 2.08742715483,
			"0.01": 2.22497932949,
			"0.011": 2.46815675051,
			"0.012": 2.2649678632,
			"0.013": 2.69003592099,
			"0.014": 6.0485676475,
			"0.015": 5.00152886341,
			"0.016": 0.735111753476,
			"0.017": 0.090431049636,
			"0.018": 0.0,
			"0.019": 0.0,
			"0.02": 0.0,
			"0.021": 0.0,
			"0.022": 0.0,
			"0.023": 0.0,
			"0.024": 0.0,
			"0.025": 0.0
		}
	}
}
