{
	 "smiles": "O=C(C1CC1)C1=CC=CC=C1", 
	 "Tm": 281.15, 
	 "num_atms": 21, 
	 "gaussian": { 
		 "optdone": 1, 
		 "sigma_profile": "yes", 
		 "theory": "DFT", 
		 "functional": "B3LYP", 
		 "basiset": "6-31G**", 
		 "properties": { 
			 "R2extent": 2318.6253, 
			 "electric_dipole_moment_norm": 2.72215535743, 
			 "electric_quadrupole_moment_norm": 6.81211289836, 
			 "total_energy": -462.288989018, 
			 "HOMO_LUMO_gap": 0.1937, 
			 "cosmo_polarized_energy": -7.89, 
			 "cosmo_cavitation_energy": 24.48, 
			 "cosmo_dispersion_energy": -18.09, 
			 "cosmo_repulsion_energy": 1.44, 
			 "cosmo_total_nonelectrostatic_energy": 7.83, 
			 "SMD_solvation_energy": 4.31 
		},
		"coords": [
			{
				"x": 0.7146686397,
				"y": 1.4613486837,
				"z": -1.0544379718,
				"element": "O" 
			},
			{
				"x": -0.0494305413,
				"y": 0.5522852073,
				"z": -0.7427912015,
				"element": "C" 
			},
			{
				"x": -1.2644064646,
				"y": 0.850461911,
				"z": 0.0742190571,
				"element": "C" 
			},
			{
				"x": -1.1316593927,
				"y": 1.9506863942,
				"z": 1.122327984,
				"element": "C" 
			},
			{
				"x": -1.9009735277,
				"y": 2.2212007797,
				"z": -0.1234961785,
				"element": "C" 
			},
			{
				"x": 0.2378740347,
				"y": -0.8537759675,
				"z": -1.1845670201,
				"element": "C" 
			},
			{
				"x": -0.5387759305,
				"y": -1.9634591066,
				"z": -0.8171063824,
				"element": "C" 
			},
			{
				"x": -0.2031990189,
				"y": -3.2414826607,
				"z": -1.2654030835,
				"element": "C" 
			},
			{
				"x": 0.9094715911,
				"y": -3.425871375,
				"z": -2.0872266321,
				"element": "C" 
			},
			{
				"x": 1.690660272,
				"y": -2.3271082684,
				"z": -2.4587055394,
				"element": "C" 
			},
			{
				"x": 1.3579608503,
				"y": -1.0535839441,
				"z": -2.0093813803,
				"element": "C" 
			},
			{
				"x": -1.9376280025,
				"y": 0.0357567128,
				"z": 0.3096591803,
				"element": "H" 
			},
			{
				"x": -0.1463915256,
				"y": 2.3971372828,
				"z": 1.2067617595,
				"element": "H" 
			},
			{
				"x": -1.6677926802,
				"y": 1.8099432257,
				"z": 2.0555856855,
				"element": "H" 
			},
			{
				"x": -2.9840902432,
				"y": 2.2726100966,
				"z": -0.074918165,
				"element": "H" 
			},
			{
				"x": -1.4304960996,
				"y": 2.848364456,
				"z": -0.8733951813,
				"element": "H" 
			},
			{
				"x": -1.4051170572,
				"y": -1.8454354095,
				"z": -0.1757563156,
				"element": "H" 
			},
			{
				"x": -0.8110220255,
				"y": -4.0924969801,
				"z": -0.9721893796,
				"element": "H" 
			},
			{
				"x": 1.168039679,
				"y": -4.4215146804,
				"z": -2.4366106807,
				"element": "H" 
			},
			{
				"x": 2.5578134591,
				"y": -2.46734117,
				"z": -3.0976457948,
				"element": "H" 
			},
			{
				"x": 1.9494939836,
				"y": -0.1860251876,
				"z": -2.2811227598,
				"element": "H" 
			}
		],
		 "valence_orbital": [ 
			{
				"type": "occ",
				"energy": -0.30827,
				"method": "rhf"
			},
			{
				"type": "occ",
				"energy": -0.28945,
				"method": "rhf"
			},
			{
				"type": "occ",
				"energy": -0.25923,
				"method": "rhf"
			},
			{
				"type": "occ",
				"energy": -0.25532,
				"method": "rhf"
			},
			{
				"type": "occ",
				"energy": -0.24696,
				"method": "rhf"
			},
			{
				"type": "unocc",
				"energy": -0.05326,
				"method": "rhf"
			},
			{
				"type": "unocc",
				"energy": -0.00757,
				"method": "rhf"
			},
			{
				"type": "unocc",
				"energy": 0.04081,
				"method": "rhf"
			},
			{
				"type": "unocc",
				"energy": 0.0826,
				"method": "rhf"
			},
			{
				"type": "unocc",
				"energy": 0.10031,
				"method": "rhf"
			}
		],
		"cosmo_sigma_profile": { 
			"-0.025": 0.0,
			"-0.024": 0.0,
			"-0.023": 0.0,
			"-0.022": 0.0,
			"-0.021": 0.0,
			"-0.02": 0.0,
			"-0.019": 0.0,
			"-0.018": 0.0,
			"-0.017": 0.0,
			"-0.016": 0.0,
			"-0.015": 0.0,
			"-0.014": 0.0,
			"-0.013": 0.0,
			"-0.012": 0.0,
			"-0.011": 0.0,
			"-0.01": 0.0,
			"-0.009": 0.44283308957,
			"-0.008": 1.59868057112,
			"-0.007": 3.26256381287,
			"-0.006": 10.0766162906,
			"-0.005": 16.4749344489,
			"-0.004": 18.7428351301,
			"-0.003": 13.6291838596,
			"-0.002": 13.5640081992,
			"-0.001": 15.8866674293,
			"0.0": 16.7021768474,
			"0.001": 15.625820859,
			"0.002": 16.9568146657,
			"0.003": 15.9273116153,
			"0.004": 15.0332927222,
			"0.005": 5.63520499538,
			"0.006": 1.62916170787,
			"0.007": 2.42233515909,
			"0.008": 1.80127030306,
			"0.009": 0.892162324771,
			"0.01": 1.78530895501,
			"0.011": 1.87445049442,
			"0.012": 3.32812445617,
			"0.013": 2.14424356635,
			"0.014": 0.0190201998429,
			"0.015": 0.0,
			"0.016": 0.0,
			"0.017": 0.0,
			"0.018": 0.0,
			"0.019": 0.0,
			"0.02": 0.0,
			"0.021": 0.0,
			"0.022": 0.0,
			"0.023": 0.0,
			"0.024": 0.0,
			"0.025": 0.0
		}
	}
}
