{
	 "smiles": "CCCC(C=C1C2CCC(C)(C1=O)C2(C)C)(C=C1/C2CCC(C)(C1=O)C2(C)C)C(=O)OCC", 
	 "Tm": 434.15, 
	 "num_atms": 75, 
	 "gaussian": { 
		 "optdone": 1, 
		 "sigma_profile": "yes", 
		 "theory": "DFT", 
		 "functional": "B3LYP", 
		 "basiset": "6-31G**", 
		 "properties": { 
			 "R2extent": 16161.4436, 
			 "electric_dipole_moment_norm": 5.96647876389, 
			 "electric_quadrupole_moment_norm": 16.101047942, 
			 "total_energy": -1431.28865826, 
			 "HOMO_LUMO_gap": 0.17544, 
			 "cosmo_polarized_energy": -18.24, 
			 "cosmo_cavitation_energy": 68.49, 
			 "cosmo_dispersion_energy": -41.34, 
			 "cosmo_repulsion_energy": 3.12, 
			 "cosmo_total_nonelectrostatic_energy": 30.27, 
			 "SMD_solvation_energy": 12.44 
		},
		"coords": [
			{
				"x": -1.0583681163,
				"y": 3.2874302748,
				"z": 3.9404214129,
				"element": "C" 
			},
			{
				"x": -1.4782489307,
				"y": 2.7282122721,
				"z": 2.5761105319,
				"element": "C" 
			},
			{
				"x": -0.5961586871,
				"y": 1.539428439,
				"z": 2.1668555688,
				"element": "C" 
			},
			{
				"x": -0.873636043,
				"y": 0.8748946522,
				"z": 0.7685033028,
				"element": "C" 
			},
			{
				"x": 0.288847181,
				"y": -0.0590582687,
				"z": 0.4396008485,
				"element": "C" 
			},
			{
				"x": 0.6337249761,
				"y": -1.2150031324,
				"z": 1.0270433152,
				"element": "C" 
			},
			{
				"x": 1.8515358456,
				"y": -2.0695526372,
				"z": 0.7133237479,
				"element": "C" 
			},
			{
				"x": 2.7962975345,
				"y": -1.9373438228,
				"z": 1.9410537309,
				"element": "C" 
			},
			{
				"x": 2.0194567603,
				"y": -2.7056131827,
				"z": 3.0532185766,
				"element": "C" 
			},
			{
				"x": 0.7411917522,
				"y": -3.2513175064,
				"z": 2.3279830858,
				"element": "C" 
			},
			{
				"x": -0.000074045,
				"y": -4.3497047901,
				"z": 3.0686026435,
				"element": "C" 
			},
			{
				"x": -0.0916218447,
				"y": -1.9831531847,
				"z": 2.0885041482,
				"element": "C" 
			},
			{
				"x": -1.1258703824,
				"y": -1.677761333,
				"z": 2.6597000589,
				"element": "O" 
			},
			{
				"x": 1.2814664094,
				"y": -3.5197687366,
				"z": 0.8731208585,
				"element": "C" 
			},
			{
				"x": 2.3433787454,
				"y": -4.6274859661,
				"z": 0.7872780712,
				"element": "C" 
			},
			{
				"x": 0.1741826945,
				"y": -3.8447607422,
				"z": -0.1447650992,
				"element": "C" 
			},
			{
				"x": -1.0255734904,
				"y": 1.9526375296,
				"z": -0.3070340841,
				"element": "C" 
			},
			{
				"x": -0.0893041882,
				"y": 2.6993055941,
				"z": -0.9095472441,
				"element": "C" 
			},
			{
				"x": 1.4235938159,
				"y": 2.8026761282,
				"z": -0.8231680211,
				"element": "C" 
			},
			{
				"x": 1.9741924868,
				"y": 2.2219776922,
				"z": -2.1603859611,
				"element": "C" 
			},
			{
				"x": 1.5447883839,
				"y": 3.2944382044,
				"z": -3.2077640426,
				"element": "C" 
			},
			{
				"x": 0.8438929445,
				"y": 4.4079582484,
				"z": -2.3594322137,
				"element": "C" 
			},
			{
				"x": 0.6626786636,
				"y": 5.7396435149,
				"z": -3.0655144168,
				"element": "C" 
			},
			{
				"x": -0.4728516819,
				"y": 3.7443420102,
				"z": -1.9250773319,
				"element": "C" 
			},
			{
				"x": -1.5900936945,
				"y": 4.0001080896,
				"z": -2.3335441789,
				"element": "O" 
			},
			{
				"x": 1.6494408417,
				"y": 4.3460281277,
				"z": -1.0106887314,
				"element": "C" 
			},
			{
				"x": 3.1300097922,
				"y": 4.7417527242,
				"z": -1.134365563,
				"element": "C" 
			},
			{
				"x": 1.0309840823,
				"y": 5.1950782772,
				"z": 0.1137548023,
				"element": "C" 
			},
			{
				"x": -2.2349010327,
				"y": 0.138760549,
				"z": 0.7941387491,
				"element": "C" 
			},
			{
				"x": -3.173877967,
				"y": 0.4447002689,
				"z": 1.4931757176,
				"element": "O" 
			},
			{
				"x": -2.306055113,
				"y": -0.8105766507,
				"z": -0.1636641198,
				"element": "O" 
			},
			{
				"x": -3.5871313075,
				"y": -1.477762389,
				"z": -0.27865725,
				"element": "C" 
			},
			{
				"x": -3.5465709438,
				"y": -2.3481062899,
				"z": -1.5203084721,
				"element": "C" 
			},
			{
				"x": -0.0179285205,
				"y": 3.6347718706,
				"z": 3.9316491019,
				"element": "H" 
			},
			{
				"x": -1.1461575006,
				"y": 2.5272514459,
				"z": 4.7249847176,
				"element": "H" 
			},
			{
				"x": -1.6880747664,
				"y": 4.1352675282,
				"z": 4.2293223118,
				"element": "H" 
			},
			{
				"x": -2.5219057104,
				"y": 2.4097006085,
				"z": 2.6081760168,
				"element": "H" 
			},
			{
				"x": -1.4077906679,
				"y": 3.5214563312,
				"z": 1.8221839135,
				"element": "H" 
			},
			{
				"x": -0.6780572398,
				"y": 0.7456195859,
				"z": 2.9149486713,
				"element": "H" 
			},
			{
				"x": 0.4511926688,
				"y": 1.8664978509,
				"z": 2.1551496038,
				"element": "H" 
			},
			{
				"x": 0.9400669961,
				"y": 0.2861580007,
				"z": -0.3581991449,
				"element": "H" 
			},
			{
				"x": 2.3227063853,
				"y": -1.8477359502,
				"z": -0.2486417359,
				"element": "H" 
			},
			{
				"x": 2.9722139525,
				"y": -0.8894683802,
				"z": 2.1984433103,
				"element": "H" 
			},
			{
				"x": 3.7713886258,
				"y": -2.3910973323,
				"z": 1.7412167895,
				"element": "H" 
			},
			{
				"x": 1.7526471462,
				"y": -2.0692999683,
				"z": 3.9026538963,
				"element": "H" 
			},
			{
				"x": 2.5996717069,
				"y": -3.5420048798,
				"z": 3.4548708248,
				"element": "H" 
			},
			{
				"x": -0.8617264312,
				"y": -4.7072433724,
				"z": 2.4963343118,
				"element": "H" 
			},
			{
				"x": -0.3824181986,
				"y": -3.972482602,
				"z": 4.0218579379,
				"element": "H" 
			},
			{
				"x": 0.65487547,
				"y": -5.2026485933,
				"z": 3.2739016601,
				"element": "H" 
			},
			{
				"x": 1.886208488,
				"y": -5.6083170017,
				"z": 0.9565493929,
				"element": "H" 
			},
			{
				"x": 3.1571958932,
				"y": -4.5168433668,
				"z": 1.5067125306,
				"element": "H" 
			},
			{
				"x": 2.7878287906,
				"y": -4.6448668483,
				"z": -0.2145151572,
				"element": "H" 
			},
			{
				"x": -0.2961217494,
				"y": -4.8065379235,
				"z": 0.0869101431,
				"element": "H" 
			},
			{
				"x": 0.5982078048,
				"y": -3.9229662908,
				"z": -1.1523480956,
				"element": "H" 
			},
			{
				"x": -0.6085889054,
				"y": -3.0825659945,
				"z": -0.1779043329,
				"element": "H" 
			},
			{
				"x": -2.0471578591,
				"y": 2.1907492659,
				"z": -0.6034825398,
				"element": "H" 
			},
			{
				"x": 1.8757412974,
				"y": 2.3793963143,
				"z": 0.0763012826,
				"element": "H" 
			},
			{
				"x": 1.5515253509,
				"y": 1.2377754526,
				"z": -2.3801998945,
				"element": "H" 
			},
			{
				"x": 3.06114522,
				"y": 2.1062998019,
				"z": -2.1211162702,
				"element": "H" 
			},
			{
				"x": 2.4059881399,
				"y": 3.7170235693,
				"z": -3.7345153008,
				"element": "H" 
			},
			{
				"x": 0.8711278109,
				"y": 2.8942727429,
				"z": -3.9715829643,
				"element": "H" 
			},
			{
				"x": 0.1988316663,
				"y": 6.4809890366,
				"z": -2.4075544708,
				"element": "H" 
			},
			{
				"x": 1.6200391333,
				"y": 6.1398936995,
				"z": -3.4150315492,
				"element": "H" 
			},
			{
				"x": 0.0028095511,
				"y": 5.6212990472,
				"z": -3.9302489406,
				"element": "H" 
			},
			{
				"x": 3.662390611,
				"y": 4.2219817692,
				"z": -1.9332345086,
				"element": "H" 
			},
			{
				"x": 3.2219890466,
				"y": 5.8165332101,
				"z": -1.3237429175,
				"element": "H" 
			},
			{
				"x": 3.6551818544,
				"y": 4.531422907,
				"z": -0.1954827318,
				"element": "H" 
			},
			{
				"x": -0.03386319,
				"y": 4.9990449056,
				"z": 0.2635507531,
				"element": "H" 
			},
			{
				"x": 1.5398987803,
				"y": 4.9992134106,
				"z": 1.0642606398,
				"element": "H" 
			},
			{
				"x": 1.1441751347,
				"y": 6.2625901641,
				"z": -0.1028319528,
				"element": "H" 
			},
			{
				"x": -4.3737746011,
				"y": -0.7200469185,
				"z": -0.3348951007,
				"element": "H" 
			},
			{
				"x": -3.753683053,
				"y": -2.0613541951,
				"z": 0.6321331965,
				"element": "H" 
			},
			{
				"x": -2.7654607276,
				"y": -3.1102505491,
				"z": -1.4476292621,
				"element": "H" 
			},
			{
				"x": -4.5083643289,
				"y": -2.8557049122,
				"z": -1.6451862058,
				"element": "H" 
			},
			{
				"x": -3.3582995163,
				"y": -1.7452774042,
				"z": -2.4134403707,
				"element": "H" 
			}
		],
		 "valence_orbital": [ 
			{
				"type": "occ",
				"energy": -0.266,
				"method": "rhf"
			},
			{
				"type": "occ",
				"energy": -0.25576,
				"method": "rhf"
			},
			{
				"type": "occ",
				"energy": -0.24732,
				"method": "rhf"
			},
			{
				"type": "occ",
				"energy": -0.2369,
				"method": "rhf"
			},
			{
				"type": "occ",
				"energy": -0.23218,
				"method": "rhf"
			},
			{
				"type": "unocc",
				"energy": -0.05674,
				"method": "rhf"
			},
			{
				"type": "unocc",
				"energy": -0.04609,
				"method": "rhf"
			},
			{
				"type": "unocc",
				"energy": 0.02302,
				"method": "rhf"
			},
			{
				"type": "unocc",
				"energy": 0.0607,
				"method": "rhf"
			},
			{
				"type": "unocc",
				"energy": 0.06468,
				"method": "rhf"
			}
		],
		"cosmo_sigma_profile": { 
			"-0.025": 0.0,
			"-0.024": 0.0,
			"-0.023": 0.0,
			"-0.022": 0.0,
			"-0.021": 0.0,
			"-0.02": 0.0,
			"-0.019": 0.0,
			"-0.018": 0.0,
			"-0.017": 0.0,
			"-0.016": 0.0,
			"-0.015": 0.0,
			"-0.014": 0.0,
			"-0.013": 0.0,
			"-0.012": 0.0,
			"-0.011": 0.0,
			"-0.01": 0.0,
			"-0.009": 0.0,
			"-0.008": 0.0,
			"-0.007": 0.0,
			"-0.006": 0.42999266703,
			"-0.005": 9.09765011667,
			"-0.004": 34.9775307359,
			"-0.003": 70.6565398641,
			"-0.002": 94.9631657566,
			"-0.001": 82.8839727707,
			"0.0": 80.197097867,
			"0.001": 62.2312655339,
			"0.002": 20.722536013,
			"0.003": 9.98486680682,
			"0.004": 6.08981938703,
			"0.005": 8.0852351356,
			"0.006": 6.16741071302,
			"0.007": 5.0208626354,
			"0.008": 5.42875281839,
			"0.009": 4.84859295028,
			"0.01": 5.95493522824,
			"0.011": 8.02723346028,
			"0.012": 10.7542480265,
			"0.013": 2.80128629031,
			"0.014": 0.0207001391674,
			"0.015": 0.0,
			"0.016": 0.0,
			"0.017": 0.0,
			"0.018": 0.0,
			"0.019": 0.0,
			"0.02": 0.0,
			"0.021": 0.0,
			"0.022": 0.0,
			"0.023": 0.0,
			"0.024": 0.0,
			"0.025": 0.0
		}
	}
}
