{
	 "smiles": "[O-][N+](=O)C1=CC=C(OC=O)C=C1", 
	 "Tm": 345.15, 
	 "num_atms": 17, 
	 "gaussian": { 
		 "optdone": 1, 
		 "sigma_profile": "yes", 
		 "theory": "DFT", 
		 "functional": "B3LYP", 
		 "basiset": "6-31G**", 
		 "properties": { 
			 "R2extent": 3068.156, 
			 "electric_dipole_moment_norm": 4.40994032839, 
			 "electric_quadrupole_moment_norm": 13.7878589545, 
			 "total_energy": -625.29463334, 
			 "HOMO_LUMO_gap": 0.19047, 
			 "cosmo_polarized_energy": -11.77, 
			 "cosmo_cavitation_energy": 23.48, 
			 "cosmo_dispersion_energy": -16.84, 
			 "cosmo_repulsion_energy": 1.35, 
			 "cosmo_total_nonelectrostatic_energy": 7.98, 
			 "SMD_solvation_energy": 8.45 
		},
		"coords": [
			{
				"x": 0.7159483854,
				"y": 3.1948305961,
				"z": -1.7386748665,
				"element": "O" 
			},
			{
				"x": 1.5310906739,
				"y": 2.3500645639,
				"z": -1.3706326541,
				"element": "N" 
			},
			{
				"x": 2.5544209958,
				"y": 2.0471401899,
				"z": -1.9826613253,
				"element": "O" 
			},
			{
				"x": 1.2629894398,
				"y": 1.6512615912,
				"z": -0.1038081283,
				"element": "C" 
			},
			{
				"x": 2.1699688874,
				"y": 0.6903780116,
				"z": 0.3403834684,
				"element": "C" 
			},
			{
				"x": 1.9158759645,
				"y": 0.0330453587,
				"z": 1.5402482757,
				"element": "C" 
			},
			{
				"x": 0.7662635593,
				"y": 0.3525690775,
				"z": 2.2614661063,
				"element": "C" 
			},
			{
				"x": 0.5511403207,
				"y": -0.2554082132,
				"z": 3.5003468937,
				"element": "O" 
			},
			{
				"x": -0.1684791552,
				"y": -1.4160780945,
				"z": 3.526941541,
				"element": "C" 
			},
			{
				"x": -0.6407728161,
				"y": -1.9724076726,
				"z": 2.5755405516,
				"element": "O" 
			},
			{
				"x": -0.1374486441,
				"y": 1.3147910227,
				"z": 1.8128126592,
				"element": "C" 
			},
			{
				"x": 0.1123586362,
				"y": 1.9748184962,
				"z": 0.6135219731,
				"element": "C" 
			},
			{
				"x": 3.049990234,
				"y": 0.4741594496,
				"z": -0.2518482265,
				"element": "H" 
			},
			{
				"x": 2.5989810652,
				"y": -0.7175262306,
				"z": 1.9218254598,
				"element": "H" 
			},
			{
				"x": -0.2359774344,
				"y": -1.746293726,
				"z": 4.5733260511,
				"element": "H" 
			},
			{
				"x": -1.0190299985,
				"y": 1.540956635,
				"z": 2.4020957948,
				"element": "H" 
			},
			{
				"x": -0.5618201139,
				"y": 2.7287989446,
				"z": 0.227616426,
				"element": "H" 
			}
		],
		 "valence_orbital": [ 
			{
				"type": "occ",
				"energy": -0.31275,
				"method": "rhf"
			},
			{
				"type": "occ",
				"energy": -0.30875,
				"method": "rhf"
			},
			{
				"type": "occ",
				"energy": -0.29609,
				"method": "rhf"
			},
			{
				"type": "occ",
				"energy": -0.29035,
				"method": "rhf"
			},
			{
				"type": "occ",
				"energy": -0.2853,
				"method": "rhf"
			},
			{
				"type": "unocc",
				"energy": -0.09483,
				"method": "rhf"
			},
			{
				"type": "unocc",
				"energy": -0.03999,
				"method": "rhf"
			},
			{
				"type": "unocc",
				"energy": -0.01964,
				"method": "rhf"
			},
			{
				"type": "unocc",
				"energy": -0.00703,
				"method": "rhf"
			},
			{
				"type": "unocc",
				"energy": 0.06741,
				"method": "rhf"
			}
		],
		"cosmo_sigma_profile": { 
			"-0.025": 0.0,
			"-0.024": 0.0,
			"-0.023": 0.0,
			"-0.022": 0.0,
			"-0.021": 0.0,
			"-0.02": 0.0,
			"-0.019": 0.0,
			"-0.018": 0.0,
			"-0.017": 0.0,
			"-0.016": 0.0,
			"-0.015": 0.0,
			"-0.014": 0.0,
			"-0.013": 0.0,
			"-0.012": 0.0,
			"-0.011": 0.653404304711,
			"-0.01": 3.23276845585,
			"-0.009": 3.94157174087,
			"-0.008": 9.37806903278,
			"-0.007": 10.3315336107,
			"-0.006": 11.734168366,
			"-0.005": 10.2920423182,
			"-0.004": 9.53921276254,
			"-0.003": 8.07380675448,
			"-0.002": 11.542684421,
			"-0.001": 14.2191693852,
			"0.0": 17.9737225886,
			"0.001": 11.360069787,
			"0.002": 7.68073434421,
			"0.003": 4.58989794715,
			"0.004": 5.39855020155,
			"0.005": 5.64117467563,
			"0.006": 7.43186829164,
			"0.007": 11.3405826654,
			"0.008": 8.37897721894,
			"0.009": 7.36096507708,
			"0.01": 7.06646854618,
			"0.011": 2.23544176863,
			"0.012": 0.0901487216158,
			"0.013": 0.0,
			"0.014": 0.0,
			"0.015": 0.0,
			"0.016": 0.0,
			"0.017": 0.0,
			"0.018": 0.0,
			"0.019": 0.0,
			"0.02": 0.0,
			"0.021": 0.0,
			"0.022": 0.0,
			"0.023": 0.0,
			"0.024": 0.0,
			"0.025": 0.0
		}
	}
}
