{
	 "smiles": "NC1=NC(Cl)=C(C=O)C(Cl)=N1", 
	 "Tm": 493.15, 
	 "num_atms": 14, 
	 "gaussian": { 
		 "optdone": 1, 
		 "sigma_profile": "yes", 
		 "theory": "DFT", 
		 "functional": "B3LYP", 
		 "basiset": "6-31G**", 
		 "properties": { 
			 "R2extent": 3313.612, 
			 "electric_dipole_moment_norm": 4.91281049095, 
			 "electric_quadrupole_moment_norm": 12.8120073806, 
			 "total_energy": -1352.19705337, 
			 "HOMO_LUMO_gap": 0.17965, 
			 "cosmo_polarized_energy": -13.39, 
			 "cosmo_cavitation_energy": 22.92, 
			 "cosmo_dispersion_energy": -17.58, 
			 "cosmo_repulsion_energy": 1.43, 
			 "cosmo_total_nonelectrostatic_energy": 6.77, 
			 "SMD_solvation_energy": 1.82 
		},
		"coords": [
			{
				"x": 2.5675433085,
				"y": -0.5907152729,
				"z": -0.4329890393,
				"element": "N" 
			},
			{
				"x": 1.2715510489,
				"y": -0.7330209209,
				"z": -0.7702337774,
				"element": "C" 
			},
			{
				"x": 0.8370563299,
				"y": -0.0447503731,
				"z": -1.8445332939,
				"element": "N" 
			},
			{
				"x": -0.432139637,
				"y": -0.1943920095,
				"z": -2.1616253361,
				"element": "C" 
			},
			{
				"x": -0.9384566519,
				"y": 0.7164117623,
				"z": -3.5552828661,
				"element": "Cl" 
			},
			{
				"x": -1.3444899459,
				"y": -1.0194185313,
				"z": -1.452819537,
				"element": "C" 
			},
			{
				"x": -2.7771654496,
				"y": -1.2099302158,
				"z": -1.7847029434,
				"element": "C" 
			},
			{
				"x": -3.368628902,
				"y": -0.6861397321,
				"z": -2.7081543194,
				"element": "O" 
			},
			{
				"x": -0.7350535192,
				"y": -1.6710328022,
				"z": -0.3549958114,
				"element": "C" 
			},
			{
				"x": -1.6729871007,
				"y": -2.7479296829,
				"z": 0.6739697142,
				"element": "Cl" 
			},
			{
				"x": 0.5233686713,
				"y": -1.5524371045,
				"z": -0.0015948067,
				"element": "N" 
			},
			{
				"x": 2.9301616602,
				"y": -1.08937299,
				"z": 0.3626518507,
				"element": "H" 
			},
			{
				"x": 3.1576265203,
				"y": 0.0112174166,
				"z": -0.9832845608,
				"element": "H" 
			},
			{
				"x": -3.3010863328,
				"y": -1.8986895436,
				"z": -1.0981052733,
				"element": "H" 
			}
		],
		 "valence_orbital": [ 
			{
				"type": "occ",
				"energy": -0.31989,
				"method": "rhf"
			},
			{
				"type": "occ",
				"energy": -0.30695,
				"method": "rhf"
			},
			{
				"type": "occ",
				"energy": -0.28808,
				"method": "rhf"
			},
			{
				"type": "occ",
				"energy": -0.26124,
				"method": "rhf"
			},
			{
				"type": "occ",
				"energy": -0.2541,
				"method": "rhf"
			},
			{
				"type": "unocc",
				"energy": -0.07445,
				"method": "rhf"
			},
			{
				"type": "unocc",
				"energy": -0.06037,
				"method": "rhf"
			},
			{
				"type": "unocc",
				"energy": 0.00059,
				"method": "rhf"
			},
			{
				"type": "unocc",
				"energy": 0.01969,
				"method": "rhf"
			},
			{
				"type": "unocc",
				"energy": 0.04268,
				"method": "rhf"
			}
		],
		"cosmo_sigma_profile": { 
			"-0.025": 0.0,
			"-0.024": 0.0,
			"-0.023": 0.0,
			"-0.022": 0.0,
			"-0.021": 0.0,
			"-0.02": 0.0,
			"-0.019": 0.0,
			"-0.018": 0.0,
			"-0.017": 0.0,
			"-0.016": 0.815404053886,
			"-0.015": 2.50931608884,
			"-0.014": 2.65305150439,
			"-0.013": 1.63224541387,
			"-0.012": 2.28701555347,
			"-0.011": 2.02636924955,
			"-0.01": 1.74120834278,
			"-0.009": 1.9906624892,
			"-0.008": 1.03412796014,
			"-0.007": 1.75335345804,
			"-0.006": 5.69530156373,
			"-0.005": 9.5380841812,
			"-0.004": 12.8949499907,
			"-0.003": 15.8809022207,
			"-0.002": 13.0468264686,
			"-0.001": 12.1057524931,
			"0.0": 14.2069139727,
			"0.001": 11.8326791819,
			"0.002": 14.6500242846,
			"0.003": 15.5341645187,
			"0.004": 8.32825581417,
			"0.005": 5.80484692259,
			"0.006": 4.09792669124,
			"0.007": 4.29071836907,
			"0.008": 4.63288566406,
			"0.009": 4.64002900068,
			"0.01": 5.13630977174,
			"0.011": 5.62911414069,
			"0.012": 2.74731054634,
			"0.013": 0.240380916327,
			"0.014": 0.0,
			"0.015": 0.0,
			"0.016": 0.0,
			"0.017": 0.0,
			"0.018": 0.0,
			"0.019": 0.0,
			"0.02": 0.0,
			"0.021": 0.0,
			"0.022": 0.0,
			"0.023": 0.0,
			"0.024": 0.0,
			"0.025": 0.0
		}
	}
}
