{
	 "smiles": "OC(=O)C=C/C(=O)NC1=C(Cl)C=C(Cl)C=C1", 
	 "Tm": 451.65, 
	 "num_atms": 23, 
	 "gaussian": { 
		 "optdone": 1, 
		 "sigma_profile": "yes", 
		 "theory": "DFT", 
		 "functional": "B3LYP", 
		 "basiset": "6-31G**", 
		 "properties": { 
			 "R2extent": 6516.345, 
			 "electric_dipole_moment_norm": 2.94463004128, 
			 "electric_quadrupole_moment_norm": 19.7480353111, 
			 "total_energy": -1586.08592437, 
			 "HOMO_LUMO_gap": 0.16706, 
			 "cosmo_polarized_energy": -17.07, 
			 "cosmo_cavitation_energy": 32.84, 
			 "cosmo_dispersion_energy": -23.39, 
			 "cosmo_repulsion_energy": 1.87, 
			 "cosmo_total_nonelectrostatic_energy": 11.32, 
			 "SMD_solvation_energy": 6.97 
		},
		"coords": [
			{
				"x": -2.2190898486,
				"y": 1.0626767728,
				"z": -3.9413986084,
				"element": "O" 
			},
			{
				"x": -1.1341037964,
				"y": 0.8483209611,
				"z": -4.7140441682,
				"element": "C" 
			},
			{
				"x": -0.9945423902,
				"y": 1.3185858846,
				"z": -5.8218013254,
				"element": "O" 
			},
			{
				"x": -0.1487841641,
				"y": -0.0897441195,
				"z": -4.1020057973,
				"element": "C" 
			},
			{
				"x": 0.2968569993,
				"y": -0.0659374919,
				"z": -2.8398460887,
				"element": "C" 
			},
			{
				"x": -0.0378151079,
				"y": 1.0015488715,
				"z": -1.8458061747,
				"element": "C" 
			},
			{
				"x": -0.1714574367,
				"y": 2.1745331376,
				"z": -2.1591674061,
				"element": "O" 
			},
			{
				"x": -0.0865493136,
				"y": 0.6285405596,
				"z": -0.5107326373,
				"element": "N" 
			},
			{
				"x": -0.1341829976,
				"y": -0.646242532,
				"z": 0.0691917975,
				"element": "C" 
			},
			{
				"x": 0.4539848284,
				"y": -0.8733427475,
				"z": 1.329184108,
				"element": "C" 
			},
			{
				"x": 1.2622631444,
				"y": 0.4436829417,
				"z": 2.1614408282,
				"element": "Cl" 
			},
			{
				"x": 0.4079258382,
				"y": -2.1207806832,
				"z": 1.9451092236,
				"element": "C" 
			},
			{
				"x": -0.2270438612,
				"y": -3.1748390435,
				"z": 1.2908684954,
				"element": "C" 
			},
			{
				"x": -0.2746334544,
				"y": -4.7528033911,
				"z": 2.0523818083,
				"element": "Cl" 
			},
			{
				"x": -0.8317566594,
				"y": -2.9830987033,
				"z": 0.049808968,
				"element": "C" 
			},
			{
				"x": -0.7993741164,
				"y": -1.7229530875,
				"z": -0.5401042209,
				"element": "C" 
			},
			{
				"x": -2.7608654762,
				"y": 1.7218992674,
				"z": -4.4073631568,
				"element": "H" 
			},
			{
				"x": 0.2593698119,
				"y": -0.8120051571,
				"z": -4.8032342053,
				"element": "H" 
			},
			{
				"x": 1.0219628734,
				"y": -0.8126021909,
				"z": -2.5241538746,
				"element": "H" 
			},
			{
				"x": -0.0914906059,
				"y": 1.4246572932,
				"z": 0.1163459616,
				"element": "H" 
			},
			{
				"x": 0.8693904671,
				"y": -2.2655476893,
				"z": 2.9141093509,
				"element": "H" 
			},
			{
				"x": -1.3461153094,
				"y": -3.8025083352,
				"z": -0.438905944,
				"element": "H" 
			},
			{
				"x": -1.3125494245,
				"y": -1.5591405175,
				"z": -1.4804769337,
				"element": "H" 
			}
		],
		 "valence_orbital": [ 
			{
				"type": "occ",
				"energy": -0.30448,
				"method": "rhf"
			},
			{
				"type": "occ",
				"energy": -0.28061,
				"method": "rhf"
			},
			{
				"type": "occ",
				"energy": -0.27731,
				"method": "rhf"
			},
			{
				"type": "occ",
				"energy": -0.27135,
				"method": "rhf"
			},
			{
				"type": "occ",
				"energy": -0.24185,
				"method": "rhf"
			},
			{
				"type": "unocc",
				"energy": -0.07479,
				"method": "rhf"
			},
			{
				"type": "unocc",
				"energy": -0.04058,
				"method": "rhf"
			},
			{
				"type": "unocc",
				"energy": -0.0329,
				"method": "rhf"
			},
			{
				"type": "unocc",
				"energy": -0.00662,
				"method": "rhf"
			},
			{
				"type": "unocc",
				"energy": 0.0196,
				"method": "rhf"
			}
		],
		"cosmo_sigma_profile": { 
			"-0.025": 0.0,
			"-0.024": 0.0,
			"-0.023": 0.0,
			"-0.022": 0.0,
			"-0.021": 0.0,
			"-0.02": 0.0,
			"-0.019": 0.277553965645,
			"-0.018": 1.01682695494,
			"-0.017": 1.2098344571,
			"-0.016": 0.52325346283,
			"-0.015": 0.483995106589,
			"-0.014": 0.600121008403,
			"-0.013": 1.35505040138,
			"-0.012": 1.90004284176,
			"-0.011": 1.22200352885,
			"-0.01": 1.68900530444,
			"-0.009": 3.64961605774,
			"-0.008": 10.197918975,
			"-0.007": 12.1143364533,
			"-0.006": 10.236124682,
			"-0.005": 11.8439858584,
			"-0.004": 11.6356745158,
			"-0.003": 12.4138512169,
			"-0.002": 15.3630653578,
			"-0.001": 19.6119446118,
			"0.0": 25.0034194324,
			"0.001": 26.2036504673,
			"0.002": 20.2645793569,
			"0.003": 16.8539034539,
			"0.004": 17.7552438744,
			"0.005": 6.07124252176,
			"0.006": 5.11728446563,
			"0.007": 3.36614480458,
			"0.008": 4.41790171752,
			"0.009": 4.19353792841,
			"0.01": 3.90191540442,
			"0.011": 8.21466927928,
			"0.012": 7.4697028678,
			"0.013": 1.836700942,
			"0.014": 0.00399241597674,
			"0.015": 0.0,
			"0.016": 0.0,
			"0.017": 0.0,
			"0.018": 0.0,
			"0.019": 0.0,
			"0.02": 0.0,
			"0.021": 0.0,
			"0.022": 0.0,
			"0.023": 0.0,
			"0.024": 0.0,
			"0.025": 0.0
		}
	}
}
