{
	 "smiles": "CCC(C1CCC(CC1)OC)C(=O)NC1=CC=C(C)C=C1", 
	 "Tm": 417.15, 
	 "num_atms": 48, 
	 "gaussian": { 
		 "optdone": 1, 
		 "sigma_profile": "yes", 
		 "theory": "DFT", 
		 "functional": "B3LYP", 
		 "basiset": "6-31G**", 
		 "properties": { 
			 "R2extent": 9287.987, 
			 "electric_dipole_moment_norm": 3.41832566763, 
			 "electric_quadrupole_moment_norm": 14.9754850028, 
			 "total_energy": -907.410779896, 
			 "HOMO_LUMO_gap": 0.20394, 
			 "cosmo_polarized_energy": -14.98, 
			 "cosmo_cavitation_energy": 46.89, 
			 "cosmo_dispersion_energy": -32.41, 
			 "cosmo_repulsion_energy": 2.51, 
			 "cosmo_total_nonelectrostatic_energy": 16.99, 
			 "SMD_solvation_energy": 8.19 
		},
		"coords": [
			{
				"x": -1.9104982372,
				"y": 2.5759854331,
				"z": 3.1192828834,
				"element": "C" 
			},
			{
				"x": -1.2035385727,
				"y": 1.96466863,
				"z": 1.9002758628,
				"element": "C" 
			},
			{
				"x": -1.2139418149,
				"y": 0.4152846192,
				"z": 1.8617847904,
				"element": "C" 
			},
			{
				"x": -0.0489396147,
				"y": -0.3133550159,
				"z": 2.604143726,
				"element": "C" 
			},
			{
				"x": 1.3455914693,
				"y": -0.0844287892,
				"z": 1.9640278983,
				"element": "C" 
			},
			{
				"x": 2.5071152745,
				"y": -0.3291620378,
				"z": 2.9555752097,
				"element": "C" 
			},
			{
				"x": 2.1775325475,
				"y": -1.4296219918,
				"z": 3.9632531732,
				"element": "C" 
			},
			{
				"x": 0.9548342739,
				"y": -1.0239951777,
				"z": 4.8263702381,
				"element": "C" 
			},
			{
				"x": 0.0158029271,
				"y": -0.02446228,
				"z": 4.1140103946,
				"element": "C" 
			},
			{
				"x": 1.9355023197,
				"y": -2.6161028641,
				"z": 3.2025895536,
				"element": "O" 
			},
			{
				"x": 2.0463999831,
				"y": -3.81670627,
				"z": 3.9352579128,
				"element": "C" 
			},
			{
				"x": -1.3209220142,
				"y": -0.2028290812,
				"z": 0.4550940311,
				"element": "C" 
			},
			{
				"x": -1.8548741558,
				"y": -1.2943139042,
				"z": 0.2976462525,
				"element": "O" 
			},
			{
				"x": -0.7514756959,
				"y": 0.5202774325,
				"z": -0.5701449157,
				"element": "N" 
			},
			{
				"x": -0.6502715057,
				"y": 0.1941838787,
				"z": -1.940661682,
				"element": "C" 
			},
			{
				"x": 0.0001147624,
				"y": 1.1139206026,
				"z": -2.777512589,
				"element": "C" 
			},
			{
				"x": 0.1392715203,
				"y": 0.8595748829,
				"z": -4.1383738812,
				"element": "C" 
			},
			{
				"x": -0.3653448949,
				"y": -0.3138946972,
				"z": -4.7130233842,
				"element": "C" 
			},
			{
				"x": -0.2436220841,
				"y": -0.5757965205,
				"z": -6.195778075,
				"element": "C" 
			},
			{
				"x": -1.0082740105,
				"y": -1.222736087,
				"z": -3.8636995469,
				"element": "C" 
			},
			{
				"x": -1.1584738595,
				"y": -0.9892145033,
				"z": -2.4973744124,
				"element": "C" 
			},
			{
				"x": -2.9512527652,
				"y": 2.2382560299,
				"z": 3.1725868054,
				"element": "H" 
			},
			{
				"x": -1.42636153,
				"y": 2.3079083803,
				"z": 4.060894252,
				"element": "H" 
			},
			{
				"x": -1.9200787993,
				"y": 3.6688243952,
				"z": 3.0501937044,
				"element": "H" 
			},
			{
				"x": -1.7157135339,
				"y": 2.3451965755,
				"z": 1.00776543,
				"element": "H" 
			},
			{
				"x": -0.1754894314,
				"y": 2.3486771662,
				"z": 1.8497165883,
				"element": "H" 
			},
			{
				"x": -2.1396420152,
				"y": 0.0773929902,
				"z": 2.3430572822,
				"element": "H" 
			},
			{
				"x": -0.2737167991,
				"y": -1.3808078484,
				"z": 2.4996779414,
				"element": "H" 
			},
			{
				"x": 1.4557176664,
				"y": -0.7491720758,
				"z": 1.1030767564,
				"element": "H" 
			},
			{
				"x": 1.435066274,
				"y": 0.9404188962,
				"z": 1.5812468794,
				"element": "H" 
			},
			{
				"x": 3.4204277272,
				"y": -0.5884001263,
				"z": 2.4108273501,
				"element": "H" 
			},
			{
				"x": 2.7231542678,
				"y": 0.5859531638,
				"z": 3.5210857497,
				"element": "H" 
			},
			{
				"x": 3.0462402934,
				"y": -1.6048389016,
				"z": 4.6185758109,
				"element": "H" 
			},
			{
				"x": 0.3987040559,
				"y": -1.931157634,
				"z": 5.0873710397,
				"element": "H" 
			},
			{
				"x": 1.3010085561,
				"y": -0.5917255453,
				"z": 5.7729246915,
				"element": "H" 
			},
			{
				"x": 0.375916925,
				"y": 0.9987112355,
				"z": 4.2823609717,
				"element": "H" 
			},
			{
				"x": -0.9835013829,
				"y": -0.0778269666,
				"z": 4.5611043966,
				"element": "H" 
			},
			{
				"x": 3.0454728334,
				"y": -3.9250299323,
				"z": 4.3874120592,
				"element": "H" 
			},
			{
				"x": 1.8865144603,
				"y": -4.6378433359,
				"z": 3.2320410385,
				"element": "H" 
			},
			{
				"x": 1.2982380916,
				"y": -3.8988358517,
				"z": 4.7382623026,
				"element": "H" 
			},
			{
				"x": -0.320241441,
				"y": 1.3956516241,
				"z": -0.3127312008,
				"element": "H" 
			},
			{
				"x": 0.404757425,
				"y": 2.0329654333,
				"z": -2.3578993297,
				"element": "H" 
			},
			{
				"x": 0.6512840686,
				"y": 1.5875294228,
				"z": -4.7630980892,
				"element": "H" 
			},
			{
				"x": 0.636971782,
				"y": -0.082668673,
				"z": -6.6192169908,
				"element": "H" 
			},
			{
				"x": -0.1640762704,
				"y": -1.6466298001,
				"z": -6.4075702402,
				"element": "H" 
			},
			{
				"x": -1.1190241075,
				"y": -0.2021676226,
				"z": -6.7425614704,
				"element": "H" 
			},
			{
				"x": -1.4048839561,
				"y": -2.1469542602,
				"z": -4.2777243978,
				"element": "H" 
			},
			{
				"x": -1.6543810124,
				"y": -1.7045029982,
				"z": -1.8571227711,
				"element": "H" 
			}
		],
		 "valence_orbital": [ 
			{
				"type": "occ",
				"energy": -0.28588,
				"method": "rhf"
			},
			{
				"type": "occ",
				"energy": -0.24612,
				"method": "rhf"
			},
			{
				"type": "occ",
				"energy": -0.24313,
				"method": "rhf"
			},
			{
				"type": "occ",
				"energy": -0.23838,
				"method": "rhf"
			},
			{
				"type": "occ",
				"energy": -0.20709,
				"method": "rhf"
			},
			{
				"type": "unocc",
				"energy": -0.00315,
				"method": "rhf"
			},
			{
				"type": "unocc",
				"energy": 0.00549,
				"method": "rhf"
			},
			{
				"type": "unocc",
				"energy": 0.05256,
				"method": "rhf"
			},
			{
				"type": "unocc",
				"energy": 0.06612,
				"method": "rhf"
			},
			{
				"type": "unocc",
				"energy": 0.08103,
				"method": "rhf"
			}
		],
		"cosmo_sigma_profile": { 
			"-0.025": 0.0,
			"-0.024": 0.0,
			"-0.023": 0.0,
			"-0.022": 0.0,
			"-0.021": 0.0,
			"-0.02": 0.0,
			"-0.019": 0.0,
			"-0.018": 0.0,
			"-0.017": 0.0,
			"-0.016": 0.0,
			"-0.015": 0.0,
			"-0.014": 0.0276621883316,
			"-0.013": 0.595660988042,
			"-0.012": 1.44950366582,
			"-0.011": 1.44908854896,
			"-0.01": 1.58967721985,
			"-0.009": 1.89590669953,
			"-0.008": 1.65281087446,
			"-0.007": 2.32582971675,
			"-0.006": 2.65643238918,
			"-0.005": 8.14732203339,
			"-0.004": 20.6220653111,
			"-0.003": 47.1463647803,
			"-0.002": 60.5770956308,
			"-0.001": 50.1892107509,
			"0.0": 42.0665489778,
			"0.001": 29.9947568895,
			"0.002": 15.5810471834,
			"0.003": 13.1367331008,
			"0.004": 12.6659951669,
			"0.005": 12.8326713017,
			"0.006": 12.6009697049,
			"0.007": 4.57975527298,
			"0.008": 3.20790208053,
			"0.009": 2.65792881964,
			"0.01": 3.26084870679,
			"0.011": 2.79482460451,
			"0.012": 3.05161445529,
			"0.013": 3.25237812349,
			"0.014": 2.22026138807,
			"0.015": 0.573530044318,
			"0.016": 0.0,
			"0.017": 0.0,
			"0.018": 0.0,
			"0.019": 0.0,
			"0.02": 0.0,
			"0.021": 0.0,
			"0.022": 0.0,
			"0.023": 0.0,
			"0.024": 0.0,
			"0.025": 0.0
		}
	}
}
