{
	 "smiles": "CCNC(=O)C=C(/C)C=CC=C(/C)C=CC1=C(C)C(C)=C(OC)C=C1C", 
	 "Tm": 453.15, 
	 "num_atms": 57, 
	 "gaussian": { 
		 "optdone": 1, 
		 "sigma_profile": "yes", 
		 "theory": "DFT", 
		 "functional": "B3LYP", 
		 "basiset": "6-31G**", 
		 "properties": { 
			 "R2extent": 21888.6165, 
			 "electric_dipole_moment_norm": 4.79108505143, 
			 "electric_quadrupole_moment_norm": 36.2961744681, 
			 "total_energy": -1100.3123605, 
			 "HOMO_LUMO_gap": 0.11706, 
			 "cosmo_polarized_energy": -16.61, 
			 "cosmo_cavitation_energy": 58.82, 
			 "cosmo_dispersion_energy": -40.52, 
			 "cosmo_repulsion_energy": 3.14, 
			 "cosmo_total_nonelectrostatic_energy": 21.44, 
			 "SMD_solvation_energy": 11.01 
		},
		"coords": [
			{
				"x": -1.2788573427,
				"y": -5.2163212462,
				"z": 5.4168016814,
				"element": "C" 
			},
			{
				"x": -2.5239869353,
				"y": -4.431483807,
				"z": 5.8483706065,
				"element": "C" 
			},
			{
				"x": -2.2787876281,
				"y": -3.4472756432,
				"z": 6.8950403434,
				"element": "N" 
			},
			{
				"x": -1.6710417013,
				"y": -2.2081728128,
				"z": 6.8187516252,
				"element": "C" 
			},
			{
				"x": -1.3874774054,
				"y": -1.6240540823,
				"z": 7.8691508173,
				"element": "O" 
			},
			{
				"x": -1.439443509,
				"y": -1.6735544084,
				"z": 5.4582122903,
				"element": "C" 
			},
			{
				"x": -0.830745312,
				"y": -0.5011782941,
				"z": 5.1214590686,
				"element": "C" 
			},
			{
				"x": -0.2664711245,
				"y": 0.4773894405,
				"z": 6.1224974673,
				"element": "C" 
			},
			{
				"x": -0.7219980208,
				"y": -0.1837791205,
				"z": 3.7048245309,
				"element": "C" 
			},
			{
				"x": -0.1517764372,
				"y": 0.9310840407,
				"z": 3.1764367273,
				"element": "C" 
			},
			{
				"x": -0.0752028994,
				"y": 1.1821133778,
				"z": 1.761191347,
				"element": "C" 
			},
			{
				"x": 0.4615135521,
				"y": 2.2728211999,
				"z": 1.1416276509,
				"element": "C" 
			},
			{
				"x": 1.0115262777,
				"y": 3.470394143,
				"z": 1.8823645803,
				"element": "C" 
			},
			{
				"x": 0.5301517471,
				"y": 2.3676995329,
				"z": -0.3183886651,
				"element": "C" 
			},
			{
				"x": 0.6198704308,
				"y": 1.3265455322,
				"z": -1.1787732132,
				"element": "C" 
			},
			{
				"x": 0.6602317972,
				"y": 1.3724535645,
				"z": -2.6484106458,
				"element": "C" 
			},
			{
				"x": 1.5056910925,
				"y": 0.4437552798,
				"z": -3.3236974525,
				"element": "C" 
			},
			{
				"x": 2.3708159119,
				"y": -0.4938507709,
				"z": -2.5048785056,
				"element": "C" 
			},
			{
				"x": 1.5670725134,
				"y": 0.3961571652,
				"z": -4.7227592436,
				"element": "C" 
			},
			{
				"x": 2.4504429203,
				"y": -0.5870044382,
				"z": -5.4614116374,
				"element": "C" 
			},
			{
				"x": 0.7715707005,
				"y": 1.3005063301,
				"z": -5.4587545804,
				"element": "C" 
			},
			{
				"x": 0.8710644468,
				"y": 1.2217478261,
				"z": -6.8219533465,
				"element": "O" 
			},
			{
				"x": 0.0915405248,
				"y": 2.100097415,
				"z": -7.6152140401,
				"element": "C" 
			},
			{
				"x": -0.0650529865,
				"y": 2.2046377112,
				"z": -4.8071683792,
				"element": "C" 
			},
			{
				"x": -0.1370546025,
				"y": 2.256200478,
				"z": -3.4112230308,
				"element": "C" 
			},
			{
				"x": -1.1085979872,
				"y": 3.2434627498,
				"z": -2.8018322209,
				"element": "C" 
			},
			{
				"x": -0.8394746306,
				"y": -5.7469908021,
				"z": 6.2674719323,
				"element": "H" 
			},
			{
				"x": -1.5339514764,
				"y": -5.9539510975,
				"z": 4.6479513182,
				"element": "H" 
			},
			{
				"x": -0.5167057674,
				"y": -4.5450329147,
				"z": 5.009537276,
				"element": "H" 
			},
			{
				"x": -2.9820889815,
				"y": -3.9394616382,
				"z": 4.9842730631,
				"element": "H" 
			},
			{
				"x": -3.2825661585,
				"y": -5.1216822006,
				"z": 6.2331103277,
				"element": "H" 
			},
			{
				"x": -2.3426649378,
				"y": -3.7643466854,
				"z": 7.8536954897,
				"element": "H" 
			},
			{
				"x": -1.7954946869,
				"y": -2.2855072479,
				"z": 4.6348839699,
				"element": "H" 
			},
			{
				"x": -0.7569365317,
				"y": 1.4520828381,
				"z": 6.0138096162,
				"element": "H" 
			},
			{
				"x": 0.8024689072,
				"y": 0.635009748,
				"z": 5.9360337854,
				"element": "H" 
			},
			{
				"x": -0.4095541855,
				"y": 0.1175440243,
				"z": 7.1381837223,
				"element": "H" 
			},
			{
				"x": -1.1408637855,
				"y": -0.917969424,
				"z": 3.0162714918,
				"element": "H" 
			},
			{
				"x": 0.2738081545,
				"y": 1.6681714217,
				"z": 3.8510303121,
				"element": "H" 
			},
			{
				"x": -0.5102899657,
				"y": 0.4119040955,
				"z": 1.1260467391,
				"element": "H" 
			},
			{
				"x": 0.8121866523,
				"y": 3.4448259585,
				"z": 2.95434791,
				"element": "H" 
			},
			{
				"x": 2.0965681081,
				"y": 3.5532860141,
				"z": 1.7413277907,
				"element": "H" 
			},
			{
				"x": 0.5738255097,
				"y": 4.3944507911,
				"z": 1.4851956688,
				"element": "H" 
			},
			{
				"x": 0.5712593508,
				"y": 3.379529973,
				"z": -0.7166106883,
				"element": "H" 
			},
			{
				"x": 0.7132619829,
				"y": 0.3351006328,
				"z": -0.7393448396,
				"element": "H" 
			},
			{
				"x": 1.7782955348,
				"y": -1.3039178949,
				"z": -2.0581821267,
				"element": "H" 
			},
			{
				"x": 2.85979763,
				"y": 0.0342368761,
				"z": -1.6814843175,
				"element": "H" 
			},
			{
				"x": 3.1501618551,
				"y": -0.9617285382,
				"z": -3.1062528249,
				"element": "H" 
			},
			{
				"x": 3.5143523013,
				"y": -0.3863958802,
				"z": -5.2856633612,
				"element": "H" 
			},
			{
				"x": 2.2773619273,
				"y": -0.5281599175,
				"z": -6.5352335121,
				"element": "H" 
			},
			{
				"x": 2.2589284454,
				"y": -1.6176305086,
				"z": -5.1444168644,
				"element": "H" 
			},
			{
				"x": 0.3348768165,
				"y": 1.8639709522,
				"z": -8.6525646688,
				"element": "H" 
			},
			{
				"x": -0.9836100274,
				"y": 1.9480233149,
				"z": -7.4543560091,
				"element": "H" 
			},
			{
				"x": 0.3367653013,
				"y": 3.1516761468,
				"z": -7.4181580498,
				"element": "H" 
			},
			{
				"x": -0.6901159203,
				"y": 2.8797139899,
				"z": -5.3799240902,
				"element": "H" 
			},
			{
				"x": -1.5721597264,
				"y": 2.8526511665,
				"z": -1.8926751741,
				"element": "H" 
			},
			{
				"x": -1.900606825,
				"y": 3.4867449053,
				"z": -3.516448064,
				"element": "H" 
			},
			{
				"x": -0.6206328937,
				"y": 4.1881607378,
				"z": -2.5320195983,
				"element": "H" 
			}
		],
		 "valence_orbital": [ 
			{
				"type": "occ",
				"energy": -0.23735,
				"method": "rhf"
			},
			{
				"type": "occ",
				"energy": -0.23108,
				"method": "rhf"
			},
			{
				"type": "occ",
				"energy": -0.22959,
				"method": "rhf"
			},
			{
				"type": "occ",
				"energy": -0.21534,
				"method": "rhf"
			},
			{
				"type": "occ",
				"energy": -0.18508,
				"method": "rhf"
			},
			{
				"type": "unocc",
				"energy": -0.06802,
				"method": "rhf"
			},
			{
				"type": "unocc",
				"energy": -0.01777,
				"method": "rhf"
			},
			{
				"type": "unocc",
				"energy": 0.00449,
				"method": "rhf"
			},
			{
				"type": "unocc",
				"energy": 0.02676,
				"method": "rhf"
			},
			{
				"type": "unocc",
				"energy": 0.06374,
				"method": "rhf"
			}
		],
		"cosmo_sigma_profile": { 
			"-0.025": 0.0,
			"-0.024": 0.0,
			"-0.023": 0.0,
			"-0.022": 0.0,
			"-0.021": 0.0,
			"-0.02": 0.0,
			"-0.019": 0.0,
			"-0.018": 0.0,
			"-0.017": 0.0,
			"-0.016": 0.0,
			"-0.015": 0.0,
			"-0.014": 0.0,
			"-0.013": 0.339323275306,
			"-0.012": 1.19245930322,
			"-0.011": 0.957903694952,
			"-0.01": 0.810765780864,
			"-0.009": 0.778500797296,
			"-0.008": 1.11988540261,
			"-0.007": 2.07757378176,
			"-0.006": 9.36428922927,
			"-0.005": 26.4763675552,
			"-0.004": 46.4490922983,
			"-0.003": 50.2812248802,
			"-0.002": 50.4250135567,
			"-0.001": 43.9799812011,
			"0.0": 47.9675852464,
			"0.001": 42.4536361007,
			"0.002": 24.6430228772,
			"0.003": 25.1984178985,
			"0.004": 26.5888597428,
			"0.005": 23.1167127364,
			"0.006": 14.3334086126,
			"0.007": 5.41627731643,
			"0.008": 2.8599396018,
			"0.009": 2.09149845205,
			"0.01": 1.66977567447,
			"0.011": 1.43298362261,
			"0.012": 1.64809571741,
			"0.013": 2.32252317362,
			"0.014": 3.50028240863,
			"0.015": 2.88749250157,
			"0.016": 0.160514242938,
			"0.017": 0.0,
			"0.018": 0.0,
			"0.019": 0.0,
			"0.02": 0.0,
			"0.021": 0.0,
			"0.022": 0.0,
			"0.023": 0.0,
			"0.024": 0.0,
			"0.025": 0.0
		}
	}
}
