{
	 "smiles": "SCCCS", 
	 "Tm": 194.15, 
	 "num_atms": 13, 
	 "gaussian": { 
		 "optdone": 1, 
		 "sigma_profile": "yes", 
		 "theory": "DFT", 
		 "functional": "B3LYP", 
		 "basiset": "6-31G**", 
		 "properties": { 
			 "R2extent": 965.1104, 
			 "electric_dipole_moment_norm": 1.65858981065, 
			 "electric_quadrupole_moment_norm": 8.88775392267, 
			 "total_energy": -915.515572303, 
			 "HOMO_LUMO_gap": 0.2556, 
			 "cosmo_polarized_energy": -6.54, 
			 "cosmo_cavitation_energy": 18.66, 
			 "cosmo_dispersion_energy": -14.83, 
			 "cosmo_repulsion_energy": 1.2, 
			 "cosmo_total_nonelectrostatic_energy": 5.03, 
			 "SMD_solvation_energy": 2.12 
		},
		"coords": [
			{
				"x": -0.540207947,
				"y": 0.4095505432,
				"z": 1.8002432017,
				"element": "S" 
			},
			{
				"x": 0.8712478079,
				"y": 1.1932430615,
				"z": 0.8926944458,
				"element": "C" 
			},
			{
				"x": 1.5624453997,
				"y": 0.1785956686,
				"z": -0.0204882589,
				"element": "C" 
			},
			{
				"x": 0.6797925652,
				"y": -0.4550966065,
				"z": -1.1031727039,
				"element": "C" 
			},
			{
				"x": -0.0839365219,
				"y": 0.7302473378,
				"z": -2.2924718771,
				"element": "S" 
			},
			{
				"x": -0.9377816694,
				"y": 1.518043365,
				"z": 2.4549567366,
				"element": "H" 
			},
			{
				"x": 0.4921504319,
				"y": 2.0306195278,
				"z": 0.3018704431,
				"element": "H" 
			},
			{
				"x": 1.5876343405,
				"y": 1.5770858642,
				"z": 1.622720634,
				"element": "H" 
			},
			{
				"x": 2.4046645746,
				"y": 0.6912589501,
				"z": -0.4998366401,
				"element": "H" 
			},
			{
				"x": 1.9861170967,
				"y": -0.6317786169,
				"z": 0.5877188837,
				"element": "H" 
			},
			{
				"x": -0.1174200238,
				"y": -1.0614852415,
				"z": -0.6671130765,
				"element": "H" 
			},
			{
				"x": 1.2856144475,
				"y": -1.1183206993,
				"z": -1.7264202518,
				"element": "H" 
			},
			{
				"x": -1.0857205018,
				"y": 1.1400368459,
				"z": -1.4886015367,
				"element": "H" 
			}
		],
		 "valence_orbital": [ 
			{
				"type": "occ",
				"energy": -0.35336,
				"method": "rhf"
			},
			{
				"type": "occ",
				"energy": -0.33145,
				"method": "rhf"
			},
			{
				"type": "occ",
				"energy": -0.31988,
				"method": "rhf"
			},
			{
				"type": "occ",
				"energy": -0.24222,
				"method": "rhf"
			},
			{
				"type": "occ",
				"energy": -0.2386,
				"method": "rhf"
			},
			{
				"type": "unocc",
				"energy": 0.017,
				"method": "rhf"
			},
			{
				"type": "unocc",
				"energy": 0.03461,
				"method": "rhf"
			},
			{
				"type": "unocc",
				"energy": 0.06457,
				"method": "rhf"
			},
			{
				"type": "unocc",
				"energy": 0.06681,
				"method": "rhf"
			},
			{
				"type": "unocc",
				"energy": 0.10246,
				"method": "rhf"
			}
		],
		"cosmo_sigma_profile": { 
			"-0.025": 0.0,
			"-0.024": 0.0,
			"-0.023": 0.0,
			"-0.022": 0.0,
			"-0.021": 0.0,
			"-0.02": 0.0,
			"-0.019": 0.0,
			"-0.018": 0.0,
			"-0.017": 0.0,
			"-0.016": 0.0,
			"-0.015": 0.0,
			"-0.014": 0.0,
			"-0.013": 0.0,
			"-0.012": 0.0,
			"-0.011": 0.0,
			"-0.01": 0.0,
			"-0.009": 1.60704671253,
			"-0.008": 2.96184940079,
			"-0.007": 3.13473219012,
			"-0.006": 4.54982868036,
			"-0.005": 10.0438811384,
			"-0.004": 18.0069072696,
			"-0.003": 19.8753171573,
			"-0.002": 16.3462950672,
			"-0.001": 11.1382464198,
			"0.0": 5.95547472099,
			"0.001": 5.61469859724,
			"0.002": 5.7814126178,
			"0.003": 4.51058748173,
			"0.004": 6.83099452584,
			"0.005": 6.541781341,
			"0.006": 6.88071307512,
			"0.007": 5.31821307827,
			"0.008": 4.19006120811,
			"0.009": 4.9636250275,
			"0.01": 3.69974283376,
			"0.011": 2.20354208794,
			"0.012": 0.219644998693,
			"0.013": 0.0,
			"0.014": 0.0,
			"0.015": 0.0,
			"0.016": 0.0,
			"0.017": 0.0,
			"0.018": 0.0,
			"0.019": 0.0,
			"0.02": 0.0,
			"0.021": 0.0,
			"0.022": 0.0,
			"0.023": 0.0,
			"0.024": 0.0,
			"0.025": 0.0
		}
	}
}
