{
	 "smiles": "CN(C)C(=O)NC1=C(C=C(C)C=C1)C(O)=O", 
	 "Tm": 437.15, 
	 "num_atms": 30, 
	 "gaussian": { 
		 "optdone": 1, 
		 "sigma_profile": "yes", 
		 "theory": "DFT", 
		 "functional": "B3LYP", 
		 "basiset": "6-31G**", 
		 "properties": { 
			 "R2extent": 4977.9135, 
			 "electric_dipole_moment_norm": 3.21714750983, 
			 "electric_quadrupole_moment_norm": 10.6886069752, 
			 "total_energy": -762.824430561, 
			 "HOMO_LUMO_gap": 0.16638, 
			 "cosmo_polarized_energy": -14.92, 
			 "cosmo_cavitation_energy": 33.19, 
			 "cosmo_dispersion_energy": -23.73, 
			 "cosmo_repulsion_energy": 1.86, 
			 "cosmo_total_nonelectrostatic_energy": 11.32, 
			 "SMD_solvation_energy": 8.19 
		},
		"coords": [
			{
				"x": -1.3368572124,
				"y": -1.7292291136,
				"z": -1.5018363256,
				"element": "C" 
			},
			{
				"x": -1.94014766,
				"y": -0.5045293089,
				"z": -2.0181616304,
				"element": "N" 
			},
			{
				"x": -3.3563487267,
				"y": -0.610312211,
				"z": -2.3502474372,
				"element": "C" 
			},
			{
				"x": -1.2213601412,
				"y": 0.4579920805,
				"z": -2.6987641019,
				"element": "C" 
			},
			{
				"x": -1.7013829955,
				"y": 1.1343717015,
				"z": -3.6004662567,
				"element": "O" 
			},
			{
				"x": 0.1317093969,
				"y": 0.6287370665,
				"z": -2.3459405423,
				"element": "N" 
			},
			{
				"x": 0.7259451476,
				"y": 0.7507941667,
				"z": -1.0856918652,
				"element": "C" 
			},
			{
				"x": 2.1270853449,
				"y": 0.9549251533,
				"z": -0.9459081317,
				"element": "C" 
			},
			{
				"x": 2.6871551621,
				"y": 1.0484831195,
				"z": 0.3429676599,
				"element": "C" 
			},
			{
				"x": 1.9303337103,
				"y": 0.9647653248,
				"z": 1.5041141545,
				"element": "C" 
			},
			{
				"x": 2.5576854594,
				"y": 1.0642267696,
				"z": 2.8739207663,
				"element": "C" 
			},
			{
				"x": 0.5456293603,
				"y": 0.7903342197,
				"z": 1.3468870068,
				"element": "C" 
			},
			{
				"x": -0.0419017922,
				"y": 0.6877046565,
				"z": 0.0952134294,
				"element": "C" 
			},
			{
				"x": 3.1086206611,
				"y": 1.0993916475,
				"z": -2.0506220534,
				"element": "C" 
			},
			{
				"x": 2.5605774131,
				"y": 1.2119870608,
				"z": -3.2967360087,
				"element": "O" 
			},
			{
				"x": 4.3152098582,
				"y": 1.1424082952,
				"z": -1.9077245365,
				"element": "O" 
			},
			{
				"x": -1.6021409033,
				"y": -2.5800225012,
				"z": -2.1446658784,
				"element": "H" 
			},
			{
				"x": -0.2528791937,
				"y": -1.6443629446,
				"z": -1.4767532028,
				"element": "H" 
			},
			{
				"x": -1.694028495,
				"y": -1.9423031038,
				"z": -0.4878964036,
				"element": "H" 
			},
			{
				"x": -3.524833742,
				"y": -1.2798421543,
				"z": -3.2053724029,
				"element": "H" 
			},
			{
				"x": -3.8978521811,
				"y": -1.0064639359,
				"z": -1.4852863887,
				"element": "H" 
			},
			{
				"x": -3.7420800691,
				"y": 0.3748204085,
				"z": -2.6075373659,
				"element": "H" 
			},
			{
				"x": 0.6401388378,
				"y": 1.0747362341,
				"z": -3.0986976429,
				"element": "H" 
			},
			{
				"x": 3.760649794,
				"y": 1.1969938406,
				"z": 0.3971899764,
				"element": "H" 
			},
			{
				"x": 2.1092409133,
				"y": 1.8726210035,
				"z": 3.4629595221,
				"element": "H" 
			},
			{
				"x": 3.6312935247,
				"y": 1.2581090339,
				"z": 2.8045673981,
				"element": "H" 
			},
			{
				"x": 2.4234842534,
				"y": 0.1379321402,
				"z": 3.445251459,
				"element": "H" 
			},
			{
				"x": -0.0922017469,
				"y": 0.7437443478,
				"z": 2.2269058707,
				"element": "H" 
			},
			{
				"x": -1.1152918383,
				"y": 0.5710941834,
				"z": 0.0140054886,
				"element": "H" 
			},
			{
				"x": 3.3106478607,
				"y": 1.3172928191,
				"z": -3.9051745572,
				"element": "H" 
			}
		],
		 "valence_orbital": [ 
			{
				"type": "occ",
				"energy": -0.28174,
				"method": "rhf"
			},
			{
				"type": "occ",
				"energy": -0.26773,
				"method": "rhf"
			},
			{
				"type": "occ",
				"energy": -0.2606,
				"method": "rhf"
			},
			{
				"type": "occ",
				"energy": -0.2415,
				"method": "rhf"
			},
			{
				"type": "occ",
				"energy": -0.21497,
				"method": "rhf"
			},
			{
				"type": "unocc",
				"energy": -0.04859,
				"method": "rhf"
			},
			{
				"type": "unocc",
				"energy": -0.00705,
				"method": "rhf"
			},
			{
				"type": "unocc",
				"energy": 0.04485,
				"method": "rhf"
			},
			{
				"type": "unocc",
				"energy": 0.05044,
				"method": "rhf"
			},
			{
				"type": "unocc",
				"energy": 0.07504,
				"method": "rhf"
			}
		],
		"cosmo_sigma_profile": { 
			"-0.025": 0.0,
			"-0.024": 0.0,
			"-0.023": 0.0,
			"-0.022": 0.0,
			"-0.021": 0.0,
			"-0.02": 0.0,
			"-0.019": 0.103827844827,
			"-0.018": 0.889365216139,
			"-0.017": 0.80332262813,
			"-0.016": 1.05424124093,
			"-0.015": 0.983184503213,
			"-0.014": 0.360184805416,
			"-0.013": 0.505174627169,
			"-0.012": 0.439255772798,
			"-0.011": 1.13921199727,
			"-0.01": 0.80878618826,
			"-0.009": 0.213700540439,
			"-0.008": 0.731101654184,
			"-0.007": 1.12950266234,
			"-0.006": 2.98899172004,
			"-0.005": 16.1178741263,
			"-0.004": 28.1977473966,
			"-0.003": 29.8108434498,
			"-0.002": 36.2489784144,
			"-0.001": 24.4169025466,
			"0.0": 23.1280365265,
			"0.001": 15.6539192418,
			"0.002": 13.5496922976,
			"0.003": 12.5939374763,
			"0.004": 12.9803134459,
			"0.005": 4.16513118445,
			"0.006": 2.16093710342,
			"0.007": 2.46946878865,
			"0.008": 3.53827235706,
			"0.009": 1.89117555447,
			"0.01": 2.97451046284,
			"0.011": 5.63793947406,
			"0.012": 6.04596694315,
			"0.013": 4.37245469484,
			"0.014": 4.10244079599,
			"0.015": 0.331244512082,
			"0.016": 0.0,
			"0.017": 0.0,
			"0.018": 0.0,
			"0.019": 0.0,
			"0.02": 0.0,
			"0.021": 0.0,
			"0.022": 0.0,
			"0.023": 0.0,
			"0.024": 0.0,
			"0.025": 0.0
		}
	}
}
