{
	 "smiles": "COC1=C(C=C(Cl)C(=C1)S(Cl)(=O)=O)C(O)=O", 
	 "Tm": 433.15, 
	 "num_atms": 22, 
	 "gaussian": { 
		 "optdone": 1, 
		 "sigma_profile": "yes", 
		 "theory": "DFT", 
		 "functional": "B3LYP", 
		 "basiset": "6-31G**", 
		 "properties": { 
			 "R2extent": 5812.6203, 
			 "electric_dipole_moment_norm": 5.13955421121, 
			 "electric_quadrupole_moment_norm": 28.7375209049, 
			 "total_energy": -2003.07693125, 
			 "HOMO_LUMO_gap": 0.1631, 
			 "cosmo_polarized_energy": -17.53, 
			 "cosmo_cavitation_energy": 31.9, 
			 "cosmo_dispersion_energy": -23.76, 
			 "cosmo_repulsion_energy": 1.8, 
			 "cosmo_total_nonelectrostatic_energy": 9.93, 
			 "SMD_solvation_energy": 5.98 
		},
		"coords": [
			{
				"x": 2.3741842912,
				"y": -1.3208455272,
				"z": -2.1169891633,
				"element": "C" 
			},
			{
				"x": 2.1453988394,
				"y": -0.0354116731,
				"z": -1.5290941993,
				"element": "O" 
			},
			{
				"x": 1.3313762993,
				"y": 0.0762050616,
				"z": -0.4372916266,
				"element": "C" 
			},
			{
				"x": 1.1405547839,
				"y": 1.3660051544,
				"z": 0.1061205353,
				"element": "C" 
			},
			{
				"x": 0.3151786995,
				"y": 1.5072994378,
				"z": 1.2224185842,
				"element": "C" 
			},
			{
				"x": -0.3271233016,
				"y": 0.4204084913,
				"z": 1.812309583,
				"element": "C" 
			},
			{
				"x": -1.3177100272,
				"y": 0.7026522431,
				"z": 3.2137614361,
				"element": "Cl" 
			},
			{
				"x": -0.1264315345,
				"y": -0.8486217813,
				"z": 1.2542868957,
				"element": "C" 
			},
			{
				"x": 0.6978011281,
				"y": -1.0241619659,
				"z": 0.1407055547,
				"element": "C" 
			},
			{
				"x": -0.9230077666,
				"y": -2.3543412419,
				"z": 1.8529018434,
				"element": "S" 
			},
			{
				"x": 0.0773344189,
				"y": -2.6518154331,
				"z": 3.6933647225,
				"element": "Cl" 
			},
			{
				"x": -2.3243345011,
				"y": -2.1074316288,
				"z": 2.1502468093,
				"element": "O" 
			},
			{
				"x": -0.5071613555,
				"y": -3.4503973978,
				"z": 0.9847813452,
				"element": "O" 
			},
			{
				"x": 1.7623176757,
				"y": 2.6491663814,
				"z": -0.4136160344,
				"element": "C" 
			},
			{
				"x": 2.5647931331,
				"y": 2.5671404787,
				"z": -1.4848893358,
				"element": "O" 
			},
			{
				"x": 1.5390048528,
				"y": 3.7102500021,
				"z": 0.1232426148,
				"element": "O" 
			},
			{
				"x": 1.4372832843,
				"y": -1.7554072954,
				"z": -2.4798737319,
				"element": "H" 
			},
			{
				"x": 3.0458792663,
				"y": -1.1443802566,
				"z": -2.9563946016,
				"element": "H" 
			},
			{
				"x": 2.8499656582,
				"y": -1.9977783276,
				"z": -1.4002534284,
				"element": "H" 
			},
			{
				"x": 0.185842573,
				"y": 2.5052823752,
				"z": 1.625317354,
				"element": "H" 
			},
			{
				"x": 0.8234271212,
				"y": -2.0235370204,
				"z": -0.2522808486,
				"element": "H" 
			},
			{
				"x": 2.6321264617,
				"y": 1.6417199236,
				"z": -1.7850743082,
				"element": "H" 
			}
		],
		 "valence_orbital": [ 
			{
				"type": "occ",
				"energy": -0.32737,
				"method": "rhf"
			},
			{
				"type": "occ",
				"energy": -0.32566,
				"method": "rhf"
			},
			{
				"type": "occ",
				"energy": -0.30466,
				"method": "rhf"
			},
			{
				"type": "occ",
				"energy": -0.29006,
				"method": "rhf"
			},
			{
				"type": "occ",
				"energy": -0.27098,
				"method": "rhf"
			},
			{
				"type": "unocc",
				"energy": -0.10788,
				"method": "rhf"
			},
			{
				"type": "unocc",
				"energy": -0.07912,
				"method": "rhf"
			},
			{
				"type": "unocc",
				"energy": -0.04824,
				"method": "rhf"
			},
			{
				"type": "unocc",
				"energy": -0.0027,
				"method": "rhf"
			},
			{
				"type": "unocc",
				"energy": 0.01348,
				"method": "rhf"
			}
		],
		"cosmo_sigma_profile": { 
			"-0.025": 0.0,
			"-0.024": 0.0,
			"-0.023": 0.0,
			"-0.022": 0.0,
			"-0.021": 0.0,
			"-0.02": 0.0,
			"-0.019": 0.0,
			"-0.018": 0.0,
			"-0.017": 0.0,
			"-0.016": 0.0,
			"-0.015": 0.0,
			"-0.014": 0.0,
			"-0.013": 0.0,
			"-0.012": 0.123424446487,
			"-0.011": 0.56867304623,
			"-0.01": 1.2686226086,
			"-0.009": 3.11054000378,
			"-0.008": 8.0721637603,
			"-0.007": 14.7427429889,
			"-0.006": 13.7870816006,
			"-0.005": 15.6488957814,
			"-0.004": 15.8398478204,
			"-0.003": 21.2599006353,
			"-0.002": 24.756391924,
			"-0.001": 16.6593055267,
			"0.0": 11.8481805712,
			"0.001": 13.9757784822,
			"0.002": 20.6004021256,
			"0.003": 19.6713957561,
			"0.004": 6.39238315179,
			"0.005": 4.94594965618,
			"0.006": 6.87224959683,
			"0.007": 11.1602823684,
			"0.008": 12.0310991713,
			"0.009": 4.29116239217,
			"0.01": 4.99527546641,
			"0.011": 5.31664053275,
			"0.012": 2.73660052049,
			"0.013": 0.692764644916,
			"0.014": 0.0,
			"0.015": 0.0,
			"0.016": 0.0,
			"0.017": 0.0,
			"0.018": 0.0,
			"0.019": 0.0,
			"0.02": 0.0,
			"0.021": 0.0,
			"0.022": 0.0,
			"0.023": 0.0,
			"0.024": 0.0,
			"0.025": 0.0
		}
	}
}
