{
	 "smiles": "OC(=O)C1=CC(F)=CC=C1", 
	 "Tm": 397.15, 
	 "num_atms": 15, 
	 "gaussian": { 
		 "optdone": 1, 
		 "sigma_profile": "yes", 
		 "theory": "DFT", 
		 "functional": "B3LYP", 
		 "basiset": "6-31G**", 
		 "properties": { 
			 "R2extent": 2286.7706, 
			 "electric_dipole_moment_norm": 2.57159196025, 
			 "electric_quadrupole_moment_norm": 8.77667211761, 
			 "total_energy": -520.057438619, 
			 "HOMO_LUMO_gap": 0.20063, 
			 "cosmo_polarized_energy": -8.5, 
			 "cosmo_cavitation_energy": 20.43, 
			 "cosmo_dispersion_energy": -15.06, 
			 "cosmo_repulsion_energy": 1.2, 
			 "cosmo_total_nonelectrostatic_energy": 6.57, 
			 "SMD_solvation_energy": 5.38 
		},
		"coords": [
			{
				"x": -2.2851101519,
				"y": 0.0705618954,
				"z": -1.993394486,
				"element": "O" 
			},
			{
				"x": -1.2407917073,
				"y": -0.665190633,
				"z": -2.4474486283,
				"element": "C" 
			},
			{
				"x": -1.144478122,
				"y": -1.0033617204,
				"z": -3.610079956,
				"element": "O" 
			},
			{
				"x": -0.2548264508,
				"y": -0.9964410634,
				"z": -1.3819190135,
				"element": "C" 
			},
			{
				"x": 0.8629455431,
				"y": -1.7545447918,
				"z": -1.7533127997,
				"element": "C" 
			},
			{
				"x": 1.7974522473,
				"y": -2.0777459322,
				"z": -0.7816515724,
				"element": "C" 
			},
			{
				"x": 2.876988177,
				"y": -2.8069681514,
				"z": -1.1282520742,
				"element": "F" 
			},
			{
				"x": 1.6578712474,
				"y": -1.6733431748,
				"z": 0.5433394097,
				"element": "C" 
			},
			{
				"x": 0.5392758784,
				"y": -0.9183021335,
				"z": 0.8999957313,
				"element": "C" 
			},
			{
				"x": -0.4187031601,
				"y": -0.5768780727,
				"z": -0.054495874,
				"element": "C" 
			},
			{
				"x": -2.8547694943,
				"y": 0.2251499777,
				"z": -2.7647208121,
				"element": "H" 
			},
			{
				"x": 0.9878252986,
				"y": -2.0778941046,
				"z": -2.7799793411,
				"element": "H" 
			},
			{
				"x": 2.4156057162,
				"y": -1.9506857832,
				"z": 1.2682237175,
				"element": "H" 
			},
			{
				"x": 0.4174015876,
				"y": -0.5960574971,
				"z": 1.9294948373,
				"element": "H" 
			},
			{
				"x": -1.2876866091,
				"y": 0.009001185,
				"z": 0.2196008619,
				"element": "H" 
			}
		],
		 "valence_orbital": [ 
			{
				"type": "occ",
				"energy": -0.35944,
				"method": "rhf"
			},
			{
				"type": "occ",
				"energy": -0.32453,
				"method": "rhf"
			},
			{
				"type": "occ",
				"energy": -0.28293,
				"method": "rhf"
			},
			{
				"type": "occ",
				"energy": -0.27217,
				"method": "rhf"
			},
			{
				"type": "occ",
				"energy": -0.25713,
				"method": "rhf"
			},
			{
				"type": "unocc",
				"energy": -0.0565,
				"method": "rhf"
			},
			{
				"type": "unocc",
				"energy": -0.01197,
				"method": "rhf"
			},
			{
				"type": "unocc",
				"energy": 0.05334,
				"method": "rhf"
			},
			{
				"type": "unocc",
				"energy": 0.07052,
				"method": "rhf"
			},
			{
				"type": "unocc",
				"energy": 0.09213,
				"method": "rhf"
			}
		],
		"cosmo_sigma_profile": { 
			"-0.025": 0.0,
			"-0.024": 0.0,
			"-0.023": 0.0,
			"-0.022": 0.0,
			"-0.021": 0.0,
			"-0.02": 0.0,
			"-0.019": 0.114156115723,
			"-0.018": 0.814014923672,
			"-0.017": 1.0844915727,
			"-0.016": 0.625612205425,
			"-0.015": 0.657676502208,
			"-0.014": 0.797508590948,
			"-0.013": 0.849027245755,
			"-0.012": 0.688748531622,
			"-0.011": 0.661883000043,
			"-0.01": 0.619640648608,
			"-0.009": 0.524832198729,
			"-0.008": 2.17477094466,
			"-0.007": 5.99831049451,
			"-0.006": 7.95422665206,
			"-0.005": 8.35336565555,
			"-0.004": 6.16076900162,
			"-0.003": 7.34383729112,
			"-0.002": 8.73167944105,
			"-0.001": 11.0347829105,
			"0.0": 17.2007377489,
			"0.001": 18.0996869882,
			"0.002": 16.4711536238,
			"0.003": 12.459281355,
			"0.004": 12.5599424833,
			"0.005": 3.58764732751,
			"0.006": 2.33598921243,
			"0.007": 4.13755657018,
			"0.008": 1.17083735914,
			"0.009": 1.58429754756,
			"0.01": 2.43710977017,
			"0.011": 4.27640742616,
			"0.012": 2.68982907145,
			"0.013": 0.026167877735,
			"0.014": 0.0,
			"0.015": 0.0,
			"0.016": 0.0,
			"0.017": 0.0,
			"0.018": 0.0,
			"0.019": 0.0,
			"0.02": 0.0,
			"0.021": 0.0,
			"0.022": 0.0,
			"0.023": 0.0,
			"0.024": 0.0,
			"0.025": 0.0
		}
	}
}
