{
	 "smiles": "CC(C)(C)C1=CC(=C(C(=C1)C(C)(C)C)[N+]([O-])=O)C(C)(C)C", 
	 "Tm": 479.15, 
	 "num_atms": 50, 
	 "gaussian": { 
		 "optdone": 1, 
		 "sigma_profile": "yes", 
		 "theory": "DFT", 
		 "functional": "B3LYP", 
		 "basiset": "6-31G**", 
		 "properties": { 
			 "R2extent": 7053.2283, 
			 "electric_dipole_moment_norm": 3.59224037197, 
			 "electric_quadrupole_moment_norm": 11.9610183342, 
			 "total_energy": -908.513170358, 
			 "HOMO_LUMO_gap": 0.16895, 
			 "cosmo_polarized_energy": -7.2, 
			 "cosmo_cavitation_energy": 46.22, 
			 "cosmo_dispersion_energy": -30.29, 
			 "cosmo_repulsion_energy": 2.28, 
			 "cosmo_total_nonelectrostatic_energy": 18.21, 
			 "SMD_solvation_energy": 9.96 
		},
		"coords": [
			{
				"x": -1.9726704766,
				"y": 1.6558015924,
				"z": 3.1014271032,
				"element": "C" 
			},
			{
				"x": -1.565937222,
				"y": 1.9182260452,
				"z": 1.6314839039,
				"element": "C" 
			},
			{
				"x": -2.8526175271,
				"y": 2.0187681175,
				"z": 0.7900132963,
				"element": "C" 
			},
			{
				"x": -0.8239638886,
				"y": 3.273114577,
				"z": 1.537942995,
				"element": "C" 
			},
			{
				"x": -0.6351343949,
				"y": 0.787959932,
				"z": 1.1510944397,
				"element": "C" 
			},
			{
				"x": 0.5774980805,
				"y": 0.5635874506,
				"z": 1.810548749,
				"element": "C" 
			},
			{
				"x": 1.4711723636,
				"y": -0.454019693,
				"z": 1.4587823689,
				"element": "C" 
			},
			{
				"x": 1.0620045624,
				"y": -1.273023798,
				"z": 0.3815015632,
				"element": "C" 
			},
			{
				"x": -0.112916304,
				"y": -1.075305567,
				"z": -0.3714902258,
				"element": "C" 
			},
			{
				"x": -0.9401041726,
				"y": -0.0262880137,
				"z": 0.0615509433,
				"element": "C" 
			},
			{
				"x": -0.4847786347,
				"y": -1.8477198165,
				"z": -1.6724963684,
				"element": "C" 
			},
			{
				"x": 0.4523715906,
				"y": -1.3651513279,
				"z": -2.8099070011,
				"element": "C" 
			},
			{
				"x": -1.9363409165,
				"y": -1.5418908376,
				"z": -2.111269636,
				"element": "C" 
			},
			{
				"x": -0.3911147455,
				"y": -3.390692816,
				"z": -1.5423098675,
				"element": "C" 
			},
			{
				"x": 1.8936328541,
				"y": -2.4582947571,
				"z": 0.0638342748,
				"element": "N" 
			},
			{
				"x": 2.800110257,
				"y": -2.3505002885,
				"z": -0.7628109714,
				"element": "O" 
			},
			{
				"x": 1.6180532906,
				"y": -3.4952436401,
				"z": 0.6595559563,
				"element": "O" 
			},
			{
				"x": 2.8516024119,
				"y": -0.5398977293,
				"z": 2.1754749791,
				"element": "C" 
			},
			{
				"x": 3.2339699446,
				"y": -1.9685203639,
				"z": 2.6438026371,
				"element": "C" 
			},
			{
				"x": 2.8816471557,
				"y": 0.3487669135,
				"z": 3.4411727517,
				"element": "C" 
			},
			{
				"x": 3.937957983,
				"y": -0.0019968317,
				"z": 1.2085063746,
				"element": "C" 
			},
			{
				"x": -1.1040068175,
				"y": 1.6170763009,
				"z": 3.7652862907,
				"element": "H" 
			},
			{
				"x": -2.5078523996,
				"y": 0.7053212238,
				"z": 3.1962325039,
				"element": "H" 
			},
			{
				"x": -2.6311808753,
				"y": 2.4540463814,
				"z": 3.4617427821,
				"element": "H" 
			},
			{
				"x": -3.4807192319,
				"y": 2.8281020293,
				"z": 1.175721376,
				"element": "H" 
			},
			{
				"x": -3.4417515121,
				"y": 1.0967664185,
				"z": 0.8320262545,
				"element": "H" 
			},
			{
				"x": -2.6386076677,
				"y": 2.2423279887,
				"z": -0.2603979974,
				"element": "H" 
			},
			{
				"x": -1.4739979543,
				"y": 4.0864646396,
				"z": 1.8793391354,
				"element": "H" 
			},
			{
				"x": -0.5263929714,
				"y": 3.4867483197,
				"z": 0.5060807202,
				"element": "H" 
			},
			{
				"x": 0.0787231146,
				"y": 3.2891353446,
				"z": 2.1557795302,
				"element": "H" 
			},
			{
				"x": 0.8338544485,
				"y": 1.2104403463,
				"z": 2.6368216046,
				"element": "H" 
			},
			{
				"x": -1.8579429485,
				"y": 0.1538094903,
				"z": -0.4742236199,
				"element": "H" 
			},
			{
				"x": 1.5009212188,
				"y": -1.5670362007,
				"z": -2.5843557157,
				"element": "H" 
			},
			{
				"x": 0.3402491458,
				"y": -0.2881032,
				"z": -2.9732262267,
				"element": "H" 
			},
			{
				"x": 0.1972693773,
				"y": -1.8774437699,
				"z": -3.7445658224,
				"element": "H" 
			},
			{
				"x": -2.0864850024,
				"y": -0.4893556496,
				"z": -2.3681563468,
				"element": "H" 
			},
			{
				"x": -2.6661612836,
				"y": -1.8210129065,
				"z": -1.3439688092,
				"element": "H" 
			},
			{
				"x": -2.161381557,
				"y": -2.1229240319,
				"z": -3.0102561322,
				"element": "H" 
			},
			{
				"x": -0.9105618649,
				"y": -3.7515469104,
				"z": -0.6499784092,
				"element": "H" 
			},
			{
				"x": 0.6319157348,
				"y": -3.7642560996,
				"z": -1.5159156752,
				"element": "H" 
			},
			{
				"x": -0.8681040778,
				"y": -3.8451765697,
				"z": -2.4165227081,
				"element": "H" 
			},
			{
				"x": 4.0967538797,
				"y": -1.8980357268,
				"z": 3.3138560267,
				"element": "H" 
			},
			{
				"x": 3.524805847,
				"y": -2.6305558097,
				"z": 1.8290186424,
				"element": "H" 
			},
			{
				"x": 2.4173842977,
				"y": -2.4431322277,
				"z": 3.1954082262,
				"element": "H" 
			},
			{
				"x": 3.8564497711,
				"y": 0.2387027604,
				"z": 3.9249230872,
				"element": "H" 
			},
			{
				"x": 2.7591801637,
				"y": 1.4114989969,
				"z": 3.2129810577,
				"element": "H" 
			},
			{
				"x": 2.1155334202,
				"y": 0.0572286697,
				"z": 4.1674183069,
				"element": "H" 
			},
			{
				"x": 3.7294216111,
				"y": 1.0367172207,
				"z": 0.9313197685,
				"element": "H" 
			},
			{
				"x": 4.9183684903,
				"y": -0.0315254811,
				"z": 1.6973745564,
				"element": "H" 
			},
			{
				"x": 3.9947734315,
				"y": -0.5928606951,
				"z": 0.2927293275,
				"element": "H" 
			}
		],
		 "valence_orbital": [ 
			{
				"type": "occ",
				"energy": -0.30887,
				"method": "rhf"
			},
			{
				"type": "occ",
				"energy": -0.30114,
				"method": "rhf"
			},
			{
				"type": "occ",
				"energy": -0.29584,
				"method": "rhf"
			},
			{
				"type": "occ",
				"energy": -0.24961,
				"method": "rhf"
			},
			{
				"type": "occ",
				"energy": -0.24311,
				"method": "rhf"
			},
			{
				"type": "unocc",
				"energy": -0.07416,
				"method": "rhf"
			},
			{
				"type": "unocc",
				"energy": -0.01815,
				"method": "rhf"
			},
			{
				"type": "unocc",
				"energy": -0.01058,
				"method": "rhf"
			},
			{
				"type": "unocc",
				"energy": 0.06981,
				"method": "rhf"
			},
			{
				"type": "unocc",
				"energy": 0.09111,
				"method": "rhf"
			}
		],
		"cosmo_sigma_profile": { 
			"-0.025": 0.0,
			"-0.024": 0.0,
			"-0.023": 0.0,
			"-0.022": 0.0,
			"-0.021": 0.0,
			"-0.02": 0.0,
			"-0.019": 0.0,
			"-0.018": 0.0,
			"-0.017": 0.0,
			"-0.016": 0.0,
			"-0.015": 0.0,
			"-0.014": 0.0,
			"-0.013": 0.0,
			"-0.012": 0.0,
			"-0.011": 0.0,
			"-0.01": 0.0,
			"-0.009": 0.0,
			"-0.008": 0.0,
			"-0.007": 0.0,
			"-0.006": 0.815285116016,
			"-0.005": 4.25955066321,
			"-0.004": 13.1169191493,
			"-0.003": 48.8437125121,
			"-0.002": 53.472248284,
			"-0.001": 48.8724863815,
			"0.0": 55.0835594651,
			"0.001": 60.4845491202,
			"0.002": 22.0196421758,
			"0.003": 11.8594649647,
			"0.004": 11.9099950765,
			"0.005": 4.59413561335,
			"0.006": 6.04790407498,
			"0.007": 6.71033271461,
			"0.008": 4.62706253721,
			"0.009": 3.53686495889,
			"0.01": 0.879201825506,
			"0.011": 0.0309502949129,
			"0.012": 0.230947665345,
			"0.013": 0.0328407167889,
			"0.014": 0.170306553486,
			"0.015": 0.0997105223296,
			"0.016": 0.0274043721375,
			"0.017": 0.0,
			"0.018": 0.0,
			"0.019": 0.0,
			"0.02": 0.0,
			"0.021": 0.0,
			"0.022": 0.0,
			"0.023": 0.0,
			"0.024": 0.0,
			"0.025": 0.0
		}
	}
}
