{
	 "smiles": "OC(=O)C1=CC(COCC2=CC=CC=C2)=C(F)C=C1", 
	 "Tm": 369.15, 
	 "num_atms": 32, 
	 "gaussian": { 
		 "optdone": 1, 
		 "sigma_profile": "yes", 
		 "theory": "DFT", 
		 "functional": "B3LYP", 
		 "basiset": "6-31G**", 
		 "properties": { 
			 "R2extent": 6289.2647, 
			 "electric_dipole_moment_norm": 1.43212584643, 
			 "electric_quadrupole_moment_norm": 13.8036706966, 
			 "total_energy": -904.945542433, 
			 "HOMO_LUMO_gap": 0.19245, 
			 "cosmo_polarized_energy": -12.49, 
			 "cosmo_cavitation_energy": 37.48, 
			 "cosmo_dispersion_energy": -25.48, 
			 "cosmo_repulsion_energy": 1.95, 
			 "cosmo_total_nonelectrostatic_energy": 13.95, 
			 "SMD_solvation_energy": 7.83 
		},
		"coords": [
			{
				"x": -2.4216770514,
				"y": 3.752921726,
				"z": 1.2180310102,
				"element": "O" 
			},
			{
				"x": -2.2040212069,
				"y": 2.4364739682,
				"z": 0.9684347132,
				"element": "C" 
			},
			{
				"x": -3.0181782754,
				"y": 1.5821415748,
				"z": 1.2607979416,
				"element": "O" 
			},
			{
				"x": -0.8950566922,
				"y": 2.176423919,
				"z": 0.3191087615,
				"element": "C" 
			},
			{
				"x": -0.572679646,
				"y": 0.8493334061,
				"z": -0.0014564729,
				"element": "C" 
			},
			{
				"x": 0.6389222091,
				"y": 0.5202185362,
				"z": -0.608214227,
				"element": "C" 
			},
			{
				"x": 1.0216480003,
				"y": -0.9069485765,
				"z": -0.9381427108,
				"element": "C" 
			},
			{
				"x": 2.0130995241,
				"y": -1.4381638178,
				"z": -0.0606310631,
				"element": "O" 
			},
			{
				"x": 1.5538556876,
				"y": -1.7075771481,
				"z": 1.2611015126,
				"element": "C" 
			},
			{
				"x": 0.5708857257,
				"y": -2.8608493691,
				"z": 1.3438823408,
				"element": "C" 
			},
			{
				"x": 0.8162595374,
				"y": -4.0470814834,
				"z": 0.6380641524,
				"element": "C" 
			},
			{
				"x": -0.0650857618,
				"y": -5.1229174451,
				"z": 0.7334568656,
				"element": "C" 
			},
			{
				"x": -1.2033362907,
				"y": -5.0292373166,
				"z": 1.5396667049,
				"element": "C" 
			},
			{
				"x": -1.4572007005,
				"y": -3.8517510696,
				"z": 2.243326978,
				"element": "C" 
			},
			{
				"x": -0.5761122852,
				"y": -2.7722722838,
				"z": 2.1401762552,
				"element": "C" 
			},
			{
				"x": 1.5198515954,
				"y": 1.5743928177,
				"z": -0.8798644822,
				"element": "C" 
			},
			{
				"x": 2.692897644,
				"y": 1.2947472968,
				"z": -1.477040001,
				"element": "F" 
			},
			{
				"x": 1.2303277832,
				"y": 2.9008032738,
				"z": -0.5800061822,
				"element": "C" 
			},
			{
				"x": 0.0136835217,
				"y": 3.2024651972,
				"z": 0.0266472973,
				"element": "C" 
			},
			{
				"x": -3.2958311593,
				"y": 3.7996495684,
				"z": 1.6385508747,
				"element": "H" 
			},
			{
				"x": -1.2942790462,
				"y": 0.0717500741,
				"z": 0.2303785232,
				"element": "H" 
			},
			{
				"x": 0.1211591503,
				"y": -1.5348130202,
				"z": -0.9377372362,
				"element": "H" 
			},
			{
				"x": 1.4721072511,
				"y": -0.9543671889,
				"z": -1.9328913505,
				"element": "H" 
			},
			{
				"x": 1.115846511,
				"y": -0.8092044276,
				"z": 1.7195234555,
				"element": "H" 
			},
			{
				"x": 2.4649130512,
				"y": -1.9466894151,
				"z": 1.8213081475,
				"element": "H" 
			},
			{
				"x": 1.6985116475,
				"y": -4.1125106613,
				"z": 0.0076351373,
				"element": "H" 
			},
			{
				"x": 0.1353771615,
				"y": -6.036635313,
				"z": 0.1806819197,
				"element": "H" 
			},
			{
				"x": -1.8893025065,
				"y": -5.868243219,
				"z": 1.6143077552,
				"element": "H" 
			},
			{
				"x": -2.3441960898,
				"y": -3.7674767713,
				"z": 2.8647970761,
				"element": "H" 
			},
			{
				"x": -0.7831010608,
				"y": -1.8529316175,
				"z": 2.6833205495,
				"element": "H" 
			},
			{
				"x": 1.9538182455,
				"y": 3.6706447548,
				"z": -0.8247678203,
				"element": "H" 
			},
			{
				"x": -0.2343064739,
				"y": 4.2285040307,
				"z": 0.2720535743,
				"element": "H" 
			}
		],
		 "valence_orbital": [ 
			{
				"type": "occ",
				"energy": -0.27138,
				"method": "rhf"
			},
			{
				"type": "occ",
				"energy": -0.26536,
				"method": "rhf"
			},
			{
				"type": "occ",
				"energy": -0.25641,
				"method": "rhf"
			},
			{
				"type": "occ",
				"energy": -0.2495,
				"method": "rhf"
			},
			{
				"type": "occ",
				"energy": -0.2435,
				"method": "rhf"
			},
			{
				"type": "unocc",
				"energy": -0.05105,
				"method": "rhf"
			},
			{
				"type": "unocc",
				"energy": -0.02457,
				"method": "rhf"
			},
			{
				"type": "unocc",
				"energy": -0.00512,
				"method": "rhf"
			},
			{
				"type": "unocc",
				"energy": -0.00056,
				"method": "rhf"
			},
			{
				"type": "unocc",
				"energy": 0.04985,
				"method": "rhf"
			}
		],
		"cosmo_sigma_profile": { 
			"-0.025": 0.0,
			"-0.024": 0.0,
			"-0.023": 0.0,
			"-0.022": 0.0,
			"-0.021": 0.0,
			"-0.02": 0.0,
			"-0.019": 0.0536095999259,
			"-0.018": 0.729126076227,
			"-0.017": 1.26866607336,
			"-0.016": 0.530154779569,
			"-0.015": 1.02191943333,
			"-0.014": 0.373444759897,
			"-0.013": 0.609890605841,
			"-0.012": 0.311281540583,
			"-0.011": 1.09947787267,
			"-0.01": 0.691283428927,
			"-0.009": 0.629209868,
			"-0.008": 1.92746588604,
			"-0.007": 3.78733359598,
			"-0.006": 10.1091700472,
			"-0.005": 23.3409105886,
			"-0.004": 21.9221381801,
			"-0.003": 27.2450517479,
			"-0.002": 25.2740532345,
			"-0.001": 22.0288042217,
			"0.0": 24.856350079,
			"0.001": 24.3524899203,
			"0.002": 21.8312565671,
			"0.003": 19.3973388326,
			"0.004": 17.1964362713,
			"0.005": 13.9518114243,
			"0.006": 10.4622989909,
			"0.007": 5.02529514285,
			"0.008": 2.75852775299,
			"0.009": 2.70052722674,
			"0.01": 3.08704498729,
			"0.011": 4.66536628742,
			"0.012": 5.12918230497,
			"0.013": 0.702477060966,
			"0.014": 0.0,
			"0.015": 0.0,
			"0.016": 0.0,
			"0.017": 0.0,
			"0.018": 0.0,
			"0.019": 0.0,
			"0.02": 0.0,
			"0.021": 0.0,
			"0.022": 0.0,
			"0.023": 0.0,
			"0.024": 0.0,
			"0.025": 0.0
		}
	}
}
