{
	 "smiles": "OCCNC1=NC=CC=C1", 
	 "Tm": 338.15, 
	 "num_atms": 20, 
	 "gaussian": { 
		 "optdone": 1, 
		 "sigma_profile": "yes", 
		 "theory": "DFT", 
		 "functional": "B3LYP", 
		 "basiset": "6-31G**", 
		 "properties": { 
			 "R2extent": 2421.0583, 
			 "electric_dipole_moment_norm": 1.33079361661, 
			 "electric_quadrupole_moment_norm": 7.98656877263, 
			 "total_energy": -457.491014542, 
			 "HOMO_LUMO_gap": 0.19248, 
			 "cosmo_polarized_energy": -11.04, 
			 "cosmo_cavitation_energy": 23.49, 
			 "cosmo_dispersion_energy": -17.61, 
			 "cosmo_repulsion_energy": 1.46, 
			 "cosmo_total_nonelectrostatic_energy": 7.34, 
			 "SMD_solvation_energy": 2.25 
		},
		"coords": [
			{
				"x": -1.355806173,
				"y": 2.3560820497,
				"z": -0.124972154,
				"element": "O" 
			},
			{
				"x": -0.3946091406,
				"y": 1.7267793118,
				"z": -0.9728028494,
				"element": "C" 
			},
			{
				"x": -0.054512105,
				"y": 0.316577132,
				"z": -0.500598973,
				"element": "C" 
			},
			{
				"x": 0.3691698204,
				"y": 0.3736197678,
				"z": 0.8850124947,
				"element": "N" 
			},
			{
				"x": 0.8260281997,
				"y": -0.7377738013,
				"z": 1.5569155746,
				"element": "C" 
			},
			{
				"x": 1.11332079,
				"y": -1.8256781962,
				"z": 0.823268396,
				"element": "N" 
			},
			{
				"x": 1.5990364986,
				"y": -2.8989966928,
				"z": 1.4630400548,
				"element": "C" 
			},
			{
				"x": 1.8147372462,
				"y": -2.9640165477,
				"z": 2.8346504559,
				"element": "C" 
			},
			{
				"x": 1.5036290095,
				"y": -1.8262479967,
				"z": 3.5925229961,
				"element": "C" 
			},
			{
				"x": 1.0069778074,
				"y": -0.6997705429,
				"z": 2.9604523709,
				"element": "C" 
			},
			{
				"x": -2.1925175566,
				"y": 1.8825964462,
				"z": -0.2267188945,
				"element": "H" 
			},
			{
				"x": 0.495478603,
				"y": 2.3611983606,
				"z": -0.9239921408,
				"element": "H" 
			},
			{
				"x": -0.7348882394,
				"y": 1.6974974638,
				"z": -2.0179374723,
				"element": "H" 
			},
			{
				"x": -0.9268252089,
				"y": -0.3472883978,
				"z": -0.6361341217,
				"element": "H" 
			},
			{
				"x": 0.7481700339,
				"y": -0.1060997557,
				"z": -1.112189613,
				"element": "H" 
			},
			{
				"x": -0.1127394764,
				"y": 1.0754744489,
				"z": 1.4305959008,
				"element": "H" 
			},
			{
				"x": 1.8224236502,
				"y": -3.7582161848,
				"z": 0.8315565938,
				"element": "H" 
			},
			{
				"x": 2.2062755712,
				"y": -3.8649057169,
				"z": 3.2942939407,
				"element": "H" 
			},
			{
				"x": 1.6506046775,
				"y": -1.8228302851,
				"z": 4.669286231,
				"element": "H" 
			},
			{
				"x": 0.7638459921,
				"y": 0.1998991369,
				"z": 3.5187512092,
				"element": "H" 
			}
		],
		 "valence_orbital": [ 
			{
				"type": "occ",
				"energy": -0.29658,
				"method": "rhf"
			},
			{
				"type": "occ",
				"energy": -0.28186,
				"method": "rhf"
			},
			{
				"type": "occ",
				"energy": -0.27103,
				"method": "rhf"
			},
			{
				"type": "occ",
				"energy": -0.24638,
				"method": "rhf"
			},
			{
				"type": "occ",
				"energy": -0.1998,
				"method": "rhf"
			},
			{
				"type": "unocc",
				"energy": -0.00732,
				"method": "rhf"
			},
			{
				"type": "unocc",
				"energy": 0.01711,
				"method": "rhf"
			},
			{
				"type": "unocc",
				"energy": 0.06679,
				"method": "rhf"
			},
			{
				"type": "unocc",
				"energy": 0.10077,
				"method": "rhf"
			},
			{
				"type": "unocc",
				"energy": 0.11765,
				"method": "rhf"
			}
		],
		"cosmo_sigma_profile": { 
			"-0.025": 0.0,
			"-0.024": 0.0,
			"-0.023": 0.0,
			"-0.022": 0.0,
			"-0.021": 0.0,
			"-0.02": 0.0,
			"-0.019": 0.0,
			"-0.018": 0.0,
			"-0.017": 0.0,
			"-0.016": 0.381185372874,
			"-0.015": 1.05809945291,
			"-0.014": 1.16324490544,
			"-0.013": 0.856955808467,
			"-0.012": 0.976341912158,
			"-0.011": 1.61028520671,
			"-0.01": 1.80837136473,
			"-0.009": 1.7968960178,
			"-0.008": 2.44592267333,
			"-0.007": 3.1478447236,
			"-0.006": 7.55680900997,
			"-0.005": 11.8181765997,
			"-0.004": 19.5608886682,
			"-0.003": 17.672047187,
			"-0.002": 13.9695657154,
			"-0.001": 9.54005644181,
			"0.0": 9.22855916711,
			"0.001": 8.16735596975,
			"0.002": 9.62286214327,
			"0.003": 10.5047494081,
			"0.004": 14.0741534733,
			"0.005": 10.5559186135,
			"0.006": 5.64953841927,
			"0.007": 3.77311094225,
			"0.008": 3.18040446559,
			"0.009": 3.3472388539,
			"0.01": 2.38988769585,
			"0.011": 1.93996658051,
			"0.012": 2.40320353907,
			"0.013": 2.11167225072,
			"0.014": 2.57650055199,
			"0.015": 0.413490190675,
			"0.016": 0.0,
			"0.017": 0.0,
			"0.018": 0.0,
			"0.019": 0.0,
			"0.02": 0.0,
			"0.021": 0.0,
			"0.022": 0.0,
			"0.023": 0.0,
			"0.024": 0.0,
			"0.025": 0.0
		}
	}
}
