{
	 "smiles": "CN1C(CO)=CC2=C1C=CS2", 
	 "Tm": 377.15, 
	 "num_atms": 20, 
	 "gaussian": { 
		 "optdone": 1, 
		 "sigma_profile": "yes", 
		 "theory": "DFT", 
		 "functional": "B3LYP", 
		 "basiset": "6-31G**", 
		 "properties": { 
			 "R2extent": 2264.5344, 
			 "electric_dipole_moment_norm": 3.41259768505, 
			 "electric_quadrupole_moment_norm": 13.2503846661, 
			 "total_energy": -838.400462128, 
			 "HOMO_LUMO_gap": 0.18803, 
			 "cosmo_polarized_energy": -11.25, 
			 "cosmo_cavitation_energy": 24.86, 
			 "cosmo_dispersion_energy": -18.97, 
			 "cosmo_repulsion_energy": 1.47, 
			 "cosmo_total_nonelectrostatic_energy": 7.36, 
			 "SMD_solvation_energy": 4.06 
		},
		"coords": [
			{
				"x": 0.796113306,
				"y": -0.1106063138,
				"z": 1.6588466896,
				"element": "C" 
			},
			{
				"x": -0.1089978847,
				"y": -0.040466359,
				"z": 0.5251547525,
				"element": "N" 
			},
			{
				"x": -1.4600321755,
				"y": -0.3696737049,
				"z": 0.5307188584,
				"element": "C" 
			},
			{
				"x": -2.1826322596,
				"y": -0.7134899178,
				"z": 1.7868866694,
				"element": "C" 
			},
			{
				"x": -1.618619562,
				"y": -1.8994879258,
				"z": 2.356742774,
				"element": "O" 
			},
			{
				"x": -1.9594462588,
				"y": -0.293136099,
				"z": -0.7599536912,
				"element": "C" 
			},
			{
				"x": -0.8717970527,
				"y": 0.0896364162,
				"z": -1.5838866327,
				"element": "C" 
			},
			{
				"x": 0.25883702,
				"y": 0.2263844116,
				"z": -0.7752718911,
				"element": "C" 
			},
			{
				"x": 1.4476742551,
				"y": 0.5948802646,
				"z": -1.4729196577,
				"element": "C" 
			},
			{
				"x": 1.1955475331,
				"y": 0.742498681,
				"z": -2.8091354335,
				"element": "C" 
			},
			{
				"x": -0.47839123,
				"y": 0.4351864205,
				"z": -3.2467594295,
				"element": "S" 
			},
			{
				"x": 1.6765451743,
				"y": 0.4994058296,
				"z": 1.4463940128,
				"element": "H" 
			},
			{
				"x": 0.3130265158,
				"y": 0.2882671727,
				"z": 2.5539588013,
				"element": "H" 
			},
			{
				"x": 1.1053402132,
				"y": -1.139756216,
				"z": 1.8651961583,
				"element": "H" 
			},
			{
				"x": -3.2449742828,
				"y": -0.8482236402,
				"z": 1.5384613903,
				"element": "H" 
			},
			{
				"x": -2.1224848783,
				"y": 0.1199601249,
				"z": 2.5081813778,
				"element": "H" 
			},
			{
				"x": -2.0371517087,
				"y": -2.0398358942,
				"z": 3.2163003163,
				"element": "H" 
			},
			{
				"x": -2.9833475655,
				"y": -0.4872857656,
				"z": -1.0453062701,
				"element": "H" 
			},
			{
				"x": 2.4258452315,
				"y": 0.7410340621,
				"z": -1.0302272332,
				"element": "H" 
			},
			{
				"x": 1.8975456097,
				"y": 1.0159084531,
				"z": -3.5845815617,
				"element": "H" 
			}
		],
		 "valence_orbital": [ 
			{
				"type": "occ",
				"energy": -0.32135,
				"method": "rhf"
			},
			{
				"type": "occ",
				"energy": -0.275,
				"method": "rhf"
			},
			{
				"type": "occ",
				"energy": -0.26182,
				"method": "rhf"
			},
			{
				"type": "occ",
				"energy": -0.20671,
				"method": "rhf"
			},
			{
				"type": "occ",
				"energy": -0.18965,
				"method": "rhf"
			},
			{
				"type": "unocc",
				"energy": -0.00162,
				"method": "rhf"
			},
			{
				"type": "unocc",
				"energy": 0.04152,
				"method": "rhf"
			},
			{
				"type": "unocc",
				"energy": 0.05025,
				"method": "rhf"
			},
			{
				"type": "unocc",
				"energy": 0.08321,
				"method": "rhf"
			},
			{
				"type": "unocc",
				"energy": 0.0983,
				"method": "rhf"
			}
		],
		"cosmo_sigma_profile": { 
			"-0.025": 0.0,
			"-0.024": 0.0,
			"-0.023": 0.0,
			"-0.022": 0.0,
			"-0.021": 0.0,
			"-0.02": 0.0,
			"-0.019": 0.0,
			"-0.018": 0.0,
			"-0.017": 0.0,
			"-0.016": 0.486631373002,
			"-0.015": 0.96096102433,
			"-0.014": 1.42644226467,
			"-0.013": 0.455424449891,
			"-0.012": 0.94440639401,
			"-0.011": 1.22921043661,
			"-0.01": 0.701276147785,
			"-0.009": 0.655172519659,
			"-0.008": 1.61471178938,
			"-0.007": 6.42959166905,
			"-0.006": 10.0316174001,
			"-0.005": 16.4466264758,
			"-0.004": 18.3790479761,
			"-0.003": 17.1513625325,
			"-0.002": 15.6379528743,
			"-0.001": 8.78070252347,
			"0.0": 8.01440802321,
			"0.001": 9.45461067727,
			"0.002": 9.63978807342,
			"0.003": 8.32727526402,
			"0.004": 11.3219792895,
			"0.005": 14.8872607974,
			"0.006": 17.8273463615,
			"0.007": 7.86591954111,
			"0.008": 2.85946595786,
			"0.009": 2.02032703179,
			"0.01": 1.15684065327,
			"0.011": 1.02062763238,
			"0.012": 1.45706928519,
			"0.013": 0.943237133312,
			"0.014": 1.29571769515,
			"0.015": 0.218870244996,
			"0.016": 0.0,
			"0.017": 0.0,
			"0.018": 0.0,
			"0.019": 0.0,
			"0.02": 0.0,
			"0.021": 0.0,
			"0.022": 0.0,
			"0.023": 0.0,
			"0.024": 0.0,
			"0.025": 0.0
		}
	}
}
