{
	 "smiles": "CC(=O)C1=C(C)N(N=C1)C1=CC=C(F)C=C1", 
	 "Tm": 361.15, 
	 "num_atms": 27, 
	 "gaussian": { 
		 "optdone": 1, 
		 "sigma_profile": "yes", 
		 "theory": "DFT", 
		 "functional": "B3LYP", 
		 "basiset": "6-31G**", 
		 "properties": { 
			 "R2extent": 5140.0119, 
			 "electric_dipole_moment_norm": 4.47298102053, 
			 "electric_quadrupole_moment_norm": 18.1415866401, 
			 "total_energy": -748.452970616, 
			 "HOMO_LUMO_gap": 0.1975, 
			 "cosmo_polarized_energy": -13.95, 
			 "cosmo_cavitation_energy": 31.66, 
			 "cosmo_dispersion_energy": -22.52, 
			 "cosmo_repulsion_energy": 1.7, 
			 "cosmo_total_nonelectrostatic_energy": 10.85, 
			 "SMD_solvation_energy": 5.97 
		},
		"coords": [
			{
				"x": 4.4872942061,
				"y": 1.4803816154,
				"z": -0.2264889592,
				"element": "C" 
			},
			{
				"x": 3.5165227011,
				"y": 1.6215649744,
				"z": 0.9350616693,
				"element": "C" 
			},
			{
				"x": 3.932672659,
				"y": 1.9010630219,
				"z": 2.052739813,
				"element": "O" 
			},
			{
				"x": 2.0698989688,
				"y": 1.4257718327,
				"z": 0.7201218145,
				"element": "C" 
			},
			{
				"x": 1.3157701917,
				"y": 1.0932347578,
				"z": -0.4111210525,
				"element": "C" 
			},
			{
				"x": 1.7223206591,
				"y": 0.7346106227,
				"z": -1.8081242834,
				"element": "C" 
			},
			{
				"x": 0.0104323338,
				"y": 1.0834837551,
				"z": 0.0042976406,
				"element": "N" 
			},
			{
				"x": -0.1214059867,
				"y": 1.3663877216,
				"z": 1.3397924459,
				"element": "N" 
			},
			{
				"x": 1.1116297744,
				"y": 1.5732911008,
				"z": 1.7589308447,
				"element": "C" 
			},
			{
				"x": -1.1716496911,
				"y": 0.7945550001,
				"z": -0.7362738204,
				"element": "C" 
			},
			{
				"x": -2.1290328476,
				"y": -0.0560146494,
				"z": -0.1704215188,
				"element": "C" 
			},
			{
				"x": -3.3038530984,
				"y": -0.3387874802,
				"z": -0.86081492,
				"element": "C" 
			},
			{
				"x": -3.5014857161,
				"y": 0.2299596131,
				"z": -2.1156907719,
				"element": "C" 
			},
			{
				"x": -4.6338060629,
				"y": -0.0502880662,
				"z": -2.7897277197,
				"element": "F" 
			},
			{
				"x": -2.5686695114,
				"y": 1.0848241889,
				"z": -2.6904525602,
				"element": "C" 
			},
			{
				"x": -1.4006749418,
				"y": 1.3778474861,
				"z": -1.9867152946,
				"element": "C" 
			},
			{
				"x": 5.4767276971,
				"y": 1.7915796879,
				"z": 0.1110501973,
				"element": "H" 
			},
			{
				"x": 4.5411104796,
				"y": 0.4369856818,
				"z": -0.5592583304,
				"element": "H" 
			},
			{
				"x": 4.1838514701,
				"y": 2.0856350863,
				"z": -1.0867730654,
				"element": "H" 
			},
			{
				"x": 2.6584449038,
				"y": 0.1744740875,
				"z": -1.8019641205,
				"element": "H" 
			},
			{
				"x": 0.9627391994,
				"y": 0.1171812416,
				"z": -2.292100805,
				"element": "H" 
			},
			{
				"x": 1.877023341,
				"y": 1.6221168056,
				"z": -2.4336094267,
				"element": "H" 
			},
			{
				"x": 1.3115350144,
				"y": 1.8298398136,
				"z": 2.7896597252,
				"element": "H" 
			},
			{
				"x": -1.9453986951,
				"y": -0.4760418318,
				"z": 0.8113007633,
				"element": "H" 
			},
			{
				"x": -4.0607653025,
				"y": -0.9938669832,
				"z": -0.4439644394,
				"element": "H" 
			},
			{
				"x": -2.7690362243,
				"y": 1.5246807904,
				"z": -3.6610005685,
				"element": "H" 
			},
			{
				"x": -0.6831955214,
				"y": 2.0769301254,
				"z": -2.4011532571,
				"element": "H" 
			}
		],
		 "valence_orbital": [ 
			{
				"type": "occ",
				"energy": -0.28562,
				"method": "rhf"
			},
			{
				"type": "occ",
				"energy": -0.27743,
				"method": "rhf"
			},
			{
				"type": "occ",
				"energy": -0.25308,
				"method": "rhf"
			},
			{
				"type": "occ",
				"energy": -0.24282,
				"method": "rhf"
			},
			{
				"type": "occ",
				"energy": -0.23846,
				"method": "rhf"
			},
			{
				"type": "unocc",
				"energy": -0.04096,
				"method": "rhf"
			},
			{
				"type": "unocc",
				"energy": -0.0282,
				"method": "rhf"
			},
			{
				"type": "unocc",
				"energy": -0.01573,
				"method": "rhf"
			},
			{
				"type": "unocc",
				"energy": 0.02139,
				"method": "rhf"
			},
			{
				"type": "unocc",
				"energy": 0.0679,
				"method": "rhf"
			}
		],
		"cosmo_sigma_profile": { 
			"-0.025": 0.0,
			"-0.024": 0.0,
			"-0.023": 0.0,
			"-0.022": 0.0,
			"-0.021": 0.0,
			"-0.02": 0.0,
			"-0.019": 0.0,
			"-0.018": 0.0,
			"-0.017": 0.0,
			"-0.016": 0.0,
			"-0.015": 0.0,
			"-0.014": 0.0,
			"-0.013": 0.0,
			"-0.012": 0.0,
			"-0.011": 0.0,
			"-0.01": 0.0,
			"-0.009": 0.00086302116055,
			"-0.008": 4.20505210922,
			"-0.007": 12.3255375738,
			"-0.006": 16.6731342983,
			"-0.005": 19.3799407578,
			"-0.004": 17.0805337489,
			"-0.003": 19.0839145275,
			"-0.002": 19.4253553274,
			"-0.001": 18.8572038181,
			"0.0": 20.0646892104,
			"0.001": 17.0764740729,
			"0.002": 21.9018080857,
			"0.003": 17.1391086829,
			"0.004": 15.3558520048,
			"0.005": 4.39465156733,
			"0.006": 3.89005150624,
			"0.007": 4.05827335179,
			"0.008": 2.36255748561,
			"0.009": 2.89625747766,
			"0.01": 2.52997673481,
			"0.011": 3.5399723765,
			"0.012": 5.11956634911,
			"0.013": 4.14267943944,
			"0.014": 1.76315852946,
			"0.015": 0.195671024067,
			"0.016": 0.0,
			"0.017": 0.0,
			"0.018": 0.0,
			"0.019": 0.0,
			"0.02": 0.0,
			"0.021": 0.0,
			"0.022": 0.0,
			"0.023": 0.0,
			"0.024": 0.0,
			"0.025": 0.0
		}
	}
}
