{
	 "smiles": "CC(C)CS(=O)(=O)CC(C)C", 
	 "Tm": 290.15, 
	 "num_atms": 29, 
	 "gaussian": { 
		 "optdone": 1, 
		 "sigma_profile": "yes", 
		 "theory": "DFT", 
		 "functional": "B3LYP", 
		 "basiset": "6-31G**", 
		 "properties": { 
			 "R2extent": 2904.8991, 
			 "electric_dipole_moment_norm": 4.27391474529, 
			 "electric_quadrupole_moment_norm": 10.7102425705, 
			 "total_energy": -864.295095018, 
			 "HOMO_LUMO_gap": 0.30627, 
			 "cosmo_polarized_energy": -13.83, 
			 "cosmo_cavitation_energy": 30.08, 
			 "cosmo_dispersion_energy": -21.58, 
			 "cosmo_repulsion_energy": 1.68, 
			 "cosmo_total_nonelectrostatic_energy": 10.19, 
			 "SMD_solvation_energy": 4.58 
		},
		"coords": [
			{
				"x": 3.1401602151,
				"y": -1.6618384706,
				"z": 2.8821982588,
				"element": "C" 
			},
			{
				"x": 1.7665942799,
				"y": -2.2433599718,
				"z": 2.5114264564,
				"element": "C" 
			},
			{
				"x": 0.6291700678,
				"y": -1.5326147451,
				"z": 3.2604630725,
				"element": "C" 
			},
			{
				"x": 1.5555354876,
				"y": -2.3255544468,
				"z": 0.9864975564,
				"element": "C" 
			},
			{
				"x": 1.324188703,
				"y": -0.7684908885,
				"z": 0.0333614524,
				"element": "S" 
			},
			{
				"x": 1.9218346867,
				"y": 0.3615602211,
				"z": 0.7740853927,
				"element": "O" 
			},
			{
				"x": 1.7787557485,
				"y": -1.0669803299,
				"z": -1.3379913008,
				"element": "O" 
			},
			{
				"x": -0.4946034473,
				"y": -0.5568200103,
				"z": -0.0065649838,
				"element": "C" 
			},
			{
				"x": -1.0211903335,
				"y": 0.7197751474,
				"z": -0.6984240549,
				"element": "C" 
			},
			{
				"x": -0.6333991863,
				"y": 0.8138567687,
				"z": -2.1824945759,
				"element": "C" 
			},
			{
				"x": -0.6811395008,
				"y": 2.0096777457,
				"z": 0.0651081988,
				"element": "C" 
			},
			{
				"x": 3.2958021155,
				"y": -1.721276693,
				"z": 3.9644913821,
				"element": "H" 
			},
			{
				"x": 3.2187932655,
				"y": -0.6164776552,
				"z": 2.5762112663,
				"element": "H" 
			},
			{
				"x": 3.9483784309,
				"y": -2.2210116321,
				"z": 2.3980247182,
				"element": "H" 
			},
			{
				"x": 1.7580179642,
				"y": -3.2962042191,
				"z": 2.8305144413,
				"element": "H" 
			},
			{
				"x": 0.7740689205,
				"y": -1.6275290486,
				"z": 4.3411698007,
				"element": "H" 
			},
			{
				"x": 0.6087559713,
				"y": -0.4646853925,
				"z": 3.023264506,
				"element": "H" 
			},
			{
				"x": -0.3492397017,
				"y": -1.9662447103,
				"z": 3.0222083538,
				"element": "H" 
			},
			{
				"x": 0.6909911987,
				"y": -2.9475019448,
				"z": 0.7297654184,
				"element": "H" 
			},
			{
				"x": 2.4300523213,
				"y": -2.7620305231,
				"z": 0.4941765704,
				"element": "H" 
			},
			{
				"x": -0.8208507348,
				"y": -0.5898515617,
				"z": 1.0369083122,
				"element": "H" 
			},
			{
				"x": -0.8642574774,
				"y": -1.4501831899,
				"z": -0.5202663815,
				"element": "H" 
			},
			{
				"x": -2.1133705389,
				"y": 0.5930534722,
				"z": -0.6540881636,
				"element": "H" 
			},
			{
				"x": -1.1549449759,
				"y": 1.6561407406,
				"z": -2.6487159003,
				"element": "H" 
			},
			{
				"x": 0.4414101221,
				"y": 0.9617796306,
				"z": -2.3108964766,
				"element": "H" 
			},
			{
				"x": -0.9051991374,
				"y": -0.0962135127,
				"z": -2.7271180735,
				"element": "H" 
			},
			{
				"x": -1.0016716306,
				"y": 1.9511337908,
				"z": 1.111145477,
				"element": "H" 
			},
			{
				"x": -1.1953284278,
				"y": 2.8597602967,
				"z": -0.3951631912,
				"element": "H" 
			},
			{
				"x": 0.3925855939,
				"y": 2.2083311321,
				"z": 0.0585024676,
				"element": "H" 
			}
		],
		 "valence_orbital": [ 
			{
				"type": "occ",
				"energy": -0.33745,
				"method": "rhf"
			},
			{
				"type": "occ",
				"energy": -0.31118,
				"method": "rhf"
			},
			{
				"type": "occ",
				"energy": -0.30075,
				"method": "rhf"
			},
			{
				"type": "occ",
				"energy": -0.28729,
				"method": "rhf"
			},
			{
				"type": "occ",
				"energy": -0.2666,
				"method": "rhf"
			},
			{
				"type": "unocc",
				"energy": 0.03967,
				"method": "rhf"
			},
			{
				"type": "unocc",
				"energy": 0.06738,
				"method": "rhf"
			},
			{
				"type": "unocc",
				"energy": 0.07721,
				"method": "rhf"
			},
			{
				"type": "unocc",
				"energy": 0.08426,
				"method": "rhf"
			},
			{
				"type": "unocc",
				"energy": 0.10072,
				"method": "rhf"
			}
		],
		"cosmo_sigma_profile": { 
			"-0.025": 0.0,
			"-0.024": 0.0,
			"-0.023": 0.0,
			"-0.022": 0.0,
			"-0.021": 0.0,
			"-0.02": 0.0,
			"-0.019": 0.0,
			"-0.018": 0.0,
			"-0.017": 0.0,
			"-0.016": 0.0,
			"-0.015": 0.0,
			"-0.014": 0.0,
			"-0.013": 0.0,
			"-0.012": 0.0,
			"-0.011": 0.0303751725278,
			"-0.01": 0.53737948335,
			"-0.009": 1.48416322997,
			"-0.008": 2.71487483464,
			"-0.007": 4.7384745834,
			"-0.006": 9.29220930656,
			"-0.005": 11.7548505686,
			"-0.004": 20.1422250913,
			"-0.003": 26.7428191229,
			"-0.002": 25.0941655447,
			"-0.001": 24.071653515,
			"0.0": 23.4801273014,
			"0.001": 27.9518436746,
			"0.002": 10.3358459513,
			"0.003": 3.79842881376,
			"0.004": 3.71221984924,
			"0.005": 2.9219615075,
			"0.006": 2.57259142072,
			"0.007": 4.33557939841,
			"0.008": 3.26321867596,
			"0.009": 2.72588796393,
			"0.01": 3.85897492128,
			"0.011": 5.46918463135,
			"0.012": 7.23946598407,
			"0.013": 3.79855522652,
			"0.014": 0.245376544041,
			"0.015": 0.0,
			"0.016": 0.0,
			"0.017": 0.0,
			"0.018": 0.0,
			"0.019": 0.0,
			"0.02": 0.0,
			"0.021": 0.0,
			"0.022": 0.0,
			"0.023": 0.0,
			"0.024": 0.0,
			"0.025": 0.0
		}
	}
}
