{
	 "smiles": "CC(OC1=C(Br)C=C(Cl)C=C1)C(O)=O", 
	 "Tm": 396.15, 
	 "num_atms": 22, 
	 "gaussian": { 
		 "optdone": 1, 
		 "sigma_profile": "yes", 
		 "theory": "DFT", 
		 "functional": "B3LYP", 
		 "basiset": "6-31G**", 
		 "properties": { 
			 "R2extent": 6166.4715, 
			 "electric_dipole_moment_norm": 2.20693637878, 
			 "electric_quadrupole_moment_norm": 8.91115576791, 
			 "total_energy": -3605.04909014, 
			 "HOMO_LUMO_gap": 0.20045, 
			 "cosmo_polarized_energy": -11.96, 
			 "cosmo_cavitation_energy": 31.04, 
			 "cosmo_dispersion_energy": -22.24, 
			 "cosmo_repulsion_energy": 1.79, 
			 "cosmo_total_nonelectrostatic_energy": 10.6, 
			 "SMD_solvation_energy": 5.33 
		},
		"coords": [
			{
				"x": 3.160340987,
				"y": 0.9557669306,
				"z": -0.471180381,
				"element": "C" 
			},
			{
				"x": 1.8935231261,
				"y": 0.4378677698,
				"z": 0.2089765889,
				"element": "C" 
			},
			{
				"x": 0.914192363,
				"y": 1.4612830939,
				"z": 0.0732969893,
				"element": "O" 
			},
			{
				"x": -0.383570969,
				"y": 1.1919748851,
				"z": 0.3844631104,
				"element": "C" 
			},
			{
				"x": -1.3148462527,
				"y": 2.2254536116,
				"z": 0.1727096381,
				"element": "C" 
			},
			{
				"x": -0.7304406623,
				"y": 3.9020256814,
				"z": -0.5128489586,
				"element": "Br" 
			},
			{
				"x": -2.6644445239,
				"y": 2.0460624145,
				"z": 0.453087831,
				"element": "C" 
			},
			{
				"x": -3.1007907568,
				"y": 0.8181910047,
				"z": 0.9521626818,
				"element": "C" 
			},
			{
				"x": -4.805922066,
				"y": 0.5915292654,
				"z": 1.3068067049,
				"element": "Cl" 
			},
			{
				"x": -2.2014080581,
				"y": -0.219261212,
				"z": 1.1708776206,
				"element": "C" 
			},
			{
				"x": -0.8475146,
				"y": -0.0302084854,
				"z": 0.8870350547,
				"element": "C" 
			},
			{
				"x": 2.1907971634,
				"y": 0.0822849004,
				"z": 1.6691138127,
				"element": "C" 
			},
			{
				"x": 2.1418372579,
				"y": 1.1519251226,
				"z": 2.4837239376,
				"element": "O" 
			},
			{
				"x": 2.4838738205,
				"y": -1.0342863125,
				"z": 2.0360295604,
				"element": "O" 
			},
			{
				"x": 2.9496946652,
				"y": 1.1646922881,
				"z": -1.5225260937,
				"element": "H" 
			},
			{
				"x": 3.9534683796,
				"y": 0.2062181721,
				"z": -0.4082800118,
				"element": "H" 
			},
			{
				"x": 3.496019859,
				"y": 1.8773906344,
				"z": 0.0103133675,
				"element": "H" 
			},
			{
				"x": 1.5570471989,
				"y": -0.486434143,
				"z": -0.2744202406,
				"element": "H" 
			},
			{
				"x": -3.365120018,
				"y": 2.8537981574,
				"z": 0.2827488515,
				"element": "H" 
			},
			{
				"x": -2.546703785,
				"y": -1.1697534493,
				"z": 1.5611258529,
				"element": "H" 
			},
			{
				"x": -0.1609334198,
				"y": -0.8479013261,
				"z": 1.071529001,
				"element": "H" 
			},
			{
				"x": 2.3669002908,
				"y": 0.8314809965,
				"z": 3.3739550823,
				"element": "H" 
			}
		],
		 "valence_orbital": [ 
			{
				"type": "occ",
				"energy": -0.31067,
				"method": "rhf"
			},
			{
				"type": "occ",
				"energy": -0.29138,
				"method": "rhf"
			},
			{
				"type": "occ",
				"energy": -0.2855,
				"method": "rhf"
			},
			{
				"type": "occ",
				"energy": -0.25905,
				"method": "rhf"
			},
			{
				"type": "occ",
				"energy": -0.23106,
				"method": "rhf"
			},
			{
				"type": "unocc",
				"energy": -0.03061,
				"method": "rhf"
			},
			{
				"type": "unocc",
				"energy": -0.01286,
				"method": "rhf"
			},
			{
				"type": "unocc",
				"energy": -0.01123,
				"method": "rhf"
			},
			{
				"type": "unocc",
				"energy": -0.00589,
				"method": "rhf"
			},
			{
				"type": "unocc",
				"energy": 0.04129,
				"method": "rhf"
			}
		],
		"cosmo_sigma_profile": { 
			"-0.025": 0.0,
			"-0.024": 0.0,
			"-0.023": 0.0,
			"-0.022": 0.0,
			"-0.021": 0.0,
			"-0.02": 0.0,
			"-0.019": 0.597841082036,
			"-0.018": 0.896502577125,
			"-0.017": 0.918132686092,
			"-0.016": 0.592900777022,
			"-0.015": 1.2655039349,
			"-0.014": 0.699155070821,
			"-0.013": 0.335548826814,
			"-0.012": 0.714213705228,
			"-0.011": 0.819474212059,
			"-0.01": 0.592371046223,
			"-0.009": 0.853453538432,
			"-0.008": 5.82184744627,
			"-0.007": 8.53155622162,
			"-0.006": 8.55438706747,
			"-0.005": 13.7481639992,
			"-0.004": 15.3172172496,
			"-0.003": 15.7789266193,
			"-0.002": 16.9527816575,
			"-0.001": 17.27341523,
			"0.0": 15.3779900786,
			"0.001": 26.0072355221,
			"0.002": 24.8870886124,
			"0.003": 17.0046305346,
			"0.004": 21.4742149478,
			"0.005": 11.0170886626,
			"0.006": 4.98285402225,
			"0.007": 4.08121877783,
			"0.008": 4.66807742888,
			"0.009": 4.09295565826,
			"0.01": 2.020561031,
			"0.011": 5.26915285881,
			"0.012": 1.84223628771,
			"0.013": 0.0112479085364,
			"0.014": 0.0,
			"0.015": 0.0,
			"0.016": 0.0,
			"0.017": 0.0,
			"0.018": 0.0,
			"0.019": 0.0,
			"0.02": 0.0,
			"0.021": 0.0,
			"0.022": 0.0,
			"0.023": 0.0,
			"0.024": 0.0,
			"0.025": 0.0
		}
	}
}
