{
	 "smiles": "CCN1C=CN=C(N)C1=O", 
	 "Tm": 393.15, 
	 "num_atms": 19, 
	 "gaussian": { 
		 "optdone": 1, 
		 "sigma_profile": "yes", 
		 "theory": "DFT", 
		 "functional": "B3LYP", 
		 "basiset": "6-31G**", 
		 "properties": { 
			 "R2extent": 1800.1822, 
			 "electric_dipole_moment_norm": 1.75821303886, 
			 "electric_quadrupole_moment_norm": 10.6011972635, 
			 "total_energy": -473.556918613, 
			 "HOMO_LUMO_gap": 0.16679, 
			 "cosmo_polarized_energy": -11.98, 
			 "cosmo_cavitation_energy": 22.46, 
			 "cosmo_dispersion_energy": -16.75, 
			 "cosmo_repulsion_energy": 1.36, 
			 "cosmo_total_nonelectrostatic_energy": 7.08, 
			 "SMD_solvation_energy": 3.35 
		},
		"coords": [
			{
				"x": 1.8293908025,
				"y": 0.1581555046,
				"z": 2.3204003287,
				"element": "C" 
			},
			{
				"x": 2.5409069454,
				"y": -0.3885135786,
				"z": 1.0820048762,
				"element": "C" 
			},
			{
				"x": 1.7402174223,
				"y": -0.2295591471,
				"z": -0.1414427588,
				"element": "N" 
			},
			{
				"x": 1.9321847422,
				"y": 0.8567681446,
				"z": -0.9832052977,
				"element": "C" 
			},
			{
				"x": 1.1712162005,
				"y": 0.9843812591,
				"z": -2.1007096779,
				"element": "C" 
			},
			{
				"x": 0.1957511075,
				"y": 0.0868007647,
				"z": -2.4512086418,
				"element": "N" 
			},
			{
				"x": 0.0048441207,
				"y": -0.9292925289,
				"z": -1.6467851018,
				"element": "C" 
			},
			{
				"x": -0.9583802484,
				"y": -1.8561852106,
				"z": -1.8835232469,
				"element": "N" 
			},
			{
				"x": 0.7742022821,
				"y": -1.179516188,
				"z": -0.4025270237,
				"element": "C" 
			},
			{
				"x": 0.5695883217,
				"y": -2.159836144,
				"z": 0.3239520677,
				"element": "O" 
			},
			{
				"x": 0.8937337108,
				"y": -0.3814065795,
				"z": 2.4844462264,
				"element": "H" 
			},
			{
				"x": 2.4623886972,
				"y": 0.0264289266,
				"z": 3.2037271236,
				"element": "H" 
			},
			{
				"x": 1.6081587589,
				"y": 1.2246318593,
				"z": 2.2124842701,
				"element": "H" 
			},
			{
				"x": 2.7330320028,
				"y": -1.4569113977,
				"z": 1.1999958527,
				"element": "H" 
			},
			{
				"x": 3.4943410605,
				"y": 0.1206992155,
				"z": 0.9152984666,
				"element": "H" 
			},
			{
				"x": 2.7071450468,
				"y": 1.5569502934,
				"z": -0.6978663415,
				"element": "H" 
			},
			{
				"x": 1.320275135,
				"y": 1.825190366,
				"z": -2.7702269636,
				"element": "H" 
			},
			{
				"x": -0.9525273853,
				"y": -2.6793287833,
				"z": -1.3004085203,
				"element": "H" 
			},
			{
				"x": -1.422468723,
				"y": -1.857956776,
				"z": -2.7768056379,
				"element": "H" 
			}
		],
		 "valence_orbital": [ 
			{
				"type": "occ",
				"energy": -0.33613,
				"method": "rhf"
			},
			{
				"type": "occ",
				"energy": -0.29165,
				"method": "rhf"
			},
			{
				"type": "occ",
				"energy": -0.27019,
				"method": "rhf"
			},
			{
				"type": "occ",
				"energy": -0.23878,
				"method": "rhf"
			},
			{
				"type": "occ",
				"energy": -0.19441,
				"method": "rhf"
			},
			{
				"type": "unocc",
				"energy": -0.02762,
				"method": "rhf"
			},
			{
				"type": "unocc",
				"energy": 0.01767,
				"method": "rhf"
			},
			{
				"type": "unocc",
				"energy": 0.08874,
				"method": "rhf"
			},
			{
				"type": "unocc",
				"energy": 0.10228,
				"method": "rhf"
			},
			{
				"type": "unocc",
				"energy": 0.11554,
				"method": "rhf"
			}
		],
		"cosmo_sigma_profile": { 
			"-0.025": 0.0,
			"-0.024": 0.0,
			"-0.023": 0.0,
			"-0.022": 0.0,
			"-0.021": 0.0,
			"-0.02": 0.0,
			"-0.019": 0.0,
			"-0.018": 0.0,
			"-0.017": 0.0,
			"-0.016": 0.0,
			"-0.015": 0.0,
			"-0.014": 0.45949904046,
			"-0.013": 1.25874577802,
			"-0.012": 1.70481160519,
			"-0.011": 1.13226610258,
			"-0.01": 1.93994816877,
			"-0.009": 3.2264598509,
			"-0.008": 5.3607604557,
			"-0.007": 5.15237966142,
			"-0.006": 6.33724071212,
			"-0.005": 8.31329561363,
			"-0.004": 12.4173166019,
			"-0.003": 15.6338512754,
			"-0.002": 15.7667789355,
			"-0.001": 15.9792592807,
			"0.0": 15.8994065989,
			"0.001": 10.0552802104,
			"0.002": 7.11538190567,
			"0.003": 6.85587448275,
			"0.004": 7.76290874727,
			"0.005": 4.75698975025,
			"0.006": 4.62415302474,
			"0.007": 3.81374731775,
			"0.008": 3.51442493503,
			"0.009": 2.30464175705,
			"0.01": 2.10727550093,
			"0.011": 2.7360177706,
			"0.012": 3.24248169625,
			"0.013": 3.83923395032,
			"0.014": 2.76395408893,
			"0.015": 1.06490136039,
			"0.016": 0.341844052948,
			"0.017": 0.113641837579,
			"0.018": 0.0,
			"0.019": 0.0,
			"0.02": 0.0,
			"0.021": 0.0,
			"0.022": 0.0,
			"0.023": 0.0,
			"0.024": 0.0,
			"0.025": 0.0
		}
	}
}
