{
	 "smiles": "ClC1=CN=CC(Cl)=C1Cl", 
	 "Tm": 345.15, 
	 "num_atms": 11, 
	 "gaussian": { 
		 "optdone": 1, 
		 "sigma_profile": "yes", 
		 "theory": "DFT", 
		 "functional": "B3LYP", 
		 "basiset": "6-31G**", 
		 "properties": { 
			 "R2extent": 2837.8224, 
			 "electric_dipole_moment_norm": 0.214008177414, 
			 "electric_quadrupole_moment_norm": 2.52919077177, 
			 "total_energy": -1627.04685261, 
			 "HOMO_LUMO_gap": 0.21379, 
			 "cosmo_polarized_energy": -4.06, 
			 "cosmo_cavitation_energy": 20.9, 
			 "cosmo_dispersion_energy": -16.11, 
			 "cosmo_repulsion_energy": 1.31, 
			 "cosmo_total_nonelectrostatic_energy": 6.1, 
			 "SMD_solvation_energy": 1.54 
		},
		"coords": [
			{
				"x": 0.0899926071,
				"y": -0.3195633679,
				"z": -2.3194974716,
				"element": "Cl" 
			},
			{
				"x": 0.6374000933,
				"y": 0.2038577722,
				"z": -0.7530730558,
				"element": "C" 
			},
			{
				"x": -0.2640183009,
				"y": 0.8451464556,
				"z": 0.1014375502,
				"element": "C" 
			},
			{
				"x": 0.0670306596,
				"y": 1.2794394192,
				"z": 1.3173428354,
				"element": "N" 
			},
			{
				"x": 1.3192153286,
				"y": 1.0904438393,
				"z": 1.7332323064,
				"element": "C" 
			},
			{
				"x": 2.2960206778,
				"y": 0.4607790336,
				"z": 0.9564651095,
				"element": "C" 
			},
			{
				"x": 3.898760464,
				"y": 0.2702971161,
				"z": 1.6062734157,
				"element": "Cl" 
			},
			{
				"x": 1.9581828708,
				"y": -0.0002723565,
				"z": -0.3251528188,
				"element": "C" 
			},
			{
				"x": 3.1212823175,
				"y": -0.7873003962,
				"z": -1.3353431648,
				"element": "Cl" 
			},
			{
				"x": -1.2875616712,
				"y": 1.0048012426,
				"z": -0.2268149502,
				"element": "H" 
			},
			{
				"x": 1.5774949534,
				"y": 1.4486712421,
				"z": 2.726130244,
				"element": "H" 
			}
		],
		 "valence_orbital": [ 
			{
				"type": "occ",
				"energy": -0.34928,
				"method": "rhf"
			},
			{
				"type": "occ",
				"energy": -0.32333,
				"method": "rhf"
			},
			{
				"type": "occ",
				"energy": -0.28632,
				"method": "rhf"
			},
			{
				"type": "occ",
				"energy": -0.28566,
				"method": "rhf"
			},
			{
				"type": "occ",
				"energy": -0.27233,
				"method": "rhf"
			},
			{
				"type": "unocc",
				"energy": -0.05854,
				"method": "rhf"
			},
			{
				"type": "unocc",
				"energy": -0.04656,
				"method": "rhf"
			},
			{
				"type": "unocc",
				"energy": -0.02918,
				"method": "rhf"
			},
			{
				"type": "unocc",
				"energy": 0.03472,
				"method": "rhf"
			},
			{
				"type": "unocc",
				"energy": 0.05075,
				"method": "rhf"
			}
		],
		"cosmo_sigma_profile": { 
			"-0.025": 0.0,
			"-0.024": 0.0,
			"-0.023": 0.0,
			"-0.022": 0.0,
			"-0.021": 0.0,
			"-0.02": 0.0,
			"-0.019": 0.0,
			"-0.018": 0.0,
			"-0.017": 0.0,
			"-0.016": 0.0,
			"-0.015": 0.0,
			"-0.014": 0.0,
			"-0.013": 0.0,
			"-0.012": 0.0,
			"-0.011": 0.0,
			"-0.01": 0.0,
			"-0.009": 1.697785564,
			"-0.008": 4.04340441384,
			"-0.007": 2.43487490769,
			"-0.006": 3.4658331888,
			"-0.005": 3.65286701466,
			"-0.004": 7.67787223644,
			"-0.003": 18.0702214831,
			"-0.002": 23.1456441398,
			"-0.001": 18.3364458193,
			"0.0": 13.469920112,
			"0.001": 16.0395740584,
			"0.002": 20.9502352347,
			"0.003": 25.5074993349,
			"0.004": 7.23736933697,
			"0.005": 1.65928447809,
			"0.006": 1.56411271368,
			"0.007": 0.87151646645,
			"0.008": 0.656799470757,
			"0.009": 0.734789990988,
			"0.01": 1.4016137009,
			"0.011": 0.808279014712,
			"0.012": 0.694655785153,
			"0.013": 0.86597340669,
			"0.014": 0.757755742552,
			"0.015": 0.0570085523666,
			"0.016": 0.0,
			"0.017": 0.0,
			"0.018": 0.0,
			"0.019": 0.0,
			"0.02": 0.0,
			"0.021": 0.0,
			"0.022": 0.0,
			"0.023": 0.0,
			"0.024": 0.0,
			"0.025": 0.0
		}
	}
}
