{
	 "smiles": "CC(C)(C)OC(=O)C1=CC2=C(OC1=O)C1=C3N(CCCC3=C2)CCC1", 
	 "Tm": 444.15, 
	 "num_atms": 48, 
	 "gaussian": { 
		 "optdone": 1, 
		 "sigma_profile": "yes", 
		 "theory": "DFT", 
		 "functional": "B3LYP", 
		 "basiset": "6-31G**", 
		 "properties": { 
			 "R2extent": 12432.3362, 
			 "electric_dipole_moment_norm": 9.26148286669, 
			 "electric_quadrupole_moment_norm": 35.1299241484, 
			 "total_energy": -1131.69209685, 
			 "HOMO_LUMO_gap": 0.13215, 
			 "cosmo_polarized_energy": -21.78, 
			 "cosmo_cavitation_energy": 47.97, 
			 "cosmo_dispersion_energy": -34.43, 
			 "cosmo_repulsion_energy": 2.59, 
			 "cosmo_total_nonelectrostatic_energy": 16.13, 
			 "SMD_solvation_energy": 7.96 
		},
		"coords": [
			{
				"x": 4.879168781,
				"y": -2.1581814275,
				"z": -1.4864418611,
				"element": "C" 
			},
			{
				"x": 5.1236000293,
				"y": -0.7347868254,
				"z": -0.9767241878,
				"element": "C" 
			},
			{
				"x": 5.9608184757,
				"y": -0.7572625498,
				"z": 0.307390736,
				"element": "C" 
			},
			{
				"x": 5.7619489401,
				"y": 0.1287196001,
				"z": -2.0709179427,
				"element": "C" 
			},
			{
				"x": 3.7625970186,
				"y": -0.260028148,
				"z": -0.6855917382,
				"element": "O" 
			},
			{
				"x": 3.5385398569,
				"y": 0.9925105816,
				"z": -0.2028997766,
				"element": "C" 
			},
			{
				"x": 4.4108737929,
				"y": 1.8033512236,
				"z": 0.0295954411,
				"element": "O" 
			},
			{
				"x": 2.0786744008,
				"y": 1.2207014643,
				"z": -0.0065610827,
				"element": "C" 
			},
			{
				"x": 1.1532809545,
				"y": 0.2633675072,
				"z": -0.3386980018,
				"element": "C" 
			},
			{
				"x": -0.2413904133,
				"y": 0.4570922935,
				"z": -0.1684769649,
				"element": "C" 
			},
			{
				"x": -0.6756451536,
				"y": 1.6904218885,
				"z": 0.3610591935,
				"element": "C" 
			},
			{
				"x": 0.2324916961,
				"y": 2.6460488601,
				"z": 0.6927652644,
				"element": "O" 
			},
			{
				"x": 1.6351002548,
				"y": 2.5017731912,
				"z": 0.5548655699,
				"element": "C" 
			},
			{
				"x": 2.2949267273,
				"y": 3.441665619,
				"z": 0.9136142754,
				"element": "O" 
			},
			{
				"x": -2.0214859311,
				"y": 1.9923268192,
				"z": 0.5574137491,
				"element": "C" 
			},
			{
				"x": -2.9886575733,
				"y": 1.0119864371,
				"z": 0.2180637294,
				"element": "C" 
			},
			{
				"x": -4.3297720016,
				"y": 1.2751796262,
				"z": 0.38999227,
				"element": "N" 
			},
			{
				"x": -5.3838191263,
				"y": 0.3760824985,
				"z": -0.0796612649,
				"element": "C" 
			},
			{
				"x": -4.8903450529,
				"y": -0.6083219166,
				"z": -1.1355535838,
				"element": "C" 
			},
			{
				"x": -3.6165662637,
				"y": -1.2954668085,
				"z": -0.6378867378,
				"element": "C" 
			},
			{
				"x": -2.570860022,
				"y": -0.2576297411,
				"z": -0.3026429039,
				"element": "C" 
			},
			{
				"x": -1.2273067525,
				"y": -0.4978596547,
				"z": -0.4950512877,
				"element": "C" 
			},
			{
				"x": -4.8102085402,
				"y": 2.5128768201,
				"z": 1.0044027837,
				"element": "C" 
			},
			{
				"x": -3.7598559624,
				"y": 3.1593530818,
				"z": 1.9012527162,
				"element": "C" 
			},
			{
				"x": -2.4440870235,
				"y": 3.3214215528,
				"z": 1.1372615057,
				"element": "C" 
			},
			{
				"x": 4.2473911507,
				"y": -2.1457776994,
				"z": -2.3797354634,
				"element": "H" 
			},
			{
				"x": 5.8298908233,
				"y": -2.6354785627,
				"z": -1.7424542869,
				"element": "H" 
			},
			{
				"x": 4.3839768522,
				"y": -2.7629913258,
				"z": -0.7208401495,
				"element": "H" 
			},
			{
				"x": 5.4531574184,
				"y": -1.3421000893,
				"z": 1.0810818274,
				"element": "H" 
			},
			{
				"x": 6.1316376809,
				"y": 0.2516635203,
				"z": 0.6825543084,
				"element": "H" 
			},
			{
				"x": 6.9283201082,
				"y": -1.2288167555,
				"z": 0.1054215514,
				"element": "H" 
			},
			{
				"x": 5.9314209244,
				"y": 1.1463945612,
				"z": -1.719449743,
				"element": "H" 
			},
			{
				"x": 5.1157527659,
				"y": 0.1613424612,
				"z": -2.953979718,
				"element": "H" 
			},
			{
				"x": 6.7213323585,
				"y": -0.3074843144,
				"z": -2.3684270445,
				"element": "H" 
			},
			{
				"x": 1.5056790922,
				"y": -0.6779558124,
				"z": -0.7472882787,
				"element": "H" 
			},
			{
				"x": -5.8105385187,
				"y": -0.1729024976,
				"z": 0.7755543532,
				"element": "H" 
			},
			{
				"x": -6.192823299,
				"y": 0.9927924247,
				"z": -0.4921052795,
				"element": "H" 
			},
			{
				"x": -4.6801766962,
				"y": -0.0738031731,
				"z": -2.0694242775,
				"element": "H" 
			},
			{
				"x": -5.6817179363,
				"y": -1.3354756302,
				"z": -1.3442057437,
				"element": "H" 
			},
			{
				"x": -3.8582219645,
				"y": -1.8960570587,
				"z": 0.251618401,
				"element": "H" 
			},
			{
				"x": -3.2270059208,
				"y": -1.9921930266,
				"z": -1.3873106376,
				"element": "H" 
			},
			{
				"x": -0.9113575854,
				"y": -1.4543423343,
				"z": -0.9055289323,
				"element": "H" 
			},
			{
				"x": -5.7072414324,
				"y": 2.2698001347,
				"z": 1.5879093994,
				"element": "H" 
			},
			{
				"x": -5.1246059389,
				"y": 3.2199758602,
				"z": 0.2193099243,
				"element": "H" 
			},
			{
				"x": -4.1338863459,
				"y": 4.1264364457,
				"z": 2.2521438349,
				"element": "H" 
			},
			{
				"x": -3.5985090328,
				"y": 2.5310463176,
				"z": 2.7851836893,
				"element": "H" 
			},
			{
				"x": -2.5699088943,
				"y": 4.0641224922,
				"z": 0.3363148352,
				"element": "H" 
			},
			{
				"x": -1.6553867209,
				"y": 3.7079620689,
				"z": 1.7872875296,
				"element": "H" 
			}
		],
		 "valence_orbital": [ 
			{
				"type": "occ",
				"energy": -0.26815,
				"method": "rhf"
			},
			{
				"type": "occ",
				"energy": -0.26496,
				"method": "rhf"
			},
			{
				"type": "occ",
				"energy": -0.23772,
				"method": "rhf"
			},
			{
				"type": "occ",
				"energy": -0.23,
				"method": "rhf"
			},
			{
				"type": "occ",
				"energy": -0.19457,
				"method": "rhf"
			},
			{
				"type": "unocc",
				"energy": -0.06242,
				"method": "rhf"
			},
			{
				"type": "unocc",
				"energy": -0.00508,
				"method": "rhf"
			},
			{
				"type": "unocc",
				"energy": 0.01794,
				"method": "rhf"
			},
			{
				"type": "unocc",
				"energy": 0.03427,
				"method": "rhf"
			},
			{
				"type": "unocc",
				"energy": 0.07007,
				"method": "rhf"
			}
		],
		"cosmo_sigma_profile": { 
			"-0.025": 0.0,
			"-0.024": 0.0,
			"-0.023": 0.0,
			"-0.022": 0.0,
			"-0.021": 0.0,
			"-0.02": 0.0,
			"-0.019": 0.0,
			"-0.018": 0.0,
			"-0.017": 0.0,
			"-0.016": 0.0,
			"-0.015": 0.0,
			"-0.014": 0.0,
			"-0.013": 0.0,
			"-0.012": 0.0,
			"-0.011": 0.0,
			"-0.01": 0.0,
			"-0.009": 0.0,
			"-0.008": 0.486661974602,
			"-0.007": 2.58668409134,
			"-0.006": 3.66740340543,
			"-0.005": 11.6183661217,
			"-0.004": 45.4122174517,
			"-0.003": 54.7676630366,
			"-0.002": 47.4120424,
			"-0.001": 46.116021361,
			"0.0": 43.2603828782,
			"0.001": 35.7751048381,
			"0.002": 19.28750211,
			"0.003": 15.2694479443,
			"0.004": 9.23463219723,
			"0.005": 4.07624887489,
			"0.006": 3.3377626354,
			"0.007": 3.04409567268,
			"0.008": 2.32252815159,
			"0.009": 3.06207835058,
			"0.01": 2.90600511814,
			"0.011": 4.30179469239,
			"0.012": 6.53690589573,
			"0.013": 5.64231391935,
			"0.014": 2.00658199417,
			"0.015": 1.77320227341,
			"0.016": 1.41996796588,
			"0.017": 0.924923980205,
			"0.018": 0.339501544324,
			"0.019": 0.0,
			"0.02": 0.0,
			"0.021": 0.0,
			"0.022": 0.0,
			"0.023": 0.0,
			"0.024": 0.0,
			"0.025": 0.0
		}
	}
}
