{
	 "smiles": "ClS(=O)(=O)C1=CN=C(OC2=CC=CC=C2)C=C1", 
	 "Tm": 388.15, 
	 "num_atms": 25, 
	 "gaussian": { 
		 "optdone": 1, 
		 "sigma_profile": "yes", 
		 "theory": "DFT", 
		 "functional": "B3LYP", 
		 "basiset": "6-31G**", 
		 "properties": { 
			 "R2extent": 9431.7, 
			 "electric_dipole_moment_norm": 5.31675444703, 
			 "electric_quadrupole_moment_norm": 26.4107601025, 
			 "total_energy": -1562.7144176, 
			 "HOMO_LUMO_gap": 0.1622, 
			 "cosmo_polarized_energy": -11.69, 
			 "cosmo_cavitation_energy": 34.18, 
			 "cosmo_dispersion_energy": -25.14, 
			 "cosmo_repulsion_energy": 1.92, 
			 "cosmo_total_nonelectrostatic_energy": 10.96, 
			 "SMD_solvation_energy": 3.86 
		},
		"coords": [
			{
				"x": -0.5180785529,
				"y": 5.8136149921,
				"z": 2.3237658121,
				"element": "Cl" 
			},
			{
				"x": -1.0194800915,
				"y": 4.2316591648,
				"z": 3.6711968477,
				"element": "S" 
			},
			{
				"x": -0.1689940714,
				"y": 4.4196164556,
				"z": 4.8400162841,
				"element": "O" 
			},
			{
				"x": -2.4741849231,
				"y": 4.2172017746,
				"z": 3.7529517777,
				"element": "O" 
			},
			{
				"x": -0.4677024153,
				"y": 2.8067353203,
				"z": 2.7727120251,
				"element": "C" 
			},
			{
				"x": -1.3617678652,
				"y": 2.1037083903,
				"z": 1.9672146123,
				"element": "C" 
			},
			{
				"x": -0.9969112466,
				"y": 1.0168583991,
				"z": 1.2815734131,
				"element": "N" 
			},
			{
				"x": 0.2667878821,
				"y": 0.6144515198,
				"z": 1.3840067635,
				"element": "C" 
			},
			{
				"x": 0.6794743508,
				"y": -0.4818354448,
				"z": 0.7130548415,
				"element": "O" 
			},
			{
				"x": -0.1908851996,
				"y": -1.1557750767,
				"z": -0.1564577429,
				"element": "C" 
			},
			{
				"x": -0.6028991109,
				"y": -2.4339629001,
				"z": 0.2051949482,
				"element": "C" 
			},
			{
				"x": -1.3885726101,
				"y": -3.1680456937,
				"z": -0.6856146185,
				"element": "C" 
			},
			{
				"x": -1.7518706913,
				"y": -2.6214790144,
				"z": -1.9174432974,
				"element": "C" 
			},
			{
				"x": -1.3244105444,
				"y": -1.3369078107,
				"z": -2.2630253968,
				"element": "C" 
			},
			{
				"x": -0.5361598405,
				"y": -0.5950509077,
				"z": -1.3835053255,
				"element": "C" 
			},
			{
				"x": 1.2430698262,
				"y": 1.2548883589,
				"z": 2.1759534377,
				"element": "C" 
			},
			{
				"x": 0.8638581564,
				"y": 2.3776221518,
				"z": 2.8841989046,
				"element": "C" 
			},
			{
				"x": -2.3983824601,
				"y": 2.4178214831,
				"z": 1.8833683301,
				"element": "H" 
			},
			{
				"x": -0.3048296003,
				"y": -2.8394176845,
				"z": 1.1662788635,
				"element": "H" 
			},
			{
				"x": -1.7150757677,
				"y": -4.1672178894,
				"z": -0.4134780255,
				"element": "H" 
			},
			{
				"x": -2.3631821551,
				"y": -3.1945544184,
				"z": -2.6077726745,
				"element": "H" 
			},
			{
				"x": -1.6020386768,
				"y": -0.9095113589,
				"z": -3.2218316045,
				"element": "H" 
			},
			{
				"x": -0.1927954441,
				"y": 0.4011752226,
				"z": -1.6401253943,
				"element": "H" 
			},
			{
				"x": 2.2506135402,
				"y": 0.8584059497,
				"z": 2.2143822873,
				"element": "H" 
			},
			{
				"x": 1.5638175111,
				"y": 2.9117990166,
				"z": 3.5173849317,
				"element": "H" 
			}
		],
		 "valence_orbital": [ 
			{
				"type": "occ",
				"energy": -0.31476,
				"method": "rhf"
			},
			{
				"type": "occ",
				"energy": -0.29937,
				"method": "rhf"
			},
			{
				"type": "occ",
				"energy": -0.27658,
				"method": "rhf"
			},
			{
				"type": "occ",
				"energy": -0.26562,
				"method": "rhf"
			},
			{
				"type": "occ",
				"energy": -0.25377,
				"method": "rhf"
			},
			{
				"type": "unocc",
				"energy": -0.09157,
				"method": "rhf"
			},
			{
				"type": "unocc",
				"energy": -0.05802,
				"method": "rhf"
			},
			{
				"type": "unocc",
				"energy": -0.04348,
				"method": "rhf"
			},
			{
				"type": "unocc",
				"energy": -0.01563,
				"method": "rhf"
			},
			{
				"type": "unocc",
				"energy": -0.01185,
				"method": "rhf"
			}
		],
		"cosmo_sigma_profile": { 
			"-0.025": 0.0,
			"-0.024": 0.0,
			"-0.023": 0.0,
			"-0.022": 0.0,
			"-0.021": 0.0,
			"-0.02": 0.0,
			"-0.019": 0.0,
			"-0.018": 0.0,
			"-0.017": 0.0,
			"-0.016": 0.0,
			"-0.015": 0.0,
			"-0.014": 0.0,
			"-0.013": 0.0,
			"-0.012": 0.0,
			"-0.011": 0.0,
			"-0.01": 0.507870152903,
			"-0.009": 3.93780949683,
			"-0.008": 5.97431335918,
			"-0.007": 9.48899817692,
			"-0.006": 15.0175927017,
			"-0.005": 17.7613380384,
			"-0.004": 18.0548338098,
			"-0.003": 19.896957155,
			"-0.002": 23.7477460469,
			"-0.001": 19.9213812654,
			"0.0": 19.380136508,
			"0.001": 14.6891523756,
			"0.002": 18.6792945181,
			"0.003": 24.537126092,
			"0.004": 20.4972532092,
			"0.005": 13.2012377348,
			"0.006": 5.38276958171,
			"0.007": 8.81238287761,
			"0.008": 10.94114498,
			"0.009": 5.05604690574,
			"0.01": 0.914436321024,
			"0.011": 1.01680120559,
			"0.012": 0.837648119766,
			"0.013": 0.139130903778,
			"0.014": 0.0,
			"0.015": 0.0,
			"0.016": 0.0,
			"0.017": 0.0,
			"0.018": 0.0,
			"0.019": 0.0,
			"0.02": 0.0,
			"0.021": 0.0,
			"0.022": 0.0,
			"0.023": 0.0,
			"0.024": 0.0,
			"0.025": 0.0
		}
	}
}
