{
	 "smiles": "C1COC2=CC=CC=C2C1", 
	 "Tm": 488.15, 
	 "num_atms": 20, 
	 "gaussian": { 
		 "optdone": 1, 
		 "sigma_profile": "yes", 
		 "theory": "DFT", 
		 "functional": "B3LYP", 
		 "basiset": "6-31G**", 
		 "properties": { 
			 "R2extent": 2328.0503, 
			 "electric_dipole_moment_norm": 1.71108046275, 
			 "electric_quadrupole_moment_norm": 8.28887986642, 
			 "total_energy": -424.20982061, 
			 "HOMO_LUMO_gap": 0.21301, 
			 "cosmo_polarized_energy": -5.15, 
			 "cosmo_cavitation_energy": 22.06, 
			 "cosmo_dispersion_energy": -17.02, 
			 "cosmo_repulsion_energy": 1.37, 
			 "cosmo_total_nonelectrostatic_energy": 6.41, 
			 "SMD_solvation_energy": 3.5 
		},
		"coords": [
			{
				"x": 3.1284419784,
				"y": 0.5105284287,
				"z": -0.5623146233,
				"element": "C" 
			},
			{
				"x": 3.2328393888,
				"y": 1.7668790978,
				"z": 0.2948331607,
				"element": "C" 
			},
			{
				"x": 2.2751498916,
				"y": 2.7563772021,
				"z": -0.0928048005,
				"element": "O" 
			},
			{
				"x": 0.9963031249,
				"y": 2.3207738948,
				"z": -0.3276057973,
				"element": "C" 
			},
			{
				"x": 0.017094146,
				"y": 3.316366052,
				"z": -0.4376737537,
				"element": "C" 
			},
			{
				"x": -1.3051977508,
				"y": 2.967447234,
				"z": -0.6910486492,
				"element": "C" 
			},
			{
				"x": -1.6605843046,
				"y": 1.622808023,
				"z": -0.8375418912,
				"element": "C" 
			},
			{
				"x": -0.6768961879,
				"y": 0.6417116668,
				"z": -0.7356526529,
				"element": "C" 
			},
			{
				"x": 0.6622325984,
				"y": 0.964121927,
				"z": -0.4811833898,
				"element": "C" 
			},
			{
				"x": 1.7341393032,
				"y": -0.1038539915,
				"z": -0.388206216,
				"element": "C" 
			},
			{
				"x": 3.9122227141,
				"y": -0.1994779673,
				"z": -0.2764267591,
				"element": "H" 
			},
			{
				"x": 3.296994165,
				"y": 0.7827003754,
				"z": -1.610904244,
				"element": "H" 
			},
			{
				"x": 3.0835304107,
				"y": 1.5166073092,
				"z": 1.3562822835,
				"element": "H" 
			},
			{
				"x": 4.2064674221,
				"y": 2.2530668686,
				"z": 0.1930716082,
				"element": "H" 
			},
			{
				"x": 0.3200169385,
				"y": 4.3517528064,
				"z": -0.3188288282,
				"element": "H" 
			},
			{
				"x": -2.0592491998,
				"y": 3.7451450137,
				"z": -0.7727338536,
				"element": "H" 
			},
			{
				"x": -2.6911183131,
				"y": 1.3444133643,
				"z": -1.035785148,
				"element": "H" 
			},
			{
				"x": -0.943639027,
				"y": -0.4055917175,
				"z": -0.8619155845,
				"element": "H" 
			},
			{
				"x": 1.6774047922,
				"y": -0.606614129,
				"z": 0.5878500612,
				"element": "H" 
			},
			{
				"x": 1.5558479092,
				"y": -0.8795614585,
				"z": -1.1417109225,
				"element": "H" 
			}
		],
		 "valence_orbital": [ 
			{
				"type": "occ",
				"energy": -0.32987,
				"method": "rhf"
			},
			{
				"type": "occ",
				"energy": -0.3126,
				"method": "rhf"
			},
			{
				"type": "occ",
				"energy": -0.30026,
				"method": "rhf"
			},
			{
				"type": "occ",
				"energy": -0.23729,
				"method": "rhf"
			},
			{
				"type": "occ",
				"energy": -0.20946,
				"method": "rhf"
			},
			{
				"type": "unocc",
				"energy": 0.00355,
				"method": "rhf"
			},
			{
				"type": "unocc",
				"energy": 0.01895,
				"method": "rhf"
			},
			{
				"type": "unocc",
				"energy": 0.09393,
				"method": "rhf"
			},
			{
				"type": "unocc",
				"energy": 0.10369,
				"method": "rhf"
			},
			{
				"type": "unocc",
				"energy": 0.12568,
				"method": "rhf"
			}
		],
		"cosmo_sigma_profile": { 
			"-0.025": 0.0,
			"-0.024": 0.0,
			"-0.023": 0.0,
			"-0.022": 0.0,
			"-0.021": 0.0,
			"-0.02": 0.0,
			"-0.019": 0.0,
			"-0.018": 0.0,
			"-0.017": 0.0,
			"-0.016": 0.0,
			"-0.015": 0.0,
			"-0.014": 0.0,
			"-0.013": 0.0,
			"-0.012": 0.0,
			"-0.011": 0.0,
			"-0.01": 0.0,
			"-0.009": 0.0,
			"-0.008": 0.0,
			"-0.007": 0.0,
			"-0.006": 1.50770291986,
			"-0.005": 10.3523675074,
			"-0.004": 22.8923387197,
			"-0.003": 25.8930281953,
			"-0.002": 20.899328178,
			"-0.001": 17.7159079683,
			"0.0": 10.7735756322,
			"0.001": 8.29443850444,
			"0.002": 7.19788337935,
			"0.003": 8.2278858402,
			"0.004": 8.90246925389,
			"0.005": 10.3055707427,
			"0.006": 9.80579603262,
			"0.007": 5.46365268207,
			"0.008": 1.20319368451,
			"0.009": 1.77990750146,
			"0.01": 1.33281091675,
			"0.011": 1.49622570084,
			"0.012": 0.184019876317,
			"0.013": 0.0,
			"0.014": 0.0,
			"0.015": 0.0,
			"0.016": 0.0,
			"0.017": 0.0,
			"0.018": 0.0,
			"0.019": 0.0,
			"0.02": 0.0,
			"0.021": 0.0,
			"0.022": 0.0,
			"0.023": 0.0,
			"0.024": 0.0,
			"0.025": 0.0
		}
	}
}
