{
	 "smiles": "CN1CCN(CC2=CC=C(C=C2)C#N)CC1", 
	 "Tm": 343.15, 
	 "num_atms": 33, 
	 "gaussian": { 
		 "optdone": 1, 
		 "sigma_profile": "yes", 
		 "theory": "DFT", 
		 "functional": "B3LYP", 
		 "basiset": "6-31G**", 
		 "properties": { 
			 "R2extent": 5948.1519, 
			 "electric_dipole_moment_norm": 5.55778944365, 
			 "electric_quadrupole_moment_norm": 29.7079299725, 
			 "total_energy": -669.851379843, 
			 "HOMO_LUMO_gap": 0.15656, 
			 "cosmo_polarized_energy": -11.24, 
			 "cosmo_cavitation_energy": 35.31, 
			 "cosmo_dispersion_energy": -24.58, 
			 "cosmo_repulsion_energy": 1.91, 
			 "cosmo_total_nonelectrostatic_energy": 12.63, 
			 "SMD_solvation_energy": 3.1 
		},
		"coords": [
			{
				"x": 1.31988088,
				"y": 2.0276018157,
				"z": 3.0931556957,
				"element": "C" 
			},
			{
				"x": 0.2515435199,
				"y": 1.0347027913,
				"z": 3.0928220133,
				"element": "N" 
			},
			{
				"x": 0.7172271967,
				"y": -0.3515413997,
				"z": 3.1434869711,
				"element": "C" 
			},
			{
				"x": 1.2323102992,
				"y": -0.884149451,
				"z": 1.7969101752,
				"element": "C" 
			},
			{
				"x": 0.1938754778,
				"y": -0.7340797645,
				"z": 0.7722237598,
				"element": "N" 
			},
			{
				"x": 0.5914053634,
				"y": -1.3085312164,
				"z": -0.5078245003,
				"element": "C" 
			},
			{
				"x": -0.5766883266,
				"y": -1.5471786911,
				"z": -1.4480930318,
				"element": "C" 
			},
			{
				"x": -1.8028550327,
				"y": -2.0161444745,
				"z": -0.9548165775,
				"element": "C" 
			},
			{
				"x": -2.8600140958,
				"y": -2.2887190645,
				"z": -1.8155361636,
				"element": "C" 
			},
			{
				"x": -2.7049890164,
				"y": -2.097635168,
				"z": -3.2000717923,
				"element": "C" 
			},
			{
				"x": -1.4815442328,
				"y": -1.6262898909,
				"z": -3.7027516592,
				"element": "C" 
			},
			{
				"x": -0.4341831813,
				"y": -1.3524750517,
				"z": -2.8273916673,
				"element": "C" 
			},
			{
				"x": -3.7914509244,
				"y": -2.3771600966,
				"z": -4.0931166165,
				"element": "C" 
			},
			{
				"x": -4.6732023708,
				"y": -2.6043436442,
				"z": -4.8174922585,
				"element": "N" 
			},
			{
				"x": -0.217260854,
				"y": 0.6700130243,
				"z": 0.6497837143,
				"element": "C" 
			},
			{
				"x": -0.7162423729,
				"y": 1.1913120781,
				"z": 2.0061814338,
				"element": "C" 
			},
			{
				"x": 1.9911689314,
				"y": 2.0078537331,
				"z": 2.2166259326,
				"element": "H" 
			},
			{
				"x": 0.8785957578,
				"y": 3.028535017,
				"z": 3.148003631,
				"element": "H" 
			},
			{
				"x": 1.9388408359,
				"y": 1.8877377997,
				"z": 3.9859288692,
				"element": "H" 
			},
			{
				"x": -0.1261508964,
				"y": -0.9805952832,
				"z": 3.4575133155,
				"element": "H" 
			},
			{
				"x": 1.4997327277,
				"y": -0.4395596155,
				"z": 3.9051541436,
				"element": "H" 
			},
			{
				"x": 1.4781765535,
				"y": -1.9484672402,
				"z": 1.8941347302,
				"element": "H" 
			},
			{
				"x": 2.166025016,
				"y": -0.360723131,
				"z": 1.5107364399,
				"element": "H" 
			},
			{
				"x": 1.3559778019,
				"y": -0.6956739908,
				"z": -1.0242350729,
				"element": "H" 
			},
			{
				"x": 1.0682717686,
				"y": -2.2762225328,
				"z": -0.2994686191,
				"element": "H" 
			},
			{
				"x": -1.9152418441,
				"y": -2.1494659484,
				"z": 0.1161739663,
				"element": "H" 
			},
			{
				"x": -3.8071070076,
				"y": -2.6500566569,
				"z": -1.428336609,
				"element": "H" 
			},
			{
				"x": -1.3634037357,
				"y": -1.4718807592,
				"z": -4.7701507639,
				"element": "H" 
			},
			{
				"x": 0.5076846364,
				"y": -0.9803981609,
				"z": -3.2220812605,
				"element": "H" 
			},
			{
				"x": -1.0227843675,
				"y": 0.7392890658,
				"z": -0.0887645065,
				"element": "H" 
			},
			{
				"x": 0.6176411388,
				"y": 1.2974246785,
				"z": 0.2789740611,
				"element": "H" 
			},
			{
				"x": -0.9928389538,
				"y": 2.2479045567,
				"z": 1.9221241502,
				"element": "H" 
			},
			{
				"x": -1.6215006921,
				"y": 0.6314166719,
				"z": 2.2755980961,
				"element": "H" 
			}
		],
		 "valence_orbital": [ 
			{
				"type": "occ",
				"energy": -0.32547,
				"method": "rhf"
			},
			{
				"type": "occ",
				"energy": -0.27188,
				"method": "rhf"
			},
			{
				"type": "occ",
				"energy": -0.25704,
				"method": "rhf"
			},
			{
				"type": "occ",
				"energy": -0.23409,
				"method": "rhf"
			},
			{
				"type": "occ",
				"energy": -0.20479,
				"method": "rhf"
			},
			{
				"type": "unocc",
				"energy": -0.04823,
				"method": "rhf"
			},
			{
				"type": "unocc",
				"energy": -0.0216,
				"method": "rhf"
			},
			{
				"type": "unocc",
				"energy": 0.04083,
				"method": "rhf"
			},
			{
				"type": "unocc",
				"energy": 0.0681,
				"method": "rhf"
			},
			{
				"type": "unocc",
				"energy": 0.07838,
				"method": "rhf"
			}
		],
		"cosmo_sigma_profile": { 
			"-0.025": 0.0,
			"-0.024": 0.0,
			"-0.023": 0.0,
			"-0.022": 0.0,
			"-0.021": 0.0,
			"-0.02": 0.0,
			"-0.019": 0.0,
			"-0.018": 0.0,
			"-0.017": 0.0,
			"-0.016": 0.0,
			"-0.015": 0.0,
			"-0.014": 0.0,
			"-0.013": 0.0,
			"-0.012": 0.0,
			"-0.011": 0.0,
			"-0.01": 0.0,
			"-0.009": 0.0,
			"-0.008": 1.82271609471,
			"-0.007": 4.44995896472,
			"-0.006": 8.13829835859,
			"-0.005": 12.2971077583,
			"-0.004": 19.833301805,
			"-0.003": 28.8125868645,
			"-0.002": 43.6752972642,
			"-0.001": 41.3250151666,
			"0.0": 29.5846217329,
			"0.001": 15.8847428034,
			"0.002": 14.9024380475,
			"0.003": 14.2324076417,
			"0.004": 4.88892707728,
			"0.005": 3.84304576203,
			"0.006": 5.17711753296,
			"0.007": 3.9843928877,
			"0.008": 4.67014716844,
			"0.009": 5.06510930714,
			"0.01": 4.37939452184,
			"0.011": 3.36812561909,
			"0.012": 3.06682034222,
			"0.013": 2.75042188263,
			"0.014": 0.544784249458,
			"0.015": 0.629082080719,
			"0.016": 0.252346298188,
			"0.017": 0.348139717167,
			"0.018": 0.0,
			"0.019": 0.0,
			"0.02": 0.0,
			"0.021": 0.0,
			"0.022": 0.0,
			"0.023": 0.0,
			"0.024": 0.0,
			"0.025": 0.0
		}
	}
}
