{
	 "smiles": "CC(=O)NC12CC3CC(CC(C3)C1)C2", 
	 "Tm": 421.15, 
	 "num_atms": 33, 
	 "gaussian": { 
		 "optdone": 1, 
		 "sigma_profile": "yes", 
		 "theory": "DFT", 
		 "functional": "B3LYP", 
		 "basiset": "6-31G**", 
		 "properties": { 
			 "R2extent": 3104.5123, 
			 "electric_dipole_moment_norm": 4.33177563246, 
			 "electric_quadrupole_moment_norm": 14.8210975366, 
			 "total_energy": -598.748168581, 
			 "HOMO_LUMO_gap": 0.2695, 
			 "cosmo_polarized_energy": -10.1, 
			 "cosmo_cavitation_energy": 30.13, 
			 "cosmo_dispersion_energy": -22.56, 
			 "cosmo_repulsion_energy": 1.73, 
			 "cosmo_total_nonelectrostatic_energy": 9.3, 
			 "SMD_solvation_energy": 4.32 
		},
		"coords": [
			{
				"x": -2.3374237189,
				"y": -2.8913663591,
				"z": -0.7536200678,
				"element": "C" 
			},
			{
				"x": -2.2805190266,
				"y": -2.2206982654,
				"z": 0.6098436194,
				"element": "C" 
			},
			{
				"x": -2.8227558983,
				"y": -2.738517932,
				"z": 1.5809753091,
				"element": "O" 
			},
			{
				"x": -1.5764919188,
				"y": -1.0495084142,
				"z": 0.7691996674,
				"element": "N" 
			},
			{
				"x": -0.9255594526,
				"y": -0.1086816315,
				"z": -0.1585749104,
				"element": "C" 
			},
			{
				"x": 0.1694574585,
				"y": -0.7785676383,
				"z": -1.0252974704,
				"element": "C" 
			},
			{
				"x": 0.883562587,
				"y": 0.2793151335,
				"z": -1.8953036154,
				"element": "C" 
			},
			{
				"x": 1.5533479434,
				"y": 1.3307930883,
				"z": -0.9889630552,
				"element": "C" 
			},
			{
				"x": 0.4761695353,
				"y": 2.0188464149,
				"z": -0.1266738658,
				"element": "C" 
			},
			{
				"x": -0.5493918241,
				"y": 2.7169939602,
				"z": -1.0427876654,
				"element": "C" 
			},
			{
				"x": -1.2212980529,
				"y": 1.6676763563,
				"z": -1.9511641844,
				"element": "C" 
			},
			{
				"x": -0.1474762282,
				"y": 0.9703281743,
				"z": -2.8122392601,
				"element": "C" 
			},
			{
				"x": -1.9418038091,
				"y": 0.6179640956,
				"z": -1.0774594358,
				"element": "C" 
			},
			{
				"x": -0.2403610532,
				"y": 0.958809355,
				"z": 0.7317963606,
				"element": "C" 
			},
			{
				"x": -1.4070666234,
				"y": -3.4387665593,
				"z": -0.938071404,
				"element": "H" 
			},
			{
				"x": -3.1573198984,
				"y": -3.6095142901,
				"z": -0.7273504537,
				"element": "H" 
			},
			{
				"x": -2.4878341338,
				"y": -2.1944387051,
				"z": -1.5802986997,
				"element": "H" 
			},
			{
				"x": -1.641356236,
				"y": -0.7368020727,
				"z": 1.7305711691,
				"element": "H" 
			},
			{
				"x": -0.2684111569,
				"y": -1.5430046416,
				"z": -1.6740586786,
				"element": "H" 
			},
			{
				"x": 0.8853211773,
				"y": -1.285959989,
				"z": -0.3667462202,
				"element": "H" 
			},
			{
				"x": 1.6452750271,
				"y": -0.2195725772,
				"z": -2.5072669472,
				"element": "H" 
			},
			{
				"x": 2.0808687384,
				"y": 2.0754565158,
				"z": -1.5986547787,
				"element": "H" 
			},
			{
				"x": 2.3046782592,
				"y": 0.8530893876,
				"z": -0.3468509171,
				"element": "H" 
			},
			{
				"x": 0.9454634177,
				"y": 2.7567196133,
				"z": 0.5356309773,
				"element": "H" 
			},
			{
				"x": -0.0500940607,
				"y": 3.4810813835,
				"z": -1.6522267119,
				"element": "H" 
			},
			{
				"x": -1.3062702199,
				"y": 3.234426854,
				"z": -0.439082596,
				"element": "H" 
			},
			{
				"x": -1.9556768831,
				"y": 2.1585094005,
				"z": -2.6018587079,
				"element": "H" 
			},
			{
				"x": -0.6161523629,
				"y": 0.2326399735,
				"z": -3.4768652989,
				"element": "H" 
			},
			{
				"x": 0.3539900463,
				"y": 1.7045558364,
				"z": -3.4556970601,
				"element": "H" 
			},
			{
				"x": -2.7079872633,
				"y": 1.0953061199,
				"z": -0.4539913077,
				"element": "H" 
			},
			{
				"x": -2.4599909498,
				"y": -0.1041674502,
				"z": -1.7183800151,
				"element": "H" 
			},
			{
				"x": -0.9992925741,
				"y": 1.4383811708,
				"z": 1.3654151962,
				"element": "H" 
			},
			{
				"x": 0.4744991549,
				"y": 0.4618736923,
				"z": 1.4004510286,
				"element": "H" 
			}
		],
		 "valence_orbital": [ 
			{
				"type": "occ",
				"energy": -0.30916,
				"method": "rhf"
			},
			{
				"type": "occ",
				"energy": -0.29217,
				"method": "rhf"
			},
			{
				"type": "occ",
				"energy": -0.28838,
				"method": "rhf"
			},
			{
				"type": "occ",
				"energy": -0.23727,
				"method": "rhf"
			},
			{
				"type": "occ",
				"energy": -0.23367,
				"method": "rhf"
			},
			{
				"type": "unocc",
				"energy": 0.03583,
				"method": "rhf"
			},
			{
				"type": "unocc",
				"energy": 0.05625,
				"method": "rhf"
			},
			{
				"type": "unocc",
				"energy": 0.0976,
				"method": "rhf"
			},
			{
				"type": "unocc",
				"energy": 0.10094,
				"method": "rhf"
			},
			{
				"type": "unocc",
				"energy": 0.11603,
				"method": "rhf"
			}
		],
		"cosmo_sigma_profile": { 
			"-0.025": 0.0,
			"-0.024": 0.0,
			"-0.023": 0.0,
			"-0.022": 0.0,
			"-0.021": 0.0,
			"-0.02": 0.0,
			"-0.019": 0.0,
			"-0.018": 0.0,
			"-0.017": 0.0,
			"-0.016": 0.0,
			"-0.015": 0.0,
			"-0.014": 0.0,
			"-0.013": 0.0,
			"-0.012": 0.19326669725,
			"-0.011": 0.56501216519,
			"-0.01": 0.623084198639,
			"-0.009": 0.901582196082,
			"-0.008": 1.21383013748,
			"-0.007": 1.13893714523,
			"-0.006": 2.33712719231,
			"-0.005": 6.79206352776,
			"-0.004": 9.60590148827,
			"-0.003": 18.1697766834,
			"-0.002": 47.2255732026,
			"-0.001": 44.22777728,
			"0.0": 41.9111513892,
			"0.001": 21.5406981501,
			"0.002": 6.47327887631,
			"0.003": 2.69877705729,
			"0.004": 2.46945498751,
			"0.005": 2.26371477035,
			"0.006": 1.1111174779,
			"0.007": 0.948342747346,
			"0.008": 1.59941165767,
			"0.009": 0.884828330126,
			"0.01": 0.599997921453,
			"0.011": 1.71862694339,
			"0.012": 1.88692950613,
			"0.013": 2.28748214272,
			"0.014": 4.71655749972,
			"0.015": 4.63933102447,
			"0.016": 0.607174948167,
			"0.017": 0.0,
			"0.018": 0.0,
			"0.019": 0.0,
			"0.02": 0.0,
			"0.021": 0.0,
			"0.022": 0.0,
			"0.023": 0.0,
			"0.024": 0.0,
			"0.025": 0.0
		}
	}
}
