{
	 "smiles": "N1C=NC2=CC=CC=C12", 
	 "Tm": 443.15, 
	 "num_atms": 15, 
	 "gaussian": { 
		 "optdone": 1, 
		 "sigma_profile": "yes", 
		 "theory": "DFT", 
		 "functional": "B3LYP", 
		 "basiset": "6-31G**", 
		 "properties": { 
			 "R2extent": 1284.6315, 
			 "electric_dipole_moment_norm": 3.42883633322, 
			 "electric_quadrupole_moment_norm": 10.494673063, 
			 "total_energy": -379.869318047, 
			 "HOMO_LUMO_gap": 0.20977, 
			 "cosmo_polarized_energy": -12.49, 
			 "cosmo_cavitation_energy": 18.8, 
			 "cosmo_dispersion_energy": -14.53, 
			 "cosmo_repulsion_energy": 1.17, 
			 "cosmo_total_nonelectrostatic_energy": 5.44, 
			 "SMD_solvation_energy": 1.5 
		},
		"coords": [
			{
				"x": 1.2824033093,
				"y": -0.2191192839,
				"z": 1.0234343303,
				"element": "N" 
			},
			{
				"x": 1.9500055534,
				"y": -1.4042026181,
				"z": 1.2403615859,
				"element": "C" 
			},
			{
				"x": 1.4759218946,
				"y": -2.4084485885,
				"z": 0.5502137679,
				"element": "N" 
			},
			{
				"x": 0.4225600133,
				"y": -1.8679163691,
				"z": -0.1780685174,
				"element": "C" 
			},
			{
				"x": -0.4481650879,
				"y": -2.4820664094,
				"z": -1.0881000449,
				"element": "C" 
			},
			{
				"x": -1.429926403,
				"y": -1.6990199156,
				"z": -1.6856198662,
				"element": "C" 
			},
			{
				"x": -1.5547854443,
				"y": -0.3255595746,
				"z": -1.3916383436,
				"element": "C" 
			},
			{
				"x": -0.701748342,
				"y": 0.3070656595,
				"z": -0.4911411429,
				"element": "C" 
			},
			{
				"x": 0.2811908304,
				"y": -0.4865270685,
				"z": 0.1043276675,
				"element": "C" 
			},
			{
				"x": 1.4865622845,
				"y": 0.6693572667,
				"z": 1.4531151798,
				"element": "H" 
			},
			{
				"x": 2.7856548848,
				"y": -1.4596583735,
				"z": 1.9266190397,
				"element": "H" 
			},
			{
				"x": -0.3472482012,
				"y": -3.5394068717,
				"z": -1.3103742698,
				"element": "H" 
			},
			{
				"x": -2.1175037739,
				"y": -2.150708047,
				"z": -2.394596897,
				"element": "H" 
			},
			{
				"x": -2.3343699371,
				"y": 0.252710487,
				"z": -1.8787790379,
				"element": "H" 
			},
			{
				"x": -0.8012515808,
				"y": 1.3650997067,
				"z": -0.2674534515,
				"element": "H" 
			}
		],
		 "valence_orbital": [ 
			{
				"type": "occ",
				"energy": -0.33784,
				"method": "rhf"
			},
			{
				"type": "occ",
				"energy": -0.30334,
				"method": "rhf"
			},
			{
				"type": "occ",
				"energy": -0.26904,
				"method": "rhf"
			},
			{
				"type": "occ",
				"energy": -0.22728,
				"method": "rhf"
			},
			{
				"type": "occ",
				"energy": -0.22323,
				"method": "rhf"
			},
			{
				"type": "unocc",
				"energy": -0.01346,
				"method": "rhf"
			},
			{
				"type": "unocc",
				"energy": 0.02376,
				"method": "rhf"
			},
			{
				"type": "unocc",
				"energy": 0.05647,
				"method": "rhf"
			},
			{
				"type": "unocc",
				"energy": 0.0748,
				"method": "rhf"
			},
			{
				"type": "unocc",
				"energy": 0.10293,
				"method": "rhf"
			}
		],
		"cosmo_sigma_profile": { 
			"-0.025": 0.0,
			"-0.024": 0.0,
			"-0.023": 0.0,
			"-0.022": 0.0,
			"-0.021": 0.0,
			"-0.02": 0.0,
			"-0.019": 0.0,
			"-0.018": 0.0,
			"-0.017": 0.401102657127,
			"-0.016": 1.82222024977,
			"-0.015": 1.46685104585,
			"-0.014": 1.81362735206,
			"-0.013": 1.04449570872,
			"-0.012": 0.962303327548,
			"-0.011": 1.28489835932,
			"-0.01": 1.72740514132,
			"-0.009": 3.54124915865,
			"-0.008": 3.63185157601,
			"-0.007": 3.40525449077,
			"-0.006": 4.7346119507,
			"-0.005": 9.75595275562,
			"-0.004": 9.22940165359,
			"-0.003": 9.29941735626,
			"-0.002": 7.47021249685,
			"-0.001": 7.54931600459,
			"0.0": 7.4215309783,
			"0.001": 7.12830046078,
			"0.002": 12.0967422878,
			"0.003": 9.20000642908,
			"0.004": 9.66565093735,
			"0.005": 11.2791001663,
			"0.006": 10.1596207704,
			"0.007": 2.83839332271,
			"0.008": 1.4538327494,
			"0.009": 1.18075121865,
			"0.01": 1.70135200098,
			"0.011": 1.42168778574,
			"0.012": 1.00200970397,
			"0.013": 0.555956776875,
			"0.014": 1.28115891995,
			"0.015": 1.30396220069,
			"0.016": 0.999954946138,
			"0.017": 0.987932190041,
			"0.018": 0.496434813114,
			"0.019": 0.0,
			"0.02": 0.0,
			"0.021": 0.0,
			"0.022": 0.0,
			"0.023": 0.0,
			"0.024": 0.0,
			"0.025": 0.0
		}
	}
}
