{
	 "smiles": "[O-][N+](=O)C1=CC=CC=C1N=C=S", 
	 "Tm": 348.15, 
	 "num_atms": 16, 
	 "gaussian": { 
		 "optdone": 1, 
		 "sigma_profile": "yes", 
		 "theory": "DFT", 
		 "functional": "B3LYP", 
		 "basiset": "6-31G**", 
		 "properties": { 
			 "R2extent": 2990.3418, 
			 "electric_dipole_moment_norm": 5.58060536232, 
			 "electric_quadrupole_moment_norm": 6.76094338536, 
			 "total_energy": -927.176450167, 
			 "HOMO_LUMO_gap": 0.14902, 
			 "cosmo_polarized_energy": -9.96, 
			 "cosmo_cavitation_energy": 24.65, 
			 "cosmo_dispersion_energy": -18.22, 
			 "cosmo_repulsion_energy": 1.42, 
			 "cosmo_total_nonelectrostatic_energy": 7.85, 
			 "SMD_solvation_energy": 6.99 
		},
		"coords": [
			{
				"x": 0.3305676002,
				"y": -2.0351490581,
				"z": 2.2221980686,
				"element": "O" 
			},
			{
				"x": 1.2994494153,
				"y": -1.8540061091,
				"z": 1.4895967092,
				"element": "N" 
			},
			{
				"x": 2.4380560664,
				"y": -2.2640473126,
				"z": 1.7202161117,
				"element": "O" 
			},
			{
				"x": 1.1033086774,
				"y": -1.0869976644,
				"z": 0.2487316479,
				"element": "C" 
			},
			{
				"x": 2.2471200914,
				"y": -0.717175437,
				"z": -0.4602622925,
				"element": "C" 
			},
			{
				"x": 2.1378879864,
				"y": 0.0174737303,
				"z": -1.6347139674,
				"element": "C" 
			},
			{
				"x": 0.8723201077,
				"y": 0.3793651081,
				"z": -2.1078103477,
				"element": "C" 
			},
			{
				"x": -0.2711865481,
				"y": 0.0093951657,
				"z": -1.4118438136,
				"element": "C" 
			},
			{
				"x": -0.1822129285,
				"y": -0.7296663085,
				"z": -0.2155199356,
				"element": "C" 
			},
			{
				"x": -1.3296670591,
				"y": -1.0860223682,
				"z": 0.4361150607,
				"element": "N" 
			},
			{
				"x": -2.5157676894,
				"y": -1.1122452279,
				"z": 0.5873142892,
				"element": "C" 
			},
			{
				"x": -4.0705259048,
				"y": -1.2048609427,
				"z": 0.8738263886,
				"element": "S" 
			},
			{
				"x": 3.2080601286,
				"y": -1.0206171711,
				"z": -0.0651004462,
				"element": "H" 
			},
			{
				"x": 3.0320004336,
				"y": 0.3054905172,
				"z": -2.177097506,
				"element": "H" 
			},
			{
				"x": 0.7746895321,
				"y": 0.9517100492,
				"z": -3.0251464261,
				"element": "H" 
			},
			{
				"x": -1.2568999091,
				"y": 0.2803530291,
				"z": -1.7742035408,
				"element": "H" 
			}
		],
		 "valence_orbital": [ 
			{
				"type": "occ",
				"energy": -0.31132,
				"method": "rhf"
			},
			{
				"type": "occ",
				"energy": -0.3021,
				"method": "rhf"
			},
			{
				"type": "occ",
				"energy": -0.29493,
				"method": "rhf"
			},
			{
				"type": "occ",
				"energy": -0.26447,
				"method": "rhf"
			},
			{
				"type": "occ",
				"energy": -0.2507,
				"method": "rhf"
			},
			{
				"type": "unocc",
				"energy": -0.10168,
				"method": "rhf"
			},
			{
				"type": "unocc",
				"energy": -0.0613,
				"method": "rhf"
			},
			{
				"type": "unocc",
				"energy": -0.02481,
				"method": "rhf"
			},
			{
				"type": "unocc",
				"energy": -0.01502,
				"method": "rhf"
			},
			{
				"type": "unocc",
				"energy": 0.02664,
				"method": "rhf"
			}
		],
		"cosmo_sigma_profile": { 
			"-0.025": 0.0,
			"-0.024": 0.0,
			"-0.023": 0.0,
			"-0.022": 0.0,
			"-0.021": 0.0,
			"-0.02": 0.0,
			"-0.019": 0.0,
			"-0.018": 0.0,
			"-0.017": 0.0,
			"-0.016": 0.0,
			"-0.015": 0.0,
			"-0.014": 0.0,
			"-0.013": 0.0,
			"-0.012": 0.0,
			"-0.011": 0.0,
			"-0.01": 0.0,
			"-0.009": 0.796913908714,
			"-0.008": 7.35029710155,
			"-0.007": 11.9665475017,
			"-0.006": 10.7630551929,
			"-0.005": 8.80591703843,
			"-0.004": 9.67935880778,
			"-0.003": 11.9978241519,
			"-0.002": 15.1775853737,
			"-0.001": 17.9600727865,
			"0.0": 16.8759921766,
			"0.001": 19.2749213028,
			"0.002": 11.993154297,
			"0.003": 8.92108601543,
			"0.004": 15.3248942969,
			"0.005": 10.6244507824,
			"0.006": 4.94953549184,
			"0.007": 8.4941888925,
			"0.008": 6.24926418616,
			"0.009": 4.26244901777,
			"0.01": 1.88690161574,
			"0.011": 0.0111513357032,
			"0.012": 0.0,
			"0.013": 0.0,
			"0.014": 0.0,
			"0.015": 0.0,
			"0.016": 0.0,
			"0.017": 0.0,
			"0.018": 0.0,
			"0.019": 0.0,
			"0.02": 0.0,
			"0.021": 0.0,
			"0.022": 0.0,
			"0.023": 0.0,
			"0.024": 0.0,
			"0.025": 0.0
		}
	}
}
