{
	 "smiles": "CN(C)C(=O)C1=CC(=C(Cl)C=C1)S(Cl)(=O)=O", 
	 "Tm": 380.15, 
	 "num_atms": 25, 
	 "gaussian": { 
		 "optdone": 1, 
		 "sigma_profile": "yes", 
		 "theory": "DFT", 
		 "functional": "B3LYP", 
		 "basiset": "6-31G**", 
		 "properties": { 
			 "R2extent": 6550.7861, 
			 "electric_dipole_moment_norm": 7.97531286722, 
			 "electric_quadrupole_moment_norm": 8.61681527944, 
			 "total_energy": -1947.30458233, 
			 "HOMO_LUMO_gap": 0.16254, 
			 "cosmo_polarized_energy": -15.94, 
			 "cosmo_cavitation_energy": 34.16, 
			 "cosmo_dispersion_energy": -24.95, 
			 "cosmo_repulsion_energy": 1.91, 
			 "cosmo_total_nonelectrostatic_energy": 11.13, 
			 "SMD_solvation_energy": 4.93 
		},
		"coords": [
			{
				"x": 1.4681821041,
				"y": 1.0631819722,
				"z": -2.3425522004,
				"element": "C" 
			},
			{
				"x": 1.2274346736,
				"y": 2.2151035707,
				"z": -1.4819896328,
				"element": "N" 
			},
			{
				"x": 1.3961781342,
				"y": 3.5132410147,
				"z": -2.1270920436,
				"element": "C" 
			},
			{
				"x": 0.5462859912,
				"y": 2.179927553,
				"z": -0.2893670712,
				"element": "C" 
			},
			{
				"x": 0.0335380519,
				"y": 3.1768151436,
				"z": 0.2115786627,
				"element": "O" 
			},
			{
				"x": 0.4813433779,
				"y": 0.8735440883,
				"z": 0.4658889982,
				"element": "C" 
			},
			{
				"x": -0.7167509304,
				"y": 0.568171483,
				"z": 1.1179643672,
				"element": "C" 
			},
			{
				"x": -0.8174035629,
				"y": -0.5738842606,
				"z": 1.9121393425,
				"element": "C" 
			},
			{
				"x": 0.291809197,
				"y": -1.41799051,
				"z": 2.0962464562,
				"element": "C" 
			},
			{
				"x": 0.2351488318,
				"y": -2.8655689679,
				"z": 3.0591304096,
				"element": "Cl" 
			},
			{
				"x": 1.4962757833,
				"y": -1.0908381247,
				"z": 1.4719561824,
				"element": "C" 
			},
			{
				"x": 1.5879073804,
				"y": 0.0400012265,
				"z": 0.6630192132,
				"element": "C" 
			},
			{
				"x": -2.4151197556,
				"y": -0.831561188,
				"z": 2.7056972517,
				"element": "S" 
			},
			{
				"x": -3.1231175424,
				"y": -2.5430519499,
				"z": 1.6605355478,
				"element": "Cl" 
			},
			{
				"x": -2.2415059007,
				"y": -1.2200845225,
				"z": 4.0965221911,
				"element": "O" 
			},
			{
				"x": -3.2927659305,
				"y": 0.2648339736,
				"z": 2.3194688113,
				"element": "O" 
			},
			{
				"x": 2.5345236397,
				"y": 0.965390107,
				"z": -2.5809869962,
				"element": "H" 
			},
			{
				"x": 0.9206801822,
				"y": 1.1818113254,
				"z": -3.2866162478,
				"element": "H" 
			},
			{
				"x": 1.127520893,
				"y": 0.1434791403,
				"z": -1.8707569727,
				"element": "H" 
			},
			{
				"x": 2.388167143,
				"y": 3.5632504152,
				"z": -2.5882381919,
				"element": "H" 
			},
			{
				"x": 0.6403314404,
				"y": 3.6704056213,
				"z": -2.9080106706,
				"element": "H" 
			},
			{
				"x": 1.2922515991,
				"y": 4.2970545431,
				"z": -1.379148313,
				"element": "H" 
			},
			{
				"x": -1.5684561472,
				"y": 1.2299247326,
				"z": 1.0149211192,
				"element": "H" 
			},
			{
				"x": 2.3582869621,
				"y": -1.7296481294,
				"z": 1.6280919768,
				"element": "H" 
			},
			{
				"x": 2.5386543847,
				"y": 0.2800917426,
				"z": 0.1977978103,
				"element": "H" 
			}
		],
		 "valence_orbital": [ 
			{
				"type": "occ",
				"energy": -0.31522,
				"method": "rhf"
			},
			{
				"type": "occ",
				"energy": -0.30127,
				"method": "rhf"
			},
			{
				"type": "occ",
				"energy": -0.28667,
				"method": "rhf"
			},
			{
				"type": "occ",
				"energy": -0.26628,
				"method": "rhf"
			},
			{
				"type": "occ",
				"energy": -0.25596,
				"method": "rhf"
			},
			{
				"type": "unocc",
				"energy": -0.09342,
				"method": "rhf"
			},
			{
				"type": "unocc",
				"energy": -0.06426,
				"method": "rhf"
			},
			{
				"type": "unocc",
				"energy": -0.05341,
				"method": "rhf"
			},
			{
				"type": "unocc",
				"energy": 0.00149,
				"method": "rhf"
			},
			{
				"type": "unocc",
				"energy": 0.01578,
				"method": "rhf"
			}
		],
		"cosmo_sigma_profile": { 
			"-0.025": 0.0,
			"-0.024": 0.0,
			"-0.023": 0.0,
			"-0.022": 0.0,
			"-0.021": 0.0,
			"-0.02": 0.0,
			"-0.019": 0.0,
			"-0.018": 0.0,
			"-0.017": 0.0,
			"-0.016": 0.0,
			"-0.015": 0.0,
			"-0.014": 0.0,
			"-0.013": 0.0,
			"-0.012": 0.0,
			"-0.011": 0.0,
			"-0.01": 0.116762778723,
			"-0.009": 2.67418857457,
			"-0.008": 4.40411238701,
			"-0.007": 5.45834859809,
			"-0.006": 7.32096148683,
			"-0.005": 23.0979520913,
			"-0.004": 25.9293051901,
			"-0.003": 27.3086081772,
			"-0.002": 32.6990800838,
			"-0.001": 22.9006649188,
			"0.0": 17.3172686516,
			"0.001": 12.9237927166,
			"0.002": 20.6515562671,
			"0.003": 21.9419875895,
			"0.004": 6.86006562126,
			"0.005": 5.35243942009,
			"0.006": 5.59635227175,
			"0.007": 9.84287636484,
			"0.008": 10.8623079269,
			"0.009": 2.6503348707,
			"0.01": 1.94981358611,
			"0.011": 1.3482337192,
			"0.012": 2.52255714956,
			"0.013": 4.73793200738,
			"0.014": 1.28859216992,
			"0.015": 0.0,
			"0.016": 0.0,
			"0.017": 0.0,
			"0.018": 0.0,
			"0.019": 0.0,
			"0.02": 0.0,
			"0.021": 0.0,
			"0.022": 0.0,
			"0.023": 0.0,
			"0.024": 0.0,
			"0.025": 0.0
		}
	}
}
