{
	 "smiles": "COCCOC1=CN(N=C1C(O)=O)C1=CC=CC=C1", 
	 "Tm": 377.15, 
	 "num_atms": 33, 
	 "gaussian": { 
		 "optdone": 1, 
		 "sigma_profile": "yes", 
		 "theory": "DFT", 
		 "functional": "B3LYP", 
		 "basiset": "6-31G**", 
		 "properties": { 
			 "R2extent": 6713.8696, 
			 "electric_dipole_moment_norm": 4.72723987439, 
			 "electric_quadrupole_moment_norm": 11.3605389291, 
			 "total_energy": -914.170844768, 
			 "HOMO_LUMO_gap": 0.17302, 
			 "cosmo_polarized_energy": -20.93, 
			 "cosmo_cavitation_energy": 38.31, 
			 "cosmo_dispersion_energy": -26.94, 
			 "cosmo_repulsion_energy": 2.11, 
			 "cosmo_total_nonelectrostatic_energy": 13.48, 
			 "SMD_solvation_energy": 8.07 
		},
		"coords": [
			{
				"x": 5.3254960666,
				"y": -0.1108417734,
				"z": -0.0117180229,
				"element": "C" 
			},
			{
				"x": 5.135499804,
				"y": 0.058099767,
				"z": 1.3796653237,
				"element": "O" 
			},
			{
				"x": 3.7892038755,
				"y": 0.2709850745,
				"z": 1.7653315865,
				"element": "C" 
			},
			{
				"x": 3.0493210605,
				"y": -1.0588166482,
				"z": 1.9649271515,
				"element": "C" 
			},
			{
				"x": 1.7197081882,
				"y": -0.8457393448,
				"z": 2.4452363845,
				"element": "O" 
			},
			{
				"x": 0.7605219145,
				"y": -0.5834420651,
				"z": 1.5352004652,
				"element": "C" 
			},
			{
				"x": 0.8217382839,
				"y": -0.5045210011,
				"z": 0.1557661917,
				"element": "C" 
			},
			{
				"x": -0.4601242508,
				"y": -0.2275596327,
				"z": -0.2679952943,
				"element": "N" 
			},
			{
				"x": -1.3243359513,
				"y": -0.1213373,
				"z": 0.7471511384,
				"element": "N" 
			},
			{
				"x": -0.6072284244,
				"y": -0.3334437566,
				"z": 1.8569442041,
				"element": "C" 
			},
			{
				"x": -1.2127226377,
				"y": -0.2998290552,
				"z": 3.1985982111,
				"element": "C" 
			},
			{
				"x": -2.5414530397,
				"y": -0.0365043458,
				"z": 3.1687587154,
				"element": "O" 
			},
			{
				"x": -0.6028732989,
				"y": -0.483990897,
				"z": 4.2332128261,
				"element": "O" 
			},
			{
				"x": -0.9062049068,
				"y": -0.043709929,
				"z": -1.6053778329,
				"element": "C" 
			},
			{
				"x": -0.158487677,
				"y": -0.5470706153,
				"z": -2.6751163346,
				"element": "C" 
			},
			{
				"x": -0.6030320096,
				"y": -0.342404772,
				"z": -3.9812810342,
				"element": "C" 
			},
			{
				"x": -1.7918047427,
				"y": 0.3460965104,
				"z": -4.2245932655,
				"element": "C" 
			},
			{
				"x": -2.5385956256,
				"y": 0.831365911,
				"z": -3.1479286587,
				"element": "C" 
			},
			{
				"x": -2.1018904183,
				"y": 0.6451817772,
				"z": -1.8387987197,
				"element": "C" 
			},
			{
				"x": 6.4002892682,
				"y": -0.2182408978,
				"z": -0.176017428,
				"element": "H" 
			},
			{
				"x": 4.9669632904,
				"y": 0.7626598472,
				"z": -0.5781221089,
				"element": "H" 
			},
			{
				"x": 4.825887629,
				"y": -1.0088032529,
				"z": -0.406312946,
				"element": "H" 
			},
			{
				"x": 3.8087291595,
				"y": 0.8057302796,
				"z": 2.7197461382,
				"element": "H" 
			},
			{
				"x": 3.2607520639,
				"y": 0.905130086,
				"z": 1.0375124526,
				"element": "H" 
			},
			{
				"x": 3.5542204265,
				"y": -1.6394339758,
				"z": 2.7400108377,
				"element": "H" 
			},
			{
				"x": 3.0329773335,
				"y": -1.6604260209,
				"z": 1.0470104188,
				"element": "H" 
			},
			{
				"x": 1.646827543,
				"y": -0.5745764509,
				"z": -0.5315833004,
				"element": "H" 
			},
			{
				"x": -2.8202382004,
				"y": -0.0416585031,
				"z": 4.0993841342,
				"element": "H" 
			},
			{
				"x": 0.7478714733,
				"y": -1.1150431047,
				"z": -2.4958579629,
				"element": "H" 
			},
			{
				"x": -0.0202347583,
				"y": -0.7359952836,
				"z": -4.8086992594,
				"element": "H" 
			},
			{
				"x": -2.1358131899,
				"y": 0.4993368475,
				"z": -5.2427753829,
				"element": "H" 
			},
			{
				"x": -3.4666773109,
				"y": 1.366228184,
				"z": -3.3263514604,
				"element": "H" 
			},
			{
				"x": -2.6673909383,
				"y": 1.0177743418,
				"z": -0.993627168,
				"element": "H" 
			}
		],
		 "valence_orbital": [ 
			{
				"type": "occ",
				"energy": -0.26922,
				"method": "rhf"
			},
			{
				"type": "occ",
				"energy": -0.26552,
				"method": "rhf"
			},
			{
				"type": "occ",
				"energy": -0.26404,
				"method": "rhf"
			},
			{
				"type": "occ",
				"energy": -0.24908,
				"method": "rhf"
			},
			{
				"type": "occ",
				"energy": -0.21891,
				"method": "rhf"
			},
			{
				"type": "unocc",
				"energy": -0.04589,
				"method": "rhf"
			},
			{
				"type": "unocc",
				"energy": -0.01575,
				"method": "rhf"
			},
			{
				"type": "unocc",
				"energy": 0.00118,
				"method": "rhf"
			},
			{
				"type": "unocc",
				"energy": 0.03754,
				"method": "rhf"
			},
			{
				"type": "unocc",
				"energy": 0.05661,
				"method": "rhf"
			}
		],
		"cosmo_sigma_profile": { 
			"-0.025": 0.0,
			"-0.024": 0.0,
			"-0.023": 0.0,
			"-0.022": 0.0,
			"-0.021": 0.0,
			"-0.02": 0.0,
			"-0.019": 0.0494003238653,
			"-0.018": 0.599939263353,
			"-0.017": 0.72254974336,
			"-0.016": 1.2643831763,
			"-0.015": 0.779790033127,
			"-0.014": 0.274006630941,
			"-0.013": 1.03146786245,
			"-0.012": 0.574546083389,
			"-0.011": 0.888578531974,
			"-0.01": 2.36551917938,
			"-0.009": 3.49142536883,
			"-0.008": 4.70159270741,
			"-0.007": 6.64422305037,
			"-0.006": 15.7701290241,
			"-0.005": 23.231573845,
			"-0.004": 27.8578570255,
			"-0.003": 23.3715269617,
			"-0.002": 25.8762436704,
			"-0.001": 18.0616955345,
			"0.0": 20.856648931,
			"0.001": 20.2187768538,
			"0.002": 16.3580943365,
			"0.003": 16.1548876631,
			"0.004": 17.148866282,
			"0.005": 9.07964374802,
			"0.006": 5.33150562237,
			"0.007": 4.49911100941,
			"0.008": 6.04635413964,
			"0.009": 3.88158288028,
			"0.01": 5.08981154191,
			"0.011": 7.05739740352,
			"0.012": 8.12928421511,
			"0.013": 4.47342399596,
			"0.014": 2.57656865699,
			"0.015": 0.561773309247,
			"0.016": 0.0,
			"0.017": 0.0,
			"0.018": 0.0,
			"0.019": 0.0,
			"0.02": 0.0,
			"0.021": 0.0,
			"0.022": 0.0,
			"0.023": 0.0,
			"0.024": 0.0,
			"0.025": 0.0
		}
	}
}
