{
	 "smiles": "FC1=CC=CC2=C1NC(=O)C2=O", 
	 "Tm": 467.15, 
	 "num_atms": 16, 
	 "gaussian": { 
		 "optdone": 1, 
		 "sigma_profile": "yes", 
		 "theory": "DFT", 
		 "functional": "B3LYP", 
		 "basiset": "6-31G**", 
		 "properties": { 
			 "R2extent": 2816.1954, 
			 "electric_dipole_moment_norm": 5.11268359768, 
			 "electric_quadrupole_moment_norm": 4.62205609659, 
			 "total_energy": -612.289711926, 
			 "HOMO_LUMO_gap": 0.14126, 
			 "cosmo_polarized_energy": -13.56, 
			 "cosmo_cavitation_energy": 22.17, 
			 "cosmo_dispersion_energy": -16.22, 
			 "cosmo_repulsion_energy": 1.26, 
			 "cosmo_total_nonelectrostatic_energy": 7.21, 
			 "SMD_solvation_energy": 5.67 
		},
		"coords": [
			{
				"x": 1.1502647759,
				"y": 2.0320885933,
				"z": 4.1091587985,
				"element": "F" 
			},
			{
				"x": 0.5814227045,
				"y": 1.9738843402,
				"z": 2.885779759,
				"element": "C" 
			},
			{
				"x": -0.1550201966,
				"y": 3.0465016936,
				"z": 2.3896688486,
				"element": "C" 
			},
			{
				"x": -0.7420851462,
				"y": 2.9781809992,
				"z": 1.1189728465,
				"element": "C" 
			},
			{
				"x": -0.5957647109,
				"y": 1.8322539189,
				"z": 0.3335591088,
				"element": "C" 
			},
			{
				"x": 0.1436427808,
				"y": 0.7664661907,
				"z": 0.8424279407,
				"element": "C" 
			},
			{
				"x": 0.7349474551,
				"y": 0.8303883003,
				"z": 2.1172934939,
				"element": "C" 
			},
			{
				"x": 1.4260023541,
				"y": -0.3462560912,
				"z": 2.4208869814,
				"element": "N" 
			},
			{
				"x": 1.3460235056,
				"y": -1.2655116616,
				"z": 1.3838895469,
				"element": "C" 
			},
			{
				"x": 1.8366246085,
				"y": -2.3696884868,
				"z": 1.3452829562,
				"element": "O" 
			},
			{
				"x": 0.4792328964,
				"y": -0.5558945888,
				"z": 0.2794571058,
				"element": "C" 
			},
			{
				"x": 0.1898743049,
				"y": -1.0511526514,
				"z": -0.7862893364,
				"element": "O" 
			},
			{
				"x": -0.2607855651,
				"y": 3.9304467026,
				"z": 3.010168046,
				"element": "H" 
			},
			{
				"x": -1.3115686316,
				"y": 3.8252696453,
				"z": 0.7520154969,
				"element": "H" 
			},
			{
				"x": -1.041723042,
				"y": 1.7577988034,
				"z": -0.6528465183,
				"element": "H" 
			},
			{
				"x": 1.9231119065,
				"y": -0.5136757076,
				"z": 3.2831749256,
				"element": "H" 
			}
		],
		 "valence_orbital": [ 
			{
				"type": "occ",
				"energy": -0.33719,
				"method": "rhf"
			},
			{
				"type": "occ",
				"energy": -0.31664,
				"method": "rhf"
			},
			{
				"type": "occ",
				"energy": -0.27893,
				"method": "rhf"
			},
			{
				"type": "occ",
				"energy": -0.25292,
				"method": "rhf"
			},
			{
				"type": "occ",
				"energy": -0.24545,
				"method": "rhf"
			},
			{
				"type": "unocc",
				"energy": -0.10419,
				"method": "rhf"
			},
			{
				"type": "unocc",
				"energy": -0.02277,
				"method": "rhf"
			},
			{
				"type": "unocc",
				"energy": -0.00197,
				"method": "rhf"
			},
			{
				"type": "unocc",
				"energy": 0.06017,
				"method": "rhf"
			},
			{
				"type": "unocc",
				"energy": 0.08186,
				"method": "rhf"
			}
		],
		"cosmo_sigma_profile": { 
			"-0.025": 0.0,
			"-0.024": 0.0,
			"-0.023": 0.0,
			"-0.022": 0.0,
			"-0.021": 0.0,
			"-0.02": 0.0,
			"-0.019": 0.0,
			"-0.018": 0.0,
			"-0.017": 0.397943193018,
			"-0.016": 1.20349678865,
			"-0.015": 1.0842349293,
			"-0.014": 0.658006244256,
			"-0.013": 0.628997604244,
			"-0.012": 0.985851957158,
			"-0.011": 1.48668905202,
			"-0.01": 0.770459284687,
			"-0.009": 1.64854223504,
			"-0.008": 5.78240217303,
			"-0.007": 8.94165074884,
			"-0.006": 9.53627900552,
			"-0.005": 9.34150014744,
			"-0.004": 8.54507594025,
			"-0.003": 8.81813079891,
			"-0.002": 13.0735409984,
			"-0.001": 15.8990959254,
			"0.0": 14.5955243495,
			"0.001": 11.2552933563,
			"0.002": 10.7976454189,
			"0.003": 11.661398563,
			"0.004": 5.76053201023,
			"0.005": 2.63445015415,
			"0.006": 2.82481907814,
			"0.007": 2.86413283142,
			"0.008": 3.96066035041,
			"0.009": 5.26576710675,
			"0.01": 8.14386617904,
			"0.011": 8.53261102197,
			"0.012": 2.30212960467,
			"0.013": 0.0548899932519,
			"0.014": 0.0,
			"0.015": 0.0,
			"0.016": 0.0,
			"0.017": 0.0,
			"0.018": 0.0,
			"0.019": 0.0,
			"0.02": 0.0,
			"0.021": 0.0,
			"0.022": 0.0,
			"0.023": 0.0,
			"0.024": 0.0,
			"0.025": 0.0
		}
	}
}
