{
	 "smiles": "[O-][N+](=O)CCC1=CC=CC=C1", 
	 "Tm": 250.15, 
	 "num_atms": 20, 
	 "gaussian": { 
		 "optdone": 1, 
		 "sigma_profile": "yes", 
		 "theory": "DFT", 
		 "functional": "B3LYP", 
		 "basiset": "6-31G**", 
		 "properties": { 
			 "R2extent": 2543.1265, 
			 "electric_dipole_moment_norm": 3.35572656812, 
			 "electric_quadrupole_moment_norm": 20.428482346, 
			 "total_energy": -515.380284258, 
			 "HOMO_LUMO_gap": 0.18292, 
			 "cosmo_polarized_energy": -9.59, 
			 "cosmo_cavitation_energy": 24.26, 
			 "cosmo_dispersion_energy": -17.29, 
			 "cosmo_repulsion_energy": 1.4, 
			 "cosmo_total_nonelectrostatic_energy": 8.38, 
			 "SMD_solvation_energy": 6.01 
		},
		"coords": [
			{
				"x": -4.2944909179,
				"y": -0.2816902816,
				"z": 1.0835351552,
				"element": "O" 
			},
			{
				"x": -3.3139093555,
				"y": 0.4525426026,
				"z": 1.075409422,
				"element": "N" 
			},
			{
				"x": -3.169364943,
				"y": 1.44265814,
				"z": 0.3624977766,
				"element": "O" 
			},
			{
				"x": -2.2130796539,
				"y": 0.1371521208,
				"z": 2.0664111969,
				"element": "C" 
			},
			{
				"x": -0.8157145769,
				"y": 0.3824159553,
				"z": 1.4917656567,
				"element": "C" 
			},
			{
				"x": -0.4128455303,
				"y": -0.6075201794,
				"z": 0.4168017763,
				"element": "C" 
			},
			{
				"x": -0.6850455237,
				"y": -0.3537325172,
				"z": -0.9346047589,
				"element": "C" 
			},
			{
				"x": -0.3322096817,
				"y": -1.2810219016,
				"z": -1.9163391429,
				"element": "C" 
			},
			{
				"x": 0.2982684138,
				"y": -2.4748443628,
				"z": -1.5619882131,
				"element": "C" 
			},
			{
				"x": 0.5757654117,
				"y": -2.7368901693,
				"z": -0.219049739,
				"element": "C" 
			},
			{
				"x": 0.2224624796,
				"y": -1.8086450488,
				"z": 0.760744652,
				"element": "C" 
			},
			{
				"x": -2.3806931839,
				"y": -0.8972387003,
				"z": 2.3648704978,
				"element": "H" 
			},
			{
				"x": -2.4132203777,
				"y": 0.7977805725,
				"z": 2.9159644958,
				"element": "H" 
			},
			{
				"x": -0.7773856219,
				"y": 1.4071936246,
				"z": 1.1132047329,
				"element": "H" 
			},
			{
				"x": -0.1171831853,
				"y": 0.3219227619,
				"z": 2.3341978259,
				"element": "H" 
			},
			{
				"x": -1.1797862613,
				"y": 0.5716319547,
				"z": -1.2145940129,
				"element": "H" 
			},
			{
				"x": -0.5489894635,
				"y": -1.0683258307,
				"z": -2.9592851193,
				"element": "H" 
			},
			{
				"x": 0.5748850206,
				"y": -3.1946200208,
				"z": -2.3269332334,
				"element": "H" 
			},
			{
				"x": 1.0713061687,
				"y": -3.6607691603,
				"z": 0.0656000152,
				"element": "H" 
			},
			{
				"x": 0.4490307821,
				"y": -2.0158995598,
				"z": 1.804491016,
				"element": "H" 
			}
		],
		 "valence_orbital": [ 
			{
				"type": "occ",
				"energy": -0.31249,
				"method": "rhf"
			},
			{
				"type": "occ",
				"energy": -0.30231,
				"method": "rhf"
			},
			{
				"type": "occ",
				"energy": -0.29227,
				"method": "rhf"
			},
			{
				"type": "occ",
				"energy": -0.2541,
				"method": "rhf"
			},
			{
				"type": "occ",
				"energy": -0.24972,
				"method": "rhf"
			},
			{
				"type": "unocc",
				"energy": -0.0668,
				"method": "rhf"
			},
			{
				"type": "unocc",
				"energy": -0.00876,
				"method": "rhf"
			},
			{
				"type": "unocc",
				"energy": -0.00579,
				"method": "rhf"
			},
			{
				"type": "unocc",
				"energy": 0.08445,
				"method": "rhf"
			},
			{
				"type": "unocc",
				"energy": 0.10024,
				"method": "rhf"
			}
		],
		"cosmo_sigma_profile": { 
			"-0.025": 0.0,
			"-0.024": 0.0,
			"-0.023": 0.0,
			"-0.022": 0.0,
			"-0.021": 0.0,
			"-0.02": 0.0,
			"-0.019": 0.0,
			"-0.018": 0.0,
			"-0.017": 0.0,
			"-0.016": 0.0,
			"-0.015": 0.0,
			"-0.014": 0.0,
			"-0.013": 0.0,
			"-0.012": 0.0,
			"-0.011": 0.0666131843126,
			"-0.01": 1.2874240596,
			"-0.009": 2.83441041583,
			"-0.008": 3.09319183508,
			"-0.007": 3.30577134119,
			"-0.006": 13.8883652284,
			"-0.005": 17.4404283356,
			"-0.004": 15.6118447414,
			"-0.003": 17.7647557393,
			"-0.002": 11.9133024453,
			"-0.001": 12.1263714954,
			"0.0": 9.46383383363,
			"0.001": 10.2392884882,
			"0.002": 8.50907594485,
			"0.003": 10.2053150646,
			"0.004": 9.63432205167,
			"0.005": 10.4987123444,
			"0.006": 10.7927248018,
			"0.007": 7.84563776679,
			"0.008": 8.84991931398,
			"0.009": 4.82490813914,
			"0.01": 2.38504621953,
			"0.011": 0.0877021140558,
			"0.012": 0.0,
			"0.013": 0.0,
			"0.014": 0.0,
			"0.015": 0.0,
			"0.016": 0.0,
			"0.017": 0.0,
			"0.018": 0.0,
			"0.019": 0.0,
			"0.02": 0.0,
			"0.021": 0.0,
			"0.022": 0.0,
			"0.023": 0.0,
			"0.024": 0.0,
			"0.025": 0.0
		}
	}
}
