{
	 "smiles": "OC(=O)CC1=NN(N=C1)C1=CC=CC=C1", 
	 "Tm": 379.15, 
	 "num_atms": 24, 
	 "gaussian": { 
		 "optdone": 1, 
		 "sigma_profile": "yes", 
		 "theory": "DFT", 
		 "functional": "B3LYP", 
		 "basiset": "6-31G**", 
		 "properties": { 
			 "R2extent": 4535.4222, 
			 "electric_dipole_moment_norm": 1.37546455789, 
			 "electric_quadrupole_moment_norm": 13.0900331566, 
			 "total_energy": -701.17385132, 
			 "HOMO_LUMO_gap": 0.18974, 
			 "cosmo_polarized_energy": -12.36, 
			 "cosmo_cavitation_energy": 29.56, 
			 "cosmo_dispersion_energy": -21.72, 
			 "cosmo_repulsion_energy": 1.71, 
			 "cosmo_total_nonelectrostatic_energy": 9.54, 
			 "SMD_solvation_energy": 4.91 
		},
		"coords": [
			{
				"x": -3.5242340576,
				"y": 2.6853930189,
				"z": 0.2619298662,
				"element": "O" 
			},
			{
				"x": -3.4138463287,
				"y": 1.4744668364,
				"z": 0.8635111596,
				"element": "C" 
			},
			{
				"x": -4.2922026466,
				"y": 0.6454404687,
				"z": 0.83220617,
				"element": "O" 
			},
			{
				"x": -2.0831509147,
				"y": 1.3278884997,
				"z": 1.5839744691,
				"element": "C" 
			},
			{
				"x": -0.8853305787,
				"y": 1.4724864613,
				"z": 0.6895026107,
				"element": "C" 
			},
			{
				"x": 0.0011958951,
				"y": 0.482623474,
				"z": 0.5657798563,
				"element": "N" 
			},
			{
				"x": 0.916945122,
				"y": 0.9689739126,
				"z": -0.2788845538,
				"element": "N" 
			},
			{
				"x": 0.683382564,
				"y": 2.2115912607,
				"z": -0.7152971377,
				"element": "N" 
			},
			{
				"x": -0.4541381673,
				"y": 2.5499680492,
				"z": -0.1134522554,
				"element": "C" 
			},
			{
				"x": 2.0556848388,
				"y": 0.2181700425,
				"z": -0.6843132519,
				"element": "C" 
			},
			{
				"x": 2.9798552655,
				"y": 0.7916809412,
				"z": -1.5625589885,
				"element": "C" 
			},
			{
				"x": 4.092181071,
				"y": 0.0491061088,
				"z": -1.9542528799,
				"element": "C" 
			},
			{
				"x": 4.2842402099,
				"y": -1.2496759421,
				"z": -1.4782144918,
				"element": "C" 
			},
			{
				"x": 3.351285853,
				"y": -1.8075663089,
				"z": -0.6016639632,
				"element": "C" 
			},
			{
				"x": 2.2324962968,
				"y": -1.0806583456,
				"z": -0.1986786496,
				"element": "C" 
			},
			{
				"x": -4.3916617479,
				"y": 2.6934996899,
				"z": -0.1768811441,
				"element": "H" 
			},
			{
				"x": -2.0543688375,
				"y": 2.090118371,
				"z": 2.3734080829,
				"element": "H" 
			},
			{
				"x": -2.0678630063,
				"y": 0.3446659007,
				"z": 2.0540973664,
				"element": "H" 
			},
			{
				"x": -0.9136882309,
				"y": 3.5123274228,
				"z": -0.2786884803,
				"element": "H" 
			},
			{
				"x": 2.8172845639,
				"y": 1.7996875015,
				"z": -1.9233326687,
				"element": "H" 
			},
			{
				"x": 4.8118505825,
				"y": 0.4918180978,
				"z": -2.6364265933,
				"element": "H" 
			},
			{
				"x": 5.1532713098,
				"y": -1.8221112129,
				"z": -1.7879082601,
				"element": "H" 
			},
			{
				"x": 3.4912115581,
				"y": -2.816917957,
				"z": -0.2263190497,
				"element": "H" 
			},
			{
				"x": 1.5002993856,
				"y": -1.5004762914,
				"z": 0.4797627867,
				"element": "H" 
			}
		],
		 "valence_orbital": [ 
			{
				"type": "occ",
				"energy": -0.29764,
				"method": "rhf"
			},
			{
				"type": "occ",
				"energy": -0.29699,
				"method": "rhf"
			},
			{
				"type": "occ",
				"energy": -0.27851,
				"method": "rhf"
			},
			{
				"type": "occ",
				"energy": -0.25806,
				"method": "rhf"
			},
			{
				"type": "occ",
				"energy": -0.22983,
				"method": "rhf"
			},
			{
				"type": "unocc",
				"energy": -0.04009,
				"method": "rhf"
			},
			{
				"type": "unocc",
				"energy": -0.00896,
				"method": "rhf"
			},
			{
				"type": "unocc",
				"energy": -0.00085,
				"method": "rhf"
			},
			{
				"type": "unocc",
				"energy": 0.03015,
				"method": "rhf"
			},
			{
				"type": "unocc",
				"energy": 0.04848,
				"method": "rhf"
			}
		],
		"cosmo_sigma_profile": { 
			"-0.025": 0.0,
			"-0.024": 0.0,
			"-0.023": 0.0,
			"-0.022": 0.0,
			"-0.021": 0.0,
			"-0.02": 0.0,
			"-0.019": 0.124128162341,
			"-0.018": 0.866857755671,
			"-0.017": 1.29595458879,
			"-0.016": 0.304909991199,
			"-0.015": 0.719384762769,
			"-0.014": 0.82062947333,
			"-0.013": 0.506543401268,
			"-0.012": 0.96744407358,
			"-0.011": 1.20353017451,
			"-0.01": 0.480538123657,
			"-0.009": 0.905334858063,
			"-0.008": 4.14134503635,
			"-0.007": 5.93481693462,
			"-0.006": 13.5589596483,
			"-0.005": 16.2354943087,
			"-0.004": 17.2823715708,
			"-0.003": 13.9578353802,
			"-0.002": 12.8611050501,
			"-0.001": 15.1533210809,
			"0.0": 17.4635956641,
			"0.001": 18.6523748608,
			"0.002": 18.4677402805,
			"0.003": 16.5547802065,
			"0.004": 18.5645884545,
			"0.005": 8.21884198932,
			"0.006": 5.68901263492,
			"0.007": 4.85411585241,
			"0.008": 3.91689837415,
			"0.009": 4.97091696036,
			"0.01": 3.81508727544,
			"0.011": 5.63871158455,
			"0.012": 2.82149184791,
			"0.013": 0.134174453339,
			"0.014": 0.0,
			"0.015": 0.0,
			"0.016": 0.0,
			"0.017": 0.0,
			"0.018": 0.0,
			"0.019": 0.0,
			"0.02": 0.0,
			"0.021": 0.0,
			"0.022": 0.0,
			"0.023": 0.0,
			"0.024": 0.0,
			"0.025": 0.0
		}
	}
}
