{
	 "smiles": "COC(=O)C1=CC=C(CC(CC2=CC=C(C=C2)C(=O)OC)(C#N)C2=CC=C(CC(C)C)C=C2)C=C1", 
	 "Tm": 388.15, 
	 "num_atms": 66, 
	 "gaussian": { 
		 "optdone": 1, 
		 "sigma_profile": "yes", 
		 "theory": "DFT", 
		 "functional": "B3LYP", 
		 "basiset": "6-31G**", 
		 "properties": { 
			 "R2extent": 24137.6737, 
			 "electric_dipole_moment_norm": 4.36502495869, 
			 "electric_quadrupole_moment_norm": 33.4724043599, 
			 "total_energy": -1517.55263365, 
			 "HOMO_LUMO_gap": 0.19632, 
			 "cosmo_polarized_energy": -20.19, 
			 "cosmo_cavitation_energy": 68.31, 
			 "cosmo_dispersion_energy": -43.77, 
			 "cosmo_repulsion_energy": 3.27, 
			 "cosmo_total_nonelectrostatic_energy": 27.8, 
			 "SMD_solvation_energy": 14.79 
		},
		"coords": [
			{
				"x": 9.5932812345,
				"y": -1.568472388,
				"z": 0.6690327327,
				"element": "C" 
			},
			{
				"x": 8.2690704872,
				"y": -1.0266138237,
				"z": 0.7846847903,
				"element": "O" 
			},
			{
				"x": 7.2653876064,
				"y": -1.915563512,
				"z": 0.6049276824,
				"element": "C" 
			},
			{
				"x": 7.4565489771,
				"y": -3.0921149367,
				"z": 0.363849402,
				"element": "O" 
			},
			{
				"x": 5.919608813,
				"y": -1.2894859816,
				"z": 0.7350664863,
				"element": "C" 
			},
			{
				"x": 4.7962686411,
				"y": -2.1097635576,
				"z": 0.5790023246,
				"element": "C" 
			},
			{
				"x": 3.5176795701,
				"y": -1.5713346772,
				"z": 0.6902649503,
				"element": "C" 
			},
			{
				"x": 3.3240956614,
				"y": -0.2055947161,
				"z": 0.9516175785,
				"element": "C" 
			},
			{
				"x": 1.9197936573,
				"y": 0.3471245242,
				"z": 1.1151127591,
				"element": "C" 
			},
			{
				"x": 1.3686082518,
				"y": 1.2911128891,
				"z": -0.0082884733,
				"element": "C" 
			},
			{
				"x": 1.2628762845,
				"y": 0.5576417979,
				"z": -1.4059133292,
				"element": "C" 
			},
			{
				"x": 0.2826597877,
				"y": -0.5942104157,
				"z": -1.5020999303,
				"element": "C" 
			},
			{
				"x": -1.1027390255,
				"y": -0.3731371168,
				"z": -1.5798121666,
				"element": "C" 
			},
			{
				"x": -1.9928411719,
				"y": -1.4362948518,
				"z": -1.7050663995,
				"element": "C" 
			},
			{
				"x": -1.5152678904,
				"y": -2.7527522584,
				"z": -1.7635075548,
				"element": "C" 
			},
			{
				"x": -0.1359084986,
				"y": -2.9843103229,
				"z": -1.7089238702,
				"element": "C" 
			},
			{
				"x": 0.7479364192,
				"y": -1.9160196074,
				"z": -1.5837341922,
				"element": "C" 
			},
			{
				"x": -2.4171926997,
				"y": -3.9308677025,
				"z": -1.8981941558,
				"element": "C" 
			},
			{
				"x": -2.038672996,
				"y": -5.0850739877,
				"z": -1.9527714142,
				"element": "O" 
			},
			{
				"x": -3.7230480738,
				"y": -3.5795631924,
				"z": -1.9531958785,
				"element": "O" 
			},
			{
				"x": -4.6438327547,
				"y": -4.6729984822,
				"z": -2.0853933256,
				"element": "C" 
			},
			{
				"x": 2.3203023556,
				"y": 2.4036604252,
				"z": -0.2150488384,
				"element": "C" 
			},
			{
				"x": 3.0534531714,
				"y": 3.2844931305,
				"z": -0.4034221096,
				"element": "N" 
			},
			{
				"x": 0.0120832764,
				"y": 1.9140694993,
				"z": 0.3934085226,
				"element": "C" 
			},
			{
				"x": -0.8189881759,
				"y": 1.3470820617,
				"z": 1.3664136939,
				"element": "C" 
			},
			{
				"x": -2.0598641838,
				"y": 1.9120128695,
				"z": 1.6672273765,
				"element": "C" 
			},
			{
				"x": -2.524680906,
				"y": 3.0563869931,
				"z": 1.0083077993,
				"element": "C" 
			},
			{
				"x": -3.8757583628,
				"y": 3.6587715067,
				"z": 1.3321789476,
				"element": "C" 
			},
			{
				"x": -5.0744529035,
				"y": 3.1362677386,
				"z": 0.4888449282,
				"element": "C" 
			},
			{
				"x": -5.3298879886,
				"y": 1.6370463704,
				"z": 0.696628614,
				"element": "C" 
			},
			{
				"x": -4.9366319815,
				"y": 3.4734972325,
				"z": -1.00222341,
				"element": "C" 
			},
			{
				"x": -1.6828012055,
				"y": 3.6273338815,
				"z": 0.0418605533,
				"element": "C" 
			},
			{
				"x": -0.4423242555,
				"y": 3.0702782286,
				"z": -0.2592203019,
				"element": "C" 
			},
			{
				"x": 4.458984433,
				"y": 0.6022217593,
				"z": 1.1312463635,
				"element": "C" 
			},
			{
				"x": 5.7412611715,
				"y": 0.0713621478,
				"z": 1.0175817562,
				"element": "C" 
			},
			{
				"x": 9.7563354718,
				"y": -2.3499874482,
				"z": 1.4155116165,
				"element": "H" 
			},
			{
				"x": 10.2697492601,
				"y": -0.7305529661,
				"z": 0.8371928897,
				"element": "H" 
			},
			{
				"x": 9.7494681337,
				"y": -1.9949265044,
				"z": -0.3250716116,
				"element": "H" 
			},
			{
				"x": 4.9459346272,
				"y": -3.1652775659,
				"z": 0.3782096275,
				"element": "H" 
			},
			{
				"x": 2.6542449564,
				"y": -2.2218055628,
				"z": 0.5886070635,
				"element": "H" 
			},
			{
				"x": 1.2250900344,
				"y": -0.4930692991,
				"z": 1.1928449451,
				"element": "H" 
			},
			{
				"x": 1.8597747548,
				"y": 0.9011283256,
				"z": 2.0581774254,
				"element": "H" 
			},
			{
				"x": 2.2658119467,
				"y": 0.2061426294,
				"z": -1.6658896658,
				"element": "H" 
			},
			{
				"x": 0.9951127531,
				"y": 1.3208078841,
				"z": -2.1437275376,
				"element": "H" 
			},
			{
				"x": -1.4869902557,
				"y": 0.6408060933,
				"z": -1.551365594,
				"element": "H" 
			},
			{
				"x": -3.0591486798,
				"y": -1.2510175453,
				"z": -1.7659510478,
				"element": "H" 
			},
			{
				"x": 0.2235633309,
				"y": -4.005750511,
				"z": -1.7744732693,
				"element": "H" 
			},
			{
				"x": 1.8166469355,
				"y": -2.1055888305,
				"z": -1.566149699,
				"element": "H" 
			},
			{
				"x": -5.6352730917,
				"y": -4.221044447,
				"z": -2.1148869054,
				"element": "H" 
			},
			{
				"x": -4.4488807338,
				"y": -5.2318900107,
				"z": -3.0041454716,
				"element": "H" 
			},
			{
				"x": -4.5572883426,
				"y": -5.3546451092,
				"z": -1.2354538415,
				"element": "H" 
			},
			{
				"x": -0.5156697065,
				"y": 0.4582635516,
				"z": 1.9066459866,
				"element": "H" 
			},
			{
				"x": -2.6739527618,
				"y": 1.452262977,
				"z": 2.4370537441,
				"element": "H" 
			},
			{
				"x": -4.1010315062,
				"y": 3.4788118583,
				"z": 2.3904891315,
				"element": "H" 
			},
			{
				"x": -3.8203224837,
				"y": 4.747078607,
				"z": 1.206717361,
				"element": "H" 
			},
			{
				"x": -5.9530803531,
				"y": 3.6766174361,
				"z": 0.8689917184,
				"element": "H" 
			},
			{
				"x": -5.478986317,
				"y": 1.3978476646,
				"z": 1.7556866422,
				"element": "H" 
			},
			{
				"x": -4.4904333299,
				"y": 1.0343334444,
				"z": 0.3333659068,
				"element": "H" 
			},
			{
				"x": -6.2266792477,
				"y": 1.3183046728,
				"z": 0.1546234705,
				"element": "H" 
			},
			{
				"x": -5.832507771,
				"y": 3.1674026969,
				"z": -1.552933403,
				"element": "H" 
			},
			{
				"x": -4.8007780576,
				"y": 4.5494261428,
				"z": -1.1599724931,
				"element": "H" 
			},
			{
				"x": -4.0800905851,
				"y": 2.9591579359,
				"z": -1.4511916845,
				"element": "H" 
			},
			{
				"x": -1.9949174022,
				"y": 4.532301773,
				"z": -0.4725298623,
				"element": "H" 
			},
			{
				"x": 0.1885670034,
				"y": 3.5558319416,
				"z": -0.9982924073,
				"element": "H" 
			},
			{
				"x": 4.3425525566,
				"y": 1.6555420081,
				"z": 1.3609767165,
				"element": "H" 
			},
			{
				"x": 6.6075721352,
				"y": 0.7080966325,
				"z": 1.1544983373,
				"element": "H" 
			}
		],
		 "valence_orbital": [ 
			{
				"type": "occ",
				"energy": -0.2619,
				"method": "rhf"
			},
			{
				"type": "occ",
				"energy": -0.25934,
				"method": "rhf"
			},
			{
				"type": "occ",
				"energy": -0.25788,
				"method": "rhf"
			},
			{
				"type": "occ",
				"energy": -0.25339,
				"method": "rhf"
			},
			{
				"type": "occ",
				"energy": -0.24794,
				"method": "rhf"
			},
			{
				"type": "unocc",
				"energy": -0.05162,
				"method": "rhf"
			},
			{
				"type": "unocc",
				"energy": -0.04789,
				"method": "rhf"
			},
			{
				"type": "unocc",
				"energy": -0.02262,
				"method": "rhf"
			},
			{
				"type": "unocc",
				"energy": -0.01655,
				"method": "rhf"
			},
			{
				"type": "unocc",
				"energy": -0.01179,
				"method": "rhf"
			}
		],
		"cosmo_sigma_profile": { 
			"-0.025": 0.0,
			"-0.024": 0.0,
			"-0.023": 0.0,
			"-0.022": 0.0,
			"-0.021": 0.0,
			"-0.02": 0.0,
			"-0.019": 0.0,
			"-0.018": 0.0,
			"-0.017": 0.0,
			"-0.016": 0.0,
			"-0.015": 0.0,
			"-0.014": 0.0,
			"-0.013": 0.0,
			"-0.012": 0.0,
			"-0.011": 0.0,
			"-0.01": 0.0,
			"-0.009": 0.0,
			"-0.008": 0.143325881763,
			"-0.007": 4.11300132878,
			"-0.006": 24.1328642197,
			"-0.005": 44.1497855137,
			"-0.004": 47.964246053,
			"-0.003": 54.5615837354,
			"-0.002": 53.4348443977,
			"-0.001": 46.5366598944,
			"0.0": 46.0822452001,
			"0.001": 50.6129273512,
			"0.002": 42.5857188392,
			"0.003": 35.0896551698,
			"0.004": 24.9705871952,
			"0.005": 13.8206129077,
			"0.006": 8.05587536061,
			"0.007": 5.92227026977,
			"0.008": 4.66097981131,
			"0.009": 5.84835933318,
			"0.01": 6.5471653083,
			"0.011": 7.96442158281,
			"0.012": 11.2406734881,
			"0.013": 2.16564316423,
			"0.014": 0.103288756881,
			"0.015": 0.0,
			"0.016": 0.0,
			"0.017": 0.0,
			"0.018": 0.0,
			"0.019": 0.0,
			"0.02": 0.0,
			"0.021": 0.0,
			"0.022": 0.0,
			"0.023": 0.0,
			"0.024": 0.0,
			"0.025": 0.0
		}
	}
}
