{
	 "smiles": "CCC1=CC(=NN1)C(O)=O", 
	 "Tm": 465.15, 
	 "num_atms": 18, 
	 "gaussian": { 
		 "optdone": 1, 
		 "sigma_profile": "yes", 
		 "theory": "DFT", 
		 "functional": "B3LYP", 
		 "basiset": "6-31G**", 
		 "properties": { 
			 "R2extent": 2018.3596, 
			 "electric_dipole_moment_norm": 3.85534005504, 
			 "electric_quadrupole_moment_norm": 5.42438121724, 
			 "total_energy": -493.412514696, 
			 "HOMO_LUMO_gap": 0.22369, 
			 "cosmo_polarized_energy": -16.26, 
			 "cosmo_cavitation_energy": 22.88, 
			 "cosmo_dispersion_energy": -16.71, 
			 "cosmo_repulsion_energy": 1.4, 
			 "cosmo_total_nonelectrostatic_energy": 7.57, 
			 "SMD_solvation_energy": 4.42 
		},
		"coords": [
			{
				"x": -0.2632867303,
				"y": 2.0206495797,
				"z": 2.7111672048,
				"element": "C" 
			},
			{
				"x": 0.3035290916,
				"y": 1.8234563554,
				"z": 1.2925948372,
				"element": "C" 
			},
			{
				"x": 0.0608659661,
				"y": 0.4532184848,
				"z": 0.7337704039,
				"element": "C" 
			},
			{
				"x": -0.863649379,
				"y": -0.0317904977,
				"z": -0.1696620688,
				"element": "C" 
			},
			{
				"x": -0.6024187326,
				"y": -1.4214803025,
				"z": -0.2560907763,
				"element": "C" 
			},
			{
				"x": 0.4130665042,
				"y": -1.7886963407,
				"z": 0.5340300597,
				"element": "N" 
			},
			{
				"x": 0.789825098,
				"y": -0.6417921495,
				"z": 1.1178934318,
				"element": "N" 
			},
			{
				"x": -1.3395537449,
				"y": -2.3727815316,
				"z": -1.1080869198,
				"element": "C" 
			},
			{
				"x": -0.8963235799,
				"y": -3.6456386126,
				"z": -1.0113367039,
				"element": "O" 
			},
			{
				"x": -2.2618623087,
				"y": -2.0490270785,
				"z": -1.8323927581,
				"element": "O" 
			},
			{
				"x": 0.1884236444,
				"y": 1.3222357685,
				"z": 3.4233050861,
				"element": "H" 
			},
			{
				"x": -0.0670089996,
				"y": 3.0368101571,
				"z": 3.0668889967,
				"element": "H" 
			},
			{
				"x": -1.3444257493,
				"y": 1.8551951374,
				"z": 2.7244635376,
				"element": "H" 
			},
			{
				"x": 1.3809568784,
				"y": 2.0350792143,
				"z": 1.2946751329,
				"element": "H" 
			},
			{
				"x": -0.1482730846,
				"y": 2.5514714725,
				"z": 0.6118201245,
				"element": "H" 
			},
			{
				"x": -1.622768899,
				"y": 0.5194196981,
				"z": -0.702519794,
				"element": "H" 
			},
			{
				"x": 1.5635506379,
				"y": -0.6621700256,
				"z": 1.7660478884,
				"element": "H" 
			},
			{
				"x": -1.4588466127,
				"y": -4.1600593292,
				"z": -1.6137676827,
				"element": "H" 
			}
		],
		 "valence_orbital": [ 
			{
				"type": "occ",
				"energy": -0.30918,
				"method": "rhf"
			},
			{
				"type": "occ",
				"energy": -0.29773,
				"method": "rhf"
			},
			{
				"type": "occ",
				"energy": -0.26914,
				"method": "rhf"
			},
			{
				"type": "occ",
				"energy": -0.26441,
				"method": "rhf"
			},
			{
				"type": "occ",
				"energy": -0.24877,
				"method": "rhf"
			},
			{
				"type": "unocc",
				"energy": -0.02508,
				"method": "rhf"
			},
			{
				"type": "unocc",
				"energy": 0.02414,
				"method": "rhf"
			},
			{
				"type": "unocc",
				"energy": 0.06447,
				"method": "rhf"
			},
			{
				"type": "unocc",
				"energy": 0.08928,
				"method": "rhf"
			},
			{
				"type": "unocc",
				"energy": 0.10823,
				"method": "rhf"
			}
		],
		"cosmo_sigma_profile": { 
			"-0.025": 0.0,
			"-0.024": 0.0,
			"-0.023": 0.0,
			"-0.022": 0.0,
			"-0.021": 0.0,
			"-0.02": 0.0,
			"-0.019": 0.0010195109398,
			"-0.018": 0.820085293021,
			"-0.017": 1.36208805824,
			"-0.016": 2.52828641566,
			"-0.015": 2.58512696337,
			"-0.014": 1.26286094639,
			"-0.013": 1.17108667147,
			"-0.012": 1.48428985638,
			"-0.011": 2.85669543336,
			"-0.01": 2.04542088503,
			"-0.009": 0.823361215874,
			"-0.008": 2.09215169532,
			"-0.007": 3.35349304046,
			"-0.006": 4.83359050696,
			"-0.005": 7.41340955248,
			"-0.004": 10.238004728,
			"-0.003": 12.7841426516,
			"-0.002": 17.5178421029,
			"-0.001": 15.5148928154,
			"0.0": 14.5249164578,
			"0.001": 11.6847469103,
			"0.002": 8.39606032541,
			"0.003": 9.90275343893,
			"0.004": 6.30736504355,
			"0.005": 3.77139789064,
			"0.006": 3.93094964014,
			"0.007": 2.83843198561,
			"0.008": 3.56263556983,
			"0.009": 4.53007357707,
			"0.01": 3.74904542854,
			"0.011": 4.75642695863,
			"0.012": 7.18961365184,
			"0.013": 2.21615965912,
			"0.014": 1.45095091805,
			"0.015": 1.16123849288,
			"0.016": 0.282396875837,
			"0.017": 0.0,
			"0.018": 0.0,
			"0.019": 0.0,
			"0.02": 0.0,
			"0.021": 0.0,
			"0.022": 0.0,
			"0.023": 0.0,
			"0.024": 0.0,
			"0.025": 0.0
		}
	}
}
