{
	 "smiles": "CCOC(=O)C1(C)OC(=O)N(C1=O)C1=CC(Cl)=CC(Cl)=C1", 
	 "Tm": 386.15, 
	 "num_atms": 32, 
	 "gaussian": { 
		 "optdone": 1, 
		 "sigma_profile": "yes", 
		 "theory": "DFT", 
		 "functional": "B3LYP", 
		 "basiset": "6-31G**", 
		 "properties": { 
			 "R2extent": 8854.6193, 
			 "electric_dipole_moment_norm": 2.04752788992, 
			 "electric_quadrupole_moment_norm": 16.2719901841, 
			 "total_energy": -1853.31012052, 
			 "HOMO_LUMO_gap": 0.20757, 
			 "cosmo_polarized_energy": -12.72, 
			 "cosmo_cavitation_energy": 41.38, 
			 "cosmo_dispersion_energy": -28.39, 
			 "cosmo_repulsion_energy": 2.23, 
			 "cosmo_total_nonelectrostatic_energy": 15.22, 
			 "SMD_solvation_energy": 9.37 
		},
		"coords": [
			{
				"x": 2.9971323477,
				"y": 2.6588403314,
				"z": 3.0204495479,
				"element": "C" 
			},
			{
				"x": 2.2246743748,
				"y": 2.8293021762,
				"z": 1.7231441952,
				"element": "C" 
			},
			{
				"x": 1.2636620385,
				"y": 1.7494351409,
				"z": 1.5415504738,
				"element": "O" 
			},
			{
				"x": 0.0676470923,
				"y": 1.8967239819,
				"z": 2.125471887,
				"element": "C" 
			},
			{
				"x": -0.3009976051,
				"y": 2.8540249416,
				"z": 2.76266964,
				"element": "O" 
			},
			{
				"x": -0.8032739907,
				"y": 0.6445099203,
				"z": 1.8694504328,
				"element": "C" 
			},
			{
				"x": -2.182906081,
				"y": 0.7800140994,
				"z": 2.4916690802,
				"element": "C" 
			},
			{
				"x": -0.1011412317,
				"y": -0.4922636932,
				"z": 2.4175270034,
				"element": "O" 
			},
			{
				"x": 0.280388695,
				"y": -1.3513663926,
				"z": 1.4400918112,
				"element": "C" 
			},
			{
				"x": 0.9060850788,
				"y": -2.3559548432,
				"z": 1.6378499718,
				"element": "O" 
			},
			{
				"x": -0.2005370174,
				"y": -0.8681938011,
				"z": 0.2002358554,
				"element": "N" 
			},
			{
				"x": -0.8641925101,
				"y": 0.3453198125,
				"z": 0.3681598252,
				"element": "C" 
			},
			{
				"x": -1.3922143508,
				"y": 1.0305645519,
				"z": -0.4774990367,
				"element": "O" 
			},
			{
				"x": -0.0027607108,
				"y": -1.5377922668,
				"z": -1.0460157687,
				"element": "C" 
			},
			{
				"x": 0.0250854079,
				"y": -2.9362343972,
				"z": -1.0850514122,
				"element": "C" 
			},
			{
				"x": 0.2158605328,
				"y": -3.5603782468,
				"z": -2.3149335879,
				"element": "C" 
			},
			{
				"x": 0.258676467,
				"y": -5.3114988328,
				"z": -2.3793976484,
				"element": "Cl" 
			},
			{
				"x": 0.3671143712,
				"y": -2.8390344459,
				"z": -3.497923294,
				"element": "C" 
			},
			{
				"x": 0.3270395926,
				"y": -1.4483279329,
				"z": -3.419554337,
				"element": "C" 
			},
			{
				"x": 0.5158436538,
				"y": -0.5105953783,
				"z": -4.888753485,
				"element": "Cl" 
			},
			{
				"x": 0.1484714403,
				"y": -0.7787619118,
				"z": -2.2117760166,
				"element": "C" 
			},
			{
				"x": 2.332679653,
				"y": 2.7515273768,
				"z": 3.8830341593,
				"element": "H" 
			},
			{
				"x": 3.4913568051,
				"y": 1.6840635678,
				"z": 3.0554372806,
				"element": "H" 
			},
			{
				"x": 3.7635909496,
				"y": 3.4371256829,
				"z": 3.0941788873,
				"element": "H" 
			},
			{
				"x": 1.6846104849,
				"y": 3.7781734535,
				"z": 1.6962049931,
				"element": "H" 
			},
			{
				"x": 2.8746577273,
				"y": 2.7530014792,
				"z": 0.8494810582,
				"element": "H" 
			},
			{
				"x": -2.7437330955,
				"y": -0.1490241987,
				"z": 2.3644065973,
				"element": "H" 
			},
			{
				"x": -2.7186864764,
				"y": 1.5941166238,
				"z": 1.9997713323,
				"element": "H" 
			},
			{
				"x": -2.0919603267,
				"y": 1.0102851285,
				"z": 3.5541515245,
				"element": "H" 
			},
			{
				"x": -0.0760397967,
				"y": -3.5206690406,
				"z": -0.1820994753,
				"element": "H" 
			},
			{
				"x": 0.510437703,
				"y": -3.3422863233,
				"z": -4.4456185526,
				"element": "H" 
			},
			{
				"x": 0.1085287774,
				"y": 0.3003534364,
				"z": -2.1826129418,
				"element": "H" 
			}
		],
		 "valence_orbital": [ 
			{
				"type": "occ",
				"energy": -0.3124,
				"method": "rhf"
			},
			{
				"type": "occ",
				"energy": -0.30399,
				"method": "rhf"
			},
			{
				"type": "occ",
				"energy": -0.28863,
				"method": "rhf"
			},
			{
				"type": "occ",
				"energy": -0.26357,
				"method": "rhf"
			},
			{
				"type": "occ",
				"energy": -0.26089,
				"method": "rhf"
			},
			{
				"type": "unocc",
				"energy": -0.05332,
				"method": "rhf"
			},
			{
				"type": "unocc",
				"energy": -0.03466,
				"method": "rhf"
			},
			{
				"type": "unocc",
				"energy": -0.0309,
				"method": "rhf"
			},
			{
				"type": "unocc",
				"energy": -0.02722,
				"method": "rhf"
			},
			{
				"type": "unocc",
				"energy": -0.00152,
				"method": "rhf"
			}
		],
		"cosmo_sigma_profile": { 
			"-0.025": 0.0,
			"-0.024": 0.0,
			"-0.023": 0.0,
			"-0.022": 0.0,
			"-0.021": 0.0,
			"-0.02": 0.0,
			"-0.019": 0.0,
			"-0.018": 0.0,
			"-0.017": 0.0,
			"-0.016": 0.0,
			"-0.015": 0.0,
			"-0.014": 0.0,
			"-0.013": 0.0,
			"-0.012": 0.182256364018,
			"-0.011": 0.667143118159,
			"-0.01": 0.918562512008,
			"-0.009": 2.02932959238,
			"-0.008": 3.93659963475,
			"-0.007": 7.95557844009,
			"-0.006": 14.2948672515,
			"-0.005": 20.0065118109,
			"-0.004": 27.0816414113,
			"-0.003": 25.181691052,
			"-0.002": 28.7523540543,
			"-0.001": 31.3039934219,
			"0.0": 39.6774913719,
			"0.001": 25.014176465,
			"0.002": 18.9773910346,
			"0.003": 21.6621518541,
			"0.004": 22.2446799145,
			"0.005": 6.26274908274,
			"0.006": 5.89781286348,
			"0.007": 6.55248757377,
			"0.008": 6.11868270485,
			"0.009": 7.33128021519,
			"0.01": 10.7981924917,
			"0.011": 2.45563861943,
			"0.012": 0.00154717260063,
			"0.013": 0.0,
			"0.014": 0.0,
			"0.015": 0.0,
			"0.016": 0.0,
			"0.017": 0.0,
			"0.018": 0.0,
			"0.019": 0.0,
			"0.02": 0.0,
			"0.021": 0.0,
			"0.022": 0.0,
			"0.023": 0.0,
			"0.024": 0.0,
			"0.025": 0.0
		}
	}
}
