{
	 "smiles": "COC=C(C(=O)OC)C1=CC=CC=C1COC1=NC(OC(C)C)=NC(=C1)C(F)(F)F", 
	 "Tm": 381.15, 
	 "num_atms": 51, 
	 "gaussian": { 
		 "optdone": 1, 
		 "sigma_profile": "yes", 
		 "theory": "DFT", 
		 "functional": "B3LYP", 
		 "basiset": "6-31G**", 
		 "properties": { 
			 "R2extent": 15060.8583, 
			 "electric_dipole_moment_norm": 4.02765340366, 
			 "electric_quadrupole_moment_norm": 34.4458991954, 
			 "total_energy": -1559.91721379, 
			 "HOMO_LUMO_gap": 0.18933, 
			 "cosmo_polarized_energy": -19.71, 
			 "cosmo_cavitation_energy": 57.82, 
			 "cosmo_dispersion_energy": -35.83, 
			 "cosmo_repulsion_energy": 2.73, 
			 "cosmo_total_nonelectrostatic_energy": 24.72, 
			 "SMD_solvation_energy": 12.58 
		},
		"coords": [
			{
				"x": 1.6623091835,
				"y": -2.2376882625,
				"z": -2.514355797,
				"element": "C" 
			},
			{
				"x": 2.3269564167,
				"y": -1.2490279062,
				"z": -1.7242173519,
				"element": "O" 
			},
			{
				"x": 2.8764913387,
				"y": -1.6777678383,
				"z": -0.5774564172,
				"element": "C" 
			},
			{
				"x": 3.5639972882,
				"y": -0.8537487541,
				"z": 0.2475766332,
				"element": "C" 
			},
			{
				"x": 4.1702534403,
				"y": -1.4155399716,
				"z": 1.4785128619,
				"element": "C" 
			},
			{
				"x": 4.8719051573,
				"y": -0.792856771,
				"z": 2.2523788021,
				"element": "O" 
			},
			{
				"x": 3.8627363595,
				"y": -2.7293267288,
				"z": 1.6719312773,
				"element": "O" 
			},
			{
				"x": 4.437719939,
				"y": -3.3191912417,
				"z": 2.8460392649,
				"element": "C" 
			},
			{
				"x": 3.8150409803,
				"y": 0.5866394263,
				"z": -0.0537867542,
				"element": "C" 
			},
			{
				"x": 5.1453671805,
				"y": 1.016818039,
				"z": -0.1948177327,
				"element": "C" 
			},
			{
				"x": 5.4505504769,
				"y": 2.3400267375,
				"z": -0.4965550488,
				"element": "C" 
			},
			{
				"x": 4.4228671246,
				"y": 3.2724712874,
				"z": -0.6535849499,
				"element": "C" 
			},
			{
				"x": 3.1024243215,
				"y": 2.8661011063,
				"z": -0.4923122906,
				"element": "C" 
			},
			{
				"x": 2.7806574012,
				"y": 1.5348305975,
				"z": -0.1924575172,
				"element": "C" 
			},
			{
				"x": 1.3293196872,
				"y": 1.1860381416,
				"z": 0.0072394977,
				"element": "C" 
			},
			{
				"x": 0.6620439725,
				"y": 1.2774622181,
				"z": -1.2794501982,
				"element": "O" 
			},
			{
				"x": -0.6120461603,
				"y": 0.8881340342,
				"z": -1.3635356896,
				"element": "C" 
			},
			{
				"x": -1.2535403795,
				"y": 0.4444618129,
				"z": -0.2839882582,
				"element": "N" 
			},
			{
				"x": -2.532603719,
				"y": 0.068932673,
				"z": -0.4591401455,
				"element": "C" 
			},
			{
				"x": -3.2513266484,
				"y": -0.3834008185,
				"z": 0.5728882303,
				"element": "O" 
			},
			{
				"x": -2.7453298489,
				"y": -0.4809705945,
				"z": 1.9353736504,
				"element": "C" 
			},
			{
				"x": -1.6319022869,
				"y": -1.5182805919,
				"z": 2.0670573321,
				"element": "C" 
			},
			{
				"x": -2.4117593847,
				"y": 0.8849613411,
				"z": 2.5317036396,
				"element": "C" 
			},
			{
				"x": -3.2156676641,
				"y": 0.0894008649,
				"z": -1.606041093,
				"element": "N" 
			},
			{
				"x": -2.5377050861,
				"y": 0.5409971925,
				"z": -2.6663118206,
				"element": "C" 
			},
			{
				"x": -1.2231338735,
				"y": 0.9658125615,
				"z": -2.6303360099,
				"element": "C" 
			},
			{
				"x": -3.3262078294,
				"y": 0.553353448,
				"z": -3.9640068878,
				"element": "C" 
			},
			{
				"x": -4.4232452173,
				"y": 1.3227104153,
				"z": -3.8601629763,
				"element": "F" 
			},
			{
				"x": -2.583753336,
				"y": 1.0334276112,
				"z": -4.9872167486,
				"element": "F" 
			},
			{
				"x": -3.7235795038,
				"y": -0.6882110912,
				"z": -4.2990504623,
				"element": "F" 
			},
			{
				"x": 2.373704392,
				"y": -2.9823402217,
				"z": -2.8892740674,
				"element": "H" 
			},
			{
				"x": 1.214595801,
				"y": -1.7064987058,
				"z": -3.3541626576,
				"element": "H" 
			},
			{
				"x": 0.8746089313,
				"y": -2.7379523772,
				"z": -1.9394883538,
				"element": "H" 
			},
			{
				"x": 2.7443914402,
				"y": -2.7288365999,
				"z": -0.3324436142,
				"element": "H" 
			},
			{
				"x": 4.0962893737,
				"y": -4.3547591925,
				"z": 2.8523350548,
				"element": "H" 
			},
			{
				"x": 5.5293249044,
				"y": -3.2768797081,
				"z": 2.8074650825,
				"element": "H" 
			},
			{
				"x": 4.1002320982,
				"y": -2.7997068955,
				"z": 3.7465253383,
				"element": "H" 
			},
			{
				"x": 5.944649469,
				"y": 0.2957722773,
				"z": -0.0621922971,
				"element": "H" 
			},
			{
				"x": 6.4877426163,
				"y": 2.6436077916,
				"z": -0.6052376146,
				"element": "H" 
			},
			{
				"x": 4.6502510886,
				"y": 4.3082680982,
				"z": -0.8880526635,
				"element": "H" 
			},
			{
				"x": 2.2969328291,
				"y": 3.5881281404,
				"z": -0.5988606896,
				"element": "H" 
			},
			{
				"x": 1.1977730062,
				"y": 0.1839483354,
				"z": 0.4137638935,
				"element": "H" 
			},
			{
				"x": 0.8465284673,
				"y": 1.8951932338,
				"z": 0.6884884032,
				"element": "H" 
			},
			{
				"x": -3.6320165711,
				"y": -0.8680850666,
				"z": 2.4473811069,
				"element": "H" 
			},
			{
				"x": -0.70404902,
				"y": -1.1720717505,
				"z": 1.6100369541,
				"element": "H" 
			},
			{
				"x": -1.9317661251,
				"y": -2.4593974986,
				"z": 1.5964514165,
				"element": "H" 
			},
			{
				"x": -1.4464272191,
				"y": -1.7144286805,
				"z": 3.1283200557,
				"element": "H" 
			},
			{
				"x": -3.2414818992,
				"y": 1.5806926191,
				"z": 2.3760791122,
				"element": "H" 
			},
			{
				"x": -2.2573685963,
				"y": 0.7778266438,
				"z": 3.6105306778,
				"element": "H" 
			},
			{
				"x": -1.5080090331,
				"y": 1.3068695317,
				"z": 2.0904382839,
				"element": "H" 
			},
			{
				"x": -0.6895452834,
				"y": 1.3336810876,
				"z": -3.4946204617,
				"element": "H" 
			}
		],
		 "valence_orbital": [ 
			{
				"type": "occ",
				"energy": -0.2683,
				"method": "rhf"
			},
			{
				"type": "occ",
				"energy": -0.26296,
				"method": "rhf"
			},
			{
				"type": "occ",
				"energy": -0.24816,
				"method": "rhf"
			},
			{
				"type": "occ",
				"energy": -0.24502,
				"method": "rhf"
			},
			{
				"type": "occ",
				"energy": -0.23037,
				"method": "rhf"
			},
			{
				"type": "unocc",
				"energy": -0.04104,
				"method": "rhf"
			},
			{
				"type": "unocc",
				"energy": -0.03795,
				"method": "rhf"
			},
			{
				"type": "unocc",
				"energy": -0.01348,
				"method": "rhf"
			},
			{
				"type": "unocc",
				"energy": -0.00878,
				"method": "rhf"
			},
			{
				"type": "unocc",
				"energy": -0.00235,
				"method": "rhf"
			}
		],
		"cosmo_sigma_profile": { 
			"-0.025": 0.0,
			"-0.024": 0.0,
			"-0.023": 0.0,
			"-0.022": 0.0,
			"-0.021": 0.0,
			"-0.02": 0.0,
			"-0.019": 0.0,
			"-0.018": 0.0,
			"-0.017": 0.0,
			"-0.016": 0.0,
			"-0.015": 0.0,
			"-0.014": 0.0,
			"-0.013": 0.0,
			"-0.012": 0.0,
			"-0.011": 0.0,
			"-0.01": 0.0,
			"-0.009": 0.196752810735,
			"-0.008": 2.89193425914,
			"-0.007": 6.71830362809,
			"-0.006": 21.1670755809,
			"-0.005": 30.1933303837,
			"-0.004": 45.2833440175,
			"-0.003": 46.8269950915,
			"-0.002": 43.9064706078,
			"-0.001": 41.8808597527,
			"0.0": 38.9434380098,
			"0.001": 30.7196840493,
			"0.002": 38.6223517921,
			"0.003": 30.9423837165,
			"0.004": 16.2118124636,
			"0.005": 16.187626273,
			"0.006": 8.9004382371,
			"0.007": 6.99446751368,
			"0.008": 5.90110630324,
			"0.009": 5.25249772969,
			"0.01": 4.82314355743,
			"0.011": 4.69994265478,
			"0.012": 6.45841832975,
			"0.013": 4.46325131199,
			"0.014": 1.03669161741,
			"0.015": 0.352235499489,
			"0.016": 0.0,
			"0.017": 0.0,
			"0.018": 0.0,
			"0.019": 0.0,
			"0.02": 0.0,
			"0.021": 0.0,
			"0.022": 0.0,
			"0.023": 0.0,
			"0.024": 0.0,
			"0.025": 0.0
		}
	}
}
