{
	 "smiles": "ClC(Cl)C(=O)NC1=CC2=NN(N=C2C=C1)C1CCCCC1", 
	 "Tm": 411.15, 
	 "num_atms": 37, 
	 "gaussian": { 
		 "optdone": 1, 
		 "sigma_profile": "yes", 
		 "theory": "DFT", 
		 "functional": "B3LYP", 
		 "basiset": "6-31G**", 
		 "properties": { 
			 "R2extent": 12064.1149, 
			 "electric_dipole_moment_norm": 6.68520859061, 
			 "electric_quadrupole_moment_norm": 24.2596075622, 
			 "total_energy": -1757.72928168, 
			 "HOMO_LUMO_gap": 0.17352, 
			 "cosmo_polarized_energy": -16.05, 
			 "cosmo_cavitation_energy": 43.01, 
			 "cosmo_dispersion_energy": -30.94, 
			 "cosmo_repulsion_energy": 2.4, 
			 "cosmo_total_nonelectrostatic_energy": 14.47, 
			 "SMD_solvation_energy": 4.22 
		},
		"coords": [
			{
				"x": -3.8273290939,
				"y": -4.0877852189,
				"z": 3.3156644183,
				"element": "Cl" 
			},
			{
				"x": -3.4070073387,
				"y": -2.4042638094,
				"z": 2.8814637379,
				"element": "C" 
			},
			{
				"x": -3.1482207746,
				"y": -1.3873660922,
				"z": 4.3477295651,
				"element": "Cl" 
			},
			{
				"x": -4.5417792244,
				"y": -1.7890504791,
				"z": 2.0357665094,
				"element": "C" 
			},
			{
				"x": -5.707044637,
				"y": -1.8635990361,
				"z": 2.3720556927,
				"element": "O" 
			},
			{
				"x": -4.1647163274,
				"y": -1.1858134084,
				"z": 0.8576575114,
				"element": "N" 
			},
			{
				"x": -2.8861072791,
				"y": -0.9124101993,
				"z": 0.2972697401,
				"element": "C" 
			},
			{
				"x": -1.8835725046,
				"y": -0.3065528839,
				"z": 1.0336714061,
				"element": "C" 
			},
			{
				"x": -0.6556250024,
				"y": -0.0806227921,
				"z": 0.3731293966,
				"element": "C" 
			},
			{
				"x": 0.4918469448,
				"y": 0.4727992753,
				"z": 0.8302352148,
				"element": "N" 
			},
			{
				"x": 1.2825246911,
				"y": 0.4384260841,
				"z": -0.2379924185,
				"element": "N" 
			},
			{
				"x": 0.7834597947,
				"y": -0.0701043837,
				"z": -1.3581470631,
				"element": "N" 
			},
			{
				"x": -0.4736890203,
				"y": -0.417364904,
				"z": -0.9983356693,
				"element": "C" 
			},
			{
				"x": -1.5195421948,
				"y": -1.007849481,
				"z": -1.7432208241,
				"element": "C" 
			},
			{
				"x": -2.7011269924,
				"y": -1.2531408754,
				"z": -1.0826678881,
				"element": "C" 
			},
			{
				"x": 2.6451778607,
				"y": 0.9989021479,
				"z": -0.1812120188,
				"element": "C" 
			},
			{
				"x": 3.6788790599,
				"y": -0.0602247507,
				"z": -0.6228271218,
				"element": "C" 
			},
			{
				"x": 4.9792853271,
				"y": 0.6200618131,
				"z": -1.070778589,
				"element": "C" 
			},
			{
				"x": 4.7567528049,
				"y": 1.4812814501,
				"z": -2.3384483973,
				"element": "C" 
			},
			{
				"x": 3.3176928122,
				"y": 2.044942813,
				"z": -2.4168180856,
				"element": "C" 
			},
			{
				"x": 2.7474480014,
				"y": 2.303189113,
				"z": -1.017262916,
				"element": "C" 
			},
			{
				"x": -2.4560820812,
				"y": -2.4406162337,
				"z": 2.3583215887,
				"element": "H" 
			},
			{
				"x": -4.9734936555,
				"y": -0.9065147322,
				"z": 0.3135900004,
				"element": "H" 
			},
			{
				"x": -2.0336690364,
				"y": 0.0034788334,
				"z": 2.0614683202,
				"element": "H" 
			},
			{
				"x": -1.3882816248,
				"y": -1.2657745932,
				"z": -2.7884173956,
				"element": "H" 
			},
			{
				"x": -3.5265528534,
				"y": -1.7290669903,
				"z": -1.6037469014,
				"element": "H" 
			},
			{
				"x": 2.7726923656,
				"y": 1.2354935069,
				"z": 0.8767032841,
				"element": "H" 
			},
			{
				"x": 3.2587263597,
				"y": -0.63612225,
				"z": -1.4536836323,
				"element": "H" 
			},
			{
				"x": 3.8563677921,
				"y": -0.7630379803,
				"z": 0.1978056912,
				"element": "H" 
			},
			{
				"x": 5.750875994,
				"y": -0.1348428855,
				"z": -1.2535840873,
				"element": "H" 
			},
			{
				"x": 5.3575869662,
				"y": 1.2453150027,
				"z": -0.2513975983,
				"element": "H" 
			},
			{
				"x": 4.9575666457,
				"y": 0.8824248507,
				"z": -3.2340958526,
				"element": "H" 
			},
			{
				"x": 5.4830106139,
				"y": 2.3023012748,
				"z": -2.348595647,
				"element": "H" 
			},
			{
				"x": 3.3032058778,
				"y": 2.9694074504,
				"z": -3.0039354544,
				"element": "H" 
			},
			{
				"x": 2.6606842275,
				"y": 1.3379823792,
				"z": -2.9348968309,
				"element": "H" 
			},
			{
				"x": 3.4013617026,
				"y": 2.9979195556,
				"z": -0.4762069338,
				"element": "H" 
			},
			{
				"x": 1.7636937992,
				"y": 2.7797984295,
				"z": -1.0673607517,
				"element": "H" 
			}
		],
		 "valence_orbital": [ 
			{
				"type": "occ",
				"energy": -0.30632,
				"method": "rhf"
			},
			{
				"type": "occ",
				"energy": -0.29641,
				"method": "rhf"
			},
			{
				"type": "occ",
				"energy": -0.27344,
				"method": "rhf"
			},
			{
				"type": "occ",
				"energy": -0.25602,
				"method": "rhf"
			},
			{
				"type": "occ",
				"energy": -0.23739,
				"method": "rhf"
			},
			{
				"type": "unocc",
				"energy": -0.06387,
				"method": "rhf"
			},
			{
				"type": "unocc",
				"energy": -0.03357,
				"method": "rhf"
			},
			{
				"type": "unocc",
				"energy": -0.01302,
				"method": "rhf"
			},
			{
				"type": "unocc",
				"energy": 0.00597,
				"method": "rhf"
			},
			{
				"type": "unocc",
				"energy": 0.01619,
				"method": "rhf"
			}
		],
		"cosmo_sigma_profile": { 
			"-0.025": 0.0,
			"-0.024": 0.0,
			"-0.023": 0.0,
			"-0.022": 0.0,
			"-0.021": 0.0,
			"-0.02": 0.0,
			"-0.019": 0.0,
			"-0.018": 0.0,
			"-0.017": 0.0,
			"-0.016": 0.436934913745,
			"-0.015": 1.13894400646,
			"-0.014": 1.12158635309,
			"-0.013": 0.731259588455,
			"-0.012": 1.32335341587,
			"-0.011": 1.60708218482,
			"-0.01": 2.55484146965,
			"-0.009": 2.33528395196,
			"-0.008": 3.7081820416,
			"-0.007": 7.04841391527,
			"-0.006": 9.74749390709,
			"-0.005": 11.7422833356,
			"-0.004": 18.9930601801,
			"-0.003": 28.2715023034,
			"-0.002": 35.1774641739,
			"-0.001": 42.1945840892,
			"0.0": 35.5507754304,
			"0.001": 30.9818879492,
			"0.002": 25.068453593,
			"0.003": 22.1556805408,
			"0.004": 19.9739116443,
			"0.005": 6.37687965845,
			"0.006": 6.67239543211,
			"0.007": 4.87847986227,
			"0.008": 2.73894451332,
			"0.009": 3.70094793185,
			"0.01": 5.09475858962,
			"0.011": 4.66079140685,
			"0.012": 6.40656880454,
			"0.013": 1.93299640371,
			"0.014": 0.295257176435,
			"0.015": 0.0,
			"0.016": 0.0,
			"0.017": 0.0,
			"0.018": 0.0,
			"0.019": 0.0,
			"0.02": 0.0,
			"0.021": 0.0,
			"0.022": 0.0,
			"0.023": 0.0,
			"0.024": 0.0,
			"0.025": 0.0
		}
	}
}
