{
	 "smiles": "O=C1CC2(CCCCC2)C(=O)N1", 
	 "Tm": 409.15, 
	 "num_atms": 25, 
	 "gaussian": { 
		 "optdone": 1, 
		 "sigma_profile": "yes", 
		 "theory": "DFT", 
		 "functional": "B3LYP", 
		 "basiset": "6-31G**", 
		 "properties": { 
			 "R2extent": 2368.9846, 
			 "electric_dipole_moment_norm": 2.03650696291, 
			 "electric_quadrupole_moment_norm": 12.5839504366, 
			 "total_energy": -556.032754454, 
			 "HOMO_LUMO_gap": 0.23467, 
			 "cosmo_polarized_energy": -12.03, 
			 "cosmo_cavitation_energy": 25.81, 
			 "cosmo_dispersion_energy": -19.28, 
			 "cosmo_repulsion_energy": 1.54, 
			 "cosmo_total_nonelectrostatic_energy": 8.07, 
			 "SMD_solvation_energy": 4.84 
		},
		"coords": [
			{
				"x": -4.3860035045,
				"y": -1.3962292046,
				"z": 0.4289178932,
				"element": "O" 
			},
			{
				"x": -3.3408882729,
				"y": -0.7842559424,
				"z": 0.4189514182,
				"element": "C" 
			},
			{
				"x": -2.606503627,
				"y": -0.1754760242,
				"z": -0.7699694107,
				"element": "C" 
			},
			{
				"x": -1.2079197604,
				"y": 0.2401951739,
				"z": -0.2493860296,
				"element": "C" 
			},
			{
				"x": -0.7312786148,
				"y": 1.6416975747,
				"z": -0.7442374791,
				"element": "C" 
			},
			{
				"x": 0.7577661792,
				"y": 1.6933298316,
				"z": -1.1403520422,
				"element": "C" 
			},
			{
				"x": 1.6280630275,
				"y": 0.9422943052,
				"z": -0.1261002547,
				"element": "C" 
			},
			{
				"x": 1.2571466475,
				"y": -0.5613602486,
				"z": -0.0711332077,
				"element": "C" 
			},
			{
				"x": -0.1560128572,
				"y": -0.8444553127,
				"z": -0.618867768,
				"element": "C" 
			},
			{
				"x": -1.3995971269,
				"y": 0.2144900265,
				"z": 1.2797708146,
				"element": "C" 
			},
			{
				"x": -0.6648585293,
				"y": 0.667509647,
				"z": 2.134012869,
				"element": "O" 
			},
			{
				"x": -2.5848332676,
				"y": -0.466070426,
				"z": 1.5453244128,
				"element": "N" 
			},
			{
				"x": -2.5785316512,
				"y": -0.8855474207,
				"z": -1.6007967305,
				"element": "H" 
			},
			{
				"x": -3.1900909569,
				"y": 0.6908523308,
				"z": -1.1036208897,
				"element": "H" 
			},
			{
				"x": -0.9122374269,
				"y": 2.3759245969,
				"z": 0.0485222354,
				"element": "H" 
			},
			{
				"x": -1.3453124385,
				"y": 1.9449805358,
				"z": -1.5997520647,
				"element": "H" 
			},
			{
				"x": 1.0704450574,
				"y": 2.7408141521,
				"z": -1.2158027094,
				"element": "H" 
			},
			{
				"x": 0.8955268804,
				"y": 1.2618360111,
				"z": -2.1407674425,
				"element": "H" 
			},
			{
				"x": 1.4702082395,
				"y": 1.3861508014,
				"z": 0.8617785321,
				"element": "H" 
			},
			{
				"x": 2.6892648451,
				"y": 1.0628395037,
				"z": -0.369364912,
				"element": "H" 
			},
			{
				"x": 1.9685992791,
				"y": -1.1527152635,
				"z": -0.6593251378,
				"element": "H" 
			},
			{
				"x": 1.3343896827,
				"y": -0.9181366698,
				"z": 0.9602181417,
				"element": "H" 
			},
			{
				"x": -0.1278454632,
				"y": -0.8885538085,
				"z": -1.7145348859,
				"element": "H" 
			},
			{
				"x": -0.5042120518,
				"y": -1.8295069319,
				"z": -0.2849921693,
				"element": "H" 
			},
			{
				"x": -2.8893842892,
				"y": -0.6795072376,
				"z": 2.4871068167,
				"element": "H" 
			}
		],
		 "valence_orbital": [ 
			{
				"type": "occ",
				"energy": -0.31203,
				"method": "rhf"
			},
			{
				"type": "occ",
				"energy": -0.30581,
				"method": "rhf"
			},
			{
				"type": "occ",
				"energy": -0.29146,
				"method": "rhf"
			},
			{
				"type": "occ",
				"energy": -0.27962,
				"method": "rhf"
			},
			{
				"type": "occ",
				"energy": -0.25687,
				"method": "rhf"
			},
			{
				"type": "unocc",
				"energy": -0.0222,
				"method": "rhf"
			},
			{
				"type": "unocc",
				"energy": 0.02685,
				"method": "rhf"
			},
			{
				"type": "unocc",
				"energy": 0.073,
				"method": "rhf"
			},
			{
				"type": "unocc",
				"energy": 0.08917,
				"method": "rhf"
			},
			{
				"type": "unocc",
				"energy": 0.10564,
				"method": "rhf"
			}
		],
		"cosmo_sigma_profile": { 
			"-0.025": 0.0,
			"-0.024": 0.0,
			"-0.023": 0.0,
			"-0.022": 0.0,
			"-0.021": 0.0,
			"-0.02": 0.0,
			"-0.019": 0.0,
			"-0.018": 0.0,
			"-0.017": 0.0495126059315,
			"-0.016": 0.974599427186,
			"-0.015": 1.22033755035,
			"-0.014": 0.910360103401,
			"-0.013": 1.30140104083,
			"-0.012": 0.567717828659,
			"-0.011": 0.511119862293,
			"-0.01": 0.93279078459,
			"-0.009": 0.822992323322,
			"-0.008": 0.921021915851,
			"-0.007": 4.19312435226,
			"-0.006": 7.16007676497,
			"-0.005": 10.0356861846,
			"-0.004": 13.7539585676,
			"-0.003": 19.6786464814,
			"-0.002": 26.0906689558,
			"-0.001": 23.395264194,
			"0.0": 22.329056525,
			"0.001": 16.2560346248,
			"0.002": 5.71585015038,
			"0.003": 3.78130305545,
			"0.004": 2.67679389713,
			"0.005": 2.47694529428,
			"0.006": 3.47500520119,
			"0.007": 3.26152398985,
			"0.008": 2.04772631924,
			"0.009": 3.77839346143,
			"0.01": 3.53783909384,
			"0.011": 6.05981046337,
			"0.012": 9.36218439847,
			"0.013": 3.17038689836,
			"0.014": 0.0327635520772,
			"0.015": 0.0,
			"0.016": 0.0,
			"0.017": 0.0,
			"0.018": 0.0,
			"0.019": 0.0,
			"0.02": 0.0,
			"0.021": 0.0,
			"0.022": 0.0,
			"0.023": 0.0,
			"0.024": 0.0,
			"0.025": 0.0
		}
	}
}
