{
	 "smiles": "O=C(ON1C(=O)CCC1=O)ON1C(=O)CCC1=O", 
	 "Tm": 463.15, 
	 "num_atms": 26, 
	 "gaussian": { 
		 "optdone": 1, 
		 "sigma_profile": "yes", 
		 "theory": "DFT", 
		 "functional": "B3LYP", 
		 "basiset": "6-31G**", 
		 "properties": { 
			 "R2extent": 5031.2187, 
			 "electric_dipole_moment_norm": 2.54427598346, 
			 "electric_quadrupole_moment_norm": 35.9738671585, 
			 "total_energy": -983.780219685, 
			 "HOMO_LUMO_gap": 0.23962, 
			 "cosmo_polarized_energy": -24.59, 
			 "cosmo_cavitation_energy": 33.43, 
			 "cosmo_dispersion_energy": -23.02, 
			 "cosmo_repulsion_energy": 1.84, 
			 "cosmo_total_nonelectrostatic_energy": 12.25, 
			 "SMD_solvation_energy": 11.2 
		},
		"coords": [
			{
				"x": -0.9785845852,
				"y": -0.0863603404,
				"z": -0.2519205016,
				"element": "O" 
			},
			{
				"x": 0.1646259245,
				"y": 0.0313696374,
				"z": 0.0621597289,
				"element": "C" 
			},
			{
				"x": 1.2636189852,
				"y": -0.552361551,
				"z": -0.5111190229,
				"element": "O" 
			},
			{
				"x": 0.9156163302,
				"y": -1.3578472976,
				"z": -1.5736171185,
				"element": "N" 
			},
			{
				"x": 0.5915196795,
				"y": -2.7098254349,
				"z": -1.3874246735,
				"element": "C" 
			},
			{
				"x": 0.5686607314,
				"y": -3.2786648181,
				"z": -0.3257275812,
				"element": "O" 
			},
			{
				"x": 0.2952533003,
				"y": -3.2418366897,
				"z": -2.7852781749,
				"element": "C" 
			},
			{
				"x": 0.4358273159,
				"y": -2.0383414634,
				"z": -3.7436709517,
				"element": "C" 
			},
			{
				"x": 0.8091174079,
				"y": -0.8428629592,
				"z": -2.8740083045,
				"element": "C" 
			},
			{
				"x": 0.9861515104,
				"y": 0.3083374522,
				"z": -3.1817350283,
				"element": "O" 
			},
			{
				"x": 0.6886818613,
				"y": 0.7822079181,
				"z": 1.0813615625,
				"element": "O" 
			},
			{
				"x": -0.2944516525,
				"y": 1.4505559053,
				"z": 1.7782258035,
				"element": "N" 
			},
			{
				"x": -0.7296064874,
				"y": 2.7242650652,
				"z": 1.3834047268,
				"element": "C" 
			},
			{
				"x": -0.3200537298,
				"y": 3.3327693655,
				"z": 0.4277436203,
				"element": "O" 
			},
			{
				"x": -1.7870605365,
				"y": 3.1167499139,
				"z": 2.4093298665,
				"element": "C" 
			},
			{
				"x": -1.9256518353,
				"y": 1.9132708187,
				"z": 3.3680390112,
				"element": "C" 
			},
			{
				"x": -0.9445611254,
				"y": 0.8574443905,
				"z": 2.8705545174,
				"element": "C" 
			},
			{
				"x": -0.732620214,
				"y": -0.2535952917,
				"z": 3.2852464921,
				"element": "O" 
			},
			{
				"x": -0.709118415,
				"y": -3.6732878593,
				"z": -2.7816900452,
				"element": "H" 
			},
			{
				"x": 0.9953915874,
				"y": -4.0524024721,
				"z": -3.0053914186,
				"element": "H" 
			},
			{
				"x": 1.2148302845,
				"y": -2.1769575851,
				"z": -4.4983907783,
				"element": "H" 
			},
			{
				"x": -0.4901507806,
				"y": -1.8005546949,
				"z": -4.273713663,
				"element": "H" 
			},
			{
				"x": -2.7121658421,
				"y": 3.34988737,
				"z": 1.8757075259,
				"element": "H" 
			},
			{
				"x": -1.4627560115,
				"y": 4.0325578505,
				"z": 2.9111131372,
				"element": "H" 
			},
			{
				"x": -1.6788980118,
				"y": 2.1573780733,
				"z": 4.4049512423,
				"element": "H" 
			},
			{
				"x": -2.9278156915,
				"y": 1.4767046967,
				"z": 3.3676500276,
				"element": "H" 
			}
		],
		 "valence_orbital": [ 
			{
				"type": "occ",
				"energy": -0.30441,
				"method": "rhf"
			},
			{
				"type": "occ",
				"energy": -0.30197,
				"method": "rhf"
			},
			{
				"type": "occ",
				"energy": -0.2972,
				"method": "rhf"
			},
			{
				"type": "occ",
				"energy": -0.27504,
				"method": "rhf"
			},
			{
				"type": "occ",
				"energy": -0.27357,
				"method": "rhf"
			},
			{
				"type": "unocc",
				"energy": -0.03395,
				"method": "rhf"
			},
			{
				"type": "unocc",
				"energy": -0.0337,
				"method": "rhf"
			},
			{
				"type": "unocc",
				"energy": 0.00138,
				"method": "rhf"
			},
			{
				"type": "unocc",
				"energy": 0.00493,
				"method": "rhf"
			},
			{
				"type": "unocc",
				"energy": 0.01407,
				"method": "rhf"
			}
		],
		"cosmo_sigma_profile": { 
			"-0.025": 0.0,
			"-0.024": 0.0,
			"-0.023": 0.0,
			"-0.022": 0.0,
			"-0.021": 0.0,
			"-0.02": 0.0,
			"-0.019": 0.0,
			"-0.018": 0.0,
			"-0.017": 0.0,
			"-0.016": 0.0,
			"-0.015": 0.0,
			"-0.014": 0.0,
			"-0.013": 0.0,
			"-0.012": 0.0,
			"-0.011": 0.0,
			"-0.01": 0.662240064698,
			"-0.009": 5.80639950257,
			"-0.008": 33.3136968344,
			"-0.007": 22.4569272523,
			"-0.006": 15.4557424391,
			"-0.005": 14.6437619569,
			"-0.004": 15.3551977574,
			"-0.003": 9.83447370246,
			"-0.002": 7.47059585447,
			"-0.001": 9.20393034169,
			"0.0": 11.3386402073,
			"0.001": 12.4832442787,
			"0.002": 10.4564341333,
			"0.003": 12.0320049301,
			"0.004": 12.8679836654,
			"0.005": 7.55993813175,
			"0.006": 5.30061912284,
			"0.007": 8.68622058566,
			"0.008": 10.2507240328,
			"0.009": 9.80244125026,
			"0.01": 18.2909703077,
			"0.011": 12.5759308,
			"0.012": 1.36680318118,
			"0.013": 0.0,
			"0.014": 0.0,
			"0.015": 0.0,
			"0.016": 0.0,
			"0.017": 0.0,
			"0.018": 0.0,
			"0.019": 0.0,
			"0.02": 0.0,
			"0.021": 0.0,
			"0.022": 0.0,
			"0.023": 0.0,
			"0.024": 0.0,
			"0.025": 0.0
		}
	}
}
