{
	 "smiles": "O=C(N1CCC2=CC3=C(CCN3C(=O)C3=CC=CC=C3)C=C12)C1=CC=CC=C1", 
	 "Tm": 567.15, 
	 "num_atms": 48, 
	 "gaussian": { 
		 "optdone": 1, 
		 "sigma_profile": "yes", 
		 "theory": "DFT", 
		 "functional": "B3LYP", 
		 "basiset": "6-31G**", 
		 "properties": { 
			 "R2extent": 13139.7648, 
			 "electric_dipole_moment_norm": 0.00106301458127, 
			 "electric_quadrupole_moment_norm": 38.6946488534, 
			 "total_energy": -1186.58978561, 
			 "HOMO_LUMO_gap": 0.1478, 
			 "cosmo_polarized_energy": -17.65, 
			 "cosmo_cavitation_energy": 50.53, 
			 "cosmo_dispersion_energy": -34.76, 
			 "cosmo_repulsion_energy": 2.63, 
			 "cosmo_total_nonelectrostatic_energy": 18.39, 
			 "SMD_solvation_energy": 8.04 
		},
		"coords": [
			{
				"x": 2.1520568714,
				"y": -3.3944832357,
				"z": 2.1520052922,
				"element": "O" 
			},
			{
				"x": 1.6163673784,
				"y": -2.288325723,
				"z": 2.1209832664,
				"element": "C" 
			},
			{
				"x": 0.7334340113,
				"y": -1.9777025104,
				"z": 1.1043567915,
				"element": "N" 
			},
			{
				"x": 0.3187190201,
				"y": -3.0676438073,
				"z": 0.1922697592,
				"element": "C" 
			},
			{
				"x": -0.8450928787,
				"y": -2.4526579945,
				"z": -0.6099778452,
				"element": "C" 
			},
			{
				"x": -0.5661752962,
				"y": -0.9693462243,
				"z": -0.5090460704,
				"element": "C" 
			},
			{
				"x": -1.0975260544,
				"y": 0.0707599304,
				"z": -1.2651212921,
				"element": "C" 
			},
			{
				"x": -0.6635617331,
				"y": 1.369500082,
				"z": -0.9770212626,
				"element": "C" 
			},
			{
				"x": 0.2541582055,
				"y": 1.6021375456,
				"z": 0.0607552775,
				"element": "C" 
			},
			{
				"x": 0.53304083,
				"y": 3.0854521003,
				"z": 0.1617227095,
				"element": "C" 
			},
			{
				"x": -0.6307681564,
				"y": 3.7004255578,
				"z": -0.6405367924,
				"element": "C" 
			},
			{
				"x": -1.045422103,
				"y": 2.6105004891,
				"z": -1.5526705945,
				"element": "N" 
			},
			{
				"x": -1.9283330139,
				"y": 2.9211485087,
				"z": -2.56931327,
				"element": "C" 
			},
			{
				"x": -2.4645822551,
				"y": 4.0270464978,
				"z": -2.5999189253,
				"element": "O" 
			},
			{
				"x": -2.1547868337,
				"y": 1.9368997263,
				"z": -3.6786448823,
				"element": "C" 
			},
			{
				"x": -1.1076046803,
				"y": 1.2036562086,
				"z": -4.2544859734,
				"element": "C" 
			},
			{
				"x": -1.3479399898,
				"y": 0.3896394777,
				"z": -5.3615253251,
				"element": "C" 
			},
			{
				"x": -2.6355038256,
				"y": 0.2937901871,
				"z": -5.8942722822,
				"element": "C" 
			},
			{
				"x": -3.6804771426,
				"y": 1.0298393858,
				"z": -5.3294669942,
				"element": "C" 
			},
			{
				"x": -3.4379518352,
				"y": 1.860243055,
				"z": -4.2369571117,
				"element": "C" 
			},
			{
				"x": 0.7855148851,
				"y": 0.5620314936,
				"z": 0.8168268307,
				"element": "C" 
			},
			{
				"x": 0.3515619622,
				"y": -0.7367074307,
				"z": 0.5287135314,
				"element": "C" 
			},
			{
				"x": 1.8425322537,
				"y": -1.3041367385,
				"z": 3.2304199527,
				"element": "C" 
			},
			{
				"x": 0.7952576364,
				"y": -0.5705957073,
				"z": 3.8057129201,
				"element": "C" 
			},
			{
				"x": 1.0352649202,
				"y": 0.2434240814,
				"z": 4.9128208482,
				"element": "C" 
			},
			{
				"x": 2.3225973615,
				"y": 0.3389744925,
				"z": 5.4461804466,
				"element": "C" 
			},
			{
				"x": 3.3676608267,
				"y": -0.3973575222,
				"z": 4.8819079376,
				"element": "C" 
			},
			{
				"x": 3.1254548426,
				"y": -1.2277600392,
				"z": 3.7893264467,
				"element": "C" 
			},
			{
				"x": 1.1586450773,
				"y": -3.3406445071,
				"z": -0.4580771463,
				"element": "H" 
			},
			{
				"x": 0.0496573499,
				"y": -3.9496427217,
				"z": 0.7740568748,
				"element": "H" 
			},
			{
				"x": -0.8722528068,
				"y": -2.8167819884,
				"z": -1.6407882192,
				"element": "H" 
			},
			{
				"x": -1.8118798419,
				"y": -2.6986193004,
				"z": -0.1507582435,
				"element": "H" 
			},
			{
				"x": -1.8176539137,
				"y": -0.1326585245,
				"z": -2.0469316702,
				"element": "H" 
			},
			{
				"x": 0.5601698386,
				"y": 3.4495554597,
				"z": 1.1925412158,
				"element": "H" 
			},
			{
				"x": 1.4998317312,
				"y": 3.3314451018,
				"z": -0.2974709468,
				"element": "H" 
			},
			{
				"x": -0.3617150311,
				"y": 4.5824446313,
				"z": -1.2222962473,
				"element": "H" 
			},
			{
				"x": -1.4707195694,
				"y": 3.9733881778,
				"z": 0.0097932387,
				"element": "H" 
			},
			{
				"x": -0.1063186063,
				"y": 1.2794322088,
				"z": -3.842510111,
				"element": "H" 
			},
			{
				"x": -0.5296430554,
				"y": -0.1658146503,
				"z": -5.8105787906,
				"element": "H" 
			},
			{
				"x": -2.8221819614,
				"y": -0.3454813465,
				"z": -6.7524884904,
				"element": "H" 
			},
			{
				"x": -4.6806325231,
				"y": 0.964782947,
				"z": -5.7479162813,
				"element": "H" 
			},
			{
				"x": -4.230190684,
				"y": 2.4655445052,
				"z": -3.8088214565,
				"element": "H" 
			},
			{
				"x": 1.5056287341,
				"y": 0.765447915,
				"z": 1.5986521746,
				"element": "H" 
			},
			{
				"x": -0.2058442078,
				"y": -0.6461255236,
				"z": 3.3932395367,
				"element": "H" 
			},
			{
				"x": 0.2168946678,
				"y": 0.7991165244,
				"z": 5.3614457174,
				"element": "H" 
			},
			{
				"x": 2.5090250895,
				"y": 0.9782469494,
				"z": 6.3044502428,
				"element": "H" 
			},
			{
				"x": 4.3676341152,
				"y": -0.3325189436,
				"z": 5.3008257511,
				"element": "H" 
			},
			{
				"x": 3.9177503902,
				"y": -1.8332688008,
				"z": 3.3615894626,
				"element": "H" 
			}
		],
		 "valence_orbital": [ 
			{
				"type": "occ",
				"energy": -0.25701,
				"method": "rhf"
			},
			{
				"type": "occ",
				"energy": -0.24904,
				"method": "rhf"
			},
			{
				"type": "occ",
				"energy": -0.24599,
				"method": "rhf"
			},
			{
				"type": "occ",
				"energy": -0.24483,
				"method": "rhf"
			},
			{
				"type": "occ",
				"energy": -0.19275,
				"method": "rhf"
			},
			{
				"type": "unocc",
				"energy": -0.04495,
				"method": "rhf"
			},
			{
				"type": "unocc",
				"energy": -0.03422,
				"method": "rhf"
			},
			{
				"type": "unocc",
				"energy": -0.01841,
				"method": "rhf"
			},
			{
				"type": "unocc",
				"energy": -0.00854,
				"method": "rhf"
			},
			{
				"type": "unocc",
				"energy": -0.00168,
				"method": "rhf"
			}
		],
		"cosmo_sigma_profile": { 
			"-0.025": 0.0,
			"-0.024": 0.0,
			"-0.023": 0.0,
			"-0.022": 0.0,
			"-0.021": 0.0,
			"-0.02": 0.0,
			"-0.019": 0.0,
			"-0.018": 0.0,
			"-0.017": 0.0,
			"-0.016": 0.0,
			"-0.015": 0.0,
			"-0.014": 0.0,
			"-0.013": 0.0,
			"-0.012": 0.0,
			"-0.011": 0.0,
			"-0.01": 0.0,
			"-0.009": 0.0,
			"-0.008": 0.0,
			"-0.007": 1.26538941511,
			"-0.006": 16.4696376839,
			"-0.005": 36.8611976533,
			"-0.004": 49.4761748729,
			"-0.003": 43.6832832288,
			"-0.002": 41.5037319239,
			"-0.001": 34.2230052391,
			"0.0": 25.569847752,
			"0.001": 23.8449762762,
			"0.002": 25.384757687,
			"0.003": 23.8531353548,
			"0.004": 29.9687415479,
			"0.005": 13.4940550123,
			"0.006": 3.34789204832,
			"0.007": 2.84646037158,
			"0.008": 2.34092372904,
			"0.009": 3.1758809222,
			"0.01": 4.08088367357,
			"0.011": 3.04780311553,
			"0.012": 4.62600029728,
			"0.013": 9.33337495712,
			"0.014": 4.72558825717,
			"0.015": 0.0944420050504,
			"0.016": 0.0,
			"0.017": 0.0,
			"0.018": 0.0,
			"0.019": 0.0,
			"0.02": 0.0,
			"0.021": 0.0,
			"0.022": 0.0,
			"0.023": 0.0,
			"0.024": 0.0,
			"0.025": 0.0
		}
	}
}
