{
	 "smiles": "FC(F)=C(F)C(F)=C(F)F", 
	 "Tm": 141.15, 
	 "num_atms": 10, 
	 "gaussian": { 
		 "optdone": 1, 
		 "sigma_profile": "yes", 
		 "theory": "DFT", 
		 "functional": "B3LYP", 
		 "basiset": "6-31G**", 
		 "properties": { 
			 "R2extent": 1437.4022, 
			 "electric_dipole_moment_norm": 0.863650392231, 
			 "electric_quadrupole_moment_norm": 2.11425200012, 
			 "total_energy": -751.35074636, 
			 "HOMO_LUMO_gap": 0.21436, 
			 "cosmo_polarized_energy": -1.69, 
			 "cosmo_cavitation_energy": 18.65, 
			 "cosmo_dispersion_energy": -12.55, 
			 "cosmo_repulsion_energy": 0.93, 
			 "cosmo_total_nonelectrostatic_energy": 7.03, 
			 "SMD_solvation_energy": 6.94 
		},
		"coords": [
			{
				"x": 0.298566221,
				"y": 0.5067188092,
				"z": 3.1320505639,
				"element": "F" 
			},
			{
				"x": 0.360337116,
				"y": -0.0392720854,
				"z": 1.9345900382,
				"element": "C" 
			},
			{
				"x": 1.1696756903,
				"y": -1.0831126405,
				"z": 1.8950665669,
				"element": "F" 
			},
			{
				"x": -0.2963051252,
				"y": 0.4263203937,
				"z": 0.8685568996,
				"element": "C" 
			},
			{
				"x": -1.1367816827,
				"y": 1.4706983129,
				"z": 1.0364267836,
				"element": "F" 
			},
			{
				"x": -0.2003578687,
				"y": -0.1080129736,
				"z": -0.476488064,
				"element": "C" 
			},
			{
				"x": -1.368139787,
				"y": -0.2834666233,
				"z": -1.132832405,
				"element": "F" 
			},
			{
				"x": 0.936050362,
				"y": -0.4179915962,
				"z": -1.1064765278,
				"element": "C" 
			},
			{
				"x": 0.987035545,
				"y": -0.9589613525,
				"z": -2.3067182406,
				"element": "F" 
			},
			{
				"x": 2.1347195294,
				"y": -0.2430202443,
				"z": -0.5784756149,
				"element": "F" 
			}
		],
		 "valence_orbital": [ 
			{
				"type": "occ",
				"energy": -0.44742,
				"method": "rhf"
			},
			{
				"type": "occ",
				"energy": -0.42627,
				"method": "rhf"
			},
			{
				"type": "occ",
				"energy": -0.39508,
				"method": "rhf"
			},
			{
				"type": "occ",
				"energy": -0.2976,
				"method": "rhf"
			},
			{
				"type": "occ",
				"energy": -0.24706,
				"method": "rhf"
			},
			{
				"type": "unocc",
				"energy": -0.0327,
				"method": "rhf"
			},
			{
				"type": "unocc",
				"energy": 0.01566,
				"method": "rhf"
			},
			{
				"type": "unocc",
				"energy": 0.08907,
				"method": "rhf"
			},
			{
				"type": "unocc",
				"energy": 0.10842,
				"method": "rhf"
			},
			{
				"type": "unocc",
				"energy": 0.12672,
				"method": "rhf"
			}
		],
		"cosmo_sigma_profile": { 
			"-0.025": 0.0,
			"-0.024": 0.0,
			"-0.023": 0.0,
			"-0.022": 0.0,
			"-0.021": 0.0,
			"-0.02": 0.0,
			"-0.019": 0.0,
			"-0.018": 0.0,
			"-0.017": 0.0,
			"-0.016": 0.0,
			"-0.015": 0.0,
			"-0.014": 0.0,
			"-0.013": 0.0,
			"-0.012": 0.0,
			"-0.011": 0.0,
			"-0.01": 0.0,
			"-0.009": 0.0,
			"-0.008": 0.0,
			"-0.007": 0.0,
			"-0.006": 0.314470098822,
			"-0.005": 5.43624141936,
			"-0.004": 12.1337987671,
			"-0.003": 12.7752800505,
			"-0.002": 10.8094347334,
			"-0.001": 11.4917319992,
			"0.0": 17.6680967839,
			"0.001": 39.832715938,
			"0.002": 18.6657649836,
			"0.003": 20.3844718925,
			"0.004": 2.3915124956,
			"0.005": 0.0,
			"0.006": 0.0,
			"0.007": 0.0,
			"0.008": 0.0,
			"0.009": 0.0,
			"0.01": 0.0,
			"0.011": 0.0,
			"0.012": 0.0,
			"0.013": 0.0,
			"0.014": 0.0,
			"0.015": 0.0,
			"0.016": 0.0,
			"0.017": 0.0,
			"0.018": 0.0,
			"0.019": 0.0,
			"0.02": 0.0,
			"0.021": 0.0,
			"0.022": 0.0,
			"0.023": 0.0,
			"0.024": 0.0,
			"0.025": 0.0
		}
	}
}
