{
	 "smiles": "CCOCN(C(=O)CCl)C1=C(C)C=CC=C1CC", 
	 "Tm": 283.75, 
	 "num_atms": 38, 
	 "gaussian": { 
		 "optdone": 1, 
		 "sigma_profile": "yes", 
		 "theory": "DFT", 
		 "functional": "B3LYP", 
		 "basiset": "6-31G**", 
		 "properties": { 
			 "R2extent": 6383.8056, 
			 "electric_dipole_moment_norm": 5.12961285381, 
			 "electric_quadrupole_moment_norm": 21.1704597321, 
			 "total_energy": -1210.94914891, 
			 "HOMO_LUMO_gap": 0.22814, 
			 "cosmo_polarized_energy": -14.22, 
			 "cosmo_cavitation_energy": 41.01, 
			 "cosmo_dispersion_energy": -27.37, 
			 "cosmo_repulsion_energy": 2.18, 
			 "cosmo_total_nonelectrostatic_energy": 15.82, 
			 "SMD_solvation_energy": 7.9 
		},
		"coords": [
			{
				"x": -3.0964254309,
				"y": -1.0753413998,
				"z": -1.8733673105,
				"element": "C" 
			},
			{
				"x": -2.4480462779,
				"y": -1.3093722855,
				"z": -0.5195374704,
				"element": "C" 
			},
			{
				"x": -1.0844571287,
				"y": -0.9151278898,
				"z": -0.6006330806,
				"element": "O" 
			},
			{
				"x": -0.3847455722,
				"y": -1.1206201718,
				"z": 0.6132825252,
				"element": "C" 
			},
			{
				"x": 1.0185147465,
				"y": -0.8102477091,
				"z": 0.4443472401,
				"element": "N" 
			},
			{
				"x": 1.8670195956,
				"y": -1.8527479036,
				"z": 0.0917374762,
				"element": "C" 
			},
			{
				"x": 1.470337964,
				"y": -2.9874478293,
				"z": -0.0907808673,
				"element": "O" 
			},
			{
				"x": 3.3492039385,
				"y": -1.4546189134,
				"z": 0.0021300553,
				"element": "C" 
			},
			{
				"x": 4.3974986317,
				"y": -2.84026765,
				"z": -0.4327213485,
				"element": "Cl" 
			},
			{
				"x": 1.4690825672,
				"y": 0.5501716836,
				"z": 0.6289408551,
				"element": "C" 
			},
			{
				"x": 1.5670720738,
				"y": 1.4044684713,
				"z": -0.4927307133,
				"element": "C" 
			},
			{
				"x": 1.2299443199,
				"y": 0.9293613985,
				"z": -1.8867615715,
				"element": "C" 
			},
			{
				"x": 2.0006074245,
				"y": 2.7185713803,
				"z": -0.2874550815,
				"element": "C" 
			},
			{
				"x": 2.3296630707,
				"y": 3.1790654663,
				"z": 0.9865372539,
				"element": "C" 
			},
			{
				"x": 2.2269875187,
				"y": 2.3255397271,
				"z": 2.0796479821,
				"element": "C" 
			},
			{
				"x": 1.7932395495,
				"y": 1.0012884775,
				"z": 1.9255867425,
				"element": "C" 
			},
			{
				"x": 1.6894868261,
				"y": 0.1181586423,
				"z": 3.1552996816,
				"element": "C" 
			},
			{
				"x": 0.5198878764,
				"y": 0.4962082706,
				"z": 4.0831351894,
				"element": "C" 
			},
			{
				"x": -2.5869497293,
				"y": -1.657676205,
				"z": -2.6461791328,
				"element": "H" 
			},
			{
				"x": -3.0450544724,
				"y": -0.0176183324,
				"z": -2.1478162122,
				"element": "H" 
			},
			{
				"x": -4.1485005459,
				"y": -1.375832927,
				"z": -1.848381475,
				"element": "H" 
			},
			{
				"x": -2.9661474489,
				"y": -0.7294858644,
				"z": 0.2633396964,
				"element": "H" 
			},
			{
				"x": -2.5151432299,
				"y": -2.3722218851,
				"z": -0.2359313717,
				"element": "H" 
			},
			{
				"x": -0.4647775532,
				"y": -2.1689160467,
				"z": 0.9241520345,
				"element": "H" 
			},
			{
				"x": -0.7921838481,
				"y": -0.4664968494,
				"z": 1.3972929412,
				"element": "H" 
			},
			{
				"x": 3.4996543899,
				"y": -0.6774377726,
				"z": -0.7476891375,
				"element": "H" 
			},
			{
				"x": 3.6949279274,
				"y": -1.0644846664,
				"z": 0.9610396679,
				"element": "H" 
			},
			{
				"x": 1.9885337818,
				"y": 0.2382389668,
				"z": -2.2758528744,
				"element": "H" 
			},
			{
				"x": 0.2769894923,
				"y": 0.3976178024,
				"z": -1.902974345,
				"element": "H" 
			},
			{
				"x": 1.1813546565,
				"y": 1.7765643426,
				"z": -2.5757527516,
				"element": "H" 
			},
			{
				"x": 2.0798662776,
				"y": 3.3858265872,
				"z": -1.141303615,
				"element": "H" 
			},
			{
				"x": 2.6683560129,
				"y": 4.2020156038,
				"z": 1.1240503501,
				"element": "H" 
			},
			{
				"x": 2.4904863491,
				"y": 2.6821664689,
				"z": 3.0722104326,
				"element": "H" 
			},
			{
				"x": 2.6250734641,
				"y": 0.1990886786,
				"z": 3.7227501134,
				"element": "H" 
			},
			{
				"x": 1.5939932627,
				"y": -0.9304848438,
				"z": 2.8617432826,
				"element": "H" 
			},
			{
				"x": -0.4436538292,
				"y": 0.397751881,
				"z": 3.5730276046,
				"element": "H" 
			},
			{
				"x": 0.502497456,
				"y": -0.1520910849,
				"z": 4.9649800643,
				"element": "H" 
			},
			{
				"x": 0.6051058934,
				"y": 1.5318343813,
				"z": 4.4269371699,
				"element": "H" 
			}
		],
		 "valence_orbital": [ 
			{
				"type": "occ",
				"energy": -0.27336,
				"method": "rhf"
			},
			{
				"type": "occ",
				"energy": -0.26378,
				"method": "rhf"
			},
			{
				"type": "occ",
				"energy": -0.26031,
				"method": "rhf"
			},
			{
				"type": "occ",
				"energy": -0.2493,
				"method": "rhf"
			},
			{
				"type": "occ",
				"energy": -0.24771,
				"method": "rhf"
			},
			{
				"type": "unocc",
				"energy": -0.01957,
				"method": "rhf"
			},
			{
				"type": "unocc",
				"energy": -0.013,
				"method": "rhf"
			},
			{
				"type": "unocc",
				"energy": 0.0132,
				"method": "rhf"
			},
			{
				"type": "unocc",
				"energy": 0.03412,
				"method": "rhf"
			},
			{
				"type": "unocc",
				"energy": 0.07425,
				"method": "rhf"
			}
		],
		"cosmo_sigma_profile": { 
			"-0.025": 0.0,
			"-0.024": 0.0,
			"-0.023": 0.0,
			"-0.022": 0.0,
			"-0.021": 0.0,
			"-0.02": 0.0,
			"-0.019": 0.0,
			"-0.018": 0.0,
			"-0.017": 0.0,
			"-0.016": 0.0,
			"-0.015": 0.0,
			"-0.014": 0.0,
			"-0.013": 0.0,
			"-0.012": 0.0,
			"-0.011": 0.0,
			"-0.01": 0.0,
			"-0.009": 0.497777410813,
			"-0.008": 3.03694793986,
			"-0.007": 5.0787936688,
			"-0.006": 8.96834269556,
			"-0.005": 19.5085707858,
			"-0.004": 35.4401657266,
			"-0.003": 37.5959039521,
			"-0.002": 32.5877800882,
			"-0.001": 29.3487957818,
			"0.0": 31.0310882838,
			"0.001": 26.392748226,
			"0.002": 13.6894632753,
			"0.003": 13.241974454,
			"0.004": 15.6838329644,
			"0.005": 14.7396025757,
			"0.006": 11.3507310254,
			"0.007": 4.5130771357,
			"0.008": 3.03726118712,
			"0.009": 3.22667677164,
			"0.01": 3.18412641145,
			"0.011": 2.94514168987,
			"0.012": 4.55666396023,
			"0.013": 3.52120213526,
			"0.014": 1.09352855041,
			"0.015": 0.0,
			"0.016": 0.0,
			"0.017": 0.0,
			"0.018": 0.0,
			"0.019": 0.0,
			"0.02": 0.0,
			"0.021": 0.0,
			"0.022": 0.0,
			"0.023": 0.0,
			"0.024": 0.0,
			"0.025": 0.0
		}
	}
}
