{
	 "smiles": "CCCCCCCCCCCCCC(=O)OCC(COC(=O)CCCCCCCCCCCCC)OC(=O)CCCCCCCCCCCCC", 
	 "Tm": 329.65, 
	 "num_atms": 137, 
	 "gaussian": { 
		 "optdone": 1, 
		 "sigma_profile": "yes", 
		 "theory": "DFT", 
		 "functional": "B3LYP", 
		 "basiset": "6-31G**", 
		 "properties": { 
			 "R2extent": 66131.5386, 
			 "electric_dipole_moment_norm": 4.24539272742, 
			 "electric_quadrupole_moment_norm": 33.7391565507, 
			 "total_energy": -2218.11403501, 
			 "HOMO_LUMO_gap": 0.27576, 
			 "cosmo_polarized_energy": -17.93, 
			 "cosmo_cavitation_energy": 130.85, 
			 "cosmo_dispersion_energy": -74.16, 
			 "cosmo_repulsion_energy": 5.89, 
			 "cosmo_total_nonelectrostatic_energy": 62.57, 
			 "SMD_solvation_energy": 18.65 
		},
		"coords": [
			{
				"x": 1.4529137266,
				"y": 4.8951275824,
				"z": 9.5549091232,
				"element": "C" 
			},
			{
				"x": 0.4909705158,
				"y": 6.0881207854,
				"z": 9.4700817626,
				"element": "C" 
			},
			{
				"x": -0.2947742563,
				"y": 6.2056118351,
				"z": 8.1445541602,
				"element": "C" 
			},
			{
				"x": -1.6685163603,
				"y": 5.5106661423,
				"z": 8.1016978933,
				"element": "C" 
			},
			{
				"x": -1.6574255231,
				"y": 3.983581412,
				"z": 8.2585768658,
				"element": "C" 
			},
			{
				"x": -3.0449497533,
				"y": 3.3257729423,
				"z": 8.1444852496,
				"element": "C" 
			},
			{
				"x": -3.7798644748,
				"y": 3.4272553985,
				"z": 6.7929198859,
				"element": "C" 
			},
			{
				"x": -3.1148569158,
				"y": 2.7049907156,
				"z": 5.60044867,
				"element": "C" 
			},
			{
				"x": -2.1310962217,
				"y": 3.5506530551,
				"z": 4.7766790173,
				"element": "C" 
			},
			{
				"x": -1.5363501533,
				"y": 2.7925049741,
				"z": 3.5820697431,
				"element": "C" 
			},
			{
				"x": -0.5609207466,
				"y": 3.6416723217,
				"z": 2.7548030116,
				"element": "C" 
			},
			{
				"x": 0.0036893306,
				"y": 2.9440671446,
				"z": 1.5053772701,
				"element": "C" 
			},
			{
				"x": 0.9148286729,
				"y": 1.7434920594,
				"z": 1.7886631259,
				"element": "C" 
			},
			{
				"x": 2.2425907252,
				"y": 2.1232192946,
				"z": 2.4119528068,
				"element": "C" 
			},
			{
				"x": 2.7127054825,
				"y": 3.2407233296,
				"z": 2.4539230471,
				"element": "O" 
			},
			{
				"x": 2.8607224032,
				"y": 1.0243063557,
				"z": 2.9114488712,
				"element": "O" 
			},
			{
				"x": 4.1534304261,
				"y": 1.2116864624,
				"z": 3.507203536,
				"element": "C" 
			},
			{
				"x": 5.3117808291,
				"y": 0.869857541,
				"z": 2.5776763995,
				"element": "C" 
			},
			{
				"x": 5.4955254904,
				"y": 1.7578180545,
				"z": 1.3523583518,
				"element": "C" 
			},
			{
				"x": 4.4201408837,
				"y": 1.5441582472,
				"z": 0.4179436027,
				"element": "O" 
			},
			{
				"x": 4.4855478824,
				"y": 2.3066769245,
				"z": -0.7051084218,
				"element": "C" 
			},
			{
				"x": 5.3882332753,
				"y": 3.0833411942,
				"z": -0.9242361704,
				"element": "O" 
			},
			{
				"x": 3.292109002,
				"y": 2.0598645128,
				"z": -1.606189007,
				"element": "C" 
			},
			{
				"x": 3.4794637352,
				"y": 2.6522172647,
				"z": -3.0066930752,
				"element": "C" 
			},
			{
				"x": 2.2385903823,
				"y": 2.541067124,
				"z": -3.9052943779,
				"element": "C" 
			},
			{
				"x": 1.8509106166,
				"y": 1.1092223729,
				"z": -4.302548425,
				"element": "C" 
			},
			{
				"x": 0.674348579,
				"y": 1.053641093,
				"z": -5.2863941194,
				"element": "C" 
			},
			{
				"x": 0.2906919503,
				"y": -0.3751467441,
				"z": -5.696837498,
				"element": "C" 
			},
			{
				"x": -0.8167651481,
				"y": -0.4638967974,
				"z": -6.7601171182,
				"element": "C" 
			},
			{
				"x": -2.1973778415,
				"y": 0.0257846328,
				"z": -6.2993800434,
				"element": "C" 
			},
			{
				"x": -3.2777559458,
				"y": -0.1367140896,
				"z": -7.3786922336,
				"element": "C" 
			},
			{
				"x": -4.6671607671,
				"y": 0.3939943701,
				"z": -6.9880161141,
				"element": "C" 
			},
			{
				"x": -5.3609740808,
				"y": -0.3831845485,
				"z": -5.860479668,
				"element": "C" 
			},
			{
				"x": -6.7712126754,
				"y": 0.1332024715,
				"z": -5.5460652029,
				"element": "C" 
			},
			{
				"x": -7.4655584139,
				"y": -0.6460271007,
				"z": -4.4245981008,
				"element": "C" 
			},
			{
				"x": 5.166136022,
				"y": -0.5183420397,
				"z": 2.208808513,
				"element": "O" 
			},
			{
				"x": 6.3018042762,
				"y": -1.1954802257,
				"z": 1.9031209241,
				"element": "C" 
			},
			{
				"x": 7.4054058051,
				"y": -0.693883127,
				"z": 1.9351144369,
				"element": "O" 
			},
			{
				"x": 6.0238006521,
				"y": -2.650892442,
				"z": 1.5741992093,
				"element": "C" 
			},
			{
				"x": 4.6676952477,
				"y": -2.9592790522,
				"z": 0.9207321569,
				"element": "C" 
			},
			{
				"x": 4.4998079438,
				"y": -2.3230398747,
				"z": -0.4662923057,
				"element": "C" 
			},
			{
				"x": 3.1199943296,
				"y": -2.503818643,
				"z": -1.125950285,
				"element": "C" 
			},
			{
				"x": 2.7160025554,
				"y": -3.9430184718,
				"z": -1.5169657221,
				"element": "C" 
			},
			{
				"x": 1.9787064495,
				"y": -4.7443322908,
				"z": -0.4285175383,
				"element": "C" 
			},
			{
				"x": 1.5023757123,
				"y": -6.146284496,
				"z": -0.8790633276,
				"element": "C" 
			},
			{
				"x": 0.0364657207,
				"y": -6.2338500161,
				"z": -1.3420608542,
				"element": "C" 
			},
			{
				"x": -0.3146388112,
				"y": -5.4140003861,
				"z": -2.5920098549,
				"element": "C" 
			},
			{
				"x": -1.7426082102,
				"y": -5.6451503126,
				"z": -3.1190839325,
				"element": "C" 
			},
			{
				"x": -2.8840616079,
				"y": -5.2673045768,
				"z": -2.1558771942,
				"element": "C" 
			},
			{
				"x": -2.9170492238,
				"y": -3.7980537095,
				"z": -1.6999076909,
				"element": "C" 
			},
			{
				"x": -3.1083921121,
				"y": -2.7858033087,
				"z": -2.8357718299,
				"element": "C" 
			},
			{
				"x": 1.9904696437,
				"y": 4.8902379675,
				"z": 10.5094894897,
				"element": "H" 
			},
			{
				"x": 0.9353175956,
				"y": 3.9360388727,
				"z": 9.4621276221,
				"element": "H" 
			},
			{
				"x": 2.2009552505,
				"y": 4.94261042,
				"z": 8.7550227284,
				"element": "H" 
			},
			{
				"x": -0.2162329528,
				"y": 6.0555463293,
				"z": 10.3104855178,
				"element": "H" 
			},
			{
				"x": 1.077236058,
				"y": 7.004553218,
				"z": 9.612804243,
				"element": "H" 
			},
			{
				"x": -0.4630096562,
				"y": 7.2687566345,
				"z": 7.9311778635,
				"element": "H" 
			},
			{
				"x": 0.3294910607,
				"y": 5.8335452162,
				"z": 7.3194535936,
				"element": "H" 
			},
			{
				"x": -2.3083486613,
				"y": 5.9407937151,
				"z": 8.8862849776,
				"element": "H" 
			},
			{
				"x": -2.1468615086,
				"y": 5.7730126819,
				"z": 7.1495101791,
				"element": "H" 
			},
			{
				"x": -1.2498289489,
				"y": 3.7255813095,
				"z": 9.2436633856,
				"element": "H" 
			},
			{
				"x": -0.9694671667,
				"y": 3.5406087469,
				"z": 7.5264149111,
				"element": "H" 
			},
			{
				"x": -3.6949632151,
				"y": 3.7570475628,
				"z": 8.9188704977,
				"element": "H" 
			},
			{
				"x": -2.9454025277,
				"y": 2.2612615898,
				"z": 8.3979938109,
				"element": "H" 
			},
			{
				"x": -4.7781378117,
				"y": 2.9974383546,
				"z": 6.9440483812,
				"element": "H" 
			},
			{
				"x": -3.95332741,
				"y": 4.4794364496,
				"z": 6.5308667124,
				"element": "H" 
			},
			{
				"x": -3.9015584868,
				"y": 2.352068345,
				"z": 4.9199861392,
				"element": "H" 
			},
			{
				"x": -2.6074303708,
				"y": 1.7982901521,
				"z": 5.9608261196,
				"element": "H" 
			},
			{
				"x": -2.6513402607,
				"y": 4.447643774,
				"z": 4.411318517,
				"element": "H" 
			},
			{
				"x": -1.313697197,
				"y": 3.9144710188,
				"z": 5.4111122121,
				"element": "H" 
			},
			{
				"x": -1.0322803828,
				"y": 1.8892491365,
				"z": 3.9529331099,
				"element": "H" 
			},
			{
				"x": -2.3520245879,
				"y": 2.4390874053,
				"z": 2.9341648812,
				"element": "H" 
			},
			{
				"x": 0.2718270806,
				"y": 3.9747281459,
				"z": 3.3863588125,
				"element": "H" 
			},
			{
				"x": -1.0775254858,
				"y": 4.5550551336,
				"z": 2.4313856638,
				"element": "H" 
			},
			{
				"x": 0.5704481756,
				"y": 3.6752806576,
				"z": 0.9188587969,
				"element": "H" 
			},
			{
				"x": -0.8264149125,
				"y": 2.6037259473,
				"z": 0.8731742253,
				"element": "H" 
			},
			{
				"x": 0.4341766353,
				"y": 0.9953127169,
				"z": 2.4268015438,
				"element": "H" 
			},
			{
				"x": 1.1594182963,
				"y": 1.2177969838,
				"z": 0.8561102754,
				"element": "H" 
			},
			{
				"x": 4.2551633244,
				"y": 2.2456661261,
				"z": 3.8463913215,
				"element": "H" 
			},
			{
				"x": 4.1781490845,
				"y": 0.5353518067,
				"z": 4.3649456315,
				"element": "H" 
			},
			{
				"x": 6.234151118,
				"y": 0.9771867493,
				"z": 3.1625724271,
				"element": "H" 
			},
			{
				"x": 6.4454432112,
				"y": 1.5232513634,
				"z": 0.8679268149,
				"element": "H" 
			},
			{
				"x": 5.5123369016,
				"y": 2.8083875872,
				"z": 1.6569521637,
				"element": "H" 
			},
			{
				"x": 2.4196778623,
				"y": 2.5124461025,
				"z": -1.1135820241,
				"element": "H" 
			},
			{
				"x": 3.0972181532,
				"y": 0.9824738016,
				"z": -1.6316421113,
				"element": "H" 
			},
			{
				"x": 4.3325938244,
				"y": 2.1621879574,
				"z": -3.4927290906,
				"element": "H" 
			},
			{
				"x": 3.7626354932,
				"y": 3.7040199683,
				"z": -2.8980582824,
				"element": "H" 
			},
			{
				"x": 1.384273203,
				"y": 3.0264440506,
				"z": -3.4112749414,
				"element": "H" 
			},
			{
				"x": 2.4243587463,
				"y": 3.1196185825,
				"z": -4.8198471837,
				"element": "H" 
			},
			{
				"x": 1.5964950073,
				"y": 0.5240230091,
				"z": -3.4079779859,
				"element": "H" 
			},
			{
				"x": 2.7227873758,
				"y": 0.612263496,
				"z": -4.7523189764,
				"element": "H" 
			},
			{
				"x": -0.1904483537,
				"y": 1.5608107078,
				"z": -4.8386256647,
				"element": "H" 
			},
			{
				"x": 0.9310286495,
				"y": 1.6300528157,
				"z": -6.1870973904,
				"element": "H" 
			},
			{
				"x": -0.0167583594,
				"y": -0.9396309089,
				"z": -4.8044053018,
				"element": "H" 
			},
			{
				"x": 1.18674698,
				"y": -0.8822178612,
				"z": -6.0801512693,
				"element": "H" 
			},
			{
				"x": -0.5088543495,
				"y": 0.1041425484,
				"z": -7.6499289828,
				"element": "H" 
			},
			{
				"x": -0.906910948,
				"y": -1.5088185533,
				"z": -7.0871651487,
				"element": "H" 
			},
			{
				"x": -2.4848489378,
				"y": -0.5252783572,
				"z": -5.393821109,
				"element": "H" 
			},
			{
				"x": -2.1433630394,
				"y": 1.083786641,
				"z": -6.0091762824,
				"element": "H" 
			},
			{
				"x": -2.9452641957,
				"y": 0.3834488584,
				"z": -8.2874561807,
				"element": "H" 
			},
			{
				"x": -3.3598150254,
				"y": -1.1985538925,
				"z": -7.6526967374,
				"element": "H" 
			},
			{
				"x": -5.3135489256,
				"y": 0.3739968175,
				"z": -7.876136555,
				"element": "H" 
			},
			{
				"x": -4.5829711666,
				"y": 1.4522072138,
				"z": -6.700886711,
				"element": "H" 
			},
			{
				"x": -4.7548339663,
				"y": -0.3414634048,
				"z": -4.945735126,
				"element": "H" 
			},
			{
				"x": -5.4186363099,
				"y": -1.4461628278,
				"z": -6.1376028264,
				"element": "H" 
			},
			{
				"x": -7.3839450133,
				"y": 0.0885917388,
				"z": -6.4568922945,
				"element": "H" 
			},
			{
				"x": -6.7141221072,
				"y": 1.1957460038,
				"z": -5.2725170152,
				"element": "H" 
			},
			{
				"x": -6.8938915307,
				"y": -0.5911965081,
				"z": -3.4909436986,
				"element": "H" 
			},
			{
				"x": -7.570016374,
				"y": -1.7058080402,
				"z": -4.68440684,
				"element": "H" 
			},
			{
				"x": -8.4678590428,
				"y": -0.253432257,
				"z": -4.2236561324,
				"element": "H" 
			},
			{
				"x": 6.8575678707,
				"y": -2.9885263467,
				"z": 0.9509142813,
				"element": "H" 
			},
			{
				"x": 6.1092940747,
				"y": -3.1977759141,
				"z": 2.5233156192,
				"element": "H" 
			},
			{
				"x": 4.5790976909,
				"y": -4.0488237691,
				"z": 0.8481999459,
				"element": "H" 
			},
			{
				"x": 3.8633958026,
				"y": -2.6182605303,
				"z": 1.5816239478,
				"element": "H" 
			},
			{
				"x": 4.6866774714,
				"y": -1.2458289125,
				"z": -0.3768420773,
				"element": "H" 
			},
			{
				"x": 5.2734722271,
				"y": -2.7182044794,
				"z": -1.1404120872,
				"element": "H" 
			},
			{
				"x": 3.1169803551,
				"y": -1.8880238907,
				"z": -2.0347488133,
				"element": "H" 
			},
			{
				"x": 2.3479806666,
				"y": -2.0729725121,
				"z": -0.4723820291,
				"element": "H" 
			},
			{
				"x": 3.6105672669,
				"y": -4.5001354761,
				"z": -1.8309034016,
				"element": "H" 
			},
			{
				"x": 2.0751933255,
				"y": -3.894839151,
				"z": -2.4047818244,
				"element": "H" 
			},
			{
				"x": 1.115128244,
				"y": -4.1617219613,
				"z": -0.0767015695,
				"element": "H" 
			},
			{
				"x": 2.6320549347,
				"y": -4.8528202155,
				"z": 0.4436276649,
				"element": "H" 
			},
			{
				"x": 1.6261940566,
				"y": -6.8494143243,
				"z": -0.0461656375,
				"element": "H" 
			},
			{
				"x": 2.1602383432,
				"y": -6.5154112151,
				"z": -1.6786570422,
				"element": "H" 
			},
			{
				"x": -0.6091391939,
				"y": -5.9285748474,
				"z": -0.5075243394,
				"element": "H" 
			},
			{
				"x": -0.2034734628,
				"y": -7.2888042413,
				"z": -1.5370319426,
				"element": "H" 
			},
			{
				"x": -0.1679094637,
				"y": -4.3457143746,
				"z": -2.3888829681,
				"element": "H" 
			},
			{
				"x": 0.3933249838,
				"y": -5.6669470458,
				"z": -3.393244126,
				"element": "H" 
			},
			{
				"x": -1.8532743266,
				"y": -6.7059270647,
				"z": -3.3828898342,
				"element": "H" 
			},
			{
				"x": -1.8629332878,
				"y": -5.0916669184,
				"z": -4.0590330275,
				"element": "H" 
			},
			{
				"x": -2.8385905153,
				"y": -5.9095588084,
				"z": -1.2673091263,
				"element": "H" 
			},
			{
				"x": -3.8385648072,
				"y": -5.5045233053,
				"z": -2.6456900469,
				"element": "H" 
			},
			{
				"x": -1.9979040547,
				"y": -3.5580168011,
				"z": -1.1496042451,
				"element": "H" 
			},
			{
				"x": -3.7346848937,
				"y": -3.6807990337,
				"z": -0.9771082651,
				"element": "H" 
			},
			{
				"x": -2.2721223157,
				"y": -2.801901245,
				"z": -3.5428904464,
				"element": "H" 
			},
			{
				"x": -3.1870561379,
				"y": -1.7657769051,
				"z": -2.4447134652,
				"element": "H" 
			},
			{
				"x": -4.0230537783,
				"y": -2.995145892,
				"z": -3.4026633744,
				"element": "H" 
			}
		],
		 "valence_orbital": [ 
			{
				"type": "occ",
				"energy": -0.29549,
				"method": "rhf"
			},
			{
				"type": "occ",
				"energy": -0.29386,
				"method": "rhf"
			},
			{
				"type": "occ",
				"energy": -0.27714,
				"method": "rhf"
			},
			{
				"type": "occ",
				"energy": -0.27149,
				"method": "rhf"
			},
			{
				"type": "occ",
				"energy": -0.27009,
				"method": "rhf"
			},
			{
				"type": "unocc",
				"energy": 0.00567,
				"method": "rhf"
			},
			{
				"type": "unocc",
				"energy": 0.00831,
				"method": "rhf"
			},
			{
				"type": "unocc",
				"energy": 0.01352,
				"method": "rhf"
			},
			{
				"type": "unocc",
				"energy": 0.05522,
				"method": "rhf"
			},
			{
				"type": "unocc",
				"energy": 0.06415,
				"method": "rhf"
			}
		],
		"cosmo_sigma_profile": { 
			"-0.025": 0.0,
			"-0.024": 0.0,
			"-0.023": 0.0,
			"-0.022": 0.0,
			"-0.021": 0.0,
			"-0.02": 0.0,
			"-0.019": 0.0,
			"-0.018": 0.0,
			"-0.017": 0.0,
			"-0.016": 0.0,
			"-0.015": 0.0,
			"-0.014": 0.0,
			"-0.013": 0.0,
			"-0.012": 0.0,
			"-0.011": 0.0,
			"-0.01": 0.0,
			"-0.009": 0.847805841668,
			"-0.008": 3.83476690075,
			"-0.007": 7.40240700317,
			"-0.006": 8.76139211335,
			"-0.005": 12.2277053922,
			"-0.004": 26.5188276336,
			"-0.003": 42.2151468495,
			"-0.002": 124.278660454,
			"-0.001": 227.149457235,
			"0.0": 223.256729571,
			"0.001": 172.973463285,
			"0.002": 75.6309392867,
			"0.003": 9.34633237264,
			"0.004": 7.36304902555,
			"0.005": 8.38195776202,
			"0.006": 7.12146755559,
			"0.007": 5.89438234306,
			"0.008": 6.23548829787,
			"0.009": 7.96064319054,
			"0.01": 5.66981500731,
			"0.011": 7.93531424114,
			"0.012": 9.77219866877,
			"0.013": 1.57618276817,
			"0.014": 0.0,
			"0.015": 0.0,
			"0.016": 0.0,
			"0.017": 0.0,
			"0.018": 0.0,
			"0.019": 0.0,
			"0.02": 0.0,
			"0.021": 0.0,
			"0.022": 0.0,
			"0.023": 0.0,
			"0.024": 0.0,
			"0.025": 0.0
		}
	}
}
