{
	 "smiles": "CC(C)(C)OC(=O)NC1CCCCCC1C(O)=O", 
	 "Tm": 397.15, 
	 "num_atms": 41, 
	 "gaussian": { 
		 "optdone": 1, 
		 "sigma_profile": "yes", 
		 "theory": "DFT", 
		 "functional": "B3LYP", 
		 "basiset": "6-31G**", 
		 "properties": { 
			 "R2extent": 5167.5193, 
			 "electric_dipole_moment_norm": 2.49392235044, 
			 "electric_quadrupole_moment_norm": 13.9974619971, 
			 "total_energy": -864.956591199, 
			 "HOMO_LUMO_gap": 0.25202, 
			 "cosmo_polarized_energy": -14.59, 
			 "cosmo_cavitation_energy": 40.03, 
			 "cosmo_dispersion_energy": -26.99, 
			 "cosmo_repulsion_energy": 2.08, 
			 "cosmo_total_nonelectrostatic_energy": 15.12, 
			 "SMD_solvation_energy": 7.36 
		},
		"coords": [
			{
				"x": -0.5362593993,
				"y": -1.9649742377,
				"z": 3.2566896176,
				"element": "C" 
			},
			{
				"x": -0.9126097027,
				"y": -0.4812501316,
				"z": 3.2314699803,
				"element": "C" 
			},
			{
				"x": 0.0238305489,
				"y": 0.330901578,
				"z": 4.1326506486,
				"element": "C" 
			},
			{
				"x": -2.3872619015,
				"y": -0.285111155,
				"z": 3.5980920959,
				"element": "C" 
			},
			{
				"x": -0.6976060119,
				"y": -0.1191993408,
				"z": 1.8202501294,
				"element": "O" 
			},
			{
				"x": -0.9274416543,
				"y": 1.1443337842,
				"z": 1.3840849977,
				"element": "C" 
			},
			{
				"x": -1.2745431846,
				"y": 2.0938805941,
				"z": 2.0701353874,
				"element": "O" 
			},
			{
				"x": -0.6987298475,
				"y": 1.2365239106,
				"z": 0.0387819949,
				"element": "N" 
			},
			{
				"x": -0.4494707086,
				"y": 0.1278403677,
				"z": -0.8879421026,
				"element": "C" 
			},
			{
				"x": -0.8598959458,
				"y": 0.5726129122,
				"z": -2.3052719319,
				"element": "C" 
			},
			{
				"x": -0.1183432555,
				"y": 1.7745813753,
				"z": -2.9225908151,
				"element": "C" 
			},
			{
				"x": 1.2478980019,
				"y": 1.4483809012,
				"z": -3.5374683966,
				"element": "C" 
			},
			{
				"x": 2.2856247403,
				"y": 0.8757737061,
				"z": -2.5648668899,
				"element": "C" 
			},
			{
				"x": 1.921431543,
				"y": -0.4915964287,
				"z": -1.9595733702,
				"element": "C" 
			},
			{
				"x": 0.9994890765,
				"y": -0.4426696698,
				"z": -0.7118328691,
				"element": "C" 
			},
			{
				"x": 0.9313089679,
				"y": -1.8603700694,
				"z": -0.1664114715,
				"element": "C" 
			},
			{
				"x": 2.0182110953,
				"y": -2.1665629519,
				"z": 0.5875408689,
				"element": "O" 
			},
			{
				"x": 0.0629113587,
				"y": -2.673786542,
				"z": -0.4003710031,
				"element": "O" 
			},
			{
				"x": 0.512920409,
				"y": -2.0956929346,
				"z": 2.9766598216,
				"element": "H" 
			},
			{
				"x": -1.1532890724,
				"y": -2.5326144183,
				"z": 2.5546599604,
				"element": "H" 
			},
			{
				"x": -0.6817794401,
				"y": -2.3715765591,
				"z": 4.2619908337,
				"element": "H" 
			},
			{
				"x": -0.0570485424,
				"y": -0.0293501095,
				"z": 5.1635747852,
				"element": "H" 
			},
			{
				"x": 1.0624398768,
				"y": 0.205318293,
				"z": 3.8101906725,
				"element": "H" 
			},
			{
				"x": -0.2299479034,
				"y": 1.3904668365,
				"z": 4.1055150703,
				"element": "H" 
			},
			{
				"x": -2.5651641868,
				"y": -0.6504039774,
				"z": 4.6148165878,
				"element": "H" 
			},
			{
				"x": -3.0268326893,
				"y": -0.8541739599,
				"z": 2.9159064614,
				"element": "H" 
			},
			{
				"x": -2.6632651361,
				"y": 0.7685617332,
				"z": 3.5486776162,
				"element": "H" 
			},
			{
				"x": -0.8966195427,
				"y": 2.1536930662,
				"z": -0.3307111229,
				"element": "H" 
			},
			{
				"x": -1.1281774226,
				"y": -0.6872044885,
				"z": -0.6227932389,
				"element": "H" 
			},
			{
				"x": -0.7765428583,
				"y": -0.2913244425,
				"z": -2.9747020239,
				"element": "H" 
			},
			{
				"x": -1.9301093116,
				"y": 0.8070223263,
				"z": -2.252352954,
				"element": "H" 
			},
			{
				"x": -0.7555420493,
				"y": 2.2000567026,
				"z": -3.7073528038,
				"element": "H" 
			},
			{
				"x": 0.0044306497,
				"y": 2.5753596189,
				"z": -2.1797099361,
				"element": "H" 
			},
			{
				"x": 1.6546525053,
				"y": 2.3590636012,
				"z": -3.9951640232,
				"element": "H" 
			},
			{
				"x": 1.1036740321,
				"y": 0.732846846,
				"z": -4.3596150837,
				"element": "H" 
			},
			{
				"x": 2.4797410055,
				"y": 1.5940739743,
				"z": -1.7561947617,
				"element": "H" 
			},
			{
				"x": 3.2341144612,
				"y": 0.7668940589,
				"z": -3.1051778409,
				"element": "H" 
			},
			{
				"x": 1.4755895397,
				"y": -1.1348897952,
				"z": -2.7289165847,
				"element": "H" 
			},
			{
				"x": 2.8447595002,
				"y": -0.9906085647,
				"z": -1.644757179,
				"element": "H" 
			},
			{
				"x": 1.5108112543,
				"y": 0.1666173643,
				"z": 0.0388398373,
				"element": "H" 
			},
			{
				"x": 1.9145412004,
				"y": -3.1005437744,
				"z": 0.8366490357,
				"element": "H" 
			}
		],
		 "valence_orbital": [ 
			{
				"type": "occ",
				"energy": -0.31494,
				"method": "rhf"
			},
			{
				"type": "occ",
				"energy": -0.28413,
				"method": "rhf"
			},
			{
				"type": "occ",
				"energy": -0.27434,
				"method": "rhf"
			},
			{
				"type": "occ",
				"energy": -0.25607,
				"method": "rhf"
			},
			{
				"type": "occ",
				"energy": -0.24212,
				"method": "rhf"
			},
			{
				"type": "unocc",
				"energy": 0.0099,
				"method": "rhf"
			},
			{
				"type": "unocc",
				"energy": 0.05764,
				"method": "rhf"
			},
			{
				"type": "unocc",
				"energy": 0.06615,
				"method": "rhf"
			},
			{
				"type": "unocc",
				"energy": 0.07771,
				"method": "rhf"
			},
			{
				"type": "unocc",
				"energy": 0.08659,
				"method": "rhf"
			}
		],
		"cosmo_sigma_profile": { 
			"-0.025": 0.0,
			"-0.024": 0.0,
			"-0.023": 0.0,
			"-0.022": 0.0,
			"-0.021": 0.0,
			"-0.02": 0.0,
			"-0.019": 0.0,
			"-0.018": 0.268998898976,
			"-0.017": 1.01228098148,
			"-0.016": 0.546623908658,
			"-0.015": 0.547900763123,
			"-0.014": 0.853062255963,
			"-0.013": 0.430205026809,
			"-0.012": 1.57152734946,
			"-0.011": 2.09287063276,
			"-0.01": 1.3719935849,
			"-0.009": 1.94138514659,
			"-0.008": 1.65976137383,
			"-0.007": 1.27404541902,
			"-0.006": 2.74973623725,
			"-0.005": 4.00241549298,
			"-0.004": 17.6173374366,
			"-0.003": 35.4951000208,
			"-0.002": 46.1899975412,
			"-0.001": 45.9528624397,
			"0.0": 45.7698341265,
			"0.001": 29.6969612331,
			"0.002": 9.73393026068,
			"0.003": 6.95310098906,
			"0.004": 6.45452759456,
			"0.005": 5.98611993747,
			"0.006": 4.95955286065,
			"0.007": 5.56203002778,
			"0.008": 4.40470304945,
			"0.009": 3.79889585659,
			"0.01": 2.99920241056,
			"0.011": 4.01188461619,
			"0.012": 6.0580619065,
			"0.013": 3.17476788843,
			"0.014": 3.28197411842,
			"0.015": 0.323694974927,
			"0.016": 0.0,
			"0.017": 0.0,
			"0.018": 0.0,
			"0.019": 0.0,
			"0.02": 0.0,
			"0.021": 0.0,
			"0.022": 0.0,
			"0.023": 0.0,
			"0.024": 0.0,
			"0.025": 0.0
		}
	}
}
