{
	 "smiles": "FC1=CC=C(C=C1)C(=O)CCCCl", 
	 "Tm": 279.15, 
	 "num_atms": 23, 
	 "gaussian": { 
		 "optdone": 1, 
		 "sigma_profile": "yes", 
		 "theory": "DFT", 
		 "functional": "B3LYP", 
		 "basiset": "6-31G**", 
		 "properties": { 
			 "R2extent": 4816.4089, 
			 "electric_dipole_moment_norm": 3.48715901129, 
			 "electric_quadrupole_moment_norm": 19.195684528, 
			 "total_energy": -1022.35095656, 
			 "HOMO_LUMO_gap": 0.19117, 
			 "cosmo_polarized_energy": -11.41, 
			 "cosmo_cavitation_energy": 29.35, 
			 "cosmo_dispersion_energy": -20.91, 
			 "cosmo_repulsion_energy": 1.65, 
			 "cosmo_total_nonelectrostatic_energy": 10.09, 
			 "SMD_solvation_energy": 5.48 
		},
		"coords": [
			{
				"x": 0.4017388128,
				"y": -3.9913574816,
				"z": 0.1618969559,
				"element": "F" 
			},
			{
				"x": 0.3396171666,
				"y": -2.6637234354,
				"z": -0.0459277308,
				"element": "C" 
			},
			{
				"x": -0.907435698,
				"y": -2.0610834016,
				"z": -0.1720506441,
				"element": "C" 
			},
			{
				"x": -0.9643084935,
				"y": -0.6857726346,
				"z": -0.3897977334,
				"element": "C" 
			},
			{
				"x": 0.2100394136,
				"y": 0.07930943,
				"z": -0.4770720854,
				"element": "C" 
			},
			{
				"x": 1.4514947647,
				"y": -0.567485691,
				"z": -0.3414807334,
				"element": "C" 
			},
			{
				"x": 1.5262477207,
				"y": -1.9378521895,
				"z": -0.1277866428,
				"element": "C" 
			},
			{
				"x": 0.2186093671,
				"y": 1.5611971941,
				"z": -0.7000054453,
				"element": "C" 
			},
			{
				"x": 1.276870388,
				"y": 2.1719668149,
				"z": -0.7506109667,
				"element": "O" 
			},
			{
				"x": -1.0971165887,
				"y": 2.3247239614,
				"z": -0.81701256,
				"element": "C" 
			},
			{
				"x": -1.5940482704,
				"y": 2.77683804,
				"z": 0.5702023265,
				"element": "C" 
			},
			{
				"x": -2.9151901442,
				"y": 3.5352749421,
				"z": 0.5428791951,
				"element": "C" 
			},
			{
				"x": -2.8028942223,
				"y": 5.1117200379,
				"z": -0.3590292909,
				"element": "Cl" 
			},
			{
				"x": -1.804347287,
				"y": -2.6665637549,
				"z": -0.1021525424,
				"element": "H" 
			},
			{
				"x": -1.9370593995,
				"y": -0.2167709937,
				"z": -0.4907883109,
				"element": "H" 
			},
			{
				"x": 2.3497364782,
				"y": 0.0365734458,
				"z": -0.409593572,
				"element": "H" 
			},
			{
				"x": 2.4758577026,
				"y": -2.4514220137,
				"z": -0.0234081501,
				"element": "H" 
			},
			{
				"x": -0.8979694059,
				"y": 3.204771725,
				"z": -1.4325629537,
				"element": "H" 
			},
			{
				"x": -1.8690593254,
				"y": 1.7298943339,
				"z": -1.3172541323,
				"element": "H" 
			},
			{
				"x": -0.8240843342,
				"y": 3.3934539778,
				"z": 1.0453694388,
				"element": "H" 
			},
			{
				"x": -1.7463224279,
				"y": 1.9024947855,
				"z": 1.2181987976,
				"element": "H" 
			},
			{
				"x": -3.7030523791,
				"y": 2.9617440033,
				"z": 0.0496220033,
				"element": "H" 
			},
			{
				"x": -3.2415238382,
				"y": 3.791068904,
				"z": 1.5520647769,
				"element": "H" 
			}
		],
		 "valence_orbital": [ 
			{
				"type": "occ",
				"energy": -0.29993,
				"method": "rhf"
			},
			{
				"type": "occ",
				"energy": -0.2974,
				"method": "rhf"
			},
			{
				"type": "occ",
				"energy": -0.27657,
				"method": "rhf"
			},
			{
				"type": "occ",
				"energy": -0.25948,
				"method": "rhf"
			},
			{
				"type": "occ",
				"energy": -0.25306,
				"method": "rhf"
			},
			{
				"type": "unocc",
				"energy": -0.06189,
				"method": "rhf"
			},
			{
				"type": "unocc",
				"energy": -0.02576,
				"method": "rhf"
			},
			{
				"type": "unocc",
				"energy": 0.02143,
				"method": "rhf"
			},
			{
				"type": "unocc",
				"energy": 0.03481,
				"method": "rhf"
			},
			{
				"type": "unocc",
				"energy": 0.06758,
				"method": "rhf"
			}
		],
		"cosmo_sigma_profile": { 
			"-0.025": 0.0,
			"-0.024": 0.0,
			"-0.023": 0.0,
			"-0.022": 0.0,
			"-0.021": 0.0,
			"-0.02": 0.0,
			"-0.019": 0.0,
			"-0.018": 0.0,
			"-0.017": 0.0,
			"-0.016": 0.0,
			"-0.015": 0.0,
			"-0.014": 0.0,
			"-0.013": 0.0,
			"-0.012": 0.0,
			"-0.011": 0.0,
			"-0.01": 0.0,
			"-0.009": 0.245870362285,
			"-0.008": 3.82056542665,
			"-0.007": 12.3189709691,
			"-0.006": 14.9166063954,
			"-0.005": 17.8612346064,
			"-0.004": 17.1340451742,
			"-0.003": 16.4532953352,
			"-0.002": 13.8596542413,
			"-0.001": 13.1503640082,
			"0.0": 17.8183244137,
			"0.001": 18.4632049175,
			"0.002": 20.1300700859,
			"0.003": 18.1957714059,
			"0.004": 14.8332686328,
			"0.005": 7.63371502017,
			"0.006": 9.00630877611,
			"0.007": 6.40948514746,
			"0.008": 1.96672516848,
			"0.009": 1.36772792257,
			"0.01": 1.84100927279,
			"0.011": 2.82838071432,
			"0.012": 3.92534948205,
			"0.013": 1.34760568621,
			"0.014": 0.204319502289,
			"0.015": 0.0,
			"0.016": 0.0,
			"0.017": 0.0,
			"0.018": 0.0,
			"0.019": 0.0,
			"0.02": 0.0,
			"0.021": 0.0,
			"0.022": 0.0,
			"0.023": 0.0,
			"0.024": 0.0,
			"0.025": 0.0
		}
	}
}
