{
	 "smiles": "CC1(C)CC(=O)C=C(O1)C(O)=O", 
	 "Tm": 442.15, 
	 "num_atms": 22, 
	 "gaussian": { 
		 "optdone": 1, 
		 "sigma_profile": "yes", 
		 "theory": "DFT", 
		 "functional": "B3LYP", 
		 "basiset": "6-31G**", 
		 "properties": { 
			 "R2extent": 2640.0657, 
			 "electric_dipole_moment_norm": 5.98068421337, 
			 "electric_quadrupole_moment_norm": 15.4884087168, 
			 "total_energy": -611.773478517, 
			 "HOMO_LUMO_gap": 0.16982, 
			 "cosmo_polarized_energy": -15.93, 
			 "cosmo_cavitation_energy": 25.61, 
			 "cosmo_dispersion_energy": -18.2, 
			 "cosmo_repulsion_energy": 1.46, 
			 "cosmo_total_nonelectrostatic_energy": 8.87, 
			 "SMD_solvation_energy": 6.7 
		},
		"coords": [
			{
				"x": -0.8551766029,
				"y": 1.9024706967,
				"z": 1.2153018946,
				"element": "C" 
			},
			{
				"x": -0.3291569019,
				"y": 0.502607627,
				"z": 0.8807370297,
				"element": "C" 
			},
			{
				"x": 0.2251282152,
				"y": -0.1987106903,
				"z": 2.11614086,
				"element": "C" 
			},
			{
				"x": 0.6862288772,
				"y": 0.5237030329,
				"z": -0.2706324288,
				"element": "C" 
			},
			{
				"x": 0.0639183307,
				"y": 0.8966966772,
				"z": -1.6170688936,
				"element": "C" 
			},
			{
				"x": 0.6920173606,
				"y": 1.49334587,
				"z": -2.477747498,
				"element": "O" 
			},
			{
				"x": -1.3058894782,
				"y": 0.4111771911,
				"z": -1.8042502004,
				"element": "C" 
			},
			{
				"x": -1.9615540864,
				"y": -0.1848861506,
				"z": -0.7861227433,
				"element": "C" 
			},
			{
				"x": -1.4898573877,
				"y": -0.3214530228,
				"z": 0.4771554196,
				"element": "O" 
			},
			{
				"x": -3.3394238226,
				"y": -0.7804224596,
				"z": -0.958079045,
				"element": "C" 
			},
			{
				"x": -3.8615182803,
				"y": -1.3108961883,
				"z": 0.1629758026,
				"element": "O" 
			},
			{
				"x": -3.9236589869,
				"y": -0.779132234,
				"z": -2.0139650009,
				"element": "O" 
			},
			{
				"x": -1.6032276579,
				"y": 1.8472759868,
				"z": 2.0108310775,
				"element": "H" 
			},
			{
				"x": -0.0320902776,
				"y": 2.5359757127,
				"z": 1.5592951758,
				"element": "H" 
			},
			{
				"x": -1.3082317327,
				"y": 2.3826679808,
				"z": 0.3441501944,
				"element": "H" 
			},
			{
				"x": 1.0923564614,
				"y": 0.3475328554,
				"z": 2.4982277474,
				"element": "H" 
			},
			{
				"x": -0.5288842438,
				"y": -0.2403686883,
				"z": 2.9077845817,
				"element": "H" 
			},
			{
				"x": 0.5359472302,
				"y": -1.2191151999,
				"z": 1.8762035585,
				"element": "H" 
			},
			{
				"x": 1.5004309679,
				"y": 1.2190682426,
				"z": -0.0512045435,
				"element": "H" 
			},
			{
				"x": 1.1304093069,
				"y": -0.474484666,
				"z": -0.3854661943,
				"element": "H" 
			},
			{
				"x": -1.7892529387,
				"y": 0.4967245762,
				"z": -2.7692141158,
				"element": "H" 
			},
			{
				"x": -3.2195143525,
				"y": -1.1904771498,
				"z": 0.8844473219,
				"element": "H" 
			}
		],
		 "valence_orbital": [ 
			{
				"type": "occ",
				"energy": -0.35007,
				"method": "rhf"
			},
			{
				"type": "occ",
				"energy": -0.32712,
				"method": "rhf"
			},
			{
				"type": "occ",
				"energy": -0.28815,
				"method": "rhf"
			},
			{
				"type": "occ",
				"energy": -0.26493,
				"method": "rhf"
			},
			{
				"type": "occ",
				"energy": -0.25492,
				"method": "rhf"
			},
			{
				"type": "unocc",
				"energy": -0.0851,
				"method": "rhf"
			},
			{
				"type": "unocc",
				"energy": 0.01486,
				"method": "rhf"
			},
			{
				"type": "unocc",
				"energy": 0.05204,
				"method": "rhf"
			},
			{
				"type": "unocc",
				"energy": 0.06871,
				"method": "rhf"
			},
			{
				"type": "unocc",
				"energy": 0.09533,
				"method": "rhf"
			}
		],
		"cosmo_sigma_profile": { 
			"-0.025": 0.0,
			"-0.024": 0.0,
			"-0.023": 0.0,
			"-0.022": 0.0,
			"-0.021": 0.0,
			"-0.02": 0.0,
			"-0.019": 0.0,
			"-0.018": 0.0,
			"-0.017": 0.0,
			"-0.016": 0.252349694077,
			"-0.015": 0.485743807213,
			"-0.014": 0.434771681459,
			"-0.013": 0.778206379863,
			"-0.012": 0.70662719996,
			"-0.011": 0.996297896771,
			"-0.01": 0.707719503715,
			"-0.009": 0.835654328016,
			"-0.008": 1.82714042141,
			"-0.007": 6.16710988219,
			"-0.006": 12.0898562099,
			"-0.005": 17.4500909155,
			"-0.004": 20.6548837196,
			"-0.003": 20.1894326649,
			"-0.002": 19.0380492095,
			"-0.001": 19.3441814661,
			"0.0": 13.9145838645,
			"0.001": 6.63502912805,
			"0.002": 4.51417886101,
			"0.003": 4.00417997512,
			"0.004": 3.65239072897,
			"0.005": 3.29092129251,
			"0.006": 4.94834189188,
			"0.007": 3.45491359912,
			"0.008": 4.75741856176,
			"0.009": 6.79286647846,
			"0.01": 6.87313356844,
			"0.011": 8.02752859889,
			"0.012": 6.17473117488,
			"0.013": 2.63892813863,
			"0.014": 0.181512074533,
			"0.015": 0.0,
			"0.016": 0.0,
			"0.017": 0.0,
			"0.018": 0.0,
			"0.019": 0.0,
			"0.02": 0.0,
			"0.021": 0.0,
			"0.022": 0.0,
			"0.023": 0.0,
			"0.024": 0.0,
			"0.025": 0.0
		}
	}
}
