{
	 "smiles": "CCCCC(CC)CN", 
	 "Tm": 197.15, 
	 "num_atms": 28, 
	 "gaussian": { 
		 "optdone": 1, 
		 "sigma_profile": "yes", 
		 "theory": "DFT", 
		 "functional": "B3LYP", 
		 "basiset": "6-31G**", 
		 "properties": { 
			 "R2extent": 1884.6827, 
			 "electric_dipole_moment_norm": 1.48021085998, 
			 "electric_quadrupole_moment_norm": 4.67696181404, 
			 "total_energy": -371.06824617, 
			 "HOMO_LUMO_gap": 0.29262, 
			 "cosmo_polarized_energy": -4.16, 
			 "cosmo_cavitation_energy": 27.73, 
			 "cosmo_dispersion_energy": -19.6, 
			 "cosmo_repulsion_energy": 1.65, 
			 "cosmo_total_nonelectrostatic_energy": 9.78, 
			 "SMD_solvation_energy": 3.76 
		},
		"coords": [
			{
				"x": -1.1220247803,
				"y": 0.5298709831,
				"z": -2.8366274251,
				"element": "C" 
			},
			{
				"x": -1.8057646006,
				"y": 1.3812162819,
				"z": -1.7598666821,
				"element": "C" 
			},
			{
				"x": -1.6266074349,
				"y": 0.8573299915,
				"z": -0.3247252336,
				"element": "C" 
			},
			{
				"x": -0.1789994728,
				"y": 0.9040026587,
				"z": 0.1895142892,
				"element": "C" 
			},
			{
				"x": -0.010187297,
				"y": 0.5263972941,
				"z": 1.676245068,
				"element": "C" 
			},
			{
				"x": 1.4057830467,
				"y": 0.8602933661,
				"z": 2.2062705502,
				"element": "C" 
			},
			{
				"x": 2.5964736901,
				"y": 0.2333561152,
				"z": 1.4674915292,
				"element": "C" 
			},
			{
				"x": -0.4685248928,
				"y": -0.9141639269,
				"z": 1.9931067821,
				"element": "C" 
			},
			{
				"x": 0.2191756609,
				"y": -1.9384923842,
				"z": 1.1938768881,
				"element": "N" 
			},
			{
				"x": -1.3263256006,
				"y": 0.9221052403,
				"z": -3.8383419607,
				"element": "H" 
			},
			{
				"x": -0.0348729206,
				"y": 0.5059768883,
				"z": -2.7102046297,
				"element": "H" 
			},
			{
				"x": -1.4823102933,
				"y": -0.5056811473,
				"z": -2.8080185649,
				"element": "H" 
			},
			{
				"x": -2.8792997773,
				"y": 1.4387179203,
				"z": -1.981142049,
				"element": "H" 
			},
			{
				"x": -1.429199007,
				"y": 2.4118443552,
				"z": -1.8161330175,
				"element": "H" 
			},
			{
				"x": -2.2606613008,
				"y": 1.4499227335,
				"z": 0.3490318584,
				"element": "H" 
			},
			{
				"x": -2.0135442224,
				"y": -0.1705000985,
				"z": -0.2742241922,
				"element": "H" 
			},
			{
				"x": 0.4584499625,
				"y": 0.2580702542,
				"z": -0.425752439,
				"element": "H" 
			},
			{
				"x": 0.2085517347,
				"y": 1.9230626378,
				"z": 0.0479464753,
				"element": "H" 
			},
			{
				"x": -0.7001512581,
				"y": 1.1687236195,
				"z": 2.2460340797,
				"element": "H" 
			},
			{
				"x": 1.4486053277,
				"y": 0.5686407971,
				"z": 3.2645739482,
				"element": "H" 
			},
			{
				"x": 1.517628126,
				"y": 1.9536778193,
				"z": 2.1939644797,
				"element": "H" 
			},
			{
				"x": 2.6599148167,
				"y": 0.5874760692,
				"z": 0.43270657,
				"element": "H" 
			},
			{
				"x": 3.5357129537,
				"y": 0.5077737744,
				"z": 1.9609420357,
				"element": "H" 
			},
			{
				"x": 2.5134401596,
				"y": -0.85502584,
				"z": 1.441823942,
				"element": "H" 
			},
			{
				"x": -1.5679201722,
				"y": -0.9582208303,
				"z": 1.8991732271,
				"element": "H" 
			},
			{
				"x": -0.2463553824,
				"y": -1.1182790175,
				"z": 3.0478473607,
				"element": "H" 
			},
			{
				"x": -0.0493796732,
				"y": -2.8629103696,
				"z": 1.5218048629,
				"element": "H" 
			},
			{
				"x": -0.0854073925,
				"y": -1.8854851853,
				"z": 0.2247822473,
				"element": "H" 
			}
		],
		 "valence_orbital": [ 
			{
				"type": "occ",
				"energy": -0.31985,
				"method": "rhf"
			},
			{
				"type": "occ",
				"energy": -0.30882,
				"method": "rhf"
			},
			{
				"type": "occ",
				"energy": -0.30484,
				"method": "rhf"
			},
			{
				"type": "occ",
				"energy": -0.29438,
				"method": "rhf"
			},
			{
				"type": "occ",
				"energy": -0.22648,
				"method": "rhf"
			},
			{
				"type": "unocc",
				"energy": 0.06614,
				"method": "rhf"
			},
			{
				"type": "unocc",
				"energy": 0.09819,
				"method": "rhf"
			},
			{
				"type": "unocc",
				"energy": 0.10896,
				"method": "rhf"
			},
			{
				"type": "unocc",
				"energy": 0.11507,
				"method": "rhf"
			},
			{
				"type": "unocc",
				"energy": 0.13434,
				"method": "rhf"
			}
		],
		"cosmo_sigma_profile": { 
			"-0.025": 0.0,
			"-0.024": 0.0,
			"-0.023": 0.0,
			"-0.022": 0.0,
			"-0.021": 0.0,
			"-0.02": 0.0,
			"-0.019": 0.0,
			"-0.018": 0.0,
			"-0.017": 0.0,
			"-0.016": 0.0,
			"-0.015": 0.0,
			"-0.014": 0.0,
			"-0.013": 0.0,
			"-0.012": 0.0,
			"-0.011": 0.0,
			"-0.01": 0.2053337901,
			"-0.009": 1.33314429699,
			"-0.008": 1.84941322561,
			"-0.007": 2.58454331118,
			"-0.006": 3.18277170028,
			"-0.005": 3.7242030264,
			"-0.004": 2.79275504402,
			"-0.003": 5.87760331425,
			"-0.002": 24.5116852501,
			"-0.001": 42.462147645,
			"0.0": 44.8650491926,
			"0.001": 38.4688976306,
			"0.002": 20.4667067938,
			"0.003": 5.88095024873,
			"0.004": 1.9451582441,
			"0.005": 1.78271413968,
			"0.006": 1.21155146943,
			"0.007": 1.65659192677,
			"0.008": 0.589864294395,
			"0.009": 1.29544981831,
			"0.01": 0.744978772465,
			"0.011": 1.04294881413,
			"0.012": 1.1886467312,
			"0.013": 1.11919927379,
			"0.014": 0.570634678878,
			"0.015": 0.110840123168,
			"0.016": 0.0,
			"0.017": 0.0,
			"0.018": 0.0,
			"0.019": 0.0,
			"0.02": 0.0,
			"0.021": 0.0,
			"0.022": 0.0,
			"0.023": 0.0,
			"0.024": 0.0,
			"0.025": 0.0
		}
	}
}
