{
	 "smiles": "OCC(C=C)N1C(=O)C2=CC=CC=C2C1=O", 
	 "Tm": 335.35, 
	 "num_atms": 27, 
	 "gaussian": { 
		 "optdone": 1, 
		 "sigma_profile": "yes", 
		 "theory": "DFT", 
		 "functional": "B3LYP", 
		 "basiset": "6-31G**", 
		 "properties": { 
			 "R2extent": 3893.8106, 
			 "electric_dipole_moment_norm": 3.7904243641, 
			 "electric_quadrupole_moment_norm": 19.7951810714, 
			 "total_energy": -744.323544945, 
			 "HOMO_LUMO_gap": 0.17032, 
			 "cosmo_polarized_energy": -11.96, 
			 "cosmo_cavitation_energy": 31.06, 
			 "cosmo_dispersion_energy": -22.12, 
			 "cosmo_repulsion_energy": 1.69, 
			 "cosmo_total_nonelectrostatic_energy": 10.63, 
			 "SMD_solvation_energy": 6.63 
		},
		"coords": [
			{
				"x": -0.3263968949,
				"y": 3.0989461809,
				"z": 0.6098719897,
				"element": "O" 
			},
			{
				"x": -1.1235707164,
				"y": 2.1184817164,
				"z": 1.2381609575,
				"element": "C" 
			},
			{
				"x": -1.1492669123,
				"y": 0.7839235181,
				"z": 0.4726338844,
				"element": "C" 
			},
			{
				"x": -1.9733769634,
				"y": -0.2988938775,
				"z": 1.1427527811,
				"element": "C" 
			},
			{
				"x": -2.6353465093,
				"y": -0.1937660624,
				"z": 2.2948653378,
				"element": "C" 
			},
			{
				"x": 0.2049401219,
				"y": 0.2545730694,
				"z": 0.1689410498,
				"element": "N" 
			},
			{
				"x": 1.4200566619,
				"y": 0.5406072584,
				"z": 0.8006188886,
				"element": "C" 
			},
			{
				"x": 1.607317363,
				"y": 1.3466545945,
				"z": 1.6997925058,
				"element": "O" 
			},
			{
				"x": 2.4484772925,
				"y": -0.3061959783,
				"z": 0.1270003125,
				"element": "C" 
			},
			{
				"x": 3.8096960169,
				"y": -0.4157009786,
				"z": 0.3699553838,
				"element": "C" 
			},
			{
				"x": 4.5387480178,
				"y": -1.2918000783,
				"z": -0.4457158775,
				"element": "C" 
			},
			{
				"x": 3.9136611518,
				"y": -2.019352985,
				"z": -1.4669231912,
				"element": "C" 
			},
			{
				"x": 2.5381874725,
				"y": -1.8960887048,
				"z": -1.7062325305,
				"element": "C" 
			},
			{
				"x": 1.8267032148,
				"y": -1.0292620995,
				"z": -0.8898678066,
				"element": "C" 
			},
			{
				"x": 0.3792117909,
				"y": -0.6766359219,
				"z": -0.8799834378,
				"element": "C" 
			},
			{
				"x": -0.5107922435,
				"y": -1.0815137502,
				"z": -1.6008545661,
				"element": "O" 
			},
			{
				"x": 0.5696475492,
				"y": 2.9572119977,
				"z": 0.9496748903,
				"element": "H" 
			},
			{
				"x": -2.1537975188,
				"y": 2.4895947279,
				"z": 1.2526280106,
				"element": "H" 
			},
			{
				"x": -0.8101414602,
				"y": 1.9519030049,
				"z": 2.2741029345,
				"element": "H" 
			},
			{
				"x": -1.5863361993,
				"y": 0.974952958,
				"z": -0.5153255449,
				"element": "H" 
			},
			{
				"x": -2.0212497658,
				"y": -1.230156437,
				"z": 0.5822591788,
				"element": "H" 
			},
			{
				"x": -2.6393312673,
				"y": 0.7083564598,
				"z": 2.8983218251,
				"element": "H" 
			},
			{
				"x": -3.2147639845,
				"y": -1.0284498596,
				"z": 2.6782382812,
				"element": "H" 
			},
			{
				"x": 4.2831153835,
				"y": 0.1557203047,
				"z": 1.1616749795,
				"element": "H" 
			},
			{
				"x": 5.6063760292,
				"y": -1.4092785376,
				"z": -0.2861239245,
				"element": "H" 
			},
			{
				"x": 4.5069940516,
				"y": -2.6884496248,
				"z": -2.0828413562,
				"element": "H" 
			},
			{
				"x": 2.0438383183,
				"y": -2.4515808951,
				"z": -2.4965249556,
				"element": "H" 
			}
		],
		 "valence_orbital": [ 
			{
				"type": "occ",
				"energy": -0.28232,
				"method": "rhf"
			},
			{
				"type": "occ",
				"energy": -0.27804,
				"method": "rhf"
			},
			{
				"type": "occ",
				"energy": -0.27321,
				"method": "rhf"
			},
			{
				"type": "occ",
				"energy": -0.26758,
				"method": "rhf"
			},
			{
				"type": "occ",
				"energy": -0.25899,
				"method": "rhf"
			},
			{
				"type": "unocc",
				"energy": -0.08867,
				"method": "rhf"
			},
			{
				"type": "unocc",
				"energy": -0.04583,
				"method": "rhf"
			},
			{
				"type": "unocc",
				"energy": 0.00788,
				"method": "rhf"
			},
			{
				"type": "unocc",
				"energy": 0.02215,
				"method": "rhf"
			},
			{
				"type": "unocc",
				"energy": 0.0677,
				"method": "rhf"
			}
		],
		"cosmo_sigma_profile": { 
			"-0.025": 0.0,
			"-0.024": 0.0,
			"-0.023": 0.0,
			"-0.022": 0.0,
			"-0.021": 0.0,
			"-0.02": 0.0,
			"-0.019": 0.0,
			"-0.018": 0.0,
			"-0.017": 0.0,
			"-0.016": 0.0,
			"-0.015": 0.0,
			"-0.014": 0.0,
			"-0.013": 0.0,
			"-0.012": 0.0,
			"-0.011": 0.0,
			"-0.01": 0.090352962933,
			"-0.009": 0.637199698917,
			"-0.008": 2.49295088624,
			"-0.007": 9.55715196236,
			"-0.006": 14.9228731491,
			"-0.005": 22.3599817148,
			"-0.004": 20.4511103469,
			"-0.003": 19.6035975745,
			"-0.002": 19.7605325029,
			"-0.001": 20.0141072162,
			"0.0": 20.3277949291,
			"0.001": 20.3024436377,
			"0.002": 18.1364814264,
			"0.003": 9.57786087635,
			"0.004": 7.33499453761,
			"0.005": 6.50417559582,
			"0.006": 4.64766516917,
			"0.007": 4.318194686,
			"0.008": 2.57626739113,
			"0.009": 5.67533814031,
			"0.01": 5.48512531606,
			"0.011": 6.86744281261,
			"0.012": 2.09136917359,
			"0.013": 1.92816056313,
			"0.014": 2.02020609027,
			"0.015": 0.515006630878,
			"0.016": 0.0,
			"0.017": 0.0,
			"0.018": 0.0,
			"0.019": 0.0,
			"0.02": 0.0,
			"0.021": 0.0,
			"0.022": 0.0,
			"0.023": 0.0,
			"0.024": 0.0,
			"0.025": 0.0
		}
	}
}
