{
	 "smiles": "COC1=C(OC)C=C2NCCC2=C1", 
	 "Tm": 377.15, 
	 "num_atms": 26, 
	 "gaussian": { 
		 "optdone": 1, 
		 "sigma_profile": "yes", 
		 "theory": "DFT", 
		 "functional": "B3LYP", 
		 "basiset": "6-31G**", 
		 "properties": { 
			 "R2extent": 2719.636, 
			 "electric_dipole_moment_norm": 1.50589284147, 
			 "electric_quadrupole_moment_norm": 9.44949624001, 
			 "total_energy": -594.06255804, 
			 "HOMO_LUMO_gap": 0.19024, 
			 "cosmo_polarized_energy": -8.74, 
			 "cosmo_cavitation_energy": 28.35, 
			 "cosmo_dispersion_energy": -20.9, 
			 "cosmo_repulsion_energy": 1.68, 
			 "cosmo_total_nonelectrostatic_energy": 9.13, 
			 "SMD_solvation_energy": 4.56 
		},
		"coords": [
			{
				"x": 1.4146178356,
				"y": -2.7070095848,
				"z": 1.1167582851,
				"element": "C" 
			},
			{
				"x": 1.3527348362,
				"y": -2.0445776491,
				"z": -0.149277357,
				"element": "O" 
			},
			{
				"x": 0.4008056783,
				"y": -1.0426804724,
				"z": -0.2199236899,
				"element": "C" 
			},
			{
				"x": 0.5930069821,
				"y": 0.1899771115,
				"z": 0.4310834557,
				"element": "C" 
			},
			{
				"x": 1.7095809271,
				"y": 0.4204684493,
				"z": 1.2079794416,
				"element": "O" 
			},
			{
				"x": 2.9388320928,
				"y": 0.514034073,
				"z": 0.4810126525,
				"element": "C" 
			},
			{
				"x": -0.3672114473,
				"y": 1.2046933644,
				"z": 0.3396638959,
				"element": "C" 
			},
			{
				"x": -1.5123899349,
				"y": 0.9744289105,
				"z": -0.4217087906,
				"element": "C" 
			},
			{
				"x": -2.6129283019,
				"y": 1.8221198353,
				"z": -0.6185787068,
				"element": "N" 
			},
			{
				"x": -3.3506188442,
				"y": 1.322511928,
				"z": -1.7954455393,
				"element": "C" 
			},
			{
				"x": -3.0369655894,
				"y": -0.194435931,
				"z": -1.8038000294,
				"element": "C" 
			},
			{
				"x": -1.6979455841,
				"y": -0.2430259282,
				"z": -1.0973146196,
				"element": "C" 
			},
			{
				"x": -0.7528670836,
				"y": -1.2527663986,
				"z": -0.9862879021,
				"element": "C" 
			},
			{
				"x": 1.6716884394,
				"y": -2.0082089188,
				"z": 1.9198636415,
				"element": "H" 
			},
			{
				"x": 0.4585001503,
				"y": -3.1927814247,
				"z": 1.3517867853,
				"element": "H" 
			},
			{
				"x": 2.1930362494,
				"y": -3.4688991616,
				"z": 1.030000034,
				"element": "H" 
			},
			{
				"x": 2.9089908193,
				"y": 1.3531368801,
				"z": -0.2262613402,
				"element": "H" 
			},
			{
				"x": 3.7197773974,
				"y": 0.6977401109,
				"z": 1.2223741462,
				"element": "H" 
			},
			{
				"x": 3.1530766857,
				"y": -0.411573956,
				"z": -0.0616768092,
				"element": "H" 
			},
			{
				"x": -0.1912810471,
				"y": 2.1396374102,
				"z": 0.8622526531,
				"element": "H" 
			},
			{
				"x": -2.417339544,
				"y": 2.8154338517,
				"z": -0.6131957058,
				"element": "H" 
			},
			{
				"x": -2.9840174198,
				"y": 1.7854788929,
				"z": -2.7255099241,
				"element": "H" 
			},
			{
				"x": -4.4195982671,
				"y": 1.5367018507,
				"z": -1.7068342819,
				"element": "H" 
			},
			{
				"x": -3.7958694716,
				"y": -0.7469162761,
				"z": -1.2331371271,
				"element": "H" 
			},
			{
				"x": -3.023608051,
				"y": -0.6079130125,
				"z": -2.8165463462,
				"element": "H" 
			},
			{
				"x": -0.8716075076,
				"y": -2.2089739547,
				"z": -1.4879768215,
				"element": "H" 
			}
		],
		 "valence_orbital": [ 
			{
				"type": "occ",
				"energy": -0.29044,
				"method": "rhf"
			},
			{
				"type": "occ",
				"energy": -0.26736,
				"method": "rhf"
			},
			{
				"type": "occ",
				"energy": -0.25159,
				"method": "rhf"
			},
			{
				"type": "occ",
				"energy": -0.22889,
				"method": "rhf"
			},
			{
				"type": "occ",
				"energy": -0.18354,
				"method": "rhf"
			},
			{
				"type": "unocc",
				"energy": 0.0067,
				"method": "rhf"
			},
			{
				"type": "unocc",
				"energy": 0.026,
				"method": "rhf"
			},
			{
				"type": "unocc",
				"energy": 0.08919,
				"method": "rhf"
			},
			{
				"type": "unocc",
				"energy": 0.09816,
				"method": "rhf"
			},
			{
				"type": "unocc",
				"energy": 0.12091,
				"method": "rhf"
			}
		],
		"cosmo_sigma_profile": { 
			"-0.025": 0.0,
			"-0.024": 0.0,
			"-0.023": 0.0,
			"-0.022": 0.0,
			"-0.021": 0.0,
			"-0.02": 0.0,
			"-0.019": 0.0,
			"-0.018": 0.0,
			"-0.017": 0.0,
			"-0.016": 0.0,
			"-0.015": 0.0,
			"-0.014": 0.0,
			"-0.013": 0.143676137438,
			"-0.012": 1.2077662453,
			"-0.011": 1.16125569168,
			"-0.01": 1.4089899265,
			"-0.009": 0.973369069175,
			"-0.008": 1.28796640285,
			"-0.007": 1.7542522274,
			"-0.006": 3.87688492734,
			"-0.005": 9.76200150818,
			"-0.004": 19.5710431567,
			"-0.003": 30.046978092,
			"-0.002": 32.6079893049,
			"-0.001": 22.8897182047,
			"0.0": 15.0034683749,
			"0.001": 11.3965297142,
			"0.002": 10.4363143797,
			"0.003": 8.3605546354,
			"0.004": 10.6453744357,
			"0.005": 12.3131580385,
			"0.006": 10.0200842691,
			"0.007": 2.95745432364,
			"0.008": 3.29338154712,
			"0.009": 2.39296006285,
			"0.01": 2.6816310584,
			"0.011": 2.85674271591,
			"0.012": 2.61654406651,
			"0.013": 1.01626867664,
			"0.014": 0.688134250412,
			"0.015": 0.00516312182045,
			"0.016": 0.0,
			"0.017": 0.0,
			"0.018": 0.0,
			"0.019": 0.0,
			"0.02": 0.0,
			"0.021": 0.0,
			"0.022": 0.0,
			"0.023": 0.0,
			"0.024": 0.0,
			"0.025": 0.0
		}
	}
}
