{
	 "smiles": "COC(=O)NC1=C(C(O)=O)C(C)=NS1", 
	 "Tm": 489.15, 
	 "num_atms": 22, 
	 "gaussian": { 
		 "optdone": 1, 
		 "sigma_profile": "yes", 
		 "theory": "DFT", 
		 "functional": "B3LYP", 
		 "basiset": "6-31G**", 
		 "properties": { 
			 "R2extent": 3607.6929, 
			 "electric_dipole_moment_norm": 2.14555187539, 
			 "electric_quadrupole_moment_norm": 11.5421417675, 
			 "total_energy": -1080.18113488, 
			 "HOMO_LUMO_gap": 0.1897, 
			 "cosmo_polarized_energy": -14.28, 
			 "cosmo_cavitation_energy": 28.47, 
			 "cosmo_dispersion_energy": -21.5, 
			 "cosmo_repulsion_energy": 1.65, 
			 "cosmo_total_nonelectrostatic_energy": 8.62, 
			 "SMD_solvation_energy": 6.46 
		},
		"coords": [
			{
				"x": -2.9538986738,
				"y": 1.35605993,
				"z": 3.4236346364,
				"element": "C" 
			},
			{
				"x": -2.0726065567,
				"y": 1.1324223254,
				"z": 2.3070296944,
				"element": "O" 
			},
			{
				"x": -2.0466536201,
				"y": -0.1302098566,
				"z": 1.8401632694,
				"element": "C" 
			},
			{
				"x": -2.6903238098,
				"y": -1.0588229347,
				"z": 2.2792143023,
				"element": "O" 
			},
			{
				"x": -1.1767372271,
				"y": -0.2569736756,
				"z": 0.7697556714,
				"element": "N" 
			},
			{
				"x": -0.3862295332,
				"y": 0.6907594586,
				"z": 0.1635867269,
				"element": "C" 
			},
			{
				"x": 0.4695996956,
				"y": 0.4775333241,
				"z": -0.9205920045,
				"element": "C" 
			},
			{
				"x": 0.6926130761,
				"y": -0.78771582,
				"z": -1.6213492917,
				"element": "C" 
			},
			{
				"x": -0.0443602247,
				"y": -1.8284910198,
				"z": -1.1110022562,
				"element": "O" 
			},
			{
				"x": 1.4385718775,
				"y": -0.9656451195,
				"z": -2.5639795004,
				"element": "O" 
			},
			{
				"x": 1.1383075152,
				"y": 1.7072126522,
				"z": -1.2854350152,
				"element": "C" 
			},
			{
				"x": 2.1294569505,
				"y": 1.8593043973,
				"z": -2.4031620564,
				"element": "C" 
			},
			{
				"x": 0.8366124552,
				"y": 2.7620059137,
				"z": -0.564956229,
				"element": "N" 
			},
			{
				"x": -0.2881360624,
				"y": 2.3642189735,
				"z": 0.6256925112,
				"element": "S" 
			},
			{
				"x": -2.6577281662,
				"y": 0.7332531501,
				"z": 4.2702120778,
				"element": "H" 
			},
			{
				"x": -2.8498106846,
				"y": 2.4126717927,
				"z": 3.6661634677,
				"element": "H" 
			},
			{
				"x": -3.9836303876,
				"y": 1.121981558,
				"z": 3.1458364769,
				"element": "H" 
			},
			{
				"x": -1.1205142839,
				"y": -1.192752573,
				"z": 0.380355777,
				"element": "H" 
			},
			{
				"x": 0.183263459,
				"y": -2.6047672622,
				"z": -1.6483629413,
				"element": "H" 
			},
			{
				"x": 2.9886293641,
				"y": 1.1987161599,
				"z": -2.2574449667,
				"element": "H" 
			},
			{
				"x": 2.4641183742,
				"y": 2.8972431246,
				"z": -2.4401750092,
				"element": "H" 
			},
			{
				"x": 1.6843564627,
				"y": 1.5797955012,
				"z": -3.3620853408,
				"element": "H" 
			}
		],
		 "valence_orbital": [ 
			{
				"type": "occ",
				"energy": -0.30164,
				"method": "rhf"
			},
			{
				"type": "occ",
				"energy": -0.29198,
				"method": "rhf"
			},
			{
				"type": "occ",
				"energy": -0.28695,
				"method": "rhf"
			},
			{
				"type": "occ",
				"energy": -0.26408,
				"method": "rhf"
			},
			{
				"type": "occ",
				"energy": -0.2426,
				"method": "rhf"
			},
			{
				"type": "unocc",
				"energy": -0.0529,
				"method": "rhf"
			},
			{
				"type": "unocc",
				"energy": -0.00581,
				"method": "rhf"
			},
			{
				"type": "unocc",
				"energy": 0.01419,
				"method": "rhf"
			},
			{
				"type": "unocc",
				"energy": 0.03929,
				"method": "rhf"
			},
			{
				"type": "unocc",
				"energy": 0.06039,
				"method": "rhf"
			}
		],
		"cosmo_sigma_profile": { 
			"-0.025": 0.0,
			"-0.024": 0.0,
			"-0.023": 0.0,
			"-0.022": 0.0,
			"-0.021": 0.0,
			"-0.02": 0.0,
			"-0.019": 0.326038185509,
			"-0.018": 0.742176781529,
			"-0.017": 0.834979774547,
			"-0.016": 0.88062776891,
			"-0.015": 1.18641278295,
			"-0.014": 0.702977030575,
			"-0.013": 0.428307255667,
			"-0.012": 0.521516097631,
			"-0.011": 0.771879002852,
			"-0.01": 0.7673749278,
			"-0.009": 1.55930327178,
			"-0.008": 1.41994434192,
			"-0.007": 5.23676701003,
			"-0.006": 9.52200052972,
			"-0.005": 11.5284855436,
			"-0.004": 21.1317072,
			"-0.003": 21.2336247361,
			"-0.002": 22.2083524796,
			"-0.001": 22.7680732499,
			"0.0": 19.2556872743,
			"0.001": 13.770033568,
			"0.002": 12.2735028286,
			"0.003": 11.5909711656,
			"0.004": 5.513270232,
			"0.005": 4.33951178035,
			"0.006": 4.33289160873,
			"0.007": 2.83715888671,
			"0.008": 3.22555187327,
			"0.009": 5.8451900194,
			"0.01": 4.84333514469,
			"0.011": 8.78133950689,
			"0.012": 6.45475257464,
			"0.013": 1.07712207094,
			"0.014": 0.866266654238,
			"0.015": 0.359287578994,
			"0.016": 0.0,
			"0.017": 0.0,
			"0.018": 0.0,
			"0.019": 0.0,
			"0.02": 0.0,
			"0.021": 0.0,
			"0.022": 0.0,
			"0.023": 0.0,
			"0.024": 0.0,
			"0.025": 0.0
		}
	}
}
