{
	 "smiles": "CN1C=C(C=N1)C1=CC(=CN=C1)C(O)=O", 
	 "Tm": 534.15, 
	 "num_atms": 24, 
	 "gaussian": { 
		 "optdone": 1, 
		 "sigma_profile": "yes", 
		 "theory": "DFT", 
		 "functional": "B3LYP", 
		 "basiset": "6-31G**", 
		 "properties": { 
			 "R2extent": 4418.6399, 
			 "electric_dipole_moment_norm": 6.87681358625, 
			 "electric_quadrupole_moment_norm": 12.6319732849, 
			 "total_energy": -701.171370192, 
			 "HOMO_LUMO_gap": 0.17581, 
			 "cosmo_polarized_energy": -21.44, 
			 "cosmo_cavitation_energy": 29.53, 
			 "cosmo_dispersion_energy": -21.47, 
			 "cosmo_repulsion_energy": 1.65, 
			 "cosmo_total_nonelectrostatic_energy": 9.71, 
			 "SMD_solvation_energy": 4.27 
		},
		"coords": [
			{
				"x": -4.4633452278,
				"y": 0.1964473825,
				"z": -0.7747432975,
				"element": "C" 
			},
			{
				"x": -3.0613455881,
				"y": -0.1801441843,
				"z": -0.7462005815,
				"element": "N" 
			},
			{
				"x": -2.2095327931,
				"y": -0.1471699653,
				"z": 0.3076777639,
				"element": "C" 
			},
			{
				"x": -0.958425042,
				"y": -0.5329063906,
				"z": -0.1639737837,
				"element": "C" 
			},
			{
				"x": -1.1864405817,
				"y": -0.7749294855,
				"z": -1.5448625326,
				"element": "C" 
			},
			{
				"x": -2.4526775805,
				"y": -0.5622633666,
				"z": -1.8904295465,
				"element": "N" 
			},
			{
				"x": 0.2903294827,
				"y": -0.6640138807,
				"z": 0.5898883212,
				"element": "C" 
			},
			{
				"x": 1.5439513867,
				"y": -0.5643340919,
				"z": -0.0296242182,
				"element": "C" 
			},
			{
				"x": 2.7091249037,
				"y": -0.7089622304,
				"z": 0.7275027196,
				"element": "C" 
			},
			{
				"x": 2.5791738801,
				"y": -0.954770091,
				"z": 2.1019089954,
				"element": "C" 
			},
			{
				"x": 1.3982142881,
				"y": -1.0426675056,
				"z": 2.7190579263,
				"element": "N" 
			},
			{
				"x": 0.2967806359,
				"y": -0.9079948944,
				"z": 1.9761638756,
				"element": "C" 
			},
			{
				"x": 4.0900366591,
				"y": -0.6368818686,
				"z": 0.1502361447,
				"element": "C" 
			},
			{
				"x": 4.2272267055,
				"y": 0.0363005018,
				"z": -1.0241032036,
				"element": "O" 
			},
			{
				"x": 5.0530527586,
				"y": -1.140800543,
				"z": 0.6764095643,
				"element": "O" 
			},
			{
				"x": -4.5924680104,
				"y": 1.1729320754,
				"z": -1.2510899261,
				"element": "H" 
			},
			{
				"x": -5.0220624216,
				"y": -0.5515039878,
				"z": -1.3399136381,
				"element": "H" 
			},
			{
				"x": -4.8427009701,
				"y": 0.238942949,
				"z": 0.2475169988,
				"element": "H" 
			},
			{
				"x": -2.5375381085,
				"y": 0.1601299483,
				"z": 1.289993284,
				"element": "H" 
			},
			{
				"x": -0.48344046,
				"y": -1.125841897,
				"z": -2.2890197973,
				"element": "H" 
			},
			{
				"x": 1.5909968145,
				"y": -0.39551282,
				"z": -1.1029948121,
				"element": "H" 
			},
			{
				"x": 3.4728153037,
				"y": -1.0783969207,
				"z": 2.7072592385,
				"element": "H" 
			},
			{
				"x": -0.6484217547,
				"y": -1.0188332749,
				"z": 2.5052334127,
				"element": "H" 
			},
			{
				"x": 3.4169957202,
				"y": 0.5221745412,
				"z": -1.2310929079,
				"element": "H" 
			}
		],
		 "valence_orbital": [ 
			{
				"type": "occ",
				"energy": -0.29487,
				"method": "rhf"
			},
			{
				"type": "occ",
				"energy": -0.2808,
				"method": "rhf"
			},
			{
				"type": "occ",
				"energy": -0.26915,
				"method": "rhf"
			},
			{
				"type": "occ",
				"energy": -0.264,
				"method": "rhf"
			},
			{
				"type": "occ",
				"energy": -0.23693,
				"method": "rhf"
			},
			{
				"type": "unocc",
				"energy": -0.06112,
				"method": "rhf"
			},
			{
				"type": "unocc",
				"energy": -0.04578,
				"method": "rhf"
			},
			{
				"type": "unocc",
				"energy": 0.00027,
				"method": "rhf"
			},
			{
				"type": "unocc",
				"energy": 0.02834,
				"method": "rhf"
			},
			{
				"type": "unocc",
				"energy": 0.05464,
				"method": "rhf"
			}
		],
		"cosmo_sigma_profile": { 
			"-0.025": 0.0,
			"-0.024": 0.0,
			"-0.023": 0.0,
			"-0.022": 0.0,
			"-0.021": 0.0,
			"-0.02": 0.0,
			"-0.019": 0.85520068352,
			"-0.018": 0.804287968704,
			"-0.017": 1.09938516484,
			"-0.016": 1.05781396343,
			"-0.015": 1.07935341195,
			"-0.014": 1.09862886914,
			"-0.013": 0.851100177726,
			"-0.012": 0.868109031837,
			"-0.011": 1.67335393529,
			"-0.01": 1.86449792548,
			"-0.009": 5.95095837017,
			"-0.008": 7.58799388965,
			"-0.007": 10.9243531474,
			"-0.006": 12.4007101361,
			"-0.005": 12.9288791607,
			"-0.004": 15.147943635,
			"-0.003": 16.9036914629,
			"-0.002": 12.3401825249,
			"-0.001": 11.4092025555,
			"0.0": 18.5412305893,
			"0.001": 15.3066803678,
			"0.002": 10.0246788263,
			"0.003": 11.1604523059,
			"0.004": 9.58875877207,
			"0.005": 5.23695051846,
			"0.006": 5.57178410295,
			"0.007": 6.53278369701,
			"0.008": 5.39145347107,
			"0.009": 5.12138205293,
			"0.01": 7.82870669609,
			"0.011": 7.40706807255,
			"0.012": 5.20221847203,
			"0.013": 3.09766871777,
			"0.014": 1.8926528112,
			"0.015": 1.72640761098,
			"0.016": 0.705473573454,
			"0.017": 0.0,
			"0.018": 0.0,
			"0.019": 0.0,
			"0.02": 0.0,
			"0.021": 0.0,
			"0.022": 0.0,
			"0.023": 0.0,
			"0.024": 0.0,
			"0.025": 0.0
		}
	}
}
