{
	 "smiles": "CC1=CC(OC2=CC=C(N)C=C2)=CC(C)=C1", 
	 "Tm": 329.15, 
	 "num_atms": 31, 
	 "gaussian": { 
		 "optdone": 1, 
		 "sigma_profile": "yes", 
		 "theory": "DFT", 
		 "functional": "B3LYP", 
		 "basiset": "6-31G**", 
		 "properties": { 
			 "R2extent": 5336.3333, 
			 "electric_dipole_moment_norm": 2.91603907553, 
			 "electric_quadrupole_moment_norm": 12.8441771025, 
			 "total_energy": -672.513234631, 
			 "HOMO_LUMO_gap": 0.19465, 
			 "cosmo_polarized_energy": -10.92, 
			 "cosmo_cavitation_energy": 34.79, 
			 "cosmo_dispersion_energy": -24.77, 
			 "cosmo_repulsion_energy": 1.96, 
			 "cosmo_total_nonelectrostatic_energy": 11.98, 
			 "SMD_solvation_energy": 6.11 
		},
		"coords": [
			{
				"x": 0.8807356486,
				"y": -1.7591085528,
				"z": -5.368360984,
				"element": "C" 
			},
			{
				"x": 0.276878956,
				"y": -1.3535901624,
				"z": -4.0434809834,
				"element": "C" 
			},
			{
				"x": 0.812191866,
				"y": -0.2952971298,
				"z": -3.3119723873,
				"element": "C" 
			},
			{
				"x": 0.2296493582,
				"y": 0.0873824689,
				"z": -2.0971129744,
				"element": "C" 
			},
			{
				"x": 0.8306336263,
				"y": 1.1556849602,
				"z": -1.4648810487,
				"element": "O" 
			},
			{
				"x": 0.4136459935,
				"y": 1.5289108473,
				"z": -0.1931669451,
				"element": "C" 
			},
			{
				"x": 0.8814646028,
				"y": 0.8507155846,
				"z": 0.9332008454,
				"element": "C" 
			},
			{
				"x": 0.5220579127,
				"y": 1.2842874894,
				"z": 2.2065942673,
				"element": "C" 
			},
			{
				"x": -0.3073928148,
				"y": 2.406862564,
				"z": 2.3776516262,
				"element": "C" 
			},
			{
				"x": -0.6158873661,
				"y": 2.878923713,
				"z": 3.6575764944,
				"element": "N" 
			},
			{
				"x": -0.765680197,
				"y": 3.0805462086,
				"z": 1.2326158862,
				"element": "C" 
			},
			{
				"x": -0.4096122079,
				"y": 2.6436643793,
				"z": -0.0415132927,
				"element": "C" 
			},
			{
				"x": -0.8883730976,
				"y": -0.5816295798,
				"z": -1.6028658216,
				"element": "C" 
			},
			{
				"x": -1.4340183038,
				"y": -1.6524617743,
				"z": -2.3286689536,
				"element": "C" 
			},
			{
				"x": -2.641610012,
				"y": -2.3850021292,
				"z": -1.7894654469,
				"element": "C" 
			},
			{
				"x": -0.8471561595,
				"y": -2.0275865519,
				"z": -3.5380831911,
				"element": "C" 
			},
			{
				"x": 0.954683736,
				"y": -2.8481684456,
				"z": -5.4566994134,
				"element": "H" 
			},
			{
				"x": 0.2661243156,
				"y": -1.4093745705,
				"z": -6.2071748173,
				"element": "H" 
			},
			{
				"x": 1.8825349998,
				"y": -1.3400632888,
				"z": -5.4974335115,
				"element": "H" 
			},
			{
				"x": 1.6828452137,
				"y": 0.2495531734,
				"z": -3.663987713,
				"element": "H" 
			},
			{
				"x": 1.5285746571,
				"y": -0.0113311279,
				"z": 0.8057441481,
				"element": "H" 
			},
			{
				"x": 0.8960265865,
				"y": 0.7565115173,
				"z": 3.0804696185,
				"element": "H" 
			},
			{
				"x": -0.5735633945,
				"y": 2.1831218598,
				"z": 4.3896508338,
				"element": "H" 
			},
			{
				"x": -1.4627073785,
				"y": 3.4278908823,
				"z": 3.7160939807,
				"element": "H" 
			},
			{
				"x": -1.400213281,
				"y": 3.9563164958,
				"z": 1.3438585862,
				"element": "H" 
			},
			{
				"x": -0.7607181885,
				"y": 3.1666836779,
				"z": -0.9253093913,
				"element": "H" 
			},
			{
				"x": -1.3332452002,
				"y": -0.2767101613,
				"z": -0.6618966328,
				"element": "H" 
			},
			{
				"x": -3.4789903799,
				"y": -1.699579896,
				"z": -1.6150737033,
				"element": "H" 
			},
			{
				"x": -2.981332396,
				"y": -3.1591488406,
				"z": -2.4829035208,
				"element": "H" 
			},
			{
				"x": -2.4192800448,
				"y": -2.8689743925,
				"z": -0.8310098774,
				"element": "H" 
			},
			{
				"x": -1.2675670506,
				"y": -2.8586292186,
				"z": -4.0998956773,
				"element": "H" 
			}
		],
		 "valence_orbital": [ 
			{
				"type": "occ",
				"energy": -0.29532,
				"method": "rhf"
			},
			{
				"type": "occ",
				"energy": -0.25102,
				"method": "rhf"
			},
			{
				"type": "occ",
				"energy": -0.22746,
				"method": "rhf"
			},
			{
				"type": "occ",
				"energy": -0.2105,
				"method": "rhf"
			},
			{
				"type": "occ",
				"energy": -0.19841,
				"method": "rhf"
			},
			{
				"type": "unocc",
				"energy": -0.00376,
				"method": "rhf"
			},
			{
				"type": "unocc",
				"energy": 0.01158,
				"method": "rhf"
			},
			{
				"type": "unocc",
				"energy": 0.01756,
				"method": "rhf"
			},
			{
				"type": "unocc",
				"energy": 0.02414,
				"method": "rhf"
			},
			{
				"type": "unocc",
				"energy": 0.07831,
				"method": "rhf"
			}
		],
		"cosmo_sigma_profile": { 
			"-0.025": 0.0,
			"-0.024": 0.0,
			"-0.023": 0.0,
			"-0.022": 0.0,
			"-0.021": 0.0,
			"-0.02": 0.0,
			"-0.019": 0.0,
			"-0.018": 0.0,
			"-0.017": 0.0,
			"-0.016": 0.0,
			"-0.015": 0.0,
			"-0.014": 0.0,
			"-0.013": 0.164523340548,
			"-0.012": 2.35733112885,
			"-0.011": 3.11303045564,
			"-0.01": 2.54147277371,
			"-0.009": 3.57620277782,
			"-0.008": 2.84852672728,
			"-0.007": 3.37542818968,
			"-0.006": 7.64707450345,
			"-0.005": 10.3581772488,
			"-0.004": 23.943157085,
			"-0.003": 22.1139832881,
			"-0.002": 25.7752734484,
			"-0.001": 22.0871091901,
			"0.0": 26.3934028131,
			"0.001": 19.4032326895,
			"0.002": 16.7892138222,
			"0.003": 13.7000654951,
			"0.004": 18.5838767598,
			"0.005": 19.8799707667,
			"0.006": 15.7530146603,
			"0.007": 6.0881657813,
			"0.008": 1.48484362678,
			"0.009": 2.00666297706,
			"0.01": 2.45395217494,
			"0.011": 0.933455538669,
			"0.012": 0.463526296152,
			"0.013": 0.69103997708,
			"0.014": 0.588435955193,
			"0.015": 0.36240187873,
			"0.016": 0.0,
			"0.017": 0.0,
			"0.018": 0.0,
			"0.019": 0.0,
			"0.02": 0.0,
			"0.021": 0.0,
			"0.022": 0.0,
			"0.023": 0.0,
			"0.024": 0.0,
			"0.025": 0.0
		}
	}
}
