{
	 "smiles": "FC(F)(F)C1=NNC2=C1C=NC=C2", 
	 "Tm": 501.15, 
	 "num_atms": 17, 
	 "gaussian": { 
		 "optdone": 1, 
		 "sigma_profile": "yes", 
		 "theory": "DFT", 
		 "functional": "B3LYP", 
		 "basiset": "6-31G**", 
		 "properties": { 
			 "R2extent": 2548.4067, 
			 "electric_dipole_moment_norm": 4.18719615733, 
			 "electric_quadrupole_moment_norm": 8.67563020593, 
			 "total_energy": -732.909939276, 
			 "HOMO_LUMO_gap": 0.19684, 
			 "cosmo_polarized_energy": -11.88, 
			 "cosmo_cavitation_energy": 23.34, 
			 "cosmo_dispersion_energy": -17.04, 
			 "cosmo_repulsion_energy": 1.28, 
			 "cosmo_total_nonelectrostatic_energy": 7.57, 
			 "SMD_solvation_energy": 2.74 
		},
		"coords": [
			{
				"x": -2.5102391596,
				"y": -0.6961601534,
				"z": 2.6285867698,
				"element": "F" 
			},
			{
				"x": -1.1848272805,
				"y": -0.4969651222,
				"z": 2.5870557909,
				"element": "C" 
			},
			{
				"x": -0.9048741418,
				"y": 0.6382302192,
				"z": 3.2715876727,
				"element": "F" 
			},
			{
				"x": -0.5965677697,
				"y": -1.5132370792,
				"z": 3.2555986973,
				"element": "F" 
			},
			{
				"x": -0.6692724731,
				"y": -0.3891420719,
				"z": 1.1852740694,
				"element": "C" 
			},
			{
				"x": -1.262309943,
				"y": -1.0341954231,
				"z": 0.1995586765,
				"element": "N" 
			},
			{
				"x": -0.519859938,
				"y": -0.7814388231,
				"z": -0.9057674689,
				"element": "N" 
			},
			{
				"x": 0.5532137227,
				"y": 0.0244442428,
				"z": -0.6491452277,
				"element": "C" 
			},
			{
				"x": 0.4962769687,
				"y": 0.3091377399,
				"z": 0.7349106767,
				"element": "C" 
			},
			{
				"x": 1.4892805598,
				"y": 1.1414002794,
				"z": 1.2845505553,
				"element": "C" 
			},
			{
				"x": 2.4660563057,
				"y": 1.6464996464,
				"z": 0.5432031937,
				"element": "N" 
			},
			{
				"x": 2.4963154105,
				"y": 1.3516997066,
				"z": -0.7810427322,
				"element": "C" 
			},
			{
				"x": 1.5779472935,
				"y": 0.5540764783,
				"z": -1.4461846899,
				"element": "C" 
			},
			{
				"x": -0.8158090399,
				"y": -1.1740651337,
				"z": -1.7858160163,
				"element": "H" 
			},
			{
				"x": 1.4812257068,
				"y": 1.3963619418,
				"z": 2.3415049296,
				"element": "H" 
			},
			{
				"x": 3.3198903795,
				"y": 1.7951498999,
				"z": -1.3359680753,
				"element": "H" 
			},
			{
				"x": 1.6589533984,
				"y": 0.3615036522,
				"z": -2.5105068217,
				"element": "H" 
			}
		],
		 "valence_orbital": [ 
			{
				"type": "occ",
				"energy": -0.32666,
				"method": "rhf"
			},
			{
				"type": "occ",
				"energy": -0.32131,
				"method": "rhf"
			},
			{
				"type": "occ",
				"energy": -0.28238,
				"method": "rhf"
			},
			{
				"type": "occ",
				"energy": -0.26585,
				"method": "rhf"
			},
			{
				"type": "occ",
				"energy": -0.25444,
				"method": "rhf"
			},
			{
				"type": "unocc",
				"energy": -0.0576,
				"method": "rhf"
			},
			{
				"type": "unocc",
				"energy": -0.01489,
				"method": "rhf"
			},
			{
				"type": "unocc",
				"energy": 0.01692,
				"method": "rhf"
			},
			{
				"type": "unocc",
				"energy": 0.06296,
				"method": "rhf"
			},
			{
				"type": "unocc",
				"energy": 0.09656,
				"method": "rhf"
			}
		],
		"cosmo_sigma_profile": { 
			"-0.025": 0.0,
			"-0.024": 0.0,
			"-0.023": 0.0,
			"-0.022": 0.0,
			"-0.021": 0.0,
			"-0.02": 0.0,
			"-0.019": 0.0,
			"-0.018": 0.865378478561,
			"-0.017": 1.74684222996,
			"-0.016": 1.51798775811,
			"-0.015": 1.1770825908,
			"-0.014": 0.927604127424,
			"-0.013": 0.874604587971,
			"-0.012": 1.60279250511,
			"-0.011": 1.09164772477,
			"-0.01": 0.676988356122,
			"-0.009": 1.59921192367,
			"-0.008": 3.80646633565,
			"-0.007": 4.45428326399,
			"-0.006": 6.71435711444,
			"-0.005": 6.42899037609,
			"-0.004": 6.07609061929,
			"-0.003": 7.46724138909,
			"-0.002": 7.23648730918,
			"-0.001": 15.1405797058,
			"0.0": 21.4655680565,
			"0.001": 17.6776636052,
			"0.002": 31.6137960278,
			"0.003": 20.8948960377,
			"0.004": 4.32375925939,
			"0.005": 3.57134109118,
			"0.006": 2.65464344774,
			"0.007": 2.55625064119,
			"0.008": 2.88097191317,
			"0.009": 2.42976322405,
			"0.01": 1.40723312509,
			"0.011": 2.2265726845,
			"0.012": 1.78021272569,
			"0.013": 1.11288069331,
			"0.014": 0.809855817305,
			"0.015": 0.732629238224,
			"0.016": 1.01259813145,
			"0.017": 0.114548009469,
			"0.018": 0.0,
			"0.019": 0.0,
			"0.02": 0.0,
			"0.021": 0.0,
			"0.022": 0.0,
			"0.023": 0.0,
			"0.024": 0.0,
			"0.025": 0.0
		}
	}
}
