{
	 "smiles": "CC1=C(CC(=O)C(F)(F)F)N=CC=C1", 
	 "Tm": 395.15, 
	 "num_atms": 22, 
	 "gaussian": { 
		 "optdone": 1, 
		 "sigma_profile": "yes", 
		 "theory": "DFT", 
		 "functional": "B3LYP", 
		 "basiset": "6-31G**", 
		 "properties": { 
			 "R2extent": 2773.7676, 
			 "electric_dipole_moment_norm": 3.32740444641, 
			 "electric_quadrupole_moment_norm": 8.75416829459, 
			 "total_energy": -777.268018794, 
			 "HOMO_LUMO_gap": 0.19146, 
			 "cosmo_polarized_energy": -8.06, 
			 "cosmo_cavitation_energy": 27.5, 
			 "cosmo_dispersion_energy": -19.04, 
			 "cosmo_repulsion_energy": 1.44, 
			 "cosmo_total_nonelectrostatic_energy": 9.89, 
			 "SMD_solvation_energy": 5.53 
		},
		"coords": [
			{
				"x": 0.0919554334,
				"y": -1.7547013316,
				"z": -2.1827555983,
				"element": "C" 
			},
			{
				"x": 0.8019717016,
				"y": -1.4350063275,
				"z": -0.8889715189,
				"element": "C" 
			},
			{
				"x": 0.7883651799,
				"y": -0.1454061315,
				"z": -0.3163917847,
				"element": "C" 
			},
			{
				"x": 0.0225187873,
				"y": 1.0052845583,
				"z": -0.9636836656,
				"element": "C" 
			},
			{
				"x": -1.4589929581,
				"y": 0.960196623,
				"z": -0.6227036161,
				"element": "C" 
			},
			{
				"x": -2.3153383396,
				"y": 0.4992830263,
				"z": -1.3421087571,
				"element": "O" 
			},
			{
				"x": -1.8732523671,
				"y": 1.5286260845,
				"z": 0.7621517163,
				"element": "C" 
			},
			{
				"x": -1.2962565446,
				"y": 2.7299157747,
				"z": 0.973213249,
				"element": "F" 
			},
			{
				"x": -1.4752262695,
				"y": 0.6930843455,
				"z": 1.7400330328,
				"element": "F" 
			},
			{
				"x": -3.1981608277,
				"y": 1.6769604901,
				"z": 0.8437512038,
				"element": "F" 
			},
			{
				"x": 1.4325705119,
				"y": 0.1669909928,
				"z": 0.8150107415,
				"element": "N" 
			},
			{
				"x": 2.1222024239,
				"y": -0.7911464758,
				"z": 1.4422995072,
				"element": "C" 
			},
			{
				"x": 2.2018246065,
				"y": -2.0999153249,
				"z": 0.971676431,
				"element": "C" 
			},
			{
				"x": 1.5335027148,
				"y": -2.4144231932,
				"z": -0.2092056082,
				"element": "C" 
			},
			{
				"x": 0.5568479524,
				"y": -1.2324477508,
				"z": -3.0287609633,
				"element": "H" 
			},
			{
				"x": 0.1383035197,
				"y": -2.8262895317,
				"z": -2.3937968666,
				"element": "H" 
			},
			{
				"x": -0.9586199,
				"y": -1.4529476664,
				"z": -2.1623815583,
				"element": "H" 
			},
			{
				"x": 0.4536530173,
				"y": 1.9368079677,
				"z": -0.5921991519,
				"element": "H" 
			},
			{
				"x": 0.0970214705,
				"y": 0.9699788934,
				"z": -2.0533688516,
				"element": "H" 
			},
			{
				"x": 2.6314853524,
				"y": -0.494857026,
				"z": 2.3572004216,
				"element": "H" 
			},
			{
				"x": 2.7721850216,
				"y": -2.8487785089,
				"z": 1.5120232548,
				"element": "H" 
			},
			{
				"x": 1.5753395135,
				"y": -3.4236094879,
				"z": -0.6112316172,
				"element": "H" 
			}
		],
		 "valence_orbital": [ 
			{
				"type": "occ",
				"energy": -0.3574,
				"method": "rhf"
			},
			{
				"type": "occ",
				"energy": -0.29433,
				"method": "rhf"
			},
			{
				"type": "occ",
				"energy": -0.28323,
				"method": "rhf"
			},
			{
				"type": "occ",
				"energy": -0.2617,
				"method": "rhf"
			},
			{
				"type": "occ",
				"energy": -0.25308,
				"method": "rhf"
			},
			{
				"type": "unocc",
				"energy": -0.06162,
				"method": "rhf"
			},
			{
				"type": "unocc",
				"energy": -0.02652,
				"method": "rhf"
			},
			{
				"type": "unocc",
				"energy": -0.01765,
				"method": "rhf"
			},
			{
				"type": "unocc",
				"energy": 0.08898,
				"method": "rhf"
			},
			{
				"type": "unocc",
				"energy": 0.10045,
				"method": "rhf"
			}
		],
		"cosmo_sigma_profile": { 
			"-0.025": 0.0,
			"-0.024": 0.0,
			"-0.023": 0.0,
			"-0.022": 0.0,
			"-0.021": 0.0,
			"-0.02": 0.0,
			"-0.019": 0.0,
			"-0.018": 0.0,
			"-0.017": 0.0,
			"-0.016": 0.0,
			"-0.015": 0.0,
			"-0.014": 0.0,
			"-0.013": 0.0,
			"-0.012": 0.0,
			"-0.011": 0.0,
			"-0.01": 0.0,
			"-0.009": 0.0,
			"-0.008": 0.7744995463,
			"-0.007": 6.32906320679,
			"-0.006": 14.8493941991,
			"-0.005": 15.7652673645,
			"-0.004": 14.3172893932,
			"-0.003": 14.5055381875,
			"-0.002": 14.9055198464,
			"-0.001": 17.1131783518,
			"0.0": 17.8273898563,
			"0.001": 18.9691420136,
			"0.002": 36.2146126281,
			"0.003": 16.9791978166,
			"0.004": 6.19236997068,
			"0.005": 4.60260479279,
			"0.006": 2.99295721732,
			"0.007": 3.8751153972,
			"0.008": 4.01832983577,
			"0.009": 4.80660483104,
			"0.01": 1.83315252129,
			"0.011": 0.602756049044,
			"0.012": 0.463869432065,
			"0.013": 0.963909522418,
			"0.014": 0.581595415943,
			"0.015": 0.271406456278,
			"0.016": 0.0233021840445,
			"0.017": 0.0,
			"0.018": 0.0,
			"0.019": 0.0,
			"0.02": 0.0,
			"0.021": 0.0,
			"0.022": 0.0,
			"0.023": 0.0,
			"0.024": 0.0,
			"0.025": 0.0
		}
	}
}
