{
	 "smiles": "CCOCCOCCOC(C)=O", 
	 "Tm": 248.15, 
	 "num_atms": 28, 
	 "gaussian": { 
		 "optdone": 1, 
		 "sigma_profile": "yes", 
		 "theory": "DFT", 
		 "functional": "B3LYP", 
		 "basiset": "6-31G**", 
		 "properties": { 
			 "R2extent": 4444.9679, 
			 "electric_dipole_moment_norm": 2.43067990488, 
			 "electric_quadrupole_moment_norm": 14.1319302684, 
			 "total_energy": -615.376652257, 
			 "HOMO_LUMO_gap": 0.26415, 
			 "cosmo_polarized_energy": -12.84, 
			 "cosmo_cavitation_energy": 31.64, 
			 "cosmo_dispersion_energy": -22.05, 
			 "cosmo_repulsion_energy": 1.87, 
			 "cosmo_total_nonelectrostatic_energy": 11.46, 
			 "SMD_solvation_energy": 6.85 
		},
		"coords": [
			{
				"x": 2.2319221283,
				"y": 2.3070860172,
				"z": 1.6286740318,
				"element": "C" 
			},
			{
				"x": 0.826812419,
				"y": 2.2473620675,
				"z": 1.0524483117,
				"element": "C" 
			},
			{
				"x": 0.7499050348,
				"y": 1.1392176991,
				"z": 0.1732264974,
				"element": "O" 
			},
			{
				"x": -0.519572107,
				"y": 0.9911370069,
				"z": -0.4248408162,
				"element": "C" 
			},
			{
				"x": -0.525350586,
				"y": -0.2560083353,
				"z": -1.2874031124,
				"element": "C" 
			},
			{
				"x": -0.5544262966,
				"y": -1.3965470616,
				"z": -0.4493663556,
				"element": "O" 
			},
			{
				"x": -0.6511910961,
				"y": -2.6303968813,
				"z": -1.1327088522,
				"element": "C" 
			},
			{
				"x": 0.6555424468,
				"y": -3.1095645073,
				"z": -1.7611717489,
				"element": "C" 
			},
			{
				"x": 1.6972156761,
				"y": -3.2755406138,
				"z": -0.7802331736,
				"element": "O" 
			},
			{
				"x": 1.6872071714,
				"y": -4.4352110986,
				"z": -0.0816892529,
				"element": "C" 
			},
			{
				"x": 2.8111272911,
				"y": -4.459526585,
				"z": 0.925876618,
				"element": "C" 
			},
			{
				"x": 0.8768938152,
				"y": -5.3209298824,
				"z": -0.2547878309,
				"element": "O" 
			},
			{
				"x": 2.3280502354,
				"y": 3.152824079,
				"z": 2.3168544071,
				"element": "H" 
			},
			{
				"x": 2.4602993758,
				"y": 1.3866429848,
				"z": 2.1735258177,
				"element": "H" 
			},
			{
				"x": 2.9697364198,
				"y": 2.4234074336,
				"z": 0.8294784918,
				"element": "H" 
			},
			{
				"x": 0.5900552277,
				"y": 3.1812034094,
				"z": 0.5126042437,
				"element": "H" 
			},
			{
				"x": 0.081510626,
				"y": 2.1456332805,
				"z": 1.8596543727,
				"element": "H" 
			},
			{
				"x": -1.3105268974,
				"y": 0.905554146,
				"z": 0.3381262678,
				"element": "H" 
			},
			{
				"x": -0.7580205289,
				"y": 1.8644987094,
				"z": -1.0576764782,
				"element": "H" 
			},
			{
				"x": 0.3662890913,
				"y": -0.2422548732,
				"z": -1.9321137103,
				"element": "H" 
			},
			{
				"x": -1.4151006261,
				"y": -0.2376473443,
				"z": -1.9404989576,
				"element": "H" 
			},
			{
				"x": -1.4163040384,
				"y": -2.5854950359,
				"z": -1.9276184005,
				"element": "H" 
			},
			{
				"x": -0.9787262768,
				"y": -3.3668037478,
				"z": -0.3943581459,
				"element": "H" 
			},
			{
				"x": 0.4788890237,
				"y": -4.0589871138,
				"z": -2.2753429823,
				"element": "H" 
			},
			{
				"x": 1.056396938,
				"y": -2.3819111313,
				"z": -2.4702748069,
				"element": "H" 
			},
			{
				"x": 3.768937656,
				"y": -4.2794804244,
				"z": 0.4297366783,
				"element": "H" 
			},
			{
				"x": 2.8243341697,
				"y": -5.4242008267,
				"z": 1.4320998431,
				"element": "H" 
			},
			{
				"x": 2.6671937074,
				"y": -3.6575613706,
				"z": 1.6562790431,
				"element": "H" 
			}
		],
		 "valence_orbital": [ 
			{
				"type": "occ",
				"energy": -0.31169,
				"method": "rhf"
			},
			{
				"type": "occ",
				"energy": -0.29768,
				"method": "rhf"
			},
			{
				"type": "occ",
				"energy": -0.26757,
				"method": "rhf"
			},
			{
				"type": "occ",
				"energy": -0.25712,
				"method": "rhf"
			},
			{
				"type": "occ",
				"energy": -0.24749,
				"method": "rhf"
			},
			{
				"type": "unocc",
				"energy": 0.01666,
				"method": "rhf"
			},
			{
				"type": "unocc",
				"energy": 0.08746,
				"method": "rhf"
			},
			{
				"type": "unocc",
				"energy": 0.09451,
				"method": "rhf"
			},
			{
				"type": "unocc",
				"energy": 0.11476,
				"method": "rhf"
			},
			{
				"type": "unocc",
				"energy": 0.11691,
				"method": "rhf"
			}
		],
		"cosmo_sigma_profile": { 
			"-0.025": 0.0,
			"-0.024": 0.0,
			"-0.023": 0.0,
			"-0.022": 0.0,
			"-0.021": 0.0,
			"-0.02": 0.0,
			"-0.019": 0.0,
			"-0.018": 0.0,
			"-0.017": 0.0,
			"-0.016": 0.0,
			"-0.015": 0.0,
			"-0.014": 0.0,
			"-0.013": 0.0,
			"-0.012": 0.0,
			"-0.011": 0.0,
			"-0.01": 0.0,
			"-0.009": 0.0,
			"-0.008": 0.0,
			"-0.007": 1.61990502393,
			"-0.006": 10.2645261694,
			"-0.005": 19.0251289228,
			"-0.004": 28.9545927346,
			"-0.003": 40.6583451415,
			"-0.002": 33.1228863435,
			"-0.001": 23.1094595076,
			"0.0": 15.1584970288,
			"0.001": 11.1435478797,
			"0.002": 6.48446174063,
			"0.003": 5.62284288565,
			"0.004": 4.61288048543,
			"0.005": 5.40944687441,
			"0.006": 4.11812728495,
			"0.007": 3.51106711783,
			"0.008": 4.72654541197,
			"0.009": 5.81828813961,
			"0.01": 4.73953376054,
			"0.011": 5.00193606517,
			"0.012": 6.82383327147,
			"0.013": 4.33870108426,
			"0.014": 1.85077910839,
			"0.015": 0.0819466227795,
			"0.016": 0.0,
			"0.017": 0.0,
			"0.018": 0.0,
			"0.019": 0.0,
			"0.02": 0.0,
			"0.021": 0.0,
			"0.022": 0.0,
			"0.023": 0.0,
			"0.024": 0.0,
			"0.025": 0.0
		}
	}
}
