{
	 "smiles": "CC1=CC(C)=C(C[S+]([O-])CC2=C(C)C=C(C)C=C2C)C(C)=C1", 
	 "Tm": 483.15, 
	 "num_atms": 48, 
	 "gaussian": { 
		 "optdone": 1, 
		 "sigma_profile": "yes", 
		 "theory": "DFT", 
		 "functional": "B3LYP", 
		 "basiset": "6-31G**", 
		 "properties": { 
			 "R2extent": 9296.9867, 
			 "electric_dipole_moment_norm": 3.96199497223, 
			 "electric_quadrupole_moment_norm": 14.9125019705, 
			 "total_energy": -1251.20931384, 
			 "HOMO_LUMO_gap": 0.1901, 
			 "cosmo_polarized_energy": -14.17, 
			 "cosmo_cavitation_energy": 49.15, 
			 "cosmo_dispersion_energy": -32.97, 
			 "cosmo_repulsion_energy": 2.48, 
			 "cosmo_total_nonelectrostatic_energy": 18.67, 
			 "SMD_solvation_energy": 7.65 
		},
		"coords": [
			{
				"x": 2.6293331451,
				"y": 5.5500551144,
				"z": -0.090451096,
				"element": "C" 
			},
			{
				"x": 1.8683936931,
				"y": 4.2814164843,
				"z": 0.214476301,
				"element": "C" 
			},
			{
				"x": 1.152998601,
				"y": 4.1414270108,
				"z": 1.4071642343,
				"element": "C" 
			},
			{
				"x": 0.4120200382,
				"y": 2.9928408428,
				"z": 1.6999968261,
				"element": "C" 
			},
			{
				"x": -0.3402334171,
				"y": 2.9107949045,
				"z": 3.0107633688,
				"element": "C" 
			},
			{
				"x": 0.3940796643,
				"y": 1.9327068524,
				"z": 0.7658953954,
				"element": "C" 
			},
			{
				"x": -0.3920262837,
				"y": 0.680650151,
				"z": 1.0523008401,
				"element": "C" 
			},
			{
				"x": -2.1242563913,
				"y": 0.7922450775,
				"z": 0.3640721608,
				"element": "S" 
			},
			{
				"x": -2.9270912418,
				"y": 1.6975944626,
				"z": 1.2776030052,
				"element": "O" 
			},
			{
				"x": -2.6770843701,
				"y": -0.9561161803,
				"z": 0.7862645197,
				"element": "C" 
			},
			{
				"x": -2.0192210269,
				"y": -2.0435152961,
				"z": -0.0185875265,
				"element": "C" 
			},
			{
				"x": -1.0705598124,
				"y": -2.9123255027,
				"z": 0.5693543729,
				"element": "C" 
			},
			{
				"x": -0.7166070936,
				"y": -2.8470559838,
				"z": 2.0408165745,
				"element": "C" 
			},
			{
				"x": -0.4603055758,
				"y": -3.8936390781,
				"z": -0.2199393964,
				"element": "C" 
			},
			{
				"x": -0.7627178277,
				"y": -4.0537479843,
				"z": -1.5739665737,
				"element": "C" 
			},
			{
				"x": -0.1079769336,
				"y": -5.1371658656,
				"z": -2.3977807522,
				"element": "C" 
			},
			{
				"x": -1.720718105,
				"y": -3.2034077365,
				"z": -2.1322856856,
				"element": "C" 
			},
			{
				"x": -2.3580120242,
				"y": -2.2106497189,
				"z": -1.3827372021,
				"element": "C" 
			},
			{
				"x": -3.4215927453,
				"y": -1.361440546,
				"z": -2.0446819452,
				"element": "C" 
			},
			{
				"x": 1.1104792505,
				"y": 2.0543210235,
				"z": -0.4447479042,
				"element": "C" 
			},
			{
				"x": 1.1234443553,
				"y": 0.9433888743,
				"z": -1.4722603691,
				"element": "C" 
			},
			{
				"x": 1.8354600152,
				"y": 3.2232152883,
				"z": -0.6966202246,
				"element": "C" 
			},
			{
				"x": 1.9732986662,
				"y": 6.3073375887,
				"z": -0.5381343813,
				"element": "H" 
			},
			{
				"x": 3.4454257743,
				"y": 5.3683703712,
				"z": -0.7962381799,
				"element": "H" 
			},
			{
				"x": 3.0562534591,
				"y": 5.9890503238,
				"z": 0.816769792,
				"element": "H" 
			},
			{
				"x": 1.1672887604,
				"y": 4.9522351217,
				"z": 2.1323159675,
				"element": "H" 
			},
			{
				"x": -1.397692695,
				"y": 2.6842786915,
				"z": 2.8470369508,
				"element": "H" 
			},
			{
				"x": -0.2676266191,
				"y": 3.8565160062,
				"z": 3.5542367416,
				"element": "H" 
			},
			{
				"x": 0.070672356,
				"y": 2.1287960166,
				"z": 3.6634985801,
				"element": "H" 
			},
			{
				"x": 0.0500233613,
				"y": -0.2046773361,
				"z": 0.5890322296,
				"element": "H" 
			},
			{
				"x": -0.5130553373,
				"y": 0.5016086054,
				"z": 2.1232641002,
				"element": "H" 
			},
			{
				"x": -2.5358108778,
				"y": -1.056388979,
				"z": 1.8636791248,
				"element": "H" 
			},
			{
				"x": -3.7528588906,
				"y": -0.8906430114,
				"z": 0.5988269399,
				"element": "H" 
			},
			{
				"x": -0.0102388203,
				"y": -3.6400975188,
				"z": 2.2987782855,
				"element": "H" 
			},
			{
				"x": -1.6000064371,
				"y": -2.9764732566,
				"z": 2.6768187901,
				"element": "H" 
			},
			{
				"x": -0.255495506,
				"y": -1.8951921105,
				"z": 2.3233801114,
				"element": "H" 
			},
			{
				"x": 0.2691306896,
				"y": -4.5557687872,
				"z": 0.2413986777,
				"element": "H" 
			},
			{
				"x": -0.7162221874,
				"y": -6.0504777584,
				"z": -2.4064677258,
				"element": "H" 
			},
			{
				"x": 0.0215337057,
				"y": -4.8254714417,
				"z": -3.4387872069,
				"element": "H" 
			},
			{
				"x": 0.8748370627,
				"y": -5.4051164505,
				"z": -1.9988123097,
				"element": "H" 
			},
			{
				"x": -1.9851152503,
				"y": -3.3172069376,
				"z": -3.1813821979,
				"element": "H" 
			},
			{
				"x": -3.5322853142,
				"y": -1.6321601571,
				"z": -3.0976166893,
				"element": "H" 
			},
			{
				"x": -4.3995401612,
				"y": -1.4990501541,
				"z": -1.566186365,
				"element": "H" 
			},
			{
				"x": -3.1908322028,
				"y": -0.2929893001,
				"z": -1.9962418147,
				"element": "H" 
			},
			{
				"x": 0.1133557208,
				"y": 0.670076461,
				"z": -1.7963754853,
				"element": "H" 
			},
			{
				"x": 1.6859209496,
				"y": 1.2445478224,
				"z": -2.3596691214,
				"element": "H" 
			},
			{
				"x": 1.5906514645,
				"y": 0.0300486165,
				"z": -1.0825182553,
				"element": "H" 
			},
			{
				"x": 2.3878824147,
				"y": 3.3072553798,
				"z": -1.6300554818,
				"element": "H" 
			}
		],
		 "valence_orbital": [ 
			{
				"type": "occ",
				"energy": -0.24526,
				"method": "rhf"
			},
			{
				"type": "occ",
				"energy": -0.24203,
				"method": "rhf"
			},
			{
				"type": "occ",
				"energy": -0.23016,
				"method": "rhf"
			},
			{
				"type": "occ",
				"energy": -0.22059,
				"method": "rhf"
			},
			{
				"type": "occ",
				"energy": -0.21005,
				"method": "rhf"
			},
			{
				"type": "unocc",
				"energy": -0.01995,
				"method": "rhf"
			},
			{
				"type": "unocc",
				"energy": -0.00549,
				"method": "rhf"
			},
			{
				"type": "unocc",
				"energy": -0.00136,
				"method": "rhf"
			},
			{
				"type": "unocc",
				"energy": 0.01111,
				"method": "rhf"
			},
			{
				"type": "unocc",
				"energy": 0.04321,
				"method": "rhf"
			}
		],
		"cosmo_sigma_profile": { 
			"-0.025": 0.0,
			"-0.024": 0.0,
			"-0.023": 0.0,
			"-0.022": 0.0,
			"-0.021": 0.0,
			"-0.02": 0.0,
			"-0.019": 0.0,
			"-0.018": 0.0,
			"-0.017": 0.0,
			"-0.016": 0.0,
			"-0.015": 0.0,
			"-0.014": 0.0,
			"-0.013": 0.0,
			"-0.012": 0.0,
			"-0.011": 0.0,
			"-0.01": 0.0,
			"-0.009": 0.050274386484,
			"-0.008": 0.808089591968,
			"-0.007": 2.24752603899,
			"-0.006": 7.81536533044,
			"-0.005": 17.3210901964,
			"-0.004": 44.0736237668,
			"-0.003": 43.7306950069,
			"-0.002": 43.2091923733,
			"-0.001": 41.5649853951,
			"0.0": 51.7043992594,
			"0.001": 34.4689040062,
			"0.002": 19.1952953523,
			"0.003": 15.2176704009,
			"0.004": 14.2585896427,
			"0.005": 15.5803009633,
			"0.006": 14.049309679,
			"0.007": 4.52458983087,
			"0.008": 1.42290355903,
			"0.009": 1.16490120404,
			"0.01": 1.6251950565,
			"0.011": 0.992482783151,
			"0.012": 1.73333549866,
			"0.013": 2.00330281916,
			"0.014": 2.45656071017,
			"0.015": 3.80465553594,
			"0.016": 1.62989925222,
			"0.017": 0.0949699432093,
			"0.018": 0.0,
			"0.019": 0.0,
			"0.02": 0.0,
			"0.021": 0.0,
			"0.022": 0.0,
			"0.023": 0.0,
			"0.024": 0.0,
			"0.025": 0.0
		}
	}
}
