{
	 "smiles": "CC(=O)C1=C(O)C=CO1", 
	 "Tm": 373.15, 
	 "num_atms": 15, 
	 "gaussian": { 
		 "optdone": 1, 
		 "sigma_profile": "yes", 
		 "theory": "DFT", 
		 "functional": "B3LYP", 
		 "basiset": "6-31G**", 
		 "properties": { 
			 "R2extent": 1460.9231, 
			 "electric_dipole_moment_norm": 3.18703441149, 
			 "electric_quadrupole_moment_norm": 12.6696663425, 
			 "total_energy": -457.886694981, 
			 "HOMO_LUMO_gap": 0.18796, 
			 "cosmo_polarized_energy": -14.69, 
			 "cosmo_cavitation_energy": 19.49, 
			 "cosmo_dispersion_energy": -14.56, 
			 "cosmo_repulsion_energy": 1.19, 
			 "cosmo_total_nonelectrostatic_energy": 6.12, 
			 "SMD_solvation_energy": 5.52 
		},
		"coords": [
			{
				"x": 0.6329658163,
				"y": 2.6509014849,
				"z": -0.9160904628,
				"element": "C" 
			},
			{
				"x": 0.773804483,
				"y": 1.2099933718,
				"z": -0.4297293359,
				"element": "C" 
			},
			{
				"x": 1.6762640067,
				"y": 0.886560797,
				"z": 0.3295531367,
				"element": "O" 
			},
			{
				"x": -0.2149660904,
				"y": 0.2560845665,
				"z": -0.9159611124,
				"element": "C" 
			},
			{
				"x": -1.3141414461,
				"y": 0.3362232551,
				"z": -1.7603071375,
				"element": "C" 
			},
			{
				"x": -1.8301609202,
				"y": 1.3922839771,
				"z": -2.4277241393,
				"element": "O" 
			},
			{
				"x": -1.8849203248,
				"y": -0.9666155706,
				"z": -1.8418399523,
				"element": "C" 
			},
			{
				"x": -1.1014466458,
				"y": -1.7514334735,
				"z": -1.046489785,
				"element": "C" 
			},
			{
				"x": -0.1007398627,
				"y": -1.0502311676,
				"z": -0.4834334885,
				"element": "O" 
			},
			{
				"x": 0.7209210954,
				"y": 2.7140072507,
				"z": -2.0087732864,
				"element": "H" 
			},
			{
				"x": 1.4331518082,
				"y": 3.2450905379,
				"z": -0.4730004952,
				"element": "H" 
			},
			{
				"x": -0.3284255357,
				"y": 3.0841503186,
				"z": -0.6100204482,
				"element": "H" 
			},
			{
				"x": -1.3107535049,
				"y": 2.1861891413,
				"z": -2.247153444,
				"element": "H" 
			},
			{
				"x": -2.7527126741,
				"y": -1.2565142124,
				"z": -2.4147598668,
				"element": "H" 
			},
			{
				"x": -1.1407402046,
				"y": -2.8013902769,
				"z": -0.7967701825,
				"element": "H" 
			}
		],
		 "valence_orbital": [ 
			{
				"type": "occ",
				"energy": -0.3614,
				"method": "rhf"
			},
			{
				"type": "occ",
				"energy": -0.35879,
				"method": "rhf"
			},
			{
				"type": "occ",
				"energy": -0.27056,
				"method": "rhf"
			},
			{
				"type": "occ",
				"energy": -0.24762,
				"method": "rhf"
			},
			{
				"type": "occ",
				"energy": -0.23333,
				"method": "rhf"
			},
			{
				"type": "unocc",
				"energy": -0.04537,
				"method": "rhf"
			},
			{
				"type": "unocc",
				"energy": 0.0339,
				"method": "rhf"
			},
			{
				"type": "unocc",
				"energy": 0.04902,
				"method": "rhf"
			},
			{
				"type": "unocc",
				"energy": 0.09632,
				"method": "rhf"
			},
			{
				"type": "unocc",
				"energy": 0.10804,
				"method": "rhf"
			}
		],
		"cosmo_sigma_profile": { 
			"-0.025": 0.0,
			"-0.024": 0.0,
			"-0.023": 0.0,
			"-0.022": 0.0,
			"-0.021": 0.0,
			"-0.02": 0.0,
			"-0.019": 0.0,
			"-0.018": 0.0,
			"-0.017": 0.0161956996609,
			"-0.016": 0.526797338948,
			"-0.015": 1.29952437308,
			"-0.014": 1.1680395343,
			"-0.013": 1.46113389605,
			"-0.012": 1.14016433608,
			"-0.011": 1.85403771388,
			"-0.01": 3.2390758005,
			"-0.009": 4.24692845915,
			"-0.008": 6.05155277468,
			"-0.007": 5.97567999436,
			"-0.006": 6.81987921794,
			"-0.005": 9.26781782475,
			"-0.004": 6.62657277549,
			"-0.003": 7.63298491961,
			"-0.002": 10.4201517463,
			"-0.001": 8.46593940232,
			"0.0": 8.27624256842,
			"0.001": 13.6252573627,
			"0.002": 10.0900046028,
			"0.003": 5.83113972009,
			"0.004": 5.16081873931,
			"0.005": 3.57322848507,
			"0.006": 3.24189049952,
			"0.007": 3.92444920369,
			"0.008": 4.05411972814,
			"0.009": 3.92150304218,
			"0.01": 3.24641119532,
			"0.011": 2.87730738853,
			"0.012": 4.42887048221,
			"0.013": 5.08552317126,
			"0.014": 2.28094456702,
			"0.015": 0.10975788359,
			"0.016": 0.0,
			"0.017": 0.0,
			"0.018": 0.0,
			"0.019": 0.0,
			"0.02": 0.0,
			"0.021": 0.0,
			"0.022": 0.0,
			"0.023": 0.0,
			"0.024": 0.0,
			"0.025": 0.0
		}
	}
}
