{
	 "smiles": "COC1=CC=C(C=C1OC)C(=C/C(=O)N1CCOCC1)C1=CC=C(F)C=C1", 
	 "Tm": 381.15, 
	 "num_atms": 49, 
	 "gaussian": { 
		 "optdone": 1, 
		 "sigma_profile": "yes", 
		 "theory": "DFT", 
		 "functional": "B3LYP", 
		 "basiset": "6-31G**", 
		 "properties": { 
			 "R2extent": 10892.724, 
			 "electric_dipole_moment_norm": 4.28800173974, 
			 "electric_quadrupole_moment_norm": 5.47735027454, 
			 "total_energy": -1268.92776911, 
			 "HOMO_LUMO_gap": 0.17003, 
			 "cosmo_polarized_energy": -17.81, 
			 "cosmo_cavitation_energy": 51.74, 
			 "cosmo_dispersion_energy": -33.02, 
			 "cosmo_repulsion_energy": 2.5, 
			 "cosmo_total_nonelectrostatic_energy": 21.22, 
			 "SMD_solvation_energy": 10.62 
		},
		"coords": [
			{
				"x": 3.8394664863,
				"y": 3.4745829412,
				"z": -0.9147432642,
				"element": "C" 
			},
			{
				"x": 3.970524524,
				"y": 2.3039141916,
				"z": -0.102724149,
				"element": "O" 
			},
			{
				"x": 2.8947475483,
				"y": 1.4561747286,
				"z": -0.0737907302,
				"element": "C" 
			},
			{
				"x": 3.0525778987,
				"y": 0.1587899756,
				"z": -0.5537097975,
				"element": "C" 
			},
			{
				"x": 2.0132436754,
				"y": -0.7716288868,
				"z": -0.4866999246,
				"element": "C" 
			},
			{
				"x": 0.7775988067,
				"y": -0.4038038762,
				"z": 0.0597874156,
				"element": "C" 
			},
			{
				"x": 0.6198067844,
				"y": 0.9016860161,
				"z": 0.5679072989,
				"element": "C" 
			},
			{
				"x": 1.6594561513,
				"y": 1.8304211146,
				"z": 0.5090645517,
				"element": "C" 
			},
			{
				"x": 1.5868905417,
				"y": 3.1035517545,
				"z": 0.9977251842,
				"element": "O" 
			},
			{
				"x": 0.3920362187,
				"y": 3.506166188,
				"z": 1.6502806177,
				"element": "C" 
			},
			{
				"x": -0.3599333432,
				"y": -1.3658584023,
				"z": 0.1167807979,
				"element": "C" 
			},
			{
				"x": -0.7045818719,
				"y": -2.1419339155,
				"z": -0.93503807,
				"element": "C" 
			},
			{
				"x": -0.0246065797,
				"y": -2.2245705517,
				"z": -2.2726874535,
				"element": "C" 
			},
			{
				"x": 0.6425478901,
				"y": -3.2252074776,
				"z": -2.5388190328,
				"element": "O" 
			},
			{
				"x": -0.2017493719,
				"y": -1.2047388986,
				"z": -3.171907364,
				"element": "N" 
			},
			{
				"x": 0.4517236122,
				"y": -1.2743058554,
				"z": -4.4791390318,
				"element": "C" 
			},
			{
				"x": 1.1888520242,
				"y": 0.0375253206,
				"z": -4.7493026988,
				"element": "C" 
			},
			{
				"x": 0.3135365227,
				"y": 1.1551683537,
				"z": -4.6349463443,
				"element": "O" 
			},
			{
				"x": -0.2464689348,
				"y": 1.2360853625,
				"z": -3.3308644893,
				"element": "C" 
			},
			{
				"x": -1.0454678991,
				"y": -0.0266022887,
				"z": -2.9934669029,
				"element": "C" 
			},
			{
				"x": -1.1155150708,
				"y": -1.4764787304,
				"z": 1.3975825902,
				"element": "C" 
			},
			{
				"x": -2.5071874308,
				"y": -1.6766059337,
				"z": 1.40700599,
				"element": "C" 
			},
			{
				"x": -3.2118123732,
				"y": -1.8201595122,
				"z": 2.6006253435,
				"element": "C" 
			},
			{
				"x": -2.5124613367,
				"y": -1.7559811045,
				"z": 3.8003831949,
				"element": "C" 
			},
			{
				"x": -3.1872557623,
				"y": -1.8876142296,
				"z": 4.9608327276,
				"element": "F" 
			},
			{
				"x": -1.1379000367,
				"y": -1.5483117044,
				"z": 3.836728771,
				"element": "C" 
			},
			{
				"x": -0.4491765575,
				"y": -1.4042944006,
				"z": 2.6344630774,
				"element": "C" 
			},
			{
				"x": 3.6299982476,
				"y": 3.2035340029,
				"z": -1.9577074675,
				"element": "H" 
			},
			{
				"x": 3.0530900377,
				"y": 4.137138044,
				"z": -0.543497347,
				"element": "H" 
			},
			{
				"x": 4.8031300689,
				"y": 3.9852293273,
				"z": -0.8640564618,
				"element": "H" 
			},
			{
				"x": 4.0194994138,
				"y": -0.1119000663,
				"z": -0.96590099,
				"element": "H" 
			},
			{
				"x": 2.1623708725,
				"y": -1.7805095309,
				"z": -0.8551692238,
				"element": "H" 
			},
			{
				"x": -0.3275618643,
				"y": 1.1758832248,
				"z": 1.0160878139,
				"element": "H" 
			},
			{
				"x": 0.1749754246,
				"y": 2.8729450593,
				"z": 2.5194473658,
				"element": "H" 
			},
			{
				"x": 0.5633784107,
				"y": 4.5304041267,
				"z": 1.9843465626,
				"element": "H" 
			},
			{
				"x": -0.468779744,
				"y": 3.4876728123,
				"z": 0.96936748,
				"element": "H" 
			},
			{
				"x": -1.4555059798,
				"y": -2.9155576628,
				"z": -0.7927997878,
				"element": "H" 
			},
			{
				"x": -0.3069285711,
				"y": -1.4347546427,
				"z": -5.2583911762,
				"element": "H" 
			},
			{
				"x": 1.1308989435,
				"y": -2.1276706986,
				"z": -4.4702697804,
				"element": "H" 
			},
			{
				"x": 2.0286351101,
				"y": 0.1403406768,
				"z": -4.0434480876,
				"element": "H" 
			},
			{
				"x": 1.5827993009,
				"y": 0.0541950683,
				"z": -5.7696744335,
				"element": "H" 
			},
			{
				"x": -0.9016789195,
				"y": 2.1126396635,
				"z": -3.3266815055,
				"element": "H" 
			},
			{
				"x": 0.5458391511,
				"y": 1.381722088,
				"z": -2.5802437991,
				"element": "H" 
			},
			{
				"x": -1.4146615862,
				"y": 0.0105481291,
				"z": -1.9687216573,
				"element": "H" 
			},
			{
				"x": -1.9085335671,
				"y": -0.0934563705,
				"z": -3.6726822516,
				"element": "H" 
			},
			{
				"x": -3.0475693941,
				"y": -1.7029111274,
				"z": 0.4658278755,
				"element": "H" 
			},
			{
				"x": -4.2863963011,
				"y": -1.9672349197,
				"z": 2.6130346102,
				"element": "H" 
			},
			{
				"x": -0.6270615575,
				"y": -1.5068423845,
				"z": 4.7927114894,
				"element": "H" 
			},
			{
				"x": 0.624470387,
				"y": -1.2485849983,
				"z": 2.6519924637,
				"element": "H" 
			}
		],
		 "valence_orbital": [ 
			{
				"type": "occ",
				"energy": -0.25064,
				"method": "rhf"
			},
			{
				"type": "occ",
				"energy": -0.24901,
				"method": "rhf"
			},
			{
				"type": "occ",
				"energy": -0.23255,
				"method": "rhf"
			},
			{
				"type": "occ",
				"energy": -0.22864,
				"method": "rhf"
			},
			{
				"type": "occ",
				"energy": -0.21379,
				"method": "rhf"
			},
			{
				"type": "unocc",
				"energy": -0.04376,
				"method": "rhf"
			},
			{
				"type": "unocc",
				"energy": -0.01941,
				"method": "rhf"
			},
			{
				"type": "unocc",
				"energy": -0.00983,
				"method": "rhf"
			},
			{
				"type": "unocc",
				"energy": 0.00236,
				"method": "rhf"
			},
			{
				"type": "unocc",
				"energy": 0.02714,
				"method": "rhf"
			}
		],
		"cosmo_sigma_profile": { 
			"-0.025": 0.0,
			"-0.024": 0.0,
			"-0.023": 0.0,
			"-0.022": 0.0,
			"-0.021": 0.0,
			"-0.02": 0.0,
			"-0.019": 0.0,
			"-0.018": 0.0,
			"-0.017": 0.0,
			"-0.016": 0.0,
			"-0.015": 0.0,
			"-0.014": 0.0,
			"-0.013": 0.0,
			"-0.012": 0.0,
			"-0.011": 0.0,
			"-0.01": 0.0,
			"-0.009": 0.0,
			"-0.008": 0.43451765018,
			"-0.007": 5.20322349275,
			"-0.006": 18.9139961098,
			"-0.005": 37.4540028098,
			"-0.004": 42.2144219434,
			"-0.003": 42.9888376605,
			"-0.002": 38.0105252104,
			"-0.001": 28.072893546,
			"0.0": 34.4578075629,
			"0.001": 31.8074488964,
			"0.002": 26.7606874749,
			"0.003": 25.9334787552,
			"0.004": 24.3719476416,
			"0.005": 9.43223450534,
			"0.006": 5.74517302474,
			"0.007": 6.07902686035,
			"0.008": 4.27968925346,
			"0.009": 3.28172314608,
			"0.01": 5.69983030944,
			"0.011": 4.38730860683,
			"0.012": 4.34409162098,
			"0.013": 4.86752364292,
			"0.014": 3.94779233085,
			"0.015": 1.44923627348,
			"0.016": 0.047215281868,
			"0.017": 0.0,
			"0.018": 0.0,
			"0.019": 0.0,
			"0.02": 0.0,
			"0.021": 0.0,
			"0.022": 0.0,
			"0.023": 0.0,
			"0.024": 0.0,
			"0.025": 0.0
		}
	}
}
