{
	 "smiles": "CC(=O)C1=CC2=C(O1)C=CC(C)=N2", 
	 "Tm": 393.15, 
	 "num_atms": 22, 
	 "gaussian": { 
		 "optdone": 1, 
		 "sigma_profile": "yes", 
		 "theory": "DFT", 
		 "functional": "B3LYP", 
		 "basiset": "6-31G**", 
		 "properties": { 
			 "R2extent": 3419.2352, 
			 "electric_dipole_moment_norm": 4.14274369953, 
			 "electric_quadrupole_moment_norm": 10.4147071269, 
			 "total_energy": -591.681321778, 
			 "HOMO_LUMO_gap": 0.16707, 
			 "cosmo_polarized_energy": -10.23, 
			 "cosmo_cavitation_energy": 26.88, 
			 "cosmo_dispersion_energy": -19.75, 
			 "cosmo_repulsion_energy": 1.57, 
			 "cosmo_total_nonelectrostatic_energy": 8.69, 
			 "SMD_solvation_energy": 4.21 
		},
		"coords": [
			{
				"x": -0.6726410127,
				"y": -0.5151981671,
				"z": 3.2384091055,
				"element": "C" 
			},
			{
				"x": -1.7834049488,
				"y": 0.0760621043,
				"z": 2.3957698882,
				"element": "C" 
			},
			{
				"x": -2.8975558395,
				"y": 0.3131906242,
				"z": 2.8378189428,
				"element": "O" 
			},
			{
				"x": -1.4853476626,
				"y": 0.3712605747,
				"z": 0.9803138225,
				"element": "C" 
			},
			{
				"x": -2.2789181923,
				"y": 0.8977330792,
				"z": 0.0011601303,
				"element": "C" 
			},
			{
				"x": -1.4647118544,
				"y": 0.9613668171,
				"z": -1.1787600222,
				"element": "C" 
			},
			{
				"x": -0.2078399476,
				"y": 0.4515275119,
				"z": -0.8002876324,
				"element": "C" 
			},
			{
				"x": -0.2106311047,
				"y": 0.0898451545,
				"z": 0.5114926795,
				"element": "O" 
			},
			{
				"x": 0.8373905252,
				"y": 0.3663864281,
				"z": -1.7114699619,
				"element": "C" 
			},
			{
				"x": 0.536646034,
				"y": 0.8170655658,
				"z": -2.9912549155,
				"element": "C" 
			},
			{
				"x": -0.7526459362,
				"y": 1.3208984297,
				"z": -3.3102996759,
				"element": "C" 
			},
			{
				"x": -1.0470204984,
				"y": 1.8027787286,
				"z": -4.7103726592,
				"element": "C" 
			},
			{
				"x": -1.7465770637,
				"y": 1.3956305318,
				"z": -2.4212378242,
				"element": "N" 
			},
			{
				"x": -0.3284719316,
				"y": -1.4632707627,
				"z": 2.81124987,
				"element": "H" 
			},
			{
				"x": -1.0435344881,
				"y": -0.6754348903,
				"z": 4.2510655121,
				"element": "H" 
			},
			{
				"x": 0.1936076879,
				"y": 0.1548501377,
				"z": 3.2584890243,
				"element": "H" 
			},
			{
				"x": -3.3091859858,
				"y": 1.1972956697,
				"z": 0.1188869399,
				"element": "H" 
			},
			{
				"x": 1.813847905,
				"y": -0.0225890993,
				"z": -1.4430807564,
				"element": "H" 
			},
			{
				"x": 1.2960689488,
				"y": 0.7865660699,
				"z": -3.7666468213,
				"element": "H" 
			},
			{
				"x": -0.9044617147,
				"y": 1.0017001851,
				"z": -5.4447664562,
				"element": "H" 
			},
			{
				"x": -0.3816100867,
				"y": 2.625689726,
				"z": -4.9957430622,
				"element": "H" 
			},
			{
				"x": -2.0792028333,
				"y": 2.1509455811,
				"z": -4.7676361277,
				"element": "H" 
			}
		],
		 "valence_orbital": [ 
			{
				"type": "occ",
				"energy": -0.31504,
				"method": "rhf"
			},
			{
				"type": "occ",
				"energy": -0.26275,
				"method": "rhf"
			},
			{
				"type": "occ",
				"energy": -0.26214,
				"method": "rhf"
			},
			{
				"type": "occ",
				"energy": -0.25762,
				"method": "rhf"
			},
			{
				"type": "occ",
				"energy": -0.24076,
				"method": "rhf"
			},
			{
				"type": "unocc",
				"energy": -0.07369,
				"method": "rhf"
			},
			{
				"type": "unocc",
				"energy": -0.01531,
				"method": "rhf"
			},
			{
				"type": "unocc",
				"energy": 0.00291,
				"method": "rhf"
			},
			{
				"type": "unocc",
				"energy": 0.07677,
				"method": "rhf"
			},
			{
				"type": "unocc",
				"energy": 0.09044,
				"method": "rhf"
			}
		],
		"cosmo_sigma_profile": { 
			"-0.025": 0.0,
			"-0.024": 0.0,
			"-0.023": 0.0,
			"-0.022": 0.0,
			"-0.021": 0.0,
			"-0.02": 0.0,
			"-0.019": 0.0,
			"-0.018": 0.0,
			"-0.017": 0.0,
			"-0.016": 0.0,
			"-0.015": 0.0,
			"-0.014": 0.0,
			"-0.013": 0.0,
			"-0.012": 0.0,
			"-0.011": 0.0,
			"-0.01": 0.0,
			"-0.009": 1.03762325878,
			"-0.008": 3.20282372193,
			"-0.007": 5.84790378072,
			"-0.006": 10.8549208805,
			"-0.005": 14.31486739,
			"-0.004": 16.5990782832,
			"-0.003": 17.6621723847,
			"-0.002": 19.0085192222,
			"-0.001": 23.3394756169,
			"0.0": 23.5804013169,
			"0.001": 20.2095229075,
			"0.002": 14.1719982865,
			"0.003": 6.01056701573,
			"0.004": 5.59251493569,
			"0.005": 4.91128714223,
			"0.006": 3.96573778732,
			"0.007": 3.34437008667,
			"0.008": 2.90547694003,
			"0.009": 2.56713204432,
			"0.01": 2.88006980484,
			"0.011": 5.26333713453,
			"0.012": 4.66610137599,
			"0.013": 1.46494402853,
			"0.014": 0.717649383,
			"0.015": 0.632543371157,
			"0.016": 0.349524202235,
			"0.017": 0.0,
			"0.018": 0.0,
			"0.019": 0.0,
			"0.02": 0.0,
			"0.021": 0.0,
			"0.022": 0.0,
			"0.023": 0.0,
			"0.024": 0.0,
			"0.025": 0.0
		}
	}
}
