{
	 "smiles": "BrC1=CC=C(S1)C1=CC=NO1", 
	 "Tm": 339.65, 
	 "num_atms": 15, 
	 "gaussian": { 
		 "optdone": 1, 
		 "sigma_profile": "yes", 
		 "theory": "DFT", 
		 "functional": "B3LYP", 
		 "basiset": "6-31G**", 
		 "properties": { 
			 "R2extent": 4201.5831, 
			 "electric_dipole_moment_norm": 3.75569972442, 
			 "electric_quadrupole_moment_norm": 11.7595375117, 
			 "total_energy": -3368.64479535, 
			 "HOMO_LUMO_gap": 0.15963, 
			 "cosmo_polarized_energy": -8.55, 
			 "cosmo_cavitation_energy": 24.29, 
			 "cosmo_dispersion_energy": -18.92, 
			 "cosmo_repulsion_energy": 1.46, 
			 "cosmo_total_nonelectrostatic_energy": 6.82, 
			 "SMD_solvation_energy": 2.75 
		},
		"coords": [
			{
				"x": -0.463299018,
				"y": -1.6725257157,
				"z": 3.4190713529,
				"element": "Br" 
			},
			{
				"x": -0.2959235907,
				"y": -0.9632679855,
				"z": 1.6835180529,
				"element": "C" 
			},
			{
				"x": -0.3687389318,
				"y": 0.3571357391,
				"z": 1.3269730019,
				"element": "C" 
			},
			{
				"x": -0.1980418266,
				"y": 0.5381132534,
				"z": -0.0719833223,
				"element": "C" 
			},
			{
				"x": 0.0013830313,
				"y": -0.6400363559,
				"z": -0.7586420624,
				"element": "C" 
			},
			{
				"x": -0.0186400012,
				"y": -2.0144993602,
				"z": 0.328002696,
				"element": "S" 
			},
			{
				"x": 0.207483901,
				"y": -0.8191074265,
				"z": -2.1764741206,
				"element": "C" 
			},
			{
				"x": 0.2711074604,
				"y": 0.0461432297,
				"z": -3.2397842814,
				"element": "C" 
			},
			{
				"x": 0.4971359625,
				"y": -0.8083512701,
				"z": -4.3482223162,
				"element": "C" 
			},
			{
				"x": 0.567232943,
				"y": -2.0754117808,
				"z": -4.008305104,
				"element": "N" 
			},
			{
				"x": 0.382398783,
				"y": -2.0857108886,
				"z": -2.621711918,
				"element": "O" 
			},
			{
				"x": -0.536628157,
				"y": 1.158399215,
				"z": 2.0351010117,
				"element": "H" 
			},
			{
				"x": -0.2217354362,
				"y": 1.5076033283,
				"z": -0.5562046886,
				"element": "H" 
			},
			{
				"x": 0.1725184201,
				"y": 1.1200563829,
				"z": -3.2335055466,
				"element": "H" 
			},
			{
				"x": 0.6123464602,
				"y": -0.5409403651,
				"z": -5.3910327553,
				"element": "H" 
			}
		],
		 "valence_orbital": [ 
			{
				"type": "occ",
				"energy": -0.30739,
				"method": "rhf"
			},
			{
				"type": "occ",
				"energy": -0.30551,
				"method": "rhf"
			},
			{
				"type": "occ",
				"energy": -0.28685,
				"method": "rhf"
			},
			{
				"type": "occ",
				"energy": -0.27435,
				"method": "rhf"
			},
			{
				"type": "occ",
				"energy": -0.22492,
				"method": "rhf"
			},
			{
				"type": "unocc",
				"energy": -0.06529,
				"method": "rhf"
			},
			{
				"type": "unocc",
				"energy": -0.01184,
				"method": "rhf"
			},
			{
				"type": "unocc",
				"energy": 0.00735,
				"method": "rhf"
			},
			{
				"type": "unocc",
				"energy": 0.01068,
				"method": "rhf"
			},
			{
				"type": "unocc",
				"energy": 0.03447,
				"method": "rhf"
			}
		],
		"cosmo_sigma_profile": { 
			"-0.025": 0.0,
			"-0.024": 0.0,
			"-0.023": 0.0,
			"-0.022": 0.0,
			"-0.021": 0.0,
			"-0.02": 0.0,
			"-0.019": 0.0,
			"-0.018": 0.0,
			"-0.017": 0.0,
			"-0.016": 0.0,
			"-0.015": 0.0,
			"-0.014": 0.0,
			"-0.013": 0.0,
			"-0.012": 0.0,
			"-0.011": 0.0,
			"-0.01": 0.671740767353,
			"-0.009": 5.18981888356,
			"-0.008": 7.73467623738,
			"-0.007": 7.44224342769,
			"-0.006": 8.22302809916,
			"-0.005": 7.10770851715,
			"-0.004": 7.1606227285,
			"-0.003": 7.41375746706,
			"-0.002": 10.5035035275,
			"-0.001": 15.2600314117,
			"0.0": 22.0535969431,
			"0.001": 30.9510051612,
			"0.002": 28.8554048694,
			"0.003": 18.6988412084,
			"0.004": 5.374802947,
			"0.005": 1.9291088031,
			"0.006": 3.12002099029,
			"0.007": 3.6936580037,
			"0.008": 2.31967517349,
			"0.009": 1.62064128232,
			"0.01": 1.89887545336,
			"0.011": 1.62052267417,
			"0.012": 1.19277966933,
			"0.013": 1.55337722347,
			"0.014": 0.752956125598,
			"0.015": 0.0214472310293,
			"0.016": 0.0,
			"0.017": 0.0,
			"0.018": 0.0,
			"0.019": 0.0,
			"0.02": 0.0,
			"0.021": 0.0,
			"0.022": 0.0,
			"0.023": 0.0,
			"0.024": 0.0,
			"0.025": 0.0
		}
	}
}
