{
	 "smiles": "BrCCCCOC1=CC=CC=C1", 
	 "Tm": 314.65, 
	 "num_atms": 25, 
	 "gaussian": { 
		 "optdone": 1, 
		 "sigma_profile": "yes", 
		 "theory": "DFT", 
		 "functional": "B3LYP", 
		 "basiset": "6-31G**", 
		 "properties": { 
			 "R2extent": 5701.5824, 
			 "electric_dipole_moment_norm": 2.21412569878, 
			 "electric_quadrupole_moment_norm": 17.6204165794, 
			 "total_energy": -3035.5281594, 
			 "HOMO_LUMO_gap": 0.21381, 
			 "cosmo_polarized_energy": -8.6, 
			 "cosmo_cavitation_energy": 30.17, 
			 "cosmo_dispersion_energy": -22.03, 
			 "cosmo_repulsion_energy": 1.79, 
			 "cosmo_total_nonelectrostatic_energy": 9.93, 
			 "SMD_solvation_energy": 3.86 
		},
		"coords": [
			{
				"x": -3.3769071983,
				"y": 2.1675188086,
				"z": 2.579582759,
				"element": "Br" 
			},
			{
				"x": -1.8203847649,
				"y": 2.3413839259,
				"z": 3.8019201693,
				"element": "C" 
			},
			{
				"x": -0.6954077053,
				"y": 1.3770617495,
				"z": 3.4545638849,
				"element": "C" 
			},
			{
				"x": -0.0149678174,
				"y": 1.6524568909,
				"z": 2.1091347974,
				"element": "C" 
			},
			{
				"x": 1.1172505162,
				"y": 0.6614206249,
				"z": 1.8314239514,
				"element": "C" 
			},
			{
				"x": 1.82577697,
				"y": 0.9576974742,
				"z": 0.6307593411,
				"element": "O" 
			},
			{
				"x": 1.3240513296,
				"y": 0.5560705301,
				"z": -0.5782691776,
				"element": "C" 
			},
			{
				"x": 0.1330505503,
				"y": -0.1573312702,
				"z": -0.7620471457,
				"element": "C" 
			},
			{
				"x": -0.2573774192,
				"y": -0.5240388352,
				"z": -2.0541567625,
				"element": "C" 
			},
			{
				"x": 0.5179047531,
				"y": -0.188038192,
				"z": -3.1615549396,
				"element": "C" 
			},
			{
				"x": 1.7043813267,
				"y": 0.5279868199,
				"z": -2.9693951541,
				"element": "C" 
			},
			{
				"x": 2.1072203376,
				"y": 0.8984145804,
				"z": -1.6911202341,
				"element": "C" 
			},
			{
				"x": -2.2267241842,
				"y": 2.1550072472,
				"z": 4.7953094144,
				"element": "H" 
			},
			{
				"x": -1.5132349488,
				"y": 3.3847498577,
				"z": 3.7229655126,
				"element": "H" 
			},
			{
				"x": 0.0452198533,
				"y": 1.4561881024,
				"z": 4.2650370078,
				"element": "H" 
			},
			{
				"x": -1.0799761285,
				"y": 0.3504907366,
				"z": 3.4858968238,
				"element": "H" 
			},
			{
				"x": 0.4037302954,
				"y": 2.6664252144,
				"z": 2.100523338,
				"element": "H" 
			},
			{
				"x": -0.7572007733,
				"y": 1.6097336931,
				"z": 1.3062207136,
				"element": "H" 
			},
			{
				"x": 0.7461971234,
				"y": -0.3723899879,
				"z": 1.8166604049,
				"element": "H" 
			},
			{
				"x": 1.8737909796,
				"y": 0.7235803472,
				"z": 2.6207849939,
				"element": "H" 
			},
			{
				"x": -0.49673077,
				"y": -0.4260225765,
				"z": 0.0776627779,
				"element": "H" 
			},
			{
				"x": -1.1841291396,
				"y": -1.0757233134,
				"z": -2.1856977817,
				"element": "H" 
			},
			{
				"x": 0.2041069359,
				"y": -0.4754187117,
				"z": -4.1601919227,
				"element": "H" 
			},
			{
				"x": 2.3215857211,
				"y": 0.7989265491,
				"z": -3.8215272233,
				"element": "H" 
			},
			{
				"x": 3.0262741573,
				"y": 1.4507497349,
				"z": -1.5238855488,
				"element": "H" 
			}
		],
		 "valence_orbital": [ 
			{
				"type": "occ",
				"energy": -0.31184,
				"method": "rhf"
			},
			{
				"type": "occ",
				"energy": -0.27544,
				"method": "rhf"
			},
			{
				"type": "occ",
				"energy": -0.27284,
				"method": "rhf"
			},
			{
				"type": "occ",
				"energy": -0.24593,
				"method": "rhf"
			},
			{
				"type": "occ",
				"energy": -0.21426,
				"method": "rhf"
			},
			{
				"type": "unocc",
				"energy": -0.00045,
				"method": "rhf"
			},
			{
				"type": "unocc",
				"energy": 0.00278,
				"method": "rhf"
			},
			{
				"type": "unocc",
				"energy": 0.01735,
				"method": "rhf"
			},
			{
				"type": "unocc",
				"energy": 0.07662,
				"method": "rhf"
			},
			{
				"type": "unocc",
				"energy": 0.09475,
				"method": "rhf"
			}
		],
		"cosmo_sigma_profile": { 
			"-0.025": 0.0,
			"-0.024": 0.0,
			"-0.023": 0.0,
			"-0.022": 0.0,
			"-0.021": 0.0,
			"-0.02": 0.0,
			"-0.019": 0.0,
			"-0.018": 0.0,
			"-0.017": 0.0,
			"-0.016": 0.0,
			"-0.015": 0.0,
			"-0.014": 0.0,
			"-0.013": 0.0,
			"-0.012": 0.0,
			"-0.011": 0.0,
			"-0.01": 0.0,
			"-0.009": 0.0,
			"-0.008": 0.045955662125,
			"-0.007": 3.11446500849,
			"-0.006": 10.4916418351,
			"-0.005": 25.0279797617,
			"-0.004": 28.4300236661,
			"-0.003": 24.9110921136,
			"-0.002": 17.0404552454,
			"-0.001": 15.5718853153,
			"0.0": 11.8057184822,
			"0.001": 13.4479432083,
			"0.002": 12.2226858542,
			"0.003": 13.2829859963,
			"0.004": 16.6601725416,
			"0.005": 16.4533898583,
			"0.006": 20.6610565927,
			"0.007": 7.68509709076,
			"0.008": 1.02508056631,
			"0.009": 1.23873634544,
			"0.01": 1.60400299252,
			"0.011": 0.59605560968,
			"0.012": 0.0,
			"0.013": 0.0,
			"0.014": 0.0,
			"0.015": 0.0,
			"0.016": 0.0,
			"0.017": 0.0,
			"0.018": 0.0,
			"0.019": 0.0,
			"0.02": 0.0,
			"0.021": 0.0,
			"0.022": 0.0,
			"0.023": 0.0,
			"0.024": 0.0,
			"0.025": 0.0
		}
	}
}
