{
	 "smiles": "C1CC2=C(N1)C=CN=C2", 
	 "Tm": 351.15, 
	 "num_atms": 17, 
	 "gaussian": { 
		 "optdone": 1, 
		 "sigma_profile": "yes", 
		 "theory": "DFT", 
		 "functional": "B3LYP", 
		 "basiset": "6-31G**", 
		 "properties": { 
			 "R2extent": 1990.1378, 
			 "electric_dipole_moment_norm": 3.91991475035, 
			 "electric_quadrupole_moment_norm": 15.2476994511, 
			 "total_energy": -381.06408228, 
			 "HOMO_LUMO_gap": 0.21009, 
			 "cosmo_polarized_energy": -10.02, 
			 "cosmo_cavitation_energy": 19.84, 
			 "cosmo_dispersion_energy": -15.37, 
			 "cosmo_repulsion_energy": 1.26, 
			 "cosmo_total_nonelectrostatic_energy": 5.72, 
			 "SMD_solvation_energy": 0.48 
		},
		"coords": [
			{
				"x": 0.2042305547,
				"y": 2.6662398909,
				"z": -0.6225685619,
				"element": "C" 
			},
			{
				"x": -0.2584738425,
				"y": 1.3231837733,
				"z": -1.2460496847,
				"element": "C" 
			},
			{
				"x": -1.414483746,
				"y": 0.9356255342,
				"z": -0.3474615724,
				"element": "C" 
			},
			{
				"x": -1.3480479266,
				"y": 1.713734762,
				"z": 0.8230331504,
				"element": "C" 
			},
			{
				"x": -0.2632919355,
				"y": 2.5764740067,
				"z": 0.7753314833,
				"element": "N" 
			},
			{
				"x": -2.2950436947,
				"y": 1.5184705984,
				"z": 1.8285731969,
				"element": "C" 
			},
			{
				"x": -3.2654230251,
				"y": 0.5383186979,
				"z": 1.5931701584,
				"element": "C" 
			},
			{
				"x": -3.3497956682,
				"y": -0.2134153371,
				"z": 0.4895237726,
				"element": "N" 
			},
			{
				"x": -2.4201689846,
				"y": -0.0070577233,
				"z": -0.4645878877,
				"element": "C" 
			},
			{
				"x": -0.2676428233,
				"y": 3.5126671306,
				"z": -1.1442609906,
				"element": "H" 
			},
			{
				"x": 1.288406588,
				"y": 2.8023945387,
				"z": -0.6624594661,
				"element": "H" 
			},
			{
				"x": -0.5297817417,
				"y": 1.4304322569,
				"z": -2.3000671785,
				"element": "H" 
			},
			{
				"x": 0.5438941143,
				"y": 0.576159337,
				"z": -1.1879578922,
				"element": "H" 
			},
			{
				"x": -0.3138621965,
				"y": 3.4344597624,
				"z": 1.3078983998,
				"element": "H" 
			},
			{
				"x": -2.2942515696,
				"y": 2.0938652198,
				"z": 2.7493006919,
				"element": "H" 
			},
			{
				"x": -4.0275873863,
				"y": 0.3561635499,
				"z": 2.3499603921,
				"element": "H" 
			},
			{
				"x": -2.5047767163,
				"y": -0.6251159983,
				"z": -1.3580780114,
				"element": "H" 
			}
		],
		 "valence_orbital": [ 
			{
				"type": "occ",
				"energy": -0.34313,
				"method": "rhf"
			},
			{
				"type": "occ",
				"energy": -0.31687,
				"method": "rhf"
			},
			{
				"type": "occ",
				"energy": -0.24686,
				"method": "rhf"
			},
			{
				"type": "occ",
				"energy": -0.2388,
				"method": "rhf"
			},
			{
				"type": "occ",
				"energy": -0.21053,
				"method": "rhf"
			},
			{
				"type": "unocc",
				"energy": -0.00044,
				"method": "rhf"
			},
			{
				"type": "unocc",
				"energy": 0.00683,
				"method": "rhf"
			},
			{
				"type": "unocc",
				"energy": 0.08074,
				"method": "rhf"
			},
			{
				"type": "unocc",
				"energy": 0.11142,
				"method": "rhf"
			},
			{
				"type": "unocc",
				"energy": 0.12033,
				"method": "rhf"
			}
		],
		"cosmo_sigma_profile": { 
			"-0.025": 0.0,
			"-0.024": 0.0,
			"-0.023": 0.0,
			"-0.022": 0.0,
			"-0.021": 0.0,
			"-0.02": 0.0,
			"-0.019": 0.0,
			"-0.018": 0.0,
			"-0.017": 0.0,
			"-0.016": 0.0,
			"-0.015": 0.0,
			"-0.014": 0.121654725842,
			"-0.013": 1.08771884496,
			"-0.012": 1.47831091185,
			"-0.011": 1.40842236748,
			"-0.01": 0.691682507863,
			"-0.009": 1.38174478432,
			"-0.008": 1.84524733269,
			"-0.007": 1.97481427163,
			"-0.006": 4.39376271019,
			"-0.005": 10.1403569109,
			"-0.004": 17.5626992724,
			"-0.003": 19.6599064657,
			"-0.002": 15.9494140939,
			"-0.001": 11.9612016017,
			"0.0": 6.57029057528,
			"0.001": 6.6384085389,
			"0.002": 5.82815488075,
			"0.003": 8.39598074637,
			"0.004": 12.812420647,
			"0.005": 6.45537392261,
			"0.006": 3.41965605524,
			"0.007": 2.45783371809,
			"0.008": 2.08025894247,
			"0.009": 2.29963899532,
			"0.01": 2.11532554708,
			"0.011": 1.51001095771,
			"0.012": 1.56221645641,
			"0.013": 1.0119807299,
			"0.014": 0.75436683617,
			"0.015": 1.29148135857,
			"0.016": 0.810544473774,
			"0.017": 0.932510705628,
			"0.018": 0.725787606409,
			"0.019": 0.139888007776,
			"0.02": 0.0,
			"0.021": 0.0,
			"0.022": 0.0,
			"0.023": 0.0,
			"0.024": 0.0,
			"0.025": 0.0
		}
	}
}
