{
	 "smiles": "CN1CCN(CC1)C(=O)C1=C(C=CC=C1)C(O)=O", 
	 "Tm": 548.15, 
	 "num_atms": 34, 
	 "gaussian": { 
		 "optdone": 1, 
		 "sigma_profile": "yes", 
		 "theory": "DFT", 
		 "functional": "B3LYP", 
		 "basiset": "6-31G**", 
		 "properties": { 
			 "R2extent": 5791.8641, 
			 "electric_dipole_moment_norm": 7.305862832, 
			 "electric_quadrupole_moment_norm": 23.8425104301, 
			 "total_energy": -840.209073727, 
			 "HOMO_LUMO_gap": 0.17226, 
			 "cosmo_polarized_energy": -17.6, 
			 "cosmo_cavitation_energy": 35.73, 
			 "cosmo_dispersion_energy": -25.51, 
			 "cosmo_repulsion_energy": 1.96, 
			 "cosmo_total_nonelectrostatic_energy": 12.18, 
			 "SMD_solvation_energy": 4.11 
		},
		"coords": [
			{
				"x": -1.8577459027,
				"y": -4.0032678421,
				"z": 1.2372024672,
				"element": "C" 
			},
			{
				"x": -1.3946956897,
				"y": -3.0131309248,
				"z": 0.277564178,
				"element": "N" 
			},
			{
				"x": -0.3556279755,
				"y": -2.152245474,
				"z": 0.8459554426,
				"element": "C" 
			},
			{
				"x": -0.2093534366,
				"y": -0.8620796472,
				"z": 0.044243062,
				"element": "C" 
			},
			{
				"x": -1.4541571225,
				"y": -0.0780712676,
				"z": 0.1457082362,
				"element": "N" 
			},
			{
				"x": -2.7047216659,
				"y": -0.8627770767,
				"z": 0.1984095399,
				"element": "C" 
			},
			{
				"x": -2.4650729776,
				"y": -2.2558216822,
				"z": -0.3899981972,
				"element": "C" 
			},
			{
				"x": -1.5516534735,
				"y": 1.2658249466,
				"z": -0.0079402122,
				"element": "C" 
			},
			{
				"x": -2.6592160729,
				"y": 1.8251181823,
				"z": -0.1125166169,
				"element": "O" 
			},
			{
				"x": -0.2971659833,
				"y": 2.1026275737,
				"z": 0.0026099548,
				"element": "C" 
			},
			{
				"x": 0.0637453112,
				"y": 2.9558898637,
				"z": -1.0634045036,
				"element": "C" 
			},
			{
				"x": 1.228171829,
				"y": 3.7287628192,
				"z": -0.9423646463,
				"element": "C" 
			},
			{
				"x": 1.9907649172,
				"y": 3.7173533116,
				"z": 0.2212991924,
				"element": "C" 
			},
			{
				"x": 1.608422008,
				"y": 2.9059484354,
				"z": 1.2903660445,
				"element": "C" 
			},
			{
				"x": 0.4800495466,
				"y": 2.0981923919,
				"z": 1.171596011,
				"element": "C" 
			},
			{
				"x": -0.6655681912,
				"y": 3.1094064653,
				"z": -2.3868123314,
				"element": "C" 
			},
			{
				"x": -1.9901385084,
				"y": 2.9349526952,
				"z": -2.4094317825,
				"element": "O" 
			},
			{
				"x": -0.0572728821,
				"y": 3.4195931381,
				"z": -3.3903532169,
				"element": "O" 
			},
			{
				"x": -2.3557848455,
				"y": -3.5697950895,
				"z": 2.1263796618,
				"element": "H" 
			},
			{
				"x": -2.5558131895,
				"y": -4.6941136283,
				"z": 0.7553349736,
				"element": "H" 
			},
			{
				"x": -1.0043314601,
				"y": -4.5907937311,
				"z": 1.5931538422,
				"element": "H" 
			},
			{
				"x": -0.5710764331,
				"y": -1.8804222094,
				"z": 1.897900281,
				"element": "H" 
			},
			{
				"x": 0.6030260057,
				"y": -2.686738605,
				"z": 0.8475474736,
				"element": "H" 
			},
			{
				"x": 0.6274224487,
				"y": -0.2792498518,
				"z": 0.4237276656,
				"element": "H" 
			},
			{
				"x": 0.0021915806,
				"y": -1.1001999578,
				"z": -1.0065553086,
				"element": "H" 
			},
			{
				"x": -3.4695510815,
				"y": -0.3210080381,
				"z": -0.3612521366,
				"element": "H" 
			},
			{
				"x": -3.04737141,
				"y": -0.9303150053,
				"z": 1.239137915,
				"element": "H" 
			},
			{
				"x": -3.395852396,
				"y": -2.8274802421,
				"z": -0.3343319583,
				"element": "H" 
			},
			{
				"x": -2.2292321093,
				"y": -2.1489466759,
				"z": -1.4573256651,
				"element": "H" 
			},
			{
				"x": 1.5123396787,
				"y": 4.3409736004,
				"z": -1.7908719971,
				"element": "H" 
			},
			{
				"x": 2.8767300545,
				"y": 4.3407030396,
				"z": 0.2951037388,
				"element": "H" 
			},
			{
				"x": 2.1853201788,
				"y": 2.8973044854,
				"z": 2.2103649061,
				"element": "H" 
			},
			{
				"x": 0.1826992834,
				"y": 1.4618778272,
				"z": 2.0005165414,
				"element": "H" 
			},
			{
				"x": -2.3559800357,
				"y": 2.7264281733,
				"z": -1.515062555,
				"element": "H" 
			}
		],
		 "valence_orbital": [ 
			{
				"type": "occ",
				"energy": -0.27282,
				"method": "rhf"
			},
			{
				"type": "occ",
				"energy": -0.26547,
				"method": "rhf"
			},
			{
				"type": "occ",
				"energy": -0.26117,
				"method": "rhf"
			},
			{
				"type": "occ",
				"energy": -0.25191,
				"method": "rhf"
			},
			{
				"type": "occ",
				"energy": -0.22199,
				"method": "rhf"
			},
			{
				"type": "unocc",
				"energy": -0.04973,
				"method": "rhf"
			},
			{
				"type": "unocc",
				"energy": -0.03215,
				"method": "rhf"
			},
			{
				"type": "unocc",
				"energy": 0.00782,
				"method": "rhf"
			},
			{
				"type": "unocc",
				"energy": 0.05149,
				"method": "rhf"
			},
			{
				"type": "unocc",
				"energy": 0.06044,
				"method": "rhf"
			}
		],
		"cosmo_sigma_profile": { 
			"-0.025": 0.0,
			"-0.024": 0.0,
			"-0.023": 0.0,
			"-0.022": 0.0,
			"-0.021": 0.0,
			"-0.02": 0.0,
			"-0.019": 0.0,
			"-0.018": 0.0,
			"-0.017": 0.0,
			"-0.016": 0.0,
			"-0.015": 0.0,
			"-0.014": 0.0,
			"-0.013": 0.0,
			"-0.012": 0.0,
			"-0.011": 0.0,
			"-0.01": 0.0,
			"-0.009": 0.0,
			"-0.008": 0.21405097638,
			"-0.007": 6.16182735345,
			"-0.006": 13.6616571971,
			"-0.005": 26.2461379482,
			"-0.004": 36.1161348048,
			"-0.003": 32.8795418602,
			"-0.002": 27.9314469889,
			"-0.001": 24.4114792038,
			"0.0": 18.9238460213,
			"0.001": 12.7921685808,
			"0.002": 14.235795544,
			"0.003": 12.7243157263,
			"0.004": 5.77945077784,
			"0.005": 3.8403871935,
			"0.006": 4.74295096724,
			"0.007": 4.97779360467,
			"0.008": 4.47156040139,
			"0.009": 3.95913815212,
			"0.01": 5.58728403522,
			"0.011": 7.59450540578,
			"0.012": 9.10701549501,
			"0.013": 3.78765535132,
			"0.014": 1.16806479788,
			"0.015": 0.51564971133,
			"0.016": 0.156188136515,
			"0.017": 0.0,
			"0.018": 0.0,
			"0.019": 0.0,
			"0.02": 0.0,
			"0.021": 0.0,
			"0.022": 0.0,
			"0.023": 0.0,
			"0.024": 0.0,
			"0.025": 0.0
		}
	}
}
