{
	 "smiles": "OC(=O)CC1=NN(C=C1)C1=CC=CC=C1", 
	 "Tm": 373.15, 
	 "num_atms": 25, 
	 "gaussian": { 
		 "optdone": 1, 
		 "sigma_profile": "yes", 
		 "theory": "DFT", 
		 "functional": "B3LYP", 
		 "basiset": "6-31G**", 
		 "properties": { 
			 "R2extent": 5233.5155, 
			 "electric_dipole_moment_norm": 0.756087428807, 
			 "electric_quadrupole_moment_norm": 12.948497312, 
			 "total_energy": -685.144405975, 
			 "HOMO_LUMO_gap": 0.19821, 
			 "cosmo_polarized_energy": -13.16, 
			 "cosmo_cavitation_energy": 30.04, 
			 "cosmo_dispersion_energy": -22.1, 
			 "cosmo_repulsion_energy": 1.73, 
			 "cosmo_total_nonelectrostatic_energy": 9.67, 
			 "SMD_solvation_energy": 5.82 
		},
		"coords": [
			{
				"x": 0.1608021658,
				"y": -2.178782198,
				"z": -5.9683986092,
				"element": "O" 
			},
			{
				"x": -0.6654148467,
				"y": -1.678297468,
				"z": -5.0185441147,
				"element": "C" 
			},
			{
				"x": -1.7868984824,
				"y": -2.1003059759,
				"z": -4.844318638,
				"element": "O" 
			},
			{
				"x": -0.0103506024,
				"y": -0.5224036625,
				"z": -4.2863251304,
				"element": "C" 
			},
			{
				"x": -0.5662153657,
				"y": -0.2509213759,
				"z": -2.9198202948,
				"element": "C" 
			},
			{
				"x": 0.2776056513,
				"y": 0.0070916621,
				"z": -1.9229372887,
				"element": "N" 
			},
			{
				"x": -0.5089317179,
				"y": 0.253658817,
				"z": -0.8437779379,
				"element": "N" 
			},
			{
				"x": -1.8373640963,
				"y": 0.1450050841,
				"z": -1.1549670757,
				"element": "C" 
			},
			{
				"x": -1.9155600579,
				"y": -0.1762980953,
				"z": -2.4903636234,
				"element": "C" 
			},
			{
				"x": 0.0779181128,
				"y": 0.5539465758,
				"z": 0.4124545112,
				"element": "C" 
			},
			{
				"x": 1.4127767117,
				"y": 0.204937241,
				"z": 0.6493211752,
				"element": "C" 
			},
			{
				"x": 1.9890037422,
				"y": 0.4919059069,
				"z": 1.8846084658,
				"element": "C" 
			},
			{
				"x": 1.2468724546,
				"y": 1.1157842769,
				"z": 2.8901969193,
				"element": "C" 
			},
			{
				"x": -0.0818993132,
				"y": 1.4640589143,
				"z": 2.6446925161,
				"element": "C" 
			},
			{
				"x": -0.6683565088,
				"y": 1.1945603083,
				"z": 1.4085248387,
				"element": "C" 
			},
			{
				"x": -0.3414149045,
				"y": -2.8777035537,
				"z": -6.4207078152,
				"element": "H" 
			},
			{
				"x": -0.1390750134,
				"y": 0.3551393929,
				"z": -4.9374855414,
				"element": "H" 
			},
			{
				"x": 1.0663297979,
				"y": -0.6939611887,
				"z": -4.2184184359,
				"element": "H" 
			},
			{
				"x": -2.60829276,
				"y": 0.2682227889,
				"z": -0.4105474624,
				"element": "H" 
			},
			{
				"x": -2.8013372189,
				"y": -0.3706100336,
				"z": -3.0731200782,
				"element": "H" 
			},
			{
				"x": 1.974362583,
				"y": -0.2812283958,
				"z": -0.1385632508,
				"element": "H" 
			},
			{
				"x": 3.0250244567,
				"y": 0.2187330801,
				"z": 2.0627663763,
				"element": "H" 
			},
			{
				"x": 1.7005458105,
				"y": 1.3326186925,
				"z": 3.8523969276,
				"element": "H" 
			},
			{
				"x": -0.6672410802,
				"y": 1.9610051115,
				"z": 3.4127557451,
				"element": "H" 
			},
			{
				"x": -1.6912895182,
				"y": 1.500844095,
				"z": 1.2182778213,
				"element": "H" 
			}
		],
		 "valence_orbital": [ 
			{
				"type": "occ",
				"energy": -0.28571,
				"method": "rhf"
			},
			{
				"type": "occ",
				"energy": -0.279,
				"method": "rhf"
			},
			{
				"type": "occ",
				"energy": -0.25721,
				"method": "rhf"
			},
			{
				"type": "occ",
				"energy": -0.24675,
				"method": "rhf"
			},
			{
				"type": "occ",
				"energy": -0.22087,
				"method": "rhf"
			},
			{
				"type": "unocc",
				"energy": -0.02266,
				"method": "rhf"
			},
			{
				"type": "unocc",
				"energy": -0.00699,
				"method": "rhf"
			},
			{
				"type": "unocc",
				"energy": 0.00816,
				"method": "rhf"
			},
			{
				"type": "unocc",
				"energy": 0.04026,
				"method": "rhf"
			},
			{
				"type": "unocc",
				"energy": 0.06416,
				"method": "rhf"
			}
		],
		"cosmo_sigma_profile": { 
			"-0.025": 0.0,
			"-0.024": 0.0,
			"-0.023": 0.0,
			"-0.022": 0.0,
			"-0.021": 0.0,
			"-0.02": 0.0,
			"-0.019": 0.0532112466878,
			"-0.018": 0.70819237928,
			"-0.017": 1.05704333058,
			"-0.016": 1.10011268254,
			"-0.015": 0.410043207405,
			"-0.014": 0.373734569607,
			"-0.013": 1.07525035044,
			"-0.012": 0.709616191978,
			"-0.011": 0.809573813122,
			"-0.01": 1.47423455621,
			"-0.009": 2.87268451095,
			"-0.008": 4.72355156902,
			"-0.007": 6.54436773674,
			"-0.006": 13.4544046055,
			"-0.005": 15.5421145845,
			"-0.004": 18.6118645823,
			"-0.003": 15.628751587,
			"-0.002": 14.8604646193,
			"-0.001": 12.738723406,
			"0.0": 12.4455950631,
			"0.001": 13.9386251072,
			"0.002": 17.0656016335,
			"0.003": 16.5697185106,
			"0.004": 19.7248213582,
			"0.005": 16.1920453712,
			"0.006": 5.16788225675,
			"0.007": 4.73642161553,
			"0.008": 5.39075988504,
			"0.009": 5.36826895984,
			"0.01": 3.34017551881,
			"0.011": 4.96176532934,
			"0.012": 2.21044404668,
			"0.013": 0.674393033352,
			"0.014": 0.0530546407702,
			"0.015": 0.0,
			"0.016": 0.0,
			"0.017": 0.0,
			"0.018": 0.0,
			"0.019": 0.0,
			"0.02": 0.0,
			"0.021": 0.0,
			"0.022": 0.0,
			"0.023": 0.0,
			"0.024": 0.0,
			"0.025": 0.0
		}
	}
}
