{
	 "smiles": "COC1=CC=CC=C1C=O", 
	 "Tm": 310.65, 
	 "num_atms": 18, 
	 "gaussian": { 
		 "optdone": 1, 
		 "sigma_profile": "yes", 
		 "theory": "DFT", 
		 "functional": "B3LYP", 
		 "basiset": "6-31G**", 
		 "properties": { 
			 "R2extent": 1717.0567, 
			 "electric_dipole_moment_norm": 4.79414753841, 
			 "electric_quadrupole_moment_norm": 12.6615236157, 
			 "total_energy": -460.098216554, 
			 "HOMO_LUMO_gap": 0.17738, 
			 "cosmo_polarized_energy": -9.07, 
			 "cosmo_cavitation_energy": 22.12, 
			 "cosmo_dispersion_energy": -16.32, 
			 "cosmo_repulsion_energy": 1.32, 
			 "cosmo_total_nonelectrostatic_energy": 7.12, 
			 "SMD_solvation_energy": 5.73 
		},
		"coords": [
			{
				"x": -0.1987848156,
				"y": 2.50791406,
				"z": -0.5062503577,
				"element": "C" 
			},
			{
				"x": 0.6680697597,
				"y": 1.3842982582,
				"z": -0.5791597303,
				"element": "O" 
			},
			{
				"x": 0.5039896114,
				"y": 0.3688373669,
				"z": 0.3121964336,
				"element": "C" 
			},
			{
				"x": -0.4779335092,
				"y": 0.3584819266,
				"z": 1.3116461137,
				"element": "C" 
			},
			{
				"x": -0.5685939406,
				"y": -0.7298975214,
				"z": 2.1810129557,
				"element": "C" 
			},
			{
				"x": 0.3051792825,
				"y": -1.8149021736,
				"z": 2.0735807231,
				"element": "C" 
			},
			{
				"x": 1.2784282524,
				"y": -1.8016825386,
				"z": 1.0807689864,
				"element": "C" 
			},
			{
				"x": 1.3948920725,
				"y": -0.7239400684,
				"z": 0.1929108609,
				"element": "C" 
			},
			{
				"x": 2.4480822796,
				"y": -0.7576669263,
				"z": -0.8472626181,
				"element": "C" 
			},
			{
				"x": 3.2331518837,
				"y": -1.6821827936,
				"z": -0.9800399619,
				"element": "O" 
			},
			{
				"x": 0.1165907468,
				"y": 3.1801441003,
				"z": -1.3050934119,
				"element": "H" 
			},
			{
				"x": -1.2449962324,
				"y": 2.2201580781,
				"z": -0.6670168127,
				"element": "H" 
			},
			{
				"x": -0.1089059361,
				"y": 3.0236760894,
				"z": 0.4576582299,
				"element": "H" 
			},
			{
				"x": -1.1689257006,
				"y": 1.1856903716,
				"z": 1.4185957501,
				"element": "H" 
			},
			{
				"x": -1.3349944655,
				"y": -0.724145533,
				"z": 2.9512120043,
				"element": "H" 
			},
			{
				"x": 0.2239913419,
				"y": -2.6548941059,
				"z": 2.7558979318,
				"element": "H" 
			},
			{
				"x": 1.9792998334,
				"y": -2.6217734897,
				"z": 0.9586732698,
				"element": "H" 
			},
			{
				"x": 2.4887595361,
				"y": 0.1214848993,
				"z": -1.5164303668,
				"element": "H" 
			}
		],
		 "valence_orbital": [ 
			{
				"type": "occ",
				"energy": -0.34208,
				"method": "rhf"
			},
			{
				"type": "occ",
				"energy": -0.33224,
				"method": "rhf"
			},
			{
				"type": "occ",
				"energy": -0.26032,
				"method": "rhf"
			},
			{
				"type": "occ",
				"energy": -0.24287,
				"method": "rhf"
			},
			{
				"type": "occ",
				"energy": -0.23367,
				"method": "rhf"
			},
			{
				"type": "unocc",
				"energy": -0.05629,
				"method": "rhf"
			},
			{
				"type": "unocc",
				"energy": 0.00079,
				"method": "rhf"
			},
			{
				"type": "unocc",
				"energy": 0.04352,
				"method": "rhf"
			},
			{
				"type": "unocc",
				"energy": 0.0825,
				"method": "rhf"
			},
			{
				"type": "unocc",
				"energy": 0.09546,
				"method": "rhf"
			}
		],
		"cosmo_sigma_profile": { 
			"-0.025": 0.0,
			"-0.024": 0.0,
			"-0.023": 0.0,
			"-0.022": 0.0,
			"-0.021": 0.0,
			"-0.02": 0.0,
			"-0.019": 0.0,
			"-0.018": 0.0,
			"-0.017": 0.0,
			"-0.016": 0.0,
			"-0.015": 0.0,
			"-0.014": 0.0,
			"-0.013": 0.0,
			"-0.012": 0.0,
			"-0.011": 0.0,
			"-0.01": 0.0,
			"-0.009": 0.0,
			"-0.008": 0.0196749555903,
			"-0.007": 3.62501686441,
			"-0.006": 14.3919682394,
			"-0.005": 17.5720014968,
			"-0.004": 17.228594097,
			"-0.003": 15.843551361,
			"-0.002": 10.2424623562,
			"-0.001": 10.9857243823,
			"0.0": 10.3663850874,
			"0.001": 12.9976613319,
			"0.002": 12.5112893971,
			"0.003": 13.9036577394,
			"0.004": 11.790839066,
			"0.005": 5.47001038211,
			"0.006": 2.91172448521,
			"0.007": 1.86395648916,
			"0.008": 1.71518463728,
			"0.009": 2.04953275553,
			"0.01": 2.24705164043,
			"0.011": 3.57701226079,
			"0.012": 3.97493774436,
			"0.013": 1.49474922566,
			"0.014": 0.139825626987,
			"0.015": 0.0,
			"0.016": 0.0,
			"0.017": 0.0,
			"0.018": 0.0,
			"0.019": 0.0,
			"0.02": 0.0,
			"0.021": 0.0,
			"0.022": 0.0,
			"0.023": 0.0,
			"0.024": 0.0,
			"0.025": 0.0
		}
	}
}
