{
	 "smiles": "CC(C)C12CCC(C)(CC1)O2", 
	 "Tm": 274.15, 
	 "num_atms": 29, 
	 "gaussian": { 
		 "optdone": 1, 
		 "sigma_profile": "yes", 
		 "theory": "DFT", 
		 "functional": "B3LYP", 
		 "basiset": "6-31G**", 
		 "properties": { 
			 "R2extent": 2169.6033, 
			 "electric_dipole_moment_norm": 1.23088058316, 
			 "electric_quadrupole_moment_norm": 3.65119507422, 
			 "total_energy": -467.151556223, 
			 "HOMO_LUMO_gap": 0.32247, 
			 "cosmo_polarized_energy": -3.93, 
			 "cosmo_cavitation_energy": 27.75, 
			 "cosmo_dispersion_energy": -20.11, 
			 "cosmo_repulsion_energy": 1.6, 
			 "cosmo_total_nonelectrostatic_energy": 9.24, 
			 "SMD_solvation_energy": 4.26 
		},
		"coords": [
			{
				"x": -2.5395186693,
				"y": 0.1981816978,
				"z": -2.9055224464,
				"element": "C" 
			},
			{
				"x": -1.8941691551,
				"y": 1.0606097345,
				"z": -1.8100156198,
				"element": "C" 
			},
			{
				"x": -2.9495224147,
				"y": 1.8887346874,
				"z": -1.0598385765,
				"element": "C" 
			},
			{
				"x": -1.0262484036,
				"y": 0.2443539734,
				"z": -0.8458859399,
				"element": "C" 
			},
			{
				"x": -1.7167496213,
				"y": -0.8731737508,
				"z": -0.0130394336,
				"element": "C" 
			},
			{
				"x": -0.5356448363,
				"y": -1.8528843418,
				"z": 0.2361672775,
				"element": "C" 
			},
			{
				"x": 0.6359811536,
				"y": -1.127198574,
				"z": -0.4748637383,
				"element": "C" 
			},
			{
				"x": 1.7654363307,
				"y": -2.0091474781,
				"z": -0.9651421417,
				"element": "C" 
			},
			{
				"x": 1.0505195565,
				"y": 0.1024380358,
				"z": 0.374540855,
				"element": "C" 
			},
			{
				"x": -0.1316251574,
				"y": 1.077199535,
				"z": 0.1156671793,
				"element": "C" 
			},
			{
				"x": -0.0363832766,
				"y": -0.502832944,
				"z": -1.5887157247,
				"element": "O" 
			},
			{
				"x": -3.3080266149,
				"y": -0.4678906147,
				"z": -2.4971553834,
				"element": "H" 
			},
			{
				"x": -1.789853577,
				"y": -0.4162676006,
				"z": -3.4092212512,
				"element": "H" 
			},
			{
				"x": -3.0257704823,
				"y": 0.8351901394,
				"z": -3.6521845853,
				"element": "H" 
			},
			{
				"x": -1.2056789598,
				"y": 1.7591162657,
				"z": -2.3065851513,
				"element": "H" 
			},
			{
				"x": -3.5176297549,
				"y": 2.5092043909,
				"z": -1.7606812095,
				"element": "H" 
			},
			{
				"x": -2.4979262156,
				"y": 2.5550684836,
				"z": -0.3178992419,
				"element": "H" 
			},
			{
				"x": -3.6656152077,
				"y": 1.2423228729,
				"z": -0.5393661905,
				"element": "H" 
			},
			{
				"x": -2.1591847086,
				"y": -0.4899499411,
				"z": 0.910952175,
				"element": "H" 
			},
			{
				"x": -2.5119266036,
				"y": -1.3550064658,
				"z": -0.587158287,
				"element": "H" 
			},
			{
				"x": -0.7180482621,
				"y": -2.8219877034,
				"z": -0.2381143414,
				"element": "H" 
			},
			{
				"x": -0.335630783,
				"y": -2.0322118566,
				"z": 1.2970820377,
				"element": "H" 
			},
			{
				"x": 2.2765958598,
				"y": -2.4830887815,
				"z": -0.1206857696,
				"element": "H" 
			},
			{
				"x": 1.3829639007,
				"y": -2.7973142599,
				"z": -1.6208368927,
				"element": "H" 
			},
			{
				"x": 2.4994833498,
				"y": -1.4209753301,
				"z": -1.5242870918,
				"element": "H" 
			},
			{
				"x": 1.1869957301,
				"y": -0.1453247573,
				"z": 1.4317591933,
				"element": "H" 
			},
			{
				"x": 1.993875875,
				"y": 0.5141882954,
				"z": 0.003331224,
				"element": "H" 
			},
			{
				"x": 0.2086703795,
				"y": 1.9898486995,
				"z": -0.3836433146,
				"element": "H" 
			},
			{
				"x": -0.6540694322,
				"y": 1.3715975886,
				"z": 1.0303423893,
				"element": "H" 
			}
		],
		 "valence_orbital": [ 
			{
				"type": "occ",
				"energy": -0.32118,
				"method": "rhf"
			},
			{
				"type": "occ",
				"energy": -0.31564,
				"method": "rhf"
			},
			{
				"type": "occ",
				"energy": -0.30008,
				"method": "rhf"
			},
			{
				"type": "occ",
				"energy": -0.28598,
				"method": "rhf"
			},
			{
				"type": "occ",
				"energy": -0.24667,
				"method": "rhf"
			},
			{
				"type": "unocc",
				"energy": 0.0758,
				"method": "rhf"
			},
			{
				"type": "unocc",
				"energy": 0.09154,
				"method": "rhf"
			},
			{
				"type": "unocc",
				"energy": 0.09922,
				"method": "rhf"
			},
			{
				"type": "unocc",
				"energy": 0.11862,
				"method": "rhf"
			},
			{
				"type": "unocc",
				"energy": 0.13663,
				"method": "rhf"
			}
		],
		"cosmo_sigma_profile": { 
			"-0.025": 0.0,
			"-0.024": 0.0,
			"-0.023": 0.0,
			"-0.022": 0.0,
			"-0.021": 0.0,
			"-0.02": 0.0,
			"-0.019": 0.0,
			"-0.018": 0.0,
			"-0.017": 0.0,
			"-0.016": 0.0,
			"-0.015": 0.0,
			"-0.014": 0.0,
			"-0.013": 0.0,
			"-0.012": 0.0,
			"-0.011": 0.0,
			"-0.01": 0.0,
			"-0.009": 0.0,
			"-0.008": 0.0,
			"-0.007": 0.0,
			"-0.006": 0.0,
			"-0.005": 0.0,
			"-0.004": 1.97934831935,
			"-0.003": 23.6670725695,
			"-0.002": 43.482844897,
			"-0.001": 41.621887976,
			"0.0": 34.7627771602,
			"0.001": 32.4486225104,
			"0.002": 16.4287131358,
			"0.003": 2.29391907034,
			"0.004": 1.79319239545,
			"0.005": 1.40792353922,
			"0.006": 1.98707124729,
			"0.007": 1.99491848522,
			"0.008": 1.56159913206,
			"0.009": 1.51862670762,
			"0.01": 1.75961090608,
			"0.011": 1.09757438841,
			"0.012": 1.6045026871,
			"0.013": 0.742862176511,
			"0.014": 0.697352370241,
			"0.015": 0.0843200602117,
			"0.016": 0.0,
			"0.017": 0.0,
			"0.018": 0.0,
			"0.019": 0.0,
			"0.02": 0.0,
			"0.021": 0.0,
			"0.022": 0.0,
			"0.023": 0.0,
			"0.024": 0.0,
			"0.025": 0.0
		}
	}
}
