{
	 "smiles": "CCOC(=O)C1=C(C)C2=C(S1)SC(C(=O)OCC)=C2C", 
	 "Tm": 460.15, 
	 "num_atms": 36, 
	 "gaussian": { 
		 "optdone": 1, 
		 "sigma_profile": "yes", 
		 "theory": "DFT", 
		 "functional": "B3LYP", 
		 "basiset": "6-31G**", 
		 "properties": { 
			 "R2extent": 10530.9535, 
			 "electric_dipole_moment_norm": 5.73528847138, 
			 "electric_quadrupole_moment_norm": 17.2066589502, 
			 "total_energy": -1640.43175594, 
			 "HOMO_LUMO_gap": 0.1733, 
			 "cosmo_polarized_energy": -12.7, 
			 "cosmo_cavitation_energy": 42.64, 
			 "cosmo_dispersion_energy": -31.14, 
			 "cosmo_repulsion_energy": 2.32, 
			 "cosmo_total_nonelectrostatic_energy": 13.83, 
			 "SMD_solvation_energy": 8.7 
		},
		"coords": [
			{
				"x": 2.4446490236,
				"y": 4.2025323124,
				"z": 3.2892898961,
				"element": "C" 
			},
			{
				"x": 2.5491801632,
				"y": 2.7380586912,
				"z": 3.6692911942,
				"element": "C" 
			},
			{
				"x": 1.9877089386,
				"y": 1.9645325587,
				"z": 2.5808228928,
				"element": "O" 
			},
			{
				"x": 2.0019008177,
				"y": 0.6244072024,
				"z": 2.7558482746,
				"element": "C" 
			},
			{
				"x": 2.4535857492,
				"y": 0.0907119054,
				"z": 3.7551577524,
				"element": "O" 
			},
			{
				"x": 1.4274877003,
				"y": -0.1468971466,
				"z": 1.6404053011,
				"element": "C" 
			},
			{
				"x": 0.8613694523,
				"y": 0.2011066301,
				"z": 0.4288452929,
				"element": "C" 
			},
			{
				"x": 0.6818182023,
				"y": 1.6043603619,
				"z": -0.0863025643,
				"element": "C" 
			},
			{
				"x": 0.4520413424,
				"y": -0.9740853047,
				"z": -0.3036725347,
				"element": "C" 
			},
			{
				"x": 0.729594537,
				"y": -2.1531545388,
				"z": 0.3928647374,
				"element": "C" 
			},
			{
				"x": 1.4776468359,
				"y": -1.8955225681,
				"z": 1.922305918,
				"element": "S" 
			},
			{
				"x": 0.257117298,
				"y": -3.5813757785,
				"z": -0.4450689446,
				"element": "S" 
			},
			{
				"x": -0.3388774118,
				"y": -2.5858134674,
				"z": -1.7842114702,
				"element": "C" 
			},
			{
				"x": -0.9060685262,
				"y": -3.3895269242,
				"z": -2.8803055414,
				"element": "C" 
			},
			{
				"x": -0.9447702899,
				"y": -4.6080169499,
				"z": -2.8449479359,
				"element": "O" 
			},
			{
				"x": -1.3781463367,
				"y": -2.6689661795,
				"z": -3.9218282057,
				"element": "O" 
			},
			{
				"x": -1.939696381,
				"y": -3.4446917823,
				"z": -5.0086907682,
				"element": "C" 
			},
			{
				"x": -2.4113055065,
				"y": -2.4686826115,
				"z": -6.0693505178,
				"element": "C" 
			},
			{
				"x": -0.1738992568,
				"y": -1.2291881786,
				"z": -1.5797063448,
				"element": "C" 
			},
			{
				"x": -0.5806933301,
				"y": -0.140604484,
				"z": -2.5368824221,
				"element": "C" 
			},
			{
				"x": 1.4018262786,
				"y": 4.495640534,
				"z": 3.1367728019,
				"element": "H" 
			},
			{
				"x": 2.8607892028,
				"y": 4.8216138721,
				"z": 4.0900891882,
				"element": "H" 
			},
			{
				"x": 3.0012892654,
				"y": 4.4109917357,
				"z": 2.3709636394,
				"element": "H" 
			},
			{
				"x": 3.5860608901,
				"y": 2.4249469426,
				"z": 3.8242662076,
				"element": "H" 
			},
			{
				"x": 1.9959886349,
				"y": 2.5088223523,
				"z": 4.5850645482,
				"element": "H" 
			},
			{
				"x": 1.0420048208,
				"y": 2.3389956476,
				"z": 0.6286003008,
				"element": "H" 
			},
			{
				"x": 1.2244523026,
				"y": 1.741894615,
				"z": -1.02790711,
				"element": "H" 
			},
			{
				"x": -0.374453904,
				"y": 1.8075223781,
				"z": -0.2921325931,
				"element": "H" 
			},
			{
				"x": -1.171922681,
				"y": -4.1262378931,
				"z": -5.3871515988,
				"element": "H" 
			},
			{
				"x": -2.7583076606,
				"y": -4.0561445824,
				"z": -4.6173165267,
				"element": "H" 
			},
			{
				"x": -2.8442224179,
				"y": -3.0192147822,
				"z": -6.9103092368,
				"element": "H" 
			},
			{
				"x": -3.175655876,
				"y": -1.794855412,
				"z": -5.6714161802,
				"element": "H" 
			},
			{
				"x": -1.5799785353,
				"y": -1.8659031372,
				"z": -6.4464592963,
				"element": "H" 
			},
			{
				"x": -1.3146213018,
				"y": 0.5270127755,
				"z": -2.0725006291,
				"element": "H" 
			},
			{
				"x": -1.0152922544,
				"y": -0.5514921146,
				"z": -3.4439663687,
				"element": "H" 
			},
			{
				"x": 0.2831002144,
				"y": 0.4738233206,
				"z": -2.8118611563,
				"element": "H" 
			}
		],
		 "valence_orbital": [ 
			{
				"type": "occ",
				"energy": -0.28074,
				"method": "rhf"
			},
			{
				"type": "occ",
				"energy": -0.27979,
				"method": "rhf"
			},
			{
				"type": "occ",
				"energy": -0.27715,
				"method": "rhf"
			},
			{
				"type": "occ",
				"energy": -0.23207,
				"method": "rhf"
			},
			{
				"type": "occ",
				"energy": -0.22594,
				"method": "rhf"
			},
			{
				"type": "unocc",
				"energy": -0.05264,
				"method": "rhf"
			},
			{
				"type": "unocc",
				"energy": -0.04895,
				"method": "rhf"
			},
			{
				"type": "unocc",
				"energy": 0.0105,
				"method": "rhf"
			},
			{
				"type": "unocc",
				"energy": 0.03517,
				"method": "rhf"
			},
			{
				"type": "unocc",
				"energy": 0.04049,
				"method": "rhf"
			}
		],
		"cosmo_sigma_profile": { 
			"-0.025": 0.0,
			"-0.024": 0.0,
			"-0.023": 0.0,
			"-0.022": 0.0,
			"-0.021": 0.0,
			"-0.02": 0.0,
			"-0.019": 0.0,
			"-0.018": 0.0,
			"-0.017": 0.0,
			"-0.016": 0.0,
			"-0.015": 0.0,
			"-0.014": 0.0,
			"-0.013": 0.0,
			"-0.012": 0.0,
			"-0.011": 0.0,
			"-0.01": 0.0,
			"-0.009": 0.0,
			"-0.008": 0.193045568821,
			"-0.007": 1.74172259262,
			"-0.006": 8.66622865738,
			"-0.005": 21.1138042741,
			"-0.004": 33.0225655387,
			"-0.003": 33.0866799158,
			"-0.002": 34.7246610825,
			"-0.001": 37.4490578425,
			"0.0": 42.2903873547,
			"0.001": 41.7761264038,
			"0.002": 22.95487144,
			"0.003": 18.7761773943,
			"0.004": 10.9417765545,
			"0.005": 4.66149623521,
			"0.006": 3.22120132586,
			"0.007": 2.94970127257,
			"0.008": 3.71763658405,
			"0.009": 3.15730964018,
			"0.01": 4.02186225044,
			"0.011": 6.86287148636,
			"0.012": 6.91124383845,
			"0.013": 0.153603839086,
			"0.014": 0.0,
			"0.015": 0.0,
			"0.016": 0.0,
			"0.017": 0.0,
			"0.018": 0.0,
			"0.019": 0.0,
			"0.02": 0.0,
			"0.021": 0.0,
			"0.022": 0.0,
			"0.023": 0.0,
			"0.024": 0.0,
			"0.025": 0.0
		}
	}
}
