{
	 "smiles": "NC1=NC(O)=NC2=C1C=NN2", 
	 "Tm": 593.15, 
	 "num_atms": 16, 
	 "gaussian": { 
		 "optdone": 1, 
		 "sigma_profile": "yes", 
		 "theory": "DFT", 
		 "functional": "B3LYP", 
		 "basiset": "6-31G**", 
		 "properties": { 
			 "R2extent": 1830.3784, 
			 "electric_dipole_moment_norm": 3.8971549533, 
			 "electric_quadrupole_moment_norm": 8.26009796734, 
			 "total_energy": -542.532587581, 
			 "HOMO_LUMO_gap": 0.19675, 
			 "cosmo_polarized_energy": -19.03, 
			 "cosmo_cavitation_energy": 20.94, 
			 "cosmo_dispersion_energy": -16.31, 
			 "cosmo_repulsion_energy": 1.32, 
			 "cosmo_total_nonelectrostatic_energy": 5.95, 
			 "SMD_solvation_energy": 0.05 
		},
		"coords": [
			{
				"x": 1.0104062127,
				"y": 1.500930587,
				"z": 0.0774594515,
				"element": "N" 
			},
			{
				"x": -0.1178158768,
				"y": 0.7626431807,
				"z": -0.1032519967,
				"element": "C" 
			},
			{
				"x": -1.0672092465,
				"y": 1.2743403828,
				"z": -0.8952407523,
				"element": "N" 
			},
			{
				"x": -2.1804829387,
				"y": 0.5385857986,
				"z": -1.110700072,
				"element": "C" 
			},
			{
				"x": -3.0941605887,
				"y": 1.1059106449,
				"z": -1.9196137052,
				"element": "O" 
			},
			{
				"x": -2.4981141854,
				"y": -0.6566755954,
				"z": -0.6337103743,
				"element": "N" 
			},
			{
				"x": -1.5280533648,
				"y": -1.1392326988,
				"z": 0.1571670546,
				"element": "C" 
			},
			{
				"x": -0.3052717495,
				"y": -0.513898091,
				"z": 0.4814584882,
				"element": "C" 
			},
			{
				"x": 0.3580696718,
				"y": -1.4392810541,
				"z": 1.3402672445,
				"element": "C" 
			},
			{
				"x": -0.3715441796,
				"y": -2.523575364,
				"z": 1.5337426316,
				"element": "N" 
			},
			{
				"x": -1.5161777873,
				"y": -2.3289175085,
				"z": 0.8102642272,
				"element": "N" 
			},
			{
				"x": 1.6462961458,
				"y": 1.274695976,
				"z": 0.8240477318,
				"element": "H" 
			},
			{
				"x": 0.9912746666,
				"y": 2.4529515666,
				"z": -0.254961905,
				"element": "H" 
			},
			{
				"x": -2.7202357134,
				"y": 1.9603460718,
				"z": -2.1828486819,
				"element": "H" 
			},
			{
				"x": 1.3272781115,
				"y": -1.3627609527,
				"z": 1.816102315,
				"element": "H" 
			},
			{
				"x": -2.2330591777,
				"y": -3.0374629441,
				"z": 0.801418343,
				"element": "H" 
			}
		],
		 "valence_orbital": [ 
			{
				"type": "occ",
				"energy": -0.29116,
				"method": "rhf"
			},
			{
				"type": "occ",
				"energy": -0.27709,
				"method": "rhf"
			},
			{
				"type": "occ",
				"energy": -0.26252,
				"method": "rhf"
			},
			{
				"type": "occ",
				"energy": -0.26061,
				"method": "rhf"
			},
			{
				"type": "occ",
				"energy": -0.22145,
				"method": "rhf"
			},
			{
				"type": "unocc",
				"energy": -0.0247,
				"method": "rhf"
			},
			{
				"type": "unocc",
				"energy": 0.01374,
				"method": "rhf"
			},
			{
				"type": "unocc",
				"energy": 0.05301,
				"method": "rhf"
			},
			{
				"type": "unocc",
				"energy": 0.06204,
				"method": "rhf"
			},
			{
				"type": "unocc",
				"energy": 0.09292,
				"method": "rhf"
			}
		],
		"cosmo_sigma_profile": { 
			"-0.025": 0.0,
			"-0.024": 0.0,
			"-0.023": 0.0,
			"-0.022": 0.0,
			"-0.021": 0.0,
			"-0.02": 0.0,
			"-0.019": 0.0,
			"-0.018": 0.158911067962,
			"-0.017": 0.984860793814,
			"-0.016": 1.86925482904,
			"-0.015": 2.55098717332,
			"-0.014": 4.32237077726,
			"-0.013": 3.58916123681,
			"-0.012": 4.62515038554,
			"-0.011": 3.95071350851,
			"-0.01": 4.78882272865,
			"-0.009": 3.45832306407,
			"-0.008": 4.59816861841,
			"-0.007": 3.81164883982,
			"-0.006": 4.65238455156,
			"-0.005": 4.54540987034,
			"-0.004": 3.55625406258,
			"-0.003": 3.70327081868,
			"-0.002": 5.15238031071,
			"-0.001": 7.82522430584,
			"0.0": 11.920764928,
			"0.001": 14.2223765597,
			"0.002": 11.2966886794,
			"0.003": 7.74165573361,
			"0.004": 6.70182482253,
			"0.005": 5.86096322287,
			"0.006": 5.66110044543,
			"0.007": 4.68319808597,
			"0.008": 4.89958768715,
			"0.009": 5.19320483926,
			"0.01": 4.7900171309,
			"0.011": 5.19890179975,
			"0.012": 3.90688952873,
			"0.013": 2.60172012915,
			"0.014": 2.19202139006,
			"0.015": 1.93199846802,
			"0.016": 0.69543598354,
			"0.017": 0.0,
			"0.018": 0.0,
			"0.019": 0.0,
			"0.02": 0.0,
			"0.021": 0.0,
			"0.022": 0.0,
			"0.023": 0.0,
			"0.024": 0.0,
			"0.025": 0.0
		}
	}
}
