{
	 "smiles": "CC(C)(C)OC(=O)NCCNC(=O)C1CCCNC1", 
	 "Tm": 404.15, 
	 "num_atms": 44, 
	 "gaussian": { 
		 "optdone": 1, 
		 "sigma_profile": "yes", 
		 "theory": "DFT", 
		 "functional": "B3LYP", 
		 "basiset": "6-31G**", 
		 "properties": { 
			 "R2extent": 7241.3503, 
			 "electric_dipole_moment_norm": 4.88819411542, 
			 "electric_quadrupole_moment_norm": 18.1251800308, 
			 "total_energy": -900.428946778, 
			 "HOMO_LUMO_gap": 0.23836, 
			 "cosmo_polarized_energy": -21.54, 
			 "cosmo_cavitation_energy": 43.98, 
			 "cosmo_dispersion_energy": -29.4, 
			 "cosmo_repulsion_energy": 2.31, 
			 "cosmo_total_nonelectrostatic_energy": 16.89, 
			 "SMD_solvation_energy": 4.72 
		},
		"coords": [
			{
				"x": -0.2124919527,
				"y": 3.5169985314,
				"z": -2.4349203131,
				"element": "C" 
			},
			{
				"x": -0.2672409801,
				"y": 2.5320794642,
				"z": -1.2625193191,
				"element": "C" 
			},
			{
				"x": -1.5683953402,
				"y": 1.7224180018,
				"z": -1.2357636274,
				"element": "C" 
			},
			{
				"x": -0.0512609453,
				"y": 3.2557204551,
				"z": 0.0693625259,
				"element": "C" 
			},
			{
				"x": 0.8881054254,
				"y": 1.6227006338,
				"z": -1.3197881282,
				"element": "O" 
			},
			{
				"x": 1.0150329115,
				"y": 0.7278833271,
				"z": -2.3230642437,
				"element": "C" 
			},
			{
				"x": 0.3284890916,
				"y": 0.6531948995,
				"z": -3.3297472722,
				"element": "O" 
			},
			{
				"x": 2.0899328299,
				"y": -0.0940117831,
				"z": -2.0682217442,
				"element": "N" 
			},
			{
				"x": 2.2276891847,
				"y": -1.3256396662,
				"z": -2.8260455737,
				"element": "C" 
			},
			{
				"x": 1.2210789996,
				"y": -2.4153611439,
				"z": -2.417102124,
				"element": "C" 
			},
			{
				"x": 1.3646112329,
				"y": -2.8474025339,
				"z": -1.0328873478,
				"element": "N" 
			},
			{
				"x": 0.5569977739,
				"y": -2.3983833754,
				"z": -0.0215910423,
				"element": "C" 
			},
			{
				"x": -0.3507804916,
				"y": -1.5948547366,
				"z": -0.2090910941,
				"element": "O" 
			},
			{
				"x": 0.911183522,
				"y": -2.940041277,
				"z": 1.368407736,
				"element": "C" 
			},
			{
				"x": 1.9172300053,
				"y": -1.9985054998,
				"z": 2.0691232012,
				"element": "C" 
			},
			{
				"x": 2.3511149953,
				"y": -2.5839380977,
				"z": 3.4293582832,
				"element": "C" 
			},
			{
				"x": 1.1694530978,
				"y": -3.3083359338,
				"z": 4.1183125969,
				"element": "C" 
			},
			{
				"x": -0.0763356652,
				"y": -2.7232557882,
				"z": 3.6305481977,
				"element": "N" 
			},
			{
				"x": -0.3583352336,
				"y": -3.1011164015,
				"z": 2.2422644536,
				"element": "C" 
			},
			{
				"x": 0.7406755413,
				"y": 4.0556528069,
				"z": -2.4365653029,
				"element": "H" 
			},
			{
				"x": -0.3246879773,
				"y": 2.9933260072,
				"z": -3.384685034,
				"element": "H" 
			},
			{
				"x": -1.0186186719,
				"y": 4.251893423,
				"z": -2.3375291977,
				"element": "H" 
			},
			{
				"x": -2.4076513455,
				"y": 2.3869810946,
				"z": -1.0045871942,
				"element": "H" 
			},
			{
				"x": -1.5131676231,
				"y": 0.9446448173,
				"z": -0.4688597784,
				"element": "H" 
			},
			{
				"x": -1.7524824886,
				"y": 1.2446748136,
				"z": -2.1983570942,
				"element": "H" 
			},
			{
				"x": 0.9103590855,
				"y": 3.7777076842,
				"z": 0.0737326542,
				"element": "H" 
			},
			{
				"x": -0.8454496243,
				"y": 3.990838057,
				"z": 0.2305884949,
				"element": "H" 
			},
			{
				"x": -0.0631015754,
				"y": 2.5441521659,
				"z": 0.9000044597,
				"element": "H" 
			},
			{
				"x": 2.4037387459,
				"y": -0.0960226184,
				"z": -1.1081587094,
				"element": "H" 
			},
			{
				"x": 3.2555782313,
				"y": -1.6869490314,
				"z": -2.7067572191,
				"element": "H" 
			},
			{
				"x": 2.0753655932,
				"y": -1.0872264836,
				"z": -3.8818740867,
				"element": "H" 
			},
			{
				"x": 0.208311594,
				"y": -2.0240219628,
				"z": -2.5308144617,
				"element": "H" 
			},
			{
				"x": 1.3323693829,
				"y": -3.2843835892,
				"z": -3.0766651761,
				"element": "H" 
			},
			{
				"x": 2.080551608,
				"y": -3.5224667572,
				"z": -0.808824778,
				"element": "H" 
			},
			{
				"x": 1.3980394913,
				"y": -3.9179490654,
				"z": 1.2474096679,
				"element": "H" 
			},
			{
				"x": 1.4314281956,
				"y": -1.0297061217,
				"z": 2.2151480331,
				"element": "H" 
			},
			{
				"x": 2.7928135419,
				"y": -1.8329141873,
				"z": 1.4299939425,
				"element": "H" 
			},
			{
				"x": 3.1836167928,
				"y": -3.2853101192,
				"z": 3.2946650284,
				"element": "H" 
			},
			{
				"x": 2.7198894173,
				"y": -1.7711747366,
				"z": 4.0640378931,
				"element": "H" 
			},
			{
				"x": 1.222116812,
				"y": -3.1796093312,
				"z": 5.2040286921,
				"element": "H" 
			},
			{
				"x": 1.2331736331,
				"y": -4.3976478431,
				"z": 3.9259901162,
				"element": "H" 
			},
			{
				"x": -0.8586914281,
				"y": -2.9796799213,
				"z": 4.2237095364,
				"element": "H" 
			},
			{
				"x": -1.1344865185,
				"y": -2.4385072759,
				"z": 1.8489216351,
				"element": "H" 
			},
			{
				"x": -0.7185688743,
				"y": -4.1422509013,
				"z": 2.146212714,
				"element": "H" 
			}
		],
		 "valence_orbital": [ 
			{
				"type": "occ",
				"energy": -0.26642,
				"method": "rhf"
			},
			{
				"type": "occ",
				"energy": -0.25517,
				"method": "rhf"
			},
			{
				"type": "occ",
				"energy": -0.24979,
				"method": "rhf"
			},
			{
				"type": "occ",
				"energy": -0.23687,
				"method": "rhf"
			},
			{
				"type": "occ",
				"energy": -0.21492,
				"method": "rhf"
			},
			{
				"type": "unocc",
				"energy": 0.02344,
				"method": "rhf"
			},
			{
				"type": "unocc",
				"energy": 0.05404,
				"method": "rhf"
			},
			{
				"type": "unocc",
				"energy": 0.06398,
				"method": "rhf"
			},
			{
				"type": "unocc",
				"energy": 0.08247,
				"method": "rhf"
			},
			{
				"type": "unocc",
				"energy": 0.09127,
				"method": "rhf"
			}
		],
		"cosmo_sigma_profile": { 
			"-0.025": 0.0,
			"-0.024": 0.0,
			"-0.023": 0.0,
			"-0.022": 0.0,
			"-0.021": 0.0,
			"-0.02": 0.0,
			"-0.019": 0.0,
			"-0.018": 0.0,
			"-0.017": 0.0,
			"-0.016": 0.0,
			"-0.015": 0.0,
			"-0.014": 0.650982515523,
			"-0.013": 1.30431254181,
			"-0.012": 1.71905028079,
			"-0.011": 2.31842692679,
			"-0.01": 3.02595421205,
			"-0.009": 3.74227870327,
			"-0.008": 4.19971832003,
			"-0.007": 3.62487380483,
			"-0.006": 8.21961249315,
			"-0.005": 13.1301831066,
			"-0.004": 23.7487576216,
			"-0.003": 32.9520671282,
			"-0.002": 40.4091190869,
			"-0.001": 40.5386177797,
			"0.0": 41.9108314585,
			"0.001": 29.3957128124,
			"0.002": 11.8183802941,
			"0.003": 8.65236673725,
			"0.004": 7.62447092873,
			"0.005": 8.47425939797,
			"0.006": 9.5481310268,
			"0.007": 8.35955694351,
			"0.008": 8.8973172259,
			"0.009": 6.352855886,
			"0.01": 3.56128998782,
			"0.011": 4.06424065758,
			"0.012": 3.88795061498,
			"0.013": 4.62288283474,
			"0.014": 1.3449175261,
			"0.015": 0.393472406611,
			"0.016": 0.702298184279,
			"0.017": 0.38203063438,
			"0.018": 0.121333167024,
			"0.019": 0.0,
			"0.02": 0.0,
			"0.021": 0.0,
			"0.022": 0.0,
			"0.023": 0.0,
			"0.024": 0.0,
			"0.025": 0.0
		}
	}
}
