{
	 "smiles": "CC1=C(C=C(S1)C(O)=O)C1=CC=C(F)C=C1", 
	 "Tm": 430.15, 
	 "num_atms": 25, 
	 "gaussian": { 
		 "optdone": 1, 
		 "sigma_profile": "yes", 
		 "theory": "DFT", 
		 "functional": "B3LYP", 
		 "basiset": "6-31G**", 
		 "properties": { 
			 "R2extent": 5812.1671, 
			 "electric_dipole_moment_norm": 2.24469281863, 
			 "electric_quadrupole_moment_norm": 7.30033081716, 
			 "total_energy": -1111.18698853, 
			 "HOMO_LUMO_gap": 0.17155, 
			 "cosmo_polarized_energy": -11.1, 
			 "cosmo_cavitation_energy": 32.05, 
			 "cosmo_dispersion_energy": -23.32, 
			 "cosmo_repulsion_energy": 1.75, 
			 "cosmo_total_nonelectrostatic_energy": 10.48, 
			 "SMD_solvation_energy": 6.78 
		},
		"coords": [
			{
				"x": 1.7574184605,
				"y": -0.8849828845,
				"z": -2.1733942321,
				"element": "C" 
			},
			{
				"x": 0.3643530398,
				"y": -1.3157275134,
				"z": -1.8148866511,
				"element": "C" 
			},
			{
				"x": -0.5378050735,
				"y": -0.7183624982,
				"z": -0.9451340701,
				"element": "C" 
			},
			{
				"x": -1.7500005163,
				"y": -1.4654127384,
				"z": -0.8403395629,
				"element": "C" 
			},
			{
				"x": -1.7747948146,
				"y": -2.5962233466,
				"z": -1.616941931,
				"element": "C" 
			},
			{
				"x": -0.2838774855,
				"y": -2.7757749606,
				"z": -2.5018127362,
				"element": "S" 
			},
			{
				"x": -2.8984951911,
				"y": -3.5322119595,
				"z": -1.7112558056,
				"element": "C" 
			},
			{
				"x": -2.6531496321,
				"y": -4.5550973445,
				"z": -2.5707286797,
				"element": "O" 
			},
			{
				"x": -3.9420040226,
				"y": -3.4257853345,
				"z": -1.0966948328,
				"element": "O" 
			},
			{
				"x": -0.301452076,
				"y": 0.530796794,
				"z": -0.1832871213,
				"element": "C" 
			},
			{
				"x": 0.2537216137,
				"y": 1.6725147318,
				"z": -0.785968794,
				"element": "C" 
			},
			{
				"x": 0.4601810222,
				"y": 2.8455658716,
				"z": -0.0610053819,
				"element": "C" 
			},
			{
				"x": 0.0977837271,
				"y": 2.8753967851,
				"z": 1.2802146474,
				"element": "C" 
			},
			{
				"x": 0.2924355613,
				"y": 4.0072025123,
				"z": 1.9876582723,
				"element": "F" 
			},
			{
				"x": -0.4641314981,
				"y": 1.7712628738,
				"z": 1.9118499198,
				"element": "C" 
			},
			{
				"x": -0.659261431,
				"y": 0.6054886461,
				"z": 1.1748184542,
				"element": "C" 
			},
			{
				"x": 2.4188217328,
				"y": -1.7468176603,
				"z": -2.3034897346,
				"element": "H" 
			},
			{
				"x": 2.1730790688,
				"y": -0.251223896,
				"z": -1.3861325149,
				"element": "H" 
			},
			{
				"x": 1.7802334034,
				"y": -0.3128411523,
				"z": -3.1090594706,
				"element": "H" 
			},
			{
				"x": -2.5958309028,
				"y": -1.1739874345,
				"z": -0.2289831706,
				"element": "H" 
			},
			{
				"x": -3.4483185201,
				"y": -5.1123661446,
				"z": -2.5591580757,
				"element": "H" 
			},
			{
				"x": 0.5035027953,
				"y": 1.6538849564,
				"z": -1.8417238665,
				"element": "H" 
			},
			{
				"x": 0.8821522355,
				"y": 3.7318226947,
				"z": -0.5224474445,
				"element": "H" 
			},
			{
				"x": -0.7334393658,
				"y": 1.8326170585,
				"z": 2.9607127225,
				"element": "H" 
			},
			{
				"x": -1.0827221307,
				"y": -0.2669380563,
				"z": 1.6632900598,
				"element": "H" 
			}
		],
		 "valence_orbital": [ 
			{
				"type": "occ",
				"energy": -0.27868,
				"method": "rhf"
			},
			{
				"type": "occ",
				"energy": -0.27609,
				"method": "rhf"
			},
			{
				"type": "occ",
				"energy": -0.26727,
				"method": "rhf"
			},
			{
				"type": "occ",
				"energy": -0.24908,
				"method": "rhf"
			},
			{
				"type": "occ",
				"energy": -0.22735,
				"method": "rhf"
			},
			{
				"type": "unocc",
				"energy": -0.0558,
				"method": "rhf"
			},
			{
				"type": "unocc",
				"energy": -0.01957,
				"method": "rhf"
			},
			{
				"type": "unocc",
				"energy": -0.01811,
				"method": "rhf"
			},
			{
				"type": "unocc",
				"energy": 0.02216,
				"method": "rhf"
			},
			{
				"type": "unocc",
				"energy": 0.04685,
				"method": "rhf"
			}
		],
		"cosmo_sigma_profile": { 
			"-0.025": 0.0,
			"-0.024": 0.0,
			"-0.023": 0.0,
			"-0.022": 0.0,
			"-0.021": 0.0,
			"-0.02": 0.0,
			"-0.019": 0.0523052508845,
			"-0.018": 0.904692337731,
			"-0.017": 1.03595601597,
			"-0.016": 0.641269969761,
			"-0.015": 1.01701286741,
			"-0.014": 0.708599998816,
			"-0.013": 0.564155622895,
			"-0.012": 0.420306325483,
			"-0.011": 0.480948406023,
			"-0.01": 1.2566468342,
			"-0.009": 0.48213720145,
			"-0.008": 1.00209819479,
			"-0.007": 5.55106234919,
			"-0.006": 13.888801298,
			"-0.005": 16.2119222978,
			"-0.004": 16.0798414954,
			"-0.003": 15.6797287158,
			"-0.002": 18.5397640391,
			"-0.001": 17.6352572249,
			"0.0": 17.4287752198,
			"0.001": 21.9372841074,
			"0.002": 31.2673735982,
			"0.003": 28.1380582077,
			"0.004": 20.3288374114,
			"0.005": 6.22473751738,
			"0.006": 3.27218487437,
			"0.007": 3.31363763573,
			"0.008": 2.89773691789,
			"0.009": 0.910575930738,
			"0.01": 2.57869119665,
			"0.011": 3.14849669687,
			"0.012": 4.94972822761,
			"0.013": 0.287998490432,
			"0.014": 0.0,
			"0.015": 0.0,
			"0.016": 0.0,
			"0.017": 0.0,
			"0.018": 0.0,
			"0.019": 0.0,
			"0.02": 0.0,
			"0.021": 0.0,
			"0.022": 0.0,
			"0.023": 0.0,
			"0.024": 0.0,
			"0.025": 0.0
		}
	}
}
