{
	 "smiles": "FC(F)(F)C1=NC2=C(C=CC=C2)C(S)=N1", 
	 "Tm": 488.15, 
	 "num_atms": 20, 
	 "gaussian": { 
		 "optdone": 1, 
		 "sigma_profile": "yes", 
		 "theory": "DFT", 
		 "functional": "B3LYP", 
		 "basiset": "6-31G**", 
		 "properties": { 
			 "R2extent": 4578.7436, 
			 "electric_dipole_moment_norm": 6.17667719166, 
			 "electric_quadrupole_moment_norm": 7.85953115459, 
			 "total_energy": -1153.18394065, 
			 "HOMO_LUMO_gap": 0.16943, 
			 "cosmo_polarized_energy": -11.49, 
			 "cosmo_cavitation_energy": 27.95, 
			 "cosmo_dispersion_energy": -20.78, 
			 "cosmo_repulsion_energy": 1.51, 
			 "cosmo_total_nonelectrostatic_energy": 8.69, 
			 "SMD_solvation_energy": 2.7 
		},
		"coords": [
			{
				"x": 1.3602241879,
				"y": 3.2248568929,
				"z": -3.0305135027,
				"element": "F" 
			},
			{
				"x": 1.4297794545,
				"y": 3.258855294,
				"z": -1.6846150106,
				"element": "C" 
			},
			{
				"x": 2.6488686803,
				"y": 3.7277040647,
				"z": -1.3509929029,
				"element": "F" 
			},
			{
				"x": 0.5132002123,
				"y": 4.1283448423,
				"z": -1.2416254752,
				"element": "F" 
			},
			{
				"x": 1.2212808225,
				"y": 1.8636111872,
				"z": -1.1070853565,
				"element": "C" 
			},
			{
				"x": 0.2195910059,
				"y": 1.6799655528,
				"z": -0.286766044,
				"element": "N" 
			},
			{
				"x": 0.0762424541,
				"y": 0.412031531,
				"z": 0.2024285286,
				"element": "C" 
			},
			{
				"x": 0.9653049634,
				"y": -0.6497889814,
				"z": -0.1586034079,
				"element": "C" 
			},
			{
				"x": 0.7477455322,
				"y": -1.9365569131,
				"z": 0.3928433806,
				"element": "C" 
			},
			{
				"x": -0.3006264814,
				"y": -2.1591590757,
				"z": 1.2599954649,
				"element": "C" 
			},
			{
				"x": -1.1769944763,
				"y": -1.1070737688,
				"z": 1.6142836869,
				"element": "C" 
			},
			{
				"x": -0.993335818,
				"y": 0.1551474076,
				"z": 1.0962193617,
				"element": "C" 
			},
			{
				"x": 2.0115423725,
				"y": -0.2748919327,
				"z": -1.0701795221,
				"element": "C" 
			},
			{
				"x": 3.2709006464,
				"y": -1.3533231267,
				"z": -1.7087186551,
				"element": "S" 
			},
			{
				"x": 2.1289354575,
				"y": 0.9539694976,
				"z": -1.5281387221,
				"element": "N" 
			},
			{
				"x": 1.4031803877,
				"y": -2.7626966007,
				"z": 0.1398286828,
				"element": "H" 
			},
			{
				"x": -0.4553677312,
				"y": -3.150323023,
				"z": 1.674763757,
				"element": "H" 
			},
			{
				"x": -1.9973576817,
				"y": -1.300675004,
				"z": 2.2987677941,
				"element": "H" 
			},
			{
				"x": -1.6465242999,
				"y": 0.983892458,
				"z": 1.3469878749,
				"element": "H" 
			},
			{
				"x": 2.8994103114,
				"y": -2.4846903018,
				"z": -1.0837799323,
				"element": "H" 
			}
		],
		 "valence_orbital": [ 
			{
				"type": "occ",
				"energy": -0.32174,
				"method": "rhf"
			},
			{
				"type": "occ",
				"energy": -0.29309,
				"method": "rhf"
			},
			{
				"type": "occ",
				"energy": -0.28218,
				"method": "rhf"
			},
			{
				"type": "occ",
				"energy": -0.27066,
				"method": "rhf"
			},
			{
				"type": "occ",
				"energy": -0.25246,
				"method": "rhf"
			},
			{
				"type": "unocc",
				"energy": -0.08303,
				"method": "rhf"
			},
			{
				"type": "unocc",
				"energy": -0.05361,
				"method": "rhf"
			},
			{
				"type": "unocc",
				"energy": -0.00485,
				"method": "rhf"
			},
			{
				"type": "unocc",
				"energy": 0.00469,
				"method": "rhf"
			},
			{
				"type": "unocc",
				"energy": 0.04005,
				"method": "rhf"
			}
		],
		"cosmo_sigma_profile": { 
			"-0.025": 0.0,
			"-0.024": 0.0,
			"-0.023": 0.0,
			"-0.022": 0.0,
			"-0.021": 0.0,
			"-0.02": 0.0,
			"-0.019": 0.0,
			"-0.018": 0.0,
			"-0.017": 0.0,
			"-0.016": 0.0,
			"-0.015": 0.0,
			"-0.014": 0.484296304749,
			"-0.013": 1.99414041851,
			"-0.012": 1.28259689303,
			"-0.011": 1.69128255439,
			"-0.01": 2.15669812246,
			"-0.009": 1.97756233989,
			"-0.008": 2.88598146436,
			"-0.007": 8.4863867692,
			"-0.006": 9.92842036375,
			"-0.005": 9.21788819611,
			"-0.004": 9.62372299338,
			"-0.003": 12.5428868744,
			"-0.002": 12.438356815,
			"-0.001": 13.9440410633,
			"0.0": 17.4375222086,
			"0.001": 19.5185297416,
			"0.002": 37.8042021196,
			"0.003": 29.4140924746,
			"0.004": 10.5287905363,
			"0.005": 7.14628938136,
			"0.006": 6.22961287136,
			"0.007": 3.24091347491,
			"0.008": 2.45735949728,
			"0.009": 2.00727657243,
			"0.01": 1.99669201074,
			"0.011": 1.51112454287,
			"0.012": 0.594896841109,
			"0.013": 0.383017634792,
			"0.014": 0.0,
			"0.015": 0.0,
			"0.016": 0.0,
			"0.017": 0.0,
			"0.018": 0.0,
			"0.019": 0.0,
			"0.02": 0.0,
			"0.021": 0.0,
			"0.022": 0.0,
			"0.023": 0.0,
			"0.024": 0.0,
			"0.025": 0.0
		}
	}
}
