{
	 "smiles": "OC1=C2CCCC(=O)C2=CC=C1", 
	 "Tm": 481.15, 
	 "num_atms": 22, 
	 "gaussian": { 
		 "optdone": 1, 
		 "sigma_profile": "yes", 
		 "theory": "DFT", 
		 "functional": "B3LYP", 
		 "basiset": "6-31G**", 
		 "properties": { 
			 "R2extent": 2231.4286, 
			 "electric_dipole_moment_norm": 3.85667678967, 
			 "electric_quadrupole_moment_norm": 10.3716013171, 
			 "total_energy": -537.550221573, 
			 "HOMO_LUMO_gap": 0.17628, 
			 "cosmo_polarized_energy": -12.15, 
			 "cosmo_cavitation_energy": 24.61, 
			 "cosmo_dispersion_energy": -18.64, 
			 "cosmo_repulsion_energy": 1.48, 
			 "cosmo_total_nonelectrostatic_energy": 7.45, 
			 "SMD_solvation_energy": 4.45 
		},
		"coords": [
			{
				"x": -1.9267951323,
				"y": -1.8247250538,
				"z": -2.797257559,
				"element": "O" 
			},
			{
				"x": -1.0327916634,
				"y": -0.9381739582,
				"z": -2.2568746539,
				"element": "C" 
			},
			{
				"x": -0.663136806,
				"y": -1.1454171408,
				"z": -0.9151366899,
				"element": "C" 
			},
			{
				"x": -1.2594933588,
				"y": -2.2938320736,
				"z": -0.13156048,
				"element": "C" 
			},
			{
				"x": -1.2074896833,
				"y": -2.0456421025,
				"z": 1.3802004517,
				"element": "C" 
			},
			{
				"x": 0.2087999326,
				"y": -1.6569108697,
				"z": 1.8176010867,
				"element": "C" 
			},
			{
				"x": 0.7304703636,
				"y": -0.4388244974,
				"z": 1.0693548688,
				"element": "C" 
			},
			{
				"x": 1.5142899497,
				"y": 0.3406383657,
				"z": 1.5904787736,
				"element": "O" 
			},
			{
				"x": 0.2659707671,
				"y": -0.2565324406,
				"z": -0.3421741002,
				"element": "C" 
			},
			{
				"x": 0.794862613,
				"y": 0.8149669213,
				"z": -1.0802268779,
				"element": "C" 
			},
			{
				"x": 0.4069459372,
				"y": 1.0044372098,
				"z": -2.3989032069,
				"element": "C" 
			},
			{
				"x": -0.5068767078,
				"y": 0.1267358849,
				"z": -2.9900918797,
				"element": "C" 
			},
			{
				"x": -2.1236630711,
				"y": -1.5616589553,
				"z": -3.7054070941,
				"element": "H" 
			},
			{
				"x": -2.2875684057,
				"y": -2.465846382,
				"z": -0.4638199935,
				"element": "H" 
			},
			{
				"x": -0.7118313879,
				"y": -3.2179281027,
				"z": -0.3719343113,
				"element": "H" 
			},
			{
				"x": -1.903618674,
				"y": -1.2379642648,
				"z": 1.6404858993,
				"element": "H" 
			},
			{
				"x": -1.5418832478,
				"y": -2.9374340428,
				"z": 1.9210469232,
				"element": "H" 
			},
			{
				"x": 0.9002619365,
				"y": -2.4866588047,
				"z": 1.6043849954,
				"element": "H" 
			},
			{
				"x": 0.2819457929,
				"y": -1.4503836158,
				"z": 2.8888825096,
				"element": "H" 
			},
			{
				"x": 1.5060389717,
				"y": 1.4714732952,
				"z": -0.5917074703,
				"element": "H" 
			},
			{
				"x": 0.8105490112,
				"y": 1.8285740645,
				"z": -2.9794961625,
				"element": "H" 
			},
			{
				"x": -0.8133871375,
				"y": 0.2705065633,
				"z": -4.0246450288,
				"element": "H" 
			}
		],
		 "valence_orbital": [ 
			{
				"type": "occ",
				"energy": -0.33191,
				"method": "rhf"
			},
			{
				"type": "occ",
				"energy": -0.32733,
				"method": "rhf"
			},
			{
				"type": "occ",
				"energy": -0.25313,
				"method": "rhf"
			},
			{
				"type": "occ",
				"energy": -0.23771,
				"method": "rhf"
			},
			{
				"type": "occ",
				"energy": -0.22627,
				"method": "rhf"
			},
			{
				"type": "unocc",
				"energy": -0.04999,
				"method": "rhf"
			},
			{
				"type": "unocc",
				"energy": 0.00178,
				"method": "rhf"
			},
			{
				"type": "unocc",
				"energy": 0.04872,
				"method": "rhf"
			},
			{
				"type": "unocc",
				"energy": 0.06199,
				"method": "rhf"
			},
			{
				"type": "unocc",
				"energy": 0.09968,
				"method": "rhf"
			}
		],
		"cosmo_sigma_profile": { 
			"-0.025": 0.0,
			"-0.024": 0.0,
			"-0.023": 0.0,
			"-0.022": 0.0,
			"-0.021": 0.0,
			"-0.02": 0.0,
			"-0.019": 0.0,
			"-0.018": 0.558954414037,
			"-0.017": 1.24563598058,
			"-0.016": 1.12262712213,
			"-0.015": 0.83431469631,
			"-0.014": 1.18871339288,
			"-0.013": 0.832028958168,
			"-0.012": 0.55148472635,
			"-0.011": 1.27201891687,
			"-0.01": 1.26857319888,
			"-0.009": 1.43718537346,
			"-0.008": 1.07155754724,
			"-0.007": 1.7523458433,
			"-0.006": 5.20701396875,
			"-0.005": 9.27877413616,
			"-0.004": 17.2866379065,
			"-0.003": 19.0276512844,
			"-0.002": 20.3712755433,
			"-0.001": 17.2673937292,
			"0.0": 12.3534143129,
			"0.001": 8.14780069906,
			"0.002": 12.3234196332,
			"0.003": 12.8171682244,
			"0.004": 12.177826513,
			"0.005": 7.78188381532,
			"0.006": 3.92630555447,
			"0.007": 3.99770697839,
			"0.008": 2.12763976115,
			"0.009": 4.07022111137,
			"0.01": 3.11381477836,
			"0.011": 2.66728488171,
			"0.012": 4.31566651613,
			"0.013": 2.50920010857,
			"0.014": 0.630689360496,
			"0.015": 0.0,
			"0.016": 0.0,
			"0.017": 0.0,
			"0.018": 0.0,
			"0.019": 0.0,
			"0.02": 0.0,
			"0.021": 0.0,
			"0.022": 0.0,
			"0.023": 0.0,
			"0.024": 0.0,
			"0.025": 0.0
		}
	}
}
