{
	 "smiles": "C1=CC=C(C=C1)N=NC1=CC=C(C=C1)N=NC1=CC=C(C=C1)N=NC1=CC=C(C=C1)N=NC1=CC=CC=C1", 
	 "Tm": 548.15, 
	 "num_atms": 60, 
	 "gaussian": { 
		 "optdone": 1, 
		 "sigma_profile": "yes", 
		 "theory": "DFT", 
		 "functional": "B3LYP", 
		 "basiset": "6-31G**", 
		 "properties": { 
			 "R2extent": 46380.7617, 
			 "electric_dipole_moment_norm": 3.69911817194, 
			 "electric_quadrupole_moment_norm": 23.4775347596, 
			 "total_energy": -1594.27748922, 
			 "HOMO_LUMO_gap": 0.1009, 
			 "cosmo_polarized_energy": -16.25, 
			 "cosmo_cavitation_energy": 69.36, 
			 "cosmo_dispersion_energy": -48.83, 
			 "cosmo_repulsion_energy": 3.6, 
			 "cosmo_total_nonelectrostatic_energy": 24.13, 
			 "SMD_solvation_energy": 5.78 
		},
		"coords": [
			{
				"x": 6.0388826259,
				"y": 1.3219884483,
				"z": -7.432277949,
				"element": "C" 
			},
			{
				"x": 5.5813655196,
				"y": 0.1752682302,
				"z": -6.7805069692,
				"element": "C" 
			},
			{
				"x": 5.4357489158,
				"y": 0.1775496789,
				"z": -5.3944378375,
				"element": "C" 
			},
			{
				"x": 5.7467652405,
				"y": 1.3267964183,
				"z": -4.6541032921,
				"element": "C" 
			},
			{
				"x": 6.2075487821,
				"y": 2.4813260343,
				"z": -5.312197361,
				"element": "C" 
			},
			{
				"x": 6.3506034242,
				"y": 2.4718632899,
				"z": -6.6943563558,
				"element": "C" 
			},
			{
				"x": 5.5614625945,
				"y": 1.2150184392,
				"z": -3.2548196782,
				"element": "N" 
			},
			{
				"x": 5.8422394371,
				"y": 2.2545527794,
				"z": -2.5963437853,
				"element": "N" 
			},
			{
				"x": 5.6506210087,
				"y": 2.139404651,
				"z": -1.1997704623,
				"element": "C" 
			},
			{
				"x": 5.1712889976,
				"y": 0.9878193206,
				"z": -0.5465284692,
				"element": "C" 
			},
			{
				"x": 5.0033758459,
				"y": 0.9871388627,
				"z": 0.8286361676,
				"element": "C" 
			},
			{
				"x": 5.327396665,
				"y": 2.1347264386,
				"z": 1.5799209614,
				"element": "C" 
			},
			{
				"x": 5.8586436863,
				"y": 3.2623294651,
				"z": 0.9373267467,
				"element": "C" 
			},
			{
				"x": 5.9882622227,
				"y": 3.2733341804,
				"z": -0.4458931184,
				"element": "C" 
			},
			{
				"x": 5.3295157731,
				"y": 2.1557620289,
				"z": 3.0079332286,
				"element": "N" 
			},
			{
				"x": 4.4042778468,
				"y": 1.7069899007,
				"z": 3.7185675891,
				"element": "N" 
			},
			{
				"x": 3.1180060064,
				"y": 1.3336218796,
				"z": 3.2255477363,
				"element": "C" 
			},
			{
				"x": 2.5452830521,
				"y": 0.1733795492,
				"z": 3.7807164766,
				"element": "C" 
			},
			{
				"x": 1.2544977232,
				"y": -0.2002974259,
				"z": 3.4463115543,
				"element": "C" 
			},
			{
				"x": 0.4875953576,
				"y": 0.6178824531,
				"z": 2.5937150751,
				"element": "C" 
			},
			{
				"x": 1.0427227691,
				"y": 1.8039512994,
				"z": 2.0881217975,
				"element": "C" 
			},
			{
				"x": 2.3505050331,
				"y": 2.1617605238,
				"z": 2.3906305549,
				"element": "C" 
			},
			{
				"x": -0.842372857,
				"y": 0.3531800194,
				"z": 2.2021588244,
				"element": "N" 
			},
			{
				"x": -1.3248534218,
				"y": -0.722441486,
				"z": 2.6590538944,
				"element": "N" 
			},
			{
				"x": -2.6554713224,
				"y": -0.9883329396,
				"z": 2.2678494786,
				"element": "C" 
			},
			{
				"x": -3.4318544706,
				"y": -0.1569999388,
				"z": 1.439805794,
				"element": "C" 
			},
			{
				"x": -4.7298858438,
				"y": -0.5275973115,
				"z": 1.125650176,
				"element": "C" 
			},
			{
				"x": -5.2772694844,
				"y": -1.7235130126,
				"z": 1.6252668856,
				"element": "C" 
			},
			{
				"x": -4.5014241873,
				"y": -2.5546324712,
				"z": 2.4532586875,
				"element": "C" 
			},
			{
				"x": -3.2033343005,
				"y": -2.1843843803,
				"z": 2.7676774124,
				"element": "C" 
			},
			{
				"x": -6.6100657773,
				"y": -1.990024595,
				"z": 1.2334217903,
				"element": "N" 
			},
			{
				"x": -7.0885201451,
				"y": -3.066200231,
				"z": 1.6880712011,
				"element": "N" 
			},
			{
				"x": -8.422205843,
				"y": -3.3368890948,
				"z": 1.2986302721,
				"element": "C" 
			},
			{
				"x": -9.2004261034,
				"y": -2.5063651833,
				"z": 0.4719566054,
				"element": "C" 
			},
			{
				"x": -10.5018091854,
				"y": -2.8777863412,
				"z": 0.157148162,
				"element": "C" 
			},
			{
				"x": -11.040019121,
				"y": -4.0711186355,
				"z": 0.6575393268,
				"element": "C" 
			},
			{
				"x": -10.2689788529,
				"y": -4.8965338656,
				"z": 1.4781587394,
				"element": "C" 
			},
			{
				"x": -8.9629387163,
				"y": -4.5302856629,
				"z": 1.7980640108,
				"element": "C" 
			},
			{
				"x": 6.1539128596,
				"y": 1.3241010613,
				"z": -8.5123844979,
				"element": "H" 
			},
			{
				"x": 5.3392998299,
				"y": -0.7169095662,
				"z": -7.3502304805,
				"element": "H" 
			},
			{
				"x": 5.0826580956,
				"y": -0.6976780921,
				"z": -4.8583768337,
				"element": "H" 
			},
			{
				"x": 6.4432598822,
				"y": 3.359775565,
				"z": -4.7226964228,
				"element": "H" 
			},
			{
				"x": 6.7065471644,
				"y": 3.3617546665,
				"z": -7.2058036825,
				"element": "H" 
			},
			{
				"x": 4.9356918252,
				"y": 0.1125225579,
				"z": -1.140697238,
				"element": "H" 
			},
			{
				"x": 4.6375215808,
				"y": 0.0992774488,
				"z": 1.3327889145,
				"element": "H" 
			},
			{
				"x": 6.1526956669,
				"y": 4.1174718204,
				"z": 1.537299392,
				"element": "H" 
			},
			{
				"x": 6.3701116229,
				"y": 4.1436618592,
				"z": -0.9696189089,
				"element": "H" 
			},
			{
				"x": 3.1403347942,
				"y": -0.4213716889,
				"z": 4.4668924143,
				"element": "H" 
			},
			{
				"x": 0.8077986015,
				"y": -1.1040885842,
				"z": 3.8437656715,
				"element": "H" 
			},
			{
				"x": 0.4239133201,
				"y": 2.4282099633,
				"z": 1.4516189301,
				"element": "H" 
			},
			{
				"x": 2.7737978553,
				"y": 3.0795464248,
				"z": 1.9982322863,
				"element": "H" 
			},
			{
				"x": -2.9968538751,
				"y": 0.7608922248,
				"z": 1.0625887014,
				"element": "H" 
			},
			{
				"x": -5.3550918671,
				"y": 0.0912334211,
				"z": 0.4896989151,
				"element": "H" 
			},
			{
				"x": -4.9372555136,
				"y": -3.4722014977,
				"z": 2.8303211156,
				"element": "H" 
			},
			{
				"x": -2.5785900661,
				"y": -2.8032507696,
				"z": 3.4040803855,
				"element": "H" 
			},
			{
				"x": -8.7646993436,
				"y": -1.5879889499,
				"z": 0.0958790179,
				"element": "H" 
			},
			{
				"x": -11.1057127025,
				"y": -2.238792027,
				"z": -0.4809341931,
				"element": "H" 
			},
			{
				"x": -12.0584013888,
				"y": -4.3530622023,
				"z": 0.4059702171,
				"element": "H" 
			},
			{
				"x": -10.6841222302,
				"y": -5.8215432311,
				"z": 1.8669692306,
				"element": "H" 
			},
			{
				"x": -8.3378950069,
				"y": -5.1498017202,
				"z": 2.4333331947,
				"element": "H" 
			}
		],
		 "valence_orbital": [ 
			{
				"type": "occ",
				"energy": -0.23354,
				"method": "rhf"
			},
			{
				"type": "occ",
				"energy": -0.23134,
				"method": "rhf"
			},
			{
				"type": "occ",
				"energy": -0.23021,
				"method": "rhf"
			},
			{
				"type": "occ",
				"energy": -0.22805,
				"method": "rhf"
			},
			{
				"type": "occ",
				"energy": -0.2103,
				"method": "rhf"
			},
			{
				"type": "unocc",
				"energy": -0.1094,
				"method": "rhf"
			},
			{
				"type": "unocc",
				"energy": -0.09329,
				"method": "rhf"
			},
			{
				"type": "unocc",
				"energy": -0.07081,
				"method": "rhf"
			},
			{
				"type": "unocc",
				"energy": -0.05276,
				"method": "rhf"
			},
			{
				"type": "unocc",
				"energy": -0.02092,
				"method": "rhf"
			}
		],
		"cosmo_sigma_profile": { 
			"-0.025": 0.0,
			"-0.024": 0.0,
			"-0.023": 0.0,
			"-0.022": 0.0,
			"-0.021": 0.0,
			"-0.02": 0.0,
			"-0.019": 0.0,
			"-0.018": 0.0,
			"-0.017": 0.0,
			"-0.016": 0.0,
			"-0.015": 0.0,
			"-0.014": 0.0,
			"-0.013": 0.0,
			"-0.012": 0.0,
			"-0.011": 0.0,
			"-0.01": 0.0,
			"-0.009": 0.0,
			"-0.008": 0.389553666759,
			"-0.007": 13.8255335806,
			"-0.006": 37.3597972054,
			"-0.005": 42.8824684957,
			"-0.004": 39.5679476112,
			"-0.003": 31.2385381326,
			"-0.002": 30.3737528773,
			"-0.001": 27.5442619095,
			"0.0": 40.4800531411,
			"0.001": 74.1862855862,
			"0.002": 86.2130483549,
			"0.003": 52.3469205926,
			"0.004": 36.9141787578,
			"0.005": 12.9946975446,
			"0.006": 9.73696059048,
			"0.007": 10.6476645615,
			"0.008": 3.84676609964,
			"0.009": 1.55975372901,
			"0.01": 2.74053441858,
			"0.011": 2.40032779004,
			"0.012": 1.98276231868,
			"0.013": 1.1844742029,
			"0.014": 0.0555156748545,
			"0.015": 0.0,
			"0.016": 0.0,
			"0.017": 0.0,
			"0.018": 0.0,
			"0.019": 0.0,
			"0.02": 0.0,
			"0.021": 0.0,
			"0.022": 0.0,
			"0.023": 0.0,
			"0.024": 0.0,
			"0.025": 0.0
		}
	}
}
