{
	 "smiles": "C(N1C=CC=C1)C1=CN=CC=C1", 
	 "Tm": 334.65, 
	 "num_atms": 22, 
	 "gaussian": { 
		 "optdone": 1, 
		 "sigma_profile": "yes", 
		 "theory": "DFT", 
		 "functional": "B3LYP", 
		 "basiset": "6-31G**", 
		 "properties": { 
			 "R2extent": 2331.7093, 
			 "electric_dipole_moment_norm": 1.04077230459, 
			 "electric_quadrupole_moment_norm": 9.4240409199, 
			 "total_energy": -496.570024286, 
			 "HOMO_LUMO_gap": 0.18133, 
			 "cosmo_polarized_energy": -9.35, 
			 "cosmo_cavitation_energy": 25.83, 
			 "cosmo_dispersion_energy": -18.63, 
			 "cosmo_repulsion_energy": 1.47, 
			 "cosmo_total_nonelectrostatic_energy": 8.67, 
			 "SMD_solvation_energy": 3.49 
		},
		"coords": [
			{
				"x": 1.1693872489,
				"y": -0.5125917308,
				"z": 0.3003256886,
				"element": "C" 
			},
			{
				"x": 1.6334497566,
				"y": 0.8562646679,
				"z": 0.1517652766,
				"element": "N" 
			},
			{
				"x": 2.2289461809,
				"y": 1.3819820546,
				"z": -0.9760119213,
				"element": "C" 
			},
			{
				"x": 2.4373397613,
				"y": 2.7286097648,
				"z": -0.7676974587,
				"element": "C" 
			},
			{
				"x": 1.9443082708,
				"y": 3.0352901127,
				"z": 0.5328000942,
				"element": "C" 
			},
			{
				"x": 1.4523441478,
				"y": 1.8661732061,
				"z": 1.0719563048,
				"element": "C" 
			},
			{
				"x": -0.3303874856,
				"y": -0.6867341893,
				"z": 0.1267536612,
				"element": "C" 
			},
			{
				"x": -0.9992582243,
				"y": -1.7209286088,
				"z": 0.79179137,
				"element": "C" 
			},
			{
				"x": -2.3062167441,
				"y": -1.9768247858,
				"z": 0.6693365578,
				"element": "N" 
			},
			{
				"x": -3.0120046767,
				"y": -1.1786604683,
				"z": -0.1409178933,
				"element": "C" 
			},
			{
				"x": -2.4523841293,
				"y": -0.1102665028,
				"z": -0.8438460115,
				"element": "C" 
			},
			{
				"x": -1.0884813851,
				"y": 0.1392077407,
				"z": -0.7078754386,
				"element": "C" 
			},
			{
				"x": 1.4716585548,
				"y": -0.8883632941,
				"z": 1.284336716,
				"element": "H" 
			},
			{
				"x": 1.7052772592,
				"y": -1.1179691676,
				"z": -0.4397968996,
				"element": "H" 
			},
			{
				"x": 2.4639263476,
				"y": 0.747768164,
				"z": -1.8188450635,
				"element": "H" 
			},
			{
				"x": 2.9031679773,
				"y": 3.4115744798,
				"z": -1.4642723824,
				"element": "H" 
			},
			{
				"x": 1.95810498,
				"y": 3.9994826963,
				"z": 1.0216574031,
				"element": "H" 
			},
			{
				"x": 0.9863570003,
				"y": 1.6647172711,
				"z": 2.0256326032,
				"element": "H" 
			},
			{
				"x": -0.4470633317,
				"y": -2.3775451377,
				"z": 1.4653141355,
				"element": "H" 
			},
			{
				"x": -4.074338461,
				"y": -1.400069373,
				"z": -0.2271865842,
				"element": "H" 
			},
			{
				"x": -3.0734086493,
				"y": 0.5126163535,
				"z": -1.4801942809,
				"element": "H" 
			},
			{
				"x": -0.6160243981,
				"y": 0.9659667468,
				"z": -1.230625877,
				"element": "H" 
			}
		],
		 "valence_orbital": [ 
			{
				"type": "occ",
				"energy": -0.28729,
				"method": "rhf"
			},
			{
				"type": "occ",
				"energy": -0.26199,
				"method": "rhf"
			},
			{
				"type": "occ",
				"energy": -0.25707,
				"method": "rhf"
			},
			{
				"type": "occ",
				"energy": -0.23233,
				"method": "rhf"
			},
			{
				"type": "occ",
				"energy": -0.20865,
				"method": "rhf"
			},
			{
				"type": "unocc",
				"energy": -0.02732,
				"method": "rhf"
			},
			{
				"type": "unocc",
				"energy": -0.01605,
				"method": "rhf"
			},
			{
				"type": "unocc",
				"energy": 0.03693,
				"method": "rhf"
			},
			{
				"type": "unocc",
				"energy": 0.08478,
				"method": "rhf"
			},
			{
				"type": "unocc",
				"energy": 0.09495,
				"method": "rhf"
			}
		],
		"cosmo_sigma_profile": { 
			"-0.025": 0.0,
			"-0.024": 0.0,
			"-0.023": 0.0,
			"-0.022": 0.0,
			"-0.021": 0.0,
			"-0.02": 0.0,
			"-0.019": 0.0,
			"-0.018": 0.0,
			"-0.017": 0.0,
			"-0.016": 0.0,
			"-0.015": 0.0,
			"-0.014": 0.0,
			"-0.013": 0.0,
			"-0.012": 0.0,
			"-0.011": 0.0,
			"-0.01": 0.0,
			"-0.009": 0.000270678124384,
			"-0.008": 1.46266749282,
			"-0.007": 10.9201274168,
			"-0.006": 16.7877239787,
			"-0.005": 17.674964511,
			"-0.004": 17.2533621708,
			"-0.003": 13.2338163532,
			"-0.002": 12.1973002873,
			"-0.001": 14.3984586047,
			"0.0": 11.9793282137,
			"0.001": 12.6612934215,
			"0.002": 17.2234618298,
			"0.003": 15.7903862041,
			"0.004": 8.21957555228,
			"0.005": 7.42088163764,
			"0.006": 5.74248101178,
			"0.007": 6.09541000056,
			"0.008": 6.55412124482,
			"0.009": 4.28735964689,
			"0.01": 1.10239437718,
			"0.011": 0.802711083549,
			"0.012": 1.2402913069,
			"0.013": 0.821395278304,
			"0.014": 0.863027640266,
			"0.015": 0.83543903793,
			"0.016": 0.968015003628,
			"0.017": 0.314010993773,
			"0.018": 0.0,
			"0.019": 0.0,
			"0.02": 0.0,
			"0.021": 0.0,
			"0.022": 0.0,
			"0.023": 0.0,
			"0.024": 0.0,
			"0.025": 0.0
		}
	}
}
