{
	 "smiles": "CC1(C)OC(=O)C(=CC2=CC=C(C=C2)[N+]([O-])=O)C(=O)O1", 
	 "Tm": 574.15, 
	 "num_atms": 31, 
	 "gaussian": { 
		 "optdone": 1, 
		 "sigma_profile": "yes", 
		 "theory": "DFT", 
		 "functional": "B3LYP", 
		 "basiset": "6-31G**", 
		 "properties": { 
			 "R2extent": 8373.2408, 
			 "electric_dipole_moment_norm": 4.60118193946, 
			 "electric_quadrupole_moment_norm": 26.4427362744, 
			 "total_energy": -1008.01536909, 
			 "HOMO_LUMO_gap": 0.1501, 
			 "cosmo_polarized_energy": -16.55, 
			 "cosmo_cavitation_energy": 36.47, 
			 "cosmo_dispersion_energy": -26.24, 
			 "cosmo_repulsion_energy": 1.98, 
			 "cosmo_total_nonelectrostatic_energy": 12.22, 
			 "SMD_solvation_energy": 10.53 
		},
		"coords": [
			{
				"x": 1.1510902013,
				"y": 2.7004968125,
				"z": 3.8826396966,
				"element": "C" 
			},
			{
				"x": 1.2981502101,
				"y": 1.5824089369,
				"z": 2.8663413728,
				"element": "C" 
			},
			{
				"x": 2.7117503016,
				"y": 1.4549858295,
				"z": 2.3016571075,
				"element": "C" 
			},
			{
				"x": 0.3697945523,
				"y": 1.8809254177,
				"z": 1.8120418525,
				"element": "O" 
			},
			{
				"x": -0.0422800077,
				"y": 0.9076048862,
				"z": 0.9548051712,
				"element": "C" 
			},
			{
				"x": -0.6598186922,
				"y": 1.2439195905,
				"z": -0.0318498996,
				"element": "O" 
			},
			{
				"x": 0.2522871829,
				"y": -0.4879645277,
				"z": 1.371201525,
				"element": "C" 
			},
			{
				"x": 0.2084877456,
				"y": -1.6197120583,
				"z": 0.6120303247,
				"element": "C" 
			},
			{
				"x": -0.0270472546,
				"y": -1.9539013025,
				"z": -0.790197947,
				"element": "C" 
			},
			{
				"x": 0.2459590486,
				"y": -3.2986274671,
				"z": -1.1392318394,
				"element": "C" 
			},
			{
				"x": 0.0844521806,
				"y": -3.7604091289,
				"z": -2.4377365137,
				"element": "C" 
			},
			{
				"x": -0.3671559254,
				"y": -2.8638447025,
				"z": -3.4036916622,
				"element": "C" 
			},
			{
				"x": -0.6605050126,
				"y": -1.5357638574,
				"z": -3.1014984227,
				"element": "C" 
			},
			{
				"x": -0.4928121298,
				"y": -1.081191115,
				"z": -1.798305207,
				"element": "C" 
			},
			{
				"x": -0.5456465769,
				"y": -3.3402252899,
				"z": -4.7882901313,
				"element": "N" 
			},
			{
				"x": -0.2808372394,
				"y": -4.5186270501,
				"z": -5.0209506486,
				"element": "O" 
			},
			{
				"x": -0.9459927053,
				"y": -2.5291892902,
				"z": -5.6209175535,
				"element": "O" 
			},
			{
				"x": 0.5940978516,
				"y": -0.7241989316,
				"z": 2.8155967304,
				"element": "C" 
			},
			{
				"x": 0.5600021801,
				"y": -1.8050378686,
				"z": 3.3559659522,
				"element": "O" 
			},
			{
				"x": 0.9231340444,
				"y": 0.3759858594,
				"z": 3.5439294414,
				"element": "O" 
			},
			{
				"x": 1.8197441719,
				"y": 2.5236602821,
				"z": 4.727897657,
				"element": "H" 
			},
			{
				"x": 1.399190357,
				"y": 3.6580883516,
				"z": 3.4197655522,
				"element": "H" 
			},
			{
				"x": 0.1208842928,
				"y": 2.7336037564,
				"z": 4.2425942814,
				"element": "H" 
			},
			{
				"x": 2.7738996262,
				"y": 0.6421980428,
				"z": 1.5727538047,
				"element": "H" 
			},
			{
				"x": 3.4156994827,
				"y": 1.2488842856,
				"z": 3.1113440741,
				"element": "H" 
			},
			{
				"x": 2.9978279056,
				"y": 2.3864614374,
				"z": 1.807535837,
				"element": "H" 
			},
			{
				"x": 0.44427663,
				"y": -2.4984829648,
				"z": 1.2109168266,
				"element": "H" 
			},
			{
				"x": 0.5953869718,
				"y": -3.9849719359,
				"z": -0.3737796639,
				"element": "H" 
			},
			{
				"x": 0.2952206069,
				"y": -4.7859291624,
				"z": -2.7128005545,
				"element": "H" 
			},
			{
				"x": -1.0188754883,
				"y": -0.8792831279,
				"z": -3.8844320557,
				"element": "H" 
			},
			{
				"x": -0.7329645117,
				"y": -0.0586637079,
				"z": -1.5441351081,
				"element": "H" 
			}
		],
		 "valence_orbital": [ 
			{
				"type": "occ",
				"energy": -0.30635,
				"method": "rhf"
			},
			{
				"type": "occ",
				"energy": -0.30041,
				"method": "rhf"
			},
			{
				"type": "occ",
				"energy": -0.29011,
				"method": "rhf"
			},
			{
				"type": "occ",
				"energy": -0.28718,
				"method": "rhf"
			},
			{
				"type": "occ",
				"energy": -0.27465,
				"method": "rhf"
			},
			{
				"type": "unocc",
				"energy": -0.12455,
				"method": "rhf"
			},
			{
				"type": "unocc",
				"energy": -0.07501,
				"method": "rhf"
			},
			{
				"type": "unocc",
				"energy": -0.03798,
				"method": "rhf"
			},
			{
				"type": "unocc",
				"energy": -0.01551,
				"method": "rhf"
			},
			{
				"type": "unocc",
				"energy": 0.00458,
				"method": "rhf"
			}
		],
		"cosmo_sigma_profile": { 
			"-0.025": 0.0,
			"-0.024": 0.0,
			"-0.023": 0.0,
			"-0.022": 0.0,
			"-0.021": 0.0,
			"-0.02": 0.0,
			"-0.019": 0.0,
			"-0.018": 0.0,
			"-0.017": 0.0,
			"-0.016": 0.0,
			"-0.015": 0.0,
			"-0.014": 0.0,
			"-0.013": 0.0,
			"-0.012": 0.0,
			"-0.011": 0.125573939857,
			"-0.01": 1.38875023861,
			"-0.009": 2.57913043946,
			"-0.008": 5.76566850129,
			"-0.007": 10.0706901152,
			"-0.006": 20.5980194249,
			"-0.005": 21.0753509367,
			"-0.004": 21.6243239759,
			"-0.003": 24.4420875257,
			"-0.002": 30.1312423533,
			"-0.001": 27.9100719096,
			"0.0": 23.863309514,
			"0.001": 13.8775722972,
			"0.002": 5.85961322327,
			"0.003": 6.98620394487,
			"0.004": 7.36005638175,
			"0.005": 6.48568897377,
			"0.006": 9.43923400834,
			"0.007": 13.6798176298,
			"0.008": 11.7713777579,
			"0.009": 10.194740363,
			"0.01": 7.46318053495,
			"0.011": 6.86086825799,
			"0.012": 2.68335241608,
			"0.013": 0.0733042366483,
			"0.014": 0.0,
			"0.015": 0.0,
			"0.016": 0.0,
			"0.017": 0.0,
			"0.018": 0.0,
			"0.019": 0.0,
			"0.02": 0.0,
			"0.021": 0.0,
			"0.022": 0.0,
			"0.023": 0.0,
			"0.024": 0.0,
			"0.025": 0.0
		}
	}
}
