{
	 "smiles": "CC1=CC=CC=C1CC(O)=O", 
	 "Tm": 361.15, 
	 "num_atms": 21, 
	 "gaussian": { 
		 "optdone": 1, 
		 "sigma_profile": "yes", 
		 "theory": "DFT", 
		 "functional": "B3LYP", 
		 "basiset": "6-31G**", 
		 "properties": { 
			 "R2extent": 1937.152, 
			 "electric_dipole_moment_norm": 4.56142483332, 
			 "electric_quadrupole_moment_norm": 11.9147125228, 
			 "total_energy": -499.450810106, 
			 "HOMO_LUMO_gap": 0.22697, 
			 "cosmo_polarized_energy": -12.11, 
			 "cosmo_cavitation_energy": 24.38, 
			 "cosmo_dispersion_energy": -17.52, 
			 "cosmo_repulsion_energy": 1.41, 
			 "cosmo_total_nonelectrostatic_energy": 8.27, 
			 "SMD_solvation_energy": 5.24 
		},
		"coords": [
			{
				"x": -0.8843150513,
				"y": 1.7004961432,
				"z": 0.8301506933,
				"element": "C" 
			},
			{
				"x": -1.2063868003,
				"y": 0.8038689893,
				"z": -0.3425412922,
				"element": "C" 
			},
			{
				"x": -2.3840570858,
				"y": 0.9979194019,
				"z": -1.0738956917,
				"element": "C" 
			},
			{
				"x": -2.715715648,
				"y": 0.1822484178,
				"z": -2.1570572615,
				"element": "C" 
			},
			{
				"x": -1.8619561796,
				"y": -0.8540281035,
				"z": -2.5296194212,
				"element": "C" 
			},
			{
				"x": -0.681651012,
				"y": -1.0590909256,
				"z": -1.8137548115,
				"element": "C" 
			},
			{
				"x": -0.3366508511,
				"y": -0.2448130152,
				"z": -0.7249796578,
				"element": "C" 
			},
			{
				"x": 0.9443710158,
				"y": -0.5133175562,
				"z": 0.03512228,
				"element": "C" 
			},
			{
				"x": 0.7828553976,
				"y": -1.2027562287,
				"z": 1.4007819005,
				"element": "C" 
			},
			{
				"x": -0.3616181544,
				"y": -1.9030625377,
				"z": 1.5839855164,
				"element": "O" 
			},
			{
				"x": 1.6295186408,
				"y": -1.1634124963,
				"z": 2.2577406901,
				"element": "O" 
			},
			{
				"x": 0.0689969582,
				"y": 2.223984718,
				"z": 0.6918354738,
				"element": "H" 
			},
			{
				"x": -1.6611428879,
				"y": 2.456576604,
				"z": 0.9677801189,
				"element": "H" 
			},
			{
				"x": -0.8029501361,
				"y": 1.1343120025,
				"z": 1.7652147586,
				"element": "H" 
			},
			{
				"x": -3.0530643087,
				"y": 1.8048635598,
				"z": -0.7862154688,
				"element": "H" 
			},
			{
				"x": -3.6369253141,
				"y": 0.3580083033,
				"z": -2.7048838701,
				"element": "H" 
			},
			{
				"x": -2.1059861726,
				"y": -1.4949978587,
				"z": -3.3714461818,
				"element": "H" 
			},
			{
				"x": -0.0066911555,
				"y": -1.8593993061,
				"z": -2.1084372928,
				"element": "H" 
			},
			{
				"x": 1.5145662642,
				"y": 0.3999665021,
				"z": 0.2244490058,
				"element": "H" 
			},
			{
				"x": 1.5982648619,
				"y": -1.1655292161,
				"z": -0.5560389664,
				"element": "H" 
			},
			{
				"x": -0.928862381,
				"y": -1.7997373979,
				"z": 0.8022094786,
				"element": "H" 
			}
		],
		 "valence_orbital": [ 
			{
				"type": "occ",
				"energy": -0.35138,
				"method": "rhf"
			},
			{
				"type": "occ",
				"energy": -0.30905,
				"method": "rhf"
			},
			{
				"type": "occ",
				"energy": -0.27862,
				"method": "rhf"
			},
			{
				"type": "occ",
				"energy": -0.26,
				"method": "rhf"
			},
			{
				"type": "occ",
				"energy": -0.2495,
				"method": "rhf"
			},
			{
				"type": "unocc",
				"energy": -0.02253,
				"method": "rhf"
			},
			{
				"type": "unocc",
				"energy": -0.01568,
				"method": "rhf"
			},
			{
				"type": "unocc",
				"energy": 0.01454,
				"method": "rhf"
			},
			{
				"type": "unocc",
				"energy": 0.07625,
				"method": "rhf"
			},
			{
				"type": "unocc",
				"energy": 0.08723,
				"method": "rhf"
			}
		],
		"cosmo_sigma_profile": { 
			"-0.025": 0.0,
			"-0.024": 0.0,
			"-0.023": 0.0,
			"-0.022": 0.0,
			"-0.021": 0.0,
			"-0.02": 0.0,
			"-0.019": 0.0,
			"-0.018": 0.0,
			"-0.017": 0.0,
			"-0.016": 0.0,
			"-0.015": 0.0,
			"-0.014": 0.216767116867,
			"-0.013": 0.738448457498,
			"-0.012": 0.488981260867,
			"-0.011": 0.722882662608,
			"-0.01": 1.45964059159,
			"-0.009": 1.26712909597,
			"-0.008": 2.81693905588,
			"-0.007": 6.16310684935,
			"-0.006": 11.1540031901,
			"-0.005": 16.1736215952,
			"-0.004": 18.1172556336,
			"-0.003": 18.9668846198,
			"-0.002": 13.7071613511,
			"-0.001": 13.2072136163,
			"0.0": 12.7974102111,
			"0.001": 10.0243728594,
			"0.002": 8.51363006182,
			"0.003": 8.94579679395,
			"0.004": 9.09529179982,
			"0.005": 8.20263863223,
			"0.006": 4.11342199821,
			"0.007": 1.95952469254,
			"0.008": 2.50276004588,
			"0.009": 3.07822755377,
			"0.01": 4.38303015305,
			"0.011": 5.36499975723,
			"0.012": 5.6459392573,
			"0.013": 3.17051831724,
			"0.014": 0.179421386684,
			"0.015": 0.0,
			"0.016": 0.0,
			"0.017": 0.0,
			"0.018": 0.0,
			"0.019": 0.0,
			"0.02": 0.0,
			"0.021": 0.0,
			"0.022": 0.0,
			"0.023": 0.0,
			"0.024": 0.0,
			"0.025": 0.0
		}
	}
}
