{
	 "smiles": "COC1=CC=C(CC2=CN=C(NC(=O)CCl)S2)C=C1", 
	 "Tm": 426.15, 
	 "num_atms": 32, 
	 "gaussian": { 
		 "optdone": 1, 
		 "sigma_profile": "yes", 
		 "theory": "DFT", 
		 "functional": "B3LYP", 
		 "basiset": "6-31G**", 
		 "properties": { 
			 "R2extent": 11144.4592, 
			 "electric_dipole_moment_norm": 5.39340467423, 
			 "electric_quadrupole_moment_norm": 29.5620626483, 
			 "total_energy": -1621.53673459, 
			 "HOMO_LUMO_gap": 0.18061, 
			 "cosmo_polarized_energy": -17.63, 
			 "cosmo_cavitation_energy": 40.24, 
			 "cosmo_dispersion_energy": -29.17, 
			 "cosmo_repulsion_energy": 2.24, 
			 "cosmo_total_nonelectrostatic_energy": 13.32, 
			 "SMD_solvation_energy": 6.03 
		},
		"coords": [
			{
				"x": 2.5540894784,
				"y": -2.6874274805,
				"z": 3.5008903056,
				"element": "C" 
			},
			{
				"x": 2.1146579772,
				"y": -3.3396304614,
				"z": 2.3198979244,
				"element": "O" 
			},
			{
				"x": 1.2488271223,
				"y": -2.6776235967,
				"z": 1.499430053,
				"element": "C" 
			},
			{
				"x": 0.7530233307,
				"y": -1.3885306399,
				"z": 1.7357337445,
				"element": "C" 
			},
			{
				"x": -0.1295121673,
				"y": -0.8102530063,
				"z": 0.821715203,
				"element": "C" 
			},
			{
				"x": -0.5370805997,
				"y": -1.4875018457,
				"z": -0.3313516529,
				"element": "C" 
			},
			{
				"x": -1.5183939384,
				"y": -0.8573865973,
				"z": -1.3091643445,
				"element": "C" 
			},
			{
				"x": -1.1160863147,
				"y": 0.4918609202,
				"z": -1.8351222394,
				"element": "C" 
			},
			{
				"x": -1.7672798436,
				"y": 1.6858847109,
				"z": -1.7423713287,
				"element": "C" 
			},
			{
				"x": -1.1772023412,
				"y": 2.7803014643,
				"z": -2.3312835102,
				"element": "N" 
			},
			{
				"x": -0.0497463979,
				"y": 2.4468243733,
				"z": -2.8933748481,
				"element": "C" 
			},
			{
				"x": 0.702046112,
				"y": 3.4172696042,
				"z": -3.5435126964,
				"element": "N" 
			},
			{
				"x": 1.9121115203,
				"y": 3.4480297588,
				"z": -4.2292392171,
				"element": "C" 
			},
			{
				"x": 2.3091477826,
				"y": 4.4972441204,
				"z": -4.6928577932,
				"element": "O" 
			},
			{
				"x": 2.6623325112,
				"y": 2.1224368681,
				"z": -4.3461552186,
				"element": "C" 
			},
			{
				"x": 4.193006059,
				"y": 2.2897805952,
				"z": -5.2520474661,
				"element": "Cl" 
			},
			{
				"x": 0.3770795259,
				"y": 0.7421516852,
				"z": -2.7322283019,
				"element": "S" 
			},
			{
				"x": -0.0295110601,
				"y": -2.775703939,
				"z": -0.551634738,
				"element": "C" 
			},
			{
				"x": 0.8507552724,
				"y": -3.3683390619,
				"z": 0.3466200886,
				"element": "C" 
			},
			{
				"x": 3.0974301283,
				"y": -1.7609160705,
				"z": 3.2744996508,
				"element": "H" 
			},
			{
				"x": 1.7169635916,
				"y": -2.4567091184,
				"z": 4.1724131915,
				"element": "H" 
			},
			{
				"x": 3.2291872298,
				"y": -3.3859554688,
				"z": 3.9975232059,
				"element": "H" 
			},
			{
				"x": 1.044761846,
				"y": -0.8312080284,
				"z": 2.6180199607,
				"element": "H" 
			},
			{
				"x": -0.5018974396,
				"y": 0.1932231501,
				"z": 1.012249776,
				"element": "H" 
			},
			{
				"x": -1.6829607473,
				"y": -1.5507228376,
				"z": -2.1434988943,
				"element": "H" 
			},
			{
				"x": -2.4973484221,
				"y": -0.7262035674,
				"z": -0.8295226817,
				"element": "H" 
			},
			{
				"x": -2.7181987793,
				"y": 1.8153730302,
				"z": -1.2368283122,
				"element": "H" 
			},
			{
				"x": 0.2596749359,
				"y": 4.3304850355,
				"z": -3.5043904859,
				"element": "H" 
			},
			{
				"x": 2.0474853437,
				"y": 1.3828001179,
				"z": -4.8647280902,
				"element": "H" 
			},
			{
				"x": 2.9032870693,
				"y": 1.7336141056,
				"z": -3.3537746541,
				"element": "H" 
			},
			{
				"x": -0.329499555,
				"y": -3.3261513592,
				"z": -1.4402322066,
				"element": "H" 
			},
			{
				"x": 1.2452507698,
				"y": -4.3647164609,
				"z": 0.1764255762,
				"element": "H" 
			}
		],
		 "valence_orbital": [ 
			{
				"type": "occ",
				"energy": -0.29097,
				"method": "rhf"
			},
			{
				"type": "occ",
				"energy": -0.27902,
				"method": "rhf"
			},
			{
				"type": "occ",
				"energy": -0.25847,
				"method": "rhf"
			},
			{
				"type": "occ",
				"energy": -0.23157,
				"method": "rhf"
			},
			{
				"type": "occ",
				"energy": -0.22092,
				"method": "rhf"
			},
			{
				"type": "unocc",
				"energy": -0.04031,
				"method": "rhf"
			},
			{
				"type": "unocc",
				"energy": -0.01499,
				"method": "rhf"
			},
			{
				"type": "unocc",
				"energy": -0.00812,
				"method": "rhf"
			},
			{
				"type": "unocc",
				"energy": 0.00223,
				"method": "rhf"
			},
			{
				"type": "unocc",
				"energy": 0.01171,
				"method": "rhf"
			}
		],
		"cosmo_sigma_profile": { 
			"-0.025": 0.0,
			"-0.024": 0.0,
			"-0.023": 0.0,
			"-0.022": 0.0,
			"-0.021": 0.0,
			"-0.02": 0.0,
			"-0.019": 0.0,
			"-0.018": 0.0,
			"-0.017": 0.0,
			"-0.016": 0.0900601740465,
			"-0.015": 0.530543619515,
			"-0.014": 0.787026244673,
			"-0.013": 0.558063311695,
			"-0.012": 0.712825643852,
			"-0.011": 1.91875961691,
			"-0.01": 3.86554826554,
			"-0.009": 4.41622965468,
			"-0.008": 4.79266088112,
			"-0.007": 7.0079379189,
			"-0.006": 17.4440447895,
			"-0.005": 27.4462298155,
			"-0.004": 25.1365516932,
			"-0.003": 26.0110070084,
			"-0.002": 21.8603888168,
			"-0.001": 19.7992804198,
			"0.0": 18.5139614679,
			"0.001": 18.7120566832,
			"0.002": 19.9496672411,
			"0.003": 19.0829892566,
			"0.004": 19.0443489377,
			"0.005": 22.4237950607,
			"0.006": 12.8272665427,
			"0.007": 3.52419578741,
			"0.008": 4.1252851871,
			"0.009": 5.36821490821,
			"0.01": 4.46463387337,
			"0.011": 6.09408772061,
			"0.012": 5.02481478982,
			"0.013": 2.60173966605,
			"0.014": 0.729683615464,
			"0.015": 0.0555196929291,
			"0.016": 0.0,
			"0.017": 0.0,
			"0.018": 0.0,
			"0.019": 0.0,
			"0.02": 0.0,
			"0.021": 0.0,
			"0.022": 0.0,
			"0.023": 0.0,
			"0.024": 0.0,
			"0.025": 0.0
		}
	}
}
