{
	 "smiles": "CC1=CC(C)=C(CC(=O)C2=CC3=C(O2)C=CC(Br)=C3)C(C)=C1", 
	 "Tm": 397.15, 
	 "num_atms": 39, 
	 "gaussian": { 
		 "optdone": 1, 
		 "sigma_profile": "yes", 
		 "theory": "DFT", 
		 "functional": "B3LYP", 
		 "basiset": "6-31G**", 
		 "properties": { 
			 "R2extent": 15947.3046, 
			 "electric_dipole_moment_norm": 2.0691741686, 
			 "electric_quadrupole_moment_norm": 6.87170755053, 
			 "total_energy": -3456.12931481, 
			 "HOMO_LUMO_gap": 0.14802, 
			 "cosmo_polarized_energy": -14.0, 
			 "cosmo_cavitation_energy": 45.09, 
			 "cosmo_dispersion_energy": -32.08, 
			 "cosmo_repulsion_energy": 2.43, 
			 "cosmo_total_nonelectrostatic_energy": 15.44, 
			 "SMD_solvation_energy": 7.06 
		},
		"coords": [
			{
				"x": 0.7780827948,
				"y": -6.6496568033,
				"z": -0.839113081,
				"element": "C" 
			},
			{
				"x": 0.2113199933,
				"y": -5.2554933435,
				"z": -0.707465466,
				"element": "C" 
			},
			{
				"x": -1.0173717656,
				"y": -5.0342339334,
				"z": -0.0799428501,
				"element": "C" 
			},
			{
				"x": -1.547125242,
				"y": -3.7501871167,
				"z": 0.0822858146,
				"element": "C" 
			},
			{
				"x": -2.8751296133,
				"y": -3.581125782,
				"z": 0.785690809,
				"element": "C" 
			},
			{
				"x": -0.8279323826,
				"y": -2.6425198749,
				"z": -0.4102010832,
				"element": "C" 
			},
			{
				"x": -1.3811572246,
				"y": -1.2388075988,
				"z": -0.2651610599,
				"element": "C" 
			},
			{
				"x": -1.02153228,
				"y": -0.5606593759,
				"z": 1.0629081227,
				"element": "C" 
			},
			{
				"x": -0.8821587798,
				"y": -1.1836236908,
				"z": 2.1015920588,
				"element": "O" 
			},
			{
				"x": -0.8977026478,
				"y": 0.9129179134,
				"z": 1.0479527431,
				"element": "C" 
			},
			{
				"x": -0.9844596748,
				"y": 1.8454579538,
				"z": 0.047781282,
				"element": "C" 
			},
			{
				"x": -0.7855630631,
				"y": 3.1255801207,
				"z": 0.6639721861,
				"element": "C" 
			},
			{
				"x": -0.5872662281,
				"y": 2.8487734482,
				"z": 2.0318369038,
				"element": "C" 
			},
			{
				"x": -0.6556968882,
				"y": 1.5117463334,
				"z": 2.2649225031,
				"element": "O" 
			},
			{
				"x": -0.3551563266,
				"y": 3.8367935362,
				"z": 2.9843445189,
				"element": "C" 
			},
			{
				"x": -0.3250656006,
				"y": 5.1509203071,
				"z": 2.5289200907,
				"element": "C" 
			},
			{
				"x": -0.5221951911,
				"y": 5.4426334091,
				"z": 1.1640742577,
				"element": "C" 
			},
			{
				"x": -0.4675508098,
				"y": 7.273328637,
				"z": 0.6105050719,
				"element": "Br" 
			},
			{
				"x": -0.7525501371,
				"y": 4.4574621585,
				"z": 0.2155915047,
				"element": "C" 
			},
			{
				"x": 0.4158510958,
				"y": -2.8434754653,
				"z": -1.0418321318,
				"element": "C" 
			},
			{
				"x": 1.2305194442,
				"y": -1.6846513031,
				"z": -1.5756699382,
				"element": "C" 
			},
			{
				"x": 0.9115588675,
				"y": -4.144105353,
				"z": -1.1819162288,
				"element": "C" 
			},
			{
				"x": -0.014045978,
				"y": -7.3935708341,
				"z": -0.9698381061,
				"element": "H" 
			},
			{
				"x": 1.3442964143,
				"y": -6.9338546929,
				"z": 0.056918443,
				"element": "H" 
			},
			{
				"x": 1.4593928338,
				"y": -6.726612185,
				"z": -1.6918794065,
				"element": "H" 
			},
			{
				"x": -1.5803759598,
				"y": -5.8844098194,
				"z": 0.2994090846,
				"element": "H" 
			},
			{
				"x": -2.7736954932,
				"y": -2.9333729583,
				"z": 1.661734588,
				"element": "H" 
			},
			{
				"x": -3.2614402349,
				"y": -4.546812596,
				"z": 1.1218729318,
				"element": "H" 
			},
			{
				"x": -3.6355088712,
				"y": -3.1378525605,
				"z": 0.1295414357,
				"element": "H" 
			},
			{
				"x": -1.0649481906,
				"y": -0.6092463843,
				"z": -1.1001217847,
				"element": "H" 
			},
			{
				"x": -2.4782594747,
				"y": -1.2542377012,
				"z": -0.3016919372,
				"element": "H" 
			},
			{
				"x": -1.1701197818,
				"y": 1.6493456133,
				"z": -0.9978309215,
				"element": "H" 
			},
			{
				"x": -0.2056389352,
				"y": 3.5914239159,
				"z": 4.029622979,
				"element": "H" 
			},
			{
				"x": -0.1488403952,
				"y": 5.9628434878,
				"z": 3.2245387648,
				"element": "H" 
			},
			{
				"x": -0.9004553682,
				"y": 4.7109976021,
				"z": -0.8275886934,
				"element": "H" 
			},
			{
				"x": 2.1975741709,
				"y": -2.0313996135,
				"z": -1.9486209808,
				"element": "H" 
			},
			{
				"x": 0.7259812692,
				"y": -1.1743606853,
				"z": -2.4064143201,
				"element": "H" 
			},
			{
				"x": 1.4267738629,
				"y": -0.9287072049,
				"z": -0.8067512896,
				"element": "H" 
			},
			{
				"x": 1.8712917909,
				"y": -4.2900475604,
				"z": -1.6731768152,
				"element": "H" 
			}
		],
		 "valence_orbital": [ 
			{
				"type": "occ",
				"energy": -0.26102,
				"method": "rhf"
			},
			{
				"type": "occ",
				"energy": -0.24659,
				"method": "rhf"
			},
			{
				"type": "occ",
				"energy": -0.24324,
				"method": "rhf"
			},
			{
				"type": "occ",
				"energy": -0.23061,
				"method": "rhf"
			},
			{
				"type": "occ",
				"energy": -0.2243,
				"method": "rhf"
			},
			{
				"type": "unocc",
				"energy": -0.07628,
				"method": "rhf"
			},
			{
				"type": "unocc",
				"energy": -0.01479,
				"method": "rhf"
			},
			{
				"type": "unocc",
				"energy": -0.0014,
				"method": "rhf"
			},
			{
				"type": "unocc",
				"energy": 0.00016,
				"method": "rhf"
			},
			{
				"type": "unocc",
				"energy": 0.00261,
				"method": "rhf"
			}
		],
		"cosmo_sigma_profile": { 
			"-0.025": 0.0,
			"-0.024": 0.0,
			"-0.023": 0.0,
			"-0.022": 0.0,
			"-0.021": 0.0,
			"-0.02": 0.0,
			"-0.019": 0.0,
			"-0.018": 0.0,
			"-0.017": 0.0,
			"-0.016": 0.0,
			"-0.015": 0.0,
			"-0.014": 0.0,
			"-0.013": 0.0,
			"-0.012": 0.0,
			"-0.011": 0.0,
			"-0.01": 0.547789868854,
			"-0.009": 2.58970620321,
			"-0.008": 6.01530138624,
			"-0.007": 9.21132359255,
			"-0.006": 11.8253912101,
			"-0.005": 14.9520954663,
			"-0.004": 30.5206453867,
			"-0.003": 30.1835836859,
			"-0.002": 30.3222376143,
			"-0.001": 32.7343842669,
			"0.0": 42.1010585299,
			"0.001": 37.9202953549,
			"0.002": 29.9348028089,
			"0.003": 17.6358269705,
			"0.004": 18.7708149954,
			"0.005": 12.8817482237,
			"0.006": 8.22153755773,
			"0.007": 6.21962315411,
			"0.008": 4.07325579233,
			"0.009": 2.87223343046,
			"0.01": 3.04559184166,
			"0.011": 4.63644845601,
			"0.012": 4.24491570084,
			"0.013": 1.17834547715,
			"0.014": 0.0254305622051,
			"0.015": 0.0,
			"0.016": 0.0,
			"0.017": 0.0,
			"0.018": 0.0,
			"0.019": 0.0,
			"0.02": 0.0,
			"0.021": 0.0,
			"0.022": 0.0,
			"0.023": 0.0,
			"0.024": 0.0,
			"0.025": 0.0
		}
	}
}
