{
	 "smiles": "ClC1=CC(O[Si]23OCCN(CCO2)CCO3)=CC(Cl)=C1", 
	 "Tm": 440.15, 
	 "num_atms": 35, 
	 "gaussian": { 
		 "optdone": 1, 
		 "sigma_profile": "yes", 
		 "theory": "DFT", 
		 "functional": "B3LYP", 
		 "basiset": "6-31G**", 
		 "properties": { 
			 "R2extent": 8912.1308, 
			 "electric_dipole_moment_norm": 9.60181079693, 
			 "electric_quadrupole_moment_norm": 9.73708107751, 
			 "total_energy": -2031.98964242, 
			 "HOMO_LUMO_gap": 0.21754, 
			 "cosmo_polarized_energy": -17.56, 
			 "cosmo_cavitation_energy": 40.41, 
			 "cosmo_dispersion_energy": -28.63, 
			 "cosmo_repulsion_energy": 2.28, 
			 "cosmo_total_nonelectrostatic_energy": 14.06, 
			 "SMD_solvation_energy": 6.12 
		},
		"coords": [
			{
				"x": -4.031795661,
				"y": 1.8584874724,
				"z": 3.7746997185,
				"element": "Cl" 
			},
			{
				"x": -3.1277189358,
				"y": 0.628860913,
				"z": 2.8976929508,
				"element": "C" 
			},
			{
				"x": -1.816364377,
				"y": 0.8964047658,
				"z": 2.5236410288,
				"element": "C" 
			},
			{
				"x": -1.0952435831,
				"y": -0.0808175893,
				"z": 1.8219105863,
				"element": "C" 
			},
			{
				"x": 0.1849326615,
				"y": 0.2150349303,
				"z": 1.4992397799,
				"element": "O" 
			},
			{
				"x": 1.1680233542,
				"y": -0.3204996311,
				"z": 0.2492474823,
				"element": "Si" 
			},
			{
				"x": 1.2614927059,
				"y": -1.9491634294,
				"z": 0.6083898099,
				"element": "O" 
			},
			{
				"x": 2.3522908888,
				"y": -2.7453153542,
				"z": 0.189604686,
				"element": "C" 
			},
			{
				"x": 2.6156625527,
				"y": -2.5086679478,
				"z": -1.3009003978,
				"element": "C" 
			},
			{
				"x": 2.5979006631,
				"y": -1.0568858056,
				"z": -1.5390245153,
				"element": "N" 
			},
			{
				"x": 1.8749340165,
				"y": -0.5864813374,
				"z": -2.7282526485,
				"element": "C" 
			},
			{
				"x": 0.8551099388,
				"y": 0.492829536,
				"z": -2.3120884419,
				"element": "C" 
			},
			{
				"x": 0.269140522,
				"y": 0.1609260254,
				"z": -1.0708352607,
				"element": "O" 
			},
			{
				"x": 3.8438157193,
				"y": -0.3545152762,
				"z": -1.2038144779,
				"element": "C" 
			},
			{
				"x": 3.5168475693,
				"y": 0.8866895874,
				"z": -0.35493359,
				"element": "C" 
			},
			{
				"x": 2.522553157,
				"y": 0.5791872373,
				"z": 0.5996480915,
				"element": "O" 
			},
			{
				"x": -1.6936921711,
				"y": -1.3122647884,
				"z": 1.515152555,
				"element": "C" 
			},
			{
				"x": -3.0111000466,
				"y": -1.5294943187,
				"z": 1.9071825451,
				"element": "C" 
			},
			{
				"x": -3.7658613903,
				"y": -3.0736197497,
				"z": 1.5192765731,
				"element": "Cl" 
			},
			{
				"x": -3.7584143482,
				"y": -0.5793720243,
				"z": 2.6004338535,
				"element": "C" 
			},
			{
				"x": -1.3419007023,
				"y": 1.8407314768,
				"z": 2.7592277001,
				"element": "H" 
			},
			{
				"x": 2.108137884,
				"y": -3.7972560631,
				"z": 0.3710303073,
				"element": "H" 
			},
			{
				"x": 3.2438779147,
				"y": -2.5053934438,
				"z": 0.7869557866,
				"element": "H" 
			},
			{
				"x": 3.5557096463,
				"y": -2.9789142191,
				"z": -1.6228732315,
				"element": "H" 
			},
			{
				"x": 1.800969383,
				"y": -2.9556778018,
				"z": -1.8753430472,
				"element": "H" 
			},
			{
				"x": 2.5576724976,
				"y": -0.2039686547,
				"z": -3.4995151828,
				"element": "H" 
			},
			{
				"x": 1.3363674054,
				"y": -1.435149971,
				"z": -3.1563055106,
				"element": "H" 
			},
			{
				"x": 1.3328617852,
				"y": 1.4805744243,
				"z": -2.2527666928,
				"element": "H" 
			},
			{
				"x": 0.0609112527,
				"y": 0.5632411987,
				"z": -3.0631329551,
				"element": "H" 
			},
			{
				"x": 4.4158957689,
				"y": -0.0804264664,
				"z": -2.101672112,
				"element": "H" 
			},
			{
				"x": 4.4634904551,
				"y": -1.0327910424,
				"z": -0.6104603314,
				"element": "H" 
			},
			{
				"x": 3.1879484507,
				"y": 1.7180245762,
				"z": -0.9936110421,
				"element": "H" 
			},
			{
				"x": 4.4144571199,
				"y": 1.223012586,
				"z": 0.1754733714,
				"element": "H" 
			},
			{
				"x": -1.1309847419,
				"y": -2.081131146,
				"z": 1.0020161759,
				"element": "H" 
			},
			{
				"x": -4.7811273553,
				"y": -0.7707986695,
				"z": 2.8971064357,
				"element": "H" 
			}
		],
		 "valence_orbital": [ 
			{
				"type": "occ",
				"energy": -0.28695,
				"method": "rhf"
			},
			{
				"type": "occ",
				"energy": -0.27787,
				"method": "rhf"
			},
			{
				"type": "occ",
				"energy": -0.27262,
				"method": "rhf"
			},
			{
				"type": "occ",
				"energy": -0.23298,
				"method": "rhf"
			},
			{
				"type": "occ",
				"energy": -0.22048,
				"method": "rhf"
			},
			{
				"type": "unocc",
				"energy": -0.00294,
				"method": "rhf"
			},
			{
				"type": "unocc",
				"energy": 0.00759,
				"method": "rhf"
			},
			{
				"type": "unocc",
				"energy": 0.02039,
				"method": "rhf"
			},
			{
				"type": "unocc",
				"energy": 0.0491,
				"method": "rhf"
			},
			{
				"type": "unocc",
				"energy": 0.06535,
				"method": "rhf"
			}
		],
		"cosmo_sigma_profile": { 
			"-0.025": 0.0,
			"-0.024": 0.0,
			"-0.023": 0.0,
			"-0.022": 0.0,
			"-0.021": 0.0,
			"-0.02": 0.0,
			"-0.019": 0.0,
			"-0.018": 0.0,
			"-0.017": 0.0,
			"-0.016": 0.0,
			"-0.015": 0.0,
			"-0.014": 0.0,
			"-0.013": 0.0,
			"-0.012": 0.0,
			"-0.011": 0.0,
			"-0.01": 0.0,
			"-0.009": 0.058438269018,
			"-0.008": 1.41619624201,
			"-0.007": 6.81438315133,
			"-0.006": 17.9971637354,
			"-0.005": 39.1637756011,
			"-0.004": 32.1159761782,
			"-0.003": 25.5617964736,
			"-0.002": 20.8751297238,
			"-0.001": 14.0983368822,
			"0.0": 14.3485172072,
			"0.001": 21.822625639,
			"0.002": 31.7827749188,
			"0.003": 23.7396194167,
			"0.004": 25.0820094576,
			"0.005": 14.0181735964,
			"0.006": 5.45754103112,
			"0.007": 5.29253899909,
			"0.008": 5.48619598289,
			"0.009": 3.41193699285,
			"0.01": 3.74797692056,
			"0.011": 3.37339304372,
			"0.012": 2.97468838277,
			"0.013": 1.58319696594,
			"0.014": 1.27460566452,
			"0.015": 0.118418094316,
			"0.016": 0.0,
			"0.017": 0.0,
			"0.018": 0.0,
			"0.019": 0.0,
			"0.02": 0.0,
			"0.021": 0.0,
			"0.022": 0.0,
			"0.023": 0.0,
			"0.024": 0.0,
			"0.025": 0.0
		}
	}
}
