{
	 "smiles": "CC1=CC(NC(=O)C2CCNCC2)=NC=C1", 
	 "Tm": 408.15, 
	 "num_atms": 33, 
	 "gaussian": { 
		 "optdone": 1, 
		 "sigma_profile": "yes", 
		 "theory": "DFT", 
		 "functional": "B3LYP", 
		 "basiset": "6-31G**", 
		 "properties": { 
			 "R2extent": 5019.9925, 
			 "electric_dipole_moment_norm": 1.17044123304, 
			 "electric_quadrupole_moment_norm": 6.65805610896, 
			 "total_energy": -707.032478585, 
			 "HOMO_LUMO_gap": 0.1925, 
			 "cosmo_polarized_energy": -12.26, 
			 "cosmo_cavitation_energy": 34.44, 
			 "cosmo_dispersion_energy": -25.29, 
			 "cosmo_repulsion_energy": 1.97, 
			 "cosmo_total_nonelectrostatic_energy": 11.13, 
			 "SMD_solvation_energy": 2.15 
		},
		"coords": [
			{
				"x": 0.286036394,
				"y": 4.4632035777,
				"z": -1.6350822265,
				"element": "C" 
			},
			{
				"x": -0.4131884028,
				"y": 3.1816037829,
				"z": -2.0154248445,
				"element": "C" 
			},
			{
				"x": -0.4604285322,
				"y": 2.1022608126,
				"z": -1.132994729,
				"element": "C" 
			},
			{
				"x": -1.1249719351,
				"y": 0.9350178868,
				"z": -1.5411012954,
				"element": "C" 
			},
			{
				"x": -1.2393962138,
				"y": -0.215269545,
				"z": -0.7433539614,
				"element": "N" 
			},
			{
				"x": -0.7590369178,
				"y": -0.4597721121,
				"z": 0.5270584358,
				"element": "C" 
			},
			{
				"x": -0.1447688976,
				"y": 0.373599853,
				"z": 1.1823883911,
				"element": "O" 
			},
			{
				"x": -1.0783858489,
				"y": -1.8736261485,
				"z": 1.0364056357,
				"element": "C" 
			},
			{
				"x": -0.8572984826,
				"y": -2.002305324,
				"z": 2.5569959181,
				"element": "C" 
			},
			{
				"x": 0.6251038892,
				"y": -2.1178422824,
				"z": 2.9352327065,
				"element": "C" 
			},
			{
				"x": 1.2423221451,
				"y": -3.2222104329,
				"z": 2.1899919732,
				"element": "N" 
			},
			{
				"x": 1.2008512278,
				"y": -2.9842327246,
				"z": 0.7467672984,
				"element": "C" 
			},
			{
				"x": -0.2596361498,
				"y": -2.957651768,
				"z": 0.2851747504,
				"element": "C" 
			},
			{
				"x": -1.7201050342,
				"y": 0.7963716787,
				"z": -2.7332083096,
				"element": "N" 
			},
			{
				"x": -1.6664468782,
				"y": 1.8408924961,
				"z": -3.5679708283,
				"element": "C" 
			},
			{
				"x": -1.0346730705,
				"y": 3.0418459754,
				"z": -3.2659058796,
				"element": "C" 
			},
			{
				"x": -0.4075710783,
				"y": 5.3111606283,
				"z": -1.6624703068,
				"element": "H" 
			},
			{
				"x": 1.0977012308,
				"y": 4.6897713534,
				"z": -2.3356678805,
				"element": "H" 
			},
			{
				"x": 0.7110580729,
				"y": 4.4042597388,
				"z": -0.6302536767,
				"element": "H" 
			},
			{
				"x": -0.0048118455,
				"y": 2.1422348722,
				"z": -0.1533371659,
				"element": "H" 
			},
			{
				"x": -1.7564283563,
				"y": -0.9478793529,
				"z": -1.2127173764,
				"element": "H" 
			},
			{
				"x": -2.1424035429,
				"y": -2.0468224197,
				"z": 0.8216096692,
				"element": "H" 
			},
			{
				"x": -1.301580789,
				"y": -1.1460207813,
				"z": 3.0732926514,
				"element": "H" 
			},
			{
				"x": -1.3754701119,
				"y": -2.9068739642,
				"z": 2.8959888389,
				"element": "H" 
			},
			{
				"x": 1.1153140921,
				"y": -1.149546369,
				"z": 2.7481592298,
				"element": "H" 
			},
			{
				"x": 0.7093459464,
				"y": -2.334913069,
				"z": 4.0062279175,
				"element": "H" 
			},
			{
				"x": 2.2071582743,
				"y": -3.3346911127,
				"z": 2.4887771302,
				"element": "H" 
			},
			{
				"x": 1.6959852896,
				"y": -2.0391187632,
				"z": 0.4505859994,
				"element": "H" 
			},
			{
				"x": 1.7296680244,
				"y": -3.7989190763,
				"z": 0.239425051,
				"element": "H" 
			},
			{
				"x": -0.7064233964,
				"y": -3.9344389493,
				"z": 0.5020771845,
				"element": "H" 
			},
			{
				"x": -0.3086523994,
				"y": -2.8063772788,
				"z": -0.799397509,
				"element": "H" 
			},
			{
				"x": -2.1576031252,
				"y": 1.7030782656,
				"z": -4.5297081954,
				"element": "H" 
			},
			{
				"x": -1.026463578,
				"y": 3.8529105524,
				"z": -3.988064596,
				"element": "H" 
			}
		],
		 "valence_orbital": [ 
			{
				"type": "occ",
				"energy": -0.26955,
				"method": "rhf"
			},
			{
				"type": "occ",
				"energy": -0.26432,
				"method": "rhf"
			},
			{
				"type": "occ",
				"energy": -0.25304,
				"method": "rhf"
			},
			{
				"type": "occ",
				"energy": -0.22749,
				"method": "rhf"
			},
			{
				"type": "occ",
				"energy": -0.21411,
				"method": "rhf"
			},
			{
				"type": "unocc",
				"energy": -0.02161,
				"method": "rhf"
			},
			{
				"type": "unocc",
				"energy": -0.01042,
				"method": "rhf"
			},
			{
				"type": "unocc",
				"energy": 0.03731,
				"method": "rhf"
			},
			{
				"type": "unocc",
				"energy": 0.07299,
				"method": "rhf"
			},
			{
				"type": "unocc",
				"energy": 0.10277,
				"method": "rhf"
			}
		],
		"cosmo_sigma_profile": { 
			"-0.025": 0.0,
			"-0.024": 0.0,
			"-0.023": 0.0,
			"-0.022": 0.0,
			"-0.021": 0.0,
			"-0.02": 0.0,
			"-0.019": 0.0,
			"-0.018": 0.0,
			"-0.017": 0.0,
			"-0.016": 0.0,
			"-0.015": 0.0,
			"-0.014": 0.0712197436462,
			"-0.013": 0.785282215979,
			"-0.012": 1.31740483952,
			"-0.011": 1.12097049599,
			"-0.01": 1.78354361836,
			"-0.009": 2.54303098214,
			"-0.008": 2.67472993052,
			"-0.007": 2.91516187945,
			"-0.006": 7.0070956885,
			"-0.005": 13.4619889325,
			"-0.004": 19.0028251614,
			"-0.003": 28.0270223773,
			"-0.002": 31.5832442204,
			"-0.001": 32.0414407659,
			"0.0": 28.2666843077,
			"0.001": 17.2287407959,
			"0.002": 16.2405243985,
			"0.003": 18.1005105636,
			"0.004": 9.13102346895,
			"0.005": 4.02663607187,
			"0.006": 4.51744689136,
			"0.007": 4.10347304467,
			"0.008": 3.77382294912,
			"0.009": 3.41413172683,
			"0.01": 3.35373211259,
			"0.011": 3.54449317613,
			"0.012": 3.28553065935,
			"0.013": 3.34390599077,
			"0.014": 1.1108385957,
			"0.015": 0.638327290518,
			"0.016": 0.27382990962,
			"0.017": 0.513877920594,
			"0.018": 0.641275520415,
			"0.019": 0.045419604186,
			"0.02": 0.0,
			"0.021": 0.0,
			"0.022": 0.0,
			"0.023": 0.0,
			"0.024": 0.0,
			"0.025": 0.0
		}
	}
}
