{
	 "smiles": "CC(C)C(NC(=O)CN)C(O)=O", 
	 "Tm": 521.15, 
	 "num_atms": 26, 
	 "gaussian": { 
		 "optdone": 1, 
		 "sigma_profile": "yes", 
		 "theory": "DFT", 
		 "functional": "B3LYP", 
		 "basiset": "6-31G**", 
		 "properties": { 
			 "R2extent": 2656.6523, 
			 "electric_dipole_moment_norm": 4.44291535593, 
			 "electric_quadrupole_moment_norm": 20.2567450715, 
			 "total_energy": -610.384591518, 
			 "HOMO_LUMO_gap": 0.23557, 
			 "cosmo_polarized_energy": -17.42, 
			 "cosmo_cavitation_energy": 28.71, 
			 "cosmo_dispersion_energy": -19.74, 
			 "cosmo_repulsion_energy": 1.63, 
			 "cosmo_total_nonelectrostatic_energy": 10.6, 
			 "SMD_solvation_energy": 6.47 
		},
		"coords": [
			{
				"x": 0.7915564197,
				"y": 1.3305866009,
				"z": 1.9115729133,
				"element": "C" 
			},
			{
				"x": 0.6860742684,
				"y": 0.7093889276,
				"z": 0.5128350472,
				"element": "C" 
			},
			{
				"x": 1.7857048099,
				"y": 1.2262733159,
				"z": -0.424622376,
				"element": "C" 
			},
			{
				"x": -0.7405742899,
				"y": 0.8577130886,
				"z": -0.1108481257,
				"element": "C" 
			},
			{
				"x": -1.7618684866,
				"y": 0.1910156725,
				"z": 0.6826313087,
				"element": "N" 
			},
			{
				"x": -2.4741750153,
				"y": -0.9457798193,
				"z": 0.4002751412,
				"element": "C" 
			},
			{
				"x": -3.4183366853,
				"y": -1.2902487169,
				"z": 1.1007779845,
				"element": "O" 
			},
			{
				"x": -2.0641813579,
				"y": -1.7806598614,
				"z": -0.8188219789,
				"element": "C" 
			},
			{
				"x": -0.6418062371,
				"y": -2.1440844261,
				"z": -0.8048075029,
				"element": "N" 
			},
			{
				"x": -1.1472012701,
				"y": 2.3222796782,
				"z": -0.2426226672,
				"element": "C" 
			},
			{
				"x": -0.6972129414,
				"y": 2.8831094847,
				"z": -1.3868033226,
				"element": "O" 
			},
			{
				"x": -1.7791065122,
				"y": 2.9405521345,
				"z": 0.5872338197,
				"element": "O" 
			},
			{
				"x": 0.0339724056,
				"y": 0.9265588489,
				"z": 2.5896703024,
				"element": "H" 
			},
			{
				"x": 1.772720181,
				"y": 1.1130882378,
				"z": 2.3458740936,
				"element": "H" 
			},
			{
				"x": 0.6736466682,
				"y": 2.4194527797,
				"z": 1.8858371141,
				"element": "H" 
			},
			{
				"x": 0.8023237118,
				"y": -0.3762446978,
				"z": 0.5994631518,
				"element": "H" 
			},
			{
				"x": 2.7714566156,
				"y": 0.9909833626,
				"z": -0.0102399126,
				"element": "H" 
			},
			{
				"x": 1.7183341009,
				"y": 0.759916452,
				"z": -1.4131865197,
				"element": "H" 
			},
			{
				"x": 1.7335653669,
				"y": 2.3106989673,
				"z": -0.5633477142,
				"element": "H" 
			},
			{
				"x": -0.7053899954,
				"y": 0.4134733129,
				"z": -1.1055908424,
				"element": "H" 
			},
			{
				"x": -2.1593466066,
				"y": 0.740282566,
				"z": 1.4363198805,
				"element": "H" 
			},
			{
				"x": -2.2555336004,
				"y": -1.1931408458,
				"z": -1.7268367963,
				"element": "H" 
			},
			{
				"x": -2.7617154308,
				"y": -2.6281611026,
				"z": -0.8258896378,
				"element": "H" 
			},
			{
				"x": -0.4629674705,
				"y": -2.7860116395,
				"z": -0.0360998678,
				"element": "H" 
			},
			{
				"x": -0.4080870059,
				"y": -2.6466824697,
				"z": -1.6572799019,
				"element": "H" 
			},
			{
				"x": -0.9682516426,
				"y": 3.8172401492,
				"z": -1.3580935907,
				"element": "H" 
			}
		],
		 "valence_orbital": [ 
			{
				"type": "occ",
				"energy": -0.32679,
				"method": "rhf"
			},
			{
				"type": "occ",
				"energy": -0.28676,
				"method": "rhf"
			},
			{
				"type": "occ",
				"energy": -0.2579,
				"method": "rhf"
			},
			{
				"type": "occ",
				"energy": -0.24674,
				"method": "rhf"
			},
			{
				"type": "occ",
				"energy": -0.23882,
				"method": "rhf"
			},
			{
				"type": "unocc",
				"energy": -0.00325,
				"method": "rhf"
			},
			{
				"type": "unocc",
				"energy": 0.01994,
				"method": "rhf"
			},
			{
				"type": "unocc",
				"energy": 0.06578,
				"method": "rhf"
			},
			{
				"type": "unocc",
				"energy": 0.07877,
				"method": "rhf"
			},
			{
				"type": "unocc",
				"energy": 0.10497,
				"method": "rhf"
			}
		],
		"cosmo_sigma_profile": { 
			"-0.025": 0.0,
			"-0.024": 0.0,
			"-0.023": 0.0,
			"-0.022": 0.0,
			"-0.021": 0.0,
			"-0.02": 0.0,
			"-0.019": 0.313024549525,
			"-0.018": 0.770130459962,
			"-0.017": 1.20774124734,
			"-0.016": 0.662218692054,
			"-0.015": 0.361326479256,
			"-0.014": 0.588500159689,
			"-0.013": 1.00432992405,
			"-0.012": 1.26616222119,
			"-0.011": 1.45361108365,
			"-0.01": 3.88503938164,
			"-0.009": 4.7501939577,
			"-0.008": 3.84945681617,
			"-0.007": 7.22417984582,
			"-0.006": 9.25306263091,
			"-0.005": 7.76959482715,
			"-0.004": 10.8336565278,
			"-0.003": 21.1492371074,
			"-0.002": 19.5052561917,
			"-0.001": 19.8916279223,
			"0.0": 17.2925384259,
			"0.001": 20.0605520773,
			"0.002": 10.4618697405,
			"0.003": 6.65921324728,
			"0.004": 5.7361030741,
			"0.005": 5.33415892742,
			"0.006": 4.22279861708,
			"0.007": 4.12865348157,
			"0.008": 4.70990038577,
			"0.009": 4.36848197569,
			"0.01": 4.61887791039,
			"0.011": 5.20333097824,
			"0.012": 3.22387616816,
			"0.013": 3.34383037805,
			"0.014": 5.84675215778,
			"0.015": 1.64340019318,
			"0.016": 0.0042069633655,
			"0.017": 0.0,
			"0.018": 0.0,
			"0.019": 0.0,
			"0.02": 0.0,
			"0.021": 0.0,
			"0.022": 0.0,
			"0.023": 0.0,
			"0.024": 0.0,
			"0.025": 0.0
		}
	}
}
