{
	 "smiles": "CCCCCCOC(=O)C=C", 
	 "Tm": 228.15, 
	 "num_atms": 27, 
	 "gaussian": { 
		 "optdone": 1, 
		 "sigma_profile": "yes", 
		 "theory": "DFT", 
		 "functional": "B3LYP", 
		 "basiset": "6-31G**", 
		 "properties": { 
			 "R2extent": 2689.7189, 
			 "electric_dipole_moment_norm": 1.3907224094, 
			 "electric_quadrupole_moment_norm": 10.6087859697, 
			 "total_energy": -503.05158705, 
			 "HOMO_LUMO_gap": 0.22697, 
			 "cosmo_polarized_energy": -6.22, 
			 "cosmo_cavitation_energy": 29.86, 
			 "cosmo_dispersion_energy": -19.91, 
			 "cosmo_repulsion_energy": 1.64, 
			 "cosmo_total_nonelectrostatic_energy": 11.59, 
			 "SMD_solvation_energy": 6.36 
		},
		"coords": [
			{
				"x": -0.8745823495,
				"y": 2.2195667733,
				"z": -0.2393289757,
				"element": "C" 
			},
			{
				"x": -1.0425141366,
				"y": 0.8408094182,
				"z": -0.8865457477,
				"element": "C" 
			},
			{
				"x": 0.2903132085,
				"y": 0.2288650036,
				"z": -1.3393205652,
				"element": "C" 
			},
			{
				"x": 0.161558876,
				"y": -1.1223663871,
				"z": -2.0651020883,
				"element": "C" 
			},
			{
				"x": -0.3949419951,
				"y": -2.3015983856,
				"z": -1.2468528817,
				"element": "C" 
			},
			{
				"x": 0.5009189839,
				"y": -2.8142831427,
				"z": -0.1199487158,
				"element": "C" 
			},
			{
				"x": 0.5965840385,
				"y": -1.8907671718,
				"z": 0.9922692575,
				"element": "O" 
			},
			{
				"x": -0.3602056946,
				"y": -1.9934403588,
				"z": 1.9461972809,
				"element": "C" 
			},
			{
				"x": -1.2701480276,
				"y": -2.7990485048,
				"z": 1.9156458393,
				"element": "O" 
			},
			{
				"x": -0.1316207313,
				"y": -0.9923217357,
				"z": 3.0204031856,
				"element": "C" 
			},
			{
				"x": -0.962606571,
				"y": -0.9105605936,
				"z": 4.061358395,
				"element": "C" 
			},
			{
				"x": -0.4101513485,
				"y": 2.9300458123,
				"z": -0.9329691265,
				"element": "H" 
			},
			{
				"x": -1.8380925566,
				"y": 2.6378497845,
				"z": 0.0699965224,
				"element": "H" 
			},
			{
				"x": -0.2364694117,
				"y": 2.1631872742,
				"z": 0.6500967176,
				"element": "H" 
			},
			{
				"x": -1.5409268711,
				"y": 0.170118982,
				"z": -0.1757240004,
				"element": "H" 
			},
			{
				"x": -1.7161222782,
				"y": 0.921563407,
				"z": -1.7511996073,
				"element": "H" 
			},
			{
				"x": 0.9529579559,
				"y": 0.1230075689,
				"z": -0.472632086,
				"element": "H" 
			},
			{
				"x": 0.7849696976,
				"y": 0.9348760678,
				"z": -2.0208520957,
				"element": "H" 
			},
			{
				"x": 1.1474339948,
				"y": -1.4081958103,
				"z": -2.4578780581,
				"element": "H" 
			},
			{
				"x": -0.4825720587,
				"y": -0.9868737852,
				"z": -2.9447226294,
				"element": "H" 
			},
			{
				"x": -1.381640535,
				"y": -2.0705939372,
				"z": -0.8316092077,
				"element": "H" 
			},
			{
				"x": -0.5483853715,
				"y": -3.1501394981,
				"z": -1.9272255191,
				"element": "H" 
			},
			{
				"x": 1.5330209208,
				"y": -2.9383458631,
				"z": -0.4608911517,
				"element": "H" 
			},
			{
				"x": 0.1252388375,
				"y": -3.7676121512,
				"z": 0.2590037478,
				"element": "H" 
			},
			{
				"x": 0.7328945286,
				"y": -0.3445874359,
				"z": 2.9126292201,
				"element": "H" 
			},
			{
				"x": -1.8160154158,
				"y": -1.5783623827,
				"z": 4.1320514084,
				"element": "H" 
			},
			{
				"x": -0.8128956892,
				"y": -0.1871929479,
				"z": 4.8562508816,
				"element": "H" 
			}
		],
		 "valence_orbital": [ 
			{
				"type": "occ",
				"energy": -0.31315,
				"method": "rhf"
			},
			{
				"type": "occ",
				"energy": -0.30972,
				"method": "rhf"
			},
			{
				"type": "occ",
				"energy": -0.28931,
				"method": "rhf"
			},
			{
				"type": "occ",
				"energy": -0.28224,
				"method": "rhf"
			},
			{
				"type": "occ",
				"energy": -0.27177,
				"method": "rhf"
			},
			{
				"type": "unocc",
				"energy": -0.0448,
				"method": "rhf"
			},
			{
				"type": "unocc",
				"energy": 0.08215,
				"method": "rhf"
			},
			{
				"type": "unocc",
				"energy": 0.09098,
				"method": "rhf"
			},
			{
				"type": "unocc",
				"energy": 0.1058,
				"method": "rhf"
			},
			{
				"type": "unocc",
				"energy": 0.11576,
				"method": "rhf"
			}
		],
		"cosmo_sigma_profile": { 
			"-0.025": 0.0,
			"-0.024": 0.0,
			"-0.023": 0.0,
			"-0.022": 0.0,
			"-0.021": 0.0,
			"-0.02": 0.0,
			"-0.019": 0.0,
			"-0.018": 0.0,
			"-0.017": 0.0,
			"-0.016": 0.0,
			"-0.015": 0.0,
			"-0.014": 0.0,
			"-0.013": 0.0,
			"-0.012": 0.0,
			"-0.011": 0.0,
			"-0.01": 0.0,
			"-0.009": 0.0,
			"-0.008": 0.189419072032,
			"-0.007": 2.68360894015,
			"-0.006": 5.11913696674,
			"-0.005": 7.86221823597,
			"-0.004": 13.0412350891,
			"-0.003": 19.3168913025,
			"-0.002": 30.8457593463,
			"-0.001": 33.7078353174,
			"0.0": 37.065214992,
			"0.001": 31.2218245374,
			"0.002": 18.3367127831,
			"0.003": 7.72559454373,
			"0.004": 4.8037061111,
			"0.005": 2.84374908793,
			"0.006": 2.82401590476,
			"0.007": 1.92953566189,
			"0.008": 2.20692986616,
			"0.009": 1.62283340219,
			"0.01": 1.67946613559,
			"0.011": 2.60314724903,
			"0.012": 4.17026221649,
			"0.013": 0.887217266557,
			"0.014": 0.0,
			"0.015": 0.0,
			"0.016": 0.0,
			"0.017": 0.0,
			"0.018": 0.0,
			"0.019": 0.0,
			"0.02": 0.0,
			"0.021": 0.0,
			"0.022": 0.0,
			"0.023": 0.0,
			"0.024": 0.0,
			"0.025": 0.0
		}
	}
}
