{
	 "smiles": "NC(=O)CC1=C2C=CC=CC2=CC=C1", 
	 "Tm": 457.15, 
	 "num_atms": 25, 
	 "gaussian": { 
		 "optdone": 1, 
		 "sigma_profile": "yes", 
		 "theory": "DFT", 
		 "functional": "B3LYP", 
		 "basiset": "6-31G**", 
		 "properties": { 
			 "R2extent": 2983.0773, 
			 "electric_dipole_moment_norm": 3.49923983459, 
			 "electric_quadrupole_moment_norm": 11.0873074044, 
			 "total_energy": -593.914771681, 
			 "HOMO_LUMO_gap": 0.17252, 
			 "cosmo_polarized_energy": -13.08, 
			 "cosmo_cavitation_energy": 28.37, 
			 "cosmo_dispersion_energy": -20.49, 
			 "cosmo_repulsion_energy": 1.61, 
			 "cosmo_total_nonelectrostatic_energy": 9.48, 
			 "SMD_solvation_energy": 5.09 
		},
		"coords": [
			{
				"x": -0.5154845272,
				"y": 2.3764323981,
				"z": -0.9298238575,
				"element": "N" 
			},
			{
				"x": -1.5922475809,
				"y": 1.6911571571,
				"z": -1.4195597987,
				"element": "C" 
			},
			{
				"x": -2.7252499475,
				"y": 2.1497433105,
				"z": -1.4243805613,
				"element": "O" 
			},
			{
				"x": -1.2609584365,
				"y": 0.3193848897,
				"z": -2.0324659422,
				"element": "C" 
			},
			{
				"x": -0.3549856569,
				"y": -0.560277241,
				"z": -1.1974429921,
				"element": "C" 
			},
			{
				"x": -0.8228082512,
				"y": -1.1324553352,
				"z": 0.0335745884,
				"element": "C" 
			},
			{
				"x": -2.1340360704,
				"y": -0.9030965749,
				"z": 0.5366686894,
				"element": "C" 
			},
			{
				"x": -2.5489047551,
				"y": -1.4760645369,
				"z": 1.7196837565,
				"element": "C" 
			},
			{
				"x": -1.6771236753,
				"y": -2.3063772255,
				"z": 2.4619933482,
				"element": "C" 
			},
			{
				"x": -0.4002957814,
				"y": -2.5447273419,
				"z": 2.0062991831,
				"element": "C" 
			},
			{
				"x": 0.0619703878,
				"y": -1.9698025222,
				"z": 0.792347352,
				"element": "C" 
			},
			{
				"x": 1.3812705345,
				"y": -2.2051051186,
				"z": 0.3173458525,
				"element": "C" 
			},
			{
				"x": 1.8112385785,
				"y": -1.6409102288,
				"z": -0.8592327266,
				"element": "C" 
			},
			{
				"x": 0.93747358,
				"y": -0.8209380722,
				"z": -1.6138255009,
				"element": "C" 
			},
			{
				"x": 0.3539414662,
				"y": 1.8979298742,
				"z": -0.749423469,
				"element": "H" 
			},
			{
				"x": -0.7026697875,
				"y": 3.23500896,
				"z": -0.4336585727,
				"element": "H" 
			},
			{
				"x": -0.7878335758,
				"y": 0.5033338585,
				"z": -3.0040676619,
				"element": "H" 
			},
			{
				"x": -2.2223050985,
				"y": -0.1605254894,
				"z": -2.2309784624,
				"element": "H" 
			},
			{
				"x": -2.8141194157,
				"y": -0.2580385454,
				"z": -0.0095929278,
				"element": "H" 
			},
			{
				"x": -3.5535655497,
				"y": -1.2869458746,
				"z": 2.0864282798,
				"element": "H" 
			},
			{
				"x": -2.0177831552,
				"y": -2.7525684931,
				"z": 3.3918351552,
				"element": "H" 
			},
			{
				"x": 0.2772522528,
				"y": -3.1794323063,
				"z": 2.5718571286,
				"element": "H" 
			},
			{
				"x": 2.0421920765,
				"y": -2.8402736509,
				"z": 0.9014310871,
				"element": "H" 
			},
			{
				"x": 2.81833899,
				"y": -1.8250656302,
				"z": -1.2217798145,
				"element": "H" 
			},
			{
				"x": 1.2882933985,
				"y": -0.3983862609,
				"z": -2.5524321331,
				"element": "H" 
			}
		],
		 "valence_orbital": [ 
			{
				"type": "occ",
				"energy": -0.2862,
				"method": "rhf"
			},
			{
				"type": "occ",
				"energy": -0.26646,
				"method": "rhf"
			},
			{
				"type": "occ",
				"energy": -0.2481,
				"method": "rhf"
			},
			{
				"type": "occ",
				"energy": -0.24613,
				"method": "rhf"
			},
			{
				"type": "occ",
				"energy": -0.2169,
				"method": "rhf"
			},
			{
				"type": "unocc",
				"energy": -0.04438,
				"method": "rhf"
			},
			{
				"type": "unocc",
				"energy": -0.01493,
				"method": "rhf"
			},
			{
				"type": "unocc",
				"energy": 0.02157,
				"method": "rhf"
			},
			{
				"type": "unocc",
				"energy": 0.03553,
				"method": "rhf"
			},
			{
				"type": "unocc",
				"energy": 0.084,
				"method": "rhf"
			}
		],
		"cosmo_sigma_profile": { 
			"-0.025": 0.0,
			"-0.024": 0.0,
			"-0.023": 0.0,
			"-0.022": 0.0,
			"-0.021": 0.0,
			"-0.02": 0.0,
			"-0.019": 0.0,
			"-0.018": 0.0,
			"-0.017": 0.0,
			"-0.016": 0.0,
			"-0.015": 0.0,
			"-0.014": 0.469477876203,
			"-0.013": 1.29534702814,
			"-0.012": 1.92543894809,
			"-0.011": 1.94499512336,
			"-0.01": 2.3999930424,
			"-0.009": 1.92890677113,
			"-0.008": 1.18658191068,
			"-0.007": 3.82714276934,
			"-0.006": 14.8159249601,
			"-0.005": 18.9766361201,
			"-0.004": 19.7908379728,
			"-0.003": 17.5011755807,
			"-0.002": 13.5587523001,
			"-0.001": 12.4349472727,
			"0.0": 10.4387736301,
			"0.001": 13.5463588278,
			"0.002": 13.5917199924,
			"0.003": 16.2063191827,
			"0.004": 22.0648849444,
			"0.005": 15.9219247181,
			"0.006": 3.21578982326,
			"0.007": 1.84713862106,
			"0.008": 1.5603430626,
			"0.009": 1.37304176634,
			"0.01": 1.08290933773,
			"0.011": 0.742506852363,
			"0.012": 2.53551597623,
			"0.013": 3.57729929372,
			"0.014": 4.85208079427,
			"0.015": 1.31073010519,
			"0.016": 0.0,
			"0.017": 0.0,
			"0.018": 0.0,
			"0.019": 0.0,
			"0.02": 0.0,
			"0.021": 0.0,
			"0.022": 0.0,
			"0.023": 0.0,
			"0.024": 0.0,
			"0.025": 0.0
		}
	}
}
