{
	 "smiles": "CC(C)(C)OC(=O)N1CCNC2=C(C1)C=CC=C2", 
	 "Tm": 343.15, 
	 "num_atms": 38, 
	 "gaussian": { 
		 "optdone": 1, 
		 "sigma_profile": "yes", 
		 "theory": "DFT", 
		 "functional": "B3LYP", 
		 "basiset": "6-31G**", 
		 "properties": { 
			 "R2extent": 6035.8282, 
			 "electric_dipole_moment_norm": 1.74139413976, 
			 "electric_quadrupole_moment_norm": 14.445022765, 
			 "total_energy": -805.526192303, 
			 "HOMO_LUMO_gap": 0.20271, 
			 "cosmo_polarized_energy": -10.88, 
			 "cosmo_cavitation_energy": 38.43, 
			 "cosmo_dispersion_energy": -27.01, 
			 "cosmo_repulsion_energy": 2.08, 
			 "cosmo_total_nonelectrostatic_energy": 13.51, 
			 "SMD_solvation_energy": 5.59 
		},
		"coords": [
			{
				"x": 0.4217494874,
				"y": -3.5981481543,
				"z": -2.7925261701,
				"element": "C" 
			},
			{
				"x": -0.6111827775,
				"y": -2.4939243585,
				"z": -2.5502282228,
				"element": "C" 
			},
			{
				"x": -1.9390605583,
				"y": -3.0894084867,
				"z": -2.0695187868,
				"element": "C" 
			},
			{
				"x": -0.7826195028,
				"y": -1.6282848051,
				"z": -3.8034393747,
				"element": "C" 
			},
			{
				"x": 0.0098357652,
				"y": -1.7076707565,
				"z": -1.4746865211,
				"element": "O" 
			},
			{
				"x": -0.6124629245,
				"y": -0.617333876,
				"z": -0.9599695143,
				"element": "C" 
			},
			{
				"x": -1.6962904634,
				"y": -0.1801307265,
				"z": -1.3277448293,
				"element": "O" 
			},
			{
				"x": 0.1388679014,
				"y": -0.0708679789,
				"z": 0.0486775422,
				"element": "N" 
			},
			{
				"x": -0.3137664902,
				"y": 1.1773315104,
				"z": 0.645098484,
				"element": "C" 
			},
			{
				"x": 0.5183191547,
				"y": 2.3932785202,
				"z": 0.2321263481,
				"element": "C" 
			},
			{
				"x": 1.9594333036,
				"y": 2.2458501783,
				"z": 0.521676278,
				"element": "N" 
			},
			{
				"x": 2.3738650007,
				"y": 1.4516880872,
				"z": 1.6094790264,
				"element": "C" 
			},
			{
				"x": 2.108729361,
				"y": 0.062333814,
				"z": 1.5850195241,
				"element": "C" 
			},
			{
				"x": 1.4927167179,
				"y": -0.5690468095,
				"z": 0.358049546,
				"element": "C" 
			},
			{
				"x": 2.5343368478,
				"y": -0.7268873096,
				"z": 2.655186999,
				"element": "C" 
			},
			{
				"x": 3.2530520862,
				"y": -0.1826923047,
				"z": 3.7227621267,
				"element": "C" 
			},
			{
				"x": 3.5471292935,
				"y": 1.1800717882,
				"z": 3.7222085269,
				"element": "C" 
			},
			{
				"x": 3.0977723827,
				"y": 1.9928876783,
				"z": 2.6810722038,
				"element": "C" 
			},
			{
				"x": 1.3831473817,
				"y": -3.1691207874,
				"z": -3.0897095806,
				"element": "H" 
			},
			{
				"x": 0.0789296406,
				"y": -4.2657568758,
				"z": -3.588658747,
				"element": "H" 
			},
			{
				"x": 0.5742116959,
				"y": -4.1906084263,
				"z": -1.8855538442,
				"element": "H" 
			},
			{
				"x": -1.7855395919,
				"y": -3.6674588487,
				"z": -1.152552175,
				"element": "H" 
			},
			{
				"x": -2.337059829,
				"y": -3.765022505,
				"z": -2.8338216428,
				"element": "H" 
			},
			{
				"x": -2.6699246434,
				"y": -2.3044482368,
				"z": -1.875036895,
				"element": "H" 
			},
			{
				"x": -1.5009476149,
				"y": -0.8275153652,
				"z": -3.6278672328,
				"element": "H" 
			},
			{
				"x": 0.1767969962,
				"y": -1.1883590363,
				"z": -4.0941447093,
				"element": "H" 
			},
			{
				"x": -1.1367928716,
				"y": -2.2487642338,
				"z": -4.6332353365,
				"element": "H" 
			},
			{
				"x": -0.3109328129,
				"y": 1.0772363928,
				"z": 1.7357156886,
				"element": "H" 
			},
			{
				"x": -1.3436757652,
				"y": 1.3314173902,
				"z": 0.322888341,
				"element": "H" 
			},
			{
				"x": 0.0952024063,
				"y": 3.2654782048,
				"z": 0.7573824928,
				"element": "H" 
			},
			{
				"x": 0.3980737853,
				"y": 2.5678339124,
				"z": -0.8432937971,
				"element": "H" 
			},
			{
				"x": 2.4135071824,
				"y": 3.1516150113,
				"z": 0.5325539187,
				"element": "H" 
			},
			{
				"x": 1.4445263365,
				"y": -1.6523825316,
				"z": 0.4868453307,
				"element": "H" 
			},
			{
				"x": 2.152045011,
				"y": -0.3724401421,
				"z": -0.4991104307,
				"element": "H" 
			},
			{
				"x": 2.3218368353,
				"y": -1.7929965899,
				"z": 2.6365240633,
				"element": "H" 
			},
			{
				"x": 3.5861717523,
				"y": -0.8185526163,
				"z": 4.5371441587,
				"element": "H" 
			},
			{
				"x": 4.1112064836,
				"y": 1.6191782481,
				"z": 4.5403715061,
				"element": "H" 
			},
			{
				"x": 3.3034930363,
				"y": 3.0610210255,
				"z": 2.696015705,
				"element": "H" 
			}
		],
		 "valence_orbital": [ 
			{
				"type": "occ",
				"energy": -0.28103,
				"method": "rhf"
			},
			{
				"type": "occ",
				"energy": -0.257,
				"method": "rhf"
			},
			{
				"type": "occ",
				"energy": -0.24611,
				"method": "rhf"
			},
			{
				"type": "occ",
				"energy": -0.22943,
				"method": "rhf"
			},
			{
				"type": "occ",
				"energy": -0.20515,
				"method": "rhf"
			},
			{
				"type": "unocc",
				"energy": -0.00244,
				"method": "rhf"
			},
			{
				"type": "unocc",
				"energy": 0.00586,
				"method": "rhf"
			},
			{
				"type": "unocc",
				"energy": 0.05917,
				"method": "rhf"
			},
			{
				"type": "unocc",
				"energy": 0.08123,
				"method": "rhf"
			},
			{
				"type": "unocc",
				"energy": 0.08983,
				"method": "rhf"
			}
		],
		"cosmo_sigma_profile": { 
			"-0.025": 0.0,
			"-0.024": 0.0,
			"-0.023": 0.0,
			"-0.022": 0.0,
			"-0.021": 0.0,
			"-0.02": 0.0,
			"-0.019": 0.0,
			"-0.018": 0.0,
			"-0.017": 0.0,
			"-0.016": 0.0,
			"-0.015": 0.0,
			"-0.014": 0.0,
			"-0.013": 0.0196106310943,
			"-0.012": 0.798895689858,
			"-0.011": 1.24379391282,
			"-0.01": 1.44070600758,
			"-0.009": 1.22620130956,
			"-0.008": 1.60491784423,
			"-0.007": 2.02686950781,
			"-0.006": 3.93302354052,
			"-0.005": 11.9036396181,
			"-0.004": 30.0257815117,
			"-0.003": 36.1961402691,
			"-0.002": 31.2258905717,
			"-0.001": 30.7673832758,
			"0.0": 33.1447387999,
			"0.001": 28.9664002893,
			"0.002": 16.0960973923,
			"0.003": 13.5412579186,
			"0.004": 11.5896607006,
			"0.005": 12.8670529197,
			"0.006": 11.6433495778,
			"0.007": 5.36407837352,
			"0.008": 3.04145676733,
			"0.009": 1.84275917635,
			"0.01": 1.7328144448,
			"0.011": 1.65479375147,
			"0.012": 2.43399654205,
			"0.013": 2.84826149582,
			"0.014": 1.47319653669,
			"0.015": 0.0,
			"0.016": 0.0,
			"0.017": 0.0,
			"0.018": 0.0,
			"0.019": 0.0,
			"0.02": 0.0,
			"0.021": 0.0,
			"0.022": 0.0,
			"0.023": 0.0,
			"0.024": 0.0,
			"0.025": 0.0
		}
	}
}
