{
	 "smiles": "ClS(=O)(=O)C1=CC=CC=C1I", 
	 "Tm": 324.65, 
	 "num_atms": 15, 
	 "gaussian": { 
		 "optdone": 1, 
		 "sigma_profile": "no", 
		 "theory": "DFT", 
		 "functional": "B3LYP", 
		 "basiset": "6-31G**", 
		 "properties": { 
			 "R2extent": 2734.0793, 
			 "electric_dipole_moment_norm": 5.48015700687, 
			 "electric_quadrupole_moment_norm": 10.1699713879, 
			 "total_energy": -1251.17311693, 
			 "HOMO_LUMO_gap": 0.16981, 
			 "cosmo_polarized_energy": -82388.52, 
			 "cosmo_cavitation_energy": 25.54, 
			 "cosmo_dispersion_energy": -20.67, 
			 "cosmo_repulsion_energy": 1.56, 
			 "cosmo_total_nonelectrostatic_energy": 6.43, 
			 "SMD_solvation_energy": 2.39 
		},
		"coords": [
			{
				"x": -3.5654048802,
				"y": 0.1968565345,
				"z": 1.6314591819,
				"element": "Cl" 
			},
			{
				"x": -2.1598462682,
				"y": -0.9802373576,
				"z": 0.5231959045,
				"element": "S" 
			},
			{
				"x": -1.7532652127,
				"y": -2.0509098717,
				"z": 1.4219698011,
				"element": "O" 
			},
			{
				"x": -2.7976931043,
				"y": -1.2451930694,
				"z": -0.7583627753,
				"element": "O" 
			},
			{
				"x": -0.760183703,
				"y": 0.1556762476,
				"z": 0.272525923,
				"element": "C" 
			},
			{
				"x": -0.8007224746,
				"y": 1.4582351818,
				"z": 0.7744886096,
				"element": "C" 
			},
			{
				"x": 0.2779051187,
				"y": 2.3177091423,
				"z": 0.5756747943,
				"element": "C" 
			},
			{
				"x": 1.3966236787,
				"y": 1.8746927451,
				"z": -0.1248632329,
				"element": "C" 
			},
			{
				"x": 1.4396107753,
				"y": 0.5746942983,
				"z": -0.6270531063,
				"element": "C" 
			},
			{
				"x": 0.3659718563,
				"y": -0.3019615781,
				"z": -0.4369763688,
				"element": "C" 
			},
			{
				"x": 0.5762658351,
				"y": -2.2398026328,
				"z": -1.2555741606,
				"element": "I" 
			},
			{
				"x": -1.6709103753,
				"y": 1.8001486347,
				"z": 1.3184242546,
				"element": "H" 
			},
			{
				"x": 0.2354312989,
				"y": 3.3275195491,
				"z": 0.9701214294,
				"element": "H" 
			},
			{
				"x": 2.242599571,
				"y": 2.53578144,
				"z": -0.2855994974,
				"element": "H" 
			},
			{
				"x": 2.3123178843,
				"y": 0.2334907362,
				"z": -1.171930757,
				"element": "H" 
			}
		],
		 "valence_orbital": [ 
			{
				"type": "occ",
				"energy": -0.32161,
				"method": "rhf"
			},
			{
				"type": "occ",
				"energy": -0.31747,
				"method": "rhf"
			},
			{
				"type": "occ",
				"energy": -0.2956,
				"method": "rhf"
			},
			{
				"type": "occ",
				"energy": -0.28131,
				"method": "rhf"
			},
			{
				"type": "occ",
				"energy": -0.26317,
				"method": "rhf"
			},
			{
				"type": "unocc",
				"energy": -0.09336,
				"method": "rhf"
			},
			{
				"type": "unocc",
				"energy": -0.06209,
				"method": "rhf"
			},
			{
				"type": "unocc",
				"energy": -0.05948,
				"method": "rhf"
			},
			{
				"type": "unocc",
				"energy": -0.04717,
				"method": "rhf"
			},
			{
				"type": "unocc",
				"energy": 0.03138,
				"method": "rhf"
			}
		],
		"cosmo_sigma_profile": { 
			"0.0": 0.0,
			"0.0": 0.0,
			"0.0": 0.0,
			"0.0": 0.0,
			"0.0": 0.0,
			"0.0": 0.0,
			"0.0": 0.0,
			"0.0": 0.0,
			"0.0": 0.0,
			"0.0": 0.0,
			"0.0": 0.0,
			"0.0": 0.0,
			"0.0": 0.0,
			"0.0": 0.0,
			"0.0": 0.0,
			"0.0": 0.0,
			"0.0": 0.0,
			"0.0": 0.0,
			"0.0": 0.0,
			"0.0": 0.0,
			"0.0": 0.0,
			"0.0": 0.0,
			"0.0": 0.0,
			"0.0": 0.0,
			"0.0": 0.0,
			"0.0": 0.0,
			"0.0": 0.0,
			"0.0": 0.0,
			"0.0": 0.0,
			"0.0": 0.0,
			"0.0": 0.0,
			"0.0": 0.0,
			"0.0": 0.0,
			"0.0": 0.0,
			"0.0": 0.0,
			"0.0": 0.0,
			"0.0": 0.0,
			"0.0": 0.0,
			"0.0": 0.0,
			"0.0": 0.0,
			"0.0": 0.0,
			"0.0": 0.0,
			"0.0": 0.0,
			"0.0": 0.0,
			"0.0": 0.0,
			"0.0": 0.0,
			"0.0": 0.0,
			"0.0": 0.0,
			"0.0": 0.0,
			"0.0": 0.0,
			"0.0": 0.0
		}
	}
}
