{
	 "smiles": "COC1=CC=CC=C1C1=NN=C2SC(NN12)C1=CC=CO1", 
	 "Tm": 499.15, 
	 "num_atms": 33, 
	 "gaussian": { 
		 "optdone": 1, 
		 "sigma_profile": "yes", 
		 "theory": "DFT", 
		 "functional": "B3LYP", 
		 "basiset": "6-31G**", 
		 "properties": { 
			 "R2extent": 7188.2673, 
			 "electric_dipole_moment_norm": 8.45428182047, 
			 "electric_quadrupole_moment_norm": 16.9779198255, 
			 "total_energy": -1308.24306995, 
			 "HOMO_LUMO_gap": 0.17634, 
			 "cosmo_polarized_energy": -21.61, 
			 "cosmo_cavitation_energy": 39.2, 
			 "cosmo_dispersion_energy": -28.12, 
			 "cosmo_repulsion_energy": 2.08, 
			 "cosmo_total_nonelectrostatic_energy": 13.15, 
			 "SMD_solvation_energy": 4.59 
		},
		"coords": [
			{
				"x": -1.6759774433,
				"y": 2.8442162602,
				"z": 0.958941888,
				"element": "C" 
			},
			{
				"x": -1.3510347274,
				"y": 1.4570971163,
				"z": 0.9706647326,
				"element": "O" 
			},
			{
				"x": -1.577802803,
				"y": 0.7400679239,
				"z": 2.1252544188,
				"element": "C" 
			},
			{
				"x": -1.9274027217,
				"y": 1.3437013694,
				"z": 3.3362344759,
				"element": "C" 
			},
			{
				"x": -2.1825106603,
				"y": 0.5579615807,
				"z": 4.4617585534,
				"element": "C" 
			},
			{
				"x": -2.0920915805,
				"y": -0.8305222552,
				"z": 4.3857298806,
				"element": "C" 
			},
			{
				"x": -1.7312781691,
				"y": -1.4289969879,
				"z": 3.1815797245,
				"element": "C" 
			},
			{
				"x": -1.4602101037,
				"y": -0.6648313598,
				"z": 2.0362536492,
				"element": "C" 
			},
			{
				"x": -1.1281121631,
				"y": -1.3879644095,
				"z": 0.8042383922,
				"element": "C" 
			},
			{
				"x": -1.5971523502,
				"y": -2.5934189324,
				"z": 0.4990102707,
				"element": "N" 
			},
			{
				"x": -1.0507997396,
				"y": -3.0022316624,
				"z": -0.7013233175,
				"element": "N" 
			},
			{
				"x": -0.2727356425,
				"y": -2.0225916237,
				"z": -1.0948814804,
				"element": "C" 
			},
			{
				"x": 0.8860453409,
				"y": -1.7506748549,
				"z": -2.3946932945,
				"element": "S" 
			},
			{
				"x": 0.9510136178,
				"y": 0.0610602127,
				"z": -1.836014622,
				"element": "C" 
			},
			{
				"x": 0.6955032992,
				"y": 0.010184598,
				"z": -0.3785173211,
				"element": "N" 
			},
			{
				"x": -0.300245494,
				"y": -0.9857413024,
				"z": -0.2144116211,
				"element": "N" 
			},
			{
				"x": 2.2435547463,
				"y": 0.7295394877,
				"z": -2.1045938,
				"element": "C" 
			},
			{
				"x": 3.4281599873,
				"y": 0.7978833352,
				"z": -1.4288563856,
				"element": "C" 
			},
			{
				"x": 4.2991136003,
				"y": 1.6038341164,
				"z": -2.2290502565,
				"element": "C" 
			},
			{
				"x": 3.5824089029,
				"y": 1.9593007265,
				"z": -3.3320210121,
				"element": "C" 
			},
			{
				"x": 2.3250613044,
				"y": 1.4390932666,
				"z": -3.27260077,
				"element": "O" 
			},
			{
				"x": -1.526834828,
				"y": 3.1792958251,
				"z": -0.0687197097,
				"element": "H" 
			},
			{
				"x": -1.0218190004,
				"y": 3.4197457912,
				"z": 1.6248080479,
				"element": "H" 
			},
			{
				"x": -2.7209891501,
				"y": 3.00587464,
				"z": 1.2453746151,
				"element": "H" 
			},
			{
				"x": -2.0111409833,
				"y": 2.4210580787,
				"z": 3.4092555591,
				"element": "H" 
			},
			{
				"x": -2.4534702803,
				"y": 1.0415000155,
				"z": 5.3956061348,
				"element": "H" 
			},
			{
				"x": -2.29465058,
				"y": -1.4445304126,
				"z": 5.257289736,
				"element": "H" 
			},
			{
				"x": -1.6562333302,
				"y": -2.5072256985,
				"z": 3.0948667987,
				"element": "H" 
			},
			{
				"x": 0.1489967681,
				"y": 0.5648823386,
				"z": -2.3919300842,
				"element": "H" 
			},
			{
				"x": 0.2679575289,
				"y": 0.8868916964,
				"z": -0.0739301399,
				"element": "H" 
			},
			{
				"x": 3.6406536274,
				"y": 0.3269221788,
				"z": -0.4810167404,
				"element": "H" 
			},
			{
				"x": 5.3207840239,
				"y": 1.8785258395,
				"z": -2.0102337719,
				"element": "H" 
			},
			{
				"x": 3.8047390034,
				"y": 2.5503931014,
				"z": -4.2067725505,
				"element": "H" 
			}
		],
		 "valence_orbital": [ 
			{
				"type": "occ",
				"energy": -0.24766,
				"method": "rhf"
			},
			{
				"type": "occ",
				"energy": -0.24499,
				"method": "rhf"
			},
			{
				"type": "occ",
				"energy": -0.23954,
				"method": "rhf"
			},
			{
				"type": "occ",
				"energy": -0.23638,
				"method": "rhf"
			},
			{
				"type": "occ",
				"energy": -0.2096,
				"method": "rhf"
			},
			{
				"type": "unocc",
				"energy": -0.03326,
				"method": "rhf"
			},
			{
				"type": "unocc",
				"energy": -0.02863,
				"method": "rhf"
			},
			{
				"type": "unocc",
				"energy": -0.00214,
				"method": "rhf"
			},
			{
				"type": "unocc",
				"energy": 0.00848,
				"method": "rhf"
			},
			{
				"type": "unocc",
				"energy": 0.03772,
				"method": "rhf"
			}
		],
		"cosmo_sigma_profile": { 
			"-0.025": 0.0,
			"-0.024": 0.0,
			"-0.023": 0.0,
			"-0.022": 0.0,
			"-0.021": 0.0,
			"-0.02": 0.0,
			"-0.019": 0.0,
			"-0.018": 0.0,
			"-0.017": 0.0,
			"-0.016": 0.0,
			"-0.015": 0.0,
			"-0.014": 0.0,
			"-0.013": 0.0,
			"-0.012": 0.35370854604,
			"-0.011": 1.04255293158,
			"-0.01": 1.4702737794,
			"-0.009": 4.82074751431,
			"-0.008": 6.61524322559,
			"-0.007": 12.2559294917,
			"-0.006": 21.2947840934,
			"-0.005": 22.7884011628,
			"-0.004": 24.8288545719,
			"-0.003": 21.5222796144,
			"-0.002": 17.2456528899,
			"-0.001": 17.9847906705,
			"0.0": 20.6290218031,
			"0.001": 24.1511235192,
			"0.002": 24.7125000818,
			"0.003": 25.3225781061,
			"0.004": 22.8214254719,
			"0.005": 12.6861781294,
			"0.006": 6.48266796854,
			"0.007": 4.19336906239,
			"0.008": 2.89530916569,
			"0.009": 2.55720634453,
			"0.01": 2.4774694885,
			"0.011": 2.49754139476,
			"0.012": 2.44271286851,
			"0.013": 3.50125969271,
			"0.014": 3.42617932506,
			"0.015": 2.23168126562,
			"0.016": 2.11487301587,
			"0.017": 0.332384576817,
			"0.018": 0.0,
			"0.019": 0.0,
			"0.02": 0.0,
			"0.021": 0.0,
			"0.022": 0.0,
			"0.023": 0.0,
			"0.024": 0.0,
			"0.025": 0.0
		}
	}
}
