{
	 "smiles": "CC1=NC2=C(N1)C=CN=C2", 
	 "Tm": 450.15, 
	 "num_atms": 17, 
	 "gaussian": { 
		 "optdone": 1, 
		 "sigma_profile": "yes", 
		 "theory": "DFT", 
		 "functional": "B3LYP", 
		 "basiset": "6-31G**", 
		 "properties": { 
			 "R2extent": 1497.51, 
			 "electric_dipole_moment_norm": 5.51319030236, 
			 "electric_quadrupole_moment_norm": 3.83160822632, 
			 "total_energy": -435.229153597, 
			 "HOMO_LUMO_gap": 0.2088, 
			 "cosmo_polarized_energy": -15.86, 
			 "cosmo_cavitation_energy": 21.04, 
			 "cosmo_dispersion_energy": -16.08, 
			 "cosmo_repulsion_energy": 1.3, 
			 "cosmo_total_nonelectrostatic_energy": 6.26, 
			 "SMD_solvation_energy": 0.24 
		},
		"coords": [
			{
				"x": 1.3151730731,
				"y": 2.2885170724,
				"z": 2.5580942642,
				"element": "C" 
			},
			{
				"x": 0.5594301836,
				"y": 1.5622196379,
				"z": 1.494946504,
				"element": "C" 
			},
			{
				"x": -0.2610749742,
				"y": 2.1116833014,
				"z": 0.6349117942,
				"element": "N" 
			},
			{
				"x": -0.7218363501,
				"y": 1.0599601406,
				"z": -0.1471030113,
				"element": "C" 
			},
			{
				"x": -0.1467153597,
				"y": -0.1614888805,
				"z": 0.2717795988,
				"element": "C" 
			},
			{
				"x": 0.671241501,
				"y": 0.1879829641,
				"z": 1.32632929,
				"element": "N" 
			},
			{
				"x": -0.4615338282,
				"y": -1.3596488175,
				"z": -0.3680479906,
				"element": "C" 
			},
			{
				"x": -1.3648391995,
				"y": -1.2505677545,
				"z": -1.4238769124,
				"element": "C" 
			},
			{
				"x": -1.9303655276,
				"y": -0.1007610072,
				"z": -1.8470624109,
				"element": "N" 
			},
			{
				"x": -1.6166190149,
				"y": 1.0353201215,
				"z": -1.222160755,
				"element": "C" 
			},
			{
				"x": 1.069838446,
				"y": 3.3490688402,
				"z": 2.4979832798,
				"element": "H" 
			},
			{
				"x": 1.0533359539,
				"y": 1.9235572668,
				"z": 3.5580166155,
				"element": "H" 
			},
			{
				"x": 2.3978488084,
				"y": 2.170838319,
				"z": 2.4333455918,
				"element": "H" 
			},
			{
				"x": 1.2449507356,
				"y": -0.4333460613,
				"z": 1.8754478631,
				"element": "H" 
			},
			{
				"x": -0.0428530534,
				"y": -2.3182522242,
				"z": -0.0783682181,
				"element": "H" 
			},
			{
				"x": -1.656728669,
				"y": -2.1456364544,
				"z": -1.969653709,
				"element": "H" 
			},
			{
				"x": -2.0830527247,
				"y": 1.9519535355,
				"z": -1.5781817942,
				"element": "H" 
			}
		],
		 "valence_orbital": [ 
			{
				"type": "occ",
				"energy": -0.31171,
				"method": "rhf"
			},
			{
				"type": "occ",
				"energy": -0.2784,
				"method": "rhf"
			},
			{
				"type": "occ",
				"energy": -0.25218,
				"method": "rhf"
			},
			{
				"type": "occ",
				"energy": -0.24307,
				"method": "rhf"
			},
			{
				"type": "occ",
				"energy": -0.22993,
				"method": "rhf"
			},
			{
				"type": "unocc",
				"energy": -0.02113,
				"method": "rhf"
			},
			{
				"type": "unocc",
				"energy": 0.00675,
				"method": "rhf"
			},
			{
				"type": "unocc",
				"energy": 0.04796,
				"method": "rhf"
			},
			{
				"type": "unocc",
				"energy": 0.0653,
				"method": "rhf"
			},
			{
				"type": "unocc",
				"energy": 0.11057,
				"method": "rhf"
			}
		],
		"cosmo_sigma_profile": { 
			"-0.025": 0.0,
			"-0.024": 0.0,
			"-0.023": 0.0,
			"-0.022": 0.0,
			"-0.021": 0.0,
			"-0.02": 0.0,
			"-0.019": 0.0,
			"-0.018": 0.0,
			"-0.017": 0.363392819446,
			"-0.016": 1.79152670814,
			"-0.015": 1.58654905213,
			"-0.014": 1.35764178049,
			"-0.013": 1.2324028815,
			"-0.012": 1.22638466478,
			"-0.011": 1.24354448835,
			"-0.01": 1.34881992523,
			"-0.009": 1.40840625426,
			"-0.008": 1.80575863929,
			"-0.007": 4.86570286948,
			"-0.006": 10.8061696378,
			"-0.005": 11.2545481288,
			"-0.004": 10.6403658959,
			"-0.003": 10.7630471257,
			"-0.002": 11.577502359,
			"-0.001": 10.7752660362,
			"0.0": 9.66729406882,
			"0.001": 10.0266756899,
			"0.002": 13.3063503158,
			"0.003": 12.2404587799,
			"0.004": 6.73787484069,
			"0.005": 4.53075946827,
			"0.006": 3.72943317253,
			"0.007": 3.27929726792,
			"0.008": 2.47140576156,
			"0.009": 2.36645665781,
			"0.01": 2.34157447911,
			"0.011": 2.58577404027,
			"0.012": 1.69228790962,
			"0.013": 2.39007373795,
			"0.014": 1.57457998343,
			"0.015": 1.6448864814,
			"0.016": 2.0426729241,
			"0.017": 1.67204053335,
			"0.018": 0.23575492196,
			"0.019": 0.0,
			"0.02": 0.0,
			"0.021": 0.0,
			"0.022": 0.0,
			"0.023": 0.0,
			"0.024": 0.0,
			"0.025": 0.0
		}
	}
}
