{
	 "smiles": "CCOC(=O)C1=C(N)C(Br)=CC(Cl)=C1", 
	 "Tm": 331.15, 
	 "num_atms": 23, 
	 "gaussian": { 
		 "optdone": 1, 
		 "sigma_profile": "yes", 
		 "theory": "DFT", 
		 "functional": "B3LYP", 
		 "basiset": "6-31G**", 
		 "properties": { 
			 "R2extent": 7196.8065, 
			 "electric_dipole_moment_norm": 2.1564579778, 
			 "electric_quadrupole_moment_norm": 8.49283507317, 
			 "total_energy": -3585.20854824, 
			 "HOMO_LUMO_gap": 0.15544, 
			 "cosmo_polarized_energy": -6.66, 
			 "cosmo_cavitation_energy": 30.96, 
			 "cosmo_dispersion_energy": -23.48, 
			 "cosmo_repulsion_energy": 1.87, 
			 "cosmo_total_nonelectrostatic_energy": 9.35, 
			 "SMD_solvation_energy": 4.74 
		},
		"coords": [
			{
				"x": 1.7012218104,
				"y": 0.7755566692,
				"z": -2.8374968073,
				"element": "C" 
			},
			{
				"x": 2.0416397615,
				"y": 0.8994688663,
				"z": -1.3601821856,
				"element": "C" 
			},
			{
				"x": 0.8452909182,
				"y": 0.9513235473,
				"z": -0.5451904738,
				"element": "O" 
			},
			{
				"x": 0.2979677203,
				"y": -0.2286377729,
				"z": -0.1873014722,
				"element": "C" 
			},
			{
				"x": 0.7854625337,
				"y": -1.304752627,
				"z": -0.5217418306,
				"element": "O" 
			},
			{
				"x": -0.9206294412,
				"y": -0.0695913737,
				"z": 0.636006616,
				"element": "C" 
			},
			{
				"x": -1.6178158074,
				"y": -1.2280447562,
				"z": 1.1030008479,
				"element": "C" 
			},
			{
				"x": -1.2011761526,
				"y": -2.483248459,
				"z": 0.8198262542,
				"element": "N" 
			},
			{
				"x": -2.7794564438,
				"y": -0.9907547892,
				"z": 1.8861120728,
				"element": "C" 
			},
			{
				"x": -3.7710083599,
				"y": -2.489274628,
				"z": 2.5508806264,
				"element": "Br" 
			},
			{
				"x": -3.2295756821,
				"y": 0.2800279911,
				"z": 2.1920282816,
				"element": "C" 
			},
			{
				"x": -2.5227872796,
				"y": 1.3908215348,
				"z": 1.7183572075,
				"element": "C" 
			},
			{
				"x": -3.0963466695,
				"y": 3.0061026084,
				"z": 2.1076621272,
				"element": "Cl" 
			},
			{
				"x": -1.3849626884,
				"y": 1.2189233955,
				"z": 0.951601665,
				"element": "C" 
			},
			{
				"x": 1.0457272582,
				"y": 1.5911090503,
				"z": -3.1564791218,
				"element": "H" 
			},
			{
				"x": 2.6192969794,
				"y": 0.8196847225,
				"z": -3.4328106674,
				"element": "H" 
			},
			{
				"x": 1.2068118889,
				"y": -0.1773762253,
				"z": -3.0404680731,
				"element": "H" 
			},
			{
				"x": 2.552060623,
				"y": 1.8407704201,
				"z": -1.1438657077,
				"element": "H" 
			},
			{
				"x": 2.6606105305,
				"y": 0.0645591977,
				"z": -1.0246051936,
				"element": "H" 
			},
			{
				"x": -0.3658570986,
				"y": -2.5900894905,
				"z": 0.25866218,
				"element": "H" 
			},
			{
				"x": -1.7208172576,
				"y": -3.2712081682,
				"z": 1.1689125759,
				"element": "H" 
			},
			{
				"x": -4.1211577181,
				"y": 0.4113707937,
				"z": 2.7928473372,
				"element": "H" 
			},
			{
				"x": -0.8372994254,
				"y": 2.0762594932,
				"z": 0.5838437416,
				"element": "H" 
			}
		],
		 "valence_orbital": [ 
			{
				"type": "occ",
				"energy": -0.30305,
				"method": "rhf"
			},
			{
				"type": "occ",
				"energy": -0.29971,
				"method": "rhf"
			},
			{
				"type": "occ",
				"energy": -0.28572,
				"method": "rhf"
			},
			{
				"type": "occ",
				"energy": -0.26141,
				"method": "rhf"
			},
			{
				"type": "occ",
				"energy": -0.21173,
				"method": "rhf"
			},
			{
				"type": "unocc",
				"energy": -0.05629,
				"method": "rhf"
			},
			{
				"type": "unocc",
				"energy": -0.01021,
				"method": "rhf"
			},
			{
				"type": "unocc",
				"energy": -0.00455,
				"method": "rhf"
			},
			{
				"type": "unocc",
				"energy": 0.04221,
				"method": "rhf"
			},
			{
				"type": "unocc",
				"energy": 0.04328,
				"method": "rhf"
			}
		],
		"cosmo_sigma_profile": { 
			"-0.025": 0.0,
			"-0.024": 0.0,
			"-0.023": 0.0,
			"-0.022": 0.0,
			"-0.021": 0.0,
			"-0.02": 0.0,
			"-0.019": 0.0,
			"-0.018": 0.0,
			"-0.017": 0.0,
			"-0.016": 0.0,
			"-0.015": 0.0,
			"-0.014": 0.0,
			"-0.013": 0.154949682967,
			"-0.012": 0.493493929015,
			"-0.011": 1.38699880518,
			"-0.01": 0.479044599431,
			"-0.009": 1.97370267094,
			"-0.008": 3.20369348439,
			"-0.007": 3.22057221231,
			"-0.006": 5.44346406106,
			"-0.005": 9.88880271639,
			"-0.004": 16.6773137079,
			"-0.003": 18.2481351841,
			"-0.002": 20.7414821531,
			"-0.001": 22.5191387547,
			"0.0": 29.0693218841,
			"0.001": 32.4677867183,
			"0.002": 27.3489705523,
			"0.003": 18.7752192655,
			"0.004": 20.3253462209,
			"0.005": 10.9686033342,
			"0.006": 1.68175151909,
			"0.007": 1.17993127193,
			"0.008": 1.66958150231,
			"0.009": 1.65173810795,
			"0.01": 1.38847975258,
			"0.011": 1.48198912732,
			"0.012": 0.182812476079,
			"0.013": 0.0,
			"0.014": 0.0,
			"0.015": 0.0,
			"0.016": 0.0,
			"0.017": 0.0,
			"0.018": 0.0,
			"0.019": 0.0,
			"0.02": 0.0,
			"0.021": 0.0,
			"0.022": 0.0,
			"0.023": 0.0,
			"0.024": 0.0,
			"0.025": 0.0
		}
	}
}
