{
	 "smiles": "ClC1=CC=C(NCC2=NC=CC=C2)C=C1", 
	 "Tm": 361.15, 
	 "num_atms": 26, 
	 "gaussian": { 
		 "optdone": 1, 
		 "sigma_profile": "yes", 
		 "theory": "DFT", 
		 "functional": "B3LYP", 
		 "basiset": "6-31G**", 
		 "properties": { 
			 "R2extent": 5757.5213, 
			 "electric_dipole_moment_norm": 3.72848868176, 
			 "electric_quadrupole_moment_norm": 15.9698030079, 
			 "total_energy": -1033.59980863, 
			 "HOMO_LUMO_gap": 0.17329, 
			 "cosmo_polarized_energy": -10.82, 
			 "cosmo_cavitation_energy": 31.85, 
			 "cosmo_dispersion_energy": -23.14, 
			 "cosmo_repulsion_energy": 1.82, 
			 "cosmo_total_nonelectrostatic_energy": 10.53, 
			 "SMD_solvation_energy": 3.27 
		},
		"coords": [
			{
				"x": 0.9893980519,
				"y": 3.7983914651,
				"z": -4.1518157853,
				"element": "Cl" 
			},
			{
				"x": 0.5192442943,
				"y": 2.8856802188,
				"z": -2.7201169583,
				"element": "C" 
			},
			{
				"x": 0.4530871057,
				"y": 1.4962971995,
				"z": -2.7726301734,
				"element": "C" 
			},
			{
				"x": 0.0816479413,
				"y": 0.7712347827,
				"z": -1.6404004508,
				"element": "C" 
			},
			{
				"x": -0.2287543816,
				"y": 1.4311653885,
				"z": -0.4375471697,
				"element": "C" 
			},
			{
				"x": -0.6316129863,
				"y": 0.7420587949,
				"z": 0.7058755355,
				"element": "N" 
			},
			{
				"x": -0.3935278004,
				"y": -0.6820823883,
				"z": 0.869492448,
				"element": "C" 
			},
			{
				"x": -1.4485043042,
				"y": -1.5797984437,
				"z": 0.2341976679,
				"element": "C" 
			},
			{
				"x": -1.0488901998,
				"y": -2.8373716893,
				"z": -0.0095088686,
				"element": "N" 
			},
			{
				"x": -1.9424266202,
				"y": -3.6885767662,
				"z": -0.5267657736,
				"element": "C" 
			},
			{
				"x": -3.2582086211,
				"y": -3.3378488786,
				"z": -0.8310402755,
				"element": "C" 
			},
			{
				"x": -3.6624864862,
				"y": -2.0268010964,
				"z": -0.580939379,
				"element": "C" 
			},
			{
				"x": -2.7445202786,
				"y": -1.1299885551,
				"z": -0.0375850144,
				"element": "C" 
			},
			{
				"x": -0.1560571112,
				"y": 2.837639966,
				"z": -0.409980956,
				"element": "C" 
			},
			{
				"x": 0.2143950633,
				"y": 3.5610092973,
				"z": -1.5376444734,
				"element": "C" 
			},
			{
				"x": 0.6904976875,
				"y": 0.9762848592,
				"z": -3.6944392197,
				"element": "H" 
			},
			{
				"x": 0.026455081,
				"y": -0.3093646848,
				"z": -1.7041715881,
				"element": "H" 
			},
			{
				"x": -0.5606183944,
				"y": 1.2824830688,
				"z": 1.5548542063,
				"element": "H" 
			},
			{
				"x": -0.3753022262,
				"y": -0.8918145166,
				"z": 1.9454319126,
				"element": "H" 
			},
			{
				"x": 0.5871974026,
				"y": -0.9893841945,
				"z": 0.4805538267,
				"element": "H" 
			},
			{
				"x": -1.5856429412,
				"y": -4.7005702389,
				"z": -0.7121088208,
				"element": "H" 
			},
			{
				"x": -3.9384410274,
				"y": -4.0695067782,
				"z": -1.2552887023,
				"element": "H" 
			},
			{
				"x": -4.6758509139,
				"y": -1.7067585297,
				"z": -0.8070815034,
				"element": "H" 
			},
			{
				"x": -3.007614523,
				"y": -0.0985993739,
				"z": 0.1691219887,
				"element": "H" 
			},
			{
				"x": -0.3935028054,
				"y": 3.3679522877,
				"z": 0.5093312363,
				"element": "H" 
			},
			{
				"x": 0.2693389935,
				"y": 4.6435688057,
				"z": -1.4992937098,
				"element": "H" 
			}
		],
		 "valence_orbital": [ 
			{
				"type": "occ",
				"energy": -0.2848,
				"method": "rhf"
			},
			{
				"type": "occ",
				"energy": -0.25967,
				"method": "rhf"
			},
			{
				"type": "occ",
				"energy": -0.25717,
				"method": "rhf"
			},
			{
				"type": "occ",
				"energy": -0.25381,
				"method": "rhf"
			},
			{
				"type": "occ",
				"energy": -0.20111,
				"method": "rhf"
			},
			{
				"type": "unocc",
				"energy": -0.02782,
				"method": "rhf"
			},
			{
				"type": "unocc",
				"energy": -0.0128,
				"method": "rhf"
			},
			{
				"type": "unocc",
				"energy": -0.00556,
				"method": "rhf"
			},
			{
				"type": "unocc",
				"energy": 0.00955,
				"method": "rhf"
			},
			{
				"type": "unocc",
				"energy": 0.03887,
				"method": "rhf"
			}
		],
		"cosmo_sigma_profile": { 
			"-0.025": 0.0,
			"-0.024": 0.0,
			"-0.023": 0.0,
			"-0.022": 0.0,
			"-0.021": 0.0,
			"-0.02": 0.0,
			"-0.019": 0.0,
			"-0.018": 0.0,
			"-0.017": 0.0,
			"-0.016": 0.0,
			"-0.015": 0.0,
			"-0.014": 0.127642824018,
			"-0.013": 1.125352273,
			"-0.012": 1.89397936133,
			"-0.011": 1.17023454966,
			"-0.01": 1.73868187051,
			"-0.009": 1.80579923755,
			"-0.008": 1.94959559049,
			"-0.007": 7.03184979231,
			"-0.006": 14.6492628463,
			"-0.005": 16.549258752,
			"-0.004": 19.4814550292,
			"-0.003": 14.8478327369,
			"-0.002": 15.8449035809,
			"-0.001": 15.1853794265,
			"0.0": 14.9726162754,
			"0.001": 17.2237692048,
			"0.002": 22.1644175488,
			"0.003": 29.2344124561,
			"0.004": 21.4913947193,
			"0.005": 23.2153275397,
			"0.006": 6.29823349362,
			"0.007": 0.873615303609,
			"0.008": 1.77392145038,
			"0.009": 0.633027205568,
			"0.01": 0.903911865777,
			"0.011": 1.04329385099,
			"0.012": 0.72527826731,
			"0.013": 0.871688599192,
			"0.014": 0.756601271673,
			"0.015": 0.798853527383,
			"0.016": 0.577451261918,
			"0.017": 0.0554388957018,
			"0.018": 0.0,
			"0.019": 0.0,
			"0.02": 0.0,
			"0.021": 0.0,
			"0.022": 0.0,
			"0.023": 0.0,
			"0.024": 0.0,
			"0.025": 0.0
		}
	}
}
