{
	 "smiles": "COC(=O)C1=CNC(CC(C)C)=N1", 
	 "Tm": 410.15, 
	 "num_atms": 27, 
	 "gaussian": { 
		 "optdone": 1, 
		 "sigma_profile": "yes", 
		 "theory": "DFT", 
		 "functional": "B3LYP", 
		 "basiset": "6-31G**", 
		 "properties": { 
			 "R2extent": 3729.3794, 
			 "electric_dipole_moment_norm": 3.67125793973, 
			 "electric_quadrupole_moment_norm": 14.1546964909, 
			 "total_energy": -611.369299076, 
			 "HOMO_LUMO_gap": 0.21644, 
			 "cosmo_polarized_energy": -17.97, 
			 "cosmo_cavitation_energy": 30.58, 
			 "cosmo_dispersion_energy": -21.53, 
			 "cosmo_repulsion_energy": 1.74, 
			 "cosmo_total_nonelectrostatic_energy": 10.8, 
			 "SMD_solvation_energy": 5.67 
		},
		"coords": [
			{
				"x": 2.0827318649,
				"y": -2.5258439725,
				"z": -3.9214017731,
				"element": "C" 
			},
			{
				"x": 1.5267465874,
				"y": -2.0976712363,
				"z": -2.6713622009,
				"element": "O" 
			},
			{
				"x": 0.2887559425,
				"y": -2.5642531073,
				"z": -2.4112444558,
				"element": "C" 
			},
			{
				"x": -0.3310319049,
				"y": -3.2940899494,
				"z": -3.1658545294,
				"element": "O" 
			},
			{
				"x": -0.2373230019,
				"y": -2.0973569443,
				"z": -1.1177960121,
				"element": "C" 
			},
			{
				"x": -1.4783792589,
				"y": -2.4387129215,
				"z": -0.6255636182,
				"element": "C" 
			},
			{
				"x": -1.5634466213,
				"y": -1.8060474332,
				"z": 0.5862158804,
				"element": "N" 
			},
			{
				"x": -0.3871821306,
				"y": -1.1108061063,
				"z": 0.7886590982,
				"element": "C" 
			},
			{
				"x": -0.12757739,
				"y": -0.2826066684,
				"z": 2.0109194432,
				"element": "C" 
			},
			{
				"x": -0.5113968057,
				"y": 1.2189090433,
				"z": 1.8938463319,
				"element": "C" 
			},
			{
				"x": -2.0129559727,
				"y": 1.4137479297,
				"z": 1.6394700041,
				"element": "C" 
			},
			{
				"x": 0.336543236,
				"y": 1.9442974723,
				"z": 0.8404953717,
				"element": "C" 
			},
			{
				"x": 0.4286497702,
				"y": -1.2752086951,
				"z": -0.2305025798,
				"element": "N" 
			},
			{
				"x": 2.1635863273,
				"y": -3.6156410311,
				"z": -3.9577645143,
				"element": "H" 
			},
			{
				"x": 1.460298531,
				"y": -2.1950374631,
				"z": -4.7572789686,
				"element": "H" 
			},
			{
				"x": 3.0702989083,
				"y": -2.0674150593,
				"z": -3.9754317093,
				"element": "H" 
			},
			{
				"x": -2.2606649772,
				"y": -3.060736909,
				"z": -1.0299714647,
				"element": "H" 
			},
			{
				"x": -2.3476789506,
				"y": -1.8421000522,
				"z": 1.2202958802,
				"element": "H" 
			},
			{
				"x": -0.6639372878,
				"y": -0.7209099235,
				"z": 2.8627980464,
				"element": "H" 
			},
			{
				"x": 0.9411837285,
				"y": -0.3591970469,
				"z": 2.2333356136,
				"element": "H" 
			},
			{
				"x": -0.2809867977,
				"y": 1.6581022993,
				"z": 2.8747655778,
				"element": "H" 
			},
			{
				"x": -2.6207298191,
				"y": 0.91616784,
				"z": 2.4054555389,
				"element": "H" 
			},
			{
				"x": -2.2744858028,
				"y": 2.4767966946,
				"z": 1.6528801535,
				"element": "H" 
			},
			{
				"x": -2.3070260922,
				"y": 1.0165733949,
				"z": 0.6613794242,
				"element": "H" 
			},
			{
				"x": 0.1849642831,
				"y": 1.515653447,
				"z": -0.154739303,
				"element": "H" 
			},
			{
				"x": 1.4044684493,
				"y": 1.8656639253,
				"z": 1.0689838096,
				"element": "H" 
			},
			{
				"x": 0.076675185,
				"y": 3.007622473,
				"z": 0.8003109554,
				"element": "H" 
			}
		],
		 "valence_orbital": [ 
			{
				"type": "occ",
				"energy": -0.28673,
				"method": "rhf"
			},
			{
				"type": "occ",
				"energy": -0.28505,
				"method": "rhf"
			},
			{
				"type": "occ",
				"energy": -0.27241,
				"method": "rhf"
			},
			{
				"type": "occ",
				"energy": -0.25878,
				"method": "rhf"
			},
			{
				"type": "occ",
				"energy": -0.22918,
				"method": "rhf"
			},
			{
				"type": "unocc",
				"energy": -0.01274,
				"method": "rhf"
			},
			{
				"type": "unocc",
				"energy": 0.02366,
				"method": "rhf"
			},
			{
				"type": "unocc",
				"energy": 0.05914,
				"method": "rhf"
			},
			{
				"type": "unocc",
				"energy": 0.09926,
				"method": "rhf"
			},
			{
				"type": "unocc",
				"energy": 0.12331,
				"method": "rhf"
			}
		],
		"cosmo_sigma_profile": { 
			"-0.025": 0.0,
			"-0.024": 0.0,
			"-0.023": 0.0,
			"-0.022": 0.0,
			"-0.021": 0.0,
			"-0.02": 0.0,
			"-0.019": 0.0,
			"-0.018": 0.0,
			"-0.017": 0.391516093893,
			"-0.016": 1.50624357073,
			"-0.015": 1.11421691587,
			"-0.014": 1.14090662383,
			"-0.013": 1.18298468357,
			"-0.012": 1.45856307781,
			"-0.011": 1.58439861119,
			"-0.01": 1.44576365033,
			"-0.009": 3.82115844499,
			"-0.008": 2.79471596583,
			"-0.007": 2.72445802309,
			"-0.006": 6.42222006731,
			"-0.005": 10.6810948152,
			"-0.004": 12.8444815097,
			"-0.003": 23.244588326,
			"-0.002": 28.2817698686,
			"-0.001": 25.754966913,
			"0.0": 22.0931180141,
			"0.001": 21.9515463711,
			"0.002": 15.6928302542,
			"0.003": 8.14152831385,
			"0.004": 4.65512434228,
			"0.005": 5.26156956113,
			"0.006": 3.65254160978,
			"0.007": 3.26409966281,
			"0.008": 3.1160012208,
			"0.009": 3.78136316587,
			"0.01": 3.24845149589,
			"0.011": 3.4227551915,
			"0.012": 5.6948740653,
			"0.013": 4.67872096279,
			"0.014": 1.05016847847,
			"0.015": 1.1343022319,
			"0.016": 1.14995252154,
			"0.017": 1.07661872648,
			"0.018": 0.432564026369,
			"0.019": 0.0,
			"0.02": 0.0,
			"0.021": 0.0,
			"0.022": 0.0,
			"0.023": 0.0,
			"0.024": 0.0,
			"0.025": 0.0
		}
	}
}
