{
	 "smiles": "COC1=CC(Cl)=CC=C1N", 
	 "Tm": 324.65, 
	 "num_atms": 18, 
	 "gaussian": { 
		 "optdone": 1, 
		 "sigma_profile": "yes", 
		 "theory": "DFT", 
		 "functional": "B3LYP", 
		 "basiset": "6-31G**", 
		 "properties": { 
			 "R2extent": 2401.3209, 
			 "electric_dipole_moment_norm": 3.17708979099, 
			 "electric_quadrupole_moment_norm": 12.3948716189, 
			 "total_energy": -861.725019652, 
			 "HOMO_LUMO_gap": 0.19641, 
			 "cosmo_polarized_energy": -8.92, 
			 "cosmo_cavitation_energy": 23.38, 
			 "cosmo_dispersion_energy": -17.68, 
			 "cosmo_repulsion_energy": 1.45, 
			 "cosmo_total_nonelectrostatic_energy": 7.15, 
			 "SMD_solvation_energy": 4.43 
		},
		"coords": [
			{
				"x": -1.3184742938,
				"y": 2.6467562584,
				"z": -1.8286247863,
				"element": "C" 
			},
			{
				"x": -1.3382326781,
				"y": 1.3407246108,
				"z": -1.2751392573,
				"element": "O" 
			},
			{
				"x": -0.1460439537,
				"y": 0.7788157153,
				"z": -0.8956771331,
				"element": "C" 
			},
			{
				"x": 1.0946184345,
				"y": 1.3996362267,
				"z": -1.0098420779,
				"element": "C" 
			},
			{
				"x": 2.2391606686,
				"y": 0.7243702132,
				"z": -0.5720074294,
				"element": "C" 
			},
			{
				"x": 3.805049829,
				"y": 1.5205270864,
				"z": -0.7213192599,
				"element": "Cl" 
			},
			{
				"x": 2.1575487742,
				"y": -0.5482843839,
				"z": -0.0248227219,
				"element": "C" 
			},
			{
				"x": 0.9054556188,
				"y": -1.1606940786,
				"z": 0.0832499141,
				"element": "C" 
			},
			{
				"x": -0.2607871108,
				"y": -0.5221266851,
				"z": -0.3460182017,
				"element": "C" 
			},
			{
				"x": -1.5118143175,
				"y": -1.1324909582,
				"z": -0.3020175663,
				"element": "N" 
			},
			{
				"x": -2.3559830471,
				"y": 2.8953466862,
				"z": -2.0571512786,
				"element": "H" 
			},
			{
				"x": -0.9183068245,
				"y": 3.3803914287,
				"z": -1.1169857183,
				"element": "H" 
			},
			{
				"x": -0.7266411388,
				"y": 2.6821698431,
				"z": -2.7519265305,
				"element": "H" 
			},
			{
				"x": 1.1877544598,
				"y": 2.3939990518,
				"z": -1.426388462,
				"element": "H" 
			},
			{
				"x": 3.0513796482,
				"y": -1.0598433817,
				"z": 0.3129923453,
				"element": "H" 
			},
			{
				"x": 0.8336030528,
				"y": -2.1599747295,
				"z": 0.5045678035,
				"element": "H" 
			},
			{
				"x": -2.2866349722,
				"y": -0.4857180298,
				"z": -0.352171827,
				"element": "H" 
			},
			{
				"x": -1.6235521493,
				"y": -1.8308048739,
				"z": 0.4191821872,
				"element": "H" 
			}
		],
		 "valence_orbital": [ 
			{
				"type": "occ",
				"energy": -0.32349,
				"method": "rhf"
			},
			{
				"type": "occ",
				"energy": -0.30176,
				"method": "rhf"
			},
			{
				"type": "occ",
				"energy": -0.28599,
				"method": "rhf"
			},
			{
				"type": "occ",
				"energy": -0.23733,
				"method": "rhf"
			},
			{
				"type": "occ",
				"energy": -0.19264,
				"method": "rhf"
			},
			{
				"type": "unocc",
				"energy": 0.00377,
				"method": "rhf"
			},
			{
				"type": "unocc",
				"energy": 0.01431,
				"method": "rhf"
			},
			{
				"type": "unocc",
				"energy": 0.03824,
				"method": "rhf"
			},
			{
				"type": "unocc",
				"energy": 0.08353,
				"method": "rhf"
			},
			{
				"type": "unocc",
				"energy": 0.09882,
				"method": "rhf"
			}
		],
		"cosmo_sigma_profile": { 
			"-0.025": 0.0,
			"-0.024": 0.0,
			"-0.023": 0.0,
			"-0.022": 0.0,
			"-0.021": 0.0,
			"-0.02": 0.0,
			"-0.019": 0.0,
			"-0.018": 0.0,
			"-0.017": 0.0,
			"-0.016": 0.0,
			"-0.015": 0.0,
			"-0.014": 0.0,
			"-0.013": 0.302987555533,
			"-0.012": 1.51699350742,
			"-0.011": 1.82516201275,
			"-0.01": 2.35446017541,
			"-0.009": 2.51584003734,
			"-0.008": 2.64207119568,
			"-0.007": 4.95982758603,
			"-0.006": 10.4422177034,
			"-0.005": 14.5274827356,
			"-0.004": 12.8741349529,
			"-0.003": 13.2803432228,
			"-0.002": 9.41404894705,
			"-0.001": 7.89532345488,
			"0.0": 8.71284657415,
			"0.001": 9.38695944324,
			"0.002": 12.1325724545,
			"0.003": 15.7157247088,
			"0.004": 18.9156358301,
			"0.005": 22.0667072727,
			"0.006": 8.91183321053,
			"0.007": 1.90528829437,
			"0.008": 1.06750162791,
			"0.009": 0.944697723454,
			"0.01": 1.20858162463,
			"0.011": 0.605005895003,
			"0.012": 0.547279637399,
			"0.013": 0.696229724009,
			"0.014": 0.577535151308,
			"0.015": 0.116841421123,
			"0.016": 0.0,
			"0.017": 0.0,
			"0.018": 0.0,
			"0.019": 0.0,
			"0.02": 0.0,
			"0.021": 0.0,
			"0.022": 0.0,
			"0.023": 0.0,
			"0.024": 0.0,
			"0.025": 0.0
		}
	}
}
