{
	 "smiles": "CNC(C(NC)C1=CC=CC(=C1)C(F)(F)F)C1=CC=CC(=C1)C(F)(F)F", 
	 "Tm": 387.15, 
	 "num_atms": 44, 
	 "gaussian": { 
		 "optdone": 1, 
		 "sigma_profile": "yes", 
		 "theory": "DFT", 
		 "functional": "B3LYP", 
		 "basiset": "6-31G**", 
		 "properties": { 
			 "R2extent": 11499.6907, 
			 "electric_dipole_moment_norm": 5.76131743701, 
			 "electric_quadrupole_moment_norm": 22.8585949288, 
			 "total_energy": -1405.30871148, 
			 "HOMO_LUMO_gap": 0.18996, 
			 "cosmo_polarized_energy": -11.23, 
			 "cosmo_cavitation_energy": 48.87, 
			 "cosmo_dispersion_energy": -30.27, 
			 "cosmo_repulsion_energy": 2.23, 
			 "cosmo_total_nonelectrostatic_energy": 20.83, 
			 "SMD_solvation_energy": 9.27 
		},
		"coords": [
			{
				"x": -0.187534064,
				"y": 3.6673400239,
				"z": -0.8386438362,
				"element": "C" 
			},
			{
				"x": 0.7213905553,
				"y": 2.5389176952,
				"z": -0.6822410118,
				"element": "N" 
			},
			{
				"x": 0.523243055,
				"y": 1.4273195759,
				"z": -1.6104657005,
				"element": "C" 
			},
			{
				"x": -0.6695683271,
				"y": 0.4920858622,
				"z": -1.1533805489,
				"element": "C" 
			},
			{
				"x": -1.1145660249,
				"y": -0.3958107773,
				"z": -2.2337146565,
				"element": "N" 
			},
			{
				"x": -1.9351842009,
				"y": 0.2524493359,
				"z": -3.2536529625,
				"element": "C" 
			},
			{
				"x": -0.3328137774,
				"y": -0.3100748961,
				"z": 0.0904209315,
				"element": "C" 
			},
			{
				"x": -0.6876152061,
				"y": 0.1732543093,
				"z": 1.3581776778,
				"element": "C" 
			},
			{
				"x": -0.3625416679,
				"y": -0.5348518112,
				"z": 2.5169638738,
				"element": "C" 
			},
			{
				"x": 0.3087711449,
				"y": -1.751677123,
				"z": 2.4268565562,
				"element": "C" 
			},
			{
				"x": 0.6534946219,
				"y": -2.2500797513,
				"z": 1.1673633893,
				"element": "C" 
			},
			{
				"x": 0.3425682721,
				"y": -1.5362398653,
				"z": 0.0091309347,
				"element": "C" 
			},
			{
				"x": 1.3135697142,
				"y": -3.5990520945,
				"z": 1.054680548,
				"element": "C" 
			},
			{
				"x": 0.3949534626,
				"y": -4.5912092989,
				"z": 0.9598948644,
				"element": "F" 
			},
			{
				"x": 2.0778171046,
				"y": -3.8772233606,
				"z": 2.1338827383,
				"element": "F" 
			},
			{
				"x": 2.1006422809,
				"y": -3.6896222168,
				"z": -0.0378824314,
				"element": "F" 
			},
			{
				"x": 1.8307044669,
				"y": 0.6837870485,
				"z": -1.8826307285,
				"element": "C" 
			},
			{
				"x": 1.9242712883,
				"y": -0.2451217237,
				"z": -2.9320457871,
				"element": "C" 
			},
			{
				"x": 3.1169940182,
				"y": -0.9231421564,
				"z": -3.1838649006,
				"element": "C" 
			},
			{
				"x": 4.24543618,
				"y": -0.6828220199,
				"z": -2.4010973756,
				"element": "C" 
			},
			{
				"x": 4.1651948035,
				"y": 0.2503242105,
				"z": -1.3666515124,
				"element": "C" 
			},
			{
				"x": 2.9712029714,
				"y": 0.9308386242,
				"z": -1.1132099385,
				"element": "C" 
			},
			{
				"x": 5.3878234112,
				"y": 0.5824783389,
				"z": -0.5561265672,
				"element": "C" 
			},
			{
				"x": 5.0781524188,
				"y": 0.8983760663,
				"z": 0.7223933354,
				"element": "F" 
			},
			{
				"x": 6.0552397994,
				"y": 1.6459179182,
				"z": -1.0663628449,
				"element": "F" 
			},
			{
				"x": 6.2657066416,
				"y": -0.4454836623,
				"z": -0.5169608882,
				"element": "F" 
			},
			{
				"x": 0.0306808256,
				"y": 4.4108874421,
				"z": -0.0662224623,
				"element": "H" 
			},
			{
				"x": -1.2630047878,
				"y": 3.423201172,
				"z": -0.7752358924,
				"element": "H" 
			},
			{
				"x": -0.0146780823,
				"y": 4.1436134534,
				"z": -1.8100807981,
				"element": "H" 
			},
			{
				"x": 0.7138102789,
				"y": 2.2036804255,
				"z": 0.2770567412,
				"element": "H" 
			},
			{
				"x": 0.2044873905,
				"y": 1.8746061516,
				"z": -2.5600737071,
				"element": "H" 
			},
			{
				"x": -1.4782420349,
				"y": 1.1931519792,
				"z": -0.8755713203,
				"element": "H" 
			},
			{
				"x": -1.6398130766,
				"y": -1.1633758873,
				"z": -1.8250389346,
				"element": "H" 
			},
			{
				"x": -2.7823328236,
				"y": 0.8317981067,
				"z": -2.845169758,
				"element": "H" 
			},
			{
				"x": -2.3349488366,
				"y": -0.5097207153,
				"z": -3.9283401782,
				"element": "H" 
			},
			{
				"x": -1.3306724135,
				"y": 0.9354625365,
				"z": -3.8595365778,
				"element": "H" 
			},
			{
				"x": -1.2387998028,
				"y": 1.1069730577,
				"z": 1.4384841953,
				"element": "H" 
			},
			{
				"x": -0.6422625043,
				"y": -0.1407368481,
				"z": 3.4892502926,
				"element": "H" 
			},
			{
				"x": 0.5661197114,
				"y": -2.31039015,
				"z": 3.3199953328,
				"element": "H" 
			},
			{
				"x": 0.6327898827,
				"y": -1.9266777464,
				"z": -0.9587753622,
				"element": "H" 
			},
			{
				"x": 1.0491806792,
				"y": -0.4522588711,
				"z": -3.5369249807,
				"element": "H" 
			},
			{
				"x": 3.1670312875,
				"y": -1.6415821086,
				"z": -3.9968243187,
				"element": "H" 
			},
			{
				"x": 5.1744394455,
				"y": -1.2101945792,
				"z": -2.5877029083,
				"element": "H" 
			},
			{
				"x": 2.9315619186,
				"y": 1.6735843299,
				"z": -0.3265225216,
				"element": "H" 
			}
		],
		 "valence_orbital": [ 
			{
				"type": "occ",
				"energy": -0.26557,
				"method": "rhf"
			},
			{
				"type": "occ",
				"energy": -0.25743,
				"method": "rhf"
			},
			{
				"type": "occ",
				"energy": -0.24902,
				"method": "rhf"
			},
			{
				"type": "occ",
				"energy": -0.24203,
				"method": "rhf"
			},
			{
				"type": "occ",
				"energy": -0.22255,
				"method": "rhf"
			},
			{
				"type": "unocc",
				"energy": -0.03259,
				"method": "rhf"
			},
			{
				"type": "unocc",
				"energy": -0.02352,
				"method": "rhf"
			},
			{
				"type": "unocc",
				"energy": -0.01634,
				"method": "rhf"
			},
			{
				"type": "unocc",
				"energy": -0.0026,
				"method": "rhf"
			},
			{
				"type": "unocc",
				"energy": 0.06699,
				"method": "rhf"
			}
		],
		"cosmo_sigma_profile": { 
			"-0.025": 0.0,
			"-0.024": 0.0,
			"-0.023": 0.0,
			"-0.022": 0.0,
			"-0.021": 0.0,
			"-0.02": 0.0,
			"-0.019": 0.0,
			"-0.018": 0.0,
			"-0.017": 0.0,
			"-0.016": 0.0,
			"-0.015": 0.0,
			"-0.014": 0.0,
			"-0.013": 0.0,
			"-0.012": 0.0,
			"-0.011": 0.0329492626297,
			"-0.01": 0.661590315951,
			"-0.009": 1.16757069474,
			"-0.008": 1.89148775278,
			"-0.007": 4.49961479785,
			"-0.006": 13.3325678366,
			"-0.005": 21.6087515671,
			"-0.004": 28.3048199631,
			"-0.003": 32.4409872548,
			"-0.002": 32.0927168737,
			"-0.001": 31.3596103034,
			"0.0": 31.7282549701,
			"0.001": 27.0985124165,
			"0.002": 42.429257727,
			"0.003": 79.8350322008,
			"0.004": 26.5695640092,
			"0.005": 3.27614752482,
			"0.006": 1.67753025265,
			"0.007": 2.19299194234,
			"0.008": 1.14355742083,
			"0.009": 1.15189366291,
			"0.01": 1.18694840161,
			"0.011": 0.534470632573,
			"0.012": 0.764894651635,
			"0.013": 0.500176289375,
			"0.014": 0.304090809617,
			"0.015": 0.0795874634578,
			"0.016": 0.0,
			"0.017": 0.0,
			"0.018": 0.0,
			"0.019": 0.0,
			"0.02": 0.0,
			"0.021": 0.0,
			"0.022": 0.0,
			"0.023": 0.0,
			"0.024": 0.0,
			"0.025": 0.0
		}
	}
}
