{
	 "smiles": "CCOC(=O)C(=N/NC1=CC=C(Cl)C=C1)C(=O)C(F)(F)F", 
	 "Tm": 348.65, 
	 "num_atms": 31, 
	 "gaussian": { 
		 "optdone": 1, 
		 "sigma_profile": "yes", 
		 "theory": "DFT", 
		 "functional": "B3LYP", 
		 "basiset": "6-31G**", 
		 "properties": { 
			 "R2extent": 11662.9607, 
			 "electric_dipole_moment_norm": 6.61170979173, 
			 "electric_quadrupole_moment_norm": 14.5058452601, 
			 "total_energy": -1558.15342699, 
			 "HOMO_LUMO_gap": 0.13854, 
			 "cosmo_polarized_energy": -16.67, 
			 "cosmo_cavitation_energy": 40.66, 
			 "cosmo_dispersion_energy": -27.86, 
			 "cosmo_repulsion_energy": 2.11, 
			 "cosmo_total_nonelectrostatic_energy": 14.9, 
			 "SMD_solvation_energy": 8.9 
		},
		"coords": [
			{
				"x": 2.7088368509,
				"y": 0.3445633434,
				"z": -0.682182463,
				"element": "C" 
			},
			{
				"x": 2.0986598963,
				"y": 1.1453711735,
				"z": 0.4511232396,
				"element": "C" 
			},
			{
				"x": 0.6585357197,
				"y": 0.9421058545,
				"z": 0.4117704201,
				"element": "O" 
			},
			{
				"x": -0.0530086843,
				"y": 1.6015164776,
				"z": 1.3724879986,
				"element": "C" 
			},
			{
				"x": 0.4700823524,
				"y": 2.3068921341,
				"z": 2.207181373,
				"element": "O" 
			},
			{
				"x": -1.5122271981,
				"y": 1.3312539573,
				"z": 1.3073348805,
				"element": "C" 
			},
			{
				"x": -2.1231051819,
				"y": 0.3623640716,
				"z": 0.6703408603,
				"element": "N" 
			},
			{
				"x": -1.5228794463,
				"y": -0.4924244759,
				"z": -0.1107620139,
				"element": "N" 
			},
			{
				"x": -2.2507239667,
				"y": -1.5087532441,
				"z": -0.7568006417,
				"element": "C" 
			},
			{
				"x": -1.5645221156,
				"y": -2.3625339357,
				"z": -1.6284557671,
				"element": "C" 
			},
			{
				"x": -2.2453537436,
				"y": -3.3843492145,
				"z": -2.2854957803,
				"element": "C" 
			},
			{
				"x": -3.6128711193,
				"y": -3.5456146416,
				"z": -2.066335105,
				"element": "C" 
			},
			{
				"x": -4.4764916423,
				"y": -4.8309089879,
				"z": -2.8920793305,
				"element": "Cl" 
			},
			{
				"x": -4.3030744443,
				"y": -2.6974450611,
				"z": -1.1970811263,
				"element": "C" 
			},
			{
				"x": -3.6242397568,
				"y": -1.6773997855,
				"z": -0.53876894,
				"element": "C" 
			},
			{
				"x": -2.4524851314,
				"y": 2.1627794753,
				"z": 2.1242992059,
				"element": "C" 
			},
			{
				"x": -3.501850526,
				"y": 1.7383092851,
				"z": 2.5562943263,
				"element": "O" 
			},
			{
				"x": -2.1432664792,
				"y": 3.6728539513,
				"z": 2.3434379758,
				"element": "C" 
			},
			{
				"x": -3.2991476646,
				"y": 4.3516241553,
				"z": 2.3897253557,
				"element": "F" 
			},
			{
				"x": -1.4110652727,
				"y": 4.1822113922,
				"z": 1.329391993,
				"element": "F" 
			},
			{
				"x": -1.4929140344,
				"y": 3.8835152812,
				"z": 3.4964076292,
				"element": "F" 
			},
			{
				"x": 2.3153350644,
				"y": 0.6679485549,
				"z": -1.6502674767,
				"element": "H" 
			},
			{
				"x": 3.7932183407,
				"y": 0.4899451359,
				"z": -0.6900265776,
				"element": "H" 
			},
			{
				"x": 2.5138534707,
				"y": -0.7257950294,
				"z": -0.5624323006,
				"element": "H" 
			},
			{
				"x": 2.4662697237,
				"y": 0.8277099152,
				"z": 1.4307980121,
				"element": "H" 
			},
			{
				"x": 2.2940201056,
				"y": 2.216457087,
				"z": 0.3530470086,
				"element": "H" 
			},
			{
				"x": -0.519993395,
				"y": -0.4075236514,
				"z": -0.27593854,
				"element": "H" 
			},
			{
				"x": -0.4989326111,
				"y": -2.2305782447,
				"z": -1.7966564169,
				"element": "H" 
			},
			{
				"x": -1.7192337796,
				"y": -4.0482330156,
				"z": -2.9619648507,
				"element": "H" 
			},
			{
				"x": -5.3660742192,
				"y": -2.8367829084,
				"z": -1.0352160393,
				"element": "H" 
			},
			{
				"x": -4.1407511119,
				"y": -1.0116790495,
				"z": 0.1422230909,
				"element": "H" 
			}
		],
		 "valence_orbital": [ 
			{
				"type": "occ",
				"energy": -0.29522,
				"method": "rhf"
			},
			{
				"type": "occ",
				"energy": -0.29218,
				"method": "rhf"
			},
			{
				"type": "occ",
				"energy": -0.2813,
				"method": "rhf"
			},
			{
				"type": "occ",
				"energy": -0.27098,
				"method": "rhf"
			},
			{
				"type": "occ",
				"energy": -0.23174,
				"method": "rhf"
			},
			{
				"type": "unocc",
				"energy": -0.0932,
				"method": "rhf"
			},
			{
				"type": "unocc",
				"energy": -0.04061,
				"method": "rhf"
			},
			{
				"type": "unocc",
				"energy": -0.03063,
				"method": "rhf"
			},
			{
				"type": "unocc",
				"energy": -0.00931,
				"method": "rhf"
			},
			{
				"type": "unocc",
				"energy": 0.01954,
				"method": "rhf"
			}
		],
		"cosmo_sigma_profile": { 
			"-0.025": 0.0,
			"-0.024": 0.0,
			"-0.023": 0.0,
			"-0.022": 0.0,
			"-0.021": 0.0,
			"-0.02": 0.0,
			"-0.019": 0.0,
			"-0.018": 0.0,
			"-0.017": 0.0,
			"-0.016": 0.0,
			"-0.015": 0.0,
			"-0.014": 0.0036564928213,
			"-0.013": 0.488033747818,
			"-0.012": 1.44493379193,
			"-0.011": 1.03186352052,
			"-0.01": 1.1106799414,
			"-0.009": 1.50527550784,
			"-0.008": 5.26193679349,
			"-0.007": 9.22904631398,
			"-0.006": 14.1631558841,
			"-0.005": 19.2415077793,
			"-0.004": 24.1315038486,
			"-0.003": 25.0195605468,
			"-0.002": 21.4279342938,
			"-0.001": 24.7505197481,
			"0.0": 25.532164252,
			"0.001": 25.893424198,
			"0.002": 45.0480826986,
			"0.003": 25.8917500926,
			"0.004": 14.9700099662,
			"0.005": 8.77089247283,
			"0.006": 5.2505713871,
			"0.007": 4.00497265679,
			"0.008": 4.38878779985,
			"0.009": 6.85621691467,
			"0.01": 7.58017037846,
			"0.011": 4.67849120714,
			"0.012": 0.404645042268,
			"0.013": 0.0,
			"0.014": 0.0,
			"0.015": 0.0,
			"0.016": 0.0,
			"0.017": 0.0,
			"0.018": 0.0,
			"0.019": 0.0,
			"0.02": 0.0,
			"0.021": 0.0,
			"0.022": 0.0,
			"0.023": 0.0,
			"0.024": 0.0,
			"0.025": 0.0
		}
	}
}
