{
	 "smiles": "CC(Cl)=O", 
	 "Tm": 161.15, 
	 "num_atms": 7, 
	 "gaussian": { 
		 "optdone": 1, 
		 "sigma_profile": "yes", 
		 "theory": "DFT", 
		 "functional": "B3LYP", 
		 "basiset": "6-31G**", 
		 "properties": { 
			 "R2extent": 1222.1358, 
			 "electric_dipole_moment_norm": 2.89467903057, 
			 "electric_quadrupole_moment_norm": 6.95063800741, 
			 "total_energy": -613.443773904, 
			 "HOMO_LUMO_gap": 0.25836, 
			 "cosmo_polarized_energy": -5.45, 
			 "cosmo_cavitation_energy": 12.91, 
			 "cosmo_dispersion_energy": -9.66, 
			 "cosmo_repulsion_energy": 0.9, 
			 "cosmo_total_nonelectrostatic_energy": 4.15, 
			 "SMD_solvation_energy": 3.38 
		},
		"coords": [
			{
				"x": -0.6660541526,
				"y": 0.3069643904,
				"z": 0.8305397484,
				"element": "C" 
			},
			{
				"x": 0.0749636381,
				"y": 1.3485497048,
				"z": 1.6212211389,
				"element": "C" 
			},
			{
				"x": -0.2856851165,
				"y": 1.2207014236,
				"z": 3.4151304048,
				"element": "Cl" 
			},
			{
				"x": 0.8177115804,
				"y": 2.183017295,
				"z": 1.2182874291,
				"element": "O" 
			},
			{
				"x": -0.4213158593,
				"y": 0.4211593545,
				"z": -0.2265906142,
				"element": "H" 
			},
			{
				"x": -1.7419427237,
				"y": 0.4216203616,
				"z": 0.9882230761,
				"element": "H" 
			},
			{
				"x": -0.3862773665,
				"y": -0.68991253,
				"z": 1.1819888168,
				"element": "H" 
			}
		],
		 "valence_orbital": [ 
			{
				"type": "occ",
				"energy": -0.42431,
				"method": "rhf"
			},
			{
				"type": "occ",
				"energy": -0.40511,
				"method": "rhf"
			},
			{
				"type": "occ",
				"energy": -0.32361,
				"method": "rhf"
			},
			{
				"type": "occ",
				"energy": -0.32067,
				"method": "rhf"
			},
			{
				"type": "occ",
				"energy": -0.2997,
				"method": "rhf"
			},
			{
				"type": "unocc",
				"energy": -0.04134,
				"method": "rhf"
			},
			{
				"type": "unocc",
				"energy": 0.01503,
				"method": "rhf"
			},
			{
				"type": "unocc",
				"energy": 0.09482,
				"method": "rhf"
			},
			{
				"type": "unocc",
				"energy": 0.1337,
				"method": "rhf"
			},
			{
				"type": "unocc",
				"energy": 0.14601,
				"method": "rhf"
			}
		],
		"cosmo_sigma_profile": { 
			"-0.025": 0.0,
			"-0.024": 0.0,
			"-0.023": 0.0,
			"-0.022": 0.0,
			"-0.021": 0.0,
			"-0.02": 0.0,
			"-0.019": 0.0,
			"-0.018": 0.0,
			"-0.017": 0.0,
			"-0.016": 0.0,
			"-0.015": 0.0,
			"-0.014": 0.0,
			"-0.013": 0.0,
			"-0.012": 0.0,
			"-0.011": 0.0,
			"-0.01": 0.0,
			"-0.009": 0.184837070199,
			"-0.008": 4.84163604941,
			"-0.007": 6.68813189639,
			"-0.006": 6.82988411983,
			"-0.005": 7.23440368547,
			"-0.004": 9.43273382903,
			"-0.003": 7.6624917262,
			"-0.002": 3.08647508301,
			"-0.001": 3.22402889662,
			"0.0": 4.27875044447,
			"0.001": 5.05059703837,
			"0.002": 5.15427306608,
			"0.003": 7.04677893663,
			"0.004": 10.15139286,
			"0.005": 10.3238348036,
			"0.006": 3.43942213253,
			"0.007": 2.92583327746,
			"0.008": 5.46335918758,
			"0.009": 2.12772542065,
			"0.01": 0.0426112684483,
			"0.011": 0.0,
			"0.012": 0.0,
			"0.013": 0.0,
			"0.014": 0.0,
			"0.015": 0.0,
			"0.016": 0.0,
			"0.017": 0.0,
			"0.018": 0.0,
			"0.019": 0.0,
			"0.02": 0.0,
			"0.021": 0.0,
			"0.022": 0.0,
			"0.023": 0.0,
			"0.024": 0.0,
			"0.025": 0.0
		}
	}
}
