{
	 "smiles": "CC1=C(C)C=C(C=C1)C1=C(CC(O)=O)SC(N)=N1", 
	 "Tm": 539.15, 
	 "num_atms": 32, 
	 "gaussian": { 
		 "optdone": 1, 
		 "sigma_profile": "yes", 
		 "theory": "DFT", 
		 "functional": "B3LYP", 
		 "basiset": "6-31G**", 
		 "properties": { 
			 "R2extent": 5893.9473, 
			 "electric_dipole_moment_norm": 2.02018251898, 
			 "electric_quadrupole_moment_norm": 14.0241756061, 
			 "total_energy": -1161.99265831, 
			 "HOMO_LUMO_gap": 0.17203, 
			 "cosmo_polarized_energy": -17.17, 
			 "cosmo_cavitation_energy": 37.33, 
			 "cosmo_dispersion_energy": -26.79, 
			 "cosmo_repulsion_energy": 2.04, 
			 "cosmo_total_nonelectrostatic_energy": 12.58, 
			 "SMD_solvation_energy": 5.69 
		},
		"coords": [
			{
				"x": -3.6137788138,
				"y": -2.638969898,
				"z": -2.0496273412,
				"element": "C" 
			},
			{
				"x": -2.3243744194,
				"y": -2.0324629917,
				"z": -1.5512131601,
				"element": "C" 
			},
			{
				"x": -2.3179920229,
				"y": -0.800001382,
				"z": -0.8653078416,
				"element": "C" 
			},
			{
				"x": -3.6043038051,
				"y": -0.054488292,
				"z": -0.5954038279,
				"element": "C" 
			},
			{
				"x": -1.1039450584,
				"y": -0.2702335777,
				"z": -0.4157123524,
				"element": "C" 
			},
			{
				"x": 0.1186602937,
				"y": -0.9254169262,
				"z": -0.638773397,
				"element": "C" 
			},
			{
				"x": 0.0978533303,
				"y": -2.1619804165,
				"z": -1.3012227116,
				"element": "C" 
			},
			{
				"x": -1.106423878,
				"y": -2.6946981886,
				"z": -1.7501588208,
				"element": "C" 
			},
			{
				"x": 1.4122012376,
				"y": -0.3733898984,
				"z": -0.1818547216,
				"element": "C" 
			},
			{
				"x": 1.7813463374,
				"y": 0.9516533365,
				"z": -0.1472669415,
				"element": "C" 
			},
			{
				"x": 1.0430364395,
				"y": 2.1786071735,
				"z": -0.6106047692,
				"element": "C" 
			},
			{
				"x": 0.4548611514,
				"y": 2.9732453815,
				"z": 0.5464554609,
				"element": "C" 
			},
			{
				"x": 1.3687154749,
				"y": 3.8116466965,
				"z": 1.0882891862,
				"element": "O" 
			},
			{
				"x": -0.6753684677,
				"y": 2.8764300699,
				"z": 0.9734313608,
				"element": "O" 
			},
			{
				"x": 3.4358505466,
				"y": 1.0875768499,
				"z": 0.4496101546,
				"element": "S" 
			},
			{
				"x": 3.4802221901,
				"y": -0.6710411062,
				"z": 0.581152998,
				"element": "C" 
			},
			{
				"x": 4.6232400188,
				"y": -1.3255139858,
				"z": 0.983610205,
				"element": "N" 
			},
			{
				"x": 2.3883394101,
				"y": -1.2758220913,
				"z": 0.2240773006,
				"element": "N" 
			},
			{
				"x": -3.4322983847,
				"y": -3.5912168836,
				"z": -2.5552025614,
				"element": "H" 
			},
			{
				"x": -4.126911335,
				"y": -1.9767791307,
				"z": -2.757982595,
				"element": "H" 
			},
			{
				"x": -4.3183908142,
				"y": -2.8251210507,
				"z": -1.2295763343,
				"element": "H" 
			},
			{
				"x": -3.4117192666,
				"y": 0.8776977138,
				"z": -0.0585448258,
				"element": "H" 
			},
			{
				"x": -4.300664013,
				"y": -0.6517160671,
				"z": 0.0063221702,
				"element": "H" 
			},
			{
				"x": -4.1297459067,
				"y": 0.1959227305,
				"z": -1.525418835,
				"element": "H" 
			},
			{
				"x": -1.1250148273,
				"y": 0.6563111787,
				"z": 0.1494245288,
				"element": "H" 
			},
			{
				"x": 1.0297722497,
				"y": -2.6944300341,
				"z": -1.4570778043,
				"element": "H" 
			},
			{
				"x": -1.1048905933,
				"y": -3.6506052702,
				"z": -2.2688735376,
				"element": "H" 
			},
			{
				"x": 0.2187524031,
				"y": 1.8753470979,
				"z": -1.2582006573,
				"element": "H" 
			},
			{
				"x": 1.7122166822,
				"y": 2.8343928272,
				"z": -1.1780533702,
				"element": "H" 
			},
			{
				"x": 0.9360695453,
				"y": 4.2367021187,
				"z": 1.8483138106,
				"element": "H" 
			},
			{
				"x": 4.4539933334,
				"y": -2.2929982362,
				"z": 1.2274802733,
				"element": "H" 
			},
			{
				"x": 5.2232909618,
				"y": -0.8388477475,
				"z": 1.6340089567,
				"element": "H" 
			}
		],
		 "valence_orbital": [ 
			{
				"type": "occ",
				"energy": -0.27208,
				"method": "rhf"
			},
			{
				"type": "occ",
				"energy": -0.26867,
				"method": "rhf"
			},
			{
				"type": "occ",
				"energy": -0.23701,
				"method": "rhf"
			},
			{
				"type": "occ",
				"energy": -0.22911,
				"method": "rhf"
			},
			{
				"type": "occ",
				"energy": -0.19724,
				"method": "rhf"
			},
			{
				"type": "unocc",
				"energy": -0.02521,
				"method": "rhf"
			},
			{
				"type": "unocc",
				"energy": 0.00648,
				"method": "rhf"
			},
			{
				"type": "unocc",
				"energy": 0.00841,
				"method": "rhf"
			},
			{
				"type": "unocc",
				"energy": 0.01396,
				"method": "rhf"
			},
			{
				"type": "unocc",
				"energy": 0.01924,
				"method": "rhf"
			}
		],
		"cosmo_sigma_profile": { 
			"-0.025": 0.0,
			"-0.024": 0.0,
			"-0.023": 0.0,
			"-0.022": 0.0,
			"-0.021": 0.0,
			"-0.02": 0.0,
			"-0.019": 0.155138436083,
			"-0.018": 0.812723025389,
			"-0.017": 1.14248231681,
			"-0.016": 0.934895840355,
			"-0.015": 0.790823050494,
			"-0.014": 2.57936059562,
			"-0.013": 3.48496219978,
			"-0.012": 3.33391787551,
			"-0.011": 3.81820347958,
			"-0.01": 3.12879593692,
			"-0.009": 2.03957058815,
			"-0.008": 2.4332202012,
			"-0.007": 4.65533365053,
			"-0.006": 5.95787547088,
			"-0.005": 10.4320397222,
			"-0.004": 19.6732544945,
			"-0.003": 21.8169462403,
			"-0.002": 21.204883602,
			"-0.001": 20.760374825,
			"0.0": 27.8787695314,
			"0.001": 25.4095157334,
			"0.002": 20.4922110812,
			"0.003": 19.7395437616,
			"0.004": 17.5795179219,
			"0.005": 14.9442000069,
			"0.006": 14.1042399263,
			"0.007": 6.10404349558,
			"0.008": 5.61021462009,
			"0.009": 4.90595375058,
			"0.01": 3.73826931518,
			"0.011": 4.70758452763,
			"0.012": 2.20441692619,
			"0.013": 0.677450448237,
			"0.014": 0.587209036907,
			"0.015": 0.0627717745209,
			"0.016": 0.0,
			"0.017": 0.0,
			"0.018": 0.0,
			"0.019": 0.0,
			"0.02": 0.0,
			"0.021": 0.0,
			"0.022": 0.0,
			"0.023": 0.0,
			"0.024": 0.0,
			"0.025": 0.0
		}
	}
}
