{
	 "smiles": "O=C1CC2CCCCC2C1", 
	 "Tm": 283.15, 
	 "num_atms": 24, 
	 "gaussian": { 
		 "optdone": 1, 
		 "sigma_profile": "yes", 
		 "theory": "DFT", 
		 "functional": "B3LYP", 
		 "basiset": "6-31G**", 
		 "properties": { 
			 "R2extent": 1656.8994, 
			 "electric_dipole_moment_norm": 3.10043972849, 
			 "electric_quadrupole_moment_norm": 12.9850029781, 
			 "total_energy": -426.635552857, 
			 "HOMO_LUMO_gap": 0.22023, 
			 "cosmo_polarized_energy": -6.65, 
			 "cosmo_cavitation_energy": 23.85, 
			 "cosmo_dispersion_energy": -18.02, 
			 "cosmo_repulsion_energy": 1.47, 
			 "cosmo_total_nonelectrostatic_energy": 7.29, 
			 "SMD_solvation_energy": 3.63 
		},
		"coords": [
			{
				"x": 0.0792484786,
				"y": 2.7395878125,
				"z": 2.86906621,
				"element": "O" 
			},
			{
				"x": 0.1460532109,
				"y": 2.0263749452,
				"z": 1.8920729528,
				"element": "C" 
			},
			{
				"x": -1.0450683217,
				"y": 1.4521655749,
				"z": 1.1155874331,
				"element": "C" 
			},
			{
				"x": -0.4317881869,
				"y": 0.8547240598,
				"z": -0.1661742278,
				"element": "C" 
			},
			{
				"x": -1.2359529502,
				"y": -0.260275404,
				"z": -0.8553305533,
				"element": "C" 
			},
			{
				"x": -1.1934659007,
				"y": -1.5975831003,
				"z": -0.100229461,
				"element": "C" 
			},
			{
				"x": 0.2537560259,
				"y": -2.0271477291,
				"z": 0.178653244,
				"element": "C" 
			},
			{
				"x": 0.9984560152,
				"y": -0.9511757824,
				"z": 0.9807862853,
				"element": "C" 
			},
			{
				"x": 1.0006579898,
				"y": 0.4178413286,
				"z": 0.2713943075,
				"element": "C" 
			},
			{
				"x": 1.4389749384,
				"y": 1.5498336912,
				"z": 1.216968451,
				"element": "C" 
			},
			{
				"x": -1.8011190504,
				"y": 2.2232715814,
				"z": 0.9404693397,
				"element": "H" 
			},
			{
				"x": -1.5169116246,
				"y": 0.6866314798,
				"z": 1.7456765661,
				"element": "H" 
			},
			{
				"x": -0.3152804684,
				"y": 1.6795075148,
				"z": -0.8831497459,
				"element": "H" 
			},
			{
				"x": -0.8178874394,
				"y": -0.416164644,
				"z": -1.8595403515,
				"element": "H" 
			},
			{
				"x": -2.2732802063,
				"y": 0.0654230392,
				"z": -1.0029471384,
				"element": "H" 
			},
			{
				"x": -1.7170758271,
				"y": -2.3654220119,
				"z": -0.6817258717,
				"element": "H" 
			},
			{
				"x": -1.7349418183,
				"y": -1.513087967,
				"z": 0.8522172659,
				"element": "H" 
			},
			{
				"x": 0.2729455715,
				"y": -2.980441719,
				"z": 0.719808814,
				"element": "H" 
			},
			{
				"x": 0.7724468209,
				"y": -2.1989658105,
				"z": -0.7755491278,
				"element": "H" 
			},
			{
				"x": 0.5254422365,
				"y": -0.8555579983,
				"z": 1.969018846,
				"element": "H" 
			},
			{
				"x": 2.0340506525,
				"y": -1.2582677716,
				"z": 1.1724313372,
				"element": "H" 
			},
			{
				"x": 1.6530513862,
				"y": 0.3499954792,
				"z": -0.6078836285,
				"element": "H" 
			},
			{
				"x": 1.8447004816,
				"y": 2.4032098582,
				"z": 0.6558650422,
				"element": "H" 
			},
			{
				"x": 2.1904879861,
				"y": 1.2695235733,
				"z": 1.9614140107,
				"element": "H" 
			}
		],
		 "valence_orbital": [ 
			{
				"type": "occ",
				"energy": -0.33406,
				"method": "rhf"
			},
			{
				"type": "occ",
				"energy": -0.31743,
				"method": "rhf"
			},
			{
				"type": "occ",
				"energy": -0.30213,
				"method": "rhf"
			},
			{
				"type": "occ",
				"energy": -0.29798,
				"method": "rhf"
			},
			{
				"type": "occ",
				"energy": -0.23337,
				"method": "rhf"
			},
			{
				"type": "unocc",
				"energy": -0.01314,
				"method": "rhf"
			},
			{
				"type": "unocc",
				"energy": 0.07135,
				"method": "rhf"
			},
			{
				"type": "unocc",
				"energy": 0.09108,
				"method": "rhf"
			},
			{
				"type": "unocc",
				"energy": 0.11168,
				"method": "rhf"
			},
			{
				"type": "unocc",
				"energy": 0.12541,
				"method": "rhf"
			}
		],
		"cosmo_sigma_profile": { 
			"-0.025": 0.0,
			"-0.024": 0.0,
			"-0.023": 0.0,
			"-0.022": 0.0,
			"-0.021": 0.0,
			"-0.02": 0.0,
			"-0.019": 0.0,
			"-0.018": 0.0,
			"-0.017": 0.0,
			"-0.016": 0.0,
			"-0.015": 0.0,
			"-0.014": 0.0,
			"-0.013": 0.0,
			"-0.012": 0.0,
			"-0.011": 0.0,
			"-0.01": 0.0,
			"-0.009": 0.0,
			"-0.008": 0.0,
			"-0.007": 0.0,
			"-0.006": 1.00500561286,
			"-0.005": 9.41322767365,
			"-0.004": 12.2103299558,
			"-0.003": 18.0940757943,
			"-0.002": 32.1864049352,
			"-0.001": 36.7631906567,
			"0.0": 27.1600172742,
			"0.001": 18.092600002,
			"0.002": 4.09391299777,
			"0.003": 1.55122109575,
			"0.004": 1.77342878494,
			"0.005": 0.781278423284,
			"0.006": 1.56635099748,
			"0.007": 1.81283923256,
			"0.008": 1.73506287291,
			"0.009": 1.40864764936,
			"0.01": 1.9820317801,
			"0.011": 3.22661027053,
			"0.012": 4.55527205521,
			"0.013": 3.65648949427,
			"0.014": 0.711088292214,
			"0.015": 0.0,
			"0.016": 0.0,
			"0.017": 0.0,
			"0.018": 0.0,
			"0.019": 0.0,
			"0.02": 0.0,
			"0.021": 0.0,
			"0.022": 0.0,
			"0.023": 0.0,
			"0.024": 0.0,
			"0.025": 0.0
		}
	}
}
