{
	 "smiles": "NC1=CC=C(NC2=CC=CC=C2)C=C1", 
	 "Tm": 347.15, 
	 "num_atms": 26, 
	 "gaussian": { 
		 "optdone": 1, 
		 "sigma_profile": "yes", 
		 "theory": "DFT", 
		 "functional": "B3LYP", 
		 "basiset": "6-31G**", 
		 "properties": { 
			 "R2extent": 3973.6215, 
			 "electric_dipole_moment_norm": 2.02696676342, 
			 "electric_quadrupole_moment_norm": 12.1589411377, 
			 "total_energy": -574.015009473, 
			 "HOMO_LUMO_gap": 0.17208, 
			 "cosmo_polarized_energy": -11.99, 
			 "cosmo_cavitation_energy": 29.57, 
			 "cosmo_dispersion_energy": -21.91, 
			 "cosmo_repulsion_energy": 1.72, 
			 "cosmo_total_nonelectrostatic_energy": 9.38, 
			 "SMD_solvation_energy": 4.71 
		},
		"coords": [
			{
				"x": -3.0456640602,
				"y": -1.5602009021,
				"z": 2.6021001645,
				"element": "N" 
			},
			{
				"x": -2.0535552767,
				"y": -1.3861725332,
				"z": 1.6264226688,
				"element": "C" 
			},
			{
				"x": -0.9766499582,
				"y": -2.2805591906,
				"z": 1.5216894049,
				"element": "C" 
			},
			{
				"x": -0.0163282845,
				"y": -2.1281510733,
				"z": 0.5262897558,
				"element": "C" 
			},
			{
				"x": -0.1064633285,
				"y": -1.0961900101,
				"z": -0.4202053007,
				"element": "C" 
			},
			{
				"x": 0.849083361,
				"y": -1.0189323582,
				"z": -1.451719833,
				"element": "N" 
			},
			{
				"x": 1.4175565915,
				"y": 0.1132436772,
				"z": -2.0335041075,
				"element": "C" 
			},
			{
				"x": 2.1612602898,
				"y": -0.0432312879,
				"z": -3.2201379175,
				"element": "C" 
			},
			{
				"x": 2.7733872425,
				"y": 1.0491038024,
				"z": -3.826271415,
				"element": "C" 
			},
			{
				"x": 2.6537320055,
				"y": 2.3286315127,
				"z": -3.2776814389,
				"element": "C" 
			},
			{
				"x": 1.9198393769,
				"y": 2.4882281103,
				"z": -2.1011953677,
				"element": "C" 
			},
			{
				"x": 1.3108939195,
				"y": 1.4010915019,
				"z": -1.475890976,
				"element": "C" 
			},
			{
				"x": -1.1972321295,
				"y": -0.2166336802,
				"z": -0.3321025665,
				"element": "C" 
			},
			{
				"x": -2.1418315245,
				"y": -0.3514240369,
				"z": 0.6812567933,
				"element": "C" 
			},
			{
				"x": -2.7348745037,
				"y": -2.0498894084,
				"z": 3.4308015286,
				"element": "H" 
			},
			{
				"x": -3.5428259438,
				"y": -0.7141881009,
				"z": 2.8470852008,
				"element": "H" 
			},
			{
				"x": -0.8851039805,
				"y": -3.0969282128,
				"z": 2.2341890281,
				"element": "H" 
			},
			{
				"x": 0.8225885115,
				"y": -2.8185734707,
				"z": 0.4826430994,
				"element": "H" 
			},
			{
				"x": 1.2458298661,
				"y": -1.8990703845,
				"z": -1.7433588176,
				"element": "H" 
			},
			{
				"x": 2.2492345879,
				"y": -1.032287983,
				"z": -3.6644988661,
				"element": "H" 
			},
			{
				"x": 3.3422932765,
				"y": 0.8983298619,
				"z": -4.7398539418,
				"element": "H" 
			},
			{
				"x": 3.1243172771,
				"y": 3.1815985317,
				"z": -3.7563635338,
				"element": "H" 
			},
			{
				"x": 1.8254433885,
				"y": 3.4727647645,
				"z": -1.6504554588,
				"element": "H" 
			},
			{
				"x": 0.770966592,
				"y": 1.5442157719,
				"z": -0.5472714475,
				"element": "H" 
			},
			{
				"x": -1.3142888478,
				"y": 0.5703272472,
				"z": -1.0691314198,
				"element": "H" 
			},
			{
				"x": -2.9769084484,
				"y": 0.3437978511,
				"z": 0.7260647641,
				"element": "H" 
			}
		],
		 "valence_orbital": [ 
			{
				"type": "occ",
				"energy": -0.284,
				"method": "rhf"
			},
			{
				"type": "occ",
				"energy": -0.24623,
				"method": "rhf"
			},
			{
				"type": "occ",
				"energy": -0.23989,
				"method": "rhf"
			},
			{
				"type": "occ",
				"energy": -0.21863,
				"method": "rhf"
			},
			{
				"type": "occ",
				"energy": -0.17074,
				"method": "rhf"
			},
			{
				"type": "unocc",
				"energy": 0.00134,
				"method": "rhf"
			},
			{
				"type": "unocc",
				"energy": 0.00719,
				"method": "rhf"
			},
			{
				"type": "unocc",
				"energy": 0.00987,
				"method": "rhf"
			},
			{
				"type": "unocc",
				"energy": 0.04162,
				"method": "rhf"
			},
			{
				"type": "unocc",
				"energy": 0.08323,
				"method": "rhf"
			}
		],
		"cosmo_sigma_profile": { 
			"-0.025": 0.0,
			"-0.024": 0.0,
			"-0.023": 0.0,
			"-0.022": 0.0,
			"-0.021": 0.0,
			"-0.02": 0.0,
			"-0.019": 0.0,
			"-0.018": 0.0,
			"-0.017": 0.0,
			"-0.016": 0.0,
			"-0.015": 0.0,
			"-0.014": 0.0712005488673,
			"-0.013": 1.10202959098,
			"-0.012": 2.62749427984,
			"-0.011": 3.75823569144,
			"-0.01": 4.18197285357,
			"-0.009": 4.9976556477,
			"-0.008": 4.13883824064,
			"-0.007": 4.72789099927,
			"-0.006": 8.44985998648,
			"-0.005": 13.5966194914,
			"-0.004": 18.1274778788,
			"-0.003": 17.6247411281,
			"-0.002": 16.3653859266,
			"-0.001": 12.3421390369,
			"0.0": 12.3294550812,
			"0.001": 10.1789201787,
			"0.002": 11.7447420594,
			"0.003": 13.9783605657,
			"0.004": 16.7132803292,
			"0.005": 17.513543244,
			"0.006": 17.7998313057,
			"0.007": 15.7203820847,
			"0.008": 2.23818041184,
			"0.009": 0.745143646121,
			"0.01": 0.569705738002,
			"0.011": 1.09476605627,
			"0.012": 0.779041687379,
			"0.013": 0.301183061377,
			"0.014": 0.576809209734,
			"0.015": 0.832807458686,
			"0.016": 0.184957254374,
			"0.017": 0.0,
			"0.018": 0.0,
			"0.019": 0.0,
			"0.02": 0.0,
			"0.021": 0.0,
			"0.022": 0.0,
			"0.023": 0.0,
			"0.024": 0.0,
			"0.025": 0.0
		}
	}
}
