{
	 "smiles": "CS(=O)(=O)N1CCC(CC1)N=C=O", 
	 "Tm": 358.15, 
	 "num_atms": 25, 
	 "gaussian": { 
		 "optdone": 1, 
		 "sigma_profile": "yes", 
		 "theory": "DFT", 
		 "functional": "B3LYP", 
		 "basiset": "6-31G**", 
		 "properties": { 
			 "R2extent": 3827.2426, 
			 "electric_dipole_moment_norm": 5.61562226828, 
			 "electric_quadrupole_moment_norm": 10.749472634, 
			 "total_energy": -1007.27546461, 
			 "HOMO_LUMO_gap": 0.26728, 
			 "cosmo_polarized_energy": -16.52, 
			 "cosmo_cavitation_energy": 29.33, 
			 "cosmo_dispersion_energy": -21.21, 
			 "cosmo_repulsion_energy": 1.64, 
			 "cosmo_total_nonelectrostatic_energy": 9.76, 
			 "SMD_solvation_energy": 5.32 
		},
		"coords": [
			{
				"x": -0.3344471501,
				"y": -0.6938628393,
				"z": 3.3221543132,
				"element": "C" 
			},
			{
				"x": -0.3572278536,
				"y": 0.9757736524,
				"z": 2.6444819184,
				"element": "S" 
			},
			{
				"x": 0.7345983112,
				"y": 1.7317300403,
				"z": 3.2656139817,
				"element": "O" 
			},
			{
				"x": -1.7408914767,
				"y": 1.4619325299,
				"z": 2.7124775556,
				"element": "O" 
			},
			{
				"x": 0.0948527067,
				"y": 0.6820004917,
				"z": 1.0268757049,
				"element": "N" 
			},
			{
				"x": -1.0300304339,
				"y": 0.3927050189,
				"z": 0.1126910907,
				"element": "C" 
			},
			{
				"x": -0.4823763824,
				"y": -0.2325205084,
				"z": -1.1734626021,
				"element": "C" 
			},
			{
				"x": 0.5689116303,
				"y": 0.6673153585,
				"z": -1.842401977,
				"element": "C" 
			},
			{
				"x": 1.6588747779,
				"y": 1.041614277,
				"z": -0.8203609316,
				"element": "C" 
			},
			{
				"x": 1.0660487569,
				"y": 1.6413781235,
				"z": 0.4568457067,
				"element": "C" 
			},
			{
				"x": -0.0873372771,
				"y": 1.864057907,
				"z": -2.3586351734,
				"element": "N" 
			},
			{
				"x": 0.0889543345,
				"y": 2.6784611091,
				"z": -3.2338110145,
				"element": "C" 
			},
			{
				"x": 0.1443104813,
				"y": 3.5295764062,
				"z": -4.0498580728,
				"element": "O" 
			},
			{
				"x": -0.6508065953,
				"y": -0.6133598287,
				"z": 4.3636982686,
				"element": "H" 
			},
			{
				"x": 0.6812724642,
				"y": -1.082250076,
				"z": 3.2538332808,
				"element": "H" 
			},
			{
				"x": -1.0331588675,
				"y": -1.3221463926,
				"z": 2.7682309173,
				"element": "H" 
			},
			{
				"x": -1.7191799061,
				"y": -0.3016954609,
				"z": 0.5995102332,
				"element": "H" 
			},
			{
				"x": -1.5953340904,
				"y": 1.3060773257,
				"z": -0.1154953433,
				"element": "H" 
			},
			{
				"x": -1.3068350058,
				"y": -0.4203434085,
				"z": -1.8684347153,
				"element": "H" 
			},
			{
				"x": -0.0120635288,
				"y": -1.1941460855,
				"z": -0.9391700968,
				"element": "H" 
			},
			{
				"x": 1.0254776118,
				"y": 0.1260751718,
				"z": -2.6794800773,
				"element": "H" 
			},
			{
				"x": 2.2174054266,
				"y": 0.1326684028,
				"z": -0.5681410739,
				"element": "H" 
			},
			{
				"x": 2.3627430733,
				"y": 1.7526086838,
				"z": -1.265939721,
				"element": "H" 
			},
			{
				"x": 1.845238623,
				"y": 1.8232929109,
				"z": 1.1966696636,
				"element": "H" 
			},
			{
				"x": 0.5838003698,
				"y": 2.6031571903,
				"z": 0.2294081642,
				"element": "H" 
			}
		],
		 "valence_orbital": [ 
			{
				"type": "occ",
				"energy": -0.30705,
				"method": "rhf"
			},
			{
				"type": "occ",
				"energy": -0.30184,
				"method": "rhf"
			},
			{
				"type": "occ",
				"energy": -0.29737,
				"method": "rhf"
			},
			{
				"type": "occ",
				"energy": -0.28341,
				"method": "rhf"
			},
			{
				"type": "occ",
				"energy": -0.2576,
				"method": "rhf"
			},
			{
				"type": "unocc",
				"energy": 0.00968,
				"method": "rhf"
			},
			{
				"type": "unocc",
				"energy": 0.05214,
				"method": "rhf"
			},
			{
				"type": "unocc",
				"energy": 0.05748,
				"method": "rhf"
			},
			{
				"type": "unocc",
				"energy": 0.06792,
				"method": "rhf"
			},
			{
				"type": "unocc",
				"energy": 0.0816,
				"method": "rhf"
			}
		],
		"cosmo_sigma_profile": { 
			"-0.025": 0.0,
			"-0.024": 0.0,
			"-0.023": 0.0,
			"-0.022": 0.0,
			"-0.021": 0.0,
			"-0.02": 0.0,
			"-0.019": 0.0,
			"-0.018": 0.0,
			"-0.017": 0.0,
			"-0.016": 0.0,
			"-0.015": 0.0,
			"-0.014": 0.0,
			"-0.013": 0.0,
			"-0.012": 0.0,
			"-0.011": 0.0,
			"-0.01": 0.0416907507406,
			"-0.009": 2.40300724227,
			"-0.008": 5.93448150864,
			"-0.007": 7.82892805705,
			"-0.006": 11.854922314,
			"-0.005": 21.5894537942,
			"-0.004": 28.4554587044,
			"-0.003": 26.7226434478,
			"-0.002": 17.9863735989,
			"-0.001": 16.4095507955,
			"0.0": 8.11014287756,
			"0.001": 8.56411161556,
			"0.002": 7.18775431402,
			"0.003": 6.98809450005,
			"0.004": 5.95663632386,
			"0.005": 6.56410454515,
			"0.006": 4.5828930888,
			"0.007": 4.96223896321,
			"0.008": 9.80350577573,
			"0.009": 6.79920291092,
			"0.01": 4.75894353967,
			"0.011": 10.1569242791,
			"0.012": 7.11604902278,
			"0.013": 0.281927916017,
			"0.014": 0.0,
			"0.015": 0.0,
			"0.016": 0.0,
			"0.017": 0.0,
			"0.018": 0.0,
			"0.019": 0.0,
			"0.02": 0.0,
			"0.021": 0.0,
			"0.022": 0.0,
			"0.023": 0.0,
			"0.024": 0.0,
			"0.025": 0.0
		}
	}
}
