{
	 "smiles": "NCCCCC1=CNN=C1", 
	 "Tm": 346.15, 
	 "num_atms": 23, 
	 "gaussian": { 
		 "optdone": 1, 
		 "sigma_profile": "yes", 
		 "theory": "DFT", 
		 "functional": "B3LYP", 
		 "basiset": "6-31G**", 
		 "properties": { 
			 "R2extent": 2819.7745, 
			 "electric_dipole_moment_norm": 3.19525156756, 
			 "electric_quadrupole_moment_norm": 10.7707851139, 
			 "total_energy": -438.811463911, 
			 "HOMO_LUMO_gap": 0.25628, 
			 "cosmo_polarized_energy": -12.51, 
			 "cosmo_cavitation_energy": 25.81, 
			 "cosmo_dispersion_energy": -18.65, 
			 "cosmo_repulsion_energy": 1.57, 
			 "cosmo_total_nonelectrostatic_energy": 8.72, 
			 "SMD_solvation_energy": 2.65 
		},
		"coords": [
			{
				"x": -1.5470669671,
				"y": -2.5366435649,
				"z": 1.3192002915,
				"element": "N" 
			},
			{
				"x": -1.1850694834,
				"y": -2.2094194014,
				"z": -0.0650370048,
				"element": "C" 
			},
			{
				"x": -1.2428286075,
				"y": -0.6954855762,
				"z": -0.3102280066,
				"element": "C" 
			},
			{
				"x": -0.3785182601,
				"y": 0.1539752172,
				"z": 0.6339340386,
				"element": "C" 
			},
			{
				"x": 1.1353528318,
				"y": -0.1174158411,
				"z": 0.5187277478,
				"element": "C" 
			},
			{
				"x": 1.9680717721,
				"y": 0.7929365718,
				"z": 1.3779753778,
				"element": "C" 
			},
			{
				"x": 2.4162360945,
				"y": 0.5745940196,
				"z": 2.6697951633,
				"element": "C" 
			},
			{
				"x": 3.095800255,
				"y": 1.6925644863,
				"z": 3.0424904789,
				"element": "N" 
			},
			{
				"x": 3.1308027231,
				"y": 2.6381222064,
				"z": 2.0807948327,
				"element": "N" 
			},
			{
				"x": 2.445924142,
				"y": 2.0944524251,
				"z": 1.0753663084,
				"element": "C" 
			},
			{
				"x": -1.478122736,
				"y": -3.5399041796,
				"z": 1.470085893,
				"element": "H" 
			},
			{
				"x": -2.5211951283,
				"y": -2.2910888124,
				"z": 1.4849694798,
				"element": "H" 
			},
			{
				"x": -1.8175342786,
				"y": -2.7067933705,
				"z": -0.8220821299,
				"element": "H" 
			},
			{
				"x": -0.1645041512,
				"y": -2.5736977792,
				"z": -0.2342902953,
				"element": "H" 
			},
			{
				"x": -0.9552816871,
				"y": -0.5057290932,
				"z": -1.3535383387,
				"element": "H" 
			},
			{
				"x": -2.2884727636,
				"y": -0.3668141329,
				"z": -0.2221299668,
				"element": "H" 
			},
			{
				"x": -0.6896774342,
				"y": -0.0246950303,
				"z": 1.6682722891,
				"element": "H" 
			},
			{
				"x": -0.5636204912,
				"y": 1.2152470707,
				"z": 0.4259584396,
				"element": "H" 
			},
			{
				"x": 1.3386558258,
				"y": -1.1585095106,
				"z": 0.793120144,
				"element": "H" 
			},
			{
				"x": 1.4427408298,
				"y": -0.0081715063,
				"z": -0.5302666497,
				"element": "H" 
			},
			{
				"x": 2.3031711896,
				"y": -0.2735613132,
				"z": 3.3301113906,
				"element": "H" 
			},
			{
				"x": 3.5631991398,
				"y": 1.8684652958,
				"z": 3.9176328748,
				"element": "H" 
			},
			{
				"x": 2.3189371848,
				"y": 2.6506718188,
				"z": 0.1549376419,
				"element": "H" 
			}
		],
		 "valence_orbital": [ 
			{
				"type": "occ",
				"energy": -0.31571,
				"method": "rhf"
			},
			{
				"type": "occ",
				"energy": -0.27406,
				"method": "rhf"
			},
			{
				"type": "occ",
				"energy": -0.24345,
				"method": "rhf"
			},
			{
				"type": "occ",
				"energy": -0.23282,
				"method": "rhf"
			},
			{
				"type": "occ",
				"energy": -0.22585,
				"method": "rhf"
			},
			{
				"type": "unocc",
				"energy": 0.03043,
				"method": "rhf"
			},
			{
				"type": "unocc",
				"energy": 0.074,
				"method": "rhf"
			},
			{
				"type": "unocc",
				"energy": 0.08109,
				"method": "rhf"
			},
			{
				"type": "unocc",
				"energy": 0.08839,
				"method": "rhf"
			},
			{
				"type": "unocc",
				"energy": 0.12195,
				"method": "rhf"
			}
		],
		"cosmo_sigma_profile": { 
			"-0.025": 0.0,
			"-0.024": 0.0,
			"-0.023": 0.0,
			"-0.022": 0.0,
			"-0.021": 0.0,
			"-0.02": 0.0,
			"-0.019": 0.0,
			"-0.018": 0.0,
			"-0.017": 0.0531582065905,
			"-0.016": 1.19901175208,
			"-0.015": 1.86226860291,
			"-0.014": 0.763359773526,
			"-0.013": 1.17798619535,
			"-0.012": 0.738901095626,
			"-0.011": 1.07355943725,
			"-0.01": 1.40360682268,
			"-0.009": 3.99817780267,
			"-0.008": 5.32051405925,
			"-0.007": 4.97727552892,
			"-0.006": 6.60613401217,
			"-0.005": 6.81219548898,
			"-0.004": 5.97478372606,
			"-0.003": 13.6545618981,
			"-0.002": 20.5761438755,
			"-0.001": 25.8573311046,
			"0.0": 22.3392068387,
			"0.001": 15.5809284216,
			"0.002": 8.76096950415,
			"0.003": 7.01572573196,
			"0.004": 7.15558763269,
			"0.005": 7.53483442869,
			"0.006": 6.92791497373,
			"0.007": 3.65679989124,
			"0.008": 1.54391202373,
			"0.009": 3.09852852758,
			"0.01": 2.61611213157,
			"0.011": 1.69788921992,
			"0.012": 2.70902393326,
			"0.013": 1.45971533058,
			"0.014": 2.05690424528,
			"0.015": 1.737828202,
			"0.016": 1.75759432987,
			"0.017": 0.774454226133,
			"0.018": 0.339295256786,
			"0.019": 0.131175534318,
			"0.02": 0.0,
			"0.021": 0.0,
			"0.022": 0.0,
			"0.023": 0.0,
			"0.024": 0.0,
			"0.025": 0.0
		}
	}
}
