{
	 "smiles": "CC(=O)N1CCCCC1C(O)=O", 
	 "Tm": 411.15, 
	 "num_atms": 25, 
	 "gaussian": { 
		 "optdone": 1, 
		 "sigma_profile": "yes", 
		 "theory": "DFT", 
		 "functional": "B3LYP", 
		 "basiset": "6-31G**", 
		 "properties": { 
			 "R2extent": 2252.0115, 
			 "electric_dipole_moment_norm": 6.10748795251, 
			 "electric_quadrupole_moment_norm": 8.57891298068, 
			 "total_energy": -593.146894811, 
			 "HOMO_LUMO_gap": 0.24304, 
			 "cosmo_polarized_energy": -14.7, 
			 "cosmo_cavitation_energy": 26.27, 
			 "cosmo_dispersion_energy": -19.28, 
			 "cosmo_repulsion_energy": 1.53, 
			 "cosmo_total_nonelectrostatic_energy": 8.52, 
			 "SMD_solvation_energy": 5.57 
		},
		"coords": [
			{
				"x": 2.982810002,
				"y": 0.6248246032,
				"z": 2.3982690692,
				"element": "C" 
			},
			{
				"x": 1.6567509904,
				"y": 0.9288480388,
				"z": 1.7268337557,
				"element": "C" 
			},
			{
				"x": 0.9418008588,
				"y": 1.8525989019,
				"z": 2.153834208,
				"element": "O" 
			},
			{
				"x": 1.2677230175,
				"y": 0.180636909,
				"z": 0.6605819247,
				"element": "N" 
			},
			{
				"x": 1.9576886334,
				"y": -1.0099090052,
				"z": 0.1532870553,
				"element": "C" 
			},
			{
				"x": 2.5070827983,
				"y": -0.7734248501,
				"z": -1.267409415,
				"element": "C" 
			},
			{
				"x": 1.5593114015,
				"y": 0.1427858154,
				"z": -2.0788053931,
				"element": "C" 
			},
			{
				"x": 0.1261471516,
				"y": 0.0683549071,
				"z": -1.5383656271,
				"element": "C" 
			},
			{
				"x": 0.059274614,
				"y": 0.5931194674,
				"z": -0.0971318863,
				"element": "C" 
			},
			{
				"x": -1.2330950421,
				"y": 0.1391144811,
				"z": 0.6272095929,
				"element": "C" 
			},
			{
				"x": -1.4526306982,
				"y": 0.7358334606,
				"z": 1.8032306821,
				"element": "O" 
			},
			{
				"x": -1.988953538,
				"y": -0.6861650527,
				"z": 0.165471731,
				"element": "O" 
			},
			{
				"x": 3.8067807734,
				"y": 0.543843629,
				"z": 1.6838604931,
				"element": "H" 
			},
			{
				"x": 2.9289528097,
				"y": -0.3121807641,
				"z": 2.9629934786,
				"element": "H" 
			},
			{
				"x": 3.1854368915,
				"y": 1.4360762267,
				"z": 3.0968303997,
				"element": "H" 
			},
			{
				"x": 2.7481334567,
				"y": -1.2958364528,
				"z": 0.8461621472,
				"element": "H" 
			},
			{
				"x": 1.234615659,
				"y": -1.8338530795,
				"z": 0.146507547,
				"element": "H" 
			},
			{
				"x": 3.5069195992,
				"y": -0.3287161375,
				"z": -1.2160469928,
				"element": "H" 
			},
			{
				"x": 2.6194393719,
				"y": -1.7478152305,
				"z": -1.7561132731,
				"element": "H" 
			},
			{
				"x": 1.5808839165,
				"y": -0.1296552539,
				"z": -3.1383956277,
				"element": "H" 
			},
			{
				"x": 1.9099943385,
				"y": 1.1803364574,
				"z": -2.018803302,
				"element": "H" 
			},
			{
				"x": -0.259210426,
				"y": -0.9553254676,
				"z": -1.5700444587,
				"element": "H" 
			},
			{
				"x": -0.5570421783,
				"y": 0.6650713558,
				"z": -2.1498451532,
				"element": "H" 
			},
			{
				"x": 0.0666318962,
				"y": 1.6892676503,
				"z": -0.0966025734,
				"element": "H" 
			},
			{
				"x": -0.6871462977,
				"y": 1.32936939,
				"z": 2.0173916178,
				"element": "H" 
			}
		],
		 "valence_orbital": [ 
			{
				"type": "occ",
				"energy": -0.33605,
				"method": "rhf"
			},
			{
				"type": "occ",
				"energy": -0.29712,
				"method": "rhf"
			},
			{
				"type": "occ",
				"energy": -0.28474,
				"method": "rhf"
			},
			{
				"type": "occ",
				"energy": -0.2717,
				"method": "rhf"
			},
			{
				"type": "occ",
				"energy": -0.24551,
				"method": "rhf"
			},
			{
				"type": "unocc",
				"energy": -0.00247,
				"method": "rhf"
			},
			{
				"type": "unocc",
				"energy": 0.01521,
				"method": "rhf"
			},
			{
				"type": "unocc",
				"energy": 0.05948,
				"method": "rhf"
			},
			{
				"type": "unocc",
				"energy": 0.09417,
				"method": "rhf"
			},
			{
				"type": "unocc",
				"energy": 0.10292,
				"method": "rhf"
			}
		],
		"cosmo_sigma_profile": { 
			"-0.025": 0.0,
			"-0.024": 0.0,
			"-0.023": 0.0,
			"-0.022": 0.0,
			"-0.021": 0.0,
			"-0.02": 0.0,
			"-0.019": 0.0,
			"-0.018": 0.0,
			"-0.017": 0.0,
			"-0.016": 0.0,
			"-0.015": 0.0,
			"-0.014": 0.0,
			"-0.013": 0.0,
			"-0.012": 0.0,
			"-0.011": 0.0,
			"-0.01": 0.0,
			"-0.009": 0.0,
			"-0.008": 0.535711898816,
			"-0.007": 5.87935180949,
			"-0.006": 11.3923376757,
			"-0.005": 17.0345812962,
			"-0.004": 23.3158115515,
			"-0.003": 30.7728747233,
			"-0.002": 25.6824871358,
			"-0.001": 19.5417820106,
			"0.0": 12.6451609104,
			"0.001": 5.27607089484,
			"0.002": 3.29597237922,
			"0.003": 3.14505490481,
			"0.004": 3.47409653249,
			"0.005": 3.02998542735,
			"0.006": 3.62649499514,
			"0.007": 3.5803098397,
			"0.008": 3.23733270766,
			"0.009": 4.69384699582,
			"0.01": 4.91365131448,
			"0.011": 6.82733839566,
			"0.012": 8.31055393392,
			"0.013": 4.01403382816,
			"0.014": 0.887350414014,
			"0.015": 0.0,
			"0.016": 0.0,
			"0.017": 0.0,
			"0.018": 0.0,
			"0.019": 0.0,
			"0.02": 0.0,
			"0.021": 0.0,
			"0.022": 0.0,
			"0.023": 0.0,
			"0.024": 0.0,
			"0.025": 0.0
		}
	}
}
