{
	 "smiles": "CC1=CC(C)=C(C2=C(OC(=O)CC(C)(C)C)C3(CCCC3)OC2=O)C(C)=C1", 
	 "Tm": 371.15, 
	 "num_atms": 57, 
	 "gaussian": { 
		 "optdone": 1, 
		 "sigma_profile": "yes", 
		 "theory": "DFT", 
		 "functional": "B3LYP", 
		 "basiset": "6-31G**", 
		 "properties": { 
			 "R2extent": 11165.9951, 
			 "electric_dipole_moment_norm": 5.67057475835, 
			 "electric_quadrupole_moment_norm": 25.021760544, 
			 "total_energy": -1195.47985133, 
			 "HOMO_LUMO_gap": 0.18596, 
			 "cosmo_polarized_energy": -15.1, 
			 "cosmo_cavitation_energy": 56.58, 
			 "cosmo_dispersion_energy": -35.29, 
			 "cosmo_repulsion_energy": 2.73, 
			 "cosmo_total_nonelectrostatic_energy": 24.02, 
			 "SMD_solvation_energy": 10.55 
		},
		"coords": [
			{
				"x": 0.8153387963,
				"y": -1.0995757343,
				"z": -5.1965851953,
				"element": "C" 
			},
			{
				"x": 0.0260267564,
				"y": -0.9251527436,
				"z": -3.9205274853,
				"element": "C" 
			},
			{
				"x": -0.5039721317,
				"y": 0.3205058153,
				"z": -3.570058319,
				"element": "C" 
			},
			{
				"x": -1.2659651681,
				"y": 0.5025136497,
				"z": -2.4135701386,
				"element": "C" 
			},
			{
				"x": -1.8075694347,
				"y": 1.8693808618,
				"z": -2.0690566095,
				"element": "C" 
			},
			{
				"x": -1.5004980791,
				"y": -0.6063367252,
				"z": -1.5709507002,
				"element": "C" 
			},
			{
				"x": -2.3051683908,
				"y": -0.4360276431,
				"z": -0.3397360728,
				"element": "C" 
			},
			{
				"x": -1.9382049336,
				"y": -0.514824516,
				"z": 0.9468798802,
				"element": "C" 
			},
			{
				"x": -0.698105699,
				"y": -0.812979276,
				"z": 1.4588191531,
				"element": "O" 
			},
			{
				"x": 0.3268222857,
				"y": 0.1194516339,
				"z": 1.3274592159,
				"element": "C" 
			},
			{
				"x": 0.1332685699,
				"y": 1.2341962287,
				"z": 0.9172013904,
				"element": "O" 
			},
			{
				"x": 1.622173555,
				"y": -0.5131495467,
				"z": 1.7828874088,
				"element": "C" 
			},
			{
				"x": 2.8481540551,
				"y": 0.4175897125,
				"z": 1.9430078647,
				"element": "C" 
			},
			{
				"x": 3.2470913269,
				"y": 1.0369113181,
				"z": 0.5889001789,
				"element": "C" 
			},
			{
				"x": 4.0106990524,
				"y": -0.4537863111,
				"z": 2.4606732537,
				"element": "C" 
			},
			{
				"x": 2.5539221017,
				"y": 1.5288667833,
				"z": 2.969841588,
				"element": "C" 
			},
			{
				"x": -3.0884029042,
				"y": -0.3017870373,
				"z": 1.8872382315,
				"element": "C" 
			},
			{
				"x": -3.4089754043,
				"y": -1.4813293361,
				"z": 2.8435891281,
				"element": "C" 
			},
			{
				"x": -3.9903483279,
				"y": -0.8438923483,
				"z": 4.1378126739,
				"element": "C" 
			},
			{
				"x": -4.090189274,
				"y": 0.6709463911,
				"z": 3.847562171,
				"element": "C" 
			},
			{
				"x": -2.9790660466,
				"y": 0.9215895907,
				"z": 2.8181540666,
				"element": "C" 
			},
			{
				"x": -4.1969062201,
				"y": -0.0965666711,
				"z": 0.980699353,
				"element": "O" 
			},
			{
				"x": -3.7693547238,
				"y": -0.1510183744,
				"z": -0.3263220624,
				"element": "C" 
			},
			{
				"x": -4.5232658509,
				"y": 0.0136297046,
				"z": -1.2534035277,
				"element": "O" 
			},
			{
				"x": -0.9731941975,
				"y": -1.8729906644,
				"z": -1.9006137114,
				"element": "C" 
			},
			{
				"x": -1.2182304073,
				"y": -3.0859254419,
				"z": -1.0302531848,
				"element": "C" 
			},
			{
				"x": -0.2179784633,
				"y": -2.0066382119,
				"z": -3.0706028853,
				"element": "C" 
			},
			{
				"x": 1.4726279503,
				"y": -1.9727068774,
				"z": -5.1458895427,
				"element": "H" 
			},
			{
				"x": 0.1491433818,
				"y": -1.2415235112,
				"z": -6.0568369299,
				"element": "H" 
			},
			{
				"x": 1.4327465632,
				"y": -0.2209696524,
				"z": -5.4089576839,
				"element": "H" 
			},
			{
				"x": -0.3182090528,
				"y": 1.1779303171,
				"z": -4.2132714405,
				"element": "H" 
			},
			{
				"x": -1.4853445885,
				"y": 2.1752111061,
				"z": -1.0680877476,
				"element": "H" 
			},
			{
				"x": -2.9023110784,
				"y": 1.8701146806,
				"z": -2.0840484793,
				"element": "H" 
			},
			{
				"x": -1.4572031186,
				"y": 2.6185020997,
				"z": -2.7839628178,
				"element": "H" 
			},
			{
				"x": 1.8449487399,
				"y": -1.3071949896,
				"z": 1.0566792202,
				"element": "H" 
			},
			{
				"x": 1.4105584165,
				"y": -1.0337663955,
				"z": 2.7250198675,
				"element": "H" 
			},
			{
				"x": 4.1457385884,
				"y": 1.6525401803,
				"z": 0.7050527211,
				"element": "H" 
			},
			{
				"x": 2.4499444316,
				"y": 1.6662614111,
				"z": 0.1884629885,
				"element": "H" 
			},
			{
				"x": 3.4726688255,
				"y": 0.2578293393,
				"z": -0.148807603,
				"element": "H" 
			},
			{
				"x": 4.2477223146,
				"y": -1.262632404,
				"z": 1.7598861528,
				"element": "H" 
			},
			{
				"x": 3.7724620415,
				"y": -0.9072000554,
				"z": 3.4299130597,
				"element": "H" 
			},
			{
				"x": 4.9146121091,
				"y": 0.1508797001,
				"z": 2.5887777509,
				"element": "H" 
			},
			{
				"x": 2.2729778748,
				"y": 1.1053181851,
				"z": 3.9417295145,
				"element": "H" 
			},
			{
				"x": 1.7451680684,
				"y": 2.1805797362,
				"z": 2.6307623405,
				"element": "H" 
			},
			{
				"x": 3.4443115229,
				"y": 2.1474590171,
				"z": 3.1251111896,
				"element": "H" 
			},
			{
				"x": -2.4934533931,
				"y": -2.0420651298,
				"z": 3.0538170824,
				"element": "H" 
			},
			{
				"x": -4.106340144,
				"y": -2.1597553728,
				"z": 2.3467592286,
				"element": "H" 
			},
			{
				"x": -3.3127882676,
				"y": -1.023530882,
				"z": 4.9795542207,
				"element": "H" 
			},
			{
				"x": -4.9573254827,
				"y": -1.2753938343,
				"z": 4.4098928548,
				"element": "H" 
			},
			{
				"x": -3.983982302,
				"y": 1.2852590262,
				"z": 4.746428683,
				"element": "H" 
			},
			{
				"x": -5.0583176161,
				"y": 0.9075383798,
				"z": 3.3942927042,
				"element": "H" 
			},
			{
				"x": -1.9951340505,
				"y": 0.9095219025,
				"z": 3.3029764446,
				"element": "H" 
			},
			{
				"x": -3.0730734199,
				"y": 1.8565135625,
				"z": 2.260871388,
				"element": "H" 
			},
			{
				"x": -0.8281866123,
				"y": -3.9886173971,
				"z": -1.5078174364,
				"element": "H" 
			},
			{
				"x": -2.2869099124,
				"y": -3.239854184,
				"z": -0.8456316322,
				"element": "H" 
			},
			{
				"x": -0.7349375356,
				"y": -2.9899302239,
				"z": -0.0515868899,
				"element": "H" 
			},
			{
				"x": 0.1838849034,
				"y": -2.9848188428,
				"z": -3.3258348736,
				"element": "H" 
			}
		],
		 "valence_orbital": [ 
			{
				"type": "occ",
				"energy": -0.28866,
				"method": "rhf"
			},
			{
				"type": "occ",
				"energy": -0.26802,
				"method": "rhf"
			},
			{
				"type": "occ",
				"energy": -0.2625,
				"method": "rhf"
			},
			{
				"type": "occ",
				"energy": -0.23131,
				"method": "rhf"
			},
			{
				"type": "occ",
				"energy": -0.22613,
				"method": "rhf"
			},
			{
				"type": "unocc",
				"energy": -0.04017,
				"method": "rhf"
			},
			{
				"type": "unocc",
				"energy": -0.01298,
				"method": "rhf"
			},
			{
				"type": "unocc",
				"energy": 0.0012,
				"method": "rhf"
			},
			{
				"type": "unocc",
				"energy": 0.01079,
				"method": "rhf"
			},
			{
				"type": "unocc",
				"energy": 0.06115,
				"method": "rhf"
			}
		],
		"cosmo_sigma_profile": { 
			"-0.025": 0.0,
			"-0.024": 0.0,
			"-0.023": 0.0,
			"-0.022": 0.0,
			"-0.021": 0.0,
			"-0.02": 0.0,
			"-0.019": 0.0,
			"-0.018": 0.0,
			"-0.017": 0.0,
			"-0.016": 0.0,
			"-0.015": 0.0,
			"-0.014": 0.0,
			"-0.013": 0.0,
			"-0.012": 0.0,
			"-0.011": 0.0,
			"-0.01": 0.0,
			"-0.009": 0.0,
			"-0.008": 0.0,
			"-0.007": 0.111732329222,
			"-0.006": 3.73331623607,
			"-0.005": 16.1300056871,
			"-0.004": 38.0724677379,
			"-0.003": 55.5369292755,
			"-0.002": 61.718486123,
			"-0.001": 57.8824752972,
			"0.0": 58.879632699,
			"0.001": 46.09549441,
			"0.002": 23.743916509,
			"0.003": 11.8956824743,
			"0.004": 13.1808183655,
			"0.005": 13.4694548882,
			"0.006": 11.6337923517,
			"0.007": 4.60092214979,
			"0.008": 4.75096689822,
			"0.009": 4.62478139639,
			"0.01": 4.6455437525,
			"0.011": 3.70034671359,
			"0.012": 5.26889311807,
			"0.013": 1.81185196088,
			"0.014": 0.0375591736497,
			"0.015": 0.0,
			"0.016": 0.0,
			"0.017": 0.0,
			"0.018": 0.0,
			"0.019": 0.0,
			"0.02": 0.0,
			"0.021": 0.0,
			"0.022": 0.0,
			"0.023": 0.0,
			"0.024": 0.0,
			"0.025": 0.0
		}
	}
}
