{
	 "smiles": "OC(=O)C1=CC(=O)NC(Cl)=C1", 
	 "Tm": 523.15, 
	 "num_atms": 15, 
	 "gaussian": { 
		 "optdone": 1, 
		 "sigma_profile": "yes", 
		 "theory": "DFT", 
		 "functional": "B3LYP", 
		 "basiset": "6-31G**", 
		 "properties": { 
			 "R2extent": 2942.0603, 
			 "electric_dipole_moment_norm": 5.23510230846, 
			 "electric_quadrupole_moment_norm": 13.1345664169, 
			 "total_energy": -971.665422311, 
			 "HOMO_LUMO_gap": 0.15882, 
			 "cosmo_polarized_energy": -20.42, 
			 "cosmo_cavitation_energy": 22.48, 
			 "cosmo_dispersion_energy": -16.8, 
			 "cosmo_repulsion_energy": 1.36, 
			 "cosmo_total_nonelectrostatic_energy": 7.04, 
			 "SMD_solvation_energy": 5.72 
		},
		"coords": [
			{
				"x": 1.5641966925,
				"y": 2.7246573587,
				"z": 2.2115993508,
				"element": "O" 
			},
			{
				"x": 1.0534550225,
				"y": 2.5572783015,
				"z": 0.9649735376,
				"element": "C" 
			},
			{
				"x": 1.5190319195,
				"y": 3.1489953613,
				"z": 0.0243314619,
				"element": "O" 
			},
			{
				"x": -0.1110776115,
				"y": 1.6030153634,
				"z": 0.8502541202,
				"element": "C" 
			},
			{
				"x": -1.0005311251,
				"y": 1.8041819336,
				"z": -0.1681267482,
				"element": "C" 
			},
			{
				"x": -2.1647499856,
				"y": 0.9546148378,
				"z": -0.3457364898,
				"element": "C" 
			},
			{
				"x": -3.0302227702,
				"y": 1.0485059721,
				"z": -1.2017253662,
				"element": "O" 
			},
			{
				"x": -2.2487169864,
				"y": -0.0838238478,
				"z": 0.6266688271,
				"element": "N" 
			},
			{
				"x": -1.3436272788,
				"y": -0.2963813363,
				"z": 1.6167234088,
				"element": "C" 
			},
			{
				"x": -1.6420739931,
				"y": -1.6692287478,
				"z": 2.6433019074,
				"element": "Cl" 
			},
			{
				"x": -0.2639276461,
				"y": 0.5205657153,
				"z": 1.7790891396,
				"element": "C" 
			},
			{
				"x": 0.9874407949,
				"y": 2.3171478619,
				"z": 2.8734458361,
				"element": "H" 
			},
			{
				"x": -0.8603938331,
				"y": 2.6141784638,
				"z": -0.8728473375,
				"element": "H" 
			},
			{
				"x": -3.0488563269,
				"y": -0.6977364573,
				"z": 0.5268321167,
				"element": "H" 
			},
			{
				"x": 0.4725531274,
				"y": 0.2948292198,
				"z": 2.5387162357,
				"element": "H" 
			}
		],
		 "valence_orbital": [ 
			{
				"type": "occ",
				"energy": -0.33769,
				"method": "rhf"
			},
			{
				"type": "occ",
				"energy": -0.32655,
				"method": "rhf"
			},
			{
				"type": "occ",
				"energy": -0.29268,
				"method": "rhf"
			},
			{
				"type": "occ",
				"energy": -0.2763,
				"method": "rhf"
			},
			{
				"type": "occ",
				"energy": -0.24614,
				"method": "rhf"
			},
			{
				"type": "unocc",
				"energy": -0.08732,
				"method": "rhf"
			},
			{
				"type": "unocc",
				"energy": -0.03101,
				"method": "rhf"
			},
			{
				"type": "unocc",
				"energy": -0.01558,
				"method": "rhf"
			},
			{
				"type": "unocc",
				"energy": 0.02615,
				"method": "rhf"
			},
			{
				"type": "unocc",
				"energy": 0.05455,
				"method": "rhf"
			}
		],
		"cosmo_sigma_profile": { 
			"-0.025": 0.0,
			"-0.024": 0.0,
			"-0.023": 0.0,
			"-0.022": 0.0,
			"-0.021": 0.0,
			"-0.02": 0.0263506855053,
			"-0.019": 0.73560322441,
			"-0.018": 0.772711331124,
			"-0.017": 1.63466293377,
			"-0.016": 2.31029173614,
			"-0.015": 1.50418412959,
			"-0.014": 2.9567948188,
			"-0.013": 2.1416865472,
			"-0.012": 1.80985182959,
			"-0.011": 2.44827121624,
			"-0.01": 2.3739285547,
			"-0.009": 2.95731247898,
			"-0.008": 3.81642865001,
			"-0.007": 3.48184251971,
			"-0.006": 5.06368910181,
			"-0.005": 6.5140944137,
			"-0.004": 9.18545966644,
			"-0.003": 13.7054939383,
			"-0.002": 15.1389398364,
			"-0.001": 13.5834473987,
			"0.0": 13.1584620448,
			"0.001": 10.1743605775,
			"0.002": 11.9548742078,
			"0.003": 5.56166486601,
			"0.004": 3.09771694436,
			"0.005": 2.86147368806,
			"0.006": 4.11339433349,
			"0.007": 4.05918745704,
			"0.008": 3.99806933019,
			"0.009": 6.25041937721,
			"0.01": 5.76306180399,
			"0.011": 6.90419272651,
			"0.012": 4.72005664322,
			"0.013": 6.38400378868,
			"0.014": 1.8066415878,
			"0.015": 0.0303002483115,
			"0.016": 0.0,
			"0.017": 0.0,
			"0.018": 0.0,
			"0.019": 0.0,
			"0.02": 0.0,
			"0.021": 0.0,
			"0.022": 0.0,
			"0.023": 0.0,
			"0.024": 0.0,
			"0.025": 0.0
		}
	}
}
