{
	 "smiles": "CSCCC(NC(=O)C1=CC=CC=C1)C(O)=O", 
	 "Tm": 425.15, 
	 "num_atms": 32, 
	 "gaussian": { 
		 "optdone": 1, 
		 "sigma_profile": "yes", 
		 "theory": "DFT", 
		 "functional": "B3LYP", 
		 "basiset": "6-31G**", 
		 "properties": { 
			 "R2extent": 6445.2962, 
			 "electric_dipole_moment_norm": 3.12045334206, 
			 "electric_quadrupole_moment_norm": 19.1648023209, 
			 "total_energy": -1144.96759501, 
			 "HOMO_LUMO_gap": 0.18294, 
			 "cosmo_polarized_energy": -18.35, 
			 "cosmo_cavitation_energy": 37.83, 
			 "cosmo_dispersion_energy": -26.46, 
			 "cosmo_repulsion_energy": 2.04, 
			 "cosmo_total_nonelectrostatic_energy": 13.4, 
			 "SMD_solvation_energy": 7.5 
		},
		"coords": [
			{
				"x": -4.1868460665,
				"y": -2.4701963337,
				"z": 0.5771284394,
				"element": "C" 
			},
			{
				"x": -3.4729923985,
				"y": -1.0999459004,
				"z": 1.5516697438,
				"element": "S" 
			},
			{
				"x": -2.2555741717,
				"y": -0.4213109607,
				"z": 0.360715481,
				"element": "C" 
			},
			{
				"x": -1.0395264438,
				"y": -1.3181494861,
				"z": 0.117522051,
				"element": "C" 
			},
			{
				"x": 0.0304446847,
				"y": -0.6780900159,
				"z": -0.8083240029,
				"element": "C" 
			},
			{
				"x": 0.5925810093,
				"y": 0.5494693249,
				"z": -0.2807368245,
				"element": "N" 
			},
			{
				"x": 1.5700561021,
				"y": 0.5242434437,
				"z": 0.6750699524,
				"element": "C" 
			},
			{
				"x": 1.9136858461,
				"y": -0.5280257016,
				"z": 1.2126377193,
				"element": "O" 
			},
			{
				"x": 2.1833636366,
				"y": 1.8439683314,
				"z": 1.050712673,
				"element": "C" 
			},
			{
				"x": 2.8756674972,
				"y": 1.8995767218,
				"z": 2.2679823915,
				"element": "C" 
			},
			{
				"x": 3.4728020262,
				"y": 3.0861416187,
				"z": 2.6865352676,
				"element": "C" 
			},
			{
				"x": 3.3952377349,
				"y": 4.2288618704,
				"z": 1.8863342835,
				"element": "C" 
			},
			{
				"x": 2.7225172455,
				"y": 4.1775516816,
				"z": 0.6639822177,
				"element": "C" 
			},
			{
				"x": 2.1182160682,
				"y": 2.9914662734,
				"z": 0.2471202774,
				"element": "C" 
			},
			{
				"x": -0.5263630711,
				"y": -0.3702074018,
				"z": -2.1889715759,
				"element": "C" 
			},
			{
				"x": -0.9328469122,
				"y": -1.484442977,
				"z": -2.8287542955,
				"element": "O" 
			},
			{
				"x": -0.6195363381,
				"y": 0.7406688915,
				"z": -2.6697400939,
				"element": "O" 
			},
			{
				"x": -3.4513039554,
				"y": -3.2495916237,
				"z": 0.3645742959,
				"element": "H" 
			},
			{
				"x": -4.6204729552,
				"y": -2.1041316112,
				"z": -0.3579025537,
				"element": "H" 
			},
			{
				"x": -4.9837872999,
				"y": -2.9019733604,
				"z": 1.1866571239,
				"element": "H" 
			},
			{
				"x": -1.9400912433,
				"y": 0.5291362772,
				"z": 0.8014248153,
				"element": "H" 
			},
			{
				"x": -2.7792055436,
				"y": -0.1863582968,
				"z": -0.5738736107,
				"element": "H" 
			},
			{
				"x": -1.3440566957,
				"y": -2.2694501744,
				"z": -0.3297476991,
				"element": "H" 
			},
			{
				"x": -0.5424560187,
				"y": -1.5405127054,
				"z": 1.0647064274,
				"element": "H" 
			},
			{
				"x": 0.8352342802,
				"y": -1.4150497893,
				"z": -0.9182757317,
				"element": "H" 
			},
			{
				"x": 0.3315924494,
				"y": 1.4011493107,
				"z": -0.7566766621,
				"element": "H" 
			},
			{
				"x": 2.9321314964,
				"y": 0.9960809412,
				"z": 2.8654095598,
				"element": "H" 
			},
			{
				"x": 4.0005730689,
				"y": 3.1206810769,
				"z": 3.6351805583,
				"element": "H" 
			},
			{
				"x": 3.8628124731,
				"y": 5.1542313388,
				"z": 2.2103999803,
				"element": "H" 
			},
			{
				"x": 2.673116221,
				"y": 5.0587834524,
				"z": 0.0311536592,
				"element": "H" 
			},
			{
				"x": 1.6276430507,
				"y": 2.9672692898,
				"z": -0.7221250964,
				"element": "H" 
			},
			{
				"x": -1.2841157765,
				"y": -1.198243506,
				"z": -3.6889887712,
				"element": "H" 
			}
		],
		 "valence_orbital": [ 
			{
				"type": "occ",
				"energy": -0.26254,
				"method": "rhf"
			},
			{
				"type": "occ",
				"energy": -0.25929,
				"method": "rhf"
			},
			{
				"type": "occ",
				"energy": -0.25566,
				"method": "rhf"
			},
			{
				"type": "occ",
				"energy": -0.24977,
				"method": "rhf"
			},
			{
				"type": "occ",
				"energy": -0.21981,
				"method": "rhf"
			},
			{
				"type": "unocc",
				"energy": -0.03687,
				"method": "rhf"
			},
			{
				"type": "unocc",
				"energy": -0.01171,
				"method": "rhf"
			},
			{
				"type": "unocc",
				"energy": -0.00804,
				"method": "rhf"
			},
			{
				"type": "unocc",
				"energy": 0.04162,
				"method": "rhf"
			},
			{
				"type": "unocc",
				"energy": 0.05646,
				"method": "rhf"
			}
		],
		"cosmo_sigma_profile": { 
			"-0.025": 0.0,
			"-0.024": 0.0,
			"-0.023": 0.0,
			"-0.022": 0.0,
			"-0.021": 0.0,
			"-0.02": 0.0,
			"-0.019": 0.51449067976,
			"-0.018": 0.761528414878,
			"-0.017": 0.997468168432,
			"-0.016": 1.26190485649,
			"-0.015": 0.570581441124,
			"-0.014": 0.552990005588,
			"-0.013": 0.497044989113,
			"-0.012": 1.14274297498,
			"-0.011": 1.92230696117,
			"-0.01": 1.20285376591,
			"-0.009": 1.51526872474,
			"-0.008": 2.69264770833,
			"-0.007": 6.53234070398,
			"-0.006": 14.9413363306,
			"-0.005": 24.9460214037,
			"-0.004": 26.5472693177,
			"-0.003": 23.3210170068,
			"-0.002": 23.3703771266,
			"-0.001": 24.7983801594,
			"0.0": 18.4592951526,
			"0.001": 15.4322896803,
			"0.002": 15.1819246645,
			"0.003": 16.0765894984,
			"0.004": 18.2861359488,
			"0.005": 11.2405127901,
			"0.006": 8.01385895537,
			"0.007": 7.03151608316,
			"0.008": 6.21423101015,
			"0.009": 6.35960812565,
			"0.01": 6.37026609608,
			"0.011": 6.14131234649,
			"0.012": 2.29245241278,
			"0.013": 3.73827731078,
			"0.014": 2.36935040266,
			"0.015": 0.00807215371191,
			"0.016": 0.0,
			"0.017": 0.0,
			"0.018": 0.0,
			"0.019": 0.0,
			"0.02": 0.0,
			"0.021": 0.0,
			"0.022": 0.0,
			"0.023": 0.0,
			"0.024": 0.0,
			"0.025": 0.0
		}
	}
}
