{
	 "smiles": "CN(N(O)O)C1=C(F)C(F)=C(F)C(F)=C1F", 
	 "Tm": 312.65, 
	 "num_atms": 21, 
	 "gaussian": { 
		 "optdone": 1, 
		 "sigma_profile": "yes", 
		 "theory": "DFT", 
		 "functional": "B3LYP", 
		 "basiset": "6-31G**", 
		 "properties": { 
			 "R2extent": 3915.8417, 
			 "electric_dipole_moment_norm": 0.947917237949, 
			 "electric_quadrupole_moment_norm": 9.81752380389, 
			 "total_energy": -1028.69019053, 
			 "HOMO_LUMO_gap": 0.20575, 
			 "cosmo_polarized_energy": -9.18, 
			 "cosmo_cavitation_energy": 28.08, 
			 "cosmo_dispersion_energy": -19.5, 
			 "cosmo_repulsion_energy": 1.43, 
			 "cosmo_total_nonelectrostatic_energy": 10.01, 
			 "SMD_solvation_energy": 8.63 
		},
		"coords": [
			{
				"x": -2.6264388114,
				"y": -0.1107833261,
				"z": -0.9839580685,
				"element": "C" 
			},
			{
				"x": -1.3555533864,
				"y": -0.0981022333,
				"z": -0.2541568489,
				"element": "N" 
			},
			{
				"x": -1.4112242619,
				"y": 0.8476417766,
				"z": 0.8047107737,
				"element": "N" 
			},
			{
				"x": -0.4172425352,
				"y": 1.8489461978,
				"z": 0.5045225919,
				"element": "O" 
			},
			{
				"x": -1.0296688844,
				"y": 0.2515419997,
				"z": 2.0192539596,
				"element": "O" 
			},
			{
				"x": -0.1428173283,
				"y": -0.226041427,
				"z": -0.9833870952,
				"element": "C" 
			},
			{
				"x": 0.0744755958,
				"y": 0.3633829948,
				"z": -2.2377727608,
				"element": "C" 
			},
			{
				"x": -0.8642475098,
				"y": 1.1413273962,
				"z": -2.7941082493,
				"element": "F" 
			},
			{
				"x": 1.2497824717,
				"y": 0.1579970585,
				"z": -2.9570106496,
				"element": "C" 
			},
			{
				"x": 1.4094776777,
				"y": 0.7240121234,
				"z": -4.1580634023,
				"element": "F" 
			},
			{
				"x": 2.2737151141,
				"y": -0.6106687266,
				"z": -2.4111696015,
				"element": "C" 
			},
			{
				"x": 3.4110119719,
				"y": -0.7935068435,
				"z": -3.0855789202,
				"element": "F" 
			},
			{
				"x": 2.1055318815,
				"y": -1.1825679566,
				"z": -1.1522422253,
				"element": "C" 
			},
			{
				"x": 3.082317391,
				"y": -1.9228157429,
				"z": -0.6175541304,
				"element": "F" 
			},
			{
				"x": 0.9106312082,
				"y": -0.9937413704,
				"z": -0.4673282984,
				"element": "C" 
			},
			{
				"x": 0.7899960219,
				"y": -1.5721818681,
				"z": 0.7454886438,
				"element": "F" 
			},
			{
				"x": -2.5786043184,
				"y": -0.8965070214,
				"z": -1.7415477579,
				"element": "H" 
			},
			{
				"x": -3.4173773444,
				"y": -0.3607921447,
				"z": -0.2742572607,
				"element": "H" 
			},
			{
				"x": -2.8610125409,
				"y": 0.8423375239,
				"z": -1.4679531642,
				"element": "H" 
			},
			{
				"x": -0.7325887848,
				"y": 2.5984279153,
				"z": 1.030711419,
				"element": "H" 
			},
			{
				"x": -0.1961636278,
				"y": -0.2272063257,
				"z": 1.8563010451,
				"element": "H" 
			}
		],
		 "valence_orbital": [ 
			{
				"type": "occ",
				"energy": -0.30472,
				"method": "rhf"
			},
			{
				"type": "occ",
				"energy": -0.28192,
				"method": "rhf"
			},
			{
				"type": "occ",
				"energy": -0.27143,
				"method": "rhf"
			},
			{
				"type": "occ",
				"energy": -0.26285,
				"method": "rhf"
			},
			{
				"type": "occ",
				"energy": -0.24227,
				"method": "rhf"
			},
			{
				"type": "unocc",
				"energy": -0.03652,
				"method": "rhf"
			},
			{
				"type": "unocc",
				"energy": -0.02246,
				"method": "rhf"
			},
			{
				"type": "unocc",
				"energy": 0.0013,
				"method": "rhf"
			},
			{
				"type": "unocc",
				"energy": 0.0677,
				"method": "rhf"
			},
			{
				"type": "unocc",
				"energy": 0.09001,
				"method": "rhf"
			}
		],
		"cosmo_sigma_profile": { 
			"-0.025": 0.0,
			"-0.024": 0.0,
			"-0.023": 0.0,
			"-0.022": 0.0,
			"-0.021": 0.0,
			"-0.02": 0.0,
			"-0.019": 0.0,
			"-0.018": 0.108875435918,
			"-0.017": 0.931235276198,
			"-0.016": 1.19940435465,
			"-0.015": 0.667259421073,
			"-0.014": 0.630110480439,
			"-0.013": 0.939423531862,
			"-0.012": 0.880905652989,
			"-0.011": 1.05905006971,
			"-0.01": 0.937290426221,
			"-0.009": 2.40871746498,
			"-0.008": 1.5529181445,
			"-0.007": 1.54700593381,
			"-0.006": 4.93685716504,
			"-0.005": 7.84182079801,
			"-0.004": 21.241374079,
			"-0.003": 20.6552445046,
			"-0.002": 17.8677675237,
			"-0.001": 13.5543595294,
			"0.0": 11.7524667461,
			"0.001": 15.5035085275,
			"0.002": 41.5212565305,
			"0.003": 24.9430430677,
			"0.004": 4.42562561716,
			"0.005": 4.74116505955,
			"0.006": 5.11893169293,
			"0.007": 4.25016767272,
			"0.008": 3.52748600136,
			"0.009": 2.88035933724,
			"0.01": 2.9146479446,
			"0.011": 2.66997088008,
			"0.012": 1.85971009207,
			"0.013": 0.0102792133038,
			"0.014": 0.0,
			"0.015": 0.0,
			"0.016": 0.0,
			"0.017": 0.0,
			"0.018": 0.0,
			"0.019": 0.0,
			"0.02": 0.0,
			"0.021": 0.0,
			"0.022": 0.0,
			"0.023": 0.0,
			"0.024": 0.0,
			"0.025": 0.0
		}
	}
}
