{
	 "smiles": "CN1C=C(C(O)=O)C(=N1)C1=COC2=C1C=CC=C2", 
	 "Tm": 551.15, 
	 "num_atms": 28, 
	 "gaussian": { 
		 "optdone": 1, 
		 "sigma_profile": "yes", 
		 "theory": "DFT", 
		 "functional": "B3LYP", 
		 "basiset": "6-31G**", 
		 "properties": { 
			 "R2extent": 4805.9426, 
			 "electric_dipole_moment_norm": 6.36045027101, 
			 "electric_quadrupole_moment_norm": 24.1610507112, 
			 "total_energy": -836.56004545, 
			 "HOMO_LUMO_gap": 0.1813, 
			 "cosmo_polarized_energy": -23.13, 
			 "cosmo_cavitation_energy": 33.06, 
			 "cosmo_dispersion_energy": -23.9, 
			 "cosmo_repulsion_energy": 1.83, 
			 "cosmo_total_nonelectrostatic_energy": 10.99, 
			 "SMD_solvation_energy": 6.53 
		},
		"coords": [
			{
				"x": 2.4900708748,
				"y": 1.0373675197,
				"z": 3.7088266903,
				"element": "C" 
			},
			{
				"x": 2.0902431845,
				"y": 0.5428727349,
				"z": 2.4035325578,
				"element": "N" 
			},
			{
				"x": 2.8752960769,
				"y": 0.0998817657,
				"z": 1.4001679627,
				"element": "C" 
			},
			{
				"x": 2.0336109696,
				"y": -0.2706507396,
				"z": 0.3556201419,
				"element": "C" 
			},
			{
				"x": 2.4487891031,
				"y": -0.6815420363,
				"z": -1.0001546737,
				"element": "C" 
			},
			{
				"x": 3.6925794814,
				"y": -1.2482970703,
				"z": -1.0873197573,
				"element": "O" 
			},
			{
				"x": 1.7881463548,
				"y": -0.5298790604,
				"z": -1.9994247182,
				"element": "O" 
			},
			{
				"x": 0.7172368919,
				"y": -0.0036745183,
				"z": 0.8485090661,
				"element": "C" 
			},
			{
				"x": 0.7750408758,
				"y": 0.4741844848,
				"z": 2.0976271124,
				"element": "N" 
			},
			{
				"x": -0.5925942649,
				"y": -0.1613538515,
				"z": 0.215345462,
				"element": "C" 
			},
			{
				"x": -1.6352795709,
				"y": 0.6916515765,
				"z": 0.4261393882,
				"element": "C" 
			},
			{
				"x": -2.7732513555,
				"y": 0.3055017435,
				"z": -0.2197587071,
				"element": "O" 
			},
			{
				"x": -2.462276195,
				"y": -0.8611561395,
				"z": -0.8721256708,
				"element": "C" 
			},
			{
				"x": -1.1178834768,
				"y": -1.2082341584,
				"z": -0.6459621927,
				"element": "C" 
			},
			{
				"x": -0.6304774167,
				"y": -2.3948498864,
				"z": -1.2143904068,
				"element": "C" 
			},
			{
				"x": -1.4951516008,
				"y": -3.1681046499,
				"z": -1.9830569588,
				"element": "C" 
			},
			{
				"x": -2.8322941899,
				"y": -2.7850021874,
				"z": -2.1968678769,
				"element": "C" 
			},
			{
				"x": -3.3427409353,
				"y": -1.6150800995,
				"z": -1.6383095152,
				"element": "C" 
			},
			{
				"x": 2.1015952705,
				"y": 0.3825096682,
				"z": 4.4929557894,
				"element": "H" 
			},
			{
				"x": 3.5795557922,
				"y": 1.0622124691,
				"z": 3.7610035084,
				"element": "H" 
			},
			{
				"x": 2.094592475,
				"y": 2.0445899393,
				"z": 3.8585107693,
				"element": "H" 
			},
			{
				"x": 3.9538088694,
				"y": 0.1265309444,
				"z": 1.4741909995,
				"element": "H" 
			},
			{
				"x": 4.0057803113,
				"y": -1.4862150217,
				"z": -0.2038556072,
				"element": "H" 
			},
			{
				"x": -1.7029787855,
				"y": 1.6032301443,
				"z": 0.99946175,
				"element": "H" 
			},
			{
				"x": 0.3979870406,
				"y": -2.7031341186,
				"z": -1.0703354369,
				"element": "H" 
			},
			{
				"x": -1.1290517098,
				"y": -4.086027746,
				"z": -2.433157975,
				"element": "H" 
			},
			{
				"x": -3.4773413104,
				"y": -3.4111251628,
				"z": -2.8058640875,
				"element": "H" 
			},
			{
				"x": -4.3709127605,
				"y": -1.3022065439,
				"z": -1.7837076137,
				"element": "H" 
			}
		],
		 "valence_orbital": [ 
			{
				"type": "occ",
				"energy": -0.27449,
				"method": "rhf"
			},
			{
				"type": "occ",
				"energy": -0.26433,
				"method": "rhf"
			},
			{
				"type": "occ",
				"energy": -0.25656,
				"method": "rhf"
			},
			{
				"type": "occ",
				"energy": -0.2305,
				"method": "rhf"
			},
			{
				"type": "occ",
				"energy": -0.21008,
				"method": "rhf"
			},
			{
				"type": "unocc",
				"energy": -0.02878,
				"method": "rhf"
			},
			{
				"type": "unocc",
				"energy": -0.01968,
				"method": "rhf"
			},
			{
				"type": "unocc",
				"energy": 0.00233,
				"method": "rhf"
			},
			{
				"type": "unocc",
				"energy": 0.02168,
				"method": "rhf"
			},
			{
				"type": "unocc",
				"energy": 0.05937,
				"method": "rhf"
			}
		],
		"cosmo_sigma_profile": { 
			"-0.025": 0.0,
			"-0.024": 0.0,
			"-0.023": 0.0,
			"-0.022": 0.0,
			"-0.021": 0.0,
			"-0.02": 0.0,
			"-0.019": 0.084787872289,
			"-0.018": 0.997545351993,
			"-0.017": 1.07155414622,
			"-0.016": 1.65544060089,
			"-0.015": 0.865205573769,
			"-0.014": 0.777672077823,
			"-0.013": 0.952073384529,
			"-0.012": 1.68759580872,
			"-0.011": 3.41064389741,
			"-0.01": 3.00394748129,
			"-0.009": 4.38643290624,
			"-0.008": 4.49382486278,
			"-0.007": 8.70708565713,
			"-0.006": 14.612231738,
			"-0.005": 17.6464869958,
			"-0.004": 20.9675175749,
			"-0.003": 16.7306210158,
			"-0.002": 11.7496080663,
			"-0.001": 11.3263744684,
			"0.0": 13.4916858724,
			"0.001": 17.9002952888,
			"0.002": 19.574269481,
			"0.003": 14.6855297006,
			"0.004": 14.1391263435,
			"0.005": 13.0015244472,
			"0.006": 8.13587499944,
			"0.007": 6.82878365363,
			"0.008": 6.33697213129,
			"0.009": 3.92775085417,
			"0.01": 4.43513116843,
			"0.011": 7.43518089864,
			"0.012": 6.4307703034,
			"0.013": 3.36988088803,
			"0.014": 0.755186611723,
			"0.015": 0.132258072285,
			"0.016": 0.0,
			"0.017": 0.0,
			"0.018": 0.0,
			"0.019": 0.0,
			"0.02": 0.0,
			"0.021": 0.0,
			"0.022": 0.0,
			"0.023": 0.0,
			"0.024": 0.0,
			"0.025": 0.0
		}
	}
}
