{
	 "smiles": "ClC1=CC=C(C=C1)C1NN2C(S1)=NN=C2C1=CC=CC=C1", 
	 "Tm": 470.15, 
	 "num_atms": 32, 
	 "gaussian": { 
		 "optdone": 1, 
		 "sigma_profile": "yes", 
		 "theory": "DFT", 
		 "functional": "B3LYP", 
		 "basiset": "6-31G**", 
		 "properties": { 
			 "R2extent": 10441.8881, 
			 "electric_dipole_moment_norm": 5.43727687818, 
			 "electric_quadrupole_moment_norm": 25.8699024554, 
			 "total_energy": -1655.54427409, 
			 "HOMO_LUMO_gap": 0.16428, 
			 "cosmo_polarized_energy": -20.08, 
			 "cosmo_cavitation_energy": 40.09, 
			 "cosmo_dispersion_energy": -29.61, 
			 "cosmo_repulsion_energy": 2.19, 
			 "cosmo_total_nonelectrostatic_energy": 12.68, 
			 "SMD_solvation_energy": 3.25 
		},
		"coords": [
			{
				"x": -1.9920834199,
				"y": -1.2025764925,
				"z": 5.6757178565,
				"element": "Cl" 
			},
			{
				"x": -0.926685966,
				"y": -1.1020287141,
				"z": 4.2873264842,
				"element": "C" 
			},
			{
				"x": -0.9682412603,
				"y": -2.1041917106,
				"z": 3.3168685903,
				"element": "C" 
			},
			{
				"x": -0.1163566139,
				"y": -2.0214149245,
				"z": 2.2176012681,
				"element": "C" 
			},
			{
				"x": 0.7711758409,
				"y": -0.9450851725,
				"z": 2.0773477989,
				"element": "C" 
			},
			{
				"x": 0.796611122,
				"y": 0.0454808146,
				"z": 3.06649318,
				"element": "C" 
			},
			{
				"x": -0.0473348163,
				"y": -0.0255608356,
				"z": 4.1735559365,
				"element": "C" 
			},
			{
				"x": 1.6618101797,
				"y": -0.809343589,
				"z": 0.8727282274,
				"element": "C" 
			},
			{
				"x": 0.9112422834,
				"y": -0.4447293203,
				"z": -0.3352179898,
				"element": "N" 
			},
			{
				"x": 1.7426538809,
				"y": -0.813951882,
				"z": -1.4110440653,
				"element": "N" 
			},
			{
				"x": 2.6538488828,
				"y": -1.8205489787,
				"z": -1.2098058735,
				"element": "C" 
			},
			{
				"x": 2.6392717984,
				"y": -2.4025225199,
				"z": 0.4520617067,
				"element": "S" 
			},
			{
				"x": 3.3145480183,
				"y": -2.0796877023,
				"z": -2.3061996774,
				"element": "N" 
			},
			{
				"x": 2.8055766997,
				"y": -1.2231116223,
				"z": -3.2724767712,
				"element": "N" 
			},
			{
				"x": 1.8705662224,
				"y": -0.455198494,
				"z": -2.7374264042,
				"element": "C" 
			},
			{
				"x": 1.1210770211,
				"y": 0.5826362055,
				"z": -3.4500014588,
				"element": "C" 
			},
			{
				"x": 1.29824712,
				"y": 0.6921953895,
				"z": -4.840938317,
				"element": "C" 
			},
			{
				"x": 0.6139354057,
				"y": 1.6673219543,
				"z": -5.5589214319,
				"element": "C" 
			},
			{
				"x": -0.2558791477,
				"y": 2.5457616052,
				"z": -4.9055167213,
				"element": "C" 
			},
			{
				"x": -0.4329902591,
				"y": 2.4427505678,
				"z": -3.5253815675,
				"element": "C" 
			},
			{
				"x": 0.2492125501,
				"y": 1.4684950273,
				"z": -2.7964583619,
				"element": "C" 
			},
			{
				"x": -1.6506335898,
				"y": -2.9394454662,
				"z": 3.4266856783,
				"element": "H" 
			},
			{
				"x": -0.1275715644,
				"y": -2.8144466081,
				"z": 1.4754935497,
				"element": "H" 
			},
			{
				"x": 1.4799950944,
				"y": 0.8845917122,
				"z": 2.9719489401,
				"element": "H" 
			},
			{
				"x": -0.0242857747,
				"y": 0.7421659672,
				"z": 4.938622365,
				"element": "H" 
			},
			{
				"x": 2.4236001561,
				"y": -0.0438169666,
				"z": 1.0328968064,
				"element": "H" 
			},
			{
				"x": 0.0628744698,
				"y": -1.0149080939,
				"z": -0.389639483,
				"element": "H" 
			},
			{
				"x": 1.9769178436,
				"y": 0.0053281693,
				"z": -5.3344583484,
				"element": "H" 
			},
			{
				"x": 0.7579739997,
				"y": 1.7423130072,
				"z": -6.6328410524,
				"element": "H" 
			},
			{
				"x": -0.790342376,
				"y": 3.3048545037,
				"z": -5.4692456321,
				"element": "H" 
			},
			{
				"x": -1.103510017,
				"y": 3.1244078339,
				"z": -3.0099279983,
				"element": "H" 
			},
			{
				"x": 0.114576216,
				"y": 1.4016663351,
				"z": -1.7223472341,
				"element": "H" 
			}
		],
		 "valence_orbital": [ 
			{
				"type": "occ",
				"energy": -0.26942,
				"method": "rhf"
			},
			{
				"type": "occ",
				"energy": -0.26337,
				"method": "rhf"
			},
			{
				"type": "occ",
				"energy": -0.25633,
				"method": "rhf"
			},
			{
				"type": "occ",
				"energy": -0.25385,
				"method": "rhf"
			},
			{
				"type": "occ",
				"energy": -0.21898,
				"method": "rhf"
			},
			{
				"type": "unocc",
				"energy": -0.0547,
				"method": "rhf"
			},
			{
				"type": "unocc",
				"energy": -0.0416,
				"method": "rhf"
			},
			{
				"type": "unocc",
				"energy": -0.03538,
				"method": "rhf"
			},
			{
				"type": "unocc",
				"energy": -0.01139,
				"method": "rhf"
			},
			{
				"type": "unocc",
				"energy": -0.00636,
				"method": "rhf"
			}
		],
		"cosmo_sigma_profile": { 
			"-0.025": 0.0,
			"-0.024": 0.0,
			"-0.023": 0.0,
			"-0.022": 0.0,
			"-0.021": 0.0,
			"-0.02": 0.0,
			"-0.019": 0.0,
			"-0.018": 0.0,
			"-0.017": 0.0,
			"-0.016": 0.0,
			"-0.015": 0.360656891762,
			"-0.014": 1.33462468902,
			"-0.013": 1.93308310753,
			"-0.012": 1.64110125938,
			"-0.011": 1.50864446175,
			"-0.01": 1.41799638594,
			"-0.009": 5.05415757275,
			"-0.008": 7.15633510026,
			"-0.007": 11.6281561152,
			"-0.006": 16.3922626853,
			"-0.005": 17.3522952428,
			"-0.004": 18.0757994357,
			"-0.003": 18.6646530209,
			"-0.002": 19.8111724618,
			"-0.001": 20.4715382673,
			"0.0": 24.9235071858,
			"0.001": 31.5043029795,
			"0.002": 32.999685671,
			"0.003": 26.9358845356,
			"0.004": 26.7027724886,
			"0.005": 14.53471881,
			"0.006": 3.40399814293,
			"0.007": 2.04580081895,
			"0.008": 1.98012953895,
			"0.009": 2.18200381306,
			"0.01": 1.79481271538,
			"0.011": 2.66251864102,
			"0.012": 2.4597526439,
			"0.013": 3.95211515021,
			"0.014": 3.06540174543,
			"0.015": 2.30801565549,
			"0.016": 1.202457203,
			"0.017": 0.130531781671,
			"0.018": 0.0,
			"0.019": 0.0,
			"0.02": 0.0,
			"0.021": 0.0,
			"0.022": 0.0,
			"0.023": 0.0,
			"0.024": 0.0,
			"0.025": 0.0
		}
	}
}
