{
	 "smiles": "FC(F)(F)COC(=O)NCC1=CN=CC=C1", 
	 "Tm": 319.15, 
	 "num_atms": 25, 
	 "gaussian": { 
		 "optdone": 1, 
		 "sigma_profile": "yes", 
		 "theory": "DFT", 
		 "functional": "B3LYP", 
		 "basiset": "6-31G**", 
		 "properties": { 
			 "R2extent": 5270.5641, 
			 "electric_dipole_moment_norm": 1.56189401369, 
			 "electric_quadrupole_moment_norm": 13.6407057072, 
			 "total_energy": -907.871911619, 
			 "HOMO_LUMO_gap": 0.22281, 
			 "cosmo_polarized_energy": -13.31, 
			 "cosmo_cavitation_energy": 31.31, 
			 "cosmo_dispersion_energy": -21.36, 
			 "cosmo_repulsion_energy": 1.61, 
			 "cosmo_total_nonelectrostatic_energy": 11.57, 
			 "SMD_solvation_energy": 5.55 
		},
		"coords": [
			{
				"x": 2.654275076,
				"y": 4.0704151798,
				"z": 2.8162014074,
				"element": "F" 
			},
			{
				"x": 2.2853002456,
				"y": 3.165209312,
				"z": 1.8891739145,
				"element": "C" 
			},
			{
				"x": 1.1688527399,
				"y": 2.5427647829,
				"z": 2.3284175661,
				"element": "F" 
			},
			{
				"x": 1.9574606389,
				"y": 3.8293145939,
				"z": 0.7641215016,
				"element": "F" 
			},
			{
				"x": 3.412783868,
				"y": 2.1754061374,
				"z": 1.6560867205,
				"element": "C" 
			},
			{
				"x": 2.9880762691,
				"y": 1.2094247233,
				"z": 0.7057443534,
				"element": "O" 
			},
			{
				"x": 2.7614660109,
				"y": -0.0566740202,
				"z": 1.2013346908,
				"element": "C" 
			},
			{
				"x": 3.0311160755,
				"y": -0.4005142539,
				"z": 2.3352065799,
				"element": "O" 
			},
			{
				"x": 2.2330983637,
				"y": -0.8657468195,
				"z": 0.2451595518,
				"element": "N" 
			},
			{
				"x": 1.7247821295,
				"y": -0.4665713974,
				"z": -1.0665286744,
				"element": "C" 
			},
			{
				"x": 0.2151581716,
				"y": -0.3277804156,
				"z": -1.1207377332,
				"element": "C" 
			},
			{
				"x": -0.5442606785,
				"y": -1.1296483291,
				"z": -1.9788193765,
				"element": "C" 
			},
			{
				"x": -1.8766835616,
				"y": -1.0686061327,
				"z": -2.0920589323,
				"element": "N" 
			},
			{
				"x": -2.5127051368,
				"y": -0.1768516591,
				"z": -1.3250260396,
				"element": "C" 
			},
			{
				"x": -1.8587741659,
				"y": 0.674608755,
				"z": -0.4302582115,
				"element": "C" 
			},
			{
				"x": -0.4731094862,
				"y": 0.5981775888,
				"z": -0.32640872,
				"element": "C" 
			},
			{
				"x": 3.6740206402,
				"y": 1.6941221252,
				"z": 2.6003391256,
				"element": "H" 
			},
			{
				"x": 4.2728491028,
				"y": 2.7111100841,
				"z": 1.2477813183,
				"element": "H" 
			},
			{
				"x": 1.9880103133,
				"y": -1.7811681471,
				"z": 0.5947464647,
				"element": "H" 
			},
			{
				"x": 2.0498302373,
				"y": -1.2096904289,
				"z": -1.8030034737,
				"element": "H" 
			},
			{
				"x": 2.207432943,
				"y": 0.4765956233,
				"z": -1.326903769,
				"element": "H" 
			},
			{
				"x": -0.0456050524,
				"y": -1.8638818788,
				"z": -2.612658955,
				"element": "H" 
			},
			{
				"x": -3.5958843608,
				"y": -0.1401859417,
				"z": -1.4278571082,
				"element": "H" 
			},
			{
				"x": -2.4258843417,
				"y": 1.3811154503,
				"z": 0.1677552552,
				"element": "H" 
			},
			{
				"x": 0.0642939588,
				"y": 1.2459550681,
				"z": 0.3601925436,
				"element": "H" 
			}
		],
		 "valence_orbital": [ 
			{
				"type": "occ",
				"energy": -0.29478,
				"method": "rhf"
			},
			{
				"type": "occ",
				"energy": -0.28965,
				"method": "rhf"
			},
			{
				"type": "occ",
				"energy": -0.27613,
				"method": "rhf"
			},
			{
				"type": "occ",
				"energy": -0.26285,
				"method": "rhf"
			},
			{
				"type": "occ",
				"energy": -0.25535,
				"method": "rhf"
			},
			{
				"type": "unocc",
				"energy": -0.03254,
				"method": "rhf"
			},
			{
				"type": "unocc",
				"energy": -0.01781,
				"method": "rhf"
			},
			{
				"type": "unocc",
				"energy": 0.03947,
				"method": "rhf"
			},
			{
				"type": "unocc",
				"energy": 0.06925,
				"method": "rhf"
			},
			{
				"type": "unocc",
				"energy": 0.09562,
				"method": "rhf"
			}
		],
		"cosmo_sigma_profile": { 
			"-0.025": 0.0,
			"-0.024": 0.0,
			"-0.023": 0.0,
			"-0.022": 0.0,
			"-0.021": 0.0,
			"-0.02": 0.0,
			"-0.019": 0.0,
			"-0.018": 0.0,
			"-0.017": 0.0,
			"-0.016": 0.0,
			"-0.015": 0.470661215033,
			"-0.014": 1.13695359476,
			"-0.013": 1.23862317788,
			"-0.012": 0.953240788844,
			"-0.011": 0.914573405384,
			"-0.01": 1.01737443064,
			"-0.009": 3.83122390123,
			"-0.008": 4.18743273103,
			"-0.007": 9.75120588135,
			"-0.006": 15.6774761312,
			"-0.005": 13.5778166979,
			"-0.004": 13.9977849876,
			"-0.003": 14.1457584989,
			"-0.002": 15.5087369257,
			"-0.001": 15.7454324178,
			"0.0": 15.9435705736,
			"0.001": 18.5608962119,
			"0.002": 38.1879438108,
			"0.003": 28.7209850058,
			"0.004": 4.93893474644,
			"0.005": 4.33956460794,
			"0.006": 2.00528475933,
			"0.007": 2.90976209848,
			"0.008": 2.98519570114,
			"0.009": 2.00914793434,
			"0.01": 2.69503886886,
			"0.011": 3.12898271788,
			"0.012": 4.83949298955,
			"0.013": 3.5785090253,
			"0.014": 1.24386596562,
			"0.015": 0.924345646293,
			"0.016": 0.641426869494,
			"0.017": 0.456375450025,
			"0.018": 0.0,
			"0.019": 0.0,
			"0.02": 0.0,
			"0.021": 0.0,
			"0.022": 0.0,
			"0.023": 0.0,
			"0.024": 0.0,
			"0.025": 0.0
		}
	}
}
