{
	 "smiles": "CN1N=C(C=CC1=O)C(O)=O", 
	 "Tm": 445.15, 
	 "num_atms": 17, 
	 "gaussian": { 
		 "optdone": 1, 
		 "sigma_profile": "yes", 
		 "theory": "DFT", 
		 "functional": "B3LYP", 
		 "basiset": "6-31G**", 
		 "properties": { 
			 "R2extent": 2058.4969, 
			 "electric_dipole_moment_norm": 2.63952884811, 
			 "electric_quadrupole_moment_norm": 24.3038826304, 
			 "total_energy": -567.418737782, 
			 "HOMO_LUMO_gap": 0.16952, 
			 "cosmo_polarized_energy": -14.87, 
			 "cosmo_cavitation_energy": 22.15, 
			 "cosmo_dispersion_energy": -16.46, 
			 "cosmo_repulsion_energy": 1.32, 
			 "cosmo_total_nonelectrostatic_energy": 7.02, 
			 "SMD_solvation_energy": 5.51 
		},
		"coords": [
			{
				"x": -1.7592533042,
				"y": 1.1733859144,
				"z": -1.2662989588,
				"element": "C" 
			},
			{
				"x": -0.5890025571,
				"y": 0.5436396317,
				"z": -0.653864476,
				"element": "N" 
			},
			{
				"x": 0.5594658812,
				"y": 1.2129131842,
				"z": -0.7090894657,
				"element": "N" 
			},
			{
				"x": 1.6280972409,
				"y": 0.6747692891,
				"z": -0.1686050499,
				"element": "C" 
			},
			{
				"x": 1.6100882254,
				"y": -0.5991393675,
				"z": 0.4765405131,
				"element": "C" 
			},
			{
				"x": 0.4378816506,
				"y": -1.2816610215,
				"z": 0.5325593994,
				"element": "C" 
			},
			{
				"x": -0.7752754702,
				"y": -0.7308148673,
				"z": -0.0505476139,
				"element": "C" 
			},
			{
				"x": -1.8842434871,
				"y": -1.2485106645,
				"z": -0.062812097,
				"element": "O" 
			},
			{
				"x": 2.8949875427,
				"y": 1.4731333509,
				"z": -0.2600117203,
				"element": "C" 
			},
			{
				"x": 2.7820605291,
				"y": 2.6551197548,
				"z": -0.8911946006,
				"element": "O" 
			},
			{
				"x": 3.9399202827,
				"y": 1.0766250251,
				"z": 0.2028627396,
				"element": "O" 
			},
			{
				"x": -1.443699205,
				"y": 2.1306661099,
				"z": -1.6766157328,
				"element": "H" 
			},
			{
				"x": -2.1568911641,
				"y": 0.5264320601,
				"z": -2.0515248857,
				"element": "H" 
			},
			{
				"x": -2.5391860349,
				"y": 1.3115907008,
				"z": -0.5140353067,
				"element": "H" 
			},
			{
				"x": 2.5350509365,
				"y": -0.9757312314,
				"z": 0.8989818193,
				"element": "H" 
			},
			{
				"x": 0.3443560174,
				"y": -2.2531522981,
				"z": 1.004602657,
				"element": "H" 
			},
			{
				"x": 1.854342916,
				"y": 2.7546344294,
				"z": -1.173347221,
				"element": "H" 
			}
		],
		 "valence_orbital": [ 
			{
				"type": "occ",
				"energy": -0.33519,
				"method": "rhf"
			},
			{
				"type": "occ",
				"energy": -0.31891,
				"method": "rhf"
			},
			{
				"type": "occ",
				"energy": -0.28875,
				"method": "rhf"
			},
			{
				"type": "occ",
				"energy": -0.2711,
				"method": "rhf"
			},
			{
				"type": "occ",
				"energy": -0.25871,
				"method": "rhf"
			},
			{
				"type": "unocc",
				"energy": -0.08919,
				"method": "rhf"
			},
			{
				"type": "unocc",
				"energy": -0.04988,
				"method": "rhf"
			},
			{
				"type": "unocc",
				"energy": 0.04371,
				"method": "rhf"
			},
			{
				"type": "unocc",
				"energy": 0.0832,
				"method": "rhf"
			},
			{
				"type": "unocc",
				"energy": 0.09825,
				"method": "rhf"
			}
		],
		"cosmo_sigma_profile": { 
			"-0.025": 0.0,
			"-0.024": 0.0,
			"-0.023": 0.0,
			"-0.022": 0.0,
			"-0.021": 0.0,
			"-0.02": 0.0,
			"-0.019": 0.0,
			"-0.018": 0.0,
			"-0.017": 0.0,
			"-0.016": 0.0,
			"-0.015": 0.224831395766,
			"-0.014": 0.91045991482,
			"-0.013": 0.164661828356,
			"-0.012": 1.17931691572,
			"-0.011": 0.520009167099,
			"-0.01": 0.370681892709,
			"-0.009": 2.01860400347,
			"-0.008": 4.98841270059,
			"-0.007": 8.21069790639,
			"-0.006": 12.4716982675,
			"-0.005": 15.4802528966,
			"-0.004": 17.2619965499,
			"-0.003": 19.8029676915,
			"-0.002": 13.1717415993,
			"-0.001": 11.0225724446,
			"0.0": 8.60124797838,
			"0.001": 4.79847933077,
			"0.002": 3.49166469982,
			"0.003": 3.04035011652,
			"0.004": 3.96244296389,
			"0.005": 3.44817016484,
			"0.006": 2.81568735993,
			"0.007": 4.71699029707,
			"0.008": 3.7737382223,
			"0.009": 5.35521597104,
			"0.01": 7.10269548985,
			"0.011": 6.30976558436,
			"0.012": 6.84916959942,
			"0.013": 4.59854251637,
			"0.014": 0.850204717039,
			"0.015": 0.0,
			"0.016": 0.0,
			"0.017": 0.0,
			"0.018": 0.0,
			"0.019": 0.0,
			"0.02": 0.0,
			"0.021": 0.0,
			"0.022": 0.0,
			"0.023": 0.0,
			"0.024": 0.0,
			"0.025": 0.0
		}
	}
}
