{
	 "smiles": "NC1=NC(Cl)=C(C#N)C(CC#N)=C1C#N", 
	 "Tm": 531.15, 
	 "num_atms": 19, 
	 "gaussian": { 
		 "optdone": 1, 
		 "sigma_profile": "yes", 
		 "theory": "DFT", 
		 "functional": "B3LYP", 
		 "basiset": "6-31G**", 
		 "properties": { 
			 "R2extent": 4343.5135, 
			 "electric_dipole_moment_norm": 6.0538326257, 
			 "electric_quadrupole_moment_norm": 24.517655382, 
			 "total_energy": -1079.26830777, 
			 "HOMO_LUMO_gap": 0.16979, 
			 "cosmo_polarized_energy": -22.72, 
			 "cosmo_cavitation_energy": 29.29, 
			 "cosmo_dispersion_energy": -19.37, 
			 "cosmo_repulsion_energy": 1.54, 
			 "cosmo_total_nonelectrostatic_energy": 11.45, 
			 "SMD_solvation_energy": 6.97 
		},
		"coords": [
			{
				"x": -2.4879446407,
				"y": 0.1455800356,
				"z": 2.6136403972,
				"element": "N" 
			},
			{
				"x": -1.201440123,
				"y": 0.2349672682,
				"z": 2.2239614475,
				"element": "C" 
			},
			{
				"x": -0.3979183538,
				"y": 1.0197787867,
				"z": 2.9646577459,
				"element": "N" 
			},
			{
				"x": 0.8615699207,
				"y": 1.1424228276,
				"z": 2.6182666076,
				"element": "C" 
			},
			{
				"x": 1.8390797827,
				"y": 2.1817048805,
				"z": 3.6186053887,
				"element": "Cl" 
			},
			{
				"x": 1.4600201728,
				"y": 0.4992198496,
				"z": 1.5084669783,
				"element": "C" 
			},
			{
				"x": 2.8353409373,
				"y": 0.6826772253,
				"z": 1.1785005116,
				"element": "C" 
			},
			{
				"x": 3.9483133614,
				"y": 0.8132098355,
				"z": 0.8645882495,
				"element": "N" 
			},
			{
				"x": 0.632999225,
				"y": -0.328639674,
				"z": 0.7242431986,
				"element": "C" 
			},
			{
				"x": 1.1940689177,
				"y": -1.0757317458,
				"z": -0.4755747181,
				"element": "C" 
			},
			{
				"x": 1.6200925298,
				"y": -2.4334736383,
				"z": -0.1125426599,
				"element": "C" 
			},
			{
				"x": 1.9505738024,
				"y": -3.505360333,
				"z": 0.1826129122,
				"element": "N" 
			},
			{
				"x": -0.7137060031,
				"y": -0.462849374,
				"z": 1.0762782106,
				"element": "C" 
			},
			{
				"x": -1.6216344976,
				"y": -1.265193336,
				"z": 0.3258149628,
				"element": "C" 
			},
			{
				"x": -2.4184388739,
				"y": -1.8918609025,
				"z": -0.2480418515,
				"element": "N" 
			},
			{
				"x": -3.1467021843,
				"y": -0.4451391828,
				"z": 2.1309123638,
				"element": "H" 
			},
			{
				"x": -2.7718365179,
				"y": 0.6439683806,
				"z": 3.4425630611,
				"element": "H" 
			},
			{
				"x": 2.0546307594,
				"y": -0.5390315854,
				"z": -0.8866531613,
				"element": "H" 
			},
			{
				"x": 0.4360317853,
				"y": -1.1490493181,
				"z": -1.2625996446,
				"element": "H" 
			}
		],
		 "valence_orbital": [ 
			{
				"type": "occ",
				"energy": -0.3414,
				"method": "rhf"
			},
			{
				"type": "occ",
				"energy": -0.33792,
				"method": "rhf"
			},
			{
				"type": "occ",
				"energy": -0.32138,
				"method": "rhf"
			},
			{
				"type": "occ",
				"energy": -0.31777,
				"method": "rhf"
			},
			{
				"type": "occ",
				"energy": -0.26555,
				"method": "rhf"
			},
			{
				"type": "unocc",
				"energy": -0.09576,
				"method": "rhf"
			},
			{
				"type": "unocc",
				"energy": -0.07923,
				"method": "rhf"
			},
			{
				"type": "unocc",
				"energy": -0.01449,
				"method": "rhf"
			},
			{
				"type": "unocc",
				"energy": -0.00152,
				"method": "rhf"
			},
			{
				"type": "unocc",
				"energy": 0.00645,
				"method": "rhf"
			}
		],
		"cosmo_sigma_profile": { 
			"-0.025": 0.0,
			"-0.024": 0.0,
			"-0.023": 0.0,
			"-0.022": 0.0,
			"-0.021": 0.0,
			"-0.02": 0.0,
			"-0.019": 0.0,
			"-0.018": 0.0,
			"-0.017": 0.0,
			"-0.016": 1.32876852678,
			"-0.015": 2.17880495913,
			"-0.014": 2.13195683927,
			"-0.013": 1.81561532888,
			"-0.012": 2.29863399414,
			"-0.011": 3.33560231073,
			"-0.01": 8.2643595859,
			"-0.009": 6.54492530317,
			"-0.008": 6.91575483299,
			"-0.007": 6.74815538496,
			"-0.006": 7.91645923464,
			"-0.005": 14.8552143513,
			"-0.004": 17.1122507394,
			"-0.003": 12.3239140094,
			"-0.002": 12.288295761,
			"-0.001": 9.80054933112,
			"0.0": 12.0090934497,
			"0.001": 11.3389368476,
			"0.002": 14.751081268,
			"0.003": 11.4124216667,
			"0.004": 7.92293895952,
			"0.005": 9.07019032449,
			"0.006": 7.82640512375,
			"0.007": 9.97040815342,
			"0.008": 10.1635785271,
			"0.009": 9.33370891481,
			"0.01": 8.78933441349,
			"0.011": 7.44030270936,
			"0.012": 5.05145490908,
			"0.013": 0.462959618192,
			"0.014": 0.0,
			"0.015": 0.0,
			"0.016": 0.0,
			"0.017": 0.0,
			"0.018": 0.0,
			"0.019": 0.0,
			"0.02": 0.0,
			"0.021": 0.0,
			"0.022": 0.0,
			"0.023": 0.0,
			"0.024": 0.0,
			"0.025": 0.0
		}
	}
}
