{
	 "smiles": "CC(O)C1CCCCN1C(=O)OC(C)(C)C", 
	 "Tm": 320.15, 
	 "num_atms": 39, 
	 "gaussian": { 
		 "optdone": 1, 
		 "sigma_profile": "yes", 
		 "theory": "DFT", 
		 "functional": "B3LYP", 
		 "basiset": "6-31G**", 
		 "properties": { 
			 "R2extent": 4997.3994, 
			 "electric_dipole_moment_norm": 3.52550989362, 
			 "electric_quadrupole_moment_norm": 11.5107184394, 
			 "total_energy": -751.605337159, 
			 "HOMO_LUMO_gap": 0.27819, 
			 "cosmo_polarized_energy": -11.68, 
			 "cosmo_cavitation_energy": 37.47, 
			 "cosmo_dispersion_energy": -25.66, 
			 "cosmo_repulsion_energy": 2.01, 
			 "cosmo_total_nonelectrostatic_energy": 13.82, 
			 "SMD_solvation_energy": 6.53 
		},
		"coords": [
			{
				"x": 0.1337874685,
				"y": 0.1000192849,
				"z": -2.7416252016,
				"element": "C" 
			},
			{
				"x": 0.4857046085,
				"y": 0.0425616769,
				"z": -1.253153798,
				"element": "C" 
			},
			{
				"x": 1.6644405673,
				"y": 0.8053649982,
				"z": -0.9761500532,
				"element": "O" 
			},
			{
				"x": 0.5388466884,
				"y": -1.406187682,
				"z": -0.6972208315,
				"element": "C" 
			},
			{
				"x": 1.7064110055,
				"y": -2.2828321479,
				"z": -1.2090815159,
				"element": "C" 
			},
			{
				"x": 3.043429588,
				"y": -2.0731192066,
				"z": -0.4794368016,
				"element": "C" 
			},
			{
				"x": 2.8454123514,
				"y": -2.1813395529,
				"z": 1.0365324077,
				"element": "C" 
			},
			{
				"x": 1.7646986977,
				"y": -1.2073417783,
				"z": 1.5087052464,
				"element": "C" 
			},
			{
				"x": 0.5089622491,
				"y": -1.4249854245,
				"z": 0.7754762019,
				"element": "N" 
			},
			{
				"x": -0.6591552189,
				"y": -1.4291878412,
				"z": 1.4964583324,
				"element": "C" 
			},
			{
				"x": -0.7120216076,
				"y": -1.3860179063,
				"z": 2.7185918019,
				"element": "O" 
			},
			{
				"x": -1.7447963944,
				"y": -1.4946425464,
				"z": 0.676974021,
				"element": "O" 
			},
			{
				"x": -3.1029514826,
				"y": -1.5714854891,
				"z": 1.2331816069,
				"element": "C" 
			},
			{
				"x": -3.4205548251,
				"y": -0.3000892194,
				"z": 2.0282700828,
				"element": "C" 
			},
			{
				"x": -3.9725457012,
				"y": -1.6526839261,
				"z": -0.0250562905,
				"element": "C" 
			},
			{
				"x": -3.258810197,
				"y": -2.8399503184,
				"z": 2.0794531344,
				"element": "C" 
			},
			{
				"x": -0.8172507692,
				"y": -0.4016361574,
				"z": -2.947240554,
				"element": "H" 
			},
			{
				"x": 0.0499631365,
				"y": 1.142548437,
				"z": -3.0610076021,
				"element": "H" 
			},
			{
				"x": 0.9031935419,
				"y": -0.3801028563,
				"z": -3.3591021478,
				"element": "H" 
			},
			{
				"x": -0.3066754539,
				"y": 0.5496897559,
				"z": -0.6916943822,
				"element": "H" 
			},
			{
				"x": 2.3378375326,
				"y": 0.554631521,
				"z": -1.6220148786,
				"element": "H" 
			},
			{
				"x": -0.3877450387,
				"y": -1.8779713868,
				"z": -1.0272175893,
				"element": "H" 
			},
			{
				"x": 1.8267942823,
				"y": -2.1349257782,
				"z": -2.2887895904,
				"element": "H" 
			},
			{
				"x": 1.4081939116,
				"y": -3.3304520405,
				"z": -1.0780158038,
				"element": "H" 
			},
			{
				"x": 3.4625595299,
				"y": -1.0877940483,
				"z": -0.713828784,
				"element": "H" 
			},
			{
				"x": 3.7695832274,
				"y": -2.8161512121,
				"z": -0.829623606,
				"element": "H" 
			},
			{
				"x": 2.5501276355,
				"y": -3.2056468168,
				"z": 1.2994893033,
				"element": "H" 
			},
			{
				"x": 3.7809432867,
				"y": -1.967302165,
				"z": 1.5662803355,
				"element": "H" 
			},
			{
				"x": 2.1010573823,
				"y": -0.1753183328,
				"z": 1.3508461059,
				"element": "H" 
			},
			{
				"x": 1.5411604099,
				"y": -1.3399192881,
				"z": 2.5666503636,
				"element": "H" 
			},
			{
				"x": -3.2645994556,
				"y": 0.586052371,
				"z": 1.4044488793,
				"element": "H" 
			},
			{
				"x": -4.4699321304,
				"y": -0.3142152184,
				"z": 2.3408938091,
				"element": "H" 
			},
			{
				"x": -2.7872592735,
				"y": -0.2262761143,
				"z": 2.9120476814,
				"element": "H" 
			},
			{
				"x": -3.7202120972,
				"y": -2.5399686172,
				"z": -0.6134680653,
				"element": "H" 
			},
			{
				"x": -5.0296202546,
				"y": -1.7104019296,
				"z": 0.2511074287,
				"element": "H" 
			},
			{
				"x": -3.8274683703,
				"y": -0.7684398452,
				"z": -0.6528865496,
				"element": "H" 
			},
			{
				"x": -2.9845395876,
				"y": -3.7229866684,
				"z": 1.4931347524,
				"element": "H" 
			},
			{
				"x": -2.6290830768,
				"y": -2.7950994611,
				"z": 2.9678359007,
				"element": "H" 
			},
			{
				"x": -4.3035861663,
				"y": -2.9493970693,
				"z": 2.3885366501,
				"element": "H" 
			}
		],
		 "valence_orbital": [ 
			{
				"type": "occ",
				"energy": -0.31123,
				"method": "rhf"
			},
			{
				"type": "occ",
				"energy": -0.28118,
				"method": "rhf"
			},
			{
				"type": "occ",
				"energy": -0.27739,
				"method": "rhf"
			},
			{
				"type": "occ",
				"energy": -0.25101,
				"method": "rhf"
			},
			{
				"type": "occ",
				"energy": -0.22178,
				"method": "rhf"
			},
			{
				"type": "unocc",
				"energy": 0.05641,
				"method": "rhf"
			},
			{
				"type": "unocc",
				"energy": 0.06127,
				"method": "rhf"
			},
			{
				"type": "unocc",
				"energy": 0.08193,
				"method": "rhf"
			},
			{
				"type": "unocc",
				"energy": 0.10309,
				"method": "rhf"
			},
			{
				"type": "unocc",
				"energy": 0.10587,
				"method": "rhf"
			}
		],
		"cosmo_sigma_profile": { 
			"-0.025": 0.0,
			"-0.024": 0.0,
			"-0.023": 0.0,
			"-0.022": 0.0,
			"-0.021": 0.0,
			"-0.02": 0.0,
			"-0.019": 0.0,
			"-0.018": 0.0,
			"-0.017": 0.0,
			"-0.016": 0.0,
			"-0.015": 0.0244470578374,
			"-0.014": 0.821502978741,
			"-0.013": 0.683468265216,
			"-0.012": 1.04709199578,
			"-0.011": 1.29515740669,
			"-0.01": 1.2802277687,
			"-0.009": 1.44240079278,
			"-0.008": 1.00752905398,
			"-0.007": 1.15081470727,
			"-0.006": 1.48317482615,
			"-0.005": 2.51641922358,
			"-0.004": 15.3193622688,
			"-0.003": 34.5484285911,
			"-0.002": 40.9276695074,
			"-0.001": 45.5484145413,
			"0.0": 48.1276521877,
			"0.001": 33.5639458124,
			"0.002": 11.6880671289,
			"0.003": 7.93340636415,
			"0.004": 6.75288296762,
			"0.005": 4.69056830828,
			"0.006": 3.68578304083,
			"0.007": 3.16317466282,
			"0.008": 3.72951807806,
			"0.009": 1.65041811328,
			"0.01": 2.1478827762,
			"0.011": 2.4577697224,
			"0.012": 2.89542068798,
			"0.013": 3.67450222614,
			"0.014": 3.36369103364,
			"0.015": 0.418541013253,
			"0.016": 0.0,
			"0.017": 0.0,
			"0.018": 0.0,
			"0.019": 0.0,
			"0.02": 0.0,
			"0.021": 0.0,
			"0.022": 0.0,
			"0.023": 0.0,
			"0.024": 0.0,
			"0.025": 0.0
		}
	}
}
