{
	 "smiles": "CC1=C(C=NN1CCOC1CCCCO1)C(O)=O", 
	 "Tm": 413.15, 
	 "num_atms": 36, 
	 "gaussian": { 
		 "optdone": 1, 
		 "sigma_profile": "yes", 
		 "theory": "DFT", 
		 "functional": "B3LYP", 
		 "basiset": "6-31G**", 
		 "properties": { 
			 "R2extent": 5793.7184, 
			 "electric_dipole_moment_norm": 8.02627763661, 
			 "electric_quadrupole_moment_norm": 28.8558734292, 
			 "total_energy": -878.510168519, 
			 "HOMO_LUMO_gap": 0.23101, 
			 "cosmo_polarized_energy": -21.0, 
			 "cosmo_cavitation_energy": 37.51, 
			 "cosmo_dispersion_energy": -26.01, 
			 "cosmo_repulsion_energy": 2.01, 
			 "cosmo_total_nonelectrostatic_energy": 13.51, 
			 "SMD_solvation_energy": 5.97 
		},
		"coords": [
			{
				"x": -0.4525223198,
				"y": -2.1271298292,
				"z": 1.3024890841,
				"element": "C" 
			},
			{
				"x": -0.5703904011,
				"y": -2.4273276723,
				"z": -0.1614220883,
				"element": "C" 
			},
			{
				"x": 0.1214395076,
				"y": -3.3180007224,
				"z": -0.9902898331,
				"element": "C" 
			},
			{
				"x": -0.5151096105,
				"y": -3.2064481206,
				"z": -2.2523372965,
				"element": "C" 
			},
			{
				"x": -1.4941484828,
				"y": -2.3176557877,
				"z": -2.2351768984,
				"element": "N" 
			},
			{
				"x": -1.5246796962,
				"y": -1.8634246786,
				"z": -0.9506405341,
				"element": "N" 
			},
			{
				"x": -2.4591813451,
				"y": -0.7969694764,
				"z": -0.6301319176,
				"element": "C" 
			},
			{
				"x": -1.982298343,
				"y": 0.5619561847,
				"z": -1.1592277493,
				"element": "C" 
			},
			{
				"x": -0.7692184572,
				"y": 0.9875257619,
				"z": -0.5603439189,
				"element": "O" 
			},
			{
				"x": -0.8983610408,
				"y": 1.6981523284,
				"z": 0.6712477734,
				"element": "C" 
			},
			{
				"x": -0.8904304546,
				"y": 3.2111705445,
				"z": 0.4203559027,
				"element": "C" 
			},
			{
				"x": 0.4828517187,
				"y": 3.6771311932,
				"z": -0.0824396304,
				"element": "C" 
			},
			{
				"x": 1.5774303192,
				"y": 3.1838735684,
				"z": 0.8749132218,
				"element": "C" 
			},
			{
				"x": 1.4566865706,
				"y": 1.6744348119,
				"z": 1.0730177815,
				"element": "C" 
			},
			{
				"x": 0.1421152811,
				"y": 1.3026985526,
				"z": 1.5294909979,
				"element": "O" 
			},
			{
				"x": 1.232785267,
				"y": -4.245843337,
				"z": -0.710863118,
				"element": "C" 
			},
			{
				"x": 2.0479583294,
				"y": -3.9332452869,
				"z": 0.3451515149,
				"element": "O" 
			},
			{
				"x": 1.457546854,
				"y": -5.2385319991,
				"z": -1.3636305927,
				"element": "O" 
			},
			{
				"x": 0.2329913787,
				"y": -2.8302345865,
				"z": 1.7797051511,
				"element": "H" 
			},
			{
				"x": -0.1081218875,
				"y": -1.1030438794,
				"z": 1.4864870991,
				"element": "H" 
			},
			{
				"x": -1.4190570887,
				"y": -2.2464359454,
				"z": 1.8051606415,
				"element": "H" 
			},
			{
				"x": -0.2717286296,
				"y": -3.74895419,
				"z": -3.1552098579,
				"element": "H" 
			},
			{
				"x": -2.5973681725,
				"y": -0.7686752689,
				"z": 0.4532618189,
				"element": "H" 
			},
			{
				"x": -3.4194440021,
				"y": -1.0471059457,
				"z": -1.0910638343,
				"element": "H" 
			},
			{
				"x": -2.7841277271,
				"y": 1.3024992461,
				"z": -1.0211235891,
				"element": "H" 
			},
			{
				"x": -1.7884992219,
				"y": 0.4698897215,
				"z": -2.2313191755,
				"element": "H" 
			},
			{
				"x": -1.8212765812,
				"y": 1.3944287376,
				"z": 1.1840304856,
				"element": "H" 
			},
			{
				"x": -1.682930352,
				"y": 3.4635560639,
				"z": -0.2935506023,
				"element": "H" 
			},
			{
				"x": -1.1346256337,
				"y": 3.7101530216,
				"z": 1.3666369442,
				"element": "H" 
			},
			{
				"x": 0.5049204972,
				"y": 4.7683977007,
				"z": -0.172329935,
				"element": "H" 
			},
			{
				"x": 0.6578845074,
				"y": 3.2663037636,
				"z": -1.0837257065,
				"element": "H" 
			},
			{
				"x": 1.4754369017,
				"y": 3.6826740566,
				"z": 1.8471930118,
				"element": "H" 
			},
			{
				"x": 2.5762274709,
				"y": 3.42120696,
				"z": 0.4900563319,
				"element": "H" 
			},
			{
				"x": 1.6797758937,
				"y": 1.143499923,
				"z": 0.1386054459,
				"element": "H" 
			},
			{
				"x": 2.1381154995,
				"y": 1.3131916177,
				"z": 1.8477877836,
				"element": "H" 
			},
			{
				"x": 1.8872534506,
				"y": -3.0196170315,
				"z": 0.617135288,
				"element": "H" 
			}
		],
		 "valence_orbital": [ 
			{
				"type": "occ",
				"energy": -0.27845,
				"method": "rhf"
			},
			{
				"type": "occ",
				"energy": -0.2751,
				"method": "rhf"
			},
			{
				"type": "occ",
				"energy": -0.26402,
				"method": "rhf"
			},
			{
				"type": "occ",
				"energy": -0.25318,
				"method": "rhf"
			},
			{
				"type": "occ",
				"energy": -0.24511,
				"method": "rhf"
			},
			{
				"type": "unocc",
				"energy": -0.0141,
				"method": "rhf"
			},
			{
				"type": "unocc",
				"energy": 0.01514,
				"method": "rhf"
			},
			{
				"type": "unocc",
				"energy": 0.0569,
				"method": "rhf"
			},
			{
				"type": "unocc",
				"energy": 0.07258,
				"method": "rhf"
			},
			{
				"type": "unocc",
				"energy": 0.08838,
				"method": "rhf"
			}
		],
		"cosmo_sigma_profile": { 
			"-0.025": 0.0,
			"-0.024": 0.0,
			"-0.023": 0.0,
			"-0.022": 0.0,
			"-0.021": 0.0,
			"-0.02": 0.0,
			"-0.019": 0.0,
			"-0.018": 0.0,
			"-0.017": 0.37446272714,
			"-0.016": 1.06734780596,
			"-0.015": 1.03428090732,
			"-0.014": 0.644210707858,
			"-0.013": 0.615298063407,
			"-0.012": 1.42928074822,
			"-0.011": 1.13525596603,
			"-0.01": 0.729563102691,
			"-0.009": 0.957350904971,
			"-0.008": 4.48701458746,
			"-0.007": 9.69030037172,
			"-0.006": 15.4898121244,
			"-0.005": 17.7257614245,
			"-0.004": 20.8554947019,
			"-0.003": 28.8634149662,
			"-0.002": 32.5874201858,
			"-0.001": 29.0493861625,
			"0.0": 21.1946485855,
			"0.001": 13.7641700932,
			"0.002": 11.3203586355,
			"0.003": 12.367770065,
			"0.004": 8.39906419939,
			"0.005": 6.53143837328,
			"0.006": 8.01944394741,
			"0.007": 6.83033678951,
			"0.008": 6.24752896875,
			"0.009": 5.27658853066,
			"0.01": 5.94576242879,
			"0.011": 7.60310260732,
			"0.012": 7.93891108475,
			"0.013": 4.26516547476,
			"0.014": 1.2598265761,
			"0.015": 0.404850126198,
			"0.016": 0.0370032448811,
			"0.017": 0.0,
			"0.018": 0.0,
			"0.019": 0.0,
			"0.02": 0.0,
			"0.021": 0.0,
			"0.022": 0.0,
			"0.023": 0.0,
			"0.024": 0.0,
			"0.025": 0.0
		}
	}
}
