{
	 "smiles": "CC1=C2C=CC=CC2=NC=C1C(O)=O", 
	 "Tm": 528.15, 
	 "num_atms": 23, 
	 "gaussian": { 
		 "optdone": 1, 
		 "sigma_profile": "yes", 
		 "theory": "DFT", 
		 "functional": "B3LYP", 
		 "basiset": "6-31G**", 
		 "properties": { 
			 "R2extent": 3159.7578, 
			 "electric_dipole_moment_norm": 5.6175621483, 
			 "electric_quadrupole_moment_norm": 13.436189276, 
			 "total_energy": -629.809467615, 
			 "HOMO_LUMO_gap": 0.17232, 
			 "cosmo_polarized_energy": -16.3, 
			 "cosmo_cavitation_energy": 26.85, 
			 "cosmo_dispersion_energy": -19.94, 
			 "cosmo_repulsion_energy": 1.53, 
			 "cosmo_total_nonelectrostatic_energy": 8.44, 
			 "SMD_solvation_energy": 3.97 
		},
		"coords": [
			{
				"x": -0.1755858194,
				"y": 0.4803991028,
				"z": -2.3061810696,
				"element": "C" 
			},
			{
				"x": 0.5503662138,
				"y": 0.345323582,
				"z": -0.9859451404,
				"element": "C" 
			},
			{
				"x": 0.2813683798,
				"y": 1.2861849734,
				"z": 0.0624021014,
				"element": "C" 
			},
			{
				"x": -0.6950160011,
				"y": 2.3136692826,
				"z": -0.0475061165,
				"element": "C" 
			},
			{
				"x": -0.9246286046,
				"y": 3.1854034016,
				"z": 0.9951052708,
				"element": "C" 
			},
			{
				"x": -0.1858417152,
				"y": 3.0788327007,
				"z": 2.1967070516,
				"element": "C" 
			},
			{
				"x": 0.7712190451,
				"y": 2.098735301,
				"z": 2.3347996881,
				"element": "C" 
			},
			{
				"x": 1.0265137933,
				"y": 1.1850030286,
				"z": 1.2804479305,
				"element": "C" 
			},
			{
				"x": 1.9989145921,
				"y": 0.2437810123,
				"z": 1.4775509628,
				"element": "N" 
			},
			{
				"x": 2.2264126232,
				"y": -0.5997485012,
				"z": 0.5016428383,
				"element": "C" 
			},
			{
				"x": 1.5167096653,
				"y": -0.6218601176,
				"z": -0.7375725972,
				"element": "C" 
			},
			{
				"x": 1.9491505959,
				"y": -1.6942965932,
				"z": -1.6952457266,
				"element": "C" 
			},
			{
				"x": 0.9675458534,
				"y": -2.3582859925,
				"z": -2.36959876,
				"element": "O" 
			},
			{
				"x": 3.1038524677,
				"y": -2.0081197354,
				"z": -1.8533993117,
				"element": "O" 
			},
			{
				"x": 0.216170441,
				"y": -0.1911834517,
				"z": -3.0694394346,
				"element": "H" 
			},
			{
				"x": -1.2498467254,
				"y": 0.2870943698,
				"z": -2.1946128639,
				"element": "H" 
			},
			{
				"x": -0.0784985582,
				"y": 1.5018428306,
				"z": -2.686905433,
				"element": "H" 
			},
			{
				"x": -1.2747276708,
				"y": 2.4103542273,
				"z": -0.9589417857,
				"element": "H" 
			},
			{
				"x": -1.6784908615,
				"y": 3.960572579,
				"z": 0.8943713086,
				"element": "H" 
			},
			{
				"x": -0.3759361956,
				"y": 3.7746670499,
				"z": 3.0085293465,
				"element": "H" 
			},
			{
				"x": 1.3584552555,
				"y": 1.9904457595,
				"z": 3.2405729705,
				"element": "H" 
			},
			{
				"x": 3.010962452,
				"y": -1.3385922947,
				"z": 0.6516690952,
				"element": "H" 
			},
			{
				"x": 0.1012307739,
				"y": -2.101222515,
				"z": -2.0241503252,
				"element": "H" 
			}
		],
		 "valence_orbital": [ 
			{
				"type": "occ",
				"energy": -0.30862,
				"method": "rhf"
			},
			{
				"type": "occ",
				"energy": -0.28565,
				"method": "rhf"
			},
			{
				"type": "occ",
				"energy": -0.26279,
				"method": "rhf"
			},
			{
				"type": "occ",
				"energy": -0.25932,
				"method": "rhf"
			},
			{
				"type": "occ",
				"energy": -0.2446,
				"method": "rhf"
			},
			{
				"type": "unocc",
				"energy": -0.07228,
				"method": "rhf"
			},
			{
				"type": "unocc",
				"energy": -0.03953,
				"method": "rhf"
			},
			{
				"type": "unocc",
				"energy": 0.00436,
				"method": "rhf"
			},
			{
				"type": "unocc",
				"energy": 0.02053,
				"method": "rhf"
			},
			{
				"type": "unocc",
				"energy": 0.05686,
				"method": "rhf"
			}
		],
		"cosmo_sigma_profile": { 
			"-0.025": 0.0,
			"-0.024": 0.0,
			"-0.023": 0.0,
			"-0.022": 0.0,
			"-0.021": 0.0,
			"-0.02": 0.0,
			"-0.019": 0.223328743918,
			"-0.018": 0.648579599405,
			"-0.017": 0.614933113009,
			"-0.016": 1.27727931989,
			"-0.015": 1.05725596179,
			"-0.014": 0.389641636566,
			"-0.013": 0.712436543796,
			"-0.012": 1.58085785382,
			"-0.011": 1.02763564581,
			"-0.01": 0.591135645035,
			"-0.009": 0.82149425248,
			"-0.008": 0.979347470927,
			"-0.007": 5.42381087542,
			"-0.006": 16.6345167436,
			"-0.005": 18.758680856,
			"-0.004": 17.0465963551,
			"-0.003": 12.8328337073,
			"-0.002": 13.4627718911,
			"-0.001": 13.447003044,
			"0.0": 13.3007535094,
			"0.001": 13.7700281259,
			"0.002": 14.2189124235,
			"0.003": 15.1065071405,
			"0.004": 11.402173997,
			"0.005": 3.11240497982,
			"0.006": 4.31413017246,
			"0.007": 3.66468472433,
			"0.008": 3.94591578863,
			"0.009": 4.67716089495,
			"0.01": 6.50308260112,
			"0.011": 6.04860851124,
			"0.012": 4.32443042079,
			"0.013": 1.61609572156,
			"0.014": 0.802700594802,
			"0.015": 0.612081890835,
			"0.016": 0.395775810192,
			"0.017": 0.0,
			"0.018": 0.0,
			"0.019": 0.0,
			"0.02": 0.0,
			"0.021": 0.0,
			"0.022": 0.0,
			"0.023": 0.0,
			"0.024": 0.0,
			"0.025": 0.0
		}
	}
}
