{
	 "smiles": "BrC1CCN(C2CCOCC2)C1=O", 
	 "Tm": 341.15, 
	 "num_atms": 27, 
	 "gaussian": { 
		 "optdone": 1, 
		 "sigma_profile": "yes", 
		 "theory": "DFT", 
		 "functional": "B3LYP", 
		 "basiset": "6-31G**", 
		 "properties": { 
			 "R2extent": 4410.2812, 
			 "electric_dipole_moment_norm": 3.45349906761, 
			 "electric_quadrupole_moment_norm": 10.5559395423, 
			 "total_energy": -3128.00112991, 
			 "HOMO_LUMO_gap": 0.2111, 
			 "cosmo_polarized_energy": -13.08, 
			 "cosmo_cavitation_energy": 29.98, 
			 "cosmo_dispersion_energy": -22.07, 
			 "cosmo_repulsion_energy": 1.76, 
			 "cosmo_total_nonelectrostatic_energy": 9.67, 
			 "SMD_solvation_energy": 3.4 
		},
		"coords": [
			{
				"x": 0.5845486906,
				"y": 2.7916701372,
				"z": 2.8553935389,
				"element": "Br" 
			},
			{
				"x": 0.988791996,
				"y": 2.4659625251,
				"z": 0.9272489062,
				"element": "C" 
			},
			{
				"x": -0.1138076152,
				"y": 3.0178039494,
				"z": 0.0329264775,
				"element": "C" 
			},
			{
				"x": -1.12060622,
				"y": 1.8565457448,
				"z": -0.0419326893,
				"element": "C" 
			},
			{
				"x": -0.2720039732,
				"y": 0.6763596635,
				"z": 0.1149318662,
				"element": "N" 
			},
			{
				"x": -0.7758661982,
				"y": -0.6828684983,
				"z": -0.1120659434,
				"element": "C" 
			},
			{
				"x": 0.0863009526,
				"y": -1.4575075639,
				"z": -1.1367236194,
				"element": "C" 
			},
			{
				"x": -0.1729073573,
				"y": -2.9729575941,
				"z": -0.9902147216,
				"element": "C" 
			},
			{
				"x": -1.4837894512,
				"y": -3.2194691888,
				"z": -0.494657984,
				"element": "O" 
			},
			{
				"x": -1.6114801581,
				"y": -2.8387660311,
				"z": 0.8740956297,
				"element": "C" 
			},
			{
				"x": -0.9065486652,
				"y": -1.4982220315,
				"z": 1.1862094051,
				"element": "C" 
			},
			{
				"x": 0.9391824785,
				"y": 0.9496827853,
				"z": 0.6931512851,
				"element": "C" 
			},
			{
				"x": 1.8188406569,
				"y": 0.1484975923,
				"z": 0.971103019,
				"element": "O" 
			},
			{
				"x": 1.9843265663,
				"y": 2.8768685231,
				"z": 0.7806228231,
				"element": "H" 
			},
			{
				"x": 0.3120903875,
				"y": 3.1980956553,
				"z": -0.9616973757,
				"element": "H" 
			},
			{
				"x": -0.5519947423,
				"y": 3.9489795986,
				"z": 0.393712239,
				"element": "H" 
			},
			{
				"x": -1.6532451254,
				"y": 1.826537641,
				"z": -0.9978080872,
				"element": "H" 
			},
			{
				"x": -1.8662867502,
				"y": 1.9191737616,
				"z": 0.7631077917,
				"element": "H" 
			},
			{
				"x": -1.7781972146,
				"y": -0.5587354282,
				"z": -0.5346591052,
				"element": "H" 
			},
			{
				"x": -0.1600332134,
				"y": -1.1144998795,
				"z": -2.1473189088,
				"element": "H" 
			},
			{
				"x": 1.1421493934,
				"y": -1.2435922148,
				"z": -0.9541798602,
				"element": "H" 
			},
			{
				"x": 0.5756524972,
				"y": -3.4292104847,
				"z": -0.323423044,
				"element": "H" 
			},
			{
				"x": -0.1061656127,
				"y": -3.4822715391,
				"z": -1.9553273701,
				"element": "H" 
			},
			{
				"x": -1.2177256007,
				"y": -3.6342894021,
				"z": 1.5267103613,
				"element": "H" 
			},
			{
				"x": -2.6891682404,
				"y": -2.7636318867,
				"z": 1.0521660319,
				"element": "H" 
			},
			{
				"x": -1.4757236504,
				"y": -0.9383686198,
				"z": 1.9358540314,
				"element": "H" 
			},
			{
				"x": 0.0942661695,
				"y": -1.6575872146,
				"z": 1.596475303,
				"element": "H" 
			}
		],
		 "valence_orbital": [ 
			{
				"type": "occ",
				"energy": -0.28362,
				"method": "rhf"
			},
			{
				"type": "occ",
				"energy": -0.2794,
				"method": "rhf"
			},
			{
				"type": "occ",
				"energy": -0.25317,
				"method": "rhf"
			},
			{
				"type": "occ",
				"energy": -0.2481,
				"method": "rhf"
			},
			{
				"type": "occ",
				"energy": -0.24463,
				"method": "rhf"
			},
			{
				"type": "unocc",
				"energy": -0.03353,
				"method": "rhf"
			},
			{
				"type": "unocc",
				"energy": 0.04753,
				"method": "rhf"
			},
			{
				"type": "unocc",
				"energy": 0.07145,
				"method": "rhf"
			},
			{
				"type": "unocc",
				"energy": 0.08196,
				"method": "rhf"
			},
			{
				"type": "unocc",
				"energy": 0.09979,
				"method": "rhf"
			}
		],
		"cosmo_sigma_profile": { 
			"-0.025": 0.0,
			"-0.024": 0.0,
			"-0.023": 0.0,
			"-0.022": 0.0,
			"-0.021": 0.0,
			"-0.02": 0.0,
			"-0.019": 0.0,
			"-0.018": 0.0,
			"-0.017": 0.0,
			"-0.016": 0.0,
			"-0.015": 0.0,
			"-0.014": 0.0,
			"-0.013": 0.0,
			"-0.012": 0.0,
			"-0.011": 0.0,
			"-0.01": 0.0,
			"-0.009": 0.581692429873,
			"-0.008": 2.23261897812,
			"-0.007": 3.38570110017,
			"-0.006": 10.5107057023,
			"-0.005": 16.5051955236,
			"-0.004": 29.2691646925,
			"-0.003": 35.9876406314,
			"-0.002": 26.5778571357,
			"-0.001": 16.0624773007,
			"0.0": 13.7527402588,
			"0.001": 9.84231496944,
			"0.002": 8.70006691435,
			"0.003": 7.20800630182,
			"0.004": 8.6679911822,
			"0.005": 13.0239184596,
			"0.006": 7.40797975779,
			"0.007": 4.05657471192,
			"0.008": 2.76355316497,
			"0.009": 2.98812860901,
			"0.01": 2.18174852922,
			"0.011": 2.45331410012,
			"0.012": 3.86458202943,
			"0.013": 5.15481762495,
			"0.014": 3.54675484336,
			"0.015": 0.276581989753,
			"0.016": 0.0,
			"0.017": 0.0,
			"0.018": 0.0,
			"0.019": 0.0,
			"0.02": 0.0,
			"0.021": 0.0,
			"0.022": 0.0,
			"0.023": 0.0,
			"0.024": 0.0,
			"0.025": 0.0
		}
	}
}
