{
	 "smiles": "COC(=O)C1=C(N)C(Cl)=CC(Cl)=C1", 
	 "Tm": 339.15, 
	 "num_atms": 20, 
	 "gaussian": { 
		 "optdone": 1, 
		 "sigma_profile": "yes", 
		 "theory": "DFT", 
		 "functional": "B3LYP", 
		 "basiset": "6-31G**", 
		 "properties": { 
			 "R2extent": 3777.5765, 
			 "electric_dipole_moment_norm": 4.23951393794, 
			 "electric_quadrupole_moment_norm": 9.86742955435, 
			 "total_energy": -1434.67080599, 
			 "HOMO_LUMO_gap": 0.15967, 
			 "cosmo_polarized_energy": -9.18, 
			 "cosmo_cavitation_energy": 27.84, 
			 "cosmo_dispersion_energy": -21.04, 
			 "cosmo_repulsion_energy": 1.67, 
			 "cosmo_total_nonelectrostatic_energy": 8.47, 
			 "SMD_solvation_energy": 5.6 
		},
		"coords": [
			{
				"x": -1.3936165978,
				"y": -0.3198013745,
				"z": 3.613399168,
				"element": "C" 
			},
			{
				"x": -0.8702695946,
				"y": 0.0290840656,
				"z": 2.3182878744,
				"element": "O" 
			},
			{
				"x": -1.0381079321,
				"y": -0.9198319737,
				"z": 1.3531107908,
				"element": "C" 
			},
			{
				"x": -1.5876092577,
				"y": -1.9767828624,
				"z": 1.5927867357,
				"element": "O" 
			},
			{
				"x": -0.4893749158,
				"y": -0.5444290064,
				"z": 0.0221970646,
				"element": "C" 
			},
			{
				"x": 0.1278081271,
				"y": 0.7022811679,
				"z": -0.2956946578,
				"element": "C" 
			},
			{
				"x": 0.2502552502,
				"y": 1.7343303831,
				"z": 0.5836108269,
				"element": "N" 
			},
			{
				"x": 0.6013233167,
				"y": 0.8445283572,
				"z": -1.6279224688,
				"element": "C" 
			},
			{
				"x": 1.3871032649,
				"y": 2.3543951887,
				"z": -2.0879885427,
				"element": "Cl" 
			},
			{
				"x": 0.4770028095,
				"y": -0.1465124014,
				"z": -2.5852078221,
				"element": "C" 
			},
			{
				"x": -0.1419938357,
				"y": -1.3513166793,
				"z": -2.2403516964,
				"element": "C" 
			},
			{
				"x": -0.3064705068,
				"y": -2.613059886,
				"z": -3.4511351288,
				"element": "Cl" 
			},
			{
				"x": -0.6163676772,
				"y": -1.545300719,
				"z": -0.9568407948,
				"element": "C" 
			},
			{
				"x": -2.4682570815,
				"y": -0.5040499769,
				"z": 3.5529834405,
				"element": "H" 
			},
			{
				"x": -0.9009599328,
				"y": -1.216668706,
				"z": 3.9949779591,
				"element": "H" 
			},
			{
				"x": -1.1849032357,
				"y": 0.5368869184,
				"z": 4.2540021335,
				"element": "H" 
			},
			{
				"x": 0.0308582721,
				"y": 1.5673759477,
				"z": 1.5518320611,
				"element": "H" 
			},
			{
				"x": 0.8300575619,
				"y": 2.5171953061,
				"z": 0.3301541037,
				"element": "H" 
			},
			{
				"x": 0.8568567769,
				"y": 0.0164485949,
				"z": -3.5866173258,
				"element": "H" 
			},
			{
				"x": -1.0951348116,
				"y": -2.4733723442,
				"z": -0.6698837211,
				"element": "H" 
			}
		],
		 "valence_orbital": [ 
			{
				"type": "occ",
				"energy": -0.31336,
				"method": "rhf"
			},
			{
				"type": "occ",
				"energy": -0.30103,
				"method": "rhf"
			},
			{
				"type": "occ",
				"energy": -0.28635,
				"method": "rhf"
			},
			{
				"type": "occ",
				"energy": -0.26471,
				"method": "rhf"
			},
			{
				"type": "occ",
				"energy": -0.21558,
				"method": "rhf"
			},
			{
				"type": "unocc",
				"energy": -0.05591,
				"method": "rhf"
			},
			{
				"type": "unocc",
				"energy": -0.00687,
				"method": "rhf"
			},
			{
				"type": "unocc",
				"energy": 0.00558,
				"method": "rhf"
			},
			{
				"type": "unocc",
				"energy": 0.04314,
				"method": "rhf"
			},
			{
				"type": "unocc",
				"energy": 0.04848,
				"method": "rhf"
			}
		],
		"cosmo_sigma_profile": { 
			"-0.025": 0.0,
			"-0.024": 0.0,
			"-0.023": 0.0,
			"-0.022": 0.0,
			"-0.021": 0.0,
			"-0.02": 0.0,
			"-0.019": 0.0,
			"-0.018": 0.0,
			"-0.017": 0.0,
			"-0.016": 0.0,
			"-0.015": 0.0,
			"-0.014": 0.0,
			"-0.013": 0.148886970086,
			"-0.012": 1.42087199504,
			"-0.011": 0.615314375816,
			"-0.01": 1.95631666973,
			"-0.009": 2.68468183513,
			"-0.008": 2.91757335688,
			"-0.007": 4.24711382084,
			"-0.006": 9.0070715467,
			"-0.005": 12.9702880968,
			"-0.004": 13.0184150791,
			"-0.003": 14.853446419,
			"-0.002": 16.2486432064,
			"-0.001": 16.8000393931,
			"0.0": 19.0844125246,
			"0.001": 30.0759598676,
			"0.002": 24.7025357968,
			"0.003": 14.95232325,
			"0.004": 16.0149186185,
			"0.005": 10.2641531257,
			"0.006": 2.70655361694,
			"0.007": 1.40840807865,
			"0.008": 1.85745453836,
			"0.009": 1.35628910288,
			"0.01": 1.9725421579,
			"0.011": 3.30446284206,
			"0.012": 3.00079100398,
			"0.013": 0.0174201822919,
			"0.014": 0.0,
			"0.015": 0.0,
			"0.016": 0.0,
			"0.017": 0.0,
			"0.018": 0.0,
			"0.019": 0.0,
			"0.02": 0.0,
			"0.021": 0.0,
			"0.022": 0.0,
			"0.023": 0.0,
			"0.024": 0.0,
			"0.025": 0.0
		}
	}
}
