{
	 "smiles": "CC1=CC(=O)C=CC1=O", 
	 "Tm": 342.15, 
	 "num_atms": 15, 
	 "gaussian": { 
		 "optdone": 1, 
		 "sigma_profile": "yes", 
		 "theory": "DFT", 
		 "functional": "B3LYP", 
		 "basiset": "6-31G**", 
		 "properties": { 
			 "R2extent": 1430.5514, 
			 "electric_dipole_moment_norm": 0.717145152671, 
			 "electric_quadrupole_moment_norm": 13.8090152842, 
			 "total_energy": -420.77491397, 
			 "HOMO_LUMO_gap": 0.1406, 
			 "cosmo_polarized_energy": -8.75, 
			 "cosmo_cavitation_energy": 19.77, 
			 "cosmo_dispersion_energy": -14.41, 
			 "cosmo_repulsion_energy": 1.18, 
			 "cosmo_total_nonelectrostatic_energy": 6.53, 
			 "SMD_solvation_energy": 4.9 
		},
		"coords": [
			{
				"x": -0.3924636074,
				"y": 0.2692508381,
				"z": -1.862669113,
				"element": "C" 
			},
			{
				"x": 0.1616484483,
				"y": -0.3896457761,
				"z": -0.6351973879,
				"element": "C" 
			},
			{
				"x": -0.3486983924,
				"y": -0.2369338132,
				"z": 0.6036891056,
				"element": "C" 
			},
			{
				"x": 0.2261682303,
				"y": -0.9041216967,
				"z": 1.7941596165,
				"element": "C" 
			},
			{
				"x": -0.2568012978,
				"y": -0.7496059873,
				"z": 2.910745665,
				"element": "O" 
			},
			{
				"x": 1.414516698,
				"y": -1.7728704271,
				"z": 1.5861355531,
				"element": "C" 
			},
			{
				"x": 1.9398319545,
				"y": -1.939981786,
				"z": 0.3627755018,
				"element": "C" 
			},
			{
				"x": 1.3605356735,
				"y": -1.2691664113,
				"z": -0.8290923851,
				"element": "C" 
			},
			{
				"x": 1.8513221041,
				"y": -1.4303132668,
				"z": -1.9407069508,
				"element": "O" 
			},
			{
				"x": -1.2605452657,
				"y": 0.8868371437,
				"z": -1.6228119195,
				"element": "H" 
			},
			{
				"x": -0.6807057772,
				"y": -0.48243112,
				"z": -2.6049875454,
				"element": "H" 
			},
			{
				"x": 0.3702094555,
				"y": 0.8923751816,
				"z": -2.3414149486,
				"element": "H" 
			},
			{
				"x": -1.2161414485,
				"y": 0.3895259804,
				"z": 0.7944470252,
				"element": "H" 
			},
			{
				"x": 1.8186919117,
				"y": -2.2518319622,
				"z": 2.4731290461,
				"element": "H" 
			},
			{
				"x": 2.8067313132,
				"y": -2.566186897,
				"z": 0.173098737,
				"element": "H" 
			}
		],
		 "valence_orbital": [ 
			{
				"type": "occ",
				"energy": -0.38897,
				"method": "rhf"
			},
			{
				"type": "occ",
				"energy": -0.30153,
				"method": "rhf"
			},
			{
				"type": "occ",
				"energy": -0.28748,
				"method": "rhf"
			},
			{
				"type": "occ",
				"energy": -0.27532,
				"method": "rhf"
			},
			{
				"type": "occ",
				"energy": -0.26505,
				"method": "rhf"
			},
			{
				"type": "unocc",
				"energy": -0.12445,
				"method": "rhf"
			},
			{
				"type": "unocc",
				"energy": -0.01903,
				"method": "rhf"
			},
			{
				"type": "unocc",
				"energy": 0.01435,
				"method": "rhf"
			},
			{
				"type": "unocc",
				"energy": 0.09876,
				"method": "rhf"
			},
			{
				"type": "unocc",
				"energy": 0.10768,
				"method": "rhf"
			}
		],
		"cosmo_sigma_profile": { 
			"-0.025": 0.0,
			"-0.024": 0.0,
			"-0.023": 0.0,
			"-0.022": 0.0,
			"-0.021": 0.0,
			"-0.02": 0.0,
			"-0.019": 0.0,
			"-0.018": 0.0,
			"-0.017": 0.0,
			"-0.016": 0.0,
			"-0.015": 0.0,
			"-0.014": 0.0,
			"-0.013": 0.0,
			"-0.012": 0.0,
			"-0.011": 0.0,
			"-0.01": 0.0,
			"-0.009": 0.281501911292,
			"-0.008": 3.61773908004,
			"-0.007": 5.97037674615,
			"-0.006": 7.76955927085,
			"-0.005": 12.9641093845,
			"-0.004": 14.9542861326,
			"-0.003": 15.504458991,
			"-0.002": 16.6714523601,
			"-0.001": 18.5855757308,
			"0.0": 12.0207588545,
			"0.001": 7.32678449408,
			"0.002": 2.81825289451,
			"0.003": 2.55419276091,
			"0.004": 3.87182437306,
			"0.005": 2.8464798255,
			"0.006": 2.23195146748,
			"0.007": 2.27664887689,
			"0.008": 3.70550977959,
			"0.009": 4.5128826608,
			"0.01": 6.13414990117,
			"0.011": 7.93521056926,
			"0.012": 3.5320161381,
			"0.013": 0.188983575946,
			"0.014": 0.0,
			"0.015": 0.0,
			"0.016": 0.0,
			"0.017": 0.0,
			"0.018": 0.0,
			"0.019": 0.0,
			"0.02": 0.0,
			"0.021": 0.0,
			"0.022": 0.0,
			"0.023": 0.0,
			"0.024": 0.0,
			"0.025": 0.0
		}
	}
}
