{
	 "smiles": "COC1=CC=C(C=C1)C1=C(C)SC(=C1)C(O)=O", 
	 "Tm": 460.15, 
	 "num_atms": 29, 
	 "gaussian": { 
		 "optdone": 1, 
		 "sigma_profile": "yes", 
		 "theory": "DFT", 
		 "functional": "B3LYP", 
		 "basiset": "6-31G**", 
		 "properties": { 
			 "R2extent": 7525.6102, 
			 "electric_dipole_moment_norm": 6.78397691476, 
			 "electric_quadrupole_moment_norm": 26.3704261966, 
			 "total_energy": -1126.46863153, 
			 "HOMO_LUMO_gap": 0.16119, 
			 "cosmo_polarized_energy": -16.24, 
			 "cosmo_cavitation_energy": 34.98, 
			 "cosmo_dispersion_energy": -25.7, 
			 "cosmo_repulsion_energy": 1.95, 
			 "cosmo_total_nonelectrostatic_energy": 11.22, 
			 "SMD_solvation_energy": 7.48 
		},
		"coords": [
			{
				"x": 1.2065194249,
				"y": 1.7103283955,
				"z": -4.0925174917,
				"element": "C" 
			},
			{
				"x": 0.6502285197,
				"y": 2.3721474078,
				"z": -2.967010359,
				"element": "O" 
			},
			{
				"x": 0.1787526385,
				"y": 1.6128504746,
				"z": -1.9382204234,
				"element": "C" 
			},
			{
				"x": 0.1980074465,
				"y": 0.2140147419,
				"z": -1.9032437265,
				"element": "C" 
			},
			{
				"x": -0.3151149119,
				"y": -0.4569779227,
				"z": -0.7904698292,
				"element": "C" 
			},
			{
				"x": -0.8598160564,
				"y": 0.2339342638,
				"z": 0.299699496,
				"element": "C" 
			},
			{
				"x": -0.8621035364,
				"y": 1.6420200994,
				"z": 0.2458703205,
				"element": "C" 
			},
			{
				"x": -0.3541913556,
				"y": 2.3224560253,
				"z": -0.8503768465,
				"element": "C" 
			},
			{
				"x": -1.3934667795,
				"y": -0.4671179957,
				"z": 1.4903365205,
				"element": "C" 
			},
			{
				"x": -2.2263379634,
				"y": -1.5743725265,
				"z": 1.4627363881,
				"element": "C" 
			},
			{
				"x": -2.8129437878,
				"y": -2.2960747677,
				"z": 0.2850605908,
				"element": "C" 
			},
			{
				"x": -2.6427995473,
				"y": -2.0866675733,
				"z": 3.0765127717,
				"element": "S" 
			},
			{
				"x": -1.6886501789,
				"y": -0.8110398614,
				"z": 3.7998283328,
				"element": "C" 
			},
			{
				"x": -1.1066661829,
				"y": -0.0430300344,
				"z": 2.825913043,
				"element": "C" 
			},
			{
				"x": -1.5217177039,
				"y": -0.5927226204,
				"z": 5.2532788972,
				"element": "C" 
			},
			{
				"x": -1.9904568063,
				"y": -1.5587348549,
				"z": 6.0905713062,
				"element": "O" 
			},
			{
				"x": -0.9966258804,
				"y": 0.397842763,
				"z": 5.7070807897,
				"element": "O" 
			},
			{
				"x": 0.470253293,
				"y": 1.063281336,
				"z": -4.5865492733,
				"element": "H" 
			},
			{
				"x": 2.0834974203,
				"y": 1.1105827794,
				"z": -3.8170457669,
				"element": "H" 
			},
			{
				"x": 1.513084137,
				"y": 2.4970254726,
				"z": -4.7833509494,
				"element": "H" 
			},
			{
				"x": 0.6171627811,
				"y": -0.3600033696,
				"z": -2.7210261064,
				"element": "H" 
			},
			{
				"x": -0.2611785205,
				"y": -1.5409701882,
				"z": -0.7651700603,
				"element": "H" 
			},
			{
				"x": -1.2831102149,
				"y": 2.2069761245,
				"z": 1.07254669,
				"element": "H" 
			},
			{
				"x": -0.36192676,
				"y": 3.4066239027,
				"z": -0.8931600195,
				"element": "H" 
			},
			{
				"x": -2.2431038014,
				"y": -3.1983341246,
				"z": 0.0310723336,
				"element": "H" 
			},
			{
				"x": -2.8115245869,
				"y": -1.6435291591,
				"z": -0.5913954843,
				"element": "H" 
			},
			{
				"x": -3.8442686134,
				"y": -2.6056961845,
				"z": 0.4802506525,
				"element": "H" 
			},
			{
				"x": -0.464096879,
				"y": 0.7933687229,
				"z": 3.0733593358,
				"element": "H" 
			},
			{
				"x": -2.273405594,
				"y": -2.3444813264,
				"z": 5.601018868,
				"element": "H" 
			}
		],
		 "valence_orbital": [ 
			{
				"type": "occ",
				"energy": -0.27167,
				"method": "rhf"
			},
			{
				"type": "occ",
				"energy": -0.27023,
				"method": "rhf"
			},
			{
				"type": "occ",
				"energy": -0.26007,
				"method": "rhf"
			},
			{
				"type": "occ",
				"energy": -0.24634,
				"method": "rhf"
			},
			{
				"type": "occ",
				"energy": -0.21653,
				"method": "rhf"
			},
			{
				"type": "unocc",
				"energy": -0.05534,
				"method": "rhf"
			},
			{
				"type": "unocc",
				"energy": -0.01533,
				"method": "rhf"
			},
			{
				"type": "unocc",
				"energy": -0.01201,
				"method": "rhf"
			},
			{
				"type": "unocc",
				"energy": 0.00214,
				"method": "rhf"
			},
			{
				"type": "unocc",
				"energy": 0.0487,
				"method": "rhf"
			}
		],
		"cosmo_sigma_profile": { 
			"-0.025": 0.0,
			"-0.024": 0.0,
			"-0.023": 0.0,
			"-0.022": 0.0,
			"-0.021": 0.0,
			"-0.02": 0.0,
			"-0.019": 0.0,
			"-0.018": 0.374270555706,
			"-0.017": 0.539111707153,
			"-0.016": 0.852910405347,
			"-0.015": 1.2110132205,
			"-0.014": 0.745738499628,
			"-0.013": 0.697060453477,
			"-0.012": 1.2918504224,
			"-0.011": 1.13342492929,
			"-0.01": 0.827455301052,
			"-0.009": 0.443668644869,
			"-0.008": 1.20589517354,
			"-0.007": 2.6137834467,
			"-0.006": 15.4643656396,
			"-0.005": 24.1685623428,
			"-0.004": 26.0303855827,
			"-0.003": 25.5701770972,
			"-0.002": 20.3073736991,
			"-0.001": 18.6523873315,
			"0.0": 15.8342292064,
			"0.001": 17.1446266876,
			"0.002": 22.7017519218,
			"0.003": 20.8542024984,
			"0.004": 13.5470365493,
			"0.005": 13.4172606487,
			"0.006": 4.19684656077,
			"0.007": 3.6902734002,
			"0.008": 4.04380867539,
			"0.009": 4.81416599067,
			"0.01": 5.62547277504,
			"0.011": 5.84561264295,
			"0.012": 5.26498434057,
			"0.013": 1.9094936039,
			"0.014": 0.118060136748,
			"0.015": 0.0,
			"0.016": 0.0,
			"0.017": 0.0,
			"0.018": 0.0,
			"0.019": 0.0,
			"0.02": 0.0,
			"0.021": 0.0,
			"0.022": 0.0,
			"0.023": 0.0,
			"0.024": 0.0,
			"0.025": 0.0
		}
	}
}
