{
	 "smiles": "CC(C)(CC#N)CC#N", 
	 "Tm": 302.85, 
	 "num_atms": 19, 
	 "gaussian": { 
		 "optdone": 1, 
		 "sigma_profile": "yes", 
		 "theory": "DFT", 
		 "functional": "B3LYP", 
		 "basiset": "6-31G**", 
		 "properties": { 
			 "R2extent": 1717.9473, 
			 "electric_dipole_moment_norm": 4.09503988503, 
			 "electric_quadrupole_moment_norm": 16.5555281716, 
			 "total_energy": -382.252752465, 
			 "HOMO_LUMO_gap": 0.3309, 
			 "cosmo_polarized_energy": -15.29, 
			 "cosmo_cavitation_energy": 23.18, 
			 "cosmo_dispersion_energy": -15.25, 
			 "cosmo_repulsion_energy": 1.25, 
			 "cosmo_total_nonelectrostatic_energy": 9.18, 
			 "SMD_solvation_energy": 6.66 
		},
		"coords": [
			{
				"x": 0.8658319078,
				"y": 2.1759095031,
				"z": -0.4997659346,
				"element": "C" 
			},
			{
				"x": 0.3544199817,
				"y": 0.833627167,
				"z": 0.0507417468,
				"element": "C" 
			},
			{
				"x": 0.9027236236,
				"y": -0.3339034076,
				"z": -0.7881039052,
				"element": "C" 
			},
			{
				"x": -1.2008804763,
				"y": 0.7817831906,
				"z": -0.0209324778,
				"element": "C" 
			},
			{
				"x": -1.8700852523,
				"y": 1.8225561148,
				"z": 0.7643539724,
				"element": "C" 
			},
			{
				"x": -2.3773436384,
				"y": 2.6496007056,
				"z": 1.4020004471,
				"element": "N" 
			},
			{
				"x": 0.7726779346,
				"y": 0.666451097,
				"z": 1.5423708393,
				"element": "C" 
			},
			{
				"x": 2.2241584897,
				"y": 0.6553380615,
				"z": 1.7373963667,
				"element": "C" 
			},
			{
				"x": 3.377042163,
				"y": 0.6447013087,
				"z": 1.8728247316,
				"element": "N" 
			},
			{
				"x": 0.5727073457,
				"y": 2.298235471,
				"z": -1.5476658834,
				"element": "H" 
			},
			{
				"x": 0.4614793321,
				"y": 3.0212748337,
				"z": 0.065786108,
				"element": "H" 
			},
			{
				"x": 1.9573206217,
				"y": 2.2230323768,
				"z": -0.4486333325,
				"element": "H" 
			},
			{
				"x": 0.5413570646,
				"y": -1.2997465797,
				"z": -0.417330201,
				"element": "H" 
			},
			{
				"x": 0.5951448721,
				"y": -0.2365535903,
				"z": -1.8343601147,
				"element": "H" 
			},
			{
				"x": 1.9957744084,
				"y": -0.3499806572,
				"z": -0.7597381628,
				"element": "H" 
			},
			{
				"x": -1.5151931508,
				"y": 0.8831390587,
				"z": -1.0661246657,
				"element": "H" 
			},
			{
				"x": -1.5624412024,
				"y": -0.194372327,
				"z": 0.325100381,
				"element": "H" 
			},
			{
				"x": 0.3688642217,
				"y": -0.2720024228,
				"z": 1.9425380623,
				"element": "H" 
			},
			{
				"x": 0.3494417535,
				"y": 1.479010096,
				"z": 2.1444420224,
				"element": "H" 
			}
		],
		 "valence_orbital": [ 
			{
				"type": "occ",
				"energy": -0.36173,
				"method": "rhf"
			},
			{
				"type": "occ",
				"energy": -0.33938,
				"method": "rhf"
			},
			{
				"type": "occ",
				"energy": -0.33405,
				"method": "rhf"
			},
			{
				"type": "occ",
				"energy": -0.3293,
				"method": "rhf"
			},
			{
				"type": "occ",
				"energy": -0.32457,
				"method": "rhf"
			},
			{
				"type": "unocc",
				"energy": 0.00633,
				"method": "rhf"
			},
			{
				"type": "unocc",
				"energy": 0.02218,
				"method": "rhf"
			},
			{
				"type": "unocc",
				"energy": 0.03102,
				"method": "rhf"
			},
			{
				"type": "unocc",
				"energy": 0.0353,
				"method": "rhf"
			},
			{
				"type": "unocc",
				"energy": 0.06077,
				"method": "rhf"
			}
		],
		"cosmo_sigma_profile": { 
			"-0.025": 0.0,
			"-0.024": 0.0,
			"-0.023": 0.0,
			"-0.022": 0.0,
			"-0.021": 0.0,
			"-0.02": 0.0,
			"-0.019": 0.0,
			"-0.018": 0.0,
			"-0.017": 0.0,
			"-0.016": 0.0,
			"-0.015": 0.0,
			"-0.014": 0.0,
			"-0.013": 0.0,
			"-0.012": 0.0,
			"-0.011": 0.0,
			"-0.01": 0.257062736156,
			"-0.009": 3.83742232698,
			"-0.008": 10.5822258157,
			"-0.007": 11.0512555551,
			"-0.006": 9.56682882185,
			"-0.005": 13.7408549924,
			"-0.004": 13.4485500576,
			"-0.003": 14.4703166017,
			"-0.002": 14.0403418507,
			"-0.001": 16.7866586918,
			"0.0": 12.9531072807,
			"0.001": 6.17969780516,
			"0.002": 2.2299018862,
			"0.003": 2.92952760773,
			"0.004": 4.9224268541,
			"0.005": 2.8997600264,
			"0.006": 5.39610583323,
			"0.007": 4.10403351532,
			"0.008": 6.0325324019,
			"0.009": 6.37891718054,
			"0.01": 6.31760236223,
			"0.011": 5.71124101897,
			"0.012": 5.01818048911,
			"0.013": 4.01073442871,
			"0.014": 0.493324518661,
			"0.015": 0.0,
			"0.016": 0.0,
			"0.017": 0.0,
			"0.018": 0.0,
			"0.019": 0.0,
			"0.02": 0.0,
			"0.021": 0.0,
			"0.022": 0.0,
			"0.023": 0.0,
			"0.024": 0.0,
			"0.025": 0.0
		}
	}
}
