{
	 "smiles": "NC1=C(OCC2=CC(Cl)=CC=C2)C=CC=N1", 
	 "Tm": 358.15, 
	 "num_atms": 27, 
	 "gaussian": { 
		 "optdone": 1, 
		 "sigma_profile": "yes", 
		 "theory": "DFT", 
		 "functional": "B3LYP", 
		 "basiset": "6-31G**", 
		 "properties": { 
			 "R2extent": 6482.7564, 
			 "electric_dipole_moment_norm": 1.03099748787, 
			 "electric_quadrupole_moment_norm": 19.5220487764, 
			 "total_energy": -1108.82241625, 
			 "HOMO_LUMO_gap": 0.17659, 
			 "cosmo_polarized_energy": -12.1, 
			 "cosmo_cavitation_energy": 33.41, 
			 "cosmo_dispersion_energy": -24.42, 
			 "cosmo_repulsion_energy": 1.9, 
			 "cosmo_total_nonelectrostatic_energy": 10.89, 
			 "SMD_solvation_energy": 4.0 
		},
		"coords": [
			{
				"x": 0.9420982194,
				"y": -2.0819898764,
				"z": -2.4322867025,
				"element": "N" 
			},
			{
				"x": 1.3186031411,
				"y": -0.7615007135,
				"z": -2.5721208256,
				"element": "C" 
			},
			{
				"x": 0.7786357174,
				"y": 0.2161904683,
				"z": -1.6907827878,
				"element": "C" 
			},
			{
				"x": -0.1443076012,
				"y": -0.2640898991,
				"z": -0.7955719356,
				"element": "O" 
			},
			{
				"x": -0.6863139735,
				"y": 0.6412930866,
				"z": 0.1608584613,
				"element": "C" 
			},
			{
				"x": -1.5624535472,
				"y": -0.1308309233,
				"z": 1.118535656,
				"element": "C" 
			},
			{
				"x": -2.7643761759,
				"y": 0.4273922086,
				"z": 1.5633189961,
				"element": "C" 
			},
			{
				"x": -3.5442933785,
				"y": -0.2657925707,
				"z": 2.4886262787,
				"element": "C" 
			},
			{
				"x": -5.0538148683,
				"y": 0.4482373412,
				"z": 3.0411299055,
				"element": "Cl" 
			},
			{
				"x": -3.1579843556,
				"y": -1.5131056601,
				"z": 2.974009773,
				"element": "C" 
			},
			{
				"x": -1.9597596834,
				"y": -2.0668014818,
				"z": 2.5176767941,
				"element": "C" 
			},
			{
				"x": -1.1629482262,
				"y": -1.3834652997,
				"z": 1.6007919443,
				"element": "C" 
			},
			{
				"x": 1.2011724811,
				"y": 1.5290860419,
				"z": -1.8133671019,
				"element": "C" 
			},
			{
				"x": 2.1550282806,
				"y": 1.8425392602,
				"z": -2.797242414,
				"element": "C" 
			},
			{
				"x": 2.6212890189,
				"y": 0.8219849272,
				"z": -3.6106396025,
				"element": "C" 
			},
			{
				"x": 2.211729395,
				"y": -0.4549324493,
				"z": -3.5109219808,
				"element": "N" 
			},
			{
				"x": 0.043949499,
				"y": -2.2457259162,
				"z": -2.0022597213,
				"element": "H" 
			},
			{
				"x": 1.1603422415,
				"y": -2.6570876769,
				"z": -3.2333393527,
				"element": "H" 
			},
			{
				"x": -1.2642575888,
				"y": 1.4294359657,
				"z": -0.3415174742,
				"element": "H" 
			},
			{
				"x": 0.1361775254,
				"y": 1.1297066217,
				"z": 0.7055754775,
				"element": "H" 
			},
			{
				"x": -3.0976245645,
				"y": 1.3918280373,
				"z": 1.1935635821,
				"element": "H" 
			},
			{
				"x": -3.7822166777,
				"y": -2.037721536,
				"z": 3.6885836022,
				"element": "H" 
			},
			{
				"x": -1.6484964953,
				"y": -3.0397554746,
				"z": 2.8862766934,
				"element": "H" 
			},
			{
				"x": -0.2353233194,
				"y": -1.8191701814,
				"z": 1.2450357195,
				"element": "H" 
			},
			{
				"x": 0.8070581187,
				"y": 2.3063214381,
				"z": -1.1682753048,
				"element": "H" 
			},
			{
				"x": 2.5101251993,
				"y": 2.8601147882,
				"z": -2.9193172884,
				"element": "H" 
			},
			{
				"x": 3.3550616182,
				"y": 1.0231394741,
				"z": -4.3884403917,
				"element": "H" 
			}
		],
		 "valence_orbital": [ 
			{
				"type": "occ",
				"energy": -0.2676,
				"method": "rhf"
			},
			{
				"type": "occ",
				"energy": -0.25776,
				"method": "rhf"
			},
			{
				"type": "occ",
				"energy": -0.25264,
				"method": "rhf"
			},
			{
				"type": "occ",
				"energy": -0.25067,
				"method": "rhf"
			},
			{
				"type": "occ",
				"energy": -0.20036,
				"method": "rhf"
			},
			{
				"type": "unocc",
				"energy": -0.02377,
				"method": "rhf"
			},
			{
				"type": "unocc",
				"energy": -0.02013,
				"method": "rhf"
			},
			{
				"type": "unocc",
				"energy": -0.00544,
				"method": "rhf"
			},
			{
				"type": "unocc",
				"energy": 0.01576,
				"method": "rhf"
			},
			{
				"type": "unocc",
				"energy": 0.02497,
				"method": "rhf"
			}
		],
		"cosmo_sigma_profile": { 
			"-0.025": 0.0,
			"-0.024": 0.0,
			"-0.023": 0.0,
			"-0.022": 0.0,
			"-0.021": 0.0,
			"-0.02": 0.0,
			"-0.019": 0.0,
			"-0.018": 0.0,
			"-0.017": 0.0,
			"-0.016": 0.0,
			"-0.015": 0.0,
			"-0.014": 0.0,
			"-0.013": 0.128556582704,
			"-0.012": 1.60491552496,
			"-0.011": 1.22555030907,
			"-0.01": 2.20905444885,
			"-0.009": 1.82342020748,
			"-0.008": 3.86369200476,
			"-0.007": 11.5953584215,
			"-0.006": 17.5608659981,
			"-0.005": 18.293118053,
			"-0.004": 16.5740989117,
			"-0.003": 15.5665320818,
			"-0.002": 13.9042734683,
			"-0.001": 14.3165027682,
			"0.0": 16.1193106701,
			"0.001": 18.8849518871,
			"0.002": 23.5659596681,
			"0.003": 26.5070305051,
			"0.004": 28.541344501,
			"0.005": 17.5004182956,
			"0.006": 3.0757973089,
			"0.007": 2.73768480701,
			"0.008": 2.51959769059,
			"0.009": 2.61407873637,
			"0.01": 1.91968112325,
			"0.011": 1.41996428832,
			"0.012": 1.77509041734,
			"0.013": 0.934679806403,
			"0.014": 1.0487511663,
			"0.015": 0.71216561283,
			"0.016": 0.722668349765,
			"0.017": 0.0372193645771,
			"0.018": 0.0,
			"0.019": 0.0,
			"0.02": 0.0,
			"0.021": 0.0,
			"0.022": 0.0,
			"0.023": 0.0,
			"0.024": 0.0,
			"0.025": 0.0
		}
	}
}
