{
	 "smiles": "CN(C)C1=CC(F)=C(C=C1)C(N)=N", 
	 "Tm": 407.15, 
	 "num_atms": 25, 
	 "gaussian": { 
		 "optdone": 1, 
		 "sigma_profile": "yes", 
		 "theory": "DFT", 
		 "functional": "B3LYP", 
		 "basiset": "6-31G**", 
		 "properties": { 
			 "R2extent": 3022.4618, 
			 "electric_dipole_moment_norm": 3.43960507908, 
			 "electric_quadrupole_moment_norm": 19.5491161056, 
			 "total_energy": -614.273117224, 
			 "HOMO_LUMO_gap": 0.18228, 
			 "cosmo_polarized_energy": -13.72, 
			 "cosmo_cavitation_energy": 27.98, 
			 "cosmo_dispersion_energy": -20.85, 
			 "cosmo_repulsion_energy": 1.62, 
			 "cosmo_total_nonelectrostatic_energy": 8.74, 
			 "SMD_solvation_energy": 4.1 
		},
		"coords": [
			{
				"x": -2.1275537696,
				"y": -3.2995418939,
				"z": 0.3630319334,
				"element": "C" 
			},
			{
				"x": -2.3022774357,
				"y": -1.8637772076,
				"z": 0.4999952295,
				"element": "N" 
			},
			{
				"x": -3.5411223898,
				"y": -1.359444572,
				"z": 1.0700060565,
				"element": "C" 
			},
			{
				"x": -1.2038256091,
				"y": -1.0297749741,
				"z": 0.4039107754,
				"element": "C" 
			},
			{
				"x": 0.0595289434,
				"y": -1.5247408461,
				"z": 0.01896499,
				"element": "C" 
			},
			{
				"x": 1.1369837862,
				"y": -0.660943897,
				"z": -0.097038252,
				"element": "C" 
			},
			{
				"x": 2.3152470674,
				"y": -1.2498816004,
				"z": -0.4682005319,
				"element": "F" 
			},
			{
				"x": 1.0771132498,
				"y": 0.7128166858,
				"z": 0.1518744685,
				"element": "C" 
			},
			{
				"x": -0.1887931343,
				"y": 1.180704773,
				"z": 0.5520224638,
				"element": "C" 
			},
			{
				"x": -1.2938009212,
				"y": 0.3577307215,
				"z": 0.6804020711,
				"element": "C" 
			},
			{
				"x": 2.2019231411,
				"y": 1.6919905215,
				"z": 0.0534048821,
				"element": "C" 
			},
			{
				"x": 3.3705523593,
				"y": 1.2485543112,
				"z": -0.5392396768,
				"element": "N" 
			},
			{
				"x": 1.9922835863,
				"y": 2.8916399512,
				"z": 0.4733328534,
				"element": "N" 
			},
			{
				"x": -1.6963057783,
				"y": -3.5525636921,
				"z": -0.6126488881,
				"element": "H" 
			},
			{
				"x": -1.4770260749,
				"y": -3.7254419103,
				"z": 1.1422683542,
				"element": "H" 
			},
			{
				"x": -3.1010922398,
				"y": -3.7872927856,
				"z": 0.4283960277,
				"element": "H" 
			},
			{
				"x": -3.4281548445,
				"y": -1.0379024744,
				"z": 2.1162204442,
				"element": "H" 
			},
			{
				"x": -3.9238164821,
				"y": -0.5091988185,
				"z": 0.4940762042,
				"element": "H" 
			},
			{
				"x": -4.2958612141,
				"y": -2.1463406378,
				"z": 1.0352662848,
				"element": "H" 
			},
			{
				"x": 0.2346855273,
				"y": -2.5710250056,
				"z": -0.1910414555,
				"element": "H" 
			},
			{
				"x": -0.2662369418,
				"y": 2.2408973924,
				"z": 0.7656909561,
				"element": "H" 
			},
			{
				"x": -2.2324408184,
				"y": 0.7945042934,
				"z": 0.9965698581,
				"element": "H" 
			},
			{
				"x": 4.1893931594,
				"y": 1.822309923,
				"z": -0.4046596269,
				"element": "H" 
			},
			{
				"x": 3.5309726949,
				"y": 0.2563973286,
				"z": -0.6054898386,
				"element": "H" 
			},
			{
				"x": 2.8208241384,
				"y": 3.4752244137,
				"z": 0.3354844164,
				"element": "H" 
			}
		],
		 "valence_orbital": [ 
			{
				"type": "occ",
				"energy": -0.28184,
				"method": "rhf"
			},
			{
				"type": "occ",
				"energy": -0.24802,
				"method": "rhf"
			},
			{
				"type": "occ",
				"energy": -0.2416,
				"method": "rhf"
			},
			{
				"type": "occ",
				"energy": -0.22436,
				"method": "rhf"
			},
			{
				"type": "occ",
				"energy": -0.19265,
				"method": "rhf"
			},
			{
				"type": "unocc",
				"energy": -0.01037,
				"method": "rhf"
			},
			{
				"type": "unocc",
				"energy": 0.00885,
				"method": "rhf"
			},
			{
				"type": "unocc",
				"energy": 0.07998,
				"method": "rhf"
			},
			{
				"type": "unocc",
				"energy": 0.08255,
				"method": "rhf"
			},
			{
				"type": "unocc",
				"energy": 0.09802,
				"method": "rhf"
			}
		],
		"cosmo_sigma_profile": { 
			"-0.025": 0.0,
			"-0.024": 0.0,
			"-0.023": 0.0,
			"-0.022": 0.0,
			"-0.021": 0.0,
			"-0.02": 0.0,
			"-0.019": 0.0,
			"-0.018": 0.0,
			"-0.017": 0.0,
			"-0.016": 0.0,
			"-0.015": 0.0,
			"-0.014": 0.0866132527812,
			"-0.013": 1.23010127992,
			"-0.012": 2.14751152115,
			"-0.011": 1.60160700603,
			"-0.01": 2.23610091108,
			"-0.009": 3.09150102658,
			"-0.008": 3.44827218508,
			"-0.007": 4.33218951443,
			"-0.006": 8.97651568525,
			"-0.005": 13.5386114065,
			"-0.004": 16.6166554233,
			"-0.003": 20.4968059141,
			"-0.002": 21.8216907942,
			"-0.001": 16.770639603,
			"0.0": 9.53168873665,
			"0.001": 12.3218329652,
			"0.002": 12.8781788138,
			"0.003": 14.1665376987,
			"0.004": 18.5352290061,
			"0.005": 12.3437756387,
			"0.006": 4.89213904638,
			"0.007": 2.37869709829,
			"0.008": 2.24171744881,
			"0.009": 2.95023754945,
			"0.01": 2.51983049585,
			"0.011": 1.62672432855,
			"0.012": 2.05266207377,
			"0.013": 1.18770201367,
			"0.014": 1.50608267295,
			"0.015": 1.40365930346,
			"0.016": 1.31338386951,
			"0.017": 0.968641590215,
			"0.018": 0.244197659549,
			"0.019": 0.0,
			"0.02": 0.0,
			"0.021": 0.0,
			"0.022": 0.0,
			"0.023": 0.0,
			"0.024": 0.0,
			"0.025": 0.0
		}
	}
}
