{
	 "smiles": "OC(=O)C1=C(NC(=O)NC2=NC=C(Cl)C=C2)C=CC=C1", 
	 "Tm": 519.15, 
	 "num_atms": 30, 
	 "gaussian": { 
		 "optdone": 1, 
		 "sigma_profile": "yes", 
		 "theory": "DFT", 
		 "functional": "B3LYP", 
		 "basiset": "6-31G**", 
		 "properties": { 
			 "R2extent": 8734.232, 
			 "electric_dipole_moment_norm": 3.6041833763, 
			 "electric_quadrupole_moment_norm": 17.8742970983, 
			 "total_energy": -1351.57950219, 
			 "HOMO_LUMO_gap": 0.17021, 
			 "cosmo_polarized_energy": -17.44, 
			 "cosmo_cavitation_energy": 37.11, 
			 "cosmo_dispersion_energy": -27.01, 
			 "cosmo_repulsion_energy": 2.02, 
			 "cosmo_total_nonelectrostatic_energy": 12.12, 
			 "SMD_solvation_energy": 7.33 
		},
		"coords": [
			{
				"x": -0.3922026415,
				"y": 0.3932571011,
				"z": 2.0607781908,
				"element": "O" 
			},
			{
				"x": 0.7040416482,
				"y": -0.4124399719,
				"z": 2.0840550432,
				"element": "C" 
			},
			{
				"x": 1.0554212798,
				"y": -0.9419011832,
				"z": 3.1211045368,
				"element": "O" 
			},
			{
				"x": 1.4045828517,
				"y": -0.5551841409,
				"z": 0.7806158569,
				"element": "C" 
			},
			{
				"x": 1.010992894,
				"y": -0.0006710318,
				"z": -0.4713789581,
				"element": "C" 
			},
			{
				"x": -0.1964439435,
				"y": 0.7096661645,
				"z": -0.607416617,
				"element": "N" 
			},
			{
				"x": -0.5488527278,
				"y": 1.5022212347,
				"z": -1.6703420104,
				"element": "C" 
			},
			{
				"x": 0.1436200656,
				"y": 1.7822291707,
				"z": -2.6408074256,
				"element": "O" 
			},
			{
				"x": -1.8430464616,
				"y": 2.0664139889,
				"z": -1.6237772438,
				"element": "N" 
			},
			{
				"x": -2.9429739972,
				"y": 1.8767867381,
				"z": -0.8000305636,
				"element": "C" 
			},
			{
				"x": -2.8201937653,
				"y": 1.0763403208,
				"z": 0.2631836983,
				"element": "N" 
			},
			{
				"x": -3.8783425754,
				"y": 0.8876690077,
				"z": 1.0587937448,
				"element": "C" 
			},
			{
				"x": -5.1070305256,
				"y": 1.4944531961,
				"z": 0.8282382369,
				"element": "C" 
			},
			{
				"x": -6.4528262084,
				"y": 1.2068003188,
				"z": 1.9096846577,
				"element": "Cl" 
			},
			{
				"x": -5.245538401,
				"y": 2.3380233936,
				"z": -0.2795428658,
				"element": "C" 
			},
			{
				"x": -4.1535295515,
				"y": 2.534598945,
				"z": -1.1074570831,
				"element": "C" 
			},
			{
				"x": 1.8454306415,
				"y": -0.2207823564,
				"z": -1.5853516731,
				"element": "C" 
			},
			{
				"x": 3.0147034991,
				"y": -0.962566739,
				"z": -1.471450567,
				"element": "C" 
			},
			{
				"x": 3.3978548049,
				"y": -1.5198217882,
				"z": -0.249464598,
				"element": "C" 
			},
			{
				"x": 2.5897127016,
				"y": -1.3106722628,
				"z": 0.8558917076,
				"element": "C" 
			},
			{
				"x": -0.7315860287,
				"y": 0.3979632537,
				"z": 2.9707696133,
				"element": "H" 
			},
			{
				"x": -0.8796674479,
				"y": 0.6523946144,
				"z": 0.149061439,
				"element": "H" 
			},
			{
				"x": -1.9802780497,
				"y": 2.6475313687,
				"z": -2.4390302637,
				"element": "H" 
			},
			{
				"x": -3.7381565859,
				"y": 0.2259378232,
				"z": 1.9093970287,
				"element": "H" 
			},
			{
				"x": -6.1927077987,
				"y": 2.8256791578,
				"z": -0.48330702,
				"element": "H" 
			},
			{
				"x": -4.2271923414,
				"y": 3.1811728467,
				"z": -1.9763643456,
				"element": "H" 
			},
			{
				"x": 1.5632125171,
				"y": 0.2079666217,
				"z": -2.5347262418,
				"element": "H" 
			},
			{
				"x": 3.6287561025,
				"y": -1.1091450353,
				"z": -2.3557278023,
				"element": "H" 
			},
			{
				"x": 4.3094286296,
				"y": -2.102172196,
				"z": -0.1626464068,
				"element": "H" 
			},
			{
				"x": 2.8506114154,
				"y": -1.7190485606,
				"z": 1.8255479316,
				"element": "H" 
			}
		],
		 "valence_orbital": [ 
			{
				"type": "occ",
				"energy": -0.27879,
				"method": "rhf"
			},
			{
				"type": "occ",
				"energy": -0.27481,
				"method": "rhf"
			},
			{
				"type": "occ",
				"energy": -0.25597,
				"method": "rhf"
			},
			{
				"type": "occ",
				"energy": -0.24164,
				"method": "rhf"
			},
			{
				"type": "occ",
				"energy": -0.22396,
				"method": "rhf"
			},
			{
				"type": "unocc",
				"energy": -0.05375,
				"method": "rhf"
			},
			{
				"type": "unocc",
				"energy": -0.04689,
				"method": "rhf"
			},
			{
				"type": "unocc",
				"energy": -0.03195,
				"method": "rhf"
			},
			{
				"type": "unocc",
				"energy": -0.00234,
				"method": "rhf"
			},
			{
				"type": "unocc",
				"energy": 0.01389,
				"method": "rhf"
			}
		],
		"cosmo_sigma_profile": { 
			"-0.025": 0.0,
			"-0.024": 0.0,
			"-0.023": 0.0,
			"-0.022": 0.0,
			"-0.021": 0.0,
			"-0.02": 0.0,
			"-0.019": 0.0171308243817,
			"-0.018": 0.548823226935,
			"-0.017": 0.931145952078,
			"-0.016": 0.864509535981,
			"-0.015": 2.23086988906,
			"-0.014": 1.78444450452,
			"-0.013": 1.46263807405,
			"-0.012": 2.29150314175,
			"-0.011": 1.37067160951,
			"-0.01": 1.8694210962,
			"-0.009": 2.94378715688,
			"-0.008": 6.74664101324,
			"-0.007": 7.89763723603,
			"-0.006": 11.7958527211,
			"-0.005": 12.212988388,
			"-0.004": 13.8478729043,
			"-0.003": 13.3404965243,
			"-0.002": 18.5864245713,
			"-0.001": 23.7845771986,
			"0.0": 33.5177277683,
			"0.001": 32.0218826398,
			"0.002": 23.3866680853,
			"0.003": 22.2013173405,
			"0.004": 23.953859875,
			"0.005": 9.76150063137,
			"0.006": 4.80456761959,
			"0.007": 2.53061431371,
			"0.008": 2.87088030119,
			"0.009": 2.79742579278,
			"0.01": 3.56366750592,
			"0.011": 5.63385804947,
			"0.012": 6.97805718134,
			"0.013": 2.75062883897,
			"0.014": 0.0617307175349,
			"0.015": 0.0,
			"0.016": 0.0,
			"0.017": 0.0,
			"0.018": 0.0,
			"0.019": 0.0,
			"0.02": 0.0,
			"0.021": 0.0,
			"0.022": 0.0,
			"0.023": 0.0,
			"0.024": 0.0,
			"0.025": 0.0
		}
	}
}
