{
	 "smiles": "NCC1=C(C=CC(=C1)C(F)(F)F)N1CCOCC1", 
	 "Tm": 305.65, 
	 "num_atms": 33, 
	 "gaussian": { 
		 "optdone": 1, 
		 "sigma_profile": "yes", 
		 "theory": "DFT", 
		 "functional": "B3LYP", 
		 "basiset": "6-31G**", 
		 "properties": { 
			 "R2extent": 6199.3851, 
			 "electric_dipole_moment_norm": 3.76881843553, 
			 "electric_quadrupole_moment_norm": 20.0481189267, 
			 "total_energy": -950.548201461, 
			 "HOMO_LUMO_gap": 0.20082, 
			 "cosmo_polarized_energy": -10.95, 
			 "cosmo_cavitation_energy": 35.7, 
			 "cosmo_dispersion_energy": -25.34, 
			 "cosmo_repulsion_energy": 1.92, 
			 "cosmo_total_nonelectrostatic_energy": 12.27, 
			 "SMD_solvation_energy": 5.52 
		},
		"coords": [
			{
				"x": 0.0009781287,
				"y": -1.9742326852,
				"z": 2.2457246443,
				"element": "N" 
			},
			{
				"x": 0.7413468847,
				"y": -1.5354120798,
				"z": 1.0584418053,
				"element": "C" 
			},
			{
				"x": -0.1797601725,
				"y": -0.9216093496,
				"z": 0.0180027693,
				"element": "C" 
			},
			{
				"x": 0.2919378841,
				"y": 0.0460393103,
				"z": -0.9055215325,
				"element": "C" 
			},
			{
				"x": -0.6230964561,
				"y": 0.6567441751,
				"z": -1.7786272914,
				"element": "C" 
			},
			{
				"x": -1.9715975443,
				"y": 0.3111148687,
				"z": -1.7692190766,
				"element": "C" 
			},
			{
				"x": -2.4270665798,
				"y": -0.6638458398,
				"z": -0.8831707927,
				"element": "C" 
			},
			{
				"x": -1.5311061943,
				"y": -1.2677499348,
				"z": 0.0024024356,
				"element": "C" 
			},
			{
				"x": -3.8639993709,
				"y": -1.0998552766,
				"z": -0.8985844878,
				"element": "C" 
			},
			{
				"x": -4.6763387159,
				"y": -0.1543886058,
				"z": -1.4257088833,
				"element": "F" 
			},
			{
				"x": -4.322031238,
				"y": -1.3789252085,
				"z": 0.343384408,
				"element": "F" 
			},
			{
				"x": -4.043400463,
				"y": -2.2227006772,
				"z": -1.6366165599,
				"element": "F" 
			},
			{
				"x": 1.6670151717,
				"y": 0.40863527,
				"z": -0.8985953505,
				"element": "N" 
			},
			{
				"x": 2.0158526338,
				"y": 1.7394259449,
				"z": -1.4001805429,
				"element": "C" 
			},
			{
				"x": 3.4600096485,
				"y": 2.0551010335,
				"z": -1.0114102897,
				"element": "C" 
			},
			{
				"x": 4.358385447,
				"y": 1.0867944375,
				"z": -1.5343344602,
				"element": "O" 
			},
			{
				"x": 4.0327047717,
				"y": -0.2135491248,
				"z": -1.0648621805,
				"element": "C" 
			},
			{
				"x": 2.6009509132,
				"y": -0.5966034247,
				"z": -1.433069217,
				"element": "C" 
			},
			{
				"x": -0.3410850071,
				"y": -1.1647468162,
				"z": 2.7583939019,
				"element": "H" 
			},
			{
				"x": 0.6234236109,
				"y": -2.4767911483,
				"z": 2.872165673,
				"element": "H" 
			},
			{
				"x": 1.230376835,
				"y": -2.4283851747,
				"z": 0.6438428076,
				"element": "H" 
			},
			{
				"x": 1.5464389099,
				"y": -0.8114282318,
				"z": 1.2622713213,
				"element": "H" 
			},
			{
				"x": -0.2788522191,
				"y": 1.4058715218,
				"z": -2.4824701211,
				"element": "H" 
			},
			{
				"x": -2.6630339033,
				"y": 0.7948969927,
				"z": -2.4504865476,
				"element": "H" 
			},
			{
				"x": -1.8794405846,
				"y": -1.9940096173,
				"z": 0.7283540621,
				"element": "H" 
			},
			{
				"x": 1.340688029,
				"y": 2.4783247072,
				"z": -0.9571108791,
				"element": "H" 
			},
			{
				"x": 1.9284915873,
				"y": 1.8086926325,
				"z": -2.4991898364,
				"element": "H" 
			},
			{
				"x": 3.5413114947,
				"y": 2.0991860702,
				"z": 0.0868797986,
				"element": "H" 
			},
			{
				"x": 3.7653052629,
				"y": 3.020259537,
				"z": -1.4260415266,
				"element": "H" 
			},
			{
				"x": 4.7446033399,
				"y": -0.9016332785,
				"z": -1.5302636558,
				"element": "H" 
			},
			{
				"x": 4.1556690483,
				"y": -0.2650521714,
				"z": 0.0296876968,
				"element": "H" 
			},
			{
				"x": 2.3645624536,
				"y": -1.5809173072,
				"z": -1.0231064834,
				"element": "H" 
			},
			{
				"x": 2.5127563941,
				"y": -0.663750549,
				"z": -2.5316816087,
				"element": "H" 
			}
		],
		 "valence_orbital": [ 
			{
				"type": "occ",
				"energy": -0.28194,
				"method": "rhf"
			},
			{
				"type": "occ",
				"energy": -0.26093,
				"method": "rhf"
			},
			{
				"type": "occ",
				"energy": -0.25709,
				"method": "rhf"
			},
			{
				"type": "occ",
				"energy": -0.239,
				"method": "rhf"
			},
			{
				"type": "occ",
				"energy": -0.21715,
				"method": "rhf"
			},
			{
				"type": "unocc",
				"energy": -0.01633,
				"method": "rhf"
			},
			{
				"type": "unocc",
				"energy": -0.00859,
				"method": "rhf"
			},
			{
				"type": "unocc",
				"energy": 0.07598,
				"method": "rhf"
			},
			{
				"type": "unocc",
				"energy": 0.08528,
				"method": "rhf"
			},
			{
				"type": "unocc",
				"energy": 0.09624,
				"method": "rhf"
			}
		],
		"cosmo_sigma_profile": { 
			"-0.025": 0.0,
			"-0.024": 0.0,
			"-0.023": 0.0,
			"-0.022": 0.0,
			"-0.021": 0.0,
			"-0.02": 0.0,
			"-0.019": 0.0,
			"-0.018": 0.0,
			"-0.017": 0.0,
			"-0.016": 0.0,
			"-0.015": 0.0,
			"-0.014": 0.0,
			"-0.013": 0.0,
			"-0.012": 0.0,
			"-0.011": 0.0140951369718,
			"-0.01": 1.74321774134,
			"-0.009": 2.73709631276,
			"-0.008": 2.91246829646,
			"-0.007": 2.73856860626,
			"-0.006": 10.182261799,
			"-0.005": 18.5135165429,
			"-0.004": 24.1212288069,
			"-0.003": 32.471561576,
			"-0.002": 25.9728740197,
			"-0.001": 17.4451161183,
			"0.0": 14.8167494775,
			"0.001": 15.7321661514,
			"0.002": 20.5111206524,
			"0.003": 42.3880803975,
			"0.004": 22.6833071853,
			"0.005": 5.908237628,
			"0.006": 2.69153346748,
			"0.007": 2.99580616035,
			"0.008": 1.82932672671,
			"0.009": 1.47682356601,
			"0.01": 2.22950216515,
			"0.011": 2.09206720304,
			"0.012": 1.90426306247,
			"0.013": 2.35904738576,
			"0.014": 0.80864292646,
			"0.015": 0.792690907808,
			"0.016": 0.434453357208,
			"0.017": 0.0555659579082,
			"0.018": 0.0,
			"0.019": 0.0,
			"0.02": 0.0,
			"0.021": 0.0,
			"0.022": 0.0,
			"0.023": 0.0,
			"0.024": 0.0,
			"0.025": 0.0
		}
	}
}
