{
	 "smiles": "ClC(=O)C1=NC=CS1", 
	 "Tm": 329.15, 
	 "num_atms": 10, 
	 "gaussian": { 
		 "optdone": 1, 
		 "sigma_profile": "yes", 
		 "theory": "DFT", 
		 "functional": "B3LYP", 
		 "basiset": "6-31G**", 
		 "properties": { 
			 "R2extent": 3065.6803, 
			 "electric_dipole_moment_norm": 4.30476046256, 
			 "electric_quadrupole_moment_norm": 12.4979379815, 
			 "total_energy": -1141.96962495, 
			 "HOMO_LUMO_gap": 0.17931, 
			 "cosmo_polarized_energy": -7.81, 
			 "cosmo_cavitation_energy": 18.7, 
			 "cosmo_dispersion_energy": -14.66, 
			 "cosmo_repulsion_energy": 1.17, 
			 "cosmo_total_nonelectrostatic_energy": 5.22, 
			 "SMD_solvation_energy": 2.72 
		},
		"coords": [
			{
				"x": 0.6637886032,
				"y": 3.0328218433,
				"z": 2.785838937,
				"element": "Cl" 
			},
			{
				"x": -0.9504800612,
				"y": 2.9747196127,
				"z": 2.011664826,
				"element": "C" 
			},
			{
				"x": -1.7367548311,
				"y": 3.8708008279,
				"z": 2.1327829113,
				"element": "O" 
			},
			{
				"x": -1.2034952484,
				"y": 1.7477892471,
				"z": 1.2340921006,
				"element": "C" 
			},
			{
				"x": -0.3882550802,
				"y": 0.7411128602,
				"z": 1.0666522207,
				"element": "N" 
			},
			{
				"x": -0.9609150649,
				"y": -0.2190803095,
				"z": 0.2859041382,
				"element": "C" 
			},
			{
				"x": -2.2350142293,
				"y": 0.0531823839,
				"z": -0.1533289831,
				"element": "C" 
			},
			{
				"x": -2.7573387592,
				"y": 1.5843289917,
				"z": 0.4310034877,
				"element": "S" 
			},
			{
				"x": -0.4052003934,
				"y": -1.1202635664,
				"z": 0.0560136446,
				"element": "H" 
			},
			{
				"x": -2.8720349353,
				"y": -0.5594118909,
				"z": -0.776323283,
				"element": "H" 
			}
		],
		 "valence_orbital": [ 
			{
				"type": "occ",
				"energy": -0.3255,
				"method": "rhf"
			},
			{
				"type": "occ",
				"energy": -0.31565,
				"method": "rhf"
			},
			{
				"type": "occ",
				"energy": -0.31462,
				"method": "rhf"
			},
			{
				"type": "occ",
				"energy": -0.29626,
				"method": "rhf"
			},
			{
				"type": "occ",
				"energy": -0.27879,
				"method": "rhf"
			},
			{
				"type": "unocc",
				"energy": -0.09948,
				"method": "rhf"
			},
			{
				"type": "unocc",
				"energy": -0.009,
				"method": "rhf"
			},
			{
				"type": "unocc",
				"energy": -0.00501,
				"method": "rhf"
			},
			{
				"type": "unocc",
				"energy": 0.02453,
				"method": "rhf"
			},
			{
				"type": "unocc",
				"energy": 0.05057,
				"method": "rhf"
			}
		],
		"cosmo_sigma_profile": { 
			"-0.025": 0.0,
			"-0.024": 0.0,
			"-0.023": 0.0,
			"-0.022": 0.0,
			"-0.021": 0.0,
			"-0.02": 0.0,
			"-0.019": 0.0,
			"-0.018": 0.0,
			"-0.017": 0.0,
			"-0.016": 0.0,
			"-0.015": 0.0,
			"-0.014": 0.0,
			"-0.013": 0.0,
			"-0.012": 0.0,
			"-0.011": 1.14450982205,
			"-0.01": 2.7649731191,
			"-0.009": 3.8431836257,
			"-0.008": 3.85959928663,
			"-0.007": 4.05555260373,
			"-0.006": 5.39790971454,
			"-0.005": 5.74001335112,
			"-0.004": 6.83748661847,
			"-0.003": 9.37135926506,
			"-0.002": 12.3813110223,
			"-0.001": 16.7324944419,
			"0.0": 18.4597584575,
			"0.001": 11.6468372582,
			"0.002": 8.48703048635,
			"0.003": 11.0904918176,
			"0.004": 8.5332681386,
			"0.005": 4.9356745305,
			"0.006": 3.90152539614,
			"0.007": 4.44881876052,
			"0.008": 5.25919011129,
			"0.009": 3.26587976051,
			"0.01": 1.48370146203,
			"0.011": 1.3007160903,
			"0.012": 0.830824767213,
			"0.013": 0.444334437609,
			"0.014": 0.0,
			"0.015": 0.0,
			"0.016": 0.0,
			"0.017": 0.0,
			"0.018": 0.0,
			"0.019": 0.0,
			"0.02": 0.0,
			"0.021": 0.0,
			"0.022": 0.0,
			"0.023": 0.0,
			"0.024": 0.0,
			"0.025": 0.0
		}
	}
}
