{
	 "smiles": "CC(=O)C1=CC=C(C=C1)S(C)(=O)=O", 
	 "Tm": 403.15, 
	 "num_atms": 23, 
	 "gaussian": { 
		 "optdone": 1, 
		 "sigma_profile": "yes", 
		 "theory": "DFT", 
		 "functional": "B3LYP", 
		 "basiset": "6-31G**", 
		 "properties": { 
			 "R2extent": 4064.4539, 
			 "electric_dipole_moment_norm": 4.49648928165, 
			 "electric_quadrupole_moment_norm": 18.5845396618, 
			 "total_energy": -972.781815798, 
			 "HOMO_LUMO_gap": 0.18263, 
			 "cosmo_polarized_energy": -18.09, 
			 "cosmo_cavitation_energy": 28.71, 
			 "cosmo_dispersion_energy": -21.1, 
			 "cosmo_repulsion_energy": 1.61, 
			 "cosmo_total_nonelectrostatic_energy": 9.22, 
			 "SMD_solvation_energy": 5.41 
		},
		"coords": [
			{
				"x": -1.6338529048,
				"y": 5.1149649241,
				"z": -0.4191440499,
				"element": "C" 
			},
			{
				"x": -0.2706937772,
				"y": 4.454221142,
				"z": -0.3297926978,
				"element": "C" 
			},
			{
				"x": 0.7443343154,
				"y": 5.0696081866,
				"z": -0.6127627087,
				"element": "O" 
			},
			{
				"x": -0.1845132594,
				"y": 3.0183656751,
				"z": 0.1159310422,
				"element": "C" 
			},
			{
				"x": 1.0901988824,
				"y": 2.4386791756,
				"z": 0.2172678821,
				"element": "C" 
			},
			{
				"x": 1.2359927061,
				"y": 1.1166739596,
				"z": 0.6235690883,
				"element": "C" 
			},
			{
				"x": 0.0920087698,
				"y": 0.37069425,
				"z": 0.9213667187,
				"element": "C" 
			},
			{
				"x": -1.1842555139,
				"y": 0.9275728726,
				"z": 0.8402044397,
				"element": "C" 
			},
			{
				"x": -1.3173461076,
				"y": 2.2554679084,
				"z": 0.4353596809,
				"element": "C" 
			},
			{
				"x": 0.2679487013,
				"y": -1.34836835,
				"z": 1.4423147896,
				"element": "S" 
			},
			{
				"x": 0.274619044,
				"y": -2.2615102185,
				"z": -0.1192425413,
				"element": "C" 
			},
			{
				"x": 1.5982525014,
				"y": -1.5001327963,
				"z": 2.0500231834,
				"element": "O" 
			},
			{
				"x": -0.9539809556,
				"y": -1.7228892657,
				"z": 2.170360397,
				"element": "O" 
			},
			{
				"x": -2.2829768512,
				"y": 4.5845603486,
				"z": -1.1247428682,
				"element": "H" 
			},
			{
				"x": -1.5011786049,
				"y": 6.1439550501,
				"z": -0.753667493,
				"element": "H" 
			},
			{
				"x": -2.136864647,
				"y": 5.1108517174,
				"z": 0.5542028923,
				"element": "H" 
			},
			{
				"x": 1.9523310521,
				"y": 3.0517878037,
				"z": -0.022099332,
				"element": "H" 
			},
			{
				"x": 2.2173332882,
				"y": 0.6667753866,
				"z": 0.7319731809,
				"element": "H" 
			},
			{
				"x": -2.0496696936,
				"y": 0.3321887595,
				"z": 1.1108701749,
				"element": "H" 
			},
			{
				"x": -2.3088082128,
				"y": 2.691766352,
				"z": 0.3765207187,
				"element": "H" 
			},
			{
				"x": -0.6708178286,
				"y": -2.0954872846,
				"z": -0.6373744877,
				"element": "H" 
			},
			{
				"x": 0.3828954017,
				"y": -3.315235979,
				"z": 0.1463134359,
				"element": "H" 
			},
			{
				"x": 1.1208436942,
				"y": -1.9338096176,
				"z": -0.7245514457,
				"element": "H" 
			}
		],
		 "valence_orbital": [ 
			{
				"type": "occ",
				"energy": -0.30117,
				"method": "rhf"
			},
			{
				"type": "occ",
				"energy": -0.29544,
				"method": "rhf"
			},
			{
				"type": "occ",
				"energy": -0.28455,
				"method": "rhf"
			},
			{
				"type": "occ",
				"energy": -0.28148,
				"method": "rhf"
			},
			{
				"type": "occ",
				"energy": -0.26429,
				"method": "rhf"
			},
			{
				"type": "unocc",
				"energy": -0.08166,
				"method": "rhf"
			},
			{
				"type": "unocc",
				"energy": -0.03277,
				"method": "rhf"
			},
			{
				"type": "unocc",
				"energy": 0.00518,
				"method": "rhf"
			},
			{
				"type": "unocc",
				"energy": 0.05851,
				"method": "rhf"
			},
			{
				"type": "unocc",
				"energy": 0.07624,
				"method": "rhf"
			}
		],
		"cosmo_sigma_profile": { 
			"-0.025": 0.0,
			"-0.024": 0.0,
			"-0.023": 0.0,
			"-0.022": 0.0,
			"-0.021": 0.0,
			"-0.02": 0.0,
			"-0.019": 0.0,
			"-0.018": 0.0,
			"-0.017": 0.0,
			"-0.016": 0.0,
			"-0.015": 0.0,
			"-0.014": 0.0,
			"-0.013": 0.0,
			"-0.012": 0.0,
			"-0.011": 0.0,
			"-0.01": 0.0568799252229,
			"-0.009": 2.78215527105,
			"-0.008": 9.31272288895,
			"-0.007": 15.4284923628,
			"-0.006": 20.4973825135,
			"-0.005": 17.5593790398,
			"-0.004": 16.9791316139,
			"-0.003": 14.7797276303,
			"-0.002": 13.3561760198,
			"-0.001": 15.3933542972,
			"0.0": 12.5850290232,
			"0.001": 17.1806166476,
			"0.002": 11.8411633336,
			"0.003": 4.50962863704,
			"0.004": 4.20850645213,
			"0.005": 3.83619640669,
			"0.006": 3.41627910898,
			"0.007": 4.15493057675,
			"0.008": 4.31449429006,
			"0.009": 5.31425331372,
			"0.01": 7.37996367366,
			"0.011": 13.2649823829,
			"0.012": 9.97736866518,
			"0.013": 0.826415798865,
			"0.014": 0.0,
			"0.015": 0.0,
			"0.016": 0.0,
			"0.017": 0.0,
			"0.018": 0.0,
			"0.019": 0.0,
			"0.02": 0.0,
			"0.021": 0.0,
			"0.022": 0.0,
			"0.023": 0.0,
			"0.024": 0.0,
			"0.025": 0.0
		}
	}
}
