{
	 "smiles": "COP(=O)(NC(C)=O)SC", 
	 "Tm": 361.65, 
	 "num_atms": 20, 
	 "gaussian": { 
		 "optdone": 1, 
		 "sigma_profile": "yes", 
		 "theory": "DFT", 
		 "functional": "B3LYP", 
		 "basiset": "6-31G**", 
		 "properties": { 
			 "R2extent": 2506.3766, 
			 "electric_dipole_moment_norm": 1.03652203546, 
			 "electric_quadrupole_moment_norm": 17.4253914418, 
			 "total_energy": -1178.48836919, 
			 "HOMO_LUMO_gap": 0.24686, 
			 "cosmo_polarized_energy": -14.97, 
			 "cosmo_cavitation_energy": 27.4, 
			 "cosmo_dispersion_energy": -19.26, 
			 "cosmo_repulsion_energy": 1.51, 
			 "cosmo_total_nonelectrostatic_energy": 9.64, 
			 "SMD_solvation_energy": 7.69 
		},
		"coords": [
			{
				"x": 2.1298452885,
				"y": 1.4596189009,
				"z": 0.1969973427,
				"element": "C" 
			},
			{
				"x": 1.0555999376,
				"y": 1.158578477,
				"z": 1.1122228814,
				"element": "O" 
			},
			{
				"x": 0.0710097162,
				"y": -0.0776532731,
				"z": 0.7831479219,
				"element": "P" 
			},
			{
				"x": -0.546607337,
				"y": -0.1482867153,
				"z": -0.5657453029,
				"element": "O" 
			},
			{
				"x": 1.0189186092,
				"y": -1.4540366187,
				"z": 1.1211255003,
				"element": "N" 
			},
			{
				"x": 1.2728407314,
				"y": -2.6484263171,
				"z": 0.4172632745,
				"element": "C" 
			},
			{
				"x": 0.6910882165,
				"y": -2.8016857193,
				"z": -0.9679082102,
				"element": "C" 
			},
			{
				"x": 1.9585103995,
				"y": -3.4999097659,
				"z": 0.9523728442,
				"element": "O" 
			},
			{
				"x": -1.2109185457,
				"y": 0.2033272928,
				"z": 2.4207922683,
				"element": "S" 
			},
			{
				"x": -2.4478122582,
				"y": -1.0905490052,
				"z": 1.9939200675,
				"element": "C" 
			},
			{
				"x": 1.7345022216,
				"y": 1.6632149378,
				"z": -0.8012878265,
				"element": "H" 
			},
			{
				"x": 2.8415014061,
				"y": 0.6289817051,
				"z": 0.15533072,
				"element": "H" 
			},
			{
				"x": 2.623836592,
				"y": 2.3477796631,
				"z": 0.5910696142,
				"element": "H" 
			},
			{
				"x": 1.452440466,
				"y": -1.4829782936,
				"z": 2.040346608,
				"element": "H" 
			},
			{
				"x": 1.0697339809,
				"y": -2.0259536695,
				"z": -1.6383249378,
				"element": "H" 
			},
			{
				"x": 0.9716338986,
				"y": -3.7879319654,
				"z": -1.3367744627,
				"element": "H" 
			},
			{
				"x": -0.3952033679,
				"y": -2.6891873849,
				"z": -0.9585523393,
				"element": "H" 
			},
			{
				"x": -3.2619191791,
				"y": -0.9729058851,
				"z": 2.7105520039,
				"element": "H" 
			},
			{
				"x": -2.0199972915,
				"y": -2.0896715293,
				"z": 2.0934738684,
				"element": "H" 
			},
			{
				"x": -2.8219034847,
				"y": -0.9315248343,
				"z": 0.982178164,
				"element": "H" 
			}
		],
		 "valence_orbital": [ 
			{
				"type": "occ",
				"energy": -0.31027,
				"method": "rhf"
			},
			{
				"type": "occ",
				"energy": -0.30441,
				"method": "rhf"
			},
			{
				"type": "occ",
				"energy": -0.29064,
				"method": "rhf"
			},
			{
				"type": "occ",
				"energy": -0.26593,
				"method": "rhf"
			},
			{
				"type": "occ",
				"energy": -0.25636,
				"method": "rhf"
			},
			{
				"type": "unocc",
				"energy": -0.0095,
				"method": "rhf"
			},
			{
				"type": "unocc",
				"energy": 0.01267,
				"method": "rhf"
			},
			{
				"type": "unocc",
				"energy": 0.02929,
				"method": "rhf"
			},
			{
				"type": "unocc",
				"energy": 0.06072,
				"method": "rhf"
			},
			{
				"type": "unocc",
				"energy": 0.08218,
				"method": "rhf"
			}
		],
		"cosmo_sigma_profile": { 
			"-0.025": 0.0,
			"-0.024": 0.0,
			"-0.023": 0.0,
			"-0.022": 0.0,
			"-0.021": 0.0,
			"-0.02": 0.0,
			"-0.019": 0.0,
			"-0.018": 0.0,
			"-0.017": 0.0,
			"-0.016": 0.0,
			"-0.015": 0.385433339197,
			"-0.014": 0.651307692896,
			"-0.013": 1.1474633638,
			"-0.012": 0.752719243397,
			"-0.011": 0.632310549509,
			"-0.01": 1.17236219989,
			"-0.009": 0.797376928221,
			"-0.008": 1.66119494071,
			"-0.007": 6.40737323715,
			"-0.006": 15.709308524,
			"-0.005": 21.0896983888,
			"-0.004": 23.4268003695,
			"-0.003": 20.0252085582,
			"-0.002": 17.9706743489,
			"-0.001": 13.2954361002,
			"0.0": 8.42630776264,
			"0.001": 8.02064953004,
			"0.002": 8.21581635649,
			"0.003": 9.37778488419,
			"0.004": 7.99242382432,
			"0.005": 7.34366799461,
			"0.006": 7.18515521022,
			"0.007": 6.22077818276,
			"0.008": 3.27205481635,
			"0.009": 2.79622507216,
			"0.01": 2.9605330164,
			"0.011": 3.2804668224,
			"0.012": 7.69799091446,
			"0.013": 5.42090915327,
			"0.014": 2.51686509566,
			"0.015": 0.12103121156,
			"0.016": 0.0,
			"0.017": 0.0,
			"0.018": 0.0,
			"0.019": 0.0,
			"0.02": 0.0,
			"0.021": 0.0,
			"0.022": 0.0,
			"0.023": 0.0,
			"0.024": 0.0,
			"0.025": 0.0
		}
	}
}
