{
	 "smiles": "CCOP(=O)(OCC)OC1=C2CC3=CC=CC(CC4=CC=CC(CC5=C(O)C(CC1=CC=C2)=CC=C5)=C4OP(=O)(OCC)OCC)=C3O", 
	 "Tm": 495.15, 
	 "num_atms": 90, 
	 "gaussian": { 
		 "optdone": 1, 
		 "sigma_profile": "yes", 
		 "theory": "DFT", 
		 "functional": "B3LYP", 
		 "basiset": "6-31G**", 
		 "properties": { 
			 "R2extent": 24224.7184, 
			 "electric_dipole_moment_norm": 3.12163634814, 
			 "electric_quadrupole_moment_norm": 26.483510634, 
			 "total_energy": -2832.15267617, 
			 "HOMO_LUMO_gap": 0.18512, 
			 "cosmo_polarized_energy": -26.49, 
			 "cosmo_cavitation_energy": 77.74, 
			 "cosmo_dispersion_energy": -48.97, 
			 "cosmo_repulsion_energy": 3.46, 
			 "cosmo_total_nonelectrostatic_energy": 32.23, 
			 "SMD_solvation_energy": 14.06 
		},
		"coords": [
			{
				"x": -0.1449126192,
				"y": -2.5535537088,
				"z": -4.733266625,
				"element": "C" 
			},
			{
				"x": -1.1471629772,
				"y": -1.7158687807,
				"z": -3.9613329035,
				"element": "C" 
			},
			{
				"x": -0.7835310611,
				"y": -1.7743594786,
				"z": -2.5490943987,
				"element": "O" 
			},
			{
				"x": -1.7568252875,
				"y": -1.0351728159,
				"z": -1.4513221954,
				"element": "P" 
			},
			{
				"x": -2.7261327495,
				"y": -0.1978717419,
				"z": -2.1752507655,
				"element": "O" 
			},
			{
				"x": -0.7427507043,
				"y": -0.4020692447,
				"z": -0.3927410588,
				"element": "O" 
			},
			{
				"x": -0.70939465,
				"y": -0.5502918983,
				"z": 1.0903094025,
				"element": "C" 
			},
			{
				"x": -0.0472842069,
				"y": 0.5460238108,
				"z": 1.8828451648,
				"element": "C" 
			},
			{
				"x": -2.4203662326,
				"y": -2.3232002047,
				"z": -0.7322341726,
				"element": "O" 
			},
			{
				"x": -2.1220709223,
				"y": -2.8340089577,
				"z": 0.5266686126,
				"element": "C" 
			},
			{
				"x": -0.9075931429,
				"y": -3.5292508802,
				"z": 0.7623001115,
				"element": "C" 
			},
			{
				"x": 0.351348017,
				"y": -3.5344318198,
				"z": -0.1611573826,
				"element": "C" 
			},
			{
				"x": 1.4744368037,
				"y": -2.5091385193,
				"z": 0.2138673209,
				"element": "C" 
			},
			{
				"x": 2.0888495134,
				"y": -2.5994967335,
				"z": 1.4732718338,
				"element": "C" 
			},
			{
				"x": 2.9613897206,
				"y": -1.6202226424,
				"z": 1.9469604718,
				"element": "C" 
			},
			{
				"x": 3.1557925799,
				"y": -0.4532469494,
				"z": 1.2037604852,
				"element": "C" 
			},
			{
				"x": 2.577004469,
				"y": -0.3011640536,
				"z": -0.0582995611,
				"element": "C" 
			},
			{
				"x": 2.6562129889,
				"y": 1.0565537498,
				"z": -0.7979510231,
				"element": "C" 
			},
			{
				"x": 1.3227375164,
				"y": 1.6688665515,
				"z": -1.2743420148,
				"element": "C" 
			},
			{
				"x": 0.937582098,
				"y": 1.4695650471,
				"z": -2.6061404403,
				"element": "C" 
			},
			{
				"x": -0.3051414963,
				"y": 1.8919617072,
				"z": -3.0690170646,
				"element": "C" 
			},
			{
				"x": -1.2493512269,
				"y": 2.3847752698,
				"z": -2.1719705558,
				"element": "C" 
			},
			{
				"x": -0.9383186614,
				"y": 2.603706224,
				"z": -0.8255139783,
				"element": "C" 
			},
			{
				"x": -2.0844710789,
				"y": 2.975455458,
				"z": 0.1634784824,
				"element": "C" 
			},
			{
				"x": -3.2777399875,
				"y": 1.9835191691,
				"z": 0.1229171811,
				"element": "C" 
			},
			{
				"x": -3.4718982977,
				"y": 0.8824701232,
				"z": 1.0036297933,
				"element": "C" 
			},
			{
				"x": -2.9343566393,
				"y": 0.8492932523,
				"z": 2.268206905,
				"element": "O" 
			},
			{
				"x": -4.2543897258,
				"y": -0.2428564054,
				"z": 0.6359920081,
				"element": "C" 
			},
			{
				"x": -4.2901463987,
				"y": -1.5885387256,
				"z": 1.3950382511,
				"element": "C" 
			},
			{
				"x": -3.0723588748,
				"y": -2.5475898367,
				"z": 1.532425778,
				"element": "C" 
			},
			{
				"x": -2.8775710774,
				"y": -3.1751317617,
				"z": 2.7688009477,
				"element": "C" 
			},
			{
				"x": -1.788200204,
				"y": -4.0167619388,
				"z": 2.9909312607,
				"element": "C" 
			},
			{
				"x": -0.8109110746,
				"y": -4.1669485072,
				"z": 2.0095636452,
				"element": "C" 
			},
			{
				"x": -5.1324920762,
				"y": -0.0624148282,
				"z": -0.4399410683,
				"element": "C" 
			},
			{
				"x": -5.1832674903,
				"y": 1.1339927322,
				"z": -1.1490071536,
				"element": "C" 
			},
			{
				"x": -4.2257580271,
				"y": 2.1135250548,
				"z": -0.901470394,
				"element": "C" 
			},
			{
				"x": 0.4170012486,
				"y": 2.3955060804,
				"z": -0.4662967179,
				"element": "C" 
			},
			{
				"x": 0.8924359385,
				"y": 2.8962951423,
				"z": 0.7639289852,
				"element": "O" 
			},
			{
				"x": 1.1741656408,
				"y": 4.4924438825,
				"z": 0.8958881731,
				"element": "P" 
			},
			{
				"x": 0.0231778814,
				"y": 5.3985110063,
				"z": 0.7108654248,
				"element": "O" 
			},
			{
				"x": 1.7974344114,
				"y": 4.5499745039,
				"z": 2.3689624324,
				"element": "O" 
			},
			{
				"x": 2.9690690493,
				"y": 3.7845611964,
				"z": 2.7444233228,
				"element": "C" 
			},
			{
				"x": 3.3564879765,
				"y": 4.193071126,
				"z": 4.1529435951,
				"element": "C" 
			},
			{
				"x": 2.4092961541,
				"y": 4.7037681327,
				"z": -0.1158268348,
				"element": "O" 
			},
			{
				"x": 2.4560847695,
				"y": 5.8381626519,
				"z": -1.0252474912,
				"element": "C" 
			},
			{
				"x": 2.9016168265,
				"y": 5.3465048855,
				"z": -2.3898909227,
				"element": "C" 
			},
			{
				"x": 1.887697944,
				"y": -1.41585444,
				"z": -0.6052684747,
				"element": "C" 
			},
			{
				"x": 1.6853043974,
				"y": -1.3541785667,
				"z": -1.9424316002,
				"element": "O" 
			},
			{
				"x": -0.1717860965,
				"y": -3.5982212859,
				"z": -4.4098608136,
				"element": "H" 
			},
			{
				"x": 0.8734062142,
				"y": -2.1752221144,
				"z": -4.6039792209,
				"element": "H" 
			},
			{
				"x": -0.3892825695,
				"y": -2.5193852942,
				"z": -5.7997965869,
				"element": "H" 
			},
			{
				"x": -2.1646167566,
				"y": -2.0987961782,
				"z": -4.071348017,
				"element": "H" 
			},
			{
				"x": -1.1399912834,
				"y": -0.6703764308,
				"z": -4.2747113862,
				"element": "H" 
			},
			{
				"x": -0.1608660955,
				"y": -1.4540895768,
				"z": 1.2899811207,
				"element": "H" 
			},
			{
				"x": -1.7183394334,
				"y": -0.6570522126,
				"z": 1.4363819195,
				"element": "H" 
			},
			{
				"x": -0.1088102096,
				"y": 0.1962386857,
				"z": 2.9209350816,
				"element": "H" 
			},
			{
				"x": -0.5402800494,
				"y": 1.5076641623,
				"z": 1.8288867376,
				"element": "H" 
			},
			{
				"x": 0.9999236372,
				"y": 0.6750943486,
				"z": 1.6421889308,
				"element": "H" 
			},
			{
				"x": 0.7815379597,
				"y": -4.5397447069,
				"z": -0.0885083401,
				"element": "H" 
			},
			{
				"x": 0.0543978869,
				"y": -3.4102368257,
				"z": -1.2010972331,
				"element": "H" 
			},
			{
				"x": 1.8592704096,
				"y": -3.4476832501,
				"z": 2.1110272409,
				"element": "H" 
			},
			{
				"x": 3.4370010131,
				"y": -1.7392386908,
				"z": 2.9157898748,
				"element": "H" 
			},
			{
				"x": 3.7402362541,
				"y": 0.3633119267,
				"z": 1.622604387,
				"element": "H" 
			},
			{
				"x": 3.2899970799,
				"y": 0.9490943676,
				"z": -1.6852192227,
				"element": "H" 
			},
			{
				"x": 3.1674846052,
				"y": 1.7584313963,
				"z": -0.1328291157,
				"element": "H" 
			},
			{
				"x": 1.6258501342,
				"y": 0.9614812101,
				"z": -3.2733891927,
				"element": "H" 
			},
			{
				"x": -0.5699856146,
				"y": 1.7697755167,
				"z": -4.1153321961,
				"element": "H" 
			},
			{
				"x": -2.2596840994,
				"y": 2.5591990539,
				"z": -2.5182756348,
				"element": "H" 
			},
			{
				"x": -1.66343798,
				"y": 3.0952622849,
				"z": 1.1648261956,
				"element": "H" 
			},
			{
				"x": -2.4548660773,
				"y": 3.9727037027,
				"z": -0.0942084185,
				"element": "H" 
			},
			{
				"x": -2.4733468034,
				"y": 1.6794533203,
				"z": 2.4400766315,
				"element": "H" 
			},
			{
				"x": -5.099947069,
				"y": -2.1637200973,
				"z": 0.9305849639,
				"element": "H" 
			},
			{
				"x": -4.6128975776,
				"y": -1.3967491465,
				"z": 2.4247847598,
				"element": "H" 
			},
			{
				"x": -3.5885330211,
				"y": -2.9934420866,
				"z": 3.5704240671,
				"element": "H" 
			},
			{
				"x": -1.6779110881,
				"y": -4.5207918588,
				"z": 3.9464287386,
				"element": "H" 
			},
			{
				"x": 0.0636187805,
				"y": -4.7755619101,
				"z": 2.220139909,
				"element": "H" 
			},
			{
				"x": -5.7904522192,
				"y": -0.8810028421,
				"z": -0.7195735286,
				"element": "H" 
			},
			{
				"x": -5.9064180124,
				"y": 1.2665832233,
				"z": -1.9472406576,
				"element": "H" 
			},
			{
				"x": -4.1952370335,
				"y": 2.999637779,
				"z": -1.5301037107,
				"element": "H" 
			},
			{
				"x": 2.7228322828,
				"y": 2.719063454,
				"z": 2.6902068543,
				"element": "H" 
			},
			{
				"x": 3.7734156143,
				"y": 3.995205669,
				"z": 2.0315576859,
				"element": "H" 
			},
			{
				"x": 4.2371186626,
				"y": 3.6277271512,
				"z": 4.4744749097,
				"element": "H" 
			},
			{
				"x": 2.5406425427,
				"y": 3.9917637902,
				"z": 4.8525657158,
				"element": "H" 
			},
			{
				"x": 3.593338566,
				"y": 5.2596695871,
				"z": 4.1959672895,
				"element": "H" 
			},
			{
				"x": 3.1664666499,
				"y": 6.5598058692,
				"z": -0.6077949234,
				"element": "H" 
			},
			{
				"x": 1.4679855173,
				"y": 6.3029905485,
				"z": -1.0613632672,
				"element": "H" 
			},
			{
				"x": 3.8870614742,
				"y": 4.8748971485,
				"z": -2.3329756471,
				"element": "H" 
			},
			{
				"x": 2.1915660347,
				"y": 4.6167140458,
				"z": -2.7881858902,
				"element": "H" 
			},
			{
				"x": 2.9639814338,
				"y": 6.1908427797,
				"z": -3.0846038094,
				"element": "H" 
			},
			{
				"x": 0.7941272824,
				"y": -1.6688798317,
				"z": -2.1971009931,
				"element": "H" 
			}
		],
		 "valence_orbital": [ 
			{
				"type": "occ",
				"energy": -0.22794,
				"method": "rhf"
			},
			{
				"type": "occ",
				"energy": -0.22683,
				"method": "rhf"
			},
			{
				"type": "occ",
				"energy": -0.22308,
				"method": "rhf"
			},
			{
				"type": "occ",
				"energy": -0.20593,
				"method": "rhf"
			},
			{
				"type": "occ",
				"energy": -0.2043,
				"method": "rhf"
			},
			{
				"type": "unocc",
				"energy": -0.01918,
				"method": "rhf"
			},
			{
				"type": "unocc",
				"energy": -0.01481,
				"method": "rhf"
			},
			{
				"type": "unocc",
				"energy": -0.01024,
				"method": "rhf"
			},
			{
				"type": "unocc",
				"energy": -0.00202,
				"method": "rhf"
			},
			{
				"type": "unocc",
				"energy": 0.00583,
				"method": "rhf"
			}
		],
		"cosmo_sigma_profile": { 
			"-0.025": 0.0,
			"-0.024": 0.0,
			"-0.023": 0.0,
			"-0.022": 0.0,
			"-0.021": 0.0,
			"-0.02": 0.0,
			"-0.019": 0.0,
			"-0.018": 0.0,
			"-0.017": 0.438024604834,
			"-0.016": 1.14533752428,
			"-0.015": 0.367387814342,
			"-0.014": 0.88982047876,
			"-0.013": 0.879859265026,
			"-0.012": 0.666070728429,
			"-0.011": 0.795963381541,
			"-0.01": 0.980206924007,
			"-0.009": 0.714086472575,
			"-0.008": 1.48260766258,
			"-0.007": 3.57465519869,
			"-0.006": 14.3885870754,
			"-0.005": 42.6469378103,
			"-0.004": 69.8866153296,
			"-0.003": 66.5008926745,
			"-0.002": 60.7494703443,
			"-0.001": 55.5107716631,
			"0.0": 54.3329309698,
			"0.001": 37.5740494294,
			"0.002": 35.2969325916,
			"0.003": 33.6110531379,
			"0.004": 31.6716358318,
			"0.005": 25.8280413076,
			"0.006": 16.9575657034,
			"0.007": 9.94307600286,
			"0.008": 8.10985249719,
			"0.009": 7.07967914586,
			"0.01": 6.74802201743,
			"0.011": 3.9920457078,
			"0.012": 3.72850074135,
			"0.013": 4.81091981922,
			"0.014": 5.28684855191,
			"0.015": 1.21819489466,
			"0.016": 0.0,
			"0.017": 0.0,
			"0.018": 0.0,
			"0.019": 0.0,
			"0.02": 0.0,
			"0.021": 0.0,
			"0.022": 0.0,
			"0.023": 0.0,
			"0.024": 0.0,
			"0.025": 0.0
		}
	}
}
