{
	 "smiles": "CC(C)(CO)NCCO", 
	 "Tm": 347.15, 
	 "num_atms": 24, 
	 "gaussian": { 
		 "optdone": 1, 
		 "sigma_profile": "yes", 
		 "theory": "DFT", 
		 "functional": "B3LYP", 
		 "basiset": "6-31G**", 
		 "properties": { 
			 "R2extent": 1904.9729, 
			 "electric_dipole_moment_norm": 1.53649016268, 
			 "electric_quadrupole_moment_norm": 9.50073212968, 
			 "total_energy": -442.86208712, 
			 "HOMO_LUMO_gap": 0.29592, 
			 "cosmo_polarized_energy": -10.8, 
			 "cosmo_cavitation_energy": 24.91, 
			 "cosmo_dispersion_energy": -17.74, 
			 "cosmo_repulsion_energy": 1.46, 
			 "cosmo_total_nonelectrostatic_energy": 8.63, 
			 "SMD_solvation_energy": 3.94 
		},
		"coords": [
			{
				"x": -1.1457463048,
				"y": -0.216880866,
				"z": 0.3991473943,
				"element": "C" 
			},
			{
				"x": -0.2940539415,
				"y": 0.9793743352,
				"z": -0.0583857787,
				"element": "C" 
			},
			{
				"x": -1.196243314,
				"y": 2.0752260316,
				"z": -0.646821359,
				"element": "C" 
			},
			{
				"x": 0.5017524532,
				"y": 1.5589461636,
				"z": 1.1367303132,
				"element": "C" 
			},
			{
				"x": 1.3829447372,
				"y": 2.5800875317,
				"z": 0.7190765598,
				"element": "O" 
			},
			{
				"x": 0.7092060775,
				"y": 0.6472136735,
				"z": -1.1040612727,
				"element": "N" 
			},
			{
				"x": 1.4786252799,
				"y": -0.5932135263,
				"z": -0.9641627111,
				"element": "C" 
			},
			{
				"x": 2.6526633409,
				"y": -0.5772978544,
				"z": -1.9442158929,
				"element": "C" 
			},
			{
				"x": 2.2232895784,
				"y": -0.3604716024,
				"z": -3.2857027829,
				"element": "O" 
			},
			{
				"x": -0.5348259564,
				"y": -1.0128041695,
				"z": 0.8359648922,
				"element": "H" 
			},
			{
				"x": -1.7070086697,
				"y": -0.6428017623,
				"z": -0.4399694791,
				"element": "H" 
			},
			{
				"x": -1.8699825363,
				"y": 0.0978742154,
				"z": 1.1582662364,
				"element": "H" 
			},
			{
				"x": -1.9537100472,
				"y": 2.3812699035,
				"z": 0.0808531601,
				"element": "H" 
			},
			{
				"x": -0.6033164869,
				"y": 2.9539035341,
				"z": -0.9115806735,
				"element": "H" 
			},
			{
				"x": -1.718997417,
				"y": 1.7159291055,
				"z": -1.5413774178,
				"element": "H" 
			},
			{
				"x": 1.0455774329,
				"y": 0.7432780857,
				"z": 1.6452474148,
				"element": "H" 
			},
			{
				"x": -0.1913604893,
				"y": 1.9861700417,
				"z": 1.8705987962,
				"element": "H" 
			},
			{
				"x": 1.6911872995,
				"y": 2.2707120108,
				"z": -0.1519637682,
				"element": "H" 
			},
			{
				"x": 0.2478216251,
				"y": 0.6239817909,
				"z": -2.009572765,
				"element": "H" 
			},
			{
				"x": 1.8751116161,
				"y": -0.6645382893,
				"z": 0.0549685689,
				"element": "H" 
			},
			{
				"x": 0.870890875,
				"y": -1.4942421693,
				"z": -1.1425087617,
				"element": "H" 
			},
			{
				"x": 3.3801770697,
				"y": 0.1874576718,
				"z": -1.6360060991,
				"element": "H" 
			},
			{
				"x": 3.1591022853,
				"y": -1.548317029,
				"z": -1.9301795251,
				"element": "H" 
			},
			{
				"x": 2.0947954926,
				"y": 0.5906431735,
				"z": -3.3897450491,
				"element": "H" 
			}
		],
		 "valence_orbital": [ 
			{
				"type": "occ",
				"energy": -0.32818,
				"method": "rhf"
			},
			{
				"type": "occ",
				"energy": -0.30766,
				"method": "rhf"
			},
			{
				"type": "occ",
				"energy": -0.27747,
				"method": "rhf"
			},
			{
				"type": "occ",
				"energy": -0.25403,
				"method": "rhf"
			},
			{
				"type": "occ",
				"energy": -0.2379,
				"method": "rhf"
			},
			{
				"type": "unocc",
				"energy": 0.05802,
				"method": "rhf"
			},
			{
				"type": "unocc",
				"energy": 0.08482,
				"method": "rhf"
			},
			{
				"type": "unocc",
				"energy": 0.09833,
				"method": "rhf"
			},
			{
				"type": "unocc",
				"energy": 0.11893,
				"method": "rhf"
			},
			{
				"type": "unocc",
				"energy": 0.12371,
				"method": "rhf"
			}
		],
		"cosmo_sigma_profile": { 
			"-0.025": 0.0,
			"-0.024": 0.0,
			"-0.023": 0.0,
			"-0.022": 0.0,
			"-0.021": 0.0,
			"-0.02": 0.0,
			"-0.019": 0.0,
			"-0.018": 0.0,
			"-0.017": 0.0,
			"-0.016": 0.0,
			"-0.015": 0.369494609793,
			"-0.014": 0.773023484758,
			"-0.013": 0.991996990784,
			"-0.012": 0.508793135911,
			"-0.011": 0.711042378388,
			"-0.01": 1.22635424365,
			"-0.009": 1.9498163839,
			"-0.008": 1.77925812818,
			"-0.007": 2.73140922543,
			"-0.006": 2.92905038297,
			"-0.005": 3.79383361444,
			"-0.004": 15.8804330635,
			"-0.003": 29.7531756181,
			"-0.002": 27.363767281,
			"-0.001": 22.2199152547,
			"0.0": 17.9299908794,
			"0.001": 15.98432149,
			"0.002": 7.28443819771,
			"0.003": 2.99108816993,
			"0.004": 3.48007511487,
			"0.005": 2.77878360736,
			"0.006": 2.21608946459,
			"0.007": 2.29859851404,
			"0.008": 2.18690263392,
			"0.009": 2.38557039762,
			"0.01": 2.72501211999,
			"0.011": 2.2557681437,
			"0.012": 2.88564596003,
			"0.013": 2.70554114646,
			"0.014": 4.20471718638,
			"0.015": 3.34348297787,
			"0.016": 0.345858643559,
			"0.017": 0.0,
			"0.018": 0.0,
			"0.019": 0.0,
			"0.02": 0.0,
			"0.021": 0.0,
			"0.022": 0.0,
			"0.023": 0.0,
			"0.024": 0.0,
			"0.025": 0.0
		}
	}
}
