{
	 "smiles": "OC(=O)C1(CCCC1)C1=CC=CC=C1", 
	 "Tm": 432.65, 
	 "num_atms": 28, 
	 "gaussian": { 
		 "optdone": 1, 
		 "sigma_profile": "yes", 
		 "theory": "DFT", 
		 "functional": "B3LYP", 
		 "basiset": "6-31G**", 
		 "properties": { 
			 "R2extent": 3914.3197, 
			 "electric_dipole_moment_norm": 1.84971993556, 
			 "electric_quadrupole_moment_norm": 10.2446023256, 
			 "total_energy": -616.178229599, 
			 "HOMO_LUMO_gap": 0.23932, 
			 "cosmo_polarized_energy": -10.15, 
			 "cosmo_cavitation_energy": 29.3, 
			 "cosmo_dispersion_energy": -21.28, 
			 "cosmo_repulsion_energy": 1.68, 
			 "cosmo_total_nonelectrostatic_energy": 9.69, 
			 "SMD_solvation_energy": 5.52 
		},
		"coords": [
			{
				"x": 0.2835160201,
				"y": 0.9715198416,
				"z": -2.7990204562,
				"element": "O" 
			},
			{
				"x": -0.5689184049,
				"y": -0.067860525,
				"z": -2.5813422277,
				"element": "C" 
			},
			{
				"x": -0.982203065,
				"y": -0.7427352165,
				"z": -3.4981297104,
				"element": "O" 
			},
			{
				"x": -0.830625102,
				"y": -0.2857783455,
				"z": -1.0903536922,
				"element": "C" 
			},
			{
				"x": -0.8875432642,
				"y": 1.0767936618,
				"z": -0.2935404936,
				"element": "C" 
			},
			{
				"x": 0.4637586853,
				"y": 1.2170822673,
				"z": 0.4263218291,
				"element": "C" 
			},
			{
				"x": 0.8392397667,
				"y": -0.2343268917,
				"z": 0.756789964,
				"element": "C" 
			},
			{
				"x": 0.466938868,
				"y": -0.9920709179,
				"z": -0.5285862646,
				"element": "C" 
			},
			{
				"x": -2.1286023906,
				"y": -1.0703532725,
				"z": -0.870242722,
				"element": "C" 
			},
			{
				"x": -3.2735948511,
				"y": -0.7834987296,
				"z": -1.6307701771,
				"element": "C" 
			},
			{
				"x": -4.4878232283,
				"y": -1.4184771811,
				"z": -1.374509336,
				"element": "C" 
			},
			{
				"x": -4.5916783216,
				"y": -2.3546005043,
				"z": -0.3443641745,
				"element": "C" 
			},
			{
				"x": -3.4672319024,
				"y": -2.6423736817,
				"z": 0.4271393204,
				"element": "C" 
			},
			{
				"x": -2.252132189,
				"y": -2.0044976979,
				"z": 0.1672075175,
				"element": "C" 
			},
			{
				"x": 0.4375162283,
				"y": 0.9857461439,
				"z": -3.7583923433,
				"element": "H" 
			},
			{
				"x": -1.6924616514,
				"y": 1.0020689922,
				"z": 0.4433080296,
				"element": "H" 
			},
			{
				"x": -1.1180308818,
				"y": 1.9237420928,
				"z": -0.9437299107,
				"element": "H" 
			},
			{
				"x": 0.4008172852,
				"y": 1.860391305,
				"z": 1.3098618185,
				"element": "H" 
			},
			{
				"x": 1.2085286384,
				"y": 1.6502461298,
				"z": -0.2505418383,
				"element": "H" 
			},
			{
				"x": 0.2391292997,
				"y": -0.5922797534,
				"z": 1.6029547231,
				"element": "H" 
			},
			{
				"x": 1.8929694876,
				"y": -0.3624657582,
				"z": 1.0245271588,
				"element": "H" 
			},
			{
				"x": 1.2813751598,
				"y": -0.8759718371,
				"z": -1.2503294157,
				"element": "H" 
			},
			{
				"x": 0.3182671957,
				"y": -2.0649563413,
				"z": -0.3933195575,
				"element": "H" 
			},
			{
				"x": -3.2152802084,
				"y": -0.0700801189,
				"z": -2.4453847773,
				"element": "H" 
			},
			{
				"x": -5.3541935519,
				"y": -1.1821600951,
				"z": -1.9860535906,
				"element": "H" 
			},
			{
				"x": -5.5368235553,
				"y": -2.8518508492,
				"z": -0.1462400653,
				"element": "H" 
			},
			{
				"x": -3.5296709674,
				"y": -3.3649217504,
				"z": 1.2362111932,
				"element": "H" 
			},
			{
				"x": -1.3988430996,
				"y": -2.2418309671,
				"z": 0.7940291987,
				"element": "H" 
			}
		],
		 "valence_orbital": [ 
			{
				"type": "occ",
				"energy": -0.32323,
				"method": "rhf"
			},
			{
				"type": "occ",
				"energy": -0.31301,
				"method": "rhf"
			},
			{
				"type": "occ",
				"energy": -0.26881,
				"method": "rhf"
			},
			{
				"type": "occ",
				"energy": -0.2431,
				"method": "rhf"
			},
			{
				"type": "occ",
				"energy": -0.23646,
				"method": "rhf"
			},
			{
				"type": "unocc",
				"energy": 0.00286,
				"method": "rhf"
			},
			{
				"type": "unocc",
				"energy": 0.00333,
				"method": "rhf"
			},
			{
				"type": "unocc",
				"energy": 0.01037,
				"method": "rhf"
			},
			{
				"type": "unocc",
				"energy": 0.07057,
				"method": "rhf"
			},
			{
				"type": "unocc",
				"energy": 0.09179,
				"method": "rhf"
			}
		],
		"cosmo_sigma_profile": { 
			"-0.025": 0.0,
			"-0.024": 0.0,
			"-0.023": 0.0,
			"-0.022": 0.0,
			"-0.021": 0.0,
			"-0.02": 0.0,
			"-0.019": 0.0,
			"-0.018": 0.371585704863,
			"-0.017": 1.02183331562,
			"-0.016": 0.78632868262,
			"-0.015": 0.565413870352,
			"-0.014": 0.927687971716,
			"-0.013": 0.959543400363,
			"-0.012": 0.650347735277,
			"-0.011": 0.786369999825,
			"-0.01": 0.705905777556,
			"-0.009": 0.418722682156,
			"-0.008": 0.471640864888,
			"-0.007": 0.575989748411,
			"-0.006": 3.37042551058,
			"-0.005": 12.7903783062,
			"-0.004": 16.9562114699,
			"-0.003": 25.2797114356,
			"-0.002": 26.3995762302,
			"-0.001": 27.3063768501,
			"0.0": 23.4183232699,
			"0.001": 17.1646340237,
			"0.002": 10.2639029386,
			"0.003": 8.30184089425,
			"0.004": 9.49028829272,
			"0.005": 10.4803330985,
			"0.006": 10.4599983166,
			"0.007": 5.08823630151,
			"0.008": 1.89573357272,
			"0.009": 1.99701939819,
			"0.01": 2.26404258702,
			"0.011": 3.65145826354,
			"0.012": 4.69832825175,
			"0.013": 0.810262336815,
			"0.014": 0.0,
			"0.015": 0.0,
			"0.016": 0.0,
			"0.017": 0.0,
			"0.018": 0.0,
			"0.019": 0.0,
			"0.02": 0.0,
			"0.021": 0.0,
			"0.022": 0.0,
			"0.023": 0.0,
			"0.024": 0.0,
			"0.025": 0.0
		}
	}
}
