{
	 "smiles": "FC(F)(Cl)C(Cl)(Cl)Cl", 
	 "Tm": 313.75, 
	 "num_atms": 8, 
	 "gaussian": { 
		 "optdone": 1, 
		 "sigma_profile": "yes", 
		 "theory": "DFT", 
		 "functional": "B3LYP", 
		 "basiset": "6-31G**", 
		 "properties": { 
			 "R2extent": 4567.144, 
			 "electric_dipole_moment_norm": 0.24280856657, 
			 "electric_quadrupole_moment_norm": 0.488459783401, 
			 "total_energy": -2116.62533075, 
			 "HOMO_LUMO_gap": 0.26662, 
			 "cosmo_polarized_energy": -1.2, 
			 "cosmo_cavitation_energy": 19.87, 
			 "cosmo_dispersion_energy": -14.86, 
			 "cosmo_repulsion_energy": 1.19, 
			 "cosmo_total_nonelectrostatic_energy": 6.21, 
			 "SMD_solvation_energy": 2.94 
		},
		"coords": [
			{
				"x": 0.0150425126,
				"y": 1.5069413884,
				"z": 1.5419821258,
				"element": "F" 
			},
			{
				"x": 1.0116998724,
				"y": 1.6616380126,
				"z": 0.6610553523,
				"element": "C" 
			},
			{
				"x": 2.0786188454,
				"y": 0.9813086416,
				"z": 1.0993822042,
				"element": "F" 
			},
			{
				"x": 0.5019996762,
				"y": 0.9849023428,
				"z": -0.9115416971,
				"element": "Cl" 
			},
			{
				"x": 1.3835948893,
				"y": 3.1898312623,
				"z": 0.5801391573,
				"element": "C" 
			},
			{
				"x": 1.8687048064,
				"y": 3.7081423425,
				"z": 2.2290406159,
				"element": "Cl" 
			},
			{
				"x": -0.0384902867,
				"y": 4.1302081695,
				"z": 0.0499088462,
				"element": "Cl" 
			},
			{
				"x": 2.7490296844,
				"y": 3.4201278404,
				"z": -0.5469666046,
				"element": "Cl" 
			}
		],
		 "valence_orbital": [ 
			{
				"type": "occ",
				"energy": -0.35244,
				"method": "rhf"
			},
			{
				"type": "occ",
				"energy": -0.35004,
				"method": "rhf"
			},
			{
				"type": "occ",
				"energy": -0.33597,
				"method": "rhf"
			},
			{
				"type": "occ",
				"energy": -0.33194,
				"method": "rhf"
			},
			{
				"type": "occ",
				"energy": -0.32406,
				"method": "rhf"
			},
			{
				"type": "unocc",
				"energy": -0.05744,
				"method": "rhf"
			},
			{
				"type": "unocc",
				"energy": -0.04071,
				"method": "rhf"
			},
			{
				"type": "unocc",
				"energy": -0.02153,
				"method": "rhf"
			},
			{
				"type": "unocc",
				"energy": 0.01057,
				"method": "rhf"
			},
			{
				"type": "unocc",
				"energy": 0.12034,
				"method": "rhf"
			}
		],
		"cosmo_sigma_profile": { 
			"-0.025": 0.0,
			"-0.024": 0.0,
			"-0.023": 0.0,
			"-0.022": 0.0,
			"-0.021": 0.0,
			"-0.02": 0.0,
			"-0.019": 0.0,
			"-0.018": 0.0,
			"-0.017": 0.0,
			"-0.016": 0.0,
			"-0.015": 0.0,
			"-0.014": 0.0,
			"-0.013": 0.0,
			"-0.012": 0.0,
			"-0.011": 0.0,
			"-0.01": 0.0,
			"-0.009": 0.0,
			"-0.008": 0.0,
			"-0.007": 0.0,
			"-0.006": 1.05415204783,
			"-0.005": 5.1192253145,
			"-0.004": 6.73391068587,
			"-0.003": 8.50987232459,
			"-0.002": 10.4836869154,
			"-0.001": 16.9579959623,
			"0.0": 29.2871671411,
			"0.001": 57.4925962518,
			"0.002": 32.1599993747,
			"0.003": 0.423421540848,
			"0.004": 0.0,
			"0.005": 0.0,
			"0.006": 0.0,
			"0.007": 0.0,
			"0.008": 0.0,
			"0.009": 0.0,
			"0.01": 0.0,
			"0.011": 0.0,
			"0.012": 0.0,
			"0.013": 0.0,
			"0.014": 0.0,
			"0.015": 0.0,
			"0.016": 0.0,
			"0.017": 0.0,
			"0.018": 0.0,
			"0.019": 0.0,
			"0.02": 0.0,
			"0.021": 0.0,
			"0.022": 0.0,
			"0.023": 0.0,
			"0.024": 0.0,
			"0.025": 0.0
		}
	}
}
