{
	 "smiles": "C1=CC=C(C=C1)P(C1=CC=CC=C1)C1=CC=C2C=CC=CC2=C1C1=C(C=CC2=C1C=CC=C2)P(C1=CC=CC=C1)C1=CC=CC=C1", 
	 "Tm": 556.15, 
	 "num_atms": 78, 
	 "gaussian": { 
		 "optdone": 1, 
		 "sigma_profile": "yes", 
		 "theory": "DFT", 
		 "functional": "B3LYP", 
		 "basiset": "6-31G**", 
		 "properties": { 
			 "R2extent": 24553.3975, 
			 "electric_dipole_moment_norm": 1.35100471502, 
			 "electric_quadrupole_moment_norm": 9.98598797215, 
			 "total_energy": -2378.68792627, 
			 "HOMO_LUMO_gap": 0.15541, 
			 "cosmo_polarized_energy": -17.01, 
			 "cosmo_cavitation_energy": 82.78, 
			 "cosmo_dispersion_energy": -47.98, 
			 "cosmo_repulsion_energy": 3.63, 
			 "cosmo_total_nonelectrostatic_energy": 38.42, 
			 "SMD_solvation_energy": 12.93 
		},
		"coords": [
			{
				"x": -1.3558313936,
				"y": 4.4623918572,
				"z": 4.8330338226,
				"element": "C" 
			},
			{
				"x": -0.5683803679,
				"y": 5.034468822,
				"z": 3.8327528565,
				"element": "C" 
			},
			{
				"x": 0.1783472779,
				"y": 4.219327632,
				"z": 2.9806882868,
				"element": "C" 
			},
			{
				"x": 0.1641395775,
				"y": 2.8220725711,
				"z": 3.1222876151,
				"element": "C" 
			},
			{
				"x": -0.6340399575,
				"y": 2.2599912017,
				"z": 4.1318437901,
				"element": "C" 
			},
			{
				"x": -1.388953224,
				"y": 3.073754792,
				"z": 4.9782207886,
				"element": "C" 
			},
			{
				"x": 1.2057221204,
				"y": 1.8537867798,
				"z": 1.9323932761,
				"element": "P" 
			},
			{
				"x": 2.7340611494,
				"y": 1.5015100189,
				"z": 2.9222045888,
				"element": "C" 
			},
			{
				"x": 3.7553756077,
				"y": 0.7767277363,
				"z": 2.2801467629,
				"element": "C" 
			},
			{
				"x": 4.9627707924,
				"y": 0.5198464332,
				"z": 2.9270626584,
				"element": "C" 
			},
			{
				"x": 5.1823170706,
				"y": 0.9997420374,
				"z": 4.2212832272,
				"element": "C" 
			},
			{
				"x": 4.1831293467,
				"y": 1.7315803699,
				"z": 4.8624918865,
				"element": "C" 
			},
			{
				"x": 2.9663782587,
				"y": 1.9788410705,
				"z": 4.2203998058,
				"element": "C" 
			},
			{
				"x": 0.3807241667,
				"y": 0.1848498935,
				"z": 1.9237197129,
				"element": "C" 
			},
			{
				"x": 0.6588154228,
				"y": -0.7813123161,
				"z": 2.9318809862,
				"element": "C" 
			},
			{
				"x": 0.0725103278,
				"y": -2.0228724972,
				"z": 2.9159539525,
				"element": "C" 
			},
			{
				"x": -0.8271109642,
				"y": -2.3855096983,
				"z": 1.8818736513,
				"element": "C" 
			},
			{
				"x": -1.4465813868,
				"y": -3.6635480504,
				"z": 1.8468267407,
				"element": "C" 
			},
			{
				"x": -2.3164161119,
				"y": -3.9998484208,
				"z": 0.8353944609,
				"element": "C" 
			},
			{
				"x": -2.60156737,
				"y": -3.0663942324,
				"z": -0.1894071405,
				"element": "C" 
			},
			{
				"x": -2.0172559141,
				"y": -1.8197272855,
				"z": -0.1835426279,
				"element": "C" 
			},
			{
				"x": -1.1138359333,
				"y": -1.4348334234,
				"z": 0.8477754858,
				"element": "C" 
			},
			{
				"x": -0.4882534385,
				"y": -0.1408629661,
				"z": 0.881396529,
				"element": "C" 
			},
			{
				"x": -0.8165859373,
				"y": 0.8492952704,
				"z": -0.2044925932,
				"element": "C" 
			},
			{
				"x": -0.0131812041,
				"y": 0.9773666403,
				"z": -1.338405371,
				"element": "C" 
			},
			{
				"x": -0.3644830151,
				"y": 1.9233657471,
				"z": -2.3428598022,
				"element": "C" 
			},
			{
				"x": -1.491379066,
				"y": 2.7001975329,
				"z": -2.2330257747,
				"element": "C" 
			},
			{
				"x": -2.340421787,
				"y": 2.5885007015,
				"z": -1.1030702861,
				"element": "C" 
			},
			{
				"x": -2.002144881,
				"y": 1.6516435047,
				"z": -0.071930731,
				"element": "C" 
			},
			{
				"x": -2.8664604533,
				"y": 1.5564845834,
				"z": 1.055793188,
				"element": "C" 
			},
			{
				"x": -3.9953254098,
				"y": 2.3384012049,
				"z": 1.1555312674,
				"element": "C" 
			},
			{
				"x": -4.3250688368,
				"y": 3.2601831117,
				"z": 0.1335581256,
				"element": "C" 
			},
			{
				"x": -3.5122006915,
				"y": 3.380651869,
				"z": -0.9698187136,
				"element": "C" 
			},
			{
				"x": 1.5356924156,
				"y": -0.0463386648,
				"z": -1.4763120831,
				"element": "P" 
			},
			{
				"x": 1.0114537716,
				"y": -1.4405642749,
				"z": -2.5805094198,
				"element": "C" 
			},
			{
				"x": 1.7435417649,
				"y": -2.6348864302,
				"z": -2.4794981102,
				"element": "C" 
			},
			{
				"x": 1.4283416364,
				"y": -3.7389440005,
				"z": -3.2730785362,
				"element": "C" 
			},
			{
				"x": 0.3626496984,
				"y": -3.6709706332,
				"z": -4.1717541993,
				"element": "C" 
			},
			{
				"x": -0.3817176046,
				"y": -2.493762362,
				"z": -4.2745782665,
				"element": "C" 
			},
			{
				"x": -0.0593229873,
				"y": -1.3868866281,
				"z": -3.4875906989,
				"element": "C" 
			},
			{
				"x": 2.5681080654,
				"y": 1.0017889535,
				"z": -2.6055329661,
				"element": "C" 
			},
			{
				"x": 3.1407762411,
				"y": 2.1617884416,
				"z": -2.0513278682,
				"element": "C" 
			},
			{
				"x": 3.9811290125,
				"y": 2.9747134518,
				"z": -2.8097632382,
				"element": "C" 
			},
			{
				"x": 4.2830828542,
				"y": 2.6341117465,
				"z": -4.1312450905,
				"element": "C" 
			},
			{
				"x": 3.7330322186,
				"y": 1.4792521817,
				"z": -4.6869952792,
				"element": "C" 
			},
			{
				"x": 2.8792946926,
				"y": 0.6697365466,
				"z": -3.9321973332,
				"element": "C" 
			},
			{
				"x": -1.9446290448,
				"y": 5.093934936,
				"z": 5.4924549457,
				"element": "H" 
			},
			{
				"x": -0.5427906562,
				"y": 6.1134631435,
				"z": 3.7082485259,
				"element": "H" 
			},
			{
				"x": 0.7743862739,
				"y": 4.6692789932,
				"z": 2.1908690209,
				"element": "H" 
			},
			{
				"x": -0.6686242229,
				"y": 1.1821938578,
				"z": 4.2565181279,
				"element": "H" 
			},
			{
				"x": -2.0026828899,
				"y": 2.6222411587,
				"z": 5.7531485355,
				"element": "H" 
			},
			{
				"x": 3.598200119,
				"y": 0.4083818294,
				"z": 1.2689779771,
				"element": "H" 
			},
			{
				"x": 5.7363488879,
				"y": -0.0482892259,
				"z": 2.4176479411,
				"element": "H" 
			},
			{
				"x": 6.1267959849,
				"y": 0.807572713,
				"z": 4.7225940404,
				"element": "H" 
			},
			{
				"x": 4.3456029979,
				"y": 2.1104142725,
				"z": 5.8680828867,
				"element": "H" 
			},
			{
				"x": 2.19673121,
				"y": 2.5449771372,
				"z": 4.7348380285,
				"element": "H" 
			},
			{
				"x": 1.3556122319,
				"y": -0.5282795398,
				"z": 3.7239457997,
				"element": "H" 
			},
			{
				"x": 0.2941844337,
				"y": -2.7448853161,
				"z": 3.6981328401,
				"element": "H" 
			},
			{
				"x": -1.2181744549,
				"y": -4.3728730362,
				"z": 2.6383407226,
				"element": "H" 
			},
			{
				"x": -2.7845744052,
				"y": -4.9799049731,
				"z": 0.8192905195,
				"element": "H" 
			},
			{
				"x": -3.2856441495,
				"y": -3.3373007423,
				"z": -0.9883172205,
				"element": "H" 
			},
			{
				"x": -2.2416251119,
				"y": -1.1152435418,
				"z": -0.9759108564,
				"element": "H" 
			},
			{
				"x": 0.2798008907,
				"y": 2.0338651863,
				"z": -3.2086414173,
				"element": "H" 
			},
			{
				"x": -1.7448312679,
				"y": 3.4134671164,
				"z": -3.0135766952,
				"element": "H" 
			},
			{
				"x": -2.6235717489,
				"y": 0.8565581332,
				"z": 1.8467383326,
				"element": "H" 
			},
			{
				"x": -4.637641479,
				"y": 2.2491025689,
				"z": 2.026770847,
				"element": "H" 
			},
			{
				"x": -5.2188379355,
				"y": 3.8708258731,
				"z": 0.2243086323,
				"element": "H" 
			},
			{
				"x": -3.7541220607,
				"y": 4.086540605,
				"z": -1.7603884622,
				"element": "H" 
			},
			{
				"x": 2.5618997882,
				"y": -2.700057202,
				"z": -1.7670581865,
				"element": "H" 
			},
			{
				"x": 2.0077657552,
				"y": -4.6534193523,
				"z": -3.1815038035,
				"element": "H" 
			},
			{
				"x": 0.1097044716,
				"y": -4.531547185,
				"z": -4.7847722751,
				"element": "H" 
			},
			{
				"x": -1.2146859194,
				"y": -2.4357597819,
				"z": -4.970164798,
				"element": "H" 
			},
			{
				"x": -0.6459872559,
				"y": -0.4780347762,
				"z": -3.5783648261,
				"element": "H" 
			},
			{
				"x": 2.920555599,
				"y": 2.4295969007,
				"z": -1.0204791909,
				"element": "H" 
			},
			{
				"x": 4.407478908,
				"y": 3.8705298466,
				"z": -2.366536608,
				"element": "H" 
			},
			{
				"x": 4.9453611494,
				"y": 3.2626217449,
				"z": -4.7200068466,
				"element": "H" 
			},
			{
				"x": 3.9636799986,
				"y": 1.2053648621,
				"z": -5.713110926,
				"element": "H" 
			},
			{
				"x": 2.4546383483,
				"y": -0.2224470253,
				"z": -4.3807529471,
				"element": "H" 
			}
		],
		 "valence_orbital": [ 
			{
				"type": "occ",
				"energy": -0.23868,
				"method": "rhf"
			},
			{
				"type": "occ",
				"energy": -0.22027,
				"method": "rhf"
			},
			{
				"type": "occ",
				"energy": -0.21176,
				"method": "rhf"
			},
			{
				"type": "occ",
				"energy": -0.2068,
				"method": "rhf"
			},
			{
				"type": "occ",
				"energy": -0.1974,
				"method": "rhf"
			},
			{
				"type": "unocc",
				"energy": -0.04199,
				"method": "rhf"
			},
			{
				"type": "unocc",
				"energy": -0.04088,
				"method": "rhf"
			},
			{
				"type": "unocc",
				"energy": -0.02419,
				"method": "rhf"
			},
			{
				"type": "unocc",
				"energy": -0.01572,
				"method": "rhf"
			},
			{
				"type": "unocc",
				"energy": -0.01333,
				"method": "rhf"
			}
		],
		"cosmo_sigma_profile": { 
			"-0.025": 0.0,
			"-0.024": 0.0,
			"-0.023": 0.0,
			"-0.022": 0.0,
			"-0.021": 0.0,
			"-0.02": 0.0,
			"-0.019": 0.0,
			"-0.018": 0.0,
			"-0.017": 0.0,
			"-0.016": 0.0,
			"-0.015": 0.0,
			"-0.014": 0.0,
			"-0.013": 0.0,
			"-0.012": 0.0,
			"-0.011": 0.0,
			"-0.01": 0.0,
			"-0.009": 0.0,
			"-0.008": 0.0,
			"-0.007": 0.752072669492,
			"-0.006": 30.9081450149,
			"-0.005": 49.7294038927,
			"-0.004": 63.4936355953,
			"-0.003": 58.3772854504,
			"-0.002": 47.3519700309,
			"-0.001": 49.8995952655,
			"0.0": 50.3807279929,
			"0.001": 52.0304826473,
			"0.002": 51.8889768843,
			"0.003": 65.4866352891,
			"0.004": 65.8717615507,
			"0.005": 55.0700502938,
			"0.006": 14.4115975263,
			"0.007": 2.1027642463,
			"0.008": 2.19000712385,
			"0.009": 1.10090759862,
			"0.01": 0.0332293717472,
			"0.011": 0.0,
			"0.012": 0.0,
			"0.013": 0.0,
			"0.014": 0.0,
			"0.015": 0.0,
			"0.016": 0.0,
			"0.017": 0.0,
			"0.018": 0.0,
			"0.019": 0.0,
			"0.02": 0.0,
			"0.021": 0.0,
			"0.022": 0.0,
			"0.023": 0.0,
			"0.024": 0.0,
			"0.025": 0.0
		}
	}
}
