{
	 "smiles": "CCC1(C(=O)NC(=O)NC1=O)C1=CCCCCC1", 
	 "Tm": 447.15, 
	 "num_atms": 36, 
	 "gaussian": { 
		 "optdone": 1, 
		 "sigma_profile": "yes", 
		 "theory": "DFT", 
		 "functional": "B3LYP", 
		 "basiset": "6-31G**", 
		 "properties": { 
			 "R2extent": 4752.1723, 
			 "electric_dipole_moment_norm": 1.77320776842, 
			 "electric_quadrupole_moment_norm": 6.1194331543, 
			 "total_energy": -841.4522909, 
			 "HOMO_LUMO_gap": 0.19487, 
			 "cosmo_polarized_energy": -14.34, 
			 "cosmo_cavitation_energy": 36.11, 
			 "cosmo_dispersion_energy": -25.1, 
			 "cosmo_repulsion_energy": 1.95, 
			 "cosmo_total_nonelectrostatic_energy": 12.96, 
			 "SMD_solvation_energy": 7.36 
		},
		"coords": [
			{
				"x": -1.78157435,
				"y": 2.3757156695,
				"z": 0.3879959459,
				"element": "C" 
			},
			{
				"x": -0.3521285021,
				"y": 2.2425880103,
				"z": 0.9201133242,
				"element": "C" 
			},
			{
				"x": 0.0705647943,
				"y": 0.8175410794,
				"z": 1.3952498825,
				"element": "C" 
			},
			{
				"x": 1.6132783382,
				"y": 0.7703060781,
				"z": 1.4876241865,
				"element": "C" 
			},
			{
				"x": 2.3530839231,
				"y": 1.3772797,
				"z": 0.7365544166,
				"element": "O" 
			},
			{
				"x": 2.1476484571,
				"y": -0.0962149241,
				"z": 2.435132145,
				"element": "N" 
			},
			{
				"x": 1.4973356031,
				"y": -0.6488036308,
				"z": 3.5312250572,
				"element": "C" 
			},
			{
				"x": 2.0591876498,
				"y": -1.3399745668,
				"z": 4.3559987853,
				"element": "O" 
			},
			{
				"x": 0.1555721034,
				"y": -0.3030594889,
				"z": 3.6172202433,
				"element": "N" 
			},
			{
				"x": -0.5768273849,
				"y": 0.505809107,
				"z": 2.7514674995,
				"element": "C" 
			},
			{
				"x": -1.6867639659,
				"y": 0.8801428106,
				"z": 3.0783418328,
				"element": "O" 
			},
			{
				"x": -0.3247864022,
				"y": -0.2791578662,
				"z": 0.3634677159,
				"element": "C" 
			},
			{
				"x": -1.1969228041,
				"y": -1.2533435573,
				"z": 0.6618133114,
				"element": "C" 
			},
			{
				"x": -1.6414381224,
				"y": -2.3411988256,
				"z": -0.2906431937,
				"element": "C" 
			},
			{
				"x": -0.512171337,
				"y": -3.2589747392,
				"z": -0.8047552518,
				"element": "C" 
			},
			{
				"x": 0.3942043126,
				"y": -2.6220644549,
				"z": -1.8674588492,
				"element": "C" 
			},
			{
				"x": 1.1802856077,
				"y": -1.3799760424,
				"z": -1.4234461381,
				"element": "C" 
			},
			{
				"x": 0.3096265822,
				"y": -0.1706761317,
				"z": -1.0161702908,
				"element": "C" 
			},
			{
				"x": -2.5151311892,
				"y": 2.1008763944,
				"z": 1.146646062,
				"element": "H" 
			},
			{
				"x": -1.9621853175,
				"y": 3.413736795,
				"z": 0.0899648577,
				"element": "H" 
			},
			{
				"x": -1.9451149489,
				"y": 1.7460867249,
				"z": -0.4916923896,
				"element": "H" 
			},
			{
				"x": -0.2086013581,
				"y": 2.9283438033,
				"z": 1.7634798972,
				"element": "H" 
			},
			{
				"x": 0.364377911,
				"y": 2.5499909624,
				"z": 0.1554396488,
				"element": "H" 
			},
			{
				"x": 3.1543555636,
				"y": -0.2111513759,
				"z": 2.4243815352,
				"element": "H" 
			},
			{
				"x": -0.3100147447,
				"y": -0.5809034232,
				"z": 4.4733324848,
				"element": "H" 
			},
			{
				"x": -1.6530314688,
				"y": -1.2840783837,
				"z": 1.6470665786,
				"element": "H" 
			},
			{
				"x": -2.3935140682,
				"y": -2.955298214,
				"z": 0.2154451837,
				"element": "H" 
			},
			{
				"x": -2.1526853401,
				"y": -1.8929048792,
				"z": -1.1563196128,
				"element": "H" 
			},
			{
				"x": -0.9693592738,
				"y": -4.1579403518,
				"z": -1.2370402894,
				"element": "H" 
			},
			{
				"x": 0.0912285803,
				"y": -3.5977656344,
				"z": 0.047445004,
				"element": "H" 
			},
			{
				"x": 1.1046944618,
				"y": -3.3789094946,
				"z": -2.2235604506,
				"element": "H" 
			},
			{
				"x": -0.2219403448,
				"y": -2.3527659313,
				"z": -2.7380092275,
				"element": "H" 
			},
			{
				"x": 1.8248622636,
				"y": -1.0690526932,
				"z": -2.2547618646,
				"element": "H" 
			},
			{
				"x": 1.8525473552,
				"y": -1.6388335672,
				"z": -0.5952851606,
				"element": "H" 
			},
			{
				"x": 0.9242664082,
				"y": 0.7288603342,
				"z": -1.071776986,
				"element": "H" 
			},
			{
				"x": -0.4890289921,
				"y": -0.0456292928,
				"z": -1.7617858934,
				"element": "H" 
			}
		],
		 "valence_orbital": [ 
			{
				"type": "occ",
				"energy": -0.30281,
				"method": "rhf"
			},
			{
				"type": "occ",
				"energy": -0.30125,
				"method": "rhf"
			},
			{
				"type": "occ",
				"energy": -0.29188,
				"method": "rhf"
			},
			{
				"type": "occ",
				"energy": -0.26785,
				"method": "rhf"
			},
			{
				"type": "occ",
				"energy": -0.2464,
				"method": "rhf"
			},
			{
				"type": "unocc",
				"energy": -0.05153,
				"method": "rhf"
			},
			{
				"type": "unocc",
				"energy": -0.0136,
				"method": "rhf"
			},
			{
				"type": "unocc",
				"energy": 0.01571,
				"method": "rhf"
			},
			{
				"type": "unocc",
				"energy": 0.05308,
				"method": "rhf"
			},
			{
				"type": "unocc",
				"energy": 0.07339,
				"method": "rhf"
			}
		],
		"cosmo_sigma_profile": { 
			"-0.025": 0.0,
			"-0.024": 0.0,
			"-0.023": 0.0,
			"-0.022": 0.0,
			"-0.021": 0.0,
			"-0.02": 0.0,
			"-0.019": 0.0,
			"-0.018": 0.0,
			"-0.017": 0.192157438037,
			"-0.016": 1.83625160334,
			"-0.015": 1.81054622953,
			"-0.014": 1.42553599591,
			"-0.013": 1.85282625076,
			"-0.012": 1.34854827165,
			"-0.011": 1.89370894908,
			"-0.01": 2.57130600105,
			"-0.009": 2.62536724482,
			"-0.008": 2.53170495755,
			"-0.007": 3.43890364024,
			"-0.006": 2.87772162842,
			"-0.005": 6.55944467527,
			"-0.004": 9.37736969898,
			"-0.003": 25.9318860042,
			"-0.002": 39.882739672,
			"-0.001": 42.2570189521,
			"0.0": 37.6640865024,
			"0.001": 23.7619726235,
			"0.002": 10.9649304089,
			"0.003": 6.36924604482,
			"0.004": 6.67827424606,
			"0.005": 5.19660026662,
			"0.006": 3.68235014218,
			"0.007": 4.8684543525,
			"0.008": 4.03898643511,
			"0.009": 4.46161504952,
			"0.01": 7.30884766518,
			"0.011": 12.2543697939,
			"0.012": 5.68952814586,
			"0.013": 0.0730032004972,
			"0.014": 0.0,
			"0.015": 0.0,
			"0.016": 0.0,
			"0.017": 0.0,
			"0.018": 0.0,
			"0.019": 0.0,
			"0.02": 0.0,
			"0.021": 0.0,
			"0.022": 0.0,
			"0.023": 0.0,
			"0.024": 0.0,
			"0.025": 0.0
		}
	}
}
