{
	 "smiles": "COC1=C(C=CC(O)=O)C=C2OC(C)CC2=C1", 
	 "Tm": 420.15, 
	 "num_atms": 31, 
	 "gaussian": { 
		 "optdone": 1, 
		 "sigma_profile": "yes", 
		 "theory": "DFT", 
		 "functional": "B3LYP", 
		 "basiset": "6-31G**", 
		 "properties": { 
			 "R2extent": 7080.6615, 
			 "electric_dipole_moment_norm": 9.14220888517, 
			 "electric_quadrupole_moment_norm": 42.5407087715, 
			 "total_energy": -804.697045725, 
			 "HOMO_LUMO_gap": 0.13947, 
			 "cosmo_polarized_energy": -19.04, 
			 "cosmo_cavitation_energy": 34.94, 
			 "cosmo_dispersion_energy": -25.37, 
			 "cosmo_repulsion_energy": 1.99, 
			 "cosmo_total_nonelectrostatic_energy": 11.56, 
			 "SMD_solvation_energy": 7.86 
		},
		"coords": [
			{
				"x": 2.0757590389,
				"y": 4.6138229884,
				"z": 0.2219358901,
				"element": "C" 
			},
			{
				"x": 1.4280727927,
				"y": 3.6836026365,
				"z": 1.0738972838,
				"element": "O" 
			},
			{
				"x": 0.6461467347,
				"y": 2.70914058,
				"z": 0.5131319052,
				"element": "C" 
			},
			{
				"x": 0.0082922391,
				"y": 1.8226269914,
				"z": 1.4230083588,
				"element": "C" 
			},
			{
				"x": 0.2255229213,
				"y": 2.006324128,
				"z": 2.8569625239,
				"element": "C" 
			},
			{
				"x": -0.3290320345,
				"y": 1.3009252625,
				"z": 3.8632156666,
				"element": "C" 
			},
			{
				"x": -0.1048180532,
				"y": 1.5645718091,
				"z": 5.3050034531,
				"element": "C" 
			},
			{
				"x": 1.0018776796,
				"y": 2.2838957432,
				"z": 5.6527835221,
				"element": "O" 
			},
			{
				"x": -0.862965986,
				"y": 1.1741875878,
				"z": 6.1644916374,
				"element": "O" 
			},
			{
				"x": -0.8043039478,
				"y": 0.7904851621,
				"z": 0.9130570027,
				"element": "C" 
			},
			{
				"x": -0.9665477585,
				"y": 0.673115429,
				"z": -0.4568099891,
				"element": "C" 
			},
			{
				"x": -1.7306237182,
				"y": -0.2767049245,
				"z": -1.0707836017,
				"element": "O" 
			},
			{
				"x": -1.5255627053,
				"y": -0.1676859048,
				"z": -2.5128268965,
				"element": "C" 
			},
			{
				"x": -0.7832049591,
				"y": -1.4069344593,
				"z": -2.9943320385,
				"element": "C" 
			},
			{
				"x": -0.7483770299,
				"y": 1.1619985873,
				"z": -2.7474042864,
				"element": "C" 
			},
			{
				"x": -0.3435694253,
				"y": 1.5488317149,
				"z": -1.3469147329,
				"element": "C" 
			},
			{
				"x": 0.4680003452,
				"y": 2.5716225929,
				"z": -0.8715737883,
				"element": "C" 
			},
			{
				"x": 2.7809725056,
				"y": 4.1181880427,
				"z": -0.45765575,
				"element": "H" 
			},
			{
				"x": 1.3536909701,
				"y": 5.1927054364,
				"z": -0.3679372516,
				"element": "H" 
			},
			{
				"x": 2.6258304452,
				"y": 5.2899448253,
				"z": 0.8781008148,
				"element": "H" 
			},
			{
				"x": 0.8945660876,
				"y": 2.8292643344,
				"z": 3.0967068778,
				"element": "H" 
			},
			{
				"x": -1.0611109798,
				"y": 0.5200274239,
				"z": 3.685656645,
				"element": "H" 
			},
			{
				"x": 1.5851709164,
				"y": 2.3765544412,
				"z": 4.8869926546,
				"element": "H" 
			},
			{
				"x": -1.2975520636,
				"y": 0.0915601758,
				"z": 1.5781114143,
				"element": "H" 
			},
			{
				"x": -2.5245565759,
				"y": -0.1303762218,
				"z": -2.9577976788,
				"element": "H" 
			},
			{
				"x": -1.3247059816,
				"y": -2.3135426048,
				"z": -2.7113633355,
				"element": "H" 
			},
			{
				"x": 0.2179037581,
				"y": -1.4505102267,
				"z": -2.5527511877,
				"element": "H" 
			},
			{
				"x": -0.6802218438,
				"y": -1.3900813934,
				"z": -4.0847506674,
				"element": "H" 
			},
			{
				"x": 0.1087232144,
				"y": 1.0125128021,
				"z": -3.413884638,
				"element": "H" 
			},
			{
				"x": -1.3853779831,
				"y": 1.9276114487,
				"z": -3.2067609201,
				"element": "H" 
			},
			{
				"x": 0.9512013968,
				"y": 3.2501155919,
				"z": -1.5644088875,
				"element": "H" 
			}
		],
		 "valence_orbital": [ 
			{
				"type": "occ",
				"energy": -0.30006,
				"method": "rhf"
			},
			{
				"type": "occ",
				"energy": -0.2862,
				"method": "rhf"
			},
			{
				"type": "occ",
				"energy": -0.25811,
				"method": "rhf"
			},
			{
				"type": "occ",
				"energy": -0.2424,
				"method": "rhf"
			},
			{
				"type": "occ",
				"energy": -0.20454,
				"method": "rhf"
			},
			{
				"type": "unocc",
				"energy": -0.06507,
				"method": "rhf"
			},
			{
				"type": "unocc",
				"energy": 0.00193,
				"method": "rhf"
			},
			{
				"type": "unocc",
				"energy": 0.02669,
				"method": "rhf"
			},
			{
				"type": "unocc",
				"energy": 0.07265,
				"method": "rhf"
			},
			{
				"type": "unocc",
				"energy": 0.08327,
				"method": "rhf"
			}
		],
		"cosmo_sigma_profile": { 
			"-0.025": 0.0,
			"-0.024": 0.0,
			"-0.023": 0.0,
			"-0.022": 0.0,
			"-0.021": 0.0,
			"-0.02": 0.0,
			"-0.019": 0.0,
			"-0.018": 0.499384030986,
			"-0.017": 0.869531330699,
			"-0.016": 0.670694182331,
			"-0.015": 1.31209466815,
			"-0.014": 1.05002202317,
			"-0.013": 0.5039363861,
			"-0.012": 0.769254587335,
			"-0.011": 1.16978786078,
			"-0.01": 0.821507679298,
			"-0.009": 1.29433017861,
			"-0.008": 3.09619515943,
			"-0.007": 4.96813427589,
			"-0.006": 11.4581520799,
			"-0.005": 22.4148318913,
			"-0.004": 27.5206429961,
			"-0.003": 28.7239167,
			"-0.002": 21.3652050595,
			"-0.001": 16.8112117037,
			"0.0": 16.4574819269,
			"0.001": 15.4687063092,
			"0.002": 17.099112127,
			"0.003": 20.8249481592,
			"0.004": 14.182510614,
			"0.005": 6.39848437435,
			"0.006": 5.36235001811,
			"0.007": 4.23471534511,
			"0.008": 3.56525393501,
			"0.009": 4.52037372384,
			"0.01": 4.84414845968,
			"0.011": 6.71594331429,
			"0.012": 6.44707335885,
			"0.013": 4.54380217545,
			"0.014": 1.26625783265,
			"0.015": 0.0,
			"0.016": 0.0,
			"0.017": 0.0,
			"0.018": 0.0,
			"0.019": 0.0,
			"0.02": 0.0,
			"0.021": 0.0,
			"0.022": 0.0,
			"0.023": 0.0,
			"0.024": 0.0,
			"0.025": 0.0
		}
	}
}
