{
	 "smiles": "CN(C)C1=CC=C(C=C1)C(N)=S", 
	 "Tm": 391.15, 
	 "num_atms": 24, 
	 "gaussian": { 
		 "optdone": 1, 
		 "sigma_profile": "yes", 
		 "theory": "DFT", 
		 "functional": "B3LYP", 
		 "basiset": "6-31G**", 
		 "properties": { 
			 "R2extent": 3732.1034, 
			 "electric_dipole_moment_norm": 6.7628379228, 
			 "electric_quadrupole_moment_norm": 30.6125855403, 
			 "total_energy": -857.886275216, 
			 "HOMO_LUMO_gap": 0.14619, 
			 "cosmo_polarized_energy": -18.06, 
			 "cosmo_cavitation_energy": 28.36, 
			 "cosmo_dispersion_energy": -21.48, 
			 "cosmo_repulsion_energy": 1.65, 
			 "cosmo_total_nonelectrostatic_energy": 8.52, 
			 "SMD_solvation_energy": 3.74 
		},
		"coords": [
			{
				"x": 2.7377314842,
				"y": -1.1007485255,
				"z": 1.9019727946,
				"element": "C" 
			},
			{
				"x": 2.8017508074,
				"y": -0.1199853909,
				"z": 0.8312636994,
				"element": "N" 
			},
			{
				"x": 4.0977197138,
				"y": 0.4030333691,
				"z": 0.428686806,
				"element": "C" 
			},
			{
				"x": 1.6891134415,
				"y": 0.1226504749,
				"z": 0.0515296968,
				"element": "C" 
			},
			{
				"x": 0.4430561047,
				"y": -0.4892040417,
				"z": 0.3315552887,
				"element": "C" 
			},
			{
				"x": -0.6752292142,
				"y": -0.2153803223,
				"z": -0.4428551825,
				"element": "C" 
			},
			{
				"x": -0.622149458,
				"y": 0.6628493485,
				"z": -1.5413999639,
				"element": "C" 
			},
			{
				"x": 0.623252969,
				"y": 1.2449896991,
				"z": -1.835883739,
				"element": "C" 
			},
			{
				"x": 1.746070879,
				"y": 0.9928655737,
				"z": -1.0663869624,
				"element": "C" 
			},
			{
				"x": -1.8101227041,
				"y": 0.9592864491,
				"z": -2.3683969717,
				"element": "C" 
			},
			{
				"x": -3.0099177427,
				"y": 0.7554329468,
				"z": -1.7651448037,
				"element": "N" 
			},
			{
				"x": -1.7408618647,
				"y": 1.4818406638,
				"z": -3.9588557962,
				"element": "S" 
			},
			{
				"x": 2.533148685,
				"y": -2.116788131,
				"z": 1.5329289681,
				"element": "H" 
			},
			{
				"x": 1.9600209673,
				"y": -0.8424542487,
				"z": 2.6306292739,
				"element": "H" 
			},
			{
				"x": 3.6918551109,
				"y": -1.1177435644,
				"z": 2.4300023036,
				"element": "H" 
			},
			{
				"x": 4.4213242712,
				"y": 0.0168624391,
				"z": -0.548659499,
				"element": "H" 
			},
			{
				"x": 4.0861097676,
				"y": 1.4981748145,
				"z": 0.3729848725,
				"element": "H" 
			},
			{
				"x": 4.8445602245,
				"y": 0.1178489488,
				"z": 1.1704870997,
				"element": "H" 
			},
			{
				"x": 0.3496965161,
				"y": -1.1961730999,
				"z": 1.1463915556,
				"element": "H" 
			},
			{
				"x": -1.5965823137,
				"y": -0.7430638235,
				"z": -0.2122509196,
				"element": "H" 
			},
			{
				"x": 0.6905040055,
				"y": 1.9099875343,
				"z": -2.6902670259,
				"element": "H" 
			},
			{
				"x": 2.6771752289,
				"y": 1.4753648992,
				"z": -1.3361157944,
				"element": "H" 
			},
			{
				"x": -3.838600202,
				"y": 0.9931477298,
				"z": -2.2900308927,
				"element": "H" 
			},
			{
				"x": -3.0817266772,
				"y": 0.7075062573,
				"z": -0.7596848077,
				"element": "H" 
			}
		],
		 "valence_orbital": [ 
			{
				"type": "occ",
				"energy": -0.28981,
				"method": "rhf"
			},
			{
				"type": "occ",
				"energy": -0.25434,
				"method": "rhf"
			},
			{
				"type": "occ",
				"energy": -0.22187,
				"method": "rhf"
			},
			{
				"type": "occ",
				"energy": -0.19988,
				"method": "rhf"
			},
			{
				"type": "occ",
				"energy": -0.18996,
				"method": "rhf"
			},
			{
				"type": "unocc",
				"energy": -0.04377,
				"method": "rhf"
			},
			{
				"type": "unocc",
				"energy": -0.00304,
				"method": "rhf"
			},
			{
				"type": "unocc",
				"energy": 0.04361,
				"method": "rhf"
			},
			{
				"type": "unocc",
				"energy": 0.07579,
				"method": "rhf"
			},
			{
				"type": "unocc",
				"energy": 0.08482,
				"method": "rhf"
			}
		],
		"cosmo_sigma_profile": { 
			"-0.025": 0.0,
			"-0.024": 0.0,
			"-0.023": 0.0,
			"-0.022": 0.0,
			"-0.021": 0.0,
			"-0.02": 0.0,
			"-0.019": 0.0,
			"-0.018": 0.0,
			"-0.017": 0.0,
			"-0.016": 0.0,
			"-0.015": 0.62445404824,
			"-0.014": 2.06620998109,
			"-0.013": 2.24869293183,
			"-0.012": 2.41390532877,
			"-0.011": 2.43422752667,
			"-0.01": 2.50760375402,
			"-0.009": 2.21042085091,
			"-0.008": 1.90144083673,
			"-0.007": 4.12227299936,
			"-0.006": 8.78570621577,
			"-0.005": 15.474514156,
			"-0.004": 20.7253493045,
			"-0.003": 20.2220399663,
			"-0.002": 21.7668067144,
			"-0.001": 13.5182753903,
			"0.0": 8.4569963021,
			"0.001": 9.12191425366,
			"0.002": 10.4338703478,
			"0.003": 10.7227854356,
			"0.004": 13.2861977083,
			"0.005": 15.7540553049,
			"0.006": 6.93043317809,
			"0.007": 4.10128171272,
			"0.008": 5.22187984367,
			"0.009": 6.05498416825,
			"0.01": 6.21124077461,
			"0.011": 5.38576230976,
			"0.012": 3.33261268869,
			"0.013": 1.27406776891,
			"0.014": 0.0,
			"0.015": 0.0,
			"0.016": 0.0,
			"0.017": 0.0,
			"0.018": 0.0,
			"0.019": 0.0,
			"0.02": 0.0,
			"0.021": 0.0,
			"0.022": 0.0,
			"0.023": 0.0,
			"0.024": 0.0,
			"0.025": 0.0
		}
	}
}
