{
	 "smiles": "FC(F)OC1=CC=C(C=C1)C(=O)CC#N", 
	 "Tm": 354.15, 
	 "num_atms": 22, 
	 "gaussian": { 
		 "optdone": 1, 
		 "sigma_profile": "yes", 
		 "theory": "DFT", 
		 "functional": "B3LYP", 
		 "basiset": "6-31G**", 
		 "properties": { 
			 "R2extent": 4963.7901, 
			 "electric_dipole_moment_norm": 4.06930579338, 
			 "electric_quadrupole_moment_norm": 19.5344122271, 
			 "total_energy": -790.131198725, 
			 "HOMO_LUMO_gap": 0.18528, 
			 "cosmo_polarized_energy": -14.96, 
			 "cosmo_cavitation_energy": 29.18, 
			 "cosmo_dispersion_energy": -20.26, 
			 "cosmo_repulsion_energy": 1.55, 
			 "cosmo_total_nonelectrostatic_energy": 10.47, 
			 "SMD_solvation_energy": 8.18 
		},
		"coords": [
			{
				"x": -1.5089193222,
				"y": -3.5231869845,
				"z": -2.190181281,
				"element": "F" 
			},
			{
				"x": -1.0831470205,
				"y": -2.2612295967,
				"z": -2.0332699095,
				"element": "C" 
			},
			{
				"x": -0.8045694334,
				"y": -1.757264326,
				"z": -3.2671554718,
				"element": "F" 
			},
			{
				"x": 0.0599570846,
				"y": -2.3276338481,
				"z": -1.2647433017,
				"element": "O" 
			},
			{
				"x": 0.5446658425,
				"y": -1.1720038792,
				"z": -0.693938063,
				"element": "C" 
			},
			{
				"x": 0.2651222051,
				"y": 0.1119426696,
				"z": -1.1803681683,
				"element": "C" 
			},
			{
				"x": 0.8042853182,
				"y": 1.2110217715,
				"z": -0.5227260054,
				"element": "C" 
			},
			{
				"x": 1.6322480481,
				"y": 1.0544425501,
				"z": 0.600353565,
				"element": "C" 
			},
			{
				"x": 1.9156600675,
				"y": -0.2450117496,
				"z": 1.0570543517,
				"element": "C" 
			},
			{
				"x": 1.3734115269,
				"y": -1.3520695764,
				"z": 0.4182188624,
				"element": "C" 
			},
			{
				"x": 2.1554734975,
				"y": 2.2850034848,
				"z": 1.2488519309,
				"element": "C" 
			},
			{
				"x": 1.8581090409,
				"y": 3.4009963482,
				"z": 0.8624568396,
				"element": "O" 
			},
			{
				"x": 3.0754813389,
				"y": 2.1620596948,
				"z": 2.4917590744,
				"element": "C" 
			},
			{
				"x": 4.3457925854,
				"y": 1.4861466527,
				"z": 2.2314838872,
				"element": "C" 
			},
			{
				"x": 5.3510746388,
				"y": 0.9473925651,
				"z": 2.0150853387,
				"element": "N" 
			},
			{
				"x": -1.8660975576,
				"y": -1.6461601626,
				"z": -1.5738329762,
				"element": "H" 
			},
			{
				"x": -0.3324214897,
				"y": 0.2483758205,
				"z": -2.0731841808,
				"element": "H" 
			},
			{
				"x": 0.6021240718,
				"y": 2.2164626075,
				"z": -0.8758055995,
				"element": "H" 
			},
			{
				"x": 2.5647379628,
				"y": -0.4061525804,
				"z": 1.9106875912,
				"element": "H" 
			},
			{
				"x": 1.5769422352,
				"y": -2.3599083397,
				"z": 0.7624608434,
				"element": "H" 
			},
			{
				"x": 3.268152984,
				"y": 3.1820600236,
				"z": 2.8335807869,
				"element": "H" 
			},
			{
				"x": 2.5474163752,
				"y": 1.6288168546,
				"z": 3.2920118857,
				"element": "H" 
			}
		],
		 "valence_orbital": [ 
			{
				"type": "occ",
				"energy": -0.34529,
				"method": "rhf"
			},
			{
				"type": "occ",
				"energy": -0.33546,
				"method": "rhf"
			},
			{
				"type": "occ",
				"energy": -0.28489,
				"method": "rhf"
			},
			{
				"type": "occ",
				"energy": -0.27533,
				"method": "rhf"
			},
			{
				"type": "occ",
				"energy": -0.26417,
				"method": "rhf"
			},
			{
				"type": "unocc",
				"energy": -0.07889,
				"method": "rhf"
			},
			{
				"type": "unocc",
				"energy": -0.03381,
				"method": "rhf"
			},
			{
				"type": "unocc",
				"energy": 0.01134,
				"method": "rhf"
			},
			{
				"type": "unocc",
				"energy": 0.02503,
				"method": "rhf"
			},
			{
				"type": "unocc",
				"energy": 0.0353,
				"method": "rhf"
			}
		],
		"cosmo_sigma_profile": { 
			"-0.025": 0.0,
			"-0.024": 0.0,
			"-0.023": 0.0,
			"-0.022": 0.0,
			"-0.021": 0.0,
			"-0.02": 0.0,
			"-0.019": 0.0,
			"-0.018": 0.0,
			"-0.017": 0.0,
			"-0.016": 0.0,
			"-0.015": 0.0,
			"-0.014": 0.0,
			"-0.013": 0.0,
			"-0.012": 0.0962659834451,
			"-0.011": 2.98793265388,
			"-0.01": 8.43479720639,
			"-0.009": 7.17425927149,
			"-0.008": 8.12338781101,
			"-0.007": 10.360143285,
			"-0.006": 12.6617033049,
			"-0.005": 10.3968679107,
			"-0.004": 9.25533875568,
			"-0.003": 8.51085852678,
			"-0.002": 9.6908417852,
			"-0.001": 10.3998847872,
			"0.0": 16.7584228504,
			"0.001": 20.9640770402,
			"0.002": 22.2632471717,
			"0.003": 24.9931252194,
			"0.004": 11.1247639348,
			"0.005": 4.43767853337,
			"0.006": 5.04933199899,
			"0.007": 5.98738771075,
			"0.008": 4.465494843,
			"0.009": 5.49261889557,
			"0.01": 6.07708440763,
			"0.011": 5.95050130601,
			"0.012": 2.77211107667,
			"0.013": 1.04831253385,
			"0.014": 0.0,
			"0.015": 0.0,
			"0.016": 0.0,
			"0.017": 0.0,
			"0.018": 0.0,
			"0.019": 0.0,
			"0.02": 0.0,
			"0.021": 0.0,
			"0.022": 0.0,
			"0.023": 0.0,
			"0.024": 0.0,
			"0.025": 0.0
		}
	}
}
