{
	 "smiles": "OC1=C2CC3=CC=CC(CC4=C(O)C(CC5=CC=CC(CC6=CC=CC(CC7=C(O)C(CC1=CC=C2)=CC=C7)=C6O)=C5O)=CC=C4)=C3O", 
	 "Tm": 691.15, 
	 "num_atms": 84, 
	 "gaussian": { 
		 "optdone": 1, 
		 "sigma_profile": "yes", 
		 "theory": "DFT", 
		 "functional": "B3LYP", 
		 "basiset": "6-31G**", 
		 "properties": { 
			 "R2extent": 28046.4184, 
			 "electric_dipole_moment_norm": 1.07150548762, 
			 "electric_quadrupole_moment_norm": 5.84440519814, 
			 "total_energy": -2073.56152487, 
			 "HOMO_LUMO_gap": 0.19964, 
			 "cosmo_polarized_energy": -19.35, 
			 "cosmo_cavitation_energy": 79.85, 
			 "cosmo_dispersion_energy": -50.43, 
			 "cosmo_repulsion_energy": 3.56, 
			 "cosmo_total_nonelectrostatic_energy": 32.99, 
			 "SMD_solvation_energy": 11.26 
		},
		"coords": [
			{
				"x": -0.9666833327,
				"y": -0.7800537341,
				"z": 0.4085981388,
				"element": "O" 
			},
			{
				"x": -2.0366101376,
				"y": -1.4348771738,
				"z": 0.9866202613,
				"element": "C" 
			},
			{
				"x": -3.2988012717,
				"y": -0.8163440566,
				"z": 0.8982157275,
				"element": "C" 
			},
			{
				"x": -3.5046128588,
				"y": 0.41414991,
				"z": 0.0357433658,
				"element": "C" 
			},
			{
				"x": -3.4739340842,
				"y": 0.0493864481,
				"z": -1.443503617,
				"element": "C" 
			},
			{
				"x": -4.5393060071,
				"y": -0.649234899,
				"z": -2.0217360162,
				"element": "C" 
			},
			{
				"x": -4.5045294227,
				"y": -1.023988295,
				"z": -3.3616823957,
				"element": "C" 
			},
			{
				"x": -3.3914260473,
				"y": -0.7039435739,
				"z": -4.1379447591,
				"element": "C" 
			},
			{
				"x": -2.3026790049,
				"y": -0.0077219495,
				"z": -3.600312468,
				"element": "C" 
			},
			{
				"x": -1.157815506,
				"y": 0.3949290216,
				"z": -4.5211364823,
				"element": "C" 
			},
			{
				"x": 0.2867292605,
				"y": 0.2853101136,
				"z": -4.0586232445,
				"element": "C" 
			},
			{
				"x": 0.9573616741,
				"y": 1.4348348876,
				"z": -3.606416635,
				"element": "C" 
			},
			{
				"x": 0.2696181519,
				"y": 2.5982314971,
				"z": -3.3836087008,
				"element": "O" 
			},
			{
				"x": 2.3511825181,
				"y": 1.4537795888,
				"z": -3.4272459976,
				"element": "C" 
			},
			{
				"x": 3.0429318502,
				"y": 2.771669969,
				"z": -3.1165299709,
				"element": "C" 
			},
			{
				"x": 2.7775479367,
				"y": 3.3995650208,
				"z": -1.7562225151,
				"element": "C" 
			},
			{
				"x": 2.0344682185,
				"y": 4.5781782574,
				"z": -1.6350605168,
				"element": "C" 
			},
			{
				"x": 1.9208708641,
				"y": 5.2354112999,
				"z": -0.4114093201,
				"element": "C" 
			},
			{
				"x": 2.5963290641,
				"y": 4.7393575083,
				"z": 0.7019705316,
				"element": "C" 
			},
			{
				"x": 3.3406277918,
				"y": 3.5573174489,
				"z": 0.629741841,
				"element": "C" 
			},
			{
				"x": 4.202423812,
				"y": 3.1057198913,
				"z": 1.7991888454,
				"element": "C" 
			},
			{
				"x": 3.5778282178,
				"y": 2.2713306085,
				"z": 2.9089833524,
				"element": "C" 
			},
			{
				"x": 3.1862720256,
				"y": 2.8773455424,
				"z": 4.108413109,
				"element": "C" 
			},
			{
				"x": 2.775400423,
				"y": 2.1244136211,
				"z": 5.2074108786,
				"element": "C" 
			},
			{
				"x": 2.822679519,
				"y": 0.7337237672,
				"z": 5.1366228613,
				"element": "C" 
			},
			{
				"x": 3.2122117229,
				"y": 0.0872083888,
				"z": 3.9608450598,
				"element": "C" 
			},
			{
				"x": 3.4356120444,
				"y": -1.4169630238,
				"z": 3.9247768701,
				"element": "C" 
			},
			{
				"x": 2.2094554316,
				"y": -2.3106580988,
				"z": 3.909767667,
				"element": "C" 
			},
			{
				"x": 1.3501077524,
				"y": -2.3938903252,
				"z": 2.7980099234,
				"element": "C" 
			},
			{
				"x": 1.4949629783,
				"y": -1.5948739557,
				"z": 1.6826170284,
				"element": "O" 
			},
			{
				"x": 0.2983452114,
				"y": -3.324293459,
				"z": 2.7645181996,
				"element": "C" 
			},
			{
				"x": -0.5815914872,
				"y": -3.4687695985,
				"z": 1.5359188664,
				"element": "C" 
			},
			{
				"x": -1.8917200015,
				"y": -2.69686165,
				"z": 1.5858912501,
				"element": "C" 
			},
			{
				"x": -3.0127458259,
				"y": -3.2765742713,
				"z": 2.1950591322,
				"element": "C" 
			},
			{
				"x": -4.2497476808,
				"y": -2.6418934721,
				"z": 2.1951110301,
				"element": "C" 
			},
			{
				"x": -4.3869303128,
				"y": -1.4257169463,
				"z": 1.5269911085,
				"element": "C" 
			},
			{
				"x": 0.0852232221,
				"y": -4.1387424205,
				"z": 3.8810394568,
				"element": "C" 
			},
			{
				"x": 0.8950083681,
				"y": -4.0457540931,
				"z": 5.0086752977,
				"element": "C" 
			},
			{
				"x": 1.9539632706,
				"y": -3.1414536482,
				"z": 5.0066945313,
				"element": "C" 
			},
			{
				"x": 3.5098785879,
				"y": 0.8689977488,
				"z": 2.8323901562,
				"element": "C" 
			},
			{
				"x": 3.7691264179,
				"y": 0.1722922174,
				"z": 1.6726325286,
				"element": "O" 
			},
			{
				"x": 3.3654611025,
				"y": 2.8766061428,
				"z": -0.5953539077,
				"element": "C" 
			},
			{
				"x": 4.0629180488,
				"y": 1.6725974985,
				"z": -0.6377703818,
				"element": "O" 
			},
			{
				"x": 3.062981136,
				"y": 0.2634425052,
				"z": -3.6215465463,
				"element": "C" 
			},
			{
				"x": 2.401832273,
				"y": -0.9158941865,
				"z": -3.9785844635,
				"element": "C" 
			},
			{
				"x": 1.027754394,
				"y": -0.893007789,
				"z": -4.2138636578,
				"element": "C" 
			},
			{
				"x": -2.3648573918,
				"y": 0.3595167702,
				"z": -2.2457118261,
				"element": "C" 
			},
			{
				"x": -1.3105845876,
				"y": 1.0765524048,
				"z": -1.7077675318,
				"element": "O" 
			},
			{
				"x": -0.120027959,
				"y": -1.0660191242,
				"z": 0.8084811435,
				"element": "H" 
			},
			{
				"x": -2.75313476,
				"y": 1.1786165445,
				"z": 0.2482529997,
				"element": "H" 
			},
			{
				"x": -4.4795654383,
				"y": 0.8507607752,
				"z": 0.2758283913,
				"element": "H" 
			},
			{
				"x": -5.3979816292,
				"y": -0.9050975946,
				"z": -1.4065978396,
				"element": "H" 
			},
			{
				"x": -5.337280325,
				"y": -1.5658094521,
				"z": -3.8002208995,
				"element": "H" 
			},
			{
				"x": -3.3613336445,
				"y": -0.9970862743,
				"z": -5.1845039154,
				"element": "H" 
			},
			{
				"x": -1.2567270575,
				"y": -0.2013439193,
				"z": -5.4344536635,
				"element": "H" 
			},
			{
				"x": -1.3165170347,
				"y": 1.43784427,
				"z": -4.8243830689,
				"element": "H" 
			},
			{
				"x": -0.4632170705,
				"y": 2.3602616255,
				"z": -2.781897737,
				"element": "H" 
			},
			{
				"x": 4.125155203,
				"y": 2.6266188063,
				"z": -3.2311620326,
				"element": "H" 
			},
			{
				"x": 2.7491524541,
				"y": 3.5029516652,
				"z": -3.8757654369,
				"element": "H" 
			},
			{
				"x": 1.5485090142,
				"y": 4.9767953178,
				"z": -2.5197907529,
				"element": "H" 
			},
			{
				"x": 1.3400491025,
				"y": 6.1495358862,
				"z": -0.3353686793,
				"element": "H" 
			},
			{
				"x": 2.5635940546,
				"y": 5.2808535788,
				"z": 1.6439644027,
				"element": "H" 
			},
			{
				"x": 5.0735725519,
				"y": 2.5705281669,
				"z": 1.4048917016,
				"element": "H" 
			},
			{
				"x": 4.6009581542,
				"y": 4.0097515532,
				"z": 2.2704757577,
				"element": "H" 
			},
			{
				"x": 3.2329022096,
				"y": 3.9609668648,
				"z": 4.1837630234,
				"element": "H" 
			},
			{
				"x": 2.4698998057,
				"y": 2.6177383847,
				"z": 6.1249214305,
				"element": "H" 
			},
			{
				"x": 2.5738501355,
				"y": 0.1332956851,
				"z": 6.0079780726,
				"element": "H" 
			},
			{
				"x": 4.0193074685,
				"y": -1.683707148,
				"z": 4.8118823999,
				"element": "H" 
			},
			{
				"x": 4.0725810333,
				"y": -1.6536867181,
				"z": 3.0661131934,
				"element": "H" 
			},
			{
				"x": 2.3121185766,
				"y": -1.0560892502,
				"z": 1.6943660359,
				"element": "H" 
			},
			{
				"x": -0.8303905289,
				"y": -4.5290850276,
				"z": 1.422427295,
				"element": "H" 
			},
			{
				"x": -0.0169540597,
				"y": -3.18858657,
				"z": 0.6423907422,
				"element": "H" 
			},
			{
				"x": -2.9063620623,
				"y": -4.2525569693,
				"z": 2.6613434103,
				"element": "H" 
			},
			{
				"x": -5.104618669,
				"y": -3.1023287154,
				"z": 2.6808426509,
				"element": "H" 
			},
			{
				"x": -5.3577107863,
				"y": -0.9388015825,
				"z": 1.4788229203,
				"element": "H" 
			},
			{
				"x": -0.723193972,
				"y": -4.8644760814,
				"z": 3.8527260167,
				"element": "H" 
			},
			{
				"x": 0.7189767431,
				"y": -4.6844701267,
				"z": 5.868673499,
				"element": "H" 
			},
			{
				"x": 2.6168246628,
				"y": -3.0826191016,
				"z": 5.8662888182,
				"element": "H" 
			},
			{
				"x": 3.9039187452,
				"y": 0.7607222997,
				"z": 0.8981981118,
				"element": "H" 
			},
			{
				"x": 3.7505537493,
				"y": 1.1531685804,
				"z": -1.3960493857,
				"element": "H" 
			},
			{
				"x": 4.1482355014,
				"y": 0.2671585481,
				"z": -3.5262053892,
				"element": "H" 
			},
			{
				"x": 2.9639526147,
				"y": -1.8344859248,
				"z": -4.1171236634,
				"element": "H" 
			},
			{
				"x": 0.5217619842,
				"y": -1.7939353013,
				"z": -4.552248684,
				"element": "H" 
			},
			{
				"x": -1.0186970961,
				"y": 0.6141588708,
				"z": -0.8964769338,
				"element": "H" 
			}
		],
		 "valence_orbital": [ 
			{
				"type": "occ",
				"energy": -0.2249,
				"method": "rhf"
			},
			{
				"type": "occ",
				"energy": -0.22234,
				"method": "rhf"
			},
			{
				"type": "occ",
				"energy": -0.22037,
				"method": "rhf"
			},
			{
				"type": "occ",
				"energy": -0.21901,
				"method": "rhf"
			},
			{
				"type": "occ",
				"energy": -0.21282,
				"method": "rhf"
			},
			{
				"type": "unocc",
				"energy": -0.01318,
				"method": "rhf"
			},
			{
				"type": "unocc",
				"energy": -0.0101,
				"method": "rhf"
			},
			{
				"type": "unocc",
				"energy": -0.00491,
				"method": "rhf"
			},
			{
				"type": "unocc",
				"energy": -0.00147,
				"method": "rhf"
			},
			{
				"type": "unocc",
				"energy": 0.0029,
				"method": "rhf"
			}
		],
		"cosmo_sigma_profile": { 
			"-0.025": 0.0,
			"-0.024": 0.0,
			"-0.023": 0.0,
			"-0.022": 0.0,
			"-0.021": 0.0,
			"-0.02": 0.0,
			"-0.019": 0.0,
			"-0.018": 0.0,
			"-0.017": 0.0,
			"-0.016": 0.0,
			"-0.015": 0.0,
			"-0.014": 0.0,
			"-0.013": 0.0,
			"-0.012": 0.0,
			"-0.011": 0.423775274131,
			"-0.01": 1.95667250606,
			"-0.009": 2.3903271218,
			"-0.008": 1.70933981511,
			"-0.007": 4.50579896302,
			"-0.006": 18.8740084524,
			"-0.005": 57.6090396754,
			"-0.004": 60.1104687732,
			"-0.003": 62.5421034353,
			"-0.002": 50.6585342524,
			"-0.001": 52.1030252316,
			"0.0": 40.896862887,
			"0.001": 39.5074370882,
			"0.002": 41.6777388201,
			"0.003": 46.8922831079,
			"0.004": 47.572322653,
			"0.005": 50.691687396,
			"0.006": 41.5229185195,
			"0.007": 8.66853529829,
			"0.008": 2.19337294001,
			"0.009": 0.936145658437,
			"0.01": 0.947256561513,
			"0.011": 0.688430166894,
			"0.012": 0.584150898942,
			"0.013": 0.1698529687,
			"0.014": 0.0,
			"0.015": 0.0,
			"0.016": 0.0,
			"0.017": 0.0,
			"0.018": 0.0,
			"0.019": 0.0,
			"0.02": 0.0,
			"0.021": 0.0,
			"0.022": 0.0,
			"0.023": 0.0,
			"0.024": 0.0,
			"0.025": 0.0
		}
	}
}
