{
	 "smiles": "CC1=CC(=NN1)C1CCCNC1", 
	 "Tm": 378.15, 
	 "num_atms": 27, 
	 "gaussian": { 
		 "optdone": 1, 
		 "sigma_profile": "yes", 
		 "theory": "DFT", 
		 "functional": "B3LYP", 
		 "basiset": "6-31G**", 
		 "properties": { 
			 "R2extent": 2391.5201, 
			 "electric_dipole_moment_norm": 3.91957942004, 
			 "electric_quadrupole_moment_norm": 11.0823362821, 
			 "total_energy": -516.243559027, 
			 "HOMO_LUMO_gap": 0.21344, 
			 "cosmo_polarized_energy": -10.06, 
			 "cosmo_cavitation_energy": 27.67, 
			 "cosmo_dispersion_energy": -20.76, 
			 "cosmo_repulsion_energy": 1.68, 
			 "cosmo_total_nonelectrostatic_energy": 8.6, 
			 "SMD_solvation_energy": 0.86 
		},
		"coords": [
			{
				"x": -4.3715904435,
				"y": 0.0074819115,
				"z": 0.1364996017,
				"element": "C" 
			},
			{
				"x": -2.8782319307,
				"y": 0.0744495658,
				"z": 0.1945986564,
				"element": "C" 
			},
			{
				"x": -1.980547449,
				"y": 1.0497045643,
				"z": -0.2009346118,
				"element": "C" 
			},
			{
				"x": -0.6918865156,
				"y": 0.5451328334,
				"z": 0.1149627717,
				"element": "C" 
			},
			{
				"x": -0.7837921165,
				"y": -0.6685154754,
				"z": 0.6695832548,
				"element": "N" 
			},
			{
				"x": -2.1135187473,
				"y": -0.9282058102,
				"z": 0.7073952031,
				"element": "N" 
			},
			{
				"x": 0.6351841615,
				"y": 1.2264701798,
				"z": -0.1177108294,
				"element": "C" 
			},
			{
				"x": 1.3311784101,
				"y": 0.7549547237,
				"z": -1.4227428718,
				"element": "C" 
			},
			{
				"x": 1.9303050595,
				"y": -0.6516821222,
				"z": -1.2779822734,
				"element": "C" 
			},
			{
				"x": 2.8385835951,
				"y": -0.7284864839,
				"z": -0.0371186899,
				"element": "C" 
			},
			{
				"x": 2.190877846,
				"y": -0.2889721088,
				"z": 1.2028429238,
				"element": "N" 
			},
			{
				"x": 1.6181904549,
				"y": 1.0503488806,
				"z": 1.0703094327,
				"element": "C" 
			},
			{
				"x": -4.7689881107,
				"y": 0.9212793058,
				"z": -0.3100888875,
				"element": "H" 
			},
			{
				"x": -4.8146051017,
				"y": -0.0961326974,
				"z": 1.1340866905,
				"element": "H" 
			},
			{
				"x": -4.7186381607,
				"y": -0.8378377929,
				"z": -0.4694525793,
				"element": "H" 
			},
			{
				"x": -2.2214771499,
				"y": 2.0020912241,
				"z": -0.6511572361,
				"element": "H" 
			},
			{
				"x": -2.4283742667,
				"y": -1.8028055805,
				"z": 1.0976059651,
				"element": "H" 
			},
			{
				"x": 0.4190223211,
				"y": 2.2983377625,
				"z": -0.2222735204,
				"element": "H" 
			},
			{
				"x": 2.1369111434,
				"y": 1.4669955347,
				"z": -1.652448888,
				"element": "H" 
			},
			{
				"x": 0.6263729576,
				"y": 0.7945693585,
				"z": -2.2616086149,
				"element": "H" 
			},
			{
				"x": 2.4961271145,
				"y": -0.9155781353,
				"z": -2.1809550769,
				"element": "H" 
			},
			{
				"x": 1.1219598768,
				"y": -1.3859271955,
				"z": -1.1770657742,
				"element": "H" 
			},
			{
				"x": 3.2065636107,
				"y": -1.7508417282,
				"z": 0.1078612367,
				"element": "H" 
			},
			{
				"x": 3.7241493829,
				"y": -0.0945847456,
				"z": -0.1952731316,
				"element": "H" 
			},
			{
				"x": 1.4254390049,
				"y": -0.927058666,
				"z": 1.4150100947,
				"element": "H" 
			},
			{
				"x": 1.119798496,
				"y": 1.3110744355,
				"z": 2.0101502654,
				"element": "H" 
			},
			{
				"x": 2.4465865575,
				"y": 1.7609382616,
				"z": 0.9361068887,
				"element": "H" 
			}
		],
		 "valence_orbital": [ 
			{
				"type": "occ",
				"energy": -0.30272,
				"method": "rhf"
			},
			{
				"type": "occ",
				"energy": -0.27966,
				"method": "rhf"
			},
			{
				"type": "occ",
				"energy": -0.24241,
				"method": "rhf"
			},
			{
				"type": "occ",
				"energy": -0.23506,
				"method": "rhf"
			},
			{
				"type": "occ",
				"energy": -0.19362,
				"method": "rhf"
			},
			{
				"type": "unocc",
				"energy": 0.01982,
				"method": "rhf"
			},
			{
				"type": "unocc",
				"energy": 0.07515,
				"method": "rhf"
			},
			{
				"type": "unocc",
				"energy": 0.07791,
				"method": "rhf"
			},
			{
				"type": "unocc",
				"energy": 0.09918,
				"method": "rhf"
			},
			{
				"type": "unocc",
				"energy": 0.11412,
				"method": "rhf"
			}
		],
		"cosmo_sigma_profile": { 
			"-0.025": 0.0,
			"-0.024": 0.0,
			"-0.023": 0.0,
			"-0.022": 0.0,
			"-0.021": 0.0,
			"-0.02": 0.0,
			"-0.019": 0.0,
			"-0.018": 0.0,
			"-0.017": 0.0,
			"-0.016": 0.523967988824,
			"-0.015": 1.31501002542,
			"-0.014": 1.07204786012,
			"-0.013": 1.14098996859,
			"-0.012": 1.15091619652,
			"-0.011": 0.809571666382,
			"-0.01": 0.804955653691,
			"-0.009": 1.63899617641,
			"-0.008": 0.700170086452,
			"-0.007": 0.939027120265,
			"-0.006": 2.29812199128,
			"-0.005": 8.79827606979,
			"-0.004": 10.0774723201,
			"-0.003": 17.5536674143,
			"-0.002": 31.4260159551,
			"-0.001": 29.8037747962,
			"0.0": 29.561272702,
			"0.001": 18.3736154837,
			"0.002": 9.54417385681,
			"0.003": 7.91672619884,
			"0.004": 6.65909059624,
			"0.005": 6.43300018291,
			"0.006": 7.90234096413,
			"0.007": 5.28637809257,
			"0.008": 3.06304053521,
			"0.009": 2.7373334212,
			"0.01": 1.68223135015,
			"0.011": 0.756463588322,
			"0.012": 0.654873216411,
			"0.013": 0.84565702546,
			"0.014": 0.906437566026,
			"0.015": 0.347430375806,
			"0.016": 0.700345026821,
			"0.017": 0.53422786933,
			"0.018": 0.650643100288,
			"0.019": 0.559155275199,
			"0.02": 0.0452246091474,
			"0.021": 0.0,
			"0.022": 0.0,
			"0.023": 0.0,
			"0.024": 0.0,
			"0.025": 0.0
		}
	}
}
