{
	 "smiles": "ClC1=CC=C(C=C1)C1(CC1)C#N", 
	 "Tm": 327.15, 
	 "num_atms": 20, 
	 "gaussian": { 
		 "optdone": 1, 
		 "sigma_profile": "yes", 
		 "theory": "DFT", 
		 "functional": "B3LYP", 
		 "basiset": "6-31G**", 
		 "properties": { 
			 "R2extent": 3495.874, 
			 "electric_dipole_moment_norm": 3.88202624154, 
			 "electric_quadrupole_moment_norm": 20.180099061, 
			 "total_energy": -900.782382561, 
			 "HOMO_LUMO_gap": 0.22327, 
			 "cosmo_polarized_energy": -10.6, 
			 "cosmo_cavitation_energy": 27.23, 
			 "cosmo_dispersion_energy": -18.73, 
			 "cosmo_repulsion_energy": 1.51, 
			 "cosmo_total_nonelectrostatic_energy": 10.01, 
			 "SMD_solvation_energy": 5.56 
		},
		"coords": [
			{
				"x": 3.0888440988,
				"y": -0.890960417,
				"z": 2.9227438124,
				"element": "Cl" 
			},
			{
				"x": 2.1302063808,
				"y": -0.8771025824,
				"z": 1.4509253324,
				"element": "C" 
			},
			{
				"x": 2.7274775516,
				"y": -0.503180833,
				"z": 0.247422329,
				"element": "C" 
			},
			{
				"x": 1.9580144238,
				"y": -0.4901248916,
				"z": -0.9152441145,
				"element": "C" 
			},
			{
				"x": 0.6032583816,
				"y": -0.8411641738,
				"z": -0.8854270059,
				"element": "C" 
			},
			{
				"x": 0.0294363911,
				"y": -1.21968746,
				"z": 0.3339816714,
				"element": "C" 
			},
			{
				"x": 0.784286977,
				"y": -1.2382681689,
				"z": 1.5061105033,
				"element": "C" 
			},
			{
				"x": -0.216543825,
				"y": -0.8465166648,
				"z": -2.1541651302,
				"element": "C" 
			},
			{
				"x": -1.5062166891,
				"y": -0.0317367411,
				"z": -2.2275509707,
				"element": "C" 
			},
			{
				"x": -0.3079081302,
				"y": 0.4192248361,
				"z": -3.0038343325,
				"element": "C" 
			},
			{
				"x": -0.2072846011,
				"y": -2.1059105361,
				"z": -2.8716435797,
				"element": "C" 
			},
			{
				"x": -0.1966307862,
				"y": -3.118353699,
				"z": -3.4431239659,
				"element": "N" 
			},
			{
				"x": 3.7759077499,
				"y": -0.2278605554,
				"z": 0.2227755811,
				"element": "H" 
			},
			{
				"x": 2.4176882415,
				"y": -0.2030088068,
				"z": -1.8565120104,
				"element": "H" 
			},
			{
				"x": -1.0185399936,
				"y": -1.5029186546,
				"z": 0.3692928976,
				"element": "H" 
			},
			{
				"x": 0.3371291088,
				"y": -1.5286858829,
				"z": 2.4502110548,
				"element": "H" 
			},
			{
				"x": -2.3408814154,
				"y": -0.4646624727,
				"z": -2.7682606489,
				"element": "H" 
			},
			{
				"x": -1.7736863001,
				"y": 0.5167635613,
				"z": -1.3302711385,
				"element": "H" 
			},
			{
				"x": -0.3133911754,
				"y": 0.2983631631,
				"z": -4.0817132029,
				"element": "H" 
			},
			{
				"x": 0.2474336112,
				"y": 1.2773909799,
				"z": -2.6396170817,
				"element": "H" 
			}
		],
		 "valence_orbital": [ 
			{
				"type": "occ",
				"energy": -0.3198,
				"method": "rhf"
			},
			{
				"type": "occ",
				"energy": -0.31596,
				"method": "rhf"
			},
			{
				"type": "occ",
				"energy": -0.29319,
				"method": "rhf"
			},
			{
				"type": "occ",
				"energy": -0.27514,
				"method": "rhf"
			},
			{
				"type": "occ",
				"energy": -0.25528,
				"method": "rhf"
			},
			{
				"type": "unocc",
				"energy": -0.03201,
				"method": "rhf"
			},
			{
				"type": "unocc",
				"energy": -0.02742,
				"method": "rhf"
			},
			{
				"type": "unocc",
				"energy": 0.02153,
				"method": "rhf"
			},
			{
				"type": "unocc",
				"energy": 0.0311,
				"method": "rhf"
			},
			{
				"type": "unocc",
				"energy": 0.0389,
				"method": "rhf"
			}
		],
		"cosmo_sigma_profile": { 
			"-0.025": 0.0,
			"-0.024": 0.0,
			"-0.023": 0.0,
			"-0.022": 0.0,
			"-0.021": 0.0,
			"-0.02": 0.0,
			"-0.019": 0.0,
			"-0.018": 0.0,
			"-0.017": 0.0,
			"-0.016": 0.0,
			"-0.015": 0.0,
			"-0.014": 0.0,
			"-0.013": 0.0,
			"-0.012": 0.0,
			"-0.011": 0.0,
			"-0.01": 0.0,
			"-0.009": 0.0,
			"-0.008": 0.782791681155,
			"-0.007": 9.26451989681,
			"-0.006": 15.732589021,
			"-0.005": 17.3989252733,
			"-0.004": 18.0907502879,
			"-0.003": 17.7813152961,
			"-0.002": 16.3737106856,
			"-0.001": 14.0982891058,
			"0.0": 14.2592097716,
			"0.001": 16.7555783984,
			"0.002": 18.7202831729,
			"0.003": 18.4973913754,
			"0.004": 12.6694573603,
			"0.005": 7.14095882907,
			"0.006": 2.38240458927,
			"0.007": 2.75978671349,
			"0.008": 2.93672569121,
			"0.009": 3.66951712755,
			"0.01": 3.37542753544,
			"0.011": 2.99904244766,
			"0.012": 2.845226525,
			"0.013": 2.08827565472,
			"0.014": 0.555953959306,
			"0.015": 0.0,
			"0.016": 0.0,
			"0.017": 0.0,
			"0.018": 0.0,
			"0.019": 0.0,
			"0.02": 0.0,
			"0.021": 0.0,
			"0.022": 0.0,
			"0.023": 0.0,
			"0.024": 0.0,
			"0.025": 0.0
		}
	}
}
