{
	 "smiles": "CCCNC(N)=S", 
	 "Tm": 395.15, 
	 "num_atms": 17, 
	 "gaussian": { 
		 "optdone": 1, 
		 "sigma_profile": "yes", 
		 "theory": "DFT", 
		 "functional": "B3LYP", 
		 "basiset": "6-31G**", 
		 "properties": { 
			 "R2extent": 1663.7468, 
			 "electric_dipole_moment_norm": 5.76596255104, 
			 "electric_quadrupole_moment_norm": 17.783461988, 
			 "total_energy": -666.16717863, 
			 "HOMO_LUMO_gap": 0.20422, 
			 "cosmo_polarized_energy": -18.12, 
			 "cosmo_cavitation_energy": 21.45, 
			 "cosmo_dispersion_energy": -16.05, 
			 "cosmo_repulsion_energy": 1.33, 
			 "cosmo_total_nonelectrostatic_energy": 6.73, 
			 "SMD_solvation_energy": 2.51 
		},
		"coords": [
			{
				"x": 1.5768190433,
				"y": -0.8228673072,
				"z": -1.8181139105,
				"element": "C" 
			},
			{
				"x": 0.7024896726,
				"y": 0.1831603138,
				"z": -1.0645689563,
				"element": "C" 
			},
			{
				"x": -0.6689485602,
				"y": -0.3851175888,
				"z": -0.6592151647,
				"element": "C" 
			},
			{
				"x": -0.6108452631,
				"y": -1.5211602739,
				"z": 0.2559850167,
				"element": "N" 
			},
			{
				"x": -0.3082988504,
				"y": -1.495460813,
				"z": 1.5810820798,
				"element": "C" 
			},
			{
				"x": -0.2070410825,
				"y": -0.2657788607,
				"z": 2.1630543896,
				"element": "N" 
			},
			{
				"x": -0.0518303384,
				"y": -2.912022076,
				"z": 2.4566275024,
				"element": "S" 
			},
			{
				"x": 1.7885011523,
				"y": -1.7027590522,
				"z": -1.2026363223,
				"element": "H" 
			},
			{
				"x": 1.088964583,
				"y": -1.1627002984,
				"z": -2.7394441508,
				"element": "H" 
			},
			{
				"x": 2.5359735167,
				"y": -0.3763244094,
				"z": -2.0964582934,
				"element": "H" 
			},
			{
				"x": 0.5259561528,
				"y": 1.0692376461,
				"z": -1.6880671586,
				"element": "H" 
			},
			{
				"x": 1.2257031921,
				"y": 0.5297725222,
				"z": -0.165827197,
				"element": "H" 
			},
			{
				"x": -1.2075831478,
				"y": -0.7276447874,
				"z": -1.5492242962,
				"element": "H" 
			},
			{
				"x": -1.2945695572,
				"y": 0.4041871119,
				"z": -0.2210267461,
				"element": "H" 
			},
			{
				"x": -0.6099697853,
				"y": -2.4525498546,
				"z": -0.1325776294,
				"element": "H" 
			},
			{
				"x": -0.6036277971,
				"y": 0.5552410085,
				"z": 1.7295855433,
				"element": "H" 
			},
			{
				"x": -0.138592931,
				"y": -0.2689132809,
				"z": 3.1686252934,
				"element": "H" 
			}
		],
		 "valence_orbital": [ 
			{
				"type": "occ",
				"energy": -0.35679,
				"method": "rhf"
			},
			{
				"type": "occ",
				"energy": -0.34772,
				"method": "rhf"
			},
			{
				"type": "occ",
				"energy": -0.27168,
				"method": "rhf"
			},
			{
				"type": "occ",
				"energy": -0.2051,
				"method": "rhf"
			},
			{
				"type": "occ",
				"energy": -0.19835,
				"method": "rhf"
			},
			{
				"type": "unocc",
				"energy": 0.00587,
				"method": "rhf"
			},
			{
				"type": "unocc",
				"energy": 0.04989,
				"method": "rhf"
			},
			{
				"type": "unocc",
				"energy": 0.06995,
				"method": "rhf"
			},
			{
				"type": "unocc",
				"energy": 0.10248,
				"method": "rhf"
			},
			{
				"type": "unocc",
				"energy": 0.11856,
				"method": "rhf"
			}
		],
		"cosmo_sigma_profile": { 
			"-0.025": 0.0,
			"-0.024": 0.0,
			"-0.023": 0.0,
			"-0.022": 0.0,
			"-0.021": 0.0,
			"-0.02": 0.0,
			"-0.019": 0.0,
			"-0.018": 0.0,
			"-0.017": 0.0,
			"-0.016": 0.0,
			"-0.015": 0.542131580547,
			"-0.014": 1.97924563301,
			"-0.013": 3.61612772671,
			"-0.012": 3.37526629704,
			"-0.011": 3.85638471247,
			"-0.01": 2.38951842476,
			"-0.009": 2.79753448139,
			"-0.008": 3.72153135686,
			"-0.007": 3.99154845661,
			"-0.006": 4.5503957792,
			"-0.005": 5.66304113036,
			"-0.004": 8.36069283675,
			"-0.003": 16.99625073,
			"-0.002": 13.3565307872,
			"-0.001": 14.3547902062,
			"0.0": 14.9710942601,
			"0.001": 11.2625225256,
			"0.002": 5.8001502048,
			"0.003": 2.81712634163,
			"0.004": 3.84503475646,
			"0.005": 3.66253327773,
			"0.006": 3.6698018853,
			"0.007": 3.95786200375,
			"0.008": 3.52056970715,
			"0.009": 3.36241908315,
			"0.01": 3.96359809344,
			"0.011": 5.50978295284,
			"0.012": 7.92028920974,
			"0.013": 5.89825918716,
			"0.014": 0.326183775105,
			"0.015": 0.0,
			"0.016": 0.0,
			"0.017": 0.0,
			"0.018": 0.0,
			"0.019": 0.0,
			"0.02": 0.0,
			"0.021": 0.0,
			"0.022": 0.0,
			"0.023": 0.0,
			"0.024": 0.0,
			"0.025": 0.0
		}
	}
}
