{
	 "smiles": "NC1=C(C=O)C=NC=C1", 
	 "Tm": 383.15, 
	 "num_atms": 15, 
	 "gaussian": { 
		 "optdone": 1, 
		 "sigma_profile": "yes", 
		 "theory": "DFT", 
		 "functional": "B3LYP", 
		 "basiset": "6-31G**", 
		 "properties": { 
			 "R2extent": 1157.2401, 
			 "electric_dipole_moment_norm": 2.58243899638, 
			 "electric_quadrupole_moment_norm": 12.7274620993, 
			 "total_energy": -416.981573741, 
			 "HOMO_LUMO_gap": 0.17139, 
			 "cosmo_polarized_energy": -11.24, 
			 "cosmo_cavitation_energy": 19.13, 
			 "cosmo_dispersion_energy": -14.56, 
			 "cosmo_repulsion_energy": 1.18, 
			 "cosmo_total_nonelectrostatic_energy": 5.75, 
			 "SMD_solvation_energy": 2.79 
		},
		"coords": [
			{
				"x": 0.1780154629,
				"y": 1.4297719775,
				"z": 2.179773957,
				"element": "N" 
			},
			{
				"x": 0.402043579,
				"y": 0.5281971296,
				"z": 1.2000594222,
				"element": "C" 
			},
			{
				"x": -0.4328053237,
				"y": 0.4781946138,
				"z": 0.0423131387,
				"element": "C" 
			},
			{
				"x": -1.5571649733,
				"y": 1.3823448483,
				"z": -0.1474634895,
				"element": "C" 
			},
			{
				"x": -1.9075652359,
				"y": 2.2625846626,
				"z": 0.6374710999,
				"element": "O" 
			},
			{
				"x": -0.146210032,
				"y": -0.4838310371,
				"z": -0.9411694428,
				"element": "C" 
			},
			{
				"x": 0.8461046387,
				"y": -1.3655042071,
				"z": -0.8920458251,
				"element": "N" 
			},
			{
				"x": 1.6250069096,
				"y": -1.3028776366,
				"z": 0.210716328,
				"element": "C" 
			},
			{
				"x": 1.4585382755,
				"y": -0.409457962,
				"z": 1.2535582589,
				"element": "C" 
			},
			{
				"x": 0.767899637,
				"y": 1.4624266394,
				"z": 2.9944278696,
				"element": "H" 
			},
			{
				"x": -0.6015268442,
				"y": 2.0689651662,
				"z": 2.0655563945,
				"element": "H" 
			},
			{
				"x": -2.1198718786,
				"y": 1.2323258281,
				"z": -1.0923318982,
				"element": "H" 
			},
			{
				"x": -0.7834783393,
				"y": -0.5228928299,
				"z": -1.8261129467,
				"element": "H" 
			},
			{
				"x": 2.4391306923,
				"y": -2.024562141,
				"z": 0.2528127616,
				"element": "H" 
			},
			{
				"x": 2.1320834318,
				"y": -0.4268850518,
				"z": 2.105634372,
				"element": "H" 
			}
		],
		 "valence_orbital": [ 
			{
				"type": "occ",
				"energy": -0.35274,
				"method": "rhf"
			},
			{
				"type": "occ",
				"energy": -0.27272,
				"method": "rhf"
			},
			{
				"type": "occ",
				"energy": -0.27147,
				"method": "rhf"
			},
			{
				"type": "occ",
				"energy": -0.2506,
				"method": "rhf"
			},
			{
				"type": "occ",
				"energy": -0.23436,
				"method": "rhf"
			},
			{
				"type": "unocc",
				"energy": -0.06297,
				"method": "rhf"
			},
			{
				"type": "unocc",
				"energy": -0.00828,
				"method": "rhf"
			},
			{
				"type": "unocc",
				"energy": 0.03301,
				"method": "rhf"
			},
			{
				"type": "unocc",
				"energy": 0.07973,
				"method": "rhf"
			},
			{
				"type": "unocc",
				"energy": 0.10805,
				"method": "rhf"
			}
		],
		"cosmo_sigma_profile": { 
			"-0.025": 0.0,
			"-0.024": 0.0,
			"-0.023": 0.0,
			"-0.022": 0.0,
			"-0.021": 0.0,
			"-0.02": 0.0,
			"-0.019": 0.0,
			"-0.018": 0.0,
			"-0.017": 0.0,
			"-0.016": 0.0,
			"-0.015": 0.345471848547,
			"-0.014": 1.54886988373,
			"-0.013": 1.34940154866,
			"-0.012": 1.3086166826,
			"-0.011": 1.59070404875,
			"-0.01": 1.89290550208,
			"-0.009": 2.4755854081,
			"-0.008": 3.76449495893,
			"-0.007": 7.6875000462,
			"-0.006": 10.4152463813,
			"-0.005": 8.10617340332,
			"-0.004": 7.28409401575,
			"-0.003": 7.36107118096,
			"-0.002": 7.08843307874,
			"-0.001": 7.85780088684,
			"0.0": 10.0006429886,
			"0.001": 15.8826772453,
			"0.002": 13.0260493618,
			"0.003": 9.87916943999,
			"0.004": 5.07494393405,
			"0.005": 3.57850154705,
			"0.006": 2.56808608344,
			"0.007": 2.87828173265,
			"0.008": 2.63730601348,
			"0.009": 3.57221051816,
			"0.01": 2.76365029466,
			"0.011": 3.1136666893,
			"0.012": 2.52766202065,
			"0.013": 2.16857335758,
			"0.014": 0.927122044283,
			"0.015": 0.979170559825,
			"0.016": 0.959062269906,
			"0.017": 0.624571526735,
			"0.018": 0.205341576035,
			"0.019": 0.0,
			"0.02": 0.0,
			"0.021": 0.0,
			"0.022": 0.0,
			"0.023": 0.0,
			"0.024": 0.0,
			"0.025": 0.0
		}
	}
}
