{
	 "smiles": "CCC1=CN=C(N)S1", 
	 "Tm": 328.15, 
	 "num_atms": 16, 
	 "gaussian": { 
		 "optdone": 1, 
		 "sigma_profile": "yes", 
		 "theory": "DFT", 
		 "functional": "B3LYP", 
		 "basiset": "6-31G**", 
		 "properties": { 
			 "R2extent": 1476.5041, 
			 "electric_dipole_moment_norm": 1.46220024962, 
			 "electric_quadrupole_moment_norm": 10.3282867248, 
			 "total_energy": -703.044243351, 
			 "HOMO_LUMO_gap": 0.20362, 
			 "cosmo_polarized_energy": -9.37, 
			 "cosmo_cavitation_energy": 21.06, 
			 "cosmo_dispersion_energy": -16.18, 
			 "cosmo_repulsion_energy": 1.32, 
			 "cosmo_total_nonelectrostatic_energy": 6.19, 
			 "SMD_solvation_energy": 1.79 
		},
		"coords": [
			{
				"x": 1.3423863888,
				"y": 1.7264377721,
				"z": -1.8752407344,
				"element": "C" 
			},
			{
				"x": 1.6878439938,
				"y": 0.4309515192,
				"z": -1.1202174366,
				"element": "C" 
			},
			{
				"x": 0.4996466774,
				"y": -0.3031204763,
				"z": -0.5723614552,
				"element": "C" 
			},
			{
				"x": 0.1542730773,
				"y": -0.5373419849,
				"z": 0.7238592861,
				"element": "C" 
			},
			{
				"x": -0.9957553978,
				"y": -1.2627564002,
				"z": 0.9664955694,
				"element": "N" 
			},
			{
				"x": -1.566893543,
				"y": -1.592551379,
				"z": -0.1539640762,
				"element": "C" 
			},
			{
				"x": -2.7746921561,
				"y": -2.2549642399,
				"z": -0.2414307272,
				"element": "N" 
			},
			{
				"x": -0.7315865114,
				"y": -1.0308403979,
				"z": -1.6110713694,
				"element": "S" 
			},
			{
				"x": 0.7143171053,
				"y": 1.5220457816,
				"z": -2.7484299413,
				"element": "H" 
			},
			{
				"x": 0.7975197941,
				"y": 2.4206583276,
				"z": -1.2284062797,
				"element": "H" 
			},
			{
				"x": 2.2523185611,
				"y": 2.2243380864,
				"z": -2.2259712272,
				"element": "H" 
			},
			{
				"x": 2.2679038247,
				"y": -0.2283754032,
				"z": -1.7799808669,
				"element": "H" 
			},
			{
				"x": 2.3428034129,
				"y": 0.6650394278,
				"z": -0.2723439198,
				"element": "H" 
			},
			{
				"x": 0.7425087875,
				"y": -0.197455313,
				"z": 1.5700849159,
				"element": "H" 
			},
			{
				"x": -2.8882660058,
				"y": -2.879488544,
				"z": -1.027806351,
				"element": "H" 
			},
			{
				"x": -3.0473280086,
				"y": -2.6681767763,
				"z": 0.6416846135,
				"element": "H" 
			}
		],
		 "valence_orbital": [ 
			{
				"type": "occ",
				"energy": -0.33439,
				"method": "rhf"
			},
			{
				"type": "occ",
				"energy": -0.30811,
				"method": "rhf"
			},
			{
				"type": "occ",
				"energy": -0.26648,
				"method": "rhf"
			},
			{
				"type": "occ",
				"energy": -0.2652,
				"method": "rhf"
			},
			{
				"type": "occ",
				"energy": -0.20233,
				"method": "rhf"
			},
			{
				"type": "unocc",
				"energy": 0.00129,
				"method": "rhf"
			},
			{
				"type": "unocc",
				"energy": 0.01567,
				"method": "rhf"
			},
			{
				"type": "unocc",
				"energy": 0.07103,
				"method": "rhf"
			},
			{
				"type": "unocc",
				"energy": 0.07256,
				"method": "rhf"
			},
			{
				"type": "unocc",
				"energy": 0.10387,
				"method": "rhf"
			}
		],
		"cosmo_sigma_profile": { 
			"-0.025": 0.0,
			"-0.024": 0.0,
			"-0.023": 0.0,
			"-0.022": 0.0,
			"-0.021": 0.0,
			"-0.02": 0.0,
			"-0.019": 0.0,
			"-0.018": 0.0,
			"-0.017": 0.0,
			"-0.016": 0.0,
			"-0.015": 0.00271293907108,
			"-0.014": 1.26026574871,
			"-0.013": 2.47761418071,
			"-0.012": 2.93687151956,
			"-0.011": 2.58849537669,
			"-0.01": 2.3819040641,
			"-0.009": 1.84052772535,
			"-0.008": 1.81598358829,
			"-0.007": 2.26184097782,
			"-0.006": 3.47686791044,
			"-0.005": 4.25902066912,
			"-0.004": 9.38200920882,
			"-0.003": 15.2827815251,
			"-0.002": 13.7106797052,
			"-0.001": 16.2580742094,
			"0.0": 13.4102002052,
			"0.001": 13.5926720007,
			"0.002": 10.5308412396,
			"0.003": 10.2294720943,
			"0.004": 10.5033250548,
			"0.005": 9.79774544752,
			"0.006": 4.79892145585,
			"0.007": 1.98498773541,
			"0.008": 1.98584829221,
			"0.009": 2.18582183491,
			"0.01": 1.98843531177,
			"0.011": 1.52998421965,
			"0.012": 1.89574372111,
			"0.013": 1.04165916075,
			"0.014": 1.35269601354,
			"0.015": 0.750215257086,
			"0.016": 0.691052633276,
			"0.017": 0.0421464780015,
			"0.018": 0.0,
			"0.019": 0.0,
			"0.02": 0.0,
			"0.021": 0.0,
			"0.022": 0.0,
			"0.023": 0.0,
			"0.024": 0.0,
			"0.025": 0.0
		}
	}
}
