{
	 "smiles": "FC1=CC=C(C=C1)C1=C2C=CC=CC2=C(Cl)N=N1", 
	 "Tm": 460.15, 
	 "num_atms": 26, 
	 "gaussian": { 
		 "optdone": 1, 
		 "sigma_profile": "yes", 
		 "theory": "DFT", 
		 "functional": "B3LYP", 
		 "basiset": "6-31G**", 
		 "properties": { 
			 "R2extent": 6624.7936, 
			 "electric_dipole_moment_norm": 5.2539133691, 
			 "electric_quadrupole_moment_norm": 21.6855925932, 
			 "total_energy": -1207.8131897, 
			 "HOMO_LUMO_gap": 0.16281, 
			 "cosmo_polarized_energy": -12.48, 
			 "cosmo_cavitation_energy": 32.82, 
			 "cosmo_dispersion_energy": -24.15, 
			 "cosmo_repulsion_energy": 1.81, 
			 "cosmo_total_nonelectrostatic_energy": 10.48, 
			 "SMD_solvation_energy": 3.82 
		},
		"coords": [
			{
				"x": 3.872668401,
				"y": -2.2490752396,
				"z": 1.410692682,
				"element": "F" 
			},
			{
				"x": 2.7154518497,
				"y": -1.7994223827,
				"z": 0.8872952054,
				"element": "C" 
			},
			{
				"x": 2.6383486106,
				"y": -1.5729048102,
				"z": -0.4819529344,
				"element": "C" 
			},
			{
				"x": 1.440366932,
				"y": -1.0999208281,
				"z": -1.0156792499,
				"element": "C" 
			},
			{
				"x": 0.3296891925,
				"y": -0.8539288938,
				"z": -0.1917193922,
				"element": "C" 
			},
			{
				"x": 0.4391120727,
				"y": -1.11739283,
				"z": 1.184133028,
				"element": "C" 
			},
			{
				"x": 1.6310219518,
				"y": -1.582319021,
				"z": 1.7316330928,
				"element": "C" 
			},
			{
				"x": -0.9758997183,
				"y": -0.4004308407,
				"z": -0.7413633299,
				"element": "C" 
			},
			{
				"x": -1.0987359421,
				"y": 0.660696376,
				"z": -1.7087413313,
				"element": "C" 
			},
			{
				"x": -0.0260300978,
				"y": 1.4748846863,
				"z": -2.1511978593,
				"element": "C" 
			},
			{
				"x": -0.2416627396,
				"y": 2.4667908938,
				"z": -3.0860955109,
				"element": "C" 
			},
			{
				"x": -1.5323415486,
				"y": 2.6896779491,
				"z": -3.6126195979,
				"element": "C" 
			},
			{
				"x": -2.6031861676,
				"y": 1.9374793579,
				"z": -3.1769438646,
				"element": "C" 
			},
			{
				"x": -2.4058624694,
				"y": 0.9239947723,
				"z": -2.2106768892,
				"element": "C" 
			},
			{
				"x": -3.4457021165,
				"y": 0.1329942391,
				"z": -1.6322273298,
				"element": "C" 
			},
			{
				"x": -5.1060380942,
				"y": 0.3642665348,
				"z": -2.1669144714,
				"element": "Cl" 
			},
			{
				"x": -3.2798347662,
				"y": -0.7568564733,
				"z": -0.69747033,
				"element": "N" 
			},
			{
				"x": -2.0266045739,
				"y": -1.0434799324,
				"z": -0.2582377171,
				"element": "N" 
			},
			{
				"x": 3.4987811403,
				"y": -1.777686498,
				"z": -1.1094677549,
				"element": "H" 
			},
			{
				"x": 1.3632440621,
				"y": -0.9527548819,
				"z": -2.0880563195,
				"element": "H" 
			},
			{
				"x": -0.4262974904,
				"y": -0.9578465252,
				"z": 1.8174878536,
				"element": "H" 
			},
			{
				"x": 1.730200696,
				"y": -1.7799575409,
				"z": 2.793383783,
				"element": "H" 
			},
			{
				"x": 0.9630603566,
				"y": 1.3247004401,
				"z": -1.7364098061,
				"element": "H" 
			},
			{
				"x": 0.5870047682,
				"y": 3.0869329887,
				"z": -3.4144528109,
				"element": "H" 
			},
			{
				"x": -1.6849994948,
				"y": 3.4697138168,
				"z": -4.3522639155,
				"element": "H" 
			},
			{
				"x": -3.6014548142,
				"y": 2.119544643,
				"z": -3.5565352299,
				"element": "H" 
			}
		],
		 "valence_orbital": [ 
			{
				"type": "occ",
				"energy": -0.28958,
				"method": "rhf"
			},
			{
				"type": "occ",
				"energy": -0.27129,
				"method": "rhf"
			},
			{
				"type": "occ",
				"energy": -0.26722,
				"method": "rhf"
			},
			{
				"type": "occ",
				"energy": -0.24449,
				"method": "rhf"
			},
			{
				"type": "occ",
				"energy": -0.23956,
				"method": "rhf"
			},
			{
				"type": "unocc",
				"energy": -0.07675,
				"method": "rhf"
			},
			{
				"type": "unocc",
				"energy": -0.05647,
				"method": "rhf"
			},
			{
				"type": "unocc",
				"energy": -0.02342,
				"method": "rhf"
			},
			{
				"type": "unocc",
				"energy": -0.01909,
				"method": "rhf"
			},
			{
				"type": "unocc",
				"energy": 0.01968,
				"method": "rhf"
			}
		],
		"cosmo_sigma_profile": { 
			"-0.025": 0.0,
			"-0.024": 0.0,
			"-0.023": 0.0,
			"-0.022": 0.0,
			"-0.021": 0.0,
			"-0.02": 0.0,
			"-0.019": 0.0,
			"-0.018": 0.0,
			"-0.017": 0.0,
			"-0.016": 0.0,
			"-0.015": 0.0,
			"-0.014": 0.0,
			"-0.013": 0.0,
			"-0.012": 0.0,
			"-0.011": 0.0,
			"-0.01": 0.0,
			"-0.009": 0.0,
			"-0.008": 2.77591070886,
			"-0.007": 12.3900082478,
			"-0.006": 16.6010161119,
			"-0.005": 17.3445295693,
			"-0.004": 12.6169060185,
			"-0.003": 17.8719973953,
			"-0.002": 22.6151379042,
			"-0.001": 21.8918991433,
			"0.0": 25.7244981573,
			"0.001": 25.6098609654,
			"0.002": 27.0740393204,
			"0.003": 19.4653597115,
			"0.004": 18.6130887987,
			"0.005": 5.22593739634,
			"0.006": 2.96583647704,
			"0.007": 2.52159497995,
			"0.008": 2.00295521336,
			"0.009": 2.50545018709,
			"0.01": 2.30788180156,
			"0.011": 1.97539620542,
			"0.012": 2.30024535891,
			"0.013": 2.72009301056,
			"0.014": 2.13961256969,
			"0.015": 0.984925133558,
			"0.016": 0.0,
			"0.017": 0.0,
			"0.018": 0.0,
			"0.019": 0.0,
			"0.02": 0.0,
			"0.021": 0.0,
			"0.022": 0.0,
			"0.023": 0.0,
			"0.024": 0.0,
			"0.025": 0.0
		}
	}
}
