{
	 "smiles": "OCCSCCS(=O)(=O)C1=CC=C(Cl)C=C1", 
	 "Tm": 333.65, 
	 "num_atms": 29, 
	 "gaussian": { 
		 "optdone": 1, 
		 "sigma_profile": "yes", 
		 "theory": "DFT", 
		 "functional": "B3LYP", 
		 "basiset": "6-31G**", 
		 "properties": { 
			 "R2extent": 6932.9648, 
			 "electric_dipole_moment_norm": 5.50182851241, 
			 "electric_quadrupole_moment_norm": 12.011433233, 
			 "total_energy": -1871.05683313, 
			 "HOMO_LUMO_gap": 0.17956, 
			 "cosmo_polarized_energy": -22.53, 
			 "cosmo_cavitation_energy": 37.34, 
			 "cosmo_dispersion_energy": -26.87, 
			 "cosmo_repulsion_energy": 2.06, 
			 "cosmo_total_nonelectrostatic_energy": 12.53, 
			 "SMD_solvation_energy": 4.76 
		},
		"coords": [
			{
				"x": -4.175397977,
				"y": 2.0823235725,
				"z": -2.822895735,
				"element": "O" 
			},
			{
				"x": -3.1522126429,
				"y": 1.6767608299,
				"z": -1.923638477,
				"element": "C" 
			},
			{
				"x": -2.5765174101,
				"y": 2.9468039767,
				"z": -1.3059960455,
				"element": "C" 
			},
			{
				"x": -1.248379502,
				"y": 2.649319342,
				"z": -0.0808333781,
				"element": "S" 
			},
			{
				"x": 0.1366782488,
				"y": 2.2358484031,
				"z": -1.226080709,
				"element": "C" 
			},
			{
				"x": 1.5180019438,
				"y": 2.5359447928,
				"z": -0.6487386847,
				"element": "C" 
			},
			{
				"x": 2.0702426191,
				"y": 1.5086870728,
				"z": 0.7586222499,
				"element": "S" 
			},
			{
				"x": 3.4955649264,
				"y": 1.8205044308,
				"z": 0.9505334074,
				"element": "O" 
			},
			{
				"x": 1.0988003607,
				"y": 1.6586625307,
				"z": 1.8525440039,
				"element": "O" 
			},
			{
				"x": 1.9556059994,
				"y": -0.1859535381,
				"z": 0.1582601328,
				"element": "C" 
			},
			{
				"x": 3.0481121319,
				"y": -0.7536741632,
				"z": -0.5006944676,
				"element": "C" 
			},
			{
				"x": 2.9660384217,
				"y": -2.068377585,
				"z": -0.9558219149,
				"element": "C" 
			},
			{
				"x": 1.7907173368,
				"y": -2.7907449598,
				"z": -0.7373747693,
				"element": "C" 
			},
			{
				"x": 1.6841953624,
				"y": -4.4433989251,
				"z": -1.3113169967,
				"element": "Cl" 
			},
			{
				"x": 0.7018565535,
				"y": -2.2309642865,
				"z": -0.0659734071,
				"element": "C" 
			},
			{
				"x": 0.7870972898,
				"y": -0.9156452349,
				"z": 0.3888173447,
				"element": "C" 
			},
			{
				"x": -4.5853126235,
				"y": 1.2904926214,
				"z": -3.1924968456,
				"element": "H" 
			},
			{
				"x": -2.358818128,
				"y": 1.1173213624,
				"z": -2.4452529375,
				"element": "H" 
			},
			{
				"x": -3.5399756978,
				"y": 1.0290407432,
				"z": -1.1231253093,
				"element": "H" 
			},
			{
				"x": -2.2189243351,
				"y": 3.6210194432,
				"z": -2.0913446136,
				"element": "H" 
			},
			{
				"x": -3.3646776492,
				"y": 3.4728853008,
				"z": -0.759344899,
				"element": "H" 
			},
			{
				"x": 0.0186570591,
				"y": 2.8577843499,
				"z": -2.1197148611,
				"element": "H" 
			},
			{
				"x": 0.079228605,
				"y": 1.1902333973,
				"z": -1.5423429971,
				"element": "H" 
			},
			{
				"x": 1.5838362609,
				"y": 3.5561221316,
				"z": -0.2579502136,
				"element": "H" 
			},
			{
				"x": 2.2886875169,
				"y": 2.4049140203,
				"z": -1.4141511242,
				"element": "H" 
			},
			{
				"x": 3.958613369,
				"y": -0.1785037326,
				"z": -0.6319376828,
				"element": "H" 
			},
			{
				"x": 3.8029262639,
				"y": -2.5329019851,
				"z": -1.4649022646,
				"element": "H" 
			},
			{
				"x": -0.1926560679,
				"y": -2.8193744543,
				"z": 0.1043359074,
				"element": "H" 
			},
			{
				"x": -0.0348882355,
				"y": -0.4598294568,
				"z": 0.9310152873,
				"element": "H" 
			}
		],
		 "valence_orbital": [ 
			{
				"type": "occ",
				"energy": -0.28838,
				"method": "rhf"
			},
			{
				"type": "occ",
				"energy": -0.28755,
				"method": "rhf"
			},
			{
				"type": "occ",
				"energy": -0.27864,
				"method": "rhf"
			},
			{
				"type": "occ",
				"energy": -0.27258,
				"method": "rhf"
			},
			{
				"type": "occ",
				"energy": -0.23341,
				"method": "rhf"
			},
			{
				"type": "unocc",
				"energy": -0.05385,
				"method": "rhf"
			},
			{
				"type": "unocc",
				"energy": -0.03849,
				"method": "rhf"
			},
			{
				"type": "unocc",
				"energy": 0.01204,
				"method": "rhf"
			},
			{
				"type": "unocc",
				"energy": 0.02772,
				"method": "rhf"
			},
			{
				"type": "unocc",
				"energy": 0.04947,
				"method": "rhf"
			}
		],
		"cosmo_sigma_profile": { 
			"-0.025": 0.0,
			"-0.024": 0.0,
			"-0.023": 0.0,
			"-0.022": 0.0,
			"-0.021": 0.0,
			"-0.02": 0.0,
			"-0.019": 0.0,
			"-0.018": 0.0,
			"-0.017": 0.0,
			"-0.016": 0.589504307568,
			"-0.015": 1.26331218106,
			"-0.014": 0.70874612763,
			"-0.013": 1.0030108043,
			"-0.012": 0.932417326666,
			"-0.011": 0.364439899318,
			"-0.01": 1.02999238037,
			"-0.009": 4.32335634205,
			"-0.008": 11.8550773464,
			"-0.007": 17.0784585147,
			"-0.006": 17.2814830973,
			"-0.005": 19.6784611929,
			"-0.004": 20.430458464,
			"-0.003": 17.4866866247,
			"-0.002": 17.3549741942,
			"-0.001": 18.0585115492,
			"0.0": 21.5657908074,
			"0.001": 25.4601286277,
			"0.002": 12.8357588279,
			"0.003": 14.4294467198,
			"0.004": 14.5939510294,
			"0.005": 5.47126004357,
			"0.006": 4.75581207953,
			"0.007": 6.06829992653,
			"0.008": 7.09691969952,
			"0.009": 7.30905573665,
			"0.01": 7.90219969648,
			"0.011": 10.9013181498,
			"0.012": 7.94242639943,
			"0.013": 1.7956176421,
			"0.014": 1.82766234103,
			"0.015": 0.0541784337399,
			"0.016": 0.0,
			"0.017": 0.0,
			"0.018": 0.0,
			"0.019": 0.0,
			"0.02": 0.0,
			"0.021": 0.0,
			"0.022": 0.0,
			"0.023": 0.0,
			"0.024": 0.0,
			"0.025": 0.0
		}
	}
}
