{
	 "smiles": "NNC(=O)CNC1=NC(N)=NN1", 
	 "Tm": 498.15, 
	 "num_atms": 21, 
	 "gaussian": { 
		 "optdone": 1, 
		 "sigma_profile": "yes", 
		 "theory": "DFT", 
		 "functional": "B3LYP", 
		 "basiset": "6-31G**", 
		 "properties": { 
			 "R2extent": 2771.3185, 
			 "electric_dipole_moment_norm": 3.05551556533, 
			 "electric_quadrupole_moment_norm": 11.8361056222, 
			 "total_energy": -616.303928152, 
			 "HOMO_LUMO_gap": 0.21912, 
			 "cosmo_polarized_energy": -22.95, 
			 "cosmo_cavitation_energy": 25.3, 
			 "cosmo_dispersion_energy": -18.64, 
			 "cosmo_repulsion_energy": 1.53, 
			 "cosmo_total_nonelectrostatic_energy": 8.18, 
			 "SMD_solvation_energy": 2.49 
		},
		"coords": [
			{
				"x": -1.1884829534,
				"y": -2.2883910453,
				"z": -1.5407705088,
				"element": "N" 
			},
			{
				"x": -2.2789794152,
				"y": -2.5243680517,
				"z": -0.6776980494,
				"element": "N" 
			},
			{
				"x": -2.7704500791,
				"y": -1.6633991477,
				"z": 0.2616669626,
				"element": "C" 
			},
			{
				"x": -3.4847633016,
				"y": -2.0383732103,
				"z": 1.1864819384,
				"element": "O" 
			},
			{
				"x": -2.4226089398,
				"y": -0.1734467207,
				"z": 0.1328875822,
				"element": "C" 
			},
			{
				"x": -1.752160393,
				"y": 0.3114764115,
				"z": 1.3392261163,
				"element": "N" 
			},
			{
				"x": -0.4222869096,
				"y": -0.0307220576,
				"z": 1.4856251534,
				"element": "C" 
			},
			{
				"x": 0.361821848,
				"y": -0.557290971,
				"z": 0.5486604549,
				"element": "N" 
			},
			{
				"x": 1.5815040015,
				"y": -0.625441996,
				"z": 1.1785282022,
				"element": "C" 
			},
			{
				"x": 2.6794643257,
				"y": -1.1856004909,
				"z": 0.5534240941,
				"element": "N" 
			},
			{
				"x": 1.6106146137,
				"y": -0.1845915721,
				"z": 2.4236783391,
				"element": "N" 
			},
			{
				"x": 0.288964897,
				"y": 0.1866937279,
				"z": 2.6101688385,
				"element": "N" 
			},
			{
				"x": -1.499331148,
				"y": -1.7444449233,
				"z": -2.3413807622,
				"element": "H" 
			},
			{
				"x": -0.4654647291,
				"y": -1.773393355,
				"z": -1.0307873627,
				"element": "H" 
			},
			{
				"x": -2.4672092047,
				"y": -3.5023406628,
				"z": -0.4899018299,
				"element": "H" 
			},
			{
				"x": -3.3677047517,
				"y": 0.3684628286,
				"z": 0.0356352249,
				"element": "H" 
			},
			{
				"x": -1.7979120117,
				"y": 0.0573352615,
				"z": -0.7282089317,
				"element": "H" 
			},
			{
				"x": -2.3108405665,
				"y": 0.1239582938,
				"z": 2.1658834186,
				"element": "H" 
			},
			{
				"x": 2.6893868784,
				"y": -1.0490936186,
				"z": -0.4477722964,
				"element": "H" 
			},
			{
				"x": 3.5566399607,
				"y": -0.9465844734,
				"z": 0.9954779857,
				"element": "H" 
			},
			{
				"x": 0.0082978782,
				"y": 0.6339557734,
				"z": 3.4676754303,
				"element": "H" 
			}
		],
		 "valence_orbital": [ 
			{
				"type": "occ",
				"energy": -0.27467,
				"method": "rhf"
			},
			{
				"type": "occ",
				"energy": -0.26114,
				"method": "rhf"
			},
			{
				"type": "occ",
				"energy": -0.25196,
				"method": "rhf"
			},
			{
				"type": "occ",
				"energy": -0.24272,
				"method": "rhf"
			},
			{
				"type": "occ",
				"energy": -0.206,
				"method": "rhf"
			},
			{
				"type": "unocc",
				"energy": 0.01312,
				"method": "rhf"
			},
			{
				"type": "unocc",
				"energy": 0.0299,
				"method": "rhf"
			},
			{
				"type": "unocc",
				"energy": 0.06998,
				"method": "rhf"
			},
			{
				"type": "unocc",
				"energy": 0.0753,
				"method": "rhf"
			},
			{
				"type": "unocc",
				"energy": 0.08509,
				"method": "rhf"
			}
		],
		"cosmo_sigma_profile": { 
			"-0.025": 0.0,
			"-0.024": 0.0,
			"-0.023": 0.0,
			"-0.022": 0.0,
			"-0.021": 0.0,
			"-0.02": 0.0,
			"-0.019": 0.0,
			"-0.018": 0.0,
			"-0.017": 0.60566829921,
			"-0.016": 2.47963241353,
			"-0.015": 2.06280387095,
			"-0.014": 1.85900335417,
			"-0.013": 4.15951621486,
			"-0.012": 5.10713915331,
			"-0.011": 6.64039316641,
			"-0.01": 5.66689845101,
			"-0.009": 6.71923321991,
			"-0.008": 5.75319706513,
			"-0.007": 7.84752078375,
			"-0.006": 7.24042815583,
			"-0.005": 8.57608537057,
			"-0.004": 7.75138235521,
			"-0.003": 7.31133436519,
			"-0.002": 6.72150108251,
			"-0.001": 7.85116369604,
			"0.0": 8.94549918786,
			"0.001": 9.7843809792,
			"0.002": 10.1347915892,
			"0.003": 8.42965194814,
			"0.004": 8.56608078226,
			"0.005": 7.01647089072,
			"0.006": 5.75785002515,
			"0.007": 5.81393042884,
			"0.008": 6.06034496936,
			"0.009": 4.38969584874,
			"0.01": 3.80155068566,
			"0.011": 4.20118193425,
			"0.012": 4.79425853377,
			"0.013": 6.64638693163,
			"0.014": 6.5484807407,
			"0.015": 1.83304768521,
			"0.016": 1.67937182988,
			"0.017": 0.309712783808,
			"0.018": 0.0,
			"0.019": 0.0,
			"0.02": 0.0,
			"0.021": 0.0,
			"0.022": 0.0,
			"0.023": 0.0,
			"0.024": 0.0,
			"0.025": 0.0
		}
	}
}
