{
	 "smiles": "ClC1=NC2=C(C=CC=C2)C(=C1)C#N", 
	 "Tm": 427.15, 
	 "num_atms": 18, 
	 "gaussian": { 
		 "optdone": 1, 
		 "sigma_profile": "yes", 
		 "theory": "DFT", 
		 "functional": "B3LYP", 
		 "basiset": "6-31G**", 
		 "properties": { 
			 "R2extent": 4125.9558, 
			 "electric_dipole_moment_norm": 2.80600567355, 
			 "electric_quadrupole_moment_norm": 13.940889699, 
			 "total_energy": -953.761010987, 
			 "HOMO_LUMO_gap": 0.16039, 
			 "cosmo_polarized_energy": -8.9, 
			 "cosmo_cavitation_energy": 25.64, 
			 "cosmo_dispersion_energy": -18.66, 
			 "cosmo_repulsion_energy": 1.46, 
			 "cosmo_total_nonelectrostatic_energy": 8.44, 
			 "SMD_solvation_energy": 3.75 
		},
		"coords": [
			{
				"x": 0.1937987393,
				"y": 2.6027804296,
				"z": -4.5083140557,
				"element": "Cl" 
			},
			{
				"x": -0.2745128503,
				"y": 1.5826020721,
				"z": -3.1528323729,
				"element": "C" 
			},
			{
				"x": -1.0462864169,
				"y": 2.104504631,
				"z": -2.246063082,
				"element": "N" 
			},
			{
				"x": -1.4179129609,
				"y": 1.3236309446,
				"z": -1.1877201459,
				"element": "C" 
			},
			{
				"x": -0.9905339132,
				"y": -0.0340394402,
				"z": -1.0462762018,
				"element": "C" 
			},
			{
				"x": -1.4147915205,
				"y": -0.7849481251,
				"z": 0.0772540656,
				"element": "C" 
			},
			{
				"x": -2.2329439112,
				"y": -0.2064439274,
				"z": 1.0234380881,
				"element": "C" 
			},
			{
				"x": -2.6572854285,
				"y": 1.1375422958,
				"z": 0.8854852296,
				"element": "C" 
			},
			{
				"x": -2.259502063,
				"y": 1.8900782668,
				"z": -0.1971858783,
				"element": "C" 
			},
			{
				"x": -0.1420338729,
				"y": -0.5500066057,
				"z": -2.0780132003,
				"element": "C" 
			},
			{
				"x": 0.2222951493,
				"y": 0.2554980275,
				"z": -3.1395409572,
				"element": "C" 
			},
			{
				"x": 0.3319819704,
				"y": -1.9024437325,
				"z": -2.013541813,
				"element": "C" 
			},
			{
				"x": 0.7098842141,
				"y": -3.0003457126,
				"z": -1.95032308,
				"element": "N" 
			},
			{
				"x": -1.0881987019,
				"y": -1.8151245297,
				"z": 0.1808930034,
				"element": "H" 
			},
			{
				"x": -2.5562652972,
				"y": -0.7847990559,
				"z": 1.8833496599,
				"element": "H" 
			},
			{
				"x": -3.3017901946,
				"y": 1.5745283478,
				"z": 1.6421670059,
				"element": "H" 
			},
			{
				"x": -2.5689128339,
				"y": 2.9212384026,
				"z": -0.3285941671,
				"element": "H" 
			},
			{
				"x": 0.8622098919,
				"y": -0.1062522887,
				"z": -3.9340820985,
				"element": "H" 
			}
		],
		 "valence_orbital": [ 
			{
				"type": "occ",
				"energy": -0.32774,
				"method": "rhf"
			},
			{
				"type": "occ",
				"energy": -0.31972,
				"method": "rhf"
			},
			{
				"type": "occ",
				"energy": -0.29404,
				"method": "rhf"
			},
			{
				"type": "occ",
				"energy": -0.27355,
				"method": "rhf"
			},
			{
				"type": "occ",
				"energy": -0.25789,
				"method": "rhf"
			},
			{
				"type": "unocc",
				"energy": -0.0975,
				"method": "rhf"
			},
			{
				"type": "unocc",
				"energy": -0.04571,
				"method": "rhf"
			},
			{
				"type": "unocc",
				"energy": -0.02184,
				"method": "rhf"
			},
			{
				"type": "unocc",
				"energy": 0.00762,
				"method": "rhf"
			},
			{
				"type": "unocc",
				"energy": 0.02777,
				"method": "rhf"
			}
		],
		"cosmo_sigma_profile": { 
			"-0.025": 0.0,
			"-0.024": 0.0,
			"-0.023": 0.0,
			"-0.022": 0.0,
			"-0.021": 0.0,
			"-0.02": 0.0,
			"-0.019": 0.0,
			"-0.018": 0.0,
			"-0.017": 0.0,
			"-0.016": 0.0,
			"-0.015": 0.0,
			"-0.014": 0.0,
			"-0.013": 0.0,
			"-0.012": 0.0,
			"-0.011": 0.148862397031,
			"-0.01": 1.61386871876,
			"-0.009": 2.06346412904,
			"-0.008": 2.02690220042,
			"-0.007": 8.39135651893,
			"-0.006": 10.2620136817,
			"-0.005": 12.0085200393,
			"-0.004": 14.8540836083,
			"-0.003": 18.4387179212,
			"-0.002": 19.1866486498,
			"-0.001": 12.8626370835,
			"0.0": 15.7733052863,
			"0.001": 17.3853765558,
			"0.002": 18.4177106533,
			"0.003": 15.5553150305,
			"0.004": 11.2274485719,
			"0.005": 4.76502138805,
			"0.006": 4.58377464529,
			"0.007": 4.70723320716,
			"0.008": 3.7337991418,
			"0.009": 4.12246891406,
			"0.01": 3.63244183406,
			"0.011": 3.13790854397,
			"0.012": 1.9078167585,
			"0.013": 0.406760067277,
			"0.014": 0.0,
			"0.015": 0.0,
			"0.016": 0.0,
			"0.017": 0.0,
			"0.018": 0.0,
			"0.019": 0.0,
			"0.02": 0.0,
			"0.021": 0.0,
			"0.022": 0.0,
			"0.023": 0.0,
			"0.024": 0.0,
			"0.025": 0.0
		}
	}
}
