{
	 "smiles": "O=C(COC1=CC(=CC=C1)C#N)NC1CC1", 
	 "Tm": 380.15, 
	 "num_atms": 28, 
	 "gaussian": { 
		 "optdone": 1, 
		 "sigma_profile": "yes", 
		 "theory": "DFT", 
		 "functional": "B3LYP", 
		 "basiset": "6-31G**", 
		 "properties": { 
			 "R2extent": 5086.7613, 
			 "electric_dipole_moment_norm": 8.64867935699, 
			 "electric_quadrupole_moment_norm": 25.8621019105, 
			 "total_energy": -724.403723252, 
			 "HOMO_LUMO_gap": 0.20384, 
			 "cosmo_polarized_energy": -18.98, 
			 "cosmo_cavitation_energy": 33.64, 
			 "cosmo_dispersion_energy": -23.3, 
			 "cosmo_repulsion_energy": 1.84, 
			 "cosmo_total_nonelectrostatic_energy": 12.18, 
			 "SMD_solvation_energy": 7.06 
		},
		"coords": [
			{
				"x": -1.6881844266,
				"y": 0.3299220417,
				"z": 1.1008765884,
				"element": "O" 
			},
			{
				"x": -0.8654007826,
				"y": -0.5695478074,
				"z": 1.0326459904,
				"element": "C" 
			},
			{
				"x": -0.2127931878,
				"y": -0.998588119,
				"z": -0.292723701,
				"element": "C" 
			},
			{
				"x": -0.7154116887,
				"y": -0.2651776679,
				"z": -1.3923226024,
				"element": "O" 
			},
			{
				"x": -0.1360836125,
				"y": 0.9630629395,
				"z": -1.6412823441,
				"element": "C" 
			},
			{
				"x": -0.8139899582,
				"y": 2.126250229,
				"z": -1.278485716,
				"element": "C" 
			},
			{
				"x": -0.2564828223,
				"y": 3.3709501827,
				"z": -1.6098718413,
				"element": "C" 
			},
			{
				"x": 0.9719264799,
				"y": 3.44744462,
				"z": -2.2898947599,
				"element": "C" 
			},
			{
				"x": 1.6344223695,
				"y": 2.2740760365,
				"z": -2.6398483537,
				"element": "C" 
			},
			{
				"x": 1.0833970684,
				"y": 1.0309886066,
				"z": -2.3224460123,
				"element": "C" 
			},
			{
				"x": -0.9417828918,
				"y": 4.5790631322,
				"z": -1.2471753295,
				"element": "C" 
			},
			{
				"x": -1.4881597478,
				"y": 5.5646521299,
				"z": -0.9587812063,
				"element": "N" 
			},
			{
				"x": -0.4707692054,
				"y": -1.2768143472,
				"z": 2.1415508086,
				"element": "N" 
			},
			{
				"x": 0.5932433928,
				"y": -2.2377970922,
				"z": 2.2155476761,
				"element": "C" 
			},
			{
				"x": 0.3703567577,
				"y": -3.6452513228,
				"z": 1.7007172662,
				"element": "C" 
			},
			{
				"x": 0.4325328108,
				"y": -3.3816059621,
				"z": 3.1819254552,
				"element": "C" 
			},
			{
				"x": -0.4378007553,
				"y": -2.0517188212,
				"z": -0.4861746816,
				"element": "H" 
			},
			{
				"x": 0.8801810437,
				"y": -0.9071246277,
				"z": -0.2150074885,
				"element": "H" 
			},
			{
				"x": -1.7434661348,
				"y": 2.0432164358,
				"z": -0.7300527667,
				"element": "H" 
			},
			{
				"x": 1.3894144122,
				"y": 4.4171571687,
				"z": -2.5378259079,
				"element": "H" 
			},
			{
				"x": 2.5790068983,
				"y": 2.3258207412,
				"z": -3.172519353,
				"element": "H" 
			},
			{
				"x": 1.5799247023,
				"y": 0.1103988403,
				"z": -2.613971604,
				"element": "H" 
			},
			{
				"x": -0.8435882016,
				"y": -0.9057847156,
				"z": 3.0073535416,
				"element": "H" 
			},
			{
				"x": 1.601278194,
				"y": -1.835120585,
				"z": 2.1102893005,
				"element": "H" 
			},
			{
				"x": -0.6033127818,
				"y": -3.8696794825,
				"z": 1.2773371243,
				"element": "H" 
			},
			{
				"x": 1.2048198143,
				"y": -4.1494841446,
				"z": 1.2234786502,
				"element": "H" 
			},
			{
				"x": 1.3085143121,
				"y": -3.7015150893,
				"z": 3.7365395807,
				"element": "H" 
			},
			{
				"x": -0.4991920586,
				"y": -3.4330933195,
				"z": 3.7370216861,
				"element": "H" 
			}
		],
		 "valence_orbital": [ 
			{
				"type": "occ",
				"energy": -0.29563,
				"method": "rhf"
			},
			{
				"type": "occ",
				"energy": -0.26722,
				"method": "rhf"
			},
			{
				"type": "occ",
				"energy": -0.26136,
				"method": "rhf"
			},
			{
				"type": "occ",
				"energy": -0.26009,
				"method": "rhf"
			},
			{
				"type": "occ",
				"energy": -0.24885,
				"method": "rhf"
			},
			{
				"type": "unocc",
				"energy": -0.04501,
				"method": "rhf"
			},
			{
				"type": "unocc",
				"energy": -0.01452,
				"method": "rhf"
			},
			{
				"type": "unocc",
				"energy": 0.01371,
				"method": "rhf"
			},
			{
				"type": "unocc",
				"energy": 0.04584,
				"method": "rhf"
			},
			{
				"type": "unocc",
				"energy": 0.0711,
				"method": "rhf"
			}
		],
		"cosmo_sigma_profile": { 
			"-0.025": 0.0,
			"-0.024": 0.0,
			"-0.023": 0.0,
			"-0.022": 0.0,
			"-0.021": 0.0,
			"-0.02": 0.0,
			"-0.019": 0.0,
			"-0.018": 0.0,
			"-0.017": 0.0,
			"-0.016": 0.0,
			"-0.015": 0.0,
			"-0.014": 0.132424935652,
			"-0.013": 0.941793190806,
			"-0.012": 0.947305534536,
			"-0.011": 0.583951517137,
			"-0.01": 1.06333871834,
			"-0.009": 1.03078241071,
			"-0.008": 3.29965044665,
			"-0.007": 11.9257328592,
			"-0.006": 20.4549472939,
			"-0.005": 23.2897274713,
			"-0.004": 20.8788731952,
			"-0.003": 18.5019586303,
			"-0.002": 18.0517138398,
			"-0.001": 22.2192433493,
			"0.0": 17.2061700134,
			"0.001": 18.1697606622,
			"0.002": 19.2977917771,
			"0.003": 10.618941477,
			"0.004": 7.54504593635,
			"0.005": 6.02291218038,
			"0.006": 4.96428711088,
			"0.007": 5.34683445168,
			"0.008": 6.6216387909,
			"0.009": 4.85184667779,
			"0.01": 7.11464914378,
			"0.011": 5.94257439749,
			"0.012": 5.65717480812,
			"0.013": 4.53496171285,
			"0.014": 1.43479786328,
			"0.015": 0.0315405129138,
			"0.016": 0.0,
			"0.017": 0.0,
			"0.018": 0.0,
			"0.019": 0.0,
			"0.02": 0.0,
			"0.021": 0.0,
			"0.022": 0.0,
			"0.023": 0.0,
			"0.024": 0.0,
			"0.025": 0.0
		}
	}
}
