{
	 "smiles": "CCCCCCCCCCCCCCCCCCCC(=O)OC", 
	 "Tm": 327.65, 
	 "num_atms": 65, 
	 "gaussian": { 
		 "optdone": 1, 
		 "sigma_profile": "yes", 
		 "theory": "DFT", 
		 "functional": "B3LYP", 
		 "basiset": "6-31G**", 
		 "properties": { 
			 "R2extent": 11021.0722, 
			 "electric_dipole_moment_norm": 2.0449620461, 
			 "electric_quadrupole_moment_norm": 7.31227012835, 
			 "total_energy": -976.057455884, 
			 "HOMO_LUMO_gap": 0.28352, 
			 "cosmo_polarized_energy": -6.73, 
			 "cosmo_cavitation_energy": 61.88, 
			 "cosmo_dispersion_energy": -36.52, 
			 "cosmo_repulsion_energy": 2.85, 
			 "cosmo_total_nonelectrostatic_energy": 28.22, 
			 "SMD_solvation_energy": 8.97 
		},
		"coords": [
			{
				"x": 1.2976882192,
				"y": 4.12573397,
				"z": 1.609150529,
				"element": "C" 
			},
			{
				"x": -0.0095226034,
				"y": 3.8602468829,
				"z": 0.854754424,
				"element": "C" 
			},
			{
				"x": -1.1706349899,
				"y": 3.5146404501,
				"z": 1.7966525902,
				"element": "C" 
			},
			{
				"x": -2.5500897468,
				"y": 3.3248377737,
				"z": 1.1398864601,
				"element": "C" 
			},
			{
				"x": -2.6842813339,
				"y": 2.1262126216,
				"z": 0.1728843112,
				"element": "C" 
			},
			{
				"x": -2.3836600136,
				"y": 2.450318764,
				"z": -1.3017247728,
				"element": "C" 
			},
			{
				"x": -2.6521789786,
				"y": 1.3096150828,
				"z": -2.3056906849,
				"element": "C" 
			},
			{
				"x": -1.5244618502,
				"y": 0.280795993,
				"z": -2.5142811389,
				"element": "C" 
			},
			{
				"x": -1.2432891723,
				"y": -0.6730873543,
				"z": -1.3419989256,
				"element": "C" 
			},
			{
				"x": -0.3278421377,
				"y": -1.8569276123,
				"z": -1.7034322049,
				"element": "C" 
			},
			{
				"x": 1.1108367925,
				"y": -1.4576042569,
				"z": -2.0642575772,
				"element": "C" 
			},
			{
				"x": 2.0343787697,
				"y": -2.6348020278,
				"z": -2.4275166811,
				"element": "C" 
			},
			{
				"x": 2.2402044046,
				"y": -3.6967117061,
				"z": -1.3301145053,
				"element": "C" 
			},
			{
				"x": 2.8111219352,
				"y": -3.1829718667,
				"z": 0.0031921213,
				"element": "C" 
			},
			{
				"x": 4.2440887397,
				"y": -2.6312752061,
				"z": -0.085806196,
				"element": "C" 
			},
			{
				"x": 4.8601576397,
				"y": -2.1996397069,
				"z": 1.2650043724,
				"element": "C" 
			},
			{
				"x": 4.6983939994,
				"y": -0.7112905283,
				"z": 1.6337641684,
				"element": "C" 
			},
			{
				"x": 3.2654607228,
				"y": -0.1744947064,
				"z": 1.7772957491,
				"element": "C" 
			},
			{
				"x": 2.4746071353,
				"y": -0.804851082,
				"z": 2.9262837762,
				"element": "C" 
			},
			{
				"x": 1.0365977618,
				"y": -0.3306608921,
				"z": 2.9862405109,
				"element": "C" 
			},
			{
				"x": 0.4668878555,
				"y": 0.3167720474,
				"z": 2.1302424194,
				"element": "O" 
			},
			{
				"x": 0.4395507891,
				"y": -0.7409191287,
				"z": 4.1263677843,
				"element": "O" 
			},
			{
				"x": -0.9430548604,
				"y": -0.3771470007,
				"z": 4.2726970117,
				"element": "C" 
			},
			{
				"x": 1.5989320611,
				"y": 3.2407366171,
				"z": 2.180683734,
				"element": "H" 
			},
			{
				"x": 2.1148822888,
				"y": 4.3750295974,
				"z": 0.9236718538,
				"element": "H" 
			},
			{
				"x": 1.1896186127,
				"y": 4.9581141055,
				"z": 2.3148071678,
				"element": "H" 
			},
			{
				"x": -0.2737178085,
				"y": 4.7396807594,
				"z": 0.2506847271,
				"element": "H" 
			},
			{
				"x": 0.1518692388,
				"y": 3.0356879158,
				"z": 0.1512783559,
				"element": "H" 
			},
			{
				"x": -1.2563109882,
				"y": 4.3116888045,
				"z": 2.5497124952,
				"element": "H" 
			},
			{
				"x": -0.9094798111,
				"y": 2.5984316881,
				"z": 2.3422327495,
				"element": "H" 
			},
			{
				"x": -2.8413543441,
				"y": 4.2488519676,
				"z": 0.619119634,
				"element": "H" 
			},
			{
				"x": -3.2808965241,
				"y": 3.2005043466,
				"z": 1.9497102826,
				"element": "H" 
			},
			{
				"x": -2.0491142271,
				"y": 1.3073971158,
				"z": 0.5298079352,
				"element": "H" 
			},
			{
				"x": -3.7157089512,
				"y": 1.7503686757,
				"z": 0.220773839,
				"element": "H" 
			},
			{
				"x": -3.0123994071,
				"y": 3.3068063874,
				"z": -1.5821172679,
				"element": "H" 
			},
			{
				"x": -1.348459515,
				"y": 2.7943977142,
				"z": -1.4177337058,
				"element": "H" 
			},
			{
				"x": -2.8577740586,
				"y": 1.7637536784,
				"z": -3.2838365995,
				"element": "H" 
			},
			{
				"x": -3.5765579183,
				"y": 0.7850032137,
				"z": -2.0221471918,
				"element": "H" 
			},
			{
				"x": -0.6068528984,
				"y": 0.8192510562,
				"z": -2.7866786419,
				"element": "H" 
			},
			{
				"x": -1.785878152,
				"y": -0.3277866258,
				"z": -3.3923543786,
				"element": "H" 
			},
			{
				"x": -0.7972030656,
				"y": -0.1291381375,
				"z": -0.5004841861,
				"element": "H" 
			},
			{
				"x": -2.2000260796,
				"y": -1.0717341104,
				"z": -0.976849719,
				"element": "H" 
			},
			{
				"x": -0.7689798723,
				"y": -2.4165276251,
				"z": -2.5419004588,
				"element": "H" 
			},
			{
				"x": -0.3102091979,
				"y": -2.5501758243,
				"z": -0.8529843974,
				"element": "H" 
			},
			{
				"x": 1.0950122835,
				"y": -0.7671591947,
				"z": -2.9165272477,
				"element": "H" 
			},
			{
				"x": 1.540012165,
				"y": -0.886853543,
				"z": -1.2293560392,
				"element": "H" 
			},
			{
				"x": 1.631144696,
				"y": -3.1382838272,
				"z": -3.3169722383,
				"element": "H" 
			},
			{
				"x": 3.0091734741,
				"y": -2.2325735984,
				"z": -2.7321575016,
				"element": "H" 
			},
			{
				"x": 2.9078772707,
				"y": -4.4754822627,
				"z": -1.7242598393,
				"element": "H" 
			},
			{
				"x": 1.2856161404,
				"y": -4.1987695636,
				"z": -1.1292191376,
				"element": "H" 
			},
			{
				"x": 2.8079082799,
				"y": -4.0145481121,
				"z": 0.7216424673,
				"element": "H" 
			},
			{
				"x": 2.1367735016,
				"y": -2.4258616094,
				"z": 0.4201239911,
				"element": "H" 
			},
			{
				"x": 4.8747016314,
				"y": -3.4133678446,
				"z": -0.5295728268,
				"element": "H" 
			},
			{
				"x": 4.2832856918,
				"y": -1.7862566837,
				"z": -0.7860532931,
				"element": "H" 
			},
			{
				"x": 5.937661737,
				"y": -2.4045422338,
				"z": 1.243330325,
				"element": "H" 
			},
			{
				"x": 4.4611090327,
				"y": -2.8364585496,
				"z": 2.0666339468,
				"element": "H" 
			},
			{
				"x": 5.2445772475,
				"y": -0.5246753382,
				"z": 2.5691313012,
				"element": "H" 
			},
			{
				"x": 5.2068189833,
				"y": -0.1122112289,
				"z": 0.8666885279,
				"element": "H" 
			},
			{
				"x": 2.7109257518,
				"y": -0.3095539419,
				"z": 0.8436703506,
				"element": "H" 
			},
			{
				"x": 3.3085274901,
				"y": 0.9096827985,
				"z": 1.9353049794,
				"element": "H" 
			},
			{
				"x": 2.9434774462,
				"y": -0.6034854278,
				"z": 3.8969573448,
				"element": "H" 
			},
			{
				"x": 2.4431934947,
				"y": -1.8982248953,
				"z": 2.8381775398,
				"element": "H" 
			},
			{
				"x": -1.0515625155,
				"y": 0.7089653603,
				"z": 4.3316639318,
				"element": "H" 
			},
			{
				"x": -1.2725396144,
				"y": -0.8420284634,
				"z": 5.2019132814,
				"element": "H" 
			},
			{
				"x": -1.5316326477,
				"y": -0.7449436708,
				"z": 3.4287903676,
				"element": "H" 
			}
		],
		 "valence_orbital": [ 
			{
				"type": "occ",
				"energy": -0.29338,
				"method": "rhf"
			},
			{
				"type": "occ",
				"energy": -0.29151,
				"method": "rhf"
			},
			{
				"type": "occ",
				"energy": -0.28716,
				"method": "rhf"
			},
			{
				"type": "occ",
				"energy": -0.28521,
				"method": "rhf"
			},
			{
				"type": "occ",
				"energy": -0.27405,
				"method": "rhf"
			},
			{
				"type": "unocc",
				"energy": 0.00947,
				"method": "rhf"
			},
			{
				"type": "unocc",
				"energy": 0.06546,
				"method": "rhf"
			},
			{
				"type": "unocc",
				"energy": 0.08624,
				"method": "rhf"
			},
			{
				"type": "unocc",
				"energy": 0.09108,
				"method": "rhf"
			},
			{
				"type": "unocc",
				"energy": 0.09743,
				"method": "rhf"
			}
		],
		"cosmo_sigma_profile": { 
			"-0.025": 0.0,
			"-0.024": 0.0,
			"-0.023": 0.0,
			"-0.022": 0.0,
			"-0.021": 0.0,
			"-0.02": 0.0,
			"-0.019": 0.0,
			"-0.018": 0.0,
			"-0.017": 0.0,
			"-0.016": 0.0,
			"-0.015": 0.0,
			"-0.014": 0.0,
			"-0.013": 0.0,
			"-0.012": 0.0,
			"-0.011": 0.0,
			"-0.01": 0.0,
			"-0.009": 0.0,
			"-0.008": 0.0,
			"-0.007": 0.465827089153,
			"-0.006": 2.6002964054,
			"-0.005": 8.86212454244,
			"-0.004": 14.3222366241,
			"-0.003": 22.427264251,
			"-0.002": 52.6503958172,
			"-0.001": 96.1048730808,
			"0.0": 97.7900886248,
			"0.001": 92.4495636952,
			"0.002": 44.576380234,
			"0.003": 9.05099952097,
			"0.004": 9.24478655672,
			"0.005": 7.5562007288,
			"0.006": 8.05680378422,
			"0.007": 3.37656510278,
			"0.008": 2.22929930061,
			"0.009": 1.86290508335,
			"0.01": 0.448254148391,
			"0.011": 0.0,
			"0.012": 0.0,
			"0.013": 0.0,
			"0.014": 0.0,
			"0.015": 0.0,
			"0.016": 0.0,
			"0.017": 0.0,
			"0.018": 0.0,
			"0.019": 0.0,
			"0.02": 0.0,
			"0.021": 0.0,
			"0.022": 0.0,
			"0.023": 0.0,
			"0.024": 0.0,
			"0.025": 0.0
		}
	}
}
