{
	 "smiles": "CC(C)(C)OC(=O)NC1=C(N=NS1)C(O)=O", 
	 "Tm": 413.15, 
	 "num_atms": 27, 
	 "gaussian": { 
		 "optdone": 1, 
		 "sigma_profile": "yes", 
		 "theory": "DFT", 
		 "functional": "B3LYP", 
		 "basiset": "6-31G**", 
		 "properties": { 
			 "R2extent": 6096.4444, 
			 "electric_dipole_moment_norm": 5.40533094916, 
			 "electric_quadrupole_moment_norm": 23.6675593902, 
			 "total_energy": -1174.8353796, 
			 "HOMO_LUMO_gap": 0.19484, 
			 "cosmo_polarized_energy": -14.47, 
			 "cosmo_cavitation_energy": 33.07, 
			 "cosmo_dispersion_energy": -24.39, 
			 "cosmo_repulsion_energy": 1.87, 
			 "cosmo_total_nonelectrostatic_energy": 10.55, 
			 "SMD_solvation_energy": 6.04 
		},
		"coords": [
			{
				"x": 0.0837429003,
				"y": -2.2510760356,
				"z": 2.8713224154,
				"element": "C" 
			},
			{
				"x": 0.3284199109,
				"y": -2.4696326057,
				"z": 1.3761848749,
				"element": "C" 
			},
			{
				"x": 1.8200523562,
				"y": -2.6263136154,
				"z": 1.0775277068,
				"element": "C" 
			},
			{
				"x": -0.4745929004,
				"y": -3.6451607871,
				"z": 0.8137029007,
				"element": "C" 
			},
			{
				"x": -0.0137960073,
				"y": -1.2322281713,
				"z": 0.6306436406,
				"element": "O" 
			},
			{
				"x": -1.256581397,
				"y": -0.7446178948,
				"z": 0.6370380636,
				"element": "C" 
			},
			{
				"x": -2.2401926662,
				"y": -1.1866573004,
				"z": 1.203229093,
				"element": "O" 
			},
			{
				"x": -1.2932257738,
				"y": 0.4107182734,
				"z": -0.1352322294,
				"element": "N" 
			},
			{
				"x": -2.4208029053,
				"y": 1.149444868,
				"z": -0.3298835769,
				"element": "C" 
			},
			{
				"x": -2.4782708451,
				"y": 2.3139344526,
				"z": -1.1025924833,
				"element": "C" 
			},
			{
				"x": -3.7257124779,
				"y": 2.8826426245,
				"z": -1.1496218785,
				"element": "N" 
			},
			{
				"x": -4.6280631204,
				"y": 2.2825970572,
				"z": -0.4988323445,
				"element": "N" 
			},
			{
				"x": -3.9838699231,
				"y": 0.8304982651,
				"z": 0.3091860281,
				"element": "S" 
			},
			{
				"x": -1.3125490341,
				"y": 2.8642898305,
				"z": -1.7910197388,
				"element": "C" 
			},
			{
				"x": -1.5545563286,
				"y": 3.9866145526,
				"z": -2.4850766019,
				"element": "O" 
			},
			{
				"x": -0.198760071,
				"y": 2.3468108506,
				"z": -1.742539685,
				"element": "O" 
			},
			{
				"x": 0.6320674726,
				"y": -1.3720817764,
				"z": 3.2237742345,
				"element": "H" 
			},
			{
				"x": 0.4452842638,
				"y": -3.1214174218,
				"z": 3.4277808132,
				"element": "H" 
			},
			{
				"x": -0.9774011407,
				"y": -2.1176906189,
				"z": 3.0844932558,
				"element": "H" 
			},
			{
				"x": 2.2065381601,
				"y": -3.5190697424,
				"z": 1.5773617196,
				"element": "H" 
			},
			{
				"x": 2.3804244737,
				"y": -1.7583130196,
				"z": 1.4359386674,
				"element": "H" 
			},
			{
				"x": 1.9913724059,
				"y": -2.7293735957,
				"z": 0.0023812379,
				"element": "H" 
			},
			{
				"x": -0.1358240181,
				"y": -4.5728876945,
				"z": 1.2853098469,
				"element": "H" 
			},
			{
				"x": -1.541254913,
				"y": -3.5257918689,
				"z": 1.0067226286,
				"element": "H" 
			},
			{
				"x": -0.3148233739,
				"y": -3.735718954,
				"z": -0.2650854234,
				"element": "H" 
			},
			{
				"x": -0.4557624609,
				"y": 0.7644677489,
				"z": -0.6014974997,
				"element": "H" 
			},
			{
				"x": -0.707262587,
				"y": 4.2416125791,
				"z": -2.8873156656,
				"element": "H" 
			}
		],
		 "valence_orbital": [ 
			{
				"type": "occ",
				"energy": -0.30795,
				"method": "rhf"
			},
			{
				"type": "occ",
				"energy": -0.29632,
				"method": "rhf"
			},
			{
				"type": "occ",
				"energy": -0.29174,
				"method": "rhf"
			},
			{
				"type": "occ",
				"energy": -0.2562,
				"method": "rhf"
			},
			{
				"type": "occ",
				"energy": -0.25518,
				"method": "rhf"
			},
			{
				"type": "unocc",
				"energy": -0.06034,
				"method": "rhf"
			},
			{
				"type": "unocc",
				"energy": -0.03615,
				"method": "rhf"
			},
			{
				"type": "unocc",
				"energy": -0.0065,
				"method": "rhf"
			},
			{
				"type": "unocc",
				"energy": 0.03201,
				"method": "rhf"
			},
			{
				"type": "unocc",
				"energy": 0.06702,
				"method": "rhf"
			}
		],
		"cosmo_sigma_profile": { 
			"-0.025": 0.0,
			"-0.024": 0.0,
			"-0.023": 0.0,
			"-0.022": 0.0,
			"-0.021": 0.0,
			"-0.02": 0.0477513334477,
			"-0.019": 0.943203220473,
			"-0.018": 0.821205133642,
			"-0.017": 1.21053285037,
			"-0.016": 0.57348075507,
			"-0.015": 0.320330286347,
			"-0.014": 0.160935274747,
			"-0.013": 0.957868265609,
			"-0.012": 1.06753570458,
			"-0.011": 1.07103530765,
			"-0.01": 0.409960465386,
			"-0.009": 0.591742423541,
			"-0.008": 1.76495867757,
			"-0.007": 1.77649841836,
			"-0.006": 2.18027484688,
			"-0.005": 10.5631829746,
			"-0.004": 32.5426385176,
			"-0.003": 29.725523143,
			"-0.002": 25.7850731742,
			"-0.001": 27.0866817507,
			"0.0": 33.3760666145,
			"0.001": 16.0347363922,
			"0.002": 8.95460210486,
			"0.003": 8.08886580877,
			"0.004": 7.30735417602,
			"0.005": 6.88863487465,
			"0.006": 6.73809149572,
			"0.007": 6.22230947784,
			"0.008": 7.65980441694,
			"0.009": 6.99651177534,
			"0.01": 8.33178798493,
			"0.011": 5.26876294091,
			"0.012": 2.65028277025,
			"0.013": 0.247327047403,
			"0.014": 0.0,
			"0.015": 0.0,
			"0.016": 0.0,
			"0.017": 0.0,
			"0.018": 0.0,
			"0.019": 0.0,
			"0.02": 0.0,
			"0.021": 0.0,
			"0.022": 0.0,
			"0.023": 0.0,
			"0.024": 0.0,
			"0.025": 0.0
		}
	}
}
