{
	 "smiles": "COC(=O)C1=C(N=C(N)S1)C1CC1", 
	 "Tm": 458.15, 
	 "num_atms": 23, 
	 "gaussian": { 
		 "optdone": 1, 
		 "sigma_profile": "yes", 
		 "theory": "DFT", 
		 "functional": "B3LYP", 
		 "basiset": "6-31G**", 
		 "properties": { 
			 "R2extent": 3592.0522, 
			 "electric_dipole_moment_norm": 2.43786524853, 
			 "electric_quadrupole_moment_norm": 23.510410661, 
			 "total_energy": -968.998352391, 
			 "HOMO_LUMO_gap": 0.17363, 
			 "cosmo_polarized_energy": -14.13, 
			 "cosmo_cavitation_energy": 28.69, 
			 "cosmo_dispersion_energy": -21.42, 
			 "cosmo_repulsion_energy": 1.69, 
			 "cosmo_total_nonelectrostatic_energy": 8.95, 
			 "SMD_solvation_energy": 4.91 
		},
		"coords": [
			{
				"x": -0.86580389,
				"y": 3.4536386572,
				"z": 1.1035486082,
				"element": "C" 
			},
			{
				"x": -0.557599459,
				"y": 2.2160011906,
				"z": 0.4444422194,
				"element": "O" 
			},
			{
				"x": -0.2239473494,
				"y": 2.336904786,
				"z": -0.8668155766,
				"element": "C" 
			},
			{
				"x": -0.1874939924,
				"y": 3.4136205466,
				"z": -1.4410678949,
				"element": "O" 
			},
			{
				"x": 0.083454781,
				"y": 1.0676684039,
				"z": -1.5152813718,
				"element": "C" 
			},
			{
				"x": 0.119805372,
				"y": -0.2509320618,
				"z": -1.0950283129,
				"element": "C" 
			},
			{
				"x": 0.4837472391,
				"y": -1.1646850039,
				"z": -2.0570053262,
				"element": "N" 
			},
			{
				"x": 0.7198571568,
				"y": -0.5783314356,
				"z": -3.2049988398,
				"element": "C" 
			},
			{
				"x": 1.0464004451,
				"y": -1.2752367546,
				"z": -4.3340391222,
				"element": "N" 
			},
			{
				"x": 0.520039809,
				"y": 1.1633307809,
				"z": -3.2249350771,
				"element": "S" 
			},
			{
				"x": -0.1830582196,
				"y": -0.757397101,
				"z": 0.2596373626,
				"element": "C" 
			},
			{
				"x": -0.8517562459,
				"y": -2.1164812658,
				"z": 0.4073917351,
				"element": "C" 
			},
			{
				"x": 0.5861689435,
				"y": -1.9584593311,
				"z": 0.7900475451,
				"element": "C" 
			},
			{
				"x": -1.1075309801,
				"y": 3.1844679425,
				"z": 2.1319533762,
				"element": "H" 
			},
			{
				"x": -0.0087293304,
				"y": 4.1311646855,
				"z": 1.0756964862,
				"element": "H" 
			},
			{
				"x": -1.7168787457,
				"y": 3.9452769154,
				"z": 0.625670561,
				"element": "H" 
			},
			{
				"x": 1.5338944798,
				"y": -0.795763976,
				"z": -5.0750812874,
				"element": "H" 
			},
			{
				"x": 1.323089228,
				"y": -2.2334027553,
				"z": -4.1718925666,
				"element": "H" 
			},
			{
				"x": -0.4575082389,
				"y": 0.0045231114,
				"z": 0.9758093415,
				"element": "H" 
			},
			{
				"x": -1.0688565931,
				"y": -2.6524900669,
				"z": -0.5102513771,
				"element": "H" 
			},
			{
				"x": -1.5975808243,
				"y": -2.2154315489,
				"z": 1.1903016652,
				"element": "H" 
			},
			{
				"x": 1.329578841,
				"y": -2.3893443622,
				"z": 0.1281316365,
				"element": "H" 
			},
			{
				"x": 0.8532075733,
				"y": -1.9462413567,
				"z": 1.8424662153,
				"element": "H" 
			}
		],
		 "valence_orbital": [ 
			{
				"type": "occ",
				"energy": -0.29019,
				"method": "rhf"
			},
			{
				"type": "occ",
				"energy": -0.28902,
				"method": "rhf"
			},
			{
				"type": "occ",
				"energy": -0.26462,
				"method": "rhf"
			},
			{
				"type": "occ",
				"energy": -0.25938,
				"method": "rhf"
			},
			{
				"type": "occ",
				"energy": -0.21086,
				"method": "rhf"
			},
			{
				"type": "unocc",
				"energy": -0.03723,
				"method": "rhf"
			},
			{
				"type": "unocc",
				"energy": 0.01061,
				"method": "rhf"
			},
			{
				"type": "unocc",
				"energy": 0.03179,
				"method": "rhf"
			},
			{
				"type": "unocc",
				"energy": 0.07024,
				"method": "rhf"
			},
			{
				"type": "unocc",
				"energy": 0.09699,
				"method": "rhf"
			}
		],
		"cosmo_sigma_profile": { 
			"-0.025": 0.0,
			"-0.024": 0.0,
			"-0.023": 0.0,
			"-0.022": 0.0,
			"-0.021": 0.0,
			"-0.02": 0.0,
			"-0.019": 0.0,
			"-0.018": 0.0,
			"-0.017": 0.0,
			"-0.016": 0.169910280883,
			"-0.015": 1.80945480378,
			"-0.014": 2.89107750533,
			"-0.013": 2.64881789115,
			"-0.012": 2.68981359141,
			"-0.011": 2.4322736218,
			"-0.01": 1.53447927521,
			"-0.009": 2.0778679232,
			"-0.008": 1.78865211528,
			"-0.007": 1.88195396628,
			"-0.006": 5.35040140215,
			"-0.005": 11.3200963006,
			"-0.004": 17.6225263871,
			"-0.003": 17.2459275818,
			"-0.002": 13.9828212193,
			"-0.001": 15.588051475,
			"0.0": 15.0469250512,
			"0.001": 17.2113985975,
			"0.002": 23.5033114515,
			"0.003": 22.8886900226,
			"0.004": 14.7255547577,
			"0.005": 8.52793176293,
			"0.006": 4.65964827508,
			"0.007": 4.02760528609,
			"0.008": 3.68013107643,
			"0.009": 2.74556315489,
			"0.01": 2.44772563262,
			"0.011": 2.88984429084,
			"0.012": 4.67535815687,
			"0.013": 1.83852358452,
			"0.014": 0.0,
			"0.015": 0.0,
			"0.016": 0.0,
			"0.017": 0.0,
			"0.018": 0.0,
			"0.019": 0.0,
			"0.02": 0.0,
			"0.021": 0.0,
			"0.022": 0.0,
			"0.023": 0.0,
			"0.024": 0.0,
			"0.025": 0.0
		}
	}
}
