{
	 "smiles": "CC1=CC(N)=NN1C1=NC(C)=CC(C)=N1", 
	 "Tm": 408.15, 
	 "num_atms": 28, 
	 "gaussian": { 
		 "optdone": 1, 
		 "sigma_profile": "yes", 
		 "theory": "DFT", 
		 "functional": "B3LYP", 
		 "basiset": "6-31G**", 
		 "properties": { 
			 "R2extent": 3982.5137, 
			 "electric_dipole_moment_norm": 2.20254263523, 
			 "electric_quadrupole_moment_norm": 14.9289223616, 
			 "total_energy": -662.660637338, 
			 "HOMO_LUMO_gap": 0.16678, 
			 "cosmo_polarized_energy": -15.49, 
			 "cosmo_cavitation_energy": 31.96, 
			 "cosmo_dispersion_energy": -23.13, 
			 "cosmo_repulsion_energy": 1.84, 
			 "cosmo_total_nonelectrostatic_energy": 10.67, 
			 "SMD_solvation_energy": 3.18 
		},
		"coords": [
			{
				"x": 1.6548162371,
				"y": 2.698820678,
				"z": -0.7957399869,
				"element": "C" 
			},
			{
				"x": 2.0329249689,
				"y": 1.4504800928,
				"z": -0.063062207,
				"element": "C" 
			},
			{
				"x": 3.2904007796,
				"y": 0.9157160158,
				"z": 0.0749381797,
				"element": "C" 
			},
			{
				"x": 3.1206802702,
				"y": -0.2723640256,
				"z": 0.8443698516,
				"element": "C" 
			},
			{
				"x": 4.1037911104,
				"y": -1.194659916,
				"z": 1.1874792214,
				"element": "N" 
			},
			{
				"x": 1.8583921869,
				"y": -0.4718791408,
				"z": 1.1747592508,
				"element": "N" 
			},
			{
				"x": 1.1765828189,
				"y": 0.5850377208,
				"z": 0.6080287386,
				"element": "N" 
			},
			{
				"x": -0.2158720341,
				"y": 0.6613707202,
				"z": 0.7733098291,
				"element": "C" 
			},
			{
				"x": -0.796345676,
				"y": -0.3400542004,
				"z": 1.4405687467,
				"element": "N" 
			},
			{
				"x": -2.1232498889,
				"y": -0.2588119278,
				"z": 1.5934282726,
				"element": "C" 
			},
			{
				"x": -2.7783614203,
				"y": -1.3867424091,
				"z": 2.3456500907,
				"element": "C" 
			},
			{
				"x": -2.8553835247,
				"y": 0.8170764646,
				"z": 1.0790955527,
				"element": "C" 
			},
			{
				"x": -2.1482098457,
				"y": 1.8092118835,
				"z": 0.3980486529,
				"element": "C" 
			},
			{
				"x": -2.8263571636,
				"y": 3.0140411877,
				"z": -0.1992715122,
				"element": "C" 
			},
			{
				"x": -0.818759198,
				"y": 1.7329556704,
				"z": 0.2445685027,
				"element": "N" 
			},
			{
				"x": 1.1834217539,
				"y": 3.4329520232,
				"z": -0.1378868512,
				"element": "H" 
			},
			{
				"x": 2.5609943181,
				"y": 3.1348635728,
				"z": -1.2253491531,
				"element": "H" 
			},
			{
				"x": 0.9411810903,
				"y": 2.500606188,
				"z": -1.599231872,
				"element": "H" 
			},
			{
				"x": 4.2048223339,
				"y": 1.3169447783,
				"z": -0.3379082372,
				"element": "H" 
			},
			{
				"x": 4.9885951927,
				"y": -0.7764772932,
				"z": 1.4437120507,
				"element": "H" 
			},
			{
				"x": 3.7812382352,
				"y": -1.8462791505,
				"z": 1.8928183783,
				"element": "H" 
			},
			{
				"x": -2.5762851327,
				"y": -2.3377095076,
				"z": 1.8427549589,
				"element": "H" 
			},
			{
				"x": -3.8593300012,
				"y": -1.2492492596,
				"z": 2.4269471446,
				"element": "H" 
			},
			{
				"x": -2.3517523063,
				"y": -1.4624728831,
				"z": 3.3508520032,
				"element": "H" 
			},
			{
				"x": -3.9307051184,
				"y": 0.8782364581,
				"z": 1.2045125366,
				"element": "H" 
			},
			{
				"x": -2.4099956914,
				"y": 3.9321083233,
				"z": 0.2278087909,
				"element": "H" 
			},
			{
				"x": -2.6458449981,
				"y": 3.0525831253,
				"z": -1.2784951792,
				"element": "H" 
			},
			{
				"x": -3.9044892967,
				"y": 3.0005948109,
				"z": -0.0231057539,
				"element": "H" 
			}
		],
		 "valence_orbital": [ 
			{
				"type": "occ",
				"energy": -0.27217,
				"method": "rhf"
			},
			{
				"type": "occ",
				"energy": -0.26842,
				"method": "rhf"
			},
			{
				"type": "occ",
				"energy": -0.23753,
				"method": "rhf"
			},
			{
				"type": "occ",
				"energy": -0.22694,
				"method": "rhf"
			},
			{
				"type": "occ",
				"energy": -0.19684,
				"method": "rhf"
			},
			{
				"type": "unocc",
				"energy": -0.03006,
				"method": "rhf"
			},
			{
				"type": "unocc",
				"energy": -0.02115,
				"method": "rhf"
			},
			{
				"type": "unocc",
				"energy": 0.0513,
				"method": "rhf"
			},
			{
				"type": "unocc",
				"energy": 0.08495,
				"method": "rhf"
			},
			{
				"type": "unocc",
				"energy": 0.10158,
				"method": "rhf"
			}
		],
		"cosmo_sigma_profile": { 
			"-0.025": 0.0,
			"-0.024": 0.0,
			"-0.023": 0.0,
			"-0.022": 0.0,
			"-0.021": 0.0,
			"-0.02": 0.0,
			"-0.019": 0.0,
			"-0.018": 0.0,
			"-0.017": 0.0,
			"-0.016": 0.0,
			"-0.015": 0.0,
			"-0.014": 0.00018848422128,
			"-0.013": 0.672735513885,
			"-0.012": 2.31973811835,
			"-0.011": 2.32067989603,
			"-0.01": 2.50248828438,
			"-0.009": 2.86362460956,
			"-0.008": 2.80117741143,
			"-0.007": 3.63836804726,
			"-0.006": 8.5614523417,
			"-0.005": 16.3159868793,
			"-0.004": 17.3484998631,
			"-0.003": 20.9872742882,
			"-0.002": 21.3664190797,
			"-0.001": 31.6061748185,
			"0.0": 30.1419368769,
			"0.001": 17.284703561,
			"0.002": 12.3745097871,
			"0.003": 8.61758192168,
			"0.004": 10.9454937739,
			"0.005": 8.81130326591,
			"0.006": 4.81192833928,
			"0.007": 4.28962775446,
			"0.008": 3.19185544331,
			"0.009": 1.95987921839,
			"0.01": 1.67590271049,
			"0.011": 2.42153678875,
			"0.012": 2.58650832375,
			"0.013": 2.04233275516,
			"0.014": 1.82097528834,
			"0.015": 1.1381529772,
			"0.016": 0.962855757171,
			"0.017": 1.30245980758,
			"0.018": 0.646742416335,
			"0.019": 0.849403073118,
			"0.02": 0.73079591912,
			"0.021": 0.878414168611,
			"0.022": 0.403056488437,
			"0.023": 0.0087451494168,
			"0.024": 0.0,
			"0.025": 0.0
		}
	}
}
