{
	 "smiles": "NC1=NOC(=N1)C1=CC=CC=C1", 
	 "Tm": 438.15, 
	 "num_atms": 19, 
	 "gaussian": { 
		 "optdone": 1, 
		 "sigma_profile": "yes", 
		 "theory": "DFT", 
		 "functional": "B3LYP", 
		 "basiset": "6-31G**", 
		 "properties": { 
			 "R2extent": 3443.9151, 
			 "electric_dipole_moment_norm": 2.19684059731, 
			 "electric_quadrupole_moment_norm": 21.2489371751, 
			 "total_energy": -548.518775778, 
			 "HOMO_LUMO_gap": 0.17751, 
			 "cosmo_polarized_energy": -11.79, 
			 "cosmo_cavitation_energy": 24.06, 
			 "cosmo_dispersion_energy": -18.18, 
			 "cosmo_repulsion_energy": 1.44, 
			 "cosmo_total_nonelectrostatic_energy": 7.33, 
			 "SMD_solvation_energy": 2.24 
		},
		"coords": [
			{
				"x": 3.3861265746,
				"y": 0.7397058307,
				"z": 3.387188521,
				"element": "N" 
			},
			{
				"x": 2.2661632454,
				"y": 1.2919025757,
				"z": 2.8198638968,
				"element": "C" 
			},
			{
				"x": 1.9468198115,
				"y": 2.5659829327,
				"z": 2.9442682495,
				"element": "N" 
			},
			{
				"x": 0.7049094694,
				"y": 2.6306796758,
				"z": 2.2626773083,
				"element": "O" 
			},
			{
				"x": 0.4447959087,
				"y": 1.395563153,
				"z": 1.8068478853,
				"element": "C" 
			},
			{
				"x": 1.3686821817,
				"y": 0.523527293,
				"z": 2.1162742928,
				"element": "N" 
			},
			{
				"x": -0.7845352472,
				"y": 1.1659647951,
				"z": 1.0506219476,
				"element": "C" 
			},
			{
				"x": -1.6777396908,
				"y": 2.2168483915,
				"z": 0.7895581765,
				"element": "C" 
			},
			{
				"x": -2.8426156095,
				"y": 1.9724446946,
				"z": 0.0659886964,
				"element": "C" 
			},
			{
				"x": -3.1235327957,
				"y": 0.6856963928,
				"z": -0.400231595,
				"element": "C" 
			},
			{
				"x": -2.2348737337,
				"y": -0.3616150744,
				"z": -0.1408586,
				"element": "C" 
			},
			{
				"x": -1.0686327979,
				"y": -0.1264491415,
				"z": 0.5818130443,
				"element": "C" 
			},
			{
				"x": 4.1121147035,
				"y": 1.395588796,
				"z": 3.6371340315,
				"element": "H" 
			},
			{
				"x": 3.7128999029,
				"y": -0.0986438785,
				"z": 2.9297211765,
				"element": "H" 
			},
			{
				"x": -1.4541801613,
				"y": 3.2136503363,
				"z": 1.1541666604,
				"element": "H" 
			},
			{
				"x": -3.5321065811,
				"y": 2.7869690008,
				"z": -0.1344112157,
				"element": "H" 
			},
			{
				"x": -4.0329812646,
				"y": 0.4992417414,
				"z": -0.9640398454,
				"element": "H" 
			},
			{
				"x": -2.4523758981,
				"y": -1.3623072435,
				"z": -0.5020493057,
				"element": "H" 
			},
			{
				"x": -0.3688380178,
				"y": -0.9277502715,
				"z": 0.7931666749,
				"element": "H" 
			}
		],
		 "valence_orbital": [ 
			{
				"type": "occ",
				"energy": -0.31254,
				"method": "rhf"
			},
			{
				"type": "occ",
				"energy": -0.28953,
				"method": "rhf"
			},
			{
				"type": "occ",
				"energy": -0.26387,
				"method": "rhf"
			},
			{
				"type": "occ",
				"energy": -0.26012,
				"method": "rhf"
			},
			{
				"type": "occ",
				"energy": -0.23042,
				"method": "rhf"
			},
			{
				"type": "unocc",
				"energy": -0.05291,
				"method": "rhf"
			},
			{
				"type": "unocc",
				"energy": -0.01191,
				"method": "rhf"
			},
			{
				"type": "unocc",
				"energy": 0.03691,
				"method": "rhf"
			},
			{
				"type": "unocc",
				"energy": 0.06422,
				"method": "rhf"
			},
			{
				"type": "unocc",
				"energy": 0.08067,
				"method": "rhf"
			}
		],
		"cosmo_sigma_profile": { 
			"-0.025": 0.0,
			"-0.024": 0.0,
			"-0.023": 0.0,
			"-0.022": 0.0,
			"-0.021": 0.0,
			"-0.02": 0.0,
			"-0.019": 0.0,
			"-0.018": 0.0,
			"-0.017": 0.0,
			"-0.016": 0.0,
			"-0.015": 0.131376874653,
			"-0.014": 2.10197528508,
			"-0.013": 2.36704609922,
			"-0.012": 2.30614148074,
			"-0.011": 2.28982914639,
			"-0.01": 1.99415891883,
			"-0.009": 2.42823703866,
			"-0.008": 1.6039638827,
			"-0.007": 4.48304611009,
			"-0.006": 11.2873168121,
			"-0.005": 12.1007830829,
			"-0.004": 10.8757754461,
			"-0.003": 9.94640037842,
			"-0.002": 10.8077121791,
			"-0.001": 14.8590816391,
			"0.0": 13.1229950338,
			"0.001": 13.4396995196,
			"0.002": 13.9019093241,
			"0.003": 15.5737577243,
			"0.004": 13.8044564971,
			"0.005": 3.16638342024,
			"0.006": 4.62754723592,
			"0.007": 7.05637263566,
			"0.008": 3.54335123982,
			"0.009": 3.33446694569,
			"0.01": 3.48284137082,
			"0.011": 2.84483051102,
			"0.012": 2.75334134223,
			"0.013": 1.63921328943,
			"0.014": 1.37879843337,
			"0.015": 0.142040376845,
			"0.016": 0.0,
			"0.017": 0.0,
			"0.018": 0.0,
			"0.019": 0.0,
			"0.02": 0.0,
			"0.021": 0.0,
			"0.022": 0.0,
			"0.023": 0.0,
			"0.024": 0.0,
			"0.025": 0.0
		}
	}
}
