{
	 "smiles": "CC1=NC(NC2=C(C=C(C=C2C(F)(F)F)[N+]([O-])=O)[N+]([O-])=O)=C(C=C1C#N)C#N", 
	 "Tm": 398.15, 
	 "num_atms": 35, 
	 "gaussian": { 
		 "optdone": 1, 
		 "sigma_profile": "yes", 
		 "theory": "DFT", 
		 "functional": "B3LYP", 
		 "basiset": "6-31G**", 
		 "properties": { 
			 "R2extent": 10914.0151, 
			 "electric_dipole_moment_norm": 4.92219786782, 
			 "electric_quadrupole_moment_norm": 26.3947030275, 
			 "total_energy": -1504.5007119, 
			 "HOMO_LUMO_gap": 0.1372, 
			 "cosmo_polarized_energy": -22.01, 
			 "cosmo_cavitation_energy": 45.31, 
			 "cosmo_dispersion_energy": -29.15, 
			 "cosmo_repulsion_energy": 2.12, 
			 "cosmo_total_nonelectrostatic_energy": 18.28, 
			 "SMD_solvation_energy": 14.16 
		},
		"coords": [
			{
				"x": 2.8945884809,
				"y": -0.9731814144,
				"z": 4.1070728388,
				"element": "C" 
			},
			{
				"x": 1.7924303551,
				"y": -0.324966003,
				"z": 3.3184773863,
				"element": "C" 
			},
			{
				"x": 1.8338268617,
				"y": -0.4435955771,
				"z": 1.9934897237,
				"element": "N" 
			},
			{
				"x": 0.8825079807,
				"y": 0.1073935982,
				"z": 1.2283841855,
				"element": "C" 
			},
			{
				"x": 1.1022105807,
				"y": -0.1006480964,
				"z": -0.1224087116,
				"element": "N" 
			},
			{
				"x": 0.2888382092,
				"y": -0.0300832249,
				"z": -1.2469981935,
				"element": "C" 
			},
			{
				"x": -1.057744676,
				"y": -0.4668419569,
				"z": -1.3432394456,
				"element": "C" 
			},
			{
				"x": -1.7891662307,
				"y": -0.3273488399,
				"z": -2.5200934931,
				"element": "C" 
			},
			{
				"x": -1.1744825988,
				"y": 0.1957961161,
				"z": -3.6419485394,
				"element": "C" 
			},
			{
				"x": 0.1610343993,
				"y": 0.5877876404,
				"z": -3.6194339038,
				"element": "C" 
			},
			{
				"x": 0.8788456522,
				"y": 0.4812728559,
				"z": -2.439167768,
				"element": "C" 
			},
			{
				"x": 2.3061570758,
				"y": 0.9848739293,
				"z": -2.4184389349,
				"element": "C" 
			},
			{
				"x": 3.1657302974,
				"y": 0.0077468398,
				"z": -2.0062212936,
				"element": "F" 
			},
			{
				"x": 2.4611366017,
				"y": 2.0195043192,
				"z": -1.5724769825,
				"element": "F" 
			},
			{
				"x": 2.7156133532,
				"y": 1.3788722235,
				"z": -3.6329354979,
				"element": "F" 
			},
			{
				"x": -1.9415801184,
				"y": 0.326422846,
				"z": -4.8894142748,
				"element": "N" 
			},
			{
				"x": -1.3495983142,
				"y": 0.7842358967,
				"z": -5.8650275226,
				"element": "O" 
			},
			{
				"x": -3.1156964875,
				"y": -0.0323161446,
				"z": -4.8704420295,
				"element": "O" 
			},
			{
				"x": -1.7550524459,
				"y": -1.1865375746,
				"z": -0.2598130545,
				"element": "N" 
			},
			{
				"x": -1.0738085575,
				"y": -1.6464400457,
				"z": 0.6567428704,
				"element": "O" 
			},
			{
				"x": -2.9697377374,
				"y": -1.3229099111,
				"z": -0.3616805541,
				"element": "O" 
			},
			{
				"x": -0.1549662216,
				"y": 0.9041279591,
				"z": 1.7754833712,
				"element": "C" 
			},
			{
				"x": -0.2184759809,
				"y": 1.0116608409,
				"z": 3.168171466,
				"element": "C" 
			},
			{
				"x": 0.742817912,
				"y": 0.3836685639,
				"z": 3.9599215568,
				"element": "C" 
			},
			{
				"x": 0.6924965313,
				"y": 0.4827389934,
				"z": 5.3849077704,
				"element": "C" 
			},
			{
				"x": 0.6653030237,
				"y": 0.5571207774,
				"z": 6.5457262198,
				"element": "N" 
			},
			{
				"x": -1.0753014439,
				"y": 1.6369004675,
				"z": 0.9687015962,
				"element": "C" 
			},
			{
				"x": -1.8150785787,
				"y": 2.2469317626,
				"z": 0.3089783001,
				"element": "N" 
			},
			{
				"x": 3.3978158413,
				"y": -0.2442111581,
				"z": 4.7508962113,
				"element": "H" 
			},
			{
				"x": 2.4913789389,
				"y": -1.751195511,
				"z": 4.7648159071,
				"element": "H" 
			},
			{
				"x": 3.6187277441,
				"y": -1.4205910615,
				"z": 3.4264227971,
				"element": "H" 
			},
			{
				"x": 2.065178522,
				"y": -0.365386737,
				"z": -0.2980024679,
				"element": "H" 
			},
			{
				"x": -2.8200200282,
				"y": -0.6528996568,
				"z": -2.5521748558,
				"element": "H" 
			},
			{
				"x": 0.6153360003,
				"y": 0.9902604914,
				"z": -4.5147446373,
				"element": "H" 
			},
			{
				"x": -1.0067649419,
				"y": 1.5998367917,
				"z": 3.6244699595,
				"element": "H" 
			}
		],
		 "valence_orbital": [ 
			{
				"type": "occ",
				"energy": -0.31797,
				"method": "rhf"
			},
			{
				"type": "occ",
				"energy": -0.31584,
				"method": "rhf"
			},
			{
				"type": "occ",
				"energy": -0.31197,
				"method": "rhf"
			},
			{
				"type": "occ",
				"energy": -0.30574,
				"method": "rhf"
			},
			{
				"type": "occ",
				"energy": -0.2651,
				"method": "rhf"
			},
			{
				"type": "unocc",
				"energy": -0.1279,
				"method": "rhf"
			},
			{
				"type": "unocc",
				"energy": -0.11499,
				"method": "rhf"
			},
			{
				"type": "unocc",
				"energy": -0.08694,
				"method": "rhf"
			},
			{
				"type": "unocc",
				"energy": -0.08019,
				"method": "rhf"
			},
			{
				"type": "unocc",
				"energy": -0.06104,
				"method": "rhf"
			}
		],
		"cosmo_sigma_profile": { 
			"-0.025": 0.0,
			"-0.024": 0.0,
			"-0.023": 0.0,
			"-0.022": 0.0,
			"-0.021": 0.0,
			"-0.02": 0.0,
			"-0.019": 0.0,
			"-0.018": 0.0,
			"-0.017": 0.0,
			"-0.016": 0.0,
			"-0.015": 0.0,
			"-0.014": 0.0,
			"-0.013": 0.0,
			"-0.012": 0.436516691219,
			"-0.011": 3.31728620887,
			"-0.01": 3.85001691324,
			"-0.009": 4.51468320112,
			"-0.008": 6.23196162468,
			"-0.007": 14.9852408714,
			"-0.006": 22.0347333104,
			"-0.005": 27.9895618163,
			"-0.004": 32.0082908829,
			"-0.003": 29.2877294738,
			"-0.002": 23.2214685845,
			"-0.001": 20.5733465698,
			"0.0": 16.8085469365,
			"0.001": 27.1207251827,
			"0.002": 23.1321174411,
			"0.003": 9.46433914269,
			"0.004": 13.5594878464,
			"0.005": 11.5666244155,
			"0.006": 19.7730640591,
			"0.007": 19.4796672105,
			"0.008": 14.1246722379,
			"0.009": 11.3810989827,
			"0.01": 4.5501631363,
			"0.011": 4.94891741603,
			"0.012": 3.07357499027,
			"0.013": 0.325410245049,
			"0.014": 0.0,
			"0.015": 0.0,
			"0.016": 0.0,
			"0.017": 0.0,
			"0.018": 0.0,
			"0.019": 0.0,
			"0.02": 0.0,
			"0.021": 0.0,
			"0.022": 0.0,
			"0.023": 0.0,
			"0.024": 0.0,
			"0.025": 0.0
		}
	}
}
