{
	 "smiles": "OC(=O)CCN1C=C(Br)C=N1", 
	 "Tm": 386.15, 
	 "num_atms": 18, 
	 "gaussian": { 
		 "optdone": 1, 
		 "sigma_profile": "yes", 
		 "theory": "DFT", 
		 "functional": "B3LYP", 
		 "basiset": "6-31G**", 
		 "properties": { 
			 "R2extent": 4514.6474, 
			 "electric_dipole_moment_norm": 2.82570365219, 
			 "electric_quadrupole_moment_norm": 9.40007277365, 
			 "total_energy": -3064.19764686, 
			 "HOMO_LUMO_gap": 0.23772, 
			 "cosmo_polarized_energy": -14.25, 
			 "cosmo_cavitation_energy": 25.25, 
			 "cosmo_dispersion_energy": -18.79, 
			 "cosmo_repulsion_energy": 1.55, 
			 "cosmo_total_nonelectrostatic_energy": 8.02, 
			 "SMD_solvation_energy": 3.92 
		},
		"coords": [
			{
				"x": 3.2873002052,
				"y": 2.0169770531,
				"z": -0.9299471969,
				"element": "O" 
			},
			{
				"x": 2.3700624423,
				"y": 1.9358686161,
				"z": 0.0562928076,
				"element": "C" 
			},
			{
				"x": 2.6418062376,
				"y": 2.0726280303,
				"z": 1.2283158972,
				"element": "O" 
			},
			{
				"x": 0.9686796782,
				"y": 1.7385246472,
				"z": -0.4926641275,
				"element": "C" 
			},
			{
				"x": 0.077809523,
				"y": 0.9618980676,
				"z": 0.4750268298,
				"element": "C" 
			},
			{
				"x": 0.3205591161,
				"y": -0.4776231006,
				"z": 0.399466542,
				"element": "N" 
			},
			{
				"x": -0.5675300078,
				"y": -1.4759928289,
				"z": 0.6449938631,
				"element": "C" 
			},
			{
				"x": 0.1478055666,
				"y": -2.6543740124,
				"z": 0.5410094404,
				"element": "C" 
			},
			{
				"x": -0.5228703957,
				"y": -4.402487051,
				"z": 0.7496863894,
				"element": "Br" 
			},
			{
				"x": 1.4666118227,
				"y": -2.2683698178,
				"z": 0.2313637795,
				"element": "C" 
			},
			{
				"x": 1.5636214178,
				"y": -0.9417596987,
				"z": 0.15257276,
				"element": "N" 
			},
			{
				"x": 4.1423992509,
				"y": 2.1686370749,
				"z": -0.4929247903,
				"element": "H" 
			},
			{
				"x": 1.0112977844,
				"y": 1.2617233766,
				"z": -1.473459653,
				"element": "H" 
			},
			{
				"x": 0.5420641809,
				"y": 2.7402863005,
				"z": -0.6288191619,
				"element": "H" 
			},
			{
				"x": -0.9771997491,
				"y": 1.123158292,
				"z": 0.239693621,
				"element": "H" 
			},
			{
				"x": 0.2695415491,
				"y": 1.3141265624,
				"z": 1.4942171479,
				"element": "H" 
			},
			{
				"x": -1.6078764772,
				"y": -1.2916041658,
				"z": 0.8651685517,
				"element": "H" 
			},
			{
				"x": 2.3288178552,
				"y": -2.8967173454,
				"z": 0.0603072998,
				"element": "H" 
			}
		],
		 "valence_orbital": [ 
			{
				"type": "occ",
				"energy": -0.30806,
				"method": "rhf"
			},
			{
				"type": "occ",
				"energy": -0.28165,
				"method": "rhf"
			},
			{
				"type": "occ",
				"energy": -0.27912,
				"method": "rhf"
			},
			{
				"type": "occ",
				"energy": -0.26162,
				"method": "rhf"
			},
			{
				"type": "occ",
				"energy": -0.23537,
				"method": "rhf"
			},
			{
				"type": "unocc",
				"energy": 0.00235,
				"method": "rhf"
			},
			{
				"type": "unocc",
				"energy": 0.01215,
				"method": "rhf"
			},
			{
				"type": "unocc",
				"energy": 0.01812,
				"method": "rhf"
			},
			{
				"type": "unocc",
				"energy": 0.05593,
				"method": "rhf"
			},
			{
				"type": "unocc",
				"energy": 0.07789,
				"method": "rhf"
			}
		],
		"cosmo_sigma_profile": { 
			"-0.025": 0.0,
			"-0.024": 0.0,
			"-0.023": 0.0,
			"-0.022": 0.0,
			"-0.021": 0.0,
			"-0.02": 0.0,
			"-0.019": 0.0748232792227,
			"-0.018": 0.803991293952,
			"-0.017": 0.838966185266,
			"-0.016": 0.818099547516,
			"-0.015": 1.35150093246,
			"-0.014": 0.283498633697,
			"-0.013": 0.310547804469,
			"-0.012": 0.551938330645,
			"-0.011": 1.28026206524,
			"-0.01": 2.97490549237,
			"-0.009": 3.37316503708,
			"-0.008": 7.53862662462,
			"-0.007": 10.8270959397,
			"-0.006": 9.7571540781,
			"-0.005": 12.2785764553,
			"-0.004": 12.6892154354,
			"-0.003": 9.46419171246,
			"-0.002": 8.8440229208,
			"-0.001": 8.26697773185,
			"0.0": 9.16737873581,
			"0.001": 10.6952332539,
			"0.002": 13.2191829888,
			"0.003": 18.2332831182,
			"0.004": 17.5000987588,
			"0.005": 9.34659989566,
			"0.006": 5.13836534386,
			"0.007": 4.8449798313,
			"0.008": 4.32304557054,
			"0.009": 4.84559482401,
			"0.01": 5.75138630152,
			"0.011": 4.68028900809,
			"0.012": 4.08280288482,
			"0.013": 0.183887492587,
			"0.014": 0.0,
			"0.015": 0.0,
			"0.016": 0.0,
			"0.017": 0.0,
			"0.018": 0.0,
			"0.019": 0.0,
			"0.02": 0.0,
			"0.021": 0.0,
			"0.022": 0.0,
			"0.023": 0.0,
			"0.024": 0.0,
			"0.025": 0.0
		}
	}
}
