{
	 "smiles": "CC(=O)C1=CNC(=C1)C(O)=O", 
	 "Tm": 475.15, 
	 "num_atms": 18, 
	 "gaussian": { 
		 "optdone": 1, 
		 "sigma_profile": "yes", 
		 "theory": "DFT", 
		 "functional": "B3LYP", 
		 "basiset": "6-31G**", 
		 "properties": { 
			 "R2extent": 2373.7488, 
			 "electric_dipole_moment_norm": 2.90247667519, 
			 "electric_quadrupole_moment_norm": 27.9475091498, 
			 "total_energy": -551.386072519, 
			 "HOMO_LUMO_gap": 0.20273, 
			 "cosmo_polarized_energy": -23.49, 
			 "cosmo_cavitation_energy": 23.55, 
			 "cosmo_dispersion_energy": -16.99, 
			 "cosmo_repulsion_energy": 1.38, 
			 "cosmo_total_nonelectrostatic_energy": 7.94, 
			 "SMD_solvation_energy": 6.21 
		},
		"coords": [
			{
				"x": -1.7289179356,
				"y": 0.2673508111,
				"z": -2.2966762317,
				"element": "C" 
			},
			{
				"x": -1.2227220271,
				"y": 0.9440632716,
				"z": -1.036627575,
				"element": "C" 
			},
			{
				"x": -1.7750442215,
				"y": 1.9318729663,
				"z": -0.5716480361,
				"element": "O" 
			},
			{
				"x": -0.0267069567,
				"y": 0.3704365933,
				"z": -0.3815443553,
				"element": "C" 
			},
			{
				"x": 0.5446731763,
				"y": 0.9100775135,
				"z": 0.7668603747,
				"element": "C" 
			},
			{
				"x": 1.6040928055,
				"y": 0.1363563538,
				"z": 1.1199945766,
				"element": "N" 
			},
			{
				"x": 1.763495872,
				"y": -0.8943301727,
				"z": 0.1954388445,
				"element": "C" 
			},
			{
				"x": 0.7575515787,
				"y": -0.7622015683,
				"z": -0.7415025519,
				"element": "C" 
			},
			{
				"x": 2.8178976497,
				"y": -1.9153612269,
				"z": 0.2727980167,
				"element": "C" 
			},
			{
				"x": 3.4095436809,
				"y": -2.0717141993,
				"z": 1.5019587624,
				"element": "O" 
			},
			{
				"x": 3.1790318006,
				"y": -2.5808355994,
				"z": -0.6673833552,
				"element": "O" 
			},
			{
				"x": -0.9517527611,
				"y": 0.257229487,
				"z": -3.0693269115,
				"element": "H" 
			},
			{
				"x": -1.9969028217,
				"y": -0.7759061307,
				"z": -2.0940553868,
				"element": "H" 
			},
			{
				"x": -2.6039142508,
				"y": 0.8033130485,
				"z": -2.6656574204,
				"element": "H" 
			},
			{
				"x": 0.2557691564,
				"y": 1.7889349339,
				"z": 1.3230359691,
				"element": "H" 
			},
			{
				"x": 2.2853178111,
				"y": 0.3893554096,
				"z": 1.8207918211,
				"element": "H" 
			},
			{
				"x": 0.6090441483,
				"y": -1.4344759882,
				"z": -1.5737265827,
				"element": "H" 
			},
			{
				"x": 2.812843295,
				"y": -1.7658655032,
				"z": 2.1998700414,
				"element": "H" 
			}
		],
		 "valence_orbital": [ 
			{
				"type": "occ",
				"energy": -0.32721,
				"method": "rhf"
			},
			{
				"type": "occ",
				"energy": -0.28558,
				"method": "rhf"
			},
			{
				"type": "occ",
				"energy": -0.27936,
				"method": "rhf"
			},
			{
				"type": "occ",
				"energy": -0.25053,
				"method": "rhf"
			},
			{
				"type": "occ",
				"energy": -0.24725,
				"method": "rhf"
			},
			{
				"type": "unocc",
				"energy": -0.04452,
				"method": "rhf"
			},
			{
				"type": "unocc",
				"energy": -0.04258,
				"method": "rhf"
			},
			{
				"type": "unocc",
				"energy": 0.02643,
				"method": "rhf"
			},
			{
				"type": "unocc",
				"energy": 0.07098,
				"method": "rhf"
			},
			{
				"type": "unocc",
				"energy": 0.08497,
				"method": "rhf"
			}
		],
		"cosmo_sigma_profile": { 
			"-0.025": 0.0,
			"-0.024": 0.0,
			"-0.023": 0.0,
			"-0.022": 0.0,
			"-0.021": 0.0,
			"-0.02": 0.732578799255,
			"-0.019": 1.77339817696,
			"-0.018": 2.53951373632,
			"-0.017": 2.15665282193,
			"-0.016": 1.7677252,
			"-0.015": 1.6429234128,
			"-0.014": 1.66835157415,
			"-0.013": 2.32106043542,
			"-0.012": 1.40501019106,
			"-0.011": 1.01309048045,
			"-0.01": 2.72242144166,
			"-0.009": 3.38516458446,
			"-0.008": 2.87520926974,
			"-0.007": 4.26641460096,
			"-0.006": 8.23552103878,
			"-0.005": 10.4985476804,
			"-0.004": 9.0021228804,
			"-0.003": 9.69011044084,
			"-0.002": 10.9146801879,
			"-0.001": 13.0847713689,
			"0.0": 10.5442507009,
			"0.001": 9.01714952658,
			"0.002": 10.9706469527,
			"0.003": 8.90424499082,
			"0.004": 5.38784410558,
			"0.005": 3.70945695556,
			"0.006": 4.76916135903,
			"0.007": 3.76779092116,
			"0.008": 3.99138863335,
			"0.009": 4.89966049694,
			"0.01": 6.2305409927,
			"0.011": 8.74788283461,
			"0.012": 9.39551964081,
			"0.013": 4.85821020629,
			"0.014": 0.794994261432,
			"0.015": 0.0,
			"0.016": 0.0,
			"0.017": 0.0,
			"0.018": 0.0,
			"0.019": 0.0,
			"0.02": 0.0,
			"0.021": 0.0,
			"0.022": 0.0,
			"0.023": 0.0,
			"0.024": 0.0,
			"0.025": 0.0
		}
	}
}
