{
	 "smiles": "CC1=C(NC2=NC(Cl)=C(S2)C=O)C=CC=C1", 
	 "Tm": 427.15, 
	 "num_atms": 25, 
	 "gaussian": { 
		 "optdone": 1, 
		 "sigma_profile": "yes", 
		 "theory": "DFT", 
		 "functional": "B3LYP", 
		 "basiset": "6-31G**", 
		 "properties": { 
			 "R2extent": 6803.1809, 
			 "electric_dipole_moment_norm": 4.66822824742, 
			 "electric_quadrupole_moment_norm": 15.1060434472, 
			 "total_energy": -1467.69304532, 
			 "HOMO_LUMO_gap": 0.14316, 
			 "cosmo_polarized_energy": -13.02, 
			 "cosmo_cavitation_energy": 33.18, 
			 "cosmo_dispersion_energy": -24.65, 
			 "cosmo_repulsion_energy": 1.87, 
			 "cosmo_total_nonelectrostatic_energy": 10.39, 
			 "SMD_solvation_energy": 5.1 
		},
		"coords": [
			{
				"x": -3.4800120279,
				"y": 0.738467314,
				"z": 0.1611128433,
				"element": "C" 
			},
			{
				"x": -3.0629381932,
				"y": -0.5905569009,
				"z": -0.426207211,
				"element": "C" 
			},
			{
				"x": -1.8332676094,
				"y": -1.2008763041,
				"z": -0.0821877962,
				"element": "C" 
			},
			{
				"x": -1.0127741401,
				"y": -0.5053961453,
				"z": 0.8394602767,
				"element": "N" 
			},
			{
				"x": 0.201815291,
				"y": -0.8245560806,
				"z": 1.3557007054,
				"element": "C" 
			},
			{
				"x": 0.892521377,
				"y": -1.9149638022,
				"z": 1.079726666,
				"element": "N" 
			},
			{
				"x": 2.0548292739,
				"y": -1.9050814192,
				"z": 1.7714977579,
				"element": "C" 
			},
			{
				"x": 3.1351741751,
				"y": -3.2503110399,
				"z": 1.565308402,
				"element": "Cl" 
			},
			{
				"x": 2.3213808843,
				"y": -0.8357687946,
				"z": 2.5986900625,
				"element": "C" 
			},
			{
				"x": 0.9660845182,
				"y": 0.2853497057,
				"z": 2.5020369823,
				"element": "S" 
			},
			{
				"x": 3.4570007586,
				"y": -0.5452499637,
				"z": 3.4504630001,
				"element": "C" 
			},
			{
				"x": 3.5478552349,
				"y": 0.4631069189,
				"z": 4.1359615758,
				"element": "O" 
			},
			{
				"x": -1.468492786,
				"y": -2.433680365,
				"z": -0.6399963885,
				"element": "C" 
			},
			{
				"x": -2.3255953134,
				"y": -3.0631897721,
				"z": -1.5417147205,
				"element": "C" 
			},
			{
				"x": -3.5404647575,
				"y": -2.4793319655,
				"z": -1.8936030965,
				"element": "C" 
			},
			{
				"x": -3.8944427292,
				"y": -1.2519200369,
				"z": -1.332734513,
				"element": "C" 
			},
			{
				"x": -3.5702978306,
				"y": 0.7014750175,
				"z": 1.2554118405,
				"element": "H" 
			},
			{
				"x": -2.7759853556,
				"y": 1.5443311043,
				"z": -0.0877771067,
				"element": "H" 
			},
			{
				"x": -4.4554922645,
				"y": 1.0392909328,
				"z": -0.226967993,
				"element": "H" 
			},
			{
				"x": -1.3932661697,
				"y": 0.3707921469,
				"z": 1.1640912231,
				"element": "H" 
			},
			{
				"x": 4.2524362364,
				"y": -1.315781078,
				"z": 3.4366468697,
				"element": "H" 
			},
			{
				"x": -0.5254745462,
				"y": -2.883981551,
				"z": -0.3649071278,
				"element": "H" 
			},
			{
				"x": -2.0324850631,
				"y": -4.0181610688,
				"z": -1.9675914059,
				"element": "H" 
			},
			{
				"x": -4.2072889877,
				"y": -2.9700429054,
				"z": -2.5957162991,
				"element": "H" 
			},
			{
				"x": -4.8403199754,
				"y": -0.7888639468,
				"z": -1.6014045471,
				"element": "H" 
			}
		],
		 "valence_orbital": [ 
			{
				"type": "occ",
				"energy": -0.29718,
				"method": "rhf"
			},
			{
				"type": "occ",
				"energy": -0.263,
				"method": "rhf"
			},
			{
				"type": "occ",
				"energy": -0.25649,
				"method": "rhf"
			},
			{
				"type": "occ",
				"energy": -0.25567,
				"method": "rhf"
			},
			{
				"type": "occ",
				"energy": -0.21719,
				"method": "rhf"
			},
			{
				"type": "unocc",
				"energy": -0.07403,
				"method": "rhf"
			},
			{
				"type": "unocc",
				"energy": -0.02209,
				"method": "rhf"
			},
			{
				"type": "unocc",
				"energy": -0.01616,
				"method": "rhf"
			},
			{
				"type": "unocc",
				"energy": -0.0085,
				"method": "rhf"
			},
			{
				"type": "unocc",
				"energy": 0.02662,
				"method": "rhf"
			}
		],
		"cosmo_sigma_profile": { 
			"-0.025": 0.0,
			"-0.024": 0.0,
			"-0.023": 0.0,
			"-0.022": 0.0,
			"-0.021": 0.0,
			"-0.02": 0.0,
			"-0.019": 0.0,
			"-0.018": 0.0,
			"-0.017": 0.0,
			"-0.016": 0.652258291651,
			"-0.015": 1.09839517684,
			"-0.014": 1.03361930253,
			"-0.013": 1.31831010416,
			"-0.012": 1.04670186864,
			"-0.011": 1.60620870377,
			"-0.01": 1.42936110114,
			"-0.009": 1.5657840309,
			"-0.008": 1.57902198699,
			"-0.007": 3.93727176685,
			"-0.006": 8.51155171118,
			"-0.005": 14.8137312679,
			"-0.004": 18.1717187195,
			"-0.003": 21.1288138575,
			"-0.002": 22.3708687572,
			"-0.001": 26.8366959824,
			"0.0": 23.2551719506,
			"0.001": 21.4056694137,
			"0.002": 23.2822870145,
			"0.003": 21.7012139305,
			"0.004": 15.1372805575,
			"0.005": 13.9407886959,
			"0.006": 8.33146052995,
			"0.007": 2.18852167455,
			"0.008": 1.69777586546,
			"0.009": 2.07443639892,
			"0.01": 2.51203841174,
			"0.011": 4.13634355471,
			"0.012": 3.25251668027,
			"0.013": 1.2392345885,
			"0.014": 0.0271633580246,
			"0.015": 0.0,
			"0.016": 0.0,
			"0.017": 0.0,
			"0.018": 0.0,
			"0.019": 0.0,
			"0.02": 0.0,
			"0.021": 0.0,
			"0.022": 0.0,
			"0.023": 0.0,
			"0.024": 0.0,
			"0.025": 0.0
		}
	}
}
