{
	 "smiles": "CNCC1=NN(C)C2=CC=CC=C12", 
	 "Tm": 311.65, 
	 "num_atms": 26, 
	 "gaussian": { 
		 "optdone": 1, 
		 "sigma_profile": "yes", 
		 "theory": "DFT", 
		 "functional": "B3LYP", 
		 "basiset": "6-31G**", 
		 "properties": { 
			 "R2extent": 3055.6385, 
			 "electric_dipole_moment_norm": 2.608073239, 
			 "electric_quadrupole_moment_norm": 8.12974400335, 
			 "total_energy": -553.135350277, 
			 "HOMO_LUMO_gap": 0.18068, 
			 "cosmo_polarized_energy": -9.52, 
			 "cosmo_cavitation_energy": 29.15, 
			 "cosmo_dispersion_energy": -20.71, 
			 "cosmo_repulsion_energy": 1.65, 
			 "cosmo_total_nonelectrostatic_energy": 10.09, 
			 "SMD_solvation_energy": 1.47 
		},
		"coords": [
			{
				"x": 2.5299387291,
				"y": 2.2199929473,
				"z": 3.3001789819,
				"element": "C" 
			},
			{
				"x": 3.2133349946,
				"y": 2.2818455806,
				"z": 2.0103680071,
				"element": "N" 
			},
			{
				"x": 2.3367831744,
				"y": 2.6387601746,
				"z": 0.8861804957,
				"element": "C" 
			},
			{
				"x": 1.2410958808,
				"y": 1.6545363522,
				"z": 0.56354225,
				"element": "C" 
			},
			{
				"x": -0.0060774876,
				"y": 1.8573391076,
				"z": 0.9635567222,
				"element": "N" 
			},
			{
				"x": -0.7365066868,
				"y": 0.7764173955,
				"z": 0.5646764668,
				"element": "N" 
			},
			{
				"x": -2.1553282445,
				"y": 0.7153279744,
				"z": 0.8396186322,
				"element": "C" 
			},
			{
				"x": 0.0365446952,
				"y": -0.1369149084,
				"z": -0.0991426986,
				"element": "C" 
			},
			{
				"x": -0.2784366169,
				"y": -1.3743706703,
				"z": -0.6854351443,
				"element": "C" 
			},
			{
				"x": 0.7587378338,
				"y": -2.0631716006,
				"z": -1.2968281106,
				"element": "C" 
			},
			{
				"x": 2.0749585674,
				"y": -1.5455624172,
				"z": -1.3338668173,
				"element": "C" 
			},
			{
				"x": 2.3796942339,
				"y": -0.3233134346,
				"z": -0.7541134838,
				"element": "C" 
			},
			{
				"x": 1.3495104508,
				"y": 0.3980426268,
				"z": -0.1231385133,
				"element": "C" 
			},
			{
				"x": 1.6674620938,
				"y": 1.5347397367,
				"z": 3.337604831,
				"element": "H" 
			},
			{
				"x": 2.1646943631,
				"y": 3.2199865351,
				"z": 3.560625965,
				"element": "H" 
			},
			{
				"x": 3.2467246411,
				"y": 1.9171070799,
				"z": 4.0698592258,
				"element": "H" 
			},
			{
				"x": 3.6503120581,
				"y": 1.3834504104,
				"z": 1.8188106413,
				"element": "H" 
			},
			{
				"x": 1.8759568288,
				"y": 3.6066180512,
				"z": 1.1107451975,
				"element": "H" 
			},
			{
				"x": 2.9710190041,
				"y": 2.7782318719,
				"z": 0.0022707137,
				"element": "H" 
			},
			{
				"x": -2.7386594315,
				"y": 0.6957960094,
				"z": -0.0880933374,
				"element": "H" 
			},
			{
				"x": -2.4029098961,
				"y": -0.1723379488,
				"z": 1.4324131603,
				"element": "H" 
			},
			{
				"x": -2.4143446039,
				"y": 1.6088219797,
				"z": 1.406851537,
				"element": "H" 
			},
			{
				"x": -1.2865039765,
				"y": -1.7763755706,
				"z": -0.6637426077,
				"element": "H" 
			},
			{
				"x": 0.5563449304,
				"y": -3.023817114,
				"z": -1.761742282,
				"element": "H" 
			},
			{
				"x": 2.8543473385,
				"y": -2.1186575256,
				"z": -1.8269067146,
				"element": "H" 
			},
			{
				"x": 3.3924071258,
				"y": 0.0688073568,
				"z": -0.7919931178,
				"element": "H" 
			}
		],
		 "valence_orbital": [ 
			{
				"type": "occ",
				"energy": -0.28765,
				"method": "rhf"
			},
			{
				"type": "occ",
				"energy": -0.28,
				"method": "rhf"
			},
			{
				"type": "occ",
				"energy": -0.23824,
				"method": "rhf"
			},
			{
				"type": "occ",
				"energy": -0.21902,
				"method": "rhf"
			},
			{
				"type": "occ",
				"energy": -0.20681,
				"method": "rhf"
			},
			{
				"type": "unocc",
				"energy": -0.02613,
				"method": "rhf"
			},
			{
				"type": "unocc",
				"energy": 0.01791,
				"method": "rhf"
			},
			{
				"type": "unocc",
				"energy": 0.0545,
				"method": "rhf"
			},
			{
				"type": "unocc",
				"energy": 0.08833,
				"method": "rhf"
			},
			{
				"type": "unocc",
				"energy": 0.09746,
				"method": "rhf"
			}
		],
		"cosmo_sigma_profile": { 
			"-0.025": 0.0,
			"-0.024": 0.0,
			"-0.023": 0.0,
			"-0.022": 0.0,
			"-0.021": 0.0,
			"-0.02": 0.0,
			"-0.019": 0.0,
			"-0.018": 0.0,
			"-0.017": 0.0,
			"-0.016": 0.0,
			"-0.015": 0.0,
			"-0.014": 0.0,
			"-0.013": 0.0,
			"-0.012": 0.0,
			"-0.011": 0.0,
			"-0.01": 0.0317795649089,
			"-0.009": 0.803195806005,
			"-0.008": 1.14261318908,
			"-0.007": 2.82020317611,
			"-0.006": 11.8306079854,
			"-0.005": 20.444785058,
			"-0.004": 22.5972375501,
			"-0.003": 26.0238976656,
			"-0.002": 19.7008385643,
			"-0.001": 16.8396417631,
			"0.0": 17.9073033873,
			"0.001": 13.0443416237,
			"0.002": 12.480325774,
			"0.003": 14.1324436232,
			"0.004": 12.6447653498,
			"0.005": 13.3124765469,
			"0.006": 8.03795036851,
			"0.007": 2.48646420916,
			"0.008": 1.60875114556,
			"0.009": 1.88385855465,
			"0.01": 2.1136946927,
			"0.011": 1.16863118332,
			"0.012": 1.90570814199,
			"0.013": 1.04754701458,
			"0.014": 1.59286786808,
			"0.015": 1.07843490922,
			"0.016": 0.461176198107,
			"0.017": 0.776219779592,
			"0.018": 0.424669595986,
			"0.019": 0.0633810350238,
			"0.02": 0.0,
			"0.021": 0.0,
			"0.022": 0.0,
			"0.023": 0.0,
			"0.024": 0.0,
			"0.025": 0.0
		}
	}
}
