{
	 "smiles": "OC(=O)CC1CCCCC1", 
	 "Tm": 306.15, 
	 "num_atms": 24, 
	 "gaussian": { 
		 "optdone": 1, 
		 "sigma_profile": "yes", 
		 "theory": "DFT", 
		 "functional": "B3LYP", 
		 "basiset": "6-31G**", 
		 "properties": { 
			 "R2extent": 2152.4243, 
			 "electric_dipole_moment_norm": 3.95933116321, 
			 "electric_quadrupole_moment_norm": 15.7349226595, 
			 "total_energy": -463.756612325, 
			 "HOMO_LUMO_gap": 0.27936, 
			 "cosmo_polarized_energy": -12.93, 
			 "cosmo_cavitation_energy": 24.98, 
			 "cosmo_dispersion_energy": -18.44, 
			 "cosmo_repulsion_energy": 1.51, 
			 "cosmo_total_nonelectrostatic_energy": 8.05, 
			 "SMD_solvation_energy": 4.48 
		},
		"coords": [
			{
				"x": 0.7016506332,
				"y": 1.1512031405,
				"z": 3.9571096657,
				"element": "O" 
			},
			{
				"x": 0.4052066542,
				"y": 1.6097354046,
				"z": 2.708646187,
				"element": "C" 
			},
			{
				"x": -0.4047500606,
				"y": 2.4926719349,
				"z": 2.5738117857,
				"element": "O" 
			},
			{
				"x": 1.1913562996,
				"y": 0.9601589837,
				"z": 1.5745921862,
				"element": "C" 
			},
			{
				"x": 0.6662620714,
				"y": 1.3074574587,
				"z": 0.1735864386,
				"element": "C" 
			},
			{
				"x": 1.6411160251,
				"y": 0.819795227,
				"z": -0.9360592924,
				"element": "C" 
			},
			{
				"x": 1.2240404252,
				"y": -0.5410113304,
				"z": -1.5114951676,
				"element": "C" 
			},
			{
				"x": -0.1515454793,
				"y": -0.4494648622,
				"z": -2.2130743145,
				"element": "C" 
			},
			{
				"x": -1.0737717871,
				"y": 0.5991069516,
				"z": -1.5448729679,
				"element": "C" 
			},
			{
				"x": -0.7611839238,
				"y": 0.7455334032,
				"z": -0.0502387222,
				"element": "C" 
			},
			{
				"x": 1.3616352945,
				"y": 0.4455148243,
				"z": 3.9036449532,
				"element": "H" 
			},
			{
				"x": 1.2036123502,
				"y": -0.1297243184,
				"z": 1.722338091,
				"element": "H" 
			},
			{
				"x": 2.2340297768,
				"y": 1.293765047,
				"z": 1.6826336604,
				"element": "H" 
			},
			{
				"x": 0.6052763466,
				"y": 2.4008397527,
				"z": 0.1253847736,
				"element": "H" 
			},
			{
				"x": 1.6585350115,
				"y": 1.5545664204,
				"z": -1.7505983593,
				"element": "H" 
			},
			{
				"x": 2.6669381581,
				"y": 0.7765511471,
				"z": -0.5495025893,
				"element": "H" 
			},
			{
				"x": 1.1787344008,
				"y": -1.2774084828,
				"z": -0.6981609337,
				"element": "H" 
			},
			{
				"x": 1.9831922301,
				"y": -0.9109785174,
				"z": -2.2096497404,
				"element": "H" 
			},
			{
				"x": -0.0129916435,
				"y": -0.1933439137,
				"z": -3.2702592239,
				"element": "H" 
			},
			{
				"x": -0.6318951436,
				"y": -1.4350924305,
				"z": -2.1975074894,
				"element": "H" 
			},
			{
				"x": -0.9431665819,
				"y": 1.5756368359,
				"z": -2.0292448576,
				"element": "H" 
			},
			{
				"x": -2.1249152728,
				"y": 0.3278311879,
				"z": -1.6917952904,
				"element": "H" 
			},
			{
				"x": -1.4866484879,
				"y": 1.3950182728,
				"z": 0.4457929035,
				"element": "H" 
			},
			{
				"x": -0.8504172968,
				"y": -0.2409621369,
				"z": 0.4287183037,
				"element": "H" 
			}
		],
		 "valence_orbital": [ 
			{
				"type": "occ",
				"energy": -0.31534,
				"method": "rhf"
			},
			{
				"type": "occ",
				"energy": -0.30275,
				"method": "rhf"
			},
			{
				"type": "occ",
				"energy": -0.29901,
				"method": "rhf"
			},
			{
				"type": "occ",
				"energy": -0.29766,
				"method": "rhf"
			},
			{
				"type": "occ",
				"energy": -0.26877,
				"method": "rhf"
			},
			{
				"type": "unocc",
				"energy": 0.01059,
				"method": "rhf"
			},
			{
				"type": "unocc",
				"energy": 0.05573,
				"method": "rhf"
			},
			{
				"type": "unocc",
				"energy": 0.07338,
				"method": "rhf"
			},
			{
				"type": "unocc",
				"energy": 0.09485,
				"method": "rhf"
			},
			{
				"type": "unocc",
				"energy": 0.11672,
				"method": "rhf"
			}
		],
		"cosmo_sigma_profile": { 
			"-0.025": 0.0,
			"-0.024": 0.0,
			"-0.023": 0.0,
			"-0.022": 0.0,
			"-0.021": 0.0,
			"-0.02": 0.0,
			"-0.019": 0.260263390164,
			"-0.018": 1.12148791698,
			"-0.017": 0.852404342307,
			"-0.016": 0.914873006412,
			"-0.015": 1.59081108375,
			"-0.014": 0.554781114783,
			"-0.013": 0.942974043056,
			"-0.012": 1.37217203699,
			"-0.011": 1.03314979491,
			"-0.01": 1.29917168205,
			"-0.009": 1.24177277149,
			"-0.008": 1.33643631064,
			"-0.007": 3.00043297907,
			"-0.006": 3.24443901165,
			"-0.005": 4.5854006845,
			"-0.004": 6.0739670206,
			"-0.003": 10.1616406783,
			"-0.002": 23.436442384,
			"-0.001": 29.7664292436,
			"0.0": 29.2096246394,
			"0.001": 24.8242302133,
			"0.002": 10.0369500846,
			"0.003": 2.28783845245,
			"0.004": 1.97140278126,
			"0.005": 3.16670980425,
			"0.006": 1.93308623996,
			"0.007": 2.35223379373,
			"0.008": 3.65086966537,
			"0.009": 2.80102509488,
			"0.01": 3.83604729779,
			"0.011": 5.71330914499,
			"0.012": 5.05564263824,
			"0.013": 2.50315522474,
			"0.014": 0.232994898824,
			"0.015": 0.0,
			"0.016": 0.0,
			"0.017": 0.0,
			"0.018": 0.0,
			"0.019": 0.0,
			"0.02": 0.0,
			"0.021": 0.0,
			"0.022": 0.0,
			"0.023": 0.0,
			"0.024": 0.0,
			"0.025": 0.0
		}
	}
}
