{
	 "smiles": "FC1=CC=C(C=C1)C(=O)C1CCN(CCN2C(=O)NC3=CC=CC=C3C2=O)CC1", 
	 "Tm": 504.15, 
	 "num_atms": 51, 
	 "gaussian": { 
		 "optdone": 1, 
		 "sigma_profile": "yes", 
		 "theory": "DFT", 
		 "functional": "B3LYP", 
		 "basiset": "6-31G**", 
		 "properties": { 
			 "R2extent": 10476.0267, 
			 "electric_dipole_moment_norm": 2.04648330069, 
			 "electric_quadrupole_moment_norm": 23.2373879842, 
			 "total_energy": -1341.41327768, 
			 "HOMO_LUMO_gap": 0.15171, 
			 "cosmo_polarized_energy": -20.59, 
			 "cosmo_cavitation_energy": 52.47, 
			 "cosmo_dispersion_energy": -33.21, 
			 "cosmo_repulsion_energy": 2.39, 
			 "cosmo_total_nonelectrostatic_energy": 21.65, 
			 "SMD_solvation_energy": 8.66 
		},
		"coords": [
			{
				"x": 3.3606998441,
				"y": 2.3663799102,
				"z": -4.2249379608,
				"element": "F" 
			},
			{
				"x": 2.5966807095,
				"y": 2.3538384104,
				"z": -3.1151459601,
				"element": "C" 
			},
			{
				"x": 3.217363616,
				"y": 2.3740233575,
				"z": -1.870963631,
				"element": "C" 
			},
			{
				"x": 2.4207299652,
				"y": 2.3566465688,
				"z": -0.7274498202,
				"element": "C" 
			},
			{
				"x": 1.0201318755,
				"y": 2.3239294456,
				"z": -0.8243950391,
				"element": "C" 
			},
			{
				"x": 0.4320271125,
				"y": 2.3096084827,
				"z": -2.1003385594,
				"element": "C" 
			},
			{
				"x": 1.2113071764,
				"y": 2.3212282123,
				"z": -3.2511728985,
				"element": "C" 
			},
			{
				"x": 0.1011918823,
				"y": 2.3454005776,
				"z": 0.3667111821,
				"element": "C" 
			},
			{
				"x": -1.1005462308,
				"y": 2.4965677924,
				"z": 0.1956531979,
				"element": "O" 
			},
			{
				"x": 0.6993379345,
				"y": 2.233041584,
				"z": 1.7718126204,
				"element": "C" 
			},
			{
				"x": 1.4118355301,
				"y": 0.8632848054,
				"z": 2.0244253215,
				"element": "C" 
			},
			{
				"x": 0.568857738,
				"y": -0.0633829928,
				"z": 2.9164770182,
				"element": "C" 
			},
			{
				"x": -0.8357912407,
				"y": 0.0645617544,
				"z": 2.5407972347,
				"element": "N" 
			},
			{
				"x": -1.6857033065,
				"y": -1.0449029822,
				"z": 2.9445610475,
				"element": "C" 
			},
			{
				"x": -1.4773302919,
				"y": -2.3269058445,
				"z": 2.1273152296,
				"element": "C" 
			},
			{
				"x": -1.7099066992,
				"y": -2.1313290321,
				"z": 0.6872840539,
				"element": "N" 
			},
			{
				"x": -3.045030518,
				"y": -2.0734479227,
				"z": 0.27636335,
				"element": "C" 
			},
			{
				"x": -3.9837467609,
				"y": -2.2084117688,
				"z": 1.0469978517,
				"element": "O" 
			},
			{
				"x": -3.242576323,
				"y": -1.8611729885,
				"z": -1.0749213991,
				"element": "N" 
			},
			{
				"x": -2.240469113,
				"y": -1.6962869947,
				"z": -2.016471797,
				"element": "C" 
			},
			{
				"x": -2.5318508138,
				"y": -1.4861403144,
				"z": -3.3724586909,
				"element": "C" 
			},
			{
				"x": -1.4881822619,
				"y": -1.3358201279,
				"z": -4.2781355945,
				"element": "C" 
			},
			{
				"x": -0.1520846717,
				"y": -1.3895370541,
				"z": -3.8542272017,
				"element": "C" 
			},
			{
				"x": 0.1319628179,
				"y": -1.5946579002,
				"z": -2.5104842065,
				"element": "C" 
			},
			{
				"x": -0.9060489576,
				"y": -1.7498901181,
				"z": -1.5823802733,
				"element": "C" 
			},
			{
				"x": -0.598704802,
				"y": -1.9726267261,
				"z": -0.1567947135,
				"element": "C" 
			},
			{
				"x": 0.5454816369,
				"y": -2.0400006667,
				"z": 0.2774482351,
				"element": "O" 
			},
			{
				"x": -1.3891377184,
				"y": 1.3514852169,
				"z": 2.9845444303,
				"element": "C" 
			},
			{
				"x": -0.3576459802,
				"y": 2.4917483741,
				"z": 2.8566278036,
				"element": "C" 
			},
			{
				"x": 4.299859611,
				"y": 2.4028988407,
				"z": -1.8122864861,
				"element": "H" 
			},
			{
				"x": 2.9055413068,
				"y": 2.3727957114,
				"z": 0.2422722463,
				"element": "H" 
			},
			{
				"x": -0.6504999466,
				"y": 2.2927402445,
				"z": -2.1615524085,
				"element": "H" 
			},
			{
				"x": 0.7701821904,
				"y": 2.307029336,
				"z": -4.2418927519,
				"element": "H" 
			},
			{
				"x": 1.4527251489,
				"y": 3.0298996161,
				"z": 1.8371454064,
				"element": "H" 
			},
			{
				"x": 2.3902382953,
				"y": 1.0283682555,
				"z": 2.4910914271,
				"element": "H" 
			},
			{
				"x": 1.5881138253,
				"y": 0.3454016566,
				"z": 1.0783911078,
				"element": "H" 
			},
			{
				"x": 0.8973434844,
				"y": -1.0910083177,
				"z": 2.7495438743,
				"element": "H" 
			},
			{
				"x": 0.7289447436,
				"y": 0.1595762715,
				"z": 3.990325352,
				"element": "H" 
			},
			{
				"x": -1.5627743794,
				"y": -1.3063822716,
				"z": 4.0152754455,
				"element": "H" 
			},
			{
				"x": -2.7276031525,
				"y": -0.7359127082,
				"z": 2.818416493,
				"element": "H" 
			},
			{
				"x": -2.1831561239,
				"y": -3.0823598323,
				"z": 2.4778183166,
				"element": "H" 
			},
			{
				"x": -0.4634853704,
				"y": -2.712882415,
				"z": 2.2224334086,
				"element": "H" 
			},
			{
				"x": -4.2149121253,
				"y": -1.8139498334,
				"z": -1.3450798734,
				"element": "H" 
			},
			{
				"x": -3.5655942307,
				"y": -1.4446527377,
				"z": -3.7040261427,
				"element": "H" 
			},
			{
				"x": -1.716981156,
				"y": -1.1759006241,
				"z": -5.3278567003,
				"element": "H" 
			},
			{
				"x": 0.6529439835,
				"y": -1.2706893069,
				"z": -4.5718502012,
				"element": "H" 
			},
			{
				"x": 1.1506235288,
				"y": -1.6404962813,
				"z": -2.1413521,
				"element": "H" 
			},
			{
				"x": -1.7227148249,
				"y": 1.2994701936,
				"z": 4.0396048922,
				"element": "H" 
			},
			{
				"x": -2.2662963595,
				"y": 1.5705267557,
				"z": 2.3696783885,
				"element": "H" 
			},
			{
				"x": -0.8822739652,
				"y": 3.4303215005,
				"z": 2.6576510821,
				"element": "H" 
			},
			{
				"x": 0.1720233672,
				"y": 2.6185748871,
				"z": 3.8076083928,
				"element": "H" 
			}
		],
		 "valence_orbital": [ 
			{
				"type": "occ",
				"energy": -0.26273,
				"method": "rhf"
			},
			{
				"type": "occ",
				"energy": -0.25106,
				"method": "rhf"
			},
			{
				"type": "occ",
				"energy": -0.24146,
				"method": "rhf"
			},
			{
				"type": "occ",
				"energy": -0.23346,
				"method": "rhf"
			},
			{
				"type": "occ",
				"energy": -0.20245,
				"method": "rhf"
			},
			{
				"type": "unocc",
				"energy": -0.05074,
				"method": "rhf"
			},
			{
				"type": "unocc",
				"energy": -0.04834,
				"method": "rhf"
			},
			{
				"type": "unocc",
				"energy": -0.01894,
				"method": "rhf"
			},
			{
				"type": "unocc",
				"energy": -0.01399,
				"method": "rhf"
			},
			{
				"type": "unocc",
				"energy": 0.02403,
				"method": "rhf"
			}
		],
		"cosmo_sigma_profile": { 
			"-0.025": 0.0,
			"-0.024": 0.0,
			"-0.023": 0.0,
			"-0.022": 0.0,
			"-0.021": 0.0,
			"-0.02": 0.0,
			"-0.019": 0.0,
			"-0.018": 0.0,
			"-0.017": 0.136311556663,
			"-0.016": 0.927656268394,
			"-0.015": 1.4513101021,
			"-0.014": 1.27334479773,
			"-0.013": 0.946589878554,
			"-0.012": 1.04844021512,
			"-0.011": 1.10102639591,
			"-0.01": 1.2528962697,
			"-0.009": 1.31050043615,
			"-0.008": 3.38487975442,
			"-0.007": 10.2940808937,
			"-0.006": 15.2454381695,
			"-0.005": 22.6681019556,
			"-0.004": 23.2388078244,
			"-0.003": 32.5394430737,
			"-0.002": 44.1251473047,
			"-0.001": 45.3029131256,
			"0.0": 41.7306207248,
			"0.001": 31.7527514979,
			"0.002": 33.7011169801,
			"0.003": 28.8899460305,
			"0.004": 20.0605060538,
			"0.005": 6.41759715139,
			"0.006": 6.74187802328,
			"0.007": 5.29858466761,
			"0.008": 4.3251893174,
			"0.009": 5.74337176043,
			"0.01": 5.39157657554,
			"0.011": 6.35254765518,
			"0.012": 8.43386713151,
			"0.013": 4.59075719106,
			"0.014": 0.15765106556,
			"0.015": 0.0,
			"0.016": 0.0,
			"0.017": 0.0,
			"0.018": 0.0,
			"0.019": 0.0,
			"0.02": 0.0,
			"0.021": 0.0,
			"0.022": 0.0,
			"0.023": 0.0,
			"0.024": 0.0,
			"0.025": 0.0
		}
	}
}
