{
	 "smiles": "OC(=O)C1(CC(=O)NC2CC2)CCCCC1", 
	 "Tm": 425.15, 
	 "num_atms": 35, 
	 "gaussian": { 
		 "optdone": 1, 
		 "sigma_profile": "yes", 
		 "theory": "DFT", 
		 "functional": "B3LYP", 
		 "basiset": "6-31G**", 
		 "properties": { 
			 "R2extent": 5411.2454, 
			 "electric_dipole_moment_norm": 7.78548680109, 
			 "electric_quadrupole_moment_norm": 16.3492010994, 
			 "total_energy": -749.170739168, 
			 "HOMO_LUMO_gap": 0.23432, 
			 "cosmo_polarized_energy": -19.47, 
			 "cosmo_cavitation_energy": 34.79, 
			 "cosmo_dispersion_energy": -25.11, 
			 "cosmo_repulsion_energy": 1.97, 
			 "cosmo_total_nonelectrostatic_energy": 11.65, 
			 "SMD_solvation_energy": 5.4 
		},
		"coords": [
			{
				"x": 1.594256204,
				"y": -2.2038672238,
				"z": -0.5186150988,
				"element": "O" 
			},
			{
				"x": 1.5516731351,
				"y": -0.9024121894,
				"z": -0.218550544,
				"element": "C" 
			},
			{
				"x": 2.5769769109,
				"y": -0.2661341563,
				"z": -0.0850342053,
				"element": "O" 
			},
			{
				"x": 0.1422078627,
				"y": -0.2676277308,
				"z": -0.0376055841,
				"element": "C" 
			},
			{
				"x": -0.6975446128,
				"y": -0.455810116,
				"z": -1.3437418219,
				"element": "C" 
			},
			{
				"x": -1.3658418821,
				"y": -1.8105120486,
				"z": -1.5514856263,
				"element": "C" 
			},
			{
				"x": -0.810300075,
				"y": -2.8885001632,
				"z": -1.2998441109,
				"element": "O" 
			},
			{
				"x": -2.6191507424,
				"y": -1.7750835592,
				"z": -2.0718482397,
				"element": "N" 
			},
			{
				"x": -3.3879175077,
				"y": -2.9644691918,
				"z": -2.3288817587,
				"element": "C" 
			},
			{
				"x": -3.0491860836,
				"y": -3.8121551692,
				"z": -3.5258308487,
				"element": "C" 
			},
			{
				"x": -4.2974344294,
				"y": -2.9648415419,
				"z": -3.5295245113,
				"element": "C" 
			},
			{
				"x": 0.2910697993,
				"y": 1.2595941597,
				"z": 0.1977499157,
				"element": "C" 
			},
			{
				"x": 0.9000204821,
				"y": 1.6414872449,
				"z": 1.5567517016,
				"element": "C" 
			},
			{
				"x": 0.1566330568,
				"y": 0.9754750095,
				"z": 2.721902961,
				"element": "C" 
			},
			{
				"x": 0.0790420018,
				"y": -0.5437705531,
				"z": 2.5231598576,
				"element": "C" 
			},
			{
				"x": -0.5809251369,
				"y": -0.9025509224,
				"z": 1.1835303682,
				"element": "C" 
			},
			{
				"x": 0.6947153526,
				"y": -2.5684161512,
				"z": -0.7430455266,
				"element": "H" 
			},
			{
				"x": -0.0574600577,
				"y": -0.2745897228,
				"z": -2.2177574633,
				"element": "H" 
			},
			{
				"x": -1.4661813814,
				"y": 0.3246473069,
				"z": -1.3659846628,
				"element": "H" 
			},
			{
				"x": -3.0770049411,
				"y": -0.8802490076,
				"z": -2.166893561,
				"element": "H" 
			},
			{
				"x": -3.7250218625,
				"y": -3.4823889431,
				"z": -1.4337294344,
				"element": "H" 
			},
			{
				"x": -3.1441403779,
				"y": -4.8876111585,
				"z": -3.4200858378,
				"element": "H" 
			},
			{
				"x": -2.21622829,
				"y": -3.488872996,
				"z": -4.14057043,
				"element": "H" 
			},
			{
				"x": -4.3004830347,
				"y": -2.0794105403,
				"z": -4.1592564807,
				"element": "H" 
			},
			{
				"x": -5.2642992793,
				"y": -3.4476354235,
				"z": -3.4312954906,
				"element": "H" 
			},
			{
				"x": 0.8881667069,
				"y": 1.692999685,
				"z": -0.6113317021,
				"element": "H" 
			},
			{
				"x": -0.7140337734,
				"y": 1.7008712376,
				"z": 0.1304833773,
				"element": "H" 
			},
			{
				"x": 0.8722357484,
				"y": 2.7329118333,
				"z": 1.6632265848,
				"element": "H" 
			},
			{
				"x": 1.9510682707,
				"y": 1.3424042965,
				"z": 1.5673278433,
				"element": "H" 
			},
			{
				"x": -0.8637554887,
				"y": 1.3811477233,
				"z": 2.793266329,
				"element": "H" 
			},
			{
				"x": 0.6522046957,
				"y": 1.2101258469,
				"z": 3.6712989536,
				"element": "H" 
			},
			{
				"x": -0.485504606,
				"y": -1.0112549948,
				"z": 3.338663275,
				"element": "H" 
			},
			{
				"x": 1.089888814,
				"y": -0.9707164459,
				"z": 2.5596865296,
				"element": "H" 
			},
			{
				"x": -0.6361023057,
				"y": -1.9882986826,
				"z": 1.0688061824,
				"element": "H" 
			},
			{
				"x": -1.6178431731,
				"y": -0.5336857115,
				"z": 1.1877590602,
				"element": "H" 
			}
		],
		 "valence_orbital": [ 
			{
				"type": "occ",
				"energy": -0.29829,
				"method": "rhf"
			},
			{
				"type": "occ",
				"energy": -0.28356,
				"method": "rhf"
			},
			{
				"type": "occ",
				"energy": -0.27803,
				"method": "rhf"
			},
			{
				"type": "occ",
				"energy": -0.27427,
				"method": "rhf"
			},
			{
				"type": "occ",
				"energy": -0.24084,
				"method": "rhf"
			},
			{
				"type": "unocc",
				"energy": -0.00652,
				"method": "rhf"
			},
			{
				"type": "unocc",
				"energy": 0.02993,
				"method": "rhf"
			},
			{
				"type": "unocc",
				"energy": 0.05021,
				"method": "rhf"
			},
			{
				"type": "unocc",
				"energy": 0.08641,
				"method": "rhf"
			},
			{
				"type": "unocc",
				"energy": 0.08794,
				"method": "rhf"
			}
		],
		"cosmo_sigma_profile": { 
			"-0.025": 0.0,
			"-0.024": 0.0,
			"-0.023": 0.0,
			"-0.022": 0.0,
			"-0.021": 0.0,
			"-0.02": 0.0,
			"-0.019": 0.0,
			"-0.018": 0.0,
			"-0.017": 0.0,
			"-0.016": 0.00662627286968,
			"-0.015": 0.668817391118,
			"-0.014": 1.2481125572,
			"-0.013": 1.95164659215,
			"-0.012": 0.644182443749,
			"-0.011": 1.37740194763,
			"-0.01": 1.52726994534,
			"-0.009": 1.65770713773,
			"-0.008": 2.08626825838,
			"-0.007": 4.81846834292,
			"-0.006": 9.32208837981,
			"-0.005": 15.9827809434,
			"-0.004": 16.6224868526,
			"-0.003": 21.6751910042,
			"-0.002": 32.9819020686,
			"-0.001": 33.5681736758,
			"0.0": 34.0263847259,
			"0.001": 23.2226351244,
			"0.002": 10.1766614324,
			"0.003": 5.7548880629,
			"0.004": 5.60726321717,
			"0.005": 4.95664416946,
			"0.006": 4.36581551673,
			"0.007": 3.26592211384,
			"0.008": 3.52177750037,
			"0.009": 3.95147302306,
			"0.01": 4.6710953072,
			"0.011": 5.04901312762,
			"0.012": 7.15388180175,
			"0.013": 6.03762304963,
			"0.014": 2.02911098563,
			"0.015": 0.433042654264,
			"0.016": 0.0,
			"0.017": 0.0,
			"0.018": 0.0,
			"0.019": 0.0,
			"0.02": 0.0,
			"0.021": 0.0,
			"0.022": 0.0,
			"0.023": 0.0,
			"0.024": 0.0,
			"0.025": 0.0
		}
	}
}
