{
	 "smiles": "COC1=NC=C(NC(=O)C2=C(N)C=CC=C2)C=C1", 
	 "Tm": 403.15, 
	 "num_atms": 31, 
	 "gaussian": { 
		 "optdone": 1, 
		 "sigma_profile": "yes", 
		 "theory": "DFT", 
		 "functional": "B3LYP", 
		 "basiset": "6-31G**", 
		 "properties": { 
			 "R2extent": 5569.0074, 
			 "electric_dipole_moment_norm": 1.30079486853, 
			 "electric_quadrupole_moment_norm": 14.7915570526, 
			 "total_energy": -817.933914576, 
			 "HOMO_LUMO_gap": 0.1648, 
			 "cosmo_polarized_energy": -13.77, 
			 "cosmo_cavitation_energy": 35.09, 
			 "cosmo_dispersion_energy": -25.26, 
			 "cosmo_repulsion_energy": 1.97, 
			 "cosmo_total_nonelectrostatic_energy": 11.8, 
			 "SMD_solvation_energy": 6.22 
		},
		"coords": [
			{
				"x": 0.3050910099,
				"y": -3.8871899481,
				"z": -4.2811772457,
				"element": "C" 
			},
			{
				"x": 0.7670847526,
				"y": -3.7582792879,
				"z": -2.9343068675,
				"element": "O" 
			},
			{
				"x": 0.6778130919,
				"y": -2.5339172048,
				"z": -2.3686912397,
				"element": "C" 
			},
			{
				"x": 0.1752280322,
				"y": -1.520881479,
				"z": -3.0641192864,
				"element": "N" 
			},
			{
				"x": 0.0897096924,
				"y": -0.3275273332,
				"z": -2.4570083286,
				"element": "C" 
			},
			{
				"x": 0.519681661,
				"y": -0.0864881131,
				"z": -1.1534723569,
				"element": "C" 
			},
			{
				"x": 0.4503397701,
				"y": 1.2319114756,
				"z": -0.6317256209,
				"element": "N" 
			},
			{
				"x": 0.2743328554,
				"y": 1.6730206544,
				"z": 0.6707644386,
				"element": "C" 
			},
			{
				"x": 0.737750144,
				"y": 2.7794262721,
				"z": 0.9725390169,
				"element": "O" 
			},
			{
				"x": -0.5031409084,
				"y": 0.8431543253,
				"z": 1.6289004765,
				"element": "C" 
			},
			{
				"x": -0.2740297749,
				"y": 0.9861517435,
				"z": 3.029088252,
				"element": "C" 
			},
			{
				"x": 0.7039652787,
				"y": 1.8198104317,
				"z": 3.5192444618,
				"element": "N" 
			},
			{
				"x": -1.0457762856,
				"y": 0.2026937206,
				"z": 3.9147271634,
				"element": "C" 
			},
			{
				"x": -2.0357976153,
				"y": -0.6477083164,
				"z": 3.4473400579,
				"element": "C" 
			},
			{
				"x": -2.2984046767,
				"y": -0.7529045007,
				"z": 2.075354118,
				"element": "C" 
			},
			{
				"x": -1.5297655264,
				"y": -0.012080065,
				"z": 1.1882166776,
				"element": "C" 
			},
			{
				"x": 1.069969912,
				"y": -1.1689793169,
				"z": -0.4404857828,
				"element": "C" 
			},
			{
				"x": 1.1391082618,
				"y": -2.4107309783,
				"z": -1.0436689671,
				"element": "C" 
			},
			{
				"x": 0.4665172802,
				"y": -4.933673673,
				"z": -4.543384759,
				"element": "H" 
			},
			{
				"x": 0.8672030397,
				"y": -3.2349534067,
				"z": -4.9560318267,
				"element": "H" 
			},
			{
				"x": -0.756406975,
				"y": -3.6348179927,
				"z": -4.3608568658,
				"element": "H" 
			},
			{
				"x": -0.3373024577,
				"y": 0.4845029411,
				"z": -3.0438705102,
				"element": "H" 
			},
			{
				"x": 0.8881763884,
				"y": 1.955162441,
				"z": -1.1909874524,
				"element": "H" 
			},
			{
				"x": 0.6511661561,
				"y": 2.0452195616,
				"z": 4.5008718425,
				"element": "H" 
			},
			{
				"x": 0.9704661712,
				"y": 2.5729663454,
				"z": 2.8950643975,
				"element": "H" 
			},
			{
				"x": -0.8608959572,
				"y": 0.2904973174,
				"z": 4.9825808056,
				"element": "H" 
			},
			{
				"x": -2.6198252339,
				"y": -1.2251333862,
				"z": 4.1590051631,
				"element": "H" 
			},
			{
				"x": -3.0898651999,
				"y": -1.3986372223,
				"z": 1.7098995252,
				"element": "H" 
			},
			{
				"x": -1.7336200347,
				"y": -0.0774900825,
				"z": 0.1254093146,
				"element": "H" 
			},
			{
				"x": 1.4321476386,
				"y": -1.0270084646,
				"z": 0.5718733632,
				"element": "H" 
			},
			{
				"x": 1.5501795096,
				"y": -3.2747164582,
				"z": -0.5342919647,
				"element": "H" 
			}
		],
		 "valence_orbital": [ 
			{
				"type": "occ",
				"energy": -0.27283,
				"method": "rhf"
			},
			{
				"type": "occ",
				"energy": -0.25701,
				"method": "rhf"
			},
			{
				"type": "occ",
				"energy": -0.24963,
				"method": "rhf"
			},
			{
				"type": "occ",
				"energy": -0.21877,
				"method": "rhf"
			},
			{
				"type": "occ",
				"energy": -0.20236,
				"method": "rhf"
			},
			{
				"type": "unocc",
				"energy": -0.03756,
				"method": "rhf"
			},
			{
				"type": "unocc",
				"energy": -0.02724,
				"method": "rhf"
			},
			{
				"type": "unocc",
				"energy": -0.00152,
				"method": "rhf"
			},
			{
				"type": "unocc",
				"energy": 0.01624,
				"method": "rhf"
			},
			{
				"type": "unocc",
				"energy": 0.05668,
				"method": "rhf"
			}
		],
		"cosmo_sigma_profile": { 
			"-0.025": 0.0,
			"-0.024": 0.0,
			"-0.023": 0.0,
			"-0.022": 0.0,
			"-0.021": 0.0,
			"-0.02": 0.0,
			"-0.019": 0.0,
			"-0.018": 0.0,
			"-0.017": 0.0,
			"-0.016": 0.0,
			"-0.015": 0.0,
			"-0.014": 0.704113986753,
			"-0.013": 1.49245615593,
			"-0.012": 2.70298101264,
			"-0.011": 2.45231898825,
			"-0.01": 2.27189427711,
			"-0.009": 2.10392187997,
			"-0.008": 3.25556502889,
			"-0.007": 8.67209682942,
			"-0.006": 13.3507801376,
			"-0.005": 19.3105690954,
			"-0.004": 20.3041026987,
			"-0.003": 22.0473658938,
			"-0.002": 18.1920080089,
			"-0.001": 17.0642367055,
			"0.0": 18.0142317749,
			"0.001": 22.1837359135,
			"0.002": 18.8469831252,
			"0.003": 18.2912720031,
			"0.004": 16.196733653,
			"0.005": 14.1546622504,
			"0.006": 9.19359098887,
			"0.007": 4.63672397868,
			"0.008": 4.74934562058,
			"0.009": 4.87395829731,
			"0.01": 3.86871320865,
			"0.011": 3.08433779539,
			"0.012": 4.3177591279,
			"0.013": 2.91181245959,
			"0.014": 0.629627971124,
			"0.015": 0.0,
			"0.016": 0.0,
			"0.017": 0.0,
			"0.018": 0.0,
			"0.019": 0.0,
			"0.02": 0.0,
			"0.021": 0.0,
			"0.022": 0.0,
			"0.023": 0.0,
			"0.024": 0.0,
			"0.025": 0.0
		}
	}
}
