{
	 "smiles": "CCOC(=O)OC1=C(OC)C=C(C=C1OC)C(O)=O", 
	 "Tm": 455.15, 
	 "num_atms": 33, 
	 "gaussian": { 
		 "optdone": 1, 
		 "sigma_profile": "yes", 
		 "theory": "DFT", 
		 "functional": "B3LYP", 
		 "basiset": "6-31G**", 
		 "properties": { 
			 "R2extent": 7091.7825, 
			 "electric_dipole_moment_norm": 4.07840329296, 
			 "electric_quadrupole_moment_norm": 33.3301995314, 
			 "total_energy": -992.271286711, 
			 "HOMO_LUMO_gap": 0.18824, 
			 "cosmo_polarized_energy": -22.55, 
			 "cosmo_cavitation_energy": 38.55, 
			 "cosmo_dispersion_energy": -26.53, 
			 "cosmo_repulsion_energy": 2.11, 
			 "cosmo_total_nonelectrostatic_energy": 14.13, 
			 "SMD_solvation_energy": 11.0 
		},
		"coords": [
			{
				"x": 4.1417039884,
				"y": 0.6954848075,
				"z": -0.6977133612,
				"element": "C" 
			},
			{
				"x": 3.4190490961,
				"y": 0.7125724367,
				"z": 0.639667967,
				"element": "C" 
			},
			{
				"x": 2.4919403597,
				"y": -0.3954123639,
				"z": 0.7527782957,
				"element": "O" 
			},
			{
				"x": 1.2926696599,
				"y": -0.1997922785,
				"z": 0.1984459018,
				"element": "C" 
			},
			{
				"x": 0.8976223654,
				"y": 0.7935856335,
				"z": -0.3622290198,
				"element": "O" 
			},
			{
				"x": 0.580860424,
				"y": -1.3445894778,
				"z": 0.3859629907,
				"element": "O" 
			},
			{
				"x": -0.7159863126,
				"y": -1.3488367696,
				"z": -0.0988022429,
				"element": "C" 
			},
			{
				"x": -0.9636647836,
				"y": -1.841970051,
				"z": -1.3866076988,
				"element": "C" 
			},
			{
				"x": 0.1355918292,
				"y": -2.1914317248,
				"z": -2.1011915293,
				"element": "O" 
			},
			{
				"x": -0.0465473932,
				"y": -2.673492369,
				"z": -3.4248925646,
				"element": "C" 
			},
			{
				"x": -2.2848918796,
				"y": -1.9354797245,
				"z": -1.8417666416,
				"element": "C" 
			},
			{
				"x": -3.3314324188,
				"y": -1.5160305288,
				"z": -1.0087917277,
				"element": "C" 
			},
			{
				"x": -3.0787414661,
				"y": -0.9906096985,
				"z": 0.2603547447,
				"element": "C" 
			},
			{
				"x": -1.7620388828,
				"y": -0.9054572463,
				"z": 0.7236773461,
				"element": "C" 
			},
			{
				"x": -1.3907489085,
				"y": -0.4228099036,
				"z": 1.9334436719,
				"element": "O" 
			},
			{
				"x": -2.4063470281,
				"y": 0.0841786621,
				"z": 2.7924915948,
				"element": "C" 
			},
			{
				"x": -4.7662190694,
				"y": -1.5851347861,
				"z": -1.4405296001,
				"element": "C" 
			},
			{
				"x": -5.0603263382,
				"y": -2.4767804786,
				"z": -2.4264354057,
				"element": "O" 
			},
			{
				"x": -5.6424964179,
				"y": -0.9059967559,
				"z": -0.959436957,
				"element": "O" 
			},
			{
				"x": 4.6559094956,
				"y": -0.2578622152,
				"z": -0.8499864382,
				"element": "H" 
			},
			{
				"x": 4.8866465645,
				"y": 1.4976367653,
				"z": -0.725932636,
				"element": "H" 
			},
			{
				"x": 3.435912571,
				"y": 0.8543869657,
				"z": -1.516681774,
				"element": "H" 
			},
			{
				"x": 4.1097791204,
				"y": 0.5649774493,
				"z": 1.4727391286,
				"element": "H" 
			},
			{
				"x": 2.8706173025,
				"y": 1.6465621771,
				"z": 0.7833648424,
				"element": "H" 
			},
			{
				"x": -0.5227383592,
				"y": -1.9211790162,
				"z": -4.065858772,
				"element": "H" 
			},
			{
				"x": 0.953174237,
				"y": -2.8879270601,
				"z": -3.8039470108,
				"element": "H" 
			},
			{
				"x": -0.6426532924,
				"y": -3.5948734561,
				"z": -3.4399212465,
				"element": "H" 
			},
			{
				"x": -2.482668937,
				"y": -2.2642698564,
				"z": -2.8549767509,
				"element": "H" 
			},
			{
				"x": -3.9197313963,
				"y": -0.6554002142,
				"z": 0.8523235138,
				"element": "H" 
			},
			{
				"x": -3.1245116103,
				"y": -0.6972212737,
				"z": 3.0685710951,
				"element": "H" 
			},
			{
				"x": -2.9408640797,
				"y": 0.9217590782,
				"z": 2.3293640726,
				"element": "H" 
			},
			{
				"x": -1.889890597,
				"y": 0.4328350261,
				"z": 3.6873112822,
				"element": "H" 
			},
			{
				"x": -4.3061778433,
				"y": -3.0657217525,
				"z": -2.5685950705,
				"element": "H" 
			}
		],
		 "valence_orbital": [ 
			{
				"type": "occ",
				"energy": -0.30356,
				"method": "rhf"
			},
			{
				"type": "occ",
				"energy": -0.28767,
				"method": "rhf"
			},
			{
				"type": "occ",
				"energy": -0.27302,
				"method": "rhf"
			},
			{
				"type": "occ",
				"energy": -0.23848,
				"method": "rhf"
			},
			{
				"type": "occ",
				"energy": -0.23643,
				"method": "rhf"
			},
			{
				"type": "unocc",
				"energy": -0.04819,
				"method": "rhf"
			},
			{
				"type": "unocc",
				"energy": -0.00058,
				"method": "rhf"
			},
			{
				"type": "unocc",
				"energy": 0.04052,
				"method": "rhf"
			},
			{
				"type": "unocc",
				"energy": 0.0499,
				"method": "rhf"
			},
			{
				"type": "unocc",
				"energy": 0.05763,
				"method": "rhf"
			}
		],
		"cosmo_sigma_profile": { 
			"-0.025": 0.0,
			"-0.024": 0.0,
			"-0.023": 0.0,
			"-0.022": 0.0,
			"-0.021": 0.0,
			"-0.02": 0.0,
			"-0.019": 0.0617821632762,
			"-0.018": 0.935927751213,
			"-0.017": 1.04537960758,
			"-0.016": 0.519051032937,
			"-0.015": 1.06406576824,
			"-0.014": 1.27978485749,
			"-0.013": 0.934490048614,
			"-0.012": 1.1074539829,
			"-0.011": 1.21680947459,
			"-0.01": 1.39647721516,
			"-0.009": 1.37212055399,
			"-0.008": 2.40834753381,
			"-0.007": 7.91124232385,
			"-0.006": 21.5206871124,
			"-0.005": 25.2242425366,
			"-0.004": 31.5943714119,
			"-0.003": 25.6555601719,
			"-0.002": 17.5820392064,
			"-0.001": 17.7633211836,
			"0.0": 20.5050707597,
			"0.001": 15.0342884934,
			"0.002": 14.6919552588,
			"0.003": 10.8454390782,
			"0.004": 10.2359177087,
			"0.005": 10.6721068791,
			"0.006": 9.5676525527,
			"0.007": 10.1938938129,
			"0.008": 10.9936871135,
			"0.009": 8.95072334123,
			"0.01": 7.96898994111,
			"0.011": 9.54269668242,
			"0.012": 4.89233425208,
			"0.013": 1.15031840282,
			"0.014": 0.00156897884656,
			"0.015": 0.0,
			"0.016": 0.0,
			"0.017": 0.0,
			"0.018": 0.0,
			"0.019": 0.0,
			"0.02": 0.0,
			"0.021": 0.0,
			"0.022": 0.0,
			"0.023": 0.0,
			"0.024": 0.0,
			"0.025": 0.0
		}
	}
}
