{
	 "smiles": "O=C(NC1=CC=CC=C1)OC1CCCCC[C@H]1OC(=O)NC1=CC=CC=C1", 
	 "Tm": 491.15, 
	 "num_atms": 51, 
	 "gaussian": { 
		 "optdone": 1, 
		 "sigma_profile": "yes", 
		 "theory": "DFT", 
		 "functional": "B3LYP", 
		 "basiset": "6-31G**", 
		 "properties": { 
			 "R2extent": 15591.2755, 
			 "electric_dipole_moment_norm": 3.8576518311, 
			 "electric_quadrupole_moment_norm": 11.3092130407, 
			 "total_energy": -1225.16552713, 
			 "HOMO_LUMO_gap": 0.21482, 
			 "cosmo_polarized_energy": -18.12, 
			 "cosmo_cavitation_energy": 53.47, 
			 "cosmo_dispersion_energy": -37.38, 
			 "cosmo_repulsion_energy": 2.84, 
			 "cosmo_total_nonelectrostatic_energy": 18.93, 
			 "SMD_solvation_energy": 9.58 
		},
		"coords": [
			{
				"x": -1.2137258967,
				"y": 0.1664213823,
				"z": -2.3375345314,
				"element": "O" 
			},
			{
				"x": -0.0802415287,
				"y": -0.2204740667,
				"z": -2.115963187,
				"element": "C" 
			},
			{
				"x": 0.9904629506,
				"y": -0.1696788173,
				"z": -2.9689379986,
				"element": "N" 
			},
			{
				"x": 1.0429954647,
				"y": 0.3409046684,
				"z": -4.2818970771,
				"element": "C" 
			},
			{
				"x": 2.2796972272,
				"y": 0.2806441309,
				"z": -4.9432704662,
				"element": "C" 
			},
			{
				"x": 2.407937654,
				"y": 0.7644947126,
				"z": -6.2422879882,
				"element": "C" 
			},
			{
				"x": 1.3070928412,
				"y": 1.3149606696,
				"z": -6.9011585702,
				"element": "C" 
			},
			{
				"x": 0.0795952315,
				"y": 1.3730453573,
				"z": -6.2400206935,
				"element": "C" 
			},
			{
				"x": -0.067116366,
				"y": 0.8927322433,
				"z": -4.9384530257,
				"element": "C" 
			},
			{
				"x": 0.3278539043,
				"y": -0.7923390992,
				"z": -0.9473630129,
				"element": "O" 
			},
			{
				"x": -0.6828399481,
				"y": -0.9318761087,
				"z": 0.0860664806,
				"element": "C" 
			},
			{
				"x": -0.2953832083,
				"y": -2.2071250753,
				"z": 0.8441052049,
				"element": "C" 
			},
			{
				"x": -0.9772267169,
				"y": -2.4463292172,
				"z": 2.208231267,
				"element": "C" 
			},
			{
				"x": -2.4151613323,
				"y": -1.9182696035,
				"z": 2.3745709918,
				"element": "C" 
			},
			{
				"x": -2.4844079108,
				"y": -0.4200500688,
				"z": 2.7198962476,
				"element": "C" 
			},
			{
				"x": -2.1322961475,
				"y": 0.5579272851,
				"z": 1.589838206,
				"element": "C" 
			},
			{
				"x": -0.7803504819,
				"y": 0.3678315255,
				"z": 0.8912976134,
				"element": "C" 
			},
			{
				"x": 0.315664261,
				"y": 0.3940323874,
				"z": 1.8405592874,
				"element": "O" 
			},
			{
				"x": 0.8586469388,
				"y": 1.6159219884,
				"z": 2.1059308426,
				"element": "C" 
			},
			{
				"x": 0.4820283739,
				"y": 2.6634721214,
				"z": 1.6151574976,
				"element": "O" 
			},
			{
				"x": 1.8798576785,
				"y": 1.447472832,
				"z": 3.0056666806,
				"element": "N" 
			},
			{
				"x": 2.7191260797,
				"y": 2.4280448929,
				"z": 3.5722067038,
				"element": "C" 
			},
			{
				"x": 2.6225683666,
				"y": 3.7940746316,
				"z": 3.2673247039,
				"element": "C" 
			},
			{
				"x": 3.4971374786,
				"y": 4.6928598758,
				"z": 3.8786186144,
				"element": "C" 
			},
			{
				"x": 4.4654637835,
				"y": 4.2607969904,
				"z": 4.7857970114,
				"element": "C" 
			},
			{
				"x": 4.5568800909,
				"y": 2.9001473279,
				"z": 5.0845469643,
				"element": "C" 
			},
			{
				"x": 3.6920247386,
				"y": 1.9892330445,
				"z": 4.4842270848,
				"element": "C" 
			},
			{
				"x": 1.850429225,
				"y": -0.5395720228,
				"z": -2.5899835035,
				"element": "H" 
			},
			{
				"x": 3.1414097383,
				"y": -0.146426515,
				"z": -4.434932476,
				"element": "H" 
			},
			{
				"x": 3.3729292896,
				"y": 0.7099689085,
				"z": -6.7379783894,
				"element": "H" 
			},
			{
				"x": 1.4055910449,
				"y": 1.6929756744,
				"z": -7.9140519803,
				"element": "H" 
			},
			{
				"x": -0.7853987025,
				"y": 1.7994396376,
				"z": -6.7403334836,
				"element": "H" 
			},
			{
				"x": -1.0191891671,
				"y": 0.9397180067,
				"z": -4.4285891718,
				"element": "H" 
			},
			{
				"x": -1.6445826506,
				"y": -1.0557211744,
				"z": -0.4173308874,
				"element": "H" 
			},
			{
				"x": 0.7896633269,
				"y": -2.1911140769,
				"z": 0.9861257943,
				"element": "H" 
			},
			{
				"x": -0.5053456973,
				"y": -3.0451289466,
				"z": 0.1695792106,
				"element": "H" 
			},
			{
				"x": -0.3644175542,
				"y": -1.9975770877,
				"z": 2.9985321445,
				"element": "H" 
			},
			{
				"x": -0.9661632404,
				"y": -3.5265258894,
				"z": 2.3936020414,
				"element": "H" 
			},
			{
				"x": -3.0157218537,
				"y": -2.1344325936,
				"z": 1.4795970501,
				"element": "H" 
			},
			{
				"x": -2.8899366331,
				"y": -2.4732784318,
				"z": 3.1927415419,
				"element": "H" 
			},
			{
				"x": -1.8239958486,
				"y": -0.2335111058,
				"z": 3.5766635002,
				"element": "H" 
			},
			{
				"x": -3.4979719795,
				"y": -0.1765156744,
				"z": 3.0615105345,
				"element": "H" 
			},
			{
				"x": -2.8979262138,
				"y": 0.5125400686,
				"z": 0.8042092884,
				"element": "H" 
			},
			{
				"x": -2.1564535703,
				"y": 1.5810889453,
				"z": 1.9802683882,
				"element": "H" 
			},
			{
				"x": -0.64449631,
				"y": 1.2043211933,
				"z": 0.2025840853,
				"element": "H" 
			},
			{
				"x": 2.0423828682,
				"y": 0.4920161191,
				"z": 3.288904506,
				"element": "H" 
			},
			{
				"x": 1.8741641125,
				"y": 4.1318490956,
				"z": 2.5641554123,
				"element": "H" 
			},
			{
				"x": 3.4147841043,
				"y": 5.7487127597,
				"z": 3.6362876226,
				"element": "H" 
			},
			{
				"x": 5.1390431483,
				"y": 4.972440198,
				"z": 5.2531174031,
				"element": "H" 
			},
			{
				"x": 5.3032467285,
				"y": 2.5419393839,
				"z": 5.7877917554,
				"element": "H" 
			},
			{
				"x": 3.7680723083,
				"y": 0.9303175176,
				"z": 4.7217747617,
				"element": "H" 
			}
		],
		 "valence_orbital": [ 
			{
				"type": "occ",
				"energy": -0.27686,
				"method": "rhf"
			},
			{
				"type": "occ",
				"energy": -0.25008,
				"method": "rhf"
			},
			{
				"type": "occ",
				"energy": -0.24846,
				"method": "rhf"
			},
			{
				"type": "occ",
				"energy": -0.21903,
				"method": "rhf"
			},
			{
				"type": "occ",
				"energy": -0.21749,
				"method": "rhf"
			},
			{
				"type": "unocc",
				"energy": -0.00267,
				"method": "rhf"
			},
			{
				"type": "unocc",
				"energy": -0.00153,
				"method": "rhf"
			},
			{
				"type": "unocc",
				"energy": -0.00045,
				"method": "rhf"
			},
			{
				"type": "unocc",
				"energy": 0.00118,
				"method": "rhf"
			},
			{
				"type": "unocc",
				"energy": 0.06035,
				"method": "rhf"
			}
		],
		"cosmo_sigma_profile": { 
			"-0.025": 0.0,
			"-0.024": 0.0,
			"-0.023": 0.0,
			"-0.022": 0.0,
			"-0.021": 0.0,
			"-0.02": 0.0,
			"-0.019": 0.0,
			"-0.018": 0.0,
			"-0.017": 0.0,
			"-0.016": 0.0183453887294,
			"-0.015": 1.23165838163,
			"-0.014": 2.0736869129,
			"-0.013": 2.64106672955,
			"-0.012": 2.01377065833,
			"-0.011": 1.31651980745,
			"-0.01": 2.69342803109,
			"-0.009": 2.25137125301,
			"-0.008": 2.96911504254,
			"-0.007": 3.02024994306,
			"-0.006": 10.1552377721,
			"-0.005": 19.8902247607,
			"-0.004": 27.4555474701,
			"-0.003": 36.2323815276,
			"-0.002": 44.8701235197,
			"-0.001": 48.7807175191,
			"0.0": 39.3358786446,
			"0.001": 31.7494453275,
			"0.002": 24.9846743376,
			"0.003": 25.7108379435,
			"0.004": 25.5350108139,
			"0.005": 24.2540688309,
			"0.006": 20.0082320179,
			"0.007": 4.13430919086,
			"0.008": 3.07935029455,
			"0.009": 2.56221364223,
			"0.01": 3.14806060083,
			"0.011": 4.58682125056,
			"0.012": 5.16192592183,
			"0.013": 0.590214667612,
			"0.014": 0.0,
			"0.015": 0.0,
			"0.016": 0.0,
			"0.017": 0.0,
			"0.018": 0.0,
			"0.019": 0.0,
			"0.02": 0.0,
			"0.021": 0.0,
			"0.022": 0.0,
			"0.023": 0.0,
			"0.024": 0.0,
			"0.025": 0.0
		}
	}
}
