{
	 "smiles": "OC(=O)C1CCCN(C1)C1=C2C=CSC2=NC=N1", 
	 "Tm": 488.15, 
	 "num_atms": 31, 
	 "gaussian": { 
		 "optdone": 1, 
		 "sigma_profile": "yes", 
		 "theory": "DFT", 
		 "functional": "B3LYP", 
		 "basiset": "6-31G**", 
		 "properties": { 
			 "R2extent": 6308.5219, 
			 "electric_dipole_moment_norm": 5.19713750251, 
			 "electric_quadrupole_moment_norm": 8.45832828164, 
			 "total_energy": -1178.01566546, 
			 "HOMO_LUMO_gap": 0.1794, 
			 "cosmo_polarized_energy": -15.76, 
			 "cosmo_cavitation_energy": 34.96, 
			 "cosmo_dispersion_energy": -26.11, 
			 "cosmo_repulsion_energy": 1.95, 
			 "cosmo_total_nonelectrostatic_energy": 10.79, 
			 "SMD_solvation_energy": 3.08 
		},
		"coords": [
			{
				"x": -1.2422906177,
				"y": -1.6616518528,
				"z": -3.5828793535,
				"element": "O" 
			},
			{
				"x": -1.625571824,
				"y": -1.0279455135,
				"z": -2.4498504204,
				"element": "C" 
			},
			{
				"x": -2.5990394602,
				"y": -0.3067710374,
				"z": -2.4013183686,
				"element": "O" 
			},
			{
				"x": -0.7016249725,
				"y": -1.3463803375,
				"z": -1.2922847205,
				"element": "C" 
			},
			{
				"x": -0.6700040303,
				"y": -2.8683385442,
				"z": -0.9878533211,
				"element": "C" 
			},
			{
				"x": -0.250200713,
				"y": -3.118565977,
				"z": 0.477834849,
				"element": "C" 
			},
			{
				"x": 0.6207106104,
				"y": -1.9920938893,
				"z": 1.0359317635,
				"element": "C" 
			},
			{
				"x": -0.130711796,
				"y": -0.7259167822,
				"z": 1.0204956641,
				"element": "N" 
			},
			{
				"x": -1.0991304272,
				"y": -0.5244641774,
				"z": -0.0589898461,
				"element": "C" 
			},
			{
				"x": 0.2266932723,
				"y": 0.2722878996,
				"z": 1.8885513172,
				"element": "C" 
			},
			{
				"x": -0.5392800296,
				"y": 1.4612285145,
				"z": 2.1226047704,
				"element": "C" 
			},
			{
				"x": -1.8313948843,
				"y": 1.9331950732,
				"z": 1.6834364452,
				"element": "C" 
			},
			{
				"x": -2.1552447712,
				"y": 3.1471421517,
				"z": 2.2032517597,
				"element": "C" 
			},
			{
				"x": -0.930640512,
				"y": 3.7961286353,
				"z": 3.2655977555,
				"element": "S" 
			},
			{
				"x": 0.0646460544,
				"y": 2.3709828764,
				"z": 3.0208392908,
				"element": "C" 
			},
			{
				"x": 1.2239242166,
				"y": 2.2010222197,
				"z": 3.6666748026,
				"element": "N" 
			},
			{
				"x": 1.7971886033,
				"y": 1.0295269573,
				"z": 3.404906075,
				"element": "C" 
			},
			{
				"x": 1.3733847755,
				"y": 0.077885023,
				"z": 2.5676050328,
				"element": "N" 
			},
			{
				"x": -1.8886927419,
				"y": -1.4149295922,
				"z": -4.2660286819,
				"element": "H" 
			},
			{
				"x": 0.3052287918,
				"y": -1.0370758438,
				"z": -1.6004699511,
				"element": "H" 
			},
			{
				"x": -1.6568462256,
				"y": -3.3084858,
				"z": -1.16821761,
				"element": "H" 
			},
			{
				"x": 0.0188433542,
				"y": -3.3535927034,
				"z": -1.6848597665,
				"element": "H" 
			},
			{
				"x": 0.2932577082,
				"y": -4.0652402494,
				"z": 0.5604561215,
				"element": "H" 
			},
			{
				"x": -1.1394489012,
				"y": -3.2124436238,
				"z": 1.1116158157,
				"element": "H" 
			},
			{
				"x": 1.5552410664,
				"y": -1.898899756,
				"z": 0.4629055648,
				"element": "H" 
			},
			{
				"x": 0.9144180213,
				"y": -2.1964605059,
				"z": 2.0656265167,
				"element": "H" 
			},
			{
				"x": -2.1188305428,
				"y": -0.7986773014,
				"z": 0.2463440556,
				"element": "H" 
			},
			{
				"x": -1.1193588893,
				"y": 0.5301996038,
				"z": -0.3339095879,
				"element": "H" 
			},
			{
				"x": -2.5032239153,
				"y": 1.396879204,
				"z": 1.0282946395,
				"element": "H" 
			},
			{
				"x": -3.0618917748,
				"y": 3.7098449424,
				"z": 2.028424485,
				"element": "H" 
			},
			{
				"x": 2.7299905548,
				"y": 0.8206103862,
				"z": 3.9259649033,
				"element": "H" 
			}
		],
		 "valence_orbital": [ 
			{
				"type": "occ",
				"energy": -0.28807,
				"method": "rhf"
			},
			{
				"type": "occ",
				"energy": -0.26019,
				"method": "rhf"
			},
			{
				"type": "occ",
				"energy": -0.2514,
				"method": "rhf"
			},
			{
				"type": "occ",
				"energy": -0.24692,
				"method": "rhf"
			},
			{
				"type": "occ",
				"energy": -0.20528,
				"method": "rhf"
			},
			{
				"type": "unocc",
				"energy": -0.02588,
				"method": "rhf"
			},
			{
				"type": "unocc",
				"energy": -0.00952,
				"method": "rhf"
			},
			{
				"type": "unocc",
				"energy": -0.00503,
				"method": "rhf"
			},
			{
				"type": "unocc",
				"energy": 0.02885,
				"method": "rhf"
			},
			{
				"type": "unocc",
				"energy": 0.03719,
				"method": "rhf"
			}
		],
		"cosmo_sigma_profile": { 
			"-0.025": 0.0,
			"-0.024": 0.0,
			"-0.023": 0.0,
			"-0.022": 0.0,
			"-0.021": 0.0,
			"-0.02": 0.0,
			"-0.019": 0.04050148151,
			"-0.018": 0.674094505517,
			"-0.017": 1.02772495658,
			"-0.016": 0.986794071106,
			"-0.015": 0.620584985077,
			"-0.014": 0.839074823851,
			"-0.013": 0.564123620238,
			"-0.012": 0.790511891166,
			"-0.011": 0.647807323243,
			"-0.01": 0.879279817639,
			"-0.009": 1.72258970243,
			"-0.008": 2.66989292685,
			"-0.007": 5.81782073838,
			"-0.006": 14.0172763507,
			"-0.005": 17.3542654477,
			"-0.004": 25.4473889592,
			"-0.003": 26.2433668719,
			"-0.002": 20.0104853087,
			"-0.001": 18.1458638633,
			"0.0": 18.1560007406,
			"0.001": 21.9046173937,
			"0.002": 20.9291658674,
			"0.003": 17.3259709186,
			"0.004": 15.5543063261,
			"0.005": 6.87951205863,
			"0.006": 5.9194556553,
			"0.007": 5.51431445845,
			"0.008": 5.44341746024,
			"0.009": 4.77415329843,
			"0.01": 4.58101655343,
			"0.011": 5.48781828225,
			"0.012": 4.62990344145,
			"0.013": 1.5713873891,
			"0.014": 0.987762589847,
			"0.015": 0.78267302654,
			"0.016": 0.273504834785,
			"0.017": 0.0,
			"0.018": 0.0,
			"0.019": 0.0,
			"0.02": 0.0,
			"0.021": 0.0,
			"0.022": 0.0,
			"0.023": 0.0,
			"0.024": 0.0,
			"0.025": 0.0
		}
	}
}
