{
	 "smiles": "CC(C)C1=CC(O)=CC(C)=C1", 
	 "Tm": 323.15, 
	 "num_atms": 25, 
	 "gaussian": { 
		 "optdone": 1, 
		 "sigma_profile": "yes", 
		 "theory": "DFT", 
		 "functional": "B3LYP", 
		 "basiset": "6-31G**", 
		 "properties": { 
			 "R2extent": 2560.8439, 
			 "electric_dipole_moment_norm": 1.38546468739, 
			 "electric_quadrupole_moment_norm": 9.81134730962, 
			 "total_energy": -464.74304294, 
			 "HOMO_LUMO_gap": 0.21757, 
			 "cosmo_polarized_energy": -7.75, 
			 "cosmo_cavitation_energy": 27.37, 
			 "cosmo_dispersion_energy": -19.56, 
			 "cosmo_repulsion_energy": 1.6, 
			 "cosmo_total_nonelectrostatic_energy": 9.41, 
			 "SMD_solvation_energy": 5.17 
		},
		"coords": [
			{
				"x": -2.2551497051,
				"y": 1.4882251437,
				"z": -0.6317171472,
				"element": "C" 
			},
			{
				"x": -1.9920705311,
				"y": -0.029448348,
				"z": -0.6225942958,
				"element": "C" 
			},
			{
				"x": -2.9399017705,
				"y": -0.7613688217,
				"z": -1.5913044566,
				"element": "C" 
			},
			{
				"x": -0.5302295088,
				"y": -0.3527257303,
				"z": -0.9072161665,
				"element": "C" 
			},
			{
				"x": 0.2437490804,
				"y": -0.9957541544,
				"z": 0.0583938855,
				"element": "C" 
			},
			{
				"x": 1.5876755103,
				"y": -1.2938777237,
				"z": -0.1969544526,
				"element": "C" 
			},
			{
				"x": 2.2866002146,
				"y": -1.9247176009,
				"z": 0.7960554542,
				"element": "O" 
			},
			{
				"x": 2.1647014124,
				"y": -0.9506182123,
				"z": -1.4194144592,
				"element": "C" 
			},
			{
				"x": 1.4014678078,
				"y": -0.3043150472,
				"z": -2.4023944373,
				"element": "C" 
			},
			{
				"x": 2.0291236928,
				"y": 0.0583155479,
				"z": -3.7286827888,
				"element": "C" 
			},
			{
				"x": 0.062388814,
				"y": -0.011949237,
				"z": -2.1351118328,
				"element": "C" 
			},
			{
				"x": -1.6070867789,
				"y": 2.0062878233,
				"z": 0.0819544667,
				"element": "H" 
			},
			{
				"x": -2.0708348031,
				"y": 1.9180120242,
				"z": -1.6223596584,
				"element": "H" 
			},
			{
				"x": -3.296301401,
				"y": 1.7015916168,
				"z": -0.3652822028,
				"element": "H" 
			},
			{
				"x": -2.2100780377,
				"y": -0.3947144779,
				"z": 0.3893714653,
				"element": "H" 
			},
			{
				"x": -3.9858635973,
				"y": -0.563928066,
				"z": -1.3315393349,
				"element": "H" 
			},
			{
				"x": -2.7788731354,
				"y": -1.8434121132,
				"z": -1.5603176562,
				"element": "H" 
			},
			{
				"x": -2.7859659951,
				"y": -0.4308102061,
				"z": -2.6242940551,
				"element": "H" 
			},
			{
				"x": -0.1769065746,
				"y": -1.2747031421,
				"z": 1.0198275706,
				"element": "H" 
			},
			{
				"x": 3.1932443437,
				"y": -2.0703605427,
				"z": 0.4964581164,
				"element": "H" 
			},
			{
				"x": 3.2112542909,
				"y": -1.1851977691,
				"z": -1.6103972559,
				"element": "H" 
			},
			{
				"x": 1.3342236839,
				"y": 0.6211960986,
				"z": -4.3576110726,
				"element": "H" 
			},
			{
				"x": 2.3312101037,
				"y": -0.8370452904,
				"z": -4.2851699384,
				"element": "H" 
			},
			{
				"x": 2.9285748708,
				"y": 0.6695674721,
				"z": -3.592096638,
				"element": "H" 
			},
			{
				"x": -0.5272519869,
				"y": 0.4900507564,
				"z": -2.8976031098,
				"element": "H" 
			}
		],
		 "valence_orbital": [ 
			{
				"type": "occ",
				"energy": -0.32102,
				"method": "rhf"
			},
			{
				"type": "occ",
				"energy": -0.3154,
				"method": "rhf"
			},
			{
				"type": "occ",
				"energy": -0.30895,
				"method": "rhf"
			},
			{
				"type": "occ",
				"energy": -0.23235,
				"method": "rhf"
			},
			{
				"type": "occ",
				"energy": -0.2124,
				"method": "rhf"
			},
			{
				"type": "unocc",
				"energy": 0.00517,
				"method": "rhf"
			},
			{
				"type": "unocc",
				"energy": 0.02105,
				"method": "rhf"
			},
			{
				"type": "unocc",
				"energy": 0.07513,
				"method": "rhf"
			},
			{
				"type": "unocc",
				"energy": 0.0923,
				"method": "rhf"
			},
			{
				"type": "unocc",
				"energy": 0.11304,
				"method": "rhf"
			}
		],
		"cosmo_sigma_profile": { 
			"-0.025": 0.0,
			"-0.024": 0.0,
			"-0.023": 0.0,
			"-0.022": 0.0,
			"-0.021": 0.0,
			"-0.02": 0.0,
			"-0.019": 0.0,
			"-0.018": 0.0786743099021,
			"-0.017": 0.786633877341,
			"-0.016": 1.20448544065,
			"-0.015": 1.03085608108,
			"-0.014": 0.651226878528,
			"-0.013": 1.21957665467,
			"-0.012": 0.947813895289,
			"-0.011": 0.517035725984,
			"-0.01": 0.857542827963,
			"-0.009": 1.61130916443,
			"-0.008": 1.30867517729,
			"-0.007": 0.804820506637,
			"-0.006": 0.993864068026,
			"-0.005": 3.17452640066,
			"-0.004": 12.4776937128,
			"-0.003": 22.0846857075,
			"-0.002": 24.9787466317,
			"-0.001": 24.4137205487,
			"0.0": 26.2013778582,
			"0.001": 24.8302643269,
			"0.002": 13.9179856527,
			"0.003": 7.19889999234,
			"0.004": 9.1031365718,
			"0.005": 9.97512895537,
			"0.006": 9.565784971,
			"0.007": 6.6275004127,
			"0.008": 0.728661391883,
			"0.009": 1.1477719418,
			"0.01": 1.86709428898,
			"0.011": 1.96231150826,
			"0.012": 1.5548401199,
			"0.013": 0.0286239670369,
			"0.014": 0.0,
			"0.015": 0.0,
			"0.016": 0.0,
			"0.017": 0.0,
			"0.018": 0.0,
			"0.019": 0.0,
			"0.02": 0.0,
			"0.021": 0.0,
			"0.022": 0.0,
			"0.023": 0.0,
			"0.024": 0.0,
			"0.025": 0.0
		}
	}
}
