{
	 "smiles": "COC1=C(O)C=C(C)C=C1", 
	 "Tm": 311.15, 
	 "num_atms": 20, 
	 "gaussian": { 
		 "optdone": 1, 
		 "sigma_profile": "yes", 
		 "theory": "DFT", 
		 "functional": "B3LYP", 
		 "basiset": "6-31G**", 
		 "properties": { 
			 "R2extent": 2410.9896, 
			 "electric_dipole_moment_norm": 2.47226883854, 
			 "electric_quadrupole_moment_norm": 13.544401305, 
			 "total_energy": -461.316879264, 
			 "HOMO_LUMO_gap": 0.21033, 
			 "cosmo_polarized_energy": -7.11, 
			 "cosmo_cavitation_energy": 23.19, 
			 "cosmo_dispersion_energy": -17.42, 
			 "cosmo_repulsion_energy": 1.42, 
			 "cosmo_total_nonelectrostatic_energy": 7.19, 
			 "SMD_solvation_energy": 5.13 
		},
		"coords": [
			{
				"x": -0.3588752353,
				"y": 3.4203024466,
				"z": -1.0709739109,
				"element": "C" 
			},
			{
				"x": -0.7096999424,
				"y": 2.3664396018,
				"z": -1.9523165034,
				"element": "O" 
			},
			{
				"x": -0.2308172051,
				"y": 1.1053156654,
				"z": -1.6745175485,
				"element": "C" 
			},
			{
				"x": -0.6352163626,
				"y": 0.1269458369,
				"z": -2.6072017438,
				"element": "C" 
			},
			{
				"x": -1.4272398663,
				"y": 0.4761993822,
				"z": -3.6598498707,
				"element": "O" 
			},
			{
				"x": -0.2241592802,
				"y": -1.1898384119,
				"z": -2.4488254489,
				"element": "C" 
			},
			{
				"x": 0.5924212012,
				"y": -1.5664007761,
				"z": -1.3691061982,
				"element": "C" 
			},
			{
				"x": 1.0287516428,
				"y": -3.004828599,
				"z": -1.2141636586,
				"element": "C" 
			},
			{
				"x": 0.9836614939,
				"y": -0.5869669747,
				"z": -0.4555624503,
				"element": "C" 
			},
			{
				"x": 0.5766277221,
				"y": 0.7471118594,
				"z": -0.6020797852,
				"element": "C" 
			},
			{
				"x": -0.7267148828,
				"y": 3.2310524358,
				"z": -0.0544448321,
				"element": "H" 
			},
			{
				"x": -0.833624805,
				"y": 4.3204993989,
				"z": -1.4645567701,
				"element": "H" 
			},
			{
				"x": 0.7280061353,
				"y": 3.5686657979,
				"z": -1.0371472531,
				"element": "H" 
			},
			{
				"x": -1.5946649575,
				"y": 1.4279612828,
				"z": -3.5819659628,
				"element": "H" 
			},
			{
				"x": -0.5518656079,
				"y": -1.9199889639,
				"z": -3.1832969815,
				"element": "H" 
			},
			{
				"x": 1.6574714822,
				"y": -3.1361359778,
				"z": -0.3290736637,
				"element": "H" 
			},
			{
				"x": 1.6019861552,
				"y": -3.3463487787,
				"z": -2.084118432,
				"element": "H" 
			},
			{
				"x": 0.1680841152,
				"y": -3.6767057311,
				"z": -1.1144661486,
				"element": "H" 
			},
			{
				"x": 1.614933081,
				"y": -0.8565072499,
				"z": 0.3864417458,
				"element": "H" 
			},
			{
				"x": 0.8949351161,
				"y": 1.4885277555,
				"z": 0.1222254167,
				"element": "H" 
			}
		],
		 "valence_orbital": [ 
			{
				"type": "occ",
				"energy": -0.33802,
				"method": "rhf"
			},
			{
				"type": "occ",
				"energy": -0.33168,
				"method": "rhf"
			},
			{
				"type": "occ",
				"energy": -0.30618,
				"method": "rhf"
			},
			{
				"type": "occ",
				"energy": -0.22859,
				"method": "rhf"
			},
			{
				"type": "occ",
				"energy": -0.1993,
				"method": "rhf"
			},
			{
				"type": "unocc",
				"energy": 0.01103,
				"method": "rhf"
			},
			{
				"type": "unocc",
				"energy": 0.02491,
				"method": "rhf"
			},
			{
				"type": "unocc",
				"energy": 0.08142,
				"method": "rhf"
			},
			{
				"type": "unocc",
				"energy": 0.09605,
				"method": "rhf"
			},
			{
				"type": "unocc",
				"energy": 0.11488,
				"method": "rhf"
			}
		],
		"cosmo_sigma_profile": { 
			"-0.025": 0.0,
			"-0.024": 0.0,
			"-0.023": 0.0,
			"-0.022": 0.0,
			"-0.021": 0.0,
			"-0.02": 0.0,
			"-0.019": 0.0,
			"-0.018": 0.0,
			"-0.017": 0.0,
			"-0.016": 0.0,
			"-0.015": 0.0,
			"-0.014": 0.368114644458,
			"-0.013": 0.506221154542,
			"-0.012": 0.443058352437,
			"-0.011": 0.42727820678,
			"-0.01": 0.798936772177,
			"-0.009": 0.8610567,
			"-0.008": 0.593146957281,
			"-0.007": 0.777684715273,
			"-0.006": 5.60240068146,
			"-0.005": 14.5855983952,
			"-0.004": 18.3346792543,
			"-0.003": 20.4888353007,
			"-0.002": 15.7895409604,
			"-0.001": 13.4559332951,
			"0.0": 14.1614574998,
			"0.001": 11.1409295933,
			"0.002": 10.584415625,
			"0.003": 11.0631981048,
			"0.004": 10.0262239235,
			"0.005": 11.371005037,
			"0.006": 9.39376704209,
			"0.007": 4.17487760579,
			"0.008": 1.9487638627,
			"0.009": 1.66784286256,
			"0.01": 1.02321559929,
			"0.011": 2.21087623481,
			"0.012": 1.53381370598,
			"0.013": 0.0,
			"0.014": 0.0,
			"0.015": 0.0,
			"0.016": 0.0,
			"0.017": 0.0,
			"0.018": 0.0,
			"0.019": 0.0,
			"0.02": 0.0,
			"0.021": 0.0,
			"0.022": 0.0,
			"0.023": 0.0,
			"0.024": 0.0,
			"0.025": 0.0
		}
	}
}
