{
	 "smiles": "OC(O)(C1=COC2=C(C=C(Cl)C=C2)C1=O)C(F)(F)F", 
	 "Tm": 388.15, 
	 "num_atms": 25, 
	 "gaussian": { 
		 "optdone": 1, 
		 "sigma_profile": "yes", 
		 "theory": "DFT", 
		 "functional": "B3LYP", 
		 "basiset": "6-31G**", 
		 "properties": { 
			 "R2extent": 8085.2224, 
			 "electric_dipole_moment_norm": 4.27469256672, 
			 "electric_quadrupole_moment_norm": 11.652513534, 
			 "total_energy": -1483.38900173, 
			 "HOMO_LUMO_gap": 0.17465, 
			 "cosmo_polarized_energy": -11.97, 
			 "cosmo_cavitation_energy": 32.75, 
			 "cosmo_dispersion_energy": -23.82, 
			 "cosmo_repulsion_energy": 1.74, 
			 "cosmo_total_nonelectrostatic_energy": 10.67, 
			 "SMD_solvation_energy": 7.35 
		},
		"coords": [
			{
				"x": -2.3080800924,
				"y": -1.3893648325,
				"z": -1.3118458291,
				"element": "O" 
			},
			{
				"x": -2.0232359418,
				"y": -0.0485360452,
				"z": -1.5480673827,
				"element": "C" 
			},
			{
				"x": -1.2359679921,
				"y": 0.0731423821,
				"z": -2.6983082263,
				"element": "O" 
			},
			{
				"x": -1.2812044782,
				"y": 0.6133339143,
				"z": -0.3938846185,
				"element": "C" 
			},
			{
				"x": -0.4138322447,
				"y": 1.6220303839,
				"z": -0.6414155676,
				"element": "C" 
			},
			{
				"x": 0.2731979113,
				"y": 2.2952173811,
				"z": 0.3012815847,
				"element": "O" 
			},
			{
				"x": 0.0877878616,
				"y": 1.9676223075,
				"z": 1.6188784854,
				"element": "C" 
			},
			{
				"x": -0.7830054211,
				"y": 0.9388609159,
				"z": 2.0018227821,
				"element": "C" 
			},
			{
				"x": -0.9295327583,
				"y": 0.6431544111,
				"z": 3.3678188609,
				"element": "C" 
			},
			{
				"x": -0.2162776774,
				"y": 1.3735823203,
				"z": 4.3023607227,
				"element": "C" 
			},
			{
				"x": -0.3913281124,
				"y": 1.0164182199,
				"z": 6.0092885955,
				"element": "Cl" 
			},
			{
				"x": 0.6549878502,
				"y": 2.4046970145,
				"z": 3.9089496194,
				"element": "C" 
			},
			{
				"x": 0.8094165586,
				"y": 2.7034231099,
				"z": 2.5639244742,
				"element": "C" 
			},
			{
				"x": -1.5235946093,
				"y": 0.1770730538,
				"z": 0.9795631305,
				"element": "C" 
			},
			{
				"x": -2.2748547515,
				"y": -0.7629121891,
				"z": 1.2790323988,
				"element": "O" 
			},
			{
				"x": -3.3626365749,
				"y": 0.6986825149,
				"z": -1.8176232615,
				"element": "C" 
			},
			{
				"x": -3.1649698416,
				"y": 2.0160491454,
				"z": -2.0321828755,
				"element": "F" 
			},
			{
				"x": -3.9552988942,
				"y": 0.1909141393,
				"z": -2.9196164922,
				"element": "F" 
			},
			{
				"x": -4.2139970362,
				"y": 0.5715678577,
				"z": -0.7846721487,
				"element": "F" 
			},
			{
				"x": -2.5246569558,
				"y": -1.472930091,
				"z": -0.3569181844,
				"element": "H" 
			},
			{
				"x": -1.7113404257,
				"y": -0.3821635757,
				"z": -3.4092004582,
				"element": "H" 
			},
			{
				"x": -0.1858767607,
				"y": 1.9790621337,
				"z": -1.6372765894,
				"element": "H" 
			},
			{
				"x": -1.6031739186,
				"y": -0.1560038113,
				"z": 3.6542602464,
				"element": "H" 
			},
			{
				"x": 1.2029547218,
				"y": 2.9616932712,
				"z": 4.6605184002,
				"element": "H" 
			},
			{
				"x": 1.4749195834,
				"y": 3.4922860682,
				"z": 2.2314123331,
				"element": "H" 
			}
		],
		 "valence_orbital": [ 
			{
				"type": "occ",
				"energy": -0.29587,
				"method": "rhf"
			},
			{
				"type": "occ",
				"energy": -0.29046,
				"method": "rhf"
			},
			{
				"type": "occ",
				"energy": -0.28776,
				"method": "rhf"
			},
			{
				"type": "occ",
				"energy": -0.27616,
				"method": "rhf"
			},
			{
				"type": "occ",
				"energy": -0.25851,
				"method": "rhf"
			},
			{
				"type": "unocc",
				"energy": -0.08386,
				"method": "rhf"
			},
			{
				"type": "unocc",
				"energy": -0.0484,
				"method": "rhf"
			},
			{
				"type": "unocc",
				"energy": -0.02596,
				"method": "rhf"
			},
			{
				"type": "unocc",
				"energy": 0.01326,
				"method": "rhf"
			},
			{
				"type": "unocc",
				"energy": 0.04834,
				"method": "rhf"
			}
		],
		"cosmo_sigma_profile": { 
			"-0.025": 0.0,
			"-0.024": 0.0,
			"-0.023": 0.0,
			"-0.022": 0.0,
			"-0.021": 0.0,
			"-0.02": 0.0,
			"-0.019": 0.0,
			"-0.018": 0.00813536066279,
			"-0.017": 0.452684947976,
			"-0.016": 0.579481471115,
			"-0.015": 0.76270283462,
			"-0.014": 0.750866996323,
			"-0.013": 0.523767557533,
			"-0.012": 0.436431109976,
			"-0.011": 1.32993039231,
			"-0.01": 1.83286503813,
			"-0.009": 3.99473715157,
			"-0.008": 6.85738972796,
			"-0.007": 7.7862113461,
			"-0.006": 8.43824986109,
			"-0.005": 9.37418307132,
			"-0.004": 10.2654283356,
			"-0.003": 14.7242619161,
			"-0.002": 18.2455669424,
			"-0.001": 24.7673436854,
			"0.0": 27.5010632377,
			"0.001": 23.6916887395,
			"0.002": 31.5288772494,
			"0.003": 25.4794671738,
			"0.004": 15.6377024701,
			"0.005": 5.66572061341,
			"0.006": 4.02908475289,
			"0.007": 4.95347865079,
			"0.008": 2.88032013242,
			"0.009": 3.67638332801,
			"0.01": 4.98916944017,
			"0.011": 3.3517144158,
			"0.012": 1.13961413825,
			"0.013": 0.0725676784894,
			"0.014": 0.0,
			"0.015": 0.0,
			"0.016": 0.0,
			"0.017": 0.0,
			"0.018": 0.0,
			"0.019": 0.0,
			"0.02": 0.0,
			"0.021": 0.0,
			"0.022": 0.0,
			"0.023": 0.0,
			"0.024": 0.0,
			"0.025": 0.0
		}
	}
}
