{
	 "smiles": "COC1=C2C=CC=CC2=C(C=C1)C(C)=O", 
	 "Tm": 338.15, 
	 "num_atms": 27, 
	 "gaussian": { 
		 "optdone": 1, 
		 "sigma_profile": "yes", 
		 "theory": "DFT", 
		 "functional": "B3LYP", 
		 "basiset": "6-31G**", 
		 "properties": { 
			 "R2extent": 5510.1714, 
			 "electric_dipole_moment_norm": 3.37206902954, 
			 "electric_quadrupole_moment_norm": 22.3260293828, 
			 "total_energy": -653.060217898, 
			 "HOMO_LUMO_gap": 0.15508, 
			 "cosmo_polarized_energy": -10.57, 
			 "cosmo_cavitation_energy": 30.02, 
			 "cosmo_dispersion_energy": -22.15, 
			 "cosmo_repulsion_energy": 1.7, 
			 "cosmo_total_nonelectrostatic_energy": 9.57, 
			 "SMD_solvation_energy": 6.34 
		},
		"coords": [
			{
				"x": 3.1648979238,
				"y": 3.4962197699,
				"z": 1.1171456463,
				"element": "C" 
			},
			{
				"x": 2.3988597379,
				"y": 2.4650492364,
				"z": 1.7252618819,
				"element": "O" 
			},
			{
				"x": 2.4934248809,
				"y": 1.205371985,
				"z": 1.2260670857,
				"element": "C" 
			},
			{
				"x": 1.705392428,
				"y": 0.2183783566,
				"z": 1.9064860803,
				"element": "C" 
			},
			{
				"x": 0.9357708913,
				"y": 0.5768048942,
				"z": 3.0426857381,
				"element": "C" 
			},
			{
				"x": 0.210968519,
				"y": -0.3692863255,
				"z": 3.7320590119,
				"element": "C" 
			},
			{
				"x": 0.2483189081,
				"y": -1.7156316553,
				"z": 3.3136710501,
				"element": "C" 
			},
			{
				"x": 0.9830927269,
				"y": -2.088487635,
				"z": 2.2079810504,
				"element": "C" 
			},
			{
				"x": 1.7195217991,
				"y": -1.1410937423,
				"z": 1.4431622285,
				"element": "C" 
			},
			{
				"x": 2.5110979871,
				"y": -1.4747670943,
				"z": 0.2855452045,
				"element": "C" 
			},
			{
				"x": 3.2857381197,
				"y": -0.4833641755,
				"z": -0.2960360572,
				"element": "C" 
			},
			{
				"x": 3.2857576315,
				"y": 0.8492338851,
				"z": 0.1511745301,
				"element": "C" 
			},
			{
				"x": 2.5716085883,
				"y": -2.8030533511,
				"z": -0.4136498685,
				"element": "C" 
			},
			{
				"x": 1.3863937687,
				"y": -3.7613839018,
				"z": -0.4066185579,
				"element": "C" 
			},
			{
				"x": 3.5569435451,
				"y": -3.0986369135,
				"z": -1.0778050499,
				"element": "O" 
			},
			{
				"x": 4.2398436234,
				"y": 3.2897562558,
				"z": 1.1854293854,
				"element": "H" 
			},
			{
				"x": 2.8889600807,
				"y": 3.6321122634,
				"z": 0.0644054158,
				"element": "H" 
			},
			{
				"x": 2.9352021292,
				"y": 4.4067251854,
				"z": 1.6719471172,
				"element": "H" 
			},
			{
				"x": 0.9399738513,
				"y": 1.61206159,
				"z": 3.3623849273,
				"element": "H" 
			},
			{
				"x": -0.3729824807,
				"y": -0.0847409729,
				"z": 4.602224677,
				"element": "H" 
			},
			{
				"x": -0.2981504908,
				"y": -2.4703690348,
				"z": 3.8722117625,
				"element": "H" 
			},
			{
				"x": 1.0127862082,
				"y": -3.1342878167,
				"z": 1.936454535,
				"element": "H" 
			},
			{
				"x": 3.8978128176,
				"y": -0.7603339034,
				"z": -1.1476839453,
				"element": "H" 
			},
			{
				"x": 3.8967265117,
				"y": 1.5800266017,
				"z": -0.3640052133,
				"element": "H" 
			},
			{
				"x": 1.3891196042,
				"y": -4.2903946117,
				"z": -1.3620060778,
				"element": "H" 
			},
			{
				"x": 0.4268014355,
				"y": -3.26260398,
				"z": -0.2548783267,
				"element": "H" 
			},
			{
				"x": 1.5126192544,
				"y": -4.51490491,
				"z": 0.379785769,
				"element": "H" 
			}
		],
		 "valence_orbital": [ 
			{
				"type": "occ",
				"energy": -0.31281,
				"method": "rhf"
			},
			{
				"type": "occ",
				"energy": -0.2664,
				"method": "rhf"
			},
			{
				"type": "occ",
				"energy": -0.24901,
				"method": "rhf"
			},
			{
				"type": "occ",
				"energy": -0.23848,
				"method": "rhf"
			},
			{
				"type": "occ",
				"energy": -0.20881,
				"method": "rhf"
			},
			{
				"type": "unocc",
				"energy": -0.05373,
				"method": "rhf"
			},
			{
				"type": "unocc",
				"energy": -0.01335,
				"method": "rhf"
			},
			{
				"type": "unocc",
				"energy": -0.00661,
				"method": "rhf"
			},
			{
				"type": "unocc",
				"energy": 0.05553,
				"method": "rhf"
			},
			{
				"type": "unocc",
				"energy": 0.09119,
				"method": "rhf"
			}
		],
		"cosmo_sigma_profile": { 
			"-0.025": 0.0,
			"-0.024": 0.0,
			"-0.023": 0.0,
			"-0.022": 0.0,
			"-0.021": 0.0,
			"-0.02": 0.0,
			"-0.019": 0.0,
			"-0.018": 0.0,
			"-0.017": 0.0,
			"-0.016": 0.0,
			"-0.015": 0.0,
			"-0.014": 0.0,
			"-0.013": 0.0,
			"-0.012": 0.0,
			"-0.011": 0.0,
			"-0.01": 0.0,
			"-0.009": 0.0,
			"-0.008": 0.8658717236,
			"-0.007": 4.76162976222,
			"-0.006": 15.923895236,
			"-0.005": 21.0831808064,
			"-0.004": 24.5619105064,
			"-0.003": 21.5226499833,
			"-0.002": 17.805690848,
			"-0.001": 15.61965158,
			"0.0": 13.9457832871,
			"0.001": 11.9752753516,
			"0.002": 18.2129474935,
			"0.003": 22.7800571294,
			"0.004": 18.5210559011,
			"0.005": 10.756146526,
			"0.006": 3.74335286118,
			"0.007": 2.26322737461,
			"0.008": 2.01533271954,
			"0.009": 1.1980635148,
			"0.01": 1.76313193639,
			"0.011": 2.7119555067,
			"0.012": 4.00158492921,
			"0.013": 3.0309419253,
			"0.014": 0.76058654555,
			"0.015": 0.0,
			"0.016": 0.0,
			"0.017": 0.0,
			"0.018": 0.0,
			"0.019": 0.0,
			"0.02": 0.0,
			"0.021": 0.0,
			"0.022": 0.0,
			"0.023": 0.0,
			"0.024": 0.0,
			"0.025": 0.0
		}
	}
}
