{
	 "smiles": "CCC1=CC=C(C=C1)C(=O)CCl", 
	 "Tm": 315.15, 
	 "num_atms": 23, 
	 "gaussian": { 
		 "optdone": 1, 
		 "sigma_profile": "yes", 
		 "theory": "DFT", 
		 "functional": "B3LYP", 
		 "basiset": "6-31G**", 
		 "properties": { 
			 "R2extent": 3819.918, 
			 "electric_dipole_moment_norm": 3.53023890126, 
			 "electric_quadrupole_moment_norm": 8.18222540083, 
			 "total_energy": -923.119701335, 
			 "HOMO_LUMO_gap": 0.18511, 
			 "cosmo_polarized_energy": -8.5, 
			 "cosmo_cavitation_energy": 28.44, 
			 "cosmo_dispersion_energy": -20.43, 
			 "cosmo_repulsion_energy": 1.65, 
			 "cosmo_total_nonelectrostatic_energy": 9.66, 
			 "SMD_solvation_energy": 5.08 
		},
		"coords": [
			{
				"x": 0.7943659813,
				"y": -1.0729582896,
				"z": -3.0460433851,
				"element": "C" 
			},
			{
				"x": 0.054348052,
				"y": -1.9329786958,
				"z": -2.0042128691,
				"element": "C" 
			},
			{
				"x": -0.0330891847,
				"y": -1.2611844741,
				"z": -0.6519834889,
				"element": "C" 
			},
			{
				"x": -1.0944636146,
				"y": -0.3935665828,
				"z": -0.3464669636,
				"element": "C" 
			},
			{
				"x": -1.157759946,
				"y": 0.2546696899,
				"z": 0.8800496156,
				"element": "C" 
			},
			{
				"x": -0.1559926208,
				"y": 0.0563223038,
				"z": 1.8452342903,
				"element": "C" 
			},
			{
				"x": 0.9077706206,
				"y": -0.8095364539,
				"z": 1.546698957,
				"element": "C" 
			},
			{
				"x": 0.9625398576,
				"y": -1.4573816733,
				"z": 0.3152480219,
				"element": "C" 
			},
			{
				"x": -0.2994105717,
				"y": 0.7566859788,
				"z": 3.1508959149,
				"element": "C" 
			},
			{
				"x": -1.2686623912,
				"y": 1.4534574433,
				"z": 3.4086172459,
				"element": "O" 
			},
			{
				"x": 0.7684481695,
				"y": 0.5793972249,
				"z": 4.2364988252,
				"element": "C" 
			},
			{
				"x": 2.3262678579,
				"y": 1.4045312124,
				"z": 3.7986249345,
				"element": "Cl" 
			},
			{
				"x": 0.8387624975,
				"y": -1.5859736355,
				"z": -4.0120937953,
				"element": "H" 
			},
			{
				"x": 1.8193470565,
				"y": -0.8625763489,
				"z": -2.7246039295,
				"element": "H" 
			},
			{
				"x": 0.2890961669,
				"y": -0.1131774322,
				"z": -3.193365029,
				"element": "H" 
			},
			{
				"x": -0.9562277992,
				"y": -2.1515223541,
				"z": -2.3688699981,
				"element": "H" 
			},
			{
				"x": 0.5666582227,
				"y": -2.8966647916,
				"z": -1.9013956534,
				"element": "H" 
			},
			{
				"x": -1.8797630004,
				"y": -0.2327240651,
				"z": -1.0810698966,
				"element": "H" 
			},
			{
				"x": -1.9800181874,
				"y": 0.9196271805,
				"z": 1.1222091878,
				"element": "H" 
			},
			{
				"x": 1.7029477627,
				"y": -0.975520946,
				"z": 2.265528847,
				"element": "H" 
			},
			{
				"x": 1.7910100958,
				"y": -2.1274958412,
				"z": 0.1000054669,
				"element": "H" 
			},
			{
				"x": 0.4011994207,
				"y": 1.0497052701,
				"z": 5.1465179446,
				"element": "H" 
			},
			{
				"x": 1.0044255544,
				"y": -0.4707347195,
				"z": 4.4185757569,
				"element": "H" 
			}
		],
		 "valence_orbital": [ 
			{
				"type": "occ",
				"energy": -0.31539,
				"method": "rhf"
			},
			{
				"type": "occ",
				"energy": -0.3045,
				"method": "rhf"
			},
			{
				"type": "occ",
				"energy": -0.26295,
				"method": "rhf"
			},
			{
				"type": "occ",
				"energy": -0.2588,
				"method": "rhf"
			},
			{
				"type": "occ",
				"energy": -0.2544,
				"method": "rhf"
			},
			{
				"type": "unocc",
				"energy": -0.06929,
				"method": "rhf"
			},
			{
				"type": "unocc",
				"energy": -0.01296,
				"method": "rhf"
			},
			{
				"type": "unocc",
				"energy": 0.00344,
				"method": "rhf"
			},
			{
				"type": "unocc",
				"energy": 0.05288,
				"method": "rhf"
			},
			{
				"type": "unocc",
				"energy": 0.08482,
				"method": "rhf"
			}
		],
		"cosmo_sigma_profile": { 
			"-0.025": 0.0,
			"-0.024": 0.0,
			"-0.023": 0.0,
			"-0.022": 0.0,
			"-0.021": 0.0,
			"-0.02": 0.0,
			"-0.019": 0.0,
			"-0.018": 0.0,
			"-0.017": 0.0,
			"-0.016": 0.0,
			"-0.015": 0.0,
			"-0.014": 0.0,
			"-0.013": 0.0,
			"-0.012": 0.0,
			"-0.011": 0.0,
			"-0.01": 0.344628137662,
			"-0.009": 2.74078366753,
			"-0.008": 4.22356590487,
			"-0.007": 4.99599127684,
			"-0.006": 8.43673481982,
			"-0.005": 12.4490677213,
			"-0.004": 15.7032067452,
			"-0.003": 18.8786418693,
			"-0.002": 18.2411417855,
			"-0.001": 21.0268423083,
			"0.0": 21.134167328,
			"0.001": 20.6470427393,
			"0.002": 14.9400796427,
			"0.003": 16.5332952044,
			"0.004": 19.6317241243,
			"0.005": 9.76667822763,
			"0.006": 4.68821013465,
			"0.007": 1.3131239464,
			"0.008": 1.71946819551,
			"0.009": 2.00226386994,
			"0.01": 2.46019320256,
			"0.011": 4.05887494907,
			"0.012": 1.62652419394,
			"0.013": 0.0544958453192,
			"0.014": 0.0,
			"0.015": 0.0,
			"0.016": 0.0,
			"0.017": 0.0,
			"0.018": 0.0,
			"0.019": 0.0,
			"0.02": 0.0,
			"0.021": 0.0,
			"0.022": 0.0,
			"0.023": 0.0,
			"0.024": 0.0,
			"0.025": 0.0
		}
	}
}
