{
	 "smiles": "CCOC(=O)C(NC(C)=O)C#N", 
	 "Tm": 402.15, 
	 "num_atms": 22, 
	 "gaussian": { 
		 "optdone": 1, 
		 "sigma_profile": "yes", 
		 "theory": "DFT", 
		 "functional": "B3LYP", 
		 "basiset": "6-31G**", 
		 "properties": { 
			 "R2extent": 2928.3682, 
			 "electric_dipole_moment_norm": 6.05356732101, 
			 "electric_quadrupole_moment_norm": 13.1724421039, 
			 "total_energy": -607.945587265, 
			 "HOMO_LUMO_gap": 0.24144, 
			 "cosmo_polarized_energy": -17.23, 
			 "cosmo_cavitation_energy": 28.21, 
			 "cosmo_dispersion_energy": -18.79, 
			 "cosmo_repulsion_energy": 1.59, 
			 "cosmo_total_nonelectrostatic_energy": 11.01, 
			 "SMD_solvation_energy": 8.29 
		},
		"coords": [
			{
				"x": 0.8953163088,
				"y": 0.1270965321,
				"z": -2.5289459878,
				"element": "C" 
			},
			{
				"x": 0.9471624715,
				"y": -1.0760865791,
				"z": -1.6021247352,
				"element": "C" 
			},
			{
				"x": 0.5193710208,
				"y": -0.7220669638,
				"z": -0.2553199161,
				"element": "O" 
			},
			{
				"x": 1.4582603965,
				"y": -0.2144624313,
				"z": 0.5598946869,
				"element": "C" 
			},
			{
				"x": 2.6168200876,
				"y": -0.0292317501,
				"z": 0.2789079173,
				"element": "O" 
			},
			{
				"x": 0.8585625672,
				"y": 0.0778329064,
				"z": 1.9538717647,
				"element": "C" 
			},
			{
				"x": -0.4776079548,
				"y": 0.6286470351,
				"z": 1.8906002566,
				"element": "N" 
			},
			{
				"x": -0.7637360259,
				"y": 1.8552586144,
				"z": 2.4521880387,
				"element": "C" 
			},
			{
				"x": -2.2084609954,
				"y": 2.3000653858,
				"z": 2.3213308672,
				"element": "C" 
			},
			{
				"x": 0.0850269733,
				"y": 2.5188656868,
				"z": 3.0273527728,
				"element": "O" 
			},
			{
				"x": 0.9021193223,
				"y": -1.1614396395,
				"z": 2.7572587077,
				"element": "C" 
			},
			{
				"x": 0.9173503068,
				"y": -2.1476594225,
				"z": 3.3685273596,
				"element": "N" 
			},
			{
				"x": -0.1066113051,
				"y": 0.5656978693,
				"z": -2.5471032612,
				"element": "H" 
			},
			{
				"x": 1.1516123757,
				"y": -0.1836625821,
				"z": -3.5469454554,
				"element": "H" 
			},
			{
				"x": 1.6121501675,
				"y": 0.8893912855,
				"z": -2.214368142,
				"element": "H" 
			},
			{
				"x": 0.2455139838,
				"y": -1.8553241169,
				"z": -1.9062086908,
				"element": "H" 
			},
			{
				"x": 1.9544553194,
				"y": -1.4937559851,
				"z": -1.5435176308,
				"element": "H" 
			},
			{
				"x": 1.4869981435,
				"y": 0.8361021472,
				"z": 2.431917013,
				"element": "H" 
			},
			{
				"x": -1.1802745176,
				"y": 0.1089137634,
				"z": 1.3869065407,
				"element": "H" 
			},
			{
				"x": -2.2242702776,
				"y": 3.3566073155,
				"z": 2.0466413638,
				"element": "H" 
			},
			{
				"x": -2.779343343,
				"y": 1.7234999509,
				"z": 1.5886306823,
				"element": "H" 
			},
			{
				"x": -2.6945150255,
				"y": 2.2048109778,
				"z": 3.2973058482,
				"element": "H" 
			}
		],
		 "valence_orbital": [ 
			{
				"type": "occ",
				"energy": -0.3423,
				"method": "rhf"
			},
			{
				"type": "occ",
				"energy": -0.32596,
				"method": "rhf"
			},
			{
				"type": "occ",
				"energy": -0.30867,
				"method": "rhf"
			},
			{
				"type": "occ",
				"energy": -0.27467,
				"method": "rhf"
			},
			{
				"type": "occ",
				"energy": -0.26986,
				"method": "rhf"
			},
			{
				"type": "unocc",
				"energy": -0.02842,
				"method": "rhf"
			},
			{
				"type": "unocc",
				"energy": 0.00272,
				"method": "rhf"
			},
			{
				"type": "unocc",
				"energy": 0.02212,
				"method": "rhf"
			},
			{
				"type": "unocc",
				"energy": 0.04491,
				"method": "rhf"
			},
			{
				"type": "unocc",
				"energy": 0.06751,
				"method": "rhf"
			}
		],
		"cosmo_sigma_profile": { 
			"-0.025": 0.0,
			"-0.024": 0.0,
			"-0.023": 0.0,
			"-0.022": 0.0,
			"-0.021": 0.0,
			"-0.02": 0.0,
			"-0.019": 0.0,
			"-0.018": 0.0,
			"-0.017": 0.0,
			"-0.016": 0.0,
			"-0.015": 0.467680539473,
			"-0.014": 1.32462079387,
			"-0.013": 1.11266466443,
			"-0.012": 1.07038818214,
			"-0.011": 1.40687747104,
			"-0.01": 2.07800366049,
			"-0.009": 1.857131157,
			"-0.008": 2.82590795721,
			"-0.007": 4.22760269327,
			"-0.006": 11.8007971248,
			"-0.005": 16.9356451241,
			"-0.004": 24.2458629017,
			"-0.003": 22.9422154697,
			"-0.002": 22.1436765992,
			"-0.001": 18.3256100727,
			"0.0": 12.4557449912,
			"0.001": 8.53175863426,
			"0.002": 6.38364137918,
			"0.003": 5.95579556959,
			"0.004": 5.5215329026,
			"0.005": 4.72668944032,
			"0.006": 4.57946782906,
			"0.007": 6.48925137694,
			"0.008": 5.23700219919,
			"0.009": 7.0183460942,
			"0.01": 7.63028177299,
			"0.011": 6.33479382215,
			"0.012": 5.53974207683,
			"0.013": 3.38404881165,
			"0.014": 1.38140353403,
			"0.015": 0.00418921177,
			"0.016": 0.0,
			"0.017": 0.0,
			"0.018": 0.0,
			"0.019": 0.0,
			"0.02": 0.0,
			"0.021": 0.0,
			"0.022": 0.0,
			"0.023": 0.0,
			"0.024": 0.0,
			"0.025": 0.0
		}
	}
}
