{
	 "smiles": "OCC1=CC(=CC=C1)S(=O)(=O)N1CCOCC1", 
	 "Tm": 370.15, 
	 "num_atms": 32, 
	 "gaussian": { 
		 "optdone": 1, 
		 "sigma_profile": "yes", 
		 "theory": "DFT", 
		 "functional": "B3LYP", 
		 "basiset": "6-31G**", 
		 "properties": { 
			 "R2extent": 4848.5722, 
			 "electric_dipole_moment_norm": 5.24673512387, 
			 "electric_quadrupole_moment_norm": 18.3654393261, 
			 "total_energy": -1181.93768751, 
			 "HOMO_LUMO_gap": 0.20716, 
			 "cosmo_polarized_energy": -20.13, 
			 "cosmo_cavitation_energy": 35.35, 
			 "cosmo_dispersion_energy": -25.17, 
			 "cosmo_repulsion_energy": 1.92, 
			 "cosmo_total_nonelectrostatic_energy": 12.1, 
			 "SMD_solvation_energy": 3.95 
		},
		"coords": [
			{
				"x": -1.6914486862,
				"y": -2.7131119135,
				"z": 1.6557901223,
				"element": "O" 
			},
			{
				"x": -1.8229294287,
				"y": -2.9528849995,
				"z": 0.2638149877,
				"element": "C" 
			},
			{
				"x": -1.3800486933,
				"y": -1.7861898402,
				"z": -0.6012967427,
				"element": "C" 
			},
			{
				"x": -1.5180847187,
				"y": -0.4751505977,
				"z": -0.133284716,
				"element": "C" 
			},
			{
				"x": -1.1456181646,
				"y": 0.593980526,
				"z": -0.9514539884,
				"element": "C" 
			},
			{
				"x": -0.6500381644,
				"y": 0.3849159695,
				"z": -2.2414687043,
				"element": "C" 
			},
			{
				"x": -0.511842361,
				"y": -0.9245097332,
				"z": -2.7036147418,
				"element": "C" 
			},
			{
				"x": -0.8653760265,
				"y": -1.9989176143,
				"z": -1.8865128484,
				"element": "C" 
			},
			{
				"x": -1.2820472822,
				"y": 2.2773744759,
				"z": -0.3231523963,
				"element": "S" 
			},
			{
				"x": -2.3224914241,
				"y": 2.2779901992,
				"z": 0.7072187803,
				"element": "O" 
			},
			{
				"x": -1.3212560597,
				"y": 3.1632056961,
				"z": -1.4885192816,
				"element": "O" 
			},
			{
				"x": 0.158159044,
				"y": 2.6229673784,
				"z": 0.4646539732,
				"element": "N" 
			},
			{
				"x": 1.3691713019,
				"y": 2.7678993045,
				"z": -0.3645031757,
				"element": "C" 
			},
			{
				"x": 2.5576482086,
				"y": 3.0064437283,
				"z": 0.5619202239,
				"element": "C" 
			},
			{
				"x": 2.7920045293,
				"y": 1.9184874599,
				"z": 1.4502911952,
				"element": "O" 
			},
			{
				"x": 1.6148157468,
				"y": 1.2528552645,
				"z": 1.9076075396,
				"element": "C" 
			},
			{
				"x": 0.3733102327,
				"y": 2.1375334584,
				"z": 1.8411715504,
				"element": "C" 
			},
			{
				"x": -0.7523128453,
				"y": -2.5839724185,
				"z": 1.8442458272,
				"element": "H" 
			},
			{
				"x": -1.2881010635,
				"y": -3.8641456856,
				"z": -0.0462618681,
				"element": "H" 
			},
			{
				"x": -2.8908032478,
				"y": -3.1444068712,
				"z": 0.1055163344,
				"element": "H" 
			},
			{
				"x": -1.93676821,
				"y": -0.2969038961,
				"z": 0.8510132504,
				"element": "H" 
			},
			{
				"x": -0.4057666345,
				"y": 1.2339569967,
				"z": -2.8697047412,
				"element": "H" 
			},
			{
				"x": -0.1275381219,
				"y": -1.1059877122,
				"z": -3.7029008927,
				"element": "H" 
			},
			{
				"x": -0.7474838191,
				"y": -3.0156545394,
				"z": -2.2539189693,
				"element": "H" 
			},
			{
				"x": 1.2395263387,
				"y": 3.6131979238,
				"z": -1.0448161353,
				"element": "H" 
			},
			{
				"x": 1.5591971066,
				"y": 1.8663760795,
				"z": -0.9668215098,
				"element": "H" 
			},
			{
				"x": 3.4677898049,
				"y": 3.1243514244,
				"z": -0.0338116923,
				"element": "H" 
			},
			{
				"x": 2.4010444443,
				"y": 3.9397764118,
				"z": 1.1237185304,
				"element": "H" 
			},
			{
				"x": 1.7997431371,
				"y": 0.9450267947,
				"z": 2.9430910564,
				"element": "H" 
			},
			{
				"x": 1.4466049497,
				"y": 0.3433412179,
				"z": 1.3101311238,
				"element": "H" 
			},
			{
				"x": -0.5107158453,
				"y": 1.593651329,
				"z": 2.179209205,
				"element": "H" 
			},
			{
				"x": 0.4889559522,
				"y": 2.9998041831,
				"z": 2.5089487036,
				"element": "H" 
			}
		],
		 "valence_orbital": [ 
			{
				"type": "occ",
				"energy": -0.29168,
				"method": "rhf"
			},
			{
				"type": "occ",
				"energy": -0.28086,
				"method": "rhf"
			},
			{
				"type": "occ",
				"energy": -0.26688,
				"method": "rhf"
			},
			{
				"type": "occ",
				"energy": -0.26149,
				"method": "rhf"
			},
			{
				"type": "occ",
				"energy": -0.24876,
				"method": "rhf"
			},
			{
				"type": "unocc",
				"energy": -0.0416,
				"method": "rhf"
			},
			{
				"type": "unocc",
				"energy": -0.02764,
				"method": "rhf"
			},
			{
				"type": "unocc",
				"energy": 0.05443,
				"method": "rhf"
			},
			{
				"type": "unocc",
				"energy": 0.06277,
				"method": "rhf"
			},
			{
				"type": "unocc",
				"energy": 0.07624,
				"method": "rhf"
			}
		],
		"cosmo_sigma_profile": { 
			"-0.025": 0.0,
			"-0.024": 0.0,
			"-0.023": 0.0,
			"-0.022": 0.0,
			"-0.021": 0.0,
			"-0.02": 0.0,
			"-0.019": 0.0,
			"-0.018": 0.0,
			"-0.017": 0.0,
			"-0.016": 0.369533947495,
			"-0.015": 0.879247850356,
			"-0.014": 0.972806926264,
			"-0.013": 0.792141669625,
			"-0.012": 1.28068459378,
			"-0.011": 0.497711799139,
			"-0.01": 0.85530995816,
			"-0.009": 0.766391595604,
			"-0.008": 0.994676459313,
			"-0.007": 5.76836731007,
			"-0.006": 20.4941069078,
			"-0.005": 32.6557497639,
			"-0.004": 31.5833269294,
			"-0.003": 27.5927694422,
			"-0.002": 17.9690418031,
			"-0.001": 13.5768020188,
			"0.0": 12.1474260626,
			"0.001": 11.1291656232,
			"0.002": 14.4311789317,
			"0.003": 14.1535076279,
			"0.004": 8.09355060617,
			"0.005": 6.97312528554,
			"0.006": 5.96935148209,
			"0.007": 6.18086070344,
			"0.008": 6.31304617659,
			"0.009": 5.59492270903,
			"0.01": 8.09095154044,
			"0.011": 10.389350933,
			"0.012": 7.0279755144,
			"0.013": 3.46792857087,
			"0.014": 1.39815852191,
			"0.015": 0.0,
			"0.016": 0.0,
			"0.017": 0.0,
			"0.018": 0.0,
			"0.019": 0.0,
			"0.02": 0.0,
			"0.021": 0.0,
			"0.022": 0.0,
			"0.023": 0.0,
			"0.024": 0.0,
			"0.025": 0.0
		}
	}
}
