{
	 "smiles": "ClC(C=O)C=O", 
	 "Tm": 415.15, 
	 "num_atms": 9, 
	 "gaussian": { 
		 "optdone": 1, 
		 "sigma_profile": "yes", 
		 "theory": "DFT", 
		 "functional": "B3LYP", 
		 "basiset": "6-31G**", 
		 "properties": { 
			 "R2extent": 1525.2007, 
			 "electric_dipole_moment_norm": 2.05937073156, 
			 "electric_quadrupole_moment_norm": 4.51376064053, 
			 "total_energy": -726.723813408, 
			 "HOMO_LUMO_gap": 0.20401, 
			 "cosmo_polarized_energy": -8.68, 
			 "cosmo_cavitation_energy": 15.92, 
			 "cosmo_dispersion_energy": -11.47, 
			 "cosmo_repulsion_energy": 1.03, 
			 "cosmo_total_nonelectrostatic_energy": 5.47, 
			 "SMD_solvation_energy": 4.72 
		},
		"coords": [
			{
				"x": -2.0380290415,
				"y": -2.5553836496,
				"z": 0.7772392838,
				"element": "Cl" 
			},
			{
				"x": -1.5581992572,
				"y": -0.9109754192,
				"z": 0.1761382125,
				"element": "C" 
			},
			{
				"x": -2.8207522358,
				"y": -0.0634185843,
				"z": 0.0219666083,
				"element": "C" 
			},
			{
				"x": -3.0084638419,
				"y": 0.6365880931,
				"z": -0.9437465294,
				"element": "O" 
			},
			{
				"x": -0.8045164993,
				"y": -1.0482557792,
				"z": -1.147171095,
				"element": "C" 
			},
			{
				"x": 0.2826198645,
				"y": -0.5577541312,
				"z": -1.3202914347,
				"element": "O" 
			},
			{
				"x": -0.8946755353,
				"y": -0.4678935091,
				"z": 0.9245357071,
				"element": "H" 
			},
			{
				"x": -3.5440463288,
				"y": -0.1414205654,
				"z": 0.858196328,
				"element": "H" 
			},
			{
				"x": -1.3343371248,
				"y": -1.6324864549,
				"z": -1.9246670806,
				"element": "H" 
			}
		],
		 "valence_orbital": [ 
			{
				"type": "occ",
				"energy": -0.40171,
				"method": "rhf"
			},
			{
				"type": "occ",
				"energy": -0.34419,
				"method": "rhf"
			},
			{
				"type": "occ",
				"energy": -0.33884,
				"method": "rhf"
			},
			{
				"type": "occ",
				"energy": -0.29898,
				"method": "rhf"
			},
			{
				"type": "occ",
				"energy": -0.27786,
				"method": "rhf"
			},
			{
				"type": "unocc",
				"energy": -0.07385,
				"method": "rhf"
			},
			{
				"type": "unocc",
				"energy": -0.05843,
				"method": "rhf"
			},
			{
				"type": "unocc",
				"energy": 0.01599,
				"method": "rhf"
			},
			{
				"type": "unocc",
				"energy": 0.09921,
				"method": "rhf"
			},
			{
				"type": "unocc",
				"energy": 0.1157,
				"method": "rhf"
			}
		],
		"cosmo_sigma_profile": { 
			"-0.025": 0.0,
			"-0.024": 0.0,
			"-0.023": 0.0,
			"-0.022": 0.0,
			"-0.021": 0.0,
			"-0.02": 0.0,
			"-0.019": 0.0,
			"-0.018": 0.0,
			"-0.017": 0.0,
			"-0.016": 0.0,
			"-0.015": 0.0,
			"-0.014": 0.0,
			"-0.013": 0.0,
			"-0.012": 0.155972650065,
			"-0.011": 2.51337501365,
			"-0.01": 3.09485849598,
			"-0.009": 6.56198978658,
			"-0.008": 7.88492292637,
			"-0.007": 5.46641208001,
			"-0.006": 5.13285204494,
			"-0.005": 5.38951324067,
			"-0.004": 6.60251197776,
			"-0.003": 5.12921382574,
			"-0.002": 5.73791000583,
			"-0.001": 5.47268843023,
			"0.0": 6.0461439901,
			"0.001": 6.15059187481,
			"0.002": 7.23010076066,
			"0.003": 10.5512050661,
			"0.004": 10.0107249942,
			"0.005": 3.82329678448,
			"0.006": 2.95330742868,
			"0.007": 4.3877582214,
			"0.008": 5.55319564854,
			"0.009": 7.43404468583,
			"0.01": 5.38487584802,
			"0.011": 0.883385940361,
			"0.012": 0.0,
			"0.013": 0.0,
			"0.014": 0.0,
			"0.015": 0.0,
			"0.016": 0.0,
			"0.017": 0.0,
			"0.018": 0.0,
			"0.019": 0.0,
			"0.02": 0.0,
			"0.021": 0.0,
			"0.022": 0.0,
			"0.023": 0.0,
			"0.024": 0.0,
			"0.025": 0.0
		}
	}
}
