{
	 "smiles": "CC1=CC=CC(C)=C1OCCO", 
	 "Tm": 344.15, 
	 "num_atms": 26, 
	 "gaussian": { 
		 "optdone": 1, 
		 "sigma_profile": "yes", 
		 "theory": "DFT", 
		 "functional": "B3LYP", 
		 "basiset": "6-31G**", 
		 "properties": { 
			 "R2extent": 3028.2662, 
			 "electric_dipole_moment_norm": 2.02648548231, 
			 "electric_quadrupole_moment_norm": 7.65339307497, 
			 "total_energy": -539.936951921, 
			 "HOMO_LUMO_gap": 0.23275, 
			 "cosmo_polarized_energy": -9.83, 
			 "cosmo_cavitation_energy": 28.33, 
			 "cosmo_dispersion_energy": -20.25, 
			 "cosmo_repulsion_energy": 1.63, 
			 "cosmo_total_nonelectrostatic_energy": 9.71, 
			 "SMD_solvation_energy": 5.14 
		},
		"coords": [
			{
				"x": 0.4111557113,
				"y": 0.7845058161,
				"z": -1.56080303,
				"element": "C" 
			},
			{
				"x": 1.2707499936,
				"y": -0.3840033925,
				"z": -1.1423999381,
				"element": "C" 
			},
			{
				"x": 2.4219408753,
				"y": -0.7338681094,
				"z": -1.8546800313,
				"element": "C" 
			},
			{
				"x": 3.1987919115,
				"y": -1.8264340015,
				"z": -1.4672590061,
				"element": "C" 
			},
			{
				"x": 2.8209391296,
				"y": -2.5910434204,
				"z": -0.3663581366,
				"element": "C" 
			},
			{
				"x": 1.6728663977,
				"y": -2.278203198,
				"z": 0.3745105225,
				"element": "C" 
			},
			{
				"x": 1.2588358342,
				"y": -3.1220788704,
				"z": 1.5573727462,
				"element": "C" 
			},
			{
				"x": 0.9177369,
				"y": -1.1637458053,
				"z": -0.0264723791,
				"element": "C" 
			},
			{
				"x": -0.2546430881,
				"y": -0.8561105625,
				"z": 0.647928286,
				"element": "O" 
			},
			{
				"x": -0.1085722124,
				"y": -0.0319448005,
				"z": 1.8049887732,
				"element": "C" 
			},
			{
				"x": -1.3868060699,
				"y": -0.111202013,
				"z": 2.6145189604,
				"element": "C" 
			},
			{
				"x": -1.445699762,
				"y": -1.3810030264,
				"z": 3.2483641633,
				"element": "O" 
			},
			{
				"x": -0.6486337142,
				"y": 0.5140380554,
				"z": -1.5610655217,
				"element": "H" 
			},
			{
				"x": 0.6842172081,
				"y": 1.129629455,
				"z": -2.5617668974,
				"element": "H" 
			},
			{
				"x": 0.5220357222,
				"y": 1.6368083203,
				"z": -0.878841288,
				"element": "H" 
			},
			{
				"x": 2.7060380158,
				"y": -0.1451604023,
				"z": -2.7234556725,
				"element": "H" 
			},
			{
				"x": 4.0890483891,
				"y": -2.0881159752,
				"z": -2.0321718076,
				"element": "H" 
			},
			{
				"x": 3.4159797458,
				"y": -3.4533801043,
				"z": -0.0748405788,
				"element": "H" 
			},
			{
				"x": 1.8800357792,
				"y": -2.9068669569,
				"z": 2.4362320365,
				"element": "H" 
			},
			{
				"x": 1.3815644791,
				"y": -4.1868392277,
				"z": 1.3333468471,
				"element": "H" 
			},
			{
				"x": 0.2207389456,
				"y": -2.9357814506,
				"z": 1.8368044363,
				"element": "H" 
			},
			{
				"x": 0.7348668563,
				"y": -0.3707022844,
				"z": 2.4201976813,
				"element": "H" 
			},
			{
				"x": 0.0778802798,
				"y": 1.0121184854,
				"z": 1.512137801,
				"element": "H" 
			},
			{
				"x": -2.238606121,
				"y": 0.0488092268,
				"z": 1.937656905,
				"element": "H" 
			},
			{
				"x": -1.3831923242,
				"y": 0.706598552,
				"z": 3.3540217553,
				"element": "H" 
			},
			{
				"x": -2.3557688822,
				"y": -1.5444243097,
				"z": 3.5218333731,
				"element": "H" 
			}
		],
		 "valence_orbital": [ 
			{
				"type": "occ",
				"energy": -0.31523,
				"method": "rhf"
			},
			{
				"type": "occ",
				"energy": -0.27321,
				"method": "rhf"
			},
			{
				"type": "occ",
				"energy": -0.26281,
				"method": "rhf"
			},
			{
				"type": "occ",
				"energy": -0.2276,
				"method": "rhf"
			},
			{
				"type": "occ",
				"energy": -0.22301,
				"method": "rhf"
			},
			{
				"type": "unocc",
				"energy": 0.00974,
				"method": "rhf"
			},
			{
				"type": "unocc",
				"energy": 0.01376,
				"method": "rhf"
			},
			{
				"type": "unocc",
				"energy": 0.07058,
				"method": "rhf"
			},
			{
				"type": "unocc",
				"energy": 0.09932,
				"method": "rhf"
			},
			{
				"type": "unocc",
				"energy": 0.10884,
				"method": "rhf"
			}
		],
		"cosmo_sigma_profile": { 
			"-0.025": 0.0,
			"-0.024": 0.0,
			"-0.023": 0.0,
			"-0.022": 0.0,
			"-0.021": 0.0,
			"-0.02": 0.0,
			"-0.019": 0.0,
			"-0.018": 0.0,
			"-0.017": 0.0,
			"-0.016": 0.605905265967,
			"-0.015": 0.995819918913,
			"-0.014": 1.451611435,
			"-0.013": 0.503703911941,
			"-0.012": 0.95973679299,
			"-0.011": 1.05963191838,
			"-0.01": 0.597785343083,
			"-0.009": 0.617899790422,
			"-0.008": 1.1694501472,
			"-0.007": 1.07746737612,
			"-0.006": 1.24226796202,
			"-0.005": 10.5094043262,
			"-0.004": 26.3823680273,
			"-0.003": 28.2693315987,
			"-0.002": 21.9804856482,
			"-0.001": 16.7402055225,
			"0.0": 19.4323190275,
			"0.001": 16.5900605352,
			"0.002": 10.9133694558,
			"0.003": 8.60019140032,
			"0.004": 11.380018579,
			"0.005": 10.2522098727,
			"0.006": 10.4696815181,
			"0.007": 5.8279212781,
			"0.008": 2.47582434049,
			"0.009": 3.22727805959,
			"0.01": 1.92586613006,
			"0.011": 2.61984066765,
			"0.012": 2.26825232122,
			"0.013": 1.18048457299,
			"0.014": 0.712660393484,
			"0.015": 0.0105468539034,
			"0.016": 0.0,
			"0.017": 0.0,
			"0.018": 0.0,
			"0.019": 0.0,
			"0.02": 0.0,
			"0.021": 0.0,
			"0.022": 0.0,
			"0.023": 0.0,
			"0.024": 0.0,
			"0.025": 0.0
		}
	}
}
