{
	 "smiles": "COC1=CC=C(C=C1)S(=O)(=O)C1=COC(=C1)S(N)(=O)=O", 
	 "Tm": 391.15, 
	 "num_atms": 31, 
	 "gaussian": { 
		 "optdone": 1, 
		 "sigma_profile": "yes", 
		 "theory": "DFT", 
		 "functional": "B3LYP", 
		 "basiset": "6-31G**", 
		 "properties": { 
			 "R2extent": 9418.7573, 
			 "electric_dipole_moment_norm": 3.71510199187, 
			 "electric_quadrupole_moment_norm": 49.2504965931, 
			 "total_energy": -1728.07509692, 
			 "HOMO_LUMO_gap": 0.19524, 
			 "cosmo_polarized_energy": -27.88, 
			 "cosmo_cavitation_energy": 39.96, 
			 "cosmo_dispersion_energy": -29.08, 
			 "cosmo_repulsion_energy": 2.16, 
			 "cosmo_total_nonelectrostatic_energy": 13.04, 
			 "SMD_solvation_energy": 7.53 
		},
		"coords": [
			{
				"x": -4.5810080305,
				"y": -0.7743468697,
				"z": -3.1289390211,
				"element": "C" 
			},
			{
				"x": -4.2185591344,
				"y": -0.9235380711,
				"z": -1.7610270823,
				"element": "O" 
			},
			{
				"x": -2.9051662706,
				"y": -0.8944211614,
				"z": -1.427398018,
				"element": "C" 
			},
			{
				"x": -1.8556741474,
				"y": -0.7285877357,
				"z": -2.3447112015,
				"element": "C" 
			},
			{
				"x": -0.5387561652,
				"y": -0.7121097612,
				"z": -1.8886617801,
				"element": "C" 
			},
			{
				"x": -0.2727716369,
				"y": -0.8589790456,
				"z": -0.5276430663,
				"element": "C" 
			},
			{
				"x": -1.3146618999,
				"y": -1.0370586466,
				"z": 0.3922126787,
				"element": "C" 
			},
			{
				"x": -2.6253466682,
				"y": -1.0530190115,
				"z": -0.058096163,
				"element": "C" 
			},
			{
				"x": 1.4173425287,
				"y": -0.8349705619,
				"z": 0.0484076532,
				"element": "S" 
			},
			{
				"x": 2.2925691769,
				"y": -1.2400866208,
				"z": -1.062924584,
				"element": "O" 
			},
			{
				"x": 1.4575945929,
				"y": -1.5035787153,
				"z": 1.3559447594,
				"element": "O" 
			},
			{
				"x": 1.774840636,
				"y": 0.8855739968,
				"z": 0.3344549932,
				"element": "C" 
			},
			{
				"x": 2.6160586278,
				"y": 1.6348129074,
				"z": -0.4374023724,
				"element": "C" 
			},
			{
				"x": 2.7165112668,
				"y": 2.8885650558,
				"z": 0.0669421225,
				"element": "O" 
			},
			{
				"x": 1.9225510861,
				"y": 2.9271460854,
				"z": 1.1809189718,
				"element": "C" 
			},
			{
				"x": 1.3206353844,
				"y": 1.72621566,
				"z": 1.4019431429,
				"element": "C" 
			},
			{
				"x": 1.824735404,
				"y": 4.4627091763,
				"z": 2.0699298687,
				"element": "S" 
			},
			{
				"x": 3.3490928416,
				"y": 4.7510210888,
				"z": 2.6822738398,
				"element": "N" 
			},
			{
				"x": 1.569513439,
				"y": 5.5234046561,
				"z": 1.1043552836,
				"element": "O" 
			},
			{
				"x": 0.9570893297,
				"y": 4.1750943754,
				"z": 3.2057458671,
				"element": "O" 
			},
			{
				"x": -5.669845535,
				"y": -0.8258559583,
				"z": -3.155805269,
				"element": "H" 
			},
			{
				"x": -4.1647509797,
				"y": -1.5807804246,
				"z": -3.7447667315,
				"element": "H" 
			},
			{
				"x": -4.2540797759,
				"y": 0.1936726171,
				"z": -3.5275595314,
				"element": "H" 
			},
			{
				"x": -2.0519763568,
				"y": -0.6200722234,
				"z": -3.4041936419,
				"element": "H" 
			},
			{
				"x": 0.2817615174,
				"y": -0.6043701015,
				"z": -2.590023202,
				"element": "H" 
			},
			{
				"x": -1.0878442765,
				"y": -1.1830630775,
				"z": 1.44272841,
				"element": "H" 
			},
			{
				"x": -3.4550784771,
				"y": -1.1941187629,
				"z": 0.6260070648,
				"element": "H" 
			},
			{
				"x": 3.1920943733,
				"y": 1.409062706,
				"z": -1.3205718266,
				"element": "H" 
			},
			{
				"x": 0.6542818316,
				"y": 1.4789960577,
				"z": 2.2136774758,
				"element": "H" 
			},
			{
				"x": 3.6586745633,
				"y": 4.0582832325,
				"z": 3.3559764012,
				"element": "H" 
			},
			{
				"x": 4.0352727547,
				"y": 4.9788991335,
				"z": 1.9704049585,
				"element": "H" 
			}
		],
		 "valence_orbital": [ 
			{
				"type": "occ",
				"energy": -0.30588,
				"method": "rhf"
			},
			{
				"type": "occ",
				"energy": -0.29836,
				"method": "rhf"
			},
			{
				"type": "occ",
				"energy": -0.27842,
				"method": "rhf"
			},
			{
				"type": "occ",
				"energy": -0.27174,
				"method": "rhf"
			},
			{
				"type": "occ",
				"energy": -0.24659,
				"method": "rhf"
			},
			{
				"type": "unocc",
				"energy": -0.05135,
				"method": "rhf"
			},
			{
				"type": "unocc",
				"energy": -0.03474,
				"method": "rhf"
			},
			{
				"type": "unocc",
				"energy": -0.02748,
				"method": "rhf"
			},
			{
				"type": "unocc",
				"energy": 0.0066,
				"method": "rhf"
			},
			{
				"type": "unocc",
				"energy": 0.04115,
				"method": "rhf"
			}
		],
		"cosmo_sigma_profile": { 
			"-0.025": 0.0,
			"-0.024": 0.0,
			"-0.023": 0.0,
			"-0.022": 0.0,
			"-0.021": 0.0,
			"-0.02": 0.0,
			"-0.019": 0.0,
			"-0.018": 0.0,
			"-0.017": 0.0714706521441,
			"-0.016": 1.89624522641,
			"-0.015": 3.03911012043,
			"-0.014": 2.25639305095,
			"-0.013": 2.69417799767,
			"-0.012": 3.49094441043,
			"-0.011": 3.86899158693,
			"-0.01": 3.31468040918,
			"-0.009": 4.62526813846,
			"-0.008": 6.00088078411,
			"-0.007": 13.4575765561,
			"-0.006": 19.2876155071,
			"-0.005": 19.0656927097,
			"-0.004": 18.2745741459,
			"-0.003": 19.9711459504,
			"-0.002": 20.9210557654,
			"-0.001": 17.9649608592,
			"0.0": 14.5078638271,
			"0.001": 18.2859577437,
			"0.002": 20.5789836071,
			"0.003": 15.7649186003,
			"0.004": 10.1602717669,
			"0.005": 7.92256103177,
			"0.006": 8.5598974139,
			"0.007": 8.47826950299,
			"0.008": 8.11397652864,
			"0.009": 11.2623331202,
			"0.01": 19.827493694,
			"0.011": 13.4804166109,
			"0.012": 3.09512991327,
			"0.013": 0.0,
			"0.014": 0.0,
			"0.015": 0.0,
			"0.016": 0.0,
			"0.017": 0.0,
			"0.018": 0.0,
			"0.019": 0.0,
			"0.02": 0.0,
			"0.021": 0.0,
			"0.022": 0.0,
			"0.023": 0.0,
			"0.024": 0.0,
			"0.025": 0.0
		}
	}
}
