{
	 "smiles": "COC(=O)C1=CC=NC=C1", 
	 "Tm": 285.2, 
	 "num_atms": 17, 
	 "gaussian": { 
		 "optdone": 1, 
		 "sigma_profile": "yes", 
		 "theory": "DFT", 
		 "functional": "B3LYP", 
		 "basiset": "6-31G**", 
		 "properties": { 
			 "R2extent": 1824.0314, 
			 "electric_dipole_moment_norm": 2.46289384465, 
			 "electric_quadrupole_moment_norm": 8.7168581754, 
			 "total_energy": -476.163274024, 
			 "HOMO_LUMO_gap": 0.19686, 
			 "cosmo_polarized_energy": -8.28, 
			 "cosmo_cavitation_energy": 21.77, 
			 "cosmo_dispersion_energy": -16.11, 
			 "cosmo_repulsion_energy": 1.3, 
			 "cosmo_total_nonelectrostatic_energy": 6.96, 
			 "SMD_solvation_energy": 4.14 
		},
		"coords": [
			{
				"x": 3.1905999563,
				"y": -0.2194043373,
				"z": -2.9553783693,
				"element": "C" 
			},
			{
				"x": 2.2820780267,
				"y": 0.1609584707,
				"z": -1.9082856063,
				"element": "O" 
			},
			{
				"x": 1.298021503,
				"y": -0.7253612203,
				"z": -1.6505112143,
				"element": "C" 
			},
			{
				"x": 1.1667539359,
				"y": -1.7756671088,
				"z": -2.245999503,
				"element": "O" 
			},
			{
				"x": 0.3927921204,
				"y": -0.2646348516,
				"z": -0.5529798357,
				"element": "C" 
			},
			{
				"x": -0.6741920771,
				"y": -1.0875350488,
				"z": -0.1810864625,
				"element": "C" 
			},
			{
				"x": -1.5184269166,
				"y": -0.6588992687,
				"z": 0.8418099776,
				"element": "C" 
			},
			{
				"x": -1.3667265253,
				"y": 0.5019969143,
				"z": 1.493389215,
				"element": "N" 
			},
			{
				"x": -0.3408148063,
				"y": 1.2805748545,
				"z": 1.127278043,
				"element": "C" 
			},
			{
				"x": 0.5641095902,
				"y": 0.9501426185,
				"z": 0.1179008794,
				"element": "C" 
			},
			{
				"x": 3.9093591511,
				"y": 0.5960133138,
				"z": -3.0304621909,
				"element": "H" 
			},
			{
				"x": 2.6549419555,
				"y": -0.3495127453,
				"z": -3.8989156221,
				"element": "H" 
			},
			{
				"x": 3.6945598299,
				"y": -1.155856217,
				"z": -2.7039676797,
				"element": "H" 
			},
			{
				"x": -0.8266210718,
				"y": -2.0341242324,
				"z": -0.6874014091,
				"element": "H" 
			},
			{
				"x": -2.3578158404,
				"y": -1.277288823,
				"z": 1.1539312602,
				"element": "H" 
			},
			{
				"x": -0.2348213752,
				"y": 2.2189867543,
				"z": 1.6684278828,
				"element": "H" 
			},
			{
				"x": 1.3785025439,
				"y": 1.6165109271,
				"z": -0.1401493651,
				"element": "H" 
			}
		],
		 "valence_orbital": [ 
			{
				"type": "occ",
				"energy": -0.31266,
				"method": "rhf"
			},
			{
				"type": "occ",
				"energy": -0.29348,
				"method": "rhf"
			},
			{
				"type": "occ",
				"energy": -0.28663,
				"method": "rhf"
			},
			{
				"type": "occ",
				"energy": -0.27023,
				"method": "rhf"
			},
			{
				"type": "occ",
				"energy": -0.26144,
				"method": "rhf"
			},
			{
				"type": "unocc",
				"energy": -0.06458,
				"method": "rhf"
			},
			{
				"type": "unocc",
				"energy": -0.01819,
				"method": "rhf"
			},
			{
				"type": "unocc",
				"energy": 0.04403,
				"method": "rhf"
			},
			{
				"type": "unocc",
				"energy": 0.09681,
				"method": "rhf"
			},
			{
				"type": "unocc",
				"energy": 0.11242,
				"method": "rhf"
			}
		],
		"cosmo_sigma_profile": { 
			"-0.025": 0.0,
			"-0.024": 0.0,
			"-0.023": 0.0,
			"-0.022": 0.0,
			"-0.021": 0.0,
			"-0.02": 0.0,
			"-0.019": 0.0,
			"-0.018": 0.0,
			"-0.017": 0.0,
			"-0.016": 0.0,
			"-0.015": 0.0,
			"-0.014": 0.0,
			"-0.013": 0.0,
			"-0.012": 0.0,
			"-0.011": 0.0,
			"-0.01": 0.0,
			"-0.009": 0.0,
			"-0.008": 0.337243980772,
			"-0.007": 6.69116931853,
			"-0.006": 13.8523937317,
			"-0.005": 14.5359563241,
			"-0.004": 15.2306778906,
			"-0.003": 15.5014815167,
			"-0.002": 10.8125334917,
			"-0.001": 11.4889038527,
			"0.0": 16.7057181284,
			"0.001": 19.7153717316,
			"0.002": 8.60591416327,
			"0.003": 5.87339588658,
			"0.004": 5.30732198173,
			"0.005": 4.55302103078,
			"0.006": 3.42512587301,
			"0.007": 2.51833811403,
			"0.008": 2.86524967187,
			"0.009": 2.4714667614,
			"0.01": 3.46159162313,
			"0.011": 4.63836900429,
			"0.012": 2.7197904916,
			"0.013": 0.99172938246,
			"0.014": 0.775041661741,
			"0.015": 0.809091106762,
			"0.016": 0.639530916135,
			"0.017": 0.042531018443,
			"0.018": 0.0,
			"0.019": 0.0,
			"0.02": 0.0,
			"0.021": 0.0,
			"0.022": 0.0,
			"0.023": 0.0,
			"0.024": 0.0,
			"0.025": 0.0
		}
	}
}
