{
	 "smiles": "CC(Cl)C(=O)NC1=CC(CSC2=NC=CC=C2)=CC=C1", 
	 "Tm": 371.15, 
	 "num_atms": 35, 
	 "gaussian": { 
		 "optdone": 1, 
		 "sigma_profile": "yes", 
		 "theory": "DFT", 
		 "functional": "B3LYP", 
		 "basiset": "6-31G**", 
		 "properties": { 
			 "R2extent": 9279.3593, 
			 "electric_dipole_moment_norm": 4.17749557271, 
			 "electric_quadrupole_moment_norm": 23.9241406232, 
			 "total_energy": -1623.75628758, 
			 "HOMO_LUMO_gap": 0.18825, 
			 "cosmo_polarized_energy": -14.55, 
			 "cosmo_cavitation_energy": 42.02, 
			 "cosmo_dispersion_energy": -29.43, 
			 "cosmo_repulsion_energy": 2.25, 
			 "cosmo_total_nonelectrostatic_energy": 14.84, 
			 "SMD_solvation_energy": 6.73 
		},
		"coords": [
			{
				"x": -3.5500660949,
				"y": -2.9171790714,
				"z": 0.7115386716,
				"element": "C" 
			},
			{
				"x": -2.6307776188,
				"y": -3.8134224371,
				"z": -0.1079925703,
				"element": "C" 
			},
			{
				"x": -1.6910281881,
				"y": -4.9617730711,
				"z": 0.9759853741,
				"element": "Cl" 
			},
			{
				"x": -1.6891938144,
				"y": -3.1307555409,
				"z": -1.1156105149,
				"element": "C" 
			},
			{
				"x": -1.6607347398,
				"y": -3.5584029549,
				"z": -2.262173289,
				"element": "O" 
			},
			{
				"x": -0.9369991449,
				"y": -2.025803867,
				"z": -0.7844780675,
				"element": "N" 
			},
			{
				"x": -0.7662611231,
				"y": -1.2519793225,
				"z": 0.4006707494,
				"element": "C" 
			},
			{
				"x": -0.9552997607,
				"y": 0.1320385366,
				"z": 0.3086486316,
				"element": "C" 
			},
			{
				"x": -0.7400311813,
				"y": 0.9605783626,
				"z": 1.4156703698,
				"element": "C" 
			},
			{
				"x": -0.9449651604,
				"y": 2.4505264187,
				"z": 1.3038932362,
				"element": "C" 
			},
			{
				"x": 0.5271923955,
				"y": 3.3811730925,
				"z": 0.6808784337,
				"element": "S" 
			},
			{
				"x": 0.2007537091,
				"y": 3.510256443,
				"z": -1.0716915154,
				"element": "C" 
			},
			{
				"x": -0.9198543155,
				"y": 2.9995272192,
				"z": -1.5827261198,
				"element": "N" 
			},
			{
				"x": -1.1349436461,
				"y": 3.1428517605,
				"z": -2.9007460459,
				"element": "C" 
			},
			{
				"x": -0.2531745021,
				"y": 3.7889395127,
				"z": -3.7592647777,
				"element": "C" 
			},
			{
				"x": 0.9229790816,
				"y": 4.3159196433,
				"z": -3.2134861506,
				"element": "C" 
			},
			{
				"x": 1.1612092935,
				"y": 4.1791784673,
				"z": -1.853327238,
				"element": "C" 
			},
			{
				"x": -0.3491268892,
				"y": 0.3805589692,
				"z": 2.6292042919,
				"element": "C" 
			},
			{
				"x": -0.1567539763,
				"y": -0.9977117657,
				"z": 2.7209055126,
				"element": "C" 
			},
			{
				"x": -0.3439711344,
				"y": -1.8190822581,
				"z": 1.6091803138,
				"element": "C" 
			},
			{
				"x": -3.0057065571,
				"y": -2.3003224444,
				"z": 1.4258997428,
				"element": "H" 
			},
			{
				"x": -4.2711608342,
				"y": -3.5309527168,
				"z": 1.2569146365,
				"element": "H" 
			},
			{
				"x": -4.104330727,
				"y": -2.2589963437,
				"z": 0.032641077,
				"element": "H" 
			},
			{
				"x": -3.2153388088,
				"y": -4.4840334413,
				"z": -0.7357106382,
				"element": "H" 
			},
			{
				"x": -0.4939086664,
				"y": -1.651841429,
				"z": -1.6159748877,
				"element": "H" 
			},
			{
				"x": -1.2716812758,
				"y": 0.5750143681,
				"z": -0.6310111354,
				"element": "H" 
			},
			{
				"x": -1.7619703491,
				"y": 2.6958541917,
				"z": 0.6232409137,
				"element": "H" 
			},
			{
				"x": -1.1511602088,
				"y": 2.8915003085,
				"z": 2.2819551026,
				"element": "H" 
			},
			{
				"x": -2.0614585438,
				"y": 2.7135651716,
				"z": -3.2770839854,
				"element": "H" 
			},
			{
				"x": -0.4759326404,
				"y": 3.8742545428,
				"z": -4.8173292315,
				"element": "H" 
			},
			{
				"x": 1.6446793313,
				"y": 4.827724938,
				"z": -3.8436606127,
				"element": "H" 
			},
			{
				"x": 2.0614219694,
				"y": 4.5771134569,
				"z": -1.3960371837,
				"element": "H" 
			},
			{
				"x": -0.1895199595,
				"y": 1.0098806114,
				"z": 3.5008668287,
				"element": "H" 
			},
			{
				"x": 0.1595898437,
				"y": -1.4386450465,
				"z": 3.6616563915,
				"element": "H" 
			},
			{
				"x": -0.1654757634,
				"y": -2.8850543041,
				"z": 1.6724536861,
				"element": "H" 
			}
		],
		 "valence_orbital": [ 
			{
				"type": "occ",
				"energy": -0.27259,
				"method": "rhf"
			},
			{
				"type": "occ",
				"energy": -0.25786,
				"method": "rhf"
			},
			{
				"type": "occ",
				"energy": -0.25378,
				"method": "rhf"
			},
			{
				"type": "occ",
				"energy": -0.2355,
				"method": "rhf"
			},
			{
				"type": "occ",
				"energy": -0.22301,
				"method": "rhf"
			},
			{
				"type": "unocc",
				"energy": -0.03476,
				"method": "rhf"
			},
			{
				"type": "unocc",
				"energy": -0.02851,
				"method": "rhf"
			},
			{
				"type": "unocc",
				"energy": -0.02331,
				"method": "rhf"
			},
			{
				"type": "unocc",
				"energy": -0.01664,
				"method": "rhf"
			},
			{
				"type": "unocc",
				"energy": -0.00531,
				"method": "rhf"
			}
		],
		"cosmo_sigma_profile": { 
			"-0.025": 0.0,
			"-0.024": 0.0,
			"-0.023": 0.0,
			"-0.022": 0.0,
			"-0.021": 0.0,
			"-0.02": 0.0,
			"-0.019": 0.0,
			"-0.018": 0.0,
			"-0.017": 0.0,
			"-0.016": 0.0,
			"-0.015": 0.127109787532,
			"-0.014": 0.956542598478,
			"-0.013": 0.843103747255,
			"-0.012": 1.09125738599,
			"-0.011": 0.714556598163,
			"-0.01": 1.03302300133,
			"-0.009": 1.17631844157,
			"-0.008": 1.8118373808,
			"-0.007": 12.1198915674,
			"-0.006": 22.4253503368,
			"-0.005": 23.22234898,
			"-0.004": 22.9254614667,
			"-0.003": 20.3566505802,
			"-0.002": 24.6410550975,
			"-0.001": 23.0255808714,
			"0.0": 24.6620821341,
			"0.001": 24.9839777464,
			"0.002": 35.4347927195,
			"0.003": 27.241727141,
			"0.004": 19.224851909,
			"0.005": 17.4320497454,
			"0.006": 10.0553123457,
			"0.007": 4.80028576378,
			"0.008": 4.20927419093,
			"0.009": 1.97870907419,
			"0.01": 1.57688857199,
			"0.011": 1.99531261685,
			"0.012": 3.62344341435,
			"0.013": 4.97055309051,
			"0.014": 0.585750297032,
			"0.015": 0.0,
			"0.016": 0.0,
			"0.017": 0.0,
			"0.018": 0.0,
			"0.019": 0.0,
			"0.02": 0.0,
			"0.021": 0.0,
			"0.022": 0.0,
			"0.023": 0.0,
			"0.024": 0.0,
			"0.025": 0.0
		}
	}
}
