{
	 "smiles": "CC(=O)NCCC1=CC=C(S1)C(=O)CCl", 
	 "Tm": 398.15, 
	 "num_atms": 27, 
	 "gaussian": { 
		 "optdone": 1, 
		 "sigma_profile": "yes", 
		 "theory": "DFT", 
		 "functional": "B3LYP", 
		 "basiset": "6-31G**", 
		 "properties": { 
			 "R2extent": 5421.1927, 
			 "electric_dipole_moment_norm": 6.9241091167, 
			 "electric_quadrupole_moment_norm": 6.16069897658, 
			 "total_energy": -1451.87942882, 
			 "HOMO_LUMO_gap": 0.1634, 
			 "cosmo_polarized_energy": -21.3, 
			 "cosmo_cavitation_energy": 34.78, 
			 "cosmo_dispersion_energy": -23.92, 
			 "cosmo_repulsion_energy": 1.89, 
			 "cosmo_total_nonelectrostatic_energy": 12.74, 
			 "SMD_solvation_energy": 6.43 
		},
		"coords": [
			{
				"x": 1.6174652678,
				"y": -0.9881367004,
				"z": 1.4692136853,
				"element": "C" 
			},
			{
				"x": 0.7931233231,
				"y": 0.0137681188,
				"z": 2.2621008342,
				"element": "C" 
			},
			{
				"x": 0.1039805645,
				"y": -0.3166272139,
				"z": 3.2159181633,
				"element": "O" 
			},
			{
				"x": 0.8476858311,
				"y": 1.3350401068,
				"z": 1.8685915008,
				"element": "N" 
			},
			{
				"x": 1.6776664387,
				"y": 1.9575230636,
				"z": 0.8574647876,
				"element": "C" 
			},
			{
				"x": 0.8814998675,
				"y": 2.5688209984,
				"z": -0.3242253933,
				"element": "C" 
			},
			{
				"x": 0.2043438108,
				"y": 1.5629117542,
				"z": -1.2103380417,
				"element": "C" 
			},
			{
				"x": 0.6893776751,
				"y": 1.0426989011,
				"z": -2.3935657187,
				"element": "C" 
			},
			{
				"x": -0.1772305087,
				"y": 0.0910219403,
				"z": -2.9832719942,
				"element": "C" 
			},
			{
				"x": -1.3305507185,
				"y": -0.1124538948,
				"z": -2.2506998015,
				"element": "C" 
			},
			{
				"x": -1.3399147692,
				"y": 0.8774747986,
				"z": -0.8102004476,
				"element": "S" 
			},
			{
				"x": -2.4854632935,
				"y": -0.9707755386,
				"z": -2.5167691167,
				"element": "C" 
			},
			{
				"x": -3.4561632867,
				"y": -1.0046599113,
				"z": -1.7734810341,
				"element": "O" 
			},
			{
				"x": -2.501989126,
				"y": -1.8109403743,
				"z": -3.7981669946,
				"element": "C" 
			},
			{
				"x": -1.2464904386,
				"y": -3.1220290627,
				"z": -3.7900515252,
				"element": "Cl" 
			},
			{
				"x": 1.4035381436,
				"y": -0.9399132481,
				"z": 0.3973615927,
				"element": "H" 
			},
			{
				"x": 1.3720654139,
				"y": -1.9818486639,
				"z": 1.842276485,
				"element": "H" 
			},
			{
				"x": 2.6906617295,
				"y": -0.8152058114,
				"z": 1.6082609027,
				"element": "H" 
			},
			{
				"x": 0.2989888237,
				"y": 1.9388011309,
				"z": 2.4684134316,
				"element": "H" 
			},
			{
				"x": 2.3839890786,
				"y": 1.2191503302,
				"z": 0.4738309674,
				"element": "H" 
			},
			{
				"x": 2.2731227174,
				"y": 2.760058009,
				"z": 1.3133683035,
				"element": "H" 
			},
			{
				"x": 1.5823638906,
				"y": 3.1490582786,
				"z": -0.9359405127,
				"element": "H" 
			},
			{
				"x": 0.1514080517,
				"y": 3.2822856277,
				"z": 0.0758411282,
				"element": "H" 
			},
			{
				"x": 1.6378316852,
				"y": 1.3450597594,
				"z": -2.8249533434,
				"element": "H" 
			},
			{
				"x": 0.042241719,
				"y": -0.4343415407,
				"z": -3.9051828819,
				"element": "H" 
			},
			{
				"x": -2.3161123464,
				"y": -1.1998464915,
				"z": -4.6837131552,
				"element": "H" 
			},
			{
				"x": -3.4748395441,
				"y": -2.294194366,
				"z": -3.8662818213,
				"element": "H" 
			}
		],
		 "valence_orbital": [ 
			{
				"type": "occ",
				"energy": -0.26989,
				"method": "rhf"
			},
			{
				"type": "occ",
				"energy": -0.26445,
				"method": "rhf"
			},
			{
				"type": "occ",
				"energy": -0.2575,
				"method": "rhf"
			},
			{
				"type": "occ",
				"energy": -0.2467,
				"method": "rhf"
			},
			{
				"type": "occ",
				"energy": -0.24197,
				"method": "rhf"
			},
			{
				"type": "unocc",
				"energy": -0.07857,
				"method": "rhf"
			},
			{
				"type": "unocc",
				"energy": -0.00699,
				"method": "rhf"
			},
			{
				"type": "unocc",
				"energy": 0.01909,
				"method": "rhf"
			},
			{
				"type": "unocc",
				"energy": 0.02837,
				"method": "rhf"
			},
			{
				"type": "unocc",
				"energy": 0.03067,
				"method": "rhf"
			}
		],
		"cosmo_sigma_profile": { 
			"-0.025": 0.0,
			"-0.024": 0.0,
			"-0.023": 0.0,
			"-0.022": 0.0,
			"-0.021": 0.0,
			"-0.02": 0.0,
			"-0.019": 0.0,
			"-0.018": 0.0,
			"-0.017": 0.0,
			"-0.016": 0.0,
			"-0.015": 0.0,
			"-0.014": 0.0,
			"-0.013": 0.798511371883,
			"-0.012": 1.2401783697,
			"-0.011": 1.29326805495,
			"-0.01": 1.35769961354,
			"-0.009": 4.00140537029,
			"-0.008": 6.76595103108,
			"-0.007": 9.57494143046,
			"-0.006": 20.1727444928,
			"-0.005": 25.666986296,
			"-0.004": 18.8317873515,
			"-0.003": 17.813848259,
			"-0.002": 17.8095327824,
			"-0.001": 18.4845616235,
			"0.0": 16.8652081665,
			"0.001": 14.8119114746,
			"0.002": 21.2405556169,
			"0.003": 18.3928302475,
			"0.004": 12.8622368408,
			"0.005": 11.1247982132,
			"0.006": 6.24052119133,
			"0.007": 2.26613644274,
			"0.008": 3.31593764259,
			"0.009": 3.53097068323,
			"0.01": 3.54843536807,
			"0.011": 5.88203077805,
			"0.012": 3.60665474442,
			"0.013": 3.04411359206,
			"0.014": 6.04602822169,
			"0.015": 2.59966814775,
			"0.016": 0.140060180503,
			"0.017": 0.0,
			"0.018": 0.0,
			"0.019": 0.0,
			"0.02": 0.0,
			"0.021": 0.0,
			"0.022": 0.0,
			"0.023": 0.0,
			"0.024": 0.0,
			"0.025": 0.0
		}
	}
}
