{
	 "smiles": "CC1=NN2C=C(CCCO)C=NC2=C1C", 
	 "Tm": 382.15, 
	 "num_atms": 30, 
	 "gaussian": { 
		 "optdone": 1, 
		 "sigma_profile": "yes", 
		 "theory": "DFT", 
		 "functional": "B3LYP", 
		 "basiset": "6-31G**", 
		 "properties": { 
			 "R2extent": 4328.4475, 
			 "electric_dipole_moment_norm": 2.04705808418, 
			 "electric_quadrupole_moment_norm": 9.79866711752, 
			 "total_energy": -667.673226794, 
			 "HOMO_LUMO_gap": 0.16154, 
			 "cosmo_polarized_energy": -12.06, 
			 "cosmo_cavitation_energy": 32.74, 
			 "cosmo_dispersion_energy": -23.66, 
			 "cosmo_repulsion_energy": 1.87, 
			 "cosmo_total_nonelectrostatic_energy": 10.95, 
			 "SMD_solvation_energy": 3.25 
		},
		"coords": [
			{
				"x": -4.2296288296,
				"y": 1.2935513268,
				"z": 0.4651045516,
				"element": "C" 
			},
			{
				"x": -2.8577591539,
				"y": 0.6967939762,
				"z": 0.5159436841,
				"element": "C" 
			},
			{
				"x": -1.9980192323,
				"y": 1.0937514518,
				"z": 1.4759022358,
				"element": "N" 
			},
			{
				"x": -0.8824478965,
				"y": 0.3763097166,
				"z": 1.2364925691,
				"element": "N" 
			},
			{
				"x": 0.273559797,
				"y": 0.4262043817,
				"z": 1.9509969933,
				"element": "C" 
			},
			{
				"x": 1.3201590802,
				"y": -0.3779139825,
				"z": 1.5730350644,
				"element": "C" 
			},
			{
				"x": 2.6396787474,
				"y": -0.3700112732,
				"z": 2.3102168641,
				"element": "C" 
			},
			{
				"x": 3.7221411293,
				"y": 0.5421344797,
				"z": 1.6902758354,
				"element": "C" 
			},
			{
				"x": 4.0977930756,
				"y": 0.1855832804,
				"z": 0.2561309982,
				"element": "C" 
			},
			{
				"x": 4.4947385776,
				"y": -1.1838689204,
				"z": 0.225621791,
				"element": "O" 
			},
			{
				"x": 1.1087893805,
				"y": -1.2278751437,
				"z": 0.4377319291,
				"element": "C" 
			},
			{
				"x": -0.0060870957,
				"y": -1.2853092983,
				"z": -0.2607664234,
				"element": "N" 
			},
			{
				"x": -1.0192005877,
				"y": -0.4806247697,
				"z": 0.1299085755,
				"element": "C" 
			},
			{
				"x": -2.3130749998,
				"y": -0.2765154272,
				"z": -0.3496855186,
				"element": "C" 
			},
			{
				"x": -2.9489603336,
				"y": -0.9570050468,
				"z": -1.5216594076,
				"element": "C" 
			},
			{
				"x": -5.0025158097,
				"y": 0.5232419194,
				"z": 0.5695242547,
				"element": "H" 
			},
			{
				"x": -4.3522420716,
				"y": 2.0193119722,
				"z": 1.2717276406,
				"element": "H" 
			},
			{
				"x": -4.4078210523,
				"y": 1.8011321326,
				"z": -0.4900318677,
				"element": "H" 
			},
			{
				"x": 0.281534882,
				"y": 1.1105335756,
				"z": 2.7921877752,
				"element": "H" 
			},
			{
				"x": 3.0334642068,
				"y": -1.3903305819,
				"z": 2.3502021301,
				"element": "H" 
			},
			{
				"x": 2.4744511177,
				"y": -0.0541001756,
				"z": 3.3465001088,
				"element": "H" 
			},
			{
				"x": 3.3858449174,
				"y": 1.5864920861,
				"z": 1.7055150896,
				"element": "H" 
			},
			{
				"x": 4.6210153381,
				"y": 0.4825777967,
				"z": 2.3154761219,
				"element": "H" 
			},
			{
				"x": 4.9151000908,
				"y": 0.8429966632,
				"z": -0.0784554144,
				"element": "H" 
			},
			{
				"x": 3.2404994721,
				"y": 0.3611084585,
				"z": -0.4114722157,
				"element": "H" 
			},
			{
				"x": 4.7143924876,
				"y": -1.414220159,
				"z": -0.6854543845,
				"element": "H" 
			},
			{
				"x": 1.9246690224,
				"y": -1.8760279709,
				"z": 0.1215404524,
				"element": "H" 
			},
			{
				"x": -3.2461281386,
				"y": -0.242341902,
				"z": -2.2990419719,
				"element": "H" 
			},
			{
				"x": -2.2477705006,
				"y": -1.6662076877,
				"z": -1.9687849655,
				"element": "H" 
			},
			{
				"x": -3.8501756207,
				"y": -1.5118708785,
				"z": -1.2333824955,
				"element": "H" 
			}
		],
		 "valence_orbital": [ 
			{
				"type": "occ",
				"energy": -0.29697,
				"method": "rhf"
			},
			{
				"type": "occ",
				"energy": -0.27611,
				"method": "rhf"
			},
			{
				"type": "occ",
				"energy": -0.25545,
				"method": "rhf"
			},
			{
				"type": "occ",
				"energy": -0.23802,
				"method": "rhf"
			},
			{
				"type": "occ",
				"energy": -0.20314,
				"method": "rhf"
			},
			{
				"type": "unocc",
				"energy": -0.0416,
				"method": "rhf"
			},
			{
				"type": "unocc",
				"energy": 0.00245,
				"method": "rhf"
			},
			{
				"type": "unocc",
				"energy": 0.06569,
				"method": "rhf"
			},
			{
				"type": "unocc",
				"energy": 0.06978,
				"method": "rhf"
			},
			{
				"type": "unocc",
				"energy": 0.10415,
				"method": "rhf"
			}
		],
		"cosmo_sigma_profile": { 
			"-0.025": 0.0,
			"-0.024": 0.0,
			"-0.023": 0.0,
			"-0.022": 0.0,
			"-0.021": 0.0,
			"-0.02": 0.0,
			"-0.019": 0.0,
			"-0.018": 0.0,
			"-0.017": 0.0,
			"-0.016": 0.377570900614,
			"-0.015": 0.949550251596,
			"-0.014": 1.19667098292,
			"-0.013": 0.86399794791,
			"-0.012": 0.592653019221,
			"-0.011": 1.18735877309,
			"-0.01": 0.847644878734,
			"-0.009": 2.33428267369,
			"-0.008": 2.47441517424,
			"-0.007": 2.66212010612,
			"-0.006": 3.39488451493,
			"-0.005": 5.87754412914,
			"-0.004": 17.0503520998,
			"-0.003": 31.5356787709,
			"-0.002": 36.3543734592,
			"-0.001": 35.2388189278,
			"0.0": 29.6929262975,
			"0.001": 16.1242269258,
			"0.002": 9.92539822941,
			"0.003": 11.0457851556,
			"0.004": 9.44499226982,
			"0.005": 5.4727532389,
			"0.006": 4.54452933545,
			"0.007": 4.94223630889,
			"0.008": 3.63097428505,
			"0.009": 2.9657384488,
			"0.01": 3.56677579535,
			"0.011": 2.99654445038,
			"0.012": 3.16835753055,
			"0.013": 3.15626780673,
			"0.014": 2.24196961566,
			"0.015": 1.25810673043,
			"0.016": 0.431145014181,
			"0.017": 0.00928799350022,
			"0.018": 0.0,
			"0.019": 0.0,
			"0.02": 0.0,
			"0.021": 0.0,
			"0.022": 0.0,
			"0.023": 0.0,
			"0.024": 0.0,
			"0.025": 0.0
		}
	}
}
