{
	 "smiles": "CC1(C)CC2=C(O1)C(C=O)=CC=C2", 
	 "Tm": 355.15, 
	 "num_atms": 25, 
	 "gaussian": { 
		 "optdone": 1, 
		 "sigma_profile": "yes", 
		 "theory": "DFT", 
		 "functional": "B3LYP", 
		 "basiset": "6-31G**", 
		 "properties": { 
			 "R2extent": 3036.5027, 
			 "electric_dipole_moment_norm": 5.3654167238, 
			 "electric_quadrupole_moment_norm": 13.7823728541, 
			 "total_energy": -576.854346255, 
			 "HOMO_LUMO_gap": 0.16878, 
			 "cosmo_polarized_energy": -9.45, 
			 "cosmo_cavitation_energy": 28.06, 
			 "cosmo_dispersion_energy": -20.0, 
			 "cosmo_repulsion_energy": 1.58, 
			 "cosmo_total_nonelectrostatic_energy": 9.64, 
			 "SMD_solvation_energy": 5.86 
		},
		"coords": [
			{
				"x": -0.1561139812,
				"y": -2.1470948753,
				"z": -0.9909258721,
				"element": "C" 
			},
			{
				"x": 0.3033818688,
				"y": -0.9979981169,
				"z": -0.093195508,
				"element": "C" 
			},
			{
				"x": 0.4030354116,
				"y": -1.4116488187,
				"z": 1.3705821663,
				"element": "C" 
			},
			{
				"x": 1.5964706413,
				"y": -0.3127962558,
				"z": -0.6349535245,
				"element": "C" 
			},
			{
				"x": 1.0691590693,
				"y": 0.9595913366,
				"z": -1.2516061683,
				"element": "C" 
			},
			{
				"x": -0.2828859137,
				"y": 1.0787805847,
				"z": -0.9090013983,
				"element": "C" 
			},
			{
				"x": -0.7456215477,
				"y": 0.0411263681,
				"z": -0.1695014472,
				"element": "O" 
			},
			{
				"x": -1.0556844539,
				"y": 2.1793003451,
				"z": -1.304257743,
				"element": "C" 
			},
			{
				"x": -2.4814195121,
				"y": 2.3016397939,
				"z": -0.9488242577,
				"element": "C" 
			},
			{
				"x": -3.1863847681,
				"y": 3.2434429116,
				"z": -1.2718641799,
				"element": "O" 
			},
			{
				"x": -0.41301325,
				"y": 3.1740351246,
				"z": -2.0692539782,
				"element": "C" 
			},
			{
				"x": 0.9267356356,
				"y": 3.0665350174,
				"z": -2.4189488236,
				"element": "C" 
			},
			{
				"x": 1.6787285297,
				"y": 1.9507008745,
				"z": -2.0059377744,
				"element": "C" 
			},
			{
				"x": -1.1315873517,
				"y": -2.5200617667,
				"z": -0.6665230289,
				"element": "H" 
			},
			{
				"x": -0.2422852216,
				"y": -1.8129209258,
				"z": -2.0294321998,
				"element": "H" 
			},
			{
				"x": 0.5623432494,
				"y": -2.9726402384,
				"z": -0.9533385547,
				"element": "H" 
			},
			{
				"x": 0.6742812737,
				"y": -0.5552630518,
				"z": 1.9945145127,
				"element": "H" 
			},
			{
				"x": 1.1662622681,
				"y": -2.1867430487,
				"z": 1.494750789,
				"element": "H" 
			},
			{
				"x": -0.5521232378,
				"y": -1.8089702004,
				"z": 1.7258549105,
				"element": "H" 
			},
			{
				"x": 2.3024698308,
				"y": -0.100797907,
				"z": 0.1777856659,
				"element": "H" 
			},
			{
				"x": 2.1145687396,
				"y": -0.9561657757,
				"z": -1.3539803034,
				"element": "H" 
			},
			{
				"x": -2.8910255786,
				"y": 1.4615001288,
				"z": -0.3529152944,
				"element": "H" 
			},
			{
				"x": -1.0098666764,
				"y": 4.0266969904,
				"z": -2.3774677405,
				"element": "H" 
			},
			{
				"x": 1.3985323587,
				"y": 3.8439168509,
				"z": -3.011559319,
				"element": "H" 
			},
			{
				"x": 2.7284426163,
				"y": 1.8704346546,
				"z": -2.2765009287,
				"element": "H" 
			}
		],
		 "valence_orbital": [ 
			{
				"type": "occ",
				"energy": -0.3357,
				"method": "rhf"
			},
			{
				"type": "occ",
				"energy": -0.32061,
				"method": "rhf"
			},
			{
				"type": "occ",
				"energy": -0.25441,
				"method": "rhf"
			},
			{
				"type": "occ",
				"energy": -0.24164,
				"method": "rhf"
			},
			{
				"type": "occ",
				"energy": -0.22276,
				"method": "rhf"
			},
			{
				"type": "unocc",
				"energy": -0.05398,
				"method": "rhf"
			},
			{
				"type": "unocc",
				"energy": 0.00503,
				"method": "rhf"
			},
			{
				"type": "unocc",
				"energy": 0.04243,
				"method": "rhf"
			},
			{
				"type": "unocc",
				"energy": 0.07365,
				"method": "rhf"
			},
			{
				"type": "unocc",
				"energy": 0.09814,
				"method": "rhf"
			}
		],
		"cosmo_sigma_profile": { 
			"-0.025": 0.0,
			"-0.024": 0.0,
			"-0.023": 0.0,
			"-0.022": 0.0,
			"-0.021": 0.0,
			"-0.02": 0.0,
			"-0.019": 0.0,
			"-0.018": 0.0,
			"-0.017": 0.0,
			"-0.016": 0.0,
			"-0.015": 0.0,
			"-0.014": 0.0,
			"-0.013": 0.0,
			"-0.012": 0.0,
			"-0.011": 0.0,
			"-0.01": 0.0,
			"-0.009": 0.0,
			"-0.008": 0.0,
			"-0.007": 0.713339378212,
			"-0.006": 4.93029709677,
			"-0.005": 13.7114495295,
			"-0.004": 29.1278916223,
			"-0.003": 28.4481493546,
			"-0.002": 23.7325149904,
			"-0.001": 20.0263587586,
			"0.0": 20.7652701939,
			"0.001": 14.4142770492,
			"0.002": 12.7323658819,
			"0.003": 12.4964212295,
			"0.004": 11.3273363625,
			"0.005": 6.29776668445,
			"0.006": 3.21000341181,
			"0.007": 2.82946413454,
			"0.008": 2.77170378599,
			"0.009": 2.73266001091,
			"0.01": 2.20978932311,
			"0.011": 3.43198990879,
			"0.012": 4.14814066964,
			"0.013": 1.66291489984,
			"0.014": 0.217101339472,
			"0.015": 0.0,
			"0.016": 0.0,
			"0.017": 0.0,
			"0.018": 0.0,
			"0.019": 0.0,
			"0.02": 0.0,
			"0.021": 0.0,
			"0.022": 0.0,
			"0.023": 0.0,
			"0.024": 0.0,
			"0.025": 0.0
		}
	}
}
