{
	 "smiles": "OC(=O)C1=C(CSC2=NC3=C(O2)C=CC=C3)C=CC=C1", 
	 "Tm": 449.15, 
	 "num_atms": 31, 
	 "gaussian": { 
		 "optdone": 1, 
		 "sigma_profile": "yes", 
		 "theory": "DFT", 
		 "functional": "B3LYP", 
		 "basiset": "6-31G**", 
		 "properties": { 
			 "R2extent": 7187.632, 
			 "electric_dipole_moment_norm": 3.42252184215, 
			 "electric_quadrupole_moment_norm": 9.51024167411, 
			 "total_energy": -1256.84637226, 
			 "HOMO_LUMO_gap": 0.15946, 
			 "cosmo_polarized_energy": -14.55, 
			 "cosmo_cavitation_energy": 37.44, 
			 "cosmo_dispersion_energy": -27.26, 
			 "cosmo_repulsion_energy": 2.03, 
			 "cosmo_total_nonelectrostatic_energy": 12.22, 
			 "SMD_solvation_energy": 5.27 
		},
		"coords": [
			{
				"x": 0.7867206879,
				"y": 3.2650696485,
				"z": 2.1228796432,
				"element": "O" 
			},
			{
				"x": -0.445391225,
				"y": 3.0618062635,
				"z": 2.6582568559,
				"element": "C" 
			},
			{
				"x": -0.6916531381,
				"y": 3.4031336995,
				"z": 3.7981123381,
				"element": "O" 
			},
			{
				"x": -1.4317088557,
				"y": 2.4047434329,
				"z": 1.7484088989,
				"element": "C" 
			},
			{
				"x": -1.1899445225,
				"y": 1.9789114559,
				"z": 0.4185437313,
				"element": "C" 
			},
			{
				"x": 0.1219318226,
				"y": 2.1364000717,
				"z": -0.3133417523,
				"element": "C" 
			},
			{
				"x": 1.4292295048,
				"y": 0.9188052502,
				"z": 0.1914891583,
				"element": "S" 
			},
			{
				"x": 1.0423069515,
				"y": -0.4639325095,
				"z": -0.8151574994,
				"element": "C" 
			},
			{
				"x": 1.4983504379,
				"y": -1.6607393657,
				"z": -0.6278740601,
				"element": "N" 
			},
			{
				"x": 1.0037650126,
				"y": -2.3891137576,
				"z": -1.7121271666,
				"element": "C" 
			},
			{
				"x": 0.2289004463,
				"y": -1.5415809587,
				"z": -2.5147186794,
				"element": "C" 
			},
			{
				"x": 0.2564096503,
				"y": -0.2879270086,
				"z": -1.9372303965,
				"element": "O" 
			},
			{
				"x": -0.4266557961,
				"y": -1.9459351649,
				"z": -3.6658111522,
				"element": "C" 
			},
			{
				"x": -0.2680922043,
				"y": -3.2927068132,
				"z": -4.0096824774,
				"element": "C" 
			},
			{
				"x": 0.5051207674,
				"y": -4.1656146601,
				"z": -3.2243325719,
				"element": "C" 
			},
			{
				"x": 1.1518436258,
				"y": -3.7322989651,
				"z": -2.0656942273,
				"element": "C" 
			},
			{
				"x": -2.2429560039,
				"y": 1.3697051257,
				"z": -0.2788370874,
				"element": "C" 
			},
			{
				"x": -3.4970326221,
				"y": 1.1811013313,
				"z": 0.299136605,
				"element": "C" 
			},
			{
				"x": -3.7295403135,
				"y": 1.6051286248,
				"z": 1.6071321779,
				"element": "C" 
			},
			{
				"x": -2.7002787328,
				"y": 2.2106884162,
				"z": 2.3186580903,
				"element": "C" 
			},
			{
				"x": 1.3133414362,
				"y": 3.6702566503,
				"z": 2.8324166299,
				"element": "H" 
			},
			{
				"x": -0.0249066983,
				"y": 2.0280678731,
				"z": -1.3873695813,
				"element": "H" 
			},
			{
				"x": 0.5896659294,
				"y": 3.0990675774,
				"z": -0.1205592844,
				"element": "H" 
			},
			{
				"x": -1.0184609183,
				"y": -1.2622737726,
				"z": -4.2643902181,
				"element": "H" 
			},
			{
				"x": -0.75284347,
				"y": -3.6702308348,
				"z": -4.9047136503,
				"element": "H" 
			},
			{
				"x": 0.599832541,
				"y": -5.2033859595,
				"z": -3.5294684684,
				"element": "H" 
			},
			{
				"x": 1.7474571195,
				"y": -4.4036050991,
				"z": -1.4566117529,
				"element": "H" 
			},
			{
				"x": -2.0649874033,
				"y": 1.0319572066,
				"z": -1.2950531176,
				"element": "H" 
			},
			{
				"x": -4.2879018545,
				"y": 0.7048483203,
				"z": -0.2731547356,
				"element": "H" 
			},
			{
				"x": -4.7019866124,
				"y": 1.4655167633,
				"z": 2.0689674164,
				"element": "H" 
			},
			{
				"x": -2.8503355624,
				"y": 2.5500371582,
				"z": 3.337326334,
				"element": "H" 
			}
		],
		 "valence_orbital": [ 
			{
				"type": "occ",
				"energy": -0.27689,
				"method": "rhf"
			},
			{
				"type": "occ",
				"energy": -0.26784,
				"method": "rhf"
			},
			{
				"type": "occ",
				"energy": -0.26175,
				"method": "rhf"
			},
			{
				"type": "occ",
				"energy": -0.24786,
				"method": "rhf"
			},
			{
				"type": "occ",
				"energy": -0.21902,
				"method": "rhf"
			},
			{
				"type": "unocc",
				"energy": -0.05956,
				"method": "rhf"
			},
			{
				"type": "unocc",
				"energy": -0.02994,
				"method": "rhf"
			},
			{
				"type": "unocc",
				"energy": -0.01774,
				"method": "rhf"
			},
			{
				"type": "unocc",
				"energy": 0.0046,
				"method": "rhf"
			},
			{
				"type": "unocc",
				"energy": 0.02674,
				"method": "rhf"
			}
		],
		"cosmo_sigma_profile": { 
			"-0.025": 0.0,
			"-0.024": 0.0,
			"-0.023": 0.0,
			"-0.022": 0.0,
			"-0.021": 0.0,
			"-0.02": 0.0,
			"-0.019": 0.0990807642066,
			"-0.018": 0.903941612806,
			"-0.017": 0.747876616344,
			"-0.016": 1.06183931138,
			"-0.015": 0.790154497227,
			"-0.014": 0.421076687724,
			"-0.013": 0.361894593713,
			"-0.012": 1.09921987657,
			"-0.011": 1.09787634225,
			"-0.01": 0.407688660848,
			"-0.009": 0.183285387373,
			"-0.008": 1.15915877659,
			"-0.007": 7.45950722295,
			"-0.006": 18.427601387,
			"-0.005": 20.7406362553,
			"-0.004": 21.1403289207,
			"-0.003": 18.1760904406,
			"-0.002": 21.4320531906,
			"-0.001": 21.539528249,
			"0.0": 22.5006816556,
			"0.001": 24.4308479717,
			"0.002": 27.2444371485,
			"0.003": 31.7675011952,
			"0.004": 19.8364063623,
			"0.005": 12.2457999202,
			"0.006": 5.19485282902,
			"0.007": 2.06774819705,
			"0.008": 2.87039479193,
			"0.009": 3.21964200167,
			"0.01": 3.21053016838,
			"0.011": 5.57673510331,
			"0.012": 3.3263181602,
			"0.013": 0.531449467427,
			"0.014": 1.4155668149,
			"0.015": 0.628575927236,
			"0.016": 0.00645261608346,
			"0.017": 0.0,
			"0.018": 0.0,
			"0.019": 0.0,
			"0.02": 0.0,
			"0.021": 0.0,
			"0.022": 0.0,
			"0.023": 0.0,
			"0.024": 0.0,
			"0.025": 0.0
		}
	}
}
