{
	 "smiles": "CC(C)(C)OC(=O)N[C@H]1C[C@H](N)C1", 
	 "Tm": 334.15, 
	 "num_atms": 31, 
	 "gaussian": { 
		 "optdone": 1, 
		 "sigma_profile": "yes", 
		 "theory": "DFT", 
		 "functional": "B3LYP", 
		 "basiset": "6-31G**", 
		 "properties": { 
			 "R2extent": 3851.4185, 
			 "electric_dipole_moment_norm": 3.33635581736, 
			 "electric_quadrupole_moment_norm": 12.621900797, 
			 "total_energy": -613.766476898, 
			 "HOMO_LUMO_gap": 0.30056, 
			 "cosmo_polarized_energy": -12.15, 
			 "cosmo_cavitation_energy": 32.55, 
			 "cosmo_dispersion_energy": -22.72, 
			 "cosmo_repulsion_energy": 1.87, 
			 "cosmo_total_nonelectrostatic_energy": 11.7, 
			 "SMD_solvation_energy": 5.23 
		},
		"coords": [
			{
				"x": 0.8725004621,
				"y": 2.4375149284,
				"z": -1.3553514832,
				"element": "C" 
			},
			{
				"x": 1.6090959117,
				"y": 1.4093138021,
				"z": -0.4924427845,
				"element": "C" 
			},
			{
				"x": 2.2434624395,
				"y": 0.3217506711,
				"z": -1.3664089923,
				"element": "C" 
			},
			{
				"x": 2.6356819981,
				"y": 2.0970849343,
				"z": 0.4142844266,
				"element": "C" 
			},
			{
				"x": 0.5240971072,
				"y": 0.8369180625,
				"z": 0.3172934083,
				"element": "O" 
			},
			{
				"x": 0.7763300731,
				"y": -0.1331035578,
				"z": 1.2283865528,
				"element": "C" 
			},
			{
				"x": 1.8688558126,
				"y": -0.6223861007,
				"z": 1.4752669744,
				"element": "O" 
			},
			{
				"x": -0.369229046,
				"y": -0.5234972237,
				"z": 1.8694801937,
				"element": "N" 
			},
			{
				"x": -1.7140067418,
				"y": -0.0363263056,
				"z": 1.6833722947,
				"element": "C" 
			},
			{
				"x": -2.8531617754,
				"y": -1.058317598,
				"z": 1.4146501624,
				"element": "C" 
			},
			{
				"x": -3.7854549437,
				"y": -0.1831783979,
				"z": 2.2967569575,
				"element": "C" 
			},
			{
				"x": -4.4983031243,
				"y": 0.7945629308,
				"z": 1.4748720899,
				"element": "N" 
			},
			{
				"x": -2.514431799,
				"y": 0.4551097637,
				"z": 2.9213708798,
				"element": "C" 
			},
			{
				"x": 0.3824091447,
				"y": 3.1879846861,
				"z": -0.7281929436,
				"element": "H" 
			},
			{
				"x": 1.5783726603,
				"y": 2.9468375621,
				"z": -2.0182889276,
				"element": "H" 
			},
			{
				"x": 0.1094021219,
				"y": 1.9505502713,
				"z": -1.9695688045,
				"element": "H" 
			},
			{
				"x": 2.9714760274,
				"y": 0.7749956158,
				"z": -2.0473137633,
				"element": "H" 
			},
			{
				"x": 2.7484589041,
				"y": -0.4243302732,
				"z": -0.7527700827,
				"element": "H" 
			},
			{
				"x": 1.4767474698,
				"y": -0.1741536807,
				"z": -1.9703280816,
				"element": "H" 
			},
			{
				"x": 3.3784650348,
				"y": 2.617421983,
				"z": -0.1993830063,
				"element": "H" 
			},
			{
				"x": 3.1448672197,
				"y": 1.369502013,
				"z": 1.0463968907,
				"element": "H" 
			},
			{
				"x": 2.142289481,
				"y": 2.8382165961,
				"z": 1.0512888236,
				"element": "H" 
			},
			{
				"x": -0.2036016379,
				"y": -1.2463694861,
				"z": 2.5553222686,
				"element": "H" 
			},
			{
				"x": -1.6940098046,
				"y": 0.7282599774,
				"z": 0.911018885,
				"element": "H" 
			},
			{
				"x": -2.6436958694,
				"y": -2.0212684055,
				"z": 1.8933221177,
				"element": "H" 
			},
			{
				"x": -3.1528773131,
				"y": -1.2304830737,
				"z": 0.3765719345,
				"element": "H" 
			},
			{
				"x": -4.4273495385,
				"y": -0.7381679548,
				"z": 2.9984878484,
				"element": "H" 
			},
			{
				"x": -5.225343515,
				"y": 0.3296452838,
				"z": 0.9352731807,
				"element": "H" 
			},
			{
				"x": -4.9695479722,
				"y": 1.4712391189,
				"z": 2.0714803207,
				"element": "H" 
			},
			{
				"x": -2.2084775642,
				"y": -0.0772028526,
				"z": 3.8287148781,
				"element": "H" 
			},
			{
				"x": -2.5350212228,
				"y": 1.5299767098,
				"z": 3.1246377816,
				"element": "H" 
			}
		],
		 "valence_orbital": [ 
			{
				"type": "occ",
				"energy": -0.31234,
				"method": "rhf"
			},
			{
				"type": "occ",
				"energy": -0.27983,
				"method": "rhf"
			},
			{
				"type": "occ",
				"energy": -0.25275,
				"method": "rhf"
			},
			{
				"type": "occ",
				"energy": -0.23637,
				"method": "rhf"
			},
			{
				"type": "occ",
				"energy": -0.23616,
				"method": "rhf"
			},
			{
				"type": "unocc",
				"energy": 0.0644,
				"method": "rhf"
			},
			{
				"type": "unocc",
				"energy": 0.07605,
				"method": "rhf"
			},
			{
				"type": "unocc",
				"energy": 0.08761,
				"method": "rhf"
			},
			{
				"type": "unocc",
				"energy": 0.0963,
				"method": "rhf"
			},
			{
				"type": "unocc",
				"energy": 0.10748,
				"method": "rhf"
			}
		],
		"cosmo_sigma_profile": { 
			"-0.025": 0.0,
			"-0.024": 0.0,
			"-0.023": 0.0,
			"-0.022": 0.0,
			"-0.021": 0.0,
			"-0.02": 0.0,
			"-0.019": 0.0,
			"-0.018": 0.0,
			"-0.017": 0.0,
			"-0.016": 0.0,
			"-0.015": 0.0,
			"-0.014": 0.0,
			"-0.013": 0.902728772226,
			"-0.012": 0.6991268915,
			"-0.011": 0.937352771802,
			"-0.01": 2.02836365968,
			"-0.009": 3.95237397776,
			"-0.008": 3.7356921717,
			"-0.007": 4.31732454083,
			"-0.006": 4.17580440171,
			"-0.005": 4.78291249176,
			"-0.004": 15.224140059,
			"-0.003": 26.1860471151,
			"-0.002": 27.6690391022,
			"-0.001": 30.1186677012,
			"0.0": 35.6480153117,
			"0.001": 29.4068433558,
			"0.002": 13.7467064773,
			"0.003": 9.65753898914,
			"0.004": 6.56126255149,
			"0.005": 5.56752014048,
			"0.006": 3.52230645168,
			"0.007": 2.33186183329,
			"0.008": 2.57639106011,
			"0.009": 2.15473090731,
			"0.01": 1.59117368757,
			"0.011": 2.22237924172,
			"0.012": 2.71522778673,
			"0.013": 2.86155350142,
			"0.014": 3.71908809213,
			"0.015": 1.16270662587,
			"0.016": 0.470522829912,
			"0.017": 0.673848526397,
			"0.018": 0.347043115592,
			"0.019": 0.0,
			"0.02": 0.0,
			"0.021": 0.0,
			"0.022": 0.0,
			"0.023": 0.0,
			"0.024": 0.0,
			"0.025": 0.0
		}
	}
}
