{
	 "smiles": "ClC1=CC(Br)=C(OC(=O)C=C)C2=NC=CC=C12", 
	 "Tm": 373.15, 
	 "num_atms": 24, 
	 "gaussian": { 
		 "optdone": 1, 
		 "sigma_profile": "yes", 
		 "theory": "DFT", 
		 "functional": "B3LYP", 
		 "basiset": "6-31G**", 
		 "properties": { 
			 "R2extent": 7287.0441, 
			 "electric_dipole_moment_norm": 2.43608591392, 
			 "electric_quadrupole_moment_norm": 17.0147633363, 
			 "total_energy": -3698.26998856, 
			 "HOMO_LUMO_gap": 0.16465, 
			 "cosmo_polarized_energy": -10.89, 
			 "cosmo_cavitation_energy": 33.95, 
			 "cosmo_dispersion_energy": -24.0, 
			 "cosmo_repulsion_energy": 1.87, 
			 "cosmo_total_nonelectrostatic_energy": 11.82, 
			 "SMD_solvation_energy": 5.12 
		},
		"coords": [
			{
				"x": 4.6360297944,
				"y": -2.0138554588,
				"z": -1.6733844733,
				"element": "Cl" 
			},
			{
				"x": 3.0416564059,
				"y": -1.7409752645,
				"z": -0.9872183302,
				"element": "C" 
			},
			{
				"x": 2.0277554522,
				"y": -2.6052464959,
				"z": -1.3213841059,
				"element": "C" 
			},
			{
				"x": 0.7356824672,
				"y": -2.4147420661,
				"z": -0.7801852303,
				"element": "C" 
			},
			{
				"x": -0.6328369732,
				"y": -3.6399371772,
				"z": -1.2607359301,
				"element": "Br" 
			},
			{
				"x": 0.4688827952,
				"y": -1.3676954823,
				"z": 0.0738613052,
				"element": "C" 
			},
			{
				"x": -0.8076502426,
				"y": -1.1453663623,
				"z": 0.5306192657,
				"element": "O" 
			},
			{
				"x": -1.063656811,
				"y": -1.3871842906,
				"z": 1.8692493363,
				"element": "C" 
			},
			{
				"x": -0.2697985161,
				"y": -1.9150124446,
				"z": 2.6081907361,
				"element": "O" 
			},
			{
				"x": -2.4218787529,
				"y": -0.9534491766,
				"z": 2.2582942191,
				"element": "C" 
			},
			{
				"x": -3.2858817287,
				"y": -0.3404250014,
				"z": 1.4455201181,
				"element": "C" 
			},
			{
				"x": 1.5083457304,
				"y": -0.4519124493,
				"z": 0.4224985108,
				"element": "C" 
			},
			{
				"x": 1.1927241165,
				"y": 0.5776575254,
				"z": 1.2515725002,
				"element": "N" 
			},
			{
				"x": 2.1490900982,
				"y": 1.4208389772,
				"z": 1.5826232006,
				"element": "C" 
			},
			{
				"x": 3.4846345114,
				"y": 1.3208622065,
				"z": 1.1241319775,
				"element": "C" 
			},
			{
				"x": 3.8191835488,
				"y": 0.2918988166,
				"z": 0.2762462693,
				"element": "C" 
			},
			{
				"x": 2.8246471817,
				"y": -0.6410384858,
				"z": -0.1101054954,
				"element": "C" 
			},
			{
				"x": 2.2097119729,
				"y": -3.4361269358,
				"z": -1.9908652454,
				"element": "H" 
			},
			{
				"x": -2.6633174546,
				"y": -1.1769447059,
				"z": 3.2926800368,
				"element": "H" 
			},
			{
				"x": -3.0332142854,
				"y": -0.1186536809,
				"z": 0.4144617068,
				"element": "H" 
			},
			{
				"x": -4.269862366,
				"y": -0.044227925,
				"z": 1.7957913268,
				"element": "H" 
			},
			{
				"x": 1.8654874112,
				"y": 2.2342505587,
				"z": 2.2489531327,
				"element": "H" 
			},
			{
				"x": 4.2227704674,
				"y": 2.0506808564,
				"z": 1.4399283875,
				"element": "H" 
			},
			{
				"x": 4.8291951771,
				"y": 0.1808044621,
				"z": -0.1018432189,
				"element": "H" 
			}
		],
		 "valence_orbital": [ 
			{
				"type": "occ",
				"energy": -0.28893,
				"method": "rhf"
			},
			{
				"type": "occ",
				"energy": -0.28185,
				"method": "rhf"
			},
			{
				"type": "occ",
				"energy": -0.27184,
				"method": "rhf"
			},
			{
				"type": "occ",
				"energy": -0.26296,
				"method": "rhf"
			},
			{
				"type": "occ",
				"energy": -0.2374,
				"method": "rhf"
			},
			{
				"type": "unocc",
				"energy": -0.07275,
				"method": "rhf"
			},
			{
				"type": "unocc",
				"energy": -0.05152,
				"method": "rhf"
			},
			{
				"type": "unocc",
				"energy": -0.03834,
				"method": "rhf"
			},
			{
				"type": "unocc",
				"energy": -0.01284,
				"method": "rhf"
			},
			{
				"type": "unocc",
				"energy": 0.00378,
				"method": "rhf"
			}
		],
		"cosmo_sigma_profile": { 
			"-0.025": 0.0,
			"-0.024": 0.0,
			"-0.023": 0.0,
			"-0.022": 0.0,
			"-0.021": 0.0,
			"-0.02": 0.0,
			"-0.019": 0.0,
			"-0.018": 0.0,
			"-0.017": 0.0,
			"-0.016": 0.0,
			"-0.015": 0.0,
			"-0.014": 0.0,
			"-0.013": 0.0,
			"-0.012": 0.0,
			"-0.011": 0.0,
			"-0.01": 0.0,
			"-0.009": 0.718926268535,
			"-0.008": 5.42829700706,
			"-0.007": 13.3063232882,
			"-0.006": 13.7089620399,
			"-0.005": 13.2357699541,
			"-0.004": 12.1488981263,
			"-0.003": 14.795774966,
			"-0.002": 19.9537352563,
			"-0.001": 32.3574716563,
			"0.0": 35.9042922674,
			"0.001": 27.8431224827,
			"0.002": 22.0043351874,
			"0.003": 23.391200708,
			"0.004": 14.0685111461,
			"0.005": 4.4933382766,
			"0.006": 3.32611352685,
			"0.007": 3.37307859878,
			"0.008": 4.73333263233,
			"0.009": 4.00175888636,
			"0.01": 4.41044876774,
			"0.011": 5.56810820282,
			"0.012": 1.2330615191,
			"0.013": 0.0,
			"0.014": 0.0,
			"0.015": 0.0,
			"0.016": 0.0,
			"0.017": 0.0,
			"0.018": 0.0,
			"0.019": 0.0,
			"0.02": 0.0,
			"0.021": 0.0,
			"0.022": 0.0,
			"0.023": 0.0,
			"0.024": 0.0,
			"0.025": 0.0
		}
	}
}
