{
	 "smiles": "CC(C)CN1C=NC2=C1C1=C(C=CC=C1)N=C2N", 
	 "Tm": 566.15, 
	 "num_atms": 34, 
	 "gaussian": { 
		 "optdone": 1, 
		 "sigma_profile": "yes", 
		 "theory": "DFT", 
		 "functional": "B3LYP", 
		 "basiset": "6-31G**", 
		 "properties": { 
			 "R2extent": 4925.4296, 
			 "electric_dipole_moment_norm": 3.87128527882, 
			 "electric_quadrupole_moment_norm": 9.66891032692, 
			 "total_energy": -762.185010381, 
			 "HOMO_LUMO_gap": 0.17474, 
			 "cosmo_polarized_energy": -15.27, 
			 "cosmo_cavitation_energy": 35.85, 
			 "cosmo_dispersion_energy": -25.65, 
			 "cosmo_repulsion_energy": 1.95, 
			 "cosmo_total_nonelectrostatic_energy": 12.15, 
			 "SMD_solvation_energy": 2.69 
		},
		"coords": [
			{
				"x": 3.9800247732,
				"y": 0.6031108584,
				"z": -1.2670978055,
				"element": "C" 
			},
			{
				"x": 2.4870513681,
				"y": 0.9160519125,
				"z": -1.4431678093,
				"element": "C" 
			},
			{
				"x": 2.2754000511,
				"y": 2.2146099541,
				"z": -2.2318812701,
				"element": "C" 
			},
			{
				"x": 1.791150159,
				"y": -0.2852688787,
				"z": -2.1153044432,
				"element": "C" 
			},
			{
				"x": 0.338568945,
				"y": -0.1657623687,
				"z": -2.2123002128,
				"element": "N" 
			},
			{
				"x": -0.3390473676,
				"y": 0.1980741112,
				"z": -3.3578575517,
				"element": "C" 
			},
			{
				"x": -1.6371264963,
				"y": 0.2856733093,
				"z": -3.1998288372,
				"element": "N" 
			},
			{
				"x": -1.8295295686,
				"y": -0.0351258224,
				"z": -1.8728596631,
				"element": "C" 
			},
			{
				"x": -0.6281410215,
				"y": -0.3251011542,
				"z": -1.2283967394,
				"element": "C" 
			},
			{
				"x": -0.6055034722,
				"y": -0.7149962187,
				"z": 0.1494603695,
				"element": "C" 
			},
			{
				"x": -1.9103529274,
				"y": -0.7699022919,
				"z": 0.7563436305,
				"element": "C" 
			},
			{
				"x": -1.9962182279,
				"y": -1.154668167,
				"z": 2.1170306636,
				"element": "C" 
			},
			{
				"x": -0.8695194742,
				"y": -1.4722371027,
				"z": 2.8498225673,
				"element": "C" 
			},
			{
				"x": 0.4039543664,
				"y": -1.4190488226,
				"z": 2.2509387295,
				"element": "C" 
			},
			{
				"x": 0.5301467234,
				"y": -1.0469040149,
				"z": 0.9246423785,
				"element": "C" 
			},
			{
				"x": -3.0893030978,
				"y": -0.48011546,
				"z": 0.1136964399,
				"element": "N" 
			},
			{
				"x": -3.0620838978,
				"y": -0.1167832421,
				"z": -1.152277512,
				"element": "C" 
			},
			{
				"x": -4.2251194793,
				"y": 0.2181137107,
				"z": -1.7889893199,
				"element": "N" 
			},
			{
				"x": 4.1378167924,
				"y": -0.3003944916,
				"z": -0.6676047483,
				"element": "H" 
			},
			{
				"x": 4.4689111498,
				"y": 0.4503879837,
				"z": -2.2371057036,
				"element": "H" 
			},
			{
				"x": 4.4931696726,
				"y": 1.4292999064,
				"z": -0.7658324672,
				"element": "H" 
			},
			{
				"x": 2.0414409571,
				"y": 1.043007819,
				"z": -0.4481692882,
				"element": "H" 
			},
			{
				"x": 2.7494247119,
				"y": 3.057515399,
				"z": -1.7192877086,
				"element": "H" 
			},
			{
				"x": 2.7193166959,
				"y": 2.1440960039,
				"z": -3.2329507146,
				"element": "H" 
			},
			{
				"x": 1.2137840644,
				"y": 2.4514721514,
				"z": -2.3477424263,
				"element": "H" 
			},
			{
				"x": 2.0278651298,
				"y": -1.2128983174,
				"z": -1.5856485801,
				"element": "H" 
			},
			{
				"x": 2.1687572642,
				"y": -0.4011617578,
				"z": -3.137676738,
				"element": "H" 
			},
			{
				"x": 0.1957738585,
				"y": 0.3769659225,
				"z": -4.2818339946,
				"element": "H" 
			},
			{
				"x": -2.9873955757,
				"y": -1.1885998774,
				"z": 2.5575107521,
				"element": "H" 
			},
			{
				"x": -0.9650123371,
				"y": -1.7634563141,
				"z": 3.8920920255,
				"element": "H" 
			},
			{
				"x": 1.2890345334,
				"y": -1.6694925248,
				"z": 2.8282241168,
				"element": "H" 
			},
			{
				"x": 1.5186322667,
				"y": -1.0127801305,
				"z": 0.4812966264,
				"element": "H" 
			},
			{
				"x": -4.207382291,
				"y": 0.2551546714,
				"z": -2.7965703841,
				"element": "H" 
			},
			{
				"x": -5.0825882485,
				"y": -0.0585367562,
				"z": -1.3362743817,
				"element": "H" 
			}
		],
		 "valence_orbital": [ 
			{
				"type": "occ",
				"energy": -0.27631,
				"method": "rhf"
			},
			{
				"type": "occ",
				"energy": -0.26394,
				"method": "rhf"
			},
			{
				"type": "occ",
				"energy": -0.24415,
				"method": "rhf"
			},
			{
				"type": "occ",
				"energy": -0.21291,
				"method": "rhf"
			},
			{
				"type": "occ",
				"energy": -0.19575,
				"method": "rhf"
			},
			{
				"type": "unocc",
				"energy": -0.02101,
				"method": "rhf"
			},
			{
				"type": "unocc",
				"energy": -0.0055,
				"method": "rhf"
			},
			{
				"type": "unocc",
				"energy": 0.03357,
				"method": "rhf"
			},
			{
				"type": "unocc",
				"energy": 0.04767,
				"method": "rhf"
			},
			{
				"type": "unocc",
				"energy": 0.06602,
				"method": "rhf"
			}
		],
		"cosmo_sigma_profile": { 
			"-0.025": 0.0,
			"-0.024": 0.0,
			"-0.023": 0.0,
			"-0.022": 0.0,
			"-0.021": 0.0,
			"-0.02": 0.0,
			"-0.019": 0.0,
			"-0.018": 0.0,
			"-0.017": 0.0,
			"-0.016": 0.0,
			"-0.015": 0.0,
			"-0.014": 0.0090783790424,
			"-0.013": 0.96092602342,
			"-0.012": 1.5962820493,
			"-0.011": 1.94090747014,
			"-0.01": 2.83238050247,
			"-0.009": 4.24835545311,
			"-0.008": 4.08466139136,
			"-0.007": 6.06979315181,
			"-0.006": 9.53236521681,
			"-0.005": 14.1404742671,
			"-0.004": 17.4247589314,
			"-0.003": 26.7201932597,
			"-0.002": 28.21691207,
			"-0.001": 24.8109454415,
			"0.0": 21.3437714062,
			"0.001": 25.6351953797,
			"0.002": 17.3467979977,
			"0.003": 11.6759812036,
			"0.004": 14.1541251704,
			"0.005": 14.8206108805,
			"0.006": 10.6657369581,
			"0.007": 4.85983867802,
			"0.008": 3.81640569602,
			"0.009": 3.54327492152,
			"0.01": 2.82498055668,
			"0.011": 2.88049438841,
			"0.012": 2.06796171214,
			"0.013": 1.92707722389,
			"0.014": 1.52087781614,
			"0.015": 1.71185737135,
			"0.016": 0.492950634471,
			"0.017": 0.0,
			"0.018": 0.0,
			"0.019": 0.0,
			"0.02": 0.0,
			"0.021": 0.0,
			"0.022": 0.0,
			"0.023": 0.0,
			"0.024": 0.0,
			"0.025": 0.0
		}
	}
}
