{
	 "smiles": "[O-][N+](=O)C=CC1=CC=CO1", 
	 "Tm": 347.15, 
	 "num_atms": 15, 
	 "gaussian": { 
		 "optdone": 1, 
		 "sigma_profile": "yes", 
		 "theory": "DFT", 
		 "functional": "B3LYP", 
		 "basiset": "6-31G**", 
		 "properties": { 
			 "R2extent": 2894.9797, 
			 "electric_dipole_moment_norm": 6.30259952242, 
			 "electric_quadrupole_moment_norm": 19.4915465192, 
			 "total_energy": -511.92787665, 
			 "HOMO_LUMO_gap": 0.1437, 
			 "cosmo_polarized_energy": -11.52, 
			 "cosmo_cavitation_energy": 21.19, 
			 "cosmo_dispersion_energy": -15.42, 
			 "cosmo_repulsion_energy": 1.25, 
			 "cosmo_total_nonelectrostatic_energy": 7.02, 
			 "SMD_solvation_energy": 7.55 
		},
		"coords": [
			{
				"x": 0.7681747283,
				"y": 3.1869259148,
				"z": 3.7618865621,
				"element": "O" 
			},
			{
				"x": 0.7331310357,
				"y": 3.6642304877,
				"z": 2.62425638,
				"element": "N" 
			},
			{
				"x": 0.7945001753,
				"y": 4.8694498319,
				"z": 2.3600948873,
				"element": "O" 
			},
			{
				"x": 0.6109451979,
				"y": 2.7774182903,
				"z": 1.489440721,
				"element": "C" 
			},
			{
				"x": 0.5365806241,
				"y": 1.447484828,
				"z": 1.6714905202,
				"element": "C" 
			},
			{
				"x": 0.4140571086,
				"y": 0.4705059442,
				"z": 0.6314342616,
				"element": "C" 
			},
			{
				"x": 0.3371085876,
				"y": 0.5113664075,
				"z": -0.7442525251,
				"element": "C" 
			},
			{
				"x": 0.2253974989,
				"y": -0.8337644216,
				"z": -1.1893258164,
				"element": "C" 
			},
			{
				"x": 0.2412481723,
				"y": -1.6077223053,
				"z": -0.0612703928,
				"element": "C" 
			},
			{
				"x": 0.3543390923,
				"y": -0.8395368654,
				"z": 1.0460353578,
				"element": "O" 
			},
			{
				"x": 0.5905963058,
				"y": 3.3101548525,
				"z": 0.5494257673,
				"element": "H" 
			},
			{
				"x": 0.5719771867,
				"y": 1.077368223,
				"z": 2.6923671244,
				"element": "H" 
			},
			{
				"x": 0.3584978876,
				"y": 1.4010613622,
				"z": -1.3571579902,
				"element": "H" 
			},
			{
				"x": 0.1441247611,
				"y": -1.1834518697,
				"z": -2.2080558498,
				"element": "H" 
			},
			{
				"x": 0.1829216379,
				"y": -2.6722906802,
				"z": 0.1059309927,
				"element": "H" 
			}
		],
		 "valence_orbital": [ 
			{
				"type": "occ",
				"energy": -0.30642,
				"method": "rhf"
			},
			{
				"type": "occ",
				"energy": -0.2989,
				"method": "rhf"
			},
			{
				"type": "occ",
				"energy": -0.29836,
				"method": "rhf"
			},
			{
				"type": "occ",
				"energy": -0.28083,
				"method": "rhf"
			},
			{
				"type": "occ",
				"energy": -0.24115,
				"method": "rhf"
			},
			{
				"type": "unocc",
				"energy": -0.09745,
				"method": "rhf"
			},
			{
				"type": "unocc",
				"energy": -0.01707,
				"method": "rhf"
			},
			{
				"type": "unocc",
				"energy": 0.02389,
				"method": "rhf"
			},
			{
				"type": "unocc",
				"energy": 0.08691,
				"method": "rhf"
			},
			{
				"type": "unocc",
				"energy": 0.08845,
				"method": "rhf"
			}
		],
		"cosmo_sigma_profile": { 
			"-0.025": 0.0,
			"-0.024": 0.0,
			"-0.023": 0.0,
			"-0.022": 0.0,
			"-0.021": 0.0,
			"-0.02": 0.0,
			"-0.019": 0.0,
			"-0.018": 0.0,
			"-0.017": 0.0,
			"-0.016": 0.0,
			"-0.015": 0.0,
			"-0.014": 0.0,
			"-0.013": 0.0,
			"-0.012": 0.0,
			"-0.011": 0.21296205227,
			"-0.01": 3.21889359316,
			"-0.009": 5.31483835902,
			"-0.008": 8.07801670693,
			"-0.007": 6.77090623791,
			"-0.006": 7.36760822984,
			"-0.005": 8.30510827267,
			"-0.004": 8.16736299359,
			"-0.003": 10.5072218605,
			"-0.002": 10.970690038,
			"-0.001": 13.0381823735,
			"0.0": 17.7178720988,
			"0.001": 11.5233734558,
			"0.002": 10.1667603353,
			"0.003": 7.63532571332,
			"0.004": 4.60560928647,
			"0.005": 3.73044958016,
			"0.006": 3.8213553197,
			"0.007": 4.27153916576,
			"0.008": 8.24387996211,
			"0.009": 9.3287996009,
			"0.01": 5.07276020863,
			"0.011": 2.68082677987,
			"0.012": 0.1596896737,
			"0.013": 0.0,
			"0.014": 0.0,
			"0.015": 0.0,
			"0.016": 0.0,
			"0.017": 0.0,
			"0.018": 0.0,
			"0.019": 0.0,
			"0.02": 0.0,
			"0.021": 0.0,
			"0.022": 0.0,
			"0.023": 0.0,
			"0.024": 0.0,
			"0.025": 0.0
		}
	}
}
