{
	 "smiles": "CS(=O)(=O)C1=C(F)C=C(C=C1)C#N", 
	 "Tm": 420.15, 
	 "num_atms": 19, 
	 "gaussian": { 
		 "optdone": 1, 
		 "sigma_profile": "yes", 
		 "theory": "DFT", 
		 "functional": "B3LYP", 
		 "basiset": "6-31G**", 
		 "properties": { 
			 "R2extent": 3971.3049, 
			 "electric_dipole_moment_norm": 3.39353053618, 
			 "electric_quadrupole_moment_norm": 17.5975169305, 
			 "total_energy": -1011.59840546, 
			 "HOMO_LUMO_gap": 0.2005, 
			 "cosmo_polarized_energy": -17.64, 
			 "cosmo_cavitation_energy": 26.5, 
			 "cosmo_dispersion_energy": -19.13, 
			 "cosmo_repulsion_energy": 1.44, 
			 "cosmo_total_nonelectrostatic_energy": 8.81, 
			 "SMD_solvation_energy": 6.22 
		},
		"coords": [
			{
				"x": 0.8311606284,
				"y": -2.6885035858,
				"z": 0.784396172,
				"element": "C" 
			},
			{
				"x": 2.1041127493,
				"y": -1.8618470652,
				"z": -0.1896346169,
				"element": "S" 
			},
			{
				"x": 2.9902793482,
				"y": -1.1369346943,
				"z": 0.732261565,
				"element": "O" 
			},
			{
				"x": 2.6460633276,
				"y": -2.8241884405,
				"z": -1.1545697143,
				"element": "O" 
			},
			{
				"x": 1.1878066637,
				"y": -0.5943826521,
				"z": -1.1040543727,
				"element": "C" 
			},
			{
				"x": 0.1800024717,
				"y": -0.9206797664,
				"z": -2.0131515749,
				"element": "C" 
			},
			{
				"x": -0.194401964,
				"y": -2.2032459793,
				"z": -2.161112177,
				"element": "F" 
			},
			{
				"x": -0.4706548076,
				"y": 0.0508349769,
				"z": -2.7578972888,
				"element": "C" 
			},
			{
				"x": -0.0876118238,
				"y": 1.3915658838,
				"z": -2.5921908113,
				"element": "C" 
			},
			{
				"x": 0.9282454617,
				"y": 1.7379403582,
				"z": -1.6854261347,
				"element": "C" 
			},
			{
				"x": 1.559311827,
				"y": 0.7419388453,
				"z": -0.9455142703,
				"element": "C" 
			},
			{
				"x": -0.7477515533,
				"y": 2.4131699946,
				"z": -3.3536811434,
				"element": "C" 
			},
			{
				"x": -1.2828162692,
				"y": 3.2428913297,
				"z": -3.9676380765,
				"element": "N" 
			},
			{
				"x": 0.0884466402,
				"y": -3.1099304874,
				"z": 0.1072143257,
				"element": "H" 
			},
			{
				"x": 0.3885661661,
				"y": -1.9699350345,
				"z": 1.4755735112,
				"element": "H" 
			},
			{
				"x": 1.3420793286,
				"y": -3.4816194451,
				"z": 1.334238093,
				"element": "H" 
			},
			{
				"x": -1.2529601865,
				"y": -0.234484146,
				"z": -3.4512537127,
				"element": "H" 
			},
			{
				"x": 1.2137084829,
				"y": 2.7769110308,
				"z": -1.5675161458,
				"element": "H" 
			},
			{
				"x": 2.347013509,
				"y": 0.9777988774,
				"z": -0.2380436275,
				"element": "H" 
			}
		],
		 "valence_orbital": [ 
			{
				"type": "occ",
				"energy": -0.32991,
				"method": "rhf"
			},
			{
				"type": "occ",
				"energy": -0.31416,
				"method": "rhf"
			},
			{
				"type": "occ",
				"energy": -0.30929,
				"method": "rhf"
			},
			{
				"type": "occ",
				"energy": -0.29891,
				"method": "rhf"
			},
			{
				"type": "occ",
				"energy": -0.29004,
				"method": "rhf"
			},
			{
				"type": "unocc",
				"energy": -0.08954,
				"method": "rhf"
			},
			{
				"type": "unocc",
				"energy": -0.048,
				"method": "rhf"
			},
			{
				"type": "unocc",
				"energy": 0.01389,
				"method": "rhf"
			},
			{
				"type": "unocc",
				"energy": 0.02914,
				"method": "rhf"
			},
			{
				"type": "unocc",
				"energy": 0.03496,
				"method": "rhf"
			}
		],
		"cosmo_sigma_profile": { 
			"-0.025": 0.0,
			"-0.024": 0.0,
			"-0.023": 0.0,
			"-0.022": 0.0,
			"-0.021": 0.0,
			"-0.02": 0.0,
			"-0.019": 0.0,
			"-0.018": 0.0,
			"-0.017": 0.0,
			"-0.016": 0.0,
			"-0.015": 0.0,
			"-0.014": 0.0,
			"-0.013": 0.0,
			"-0.012": 0.0,
			"-0.011": 0.366631809976,
			"-0.01": 3.10490823081,
			"-0.009": 9.3400191586,
			"-0.008": 10.9727101245,
			"-0.007": 11.032933389,
			"-0.006": 11.1684355677,
			"-0.005": 12.5486285414,
			"-0.004": 13.9705802815,
			"-0.003": 17.6660083267,
			"-0.002": 17.6201399836,
			"-0.001": 14.7981227243,
			"0.0": 8.55014008237,
			"0.001": 5.82152541633,
			"0.002": 9.17995959374,
			"0.003": 6.2686615213,
			"0.004": 4.93776740984,
			"0.005": 4.3732667292,
			"0.006": 6.01580174352,
			"0.007": 5.86029173952,
			"0.008": 7.75291729847,
			"0.009": 6.13185188718,
			"0.01": 10.6805680959,
			"0.011": 12.1351138367,
			"0.012": 4.09193015871,
			"0.013": 0.172996048255,
			"0.014": 0.0,
			"0.015": 0.0,
			"0.016": 0.0,
			"0.017": 0.0,
			"0.018": 0.0,
			"0.019": 0.0,
			"0.02": 0.0,
			"0.021": 0.0,
			"0.022": 0.0,
			"0.023": 0.0,
			"0.024": 0.0,
			"0.025": 0.0
		}
	}
}
