{
	 "smiles": "CC1=C(C)C2=C(N=CN=C2N)N1CC1=CC=CC=C1", 
	 "Tm": 449.15, 
	 "num_atms": 35, 
	 "gaussian": { 
		 "optdone": 1, 
		 "sigma_profile": "yes", 
		 "theory": "DFT", 
		 "functional": "B3LYP", 
		 "basiset": "6-31G**", 
		 "properties": { 
			 "R2extent": 5462.8652, 
			 "electric_dipole_moment_norm": 3.65812087553, 
			 "electric_quadrupole_moment_norm": 11.2367629907, 
			 "total_energy": -800.281808977, 
			 "HOMO_LUMO_gap": 0.18462, 
			 "cosmo_polarized_energy": -14.2, 
			 "cosmo_cavitation_energy": 37.41, 
			 "cosmo_dispersion_energy": -26.54, 
			 "cosmo_repulsion_energy": 2.02, 
			 "cosmo_total_nonelectrostatic_energy": 12.89, 
			 "SMD_solvation_energy": 3.52 
		},
		"coords": [
			{
				"x": 0.4994540467,
				"y": -1.1394011509,
				"z": 2.9547181433,
				"element": "C" 
			},
			{
				"x": 0.4465783668,
				"y": -1.3107658733,
				"z": 1.4707019199,
				"element": "C" 
			},
			{
				"x": 1.3422587398,
				"y": -1.9203530161,
				"z": 0.6162280748,
				"element": "C" 
			},
			{
				"x": 2.643776471,
				"y": -2.5744679012,
				"z": 0.9804350503,
				"element": "C" 
			},
			{
				"x": 0.7810755375,
				"y": -1.8068353902,
				"z": -0.7061221031,
				"element": "C" 
			},
			{
				"x": -0.4453574397,
				"y": -1.1210159981,
				"z": -0.5874096411,
				"element": "C" 
			},
			{
				"x": -1.2762364204,
				"y": -0.793845127,
				"z": -1.5894410264,
				"element": "N" 
			},
			{
				"x": -0.8287745217,
				"y": -1.2035366551,
				"z": -2.7758905247,
				"element": "C" 
			},
			{
				"x": 0.3025584112,
				"y": -1.8723369781,
				"z": -3.0496764001,
				"element": "N" 
			},
			{
				"x": 1.118308702,
				"y": -2.1779998041,
				"z": -2.0267982645,
				"element": "C" 
			},
			{
				"x": 2.2886452676,
				"y": -2.8199599253,
				"z": -2.3485362915,
				"element": "N" 
			},
			{
				"x": -0.6454590971,
				"y": -0.8285038195,
				"z": 0.7378312296,
				"element": "N" 
			},
			{
				"x": -1.8072035114,
				"y": -0.1030299237,
				"z": 1.2465041187,
				"element": "C" 
			},
			{
				"x": -1.5501682164,
				"y": 1.3670507812,
				"z": 1.5338501564,
				"element": "C" 
			},
			{
				"x": -1.7574191764,
				"y": 1.8924205614,
				"z": 2.8136405894,
				"element": "C" 
			},
			{
				"x": -1.5432493953,
				"y": 3.2490948757,
				"z": 3.0715326689,
				"element": "C" 
			},
			{
				"x": -1.1159510753,
				"y": 4.0936291809,
				"z": 2.0474494638,
				"element": "C" 
			},
			{
				"x": -0.9098104036,
				"y": 3.5772322029,
				"z": 0.764710105,
				"element": "C" 
			},
			{
				"x": -1.127373712,
				"y": 2.2246055683,
				"z": 0.5079945718,
				"element": "C" 
			},
			{
				"x": -0.3227900003,
				"y": -1.665581603,
				"z": 3.4569963299,
				"element": "H" 
			},
			{
				"x": 0.4366638557,
				"y": -0.0845925859,
				"z": 3.2445042055,
				"element": "H" 
			},
			{
				"x": 1.4330446207,
				"y": -1.5416148152,
				"z": 3.3521783274,
				"element": "H" 
			},
			{
				"x": 2.6235258812,
				"y": -3.6592292535,
				"z": 0.8058636071,
				"element": "H" 
			},
			{
				"x": 2.8892067488,
				"y": -2.4312558414,
				"z": 2.0358665432,
				"element": "H" 
			},
			{
				"x": 3.4771273486,
				"y": -2.1630183083,
				"z": 0.3980391981,
				"element": "H" 
			},
			{
				"x": -1.4573262219,
				"y": -0.9722618732,
				"z": -3.6340090629,
				"element": "H" 
			},
			{
				"x": 2.3183153388,
				"y": -3.1962838488,
				"z": -3.2852658958,
				"element": "H" 
			},
			{
				"x": 2.7578753785,
				"y": -3.3540919932,
				"z": -1.6349779353,
				"element": "H" 
			},
			{
				"x": -2.5758874948,
				"y": -0.2044922686,
				"z": 0.4751125252,
				"element": "H" 
			},
			{
				"x": -2.171254653,
				"y": -0.6039691228,
				"z": 2.1488543795,
				"element": "H" 
			},
			{
				"x": -2.0930160977,
				"y": 1.2375547493,
				"z": 3.6147280065,
				"element": "H" 
			},
			{
				"x": -1.7085203205,
				"y": 3.6419698042,
				"z": 4.0708444368,
				"element": "H" 
			},
			{
				"x": -0.9465895241,
				"y": 5.148351286,
				"z": 2.2445885647,
				"element": "H" 
			},
			{
				"x": -0.5836536523,
				"y": 4.2320662813,
				"z": -0.0384570937,
				"element": "H" 
			},
			{
				"x": -0.9805737809,
				"y": 1.8259677855,
				"z": -0.4918879765,
				"element": "H" 
			}
		],
		 "valence_orbital": [ 
			{
				"type": "occ",
				"energy": -0.25037,
				"method": "rhf"
			},
			{
				"type": "occ",
				"energy": -0.24916,
				"method": "rhf"
			},
			{
				"type": "occ",
				"energy": -0.2398,
				"method": "rhf"
			},
			{
				"type": "occ",
				"energy": -0.23337,
				"method": "rhf"
			},
			{
				"type": "occ",
				"energy": -0.19085,
				"method": "rhf"
			},
			{
				"type": "unocc",
				"energy": -0.00623,
				"method": "rhf"
			},
			{
				"type": "unocc",
				"energy": -0.0043,
				"method": "rhf"
			},
			{
				"type": "unocc",
				"energy": -0.00135,
				"method": "rhf"
			},
			{
				"type": "unocc",
				"energy": 0.02221,
				"method": "rhf"
			},
			{
				"type": "unocc",
				"energy": 0.0603,
				"method": "rhf"
			}
		],
		"cosmo_sigma_profile": { 
			"-0.025": 0.0,
			"-0.024": 0.0,
			"-0.023": 0.0,
			"-0.022": 0.0,
			"-0.021": 0.0,
			"-0.02": 0.0,
			"-0.019": 0.0,
			"-0.018": 0.0,
			"-0.017": 0.0,
			"-0.016": 0.0,
			"-0.015": 0.0,
			"-0.014": 0.0,
			"-0.013": 0.605647805033,
			"-0.012": 2.05830711078,
			"-0.011": 2.34802752937,
			"-0.01": 2.33075185198,
			"-0.009": 2.13537465145,
			"-0.008": 2.83111813593,
			"-0.007": 2.65216561998,
			"-0.006": 13.8576536987,
			"-0.005": 20.617932283,
			"-0.004": 23.1487594023,
			"-0.003": 25.0511861938,
			"-0.002": 23.2702717005,
			"-0.001": 24.6556912608,
			"0.0": 22.4012963067,
			"0.001": 19.7270259745,
			"0.002": 21.8239917616,
			"0.003": 21.2545535282,
			"0.004": 18.1267177875,
			"0.005": 16.6519488989,
			"0.006": 10.7978927271,
			"0.007": 3.40143038921,
			"0.008": 3.25509170281,
			"0.009": 3.88400035244,
			"0.01": 2.66165519206,
			"0.011": 1.83527704466,
			"0.012": 1.55589259394,
			"0.013": 1.35921351275,
			"0.014": 1.63609731276,
			"0.015": 1.11577908842,
			"0.016": 0.555378930184,
			"0.017": 0.027924669549,
			"0.018": 0.0,
			"0.019": 0.0,
			"0.02": 0.0,
			"0.021": 0.0,
			"0.022": 0.0,
			"0.023": 0.0,
			"0.024": 0.0,
			"0.025": 0.0
		}
	}
}
