{
	 "smiles": "OC(=O)C1=C(F)C(O)=C(F)C(F)=C1", 
	 "Tm": 418.15, 
	 "num_atms": 16, 
	 "gaussian": { 
		 "optdone": 1, 
		 "sigma_profile": "yes", 
		 "theory": "DFT", 
		 "functional": "B3LYP", 
		 "basiset": "6-31G**", 
		 "properties": { 
			 "R2extent": 2664.7286, 
			 "electric_dipole_moment_norm": 4.46104287135, 
			 "electric_quadrupole_moment_norm": 7.32535061209, 
			 "total_energy": -793.714892367, 
			 "HOMO_LUMO_gap": 0.19531, 
			 "cosmo_polarized_energy": -13.08, 
			 "cosmo_cavitation_energy": 22.74, 
			 "cosmo_dispersion_energy": -16.81, 
			 "cosmo_repulsion_energy": 1.25, 
			 "cosmo_total_nonelectrostatic_energy": 7.18, 
			 "SMD_solvation_energy": 6.91 
		},
		"coords": [
			{
				"x": -2.8981230147,
				"y": -0.2532411559,
				"z": 0.4168528501,
				"element": "O" 
			},
			{
				"x": -2.3153358266,
				"y": -0.8127192782,
				"z": -0.6602249305,
				"element": "C" 
			},
			{
				"x": -2.9666153125,
				"y": -1.4529175176,
				"z": -1.4523087356,
				"element": "O" 
			},
			{
				"x": -0.8295370285,
				"y": -0.6127400127,
				"z": -0.8444293552,
				"element": "C" 
			},
			{
				"x": -0.0025650901,
				"y": 0.1098096849,
				"z": 0.0165268555,
				"element": "C" 
			},
			{
				"x": -0.5019342072,
				"y": 0.7110111892,
				"z": 1.1320269563,
				"element": "F" 
			},
			{
				"x": 1.3687078445,
				"y": 0.2587728942,
				"z": -0.2094542757,
				"element": "C" 
			},
			{
				"x": 2.1269187972,
				"y": 0.9696422497,
				"z": 0.6562038982,
				"element": "O" 
			},
			{
				"x": 1.902087376,
				"y": -0.3486209951,
				"z": -1.3460118639,
				"element": "C" 
			},
			{
				"x": 3.2250866994,
				"y": -0.206024697,
				"z": -1.5656865043,
				"element": "F" 
			},
			{
				"x": 1.0992963854,
				"y": -1.0755108795,
				"z": -2.2221225758,
				"element": "C" 
			},
			{
				"x": 1.6702419185,
				"y": -1.6358367189,
				"z": -3.2973272543,
				"element": "F" 
			},
			{
				"x": -0.2551304646,
				"y": -1.2096545927,
				"z": -1.9784590373,
				"element": "C" 
			},
			{
				"x": -2.2481298118,
				"y": 0.2261763988,
				"z": 0.9543787068,
				"element": "H" 
			},
			{
				"x": 3.0411348374,
				"y": 0.9610716792,
				"z": 0.3352159444,
				"element": "H" 
			},
			{
				"x": -0.8911031026,
				"y": -1.7720182485,
				"z": -2.6512806789,
				"element": "H" 
			}
		],
		 "valence_orbital": [ 
			{
				"type": "occ",
				"energy": -0.36253,
				"method": "rhf"
			},
			{
				"type": "occ",
				"energy": -0.32041,
				"method": "rhf"
			},
			{
				"type": "occ",
				"energy": -0.28613,
				"method": "rhf"
			},
			{
				"type": "occ",
				"energy": -0.27621,
				"method": "rhf"
			},
			{
				"type": "occ",
				"energy": -0.26096,
				"method": "rhf"
			},
			{
				"type": "unocc",
				"energy": -0.06565,
				"method": "rhf"
			},
			{
				"type": "unocc",
				"energy": -0.0248,
				"method": "rhf"
			},
			{
				"type": "unocc",
				"energy": 0.01396,
				"method": "rhf"
			},
			{
				"type": "unocc",
				"energy": 0.04536,
				"method": "rhf"
			},
			{
				"type": "unocc",
				"energy": 0.07574,
				"method": "rhf"
			}
		],
		"cosmo_sigma_profile": { 
			"-0.025": 0.0,
			"-0.024": 0.0,
			"-0.023": 0.0,
			"-0.022": 0.0,
			"-0.021": 0.0,
			"-0.02": 0.0,
			"-0.019": 0.199635967759,
			"-0.018": 0.565743866949,
			"-0.017": 0.581768368142,
			"-0.016": 0.644283784355,
			"-0.015": 0.45581475254,
			"-0.014": 1.25521359622,
			"-0.013": 1.84511714308,
			"-0.012": 1.88677589477,
			"-0.011": 2.46464481248,
			"-0.01": 3.05207491832,
			"-0.009": 2.39004000795,
			"-0.008": 3.4704980472,
			"-0.007": 4.78851430926,
			"-0.006": 4.17945965025,
			"-0.005": 4.49023362845,
			"-0.004": 8.06424198125,
			"-0.003": 18.7184607077,
			"-0.002": 14.4639925476,
			"-0.001": 12.9962204693,
			"0.0": 13.193128316,
			"0.001": 11.2290261145,
			"0.002": 15.8378233314,
			"0.003": 17.049342999,
			"0.004": 4.64732926054,
			"0.005": 3.34357596979,
			"0.006": 4.01445931958,
			"0.007": 4.8092979845,
			"0.008": 4.36890173262,
			"0.009": 5.44092282759,
			"0.01": 5.11571540298,
			"0.011": 5.14225681564,
			"0.012": 2.80958037329,
			"0.013": 0.57751537606,
			"0.014": 0.0,
			"0.015": 0.0,
			"0.016": 0.0,
			"0.017": 0.0,
			"0.018": 0.0,
			"0.019": 0.0,
			"0.02": 0.0,
			"0.021": 0.0,
			"0.022": 0.0,
			"0.023": 0.0,
			"0.024": 0.0,
			"0.025": 0.0
		}
	}
}
