{
	 "smiles": "CC(=O)C1C(=O)C=C2OC3=C(C(C)=O)C(O)=C(C)C(O)=C3C2(C)C1=O", 
	 "Tm": 477.15, 
	 "num_atms": 41, 
	 "gaussian": { 
		 "optdone": 1, 
		 "sigma_profile": "yes", 
		 "theory": "DFT", 
		 "functional": "B3LYP", 
		 "basiset": "6-31G**", 
		 "properties": { 
			 "R2extent": 9703.0648, 
			 "electric_dipole_moment_norm": 4.3111623827, 
			 "electric_quadrupole_moment_norm": 16.6797239009, 
			 "total_energy": -1222.10514686, 
			 "HOMO_LUMO_gap": 0.15995, 
			 "cosmo_polarized_energy": -21.83, 
			 "cosmo_cavitation_energy": 43.55, 
			 "cosmo_dispersion_energy": -30.72, 
			 "cosmo_repulsion_energy": 2.28, 
			 "cosmo_total_nonelectrostatic_energy": 15.1, 
			 "SMD_solvation_energy": 10.41 
		},
		"coords": [
			{
				"x": -0.4553370491,
				"y": -5.8038489085,
				"z": -3.2610648957,
				"element": "C" 
			},
			{
				"x": -0.0355807345,
				"y": -4.6935722703,
				"z": -2.3340259271,
				"element": "C" 
			},
			{
				"x": 0.9116860899,
				"y": -4.7711294891,
				"z": -1.5795981982,
				"element": "O" 
			},
			{
				"x": -0.8921810492,
				"y": -3.395045401,
				"z": -2.4158678782,
				"element": "C" 
			},
			{
				"x": -0.4629472794,
				"y": -2.5597777799,
				"z": -3.6614953741,
				"element": "C" 
			},
			{
				"x": -0.4898792985,
				"y": -3.0898862509,
				"z": -4.7646429905,
				"element": "O" 
			},
			{
				"x": -0.1651433,
				"y": -1.1472258793,
				"z": -3.4723931312,
				"element": "C" 
			},
			{
				"x": -0.098852016,
				"y": -0.6237688508,
				"z": -2.2327341991,
				"element": "C" 
			},
			{
				"x": -0.0661076511,
				"y": 0.7096410598,
				"z": -1.9854150422,
				"element": "O" 
			},
			{
				"x": -0.4197359882,
				"y": 0.9050246123,
				"z": -0.6508267981,
				"element": "C" 
			},
			{
				"x": -0.6095121998,
				"y": 2.162208547,
				"z": -0.0641449683,
				"element": "C" 
			},
			{
				"x": -0.3841960909,
				"y": 3.4156804553,
				"z": -0.8543844526,
				"element": "C" 
			},
			{
				"x": -0.94929683,
				"y": 4.7409586879,
				"z": -0.37486066,
				"element": "C" 
			},
			{
				"x": 0.2413576381,
				"y": 3.3678751566,
				"z": -1.9035967648,
				"element": "O" 
			},
			{
				"x": -0.997303455,
				"y": 2.0977789771,
				"z": 1.3034727888,
				"element": "C" 
			},
			{
				"x": -1.1825752741,
				"y": 3.2817672045,
				"z": 1.9516068193,
				"element": "O" 
			},
			{
				"x": -1.1976431904,
				"y": 0.8960193482,
				"z": 2.0051131688,
				"element": "C" 
			},
			{
				"x": -1.6359105356,
				"y": 0.9147769742,
				"z": 3.4507196977,
				"element": "C" 
			},
			{
				"x": -0.9918594599,
				"y": -0.3281075469,
				"z": 1.3393332311,
				"element": "C" 
			},
			{
				"x": -1.186225247,
				"y": -1.4777245395,
				"z": 2.0186199512,
				"element": "O" 
			},
			{
				"x": -0.595454792,
				"y": -0.3094838235,
				"z": -0.0008846795,
				"element": "C" 
			},
			{
				"x": -0.0999329638,
				"y": -1.3966581624,
				"z": -0.9344642763,
				"element": "C" 
			},
			{
				"x": 1.3619383801,
				"y": -1.8073229442,
				"z": -0.5440150979,
				"element": "C" 
			},
			{
				"x": -0.9120908134,
				"y": -2.6727795668,
				"z": -1.0743120283,
				"element": "C" 
			},
			{
				"x": -1.5340629578,
				"y": -3.1428025847,
				"z": -0.1323642667,
				"element": "O" 
			},
			{
				"x": 0.2685644426,
				"y": -6.6182814895,
				"z": -3.2148062745,
				"element": "H" 
			},
			{
				"x": -1.4457926857,
				"y": -6.1716168413,
				"z": -2.9665714797,
				"element": "H" 
			},
			{
				"x": -0.5436377943,
				"y": -5.4064684874,
				"z": -4.2772859409,
				"element": "H" 
			},
			{
				"x": -1.9235308232,
				"y": -3.7083674977,
				"z": -2.6185869157,
				"element": "H" 
			},
			{
				"x": -0.103698053,
				"y": -0.5237494825,
				"z": -4.3569657711,
				"element": "H" 
			},
			{
				"x": -0.8606055041,
				"y": 5.4523713813,
				"z": -1.1972975804,
				"element": "H" 
			},
			{
				"x": -0.3864130093,
				"y": 5.1074173368,
				"z": 0.4884542513,
				"element": "H" 
			},
			{
				"x": -1.9904670675,
				"y": 4.6509254481,
				"z": -0.0540573573,
				"element": "H" 
			},
			{
				"x": -1.425753656,
				"y": 3.1060426093,
				"z": 2.8697115193,
				"element": "H" 
			},
			{
				"x": -2.5696179579,
				"y": 1.4769788895,
				"z": 3.5914470086,
				"element": "H" 
			},
			{
				"x": -1.8167814253,
				"y": -0.1019333656,
				"z": 3.7992090403,
				"element": "H" 
			},
			{
				"x": -0.8737885264,
				"y": 1.3527157558,
				"z": 4.1102202401,
				"element": "H" 
			},
			{
				"x": -1.3028233412,
				"y": -2.2098044451,
				"z": 1.3713261457,
				"element": "H" 
			},
			{
				"x": 1.999880211,
				"y": -0.9211244195,
				"z": -0.578865497,
				"element": "H" 
			},
			{
				"x": 1.7545797378,
				"y": -2.5746013665,
				"z": -1.2121464641,
				"element": "H" 
			},
			{
				"x": 1.3572315199,
				"y": -2.2033010509,
				"z": 0.4744410472,
				"element": "H" 
			}
		],
		 "valence_orbital": [ 
			{
				"type": "occ",
				"energy": -0.27133,
				"method": "rhf"
			},
			{
				"type": "occ",
				"energy": -0.26355,
				"method": "rhf"
			},
			{
				"type": "occ",
				"energy": -0.23978,
				"method": "rhf"
			},
			{
				"type": "occ",
				"energy": -0.23463,
				"method": "rhf"
			},
			{
				"type": "occ",
				"energy": -0.23094,
				"method": "rhf"
			},
			{
				"type": "unocc",
				"energy": -0.07099,
				"method": "rhf"
			},
			{
				"type": "unocc",
				"energy": -0.06454,
				"method": "rhf"
			},
			{
				"type": "unocc",
				"energy": -0.04272,
				"method": "rhf"
			},
			{
				"type": "unocc",
				"energy": -0.03643,
				"method": "rhf"
			},
			{
				"type": "unocc",
				"energy": -0.0061,
				"method": "rhf"
			}
		],
		"cosmo_sigma_profile": { 
			"-0.025": 0.0,
			"-0.024": 0.0,
			"-0.023": 0.0,
			"-0.022": 0.0,
			"-0.021": 0.0,
			"-0.02": 0.0,
			"-0.019": 0.0,
			"-0.018": 0.0,
			"-0.017": 0.20307564422,
			"-0.016": 0.783247312289,
			"-0.015": 0.739619509106,
			"-0.014": 0.898620031175,
			"-0.013": 0.600096772405,
			"-0.012": 1.20924108955,
			"-0.011": 1.53598420379,
			"-0.01": 4.64783025171,
			"-0.009": 6.13565897103,
			"-0.008": 7.07977941221,
			"-0.007": 8.49898977644,
			"-0.006": 14.3415432953,
			"-0.005": 17.3735053997,
			"-0.004": 23.5284757343,
			"-0.003": 26.9583425341,
			"-0.002": 34.9603462745,
			"-0.001": 33.9605071397,
			"0.0": 28.2292560345,
			"0.001": 25.451911771,
			"0.002": 16.6898728163,
			"0.003": 11.264466049,
			"0.004": 10.3331971524,
			"0.005": 10.8631054725,
			"0.006": 8.96001833432,
			"0.007": 7.30904290936,
			"0.008": 8.01271961987,
			"0.009": 7.44395954803,
			"0.01": 7.6957556865,
			"0.011": 7.08036661763,
			"0.012": 6.28723301782,
			"0.013": 5.19875093738,
			"0.014": 1.86883658057,
			"0.015": 0.0418737353907,
			"0.016": 0.0,
			"0.017": 0.0,
			"0.018": 0.0,
			"0.019": 0.0,
			"0.02": 0.0,
			"0.021": 0.0,
			"0.022": 0.0,
			"0.023": 0.0,
			"0.024": 0.0,
			"0.025": 0.0
		}
	}
}
