{
	 "smiles": "OC(=O)C1=CC(=CC=C1)C(=O)C1=CC=CC=C1", 
	 "Tm": 437.15, 
	 "num_atms": 27, 
	 "gaussian": { 
		 "optdone": 1, 
		 "sigma_profile": "yes", 
		 "theory": "DFT", 
		 "functional": "B3LYP", 
		 "basiset": "6-31G**", 
		 "properties": { 
			 "R2extent": 4932.1642, 
			 "electric_dipole_moment_norm": 2.16558897531, 
			 "electric_quadrupole_moment_norm": 14.0198708025, 
			 "total_energy": -765.209340998, 
			 "HOMO_LUMO_gap": 0.17752, 
			 "cosmo_polarized_energy": -13.32, 
			 "cosmo_cavitation_energy": 32.38, 
			 "cosmo_dispersion_energy": -23.17, 
			 "cosmo_repulsion_energy": 1.78, 
			 "cosmo_total_nonelectrostatic_energy": 10.99, 
			 "SMD_solvation_energy": 7.15 
		},
		"coords": [
			{
				"x": 3.565751322,
				"y": 0.9245890778,
				"z": 1.0087836878,
				"element": "O" 
			},
			{
				"x": 2.5219913138,
				"y": 0.1245405018,
				"z": 0.6768723147,
				"element": "C" 
			},
			{
				"x": 2.6064684208,
				"y": -1.0875691452,
				"z": 0.6917200224,
				"element": "O" 
			},
			{
				"x": 1.2993601069,
				"y": 0.8864202098,
				"z": 0.3052539367,
				"element": "C" 
			},
			{
				"x": 0.1627888569,
				"y": 0.1545619543,
				"z": -0.0632221933,
				"element": "C" 
			},
			{
				"x": -1.0138663637,
				"y": 0.8141459174,
				"z": -0.4317644786,
				"element": "C" 
			},
			{
				"x": -1.0330291776,
				"y": 2.2197125066,
				"z": -0.4431218094,
				"element": "C" 
			},
			{
				"x": 0.0891963895,
				"y": 2.9484403919,
				"z": -0.0598839106,
				"element": "C" 
			},
			{
				"x": 1.2594381619,
				"y": 2.2864523049,
				"z": 0.3153298095,
				"element": "C" 
			},
			{
				"x": -2.244995683,
				"y": 0.0974804399,
				"z": -0.9144927979,
				"element": "C" 
			},
			{
				"x": -2.9923601206,
				"y": 0.6618178468,
				"z": -1.7061978978,
				"element": "O" 
			},
			{
				"x": -2.5614156338,
				"y": -1.2886226216,
				"z": -0.4419095009,
				"element": "C" 
			},
			{
				"x": -2.1669586634,
				"y": -1.781986779,
				"z": 0.8117395733,
				"element": "C" 
			},
			{
				"x": -2.5508439805,
				"y": -3.0608512195,
				"z": 1.2169049815,
				"element": "C" 
			},
			{
				"x": -3.3209697748,
				"y": -3.8611078357,
				"z": 0.3718721811,
				"element": "C" 
			},
			{
				"x": -3.7251194234,
				"y": -3.3740779879,
				"z": -0.8753679778,
				"element": "C" 
			},
			{
				"x": -3.3585373753,
				"y": -2.0926149751,
				"z": -1.2737121779,
				"element": "C" 
			},
			{
				"x": 4.2978748428,
				"y": 0.3257953735,
				"z": 1.2296973542,
				"element": "H" 
			},
			{
				"x": 0.2324783007,
				"y": -0.9268881524,
				"z": -0.0759133008,
				"element": "H" 
			},
			{
				"x": -1.94256348,
				"y": 2.717932321,
				"z": -0.7619505038,
				"element": "H" 
			},
			{
				"x": 0.057827363,
				"y": 4.0337293046,
				"z": -0.0592728824,
				"element": "H" 
			},
			{
				"x": 2.1404813672,
				"y": 2.8454571891,
				"z": 0.6093796048,
				"element": "H" 
			},
			{
				"x": -1.5826420332,
				"y": -1.1608198409,
				"z": 1.4819529286,
				"element": "H" 
			},
			{
				"x": -2.2489066779,
				"y": -3.4302603057,
				"z": 2.1924029381,
				"element": "H" 
			},
			{
				"x": -3.6108107499,
				"y": -4.8600083777,
				"z": 0.6853098863,
				"element": "H" 
			},
			{
				"x": -4.3294800368,
				"y": -3.9936206061,
				"z": -1.531504011,
				"element": "H" 
			},
			{
				"x": -3.6785572717,
				"y": -1.6883474927,
				"z": -2.2282057768,
				"element": "H" 
			}
		],
		 "valence_orbital": [ 
			{
				"type": "occ",
				"energy": -0.27153,
				"method": "rhf"
			},
			{
				"type": "occ",
				"energy": -0.27025,
				"method": "rhf"
			},
			{
				"type": "occ",
				"energy": -0.26257,
				"method": "rhf"
			},
			{
				"type": "occ",
				"energy": -0.26031,
				"method": "rhf"
			},
			{
				"type": "occ",
				"energy": -0.24885,
				"method": "rhf"
			},
			{
				"type": "unocc",
				"energy": -0.07133,
				"method": "rhf"
			},
			{
				"type": "unocc",
				"energy": -0.05109,
				"method": "rhf"
			},
			{
				"type": "unocc",
				"energy": -0.0206,
				"method": "rhf"
			},
			{
				"type": "unocc",
				"energy": -0.00864,
				"method": "rhf"
			},
			{
				"type": "unocc",
				"energy": 0.03251,
				"method": "rhf"
			}
		],
		"cosmo_sigma_profile": { 
			"-0.025": 0.0,
			"-0.024": 0.0,
			"-0.023": 0.0,
			"-0.022": 0.0,
			"-0.021": 0.0,
			"-0.02": 0.0,
			"-0.019": 0.112351533898,
			"-0.018": 0.920742963719,
			"-0.017": 0.893200005828,
			"-0.016": 0.664022787467,
			"-0.015": 0.647582972178,
			"-0.014": 1.24030311332,
			"-0.013": 0.402803360512,
			"-0.012": 0.691301606027,
			"-0.011": 0.745161783092,
			"-0.01": 0.558105012207,
			"-0.009": 0.381220921672,
			"-0.008": 0.837587053932,
			"-0.007": 5.66427473398,
			"-0.006": 16.1660053167,
			"-0.005": 19.2520259896,
			"-0.004": 18.800090076,
			"-0.003": 17.9283701874,
			"-0.002": 18.8534034434,
			"-0.001": 19.5634328109,
			"0.0": 20.7456833959,
			"0.001": 20.8797339278,
			"0.002": 22.3987165552,
			"0.003": 17.1648335824,
			"0.004": 14.7401628472,
			"0.005": 5.22431407156,
			"0.006": 5.64888211057,
			"0.007": 4.75291679898,
			"0.008": 2.93395286645,
			"0.009": 3.11064952056,
			"0.01": 4.76514467107,
			"0.011": 6.92407553574,
			"0.012": 6.63555113902,
			"0.013": 0.189419544736,
			"0.014": 0.0,
			"0.015": 0.0,
			"0.016": 0.0,
			"0.017": 0.0,
			"0.018": 0.0,
			"0.019": 0.0,
			"0.02": 0.0,
			"0.021": 0.0,
			"0.022": 0.0,
			"0.023": 0.0,
			"0.024": 0.0,
			"0.025": 0.0
		}
	}
}
