{
	 "smiles": "CC1=NN(C(N)=C1Br)C1=NC=CC=N1", 
	 "Tm": 433.15, 
	 "num_atms": 22, 
	 "gaussian": { 
		 "optdone": 1, 
		 "sigma_profile": "yes", 
		 "theory": "DFT", 
		 "functional": "B3LYP", 
		 "basiset": "6-31G**", 
		 "properties": { 
			 "R2extent": 5776.4459, 
			 "electric_dipole_moment_norm": 4.13958193783, 
			 "electric_quadrupole_moment_norm": 12.954572436, 
			 "total_energy": -3154.81557368, 
			 "HOMO_LUMO_gap": 0.14692, 
			 "cosmo_polarized_energy": -14.35, 
			 "cosmo_cavitation_energy": 28.77, 
			 "cosmo_dispersion_energy": -21.9, 
			 "cosmo_repulsion_energy": 1.72, 
			 "cosmo_total_nonelectrostatic_energy": 8.59, 
			 "SMD_solvation_energy": 1.35 
		},
		"coords": [
			{
				"x": -0.5143143796,
				"y": 2.939600999,
				"z": -2.2738006781,
				"element": "C" 
			},
			{
				"x": -0.9823136287,
				"y": 1.6717765778,
				"z": -1.6378063552,
				"element": "C" 
			},
			{
				"x": -0.1204024195,
				"y": 0.7745142408,
				"z": -1.1973129548,
				"element": "N" 
			},
			{
				"x": -0.8972563128,
				"y": -0.2509557368,
				"z": -0.6739988019,
				"element": "N" 
			},
			{
				"x": -2.2547583243,
				"y": 0.0165177917,
				"z": -0.7979879921,
				"element": "C" 
			},
			{
				"x": -3.2566398515,
				"y": -0.8384406331,
				"z": -0.4394845632,
				"element": "N" 
			},
			{
				"x": -2.320791778,
				"y": 1.2515520824,
				"z": -1.4128520647,
				"element": "C" 
			},
			{
				"x": -3.9215955305,
				"y": 2.1533789802,
				"z": -1.843389789,
				"element": "Br" 
			},
			{
				"x": -0.2797533136,
				"y": -1.35211339,
				"z": -0.0733970524,
				"element": "C" 
			},
			{
				"x": -1.0859180812,
				"y": -2.2163873751,
				"z": 0.56743903,
				"element": "N" 
			},
			{
				"x": -0.4898508759,
				"y": -3.2675926339,
				"z": 1.1396402688,
				"element": "C" 
			},
			{
				"x": 0.8853162348,
				"y": -3.4645328388,
				"z": 1.0914709723,
				"element": "C" 
			},
			{
				"x": 1.6145274259,
				"y": -2.4940543751,
				"z": 0.4010169636,
				"element": "C" 
			},
			{
				"x": 1.0501693321,
				"y": -1.4401777814,
				"z": -0.1861417125,
				"element": "N" 
			},
			{
				"x": -0.8772017157,
				"y": 3.8134097398,
				"z": -1.7218118631,
				"element": "H" 
			},
			{
				"x": -0.8895697892,
				"y": 3.0258419838,
				"z": -3.299319151,
				"element": "H" 
			},
			{
				"x": 0.5767623946,
				"y": 2.9593836467,
				"z": -2.2925572629,
				"element": "H" 
			},
			{
				"x": -2.9976271652,
				"y": -1.54852933,
				"z": 0.2342405902,
				"element": "H" 
			},
			{
				"x": -4.1685537126,
				"y": -0.4120134659,
				"z": -0.3603567886,
				"element": "H" 
			},
			{
				"x": -1.145071033,
				"y": -3.9671504365,
				"z": 1.6547189517,
				"element": "H" 
			},
			{
				"x": 1.3604772704,
				"y": -4.3180149092,
				"z": 1.5601304723,
				"element": "H" 
			},
			{
				"x": 2.6973652536,
				"y": -2.5657131365,
				"z": 0.3113597807,
				"element": "H" 
			}
		],
		 "valence_orbital": [ 
			{
				"type": "occ",
				"energy": -0.29706,
				"method": "rhf"
			},
			{
				"type": "occ",
				"energy": -0.27849,
				"method": "rhf"
			},
			{
				"type": "occ",
				"energy": -0.25877,
				"method": "rhf"
			},
			{
				"type": "occ",
				"energy": -0.23419,
				"method": "rhf"
			},
			{
				"type": "occ",
				"energy": -0.19913,
				"method": "rhf"
			},
			{
				"type": "unocc",
				"energy": -0.05221,
				"method": "rhf"
			},
			{
				"type": "unocc",
				"energy": -0.03998,
				"method": "rhf"
			},
			{
				"type": "unocc",
				"energy": 0.02397,
				"method": "rhf"
			},
			{
				"type": "unocc",
				"energy": 0.04405,
				"method": "rhf"
			},
			{
				"type": "unocc",
				"energy": 0.07549,
				"method": "rhf"
			}
		],
		"cosmo_sigma_profile": { 
			"-0.025": 0.0,
			"-0.024": 0.0,
			"-0.023": 0.0,
			"-0.022": 0.0,
			"-0.021": 0.0,
			"-0.02": 0.0,
			"-0.019": 0.0,
			"-0.018": 0.0,
			"-0.017": 0.0,
			"-0.016": 0.0,
			"-0.015": 0.0,
			"-0.014": 0.0152595416141,
			"-0.013": 0.600455406581,
			"-0.012": 0.906492389545,
			"-0.011": 0.842499828548,
			"-0.01": 2.07116005056,
			"-0.009": 2.21608646291,
			"-0.008": 7.94532919934,
			"-0.007": 10.2052666892,
			"-0.006": 8.14771530724,
			"-0.005": 10.2443066821,
			"-0.004": 12.451928109,
			"-0.003": 15.6685124812,
			"-0.002": 20.2109413355,
			"-0.001": 24.3131980396,
			"0.0": 23.0949781626,
			"0.001": 16.1995575962,
			"0.002": 15.9402583819,
			"0.003": 17.1207253525,
			"0.004": 14.0492380735,
			"0.005": 7.78385579033,
			"0.006": 3.1725053399,
			"0.007": 3.21570082232,
			"0.008": 2.70924048613,
			"0.009": 1.99908497352,
			"0.01": 1.51508765741,
			"0.011": 1.72889474448,
			"0.012": 1.50474013262,
			"0.013": 1.44303979356,
			"0.014": 1.58707976251,
			"0.015": 0.838295475017,
			"0.016": 0.758396420812,
			"0.017": 1.13856814035,
			"0.018": 1.14908131357,
			"0.019": 0.81254083103,
			"0.02": 0.71621889528,
			"0.021": 0.0636812914661,
			"0.022": 0.0,
			"0.023": 0.0,
			"0.024": 0.0,
			"0.025": 0.0
		}
	}
}
