{
	 "smiles": "COC1=C(C=C(CBr)C=C1)C#N", 
	 "Tm": 393.15, 
	 "num_atms": 20, 
	 "gaussian": { 
		 "optdone": 1, 
		 "sigma_profile": "yes", 
		 "theory": "DFT", 
		 "functional": "B3LYP", 
		 "basiset": "6-31G**", 
		 "properties": { 
			 "R2extent": 4852.9102, 
			 "electric_dipole_moment_norm": 5.5145631749, 
			 "electric_quadrupole_moment_norm": 21.710283131, 
			 "total_energy": -3049.13490906, 
			 "HOMO_LUMO_gap": 0.18596, 
			 "cosmo_polarized_energy": -14.54, 
			 "cosmo_cavitation_energy": 27.81, 
			 "cosmo_dispersion_energy": -19.81, 
			 "cosmo_repulsion_energy": 1.61, 
			 "cosmo_total_nonelectrostatic_energy": 9.6, 
			 "SMD_solvation_energy": 5.67 
		},
		"coords": [
			{
				"x": 2.9337136434,
				"y": 1.8710475018,
				"z": 1.3129576513,
				"element": "C" 
			},
			{
				"x": 2.2215295449,
				"y": 0.6515678532,
				"z": 1.4945378486,
				"element": "O" 
			},
			{
				"x": 1.4297161487,
				"y": 0.2030176651,
				"z": 0.4967384424,
				"element": "C" 
			},
			{
				"x": 0.7570145291,
				"y": -1.0191407172,
				"z": 0.7409016708,
				"element": "C" 
			},
			{
				"x": -0.0852064387,
				"y": -1.559233719,
				"z": -0.2378232715,
				"element": "C" 
			},
			{
				"x": -0.2837581715,
				"y": -0.9101640121,
				"z": -1.4598894806,
				"element": "C" 
			},
			{
				"x": -1.1935378433,
				"y": -1.4873327586,
				"z": -2.4916352691,
				"element": "C" 
			},
			{
				"x": -0.2168422966,
				"y": -2.6369380547,
				"z": -3.8191591171,
				"element": "Br" 
			},
			{
				"x": 0.3898218949,
				"y": 0.2974932705,
				"z": -1.6852934024,
				"element": "C" 
			},
			{
				"x": 1.2347455761,
				"y": 0.8536389704,
				"z": -0.7278346364,
				"element": "C" 
			},
			{
				"x": 0.9348530599,
				"y": -1.6980769861,
				"z": 1.9885444261,
				"element": "C" 
			},
			{
				"x": 1.0574440169,
				"y": -2.2713177031,
				"z": 2.9932224009,
				"element": "N" 
			},
			{
				"x": 2.249523934,
				"y": 2.714549791,
				"z": 1.1622007721,
				"element": "H" 
			},
			{
				"x": 3.4978168613,
				"y": 2.0222423616,
				"z": 2.2332821442,
				"element": "H" 
			},
			{
				"x": 3.6275102638,
				"y": 1.8059135389,
				"z": 0.4664857147,
				"element": "H" 
			},
			{
				"x": -0.5859621529,
				"y": -2.4999171061,
				"z": -0.0309598517,
				"element": "H" 
			},
			{
				"x": -1.9456265749,
				"y": -2.149234543,
				"z": -2.0668591902,
				"element": "H" 
			},
			{
				"x": -1.6721122708,
				"y": -0.7258702987,
				"z": -3.1046095627,
				"element": "H" 
			},
			{
				"x": 0.2555785196,
				"y": 0.8141713135,
				"z": -2.6318075446,
				"element": "H" 
			},
			{
				"x": 1.7358777561,
				"y": 1.7902836327,
				"z": -0.9380997451,
				"element": "H" 
			}
		],
		 "valence_orbital": [ 
			{
				"type": "occ",
				"energy": -0.3271,
				"method": "rhf"
			},
			{
				"type": "occ",
				"energy": -0.27914,
				"method": "rhf"
			},
			{
				"type": "occ",
				"energy": -0.27768,
				"method": "rhf"
			},
			{
				"type": "occ",
				"energy": -0.27174,
				"method": "rhf"
			},
			{
				"type": "occ",
				"energy": -0.24228,
				"method": "rhf"
			},
			{
				"type": "unocc",
				"energy": -0.05632,
				"method": "rhf"
			},
			{
				"type": "unocc",
				"energy": -0.04233,
				"method": "rhf"
			},
			{
				"type": "unocc",
				"energy": 0.01473,
				"method": "rhf"
			},
			{
				"type": "unocc",
				"energy": 0.03665,
				"method": "rhf"
			},
			{
				"type": "unocc",
				"energy": 0.0704,
				"method": "rhf"
			}
		],
		"cosmo_sigma_profile": { 
			"-0.025": 0.0,
			"-0.024": 0.0,
			"-0.023": 0.0,
			"-0.022": 0.0,
			"-0.021": 0.0,
			"-0.02": 0.0,
			"-0.019": 0.0,
			"-0.018": 0.0,
			"-0.017": 0.0,
			"-0.016": 0.0,
			"-0.015": 0.0,
			"-0.014": 0.0,
			"-0.013": 0.0,
			"-0.012": 0.0,
			"-0.011": 0.0,
			"-0.01": 0.0,
			"-0.009": 1.36225939964,
			"-0.008": 10.1910863859,
			"-0.007": 14.6610755461,
			"-0.006": 18.1232104437,
			"-0.005": 15.2610764647,
			"-0.004": 16.1869430088,
			"-0.003": 9.90311881831,
			"-0.002": 9.4192203877,
			"-0.001": 15.775371476,
			"0.0": 14.0628664185,
			"0.001": 14.7101443881,
			"0.002": 14.2833858324,
			"0.003": 9.88116966189,
			"0.004": 8.95378197613,
			"0.005": 9.93473330696,
			"0.006": 15.4426730941,
			"0.007": 8.56088994121,
			"0.008": 5.46618797307,
			"0.009": 3.75809098945,
			"0.01": 3.30409624496,
			"0.011": 2.88624772719,
			"0.012": 2.50109689229,
			"0.013": 1.71641997442,
			"0.014": 0.12677001848,
			"0.015": 0.0,
			"0.016": 0.0,
			"0.017": 0.0,
			"0.018": 0.0,
			"0.019": 0.0,
			"0.02": 0.0,
			"0.021": 0.0,
			"0.022": 0.0,
			"0.023": 0.0,
			"0.024": 0.0,
			"0.025": 0.0
		}
	}
}
