{
	 "smiles": "CCOP(=S)(OCC)OC1=NC(Cl)=C(Cl)C=C1Cl", 
	 "Tm": 315.15, 
	 "num_atms": 29, 
	 "gaussian": { 
		 "optdone": 1, 
		 "sigma_profile": "yes", 
		 "theory": "DFT", 
		 "functional": "B3LYP", 
		 "basiset": "6-31G**", 
		 "properties": { 
			 "R2extent": 8150.0964, 
			 "electric_dipole_moment_norm": 2.27031152708, 
			 "electric_quadrupole_moment_norm": 15.7686740584, 
			 "total_energy": -2750.19481734, 
			 "HOMO_LUMO_gap": 0.18322, 
			 "cosmo_polarized_energy": -10.04, 
			 "cosmo_cavitation_energy": 42.29, 
			 "cosmo_dispersion_energy": -29.22, 
			 "cosmo_repulsion_energy": 2.29, 
			 "cosmo_total_nonelectrostatic_energy": 15.36, 
			 "SMD_solvation_energy": 6.6 
		},
		"coords": [
			{
				"x": 0.461078858,
				"y": 5.0472787984,
				"z": -1.2269416117,
				"element": "C" 
			},
			{
				"x": 0.1198969065,
				"y": 3.6135361314,
				"z": -1.5823017042,
				"element": "C" 
			},
			{
				"x": 1.1128086,
				"y": 2.75916501,
				"z": -0.9519615703,
				"element": "O" 
			},
			{
				"x": 1.1566443382,
				"y": 1.1874425303,
				"z": -1.2488866023,
				"element": "P" 
			},
			{
				"x": 1.2495423282,
				"y": 0.5841335171,
				"z": -3.081910545,
				"element": "S" 
			},
			{
				"x": 2.3102339831,
				"y": 0.7827730694,
				"z": -0.2253328968,
				"element": "O" 
			},
			{
				"x": 3.2729880426,
				"y": -0.281929789,
				"z": -0.4850876631,
				"element": "C" 
			},
			{
				"x": 4.317698431,
				"y": -0.2146446516,
				"z": 0.6111204767,
				"element": "C" 
			},
			{
				"x": -0.2689096718,
				"y": 0.7960502979,
				"z": -0.4547440294,
				"element": "O" 
			},
			{
				"x": -0.7168314016,
				"y": -0.4632530592,
				"z": -0.2596307118,
				"element": "C" 
			},
			{
				"x": 0.1368422894,
				"y": -1.4758876263,
				"z": -0.3033139956,
				"element": "N" 
			},
			{
				"x": -0.2845292348,
				"y": -2.713445759,
				"z": -0.0939978895,
				"element": "C" 
			},
			{
				"x": 0.9228887543,
				"y": -3.970578252,
				"z": -0.1794497317,
				"element": "Cl" 
			},
			{
				"x": -1.6224228081,
				"y": -3.0140267777,
				"z": 0.1894192881,
				"element": "C" 
			},
			{
				"x": -2.1849268506,
				"y": -4.6353005764,
				"z": 0.4715679317,
				"element": "Cl" 
			},
			{
				"x": -2.5282843978,
				"y": -1.9516456797,
				"z": 0.2437561941,
				"element": "C" 
			},
			{
				"x": -2.0827346855,
				"y": -0.6568188093,
				"z": 0.0153100685,
				"element": "C" 
			},
			{
				"x": -3.1896085162,
				"y": 0.683796615,
				"z": 0.0700964525,
				"element": "Cl" 
			},
			{
				"x": 1.453978739,
				"y": 5.3128644748,
				"z": -1.5996868636,
				"element": "H" 
			},
			{
				"x": 0.4445663139,
				"y": 5.1944981162,
				"z": -0.1436350724,
				"element": "H" 
			},
			{
				"x": -0.2720524725,
				"y": 5.7220059092,
				"z": -1.6801928119,
				"element": "H" 
			},
			{
				"x": 0.1493364859,
				"y": 3.4476361931,
				"z": -2.664082301,
				"element": "H" 
			},
			{
				"x": -0.8682372949,
				"y": 3.3284061782,
				"z": -1.2073761823,
				"element": "H" 
			},
			{
				"x": 2.7351897057,
				"y": -1.2323799031,
				"z": -0.4813609977,
				"element": "H" 
			},
			{
				"x": 3.7088572617,
				"y": -0.1247960093,
				"z": -1.4753670638,
				"element": "H" 
			},
			{
				"x": 3.8621847713,
				"y": -0.360892008,
				"z": 1.5943200064,
				"element": "H" 
			},
			{
				"x": 4.8312243151,
				"y": 0.7507054546,
				"z": 0.6050601679,
				"element": "H" 
			},
			{
				"x": 5.0597506725,
				"y": -1.0039224185,
				"z": 0.4536805635,
				"element": "H" 
			},
			{
				"x": -3.5736734624,
				"y": -2.1393709764,
				"z": 0.4579290947,
				"element": "H" 
			}
		],
		 "valence_orbital": [ 
			{
				"type": "occ",
				"energy": -0.30798,
				"method": "rhf"
			},
			{
				"type": "occ",
				"energy": -0.30005,
				"method": "rhf"
			},
			{
				"type": "occ",
				"energy": -0.26075,
				"method": "rhf"
			},
			{
				"type": "occ",
				"energy": -0.24848,
				"method": "rhf"
			},
			{
				"type": "occ",
				"energy": -0.24531,
				"method": "rhf"
			},
			{
				"type": "unocc",
				"energy": -0.06209,
				"method": "rhf"
			},
			{
				"type": "unocc",
				"energy": -0.04389,
				"method": "rhf"
			},
			{
				"type": "unocc",
				"energy": -0.0142,
				"method": "rhf"
			},
			{
				"type": "unocc",
				"energy": 0.0144,
				"method": "rhf"
			},
			{
				"type": "unocc",
				"energy": 0.0349,
				"method": "rhf"
			}
		],
		"cosmo_sigma_profile": { 
			"-0.025": 0.0,
			"-0.024": 0.0,
			"-0.023": 0.0,
			"-0.022": 0.0,
			"-0.021": 0.0,
			"-0.02": 0.0,
			"-0.019": 0.0,
			"-0.018": 0.0,
			"-0.017": 0.0,
			"-0.016": 0.0,
			"-0.015": 0.0,
			"-0.014": 0.0,
			"-0.013": 0.0,
			"-0.012": 0.0,
			"-0.011": 0.445946783792,
			"-0.01": 1.46004138038,
			"-0.009": 1.93317129924,
			"-0.008": 1.14951024699,
			"-0.007": 2.04867300184,
			"-0.006": 3.35275819152,
			"-0.005": 16.3359351663,
			"-0.004": 33.6007447023,
			"-0.003": 37.8248175491,
			"-0.002": 37.8107406818,
			"-0.001": 32.5278502882,
			"0.0": 29.9655731402,
			"0.001": 26.0790615398,
			"0.002": 31.3674610593,
			"0.003": 34.114804019,
			"0.004": 16.0675996904,
			"0.005": 9.11351367676,
			"0.006": 8.40123976407,
			"0.007": 9.638650792,
			"0.008": 8.17458070443,
			"0.009": 3.39131020607,
			"0.01": 0.583937063339,
			"0.011": 0.0,
			"0.012": 0.0,
			"0.013": 0.0,
			"0.014": 0.0,
			"0.015": 0.0,
			"0.016": 0.0,
			"0.017": 0.0,
			"0.018": 0.0,
			"0.019": 0.0,
			"0.02": 0.0,
			"0.021": 0.0,
			"0.022": 0.0,
			"0.023": 0.0,
			"0.024": 0.0,
			"0.025": 0.0
		}
	}
}
