{
	 "smiles": "BrC(C=O)C=NC1=NC=C(Br)N=C1", 
	 "Tm": 451.15, 
	 "num_atms": 18, 
	 "gaussian": { 
		 "optdone": 1, 
		 "sigma_profile": "yes", 
		 "theory": "DFT", 
		 "functional": "B3LYP", 
		 "basiset": "6-31G**", 
		 "properties": { 
			 "R2extent": 9806.04, 
			 "electric_dipole_moment_norm": 2.25804311075, 
			 "electric_quadrupole_moment_norm": 10.2004279199, 
			 "total_energy": -5651.99345512, 
			 "HOMO_LUMO_gap": 0.16552, 
			 "cosmo_polarized_energy": -10.2, 
			 "cosmo_cavitation_energy": 29.26, 
			 "cosmo_dispersion_energy": -21.86, 
			 "cosmo_repulsion_energy": 1.78, 
			 "cosmo_total_nonelectrostatic_energy": 9.18, 
			 "SMD_solvation_energy": 0.38 
		},
		"coords": [
			{
				"x": -3.0226243289,
				"y": 2.3942030117,
				"z": -1.2494140209,
				"element": "Br" 
			},
			{
				"x": -1.2107671381,
				"y": 1.8354983554,
				"z": -0.606307219,
				"element": "C" 
			},
			{
				"x": -1.1852251931,
				"y": 2.0730306829,
				"z": 0.8990158372,
				"element": "C" 
			},
			{
				"x": -0.4028284974,
				"y": 2.8354229015,
				"z": 1.4131330379,
				"element": "O" 
			},
			{
				"x": -1.010594972,
				"y": 0.4092620645,
				"z": -1.0078961759,
				"element": "C" 
			},
			{
				"x": -0.7785496679,
				"y": -0.4647033282,
				"z": -0.1035716455,
				"element": "N" 
			},
			{
				"x": -0.5577665519,
				"y": -1.8024325674,
				"z": -0.4783108541,
				"element": "C" 
			},
			{
				"x": -0.4935561553,
				"y": -2.1710807026,
				"z": -1.7683906372,
				"element": "N" 
			},
			{
				"x": -0.2804592173,
				"y": -3.4548558385,
				"z": -2.0292349472,
				"element": "C" 
			},
			{
				"x": -0.1289422925,
				"y": -4.3806925822,
				"z": -0.98344873,
				"element": "C" 
			},
			{
				"x": 0.1767515237,
				"y": -6.2151673432,
				"z": -1.4137443323,
				"element": "Br" 
			},
			{
				"x": -0.1849478786,
				"y": -4.0375237352,
				"z": 0.2892849484,
				"element": "N" 
			},
			{
				"x": -0.3980171721,
				"y": -2.7432160783,
				"z": 0.548256765,
				"element": "C" 
			},
			{
				"x": -0.5138325622,
				"y": 2.510729106,
				"z": -1.1053394171,
				"element": "H" 
			},
			{
				"x": -1.9444260417,
				"y": 1.509894817,
				"z": 1.4720995998,
				"element": "H" 
			},
			{
				"x": -1.0650628919,
				"y": 0.1699555416,
				"z": -2.0742314465,
				"element": "H" 
			},
			{
				"x": -0.2244342661,
				"y": -3.7672389097,
				"z": -3.068159873,
				"element": "H" 
			},
			{
				"x": -0.4463166967,
				"y": -2.4324853955,
				"z": 1.5878591104,
				"element": "H" 
			}
		],
		 "valence_orbital": [ 
			{
				"type": "occ",
				"energy": -0.30367,
				"method": "rhf"
			},
			{
				"type": "occ",
				"energy": -0.29829,
				"method": "rhf"
			},
			{
				"type": "occ",
				"energy": -0.28246,
				"method": "rhf"
			},
			{
				"type": "occ",
				"energy": -0.2704,
				"method": "rhf"
			},
			{
				"type": "occ",
				"energy": -0.2667,
				"method": "rhf"
			},
			{
				"type": "unocc",
				"energy": -0.10118,
				"method": "rhf"
			},
			{
				"type": "unocc",
				"energy": -0.0701,
				"method": "rhf"
			},
			{
				"type": "unocc",
				"energy": -0.05651,
				"method": "rhf"
			},
			{
				"type": "unocc",
				"energy": -0.01524,
				"method": "rhf"
			},
			{
				"type": "unocc",
				"energy": -0.00645,
				"method": "rhf"
			}
		],
		"cosmo_sigma_profile": { 
			"-0.025": 0.0,
			"-0.024": 0.0,
			"-0.023": 0.0,
			"-0.022": 0.0,
			"-0.021": 0.0,
			"-0.02": 0.0,
			"-0.019": 0.0,
			"-0.018": 0.0,
			"-0.017": 0.0,
			"-0.016": 0.0,
			"-0.015": 0.0,
			"-0.014": 0.0,
			"-0.013": 0.0,
			"-0.012": 0.0,
			"-0.011": 0.0215713060984,
			"-0.01": 2.40637804155,
			"-0.009": 4.7309316573,
			"-0.008": 7.94564335254,
			"-0.007": 8.33040085711,
			"-0.006": 8.32404954376,
			"-0.005": 10.9298408026,
			"-0.004": 13.7722533745,
			"-0.003": 20.6929941594,
			"-0.002": 22.6370155809,
			"-0.001": 16.3509889179,
			"0.0": 15.9600157229,
			"0.001": 15.9829791309,
			"0.002": 16.8333670682,
			"0.003": 22.5823793714,
			"0.004": 19.8811820743,
			"0.005": 7.31044104594,
			"0.006": 5.20185826709,
			"0.007": 4.85524780233,
			"0.008": 4.07724970321,
			"0.009": 5.10159155077,
			"0.01": 4.93524407901,
			"0.011": 2.88179096941,
			"0.012": 0.716865085147,
			"0.013": 0.279310422592,
			"0.014": 0.0,
			"0.015": 0.0,
			"0.016": 0.0,
			"0.017": 0.0,
			"0.018": 0.0,
			"0.019": 0.0,
			"0.02": 0.0,
			"0.021": 0.0,
			"0.022": 0.0,
			"0.023": 0.0,
			"0.024": 0.0,
			"0.025": 0.0
		}
	}
}
