{
	 "smiles": "CC(=CC(O)=O)C1=CC=C(C=C1)C(F)(F)F", 
	 "Tm": 396.15, 
	 "num_atms": 25, 
	 "gaussian": { 
		 "optdone": 1, 
		 "sigma_profile": "yes", 
		 "theory": "DFT", 
		 "functional": "B3LYP", 
		 "basiset": "6-31G**", 
		 "properties": { 
			 "R2extent": 4769.8032, 
			 "electric_dipole_moment_norm": 1.98988043108, 
			 "electric_quadrupole_moment_norm": 19.8774866656, 
			 "total_energy": -874.571716176, 
			 "HOMO_LUMO_gap": 0.19989, 
			 "cosmo_polarized_energy": -11.51, 
			 "cosmo_cavitation_energy": 31.49, 
			 "cosmo_dispersion_energy": -21.55, 
			 "cosmo_repulsion_energy": 1.65, 
			 "cosmo_total_nonelectrostatic_energy": 11.6, 
			 "SMD_solvation_energy": 8.05 
		},
		"coords": [
			{
				"x": 1.6800971485,
				"y": 2.7959268825,
				"z": 0.6009045996,
				"element": "C" 
			},
			{
				"x": 1.5130855877,
				"y": 1.3043466963,
				"z": 0.7789847349,
				"element": "C" 
			},
			{
				"x": 2.1678031044,
				"y": 0.6747196721,
				"z": 1.7759536712,
				"element": "C" 
			},
			{
				"x": 2.2271043638,
				"y": -0.7607357331,
				"z": 2.1218050352,
				"element": "C" 
			},
			{
				"x": 1.6700131103,
				"y": -1.6050370048,
				"z": 1.2195707426,
				"element": "O" 
			},
			{
				"x": 2.7655662882,
				"y": -1.1671329274,
				"z": 3.1347127605,
				"element": "O" 
			},
			{
				"x": 0.569304823,
				"y": 0.6642319457,
				"z": -0.1834408984,
				"element": "C" 
			},
			{
				"x": -0.6300296364,
				"y": 0.0893253563,
				"z": 0.2624316912,
				"element": "C" 
			},
			{
				"x": -1.5429089216,
				"y": -0.4437702653,
				"z": -0.6424703971,
				"element": "C" 
			},
			{
				"x": -1.2654933387,
				"y": -0.4161873357,
				"z": -2.0117039699,
				"element": "C" 
			},
			{
				"x": -0.075149639,
				"y": 0.1523605938,
				"z": -2.4702226605,
				"element": "C" 
			},
			{
				"x": 0.828374751,
				"y": 0.6980199731,
				"z": -1.5617145292,
				"element": "C" 
			},
			{
				"x": -2.2756919728,
				"y": -0.9430582866,
				"z": -2.9939654608,
				"element": "C" 
			},
			{
				"x": -3.1558935456,
				"y": 0.0160533295,
				"z": -3.3671292651,
				"element": "F" 
			},
			{
				"x": -1.6903493897,
				"y": -1.3974520625,
				"z": -4.1242098339,
				"element": "F" 
			},
			{
				"x": -3.0014122608,
				"y": -1.9578722979,
				"z": -2.4742528814,
				"element": "F" 
			},
			{
				"x": 2.382147537,
				"y": 3.2158958912,
				"z": 1.3248852431,
				"element": "H" 
			},
			{
				"x": 0.7152302288,
				"y": 3.3060681836,
				"z": 0.7062405574,
				"element": "H" 
			},
			{
				"x": 2.0421981141,
				"y": 3.0268655888,
				"z": -0.4079499534,
				"element": "H" 
			},
			{
				"x": 2.7769379109,
				"y": 1.2666446455,
				"z": 2.4525282061,
				"element": "H" 
			},
			{
				"x": 1.806417781,
				"y": -2.4959902767,
				"z": 1.5831140997,
				"element": "H" 
			},
			{
				"x": -0.8442626365,
				"y": 0.0614407088,
				"z": 1.325736808,
				"element": "H" 
			},
			{
				"x": -2.4659347538,
				"y": -0.8895321928,
				"z": -0.2876070971,
				"element": "H" 
			},
			{
				"x": 0.144619432,
				"y": 0.1626376742,
				"z": -3.5322824322,
				"element": "H" 
			},
			{
				"x": 1.7540259143,
				"y": 1.1330312413,
				"z": -1.9267187706,
				"element": "H" 
			}
		],
		 "valence_orbital": [ 
			{
				"type": "occ",
				"energy": -0.31886,
				"method": "rhf"
			},
			{
				"type": "occ",
				"energy": -0.28614,
				"method": "rhf"
			},
			{
				"type": "occ",
				"energy": -0.27586,
				"method": "rhf"
			},
			{
				"type": "occ",
				"energy": -0.26944,
				"method": "rhf"
			},
			{
				"type": "occ",
				"energy": -0.25915,
				"method": "rhf"
			},
			{
				"type": "unocc",
				"energy": -0.05926,
				"method": "rhf"
			},
			{
				"type": "unocc",
				"energy": -0.02261,
				"method": "rhf"
			},
			{
				"type": "unocc",
				"energy": -0.02072,
				"method": "rhf"
			},
			{
				"type": "unocc",
				"energy": 0.07479,
				"method": "rhf"
			},
			{
				"type": "unocc",
				"energy": 0.08402,
				"method": "rhf"
			}
		],
		"cosmo_sigma_profile": { 
			"-0.025": 0.0,
			"-0.024": 0.0,
			"-0.023": 0.0,
			"-0.022": 0.0,
			"-0.021": 0.0,
			"-0.02": 0.0,
			"-0.019": 0.0188714207981,
			"-0.018": 0.530752771859,
			"-0.017": 0.973490374399,
			"-0.016": 0.633933802186,
			"-0.015": 1.0517182642,
			"-0.014": 0.264376583561,
			"-0.013": 0.246526532317,
			"-0.012": 0.912852147779,
			"-0.011": 1.32144666568,
			"-0.01": 0.363811234638,
			"-0.009": 0.564456760867,
			"-0.008": 0.836859162864,
			"-0.007": 6.76074837299,
			"-0.006": 13.6533555948,
			"-0.005": 15.9748143964,
			"-0.004": 15.0680705346,
			"-0.003": 15.236505002,
			"-0.002": 17.50123149,
			"-0.001": 19.9929423007,
			"0.0": 19.0397374853,
			"0.001": 19.2572850678,
			"0.002": 27.49609979,
			"0.003": 38.2097358093,
			"0.004": 6.96465710298,
			"0.005": 4.31818420281,
			"0.006": 3.40644425732,
			"0.007": 2.44350468063,
			"0.008": 3.14916554811,
			"0.009": 2.76489688629,
			"0.01": 1.93643386187,
			"0.011": 2.1988455553,
			"0.012": 5.71803074318,
			"0.013": 2.27559309883,
			"0.014": 0.112494660693,
			"0.015": 0.0,
			"0.016": 0.0,
			"0.017": 0.0,
			"0.018": 0.0,
			"0.019": 0.0,
			"0.02": 0.0,
			"0.021": 0.0,
			"0.022": 0.0,
			"0.023": 0.0,
			"0.024": 0.0,
			"0.025": 0.0
		}
	}
}
