{
	 "smiles": "OC(=O)C=CC1=C(F)C(F)=CC=C1", 
	 "Tm": 472.65, 
	 "num_atms": 19, 
	 "gaussian": { 
		 "optdone": 1, 
		 "sigma_profile": "yes", 
		 "theory": "DFT", 
		 "functional": "B3LYP", 
		 "basiset": "6-31G**", 
		 "properties": { 
			 "R2extent": 3893.3472, 
			 "electric_dipole_moment_norm": 1.97162270985, 
			 "electric_quadrupole_moment_norm": 12.5243855718, 
			 "total_energy": -696.685738283, 
			 "HOMO_LUMO_gap": 0.17265, 
			 "cosmo_polarized_energy": -9.97, 
			 "cosmo_cavitation_energy": 25.54, 
			 "cosmo_dispersion_energy": -18.44, 
			 "cosmo_repulsion_energy": 1.42, 
			 "cosmo_total_nonelectrostatic_energy": 8.52, 
			 "SMD_solvation_energy": 6.69 
		},
		"coords": [
			{
				"x": 2.5498474343,
				"y": 0.0796539236,
				"z": -4.5451247842,
				"element": "O" 
			},
			{
				"x": 2.0705757729,
				"y": -0.5098730101,
				"z": -3.420340578,
				"element": "C" 
			},
			{
				"x": 2.230943336,
				"y": -1.6935471837,
				"z": -3.1870140965,
				"element": "O" 
			},
			{
				"x": 1.358505482,
				"y": 0.4617242988,
				"z": -2.5648571688,
				"element": "C" 
			},
			{
				"x": 0.8203028125,
				"y": 0.0372323124,
				"z": -1.4059458688,
				"element": "C" 
			},
			{
				"x": 0.07786277,
				"y": 0.7925218667,
				"z": -0.4002675995,
				"element": "C" 
			},
			{
				"x": -0.2080270618,
				"y": 2.163988689,
				"z": -0.4893643177,
				"element": "C" 
			},
			{
				"x": 0.1992291494,
				"y": 2.8923487435,
				"z": -1.5444026974,
				"element": "F" 
			},
			{
				"x": -0.9226110791,
				"y": 2.8200296064,
				"z": 0.5095711539,
				"element": "C" 
			},
			{
				"x": -1.1646485542,
				"y": 4.1333654401,
				"z": 0.3668448253,
				"element": "F" 
			},
			{
				"x": -1.3775510099,
				"y": 2.1383052839,
				"z": 1.6301539097,
				"element": "C" 
			},
			{
				"x": -1.1060036454,
				"y": 0.7725639704,
				"z": 1.7428355815,
				"element": "C" 
			},
			{
				"x": -0.3924016273,
				"y": 0.1163824695,
				"z": 0.7457255552,
				"element": "C" 
			},
			{
				"x": 2.9983130633,
				"y": -0.623379302,
				"z": -5.0436846152,
				"element": "H" 
			},
			{
				"x": 1.3004412403,
				"y": 1.4838868549,
				"z": -2.9120663895,
				"element": "H" 
			},
			{
				"x": 0.9531838552,
				"y": -1.019449592,
				"z": -1.1788196507,
				"element": "H" 
			},
			{
				"x": -1.9309040982,
				"y": 2.6821702459,
				"z": 2.3878295592,
				"element": "H" 
			},
			{
				"x": -1.4543486044,
				"y": 0.2249995118,
				"z": 2.6122234428,
				"element": "H" 
			},
			{
				"x": -0.1836092356,
				"y": -0.9450241292,
				"z": 0.8373037388,
				"element": "H" 
			}
		],
		 "valence_orbital": [ 
			{
				"type": "occ",
				"energy": -0.32414,
				"method": "rhf"
			},
			{
				"type": "occ",
				"energy": -0.30983,
				"method": "rhf"
			},
			{
				"type": "occ",
				"energy": -0.27517,
				"method": "rhf"
			},
			{
				"type": "occ",
				"energy": -0.25882,
				"method": "rhf"
			},
			{
				"type": "occ",
				"energy": -0.24811,
				"method": "rhf"
			},
			{
				"type": "unocc",
				"energy": -0.07546,
				"method": "rhf"
			},
			{
				"type": "unocc",
				"energy": -0.01485,
				"method": "rhf"
			},
			{
				"type": "unocc",
				"energy": 0.01008,
				"method": "rhf"
			},
			{
				"type": "unocc",
				"energy": 0.05924,
				"method": "rhf"
			},
			{
				"type": "unocc",
				"energy": 0.08408,
				"method": "rhf"
			}
		],
		"cosmo_sigma_profile": { 
			"-0.025": 0.0,
			"-0.024": 0.0,
			"-0.023": 0.0,
			"-0.022": 0.0,
			"-0.021": 0.0,
			"-0.02": 0.0,
			"-0.019": 0.0,
			"-0.018": 0.613937673632,
			"-0.017": 0.801647239958,
			"-0.016": 1.13657815467,
			"-0.015": 0.744277935155,
			"-0.014": 0.611619449431,
			"-0.013": 0.546793716745,
			"-0.012": 0.233779883819,
			"-0.011": 1.34738836384,
			"-0.01": 0.861054641914,
			"-0.009": 0.807657414902,
			"-0.008": 5.27576545124,
			"-0.007": 7.4746021543,
			"-0.006": 8.32574274086,
			"-0.005": 8.89980795182,
			"-0.004": 6.41620282931,
			"-0.003": 7.98180199503,
			"-0.002": 14.1791365519,
			"-0.001": 21.0289371847,
			"0.0": 22.5572037989,
			"0.001": 20.9869692492,
			"0.002": 17.757772954,
			"0.003": 21.2594422934,
			"0.004": 11.6073513454,
			"0.005": 2.05613609714,
			"0.006": 2.22123218365,
			"0.007": 3.09962820476,
			"0.008": 2.21234662164,
			"0.009": 3.55124291296,
			"0.01": 2.14599701521,
			"0.011": 2.90421296568,
			"0.012": 5.24573938866,
			"0.013": 0.810376636334,
			"0.014": 0.0,
			"0.015": 0.0,
			"0.016": 0.0,
			"0.017": 0.0,
			"0.018": 0.0,
			"0.019": 0.0,
			"0.02": 0.0,
			"0.021": 0.0,
			"0.022": 0.0,
			"0.023": 0.0,
			"0.024": 0.0,
			"0.025": 0.0
		}
	}
}
