{
	 "smiles": "CNS(=O)(=O)C1=CC=C(Br)S1", 
	 "Tm": 333.15, 
	 "num_atms": 17, 
	 "gaussian": { 
		 "optdone": 1, 
		 "sigma_profile": "yes", 
		 "theory": "DFT", 
		 "functional": "B3LYP", 
		 "basiset": "6-31G**", 
		 "properties": { 
			 "R2extent": 5669.7188, 
			 "electric_dipole_moment_norm": 3.73033917627, 
			 "electric_quadrupole_moment_norm": 11.7907781011, 
			 "total_energy": -3767.0243034, 
			 "HOMO_LUMO_gap": 0.19248, 
			 "cosmo_polarized_energy": -12.48, 
			 "cosmo_cavitation_energy": 26.8, 
			 "cosmo_dispersion_energy": -20.72, 
			 "cosmo_repulsion_energy": 1.59, 
			 "cosmo_total_nonelectrostatic_energy": 7.67, 
			 "SMD_solvation_energy": 2.18 
		},
		"coords": [
			{
				"x": -1.9305581171,
				"y": 0.6395776483,
				"z": -0.5795204601,
				"element": "C" 
			},
			{
				"x": -1.2174505058,
				"y": -0.621531074,
				"z": -0.8183690039,
				"element": "N" 
			},
			{
				"x": 0.4580633752,
				"y": -0.5455685174,
				"z": -0.9915523622,
				"element": "S" 
			},
			{
				"x": 0.8206504462,
				"y": -1.7961248701,
				"z": -1.6598168903,
				"element": "O" 
			},
			{
				"x": 0.8851418513,
				"y": 0.7555688207,
				"z": -1.5164455018,
				"element": "O" 
			},
			{
				"x": 1.0029810466,
				"y": -0.5849193177,
				"z": 0.6942733179,
				"element": "C" 
			},
			{
				"x": 1.7276657973,
				"y": 0.4078193305,
				"z": 1.3025638677,
				"element": "C" 
			},
			{
				"x": 2.0883614526,
				"y": 0.0829733563,
				"z": 2.6406250093,
				"element": "C" 
			},
			{
				"x": 1.6279362422,
				"y": -1.155170905,
				"z": 3.0042557849,
				"element": "C" 
			},
			{
				"x": 1.8621805614,
				"y": -1.9935200846,
				"z": 4.6740002897,
				"element": "Br" 
			},
			{
				"x": 0.7496182286,
				"y": -1.9582923117,
				"z": 1.7381549692,
				"element": "S" 
			},
			{
				"x": -1.5864872706,
				"y": 1.0705684048,
				"z": 0.3640584584,
				"element": "H" 
			},
			{
				"x": -1.7905790706,
				"y": 1.3772756286,
				"z": -1.3769368334,
				"element": "H" 
			},
			{
				"x": -2.992668931,
				"y": 0.4065969787,
				"z": -0.4750696161,
				"element": "H" 
			},
			{
				"x": -1.5719867426,
				"y": -1.1648175653,
				"z": -1.6023068166,
				"element": "H" 
			},
			{
				"x": 1.990747214,
				"y": 1.3274821036,
				"z": 0.7945906228,
				"element": "H" 
			},
			{
				"x": 2.6569844222,
				"y": 0.7263823741,
				"z": 3.2995951644,
				"element": "H" 
			}
		],
		 "valence_orbital": [ 
			{
				"type": "occ",
				"energy": -0.31277,
				"method": "rhf"
			},
			{
				"type": "occ",
				"energy": -0.3062,
				"method": "rhf"
			},
			{
				"type": "occ",
				"energy": -0.28517,
				"method": "rhf"
			},
			{
				"type": "occ",
				"energy": -0.27786,
				"method": "rhf"
			},
			{
				"type": "occ",
				"energy": -0.25049,
				"method": "rhf"
			},
			{
				"type": "unocc",
				"energy": -0.05801,
				"method": "rhf"
			},
			{
				"type": "unocc",
				"energy": -0.02148,
				"method": "rhf"
			},
			{
				"type": "unocc",
				"energy": 0.00255,
				"method": "rhf"
			},
			{
				"type": "unocc",
				"energy": 0.02882,
				"method": "rhf"
			},
			{
				"type": "unocc",
				"energy": 0.05653,
				"method": "rhf"
			}
		],
		"cosmo_sigma_profile": { 
			"-0.025": 0.0,
			"-0.024": 0.0,
			"-0.023": 0.0,
			"-0.022": 0.0,
			"-0.021": 0.0,
			"-0.02": 0.0,
			"-0.019": 0.0,
			"-0.018": 0.0,
			"-0.017": 0.0,
			"-0.016": 0.0,
			"-0.015": 0.721535357747,
			"-0.014": 1.18562334985,
			"-0.013": 1.25331345024,
			"-0.012": 0.735964994911,
			"-0.011": 0.913911033243,
			"-0.01": 1.52710746157,
			"-0.009": 2.80373694012,
			"-0.008": 4.78867824952,
			"-0.007": 6.27656328197,
			"-0.006": 8.51860229499,
			"-0.005": 9.64774485793,
			"-0.004": 12.3158778808,
			"-0.003": 17.0049549785,
			"-0.002": 17.9274989836,
			"-0.001": 17.1953153808,
			"0.0": 22.6142486309,
			"0.001": 21.6940325265,
			"0.002": 19.2220441509,
			"0.003": 12.6261449712,
			"0.004": 4.68499778387,
			"0.005": 3.72571675319,
			"0.006": 2.7411120783,
			"0.007": 3.84251880518,
			"0.008": 3.55588863482,
			"0.009": 4.30174806818,
			"0.01": 9.37770396508,
			"0.011": 7.72434339345,
			"0.012": 0.998555437656,
			"0.013": 0.0,
			"0.014": 0.0,
			"0.015": 0.0,
			"0.016": 0.0,
			"0.017": 0.0,
			"0.018": 0.0,
			"0.019": 0.0,
			"0.02": 0.0,
			"0.021": 0.0,
			"0.022": 0.0,
			"0.023": 0.0,
			"0.024": 0.0,
			"0.025": 0.0
		}
	}
}
