{
	 "smiles": "ClC1=CC=CC(Cl)=C1CN1N=CC(Cl)=C(Cl)C1=O", 
	 "Tm": 432.15, 
	 "num_atms": 24, 
	 "gaussian": { 
		 "optdone": 1, 
		 "sigma_profile": "yes", 
		 "theory": "DFT", 
		 "functional": "B3LYP", 
		 "basiset": "6-31G**", 
		 "properties": { 
			 "R2extent": 7511.5787, 
			 "electric_dipole_moment_norm": 4.26318015101, 
			 "electric_quadrupole_moment_norm": 11.6073281159, 
			 "total_energy": -2448.24691811, 
			 "HOMO_LUMO_gap": 0.16929, 
			 "cosmo_polarized_energy": -11.09, 
			 "cosmo_cavitation_energy": 36.08, 
			 "cosmo_dispersion_energy": -25.74, 
			 "cosmo_repulsion_energy": 1.99, 
			 "cosmo_total_nonelectrostatic_energy": 12.33, 
			 "SMD_solvation_energy": 5.13 
		},
		"coords": [
			{
				"x": -1.7070000185,
				"y": -1.1892322214,
				"z": -1.6433136154,
				"element": "Cl" 
			},
			{
				"x": -0.635502085,
				"y": 0.1545434308,
				"z": -2.0092730732,
				"element": "C" 
			},
			{
				"x": -1.1932059094,
				"y": 1.28383749,
				"z": -2.6044661951,
				"element": "C" 
			},
			{
				"x": -0.3712434302,
				"y": 2.3665669712,
				"z": -2.9077520581,
				"element": "C" 
			},
			{
				"x": 0.9891939243,
				"y": 2.3192988366,
				"z": -2.6157360755,
				"element": "C" 
			},
			{
				"x": 1.5203947562,
				"y": 1.1782538105,
				"z": -2.0156912299,
				"element": "C" 
			},
			{
				"x": 3.2444411639,
				"y": 1.1861681551,
				"z": -1.6657989502,
				"element": "Cl" 
			},
			{
				"x": 0.7324696913,
				"y": 0.0587329346,
				"z": -1.6960180217,
				"element": "C" 
			},
			{
				"x": 1.3102819209,
				"y": -1.1904892824,
				"z": -1.0789675717,
				"element": "C" 
			},
			{
				"x": 1.0136504022,
				"y": -1.3018731644,
				"z": 0.3665881922,
				"element": "N" 
			},
			{
				"x": 1.1226679916,
				"y": -0.1728572285,
				"z": 1.0749872225,
				"element": "N" 
			},
			{
				"x": 0.8945052364,
				"y": -0.2210096564,
				"z": 2.3565486822,
				"element": "C" 
			},
			{
				"x": 0.5340852339,
				"y": -1.425905802,
				"z": 3.0350418501,
				"element": "C" 
			},
			{
				"x": 0.2427398072,
				"y": -1.3395658459,
				"z": 4.744940712,
				"element": "Cl" 
			},
			{
				"x": 0.4354572807,
				"y": -2.5843695486,
				"z": 2.3182512477,
				"element": "C" 
			},
			{
				"x": 0.0131586749,
				"y": -4.1017786836,
				"z": 3.0118653706,
				"element": "Cl" 
			},
			{
				"x": 0.712629875,
				"y": -2.5841039419,
				"z": 0.874600358,
				"element": "C" 
			},
			{
				"x": 0.6946988953,
				"y": -3.5706365096,
				"z": 0.1542765313,
				"element": "O" 
			},
			{
				"x": -2.2538561676,
				"y": 1.305517971,
				"z": -2.8258371662,
				"element": "H" 
			},
			{
				"x": -0.793104875,
				"y": 3.251467262,
				"z": -3.3738094834,
				"element": "H" 
			},
			{
				"x": 1.639125451,
				"y": 3.155655798,
				"z": -2.8445720613,
				"element": "H" 
			},
			{
				"x": 0.8930929404,
				"y": -2.08871297,
				"z": -1.5332696796,
				"element": "H" 
			},
			{
				"x": 2.3934607572,
				"y": -1.2143651966,
				"z": -1.2099044831,
				"element": "H" 
			},
			{
				"x": 0.9884584836,
				"y": 0.7103573915,
				"z": 2.9035094976,
				"element": "H" 
			}
		],
		 "valence_orbital": [ 
			{
				"type": "occ",
				"energy": -0.29227,
				"method": "rhf"
			},
			{
				"type": "occ",
				"energy": -0.27626,
				"method": "rhf"
			},
			{
				"type": "occ",
				"energy": -0.26678,
				"method": "rhf"
			},
			{
				"type": "occ",
				"energy": -0.25955,
				"method": "rhf"
			},
			{
				"type": "occ",
				"energy": -0.24847,
				"method": "rhf"
			},
			{
				"type": "unocc",
				"energy": -0.07918,
				"method": "rhf"
			},
			{
				"type": "unocc",
				"energy": -0.03981,
				"method": "rhf"
			},
			{
				"type": "unocc",
				"energy": -0.03243,
				"method": "rhf"
			},
			{
				"type": "unocc",
				"energy": -0.01777,
				"method": "rhf"
			},
			{
				"type": "unocc",
				"energy": -0.00986,
				"method": "rhf"
			}
		],
		"cosmo_sigma_profile": { 
			"-0.025": 0.0,
			"-0.024": 0.0,
			"-0.023": 0.0,
			"-0.022": 0.0,
			"-0.021": 0.0,
			"-0.02": 0.0,
			"-0.019": 0.0,
			"-0.018": 0.0,
			"-0.017": 0.0,
			"-0.016": 0.0,
			"-0.015": 0.0,
			"-0.014": 0.0,
			"-0.013": 0.0,
			"-0.012": 0.0,
			"-0.011": 0.0,
			"-0.01": 1.06599466241,
			"-0.009": 1.90505674865,
			"-0.008": 4.94758182615,
			"-0.007": 10.1380582478,
			"-0.006": 13.5075060902,
			"-0.005": 14.3886814938,
			"-0.004": 17.8063741107,
			"-0.003": 23.437229364,
			"-0.002": 20.8291110208,
			"-0.001": 22.514380472,
			"0.0": 26.7538373252,
			"0.001": 30.7877171903,
			"0.002": 37.2826012867,
			"0.003": 29.3731293989,
			"0.004": 16.3698000806,
			"0.005": 5.52898103533,
			"0.006": 4.23081838583,
			"0.007": 3.1602710253,
			"0.008": 3.148381571,
			"0.009": 2.10104928776,
			"0.01": 2.03543706222,
			"0.011": 2.61247128206,
			"0.012": 4.76028890028,
			"0.013": 1.23385315086,
			"0.014": 0.0,
			"0.015": 0.0,
			"0.016": 0.0,
			"0.017": 0.0,
			"0.018": 0.0,
			"0.019": 0.0,
			"0.02": 0.0,
			"0.021": 0.0,
			"0.022": 0.0,
			"0.023": 0.0,
			"0.024": 0.0,
			"0.025": 0.0
		}
	}
}
