{
	 "smiles": "CC1=C(SC2=C1C(Cl)=NC=N2)C1=CC=CC=C1", 
	 "Tm": 407.15, 
	 "num_atms": 26, 
	 "gaussian": { 
		 "optdone": 1, 
		 "sigma_profile": "yes", 
		 "theory": "DFT", 
		 "functional": "B3LYP", 
		 "basiset": "6-31G**", 
		 "properties": { 
			 "R2extent": 5457.5753, 
			 "electric_dipole_moment_norm": 3.86455677795, 
			 "electric_quadrupole_moment_norm": 6.33770247882, 
			 "total_energy": -1468.69587987, 
			 "HOMO_LUMO_gap": 0.1678, 
			 "cosmo_polarized_energy": -7.47, 
			 "cosmo_cavitation_energy": 33.13, 
			 "cosmo_dispersion_energy": -24.83, 
			 "cosmo_repulsion_energy": 1.85, 
			 "cosmo_total_nonelectrostatic_energy": 10.15, 
			 "SMD_solvation_energy": 1.77 
		},
		"coords": [
			{
				"x": 1.8745097328,
				"y": -0.8770047402,
				"z": 0.8064640414,
				"element": "C" 
			},
			{
				"x": 0.8889119464,
				"y": 0.044380356,
				"z": 0.1356873044,
				"element": "C" 
			},
			{
				"x": -0.3892454333,
				"y": -0.3238925261,
				"z": -0.2123624483,
				"element": "C" 
			},
			{
				"x": -1.3462829287,
				"y": 1.0021775027,
				"z": -0.8877042398,
				"element": "S" 
			},
			{
				"x": -0.0028183074,
				"y": 2.0983499257,
				"z": -0.7086105885,
				"element": "C" 
			},
			{
				"x": 1.1324674188,
				"y": 1.442301281,
				"z": -0.1582736904,
				"element": "C" 
			},
			{
				"x": 2.2385342236,
				"y": 2.3066931107,
				"z": -0.0263088358,
				"element": "C" 
			},
			{
				"x": 3.781146892,
				"y": 1.7338390176,
				"z": 0.6010154207,
				"element": "Cl" 
			},
			{
				"x": 2.2081024455,
				"y": 3.5783778082,
				"z": -0.3665815779,
				"element": "N" 
			},
			{
				"x": 1.0572840445,
				"y": 4.0613503936,
				"z": -0.8667889233,
				"element": "C" 
			},
			{
				"x": -0.067870575,
				"y": 3.3810667126,
				"z": -1.0636788272,
				"element": "N" 
			},
			{
				"x": -1.0396628363,
				"y": -1.6451970231,
				"z": -0.0998695356,
				"element": "C" 
			},
			{
				"x": -0.414134359,
				"y": -2.8010937787,
				"z": -0.599602045,
				"element": "C" 
			},
			{
				"x": -1.0370724748,
				"y": -4.0445545452,
				"z": -0.5015098611,
				"element": "C" 
			},
			{
				"x": -2.2983766268,
				"y": -4.1549910765,
				"z": 0.0867429743,
				"element": "C" 
			},
			{
				"x": -2.9354652123,
				"y": -3.0124606084,
				"z": 0.5750444289,
				"element": "C" 
			},
			{
				"x": -2.3138929667,
				"y": -1.7684665215,
				"z": 0.4820904296,
				"element": "C" 
			},
			{
				"x": 1.3988838401,
				"y": -1.8229072952,
				"z": 1.0686068007,
				"element": "H" 
			},
			{
				"x": 2.2675568249,
				"y": -0.4264529856,
				"z": 1.7216315061,
				"element": "H" 
			},
			{
				"x": 2.7345033795,
				"y": -1.0919615361,
				"z": 0.1637098079,
				"element": "H" 
			},
			{
				"x": 1.0547819027,
				"y": 5.1136537238,
				"z": -1.1380190646,
				"element": "H" 
			},
			{
				"x": 0.5525652706,
				"y": -2.7164247433,
				"z": -1.085523899,
				"element": "H" 
			},
			{
				"x": -0.5402461276,
				"y": -4.926202584,
				"z": -0.8958232268,
				"element": "H" 
			},
			{
				"x": -2.7835806488,
				"y": -5.1237980175,
				"z": 0.1597026449,
				"element": "H" 
			},
			{
				"x": -3.9169507339,
				"y": -3.0893206883,
				"z": 1.0335882278,
				"element": "H" 
			},
			{
				"x": -2.8087486907,
				"y": -0.885661162,
				"z": 0.8761731767,
				"element": "H" 
			}
		],
		 "valence_orbital": [ 
			{
				"type": "occ",
				"energy": -0.28309,
				"method": "rhf"
			},
			{
				"type": "occ",
				"energy": -0.27021,
				"method": "rhf"
			},
			{
				"type": "occ",
				"energy": -0.26537,
				"method": "rhf"
			},
			{
				"type": "occ",
				"energy": -0.26182,
				"method": "rhf"
			},
			{
				"type": "occ",
				"energy": -0.23052,
				"method": "rhf"
			},
			{
				"type": "unocc",
				"energy": -0.06272,
				"method": "rhf"
			},
			{
				"type": "unocc",
				"energy": -0.04072,
				"method": "rhf"
			},
			{
				"type": "unocc",
				"energy": -0.02104,
				"method": "rhf"
			},
			{
				"type": "unocc",
				"energy": -0.01668,
				"method": "rhf"
			},
			{
				"type": "unocc",
				"energy": 0.0071,
				"method": "rhf"
			}
		],
		"cosmo_sigma_profile": { 
			"-0.025": 0.0,
			"-0.024": 0.0,
			"-0.023": 0.0,
			"-0.022": 0.0,
			"-0.021": 0.0,
			"-0.02": 0.0,
			"-0.019": 0.0,
			"-0.018": 0.0,
			"-0.017": 0.0,
			"-0.016": 0.0,
			"-0.015": 0.0,
			"-0.014": 0.0,
			"-0.013": 0.0,
			"-0.012": 0.0,
			"-0.011": 0.0,
			"-0.01": 0.0,
			"-0.009": 0.359333901001,
			"-0.008": 1.83820871505,
			"-0.007": 2.35231034426,
			"-0.006": 10.2223743398,
			"-0.005": 13.5268445534,
			"-0.004": 20.0703895689,
			"-0.003": 24.0283487443,
			"-0.002": 26.9697837057,
			"-0.001": 30.9361024949,
			"0.0": 30.3259111784,
			"0.001": 27.4393205116,
			"0.002": 20.5375628964,
			"0.003": 18.8328323764,
			"0.004": 16.9512303846,
			"0.005": 9.68141861558,
			"0.006": 2.92724911397,
			"0.007": 3.04686142021,
			"0.008": 2.00295678564,
			"0.009": 1.93377988015,
			"0.01": 2.12554492517,
			"0.011": 1.72441772269,
			"0.012": 1.68792274598,
			"0.013": 1.46954951373,
			"0.014": 0.414546029085,
			"0.015": 0.0,
			"0.016": 0.0,
			"0.017": 0.0,
			"0.018": 0.0,
			"0.019": 0.0,
			"0.02": 0.0,
			"0.021": 0.0,
			"0.022": 0.0,
			"0.023": 0.0,
			"0.024": 0.0,
			"0.025": 0.0
		}
	}
}
