{
	 "smiles": "OC1=C2C=NNC2=NC=N1", 
	 "Tm": 623.15, 
	 "num_atms": 14, 
	 "gaussian": { 
		 "optdone": 1, 
		 "sigma_profile": "yes", 
		 "theory": "DFT", 
		 "functional": "B3LYP", 
		 "basiset": "6-31G**", 
		 "properties": { 
			 "R2extent": 1449.4043, 
			 "electric_dipole_moment_norm": 2.21428628908, 
			 "electric_quadrupole_moment_norm": 8.05258935126, 
			 "total_energy": -487.151327484, 
			 "HOMO_LUMO_gap": 0.20333, 
			 "cosmo_polarized_energy": -16.81, 
			 "cosmo_cavitation_energy": 18.9, 
			 "cosmo_dispersion_energy": -14.69, 
			 "cosmo_repulsion_energy": 1.18, 
			 "cosmo_total_nonelectrostatic_energy": 5.38, 
			 "SMD_solvation_energy": -0.27 
		},
		"coords": [
			{
				"x": -2.3243871897,
				"y": -0.7298612255,
				"z": 0.2566908212,
				"element": "O" 
			},
			{
				"x": -1.254675228,
				"y": 0.0172819666,
				"z": 0.5909990363,
				"element": "C" 
			},
			{
				"x": -0.0463137333,
				"y": -0.5267553174,
				"z": 1.0764694626,
				"element": "C" 
			},
			{
				"x": 0.5567890439,
				"y": -1.7818288144,
				"z": 1.3951023026,
				"element": "C" 
			},
			{
				"x": 1.7916286845,
				"y": -1.6171224857,
				"z": 1.8353190154,
				"element": "N" 
			},
			{
				"x": 2.022113673,
				"y": -0.2751438515,
				"z": 1.8156709509,
				"element": "N" 
			},
			{
				"x": 0.951168845,
				"y": 0.4315504967,
				"z": 1.3679702115,
				"element": "C" 
			},
			{
				"x": 0.8433208628,
				"y": 1.7599231674,
				"z": 1.2252709653,
				"element": "N" 
			},
			{
				"x": -0.3514393528,
				"y": 2.1158576507,
				"z": 0.7593540517,
				"element": "C" 
			},
			{
				"x": -1.395487819,
				"y": 1.3245934375,
				"z": 0.4377985991,
				"element": "N" 
			},
			{
				"x": -2.1251021415,
				"y": -1.6644867192,
				"z": 0.4025554923,
				"element": "H" 
			},
			{
				"x": 0.1511278159,
				"y": -2.7828496566,
				"z": 1.3239823603,
				"element": "H" 
			},
			{
				"x": 2.9145168155,
				"y": 0.0869983568,
				"z": 2.1148893858,
				"element": "H" 
			},
			{
				"x": -0.5138602762,
				"y": 3.1818429947,
				"z": 0.616927345,
				"element": "H" 
			}
		],
		 "valence_orbital": [ 
			{
				"type": "occ",
				"energy": -0.30998,
				"method": "rhf"
			},
			{
				"type": "occ",
				"energy": -0.30048,
				"method": "rhf"
			},
			{
				"type": "occ",
				"energy": -0.28113,
				"method": "rhf"
			},
			{
				"type": "occ",
				"energy": -0.26928,
				"method": "rhf"
			},
			{
				"type": "occ",
				"energy": -0.25059,
				"method": "rhf"
			},
			{
				"type": "unocc",
				"energy": -0.04726,
				"method": "rhf"
			},
			{
				"type": "unocc",
				"energy": -0.00796,
				"method": "rhf"
			},
			{
				"type": "unocc",
				"energy": 0.03326,
				"method": "rhf"
			},
			{
				"type": "unocc",
				"energy": 0.04335,
				"method": "rhf"
			},
			{
				"type": "unocc",
				"energy": 0.08125,
				"method": "rhf"
			}
		],
		"cosmo_sigma_profile": { 
			"-0.025": 0.0,
			"-0.024": 0.0,
			"-0.023": 0.0,
			"-0.022": 0.0,
			"-0.021": 0.0,
			"-0.02": 0.05436250502,
			"-0.019": 0.786506253267,
			"-0.018": 1.43995824692,
			"-0.017": 2.37349839682,
			"-0.016": 2.7148727586,
			"-0.015": 2.76741089841,
			"-0.014": 1.32736506524,
			"-0.013": 1.58032882146,
			"-0.012": 2.44473851803,
			"-0.011": 2.41570648832,
			"-0.01": 1.44832492681,
			"-0.009": 2.91369756524,
			"-0.008": 3.79823697622,
			"-0.007": 4.52057109195,
			"-0.006": 4.14219235331,
			"-0.005": 3.80604765425,
			"-0.004": 4.25090599381,
			"-0.003": 5.66033227237,
			"-0.002": 9.19093773497,
			"-0.001": 12.14893763,
			"0.0": 12.3100160997,
			"0.001": 9.9792751932,
			"0.002": 5.8482741391,
			"0.003": 5.26017806582,
			"0.004": 5.62454663357,
			"0.005": 4.09321312329,
			"0.006": 5.08700164763,
			"0.007": 5.39765727858,
			"0.008": 4.31017321197,
			"0.009": 3.69121768034,
			"0.01": 5.94766470534,
			"0.011": 3.88919061252,
			"0.012": 3.73541842055,
			"0.013": 2.8670890586,
			"0.014": 3.02228199211,
			"0.015": 1.58409105806,
			"0.016": 0.115017931531,
			"0.017": 0.0,
			"0.018": 0.0,
			"0.019": 0.0,
			"0.02": 0.0,
			"0.021": 0.0,
			"0.022": 0.0,
			"0.023": 0.0,
			"0.024": 0.0,
			"0.025": 0.0
		}
	}
}
