{
	 "smiles": "O=C(C=CC1=CC=CC=C1)C1=CC2=C(OCC(=O)N2)C=C1", 
	 "Tm": 502.15, 
	 "num_atms": 34, 
	 "gaussian": { 
		 "optdone": 1, 
		 "sigma_profile": "yes", 
		 "theory": "DFT", 
		 "functional": "B3LYP", 
		 "basiset": "6-31G**", 
		 "properties": { 
			 "R2extent": 6468.9595, 
			 "electric_dipole_moment_norm": 1.54723270713, 
			 "electric_quadrupole_moment_norm": 21.7873617177, 
			 "total_energy": -936.052433823, 
			 "HOMO_LUMO_gap": 0.15757, 
			 "cosmo_polarized_energy": -17.76, 
			 "cosmo_cavitation_energy": 38.97, 
			 "cosmo_dispersion_energy": -26.71, 
			 "cosmo_repulsion_energy": 2.06, 
			 "cosmo_total_nonelectrostatic_energy": 14.32, 
			 "SMD_solvation_energy": 7.81 
		},
		"coords": [
			{
				"x": 1.1270274739,
				"y": 3.3920083658,
				"z": -0.9192788462,
				"element": "O" 
			},
			{
				"x": 0.9678593776,
				"y": 2.4488992433,
				"z": -0.1507993081,
				"element": "C" 
			},
			{
				"x": 2.1178054643,
				"y": 2.0415509044,
				"z": 0.7234290731,
				"element": "C" 
			},
			{
				"x": 2.7408416649,
				"y": 0.852607948,
				"z": 0.8260731013,
				"element": "C" 
			},
			{
				"x": 2.4787226735,
				"y": -0.4055116084,
				"z": 0.1076250936,
				"element": "C" 
			},
			{
				"x": 2.8177828052,
				"y": -1.6225351774,
				"z": 0.7273901116,
				"element": "C" 
			},
			{
				"x": 2.5839210108,
				"y": -2.8407416854,
				"z": 0.0930529571,
				"element": "C" 
			},
			{
				"x": 2.0244798853,
				"y": -2.8657565976,
				"z": -1.1864171353,
				"element": "C" 
			},
			{
				"x": 1.7100183537,
				"y": -1.6646693834,
				"z": -1.826763516,
				"element": "C" 
			},
			{
				"x": 1.9376325708,
				"y": -0.4462977156,
				"z": -1.1904039294,
				"element": "C" 
			},
			{
				"x": -0.3633331935,
				"y": 1.7823602856,
				"z": -0.0240520446,
				"element": "C" 
			},
			{
				"x": -0.6424652274,
				"y": 0.8403737125,
				"z": 0.9770022703,
				"element": "C" 
			},
			{
				"x": -1.9065988475,
				"y": 0.2651969084,
				"z": 1.0672286303,
				"element": "C" 
			},
			{
				"x": -2.9140094211,
				"y": 0.6478278899,
				"z": 0.1637862662,
				"element": "C" 
			},
			{
				"x": -4.1476047092,
				"y": 0.0668849957,
				"z": 0.2149720107,
				"element": "O" 
			},
			{
				"x": -4.5674067454,
				"y": -0.4041906076,
				"z": 1.4999180833,
				"element": "C" 
			},
			{
				"x": -3.490414181,
				"y": -1.1470821163,
				"z": 2.2866392974,
				"element": "C" 
			},
			{
				"x": -3.7593683228,
				"y": -1.9994735445,
				"z": 3.1155630743,
				"element": "O" 
			},
			{
				"x": -2.2149879206,
				"y": -0.7258340484,
				"z": 2.015887278,
				"element": "N" 
			},
			{
				"x": -2.6446667971,
				"y": 1.5906825771,
				"z": -0.8289787922,
				"element": "C" 
			},
			{
				"x": -1.3771238168,
				"y": 2.1527996204,
				"z": -0.9222613241,
				"element": "C" 
			},
			{
				"x": 2.5393221455,
				"y": 2.8826832017,
				"z": 1.2707914236,
				"element": "H" 
			},
			{
				"x": 3.5743615867,
				"y": 0.8032175858,
				"z": 1.5269392059,
				"element": "H" 
			},
			{
				"x": 3.2612101376,
				"y": -1.6067426698,
				"z": 1.7201019036,
				"element": "H" 
			},
			{
				"x": 2.8447468615,
				"y": -3.7692121953,
				"z": 0.592849122,
				"element": "H" 
			},
			{
				"x": 1.8485649289,
				"y": -3.8134181337,
				"z": -1.6869217322,
				"element": "H" 
			},
			{
				"x": 1.2963313912,
				"y": -1.6759424647,
				"z": -2.8309401817,
				"element": "H" 
			},
			{
				"x": 1.7233494066,
				"y": 0.4796312834,
				"z": -1.7132640726,
				"element": "H" 
			},
			{
				"x": 0.1297554538,
				"y": 0.549220525,
				"z": 1.6811892864,
				"element": "H" 
			},
			{
				"x": -5.4003183838,
				"y": -1.086106052,
				"z": 1.3300360189,
				"element": "H" 
			},
			{
				"x": -4.9232562552,
				"y": 0.4385674726,
				"z": 2.1117733127,
				"element": "H" 
			},
			{
				"x": -1.4735375182,
				"y": -1.1586465876,
				"z": 2.5517633555,
				"element": "H" 
			},
			{
				"x": -3.4408451583,
				"y": 1.8620396405,
				"z": -1.5141277859,
				"element": "H" 
			},
			{
				"x": -1.147996694,
				"y": 2.8935084274,
				"z": -1.6801022074,
				"element": "H" 
			}
		],
		 "valence_orbital": [ 
			{
				"type": "occ",
				"energy": -0.26128,
				"method": "rhf"
			},
			{
				"type": "occ",
				"energy": -0.25718,
				"method": "rhf"
			},
			{
				"type": "occ",
				"energy": -0.25193,
				"method": "rhf"
			},
			{
				"type": "occ",
				"energy": -0.2343,
				"method": "rhf"
			},
			{
				"type": "occ",
				"energy": -0.22507,
				"method": "rhf"
			},
			{
				"type": "unocc",
				"energy": -0.0675,
				"method": "rhf"
			},
			{
				"type": "unocc",
				"energy": -0.03784,
				"method": "rhf"
			},
			{
				"type": "unocc",
				"energy": -0.02359,
				"method": "rhf"
			},
			{
				"type": "unocc",
				"energy": -0.00986,
				"method": "rhf"
			},
			{
				"type": "unocc",
				"energy": 0.01013,
				"method": "rhf"
			}
		],
		"cosmo_sigma_profile": { 
			"-0.025": 0.0,
			"-0.024": 0.0,
			"-0.023": 0.0,
			"-0.022": 0.0,
			"-0.021": 0.0,
			"-0.02": 0.0,
			"-0.019": 0.0,
			"-0.018": 0.0,
			"-0.017": 0.0,
			"-0.016": 0.445658223641,
			"-0.015": 1.28960310263,
			"-0.014": 1.31654794269,
			"-0.013": 1.18728429236,
			"-0.012": 1.3672405899,
			"-0.011": 0.812078384374,
			"-0.01": 1.15358084313,
			"-0.009": 1.98408878566,
			"-0.008": 6.346335654,
			"-0.007": 9.32541109383,
			"-0.006": 19.7539287291,
			"-0.005": 23.981681035,
			"-0.004": 22.597423339,
			"-0.003": 21.0338727107,
			"-0.002": 21.4982254257,
			"-0.001": 20.3746553364,
			"0.0": 20.6911989762,
			"0.001": 20.7369298973,
			"0.002": 22.1200626597,
			"0.003": 22.4201854361,
			"0.004": 16.2671833041,
			"0.005": 14.0750206415,
			"0.006": 5.6879384378,
			"0.007": 3.33607263191,
			"0.008": 3.89463697017,
			"0.009": 3.82633252496,
			"0.01": 3.67745508326,
			"0.011": 5.42947566207,
			"0.012": 8.95447555873,
			"0.013": 6.01495187408,
			"0.014": 0.534027848972,
			"0.015": 0.0,
			"0.016": 0.0,
			"0.017": 0.0,
			"0.018": 0.0,
			"0.019": 0.0,
			"0.02": 0.0,
			"0.021": 0.0,
			"0.022": 0.0,
			"0.023": 0.0,
			"0.024": 0.0,
			"0.025": 0.0
		}
	}
}
