{
	 "smiles": "C1=CC=C(C=C1)C1=CC2=CC=CC=C2C=C1", 
	 "Tm": 377.15, 
	 "num_atms": 28, 
	 "gaussian": { 
		 "optdone": 1, 
		 "sigma_profile": "yes", 
		 "theory": "DFT", 
		 "functional": "B3LYP", 
		 "basiset": "6-31G**", 
		 "properties": { 
			 "R2extent": 4650.8263, 
			 "electric_dipole_moment_norm": 0.0179318153013, 
			 "electric_quadrupole_moment_norm": 9.89381285046, 
			 "total_energy": -616.955763941, 
			 "HOMO_LUMO_gap": 0.16634, 
			 "cosmo_polarized_energy": -6.26, 
			 "cosmo_cavitation_energy": 31.52, 
			 "cosmo_dispersion_energy": -23.25, 
			 "cosmo_repulsion_energy": 1.76, 
			 "cosmo_total_nonelectrostatic_energy": 10.03, 
			 "SMD_solvation_energy": 4.79 
		},
		"coords": [
			{
				"x": 1.0723422677,
				"y": -4.3875928633,
				"z": -1.4015124943,
				"element": "C" 
			},
			{
				"x": 1.4855372081,
				"y": -3.2514237806,
				"z": -2.1001171161,
				"element": "C" 
			},
			{
				"x": 1.2585620045,
				"y": -1.9811505524,
				"z": -1.5726962284,
				"element": "C" 
			},
			{
				"x": 0.6169320333,
				"y": -1.8169739903,
				"z": -0.3328277317,
				"element": "C" 
			},
			{
				"x": 0.2048638199,
				"y": -2.9701445204,
				"z": 0.3573317646,
				"element": "C" 
			},
			{
				"x": 0.4304464144,
				"y": -4.2407787753,
				"z": -0.1704499886,
				"element": "C" 
			},
			{
				"x": 0.3826495835,
				"y": -0.464254683,
				"z": 0.2334980606,
				"element": "C" 
			},
			{
				"x": 1.3216136181,
				"y": 0.5450252478,
				"z": 0.0968680873,
				"element": "C" 
			},
			{
				"x": 1.1115950989,
				"y": 1.8417198034,
				"z": 0.6328641256,
				"element": "C" 
			},
			{
				"x": 2.0741977931,
				"y": 2.8800742182,
				"z": 0.5007612429,
				"element": "C" 
			},
			{
				"x": 1.8426988572,
				"y": 4.1283550142,
				"z": 1.0331524106,
				"element": "C" 
			},
			{
				"x": 0.6364373454,
				"y": 4.398762581,
				"z": 1.7260283251,
				"element": "C" 
			},
			{
				"x": -0.314487852,
				"y": 3.4136584603,
				"z": 1.873900773,
				"element": "C" 
			},
			{
				"x": -0.1054745667,
				"y": 2.1154731194,
				"z": 1.3372779515,
				"element": "C" 
			},
			{
				"x": -1.0583220061,
				"y": 1.0698722174,
				"z": 1.4693633483,
				"element": "C" 
			},
			{
				"x": -0.8237275355,
				"y": -0.1755565453,
				"z": 0.9380401832,
				"element": "C" 
			},
			{
				"x": 1.247053335,
				"y": -5.3773300191,
				"z": -1.8133544776,
				"element": "H" 
			},
			{
				"x": 1.9766212058,
				"y": -3.3533741427,
				"z": -3.0638878167,
				"element": "H" 
			},
			{
				"x": 1.5575129623,
				"y": -1.10291942,
				"z": -2.1372676664,
				"element": "H" 
			},
			{
				"x": -0.2725565401,
				"y": -2.8698344044,
				"z": 1.3276828748,
				"element": "H" 
			},
			{
				"x": 0.1109223663,
				"y": -5.1180295981,
				"z": 0.3851814129,
				"element": "H" 
			},
			{
				"x": 2.2611992002,
				"y": 0.3425072968,
				"z": -0.4104332517,
				"element": "H" 
			},
			{
				"x": 2.9990507295,
				"y": 2.6710643386,
				"z": -0.0310305875,
				"element": "H" 
			},
			{
				"x": 2.585848737,
				"y": 4.9130111843,
				"z": 0.9237544997,
				"element": "H" 
			},
			{
				"x": 0.4659714865,
				"y": 5.3878296334,
				"z": 2.1413395539,
				"element": "H" 
			},
			{
				"x": -1.2406185722,
				"y": 3.6170675513,
				"z": 2.4057251922,
				"element": "H" 
			},
			{
				"x": -1.9892025856,
				"y": 1.2726905757,
				"z": 1.9931015701,
				"element": "H" 
			},
			{
				"x": -1.5782664084,
				"y": -0.950947947,
				"z": 1.0292059828,
				"element": "H" 
			}
		],
		 "valence_orbital": [ 
			{
				"type": "occ",
				"energy": -0.2842,
				"method": "rhf"
			},
			{
				"type": "occ",
				"energy": -0.26115,
				"method": "rhf"
			},
			{
				"type": "occ",
				"energy": -0.24959,
				"method": "rhf"
			},
			{
				"type": "occ",
				"energy": -0.22959,
				"method": "rhf"
			},
			{
				"type": "occ",
				"energy": -0.20897,
				"method": "rhf"
			},
			{
				"type": "unocc",
				"energy": -0.04263,
				"method": "rhf"
			},
			{
				"type": "unocc",
				"energy": -0.02,
				"method": "rhf"
			},
			{
				"type": "unocc",
				"energy": -0.00099,
				"method": "rhf"
			},
			{
				"type": "unocc",
				"energy": 0.0165,
				"method": "rhf"
			},
			{
				"type": "unocc",
				"energy": 0.03594,
				"method": "rhf"
			}
		],
		"cosmo_sigma_profile": { 
			"-0.025": 0.0,
			"-0.024": 0.0,
			"-0.023": 0.0,
			"-0.022": 0.0,
			"-0.021": 0.0,
			"-0.02": 0.0,
			"-0.019": 0.0,
			"-0.018": 0.0,
			"-0.017": 0.0,
			"-0.016": 0.0,
			"-0.015": 0.0,
			"-0.014": 0.0,
			"-0.013": 0.0,
			"-0.012": 0.0,
			"-0.011": 0.0,
			"-0.01": 0.0,
			"-0.009": 0.0,
			"-0.008": 0.0,
			"-0.007": 0.0,
			"-0.006": 12.16378,
			"-0.005": 27.3587685741,
			"-0.004": 24.3179482554,
			"-0.003": 23.9499417467,
			"-0.002": 16.2075884394,
			"-0.001": 14.5929618622,
			"0.0": 14.1547432131,
			"0.001": 14.4665514096,
			"0.002": 18.2086518207,
			"0.003": 21.1674434873,
			"0.004": 33.345998704,
			"0.005": 24.4201780641,
			"0.006": 8.93393810297,
			"0.007": 0.036505131503,
			"0.008": 0.0,
			"0.009": 0.0,
			"0.01": 0.0,
			"0.011": 0.0,
			"0.012": 0.0,
			"0.013": 0.0,
			"0.014": 0.0,
			"0.015": 0.0,
			"0.016": 0.0,
			"0.017": 0.0,
			"0.018": 0.0,
			"0.019": 0.0,
			"0.02": 0.0,
			"0.021": 0.0,
			"0.022": 0.0,
			"0.023": 0.0,
			"0.024": 0.0,
			"0.025": 0.0
		}
	}
}
