{
	 "smiles": "NNC1=NN=CC2=C1C=CC=C2", 
	 "Tm": 445.15, 
	 "num_atms": 20, 
	 "gaussian": { 
		 "optdone": 1, 
		 "sigma_profile": "yes", 
		 "theory": "DFT", 
		 "functional": "B3LYP", 
		 "basiset": "6-31G**", 
		 "properties": { 
			 "R2extent": 2446.6013, 
			 "electric_dipole_moment_norm": 4.31158388994, 
			 "electric_quadrupole_moment_norm": 9.33695861777, 
			 "total_energy": -528.618393688, 
			 "HOMO_LUMO_gap": 0.16528, 
			 "cosmo_polarized_energy": -15.0, 
			 "cosmo_cavitation_energy": 23.87, 
			 "cosmo_dispersion_energy": -18.16, 
			 "cosmo_repulsion_energy": 1.42, 
			 "cosmo_total_nonelectrostatic_energy": 7.13, 
			 "SMD_solvation_energy": 2.77 
		},
		"coords": [
			{
				"x": 0.2091963707,
				"y": -0.068632365,
				"z": -3.1117396577,
				"element": "N" 
			},
			{
				"x": -0.5643330406,
				"y": 0.0521546291,
				"z": -1.9294970843,
				"element": "N" 
			},
			{
				"x": -0.2817581128,
				"y": -0.7486474646,
				"z": -0.8371855519,
				"element": "C" 
			},
			{
				"x": 0.8299361949,
				"y": -1.4641209099,
				"z": -0.8938229188,
				"element": "N" 
			},
			{
				"x": 1.1850170087,
				"y": -2.2704646811,
				"z": 0.1436952662,
				"element": "N" 
			},
			{
				"x": 0.4096930793,
				"y": -2.3554222953,
				"z": 1.1949666961,
				"element": "C" 
			},
			{
				"x": -0.8051751069,
				"y": -1.620917366,
				"z": 1.3550763616,
				"element": "C" 
			},
			{
				"x": -1.1744939819,
				"y": -0.7532816996,
				"z": 0.2984505831,
				"element": "C" 
			},
			{
				"x": -2.3416011602,
				"y": 0.0341468427,
				"z": 0.42114558,
				"element": "C" 
			},
			{
				"x": -3.127838001,
				"y": -0.068121075,
				"z": 1.5538572101,
				"element": "C" 
			},
			{
				"x": -2.7717055189,
				"y": -0.9498366547,
				"z": 2.5975595653,
				"element": "C" 
			},
			{
				"x": -1.62385873,
				"y": -1.7113878214,
				"z": 2.5041813789,
				"element": "C" 
			},
			{
				"x": 1.0145712862,
				"y": 0.5456669735,
				"z": -2.9972796201,
				"element": "H" 
			},
			{
				"x": 0.6033069573,
				"y": -1.0121398715,
				"z": -3.1160689694,
				"element": "H" 
			},
			{
				"x": -1.5445131169,
				"y": 0.1765895813,
				"z": -2.1408632494,
				"element": "H" 
			},
			{
				"x": 0.7442691419,
				"y": -3.0305611618,
				"z": 1.9807026538,
				"element": "H" 
			},
			{
				"x": -2.613500383,
				"y": 0.740089525,
				"z": -0.3571202479,
				"element": "H" 
			},
			{
				"x": -4.0226829,
				"y": 0.5399238036,
				"z": 1.6467889346,
				"element": "H" 
			},
			{
				"x": -3.4011627678,
				"y": -1.0185927637,
				"z": 3.4798061349,
				"element": "H" 
			},
			{
				"x": -1.335067219,
				"y": -2.3822452257,
				"z": 3.3086469349,
				"element": "H" 
			}
		],
		 "valence_orbital": [ 
			{
				"type": "occ",
				"energy": -0.28267,
				"method": "rhf"
			},
			{
				"type": "occ",
				"energy": -0.27695,
				"method": "rhf"
			},
			{
				"type": "occ",
				"energy": -0.26302,
				"method": "rhf"
			},
			{
				"type": "occ",
				"energy": -0.22648,
				"method": "rhf"
			},
			{
				"type": "occ",
				"energy": -0.22079,
				"method": "rhf"
			},
			{
				"type": "unocc",
				"energy": -0.05551,
				"method": "rhf"
			},
			{
				"type": "unocc",
				"energy": -0.0408,
				"method": "rhf"
			},
			{
				"type": "unocc",
				"energy": 0.02607,
				"method": "rhf"
			},
			{
				"type": "unocc",
				"energy": 0.06779,
				"method": "rhf"
			},
			{
				"type": "unocc",
				"energy": 0.07811,
				"method": "rhf"
			}
		],
		"cosmo_sigma_profile": { 
			"-0.025": 0.0,
			"-0.024": 0.0,
			"-0.023": 0.0,
			"-0.022": 0.0,
			"-0.021": 0.0,
			"-0.02": 0.0,
			"-0.019": 0.0,
			"-0.018": 0.0,
			"-0.017": 0.0,
			"-0.016": 0.0,
			"-0.015": 0.0586308875931,
			"-0.014": 0.845534137178,
			"-0.013": 1.15110778618,
			"-0.012": 1.5314210556,
			"-0.011": 2.0305310915,
			"-0.01": 2.37378275629,
			"-0.009": 2.63676656928,
			"-0.008": 5.39267591305,
			"-0.007": 11.5821812936,
			"-0.006": 12.2171987431,
			"-0.005": 11.9016044104,
			"-0.004": 10.5517940271,
			"-0.003": 9.74904286926,
			"-0.002": 9.33290378773,
			"-0.001": 9.79337564191,
			"0.0": 14.1656730396,
			"0.001": 16.5050361259,
			"0.002": 16.5499365733,
			"0.003": 13.6230490525,
			"0.004": 4.27119420973,
			"0.005": 3.88721321994,
			"0.006": 3.17826288946,
			"0.007": 2.82614050549,
			"0.008": 3.12061831267,
			"0.009": 2.48874726056,
			"0.01": 1.88432580777,
			"0.011": 3.35832843196,
			"0.012": 2.46566645074,
			"0.013": 2.06551528594,
			"0.014": 2.76438324845,
			"0.015": 3.71604681778,
			"0.016": 1.90001249957,
			"0.017": 1.12331529271,
			"0.018": 0.0162942201574,
			"0.019": 0.0,
			"0.02": 0.0,
			"0.021": 0.0,
			"0.022": 0.0,
			"0.023": 0.0,
			"0.024": 0.0,
			"0.025": 0.0
		}
	}
}
