{
	 "smiles": "NC1=CC=C(C=C1)S(=O)(=O)NC1=C(Cl)C=C(Cl)C=C1", 
	 "Tm": 436.15, 
	 "num_atms": 29, 
	 "gaussian": { 
		 "optdone": 1, 
		 "sigma_profile": "yes", 
		 "theory": "DFT", 
		 "functional": "B3LYP", 
		 "basiset": "6-31G**", 
		 "properties": { 
			 "R2extent": 8083.7603, 
			 "electric_dipole_moment_norm": 7.96649946087, 
			 "electric_quadrupole_moment_norm": 29.9942917461, 
			 "total_energy": -2041.75515281, 
			 "HOMO_LUMO_gap": 0.18735, 
			 "cosmo_polarized_energy": -24.06, 
			 "cosmo_cavitation_energy": 38.63, 
			 "cosmo_dispersion_energy": -27.39, 
			 "cosmo_repulsion_energy": 2.09, 
			 "cosmo_total_nonelectrostatic_energy": 13.33, 
			 "SMD_solvation_energy": 5.14 
		},
		"coords": [
			{
				"x": -2.2544708311,
				"y": 4.1008074124,
				"z": -0.6081761883,
				"element": "N" 
			},
			{
				"x": -1.2759085137,
				"y": 3.3617801326,
				"z": 0.0320838773,
				"element": "C" 
			},
			{
				"x": 0.0844654214,
				"y": 3.5339818272,
				"z": -0.2977883202,
				"element": "C" 
			},
			{
				"x": 1.0627991083,
				"y": 2.7590381788,
				"z": 0.3094841332,
				"element": "C" 
			},
			{
				"x": 0.7000615052,
				"y": 1.795097663,
				"z": 1.2573936002,
				"element": "C" 
			},
			{
				"x": -0.6443814213,
				"y": 1.6160557452,
				"z": 1.6020984572,
				"element": "C" 
			},
			{
				"x": -1.6223000985,
				"y": 2.3923543147,
				"z": 0.9948886135,
				"element": "C" 
			},
			{
				"x": 1.9569485704,
				"y": 0.7835657114,
				"z": 2.019202386,
				"element": "S" 
			},
			{
				"x": 1.4191928913,
				"y": 0.2836591884,
				"z": 3.2814321198,
				"element": "O" 
			},
			{
				"x": 3.2307741528,
				"y": 1.495319751,
				"z": 1.9113575788,
				"element": "O" 
			},
			{
				"x": 2.1737811839,
				"y": -0.5889481691,
				"z": 1.012822686,
				"element": "N" 
			},
			{
				"x": 1.1258484159,
				"y": -1.5382859802,
				"z": 0.8509556351,
				"element": "C" 
			},
			{
				"x": 1.0341553804,
				"y": -2.6599216809,
				"z": 1.6971645811,
				"element": "C" 
			},
			{
				"x": 2.2082284239,
				"y": -2.9397689262,
				"z": 2.9522439713,
				"element": "Cl" 
			},
			{
				"x": 0.0181779425,
				"y": -3.6019740713,
				"z": 1.5254763018,
				"element": "C" 
			},
			{
				"x": -0.898842949,
				"y": -3.4362278469,
				"z": 0.4900396901,
				"element": "C" 
			},
			{
				"x": -2.1664411736,
				"y": -4.6295730492,
				"z": 0.2738218064,
				"element": "Cl" 
			},
			{
				"x": -0.8214019124,
				"y": -2.3491236149,
				"z": -0.3789234281,
				"element": "C" 
			},
			{
				"x": 0.185301011,
				"y": -1.4084351625,
				"z": -0.1809243245,
				"element": "C" 
			},
			{
				"x": -3.1504410514,
				"y": 4.166034122,
				"z": -0.1478012663,
				"element": "H" 
			},
			{
				"x": -1.962710238,
				"y": 4.9634322183,
				"z": -1.0437108904,
				"element": "H" 
			},
			{
				"x": 0.3671268719,
				"y": 4.2882006638,
				"z": -1.0274321192,
				"element": "H" 
			},
			{
				"x": 2.1106476586,
				"y": 2.9148948419,
				"z": 0.0748161527,
				"element": "H" 
			},
			{
				"x": -0.911476915,
				"y": 0.8877408551,
				"z": 2.3597526821,
				"element": "H" 
			},
			{
				"x": -2.66564717,
				"y": 2.2569872508,
				"z": 1.2671333946,
				"element": "H" 
			},
			{
				"x": 2.6216237968,
				"y": -0.3004828377,
				"z": 0.1479054538,
				"element": "H" 
			},
			{
				"x": -0.0408964419,
				"y": -4.4598072592,
				"z": 2.183660462,
				"element": "H" 
			},
			{
				"x": -1.5377607681,
				"y": -2.236982508,
				"z": -1.1843689428,
				"element": "H" 
			},
			{
				"x": 0.2491471497,
				"y": -0.5455187705,
				"z": -0.8368081035,
				"element": "H" 
			}
		],
		 "valence_orbital": [ 
			{
				"type": "occ",
				"energy": -0.294,
				"method": "rhf"
			},
			{
				"type": "occ",
				"energy": -0.27431,
				"method": "rhf"
			},
			{
				"type": "occ",
				"energy": -0.26474,
				"method": "rhf"
			},
			{
				"type": "occ",
				"energy": -0.24797,
				"method": "rhf"
			},
			{
				"type": "occ",
				"energy": -0.22774,
				"method": "rhf"
			},
			{
				"type": "unocc",
				"energy": -0.04039,
				"method": "rhf"
			},
			{
				"type": "unocc",
				"energy": -0.03152,
				"method": "rhf"
			},
			{
				"type": "unocc",
				"energy": -0.02258,
				"method": "rhf"
			},
			{
				"type": "unocc",
				"energy": -0.02099,
				"method": "rhf"
			},
			{
				"type": "unocc",
				"energy": 0.0072,
				"method": "rhf"
			}
		],
		"cosmo_sigma_profile": { 
			"-0.025": 0.0,
			"-0.024": 0.0,
			"-0.023": 0.0,
			"-0.022": 0.0,
			"-0.021": 0.0,
			"-0.02": 0.0,
			"-0.019": 0.0,
			"-0.018": 0.0,
			"-0.017": 0.0,
			"-0.016": 0.296136422778,
			"-0.015": 1.05935572053,
			"-0.014": 1.43194770477,
			"-0.013": 3.8874387545,
			"-0.012": 4.82274750848,
			"-0.011": 3.9647493407,
			"-0.01": 5.82701314945,
			"-0.009": 3.86570475291,
			"-0.008": 8.32797577675,
			"-0.007": 12.3980506296,
			"-0.006": 12.3412744018,
			"-0.005": 14.234769313,
			"-0.004": 13.0232309251,
			"-0.003": 11.8834378987,
			"-0.002": 15.1749758619,
			"-0.001": 16.1758009705,
			"0.0": 23.0225322386,
			"0.001": 30.1738724115,
			"0.002": 24.9175620112,
			"0.003": 26.2379828291,
			"0.004": 27.1803398129,
			"0.005": 7.838518049,
			"0.006": 6.3913434973,
			"0.007": 5.8349379062,
			"0.008": 5.2829717505,
			"0.009": 6.63821054763,
			"0.01": 8.90241529601,
			"0.011": 8.96510371039,
			"0.012": 3.42050623159,
			"0.013": 0.0607670266819,
			"0.014": 0.0,
			"0.015": 0.0,
			"0.016": 0.0,
			"0.017": 0.0,
			"0.018": 0.0,
			"0.019": 0.0,
			"0.02": 0.0,
			"0.021": 0.0,
			"0.022": 0.0,
			"0.023": 0.0,
			"0.024": 0.0,
			"0.025": 0.0
		}
	}
}
