{
	 "smiles": "COC1=C(OC)C=C2CN(CC3=C(N)C=CC=C3)CCC2=C1", 
	 "Tm": 423.15, 
	 "num_atms": 44, 
	 "gaussian": { 
		 "optdone": 1, 
		 "sigma_profile": "yes", 
		 "theory": "DFT", 
		 "functional": "B3LYP", 
		 "basiset": "6-31G**", 
		 "properties": { 
			 "R2extent": 8578.8541, 
			 "electric_dipole_moment_norm": 1.45982820222, 
			 "electric_quadrupole_moment_norm": 17.4148878621, 
			 "total_energy": -959.101829866, 
			 "HOMO_LUMO_gap": 0.19387, 
			 "cosmo_polarized_energy": -12.78, 
			 "cosmo_cavitation_energy": 44.69, 
			 "cosmo_dispersion_energy": -31.14, 
			 "cosmo_repulsion_energy": 2.4, 
			 "cosmo_total_nonelectrostatic_energy": 15.95, 
			 "SMD_solvation_energy": 7.82 
		},
		"coords": [
			{
				"x": -0.7778002668,
				"y": 4.9885293161,
				"z": 2.1776798936,
				"element": "C" 
			},
			{
				"x": 0.449419601,
				"y": 4.7275947439,
				"z": 1.4942949022,
				"element": "O" 
			},
			{
				"x": 0.6298944056,
				"y": 3.4360124424,
				"z": 1.0596815569,
				"element": "C" 
			},
			{
				"x": 0.8404168715,
				"y": 2.3700740522,
				"z": 1.9656451977,
				"element": "C" 
			},
			{
				"x": 0.8012590947,
				"y": 2.6911391236,
				"z": 3.2942651709,
				"element": "O" 
			},
			{
				"x": 1.0469416649,
				"y": 1.6606315247,
				"z": 4.2370885558,
				"element": "C" 
			},
			{
				"x": 1.0748817,
				"y": 1.0914948335,
				"z": 1.4618674728,
				"element": "C" 
			},
			{
				"x": 1.1210922218,
				"y": 0.8498178722,
				"z": 0.0796453089,
				"element": "C" 
			},
			{
				"x": 1.4406627763,
				"y": -0.55223132,
				"z": -0.4249001413,
				"element": "C" 
			},
			{
				"x": 1.0581065527,
				"y": -0.801190711,
				"z": -1.8190967625,
				"element": "N" 
			},
			{
				"x": -0.3864806351,
				"y": -1.0692366491,
				"z": -1.9932119909,
				"element": "C" 
			},
			{
				"x": -0.8322176152,
				"y": -2.3725026156,
				"z": -1.3664085211,
				"element": "C" 
			},
			{
				"x": -0.2248828962,
				"y": -3.5951956102,
				"z": -1.7496840601,
				"element": "C" 
			},
			{
				"x": 0.8026501917,
				"y": -3.585665235,
				"z": -2.6900372911,
				"element": "N" 
			},
			{
				"x": -0.7117726686,
				"y": -4.7965384289,
				"z": -1.2070136765,
				"element": "C" 
			},
			{
				"x": -1.7733637368,
				"y": -4.7955564292,
				"z": -0.3050535167,
				"element": "C" 
			},
			{
				"x": -2.3677458171,
				"y": -3.5950862595,
				"z": 0.0860946267,
				"element": "C" 
			},
			{
				"x": -1.8862627347,
				"y": -2.3989017349,
				"z": -0.4499340725,
				"element": "C" 
			},
			{
				"x": 1.546151533,
				"y": 0.2916160949,
				"z": -2.6713951089,
				"element": "C" 
			},
			{
				"x": 0.9469739122,
				"y": 1.6637616951,
				"z": -2.3167212386,
				"element": "C" 
			},
			{
				"x": 0.9261897604,
				"y": 1.9047805696,
				"z": -0.8187379851,
				"element": "C" 
			},
			{
				"x": 0.6735316101,
				"y": 3.1859485872,
				"z": -0.3052541668,
				"element": "C" 
			},
			{
				"x": -0.7761942579,
				"y": 6.0559961311,
				"z": 2.4089005233,
				"element": "H" 
			},
			{
				"x": -1.6398850596,
				"y": 4.7607357699,
				"z": 1.5365659751,
				"element": "H" 
			},
			{
				"x": -0.8522721568,
				"y": 4.4143667509,
				"z": 3.1059482424,
				"element": "H" 
			},
			{
				"x": 0.989416657,
				"y": 2.1312931815,
				"z": 5.2198417069,
				"element": "H" 
			},
			{
				"x": 2.0443449039,
				"y": 1.2221316316,
				"z": 4.1046359958,
				"element": "H" 
			},
			{
				"x": 0.2950201605,
				"y": 0.8631639994,
				"z": 4.1740394969,
				"element": "H" 
			},
			{
				"x": 1.2331063033,
				"y": 0.2601380563,
				"z": 2.1411711118,
				"element": "H" 
			},
			{
				"x": 2.5232457885,
				"y": -0.7272841296,
				"z": -0.3386523347,
				"element": "H" 
			},
			{
				"x": 0.953859942,
				"y": -1.3024384228,
				"z": 0.2059813731,
				"element": "H" 
			},
			{
				"x": -1.015142252,
				"y": -0.2529166811,
				"z": -1.6032016888,
				"element": "H" 
			},
			{
				"x": -0.556550526,
				"y": -1.1169225512,
				"z": -3.0778019502,
				"element": "H" 
			},
			{
				"x": 1.3756646362,
				"y": -2.7464087792,
				"z": -2.6265200754,
				"element": "H" 
			},
			{
				"x": 1.3424170099,
				"y": -4.4394495457,
				"z": -2.7332617254,
				"element": "H" 
			},
			{
				"x": -0.2484453192,
				"y": -5.7353793863,
				"z": -1.5026950764,
				"element": "H" 
			},
			{
				"x": -2.1304419087,
				"y": -5.7393173341,
				"z": 0.0986458459,
				"element": "H" 
			},
			{
				"x": -3.1913235262,
				"y": -3.588486044,
				"z": 0.7932047328,
				"element": "H" 
			},
			{
				"x": -2.3427705453,
				"y": -1.455342537,
				"z": -0.1583424163,
				"element": "H" 
			},
			{
				"x": 2.6371430042,
				"y": 0.3277053073,
				"z": -2.5588743301,
				"element": "H" 
			},
			{
				"x": 1.3376773228,
				"y": 0.0426569135,
				"z": -3.7179653965,
				"element": "H" 
			},
			{
				"x": -0.0755207312,
				"y": 1.7343948749,
				"z": -2.7135159986,
				"element": "H" 
			},
			{
				"x": 1.5170177375,
				"y": 2.454126174,
				"z": -2.8208107036,
				"element": "H" 
			},
			{
				"x": 0.5174872916,
				"y": 4.0282407588,
				"z": -0.974207461,
				"element": "H" 
			}
		],
		 "valence_orbital": [ 
			{
				"type": "occ",
				"energy": -0.23549,
				"method": "rhf"
			},
			{
				"type": "occ",
				"energy": -0.23278,
				"method": "rhf"
			},
			{
				"type": "occ",
				"energy": -0.21841,
				"method": "rhf"
			},
			{
				"type": "occ",
				"energy": -0.20588,
				"method": "rhf"
			},
			{
				"type": "occ",
				"energy": -0.19084,
				"method": "rhf"
			},
			{
				"type": "unocc",
				"energy": 0.00303,
				"method": "rhf"
			},
			{
				"type": "unocc",
				"energy": 0.00954,
				"method": "rhf"
			},
			{
				"type": "unocc",
				"energy": 0.01439,
				"method": "rhf"
			},
			{
				"type": "unocc",
				"energy": 0.02509,
				"method": "rhf"
			},
			{
				"type": "unocc",
				"energy": 0.08697,
				"method": "rhf"
			}
		],
		"cosmo_sigma_profile": { 
			"-0.025": 0.0,
			"-0.024": 0.0,
			"-0.023": 0.0,
			"-0.022": 0.0,
			"-0.021": 0.0,
			"-0.02": 0.0,
			"-0.019": 0.0,
			"-0.018": 0.0,
			"-0.017": 0.0,
			"-0.016": 0.0,
			"-0.015": 0.0,
			"-0.014": 0.0,
			"-0.013": 0.0,
			"-0.012": 0.340047868058,
			"-0.011": 1.22704862394,
			"-0.01": 1.4057548109,
			"-0.009": 1.44045801291,
			"-0.008": 1.74120339208,
			"-0.007": 1.4399005572,
			"-0.006": 7.08558616122,
			"-0.005": 22.1100804836,
			"-0.004": 36.0038320394,
			"-0.003": 47.1463676684,
			"-0.002": 42.5474062852,
			"-0.001": 30.9143520019,
			"0.0": 23.5102489949,
			"0.001": 19.303460284,
			"0.002": 18.5010239161,
			"0.003": 17.5389882555,
			"0.004": 18.0171189637,
			"0.005": 17.3774921627,
			"0.006": 14.9606955257,
			"0.007": 9.46422694541,
			"0.008": 5.42908743193,
			"0.009": 3.36142095766,
			"0.01": 2.79901468861,
			"0.011": 3.40649785915,
			"0.012": 2.42848466904,
			"0.013": 0.929568429417,
			"0.014": 0.794961132642,
			"0.015": 0.399337813315,
			"0.016": 0.0240618613179,
			"0.017": 0.0,
			"0.018": 0.0,
			"0.019": 0.0,
			"0.02": 0.0,
			"0.021": 0.0,
			"0.022": 0.0,
			"0.023": 0.0,
			"0.024": 0.0,
			"0.025": 0.0
		}
	}
}
