{
	 "smiles": "COC1=CC(=CC=C1)C1=NOC(SCC(O)=O)=N1", 
	 "Tm": 377.15, 
	 "num_atms": 28, 
	 "gaussian": { 
		 "optdone": 1, 
		 "sigma_profile": "yes", 
		 "theory": "DFT", 
		 "functional": "B3LYP", 
		 "basiset": "6-31G**", 
		 "properties": { 
			 "R2extent": 7324.8323, 
			 "electric_dipole_moment_norm": 4.56962153575, 
			 "electric_quadrupole_moment_norm": 25.5197061104, 
			 "total_energy": -1233.73860884, 
			 "HOMO_LUMO_gap": 0.17997, 
			 "cosmo_polarized_energy": -17.55, 
			 "cosmo_cavitation_energy": 35.82, 
			 "cosmo_dispersion_energy": -26.04, 
			 "cosmo_repulsion_energy": 1.98, 
			 "cosmo_total_nonelectrostatic_energy": 11.76, 
			 "SMD_solvation_energy": 6.87 
		},
		"coords": [
			{
				"x": -2.0849927185,
				"y": 1.4576630999,
				"z": -5.1533331323,
				"element": "C" 
			},
			{
				"x": -1.2252409413,
				"y": 0.5797098667,
				"z": -4.4444389328,
				"element": "O" 
			},
			{
				"x": -1.3013270262,
				"y": 0.5575556874,
				"z": -3.0826906031,
				"element": "C" 
			},
			{
				"x": -0.424419624,
				"y": -0.3269137127,
				"z": -2.4446778126,
				"element": "C" 
			},
			{
				"x": -0.4214883758,
				"y": -0.426852228,
				"z": -1.0511543155,
				"element": "C" 
			},
			{
				"x": -1.2975293711,
				"y": 0.3586703006,
				"z": -0.2843191157,
				"element": "C" 
			},
			{
				"x": -2.1646855764,
				"y": 1.2339548477,
				"z": -0.9286067456,
				"element": "C" 
			},
			{
				"x": -2.1779067385,
				"y": 1.3437522512,
				"z": -2.3222209638,
				"element": "C" 
			},
			{
				"x": 0.4988772853,
				"y": -1.3556271665,
				"z": -0.3784247408,
				"element": "C" 
			},
			{
				"x": 1.3478114139,
				"y": -2.1164200027,
				"z": -1.0323366312,
				"element": "N" 
			},
			{
				"x": 2.0112672241,
				"y": -2.824696152,
				"z": -0.004209442,
				"element": "O" 
			},
			{
				"x": 1.4705903832,
				"y": -2.3978141143,
				"z": 1.1453371027,
				"element": "C" 
			},
			{
				"x": 2.0781208583,
				"y": -3.1199489351,
				"z": 2.6196117664,
				"element": "S" 
			},
			{
				"x": 1.0922115164,
				"y": -2.1505654054,
				"z": 3.8018868224,
				"element": "C" 
			},
			{
				"x": 1.5556059229,
				"y": -0.7089314322,
				"z": 3.9723091715,
				"element": "C" 
			},
			{
				"x": 0.6634250023,
				"y": -0.0415089816,
				"z": 4.7393685944,
				"element": "O" 
			},
			{
				"x": 2.5608435582,
				"y": -0.2130040223,
				"z": 3.5291436077,
				"element": "O" 
			},
			{
				"x": 0.5399146174,
				"y": -1.5012731747,
				"z": 0.9978188366,
				"element": "N" 
			},
			{
				"x": -1.8560174553,
				"y": 1.3140333255,
				"z": -6.2102884354,
				"element": "H" 
			},
			{
				"x": -3.142304273,
				"y": 1.2196878831,
				"z": -4.9784675486,
				"element": "H" 
			},
			{
				"x": -1.9046276902,
				"y": 2.5067583162,
				"z": -4.8851580709,
				"element": "H" 
			},
			{
				"x": 0.2475181695,
				"y": -0.9276550822,
				"z": -3.0469628635,
				"element": "H" 
			},
			{
				"x": -1.2850714337,
				"y": 0.2726828349,
				"z": 0.7956591418,
				"element": "H" 
			},
			{
				"x": -2.8458038576,
				"y": 1.8456288781,
				"z": -0.3440652252,
				"element": "H" 
			},
			{
				"x": -2.8639144315,
				"y": 2.0340037851,
				"z": -2.7984101352,
				"element": "H" 
			},
			{
				"x": 1.1800822833,
				"y": -2.6685286235,
				"z": 4.7620005283,
				"element": "H" 
			},
			{
				"x": 0.0412524309,
				"y": -2.1610150369,
				"z": 3.5080824377,
				"element": "H" 
			},
			{
				"x": 1.0041088474,
				"y": 0.864552994,
				"z": 4.8294467046,
				"element": "H" 
			}
		],
		 "valence_orbital": [ 
			{
				"type": "occ",
				"energy": -0.29968,
				"method": "rhf"
			},
			{
				"type": "occ",
				"energy": -0.29229,
				"method": "rhf"
			},
			{
				"type": "occ",
				"energy": -0.26179,
				"method": "rhf"
			},
			{
				"type": "occ",
				"energy": -0.24024,
				"method": "rhf"
			},
			{
				"type": "occ",
				"energy": -0.2246,
				"method": "rhf"
			},
			{
				"type": "unocc",
				"energy": -0.04463,
				"method": "rhf"
			},
			{
				"type": "unocc",
				"energy": -0.00603,
				"method": "rhf"
			},
			{
				"type": "unocc",
				"energy": -0.00201,
				"method": "rhf"
			},
			{
				"type": "unocc",
				"energy": 0.00335,
				"method": "rhf"
			},
			{
				"type": "unocc",
				"energy": 0.00482,
				"method": "rhf"
			}
		],
		"cosmo_sigma_profile": { 
			"-0.025": 0.0,
			"-0.024": 0.0,
			"-0.023": 0.0,
			"-0.022": 0.0,
			"-0.021": 0.0,
			"-0.02": 0.0265673652213,
			"-0.019": 0.54210671973,
			"-0.018": 0.881251344468,
			"-0.017": 1.39509480447,
			"-0.016": 0.364554162468,
			"-0.015": 0.483478894538,
			"-0.014": 0.518507990502,
			"-0.013": 0.709687221731,
			"-0.012": 0.686816731119,
			"-0.011": 3.27894734969,
			"-0.01": 3.6217891619,
			"-0.009": 3.12620977789,
			"-0.008": 3.83786330963,
			"-0.007": 5.75001638578,
			"-0.006": 15.7702526533,
			"-0.005": 18.5245470279,
			"-0.004": 19.68159233,
			"-0.003": 18.8913642988,
			"-0.002": 17.6597891727,
			"-0.001": 16.896098831,
			"0.0": 18.2435615365,
			"0.001": 18.7749219102,
			"0.002": 19.9795487813,
			"0.003": 22.4499706349,
			"0.004": 20.6964168689,
			"0.005": 13.5678506557,
			"0.006": 10.8174770501,
			"0.007": 6.18688117606,
			"0.008": 5.91306092136,
			"0.009": 5.45650799608,
			"0.01": 6.35247955135,
			"0.011": 5.94908066053,
			"0.012": 1.81757627606,
			"0.013": 0.0,
			"0.014": 0.0,
			"0.015": 0.0,
			"0.016": 0.0,
			"0.017": 0.0,
			"0.018": 0.0,
			"0.019": 0.0,
			"0.02": 0.0,
			"0.021": 0.0,
			"0.022": 0.0,
			"0.023": 0.0,
			"0.024": 0.0,
			"0.025": 0.0
		}
	}
}
