{
	 "smiles": "OC(=O)CC(O)(C1=NC=CN1CC1=CC=CC=C1)C(F)(F)F", 
	 "Tm": 426.15, 
	 "num_atms": 35, 
	 "gaussian": { 
		 "optdone": 1, 
		 "sigma_profile": "yes", 
		 "theory": "DFT", 
		 "functional": "B3LYP", 
		 "basiset": "6-31G**", 
		 "properties": { 
			 "R2extent": 7333.7861, 
			 "electric_dipole_moment_norm": 4.23103078457, 
			 "electric_quadrupole_moment_norm": 16.6226244243, 
			 "total_energy": -1176.03574823, 
			 "HOMO_LUMO_gap": 0.2199, 
			 "cosmo_polarized_energy": -14.78, 
			 "cosmo_cavitation_energy": 39.3, 
			 "cosmo_dispersion_energy": -26.4, 
			 "cosmo_repulsion_energy": 1.93, 
			 "cosmo_total_nonelectrostatic_energy": 14.83, 
			 "SMD_solvation_energy": 7.67 
		},
		"coords": [
			{
				"x": 0.535441681,
				"y": 3.2003588587,
				"z": -2.7771722819,
				"element": "O" 
			},
			{
				"x": -0.6225401961,
				"y": 3.0838816045,
				"z": -2.1068288025,
				"element": "C" 
			},
			{
				"x": -1.6587691305,
				"y": 2.7940357818,
				"z": -2.6594616913,
				"element": "O" 
			},
			{
				"x": -0.532780671,
				"y": 3.3638797918,
				"z": -0.6062858123,
				"element": "C" 
			},
			{
				"x": 0.5668981296,
				"y": 2.537298814,
				"z": 0.0917028582,
				"element": "C" 
			},
			{
				"x": 1.8209046452,
				"y": 3.0333122528,
				"z": -0.3621370081,
				"element": "O" 
			},
			{
				"x": 0.5599104534,
				"y": 1.0437870297,
				"z": -0.2071913321,
				"element": "C" 
			},
			{
				"x": 1.7124393475,
				"y": 0.4666658169,
				"z": -0.4998071931,
				"element": "N" 
			},
			{
				"x": 1.4269648732,
				"y": -0.8536468621,
				"z": -0.7308999923,
				"element": "C" 
			},
			{
				"x": 0.082437803,
				"y": -1.0709375297,
				"z": -0.5721520595,
				"element": "C" 
			},
			{
				"x": -0.4730360345,
				"y": 0.1470663848,
				"z": -0.2270782611,
				"element": "N" 
			},
			{
				"x": -1.9207124652,
				"y": 0.3952757506,
				"z": -0.0511418603,
				"element": "C" 
			},
			{
				"x": -2.6353322273,
				"y": -0.7734280465,
				"z": 0.5891185662,
				"element": "C" 
			},
			{
				"x": -2.4302954444,
				"y": -1.0639082552,
				"z": 1.9455511922,
				"element": "C" 
			},
			{
				"x": -3.0924600412,
				"y": -2.1332068462,
				"z": 2.5451549195,
				"element": "C" 
			},
			{
				"x": -3.9704069199,
				"y": -2.9224608734,
				"z": 1.796137021,
				"element": "C" 
			},
			{
				"x": -4.1829016081,
				"y": -2.6370021779,
				"z": 0.4474209473,
				"element": "C" 
			},
			{
				"x": -3.5163220584,
				"y": -1.5662322061,
				"z": -0.1537421062,
				"element": "C" 
			},
			{
				"x": 0.5121101774,
				"y": 2.780320866,
				"z": 1.6197316426,
				"element": "C" 
			},
			{
				"x": 1.5368528951,
				"y": 2.186099534,
				"z": 2.2448971566,
				"element": "F" 
			},
			{
				"x": 0.5455194244,
				"y": 4.0918632004,
				"z": 1.9083554529,
				"element": "F" 
			},
			{
				"x": -0.6384242723,
				"y": 2.2801382749,
				"z": 2.1484814869,
				"element": "F" 
			},
			{
				"x": 1.2591476953,
				"y": 3.3278064824,
				"z": -2.1273648008,
				"element": "H" 
			},
			{
				"x": -1.5149702344,
				"y": 3.1891761918,
				"z": -0.171384954,
				"element": "H" 
			},
			{
				"x": -0.2802112496,
				"y": 4.4182555371,
				"z": -0.4508497082,
				"element": "H" 
			},
			{
				"x": 2.3947548658,
				"y": 2.2342213318,
				"z": -0.4206457665,
				"element": "H" 
			},
			{
				"x": 2.1953882207,
				"y": -1.565522232,
				"z": -0.9950709452,
				"element": "H" 
			},
			{
				"x": -0.5236044294,
				"y": -1.9580474045,
				"z": -0.6604164138,
				"element": "H" 
			},
			{
				"x": -2.0174092636,
				"y": 1.269645815,
				"z": 0.5901178147,
				"element": "H" 
			},
			{
				"x": -2.3526146168,
				"y": 0.6404769887,
				"z": -1.0261407246,
				"element": "H" 
			},
			{
				"x": -1.7518175787,
				"y": -0.444607654,
				"z": 2.5268554093,
				"element": "H" 
			},
			{
				"x": -2.928968249,
				"y": -2.3488353587,
				"z": 3.5969762437,
				"element": "H" 
			},
			{
				"x": -4.4886343876,
				"y": -3.7538971495,
				"z": 2.2648948775,
				"element": "H" 
			},
			{
				"x": -4.8671375503,
				"y": -3.2441449772,
				"z": -0.1379405336,
				"element": "H" 
			},
			{
				"x": -3.6854215834,
				"y": -1.3416887344,
				"z": -1.2038833413,
				"element": "H" 
			}
		],
		 "valence_orbital": [ 
			{
				"type": "occ",
				"energy": -0.29326,
				"method": "rhf"
			},
			{
				"type": "occ",
				"energy": -0.27042,
				"method": "rhf"
			},
			{
				"type": "occ",
				"energy": -0.26707,
				"method": "rhf"
			},
			{
				"type": "occ",
				"energy": -0.26294,
				"method": "rhf"
			},
			{
				"type": "occ",
				"energy": -0.24495,
				"method": "rhf"
			},
			{
				"type": "unocc",
				"energy": -0.02505,
				"method": "rhf"
			},
			{
				"type": "unocc",
				"energy": -0.01843,
				"method": "rhf"
			},
			{
				"type": "unocc",
				"energy": -0.00328,
				"method": "rhf"
			},
			{
				"type": "unocc",
				"energy": 0.00685,
				"method": "rhf"
			},
			{
				"type": "unocc",
				"energy": 0.0457,
				"method": "rhf"
			}
		],
		"cosmo_sigma_profile": { 
			"-0.025": 0.0,
			"-0.024": 0.0,
			"-0.023": 0.0,
			"-0.022": 0.0,
			"-0.021": 0.0,
			"-0.02": 0.0,
			"-0.019": 0.0,
			"-0.018": 0.0,
			"-0.017": 0.0,
			"-0.016": 0.0,
			"-0.015": 0.0,
			"-0.014": 0.0,
			"-0.013": 0.0,
			"-0.012": 0.0,
			"-0.011": 0.333953283529,
			"-0.01": 2.68015634721,
			"-0.009": 4.96952513263,
			"-0.008": 6.8658176164,
			"-0.007": 9.31852114809,
			"-0.006": 17.3516259648,
			"-0.005": 20.412674757,
			"-0.004": 25.0421861109,
			"-0.003": 22.3886965777,
			"-0.002": 19.1802867514,
			"-0.001": 17.4489155153,
			"0.0": 18.2814091394,
			"0.001": 24.651328254,
			"0.002": 36.3418393756,
			"0.003": 22.0097936268,
			"0.004": 17.0315447535,
			"0.005": 13.2659709404,
			"0.006": 6.43604419845,
			"0.007": 3.85322062639,
			"0.008": 4.81998510874,
			"0.009": 6.11854511272,
			"0.01": 4.98121388746,
			"0.011": 4.7129462783,
			"0.012": 4.06647453743,
			"0.013": 1.2619934198,
			"0.014": 0.0159859139737,
			"0.015": 0.0,
			"0.016": 0.0,
			"0.017": 0.0,
			"0.018": 0.0,
			"0.019": 0.0,
			"0.02": 0.0,
			"0.021": 0.0,
			"0.022": 0.0,
			"0.023": 0.0,
			"0.024": 0.0,
			"0.025": 0.0
		}
	}
}
