{
	 "smiles": "CCN(CCO)CCN1C(CC2=CC=CC=C2)=NC2=C1C(=O)N(C)C(=O)N2C", 
	 "Tm": 353.15, 
	 "num_atms": 55, 
	 "gaussian": { 
		 "optdone": 1, 
		 "sigma_profile": "yes", 
		 "theory": "DFT", 
		 "functional": "B3LYP", 
		 "basiset": "6-31G**", 
		 "properties": { 
			 "R2extent": 11878.149, 
			 "electric_dipole_moment_norm": 5.24193471726, 
			 "electric_quadrupole_moment_norm": 10.2433186292, 
			 "total_energy": -1277.87119305, 
			 "HOMO_LUMO_gap": 0.16302, 
			 "cosmo_polarized_energy": -19.66, 
			 "cosmo_cavitation_energy": 53.57, 
			 "cosmo_dispersion_energy": -36.0, 
			 "cosmo_repulsion_energy": 2.68, 
			 "cosmo_total_nonelectrostatic_energy": 20.25, 
			 "SMD_solvation_energy": 6.07 
		},
		"coords": [
			{
				"x": -2.4884646397,
				"y": -3.8389992555,
				"z": -0.6098108917,
				"element": "C" 
			},
			{
				"x": -2.6308521338,
				"y": -2.7445014318,
				"z": -1.6708502057,
				"element": "C" 
			},
			{
				"x": -1.3376153999,
				"y": -2.2852674189,
				"z": -2.1894288881,
				"element": "N" 
			},
			{
				"x": -1.3348415626,
				"y": -1.7299122953,
				"z": -3.5350096026,
				"element": "C" 
			},
			{
				"x": -1.6028305272,
				"y": -0.2296505849,
				"z": -3.7097906711,
				"element": "C" 
			},
			{
				"x": -2.8344535699,
				"y": 0.1147979155,
				"z": -3.0935643689,
				"element": "O" 
			},
			{
				"x": -0.4242451931,
				"y": -1.6846984673,
				"z": -1.2319314475,
				"element": "C" 
			},
			{
				"x": -0.9957628927,
				"y": -0.488662222,
				"z": -0.423131212,
				"element": "C" 
			},
			{
				"x": 0.0161765658,
				"y": 0.1404031411,
				"z": 0.4338778041,
				"element": "N" 
			},
			{
				"x": 0.7151813794,
				"y": 1.2916353528,
				"z": 0.2104657902,
				"element": "C" 
			},
			{
				"x": 0.5622185866,
				"y": 2.167663256,
				"z": -0.9985867794,
				"element": "C" 
			},
			{
				"x": -0.7763754389,
				"y": 2.8843457311,
				"z": -1.1376421228,
				"element": "C" 
			},
			{
				"x": -1.2868177437,
				"y": 3.1689456797,
				"z": -2.4127288322,
				"element": "C" 
			},
			{
				"x": -2.4958996561,
				"y": 3.8528183722,
				"z": -2.5648582225,
				"element": "C" 
			},
			{
				"x": -3.21508124,
				"y": 4.2599866402,
				"z": -1.4386603305,
				"element": "C" 
			},
			{
				"x": -2.7101074947,
				"y": 3.9891584486,
				"z": -0.1660649326,
				"element": "C" 
			},
			{
				"x": -1.4999180907,
				"y": 3.3092056948,
				"z": -0.0166843514,
				"element": "C" 
			},
			{
				"x": 1.5676335817,
				"y": 1.5801200099,
				"z": 1.2013672273,
				"element": "N" 
			},
			{
				"x": 1.4074876939,
				"y": 0.5659618231,
				"z": 2.0869474489,
				"element": "C" 
			},
			{
				"x": 0.464570572,
				"y": -0.346881027,
				"z": 1.6573720405,
				"element": "C" 
			},
			{
				"x": 0.0844228262,
				"y": -1.4960064235,
				"z": 2.4237216504,
				"element": "C" 
			},
			{
				"x": -0.7568690764,
				"y": -2.341181907,
				"z": 2.1191288641,
				"element": "O" 
			},
			{
				"x": 0.813243035,
				"y": -1.5698241244,
				"z": 3.6384152168,
				"element": "N" 
			},
			{
				"x": 0.5406440958,
				"y": -2.6990624391,
				"z": 4.5343341079,
				"element": "C" 
			},
			{
				"x": 1.7869087684,
				"y": -0.6660574822,
				"z": 4.1038686953,
				"element": "C" 
			},
			{
				"x": 2.3448099701,
				"y": -0.8418809918,
				"z": 5.1785422826,
				"element": "O" 
			},
			{
				"x": 2.072780975,
				"y": 0.4230182781,
				"z": 3.2818144174,
				"element": "N" 
			},
			{
				"x": 3.0670728803,
				"y": 1.4088416166,
				"z": 3.7003605615,
				"element": "C" 
			},
			{
				"x": -1.9004019222,
				"y": -4.6757164298,
				"z": -1.000958751,
				"element": "H" 
			},
			{
				"x": -2.0074197278,
				"y": -3.476536235,
				"z": 0.3029069262,
				"element": "H" 
			},
			{
				"x": -3.4796033585,
				"y": -4.2143285721,
				"z": -0.3328552556,
				"element": "H" 
			},
			{
				"x": -3.2492432407,
				"y": -1.9203431928,
				"z": -1.2798124058,
				"element": "H" 
			},
			{
				"x": -3.1841949408,
				"y": -3.1492420561,
				"z": -2.5252680747,
				"element": "H" 
			},
			{
				"x": -2.0774113983,
				"y": -2.2849855462,
				"z": -4.1180337958,
				"element": "H" 
			},
			{
				"x": -0.3572799962,
				"y": -1.9260263003,
				"z": -4.003503929,
				"element": "H" 
			},
			{
				"x": -0.769720654,
				"y": 0.3433531485,
				"z": -3.2741227194,
				"element": "H" 
			},
			{
				"x": -1.6114558063,
				"y": -0.0046526016,
				"z": -4.7900692218,
				"element": "H" 
			},
			{
				"x": -2.8903869398,
				"y": 1.0788979138,
				"z": -3.0417553187,
				"element": "H" 
			},
			{
				"x": -0.1002022198,
				"y": -2.4392327224,
				"z": -0.5064472614,
				"element": "H" 
			},
			{
				"x": 0.4730935163,
				"y": -1.3567103799,
				"z": -1.7712528329,
				"element": "H" 
			},
			{
				"x": -1.4150602343,
				"y": 0.2739169198,
				"z": -1.076637271,
				"element": "H" 
			},
			{
				"x": -1.7947510281,
				"y": -0.8399144836,
				"z": 0.2313815309,
				"element": "H" 
			},
			{
				"x": 1.3684843333,
				"y": 2.9053259358,
				"z": -0.9247432194,
				"element": "H" 
			},
			{
				"x": 0.755976543,
				"y": 1.5891409462,
				"z": -1.9098244286,
				"element": "H" 
			},
			{
				"x": -0.7244530461,
				"y": 2.8670547565,
				"z": -3.2933527806,
				"element": "H" 
			},
			{
				"x": -2.8706480789,
				"y": 4.0728716804,
				"z": -3.560861086,
				"element": "H" 
			},
			{
				"x": -4.1574173943,
				"y": 4.7872177347,
				"z": -1.5530862672,
				"element": "H" 
			},
			{
				"x": -3.2591156333,
				"y": 4.3072581531,
				"z": 0.7154969094,
				"element": "H" 
			},
			{
				"x": -1.1129151226,
				"y": 3.1075921432,
				"z": 0.9781164862,
				"element": "H" 
			},
			{
				"x": 0.1832043912,
				"y": -2.3332608488,
				"z": 5.4992886345,
				"element": "H" 
			},
			{
				"x": -0.2154753109,
				"y": -3.3171828066,
				"z": 4.0558336625,
				"element": "H" 
			},
			{
				"x": 1.455845167,
				"y": -3.2703120701,
				"z": 4.7027578417,
				"element": "H" 
			},
			{
				"x": 3.4784066764,
				"y": 1.0734824296,
				"z": 4.6499668346,
				"element": "H" 
			},
			{
				"x": 3.8563853013,
				"y": 1.4851574739,
				"z": 2.9483154527,
				"element": "H" 
			},
			{
				"x": 2.5997438536,
				"y": 2.3905591208,
				"z": 3.8160470923,
				"element": "H" 
			}
		],
		 "valence_orbital": [ 
			{
				"type": "occ",
				"energy": -0.2633,
				"method": "rhf"
			},
			{
				"type": "occ",
				"energy": -0.26096,
				"method": "rhf"
			},
			{
				"type": "occ",
				"energy": -0.25648,
				"method": "rhf"
			},
			{
				"type": "occ",
				"energy": -0.21601,
				"method": "rhf"
			},
			{
				"type": "occ",
				"energy": -0.19413,
				"method": "rhf"
			},
			{
				"type": "unocc",
				"energy": -0.03111,
				"method": "rhf"
			},
			{
				"type": "unocc",
				"energy": -0.02148,
				"method": "rhf"
			},
			{
				"type": "unocc",
				"energy": -0.02046,
				"method": "rhf"
			},
			{
				"type": "unocc",
				"energy": 0.0266,
				"method": "rhf"
			},
			{
				"type": "unocc",
				"energy": 0.03459,
				"method": "rhf"
			}
		],
		"cosmo_sigma_profile": { 
			"-0.025": 0.0,
			"-0.024": 0.0,
			"-0.023": 0.0,
			"-0.022": 0.0,
			"-0.021": 0.0,
			"-0.02": 0.0,
			"-0.019": 0.0,
			"-0.018": 0.0,
			"-0.017": 0.0,
			"-0.016": 0.0,
			"-0.015": 0.0,
			"-0.014": 0.0,
			"-0.013": 0.0,
			"-0.012": 0.0,
			"-0.011": 0.09276129419,
			"-0.01": 0.617791946201,
			"-0.009": 0.529655712542,
			"-0.008": 2.03464807845,
			"-0.007": 5.23219175844,
			"-0.006": 16.5832238285,
			"-0.005": 28.1325584445,
			"-0.004": 40.5412400344,
			"-0.003": 51.3448624065,
			"-0.002": 52.9626491513,
			"-0.001": 42.1209481661,
			"0.0": 34.93270404,
			"0.001": 23.9684394235,
			"0.002": 21.3073996307,
			"0.003": 16.9041602621,
			"0.004": 16.3960465356,
			"0.005": 14.4280330726,
			"0.006": 7.77399718964,
			"0.007": 6.86732708028,
			"0.008": 6.41901240237,
			"0.009": 5.3306318451,
			"0.01": 6.74505579106,
			"0.011": 6.75598615755,
			"0.012": 5.80361906985,
			"0.013": 5.77917273885,
			"0.014": 1.97384762688,
			"0.015": 0.430929788821,
			"0.016": 0.0,
			"0.017": 0.0,
			"0.018": 0.0,
			"0.019": 0.0,
			"0.02": 0.0,
			"0.021": 0.0,
			"0.022": 0.0,
			"0.023": 0.0,
			"0.024": 0.0,
			"0.025": 0.0
		}
	}
}
