{
	 "smiles": "OC(=O)C1CC2=C(C=CC=C2)C(=O)O1", 
	 "Tm": 425.15, 
	 "num_atms": 22, 
	 "gaussian": { 
		 "optdone": 1, 
		 "sigma_profile": "yes", 
		 "theory": "DFT", 
		 "functional": "B3LYP", 
		 "basiset": "6-31G**", 
		 "properties": { 
			 "R2extent": 2563.4289, 
			 "electric_dipole_moment_norm": 3.64740915994, 
			 "electric_quadrupole_moment_norm": 15.4527482336, 
			 "total_energy": -686.802369295, 
			 "HOMO_LUMO_gap": 0.20336, 
			 "cosmo_polarized_energy": -15.64, 
			 "cosmo_cavitation_energy": 26.14, 
			 "cosmo_dispersion_energy": -19.16, 
			 "cosmo_repulsion_energy": 1.5, 
			 "cosmo_total_nonelectrostatic_energy": 8.48, 
			 "SMD_solvation_energy": 6.19 
		},
		"coords": [
			{
				"x": 1.7538971413,
				"y": -3.0688510927,
				"z": -0.294966117,
				"element": "O" 
			},
			{
				"x": 2.1911050142,
				"y": -1.8265760261,
				"z": -0.5608236955,
				"element": "C" 
			},
			{
				"x": 2.8188805977,
				"y": -1.5551742394,
				"z": -1.5544054423,
				"element": "O" 
			},
			{
				"x": 1.8946567332,
				"y": -0.7827633316,
				"z": 0.5365526239,
				"element": "C" 
			},
			{
				"x": 1.6112210105,
				"y": 0.6010567792,
				"z": -0.0349942491,
				"element": "C" 
			},
			{
				"x": 0.2173253926,
				"y": 0.6694735857,
				"z": -0.6039213345,
				"element": "C" 
			},
			{
				"x": -0.7803564433,
				"y": -0.1468745668,
				"z": -0.0443960411,
				"element": "C" 
			},
			{
				"x": -2.0994707766,
				"y": -0.0890061871,
				"z": -0.5183284101,
				"element": "C" 
			},
			{
				"x": -2.4262709102,
				"y": 0.7781834997,
				"z": -1.5541829794,
				"element": "C" 
			},
			{
				"x": -1.4354042673,
				"y": 1.5899030029,
				"z": -2.1175615288,
				"element": "C" 
			},
			{
				"x": -0.1243253447,
				"y": 1.5361898132,
				"z": -1.6453009524,
				"element": "C" 
			},
			{
				"x": -0.4794655696,
				"y": -1.0827236649,
				"z": 1.0666200404,
				"element": "C" 
			},
			{
				"x": -1.3076754888,
				"y": -1.6964572315,
				"z": 1.6962940609,
				"element": "O" 
			},
			{
				"x": 0.8486951125,
				"y": -1.2648227997,
				"z": 1.4074910965,
				"element": "O" 
			},
			{
				"x": 1.2803843936,
				"y": -3.0566339463,
				"z": 0.5558729691,
				"element": "H" 
			},
			{
				"x": 2.7838739245,
				"y": -0.7489178348,
				"z": 1.1753084085,
				"element": "H" 
			},
			{
				"x": 2.3614985894,
				"y": 0.8088529023,
				"z": -0.8019402752,
				"element": "H" 
			},
			{
				"x": 1.7299933665,
				"y": 1.3480491317,
				"z": 0.7600766521,
				"element": "H" 
			},
			{
				"x": -2.843274023,
				"y": -0.7313815096,
				"z": -0.0596171734,
				"element": "H" 
			},
			{
				"x": -3.4451797819,
				"y": 0.8233670301,
				"z": -1.9257690358,
				"element": "H" 
			},
			{
				"x": -1.6853816058,
				"y": 2.2637210538,
				"z": -2.9319365338,
				"element": "H" 
			},
			{
				"x": 0.6413729352,
				"y": 2.1651856317,
				"z": -2.0906720829,
				"element": "H" 
			}
		],
		 "valence_orbital": [ 
			{
				"type": "occ",
				"energy": -0.32521,
				"method": "rhf"
			},
			{
				"type": "occ",
				"energy": -0.28912,
				"method": "rhf"
			},
			{
				"type": "occ",
				"energy": -0.27737,
				"method": "rhf"
			},
			{
				"type": "occ",
				"energy": -0.2748,
				"method": "rhf"
			},
			{
				"type": "occ",
				"energy": -0.26899,
				"method": "rhf"
			},
			{
				"type": "unocc",
				"energy": -0.06563,
				"method": "rhf"
			},
			{
				"type": "unocc",
				"energy": -0.02776,
				"method": "rhf"
			},
			{
				"type": "unocc",
				"energy": -0.00216,
				"method": "rhf"
			},
			{
				"type": "unocc",
				"energy": 0.03941,
				"method": "rhf"
			},
			{
				"type": "unocc",
				"energy": 0.0714,
				"method": "rhf"
			}
		],
		"cosmo_sigma_profile": { 
			"-0.025": 0.0,
			"-0.024": 0.0,
			"-0.023": 0.0,
			"-0.022": 0.0,
			"-0.021": 0.0,
			"-0.02": 0.0,
			"-0.019": 0.0,
			"-0.018": 0.0,
			"-0.017": 0.0452835603661,
			"-0.016": 0.265660968138,
			"-0.015": 0.770334256717,
			"-0.014": 0.506251387966,
			"-0.013": 0.603976147134,
			"-0.012": 0.952276850812,
			"-0.011": 1.51155449863,
			"-0.01": 4.02924014787,
			"-0.009": 4.44746497227,
			"-0.008": 3.56016429695,
			"-0.007": 10.5321960054,
			"-0.006": 17.2920191419,
			"-0.005": 16.2921499365,
			"-0.004": 13.3737895074,
			"-0.003": 11.3423236548,
			"-0.002": 8.65949206055,
			"-0.001": 10.3035635688,
			"0.0": 10.2938430463,
			"0.001": 11.5925147085,
			"0.002": 13.948400415,
			"0.003": 14.4470786175,
			"0.004": 6.09635437126,
			"0.005": 3.87270094675,
			"0.006": 4.28673919341,
			"0.007": 4.41847796681,
			"0.008": 6.30852449029,
			"0.009": 7.21250646819,
			"0.01": 6.68179637673,
			"0.011": 10.7146718769,
			"0.012": 4.16767477328,
			"0.013": 0.433211025759,
			"0.014": 0.0,
			"0.015": 0.0,
			"0.016": 0.0,
			"0.017": 0.0,
			"0.018": 0.0,
			"0.019": 0.0,
			"0.02": 0.0,
			"0.021": 0.0,
			"0.022": 0.0,
			"0.023": 0.0,
			"0.024": 0.0,
			"0.025": 0.0
		}
	}
}
