{
	 "smiles": "NC(=O)NC1=CC(N)=CC=C1", 
	 "Tm": 399.15, 
	 "num_atms": 20, 
	 "gaussian": { 
		 "optdone": 1, 
		 "sigma_profile": "yes", 
		 "theory": "DFT", 
		 "functional": "B3LYP", 
		 "basiset": "6-31G**", 
		 "properties": { 
			 "R2extent": 2254.2432, 
			 "electric_dipole_moment_norm": 4.79866929471, 
			 "electric_quadrupole_moment_norm": 10.2670542601, 
			 "total_energy": -511.677625868, 
			 "HOMO_LUMO_gap": 0.2001, 
			 "cosmo_polarized_energy": -17.93, 
			 "cosmo_cavitation_energy": 24.06, 
			 "cosmo_dispersion_energy": -17.94, 
			 "cosmo_repulsion_energy": 1.47, 
			 "cosmo_total_nonelectrostatic_energy": 7.58, 
			 "SMD_solvation_energy": 5.08 
		},
		"coords": [
			{
				"x": 1.4775572682,
				"y": 0.858240746,
				"z": 0.4939555157,
				"element": "N" 
			},
			{
				"x": 1.220955221,
				"y": -0.0739800924,
				"z": 1.4833575061,
				"element": "C" 
			},
			{
				"x": 1.9606648087,
				"y": -0.2408833381,
				"z": 2.4434826532,
				"element": "O" 
			},
			{
				"x": 0.0538167893,
				"y": -0.8172804562,
				"z": 1.3516446123,
				"element": "N" 
			},
			{
				"x": -0.9660802151,
				"y": -0.7966838052,
				"z": 0.3774898986,
				"element": "C" 
			},
			{
				"x": -1.4081057495,
				"y": 0.3972418573,
				"z": -0.2079986629,
				"element": "C" 
			},
			{
				"x": -2.4420481045,
				"y": 0.3847436651,
				"z": -1.1603168007,
				"element": "C" 
			},
			{
				"x": -2.9138845577,
				"y": 1.5828816309,
				"z": -1.6929263997,
				"element": "N" 
			},
			{
				"x": -3.0432295961,
				"y": -0.8373179933,
				"z": -1.5072485006,
				"element": "C" 
			},
			{
				"x": -2.6133549812,
				"y": -2.0143755738,
				"z": -0.9003841486,
				"element": "C" 
			},
			{
				"x": -1.5782781541,
				"y": -2.0122246089,
				"z": 0.0316349043,
				"element": "C" 
			},
			{
				"x": 2.4282705668,
				"y": 1.1966867689,
				"z": 0.5278953436,
				"element": "H" 
			},
			{
				"x": 1.1014837689,
				"y": 0.6933829666,
				"z": -0.4295222059,
				"element": "H" 
			},
			{
				"x": 0.0184732859,
				"y": -1.5594504497,
				"z": 2.0359434949,
				"element": "H" 
			},
			{
				"x": -0.9847579502,
				"y": 1.3439116812,
				"z": 0.1106065373,
				"element": "H" 
			},
			{
				"x": -3.4057029163,
				"y": 1.5066038443,
				"z": -2.5717926079,
				"element": "H" 
			},
			{
				"x": -2.2655610953,
				"y": 2.3572313336,
				"z": -1.6788212368,
				"element": "H" 
			},
			{
				"x": -3.8494549714,
				"y": -0.8554229522,
				"z": -2.2354668046,
				"element": "H" 
			},
			{
				"x": -3.0852412123,
				"y": -2.9550329418,
				"z": -1.1703162334,
				"element": "H" 
			},
			{
				"x": -1.2321222051,
				"y": -2.9383722823,
				"z": 0.480283135,
				"element": "H" 
			}
		],
		 "valence_orbital": [ 
			{
				"type": "occ",
				"energy": -0.28522,
				"method": "rhf"
			},
			{
				"type": "occ",
				"energy": -0.26947,
				"method": "rhf"
			},
			{
				"type": "occ",
				"energy": -0.25226,
				"method": "rhf"
			},
			{
				"type": "occ",
				"energy": -0.22518,
				"method": "rhf"
			},
			{
				"type": "occ",
				"energy": -0.2042,
				"method": "rhf"
			},
			{
				"type": "unocc",
				"energy": -0.0041,
				"method": "rhf"
			},
			{
				"type": "unocc",
				"energy": 0.00812,
				"method": "rhf"
			},
			{
				"type": "unocc",
				"energy": 0.06766,
				"method": "rhf"
			},
			{
				"type": "unocc",
				"energy": 0.07636,
				"method": "rhf"
			},
			{
				"type": "unocc",
				"energy": 0.09354,
				"method": "rhf"
			}
		],
		"cosmo_sigma_profile": { 
			"-0.025": 0.0,
			"-0.024": 0.0,
			"-0.023": 0.0,
			"-0.022": 0.0,
			"-0.021": 0.0,
			"-0.02": 0.0,
			"-0.019": 0.0,
			"-0.018": 0.0,
			"-0.017": 0.0,
			"-0.016": 0.0,
			"-0.015": 0.0,
			"-0.014": 0.616263971549,
			"-0.013": 2.45060121439,
			"-0.012": 5.18015353357,
			"-0.011": 5.86688755003,
			"-0.01": 6.4712516775,
			"-0.009": 5.73985608788,
			"-0.008": 5.65890624851,
			"-0.007": 6.62436395771,
			"-0.006": 7.7453197273,
			"-0.005": 9.32086260414,
			"-0.004": 9.47800553362,
			"-0.003": 10.6045836434,
			"-0.002": 8.31073803762,
			"-0.001": 7.15731334695,
			"0.0": 7.83526160974,
			"0.001": 9.6322405359,
			"0.002": 9.73335908297,
			"0.003": 8.31085074293,
			"0.004": 10.8245263465,
			"0.005": 9.58929468155,
			"0.006": 11.8775684295,
			"0.007": 6.70954694656,
			"0.008": 2.56539735294,
			"0.009": 3.03569574985,
			"0.01": 2.18786632586,
			"0.011": 1.42909868267,
			"0.012": 2.19010031572,
			"0.013": 3.07030911984,
			"0.014": 7.45998514498,
			"0.015": 2.56598611933,
			"0.016": 0.0,
			"0.017": 0.0,
			"0.018": 0.0,
			"0.019": 0.0,
			"0.02": 0.0,
			"0.021": 0.0,
			"0.022": 0.0,
			"0.023": 0.0,
			"0.024": 0.0,
			"0.025": 0.0
		}
	}
}
