{
	 "smiles": "CN1C(=O)CCC1=O", 
	 "Tm": 341.65, 
	 "num_atms": 15, 
	 "gaussian": { 
		 "optdone": 1, 
		 "sigma_profile": "yes", 
		 "theory": "DFT", 
		 "functional": "B3LYP", 
		 "basiset": "6-31G**", 
		 "properties": { 
			 "R2extent": 1386.6909, 
			 "electric_dipole_moment_norm": 1.49003169094, 
			 "electric_quadrupole_moment_norm": 14.6038804388, 
			 "total_energy": -399.985204242, 
			 "HOMO_LUMO_gap": 0.23981, 
			 "cosmo_polarized_energy": -11.28, 
			 "cosmo_cavitation_energy": 18.62, 
			 "cosmo_dispersion_energy": -13.99, 
			 "cosmo_repulsion_energy": 1.18, 
			 "cosmo_total_nonelectrostatic_energy": 5.82, 
			 "SMD_solvation_energy": 4.8 
		},
		"coords": [
			{
				"x": 1.5428029186,
				"y": -0.8540334093,
				"z": 0.1292509612,
				"element": "C" 
			},
			{
				"x": 0.2675489924,
				"y": -0.9765397874,
				"z": 0.8167833242,
				"element": "N" 
			},
			{
				"x": -0.8254010651,
				"y": -0.154389257,
				"z": 0.5430578415,
				"element": "C" 
			},
			{
				"x": -0.8274961687,
				"y": 0.7362838909,
				"z": -0.2806612562,
				"element": "O" 
			},
			{
				"x": -1.9704131446,
				"y": -0.5812200908,
				"z": 1.4581756184,
				"element": "C" 
			},
			{
				"x": -1.4089356439,
				"y": -1.743074888,
				"z": 2.2925700565,
				"element": "C" 
			},
			{
				"x": 0.0293533838,
				"y": -1.9228600381,
				"z": 1.813346241,
				"element": "C" 
			},
			{
				"x": 0.8468347597,
				"y": -2.7278887042,
				"z": 2.2076461728,
				"element": "O" 
			},
			{
				"x": 1.5657765351,
				"y": -1.4848651726,
				"z": -0.7648565473,
				"element": "H" 
			},
			{
				"x": 2.3341518891,
				"y": -1.1733524532,
				"z": 0.8085009567,
				"element": "H" 
			},
			{
				"x": 1.6770832029,
				"y": 0.1867366815,
				"z": -0.167984113,
				"element": "H" 
			},
			{
				"x": -2.2784333274,
				"y": 0.279474246,
				"z": 2.0585366396,
				"element": "H" 
			},
			{
				"x": -2.8277600669,
				"y": -0.8611048027,
				"z": 0.8394503687,
				"element": "H" 
			},
			{
				"x": -1.9464126037,
				"y": -2.6847178458,
				"z": 2.1489302196,
				"element": "H" 
			},
			{
				"x": -1.3974996612,
				"y": -1.5437483693,
				"z": 3.3678535163,
				"element": "H" 
			}
		],
		 "valence_orbital": [ 
			{
				"type": "occ",
				"energy": -0.38878,
				"method": "rhf"
			},
			{
				"type": "occ",
				"energy": -0.35021,
				"method": "rhf"
			},
			{
				"type": "occ",
				"energy": -0.28591,
				"method": "rhf"
			},
			{
				"type": "occ",
				"energy": -0.27737,
				"method": "rhf"
			},
			{
				"type": "occ",
				"energy": -0.2588,
				"method": "rhf"
			},
			{
				"type": "unocc",
				"energy": -0.01899,
				"method": "rhf"
			},
			{
				"type": "unocc",
				"energy": 0.02396,
				"method": "rhf"
			},
			{
				"type": "unocc",
				"energy": 0.08331,
				"method": "rhf"
			},
			{
				"type": "unocc",
				"energy": 0.11714,
				"method": "rhf"
			},
			{
				"type": "unocc",
				"energy": 0.12984,
				"method": "rhf"
			}
		],
		"cosmo_sigma_profile": { 
			"-0.025": 0.0,
			"-0.024": 0.0,
			"-0.023": 0.0,
			"-0.022": 0.0,
			"-0.021": 0.0,
			"-0.02": 0.0,
			"-0.019": 0.0,
			"-0.018": 0.0,
			"-0.017": 0.0,
			"-0.016": 0.0,
			"-0.015": 0.0,
			"-0.014": 0.0,
			"-0.013": 0.0,
			"-0.012": 0.0,
			"-0.011": 0.0,
			"-0.01": 0.0,
			"-0.009": 0.0,
			"-0.008": 0.282224889106,
			"-0.007": 10.0935581366,
			"-0.006": 19.4465044297,
			"-0.005": 14.2730113036,
			"-0.004": 14.7998780938,
			"-0.003": 18.4684414893,
			"-0.002": 12.5313708956,
			"-0.001": 4.51004553056,
			"0.0": 2.76942010962,
			"0.001": 2.68377206434,
			"0.002": 3.3310694576,
			"0.003": 3.52356450325,
			"0.004": 2.36084616037,
			"0.005": 2.96613808824,
			"0.006": 3.14814770292,
			"0.007": 1.65761377009,
			"0.008": 3.17107424904,
			"0.009": 3.44856042027,
			"0.01": 4.36097317412,
			"0.011": 5.63734242819,
			"0.012": 10.3936786979,
			"0.013": 3.34842444064,
			"0.014": 0.076194167146,
			"0.015": 0.0,
			"0.016": 0.0,
			"0.017": 0.0,
			"0.018": 0.0,
			"0.019": 0.0,
			"0.02": 0.0,
			"0.021": 0.0,
			"0.022": 0.0,
			"0.023": 0.0,
			"0.024": 0.0,
			"0.025": 0.0
		}
	}
}
