{
	 "smiles": "OC(=O)CCC1=NC(=NO1)C1=NC=CC=C1", 
	 "Tm": 480.15, 
	 "num_atms": 25, 
	 "gaussian": { 
		 "optdone": 1, 
		 "sigma_profile": "yes", 
		 "theory": "DFT", 
		 "functional": "B3LYP", 
		 "basiset": "6-31G**", 
		 "properties": { 
			 "R2extent": 4736.2264, 
			 "electric_dipole_moment_norm": 3.42712456441, 
			 "electric_quadrupole_moment_norm": 31.8054544046, 
			 "total_energy": -776.388078946, 
			 "HOMO_LUMO_gap": 0.18807, 
			 "cosmo_polarized_energy": -20.73, 
			 "cosmo_cavitation_energy": 30.52, 
			 "cosmo_dispersion_energy": -22.27, 
			 "cosmo_repulsion_energy": 1.72, 
			 "cosmo_total_nonelectrostatic_energy": 9.97, 
			 "SMD_solvation_energy": 4.35 
		},
		"coords": [
			{
				"x": -1.3154157671,
				"y": -2.2388371623,
				"z": -2.4175192896,
				"element": "O" 
			},
			{
				"x": -2.0335499453,
				"y": -3.2643368402,
				"z": -1.9304442113,
				"element": "C" 
			},
			{
				"x": -2.5809574411,
				"y": -4.0534908523,
				"z": -2.6649290879,
				"element": "O" 
			},
			{
				"x": -2.1507015835,
				"y": -3.3732214837,
				"z": -0.4026135795,
				"element": "C" 
			},
			{
				"x": -0.8259423679,
				"y": -3.5383441459,
				"z": 0.3771151297,
				"element": "C" 
			},
			{
				"x": -0.0641509319,
				"y": -2.268459885,
				"z": 0.5723918705,
				"element": "C" 
			},
			{
				"x": -0.0538280835,
				"y": -1.2101266989,
				"z": -0.1876168454,
				"element": "N" 
			},
			{
				"x": 0.824957484,
				"y": -0.3602444575,
				"z": 0.4623377227,
				"element": "C" 
			},
			{
				"x": 1.3273768764,
				"y": -0.8650590468,
				"z": 1.5653348256,
				"element": "N" 
			},
			{
				"x": 0.7307800059,
				"y": -2.1394344599,
				"z": 1.6381274323,
				"element": "O" 
			},
			{
				"x": 1.1566667825,
				"y": 0.9854225104,
				"z": -0.045936306,
				"element": "C" 
			},
			{
				"x": 2.0187285319,
				"y": 1.7091060154,
				"z": 0.6866425153,
				"element": "N" 
			},
			{
				"x": 2.3325317293,
				"y": 2.9265787322,
				"z": 0.2432664399,
				"element": "C" 
			},
			{
				"x": 1.815373945,
				"y": 3.4811792797,
				"z": -0.9323474025,
				"element": "C" 
			},
			{
				"x": 0.9220692353,
				"y": 2.7217903818,
				"z": -1.6840020892,
				"element": "C" 
			},
			{
				"x": 0.5813203462,
				"y": 1.44634217,
				"z": -1.2365035365,
				"element": "C" 
			},
			{
				"x": -0.9129096361,
				"y": -1.7009000414,
				"z": -1.6958759807,
				"element": "H" 
			},
			{
				"x": -2.689910249,
				"y": -2.4968375939,
				"z": -0.0231041295,
				"element": "H" 
			},
			{
				"x": -2.7731113581,
				"y": -4.2496877928,
				"z": -0.2184350835,
				"element": "H" 
			},
			{
				"x": -1.0327151954,
				"y": -3.9525652889,
				"z": 1.368513282,
				"element": "H" 
			},
			{
				"x": -0.1745949534,
				"y": -4.2650766356,
				"z": -0.1259089348,
				"element": "H" 
			},
			{
				"x": 3.0329880087,
				"y": 3.490804083,
				"z": 0.8560448328,
				"element": "H" 
			},
			{
				"x": 2.1090079773,
				"y": 4.4786792422,
				"z": -1.2429566002,
				"element": "H" 
			},
			{
				"x": 0.4959276102,
				"y": 3.1111210931,
				"z": -2.6036069688,
				"element": "H" 
			},
			{
				"x": -0.1094410207,
				"y": 0.8217988772,
				"z": -1.7906740052,
				"element": "H" 
			}
		],
		 "valence_orbital": [ 
			{
				"type": "occ",
				"energy": -0.30332,
				"method": "rhf"
			},
			{
				"type": "occ",
				"energy": -0.30108,
				"method": "rhf"
			},
			{
				"type": "occ",
				"energy": -0.27391,
				"method": "rhf"
			},
			{
				"type": "occ",
				"energy": -0.27176,
				"method": "rhf"
			},
			{
				"type": "occ",
				"energy": -0.26016,
				"method": "rhf"
			},
			{
				"type": "unocc",
				"energy": -0.07209,
				"method": "rhf"
			},
			{
				"type": "unocc",
				"energy": -0.03832,
				"method": "rhf"
			},
			{
				"type": "unocc",
				"energy": -0.03147,
				"method": "rhf"
			},
			{
				"type": "unocc",
				"energy": 0.01289,
				"method": "rhf"
			},
			{
				"type": "unocc",
				"energy": 0.0439,
				"method": "rhf"
			}
		],
		"cosmo_sigma_profile": { 
			"-0.025": 0.0,
			"-0.024": 0.0,
			"-0.023": 0.0,
			"-0.022": 0.0,
			"-0.021": 0.0,
			"-0.02": 0.0,
			"-0.019": 0.0,
			"-0.018": 0.0,
			"-0.017": 0.0,
			"-0.016": 0.0,
			"-0.015": 0.0,
			"-0.014": 0.0,
			"-0.013": 0.0,
			"-0.012": 0.0,
			"-0.011": 0.0,
			"-0.01": 0.0,
			"-0.009": 3.07707754009,
			"-0.008": 10.6591518519,
			"-0.007": 22.1862814922,
			"-0.006": 23.8357661197,
			"-0.005": 18.6396068162,
			"-0.004": 14.1556114912,
			"-0.003": 13.3669098666,
			"-0.002": 13.9638319183,
			"-0.001": 12.9661561328,
			"0.0": 15.4797851093,
			"0.001": 17.436446275,
			"0.002": 10.2760478776,
			"0.003": 5.06805754779,
			"0.004": 5.33982778302,
			"0.005": 7.15892282215,
			"0.006": 6.40432102137,
			"0.007": 4.39490351125,
			"0.008": 4.41843304531,
			"0.009": 4.27862566198,
			"0.01": 6.3307499062,
			"0.011": 6.09990871449,
			"0.012": 8.99534241203,
			"0.013": 6.34853569938,
			"0.014": 2.45200677427,
			"0.015": 1.35843327467,
			"0.016": 0.50461582409,
			"0.017": 0.0,
			"0.018": 0.0,
			"0.019": 0.0,
			"0.02": 0.0,
			"0.021": 0.0,
			"0.022": 0.0,
			"0.023": 0.0,
			"0.024": 0.0,
			"0.025": 0.0
		}
	}
}
