{
	 "smiles": "OC1=CC=C(Br)C=C1C(=O)NC1=CC=C(Br)C=C1", 
	 "Tm": 515.15, 
	 "num_atms": 27, 
	 "gaussian": { 
		 "optdone": 1, 
		 "sigma_profile": "yes", 
		 "theory": "DFT", 
		 "functional": "B3LYP", 
		 "basiset": "6-31G**", 
		 "properties": { 
			 "R2extent": 13683.38, 
			 "electric_dipole_moment_norm": 2.01998477717, 
			 "electric_quadrupole_moment_norm": 4.67226217158, 
			 "total_energy": -5848.8436289, 
			 "HOMO_LUMO_gap": 0.15912, 
			 "cosmo_polarized_energy": -12.91, 
			 "cosmo_cavitation_energy": 36.45, 
			 "cosmo_dispersion_energy": -27.93, 
			 "cosmo_repulsion_energy": 2.13, 
			 "cosmo_total_nonelectrostatic_energy": 10.64, 
			 "SMD_solvation_energy": 4.32 
		},
		"coords": [
			{
				"x": -0.023498796,
				"y": 3.6428471644,
				"z": -0.9154107759,
				"element": "O" 
			},
			{
				"x": -0.6534820166,
				"y": 2.8400930595,
				"z": -1.7800260602,
				"element": "C" 
			},
			{
				"x": -1.1774017947,
				"y": 3.4215671068,
				"z": -2.9494632665,
				"element": "C" 
			},
			{
				"x": -1.866323481,
				"y": 2.6595207871,
				"z": -3.8776411534,
				"element": "C" 
			},
			{
				"x": -2.04981454,
				"y": 1.2897798501,
				"z": -3.6490875669,
				"element": "C" 
			},
			{
				"x": -3.0347611488,
				"y": 0.2428063628,
				"z": -4.908251673,
				"element": "Br" 
			},
			{
				"x": -1.5320015558,
				"y": 0.691028324,
				"z": -2.5137072797,
				"element": "C" 
			},
			{
				"x": -0.8074123616,
				"y": 1.4424512463,
				"z": -1.5674653473,
				"element": "C" 
			},
			{
				"x": -0.1953480863,
				"y": 0.8508612038,
				"z": -0.3481504013,
				"element": "C" 
			},
			{
				"x": 0.2582091623,
				"y": 1.5769657001,
				"z": 0.5563661969,
				"element": "O" 
			},
			{
				"x": -0.1357391115,
				"y": -0.5142741543,
				"z": -0.2761330861,
				"element": "N" 
			},
			{
				"x": 0.3647034627,
				"y": -1.3334945402,
				"z": 0.7594051708,
				"element": "C" 
			},
			{
				"x": 0.8430516875,
				"y": -0.8433831542,
				"z": 1.9842750666,
				"element": "C" 
			},
			{
				"x": 1.3080700843,
				"y": -1.7348396182,
				"z": 2.9505577348,
				"element": "C" 
			},
			{
				"x": 1.300162596,
				"y": -3.1057485743,
				"z": 2.7052674073,
				"element": "C" 
			},
			{
				"x": 1.9418047689,
				"y": -4.3138597512,
				"z": 4.0377533687,
				"element": "Br" 
			},
			{
				"x": 0.8274878937,
				"y": -3.6051251874,
				"z": 1.4928190243,
				"element": "C" 
			},
			{
				"x": 0.3621282912,
				"y": -2.7183834239,
				"z": 0.527730913,
				"element": "C" 
			},
			{
				"x": 0.2180753221,
				"y": 3.0778101894,
				"z": -0.1353890823,
				"element": "H" 
			},
			{
				"x": -1.0335819805,
				"y": 4.4867163867,
				"z": -3.0948420236,
				"element": "H" 
			},
			{
				"x": -2.2725875291,
				"y": 3.1196263086,
				"z": -4.7713657101,
				"element": "H" 
			},
			{
				"x": -1.7287358744,
				"y": -0.3642076418,
				"z": -2.3588767062,
				"element": "H" 
			},
			{
				"x": -0.4251258772,
				"y": -1.0167852756,
				"z": -1.1012045678,
				"element": "H" 
			},
			{
				"x": 0.8535960914,
				"y": 0.2202317091,
				"z": 2.1705326989,
				"element": "H" 
			},
			{
				"x": 1.6778148861,
				"y": -1.3546523443,
				"z": 3.8960476758,
				"element": "H" 
			},
			{
				"x": 0.8215667853,
				"y": -4.6721664262,
				"z": 1.3030558453,
				"element": "H" 
			},
			{
				"x": -0.007856878,
				"y": -3.1100853068,
				"z": -0.4170964021,
				"element": "H" 
			}
		],
		 "valence_orbital": [ 
			{
				"type": "occ",
				"energy": -0.2864,
				"method": "rhf"
			},
			{
				"type": "occ",
				"energy": -0.28136,
				"method": "rhf"
			},
			{
				"type": "occ",
				"energy": -0.27323,
				"method": "rhf"
			},
			{
				"type": "occ",
				"energy": -0.23647,
				"method": "rhf"
			},
			{
				"type": "occ",
				"energy": -0.22701,
				"method": "rhf"
			},
			{
				"type": "unocc",
				"energy": -0.06789,
				"method": "rhf"
			},
			{
				"type": "unocc",
				"energy": -0.02344,
				"method": "rhf"
			},
			{
				"type": "unocc",
				"energy": -0.01944,
				"method": "rhf"
			},
			{
				"type": "unocc",
				"energy": -0.00973,
				"method": "rhf"
			},
			{
				"type": "unocc",
				"energy": -0.00424,
				"method": "rhf"
			}
		],
		"cosmo_sigma_profile": { 
			"-0.025": 0.0,
			"-0.024": 0.0,
			"-0.023": 0.0,
			"-0.022": 0.0,
			"-0.021": 0.0,
			"-0.02": 0.0,
			"-0.019": 0.0,
			"-0.018": 0.0107072144535,
			"-0.017": 0.766878865638,
			"-0.016": 1.30648038708,
			"-0.015": 1.01493739292,
			"-0.014": 1.36546683704,
			"-0.013": 1.75751643778,
			"-0.012": 1.45373507558,
			"-0.011": 1.11824319048,
			"-0.01": 1.27703653469,
			"-0.009": 1.99922619169,
			"-0.008": 4.18927615583,
			"-0.007": 9.91967721194,
			"-0.006": 10.4652792263,
			"-0.005": 11.6196959993,
			"-0.004": 13.5261200243,
			"-0.003": 16.9239413062,
			"-0.002": 17.9559817978,
			"-0.001": 18.9459124273,
			"0.0": 23.1487656059,
			"0.001": 29.3632427724,
			"0.002": 38.8313483043,
			"0.003": 35.0059974389,
			"0.004": 27.9038675855,
			"0.005": 15.3545929835,
			"0.006": 2.09930286085,
			"0.007": 3.30128475793,
			"0.008": 4.03241152214,
			"0.009": 2.39723588317,
			"0.01": 1.82281801455,
			"0.011": 1.6647076247,
			"0.012": 0.163657362893,
			"0.013": 0.0,
			"0.014": 0.0,
			"0.015": 0.0,
			"0.016": 0.0,
			"0.017": 0.0,
			"0.018": 0.0,
			"0.019": 0.0,
			"0.02": 0.0,
			"0.021": 0.0,
			"0.022": 0.0,
			"0.023": 0.0,
			"0.024": 0.0,
			"0.025": 0.0
		}
	}
}
