{
	 "smiles": "ClCC1=NN=C(O1)C1=CC=CS1", 
	 "Tm": 351.15, 
	 "num_atms": 17, 
	 "gaussian": { 
		 "optdone": 1, 
		 "sigma_profile": "yes", 
		 "theory": "DFT", 
		 "functional": "B3LYP", 
		 "basiset": "6-31G**", 
		 "properties": { 
			 "R2extent": 3584.8306, 
			 "electric_dipole_moment_norm": 3.50410267258, 
			 "electric_quadrupole_moment_norm": 12.3048659042, 
			 "total_energy": -1312.81897138, 
			 "HOMO_LUMO_gap": 0.16963, 
			 "cosmo_polarized_energy": -11.46, 
			 "cosmo_cavitation_energy": 26.06, 
			 "cosmo_dispersion_energy": -19.79, 
			 "cosmo_repulsion_energy": 1.55, 
			 "cosmo_total_nonelectrostatic_energy": 7.81, 
			 "SMD_solvation_energy": 2.54 
		},
		"coords": [
			{
				"x": 1.3765530612,
				"y": -4.2841434654,
				"z": 0.7811319182,
				"element": "Cl" 
			},
			{
				"x": 0.4007734431,
				"y": -3.4221956194,
				"z": 2.0572270583,
				"element": "C" 
			},
			{
				"x": -0.257718887,
				"y": -2.2067245267,
				"z": 1.5350658123,
				"element": "C" 
			},
			{
				"x": -1.523200705,
				"y": -2.014505021,
				"z": 1.3297453077,
				"element": "N" 
			},
			{
				"x": -1.6571314493,
				"y": -0.7187277336,
				"z": 0.8485103467,
				"element": "N" 
			},
			{
				"x": -0.450644948,
				"y": -0.2220353601,
				"z": 0.7938085161,
				"element": "C" 
			},
			{
				"x": 0.4932547294,
				"y": -1.1117520847,
				"z": 1.2205152532,
				"element": "O" 
			},
			{
				"x": -0.0426876679,
				"y": 1.0897545591,
				"z": 0.358714727,
				"element": "C" 
			},
			{
				"x": -0.870198535,
				"y": 2.0962869009,
				"z": -0.0900634539,
				"element": "C" 
			},
			{
				"x": -0.1581285734,
				"y": 3.2725925903,
				"z": -0.4455352637,
				"element": "C" 
			},
			{
				"x": 1.1953125506,
				"y": 3.1475782311,
				"z": -0.2640044027,
				"element": "C" 
			},
			{
				"x": 1.630626011,
				"y": 1.5881980631,
				"z": 0.3450379512,
				"element": "S" 
			},
			{
				"x": 1.0961581228,
				"y": -3.1877158485,
				"z": 2.8637258376,
				"element": "H" 
			},
			{
				"x": -0.3656546123,
				"y": -4.1128722372,
				"z": 2.4038983745,
				"element": "H" 
			},
			{
				"x": -1.9447074352,
				"y": 1.9762268313,
				"z": -0.1548772729,
				"element": "H" 
			},
			{
				"x": -0.6291028156,
				"y": 4.1735370433,
				"z": -0.8204656263,
				"element": "H" 
			},
			{
				"x": 1.9664977107,
				"y": 3.8813976776,
				"z": -0.4536350833,
				"element": "H" 
			}
		],
		 "valence_orbital": [ 
			{
				"type": "occ",
				"energy": -0.31003,
				"method": "rhf"
			},
			{
				"type": "occ",
				"energy": -0.30773,
				"method": "rhf"
			},
			{
				"type": "occ",
				"energy": -0.28688,
				"method": "rhf"
			},
			{
				"type": "occ",
				"energy": -0.27193,
				"method": "rhf"
			},
			{
				"type": "occ",
				"energy": -0.23843,
				"method": "rhf"
			},
			{
				"type": "unocc",
				"energy": -0.0688,
				"method": "rhf"
			},
			{
				"type": "unocc",
				"energy": -0.02781,
				"method": "rhf"
			},
			{
				"type": "unocc",
				"energy": 0.01176,
				"method": "rhf"
			},
			{
				"type": "unocc",
				"energy": 0.02281,
				"method": "rhf"
			},
			{
				"type": "unocc",
				"energy": 0.04269,
				"method": "rhf"
			}
		],
		"cosmo_sigma_profile": { 
			"-0.025": 0.0,
			"-0.024": 0.0,
			"-0.023": 0.0,
			"-0.022": 0.0,
			"-0.021": 0.0,
			"-0.02": 0.0,
			"-0.019": 0.0,
			"-0.018": 0.0,
			"-0.017": 0.0,
			"-0.016": 0.0,
			"-0.015": 0.0,
			"-0.014": 0.0,
			"-0.013": 0.0,
			"-0.012": 0.0,
			"-0.011": 0.104932162773,
			"-0.01": 4.07434106616,
			"-0.009": 6.66055512812,
			"-0.008": 7.60724620163,
			"-0.007": 9.39233146755,
			"-0.006": 10.6133908472,
			"-0.005": 10.0497851035,
			"-0.004": 9.31164559583,
			"-0.003": 10.9933110403,
			"-0.002": 10.7414816538,
			"-0.001": 12.9663159174,
			"0.0": 15.7494526504,
			"0.001": 21.571924143,
			"0.002": 22.1642136647,
			"0.003": 18.2971365962,
			"0.004": 10.210719697,
			"0.005": 11.0228824452,
			"0.006": 4.29293560942,
			"0.007": 2.11499664196,
			"0.008": 1.84596523122,
			"0.009": 2.55435502011,
			"0.01": 2.89643736355,
			"0.011": 3.34060851768,
			"0.012": 2.5193303837,
			"0.013": 2.00543709658,
			"0.014": 1.70161090908,
			"0.015": 0.163134479946,
			"0.016": 0.0,
			"0.017": 0.0,
			"0.018": 0.0,
			"0.019": 0.0,
			"0.02": 0.0,
			"0.021": 0.0,
			"0.022": 0.0,
			"0.023": 0.0,
			"0.024": 0.0,
			"0.025": 0.0
		}
	}
}
