{
	 "smiles": "CN(C(C)=O)C1=NC(CCl)=CS1", 
	 "Tm": 413.15, 
	 "num_atms": 21, 
	 "gaussian": { 
		 "optdone": 1, 
		 "sigma_profile": "yes", 
		 "theory": "DFT", 
		 "functional": "B3LYP", 
		 "basiset": "6-31G**", 
		 "properties": { 
			 "R2extent": 3362.3738, 
			 "electric_dipole_moment_norm": 3.39946180446, 
			 "electric_quadrupole_moment_norm": 10.1894185968, 
			 "total_energy": -1315.28228051, 
			 "HOMO_LUMO_gap": 0.191, 
			 "cosmo_polarized_energy": -10.88, 
			 "cosmo_cavitation_energy": 28.08, 
			 "cosmo_dispersion_energy": -20.78, 
			 "cosmo_repulsion_energy": 1.62, 
			 "cosmo_total_nonelectrostatic_energy": 8.92, 
			 "SMD_solvation_energy": 4.78 
		},
		"coords": [
			{
				"x": -1.1381547279,
				"y": 1.5740682889,
				"z": -2.436431635,
				"element": "C" 
			},
			{
				"x": 0.0359782614,
				"y": 0.8528205241,
				"z": -1.9325010251,
				"element": "N" 
			},
			{
				"x": 1.1133848485,
				"y": 0.6676603598,
				"z": -2.8421616288,
				"element": "C" 
			},
			{
				"x": 2.3821651872,
				"y": 0.0033147635,
				"z": -2.366671955,
				"element": "C" 
			},
			{
				"x": 0.9898113008,
				"y": 1.0619195546,
				"z": -3.9893054047,
				"element": "O" 
			},
			{
				"x": 0.0136395664,
				"y": 0.4386000865,
				"z": -0.6088905625,
				"element": "C" 
			},
			{
				"x": 0.8704190668,
				"y": -0.3460493077,
				"z": -0.0233415039,
				"element": "N" 
			},
			{
				"x": 0.5528347598,
				"y": -0.5409262421,
				"z": 1.304090413,
				"element": "C" 
			},
			{
				"x": 1.4269555317,
				"y": -1.4125944825,
				"z": 2.1387969894,
				"element": "C" 
			},
			{
				"x": 2.983081184,
				"y": -0.5755302008,
				"z": 2.6283067115,
				"element": "Cl" 
			},
			{
				"x": -0.5755776957,
				"y": 0.0868916122,
				"z": 1.7456047047,
				"element": "C" 
			},
			{
				"x": -1.302146468,
				"y": 0.9953550883,
				"z": 0.4575887883,
				"element": "S" 
			},
			{
				"x": -0.9682867497,
				"y": 1.7711215933,
				"z": -3.4918804915,
				"element": "H" 
			},
			{
				"x": -2.040848878,
				"y": 0.9681507204,
				"z": -2.3131262398,
				"element": "H" 
			},
			{
				"x": -1.2650115528,
				"y": 2.5242581443,
				"z": -1.9057157362,
				"element": "H" 
			},
			{
				"x": 3.0906063726,
				"y": 0.0558647877,
				"z": -3.1934136817,
				"element": "H" 
			},
			{
				"x": 2.2012085182,
				"y": -1.0361069629,
				"z": -2.0855953292,
				"element": "H" 
			},
			{
				"x": 2.7886272965,
				"y": 0.4910311731,
				"z": -1.4781787127,
				"element": "H" 
			},
			{
				"x": 1.7371865224,
				"y": -2.2998017387,
				"z": 1.5870690732,
				"element": "H" 
			},
			{
				"x": 0.9357549375,
				"y": -1.7023842981,
				"z": 3.0667753903,
				"element": "H" 
			},
			{
				"x": -1.0155272818,
				"y": 0.068836536,
				"z": 2.7322818356,
				"element": "H" 
			}
		],
		 "valence_orbital": [ 
			{
				"type": "occ",
				"energy": -0.29683,
				"method": "rhf"
			},
			{
				"type": "occ",
				"energy": -0.28939,
				"method": "rhf"
			},
			{
				"type": "occ",
				"energy": -0.28571,
				"method": "rhf"
			},
			{
				"type": "occ",
				"energy": -0.26871,
				"method": "rhf"
			},
			{
				"type": "occ",
				"energy": -0.23091,
				"method": "rhf"
			},
			{
				"type": "unocc",
				"energy": -0.03991,
				"method": "rhf"
			},
			{
				"type": "unocc",
				"energy": -0.01069,
				"method": "rhf"
			},
			{
				"type": "unocc",
				"energy": 0.00134,
				"method": "rhf"
			},
			{
				"type": "unocc",
				"energy": 0.02999,
				"method": "rhf"
			},
			{
				"type": "unocc",
				"energy": 0.06069,
				"method": "rhf"
			}
		],
		"cosmo_sigma_profile": { 
			"-0.025": 0.0,
			"-0.024": 0.0,
			"-0.023": 0.0,
			"-0.022": 0.0,
			"-0.021": 0.0,
			"-0.02": 0.0,
			"-0.019": 0.0,
			"-0.018": 0.0,
			"-0.017": 0.0,
			"-0.016": 0.0,
			"-0.015": 0.0,
			"-0.014": 0.0,
			"-0.013": 0.0,
			"-0.012": 0.0,
			"-0.011": 0.0,
			"-0.01": 0.624786293758,
			"-0.009": 3.21190793918,
			"-0.008": 6.14882364442,
			"-0.007": 5.09427920543,
			"-0.006": 10.1290381959,
			"-0.005": 16.7048554005,
			"-0.004": 19.0097760149,
			"-0.003": 19.2403959026,
			"-0.002": 18.1217727019,
			"-0.001": 19.0080537679,
			"0.0": 14.8783559152,
			"0.001": 14.2407078662,
			"0.002": 14.6282604144,
			"0.003": 12.4017047252,
			"0.004": 8.56731527579,
			"0.005": 8.66596545346,
			"0.006": 14.1280306259,
			"0.007": 9.67784810435,
			"0.008": 1.67175656293,
			"0.009": 1.55409693407,
			"0.01": 1.75043115293,
			"0.011": 2.87140740186,
			"0.012": 3.63013003273,
			"0.013": 1.68162940401,
			"0.014": 0.134900118484,
			"0.015": 0.0,
			"0.016": 0.0,
			"0.017": 0.0,
			"0.018": 0.0,
			"0.019": 0.0,
			"0.02": 0.0,
			"0.021": 0.0,
			"0.022": 0.0,
			"0.023": 0.0,
			"0.024": 0.0,
			"0.025": 0.0
		}
	}
}
