{
	 "smiles": "C1=CN=CC=N1", 
	 "Tm": 327.15, 
	 "num_atms": 10, 
	 "gaussian": { 
		 "optdone": 1, 
		 "sigma_profile": "yes", 
		 "theory": "DFT", 
		 "functional": "B3LYP", 
		 "basiset": "6-31G**", 
		 "properties": { 
			 "R2extent": 493.7441, 
			 "electric_dipole_moment_norm": 0.0, 
			 "electric_quadrupole_moment_norm": 9.46904762212, 
			 "total_energy": -264.317012096, 
			 "HOMO_LUMO_gap": 0.19804, 
			 "cosmo_polarized_energy": -6.03, 
			 "cosmo_cavitation_energy": 14.05, 
			 "cosmo_dispersion_energy": -10.75, 
			 "cosmo_repulsion_energy": 0.92, 
			 "cosmo_total_nonelectrostatic_energy": 4.22, 
			 "SMD_solvation_energy": -0.08 
		},
		"coords": [
			{
				"x": 1.7379152132,
				"y": 0.5637029338,
				"z": -0.884100424,
				"element": "C" 
			},
			{
				"x": 1.572328805,
				"y": 0.2750264189,
				"z": 0.4726853319,
				"element": "C" 
			},
			{
				"x": 0.364424672,
				"y": 0.0929294931,
				"z": 1.0182018421,
				"element": "N" 
			},
			{
				"x": -0.6750152132,
				"y": 0.2044970662,
				"z": 0.183400424,
				"element": "C" 
			},
			{
				"x": -0.509428805,
				"y": 0.4931735811,
				"z": -1.1733853319,
				"element": "C" 
			},
			{
				"x": 0.698475328,
				"y": 0.6752705069,
				"z": -1.7189018421,
				"element": "N" 
			},
			{
				"x": 2.7304759551,
				"y": 0.7079598613,
				"z": -1.3063304515,
				"element": "H" 
			},
			{
				"x": 2.4327164856,
				"y": 0.1888495264,
				"z": 1.1334200095,
				"element": "H" 
			},
			{
				"x": -1.6675759551,
				"y": 0.0602401387,
				"z": 0.6056304515,
				"element": "H" 
			},
			{
				"x": -1.3698164856,
				"y": 0.5793504736,
				"z": -1.8341200095,
				"element": "H" 
			}
		],
		 "valence_orbital": [ 
			{
				"type": "occ",
				"energy": -0.39177,
				"method": "rhf"
			},
			{
				"type": "occ",
				"energy": -0.33137,
				"method": "rhf"
			},
			{
				"type": "occ",
				"energy": -0.31117,
				"method": "rhf"
			},
			{
				"type": "occ",
				"energy": -0.27825,
				"method": "rhf"
			},
			{
				"type": "occ",
				"energy": -0.25034,
				"method": "rhf"
			},
			{
				"type": "unocc",
				"energy": -0.0523,
				"method": "rhf"
			},
			{
				"type": "unocc",
				"energy": -0.02562,
				"method": "rhf"
			},
			{
				"type": "unocc",
				"energy": 0.11221,
				"method": "rhf"
			},
			{
				"type": "unocc",
				"energy": 0.12669,
				"method": "rhf"
			},
			{
				"type": "unocc",
				"energy": 0.1306,
				"method": "rhf"
			}
		],
		"cosmo_sigma_profile": { 
			"-0.025": 0.0,
			"-0.024": 0.0,
			"-0.023": 0.0,
			"-0.022": 0.0,
			"-0.021": 0.0,
			"-0.02": 0.0,
			"-0.019": 0.0,
			"-0.018": 0.0,
			"-0.017": 0.0,
			"-0.016": 0.0,
			"-0.015": 0.0,
			"-0.014": 0.0,
			"-0.013": 0.0,
			"-0.012": 0.0,
			"-0.011": 0.0,
			"-0.01": 0.0,
			"-0.009": 0.0,
			"-0.008": 2.6065096637,
			"-0.007": 11.1020999294,
			"-0.006": 8.45159302367,
			"-0.005": 6.79253930502,
			"-0.004": 6.2142306244,
			"-0.003": 5.6706168189,
			"-0.002": 6.84902611363,
			"-0.001": 11.8353770818,
			"0.0": 13.572341291,
			"0.001": 6.44722997718,
			"0.002": 4.73165299264,
			"0.003": 4.50692973151,
			"0.004": 2.53134341789,
			"0.005": 2.58470989792,
			"0.006": 3.40463317534,
			"0.007": 1.98765143773,
			"0.008": 1.8202757494,
			"0.009": 2.48816902034,
			"0.01": 1.51113669568,
			"0.011": 1.41651596731,
			"0.012": 2.23028026881,
			"0.013": 1.55462919109,
			"0.014": 1.89779644294,
			"0.015": 1.2698559469,
			"0.016": 0.168014900759,
			"0.017": 0.0,
			"0.018": 0.0,
			"0.019": 0.0,
			"0.02": 0.0,
			"0.021": 0.0,
			"0.022": 0.0,
			"0.023": 0.0,
			"0.024": 0.0,
			"0.025": 0.0
		}
	}
}
