{
	 "smiles": "COC1=NC(N)=NN1", 
	 "Tm": 439.15, 
	 "num_atms": 14, 
	 "gaussian": { 
		 "optdone": 1, 
		 "sigma_profile": "yes", 
		 "theory": "DFT", 
		 "functional": "B3LYP", 
		 "basiset": "6-31G**", 
		 "properties": { 
			 "R2extent": 1381.1114, 
			 "electric_dipole_moment_norm": 1.97321671896, 
			 "electric_quadrupole_moment_norm": 7.3581479205, 
			 "total_energy": -412.143431447, 
			 "HOMO_LUMO_gap": 0.24516, 
			 "cosmo_polarized_energy": -13.61, 
			 "cosmo_cavitation_energy": 18.42, 
			 "cosmo_dispersion_energy": -14.22, 
			 "cosmo_repulsion_energy": 1.22, 
			 "cosmo_total_nonelectrostatic_energy": 5.42, 
			 "SMD_solvation_energy": 1.75 
		},
		"coords": [
			{
				"x": -0.2335715038,
				"y": 1.1583136892,
				"z": 1.0584541216,
				"element": "C" 
			},
			{
				"x": 0.7937407842,
				"y": 1.009957145,
				"z": 0.0665688171,
				"element": "O" 
			},
			{
				"x": 0.4614204262,
				"y": 0.2501238275,
				"z": -0.9804560038,
				"element": "C" 
			},
			{
				"x": -0.6857535054,
				"y": -0.3583888415,
				"z": -1.2146270579,
				"element": "N" 
			},
			{
				"x": -0.4378887049,
				"y": -0.9737811551,
				"z": -2.4179345998,
				"element": "C" 
			},
			{
				"x": -1.3855616223,
				"y": -1.7890820624,
				"z": -3.0101042261,
				"element": "N" 
			},
			{
				"x": 0.7656735537,
				"y": -0.7790719842,
				"z": -2.9351619517,
				"element": "N" 
			},
			{
				"x": 1.3458777196,
				"y": 0.0238986228,
				"z": -1.9684530496,
				"element": "N" 
			},
			{
				"x": -1.1188913195,
				"y": 1.6340776283,
				"z": 0.6279771217,
				"element": "H" 
			},
			{
				"x": 0.19925387,
				"y": 1.7890526878,
				"z": 1.8350534175,
				"element": "H" 
			},
			{
				"x": -0.5168770779,
				"y": 0.1850282561,
				"z": 1.4679606222,
				"element": "H" 
			},
			{
				"x": -1.2315001031,
				"y": -1.9298054264,
				"z": -3.9992996577,
				"element": "H" 
			},
			{
				"x": -2.3342732138,
				"y": -1.5199338775,
				"z": -2.7892248258,
				"element": "H" 
			},
			{
				"x": 2.2929506969,
				"y": 0.3521114903,
				"z": -2.0623527276,
				"element": "H" 
			}
		],
		 "valence_orbital": [ 
			{
				"type": "occ",
				"energy": -0.32351,
				"method": "rhf"
			},
			{
				"type": "occ",
				"energy": -0.3154,
				"method": "rhf"
			},
			{
				"type": "occ",
				"energy": -0.26793,
				"method": "rhf"
			},
			{
				"type": "occ",
				"energy": -0.26015,
				"method": "rhf"
			},
			{
				"type": "occ",
				"energy": -0.20192,
				"method": "rhf"
			},
			{
				"type": "unocc",
				"energy": 0.04324,
				"method": "rhf"
			},
			{
				"type": "unocc",
				"energy": 0.08139,
				"method": "rhf"
			},
			{
				"type": "unocc",
				"energy": 0.09056,
				"method": "rhf"
			},
			{
				"type": "unocc",
				"energy": 0.1065,
				"method": "rhf"
			},
			{
				"type": "unocc",
				"energy": 0.10851,
				"method": "rhf"
			}
		],
		"cosmo_sigma_profile": { 
			"-0.025": 0.0,
			"-0.024": 0.0,
			"-0.023": 0.0,
			"-0.022": 0.0,
			"-0.021": 0.0,
			"-0.02": 0.0,
			"-0.019": 0.0,
			"-0.018": 0.0,
			"-0.017": 0.70055284486,
			"-0.016": 1.41559680491,
			"-0.015": 1.4057381718,
			"-0.014": 0.874163424844,
			"-0.013": 1.7414618113,
			"-0.012": 2.77884772972,
			"-0.011": 3.75052437313,
			"-0.01": 3.24119772639,
			"-0.009": 2.41431549201,
			"-0.008": 2.38766085088,
			"-0.007": 3.496439759,
			"-0.006": 7.20108711814,
			"-0.005": 8.9583333609,
			"-0.004": 10.9522541205,
			"-0.003": 9.04325476301,
			"-0.002": 5.06620563815,
			"-0.001": 8.37309301999,
			"0.0": 7.55352535618,
			"0.001": 5.83034912307,
			"0.002": 7.59241502386,
			"0.003": 4.88749314759,
			"0.004": 4.65125700955,
			"0.005": 5.51148044915,
			"0.006": 4.38872789404,
			"0.007": 6.18835891571,
			"0.008": 4.84426797365,
			"0.009": 3.47265342542,
			"0.01": 2.40010873149,
			"0.011": 3.32621337794,
			"0.012": 3.05491983493,
			"0.013": 2.92667883302,
			"0.014": 2.44055791125,
			"0.015": 1.84893815428,
			"0.016": 0.910687712957,
			"0.017": 0.18329434439,
			"0.018": 0.0,
			"0.019": 0.0,
			"0.02": 0.0,
			"0.021": 0.0,
			"0.022": 0.0,
			"0.023": 0.0,
			"0.024": 0.0,
			"0.025": 0.0
		}
	}
}
