{
	 "smiles": "CN1C(=O)C(C2=NNC(=O)C2=C/NC2=CC=CC=C2C)=C(O)C2=CC=CC=C12", 
	 "Tm": 561.15, 
	 "num_atms": 46, 
	 "gaussian": { 
		 "optdone": 1, 
		 "sigma_profile": "yes", 
		 "theory": "DFT", 
		 "functional": "B3LYP", 
		 "basiset": "6-31G**", 
		 "properties": { 
			 "R2extent": 13181.7645, 
			 "electric_dipole_moment_norm": 6.6371493203, 
			 "electric_quadrupole_moment_norm": 19.3138380225, 
			 "total_energy": -1255.77326366, 
			 "HOMO_LUMO_gap": 0.1262, 
			 "cosmo_polarized_energy": -26.84, 
			 "cosmo_cavitation_energy": 49.24, 
			 "cosmo_dispersion_energy": -34.99, 
			 "cosmo_repulsion_energy": 2.58, 
			 "cosmo_total_nonelectrostatic_energy": 16.83, 
			 "SMD_solvation_energy": 8.29 
		},
		"coords": [
			{
				"x": -0.2285385399,
				"y": 2.7538574934,
				"z": -2.0809806886,
				"element": "C" 
			},
			{
				"x": 0.6589117623,
				"y": 2.34778516,
				"z": -0.9910441346,
				"element": "N" 
			},
			{
				"x": 0.9362551254,
				"y": 0.9689049252,
				"z": -0.8753607984,
				"element": "C" 
			},
			{
				"x": 0.4075422942,
				"y": 0.1760638255,
				"z": -1.6598506182,
				"element": "O" 
			},
			{
				"x": 1.8245841523,
				"y": 0.5497803728,
				"z": 0.2078810015,
				"element": "C" 
			},
			{
				"x": 2.1641403266,
				"y": -0.8826575735,
				"z": 0.330234105,
				"element": "C" 
			},
			{
				"x": 3.4024472708,
				"y": -1.2238436839,
				"z": 0.6223351935,
				"element": "N" 
			},
			{
				"x": 3.4138271752,
				"y": -2.5932912397,
				"z": 0.7385441988,
				"element": "N" 
			},
			{
				"x": 2.1879507894,
				"y": -3.1869469583,
				"z": 0.545881558,
				"element": "C" 
			},
			{
				"x": 1.9255780507,
				"y": -4.4038843236,
				"z": 0.6001835194,
				"element": "O" 
			},
			{
				"x": 1.3130446031,
				"y": -2.0556270852,
				"z": 0.2502039371,
				"element": "C" 
			},
			{
				"x": -0.0131880803,
				"y": -2.2430174815,
				"z": -0.0784754678,
				"element": "C" 
			},
			{
				"x": -0.5594594601,
				"y": -3.4712789792,
				"z": -0.0502003947,
				"element": "N" 
			},
			{
				"x": -1.856522071,
				"y": -3.8620400313,
				"z": -0.4526812844,
				"element": "C" 
			},
			{
				"x": -1.958686269,
				"y": -5.1054327447,
				"z": -1.0974969695,
				"element": "C" 
			},
			{
				"x": -3.1910652142,
				"y": -5.5954667839,
				"z": -1.5140906399,
				"element": "C" 
			},
			{
				"x": -4.3435639213,
				"y": -4.8408754803,
				"z": -1.2915749024,
				"element": "C" 
			},
			{
				"x": -4.2424844905,
				"y": -3.6166867033,
				"z": -0.6341997031,
				"element": "C" 
			},
			{
				"x": -3.0169686666,
				"y": -3.1007618673,
				"z": -0.1898933496,
				"element": "C" 
			},
			{
				"x": -3.0034300632,
				"y": -1.7995339075,
				"z": 0.5796379927,
				"element": "C" 
			},
			{
				"x": 2.3154284621,
				"y": 1.4849819595,
				"z": 1.0890279687,
				"element": "C" 
			},
			{
				"x": 3.0588287814,
				"y": 1.0829388701,
				"z": 2.1456878319,
				"element": "O" 
			},
			{
				"x": 2.0543917491,
				"y": 2.8998482668,
				"z": 0.9095775491,
				"element": "C" 
			},
			{
				"x": 2.6342002879,
				"y": 3.8865914977,
				"z": 1.7310640041,
				"element": "C" 
			},
			{
				"x": 2.3547605509,
				"y": 5.232641218,
				"z": 1.5560785938,
				"element": "C" 
			},
			{
				"x": 1.4832924941,
				"y": 5.620682346,
				"z": 0.5311622618,
				"element": "C" 
			},
			{
				"x": 0.9169095922,
				"y": 4.6757607272,
				"z": -0.3131037407,
				"element": "C" 
			},
			{
				"x": 1.1984987134,
				"y": 3.304206919,
				"z": -0.1472877261,
				"element": "C" 
			},
			{
				"x": 0.2881292848,
				"y": 3.4324683556,
				"z": -2.766694185,
				"element": "H" 
			},
			{
				"x": -1.1210945104,
				"y": 3.2509815576,
				"z": -1.6879796342,
				"element": "H" 
			},
			{
				"x": -0.516817623,
				"y": 1.8495010367,
				"z": -2.6111623476,
				"element": "H" 
			},
			{
				"x": 4.277345309,
				"y": -3.0654543028,
				"z": 0.9549584836,
				"element": "H" 
			},
			{
				"x": -0.6248004403,
				"y": -1.4174645519,
				"z": -0.4143468803,
				"element": "H" 
			},
			{
				"x": 0.1268941693,
				"y": -4.2100016365,
				"z": 0.1663560582,
				"element": "H" 
			},
			{
				"x": -1.0511723988,
				"y": -5.6745057722,
				"z": -1.2788739561,
				"element": "H" 
			},
			{
				"x": -3.2476778343,
				"y": -6.5575745807,
				"z": -2.0142444358,
				"element": "H" 
			},
			{
				"x": -5.3137132704,
				"y": -5.2070779462,
				"z": -1.6133990904,
				"element": "H" 
			},
			{
				"x": -5.1435772708,
				"y": -3.0417393217,
				"z": -0.4354751527,
				"element": "H" 
			},
			{
				"x": -3.9886310613,
				"y": -1.6129982004,
				"z": 1.0156801182,
				"element": "H" 
			},
			{
				"x": -2.7644854484,
				"y": -0.9382578969,
				"z": -0.0559895839,
				"element": "H" 
			},
			{
				"x": -2.2732727328,
				"y": -1.816495717,
				"z": 1.3946482174,
				"element": "H" 
			},
			{
				"x": 3.0827662043,
				"y": 1.787950847,
				"z": 2.8054498966,
				"element": "H" 
			},
			{
				"x": 3.3484560595,
				"y": 3.6037443322,
				"z": 2.5001143168,
				"element": "H" 
			},
			{
				"x": 2.8162766314,
				"y": 5.9749129742,
				"z": 2.1987620283,
				"element": "H" 
			},
			{
				"x": 1.2525372308,
				"y": 6.6711960624,
				"z": 0.3819418134,
				"element": "H" 
			},
			{
				"x": 0.2575522964,
				"y": 5.0026160227,
				"z": -1.1063049639,
				"element": "H" 
			}
		],
		 "valence_orbital": [ 
			{
				"type": "occ",
				"energy": -0.24588,
				"method": "rhf"
			},
			{
				"type": "occ",
				"energy": -0.23491,
				"method": "rhf"
			},
			{
				"type": "occ",
				"energy": -0.23034,
				"method": "rhf"
			},
			{
				"type": "occ",
				"energy": -0.21193,
				"method": "rhf"
			},
			{
				"type": "occ",
				"energy": -0.18629,
				"method": "rhf"
			},
			{
				"type": "unocc",
				"energy": -0.06009,
				"method": "rhf"
			},
			{
				"type": "unocc",
				"energy": -0.0402,
				"method": "rhf"
			},
			{
				"type": "unocc",
				"energy": -0.01647,
				"method": "rhf"
			},
			{
				"type": "unocc",
				"energy": -0.00304,
				"method": "rhf"
			},
			{
				"type": "unocc",
				"energy": 0.01264,
				"method": "rhf"
			}
		],
		"cosmo_sigma_profile": { 
			"-0.025": 0.0,
			"-0.024": 0.0,
			"-0.023": 0.0,
			"-0.022": 0.0,
			"-0.021": 0.0,
			"-0.02": 0.0,
			"-0.019": 0.187708643166,
			"-0.018": 0.74302529357,
			"-0.017": 1.02988156297,
			"-0.016": 1.135486385,
			"-0.015": 2.38406319363,
			"-0.014": 1.67766291652,
			"-0.013": 1.85723213858,
			"-0.012": 2.13791878863,
			"-0.011": 2.48132936091,
			"-0.01": 1.05962797864,
			"-0.009": 2.29031812161,
			"-0.008": 2.66228938853,
			"-0.007": 8.81875431713,
			"-0.006": 22.6039998583,
			"-0.005": 29.7487641809,
			"-0.004": 30.6444491097,
			"-0.003": 25.8427067492,
			"-0.002": 28.047842047,
			"-0.001": 31.1159014913,
			"0.0": 29.9008250199,
			"0.001": 26.1072265491,
			"0.002": 26.4125023732,
			"0.003": 25.5272570349,
			"0.004": 21.7854342179,
			"0.005": 15.8294831943,
			"0.006": 7.61402474569,
			"0.007": 4.62218067725,
			"0.008": 5.60274270354,
			"0.009": 3.68146019736,
			"0.01": 4.29088233833,
			"0.011": 5.32379107623,
			"0.012": 5.5738607122,
			"0.013": 6.49877878824,
			"0.014": 4.54429283501,
			"0.015": 2.82750155612,
			"0.016": 1.35860008067,
			"0.017": 0.616443798852,
			"0.018": 0.0,
			"0.019": 0.0,
			"0.02": 0.0,
			"0.021": 0.0,
			"0.022": 0.0,
			"0.023": 0.0,
			"0.024": 0.0,
			"0.025": 0.0
		}
	}
}
