{
	 "smiles": "CC(C=CC=CC(C)=CC=CC(C)=CC=C1/C(C)=CC(=O)CC1(C)C)=C/C=C/C(/C)=C/C=C1C(C)=CC(=O)CC1(C)C", 
	 "Tm": 492.15, 
	 "num_atms": 92, 
	 "gaussian": { 
		 "optdone": 1, 
		 "sigma_profile": "yes", 
		 "theory": "DFT", 
		 "functional": "B3LYP", 
		 "basiset": "6-31G**", 
		 "properties": { 
			 "R2extent": 98369.7679, 
			 "electric_dipole_moment_norm": 7.0579599673, 
			 "electric_quadrupole_moment_norm": 85.2533970691, 
			 "total_energy": -1704.72462436, 
			 "HOMO_LUMO_gap": 0.08017, 
			 "cosmo_polarized_energy": -24.22, 
			 "cosmo_cavitation_energy": 91.44, 
			 "cosmo_dispersion_energy": -60.16, 
			 "cosmo_repulsion_energy": 4.46, 
			 "cosmo_total_nonelectrostatic_energy": 35.74, 
			 "SMD_solvation_energy": 17.01 
		},
		"coords": [
			{
				"x": 0.3327747069,
				"y": 1.5883294265,
				"z": -3.7651929649,
				"element": "C" 
			},
			{
				"x": -0.7053334236,
				"y": 1.6305613303,
				"z": -2.6699948091,
				"element": "C" 
			},
			{
				"x": -0.2979677389,
				"y": 1.396378015,
				"z": -1.300990837,
				"element": "C" 
			},
			{
				"x": 0.9429242129,
				"y": 1.0315169406,
				"z": -0.8722849788,
				"element": "C" 
			},
			{
				"x": 1.3496301304,
				"y": 0.8144346826,
				"z": 0.4979818538,
				"element": "C" 
			},
			{
				"x": 0.6711220414,
				"y": 1.1861556202,
				"z": 1.6194221242,
				"element": "C" 
			},
			{
				"x": 1.0510610541,
				"y": 0.9316751181,
				"z": 2.9991911724,
				"element": "C" 
			},
			{
				"x": 0.3927336172,
				"y": 1.8319788235,
				"z": 4.0216226872,
				"element": "C" 
			},
			{
				"x": 1.9349137648,
				"y": -0.0604071233,
				"z": 3.3359042631,
				"element": "C" 
			},
			{
				"x": 2.4352586126,
				"y": -0.3735590658,
				"z": 4.6403025507,
				"element": "C" 
			},
			{
				"x": 3.313003301,
				"y": -1.3919986623,
				"z": 4.8761829041,
				"element": "C" 
			},
			{
				"x": 3.8737058031,
				"y": -1.8088229861,
				"z": 6.1500305244,
				"element": "C" 
			},
			{
				"x": 5.1004569056,
				"y": -2.6934157337,
				"z": 6.059349112,
				"element": "C" 
			},
			{
				"x": 3.3269643098,
				"y": -1.4128402767,
				"z": 7.3451443384,
				"element": "C" 
			},
			{
				"x": 3.8380215231,
				"y": -1.756224446,
				"z": 8.6430518395,
				"element": "C" 
			},
			{
				"x": 3.4114760903,
				"y": -1.4048784621,
				"z": 9.8977432729,
				"element": "C" 
			},
			{
				"x": 2.3604746957,
				"y": -0.4151102843,
				"z": 10.1939889533,
				"element": "C" 
			},
			{
				"x": 1.9762186202,
				"y": 0.6634003745,
				"z": 9.2018681657,
				"element": "C" 
			},
			{
				"x": 1.7366871709,
				"y": -0.4005452301,
				"z": 11.4053333392,
				"element": "C" 
			},
			{
				"x": 1.9717226077,
				"y": -1.3934166899,
				"z": 12.4549588629,
				"element": "C" 
			},
			{
				"x": 1.3800090135,
				"y": -1.3607260549,
				"z": 13.5284276952,
				"element": "O" 
			},
			{
				"x": 2.971466662,
				"y": -2.4850025199,
				"z": 12.1181620915,
				"element": "C" 
			},
			{
				"x": 4.0848159339,
				"y": -2.0339654873,
				"z": 11.1402545977,
				"element": "C" 
			},
			{
				"x": 4.9523892631,
				"y": -3.2662911538,
				"z": 10.8255607141,
				"element": "C" 
			},
			{
				"x": 4.9910445572,
				"y": -0.9796687105,
				"z": 11.8271572873,
				"element": "C" 
			},
			{
				"x": -2.0288068308,
				"y": 1.9110141519,
				"z": -2.8984189549,
				"element": "C" 
			},
			{
				"x": -2.7460682414,
				"y": 2.1433398826,
				"z": -4.1307397278,
				"element": "C" 
			},
			{
				"x": -2.4432315821,
				"y": 1.7127282061,
				"z": -5.3870949523,
				"element": "C" 
			},
			{
				"x": -3.2323446537,
				"y": 1.9724784635,
				"z": -6.5813188466,
				"element": "C" 
			},
			{
				"x": -4.4276469897,
				"y": 2.8883831617,
				"z": -6.4799232636,
				"element": "C" 
			},
			{
				"x": -2.8256065111,
				"y": 1.4051913321,
				"z": -7.7538162572,
				"element": "C" 
			},
			{
				"x": -3.3936470241,
				"y": 1.5422279002,
				"z": -9.0906227056,
				"element": "C" 
			},
			{
				"x": -4.6641163574,
				"y": 1.3920469035,
				"z": -9.548637042,
				"element": "C" 
			},
			{
				"x": -5.771968201,
				"y": 0.7989424009,
				"z": -8.7602383545,
				"element": "C" 
			},
			{
				"x": -5.4949321073,
				"y": -0.2454879181,
				"z": -7.7011755442,
				"element": "C" 
			},
			{
				"x": -7.0612892055,
				"y": 1.108180485,
				"z": -9.0531228479,
				"element": "C" 
			},
			{
				"x": -7.4475386134,
				"y": 2.0575151225,
				"z": -10.1043458397,
				"element": "C" 
			},
			{
				"x": -8.6188217425,
				"y": 2.3414772284,
				"z": -10.3230033516,
				"element": "O" 
			},
			{
				"x": -6.3102988468,
				"y": 2.6740750148,
				"z": -10.9038929948,
				"element": "C" 
			},
			{
				"x": -5.0395831902,
				"y": 1.7888583439,
				"z": -10.9926372226,
				"element": "C" 
			},
			{
				"x": -3.9490804246,
				"y": 2.5987024915,
				"z": -11.7149306997,
				"element": "C" 
			},
			{
				"x": -5.3327536629,
				"y": 0.5235158826,
				"z": -11.8369636879,
				"element": "C" 
			},
			{
				"x": 0.4971601569,
				"y": 0.5678561511,
				"z": -4.1345413714,
				"element": "H" 
			},
			{
				"x": 1.295571085,
				"y": 1.9604911507,
				"z": -3.4041699668,
				"element": "H" 
			},
			{
				"x": 0.0325904634,
				"y": 2.2044397989,
				"z": -4.6153652318,
				"element": "H" 
			},
			{
				"x": -1.088996514,
				"y": 1.4955598054,
				"z": -0.5589050052,
				"element": "H" 
			},
			{
				"x": 1.7176597727,
				"y": 0.8580096386,
				"z": -1.6154291417,
				"element": "H" 
			},
			{
				"x": 2.3165731476,
				"y": 0.3302928817,
				"z": 0.621958952,
				"element": "H" 
			},
			{
				"x": -0.235416579,
				"y": 1.777146997,
				"z": 1.4912705189,
				"element": "H" 
			},
			{
				"x": -0.6830873595,
				"y": 1.9069577974,
				"z": 3.8246663101,
				"element": "H" 
			},
			{
				"x": 0.7945418701,
				"y": 2.8515402254,
				"z": 3.9641512853,
				"element": "H" 
			},
			{
				"x": 0.5153518519,
				"y": 1.4810963948,
				"z": 5.0471435515,
				"element": "H" 
			},
			{
				"x": 2.2981259014,
				"y": -0.7001863071,
				"z": 2.5332589739,
				"element": "H" 
			},
			{
				"x": 2.1153681741,
				"y": 0.2470151692,
				"z": 5.4730844093,
				"element": "H" 
			},
			{
				"x": 3.6636375261,
				"y": -1.9484964405,
				"z": 4.0066394295,
				"element": "H" 
			},
			{
				"x": 6.0193926251,
				"y": -2.0941254126,
				"z": 6.0273570929,
				"element": "H" 
			},
			{
				"x": 5.1895693612,
				"y": -3.386564378,
				"z": 6.8987428859,
				"element": "H" 
			},
			{
				"x": 5.076952718,
				"y": -3.2883768186,
				"z": 5.1412636555,
				"element": "H" 
			},
			{
				"x": 2.4172130618,
				"y": -0.8309462678,
				"z": 7.2904493439,
				"element": "H" 
			},
			{
				"x": 4.6798358121,
				"y": -2.4378155107,
				"z": 8.6161286872,
				"element": "H" 
			},
			{
				"x": 1.5419327748,
				"y": 1.5162831436,
				"z": 9.7297966134,
				"element": "H" 
			},
			{
				"x": 2.8359012241,
				"y": 1.0123819566,
				"z": 8.6241056753,
				"element": "H" 
			},
			{
				"x": 1.2192578831,
				"y": 0.3093338276,
				"z": 8.4922731227,
				"element": "H" 
			},
			{
				"x": 1.0032995238,
				"y": 0.3664334378,
				"z": 11.6405613259,
				"element": "H" 
			},
			{
				"x": 3.3966501391,
				"y": -2.8622732362,
				"z": 13.0536843506,
				"element": "H" 
			},
			{
				"x": 2.4077916193,
				"y": -3.3131783367,
				"z": 11.6642299562,
				"element": "H" 
			},
			{
				"x": 5.8408122521,
				"y": -3.0101420847,
				"z": 10.2390963815,
				"element": "H" 
			},
			{
				"x": 5.305539672,
				"y": -3.7079174889,
				"z": 11.7631203789,
				"element": "H" 
			},
			{
				"x": 4.3903082983,
				"y": -4.0342091341,
				"z": 10.2841410593,
				"element": "H" 
			},
			{
				"x": 4.433732958,
				"y": -0.0851121373,
				"z": 12.1158264889,
				"element": "H" 
			},
			{
				"x": 5.7973532895,
				"y": -0.6724728951,
				"z": 11.1532780354,
				"element": "H" 
			},
			{
				"x": 5.4456335097,
				"y": -1.400192774,
				"z": 12.7311603485,
				"element": "H" 
			},
			{
				"x": -2.6488091447,
				"y": 2.0031764009,
				"z": -2.0066748273,
				"element": "H" 
			},
			{
				"x": -3.6781491838,
				"y": 2.6912675694,
				"z": -4.0020034739,
				"element": "H" 
			},
			{
				"x": -1.5741213223,
				"y": 1.0779196395,
				"z": -5.5345016518,
				"element": "H" 
			},
			{
				"x": -5.2453856015,
				"y": 2.430694211,
				"z": -5.9094812425,
				"element": "H" 
			},
			{
				"x": -4.1550520255,
				"y": 3.8127500729,
				"z": -5.9596080636,
				"element": "H" 
			},
			{
				"x": -4.8155062976,
				"y": 3.14873286,
				"z": -7.4645903,
				"element": "H" 
			},
			{
				"x": -1.8759633851,
				"y": 0.8674336494,
				"z": -7.7244916306,
				"element": "H" 
			},
			{
				"x": -2.6437259027,
				"y": 1.8179971615,
				"z": -9.8307921045,
				"element": "H" 
			},
			{
				"x": -6.4037796765,
				"y": -0.815942576,
				"z": -7.4932905217,
				"element": "H" 
			},
			{
				"x": -4.7151736083,
				"y": -0.9375306141,
				"z": -8.0338561722,
				"element": "H" 
			},
			{
				"x": -5.1476445458,
				"y": 0.1885524047,
				"z": -6.761458037,
				"element": "H" 
			},
			{
				"x": -7.8828440768,
				"y": 0.6405832573,
				"z": -8.5165782186,
				"element": "H" 
			},
			{
				"x": -6.0504016645,
				"y": 3.6261038879,
				"z": -10.4183995411,
				"element": "H" 
			},
			{
				"x": -6.6909332024,
				"y": 2.9200739091,
				"z": -11.9005813568,
				"element": "H" 
			},
			{
				"x": -4.3267543924,
				"y": 2.9294930545,
				"z": -12.688015592,
				"element": "H" 
			},
			{
				"x": -3.6573353062,
				"y": 3.4881529202,
				"z": -11.1474628913,
				"element": "H" 
			},
			{
				"x": -3.0510028625,
				"y": 2.0019336076,
				"z": -11.9052429336,
				"element": "H" 
			},
			{
				"x": -6.127843895,
				"y": -0.0875782585,
				"z": -11.4030584023,
				"element": "H" 
			},
			{
				"x": -4.434968473,
				"y": -0.0979566165,
				"z": -11.9179802256,
				"element": "H" 
			},
			{
				"x": -5.6405009023,
				"y": 0.8066678082,
				"z": -12.8495033963,
				"element": "H" 
			}
		],
		 "valence_orbital": [ 
			{
				"type": "occ",
				"energy": -0.23404,
				"method": "rhf"
			},
			{
				"type": "occ",
				"energy": -0.22767,
				"method": "rhf"
			},
			{
				"type": "occ",
				"energy": -0.22634,
				"method": "rhf"
			},
			{
				"type": "occ",
				"energy": -0.20176,
				"method": "rhf"
			},
			{
				"type": "occ",
				"energy": -0.17624,
				"method": "rhf"
			},
			{
				"type": "unocc",
				"energy": -0.09607,
				"method": "rhf"
			},
			{
				"type": "unocc",
				"energy": -0.07641,
				"method": "rhf"
			},
			{
				"type": "unocc",
				"energy": -0.0589,
				"method": "rhf"
			},
			{
				"type": "unocc",
				"energy": -0.03824,
				"method": "rhf"
			},
			{
				"type": "unocc",
				"energy": -0.01567,
				"method": "rhf"
			}
		],
		"cosmo_sigma_profile": { 
			"-0.025": 0.0,
			"-0.024": 0.0,
			"-0.023": 0.0,
			"-0.022": 0.0,
			"-0.021": 0.0,
			"-0.02": 0.0,
			"-0.019": 0.0,
			"-0.018": 0.0,
			"-0.017": 0.0,
			"-0.016": 0.0,
			"-0.015": 0.0,
			"-0.014": 0.0,
			"-0.013": 0.0,
			"-0.012": 0.0,
			"-0.011": 0.0,
			"-0.01": 0.0,
			"-0.009": 0.0,
			"-0.008": 0.0,
			"-0.007": 1.13951402351,
			"-0.006": 9.22568996777,
			"-0.005": 43.9336909452,
			"-0.004": 72.3576384536,
			"-0.003": 84.4930930761,
			"-0.002": 82.5085629752,
			"-0.001": 82.5793010351,
			"0.0": 87.1671157143,
			"0.001": 67.8426033976,
			"0.002": 38.6414091915,
			"0.003": 32.0413968414,
			"0.004": 31.2881584455,
			"0.005": 34.0351855422,
			"0.006": 10.8728997584,
			"0.007": 3.32219732817,
			"0.008": 2.78521705741,
			"0.009": 3.07688662468,
			"0.01": 3.26286407945,
			"0.011": 3.6412037511,
			"0.012": 6.55967705084,
			"0.013": 9.03412021179,
			"0.014": 6.67126570719,
			"0.015": 1.519376295,
			"0.016": 0.0,
			"0.017": 0.0,
			"0.018": 0.0,
			"0.019": 0.0,
			"0.02": 0.0,
			"0.021": 0.0,
			"0.022": 0.0,
			"0.023": 0.0,
			"0.024": 0.0,
			"0.025": 0.0
		}
	}
}
