{
	 "smiles": "NC1=CC(F)=C(I)C(F)=C1", 
	 "Tm": 387.15, 
	 "num_atms": 14, 
	 "gaussian": { 
		 "optdone": 1, 
		 "sigma_profile": "yes", 
		 "theory": "DFT", 
		 "functional": "B3LYP", 
		 "basiset": "6-31G**", 
		 "properties": { 
			 "R2extent": 1586.9139, 
			 "electric_dipole_moment_norm": 4.39902644116, 
			 "electric_quadrupole_moment_norm": 7.82160116792, 
			 "total_energy": -496.852803767, 
			 "HOMO_LUMO_gap": 0.17893, 
			 "cosmo_polarized_energy": -9.49, 
			 "cosmo_cavitation_energy": 22.4, 
			 "cosmo_dispersion_energy": -17.89, 
			 "cosmo_repulsion_energy": 1.38, 
			 "cosmo_total_nonelectrostatic_energy": 5.89, 
			 "SMD_solvation_energy": 3.96 
		},
		"coords": [
			{
				"x": -2.3161552159,
				"y": -1.0380664867,
				"z": 0.3145328421,
				"element": "N" 
			},
			{
				"x": -1.1402464927,
				"y": -0.3214055857,
				"z": 0.1551538744,
				"element": "C" 
			},
			{
				"x": 0.0177423679,
				"y": -0.9491398445,
				"z": -0.3360543718,
				"element": "C" 
			},
			{
				"x": 1.1978183573,
				"y": -0.2277333379,
				"z": -0.4352396311,
				"element": "C" 
			},
			{
				"x": 2.2837840473,
				"y": -0.8582724436,
				"z": -0.9104527019,
				"element": "F" 
			},
			{
				"x": 1.2960760353,
				"y": 1.1160585088,
				"z": -0.0672189644,
				"element": "C" 
			},
			{
				"x": 3.0929421241,
				"y": 2.17834386,
				"z": -0.2358938561,
				"element": "I" 
			},
			{
				"x": 0.1301566081,
				"y": 1.7136418762,
				"z": 0.4169145134,
				"element": "C" 
			},
			{
				"x": 0.1594215569,
				"y": 3.0045169768,
				"z": 0.7850476036,
				"element": "F" 
			},
			{
				"x": -1.071161499,
				"y": 1.0308705549,
				"z": 0.5331050604,
				"element": "C" 
			},
			{
				"x": -2.4095790148,
				"y": -1.8742024383,
				"z": -0.2434088398,
				"element": "H" 
			},
			{
				"x": -3.1670618745,
				"y": -0.4968453733,
				"z": 0.3613442128,
				"element": "H" 
			},
			{
				"x": 0.0153862645,
				"y": -1.9916506637,
				"z": -0.6353308424,
				"element": "H" 
			},
			{
				"x": -1.9361232645,
				"y": 1.556884397,
				"z": 0.922401101,
				"element": "H" 
			}
		],
		 "valence_orbital": [ 
			{
				"type": "occ",
				"energy": -0.32923,
				"method": "rhf"
			},
			{
				"type": "occ",
				"energy": -0.27344,
				"method": "rhf"
			},
			{
				"type": "occ",
				"energy": -0.26512,
				"method": "rhf"
			},
			{
				"type": "occ",
				"energy": -0.25324,
				"method": "rhf"
			},
			{
				"type": "occ",
				"energy": -0.21584,
				"method": "rhf"
			},
			{
				"type": "unocc",
				"energy": -0.03691,
				"method": "rhf"
			},
			{
				"type": "unocc",
				"energy": -0.00681,
				"method": "rhf"
			},
			{
				"type": "unocc",
				"energy": -0.00483,
				"method": "rhf"
			},
			{
				"type": "unocc",
				"energy": 0.05078,
				"method": "rhf"
			},
			{
				"type": "unocc",
				"energy": 0.05468,
				"method": "rhf"
			}
		],
		"cosmo_sigma_profile": { 
			"-0.025": 0.0,
			"-0.024": 0.0,
			"-0.023": 0.0,
			"-0.022": 0.0,
			"-0.021": 0.0,
			"-0.02": 0.0,
			"-0.019": 0.0,
			"-0.018": 0.0,
			"-0.017": 0.0,
			"-0.016": 0.0,
			"-0.015": 0.0,
			"-0.014": 0.591445739795,
			"-0.013": 2.68876495653,
			"-0.012": 2.89029264983,
			"-0.011": 3.66264128682,
			"-0.01": 2.96782989794,
			"-0.009": 3.25478552967,
			"-0.008": 4.51751991916,
			"-0.007": 6.75425375072,
			"-0.006": 4.59235208032,
			"-0.005": 4.84567568264,
			"-0.004": 5.17484279354,
			"-0.003": 3.67179451877,
			"-0.002": 5.80110958113,
			"-0.001": 6.52644663811,
			"0.0": 14.2060627723,
			"0.001": 19.5065705719,
			"0.002": 22.2011864877,
			"0.003": 22.7646707941,
			"0.004": 32.7244825748,
			"0.005": 10.0851221279,
			"0.006": 1.16607524101,
			"0.007": 0.628542778118,
			"0.008": 0.704509977707,
			"0.009": 0.640033665878,
			"0.01": 0.461368949435,
			"0.011": 0.874623608214,
			"0.012": 0.57954070794,
			"0.013": 0.192677354997,
			"0.014": 0.0,
			"0.015": 0.0,
			"0.016": 0.0,
			"0.017": 0.0,
			"0.018": 0.0,
			"0.019": 0.0,
			"0.02": 0.0,
			"0.021": 0.0,
			"0.022": 0.0,
			"0.023": 0.0,
			"0.024": 0.0,
			"0.025": 0.0
		}
	}
}
