{
	 "smiles": "CN1C=C(C#N)C(N)=N1", 
	 "Tm": 393.15, 
	 "num_atms": 15, 
	 "gaussian": { 
		 "optdone": 1, 
		 "sigma_profile": "yes", 
		 "theory": "DFT", 
		 "functional": "B3LYP", 
		 "basiset": "6-31G**", 
		 "properties": { 
			 "R2extent": 1422.5696, 
			 "electric_dipole_moment_norm": 4.75995732544, 
			 "electric_quadrupole_moment_norm": 14.9241416125, 
			 "total_energy": -413.11943941, 
			 "HOMO_LUMO_gap": 0.20583, 
			 "cosmo_polarized_energy": -15.64, 
			 "cosmo_cavitation_energy": 20.56, 
			 "cosmo_dispersion_energy": -14.7, 
			 "cosmo_repulsion_energy": 1.23, 
			 "cosmo_total_nonelectrostatic_energy": 7.09, 
			 "SMD_solvation_energy": 4.54 
		},
		"coords": [
			{
				"x": 1.6115889492,
				"y": -0.411963038,
				"z": -1.8923344654,
				"element": "C" 
			},
			{
				"x": 0.3997320427,
				"y": -0.1903408082,
				"z": -1.1294311084,
				"element": "N" 
			},
			{
				"x": 0.2462518027,
				"y": 0.5173615513,
				"z": 0.002161551,
				"element": "C" 
			},
			{
				"x": -1.1017541933,
				"y": 0.4398559561,
				"z": 0.3485623305,
				"element": "C" 
			},
			{
				"x": -1.7609330114,
				"y": 1.0064345526,
				"z": 1.4627167878,
				"element": "C" 
			},
			{
				"x": -2.3405189901,
				"y": 1.4480617391,
				"z": 2.3726830239,
				"element": "N" 
			},
			{
				"x": -1.6833538179,
				"y": -0.3662779654,
				"z": -0.682666913,
				"element": "C" 
			},
			{
				"x": -3.0168773039,
				"y": -0.6855652611,
				"z": -0.8259090802,
				"element": "N" 
			},
			{
				"x": -0.7678936895,
				"y": -0.7481494513,
				"z": -1.5688222541,
				"element": "N" 
			},
			{
				"x": 2.4405377155,
				"y": 0.094691927,
				"z": -1.3957877199,
				"element": "H" 
			},
			{
				"x": 1.8231476605,
				"y": -1.4827285098,
				"z": -1.9547065553,
				"element": "H" 
			},
			{
				"x": 1.494360665,
				"y": -0.0146250144,
				"z": -2.9040408482,
				"element": "H" 
			},
			{
				"x": 1.0672595497,
				"y": 1.0214279659,
				"z": 0.4901835187,
				"element": "H" 
			},
			{
				"x": -3.1908175659,
				"y": -1.4692379857,
				"z": -1.4398421738,
				"element": "H" 
			},
			{
				"x": -3.5488298132,
				"y": -0.716345658,
				"z": 0.0325339065,
				"element": "H" 
			}
		],
		 "valence_orbital": [ 
			{
				"type": "occ",
				"energy": -0.33676,
				"method": "rhf"
			},
			{
				"type": "occ",
				"energy": -0.32984,
				"method": "rhf"
			},
			{
				"type": "occ",
				"energy": -0.29923,
				"method": "rhf"
			},
			{
				"type": "occ",
				"energy": -0.25321,
				"method": "rhf"
			},
			{
				"type": "occ",
				"energy": -0.21914,
				"method": "rhf"
			},
			{
				"type": "unocc",
				"energy": -0.01331,
				"method": "rhf"
			},
			{
				"type": "unocc",
				"energy": 0.03034,
				"method": "rhf"
			},
			{
				"type": "unocc",
				"energy": 0.03418,
				"method": "rhf"
			},
			{
				"type": "unocc",
				"energy": 0.08173,
				"method": "rhf"
			},
			{
				"type": "unocc",
				"energy": 0.08446,
				"method": "rhf"
			}
		],
		"cosmo_sigma_profile": { 
			"-0.025": 0.0,
			"-0.024": 0.0,
			"-0.023": 0.0,
			"-0.022": 0.0,
			"-0.021": 0.0,
			"-0.02": 0.0,
			"-0.019": 0.0,
			"-0.018": 0.0,
			"-0.017": 0.0,
			"-0.016": 0.0,
			"-0.015": 0.0,
			"-0.014": 0.281333489809,
			"-0.013": 1.95615521906,
			"-0.012": 2.76627793959,
			"-0.011": 3.19380881711,
			"-0.01": 4.76711626195,
			"-0.009": 6.02654449201,
			"-0.008": 5.07132887782,
			"-0.007": 5.62040582115,
			"-0.006": 9.34157737441,
			"-0.005": 9.41289815094,
			"-0.004": 10.9010260097,
			"-0.003": 12.0087078368,
			"-0.002": 5.84190052082,
			"-0.001": 6.59973410688,
			"0.0": 7.54083547568,
			"0.001": 10.0877955473,
			"0.002": 9.43200417438,
			"0.003": 4.54346442963,
			"0.004": 5.27169881144,
			"0.005": 4.14873839952,
			"0.006": 4.35569722824,
			"0.007": 5.51935184927,
			"0.008": 4.1858155646,
			"0.009": 4.5980421152,
			"0.01": 5.69666635271,
			"0.011": 4.71126276634,
			"0.012": 4.69269315933,
			"0.013": 3.83007603781,
			"0.014": 1.91327286438,
			"0.015": 0.606792657203,
			"0.016": 0.0380189969227,
			"0.017": 0.0,
			"0.018": 0.0,
			"0.019": 0.0,
			"0.02": 0.0,
			"0.021": 0.0,
			"0.022": 0.0,
			"0.023": 0.0,
			"0.024": 0.0,
			"0.025": 0.0
		}
	}
}
