{
	 "smiles": "CC(C)C1=C(C=CC=C1)N1C=CN=C1S", 
	 "Tm": 448.15, 
	 "num_atms": 29, 
	 "gaussian": { 
		 "optdone": 1, 
		 "sigma_profile": "yes", 
		 "theory": "DFT", 
		 "functional": "B3LYP", 
		 "basiset": "6-31G**", 
		 "properties": { 
			 "R2extent": 3713.5676, 
			 "electric_dipole_moment_norm": 3.08456964583, 
			 "electric_quadrupole_moment_norm": 6.69682153264, 
			 "total_energy": -973.401916265, 
			 "HOMO_LUMO_gap": 0.18578, 
			 "cosmo_polarized_energy": -9.47, 
			 "cosmo_cavitation_energy": 33.69, 
			 "cosmo_dispersion_energy": -22.97, 
			 "cosmo_repulsion_energy": 1.77, 
			 "cosmo_total_nonelectrostatic_energy": 12.49, 
			 "SMD_solvation_energy": 4.52 
		},
		"coords": [
			{
				"x": -0.8345990089,
				"y": -0.8336866446,
				"z": 3.2401326376,
				"element": "C" 
			},
			{
				"x": -0.7681812356,
				"y": -1.3179099328,
				"z": 1.7788246937,
				"element": "C" 
			},
			{
				"x": -0.2849058123,
				"y": -2.7788358064,
				"z": 1.696509678,
				"element": "C" 
			},
			{
				"x": 0.0946563778,
				"y": -0.3980921912,
				"z": 0.9234734378,
				"element": "C" 
			},
			{
				"x": -0.4202281184,
				"y": 0.3149944424,
				"z": -0.1755326159,
				"element": "C" 
			},
			{
				"x": 0.3935335972,
				"y": 1.1454269342,
				"z": -0.955130327,
				"element": "C" 
			},
			{
				"x": 1.7450949158,
				"y": 1.2844622479,
				"z": -0.6535989353,
				"element": "C" 
			},
			{
				"x": 2.2767948739,
				"y": 0.5905382194,
				"z": 0.4348949383,
				"element": "C" 
			},
			{
				"x": 1.4598112008,
				"y": -0.2342537698,
				"z": 1.2052656783,
				"element": "C" 
			},
			{
				"x": -1.8075863823,
				"y": 0.2136738969,
				"z": -0.5292744056,
				"element": "N" 
			},
			{
				"x": -2.8583926574,
				"y": 0.9498921637,
				"z": 0.0124128515,
				"element": "C" 
			},
			{
				"x": -3.98513443,
				"y": 0.5123458119,
				"z": -0.6287893399,
				"element": "C" 
			},
			{
				"x": -3.6773754965,
				"y": -0.4668564753,
				"z": -1.5517309118,
				"element": "N" 
			},
			{
				"x": -2.3746315459,
				"y": -0.6172108292,
				"z": -1.4651756867,
				"element": "C" 
			},
			{
				"x": -1.389811672,
				"y": -1.7478546769,
				"z": -2.4151729358,
				"element": "S" 
			},
			{
				"x": 0.1514083374,
				"y": -0.8550579557,
				"z": 3.7171239489,
				"element": "H" 
			},
			{
				"x": -1.4997485169,
				"y": -1.4784089856,
				"z": 3.8241989648,
				"element": "H" 
			},
			{
				"x": -1.2142246073,
				"y": 0.1909994001,
				"z": 3.3039975674,
				"element": "H" 
			},
			{
				"x": -1.7855933271,
				"y": -1.2867557817,
				"z": 1.3782404595,
				"element": "H" 
			},
			{
				"x": -0.2756625325,
				"y": -3.1334217748,
				"z": 0.6616883336,
				"element": "H" 
			},
			{
				"x": 0.7266351591,
				"y": -2.8912300725,
				"z": 2.1022065952,
				"element": "H" 
			},
			{
				"x": -0.9487565829,
				"y": -3.430689689,
				"z": 2.2743188791,
				"element": "H" 
			},
			{
				"x": -0.0501072316,
				"y": 1.6744621762,
				"z": -1.7926028216,
				"element": "H" 
			},
			{
				"x": 2.3746991671,
				"y": 1.9282880184,
				"z": -1.2598378955,
				"element": "H" 
			},
			{
				"x": 3.3294195334,
				"y": 0.6904669252,
				"z": 0.6836590977,
				"element": "H" 
			},
			{
				"x": 1.8914098504,
				"y": -0.7689751628,
				"z": 2.0465383612,
				"element": "H" 
			},
			{
				"x": -2.6832418562,
				"y": 1.6934283667,
				"z": 0.7740560125,
				"element": "H" 
			},
			{
				"x": -5.0041756674,
				"y": 0.8444741497,
				"z": -0.4863905989,
				"element": "H" 
			},
			{
				"x": -2.4695063316,
				"y": -2.2635130044,
				"z": -3.0311056613,
				"element": "H" 
			}
		],
		 "valence_orbital": [ 
			{
				"type": "occ",
				"energy": -0.27776,
				"method": "rhf"
			},
			{
				"type": "occ",
				"energy": -0.27004,
				"method": "rhf"
			},
			{
				"type": "occ",
				"energy": -0.25742,
				"method": "rhf"
			},
			{
				"type": "occ",
				"energy": -0.25202,
				"method": "rhf"
			},
			{
				"type": "occ",
				"energy": -0.20566,
				"method": "rhf"
			},
			{
				"type": "unocc",
				"energy": -0.01988,
				"method": "rhf"
			},
			{
				"type": "unocc",
				"energy": -0.01486,
				"method": "rhf"
			},
			{
				"type": "unocc",
				"energy": 0.02323,
				"method": "rhf"
			},
			{
				"type": "unocc",
				"energy": 0.03023,
				"method": "rhf"
			},
			{
				"type": "unocc",
				"energy": 0.07075,
				"method": "rhf"
			}
		],
		"cosmo_sigma_profile": { 
			"-0.025": 0.0,
			"-0.024": 0.0,
			"-0.023": 0.0,
			"-0.022": 0.0,
			"-0.021": 0.0,
			"-0.02": 0.0,
			"-0.019": 0.0,
			"-0.018": 0.0,
			"-0.017": 0.0,
			"-0.016": 0.0,
			"-0.015": 0.0,
			"-0.014": 0.0,
			"-0.013": 0.0,
			"-0.012": 0.184479235701,
			"-0.011": 1.53833025937,
			"-0.01": 1.16949616913,
			"-0.009": 1.55282339373,
			"-0.008": 3.04271796366,
			"-0.007": 4.32601464559,
			"-0.006": 10.7331015769,
			"-0.005": 15.4063288346,
			"-0.004": 16.7366444112,
			"-0.003": 20.9367178856,
			"-0.002": 23.5348253153,
			"-0.001": 25.9265311313,
			"0.0": 26.62698004,
			"0.001": 29.8634820584,
			"0.002": 20.4768013085,
			"0.003": 18.7561133954,
			"0.004": 17.0487674511,
			"0.005": 12.2158244759,
			"0.006": 5.03118134536,
			"0.007": 3.08583321509,
			"0.008": 2.23471192296,
			"0.009": 1.60475825333,
			"0.01": 0.838735987687,
			"0.011": 1.16334575059,
			"0.012": 1.18402622197,
			"0.013": 0.94496208194,
			"0.014": 1.15721232058,
			"0.015": 0.919600443688,
			"0.016": 1.01489688153,
			"0.017": 0.484727146347,
			"0.018": 0.00459100855234,
			"0.019": 0.0,
			"0.02": 0.0,
			"0.021": 0.0,
			"0.022": 0.0,
			"0.023": 0.0,
			"0.024": 0.0,
			"0.025": 0.0
		}
	}
}
