{
	 "smiles": "NC1=CC(=NN1)C1=C(F)C(F)=CC=C1", 
	 "Tm": 391.15, 
	 "num_atms": 21, 
	 "gaussian": { 
		 "optdone": 1, 
		 "sigma_profile": "yes", 
		 "theory": "DFT", 
		 "functional": "B3LYP", 
		 "basiset": "6-31G**", 
		 "properties": { 
			 "R2extent": 3411.0633, 
			 "electric_dipole_moment_norm": 5.01897169747, 
			 "electric_quadrupole_moment_norm": 16.230386399, 
			 "total_energy": -711.070320356, 
			 "HOMO_LUMO_gap": 0.19069, 
			 "cosmo_polarized_energy": -16.99, 
			 "cosmo_cavitation_energy": 26.81, 
			 "cosmo_dispersion_energy": -19.74, 
			 "cosmo_repulsion_energy": 1.52, 
			 "cosmo_total_nonelectrostatic_energy": 8.59, 
			 "SMD_solvation_energy": 4.64 
		},
		"coords": [
			{
				"x": 1.306032523,
				"y": 1.7767504318,
				"z": 3.2442469017,
				"element": "N" 
			},
			{
				"x": 0.9872690664,
				"y": 1.3132068725,
				"z": 1.9647429322,
				"element": "C" 
			},
			{
				"x": 0.8287622277,
				"y": 0.0444692502,
				"z": 1.43876561,
				"element": "C" 
			},
			{
				"x": 0.5776004275,
				"y": 0.2529252754,
				"z": 0.051373776,
				"element": "C" 
			},
			{
				"x": 0.5750571949,
				"y": 1.5518708455,
				"z": -0.2576568266,
				"element": "N" 
			},
			{
				"x": 0.8332975901,
				"y": 2.1730439064,
				"z": 0.9200221436,
				"element": "N" 
			},
			{
				"x": 0.3495935005,
				"y": -0.7915443296,
				"z": -0.9607431031,
				"element": "C" 
			},
			{
				"x": -0.4031983299,
				"y": -0.5664813394,
				"z": -2.1208152065,
				"element": "C" 
			},
			{
				"x": -0.9661573615,
				"y": 0.6234846058,
				"z": -2.3731047025,
				"element": "F" 
			},
			{
				"x": -0.6078839879,
				"y": -1.5872103169,
				"z": -3.0496102422,
				"element": "C" 
			},
			{
				"x": -1.3423808642,
				"y": -1.315229869,
				"z": -4.1441632776,
				"element": "F" 
			},
			{
				"x": -0.0818004262,
				"y": -2.8560226862,
				"z": -2.858350867,
				"element": "C" 
			},
			{
				"x": 0.6681041654,
				"y": -3.0989850386,
				"z": -1.705315248,
				"element": "C" 
			},
			{
				"x": 0.8783683076,
				"y": -2.083568173,
				"z": -0.7770766809,
				"element": "C" 
			},
			{
				"x": 1.3831918095,
				"y": 1.0188680411,
				"z": 3.9105500871,
				"element": "H" 
			},
			{
				"x": 0.6557456928,
				"y": 2.4714244543,
				"z": 3.5972944916,
				"element": "H" 
			},
			{
				"x": 0.8393579535,
				"y": -0.8876674673,
				"z": 1.982930646,
				"element": "H" 
			},
			{
				"x": 0.9583325979,
				"y": 3.1732270026,
				"z": 0.9299594035,
				"element": "H" 
			},
			{
				"x": -0.262197847,
				"y": -3.6213132635,
				"z": -3.605224206,
				"element": "H" 
			},
			{
				"x": 1.0949230461,
				"y": -4.0828145921,
				"z": -1.5385636687,
				"element": "H" 
			},
			{
				"x": 1.4816827137,
				"y": -2.2759336099,
				"z": 0.1037380377,
				"element": "H" 
			}
		],
		 "valence_orbital": [ 
			{
				"type": "occ",
				"energy": -0.28244,
				"method": "rhf"
			},
			{
				"type": "occ",
				"energy": -0.2801,
				"method": "rhf"
			},
			{
				"type": "occ",
				"energy": -0.23605,
				"method": "rhf"
			},
			{
				"type": "occ",
				"energy": -0.22911,
				"method": "rhf"
			},
			{
				"type": "occ",
				"energy": -0.21097,
				"method": "rhf"
			},
			{
				"type": "unocc",
				"energy": -0.02028,
				"method": "rhf"
			},
			{
				"type": "unocc",
				"energy": 0.00582,
				"method": "rhf"
			},
			{
				"type": "unocc",
				"energy": 0.0385,
				"method": "rhf"
			},
			{
				"type": "unocc",
				"energy": 0.06211,
				"method": "rhf"
			},
			{
				"type": "unocc",
				"energy": 0.08118,
				"method": "rhf"
			}
		],
		"cosmo_sigma_profile": { 
			"-0.025": 0.0,
			"-0.024": 0.0,
			"-0.023": 0.0,
			"-0.022": 0.0,
			"-0.021": 0.0,
			"-0.02": 0.0,
			"-0.019": 0.0,
			"-0.018": 0.0,
			"-0.017": 0.0483371022146,
			"-0.016": 1.20884241111,
			"-0.015": 1.17556625978,
			"-0.014": 1.25752162273,
			"-0.013": 4.52990349581,
			"-0.012": 4.12793775339,
			"-0.011": 3.93441634521,
			"-0.01": 3.87209423592,
			"-0.009": 3.4299012096,
			"-0.008": 3.04684170998,
			"-0.007": 5.58233141389,
			"-0.006": 11.1584383782,
			"-0.005": 10.0133553652,
			"-0.004": 8.33257231955,
			"-0.003": 6.78605476823,
			"-0.002": 6.67711519322,
			"-0.001": 9.37059046478,
			"0.0": 13.065420531,
			"0.001": 14.9712315321,
			"0.002": 15.5263321887,
			"0.003": 20.1891003132,
			"0.004": 28.9380843709,
			"0.005": 10.9372458998,
			"0.006": 6.27496892655,
			"0.007": 2.97039467457,
			"0.008": 3.25232964612,
			"0.009": 2.41035107906,
			"0.01": 2.34614800455,
			"0.011": 2.03802923546,
			"0.012": 1.41144400273,
			"0.013": 2.66179078228,
			"0.014": 1.55583908331,
			"0.015": 1.23983667427,
			"0.016": 0.658142573647,
			"0.017": 0.0,
			"0.018": 0.0,
			"0.019": 0.0,
			"0.02": 0.0,
			"0.021": 0.0,
			"0.022": 0.0,
			"0.023": 0.0,
			"0.024": 0.0,
			"0.025": 0.0
		}
	}
}
