{
	 "smiles": "ClC1=NS(=O)(=O)C2=C1C=CC=C2", 
	 "Tm": 395.15, 
	 "num_atms": 16, 
	 "gaussian": { 
		 "optdone": 1, 
		 "sigma_profile": "yes", 
		 "theory": "DFT", 
		 "functional": "B3LYP", 
		 "basiset": "6-31G**", 
		 "properties": { 
			 "R2extent": 3257.9274, 
			 "electric_dipole_moment_norm": 6.94444750286, 
			 "electric_quadrupole_moment_norm": 17.9827093865, 
			 "total_energy": -1332.64100602, 
			 "HOMO_LUMO_gap": 0.18745, 
			 "cosmo_polarized_energy": -14.51, 
			 "cosmo_cavitation_energy": 24.09, 
			 "cosmo_dispersion_energy": -18.67, 
			 "cosmo_repulsion_energy": 1.43, 
			 "cosmo_total_nonelectrostatic_energy": 6.84, 
			 "SMD_solvation_energy": 1.98 
		},
		"coords": [
			{
				"x": 3.1894589255,
				"y": 0.3459493623,
				"z": 1.9761404221,
				"element": "Cl" 
			},
			{
				"x": 1.6165268911,
				"y": -0.1938388631,
				"z": 1.4636609902,
				"element": "C" 
			},
			{
				"x": 0.6055547543,
				"y": 0.5790121273,
				"z": 1.5634583497,
				"element": "N" 
			},
			{
				"x": -0.7944311219,
				"y": -0.2679263833,
				"z": 0.968357466,
				"element": "S" 
			},
			{
				"x": -1.2503909404,
				"y": 0.3973792914,
				"z": -0.2475383604,
				"element": "O" 
			},
			{
				"x": -1.7029594104,
				"y": -0.4953725241,
				"z": 2.0871899142,
				"element": "O" 
			},
			{
				"x": 0.1206095405,
				"y": -1.7690295538,
				"z": 0.5717962031,
				"element": "C" 
			},
			{
				"x": 1.458237902,
				"y": -1.5583362284,
				"z": 0.9116354449,
				"element": "C" 
			},
			{
				"x": 2.4013089189,
				"y": -2.5629945523,
				"z": 0.710617215,
				"element": "C" 
			},
			{
				"x": 1.9655497226,
				"y": -3.7739771778,
				"z": 0.1632742775,
				"element": "C" 
			},
			{
				"x": 0.621833192,
				"y": -3.9711392049,
				"z": -0.1726685719,
				"element": "C" 
			},
			{
				"x": -0.3281209036,
				"y": -2.9604410111,
				"z": 0.0294115857,
				"element": "C" 
			},
			{
				"x": 3.4421705701,
				"y": -2.4062918034,
				"z": 0.9723172593,
				"element": "H" 
			},
			{
				"x": 2.6812671006,
				"y": -4.572657476,
				"z": -0.0031893381,
				"element": "H" 
			},
			{
				"x": 0.3085128826,
				"y": -4.9202703844,
				"z": -0.5961587709,
				"element": "H" 
			},
			{
				"x": -1.371128024,
				"y": -3.1085656184,
				"z": -0.2294040864,
				"element": "H" 
			}
		],
		 "valence_orbital": [ 
			{
				"type": "occ",
				"energy": -0.33721,
				"method": "rhf"
			},
			{
				"type": "occ",
				"energy": -0.31529,
				"method": "rhf"
			},
			{
				"type": "occ",
				"energy": -0.31052,
				"method": "rhf"
			},
			{
				"type": "occ",
				"energy": -0.29563,
				"method": "rhf"
			},
			{
				"type": "occ",
				"energy": -0.2886,
				"method": "rhf"
			},
			{
				"type": "unocc",
				"energy": -0.10115,
				"method": "rhf"
			},
			{
				"type": "unocc",
				"energy": -0.05723,
				"method": "rhf"
			},
			{
				"type": "unocc",
				"energy": -0.00856,
				"method": "rhf"
			},
			{
				"type": "unocc",
				"energy": -0.00174,
				"method": "rhf"
			},
			{
				"type": "unocc",
				"energy": 0.03733,
				"method": "rhf"
			}
		],
		"cosmo_sigma_profile": { 
			"-0.025": 0.0,
			"-0.024": 0.0,
			"-0.023": 0.0,
			"-0.022": 0.0,
			"-0.021": 0.0,
			"-0.02": 0.0,
			"-0.019": 0.0,
			"-0.018": 0.0,
			"-0.017": 0.0,
			"-0.016": 0.0,
			"-0.015": 0.0,
			"-0.014": 0.0,
			"-0.013": 0.0,
			"-0.012": 0.0,
			"-0.011": 0.0393574896992,
			"-0.01": 1.46419062845,
			"-0.009": 3.57073563112,
			"-0.008": 9.25437773981,
			"-0.007": 11.268673874,
			"-0.006": 9.76481829464,
			"-0.005": 12.0298004212,
			"-0.004": 12.2881274995,
			"-0.003": 9.79653823085,
			"-0.002": 13.476018391,
			"-0.001": 15.6102804125,
			"0.0": 19.7103304407,
			"0.001": 16.8080444079,
			"0.002": 8.55269693931,
			"0.003": 5.09389483642,
			"0.004": 3.97480836794,
			"0.005": 4.52659059275,
			"0.006": 5.06348727743,
			"0.007": 4.23767144087,
			"0.008": 6.076941478,
			"0.009": 13.1690859285,
			"0.01": 11.2033470199,
			"0.011": 0.831503858467,
			"0.012": 0.0280566727459,
			"0.013": 0.0,
			"0.014": 0.0,
			"0.015": 0.0,
			"0.016": 0.0,
			"0.017": 0.0,
			"0.018": 0.0,
			"0.019": 0.0,
			"0.02": 0.0,
			"0.021": 0.0,
			"0.022": 0.0,
			"0.023": 0.0,
			"0.024": 0.0,
			"0.025": 0.0
		}
	}
}
