{
	 "smiles": "ClCC(Cl)C(Cl)=C(/Cl)C(Cl)CCl", 
	 "Tm": 331.65, 
	 "num_atms": 18, 
	 "gaussian": { 
		 "optdone": 1, 
		 "sigma_profile": "yes", 
		 "theory": "DFT", 
		 "functional": "B3LYP", 
		 "basiset": "6-31G**", 
		 "properties": { 
			 "R2extent": 5924.6786, 
			 "electric_dipole_moment_norm": 2.36654906562, 
			 "electric_quadrupole_moment_norm": 17.6170278208, 
			 "total_energy": -2993.37724032, 
			 "HOMO_LUMO_gap": 0.20203, 
			 "cosmo_polarized_energy": -11.84, 
			 "cosmo_cavitation_energy": 31.64, 
			 "cosmo_dispersion_energy": -22.58, 
			 "cosmo_repulsion_energy": 1.84, 
			 "cosmo_total_nonelectrostatic_energy": 10.9, 
			 "SMD_solvation_energy": 3.51 
		},
		"coords": [
			{
				"x": 2.4138895736,
				"y": -0.8981428589,
				"z": -4.6709843434,
				"element": "Cl" 
			},
			{
				"x": 1.6923399536,
				"y": -1.180370244,
				"z": -3.0424510173,
				"element": "C" 
			},
			{
				"x": 1.7842050746,
				"y": 0.0644193961,
				"z": -2.1551842424,
				"element": "C" 
			},
			{
				"x": 0.7241404783,
				"y": 1.4127480667,
				"z": -2.7634853049,
				"element": "Cl" 
			},
			{
				"x": 1.5213402813,
				"y": -0.2392227415,
				"z": -0.6882331433,
				"element": "C" 
			},
			{
				"x": 2.9415192606,
				"y": 0.0516655459,
				"z": 0.3058380727,
				"element": "Cl" 
			},
			{
				"x": 0.3887953388,
				"y": -0.6796056191,
				"z": -0.1095809226,
				"element": "C" 
			},
			{
				"x": -1.0250616225,
				"y": -0.9909200147,
				"z": -1.106508992,
				"element": "Cl" 
			},
			{
				"x": 0.1217119639,
				"y": -0.9695473497,
				"z": 1.3593790242,
				"element": "C" 
			},
			{
				"x": 0.2877333462,
				"y": 0.5269601213,
				"z": 2.3814749677,
				"element": "Cl" 
			},
			{
				"x": 0.9686299462,
				"y": -2.1265761844,
				"z": 1.8971655228,
				"element": "C" 
			},
			{
				"x": 0.3490128661,
				"y": -2.7330136782,
				"z": 3.4785307533,
				"element": "Cl" 
			},
			{
				"x": 2.265974392,
				"y": -1.9863978551,
				"z": -2.5797409849,
				"element": "H" 
			},
			{
				"x": 0.664299127,
				"y": -1.5005717777,
				"z": -3.1929928919,
				"element": "H" 
			},
			{
				"x": 2.7939809897,
				"y": 0.4634247145,
				"z": -2.2304453387,
				"element": "H" 
			},
			{
				"x": -0.9277188807,
				"y": -1.2423689037,
				"z": 1.4530817227,
				"element": "H" 
			},
			{
				"x": 0.9108920327,
				"y": -2.9616869645,
				"z": 1.1956739052,
				"element": "H" 
			},
			{
				"x": 2.0073158785,
				"y": -1.8401936533,
				"z": 2.0427632127,
				"element": "H" 
			}
		],
		 "valence_orbital": [ 
			{
				"type": "occ",
				"energy": -0.3139,
				"method": "rhf"
			},
			{
				"type": "occ",
				"energy": -0.3109,
				"method": "rhf"
			},
			{
				"type": "occ",
				"energy": -0.30889,
				"method": "rhf"
			},
			{
				"type": "occ",
				"energy": -0.30676,
				"method": "rhf"
			},
			{
				"type": "occ",
				"energy": -0.2798,
				"method": "rhf"
			},
			{
				"type": "unocc",
				"energy": -0.07777,
				"method": "rhf"
			},
			{
				"type": "unocc",
				"energy": -0.03759,
				"method": "rhf"
			},
			{
				"type": "unocc",
				"energy": -0.01443,
				"method": "rhf"
			},
			{
				"type": "unocc",
				"energy": -0.00055,
				"method": "rhf"
			},
			{
				"type": "unocc",
				"energy": 0.01304,
				"method": "rhf"
			}
		],
		"cosmo_sigma_profile": { 
			"-0.025": 0.0,
			"-0.024": 0.0,
			"-0.023": 0.0,
			"-0.022": 0.0,
			"-0.021": 0.0,
			"-0.02": 0.0,
			"-0.019": 0.0,
			"-0.018": 0.0,
			"-0.017": 0.0,
			"-0.016": 0.0,
			"-0.015": 0.0,
			"-0.014": 0.0,
			"-0.013": 0.0,
			"-0.012": 0.0,
			"-0.011": 0.0,
			"-0.01": 1.11861867053,
			"-0.009": 9.52038316054,
			"-0.008": 10.3809071295,
			"-0.007": 8.95750993647,
			"-0.006": 12.3583774398,
			"-0.005": 11.3675151215,
			"-0.004": 11.549875367,
			"-0.003": 11.246315524,
			"-0.002": 13.9683904168,
			"-0.001": 16.379319899,
			"0.0": 18.8633009844,
			"0.001": 20.0239346177,
			"0.002": 23.3706719477,
			"0.003": 20.243204458,
			"0.004": 24.1429106656,
			"0.005": 34.4557002537,
			"0.006": 14.9277575376,
			"0.007": 1.39664196103,
			"0.008": 0.0,
			"0.009": 0.0,
			"0.01": 0.0,
			"0.011": 0.0,
			"0.012": 0.0,
			"0.013": 0.0,
			"0.014": 0.0,
			"0.015": 0.0,
			"0.016": 0.0,
			"0.017": 0.0,
			"0.018": 0.0,
			"0.019": 0.0,
			"0.02": 0.0,
			"0.021": 0.0,
			"0.022": 0.0,
			"0.023": 0.0,
			"0.024": 0.0,
			"0.025": 0.0
		}
	}
}
