{
	 "smiles": "CC(=O)OC[C@@H](OC(C)=O)[C@@H](OC(C)=O)[C@H](OC(C)=O)[C@@H](OC(C)=O)C(N)=O", 
	 "Tm": 461.15, 
	 "num_atms": 51, 
	 "gaussian": { 
		 "optdone": 1, 
		 "sigma_profile": "yes", 
		 "theory": "DFT", 
		 "functional": "B3LYP", 
		 "basiset": "6-31G**", 
		 "properties": { 
			 "R2extent": 10749.3068, 
			 "electric_dipole_moment_norm": 5.86351226144, 
			 "electric_quadrupole_moment_norm": 19.2768265189, 
			 "total_energy": -1505.84282859, 
			 "HOMO_LUMO_gap": 0.23028, 
			 "cosmo_polarized_energy": -27.98, 
			 "cosmo_cavitation_energy": 53.41, 
			 "cosmo_dispersion_energy": -33.07, 
			 "cosmo_repulsion_energy": 2.55, 
			 "cosmo_total_nonelectrostatic_energy": 22.9, 
			 "SMD_solvation_energy": 14.15 
		},
		"coords": [
			{
				"x": -0.4843957206,
				"y": 3.5957580234,
				"z": 1.9195290209,
				"element": "C" 
			},
			{
				"x": 0.1760601852,
				"y": 2.632864579,
				"z": 0.9653772019,
				"element": "C" 
			},
			{
				"x": 0.9463586475,
				"y": 1.7464926136,
				"z": 1.2908285399,
				"element": "O" 
			},
			{
				"x": -0.1977575642,
				"y": 2.8843715934,
				"z": -0.3031125433,
				"element": "O" 
			},
			{
				"x": 0.4065430899,
				"y": 2.1340186441,
				"z": -1.382492144,
				"element": "C" 
			},
			{
				"x": -0.5446267654,
				"y": 1.0441278987,
				"z": -1.9120492914,
				"element": "C" 
			},
			{
				"x": -0.0051686982,
				"y": 0.575957738,
				"z": -3.1561135772,
				"element": "O" 
			},
			{
				"x": -0.4159335162,
				"y": 1.244305853,
				"z": -4.273605091,
				"element": "C" 
			},
			{
				"x": -0.0831469155,
				"y": 0.4568263273,
				"z": -5.5117014843,
				"element": "C" 
			},
			{
				"x": -0.9732216501,
				"y": 2.3169835602,
				"z": -4.2368898406,
				"element": "O" 
			},
			{
				"x": -0.7336076029,
				"y": -0.1208774955,
				"z": -0.9266048572,
				"element": "C" 
			},
			{
				"x": -1.8135320772,
				"y": -1.0431028923,
				"z": -1.1515572364,
				"element": "O" 
			},
			{
				"x": -2.5518918765,
				"y": -1.1891043189,
				"z": -2.2822832751,
				"element": "C" 
			},
			{
				"x": -3.3239500339,
				"y": -2.4813086584,
				"z": -2.2069918124,
				"element": "C" 
			},
			{
				"x": -2.5963677044,
				"y": -0.3999623229,
				"z": -3.1984219244,
				"element": "O" 
			},
			{
				"x": 0.547797219,
				"y": -0.90170738,
				"z": -0.5510117765,
				"element": "C" 
			},
			{
				"x": 1.4521876834,
				"y": -1.2598025369,
				"z": -1.6183552639,
				"element": "O" 
			},
			{
				"x": 1.0801908696,
				"y": -2.1321869507,
				"z": -2.5946820406,
				"element": "C" 
			},
			{
				"x": 2.2689415813,
				"y": -2.4912772645,
				"z": -3.448999885,
				"element": "C" 
			},
			{
				"x": -0.0368918469,
				"y": -2.5720728346,
				"z": -2.734764597,
				"element": "O" 
			},
			{
				"x": 0.3002733405,
				"y": -2.1264107305,
				"z": 0.3534454509,
				"element": "C" 
			},
			{
				"x": 1.5660557102,
				"y": -2.4425460627,
				"z": 0.9921365349,
				"element": "O" 
			},
			{
				"x": 2.3051729586,
				"y": -3.4671510157,
				"z": 0.490925138,
				"element": "C" 
			},
			{
				"x": 3.5468819664,
				"y": -3.668070412,
				"z": 1.3253743763,
				"element": "C" 
			},
			{
				"x": 1.999948126,
				"y": -4.1181560391,
				"z": -0.4825353759,
				"element": "O" 
			},
			{
				"x": -0.694872454,
				"y": -1.9286111706,
				"z": 1.5149157558,
				"element": "C" 
			},
			{
				"x": -0.4729827754,
				"y": -0.8385517767,
				"z": 2.3055830764,
				"element": "N" 
			},
			{
				"x": -1.5987612455,
				"y": -2.723687365,
				"z": 1.7124058149,
				"element": "O" 
			},
			{
				"x": -0.2291878505,
				"y": 3.3297798912,
				"z": 2.9446316682,
				"element": "H" 
			},
			{
				"x": -1.5688874858,
				"y": 3.5789161203,
				"z": 1.7809367466,
				"element": "H" 
			},
			{
				"x": -0.1461145476,
				"y": 4.6142543057,
				"z": 1.7064228707,
				"element": "H" 
			},
			{
				"x": 1.36993814,
				"y": 1.7324146885,
				"z": -1.0661040377,
				"element": "H" 
			},
			{
				"x": 0.5465921848,
				"y": 2.8584354726,
				"z": -2.1844833068,
				"element": "H" 
			},
			{
				"x": -1.5145415944,
				"y": 1.5052877779,
				"z": -2.1030566407,
				"element": "H" 
			},
			{
				"x": 0.9443823852,
				"y": 0.0858663043,
				"z": -5.474748285,
				"element": "H" 
			},
			{
				"x": -0.2328051219,
				"y": 1.0784076273,
				"z": -6.3939806584,
				"element": "H" 
			},
			{
				"x": -0.7505108252,
				"y": -0.4098278867,
				"z": -5.549810693,
				"element": "H" 
			},
			{
				"x": -1.0228228399,
				"y": 0.3650929857,
				"z": 0.0110377092,
				"element": "H" 
			},
			{
				"x": -3.6442362443,
				"y": -2.6895370269,
				"z": -1.18426207,
				"element": "H" 
			},
			{
				"x": -4.1756768681,
				"y": -2.4398133227,
				"z": -2.886254718,
				"element": "H" 
			},
			{
				"x": -2.6489418291,
				"y": -3.2852884509,
				"z": -2.5168955033,
				"element": "H" 
			},
			{
				"x": 1.1524527239,
				"y": -0.1979159952,
				"z": 0.0241910465,
				"element": "H" 
			},
			{
				"x": 1.9227226715,
				"y": -2.8880175222,
				"z": -4.4035669557,
				"element": "H" 
			},
			{
				"x": 2.8340205084,
				"y": -3.2689585253,
				"z": -2.9250247859,
				"element": "H" 
			},
			{
				"x": 2.9248904067,
				"y": -1.6313847094,
				"z": -3.5998533655,
				"element": "H" 
			},
			{
				"x": -0.0458508271,
				"y": -2.9774203888,
				"z": -0.2283142739,
				"element": "H" 
			},
			{
				"x": 3.2691135418,
				"y": -3.897596673,
				"z": 2.3581883821,
				"element": "H" 
			},
			{
				"x": 4.1352703744,
				"y": -4.4843135031,
				"z": 0.9078309293,
				"element": "H" 
			},
			{
				"x": 4.1393747475,
				"y": -2.7486712493,
				"z": 1.3424715077,
				"element": "H" 
			},
			{
				"x": 0.3142916689,
				"y": -0.2146935313,
				"z": 2.1919425192,
				"element": "H" 
			},
			{
				"x": -1.0485762499,
				"y": -0.7465359922,
				"z": 3.1294530205,
				"element": "H" 
			}
		],
		 "valence_orbital": [ 
			{
				"type": "occ",
				"energy": -0.27353,
				"method": "rhf"
			},
			{
				"type": "occ",
				"energy": -0.27142,
				"method": "rhf"
			},
			{
				"type": "occ",
				"energy": -0.26551,
				"method": "rhf"
			},
			{
				"type": "occ",
				"energy": -0.26126,
				"method": "rhf"
			},
			{
				"type": "occ",
				"energy": -0.24991,
				"method": "rhf"
			},
			{
				"type": "unocc",
				"energy": -0.01963,
				"method": "rhf"
			},
			{
				"type": "unocc",
				"energy": -0.00292,
				"method": "rhf"
			},
			{
				"type": "unocc",
				"energy": 0.00949,
				"method": "rhf"
			},
			{
				"type": "unocc",
				"energy": 0.01239,
				"method": "rhf"
			},
			{
				"type": "unocc",
				"energy": 0.01686,
				"method": "rhf"
			}
		],
		"cosmo_sigma_profile": { 
			"-0.025": 0.0,
			"-0.024": 0.0,
			"-0.023": 0.0,
			"-0.022": 0.0,
			"-0.021": 0.0,
			"-0.02": 0.0,
			"-0.019": 0.0,
			"-0.018": 0.0,
			"-0.017": 0.0,
			"-0.016": 0.0,
			"-0.015": 0.267355413308,
			"-0.014": 1.12786090955,
			"-0.013": 1.19992456746,
			"-0.012": 0.935447816711,
			"-0.011": 0.801375234249,
			"-0.01": 1.64449717862,
			"-0.009": 1.06885204407,
			"-0.008": 3.82594900662,
			"-0.007": 10.9051291483,
			"-0.006": 26.1953225091,
			"-0.005": 33.8630441084,
			"-0.004": 39.8140335305,
			"-0.003": 44.7559256272,
			"-0.002": 50.3398006399,
			"-0.001": 30.9740509578,
			"0.0": 19.1675198908,
			"0.001": 17.2208874077,
			"0.002": 16.8257944089,
			"0.003": 13.241008363,
			"0.004": 14.5692466263,
			"0.005": 14.2302165144,
			"0.006": 11.305054342,
			"0.007": 9.63851119073,
			"0.008": 12.0371860492,
			"0.009": 9.35983568341,
			"0.01": 9.66100062482,
			"0.011": 10.357314031,
			"0.012": 8.12593858335,
			"0.013": 5.50738110715,
			"0.014": 1.29402585246,
			"0.015": 0.0,
			"0.016": 0.0,
			"0.017": 0.0,
			"0.018": 0.0,
			"0.019": 0.0,
			"0.02": 0.0,
			"0.021": 0.0,
			"0.022": 0.0,
			"0.023": 0.0,
			"0.024": 0.0,
			"0.025": 0.0
		}
	}
}
