{
	 "smiles": "NC(=NO)C1=NC=CN=C1", 
	 "Tm": 456.15, 
	 "num_atms": 16, 
	 "gaussian": { 
		 "optdone": 1, 
		 "sigma_profile": "yes", 
		 "theory": "DFT", 
		 "functional": "B3LYP", 
		 "basiset": "6-31G**", 
		 "properties": { 
			 "R2extent": 1948.1449, 
			 "electric_dipole_moment_norm": 1.65230893298, 
			 "electric_quadrupole_moment_norm": 9.44910671545, 
			 "total_energy": -488.315265784, 
			 "HOMO_LUMO_gap": 0.15405, 
			 "cosmo_polarized_energy": -11.02, 
			 "cosmo_cavitation_energy": 20.79, 
			 "cosmo_dispersion_energy": -15.92, 
			 "cosmo_repulsion_energy": 1.3, 
			 "cosmo_total_nonelectrostatic_energy": 6.18, 
			 "SMD_solvation_energy": 1.55 
		},
		"coords": [
			{
				"x": -1.9086338565,
				"y": -2.1668221376,
				"z": -0.6728606701,
				"element": "N" 
			},
			{
				"x": -1.0180551172,
				"y": -1.1486706618,
				"z": -0.5037079976,
				"element": "C" 
			},
			{
				"x": -0.0465682673,
				"y": -0.8475245473,
				"z": -1.3075020278,
				"element": "N" 
			},
			{
				"x": -0.0268333847,
				"y": -1.7739978355,
				"z": -2.3793027712,
				"element": "O" 
			},
			{
				"x": -1.1935943167,
				"y": -0.2970693128,
				"z": 0.6971984358,
				"element": "C" 
			},
			{
				"x": -2.1227136591,
				"y": -0.6915019425,
				"z": 1.5796172594,
				"element": "N" 
			},
			{
				"x": -2.2792850297,
				"y": 0.0692732193,
				"z": 2.6691149699,
				"element": "C" 
			},
			{
				"x": -1.5150498904,
				"y": 1.214413465,
				"z": 2.8804395819,
				"element": "C" 
			},
			{
				"x": -0.5837254009,
				"y": 1.6166251393,
				"z": 2.0018299245,
				"element": "N" 
			},
			{
				"x": -0.4276378452,
				"y": 0.8623269976,
				"z": 0.9149698663,
				"element": "C" 
			},
			{
				"x": -1.6657321233,
				"y": -2.8777633906,
				"z": -1.3440635381,
				"element": "H" 
			},
			{
				"x": -2.4611379687,
				"y": -2.4113360671,
				"z": 0.1353263857,
				"element": "H" 
			},
			{
				"x": 0.7403949449,
				"y": -1.4817332475,
				"z": -2.8864140257,
				"element": "H" 
			},
			{
				"x": -3.0321406117,
				"y": -0.2454453654,
				"z": 3.3884678834,
				"element": "H" 
			},
			{
				"x": -1.6520329676,
				"y": 1.8226957867,
				"z": 3.7715463654,
				"element": "H" 
			},
			{
				"x": 0.3168454941,
				"y": 1.1665299002,
				"z": 0.1859403583,
				"element": "H" 
			}
		],
		 "valence_orbital": [ 
			{
				"type": "occ",
				"energy": -0.31519,
				"method": "rhf"
			},
			{
				"type": "occ",
				"energy": -0.28352,
				"method": "rhf"
			},
			{
				"type": "occ",
				"energy": -0.2753,
				"method": "rhf"
			},
			{
				"type": "occ",
				"energy": -0.25372,
				"method": "rhf"
			},
			{
				"type": "occ",
				"energy": -0.21258,
				"method": "rhf"
			},
			{
				"type": "unocc",
				"energy": -0.05853,
				"method": "rhf"
			},
			{
				"type": "unocc",
				"energy": -0.0385,
				"method": "rhf"
			},
			{
				"type": "unocc",
				"energy": 0.05753,
				"method": "rhf"
			},
			{
				"type": "unocc",
				"energy": 0.07042,
				"method": "rhf"
			},
			{
				"type": "unocc",
				"energy": 0.11208,
				"method": "rhf"
			}
		],
		"cosmo_sigma_profile": { 
			"-0.025": 0.0,
			"-0.024": 0.0,
			"-0.023": 0.0,
			"-0.022": 0.0,
			"-0.021": 0.0,
			"-0.02": 0.0,
			"-0.019": 0.0,
			"-0.018": 0.0,
			"-0.017": 0.578864833569,
			"-0.016": 1.2015307415,
			"-0.015": 0.73676552225,
			"-0.014": 0.875692420932,
			"-0.013": 0.694067280745,
			"-0.012": 1.80947627045,
			"-0.011": 2.20910581641,
			"-0.01": 2.19410686389,
			"-0.009": 2.37841845054,
			"-0.008": 5.63503385248,
			"-0.007": 8.42648399118,
			"-0.006": 6.53393347729,
			"-0.005": 6.29299612415,
			"-0.004": 5.26578888011,
			"-0.003": 7.03354479922,
			"-0.002": 11.2638746188,
			"-0.001": 16.6665998822,
			"0.0": 14.0298091842,
			"0.001": 8.42545260417,
			"0.002": 7.91408319633,
			"0.003": 7.0002881583,
			"0.004": 7.12396532725,
			"0.005": 7.00034392302,
			"0.006": 7.10895004341,
			"0.007": 7.33985077792,
			"0.008": 6.25354701793,
			"0.009": 5.06733604104,
			"0.01": 4.16478905588,
			"0.011": 1.91513199545,
			"0.012": 1.04450196311,
			"0.013": 1.16724002529,
			"0.014": 0.604683867714,
			"0.015": 0.51848877924,
			"0.016": 0.0,
			"0.017": 0.0,
			"0.018": 0.0,
			"0.019": 0.0,
			"0.02": 0.0,
			"0.021": 0.0,
			"0.022": 0.0,
			"0.023": 0.0,
			"0.024": 0.0,
			"0.025": 0.0
		}
	}
}
