{
	 "smiles": "S=C=NC12CC3CC(CC(C3)C1)C2", 
	 "Tm": 440.15, 
	 "num_atms": 28, 
	 "gaussian": { 
		 "optdone": 1, 
		 "sigma_profile": "yes", 
		 "theory": "DFT", 
		 "functional": "B3LYP", 
		 "basiset": "6-31G**", 
		 "properties": { 
			 "R2extent": 3770.5418, 
			 "electric_dipole_moment_norm": 4.65778423287, 
			 "electric_quadrupole_moment_norm": 21.5011667588, 
			 "total_energy": -881.178337165, 
			 "HOMO_LUMO_gap": 0.23233, 
			 "cosmo_polarized_energy": -4.99, 
			 "cosmo_cavitation_energy": 29.24, 
			 "cosmo_dispersion_energy": -22.12, 
			 "cosmo_repulsion_energy": 1.7, 
			 "cosmo_total_nonelectrostatic_energy": 8.82, 
			 "SMD_solvation_energy": 3.34 
		},
		"coords": [
			{
				"x": -1.6069224368,
				"y": 5.2259874472,
				"z": 1.9911176863,
				"element": "S" 
			},
			{
				"x": -0.9538020399,
				"y": 3.9568404767,
				"z": 1.2742486997,
				"element": "C" 
			},
			{
				"x": -0.4087539791,
				"y": 3.0625896174,
				"z": 0.7066322783,
				"element": "N" 
			},
			{
				"x": -0.2496347601,
				"y": 1.6781758638,
				"z": 0.3343499902,
				"element": "C" 
			},
			{
				"x": 0.9792806133,
				"y": 1.5362257301,
				"z": -0.5930493251,
				"element": "C" 
			},
			{
				"x": 1.1564972507,
				"y": 0.0578635711,
				"z": -0.9961671395,
				"element": "C" 
			},
			{
				"x": -0.1055749646,
				"y": -0.4265878165,
				"z": -1.7399649158,
				"element": "C" 
			},
			{
				"x": -1.3330630622,
				"y": -0.2915396889,
				"z": -0.8149031281,
				"element": "C" 
			},
			{
				"x": -1.1209172235,
				"y": -1.1462043019,
				"z": 0.4522770273,
				"element": "C" 
			},
			{
				"x": 0.1415834757,
				"y": -0.6625171608,
				"z": 1.195779186,
				"element": "C" 
			},
			{
				"x": 1.3688862025,
				"y": -0.7975626015,
				"z": 0.2704140771,
				"element": "C" 
			},
			{
				"x": -0.0362071521,
				"y": 0.8157325186,
				"z": 1.6024426011,
				"element": "C" 
			},
			{
				"x": -1.513917228,
				"y": 1.187607031,
				"z": -0.4127446626,
				"element": "C" 
			},
			{
				"x": 0.8374017854,
				"y": 2.1664602551,
				"z": -1.4788888718,
				"element": "H" 
			},
			{
				"x": 1.8696609485,
				"y": 1.9061428512,
				"z": -0.0711033127,
				"element": "H" 
			},
			{
				"x": 2.0302125927,
				"y": -0.0299070799,
				"z": -1.6531181365,
				"element": "H" 
			},
			{
				"x": -0.2547643078,
				"y": 0.161674617,
				"z": -2.654560561,
				"element": "H" 
			},
			{
				"x": 0.018190309,
				"y": -1.4720169995,
				"z": -2.0495446447,
				"element": "H" 
			},
			{
				"x": -2.2338667256,
				"y": -0.6280036955,
				"z": -1.342455314,
				"element": "H" 
			},
			{
				"x": -1.9976721938,
				"y": -1.0737006949,
				"z": 1.1086369062,
				"element": "H" 
			},
			{
				"x": -1.0137620761,
				"y": -2.2033911905,
				"z": 0.1785579307,
				"element": "H" 
			},
			{
				"x": 0.2917203425,
				"y": -1.2634487965,
				"z": 2.1009420835,
				"element": "H" 
			},
			{
				"x": 1.5165994569,
				"y": -1.8491323929,
				"z": -0.006138719,
				"element": "H" 
			},
			{
				"x": 2.2766627914,
				"y": -0.4753524136,
				"z": 0.7966294868,
				"element": "H" 
			},
			{
				"x": 0.845535016,
				"y": 1.1792295786,
				"z": 2.1430087704,
				"element": "H" 
			},
			{
				"x": -0.8993528557,
				"y": 0.9335566947,
				"z": 2.2684640788,
				"element": "H" 
			},
			{
				"x": -1.6771306861,
				"y": 1.8140348653,
				"z": -1.2974987216,
				"element": "H" 
			},
			{
				"x": -2.3876890931,
				"y": 1.3083437153,
				"z": 0.2387366501,
				"element": "H" 
			}
		],
		 "valence_orbital": [ 
			{
				"type": "occ",
				"energy": -0.317,
				"method": "rhf"
			},
			{
				"type": "occ",
				"energy": -0.29632,
				"method": "rhf"
			},
			{
				"type": "occ",
				"energy": -0.29604,
				"method": "rhf"
			},
			{
				"type": "occ",
				"energy": -0.24043,
				"method": "rhf"
			},
			{
				"type": "occ",
				"energy": -0.23573,
				"method": "rhf"
			},
			{
				"type": "unocc",
				"energy": -0.0034,
				"method": "rhf"
			},
			{
				"type": "unocc",
				"energy": 0.01681,
				"method": "rhf"
			},
			{
				"type": "unocc",
				"energy": 0.0572,
				"method": "rhf"
			},
			{
				"type": "unocc",
				"energy": 0.09858,
				"method": "rhf"
			},
			{
				"type": "unocc",
				"energy": 0.11108,
				"method": "rhf"
			}
		],
		"cosmo_sigma_profile": { 
			"-0.025": 0.0,
			"-0.024": 0.0,
			"-0.023": 0.0,
			"-0.022": 0.0,
			"-0.021": 0.0,
			"-0.02": 0.0,
			"-0.019": 0.0,
			"-0.018": 0.0,
			"-0.017": 0.0,
			"-0.016": 0.0,
			"-0.015": 0.0,
			"-0.014": 0.0,
			"-0.013": 0.0,
			"-0.012": 0.0,
			"-0.011": 0.0,
			"-0.01": 0.0,
			"-0.009": 0.0,
			"-0.008": 0.0,
			"-0.007": 0.0,
			"-0.006": 0.0,
			"-0.005": 0.0556676140209,
			"-0.004": 7.2499464482,
			"-0.003": 31.2659439667,
			"-0.002": 43.3590958838,
			"-0.001": 43.0157441341,
			"0.0": 34.8272284364,
			"0.001": 19.2940612516,
			"0.002": 10.8630711863,
			"0.003": 7.6775965367,
			"0.004": 6.04697431885,
			"0.005": 5.28709056633,
			"0.006": 10.2780176066,
			"0.007": 10.399996762,
			"0.008": 0.527159527368,
			"0.009": 0.0,
			"0.01": 0.0,
			"0.011": 0.0,
			"0.012": 0.0,
			"0.013": 0.0,
			"0.014": 0.0,
			"0.015": 0.0,
			"0.016": 0.0,
			"0.017": 0.0,
			"0.018": 0.0,
			"0.019": 0.0,
			"0.02": 0.0,
			"0.021": 0.0,
			"0.022": 0.0,
			"0.023": 0.0,
			"0.024": 0.0,
			"0.025": 0.0
		}
	}
}
