{
	 "smiles": "OC1=C(C=CC=C1[N+]([O-])=O)[N+]([O-])=O", 
	 "Tm": 336.65, 
	 "num_atms": 17, 
	 "gaussian": { 
		 "optdone": 1, 
		 "sigma_profile": "yes", 
		 "theory": "DFT", 
		 "functional": "B3LYP", 
		 "basiset": "6-31G**", 
		 "properties": { 
			 "R2extent": 2724.475, 
			 "electric_dipole_moment_norm": 4.05998418347, 
			 "electric_quadrupole_moment_norm": 17.1259569555, 
			 "total_energy": -716.459459914, 
			 "HOMO_LUMO_gap": 0.15251, 
			 "cosmo_polarized_energy": -13.07, 
			 "cosmo_cavitation_energy": 22.95, 
			 "cosmo_dispersion_energy": -17.36, 
			 "cosmo_repulsion_energy": 1.35, 
			 "cosmo_total_nonelectrostatic_energy": 6.94, 
			 "SMD_solvation_energy": 8.75 
		},
		"coords": [
			{
				"x": 1.6499594697,
				"y": 1.3004906634,
				"z": 0.6356150673,
				"element": "O" 
			},
			{
				"x": 1.2299647569,
				"y": 0.2197339981,
				"z": 0.0015947677,
				"element": "C" 
			},
			{
				"x": 1.5286985795,
				"y": 0.00823705,
				"z": -1.3687435733,
				"element": "C" 
			},
			{
				"x": 1.0530103284,
				"y": -1.0990610939,
				"z": -2.0602681008,
				"element": "C" 
			},
			{
				"x": 0.2800089925,
				"y": -2.0691521785,
				"z": -1.418994015,
				"element": "C" 
			},
			{
				"x": -0.0306773088,
				"y": -1.9082908785,
				"z": -0.0783463193,
				"element": "C" 
			},
			{
				"x": 0.4271533999,
				"y": -0.7840818772,
				"z": 0.6165904493,
				"element": "C" 
			},
			{
				"x": 0.0506170965,
				"y": -0.6622559812,
				"z": 2.013813948,
				"element": "N" 
			},
			{
				"x": 0.4307146677,
				"y": 0.3520877473,
				"z": 2.6436207141,
				"element": "O" 
			},
			{
				"x": -0.6209794475,
				"y": -1.5453722639,
				"z": 2.5280817093,
				"element": "O" 
			},
			{
				"x": 2.3646734853,
				"y": 0.9568599296,
				"z": -2.1231711607,
				"element": "N" 
			},
			{
				"x": 3.1639111199,
				"y": 1.6466184527,
				"z": -1.5017025974,
				"element": "O" 
			},
			{
				"x": 2.215805595,
				"y": 0.9694763873,
				"z": -3.3467548185,
				"element": "O" 
			},
			{
				"x": 1.2939880272,
				"y": 1.2338372987,
				"z": 1.5597657753,
				"element": "H" 
			},
			{
				"x": 1.3037274183,
				"y": -1.1797611216,
				"z": -3.1111529914,
				"element": "H" 
			},
			{
				"x": -0.0738775253,
				"y": -2.9354980861,
				"z": -1.9653261361,
				"element": "H" 
			},
			{
				"x": -0.6307986549,
				"y": -2.630868046,
				"z": 0.4605772815,
				"element": "H" 
			}
		],
		 "valence_orbital": [ 
			{
				"type": "occ",
				"energy": -0.32095,
				"method": "rhf"
			},
			{
				"type": "occ",
				"energy": -0.31673,
				"method": "rhf"
			},
			{
				"type": "occ",
				"energy": -0.31172,
				"method": "rhf"
			},
			{
				"type": "occ",
				"energy": -0.29533,
				"method": "rhf"
			},
			{
				"type": "occ",
				"energy": -0.27644,
				"method": "rhf"
			},
			{
				"type": "unocc",
				"energy": -0.12393,
				"method": "rhf"
			},
			{
				"type": "unocc",
				"energy": -0.09329,
				"method": "rhf"
			},
			{
				"type": "unocc",
				"energy": -0.03162,
				"method": "rhf"
			},
			{
				"type": "unocc",
				"energy": -0.01698,
				"method": "rhf"
			},
			{
				"type": "unocc",
				"energy": 0.04884,
				"method": "rhf"
			}
		],
		"cosmo_sigma_profile": { 
			"-0.025": 0.0,
			"-0.024": 0.0,
			"-0.023": 0.0,
			"-0.022": 0.0,
			"-0.021": 0.0,
			"-0.02": 0.0,
			"-0.019": 0.0,
			"-0.018": 0.0,
			"-0.017": 0.0,
			"-0.016": 0.0,
			"-0.015": 0.0,
			"-0.014": 0.0,
			"-0.013": 0.0,
			"-0.012": 0.0628053994368,
			"-0.011": 0.307225982186,
			"-0.01": 1.42013372571,
			"-0.009": 5.52002561035,
			"-0.008": 10.81623434,
			"-0.007": 10.5476928989,
			"-0.006": 9.81472978369,
			"-0.005": 10.1804013647,
			"-0.004": 13.1745243258,
			"-0.003": 12.4075688671,
			"-0.002": 11.8535684482,
			"-0.001": 12.1701516378,
			"0.0": 9.09178954049,
			"0.001": 6.16313220051,
			"0.002": 4.57251397337,
			"0.003": 6.23852287859,
			"0.004": 5.97716224279,
			"0.005": 5.72930410918,
			"0.006": 11.325815097,
			"0.007": 14.1752998811,
			"0.008": 11.7735185248,
			"0.009": 7.38368761592,
			"0.01": 2.93561807035,
			"0.011": 1.50910451957,
			"0.012": 0.314124705489,
			"0.013": 0.0,
			"0.014": 0.0,
			"0.015": 0.0,
			"0.016": 0.0,
			"0.017": 0.0,
			"0.018": 0.0,
			"0.019": 0.0,
			"0.02": 0.0,
			"0.021": 0.0,
			"0.022": 0.0,
			"0.023": 0.0,
			"0.024": 0.0,
			"0.025": 0.0
		}
	}
}
