{
	 "smiles": "NC1=CC(=C(C=C1)[N+]([O-])=O)C(F)(F)F", 
	 "Tm": 400.15, 
	 "num_atms": 19, 
	 "gaussian": { 
		 "optdone": 1, 
		 "sigma_profile": "yes", 
		 "theory": "DFT", 
		 "functional": "B3LYP", 
		 "basiset": "6-31G**", 
		 "properties": { 
			 "R2extent": 3814.9394, 
			 "electric_dipole_moment_norm": 7.98109257308, 
			 "electric_quadrupole_moment_norm": 20.8326502817, 
			 "total_energy": -829.1306387, 
			 "HOMO_LUMO_gap": 0.15851, 
			 "cosmo_polarized_energy": -16.55, 
			 "cosmo_cavitation_energy": 25.2, 
			 "cosmo_dispersion_energy": -18.31, 
			 "cosmo_repulsion_energy": 1.38, 
			 "cosmo_total_nonelectrostatic_energy": 8.27, 
			 "SMD_solvation_energy": 7.46 
		},
		"coords": [
			{
				"x": -3.3593384829,
				"y": 0.1645398117,
				"z": -1.562228184,
				"element": "N" 
			},
			{
				"x": -2.5498553581,
				"y": -0.5841048941,
				"z": -0.7411912722,
				"element": "C" 
			},
			{
				"x": -1.1963188786,
				"y": -0.7950002151,
				"z": -1.0747277242,
				"element": "C" 
			},
			{
				"x": -0.3587045862,
				"y": -1.5918547117,
				"z": -0.302614955,
				"element": "C" 
			},
			{
				"x": -0.8912681802,
				"y": -2.1917517872,
				"z": 0.8585766632,
				"element": "C" 
			},
			{
				"x": -2.2244318039,
				"y": -1.9681149391,
				"z": 1.2121423247,
				"element": "C" 
			},
			{
				"x": -3.051835526,
				"y": -1.1840678984,
				"z": 0.4278332227,
				"element": "C" 
			},
			{
				"x": -0.1302232603,
				"y": -3.0819349738,
				"z": 1.7381536527,
				"element": "N" 
			},
			{
				"x": 0.8773729355,
				"y": -3.6230488648,
				"z": 1.2891730812,
				"element": "O" 
			},
			{
				"x": -0.5669073751,
				"y": -3.2569049547,
				"z": 2.8790326463,
				"element": "O" 
			},
			{
				"x": 1.0915166043,
				"y": -1.7036820449,
				"z": -0.7592798942,
				"element": "C" 
			},
			{
				"x": 1.345860936,
				"y": -0.7992442788,
				"z": -1.7416875929,
				"element": "F" 
			},
			{
				"x": 1.9551851424,
				"y": -1.4331614713,
				"z": 0.2336397733,
				"element": "F" 
			},
			{
				"x": 1.3778039785,
				"y": -2.9082164048,
				"z": -1.2747709796,
				"element": "F" 
			},
			{
				"x": -2.922821703,
				"y": 0.7648131905,
				"z": -2.2447898432,
				"element": "H" 
			},
			{
				"x": -4.2291604978,
				"y": 0.5100663104,
				"z": -1.1871489832,
				"element": "H" 
			},
			{
				"x": -0.7897088568,
				"y": -0.3136271473,
				"z": -1.955586549,
				"element": "H" 
			},
			{
				"x": -2.5928958588,
				"y": -2.4310211563,
				"z": 2.118721523,
				"element": "H" 
			},
			{
				"x": -4.089269229,
				"y": -1.0361835703,
				"z": 0.7132530906,
				"element": "H" 
			}
		],
		 "valence_orbital": [ 
			{
				"type": "occ",
				"energy": -0.30167,
				"method": "rhf"
			},
			{
				"type": "occ",
				"energy": -0.30121,
				"method": "rhf"
			},
			{
				"type": "occ",
				"energy": -0.28817,
				"method": "rhf"
			},
			{
				"type": "occ",
				"energy": -0.28305,
				"method": "rhf"
			},
			{
				"type": "occ",
				"energy": -0.24021,
				"method": "rhf"
			},
			{
				"type": "unocc",
				"energy": -0.0817,
				"method": "rhf"
			},
			{
				"type": "unocc",
				"energy": -0.0394,
				"method": "rhf"
			},
			{
				"type": "unocc",
				"energy": 0.0026,
				"method": "rhf"
			},
			{
				"type": "unocc",
				"energy": 0.05086,
				"method": "rhf"
			},
			{
				"type": "unocc",
				"energy": 0.08597,
				"method": "rhf"
			}
		],
		"cosmo_sigma_profile": { 
			"-0.025": 0.0,
			"-0.024": 0.0,
			"-0.023": 0.0,
			"-0.022": 0.0,
			"-0.021": 0.0,
			"-0.02": 0.0,
			"-0.019": 0.0,
			"-0.018": 0.0,
			"-0.017": 0.0,
			"-0.016": 0.0,
			"-0.015": 0.25724272352,
			"-0.014": 3.40464835878,
			"-0.013": 3.25903250642,
			"-0.012": 3.66867029862,
			"-0.011": 3.64517264213,
			"-0.01": 2.41122366565,
			"-0.009": 3.85319173918,
			"-0.008": 3.27960280308,
			"-0.007": 5.23965615541,
			"-0.006": 5.86959410278,
			"-0.005": 6.40902720858,
			"-0.004": 6.1578786973,
			"-0.003": 8.50042600979,
			"-0.002": 8.79442304825,
			"-0.001": 12.198147711,
			"0.0": 17.04650291,
			"0.001": 18.6016827503,
			"0.002": 24.4734358745,
			"0.003": 21.6128887338,
			"0.004": 6.35511128688,
			"0.005": 3.8828706622,
			"0.006": 5.20209799928,
			"0.007": 6.16305137631,
			"0.008": 9.95435719706,
			"0.009": 6.55379831869,
			"0.01": 4.04810267977,
			"0.011": 1.1964894147,
			"0.012": 0.0,
			"0.013": 0.0,
			"0.014": 0.0,
			"0.015": 0.0,
			"0.016": 0.0,
			"0.017": 0.0,
			"0.018": 0.0,
			"0.019": 0.0,
			"0.02": 0.0,
			"0.021": 0.0,
			"0.022": 0.0,
			"0.023": 0.0,
			"0.024": 0.0,
			"0.025": 0.0
		}
	}
}
