{
	 "smiles": "CCN(CC)C(=S)SC(=S)N(CC)CC", 
	 "Tm": 304.15, 
	 "num_atms": 35, 
	 "gaussian": { 
		 "optdone": 1, 
		 "sigma_profile": "yes", 
		 "theory": "DFT", 
		 "functional": "B3LYP", 
		 "basiset": "6-31G**", 
		 "properties": { 
			 "R2extent": 5211.5308, 
			 "electric_dipole_moment_norm": 3.46161596079, 
			 "electric_quadrupole_moment_norm": 23.0395302163, 
			 "total_energy": -1697.18514156, 
			 "HOMO_LUMO_gap": 0.15954, 
			 "cosmo_polarized_energy": -16.1, 
			 "cosmo_cavitation_energy": 39.03, 
			 "cosmo_dispersion_energy": -27.53, 
			 "cosmo_repulsion_energy": 2.05, 
			 "cosmo_total_nonelectrostatic_energy": 13.55, 
			 "SMD_solvation_energy": 4.75 
		},
		"coords": [
			{
				"x": 0.0270324246,
				"y": -2.5482178846,
				"z": -4.032675223,
				"element": "C" 
			},
			{
				"x": -1.2331684896,
				"y": -2.6609716776,
				"z": -3.1710523894,
				"element": "C" 
			},
			{
				"x": -1.5021474418,
				"y": -1.4723890835,
				"z": -2.3344047328,
				"element": "N" 
			},
			{
				"x": -2.3121227882,
				"y": -0.3968469302,
				"z": -2.9531680852,
				"element": "C" 
			},
			{
				"x": -1.480042274,
				"y": 0.7400953928,
				"z": -3.5517360824,
				"element": "C" 
			},
			{
				"x": -0.9474095109,
				"y": -1.3930104643,
				"z": -1.104349349,
				"element": "C" 
			},
			{
				"x": 0.1164070921,
				"y": -2.4929982086,
				"z": -0.4471590884,
				"element": "S" 
			},
			{
				"x": -1.5960535664,
				"y": -0.0205606872,
				"z": -0.0852900092,
				"element": "S" 
			},
			{
				"x": -0.0693475744,
				"y": 0.7380344183,
				"z": 0.5773307984,
				"element": "C" 
			},
			{
				"x": 1.1451173032,
				"y": 1.2108014453,
				"z": -0.4594277452,
				"element": "S" 
			},
			{
				"x": -0.1032544537,
				"y": 0.9695231375,
				"z": 1.9085167125,
				"element": "N" 
			},
			{
				"x": -1.1166533323,
				"y": 0.4002273668,
				"z": 2.8275331045,
				"element": "C" 
			},
			{
				"x": -0.840288966,
				"y": -1.0491772431,
				"z": 3.2349187503,
				"element": "C" 
			},
			{
				"x": 0.9719787786,
				"y": 1.7733837057,
				"z": 2.5273274987,
				"element": "C" 
			},
			{
				"x": 2.1944193267,
				"y": 0.9586444809,
				"z": 2.9576749344,
				"element": "C" 
			},
			{
				"x": 0.9031421486,
				"y": -2.371093405,
				"z": -3.40536113,
				"element": "H" 
			},
			{
				"x": -0.0513834998,
				"y": -1.7420811363,
				"z": -4.7672807721,
				"element": "H" 
			},
			{
				"x": 0.1779117294,
				"y": -3.4865965477,
				"z": -4.5767347895,
				"element": "H" 
			},
			{
				"x": -1.1408307826,
				"y": -3.5139527825,
				"z": -2.4956368246,
				"element": "H" 
			},
			{
				"x": -2.1163076448,
				"y": -2.8130780693,
				"z": -3.7994829758,
				"element": "H" 
			},
			{
				"x": -2.9175863477,
				"y": -0.876374259,
				"z": -3.7268026351,
				"element": "H" 
			},
			{
				"x": -3.0084123738,
				"y": -0.0008415234,
				"z": -2.2119953461,
				"element": "H" 
			},
			{
				"x": -2.1504335514,
				"y": 1.5033872139,
				"z": -3.961366589,
				"element": "H" 
			},
			{
				"x": -0.8467803702,
				"y": 1.2019990258,
				"z": -2.7899248716,
				"element": "H" 
			},
			{
				"x": -0.8372239054,
				"y": 0.3836425946,
				"z": -4.3607626454,
				"element": "H" 
			},
			{
				"x": -1.1309435227,
				"y": 1.0492390132,
				"z": 3.7071278738,
				"element": "H" 
			},
			{
				"x": -2.1023361294,
				"y": 0.4773389932,
				"z": 2.3657612998,
				"element": "H" 
			},
			{
				"x": 0.1020682688,
				"y": -1.1396045348,
				"z": 3.7813456034,
				"element": "H" 
			},
			{
				"x": -1.6464509739,
				"y": -1.4026343366,
				"z": 3.8868531943,
				"element": "H" 
			},
			{
				"x": -0.7897059842,
				"y": -1.6974559688,
				"z": 2.3562989464,
				"element": "H" 
			},
			{
				"x": 1.2717193972,
				"y": 2.5256165076,
				"z": 1.7947117013,
				"element": "H" 
			},
			{
				"x": 0.5298132875,
				"y": 2.2865727422,
				"z": 3.3869917277,
				"element": "H" 
			},
			{
				"x": 1.9480914027,
				"y": 0.2342511051,
				"z": 3.7388311756,
				"element": "H" 
			},
			{
				"x": 2.6181768812,
				"y": 0.4269229879,
				"z": 2.1032014025,
				"element": "H" 
			},
			{
				"x": 2.958305443,
				"y": 1.6357046116,
				"z": 3.3543865602,
				"element": "H" 
			}
		],
		 "valence_orbital": [ 
			{
				"type": "occ",
				"energy": -0.25382,
				"method": "rhf"
			},
			{
				"type": "occ",
				"energy": -0.22999,
				"method": "rhf"
			},
			{
				"type": "occ",
				"energy": -0.21538,
				"method": "rhf"
			},
			{
				"type": "occ",
				"energy": -0.2057,
				"method": "rhf"
			},
			{
				"type": "occ",
				"energy": -0.20362,
				"method": "rhf"
			},
			{
				"type": "unocc",
				"energy": -0.04408,
				"method": "rhf"
			},
			{
				"type": "unocc",
				"energy": -0.04189,
				"method": "rhf"
			},
			{
				"type": "unocc",
				"energy": 0.03928,
				"method": "rhf"
			},
			{
				"type": "unocc",
				"energy": 0.04746,
				"method": "rhf"
			},
			{
				"type": "unocc",
				"energy": 0.07738,
				"method": "rhf"
			}
		],
		"cosmo_sigma_profile": { 
			"-0.025": 0.0,
			"-0.024": 0.0,
			"-0.023": 0.0,
			"-0.022": 0.0,
			"-0.021": 0.0,
			"-0.02": 0.0,
			"-0.019": 0.0,
			"-0.018": 0.0,
			"-0.017": 0.0,
			"-0.016": 0.0,
			"-0.015": 0.0,
			"-0.014": 0.0,
			"-0.013": 0.0,
			"-0.012": 0.0,
			"-0.011": 0.0,
			"-0.01": 0.0,
			"-0.009": 0.0,
			"-0.008": 2.34398413517,
			"-0.007": 6.31586077748,
			"-0.006": 12.7316048351,
			"-0.005": 20.2978703367,
			"-0.004": 33.7172492116,
			"-0.003": 34.1520647659,
			"-0.002": 28.3225935881,
			"-0.001": 24.0782528302,
			"0.0": 28.2722772495,
			"0.001": 23.1620638584,
			"0.002": 13.3587590183,
			"0.003": 12.4898972203,
			"0.004": 13.605868676,
			"0.005": 11.5919534586,
			"0.006": 12.4270279356,
			"0.007": 12.2802221345,
			"0.008": 13.6486477367,
			"0.009": 6.90677651572,
			"0.01": 2.54496580658,
			"0.011": 0.103757409437,
			"0.012": 0.0,
			"0.013": 0.0,
			"0.014": 0.0,
			"0.015": 0.0,
			"0.016": 0.0,
			"0.017": 0.0,
			"0.018": 0.0,
			"0.019": 0.0,
			"0.02": 0.0,
			"0.021": 0.0,
			"0.022": 0.0,
			"0.023": 0.0,
			"0.024": 0.0,
			"0.025": 0.0
		}
	}
}
