{
	 "smiles": "CNC(=S)NCC(C)=C", 
	 "Tm": 335.15, 
	 "num_atms": 21, 
	 "gaussian": { 
		 "optdone": 1, 
		 "sigma_profile": "yes", 
		 "theory": "DFT", 
		 "functional": "B3LYP", 
		 "basiset": "6-31G**", 
		 "properties": { 
			 "R2extent": 2491.1112, 
			 "electric_dipole_moment_norm": 5.0240530043, 
			 "electric_quadrupole_moment_norm": 18.3880872222, 
			 "total_energy": -743.551960348, 
			 "HOMO_LUMO_gap": 0.184, 
			 "cosmo_polarized_energy": -14.7, 
			 "cosmo_cavitation_energy": 25.67, 
			 "cosmo_dispersion_energy": -18.28, 
			 "cosmo_repulsion_energy": 1.46, 
			 "cosmo_total_nonelectrostatic_energy": 8.85, 
			 "SMD_solvation_energy": 3.17 
		},
		"coords": [
			{
				"x": 1.0546800782,
				"y": 1.3246018758,
				"z": -1.3047618872,
				"element": "C" 
			},
			{
				"x": 1.9594845472,
				"y": 0.9090970337,
				"z": -0.2341949783,
				"element": "N" 
			},
			{
				"x": 1.7244095141,
				"y": 1.06127632,
				"z": 1.1021916174,
				"element": "C" 
			},
			{
				"x": 2.9826599472,
				"y": 1.3267525999,
				"z": 2.1921446464,
				"element": "S" 
			},
			{
				"x": 0.4176616851,
				"y": 1.0020132265,
				"z": 1.5099798805,
				"element": "N" 
			},
			{
				"x": -0.5886984105,
				"y": 0.0483586745,
				"z": 1.0045353077,
				"element": "C" 
			},
			{
				"x": -0.9593113472,
				"y": -0.9696876855,
				"z": 2.0649463616,
				"element": "C" 
			},
			{
				"x": 0.1370668842,
				"y": -1.9064394151,
				"z": 2.5057809336,
				"element": "C" 
			},
			{
				"x": -2.1981606072,
				"y": -1.0025399663,
				"z": 2.5662816457,
				"element": "C" 
			},
			{
				"x": 1.6116626403,
				"y": 1.9183718964,
				"z": -2.0351002251,
				"element": "H" 
			},
			{
				"x": 0.2552558002,
				"y": 1.9476424036,
				"z": -0.8973409244,
				"element": "H" 
			},
			{
				"x": 0.6043222491,
				"y": 0.4743952688,
				"z": -1.8304063117,
				"element": "H" 
			},
			{
				"x": 2.946962558,
				"y": 0.9400023414,
				"z": -0.4444023781,
				"element": "H" 
			},
			{
				"x": 0.3310347263,
				"y": 1.2076546982,
				"z": 2.4972786077,
				"element": "H" 
			},
			{
				"x": -1.4829557992,
				"y": 0.5855267635,
				"z": 0.6684005798,
				"element": "H" 
			},
			{
				"x": -0.1604548829,
				"y": -0.4630820212,
				"z": 0.1380464171,
				"element": "H" 
			},
			{
				"x": 1.007727228,
				"y": -1.3549558063,
				"z": 2.880077395,
				"element": "H" 
			},
			{
				"x": -0.2074964138,
				"y": -2.5820964597,
				"z": 3.2925117616,
				"element": "H" 
			},
			{
				"x": 0.492019439,
				"y": -2.5143511262,
				"z": 1.663370694,
				"element": "H" 
			},
			{
				"x": -2.487210326,
				"y": -1.7250751539,
				"z": 3.3242162543,
				"element": "H" 
			},
			{
				"x": -2.9679595099,
				"y": -0.3119654681,
				"z": 2.2321446024,
				"element": "H" 
			}
		],
		 "valence_orbital": [ 
			{
				"type": "occ",
				"energy": -0.34912,
				"method": "rhf"
			},
			{
				"type": "occ",
				"energy": -0.2677,
				"method": "rhf"
			},
			{
				"type": "occ",
				"energy": -0.25847,
				"method": "rhf"
			},
			{
				"type": "occ",
				"energy": -0.21257,
				"method": "rhf"
			},
			{
				"type": "occ",
				"energy": -0.19695,
				"method": "rhf"
			},
			{
				"type": "unocc",
				"energy": -0.01295,
				"method": "rhf"
			},
			{
				"type": "unocc",
				"energy": 0.01552,
				"method": "rhf"
			},
			{
				"type": "unocc",
				"energy": 0.06567,
				"method": "rhf"
			},
			{
				"type": "unocc",
				"energy": 0.0859,
				"method": "rhf"
			},
			{
				"type": "unocc",
				"energy": 0.09897,
				"method": "rhf"
			}
		],
		"cosmo_sigma_profile": { 
			"-0.025": 0.0,
			"-0.024": 0.0,
			"-0.023": 0.0,
			"-0.022": 0.0,
			"-0.021": 0.0,
			"-0.02": 0.0,
			"-0.019": 0.0,
			"-0.018": 0.0,
			"-0.017": 0.0,
			"-0.016": 0.0,
			"-0.015": 0.0,
			"-0.014": 0.463487507609,
			"-0.013": 1.1192717091,
			"-0.012": 1.50972074695,
			"-0.011": 2.26000390469,
			"-0.01": 0.867328605826,
			"-0.009": 1.63719390215,
			"-0.008": 1.96375077587,
			"-0.007": 3.29566654372,
			"-0.006": 8.01676448053,
			"-0.005": 17.0052693421,
			"-0.004": 20.6418284565,
			"-0.003": 21.3683614311,
			"-0.002": 18.1481988145,
			"-0.001": 14.2233362827,
			"0.0": 14.8622722192,
			"0.001": 11.2938304629,
			"0.002": 8.10843413291,
			"0.003": 8.00191327722,
			"0.004": 7.33794090324,
			"0.005": 7.33442482011,
			"0.006": 3.83200931651,
			"0.007": 3.87686525944,
			"0.008": 3.3932012899,
			"0.009": 3.34916969424,
			"0.01": 4.88829639695,
			"0.011": 7.47692598507,
			"0.012": 5.49888670518,
			"0.013": 2.23773941468,
			"0.014": 0.109048841129,
			"0.015": 0.0,
			"0.016": 0.0,
			"0.017": 0.0,
			"0.018": 0.0,
			"0.019": 0.0,
			"0.02": 0.0,
			"0.021": 0.0,
			"0.022": 0.0,
			"0.023": 0.0,
			"0.024": 0.0,
			"0.025": 0.0
		}
	}
}
