{
	 "smiles": "CC1(NC(=O)NC1=O)C1=CC=C(Br)S1", 
	 "Tm": 458.15, 
	 "num_atms": 21, 
	 "gaussian": { 
		 "optdone": 1, 
		 "sigma_profile": "yes", 
		 "theory": "DFT", 
		 "functional": "B3LYP", 
		 "basiset": "6-31G**", 
		 "properties": { 
			 "R2extent": 5472.4305, 
			 "electric_dipole_moment_norm": 2.71077668944, 
			 "electric_quadrupole_moment_norm": 8.60581856479, 
			 "total_energy": -3538.63082103, 
			 "HOMO_LUMO_gap": 0.19534, 
			 "cosmo_polarized_energy": -16.54, 
			 "cosmo_cavitation_energy": 29.74, 
			 "cosmo_dispersion_energy": -21.9, 
			 "cosmo_repulsion_energy": 1.71, 
			 "cosmo_total_nonelectrostatic_energy": 9.55, 
			 "SMD_solvation_energy": 5.34 
		},
		"coords": [
			{
				"x": 0.7164995497,
				"y": -0.4244039898,
				"z": 2.0166672045,
				"element": "C" 
			},
			{
				"x": 0.8389865437,
				"y": -0.7534621082,
				"z": 0.5167886062,
				"element": "C" 
			},
			{
				"x": 0.4995270464,
				"y": -2.1437192968,
				"z": 0.2156275121,
				"element": "N" 
			},
			{
				"x": 1.5873437345,
				"y": -2.9110341579,
				"z": -0.1446726005,
				"element": "C" 
			},
			{
				"x": 1.6348245303,
				"y": -4.1064576706,
				"z": -0.3312125767,
				"element": "O" 
			},
			{
				"x": 2.6631781639,
				"y": -2.0071435017,
				"z": -0.2596217589,
				"element": "N" 
			},
			{
				"x": 2.3462772765,
				"y": -0.7220126727,
				"z": 0.1187576987,
				"element": "C" 
			},
			{
				"x": 3.0793201384,
				"y": 0.2396412575,
				"z": 0.1663675051,
				"element": "O" 
			},
			{
				"x": 0.0501443604,
				"y": 0.2154701082,
				"z": -0.3381118102,
				"element": "C" 
			},
			{
				"x": 0.0099207847,
				"y": 1.5826823041,
				"z": -0.2626974947,
				"element": "C" 
			},
			{
				"x": -0.8067067891,
				"y": 2.1846974671,
				"z": -1.2671807256,
				"element": "C" 
			},
			{
				"x": -1.3691152945,
				"y": 1.2524926564,
				"z": -2.0924003131,
				"element": "C" 
			},
			{
				"x": -2.5327085805,
				"y": 1.5755822489,
				"z": -3.5404506403,
				"element": "Br" 
			},
			{
				"x": -0.9154627942,
				"y": -0.3740626482,
				"z": -1.6732456093,
				"element": "S" 
			},
			{
				"x": 1.1148139932,
				"y": 0.5730929805,
				"z": 2.2139242624,
				"element": "H" 
			},
			{
				"x": -0.3319699426,
				"y": -0.4516051077,
				"z": 2.326105859,
				"element": "H" 
			},
			{
				"x": 1.2848770652,
				"y": -1.1459974577,
				"z": 2.6109361325,
				"element": "H" 
			},
			{
				"x": -0.3179857676,
				"y": -2.6035156745,
				"z": 0.5896307398,
				"element": "H" 
			},
			{
				"x": 3.5830878977,
				"y": -2.3028079515,
				"z": -0.5546769706,
				"element": "H" 
			},
			{
				"x": 0.5622542188,
				"y": 2.1539091339,
				"z": 0.4736678782,
				"element": "H" 
			},
			{
				"x": -0.9688061348,
				"y": 3.2503540807,
				"z": -1.3695028986,
				"element": "H" 
			}
		],
		 "valence_orbital": [ 
			{
				"type": "occ",
				"energy": -0.29801,
				"method": "rhf"
			},
			{
				"type": "occ",
				"energy": -0.28403,
				"method": "rhf"
			},
			{
				"type": "occ",
				"energy": -0.27388,
				"method": "rhf"
			},
			{
				"type": "occ",
				"energy": -0.26778,
				"method": "rhf"
			},
			{
				"type": "occ",
				"energy": -0.23253,
				"method": "rhf"
			},
			{
				"type": "unocc",
				"energy": -0.03719,
				"method": "rhf"
			},
			{
				"type": "unocc",
				"energy": -0.01363,
				"method": "rhf"
			},
			{
				"type": "unocc",
				"energy": -0.00686,
				"method": "rhf"
			},
			{
				"type": "unocc",
				"energy": 0.01593,
				"method": "rhf"
			},
			{
				"type": "unocc",
				"energy": 0.04377,
				"method": "rhf"
			}
		],
		"cosmo_sigma_profile": { 
			"-0.025": 0.0,
			"-0.024": 0.0,
			"-0.023": 0.0,
			"-0.022": 0.0,
			"-0.021": 0.0,
			"-0.02": 0.0,
			"-0.019": 0.0,
			"-0.018": 0.0117497947762,
			"-0.017": 1.09819269789,
			"-0.016": 1.30969880217,
			"-0.015": 2.48670372583,
			"-0.014": 1.96573295807,
			"-0.013": 1.46738377188,
			"-0.012": 2.29746909419,
			"-0.011": 2.10199599559,
			"-0.01": 1.84969772628,
			"-0.009": 2.0772145142,
			"-0.008": 4.38698329967,
			"-0.007": 7.28502594364,
			"-0.006": 9.88073097828,
			"-0.005": 13.3411016594,
			"-0.004": 12.854909821,
			"-0.003": 13.9468739193,
			"-0.002": 17.3907426774,
			"-0.001": 15.9247607207,
			"0.0": 14.4893094049,
			"0.001": 18.1070734495,
			"0.002": 22.7270261084,
			"0.003": 23.3967459318,
			"0.004": 14.1111065707,
			"0.005": 2.46585309473,
			"0.006": 3.83217555997,
			"0.007": 2.81270279517,
			"0.008": 1.61815527806,
			"0.009": 3.74545847671,
			"0.01": 4.16041793781,
			"0.011": 6.57528090637,
			"0.012": 9.74722448285,
			"0.013": 3.18709525649,
			"0.014": 0.0493488102955,
			"0.015": 0.0,
			"0.016": 0.0,
			"0.017": 0.0,
			"0.018": 0.0,
			"0.019": 0.0,
			"0.02": 0.0,
			"0.021": 0.0,
			"0.022": 0.0,
			"0.023": 0.0,
			"0.024": 0.0,
			"0.025": 0.0
		}
	}
}
