{
	 "smiles": "NC(=O)CNCC1=CC=CC=C1", 
	 "Tm": 364.15, 
	 "num_atms": 24, 
	 "gaussian": { 
		 "optdone": 1, 
		 "sigma_profile": "yes", 
		 "theory": "DFT", 
		 "functional": "B3LYP", 
		 "basiset": "6-31G**", 
		 "properties": { 
			 "R2extent": 3061.948, 
			 "electric_dipole_moment_norm": 4.48898304964, 
			 "electric_quadrupole_moment_norm": 19.2039994027, 
			 "total_energy": -534.919331214, 
			 "HOMO_LUMO_gap": 0.2113, 
			 "cosmo_polarized_energy": -16.63, 
			 "cosmo_cavitation_energy": 27.84, 
			 "cosmo_dispersion_energy": -19.58, 
			 "cosmo_repulsion_energy": 1.6, 
			 "cosmo_total_nonelectrostatic_energy": 9.86, 
			 "SMD_solvation_energy": 3.15 
		},
		"coords": [
			{
				"x": 3.1188224209,
				"y": -1.6054931964,
				"z": 1.0863268545,
				"element": "N" 
			},
			{
				"x": 2.2430202118,
				"y": -2.205759629,
				"z": 1.9646316534,
				"element": "C" 
			},
			{
				"x": 2.6227961989,
				"y": -2.8371514417,
				"z": 2.9353910455,
				"element": "O" 
			},
			{
				"x": 0.7687606709,
				"y": -1.9732793659,
				"z": 1.6306495911,
				"element": "C" 
			},
			{
				"x": 0.422264283,
				"y": -0.5567004988,
				"z": 1.7615676197,
				"element": "N" 
			},
			{
				"x": -0.9159613588,
				"y": -0.2080587163,
				"z": 1.2658486676,
				"element": "C" 
			},
			{
				"x": -1.1299484471,
				"y": -0.3944897453,
				"z": -0.2291802067,
				"element": "C" 
			},
			{
				"x": -1.7921066135,
				"y": -1.5185480721,
				"z": -0.7398384361,
				"element": "C" 
			},
			{
				"x": -1.9373685639,
				"y": -1.7021135463,
				"z": -2.1173795264,
				"element": "C" 
			},
			{
				"x": -1.4215216772,
				"y": -0.7590822844,
				"z": -3.0067989999,
				"element": "C" 
			},
			{
				"x": -0.7625435094,
				"y": 0.369658803,
				"z": -2.5118379533,
				"element": "C" 
			},
			{
				"x": -0.6194852014,
				"y": 0.5469925333,
				"z": -1.1360089676,
				"element": "C" 
			},
			{
				"x": 2.8209974345,
				"y": -1.3556762255,
				"z": 0.1550450435,
				"element": "H" 
			},
			{
				"x": 4.09759646,
				"y": -1.8208978462,
				"z": 1.2133371041,
				"element": "H" 
			},
			{
				"x": 0.5682029162,
				"y": -2.3865518295,
				"z": 0.6234905062,
				"element": "H" 
			},
			{
				"x": 0.1846422831,
				"y": -2.5545970297,
				"z": 2.3492936476,
				"element": "H" 
			},
			{
				"x": 1.1207894545,
				"y": 0.0160076055,
				"z": 1.2951169375,
				"element": "H" 
			},
			{
				"x": -1.0958434765,
				"y": 0.8392556035,
				"z": 1.5350674023,
				"element": "H" 
			},
			{
				"x": -1.644460384,
				"y": -0.8086566803,
				"z": 1.8232250289,
				"element": "H" 
			},
			{
				"x": -2.2061837413,
				"y": -2.2517233677,
				"z": -0.0515155263,
				"element": "H" 
			},
			{
				"x": -2.4557815629,
				"y": -2.5795489073,
				"z": -2.4938917807,
				"element": "H" 
			},
			{
				"x": -1.5370319893,
				"y": -0.8976078709,
				"z": -4.0779246564,
				"element": "H" 
			},
			{
				"x": -0.3690706288,
				"y": 1.1145512196,
				"z": -3.1981101997,
				"element": "H" 
			},
			{
				"x": -0.1155851798,
				"y": 1.4346704882,
				"z": -0.7576048487,
				"element": "H" 
			}
		],
		 "valence_orbital": [ 
			{
				"type": "occ",
				"energy": -0.27202,
				"method": "rhf"
			},
			{
				"type": "occ",
				"energy": -0.25781,
				"method": "rhf"
			},
			{
				"type": "occ",
				"energy": -0.25389,
				"method": "rhf"
			},
			{
				"type": "occ",
				"energy": -0.24769,
				"method": "rhf"
			},
			{
				"type": "occ",
				"energy": -0.22323,
				"method": "rhf"
			},
			{
				"type": "unocc",
				"energy": -0.01193,
				"method": "rhf"
			},
			{
				"type": "unocc",
				"energy": -0.00838,
				"method": "rhf"
			},
			{
				"type": "unocc",
				"energy": 0.0242,
				"method": "rhf"
			},
			{
				"type": "unocc",
				"energy": 0.06855,
				"method": "rhf"
			},
			{
				"type": "unocc",
				"energy": 0.08586,
				"method": "rhf"
			}
		],
		"cosmo_sigma_profile": { 
			"-0.025": 0.0,
			"-0.024": 0.0,
			"-0.023": 0.0,
			"-0.022": 0.0,
			"-0.021": 0.0,
			"-0.02": 0.0,
			"-0.019": 0.0,
			"-0.018": 0.0,
			"-0.017": 0.0,
			"-0.016": 0.0,
			"-0.015": 0.0223797105257,
			"-0.014": 1.1224867485,
			"-0.013": 2.28155564871,
			"-0.012": 2.06760655897,
			"-0.011": 3.03284869045,
			"-0.01": 3.70704089048,
			"-0.009": 3.36626701189,
			"-0.008": 3.16332228751,
			"-0.007": 3.62229059448,
			"-0.006": 6.67048909643,
			"-0.005": 16.8909371515,
			"-0.004": 20.8409698949,
			"-0.003": 21.292936839,
			"-0.002": 16.2002903752,
			"-0.001": 13.7814673067,
			"0.0": 11.4359261423,
			"0.001": 10.1790552173,
			"0.002": 9.84709764242,
			"0.003": 10.1496672657,
			"0.004": 10.4647401357,
			"0.005": 10.6529355888,
			"0.006": 10.115816018,
			"0.007": 4.31879692009,
			"0.008": 2.47365110678,
			"0.009": 1.74363003343,
			"0.01": 1.69636221857,
			"0.011": 2.75320783415,
			"0.012": 2.49027627785,
			"0.013": 5.98249158277,
			"0.014": 4.70795947039,
			"0.015": 1.15048029801,
			"0.016": 0.845514863896,
			"0.017": 0.248236492516,
			"0.018": 0.0,
			"0.019": 0.0,
			"0.02": 0.0,
			"0.021": 0.0,
			"0.022": 0.0,
			"0.023": 0.0,
			"0.024": 0.0,
			"0.025": 0.0
		}
	}
}
