{
	 "smiles": "O=C1C(=C(C(=C1C1=CC=CC=C1)C1=CC=CC=C1)C1=CC=CC=C1)C1=CC=CC=C1", 
	 "Tm": 493.15, 
	 "num_atms": 50, 
	 "gaussian": { 
		 "optdone": 1, 
		 "sigma_profile": "yes", 
		 "theory": "DFT", 
		 "functional": "B3LYP", 
		 "basiset": "6-31G**", 
		 "properties": { 
			 "R2extent": 12340.6746, 
			 "electric_dipole_moment_norm": 3.66361378559, 
			 "electric_quadrupole_moment_norm": 8.74304869139, 
			 "total_energy": -1192.3451327, 
			 "HOMO_LUMO_gap": 0.09969, 
			 "cosmo_polarized_energy": -11.92, 
			 "cosmo_cavitation_energy": 53.45, 
			 "cosmo_dispersion_energy": -35.18, 
			 "cosmo_repulsion_energy": 2.67, 
			 "cosmo_total_nonelectrostatic_energy": 20.93, 
			 "SMD_solvation_energy": 8.79 
		},
		"coords": [
			{
				"x": 1.3296870406,
				"y": 2.4337260779,
				"z": 1.8155174448,
				"element": "O" 
			},
			{
				"x": 0.7478893541,
				"y": 1.4673116506,
				"z": 1.3582943969,
				"element": "C" 
			},
			{
				"x": 1.0051799081,
				"y": 0.8211975957,
				"z": 0.0151113995,
				"element": "C" 
			},
			{
				"x": 0.1326239861,
				"y": -0.216605492,
				"z": -0.0883308704,
				"element": "C" 
			},
			{
				"x": -0.7152885544,
				"y": -0.3022072929,
				"z": 1.1716449847,
				"element": "C" 
			},
			{
				"x": -0.3644461466,
				"y": 0.6928096283,
				"z": 2.0295133116,
				"element": "C" 
			},
			{
				"x": -0.9421330505,
				"y": 1.1073531121,
				"z": 3.316130644,
				"element": "C" 
			},
			{
				"x": -2.3288199039,
				"y": 1.0412837391,
				"z": 3.5545964621,
				"element": "C" 
			},
			{
				"x": -2.8636556393,
				"y": 1.4519502299,
				"z": 4.7725994831,
				"element": "C" 
			},
			{
				"x": -2.0284672512,
				"y": 1.9421573237,
				"z": 5.7800168531,
				"element": "C" 
			},
			{
				"x": -0.6538663241,
				"y": 2.0248398842,
				"z": 5.5534931724,
				"element": "C" 
			},
			{
				"x": -0.113743483,
				"y": 1.6170632582,
				"z": 4.3346423159,
				"element": "C" 
			},
			{
				"x": -1.7459083889,
				"y": -1.339114698,
				"z": 1.3852696077,
				"element": "C" 
			},
			{
				"x": -2.7552874717,
				"y": -1.5725914387,
				"z": 0.4345692265,
				"element": "C" 
			},
			{
				"x": -3.7333089159,
				"y": -2.5407763353,
				"z": 0.660310163,
				"element": "C" 
			},
			{
				"x": -3.7094794856,
				"y": -3.3060496222,
				"z": 1.8276189085,
				"element": "C" 
			},
			{
				"x": -2.7040268431,
				"y": -3.0924946268,
				"z": 2.773853036,
				"element": "C" 
			},
			{
				"x": -1.7343795454,
				"y": -2.1155727399,
				"z": 2.5581954636,
				"element": "C" 
			},
			{
				"x": -0.0175157614,
				"y": -1.1425395003,
				"z": -1.2299044819,
				"element": "C" 
			},
			{
				"x": -0.1938289011,
				"y": -0.6374458623,
				"z": -2.5308534283,
				"element": "C" 
			},
			{
				"x": -0.3307730684,
				"y": -1.5002823916,
				"z": -3.6161631495,
				"element": "C" 
			},
			{
				"x": -0.2840645328,
				"y": -2.8834437711,
				"z": -3.4249088516,
				"element": "C" 
			},
			{
				"x": -0.1074924702,
				"y": -3.3974236946,
				"z": -2.1390330317,
				"element": "C" 
			},
			{
				"x": 0.0145210649,
				"y": -2.536555831,
				"z": -1.0486724735,
				"element": "C" 
			},
			{
				"x": 2.0955130629,
				"y": 1.2582781715,
				"z": -0.8686890948,
				"element": "C" 
			},
			{
				"x": 2.8835502267,
				"y": 0.3307381928,
				"z": -1.5778010301,
				"element": "C" 
			},
			{
				"x": 3.923128545,
				"y": 0.7583678115,
				"z": -2.3991603624,
				"element": "C" 
			},
			{
				"x": 4.2039913786,
				"y": 2.1210415722,
				"z": -2.529396516,
				"element": "C" 
			},
			{
				"x": 3.4393910301,
				"y": 3.0508598334,
				"z": -1.8233538489,
				"element": "C" 
			},
			{
				"x": 2.3988070278,
				"y": 2.6274967661,
				"z": -0.9977831864,
				"element": "C" 
			},
			{
				"x": -2.9874173284,
				"y": 0.6776592897,
				"z": 2.7734141568,
				"element": "H" 
			},
			{
				"x": -3.9367495991,
				"y": 1.3965223451,
				"z": 4.9331619553,
				"element": "H" 
			},
			{
				"x": -2.4472461751,
				"y": 2.2624999116,
				"z": 6.7297931631,
				"element": "H" 
			},
			{
				"x": 0.0035331346,
				"y": 2.4102644753,
				"z": 6.3277707358,
				"element": "H" 
			},
			{
				"x": 0.9528959042,
				"y": 1.6963188155,
				"z": 4.1626745484,
				"element": "H" 
			},
			{
				"x": -2.7781071884,
				"y": -0.9861079834,
				"z": -0.4781018805,
				"element": "H" 
			},
			{
				"x": -4.5117447435,
				"y": -2.6999549551,
				"z": -0.0802971774,
				"element": "H" 
			},
			{
				"x": -4.4673307489,
				"y": -4.0652242185,
				"z": 1.9982151373,
				"element": "H" 
			},
			{
				"x": -2.6753926146,
				"y": -3.6867921602,
				"z": 3.682626289,
				"element": "H" 
			},
			{
				"x": -0.9571609819,
				"y": -1.946999854,
				"z": 3.2966745858,
				"element": "H" 
			},
			{
				"x": -0.2245911992,
				"y": 0.4368732071,
				"z": -2.6816041169,
				"element": "H" 
			},
			{
				"x": -0.4725831353,
				"y": -1.0921019268,
				"z": -4.6127352987,
				"element": "H" 
			},
			{
				"x": -0.3869890028,
				"y": -3.5554567746,
				"z": -4.272016547,
				"element": "H" 
			},
			{
				"x": -0.0695167861,
				"y": -4.4714639207,
				"z": -1.981558071,
				"element": "H" 
			},
			{
				"x": 0.1457482471,
				"y": -2.9446390244,
				"z": -0.0518194908,
				"element": "H" 
			},
			{
				"x": 2.684257268,
				"y": -0.7299573458,
				"z": -1.47099993,
				"element": "H" 
			},
			{
				"x": 4.5210582588,
				"y": 0.0251416587,
				"z": -2.9332432673,
				"element": "H" 
			},
			{
				"x": 5.0156760398,
				"y": 2.4532168933,
				"z": -3.1704091926,
				"element": "H" 
			},
			{
				"x": 3.653395464,
				"y": 4.1122023408,
				"z": -1.9127205746,
				"element": "H" 
			},
			{
				"x": 1.8183682993,
				"y": 3.3552276764,
				"z": -0.4436515727,
				"element": "H" 
			}
		],
		 "valence_orbital": [ 
			{
				"type": "occ",
				"energy": -0.24584,
				"method": "rhf"
			},
			{
				"type": "occ",
				"energy": -0.24347,
				"method": "rhf"
			},
			{
				"type": "occ",
				"energy": -0.24016,
				"method": "rhf"
			},
			{
				"type": "occ",
				"energy": -0.23246,
				"method": "rhf"
			},
			{
				"type": "occ",
				"energy": -0.19909,
				"method": "rhf"
			},
			{
				"type": "unocc",
				"energy": -0.0994,
				"method": "rhf"
			},
			{
				"type": "unocc",
				"energy": -0.02454,
				"method": "rhf"
			},
			{
				"type": "unocc",
				"energy": -0.01332,
				"method": "rhf"
			},
			{
				"type": "unocc",
				"energy": -0.00796,
				"method": "rhf"
			},
			{
				"type": "unocc",
				"energy": -0.00321,
				"method": "rhf"
			}
		],
		"cosmo_sigma_profile": { 
			"-0.025": 0.0,
			"-0.024": 0.0,
			"-0.023": 0.0,
			"-0.022": 0.0,
			"-0.021": 0.0,
			"-0.02": 0.0,
			"-0.019": 0.0,
			"-0.018": 0.0,
			"-0.017": 0.0,
			"-0.016": 0.0,
			"-0.015": 0.0,
			"-0.014": 0.0,
			"-0.013": 0.0,
			"-0.012": 0.0,
			"-0.011": 0.0,
			"-0.01": 0.0,
			"-0.009": 0.0,
			"-0.008": 0.0,
			"-0.007": 0.285213621501,
			"-0.006": 17.9625286167,
			"-0.005": 35.0570602464,
			"-0.004": 44.1505222255,
			"-0.003": 41.270319982,
			"-0.002": 35.0039624425,
			"-0.001": 36.587075614,
			"0.0": 31.9481142327,
			"0.001": 32.5346427732,
			"0.002": 28.9545605541,
			"0.003": 29.5274459258,
			"0.004": 36.0241461956,
			"0.005": 33.5302856355,
			"0.006": 13.0548767964,
			"0.007": 3.17661915345,
			"0.008": 1.99595438043,
			"0.009": 2.86183688756,
			"0.01": 3.28078830008,
			"0.011": 2.55573497473,
			"0.012": 0.0,
			"0.013": 0.0,
			"0.014": 0.0,
			"0.015": 0.0,
			"0.016": 0.0,
			"0.017": 0.0,
			"0.018": 0.0,
			"0.019": 0.0,
			"0.02": 0.0,
			"0.021": 0.0,
			"0.022": 0.0,
			"0.023": 0.0,
			"0.024": 0.0,
			"0.025": 0.0
		}
	}
}
