{
	 "smiles": "CC1=NN(CC2=CC=CC=C2)C(Cl)=C1C(O)=O", 
	 "Tm": 454.15, 
	 "num_atms": 28, 
	 "gaussian": { 
		 "optdone": 1, 
		 "sigma_profile": "yes", 
		 "theory": "DFT", 
		 "functional": "B3LYP", 
		 "basiset": "6-31G**", 
		 "properties": { 
			 "R2extent": 5374.0911, 
			 "electric_dipole_moment_norm": 5.57950736983, 
			 "electric_quadrupole_moment_norm": 27.5686483963, 
			 "total_energy": -1184.04456676, 
			 "HOMO_LUMO_gap": 0.2231, 
			 "cosmo_polarized_energy": -14.73, 
			 "cosmo_cavitation_energy": 34.22, 
			 "cosmo_dispersion_energy": -24.23, 
			 "cosmo_repulsion_energy": 1.88, 
			 "cosmo_total_nonelectrostatic_energy": 11.87, 
			 "SMD_solvation_energy": 5.73 
		},
		"coords": [
			{
				"x": 1.0012651366,
				"y": 2.0462049388,
				"z": 3.2018403747,
				"element": "C" 
			},
			{
				"x": 0.8526499379,
				"y": 0.8194980272,
				"z": 2.3604914157,
				"element": "C" 
			},
			{
				"x": 1.1796886826,
				"y": 0.8453695003,
				"z": 1.0717812924,
				"element": "N" 
			},
			{
				"x": 0.9450313562,
				"y": -0.4098899782,
				"z": 0.5968994459,
				"element": "N" 
			},
			{
				"x": 1.1384671945,
				"y": -0.6883420246,
				"z": -0.8268402579,
				"element": "C" 
			},
			{
				"x": -0.1228850068,
				"y": -0.5274221896,
				"z": -1.6560609988,
				"element": "C" 
			},
			{
				"x": -0.8357140164,
				"y": 0.6791863611,
				"z": -1.6356238464,
				"element": "C" 
			},
			{
				"x": -1.9798134439,
				"y": 0.8311591235,
				"z": -2.4171659348,
				"element": "C" 
			},
			{
				"x": -2.4201164204,
				"y": -0.2161140996,
				"z": -3.2314847998,
				"element": "C" 
			},
			{
				"x": -1.7127086918,
				"y": -1.4178284139,
				"z": -3.258054618,
				"element": "C" 
			},
			{
				"x": -0.570153611,
				"y": -1.5728645338,
				"z": -2.4696654208,
				"element": "C" 
			},
			{
				"x": 0.4659896292,
				"y": -1.2113632539,
				"z": 1.5710190023,
				"element": "C" 
			},
			{
				"x": 0.075202145,
				"y": -2.871657489,
				"z": 1.2598074706,
				"element": "Cl" 
			},
			{
				"x": 0.387284145,
				"y": -0.4741415982,
				"z": 2.750729234,
				"element": "C" 
			},
			{
				"x": -0.0417016136,
				"y": -0.8369652217,
				"z": 4.1178312498,
				"element": "C" 
			},
			{
				"x": -0.460923278,
				"y": -2.1072176581,
				"z": 4.3418935559,
				"element": "O" 
			},
			{
				"x": -0.0298774211,
				"y": -0.0401486316,
				"z": 5.0308481549,
				"element": "O" 
			},
			{
				"x": 0.0438574564,
				"y": 2.3359707822,
				"z": 3.6430669737,
				"element": "H" 
			},
			{
				"x": 1.6832605101,
				"y": 1.8671244582,
				"z": 4.0373510134,
				"element": "H" 
			},
			{
				"x": 1.3836342249,
				"y": 2.8623902624,
				"z": 2.584899148,
				"element": "H" 
			},
			{
				"x": 1.5380741625,
				"y": -1.7003676672,
				"z": -0.9273356711,
				"element": "H" 
			},
			{
				"x": 1.9126010607,
				"y": 0.0146277618,
				"z": -1.1442837805,
				"element": "H" 
			},
			{
				"x": -0.4915696014,
				"y": 1.4911208296,
				"z": -1.0012782372,
				"element": "H" 
			},
			{
				"x": -2.5274016039,
				"y": 1.768892103,
				"z": -2.393726862,
				"element": "H" 
			},
			{
				"x": -3.3108263924,
				"y": -0.0945453645,
				"z": -3.840983093,
				"element": "H" 
			},
			{
				"x": -2.0505043049,
				"y": -2.2369843981,
				"z": -3.8861754955,
				"element": "H" 
			},
			{
				"x": -0.0239076684,
				"y": -2.5128353682,
				"z": -2.4885803385,
				"element": "H" 
			},
			{
				"x": -0.4267025676,
				"y": -2.6430562578,
				"z": 3.5353010231,
				"element": "H" 
			}
		],
		 "valence_orbital": [ 
			{
				"type": "occ",
				"energy": -0.27063,
				"method": "rhf"
			},
			{
				"type": "occ",
				"energy": -0.26741,
				"method": "rhf"
			},
			{
				"type": "occ",
				"energy": -0.26399,
				"method": "rhf"
			},
			{
				"type": "occ",
				"energy": -0.26281,
				"method": "rhf"
			},
			{
				"type": "occ",
				"energy": -0.25632,
				"method": "rhf"
			},
			{
				"type": "unocc",
				"energy": -0.03322,
				"method": "rhf"
			},
			{
				"type": "unocc",
				"energy": -0.02056,
				"method": "rhf"
			},
			{
				"type": "unocc",
				"energy": -0.01341,
				"method": "rhf"
			},
			{
				"type": "unocc",
				"energy": 0.00079,
				"method": "rhf"
			},
			{
				"type": "unocc",
				"energy": 0.00971,
				"method": "rhf"
			}
		],
		"cosmo_sigma_profile": { 
			"-0.025": 0.0,
			"-0.024": 0.0,
			"-0.023": 0.0,
			"-0.022": 0.0,
			"-0.021": 0.0,
			"-0.02": 0.0,
			"-0.019": 0.0,
			"-0.018": 0.0,
			"-0.017": 0.0,
			"-0.016": 0.0,
			"-0.015": 0.0,
			"-0.014": 0.0,
			"-0.013": 0.216302726534,
			"-0.012": 1.11545048853,
			"-0.011": 1.26374603454,
			"-0.01": 2.27192420312,
			"-0.009": 1.54528276408,
			"-0.008": 2.73962665727,
			"-0.007": 7.15060288985,
			"-0.006": 13.0196730427,
			"-0.005": 19.1481259161,
			"-0.004": 23.6825362365,
			"-0.003": 21.168274139,
			"-0.002": 21.5123996952,
			"-0.001": 26.3181698142,
			"0.0": 25.9017566712,
			"0.001": 19.6101596827,
			"0.002": 15.1863488769,
			"0.003": 12.3229540913,
			"0.004": 12.9275581676,
			"0.005": 13.1411209767,
			"0.006": 5.62387613569,
			"0.007": 3.51146205219,
			"0.008": 4.13476466498,
			"0.009": 4.08713572697,
			"0.01": 4.44446996772,
			"0.011": 5.43752644016,
			"0.012": 5.24498612259,
			"0.013": 2.51731671067,
			"0.014": 0.610363610042,
			"0.015": 0.0,
			"0.016": 0.0,
			"0.017": 0.0,
			"0.018": 0.0,
			"0.019": 0.0,
			"0.02": 0.0,
			"0.021": 0.0,
			"0.022": 0.0,
			"0.023": 0.0,
			"0.024": 0.0,
			"0.025": 0.0
		}
	}
}
