{
	 "smiles": "CC(C)NC1=CN=CC=C1", 
	 "Tm": 314.15, 
	 "num_atms": 22, 
	 "gaussian": { 
		 "optdone": 1, 
		 "sigma_profile": "yes", 
		 "theory": "DFT", 
		 "functional": "B3LYP", 
		 "basiset": "6-31G**", 
		 "properties": { 
			 "R2extent": 2733.3686, 
			 "electric_dipole_moment_norm": 3.51265342014, 
			 "electric_quadrupole_moment_norm": 14.3888180314, 
			 "total_energy": -421.583553579, 
			 "HOMO_LUMO_gap": 0.18894, 
			 "cosmo_polarized_energy": -9.28, 
			 "cosmo_cavitation_energy": 24.17, 
			 "cosmo_dispersion_energy": -17.81, 
			 "cosmo_repulsion_energy": 1.45, 
			 "cosmo_total_nonelectrostatic_energy": 7.81, 
			 "SMD_solvation_energy": 2.35 
		},
		"coords": [
			{
				"x": 1.0945823627,
				"y": -0.4700771032,
				"z": 1.5125880011,
				"element": "C" 
			},
			{
				"x": -0.0617666496,
				"y": -1.4442358162,
				"z": 1.2328867291,
				"element": "C" 
			},
			{
				"x": -1.4027033193,
				"y": -0.7229851368,
				"z": 1.0104766965,
				"element": "C" 
			},
			{
				"x": 0.2663250009,
				"y": -2.422900018,
				"z": 0.1839686826,
				"element": "N" 
			},
			{
				"x": 0.2701369712,
				"y": -2.2073256407,
				"z": -1.1869799228,
				"element": "C" 
			},
			{
				"x": 0.1529441672,
				"y": -3.3249495479,
				"z": -2.047963932,
				"element": "C" 
			},
			{
				"x": 0.1884984585,
				"y": -3.2701311476,
				"z": -3.3746403641,
				"element": "N" 
			},
			{
				"x": 0.3392481652,
				"y": -2.0677671091,
				"z": -3.9503428883,
				"element": "C" 
			},
			{
				"x": 0.4597710016,
				"y": -0.8976078623,
				"z": -3.2051164996,
				"element": "C" 
			},
			{
				"x": 0.4283347393,
				"y": -0.9582572136,
				"z": -1.8128040278,
				"element": "C" 
			},
			{
				"x": 0.8860842427,
				"y": 0.1048841052,
				"z": 2.4209433005,
				"element": "H" 
			},
			{
				"x": 2.0281059046,
				"y": -1.0205997288,
				"z": 1.6567324726,
				"element": "H" 
			},
			{
				"x": 1.2473176825,
				"y": 0.2459257091,
				"z": 0.700609862,
				"element": "H" 
			},
			{
				"x": -0.1705676893,
				"y": -2.0568234522,
				"z": 2.1361377017,
				"element": "H" 
			},
			{
				"x": -1.6320215194,
				"y": -0.076557006,
				"z": 1.8640334947,
				"element": "H" 
			},
			{
				"x": -1.3869553216,
				"y": -0.0988963571,
				"z": 0.1129035221,
				"element": "H" 
			},
			{
				"x": -2.2173238664,
				"y": -1.4456399722,
				"z": 0.9013129338,
				"element": "H" 
			},
			{
				"x": 0.0005217633,
				"y": -3.3670550456,
				"z": 0.4254459216,
				"element": "H" 
			},
			{
				"x": 0.0266630553,
				"y": -4.3166183385,
				"z": -1.6080302804,
				"element": "H" 
			},
			{
				"x": 0.3620515961,
				"y": -2.0470324468,
				"z": -5.0374783126,
				"element": "H" 
			},
			{
				"x": 0.580430478,
				"y": 0.0594095181,
				"z": -3.7045211641,
				"element": "H" 
			},
			{
				"x": 0.5325227766,
				"y": -0.0503603897,
				"z": -1.2324619263,
				"element": "H" 
			}
		],
		 "valence_orbital": [ 
			{
				"type": "occ",
				"energy": -0.34081,
				"method": "rhf"
			},
			{
				"type": "occ",
				"energy": -0.30789,
				"method": "rhf"
			},
			{
				"type": "occ",
				"energy": -0.26699,
				"method": "rhf"
			},
			{
				"type": "occ",
				"energy": -0.24108,
				"method": "rhf"
			},
			{
				"type": "occ",
				"energy": -0.19913,
				"method": "rhf"
			},
			{
				"type": "unocc",
				"energy": -0.01019,
				"method": "rhf"
			},
			{
				"type": "unocc",
				"energy": 0.01372,
				"method": "rhf"
			},
			{
				"type": "unocc",
				"energy": 0.06575,
				"method": "rhf"
			},
			{
				"type": "unocc",
				"energy": 0.08814,
				"method": "rhf"
			},
			{
				"type": "unocc",
				"energy": 0.11828,
				"method": "rhf"
			}
		],
		"cosmo_sigma_profile": { 
			"-0.025": 0.0,
			"-0.024": 0.0,
			"-0.023": 0.0,
			"-0.022": 0.0,
			"-0.021": 0.0,
			"-0.02": 0.0,
			"-0.019": 0.0,
			"-0.018": 0.0,
			"-0.017": 0.0,
			"-0.016": 0.0,
			"-0.015": 0.0,
			"-0.014": 0.0,
			"-0.013": 0.391365580163,
			"-0.012": 1.46623993691,
			"-0.011": 1.35143429698,
			"-0.01": 1.92436811419,
			"-0.009": 1.2356178316,
			"-0.008": 1.0641921682,
			"-0.007": 3.21098940249,
			"-0.006": 6.82990226354,
			"-0.005": 10.1327144587,
			"-0.004": 11.9521145176,
			"-0.003": 19.6320504611,
			"-0.002": 17.5523729191,
			"-0.001": 18.1318350002,
			"0.0": 17.7809389788,
			"0.001": 18.1544270355,
			"0.002": 9.58795590266,
			"0.003": 9.40271829731,
			"0.004": 13.5053739039,
			"0.005": 7.64903926357,
			"0.006": 3.97770900459,
			"0.007": 2.90898864292,
			"0.008": 1.77192997613,
			"0.009": 2.73190790454,
			"0.01": 1.26358449429,
			"0.011": 0.809921860973,
			"0.012": 0.907937606539,
			"0.013": 1.30396462987,
			"0.014": 1.05591262125,
			"0.015": 1.18052661329,
			"0.016": 0.497559217563,
			"0.017": 0.949765179748,
			"0.018": 0.112883507596,
			"0.019": 0.0,
			"0.02": 0.0,
			"0.021": 0.0,
			"0.022": 0.0,
			"0.023": 0.0,
			"0.024": 0.0,
			"0.025": 0.0
		}
	}
}
