{
	 "smiles": "COC(=O)C1=CC=C(C=C1)C(N)=O", 
	 "Tm": 479.15, 
	 "num_atms": 22, 
	 "gaussian": { 
		 "optdone": 1, 
		 "sigma_profile": "yes", 
		 "theory": "DFT", 
		 "functional": "B3LYP", 
		 "basiset": "6-31G**", 
		 "properties": { 
			 "R2extent": 3991.3551, 
			 "electric_dipole_moment_norm": 2.07318994306, 
			 "electric_quadrupole_moment_norm": 24.1814916705, 
			 "total_energy": -628.835148949, 
			 "HOMO_LUMO_gap": 0.18865, 
			 "cosmo_polarized_energy": -15.81, 
			 "cosmo_cavitation_energy": 27.11, 
			 "cosmo_dispersion_energy": -19.94, 
			 "cosmo_repulsion_energy": 1.58, 
			 "cosmo_total_nonelectrostatic_energy": 8.75, 
			 "SMD_solvation_energy": 7.08 
		},
		"coords": [
			{
				"x": 4.6917613765,
				"y": 1.9430960686,
				"z": -0.5271637289,
				"element": "C" 
			},
			{
				"x": 3.4276020291,
				"y": 1.4712786034,
				"z": -1.0193488492,
				"element": "O" 
			},
			{
				"x": 2.832507568,
				"y": 0.5231137451,
				"z": -0.2623772298,
				"element": "C" 
			},
			{
				"x": 3.3191481764,
				"y": 0.0877041292,
				"z": 0.7631881729,
				"element": "O" 
			},
			{
				"x": 1.5250841262,
				"y": 0.0795298256,
				"z": -0.8283439072,
				"element": "C" 
			},
			{
				"x": 0.9979075106,
				"y": 0.6088413639,
				"z": -2.0152636789,
				"element": "C" 
			},
			{
				"x": -0.227278843,
				"y": 0.156182341,
				"z": -2.4929908308,
				"element": "C" 
			},
			{
				"x": -0.9368742019,
				"y": -0.8366399168,
				"z": -1.8044830079,
				"element": "C" 
			},
			{
				"x": -0.4125525509,
				"y": -1.3535507856,
				"z": -0.6103113738,
				"element": "C" 
			},
			{
				"x": 0.8098558229,
				"y": -0.8986637414,
				"z": -0.1258617669,
				"element": "C" 
			},
			{
				"x": -2.2526730799,
				"y": -1.274786403,
				"z": -2.38947708,
				"element": "C" 
			},
			{
				"x": -2.7508589697,
				"y": -2.4720773038,
				"z": -1.9364952615,
				"element": "N" 
			},
			{
				"x": -2.8539628234,
				"y": -0.5912818659,
				"z": -3.2084319676,
				"element": "O" 
			},
			{
				"x": 4.5766710492,
				"y": 2.3859703544,
				"z": 0.4652343434,
				"element": "H" 
			},
			{
				"x": 5.4105962252,
				"y": 1.1223043572,
				"z": -0.4649140591,
				"element": "H" 
			},
			{
				"x": 5.0255382202,
				"y": 2.6919482975,
				"z": -1.2451901515,
				"element": "H" 
			},
			{
				"x": 1.5497400573,
				"y": 1.3712506399,
				"z": -2.5526239562,
				"element": "H" 
			},
			{
				"x": -0.6608507161,
				"y": 0.5589004214,
				"z": -3.4018301485,
				"element": "H" 
			},
			{
				"x": -0.9708662774,
				"y": -2.0863866562,
				"z": -0.0355169308,
				"element": "H" 
			},
			{
				"x": 1.2265145512,
				"y": -1.2825864153,
				"z": 0.7989880181,
				"element": "H" 
			},
			{
				"x": -3.5717732272,
				"y": -2.8100639499,
				"z": -2.4178664385,
				"element": "H" 
			},
			{
				"x": -2.1394360231,
				"y": -3.1638831096,
				"z": -1.5324201674,
				"element": "H" 
			}
		],
		 "valence_orbital": [ 
			{
				"type": "occ",
				"energy": -0.27937,
				"method": "rhf"
			},
			{
				"type": "occ",
				"energy": -0.27727,
				"method": "rhf"
			},
			{
				"type": "occ",
				"energy": -0.26809,
				"method": "rhf"
			},
			{
				"type": "occ",
				"energy": -0.2663,
				"method": "rhf"
			},
			{
				"type": "occ",
				"energy": -0.25408,
				"method": "rhf"
			},
			{
				"type": "unocc",
				"energy": -0.06543,
				"method": "rhf"
			},
			{
				"type": "unocc",
				"energy": -0.01632,
				"method": "rhf"
			},
			{
				"type": "unocc",
				"energy": 0.01613,
				"method": "rhf"
			},
			{
				"type": "unocc",
				"energy": 0.06866,
				"method": "rhf"
			},
			{
				"type": "unocc",
				"energy": 0.08572,
				"method": "rhf"
			}
		],
		"cosmo_sigma_profile": { 
			"-0.025": 0.0,
			"-0.024": 0.0,
			"-0.023": 0.0,
			"-0.022": 0.0,
			"-0.021": 0.0,
			"-0.02": 0.0,
			"-0.019": 0.0,
			"-0.018": 0.0,
			"-0.017": 0.0,
			"-0.016": 0.0,
			"-0.015": 0.283292668166,
			"-0.014": 2.15874466426,
			"-0.013": 2.51747805258,
			"-0.012": 2.60091956766,
			"-0.011": 1.9555525,
			"-0.01": 2.48853508812,
			"-0.009": 3.17627524123,
			"-0.008": 2.6197119334,
			"-0.007": 3.76834331123,
			"-0.006": 12.1376637355,
			"-0.005": 13.7749337729,
			"-0.004": 13.7766834694,
			"-0.003": 17.6408990213,
			"-0.002": 12.8298326809,
			"-0.001": 14.3112116761,
			"0.0": 15.2387968469,
			"0.001": 15.3387194973,
			"0.002": 19.5612030052,
			"0.003": 13.044217757,
			"0.004": 4.86479139864,
			"0.005": 4.98987366641,
			"0.006": 5.85144287965,
			"0.007": 2.74187142651,
			"0.008": 3.48238747503,
			"0.009": 1.91629120361,
			"0.01": 4.28784689381,
			"0.011": 5.46639187125,
			"0.012": 6.06824883992,
			"0.013": 5.31976139995,
			"0.014": 2.03268140251,
			"0.015": 0.0132989616052,
			"0.016": 0.0,
			"0.017": 0.0,
			"0.018": 0.0,
			"0.019": 0.0,
			"0.02": 0.0,
			"0.021": 0.0,
			"0.022": 0.0,
			"0.023": 0.0,
			"0.024": 0.0,
			"0.025": 0.0
		}
	}
}
