{
	 "smiles": "CC1=CC(N)=CN=C1", 
	 "Tm": 334.15, 
	 "num_atms": 16, 
	 "gaussian": { 
		 "optdone": 1, 
		 "sigma_profile": "yes", 
		 "theory": "DFT", 
		 "functional": "B3LYP", 
		 "basiset": "6-31G**", 
		 "properties": { 
			 "R2extent": 1662.342, 
			 "electric_dipole_moment_norm": 3.28851569709, 
			 "electric_quadrupole_moment_norm": 12.6588407167, 
			 "total_energy": -342.964989837, 
			 "HOMO_LUMO_gap": 0.196, 
			 "cosmo_polarized_energy": -10.79, 
			 "cosmo_cavitation_energy": 19.5, 
			 "cosmo_dispersion_energy": -14.65, 
			 "cosmo_repulsion_energy": 1.22, 
			 "cosmo_total_nonelectrostatic_energy": 6.07, 
			 "SMD_solvation_energy": 2.1 
		},
		"coords": [
			{
				"x": -1.6813712105,
				"y": -1.6275300673,
				"z": 0.1419222449,
				"element": "C" 
			},
			{
				"x": -1.3614103439,
				"y": -0.1691678184,
				"z": 0.3598630274,
				"element": "C" 
			},
			{
				"x": -2.3717773911,
				"y": 0.793293275,
				"z": 0.4296413758,
				"element": "C" 
			},
			{
				"x": -2.0434521468,
				"y": 2.1396813687,
				"z": 0.6310448392,
				"element": "C" 
			},
			{
				"x": -3.0141450017,
				"y": 3.1397759957,
				"z": 0.6494367635,
				"element": "N" 
			},
			{
				"x": -0.6764361254,
				"y": 2.4551905928,
				"z": 0.7583275593,
				"element": "C" 
			},
			{
				"x": 0.2979363785,
				"y": 1.5511823666,
				"z": 0.6952048586,
				"element": "N" 
			},
			{
				"x": -0.0397374632,
				"y": 0.2707012264,
				"z": 0.4998804082,
				"element": "C" 
			},
			{
				"x": -2.336899744,
				"y": -2.0159290355,
				"z": 0.9297958531,
				"element": "H" 
			},
			{
				"x": -0.7719645232,
				"y": -2.234596625,
				"z": 0.1347952266,
				"element": "H" 
			},
			{
				"x": -2.1957820561,
				"y": -1.7850738485,
				"z": -0.813072899,
				"element": "H" 
			},
			{
				"x": -3.4150961608,
				"y": 0.5005518118,
				"z": 0.3235707239,
				"element": "H" 
			},
			{
				"x": -2.7400705066,
				"y": 3.9949030977,
				"z": 1.1137426301,
				"element": "H" 
			},
			{
				"x": -3.939752739,
				"y": 2.8409122359,
				"z": 0.9241770692,
				"element": "H" 
			},
			{
				"x": -0.3752103696,
				"y": 3.4916617702,
				"z": 0.9161729764,
				"element": "H" 
			},
			{
				"x": 0.7803694034,
				"y": -0.4442563464,
				"z": 0.4540973428,
				"element": "H" 
			}
		],
		 "valence_orbital": [ 
			{
				"type": "occ",
				"energy": -0.35901,
				"method": "rhf"
			},
			{
				"type": "occ",
				"energy": -0.32503,
				"method": "rhf"
			},
			{
				"type": "occ",
				"energy": -0.25818,
				"method": "rhf"
			},
			{
				"type": "occ",
				"energy": -0.2415,
				"method": "rhf"
			},
			{
				"type": "occ",
				"energy": -0.20845,
				"method": "rhf"
			},
			{
				"type": "unocc",
				"energy": -0.01245,
				"method": "rhf"
			},
			{
				"type": "unocc",
				"energy": 0.01504,
				"method": "rhf"
			},
			{
				"type": "unocc",
				"energy": 0.07668,
				"method": "rhf"
			},
			{
				"type": "unocc",
				"energy": 0.10885,
				"method": "rhf"
			},
			{
				"type": "unocc",
				"energy": 0.12386,
				"method": "rhf"
			}
		],
		"cosmo_sigma_profile": { 
			"-0.025": 0.0,
			"-0.024": 0.0,
			"-0.023": 0.0,
			"-0.022": 0.0,
			"-0.021": 0.0,
			"-0.02": 0.0,
			"-0.019": 0.0,
			"-0.018": 0.0,
			"-0.017": 0.0,
			"-0.016": 0.0,
			"-0.015": 0.0,
			"-0.014": 0.0,
			"-0.013": 0.858337968271,
			"-0.012": 3.0075055625,
			"-0.011": 2.42877701032,
			"-0.01": 3.60845960375,
			"-0.009": 3.05471939672,
			"-0.008": 2.96101177024,
			"-0.007": 3.61929307432,
			"-0.006": 4.12541970907,
			"-0.005": 6.48988000295,
			"-0.004": 12.5363101449,
			"-0.003": 10.9478118827,
			"-0.002": 12.4506288644,
			"-0.001": 11.7694885494,
			"0.0": 11.2958422526,
			"0.001": 8.1202304409,
			"0.002": 6.89785185912,
			"0.003": 8.62201555171,
			"0.004": 12.4177675809,
			"0.005": 6.30062087078,
			"0.006": 3.91759853357,
			"0.007": 2.48459308371,
			"0.008": 2.43286301305,
			"0.009": 2.18789532023,
			"0.01": 1.8440655981,
			"0.011": 1.8248808186,
			"0.012": 1.85666906934,
			"0.013": 1.86594978178,
			"0.014": 1.17279380258,
			"0.015": 1.33585150682,
			"0.016": 0.681423668534,
			"0.017": 0.977286474533,
			"0.018": 0.124933874601,
			"0.019": 0.0,
			"0.02": 0.0,
			"0.021": 0.0,
			"0.022": 0.0,
			"0.023": 0.0,
			"0.024": 0.0,
			"0.025": 0.0
		}
	}
}
