{
	 "smiles": "CCCCCCCCCCC(=O)C1=CC=CC=C1", 
	 "Tm": 302.15, 
	 "num_atms": 44, 
	 "gaussian": { 
		 "optdone": 1, 
		 "sigma_profile": "yes", 
		 "theory": "DFT", 
		 "functional": "B3LYP", 
		 "basiset": "6-31G**", 
		 "properties": { 
			 "R2extent": 10220.3288, 
			 "electric_dipole_moment_norm": 2.72441221918, 
			 "electric_quadrupole_moment_norm": 14.7636465441, 
			 "total_energy": -738.736019645, 
			 "HOMO_LUMO_gap": 0.19233, 
			 "cosmo_polarized_energy": -7.74, 
			 "cosmo_cavitation_energy": 45.02, 
			 "cosmo_dispersion_energy": -31.15, 
			 "cosmo_repulsion_energy": 2.48, 
			 "cosmo_total_nonelectrostatic_energy": 16.34, 
			 "SMD_solvation_energy": 6.84 
		},
		"coords": [
			{
				"x": -4.948277882,
				"y": -2.6190116349,
				"z": 1.6920140695,
				"element": "C" 
			},
			{
				"x": -4.1747334685,
				"y": -1.7565321608,
				"z": 0.688446285,
				"element": "C" 
			},
			{
				"x": -5.0893361688,
				"y": -1.0948698243,
				"z": -0.3515104136,
				"element": "C" 
			},
			{
				"x": -4.3895091587,
				"y": -0.3048496749,
				"z": -1.4722079213,
				"element": "C" 
			},
			{
				"x": -3.587274293,
				"y": 0.939118603,
				"z": -1.0287209461,
				"element": "C" 
			},
			{
				"x": -2.0983408073,
				"y": 0.690471906,
				"z": -0.7394678992,
				"element": "C" 
			},
			{
				"x": -1.3542966858,
				"y": 1.9635755154,
				"z": -0.3113382022,
				"element": "C" 
			},
			{
				"x": 0.1614740261,
				"y": 1.7908075568,
				"z": -0.1205366736,
				"element": "C" 
			},
			{
				"x": 0.5510630438,
				"y": 0.8718042441,
				"z": 1.0471220807,
				"element": "C" 
			},
			{
				"x": 2.0635439615,
				"y": 0.787054719,
				"z": 1.2819193489,
				"element": "C" 
			},
			{
				"x": 2.8088236013,
				"y": -0.0400827353,
				"z": 0.236928791,
				"element": "C" 
			},
			{
				"x": 2.202165221,
				"y": -0.6545665648,
				"z": -0.6291725637,
				"element": "O" 
			},
			{
				"x": 4.3081805669,
				"y": -0.1073978515,
				"z": 0.3010490362,
				"element": "C" 
			},
			{
				"x": 5.0617987477,
				"y": 0.5434905073,
				"z": 1.2900818832,
				"element": "C" 
			},
			{
				"x": 6.4528489172,
				"y": 0.4391275998,
				"z": 1.3002056131,
				"element": "C" 
			},
			{
				"x": 7.1048206639,
				"y": -0.3142977165,
				"z": 0.3222524521,
				"element": "C" 
			},
			{
				"x": 6.3623892647,
				"y": -0.9664703332,
				"z": -0.6670548309,
				"element": "C" 
			},
			{
				"x": 4.9747745914,
				"y": -0.8642574011,
				"z": -0.6760680045,
				"element": "C" 
			},
			{
				"x": -5.6865112207,
				"y": -2.0225512791,
				"z": 2.2406953247,
				"element": "H" 
			},
			{
				"x": -4.2791635127,
				"y": -3.077543228,
				"z": 2.427678082,
				"element": "H" 
			},
			{
				"x": -5.4896168013,
				"y": -3.4265010283,
				"z": 1.1855697605,
				"element": "H" 
			},
			{
				"x": -3.6139013128,
				"y": -0.9881113798,
				"z": 1.2344787869,
				"element": "H" 
			},
			{
				"x": -3.4259755171,
				"y": -2.3746687373,
				"z": 0.1744705693,
				"element": "H" 
			},
			{
				"x": -5.7932301258,
				"y": -0.4276102647,
				"z": 0.1672761317,
				"element": "H" 
			},
			{
				"x": -5.7069258555,
				"y": -1.8761351412,
				"z": -0.8168738821,
				"element": "H" 
			},
			{
				"x": -3.7306894597,
				"y": -0.9789352826,
				"z": -2.0378638438,
				"element": "H" 
			},
			{
				"x": -5.1659849928,
				"y": 0.0125589361,
				"z": -2.1796022837,
				"element": "H" 
			},
			{
				"x": -4.0653096451,
				"y": 1.3853487367,
				"z": -0.144338418,
				"element": "H" 
			},
			{
				"x": -3.6527765701,
				"y": 1.7028954105,
				"z": -1.8152548793,
				"element": "H" 
			},
			{
				"x": -1.6227968284,
				"y": 0.2829138361,
				"z": -1.6427686487,
				"element": "H" 
			},
			{
				"x": -1.9898665608,
				"y": -0.0813440751,
				"z": 0.0302954532,
				"element": "H" 
			},
			{
				"x": -1.7974250922,
				"y": 2.3480060972,
				"z": 0.6193948261,
				"element": "H" 
			},
			{
				"x": -1.5248022438,
				"y": 2.7416081186,
				"z": -1.068276267,
				"element": "H" 
			},
			{
				"x": 0.609004363,
				"y": 2.7808871672,
				"z": 0.0471362565,
				"element": "H" 
			},
			{
				"x": 0.6028887184,
				"y": 1.4004377868,
				"z": -1.0448815057,
				"element": "H" 
			},
			{
				"x": 0.0769715401,
				"y": 1.2384108485,
				"z": 1.9671388485,
				"element": "H" 
			},
			{
				"x": 0.1700711209,
				"y": -0.13884957,
				"z": 0.8708700642,
				"element": "H" 
			},
			{
				"x": 2.2745289531,
				"y": 0.3362329908,
				"z": 2.2622893197,
				"element": "H" 
			},
			{
				"x": 2.5051942638,
				"y": 1.792082846,
				"z": 1.3217229541,
				"element": "H" 
			},
			{
				"x": 4.5696479144,
				"y": 1.1319332283,
				"z": 2.0573244793,
				"element": "H" 
			},
			{
				"x": 7.0271285114,
				"y": 0.9456569269,
				"z": 2.0704360074,
				"element": "H" 
			},
			{
				"x": 8.1882774696,
				"y": -0.3935268253,
				"z": 0.3306526776,
				"element": "H" 
			},
			{
				"x": 6.8682079724,
				"y": -1.5532496442,
				"z": -1.4284230504,
				"element": "H" 
			},
			{
				"x": 4.3763407702,
				"y": -1.3623612282,
				"z": -1.4314888678,
				"element": "H" 
			}
		],
		 "valence_orbital": [ 
			{
				"type": "occ",
				"energy": -0.29689,
				"method": "rhf"
			},
			{
				"type": "occ",
				"energy": -0.292,
				"method": "rhf"
			},
			{
				"type": "occ",
				"energy": -0.26061,
				"method": "rhf"
			},
			{
				"type": "occ",
				"energy": -0.25725,
				"method": "rhf"
			},
			{
				"type": "occ",
				"energy": -0.24639,
				"method": "rhf"
			},
			{
				"type": "unocc",
				"energy": -0.05406,
				"method": "rhf"
			},
			{
				"type": "unocc",
				"energy": -0.00899,
				"method": "rhf"
			},
			{
				"type": "unocc",
				"energy": 0.04045,
				"method": "rhf"
			},
			{
				"type": "unocc",
				"energy": 0.08721,
				"method": "rhf"
			},
			{
				"type": "unocc",
				"energy": 0.09,
				"method": "rhf"
			}
		],
		"cosmo_sigma_profile": { 
			"-0.025": 0.0,
			"-0.024": 0.0,
			"-0.023": 0.0,
			"-0.022": 0.0,
			"-0.021": 0.0,
			"-0.02": 0.0,
			"-0.019": 0.0,
			"-0.018": 0.0,
			"-0.017": 0.0,
			"-0.016": 0.0,
			"-0.015": 0.0,
			"-0.014": 0.0,
			"-0.013": 0.0,
			"-0.012": 0.0,
			"-0.011": 0.0,
			"-0.01": 0.0,
			"-0.009": 0.0,
			"-0.008": 0.0,
			"-0.007": 1.18577870909,
			"-0.006": 10.476379851,
			"-0.005": 16.8184230606,
			"-0.004": 14.9962415587,
			"-0.003": 15.3344959197,
			"-0.002": 35.2944049919,
			"-0.001": 61.2529767501,
			"0.0": 63.0233942764,
			"0.001": 50.9959600218,
			"0.002": 30.4899853705,
			"0.003": 13.4984511612,
			"0.004": 14.1745991308,
			"0.005": 6.22248041369,
			"0.006": 2.01109516283,
			"0.007": 1.71770707549,
			"0.008": 1.73797706856,
			"0.009": 2.24625150636,
			"0.01": 1.65713025288,
			"0.011": 2.61413895458,
			"0.012": 3.0848321481,
			"0.013": 1.0202879036,
			"0.014": 0.0,
			"0.015": 0.0,
			"0.016": 0.0,
			"0.017": 0.0,
			"0.018": 0.0,
			"0.019": 0.0,
			"0.02": 0.0,
			"0.021": 0.0,
			"0.022": 0.0,
			"0.023": 0.0,
			"0.024": 0.0,
			"0.025": 0.0
		}
	}
}
