{
	 "smiles": "CC(C)(C)N1C=C(C(O)=O)C(Br)=N1", 
	 "Tm": 437.15, 
	 "num_atms": 24, 
	 "gaussian": { 
		 "optdone": 1, 
		 "sigma_profile": "yes", 
		 "theory": "DFT", 
		 "functional": "B3LYP", 
		 "basiset": "6-31G**", 
		 "properties": { 
			 "R2extent": 5151.5893, 
			 "electric_dipole_moment_norm": 5.26522943565, 
			 "electric_quadrupole_moment_norm": 27.8165663977, 
			 "total_energy": -3142.83635735, 
			 "HOMO_LUMO_gap": 0.2332, 
			 "cosmo_polarized_energy": -13.38, 
			 "cosmo_cavitation_energy": 29.62, 
			 "cosmo_dispersion_energy": -21.39, 
			 "cosmo_repulsion_energy": 1.7, 
			 "cosmo_total_nonelectrostatic_energy": 9.93, 
			 "SMD_solvation_energy": 4.79 
		},
		"coords": [
			{
				"x": 3.1337836959,
				"y": -0.7967018578,
				"z": -1.2355642443,
				"element": "C" 
			},
			{
				"x": 2.0448296635,
				"y": -0.268801791,
				"z": -0.2840981768,
				"element": "C" 
			},
			{
				"x": 1.6615659261,
				"y": -1.3483683335,
				"z": 0.7346230099,
				"element": "C" 
			},
			{
				"x": 2.5184839509,
				"y": 1.0038980847,
				"z": 0.4408818625,
				"element": "C" 
			},
			{
				"x": 0.8422849113,
				"y": 0.0808915494,
				"z": -1.1010295397,
				"element": "N" 
			},
			{
				"x": 0.7734102868,
				"y": 0.9874018123,
				"z": -2.0990009883,
				"element": "C" 
			},
			{
				"x": -0.5290852091,
				"y": 0.992919418,
				"z": -2.5836187143,
				"element": "C" 
			},
			{
				"x": -0.9673245455,
				"y": 1.8746450424,
				"z": -3.6903995822,
				"element": "C" 
			},
			{
				"x": -2.2575361394,
				"y": 1.7965081164,
				"z": -4.0826321758,
				"element": "O" 
			},
			{
				"x": -0.2030680456,
				"y": 2.6418144319,
				"z": -4.2344316583,
				"element": "O" 
			},
			{
				"x": -1.1645363443,
				"y": 0.0189456936,
				"z": -1.7725201369,
				"element": "C" 
			},
			{
				"x": -2.9730972491,
				"y": -0.5416927204,
				"z": -1.8358946094,
				"element": "Br" 
			},
			{
				"x": -0.3521629451,
				"y": -0.5286409217,
				"z": -0.8862302756,
				"element": "N" 
			},
			{
				"x": 3.4293886807,
				"y": -0.0431072967,
				"z": -1.9715968722,
				"element": "H" 
			},
			{
				"x": 4.0242131895,
				"y": -1.0705656613,
				"z": -0.6620893499,
				"element": "H" 
			},
			{
				"x": 2.7830201158,
				"y": -1.6831097342,
				"z": -1.7716947348,
				"element": "H" 
			},
			{
				"x": 1.3046622892,
				"y": -2.2546656374,
				"z": 0.2415400452,
				"element": "H" 
			},
			{
				"x": 2.5481640294,
				"y": -1.5958102286,
				"z": 1.3255044998,
				"element": "H" 
			},
			{
				"x": 0.8764443517,
				"y": -1.0009668375,
				"z": 1.4090069095,
				"element": "H" 
			},
			{
				"x": 3.3937345334,
				"y": 0.7746321509,
				"z": 1.0557843163,
				"element": "H" 
			},
			{
				"x": 2.802738183,
				"y": 1.7904339417,
				"z": -0.2645288232,
				"element": "H" 
			},
			{
				"x": 1.7316813125,
				"y": 1.3936391989,
				"z": 1.0929803079,
				"element": "H" 
			},
			{
				"x": 1.612588515,
				"y": 1.5809164098,
				"z": -2.4271496027,
				"element": "H" 
			},
			{
				"x": -2.7473831568,
				"y": 1.1398851701,
				"z": -3.5581414669,
				"element": "H" 
			}
		],
		 "valence_orbital": [ 
			{
				"type": "occ",
				"energy": -0.31619,
				"method": "rhf"
			},
			{
				"type": "occ",
				"energy": -0.30952,
				"method": "rhf"
			},
			{
				"type": "occ",
				"energy": -0.27076,
				"method": "rhf"
			},
			{
				"type": "occ",
				"energy": -0.26762,
				"method": "rhf"
			},
			{
				"type": "occ",
				"energy": -0.26112,
				"method": "rhf"
			},
			{
				"type": "unocc",
				"energy": -0.02792,
				"method": "rhf"
			},
			{
				"type": "unocc",
				"energy": -0.00793,
				"method": "rhf"
			},
			{
				"type": "unocc",
				"energy": -0.00261,
				"method": "rhf"
			},
			{
				"type": "unocc",
				"energy": 0.06224,
				"method": "rhf"
			},
			{
				"type": "unocc",
				"energy": 0.09109,
				"method": "rhf"
			}
		],
		"cosmo_sigma_profile": { 
			"-0.025": 0.0,
			"-0.024": 0.0,
			"-0.023": 0.0,
			"-0.022": 0.0,
			"-0.021": 0.0,
			"-0.02": 0.0,
			"-0.019": 0.0,
			"-0.018": 0.0,
			"-0.017": 0.0,
			"-0.016": 0.0,
			"-0.015": 0.0,
			"-0.014": 0.0,
			"-0.013": 0.0,
			"-0.012": 0.0,
			"-0.011": 0.379530762104,
			"-0.01": 2.68958698627,
			"-0.009": 4.8650904543,
			"-0.008": 4.02881361011,
			"-0.007": 3.27925719862,
			"-0.006": 5.59335701311,
			"-0.005": 11.5110869338,
			"-0.004": 22.172924646,
			"-0.003": 21.2202711757,
			"-0.002": 23.4055498226,
			"-0.001": 28.0155297079,
			"0.0": 29.0522438957,
			"0.001": 14.6443979742,
			"0.002": 11.6648818858,
			"0.003": 11.2261799309,
			"0.004": 3.90382745651,
			"0.005": 3.62213591591,
			"0.006": 4.45538903369,
			"0.007": 4.33200506187,
			"0.008": 3.51957582312,
			"0.009": 4.13637830115,
			"0.01": 5.34518177889,
			"0.011": 5.83439293415,
			"0.012": 5.80716064895,
			"0.013": 2.21485435382,
			"0.014": 0.248601882883,
			"0.015": 0.0,
			"0.016": 0.0,
			"0.017": 0.0,
			"0.018": 0.0,
			"0.019": 0.0,
			"0.02": 0.0,
			"0.021": 0.0,
			"0.022": 0.0,
			"0.023": 0.0,
			"0.024": 0.0,
			"0.025": 0.0
		}
	}
}
