{
	 "smiles": "CC(=O)OC1=CC2=CC=C(OC(C)=O)C=C2C=C1", 
	 "Tm": 488.15, 
	 "num_atms": 30, 
	 "gaussian": { 
		 "optdone": 1, 
		 "sigma_profile": "yes", 
		 "theory": "DFT", 
		 "functional": "B3LYP", 
		 "basiset": "6-31G**", 
		 "properties": { 
			 "R2extent": 7616.9356, 
			 "electric_dipole_moment_norm": 2.46527649971, 
			 "electric_quadrupole_moment_norm": 26.3178462916, 
			 "total_energy": -841.647754213, 
			 "HOMO_LUMO_gap": 0.17262, 
			 "cosmo_polarized_energy": -13.25, 
			 "cosmo_cavitation_energy": 35.65, 
			 "cosmo_dispersion_energy": -25.68, 
			 "cosmo_repulsion_energy": 1.99, 
			 "cosmo_total_nonelectrostatic_energy": 11.96, 
			 "SMD_solvation_energy": 8.41 
		},
		"coords": [
			{
				"x": 0.9339204085,
				"y": 5.1573947105,
				"z": -4.6473320516,
				"element": "C" 
			},
			{
				"x": 1.3929351655,
				"y": 3.9278453633,
				"z": -3.9034431518,
				"element": "C" 
			},
			{
				"x": 2.4877797535,
				"y": 3.4262438531,
				"z": -3.9671597772,
				"element": "O" 
			},
			{
				"x": 0.3681786872,
				"y": 3.4529178457,
				"z": -3.1252494347,
				"element": "O" 
			},
			{
				"x": 0.5458873541,
				"y": 2.3151878034,
				"z": -2.3349154971,
				"element": "C" 
			},
			{
				"x": 0.0982977222,
				"y": 2.388407282,
				"z": -1.0378468238,
				"element": "C" 
			},
			{
				"x": 0.1625488705,
				"y": 1.2486512625,
				"z": -0.1953020244,
				"element": "C" 
			},
			{
				"x": -0.2933965985,
				"y": 1.274081666,
				"z": 1.1505976896,
				"element": "C" 
			},
			{
				"x": -0.2207100989,
				"y": 0.1589822367,
				"z": 1.9524758402,
				"element": "C" 
			},
			{
				"x": 0.3236745709,
				"y": -1.0369716309,
				"z": 1.4253927442,
				"element": "C" 
			},
			{
				"x": 0.3455019931,
				"y": -2.2217865019,
				"z": 2.1645617359,
				"element": "O" 
			},
			{
				"x": 0.8432612259,
				"y": -2.2366884825,
				"z": 3.4425644378,
				"element": "C" 
			},
			{
				"x": 0.7493546136,
				"y": -3.6334945329,
				"z": 4.0046688984,
				"element": "C" 
			},
			{
				"x": 1.2870506928,
				"y": -1.2702655154,
				"z": 4.0112668246,
				"element": "O" 
			},
			{
				"x": 0.7723393877,
				"y": -1.1098674401,
				"z": 0.1286800455,
				"element": "C" 
			},
			{
				"x": 0.7023720982,
				"y": 0.0281635345,
				"z": -0.7157403938,
				"element": "C" 
			},
			{
				"x": 1.1481370048,
				"y": -0.000343736,
				"z": -2.0649820881,
				"element": "C" 
			},
			{
				"x": 1.0739599361,
				"y": 1.1143006486,
				"z": -2.8673560107,
				"element": "C" 
			},
			{
				"x": 0.0624959477,
				"y": 4.9193245442,
				"z": -5.2642865232,
				"element": "H" 
			},
			{
				"x": 0.6285029795,
				"y": 5.9320591341,
				"z": -3.9378217321,
				"element": "H" 
			},
			{
				"x": 1.7464735771,
				"y": 5.5248342593,
				"z": -5.2729840431,
				"element": "H" 
			},
			{
				"x": -0.3101464273,
				"y": 3.3222444664,
				"z": -0.6645305253,
				"element": "H" 
			},
			{
				"x": -0.7065670259,
				"y": 2.197271027,
				"z": 1.5473803341,
				"element": "H" 
			},
			{
				"x": -0.5638320357,
				"y": 0.1882718345,
				"z": 2.9785291861,
				"element": "H" 
			},
			{
				"x": -0.2904334648,
				"y": -3.9732225434,
				"z": 3.9941142323,
				"element": "H" 
			},
			{
				"x": 1.3244776304,
				"y": -4.326498637,
				"z": 3.3835628947,
				"element": "H" 
			},
			{
				"x": 1.1346983822,
				"y": -3.638999042,
				"z": 5.0235746029,
				"element": "H" 
			},
			{
				"x": 1.1748499971,
				"y": -2.0454956693,
				"z": -0.2465910472,
				"element": "H" 
			},
			{
				"x": 1.5549382744,
				"y": -0.9254578432,
				"z": -2.4638572312,
				"element": "H" 
			},
			{
				"x": 1.421749378,
				"y": 1.0864101027,
				"z": -3.8918711112,
				"element": "H" 
			}
		],
		 "valence_orbital": [ 
			{
				"type": "occ",
				"energy": -0.28792,
				"method": "rhf"
			},
			{
				"type": "occ",
				"energy": -0.27927,
				"method": "rhf"
			},
			{
				"type": "occ",
				"energy": -0.27644,
				"method": "rhf"
			},
			{
				"type": "occ",
				"energy": -0.23987,
				"method": "rhf"
			},
			{
				"type": "occ",
				"energy": -0.21621,
				"method": "rhf"
			},
			{
				"type": "unocc",
				"energy": -0.04359,
				"method": "rhf"
			},
			{
				"type": "unocc",
				"energy": -0.01847,
				"method": "rhf"
			},
			{
				"type": "unocc",
				"energy": 0.00136,
				"method": "rhf"
			},
			{
				"type": "unocc",
				"energy": 0.01406,
				"method": "rhf"
			},
			{
				"type": "unocc",
				"energy": 0.0282,
				"method": "rhf"
			}
		],
		"cosmo_sigma_profile": { 
			"-0.025": 0.0,
			"-0.024": 0.0,
			"-0.023": 0.0,
			"-0.022": 0.0,
			"-0.021": 0.0,
			"-0.02": 0.0,
			"-0.019": 0.0,
			"-0.018": 0.0,
			"-0.017": 0.0,
			"-0.016": 0.0,
			"-0.015": 0.0,
			"-0.014": 0.0,
			"-0.013": 0.0,
			"-0.012": 0.0,
			"-0.011": 0.0,
			"-0.01": 0.0,
			"-0.009": 0.0,
			"-0.008": 0.00867305019367,
			"-0.007": 13.0150172672,
			"-0.006": 23.9694302846,
			"-0.005": 25.4894313071,
			"-0.004": 21.2805336728,
			"-0.003": 22.6549283017,
			"-0.002": 25.495340589,
			"-0.001": 16.458712476,
			"0.0": 12.9373507848,
			"0.001": 14.0795254777,
			"0.002": 20.1389657366,
			"0.003": 31.3751609412,
			"0.004": 13.3703185947,
			"0.005": 7.45810322308,
			"0.006": 5.48312719196,
			"0.007": 4.55840085151,
			"0.008": 4.73641637468,
			"0.009": 4.23313782478,
			"0.01": 5.37322019694,
			"0.011": 8.66419755953,
			"0.012": 4.16864794191,
			"0.013": 0.224900138037,
			"0.014": 0.0,
			"0.015": 0.0,
			"0.016": 0.0,
			"0.017": 0.0,
			"0.018": 0.0,
			"0.019": 0.0,
			"0.02": 0.0,
			"0.021": 0.0,
			"0.022": 0.0,
			"0.023": 0.0,
			"0.024": 0.0,
			"0.025": 0.0
		}
	}
}
