{
	 "smiles": "COC1=C2C=CC=CC2=C(C=C1)C(N)=NO", 
	 "Tm": 449.15, 
	 "num_atms": 28, 
	 "gaussian": { 
		 "optdone": 1, 
		 "sigma_profile": "yes", 
		 "theory": "DFT", 
		 "functional": "B3LYP", 
		 "basiset": "6-31G**", 
		 "properties": { 
			 "R2extent": 3666.4031, 
			 "electric_dipole_moment_norm": 2.03503825025, 
			 "electric_quadrupole_moment_norm": 12.7859268143, 
			 "total_energy": -724.400834684, 
			 "HOMO_LUMO_gap": 0.16238, 
			 "cosmo_polarized_energy": -14.73, 
			 "cosmo_cavitation_energy": 31.5, 
			 "cosmo_dispersion_energy": -23.03, 
			 "cosmo_repulsion_energy": 1.81, 
			 "cosmo_total_nonelectrostatic_energy": 10.29, 
			 "SMD_solvation_energy": 5.96 
		},
		"coords": [
			{
				"x": 1.9207491984,
				"y": -0.3807351753,
				"z": 3.585172443,
				"element": "C" 
			},
			{
				"x": 0.9359061616,
				"y": -0.9134975939,
				"z": 2.7134966716,
				"element": "O" 
			},
			{
				"x": 0.7024464689,
				"y": -0.2754005215,
				"z": 1.5329831829,
				"element": "C" 
			},
			{
				"x": -0.3069018687,
				"y": -0.8728871924,
				"z": 0.7079807323,
				"element": "C" 
			},
			{
				"x": -0.9724163375,
				"y": -2.0603010303,
				"z": 1.1090003727,
				"element": "C" 
			},
			{
				"x": -1.9216885229,
				"y": -2.6407012734,
				"z": 0.2976415743,
				"element": "C" 
			},
			{
				"x": -2.2408765763,
				"y": -2.0541722446,
				"z": -0.9477301796,
				"element": "C" 
			},
			{
				"x": -1.6164150154,
				"y": -0.8968786218,
				"z": -1.357181484,
				"element": "C" 
			},
			{
				"x": -0.6359400075,
				"y": -0.2644211794,
				"z": -0.5458341564,
				"element": "C" 
			},
			{
				"x": 0.0587040562,
				"y": 0.9258017443,
				"z": -0.9497468161,
				"element": "C" 
			},
			{
				"x": 1.0466170314,
				"y": 1.4395869302,
				"z": -0.1322564505,
				"element": "C" 
			},
			{
				"x": 1.369964202,
				"y": 0.8580585185,
				"z": 1.1128496718,
				"element": "C" 
			},
			{
				"x": -0.2072048863,
				"y": 1.6102736538,
				"z": -2.2450524744,
				"element": "C" 
			},
			{
				"x": 0.9236024495,
				"y": 1.8677747826,
				"z": -3.0266044429,
				"element": "N" 
			},
			{
				"x": -1.3275648411,
				"y": 2.070763775,
				"z": -2.6899577652,
				"element": "N" 
			},
			{
				"x": -2.3627812512,
				"y": 1.9701772418,
				"z": -1.7262048699,
				"element": "O" 
			},
			{
				"x": 2.913334916,
				"y": -0.37789057,
				"z": 3.117221233,
				"element": "H" 
			},
			{
				"x": 1.6692328633,
				"y": 0.6397915034,
				"z": 3.899979649,
				"element": "H" 
			},
			{
				"x": 1.9356300588,
				"y": -1.0346104375,
				"z": 4.4583293607,
				"element": "H" 
			},
			{
				"x": -0.7127871814,
				"y": -2.5026948951,
				"z": 2.0635323,
				"element": "H" 
			},
			{
				"x": -2.4237957274,
				"y": -3.5509884293,
				"z": 0.6125566807,
				"element": "H" 
			},
			{
				"x": -2.9868469595,
				"y": -2.5188527597,
				"z": -1.5865171245,
				"element": "H" 
			},
			{
				"x": -1.874335408,
				"y": -0.4448805983,
				"z": -2.3069567075,
				"element": "H" 
			},
			{
				"x": 1.5820774095,
				"y": 2.3274340372,
				"z": -0.4529803583,
				"element": "H" 
			},
			{
				"x": 2.139886011,
				"y": 1.3147379781,
				"z": 1.722401801,
				"element": "H" 
			},
			{
				"x": 1.5564260588,
				"y": 1.0815525634,
				"z": -3.1105445529,
				"element": "H" 
			},
			{
				"x": 0.6873321199,
				"y": 2.277950696,
				"z": -3.9234791215,
				"element": "H" 
			},
			{
				"x": -3.1139544221,
				"y": 2.3265090983,
				"z": -2.2170991692,
				"element": "H" 
			}
		],
		 "valence_orbital": [ 
			{
				"type": "occ",
				"energy": -0.26026,
				"method": "rhf"
			},
			{
				"type": "occ",
				"energy": -0.25557,
				"method": "rhf"
			},
			{
				"type": "occ",
				"energy": -0.23904,
				"method": "rhf"
			},
			{
				"type": "occ",
				"energy": -0.20936,
				"method": "rhf"
			},
			{
				"type": "occ",
				"energy": -0.19533,
				"method": "rhf"
			},
			{
				"type": "unocc",
				"energy": -0.03295,
				"method": "rhf"
			},
			{
				"type": "unocc",
				"energy": -0.00421,
				"method": "rhf"
			},
			{
				"type": "unocc",
				"energy": 0.02113,
				"method": "rhf"
			},
			{
				"type": "unocc",
				"energy": 0.06121,
				"method": "rhf"
			},
			{
				"type": "unocc",
				"energy": 0.08843,
				"method": "rhf"
			}
		],
		"cosmo_sigma_profile": { 
			"-0.025": 0.0,
			"-0.024": 0.0,
			"-0.023": 0.0,
			"-0.022": 0.0,
			"-0.021": 0.0,
			"-0.02": 0.0,
			"-0.019": 0.0,
			"-0.018": 0.0,
			"-0.017": 0.0,
			"-0.016": 1.13610058814,
			"-0.015": 0.69097208128,
			"-0.014": 0.437839934446,
			"-0.013": 1.60476138716,
			"-0.012": 2.9347372723,
			"-0.011": 2.92911075916,
			"-0.01": 2.75998972544,
			"-0.009": 2.95380648023,
			"-0.008": 2.88355612231,
			"-0.007": 3.01834280667,
			"-0.006": 12.7008898811,
			"-0.005": 19.2229925975,
			"-0.004": 20.8706477324,
			"-0.003": 19.4200506553,
			"-0.002": 13.4778299827,
			"-0.001": 11.4042425601,
			"0.0": 11.1908621349,
			"0.001": 13.4645635251,
			"0.002": 15.3049709417,
			"0.003": 19.5173018221,
			"0.004": 20.5115931529,
			"0.005": 16.5388041333,
			"0.006": 8.46503841079,
			"0.007": 5.61496888297,
			"0.008": 4.71884474678,
			"0.009": 4.19916501198,
			"0.01": 3.46777659406,
			"0.011": 3.97343550882,
			"0.012": 2.70397696446,
			"0.013": 1.43180051599,
			"0.014": 0.757337231756,
			"0.015": 0.0922843570706,
			"0.016": 0.0,
			"0.017": 0.0,
			"0.018": 0.0,
			"0.019": 0.0,
			"0.02": 0.0,
			"0.021": 0.0,
			"0.022": 0.0,
			"0.023": 0.0,
			"0.024": 0.0,
			"0.025": 0.0
		}
	}
}
