{
	 "smiles": "FC1=C(F)C=C(S)C=C1", 
	 "Tm": 309.15, 
	 "num_atms": 13, 
	 "gaussian": { 
		 "optdone": 1, 
		 "sigma_profile": "yes", 
		 "theory": "DFT", 
		 "functional": "B3LYP", 
		 "basiset": "6-31G**", 
		 "properties": { 
			 "R2extent": 1688.3419, 
			 "electric_dipole_moment_norm": 1.20870592371, 
			 "electric_quadrupole_moment_norm": 9.07768552275, 
			 "total_energy": -828.891082394, 
			 "HOMO_LUMO_gap": 0.2048, 
			 "cosmo_polarized_energy": -6.43, 
			 "cosmo_cavitation_energy": 20.23, 
			 "cosmo_dispersion_energy": -15.18, 
			 "cosmo_repulsion_energy": 1.15, 
			 "cosmo_total_nonelectrostatic_energy": 6.2, 
			 "SMD_solvation_energy": 4.01 
		},
		"coords": [
			{
				"x": -0.2713882575,
				"y": 3.1147252206,
				"z": -1.7364825553,
				"element": "F" 
			},
			{
				"x": -0.1524237837,
				"y": 1.8782249422,
				"z": -1.2226341168,
				"element": "C" 
			},
			{
				"x": -1.2059836416,
				"y": 0.9769943472,
				"z": -1.3620171543,
				"element": "C" 
			},
			{
				"x": -2.3184128906,
				"y": 1.3648482256,
				"z": -2.0073366358,
				"element": "F" 
			},
			{
				"x": -1.1191939614,
				"y": -0.308193041,
				"z": -0.8440916575,
				"element": "C" 
			},
			{
				"x": 0.0454842943,
				"y": -0.7038155349,
				"z": -0.1732489562,
				"element": "C" 
			},
			{
				"x": 0.2445908335,
				"y": -2.3354789207,
				"z": 0.5272490866,
				"element": "S" 
			},
			{
				"x": 1.1048733362,
				"y": 0.2027858251,
				"z": -0.0339275986,
				"element": "C" 
			},
			{
				"x": 1.0031027079,
				"y": 1.4913654394,
				"z": -0.5582940317,
				"element": "C" 
			},
			{
				"x": -1.9656498068,
				"y": -0.9733425706,
				"z": -0.9760611921,
				"element": "H" 
			},
			{
				"x": -0.9457041238,
				"y": -2.827299219,
				"z": 0.1358912924,
				"element": "H" 
			},
			{
				"x": 2.0120834267,
				"y": -0.0930558983,
				"z": 0.4828600031,
				"element": "H" 
			},
			{
				"x": 1.8142218666,
				"y": 2.2046411844,
				"z": -0.4588064838,
				"element": "H" 
			}
		],
		 "valence_orbital": [ 
			{
				"type": "occ",
				"energy": -0.36801,
				"method": "rhf"
			},
			{
				"type": "occ",
				"energy": -0.35118,
				"method": "rhf"
			},
			{
				"type": "occ",
				"energy": -0.29926,
				"method": "rhf"
			},
			{
				"type": "occ",
				"energy": -0.26595,
				"method": "rhf"
			},
			{
				"type": "occ",
				"energy": -0.22579,
				"method": "rhf"
			},
			{
				"type": "unocc",
				"energy": -0.02099,
				"method": "rhf"
			},
			{
				"type": "unocc",
				"energy": -0.00968,
				"method": "rhf"
			},
			{
				"type": "unocc",
				"energy": 0.00181,
				"method": "rhf"
			},
			{
				"type": "unocc",
				"energy": 0.05907,
				"method": "rhf"
			},
			{
				"type": "unocc",
				"energy": 0.08505,
				"method": "rhf"
			}
		],
		"cosmo_sigma_profile": { 
			"-0.025": 0.0,
			"-0.024": 0.0,
			"-0.023": 0.0,
			"-0.022": 0.0,
			"-0.021": 0.0,
			"-0.02": 0.0,
			"-0.019": 0.0,
			"-0.018": 0.0,
			"-0.017": 0.0,
			"-0.016": 0.0,
			"-0.015": 0.0,
			"-0.014": 0.0,
			"-0.013": 0.0,
			"-0.012": 0.270198518492,
			"-0.011": 1.71689014155,
			"-0.01": 1.77945680155,
			"-0.009": 4.49256710679,
			"-0.008": 6.37285744022,
			"-0.007": 6.20214809924,
			"-0.006": 6.32669743458,
			"-0.005": 6.21818098309,
			"-0.004": 4.8293496939,
			"-0.003": 5.70853386885,
			"-0.002": 5.37836445875,
			"-0.001": 9.86840065359,
			"0.0": 16.1338156229,
			"0.001": 14.8129028352,
			"0.002": 14.256028652,
			"0.003": 23.7115941862,
			"0.004": 23.8939038679,
			"0.005": 4.68731865598,
			"0.006": 2.59434233308,
			"0.007": 2.73367651942,
			"0.008": 2.66321765044,
			"0.009": 0.73372942723,
			"0.01": 0.0,
			"0.011": 0.0,
			"0.012": 0.0,
			"0.013": 0.0,
			"0.014": 0.0,
			"0.015": 0.0,
			"0.016": 0.0,
			"0.017": 0.0,
			"0.018": 0.0,
			"0.019": 0.0,
			"0.02": 0.0,
			"0.021": 0.0,
			"0.022": 0.0,
			"0.023": 0.0,
			"0.024": 0.0,
			"0.025": 0.0
		}
	}
}
