{
	 "smiles": "FC(F)(F)C1=CC=C(C=C1)C1=NNC=C1C=O", 
	 "Tm": 387.15, 
	 "num_atms": 24, 
	 "gaussian": { 
		 "optdone": 1, 
		 "sigma_profile": "yes", 
		 "theory": "DFT", 
		 "functional": "B3LYP", 
		 "basiset": "6-31G**", 
		 "properties": { 
			 "R2extent": 5868.2488, 
			 "electric_dipole_moment_norm": 4.03310698346, 
			 "electric_quadrupole_moment_norm": 23.8331430021, 
			 "total_energy": -907.617736896, 
			 "HOMO_LUMO_gap": 0.19104, 
			 "cosmo_polarized_energy": -14.76, 
			 "cosmo_cavitation_energy": 31.02, 
			 "cosmo_dispersion_energy": -21.98, 
			 "cosmo_repulsion_energy": 1.63, 
			 "cosmo_total_nonelectrostatic_energy": 10.67, 
			 "SMD_solvation_energy": 6.79 
		},
		"coords": [
			{
				"x": -4.8434944329,
				"y": -0.0896266756,
				"z": -2.1754336237,
				"element": "F" 
			},
			{
				"x": -4.2480039218,
				"y": 0.7859246349,
				"z": -1.3352607296,
				"element": "C" 
			},
			{
				"x": -4.0298383786,
				"y": 1.9279316916,
				"z": -2.023863682,
				"element": "F" 
			},
			{
				"x": -5.1505902553,
				"y": 1.0758374376,
				"z": -0.3689187773,
				"element": "F" 
			},
			{
				"x": -2.9766151949,
				"y": 0.2272724635,
				"z": -0.7562670774,
				"element": "C" 
			},
			{
				"x": -2.8753913385,
				"y": -1.1420655415,
				"z": -0.4904528108,
				"element": "C" 
			},
			{
				"x": -1.7199060558,
				"y": -1.6548784344,
				"z": 0.0880950258,
				"element": "C" 
			},
			{
				"x": -0.6456731456,
				"y": -0.8094881823,
				"z": 0.4138674124,
				"element": "C" 
			},
			{
				"x": -0.7660890618,
				"y": 0.5650910883,
				"z": 0.1555653593,
				"element": "C" 
			},
			{
				"x": -1.9208619333,
				"y": 1.0800824959,
				"z": -0.4289434258,
				"element": "C" 
			},
			{
				"x": 0.565749927,
				"y": -1.3750804562,
				"z": 1.0361912748,
				"element": "C" 
			},
			{
				"x": 0.4524944104,
				"y": -2.4097535039,
				"z": 1.8727877936,
				"element": "N" 
			},
			{
				"x": 1.7214093707,
				"y": -2.6794225174,
				"z": 2.2601594799,
				"element": "N" 
			},
			{
				"x": 2.6389234395,
				"y": -1.862761462,
				"z": 1.7118410905,
				"element": "C" 
			},
			{
				"x": 1.9392074743,
				"y": -0.9858981133,
				"z": 0.8902558459,
				"element": "C" 
			},
			{
				"x": 2.5752140897,
				"y": 0.0067003878,
				"z": 0.0223014549,
				"element": "C" 
			},
			{
				"x": 3.7720782784,
				"y": 0.2445863196,
				"z": 0.0364886354,
				"element": "O" 
			},
			{
				"x": -3.6949214159,
				"y": -1.8035755637,
				"z": -0.7502350816,
				"element": "H" 
			},
			{
				"x": -1.6323496644,
				"y": -2.7167038712,
				"z": 0.2898348765,
				"element": "H" 
			},
			{
				"x": 0.0333166309,
				"y": 1.2418694338,
				"z": 0.4378530326,
				"element": "H" 
			},
			{
				"x": -2.0032211044,
				"y": 2.1429187648,
				"z": -0.6280697066,
				"element": "H" 
			},
			{
				"x": 1.8763335592,
				"y": -3.4310767845,
				"z": 2.9154858376,
				"element": "H" 
			},
			{
				"x": 3.6985368333,
				"y": -1.9448014258,
				"z": 1.9021784664,
				"element": "H" 
			},
			{
				"x": 1.9009918897,
				"y": 0.5323178141,
				"z": -0.6832606708,
				"element": "H" 
			}
		],
		 "valence_orbital": [ 
			{
				"type": "occ",
				"energy": -0.3088,
				"method": "rhf"
			},
			{
				"type": "occ",
				"energy": -0.27248,
				"method": "rhf"
			},
			{
				"type": "occ",
				"energy": -0.27064,
				"method": "rhf"
			},
			{
				"type": "occ",
				"energy": -0.25693,
				"method": "rhf"
			},
			{
				"type": "occ",
				"energy": -0.25042,
				"method": "rhf"
			},
			{
				"type": "unocc",
				"energy": -0.05938,
				"method": "rhf"
			},
			{
				"type": "unocc",
				"energy": -0.04113,
				"method": "rhf"
			},
			{
				"type": "unocc",
				"energy": -0.02194,
				"method": "rhf"
			},
			{
				"type": "unocc",
				"energy": 0.01372,
				"method": "rhf"
			},
			{
				"type": "unocc",
				"energy": 0.05911,
				"method": "rhf"
			}
		],
		"cosmo_sigma_profile": { 
			"-0.025": 0.0,
			"-0.024": 0.0,
			"-0.023": 0.0,
			"-0.022": 0.0,
			"-0.021": 0.0,
			"-0.02": 0.0,
			"-0.019": 0.0,
			"-0.018": 0.821816966991,
			"-0.017": 1.96734261546,
			"-0.016": 1.51800863396,
			"-0.015": 1.26083043277,
			"-0.014": 1.25730559058,
			"-0.013": 0.966415012455,
			"-0.012": 1.03863906523,
			"-0.011": 1.37584582316,
			"-0.01": 2.98758546929,
			"-0.009": 2.08055617587,
			"-0.008": 3.61198267271,
			"-0.007": 8.28225320022,
			"-0.006": 11.4201967914,
			"-0.005": 11.2931725656,
			"-0.004": 10.2083817266,
			"-0.003": 11.7670749789,
			"-0.002": 10.7891295766,
			"-0.001": 13.3698584978,
			"0.0": 19.9464075923,
			"0.001": 24.7106421809,
			"0.002": 32.0400101992,
			"0.003": 41.3531047925,
			"0.004": 5.79566885855,
			"0.005": 3.04042535854,
			"0.006": 3.13941059538,
			"0.007": 2.84816499072,
			"0.008": 3.14946121093,
			"0.009": 2.35135887527,
			"0.01": 3.09224797489,
			"0.011": 4.72819460925,
			"0.012": 5.0142683583,
			"0.013": 2.33562901513,
			"0.014": 0.570819088338,
			"0.015": 0.0453418182213,
			"0.016": 0.0,
			"0.017": 0.0,
			"0.018": 0.0,
			"0.019": 0.0,
			"0.02": 0.0,
			"0.021": 0.0,
			"0.022": 0.0,
			"0.023": 0.0,
			"0.024": 0.0,
			"0.025": 0.0
		}
	}
}
