{
	 "smiles": "CC(NC(=O)C(C)NC(=O)C(N)CCP(C)(O)=O)C(O)=O", 
	 "Tm": 433.15, 
	 "num_atms": 43, 
	 "gaussian": { 
		 "optdone": 1, 
		 "sigma_profile": "yes", 
		 "theory": "DFT", 
		 "functional": "B3LYP", 
		 "basiset": "6-31G**", 
		 "properties": { 
			 "R2extent": 8676.3535, 
			 "electric_dipole_moment_norm": 8.66995884765, 
			 "electric_quadrupole_moment_norm": 40.0217393829, 
			 "total_energy": -1389.48647429, 
			 "HOMO_LUMO_gap": 0.21663, 
			 "cosmo_polarized_energy": -42.07, 
			 "cosmo_cavitation_energy": 46.42, 
			 "cosmo_dispersion_energy": -29.72, 
			 "cosmo_repulsion_energy": 2.26, 
			 "cosmo_total_nonelectrostatic_energy": 18.96, 
			 "SMD_solvation_energy": 9.76 
		},
		"coords": [
			{
				"x": 0.1229508164,
				"y": -1.2629048698,
				"z": -2.2455832196,
				"element": "C" 
			},
			{
				"x": 0.6611171844,
				"y": -2.1402401315,
				"z": -1.0950386388,
				"element": "C" 
			},
			{
				"x": 1.3828142552,
				"y": -1.3650867545,
				"z": -0.1029003052,
				"element": "N" 
			},
			{
				"x": 2.6017767614,
				"y": -0.8356649464,
				"z": -0.3761132913,
				"element": "C" 
			},
			{
				"x": 3.1485775519,
				"y": -0.9350513893,
				"z": -1.4710828231,
				"element": "O" 
			},
			{
				"x": 3.2809100901,
				"y": -0.0307103892,
				"z": 0.7556229003,
				"element": "C" 
			},
			{
				"x": 4.7526509198,
				"y": -0.4467403221,
				"z": 0.8741938768,
				"element": "C" 
			},
			{
				"x": 2.6217501053,
				"y": -0.1198066935,
				"z": 2.0596208562,
				"element": "N" 
			},
			{
				"x": 1.786661405,
				"y": 0.7783366821,
				"z": 2.6730261704,
				"element": "C" 
			},
			{
				"x": 1.5776475253,
				"y": 0.6848233904,
				"z": 3.8867408787,
				"element": "O" 
			},
			{
				"x": 1.1558969375,
				"y": 1.9086599075,
				"z": 1.8478468505,
				"element": "C" 
			},
			{
				"x": 1.8891574428,
				"y": 3.1662873522,
				"z": 2.0613114469,
				"element": "N" 
			},
			{
				"x": -0.3163621458,
				"y": 2.134212175,
				"z": 2.2307286158,
				"element": "C" 
			},
			{
				"x": -1.2610508882,
				"y": 0.927914147,
				"z": 2.0038475505,
				"element": "C" 
			},
			{
				"x": -1.8344061931,
				"y": 0.1110805029,
				"z": 3.5595414257,
				"element": "P" 
			},
			{
				"x": -3.0657420274,
				"y": -1.1211662161,
				"z": 3.043412842,
				"element": "C" 
			},
			{
				"x": -0.6374810341,
				"y": -0.8840778061,
				"z": 4.0296552944,
				"element": "O" 
			},
			{
				"x": -2.2930332098,
				"y": 1.1195204343,
				"z": 4.5633043812,
				"element": "O" 
			},
			{
				"x": -0.4854568047,
				"y": -2.8531046904,
				"z": -0.3763014568,
				"element": "C" 
			},
			{
				"x": -1.1541977223,
				"y": -3.7759272305,
				"z": -1.0965908059,
				"element": "O" 
			},
			{
				"x": -0.814306815,
				"y": -2.6006361359,
				"z": 0.7591773353,
				"element": "O" 
			},
			{
				"x": -0.5812570885,
				"y": -0.5195380833,
				"z": -1.8620278785,
				"element": "H" 
			},
			{
				"x": 0.9640372575,
				"y": -0.7555212715,
				"z": -2.7194361651,
				"element": "H" 
			},
			{
				"x": -0.3875598028,
				"y": -1.8648105674,
				"z": -3.0046890172,
				"element": "H" 
			},
			{
				"x": 1.3415394769,
				"y": -2.8910842353,
				"z": -1.5224410358,
				"element": "H" 
			},
			{
				"x": 1.0120262327,
				"y": -1.3657015022,
				"z": 0.8405444299,
				"element": "H" 
			},
			{
				"x": 3.2484995997,
				"y": 1.0092823305,
				"z": 0.4147901011,
				"element": "H" 
			},
			{
				"x": 5.2141382654,
				"y": -0.4239231478,
				"z": -0.1135440581,
				"element": "H" 
			},
			{
				"x": 4.8372359667,
				"y": -1.467373845,
				"z": 1.2642666563,
				"element": "H" 
			},
			{
				"x": 5.29030209,
				"y": 0.2277920243,
				"z": 1.5456121893,
				"element": "H" 
			},
			{
				"x": 3.0265656546,
				"y": -0.7745402666,
				"z": 2.721418698,
				"element": "H" 
			},
			{
				"x": 1.2057553681,
				"y": 1.6697793023,
				"z": 0.7800759669,
				"element": "H" 
			},
			{
				"x": 1.9080506648,
				"y": 3.3695528203,
				"z": 3.0592539609,
				"element": "H" 
			},
			{
				"x": 2.8577515303,
				"y": 3.0866080767,
				"z": 1.7595395284,
				"element": "H" 
			},
			{
				"x": -0.648477653,
				"y": 2.9885357736,
				"z": 1.6345483431,
				"element": "H" 
			},
			{
				"x": -0.368965861,
				"y": 2.4501917096,
				"z": 3.2781115046,
				"element": "H" 
			},
			{
				"x": -2.1792049107,
				"y": 1.2774086766,
				"z": 1.5182587432,
				"element": "H" 
			},
			{
				"x": -0.8304416659,
				"y": 0.1749989014,
				"z": 1.3339877844,
				"element": "H" 
			},
			{
				"x": -3.94352605,
				"y": -0.6137629867,
				"z": 2.6352197031,
				"element": "H" 
			},
			{
				"x": -2.6454858725,
				"y": -1.8037486751,
				"z": 2.3006396104,
				"element": "H" 
			},
			{
				"x": -3.3704527711,
				"y": -1.6915057936,
				"z": 3.9245340432,
				"element": "H" 
			},
			{
				"x": 0.153132524,
				"y": -0.37131264,
				"z": 4.2967074341,
				"element": "H" 
			},
			{
				"x": -0.7586371099,
				"y": -3.8836436169,
				"z": -1.9738904262,
				"element": "H" 
			}
		],
		 "valence_orbital": [ 
			{
				"type": "occ",
				"energy": -0.28287,
				"method": "rhf"
			},
			{
				"type": "occ",
				"energy": -0.26232,
				"method": "rhf"
			},
			{
				"type": "occ",
				"energy": -0.25153,
				"method": "rhf"
			},
			{
				"type": "occ",
				"energy": -0.24997,
				"method": "rhf"
			},
			{
				"type": "occ",
				"energy": -0.24093,
				"method": "rhf"
			},
			{
				"type": "unocc",
				"energy": -0.0243,
				"method": "rhf"
			},
			{
				"type": "unocc",
				"energy": -0.01685,
				"method": "rhf"
			},
			{
				"type": "unocc",
				"energy": -0.0028,
				"method": "rhf"
			},
			{
				"type": "unocc",
				"energy": 0.02623,
				"method": "rhf"
			},
			{
				"type": "unocc",
				"energy": 0.05549,
				"method": "rhf"
			}
		],
		"cosmo_sigma_profile": { 
			"-0.025": 0.0,
			"-0.024": 0.0,
			"-0.023": 0.0,
			"-0.022": 0.0,
			"-0.021": 0.0,
			"-0.02": 0.443091921089,
			"-0.019": 1.17117007808,
			"-0.018": 0.958157777712,
			"-0.017": 1.45715367294,
			"-0.016": 1.29459022624,
			"-0.015": 0.849589336988,
			"-0.014": 1.11330766786,
			"-0.013": 2.47753947699,
			"-0.012": 2.62427226776,
			"-0.011": 5.11792581288,
			"-0.01": 6.47821477839,
			"-0.009": 7.99068696733,
			"-0.008": 8.46638414646,
			"-0.007": 12.9802367135,
			"-0.006": 14.9900092507,
			"-0.005": 19.0801517361,
			"-0.004": 30.2773976622,
			"-0.003": 27.2626304532,
			"-0.002": 29.9320169419,
			"-0.001": 31.0008784161,
			"0.0": 22.4255624927,
			"0.001": 11.8286649782,
			"0.002": 9.82607140705,
			"0.003": 8.9351085957,
			"0.004": 8.95985216613,
			"0.005": 8.69104258762,
			"0.006": 8.96679000547,
			"0.007": 8.53551208802,
			"0.008": 9.38236248823,
			"0.009": 9.6635612675,
			"0.01": 9.5685752669,
			"0.011": 6.13007751569,
			"0.012": 7.50426107017,
			"0.013": 5.86879413042,
			"0.014": 3.35235068999,
			"0.015": 3.0044635411,
			"0.016": 7.05908796869,
			"0.017": 3.9219174675,
			"0.018": 0.393513931863,
			"0.019": 0.00885147761562,
			"0.02": 0.0,
			"0.021": 0.0,
			"0.022": 0.0,
			"0.023": 0.0,
			"0.024": 0.0,
			"0.025": 0.0
		}
	}
}
