{
	 "smiles": "CN(C)C1=CC=C(NC(N)=S)C=C1", 
	 "Tm": 463.15, 
	 "num_atms": 26, 
	 "gaussian": { 
		 "optdone": 1, 
		 "sigma_profile": "yes", 
		 "theory": "DFT", 
		 "functional": "B3LYP", 
		 "basiset": "6-31G**", 
		 "properties": { 
			 "R2extent": 5001.1056, 
			 "electric_dipole_moment_norm": 8.41233947484, 
			 "electric_quadrupole_moment_norm": 33.8777194805, 
			 "total_energy": -913.245947051, 
			 "HOMO_LUMO_gap": 0.17684, 
			 "cosmo_polarized_energy": -18.47, 
			 "cosmo_cavitation_energy": 30.55, 
			 "cosmo_dispersion_energy": -22.91, 
			 "cosmo_repulsion_energy": 1.77, 
			 "cosmo_total_nonelectrostatic_energy": 9.42, 
			 "SMD_solvation_energy": 3.97 
		},
		"coords": [
			{
				"x": 1.0893629746,
				"y": -2.7406445983,
				"z": 1.260926145,
				"element": "C" 
			},
			{
				"x": 0.1900342907,
				"y": -1.7281343633,
				"z": 1.7886477652,
				"element": "N" 
			},
			{
				"x": -0.1735002217,
				"y": -1.7947388016,
				"z": 3.194275606,
				"element": "C" 
			},
			{
				"x": 0.0293215077,
				"y": -0.5341539845,
				"z": 1.0996012491,
				"element": "C" 
			},
			{
				"x": 0.5558923833,
				"y": -0.3558023808,
				"z": -0.2015487232,
				"element": "C" 
			},
			{
				"x": 0.3509810035,
				"y": 0.8251576951,
				"z": -0.9051291364,
				"element": "C" 
			},
			{
				"x": -0.3562368581,
				"y": 1.8927659336,
				"z": -0.3398035045,
				"element": "C" 
			},
			{
				"x": -0.5003319695,
				"y": 3.1089756828,
				"z": -1.065302189,
				"element": "N" 
			},
			{
				"x": -1.642481191,
				"y": 3.8087321271,
				"z": -1.3285054857,
				"element": "C" 
			},
			{
				"x": -2.8001533791,
				"y": 3.2949998369,
				"z": -0.8334279524,
				"element": "N" 
			},
			{
				"x": -1.6003396953,
				"y": 5.247127852,
				"z": -2.2046441963,
				"element": "S" 
			},
			{
				"x": -0.8494387038,
				"y": 1.7443101553,
				"z": 0.9633266139,
				"element": "C" 
			},
			{
				"x": -0.6731290149,
				"y": 0.5557608431,
				"z": 1.6644427933,
				"element": "C" 
			},
			{
				"x": 0.7685750478,
				"y": -3.0733732327,
				"z": 0.2671497598,
				"element": "H" 
			},
			{
				"x": 1.0714144491,
				"y": -3.6114311429,
				"z": 1.9178469406,
				"element": "H" 
			},
			{
				"x": 2.1307353537,
				"y": -2.3912228785,
				"z": 1.182391241,
				"element": "H" 
			},
			{
				"x": -0.0036418999,
				"y": -2.8086434068,
				"z": 3.5593702027,
				"element": "H" 
			},
			{
				"x": 0.4082434768,
				"y": -1.1016839098,
				"z": 3.8218575966,
				"element": "H" 
			},
			{
				"x": -1.236456538,
				"y": -1.5688929911,
				"z": 3.3373110735,
				"element": "H" 
			},
			{
				"x": 1.1217929468,
				"y": -1.1466871337,
				"z": -0.6774042944,
				"element": "H" 
			},
			{
				"x": 0.7497452398,
				"y": 0.9235932476,
				"z": -1.9111449396,
				"element": "H" 
			},
			{
				"x": 0.3168769813,
				"y": 3.5017696597,
				"z": -1.5114609726,
				"element": "H" 
			},
			{
				"x": -2.8441046151,
				"y": 2.3315752533,
				"z": -0.5306833388,
				"element": "H" 
			},
			{
				"x": -3.6468220431,
				"y": 3.7357425154,
				"z": -1.1554123946,
				"element": "H" 
			},
			{
				"x": -1.361675548,
				"y": 2.5741096948,
				"z": 1.4400020412,
				"element": "H" 
			},
			{
				"x": -1.0687639777,
				"y": 0.4906883271,
				"z": 2.6702180993,
				"element": "H" 
			}
		],
		 "valence_orbital": [ 
			{
				"type": "occ",
				"energy": -0.26605,
				"method": "rhf"
			},
			{
				"type": "occ",
				"energy": -0.26147,
				"method": "rhf"
			},
			{
				"type": "occ",
				"energy": -0.21102,
				"method": "rhf"
			},
			{
				"type": "occ",
				"energy": -0.19402,
				"method": "rhf"
			},
			{
				"type": "occ",
				"energy": -0.19058,
				"method": "rhf"
			},
			{
				"type": "unocc",
				"energy": -0.01374,
				"method": "rhf"
			},
			{
				"type": "unocc",
				"energy": -0.01013,
				"method": "rhf"
			},
			{
				"type": "unocc",
				"energy": 0.02663,
				"method": "rhf"
			},
			{
				"type": "unocc",
				"energy": 0.07332,
				"method": "rhf"
			},
			{
				"type": "unocc",
				"energy": 0.08267,
				"method": "rhf"
			}
		],
		"cosmo_sigma_profile": { 
			"-0.025": 0.0,
			"-0.024": 0.0,
			"-0.023": 0.0,
			"-0.022": 0.0,
			"-0.021": 0.0,
			"-0.02": 0.0,
			"-0.019": 0.0,
			"-0.018": 0.0,
			"-0.017": 0.0,
			"-0.016": 0.0,
			"-0.015": 0.0657928536861,
			"-0.014": 1.83220338855,
			"-0.013": 2.28787791234,
			"-0.012": 2.76800870573,
			"-0.011": 2.99779913223,
			"-0.01": 3.47133396616,
			"-0.009": 2.57828028733,
			"-0.008": 2.60715918549,
			"-0.007": 3.61931603055,
			"-0.006": 10.7740337354,
			"-0.005": 16.5690106259,
			"-0.004": 18.0867973504,
			"-0.003": 23.8320544972,
			"-0.002": 23.9464580351,
			"-0.001": 18.3235630098,
			"0.0": 12.2809119319,
			"0.001": 10.9069759532,
			"0.002": 9.69655243912,
			"0.003": 9.6841404784,
			"0.004": 10.8547968713,
			"0.005": 14.355384699,
			"0.006": 8.6818779116,
			"0.007": 4.71696682049,
			"0.008": 3.40774709049,
			"0.009": 3.1933057145,
			"0.01": 4.92318546922,
			"0.011": 5.27151713534,
			"0.012": 8.50564840769,
			"0.013": 4.11753918811,
			"0.014": 0.00234196073278,
			"0.015": 0.0,
			"0.016": 0.0,
			"0.017": 0.0,
			"0.018": 0.0,
			"0.019": 0.0,
			"0.02": 0.0,
			"0.021": 0.0,
			"0.022": 0.0,
			"0.023": 0.0,
			"0.024": 0.0,
			"0.025": 0.0
		}
	}
}
