{
	 "smiles": "CCC1(C(=O)NC(=O)NC1=O)C1=CC=CC=C1", 
	 "Tm": 448.15, 
	 "num_atms": 29, 
	 "gaussian": { 
		 "optdone": 1, 
		 "sigma_profile": "yes", 
		 "theory": "DFT", 
		 "functional": "B3LYP", 
		 "basiset": "6-31G**", 
		 "properties": { 
			 "R2extent": 4115.173, 
			 "electric_dipole_moment_norm": 1.51036795517, 
			 "electric_quadrupole_moment_norm": 12.6310499065, 
			 "total_energy": -799.737573791, 
			 "HOMO_LUMO_gap": 0.20219, 
			 "cosmo_polarized_energy": -14.99, 
			 "cosmo_cavitation_energy": 32.03, 
			 "cosmo_dispersion_energy": -22.67, 
			 "cosmo_repulsion_energy": 1.76, 
			 "cosmo_total_nonelectrostatic_energy": 11.12, 
			 "SMD_solvation_energy": 7.42 
		},
		"coords": [
			{
				"x": -2.5984700606,
				"y": 0.805963668,
				"z": 0.6750647615,
				"element": "C" 
			},
			{
				"x": -1.4055521216,
				"y": -0.1496886315,
				"z": 0.5899189053,
				"element": "C" 
			},
			{
				"x": -0.0522502154,
				"y": 0.4678432507,
				"z": 0.1181137861,
				"element": "C" 
			},
			{
				"x": -0.0904107669,
				"y": 0.7647843672,
				"z": -1.3881566138,
				"element": "C" 
			},
			{
				"x": -1.0847521827,
				"y": 1.1355348345,
				"z": -1.9827934382,
				"element": "O" 
			},
			{
				"x": 1.1186461428,
				"y": 0.6605354688,
				"z": -2.0686210153,
				"element": "N" 
			},
			{
				"x": 2.2860166925,
				"y": 0.040568071,
				"z": -1.6396662889,
				"element": "C" 
			},
			{
				"x": 3.2825590675,
				"y": -0.0436247395,
				"z": -2.3266456435,
				"element": "O" 
			},
			{
				"x": 2.1914983817,
				"y": -0.5092317011,
				"z": -0.3676793716,
				"element": "N" 
			},
			{
				"x": 1.0789230826,
				"y": -0.5257274935,
				"z": 0.4639100298,
				"element": "C" 
			},
			{
				"x": 1.0633635393,
				"y": -1.2458015079,
				"z": 1.4442243308,
				"element": "O" 
			},
			{
				"x": 0.2703183429,
				"y": 1.7836247819,
				"z": 0.882867945,
				"element": "C" 
			},
			{
				"x": 0.657612274,
				"y": 1.7214428726,
				"z": 2.2306271637,
				"element": "C" 
			},
			{
				"x": 0.9133926498,
				"y": 2.8883667931,
				"z": 2.9502489671,
				"element": "C" 
			},
			{
				"x": 0.7890826484,
				"y": 4.1368239233,
				"z": 2.3391753127,
				"element": "C" 
			},
			{
				"x": 0.3972136613,
				"y": 4.2073867018,
				"z": 1.0031561364,
				"element": "C" 
			},
			{
				"x": 0.136816979,
				"y": 3.0418621501,
				"z": 0.2797582806,
				"element": "C" 
			},
			{
				"x": -2.4096096401,
				"y": 1.6198838641,
				"z": 1.3806091066,
				"element": "H" 
			},
			{
				"x": -2.8360485219,
				"y": 1.2387432457,
				"z": -0.2973842626,
				"element": "H" 
			},
			{
				"x": -3.4747802034,
				"y": 0.2547458638,
				"z": 1.0315430893,
				"element": "H" 
			},
			{
				"x": -1.2114392695,
				"y": -0.5922726535,
				"z": 1.5698514439,
				"element": "H" 
			},
			{
				"x": -1.6448601934,
				"y": -0.9819037245,
				"z": -0.0830425137,
				"element": "H" 
			},
			{
				"x": 1.1136415197,
				"y": 0.9490765336,
				"z": -3.0401336157,
				"element": "H" 
			},
			{
				"x": 2.9788814469,
				"y": -1.0785556061,
				"z": -0.0800750006,
				"element": "H" 
			},
			{
				"x": 0.7621977054,
				"y": 0.7581424085,
				"z": 2.7178645136,
				"element": "H" 
			},
			{
				"x": 1.2129438989,
				"y": 2.817283279,
				"z": 3.991881969,
				"element": "H" 
			},
			{
				"x": 0.9921607448,
				"y": 5.0445482637,
				"z": 2.8996641895,
				"element": "H" 
			},
			{
				"x": 0.2876084762,
				"y": 5.1718040409,
				"z": 0.5157625888,
				"element": "H" 
			},
			{
				"x": -0.1920040783,
				"y": 3.1263416752,
				"z": -0.7499447558,
				"element": "H" 
			}
		],
		 "valence_orbital": [ 
			{
				"type": "occ",
				"energy": -0.30405,
				"method": "rhf"
			},
			{
				"type": "occ",
				"energy": -0.29659,
				"method": "rhf"
			},
			{
				"type": "occ",
				"energy": -0.27068,
				"method": "rhf"
			},
			{
				"type": "occ",
				"energy": -0.26126,
				"method": "rhf"
			},
			{
				"type": "occ",
				"energy": -0.25676,
				"method": "rhf"
			},
			{
				"type": "unocc",
				"energy": -0.05457,
				"method": "rhf"
			},
			{
				"type": "unocc",
				"energy": -0.0194,
				"method": "rhf"
			},
			{
				"type": "unocc",
				"energy": -0.01557,
				"method": "rhf"
			},
			{
				"type": "unocc",
				"energy": -0.00038,
				"method": "rhf"
			},
			{
				"type": "unocc",
				"energy": 0.04974,
				"method": "rhf"
			}
		],
		"cosmo_sigma_profile": { 
			"-0.025": 0.0,
			"-0.024": 0.0,
			"-0.023": 0.0,
			"-0.022": 0.0,
			"-0.021": 0.0,
			"-0.02": 0.0,
			"-0.019": 0.0,
			"-0.018": 0.0,
			"-0.017": 0.607539858209,
			"-0.016": 1.7499469641,
			"-0.015": 2.36252653234,
			"-0.014": 1.45355854802,
			"-0.013": 0.779764950026,
			"-0.012": 1.54597281063,
			"-0.011": 3.06697918243,
			"-0.01": 2.21715927427,
			"-0.009": 2.1238444056,
			"-0.008": 3.33149722431,
			"-0.007": 3.3960323003,
			"-0.006": 9.98235167161,
			"-0.005": 15.3884456989,
			"-0.004": 17.969912721,
			"-0.003": 18.015480671,
			"-0.002": 19.229598779,
			"-0.001": 21.9626910645,
			"0.0": 18.6628160922,
			"0.001": 19.6031530059,
			"0.002": 14.828008151,
			"0.003": 13.13894377,
			"0.004": 12.4773577981,
			"0.005": 9.81322285112,
			"0.006": 4.50884878531,
			"0.007": 3.67696091579,
			"0.008": 4.39197342563,
			"0.009": 4.47653674559,
			"0.01": 8.15537939947,
			"0.011": 12.1377837719,
			"0.012": 3.28195082485,
			"0.013": 0.0,
			"0.014": 0.0,
			"0.015": 0.0,
			"0.016": 0.0,
			"0.017": 0.0,
			"0.018": 0.0,
			"0.019": 0.0,
			"0.02": 0.0,
			"0.021": 0.0,
			"0.022": 0.0,
			"0.023": 0.0,
			"0.024": 0.0,
			"0.025": 0.0
		}
	}
}
