{
	 "smiles": "CC1CN(CC(C)O1)C1CCCCCCCCCCC1", 
	 "Tm": 344.15, 
	 "num_atms": 55, 
	 "gaussian": { 
		 "optdone": 1, 
		 "sigma_profile": "yes", 
		 "theory": "DFT", 
		 "functional": "B3LYP", 
		 "basiset": "6-31G**", 
		 "properties": { 
			 "R2extent": 7285.2771, 
			 "electric_dipole_moment_norm": 1.28822068373, 
			 "electric_quadrupole_moment_norm": 7.26511947665, 
			 "total_energy": -836.987821915, 
			 "HOMO_LUMO_gap": 0.27898, 
			 "cosmo_polarized_energy": -5.24, 
			 "cosmo_cavitation_energy": 46.77, 
			 "cosmo_dispersion_energy": -32.06, 
			 "cosmo_repulsion_energy": 2.45, 
			 "cosmo_total_nonelectrostatic_energy": 17.16, 
			 "SMD_solvation_energy": 5.33 
		},
		"coords": [
			{
				"x": 0.0089230296,
				"y": -1.8151169252,
				"z": -2.8998312724,
				"element": "C" 
			},
			{
				"x": 0.7298108105,
				"y": -0.5472589983,
				"z": -3.3722226694,
				"element": "C" 
			},
			{
				"x": 0.516501826,
				"y": 0.6505734312,
				"z": -2.4362696888,
				"element": "C" 
			},
			{
				"x": 1.2227617733,
				"y": 0.4572690942,
				"z": -1.1648759596,
				"element": "N" 
			},
			{
				"x": 2.6507540209,
				"y": 0.2967597607,
				"z": -1.4664878732,
				"element": "C" 
			},
			{
				"x": 2.8865570596,
				"y": -0.8983350538,
				"z": -2.3932798866,
				"element": "C" 
			},
			{
				"x": 4.3444235878,
				"y": -1.0298079482,
				"z": -2.8132761682,
				"element": "C" 
			},
			{
				"x": 2.1254820699,
				"y": -0.7673199845,
				"z": -3.5937486327,
				"element": "O" 
			},
			{
				"x": 0.978367257,
				"y": 1.5407439048,
				"z": -0.193096666,
				"element": "C" 
			},
			{
				"x": -0.5275474175,
				"y": 1.823008344,
				"z": 0.0413118781,
				"element": "C" 
			},
			{
				"x": -1.4366140556,
				"y": 0.641962416,
				"z": 0.4359488553,
				"element": "C" 
			},
			{
				"x": -2.6295281366,
				"y": 1.0953908693,
				"z": 1.2894673791,
				"element": "C" 
			},
			{
				"x": -3.6316162513,
				"y": -0.0083934159,
				"z": 1.6627102886,
				"element": "C" 
			},
			{
				"x": -3.0671135601,
				"y": -1.2662581682,
				"z": 2.3528918497,
				"element": "C" 
			},
			{
				"x": -2.2839486174,
				"y": -1.0578071033,
				"z": 3.6798801776,
				"element": "C" 
			},
			{
				"x": -0.7421790088,
				"y": -1.2256407379,
				"z": 3.5816221384,
				"element": "C" 
			},
			{
				"x": 0.0871796213,
				"y": 0.0635403945,
				"z": 3.7231814473,
				"element": "C" 
			},
			{
				"x": 1.5561958926,
				"y": -0.1156125599,
				"z": 3.292421501,
				"element": "C" 
			},
			{
				"x": 1.7718808892,
				"y": -0.1075987188,
				"z": 1.7644082507,
				"element": "C" 
			},
			{
				"x": 1.7398465805,
				"y": 1.3160605738,
				"z": 1.1480407449,
				"element": "C" 
			},
			{
				"x": 0.2854349438,
				"y": -2.6604392139,
				"z": -3.5366076236,
				"element": "H" 
			},
			{
				"x": -1.0761933706,
				"y": -1.6785403084,
				"z": -2.9636588049,
				"element": "H" 
			},
			{
				"x": 0.2535767593,
				"y": -2.054850019,
				"z": -1.8623717444,
				"element": "H" 
			},
			{
				"x": 0.3416136904,
				"y": -0.2727150342,
				"z": -4.3603987564,
				"element": "H" 
			},
			{
				"x": -0.5546433282,
				"y": 0.7600401417,
				"z": -2.2551541241,
				"element": "H" 
			},
			{
				"x": 0.8641230674,
				"y": 1.5684891799,
				"z": -2.9504922624,
				"element": "H" 
			},
			{
				"x": 3.0629352508,
				"y": 1.2082100835,
				"z": -1.9462429633,
				"element": "H" 
			},
			{
				"x": 3.2077141655,
				"y": 0.1299510244,
				"z": -0.5419968613,
				"element": "H" 
			},
			{
				"x": 2.5790350084,
				"y": -1.8090851362,
				"z": -1.8553822438,
				"element": "H" 
			},
			{
				"x": 4.6753336326,
				"y": -0.1274888359,
				"z": -3.3371170732,
				"element": "H" 
			},
			{
				"x": 4.4636952736,
				"y": -1.8795863143,
				"z": -3.4907535169,
				"element": "H" 
			},
			{
				"x": 4.9887556961,
				"y": -1.186715119,
				"z": -1.9421864728,
				"element": "H" 
			},
			{
				"x": 1.3833119535,
				"y": 2.4909642255,
				"z": -0.6019924288,
				"element": "H" 
			},
			{
				"x": -0.9500350149,
				"y": 2.3249144472,
				"z": -0.8374729502,
				"element": "H" 
			},
			{
				"x": -0.5647810958,
				"y": 2.5788011879,
				"z": 0.8361630502,
				"element": "H" 
			},
			{
				"x": -1.7986492665,
				"y": 0.1245825499,
				"z": -0.4620118931,
				"element": "H" 
			},
			{
				"x": -0.8633921407,
				"y": -0.1024817123,
				"z": 0.9889948057,
				"element": "H" 
			},
			{
				"x": -3.173090254,
				"y": 1.8919210848,
				"z": 0.7621268366,
				"element": "H" 
			},
			{
				"x": -2.244615961,
				"y": 1.5625543692,
				"z": 2.2063090815,
				"element": "H" 
			},
			{
				"x": -4.1568201168,
				"y": -0.3337974269,
				"z": 0.7537986311,
				"element": "H" 
			},
			{
				"x": -4.4014597117,
				"y": 0.4334390711,
				"z": 2.3102530798,
				"element": "H" 
			},
			{
				"x": -2.4337659341,
				"y": -1.816740518,
				"z": 1.6459765807,
				"element": "H" 
			},
			{
				"x": -3.9212491627,
				"y": -1.9267831706,
				"z": 2.5467233136,
				"element": "H" 
			},
			{
				"x": -2.5226405919,
				"y": -0.0726068628,
				"z": 4.1024844357,
				"element": "H" 
			},
			{
				"x": -2.6615363735,
				"y": -1.781425889,
				"z": 4.4105544038,
				"element": "H" 
			},
			{
				"x": -0.4000632402,
				"y": -1.924513945,
				"z": 4.3557110949,
				"element": "H" 
			},
			{
				"x": -0.4987089492,
				"y": -1.7136829659,
				"z": 2.6295305044,
				"element": "H" 
			},
			{
				"x": 0.0460765368,
				"y": 0.395379054,
				"z": 4.7688065635,
				"element": "H" 
			},
			{
				"x": -0.3676451623,
				"y": 0.8724797975,
				"z": 3.1387373281,
				"element": "H" 
			},
			{
				"x": 1.9326129177,
				"y": -1.0596691517,
				"z": 3.7093062632,
				"element": "H" 
			},
			{
				"x": 2.1725901187,
				"y": 0.6755907697,
				"z": 3.7398762551,
				"element": "H" 
			},
			{
				"x": 1.0391729085,
				"y": -0.7542282059,
				"z": 1.2740284952,
				"element": "H" 
			},
			{
				"x": 2.7429507161,
				"y": -0.5694321281,
				"z": 1.5494805449,
				"element": "H" 
			},
			{
				"x": 1.2969547746,
				"y": 2.0137056318,
				"z": 1.8685995282,
				"element": "H" 
			},
			{
				"x": 2.7724648895,
				"y": 1.6630001642,
				"z": 1.0271832293,
				"element": "H" 
			}
		],
		 "valence_orbital": [ 
			{
				"type": "occ",
				"energy": -0.298,
				"method": "rhf"
			},
			{
				"type": "occ",
				"energy": -0.28824,
				"method": "rhf"
			},
			{
				"type": "occ",
				"energy": -0.28545,
				"method": "rhf"
			},
			{
				"type": "occ",
				"energy": -0.24469,
				"method": "rhf"
			},
			{
				"type": "occ",
				"energy": -0.2115,
				"method": "rhf"
			},
			{
				"type": "unocc",
				"energy": 0.06748,
				"method": "rhf"
			},
			{
				"type": "unocc",
				"energy": 0.08069,
				"method": "rhf"
			},
			{
				"type": "unocc",
				"energy": 0.08738,
				"method": "rhf"
			},
			{
				"type": "unocc",
				"energy": 0.09568,
				"method": "rhf"
			},
			{
				"type": "unocc",
				"energy": 0.10527,
				"method": "rhf"
			}
		],
		"cosmo_sigma_profile": { 
			"-0.025": 0.0,
			"-0.024": 0.0,
			"-0.023": 0.0,
			"-0.022": 0.0,
			"-0.021": 0.0,
			"-0.02": 0.0,
			"-0.019": 0.0,
			"-0.018": 0.0,
			"-0.017": 0.0,
			"-0.016": 0.0,
			"-0.015": 0.0,
			"-0.014": 0.0,
			"-0.013": 0.0,
			"-0.012": 0.0,
			"-0.011": 0.0,
			"-0.01": 0.0,
			"-0.009": 0.0,
			"-0.008": 0.0,
			"-0.007": 0.0,
			"-0.006": 0.0,
			"-0.005": 0.0689067504412,
			"-0.004": 9.76567848219,
			"-0.003": 27.327971136,
			"-0.002": 51.5396866968,
			"-0.001": 76.3128387,
			"0.0": 79.9392668666,
			"0.001": 59.6616228569,
			"0.002": 25.5522511314,
			"0.003": 3.92979858407,
			"0.004": 2.9626474365,
			"0.005": 2.55283957995,
			"0.006": 2.81592884769,
			"0.007": 2.32772321674,
			"0.008": 2.51131573739,
			"0.009": 2.36128878206,
			"0.01": 1.94999793315,
			"0.011": 1.55535026484,
			"0.012": 0.682343894555,
			"0.013": 1.75623272866,
			"0.014": 0.921421409009,
			"0.015": 0.0,
			"0.016": 0.0,
			"0.017": 0.0,
			"0.018": 0.0,
			"0.019": 0.0,
			"0.02": 0.0,
			"0.021": 0.0,
			"0.022": 0.0,
			"0.023": 0.0,
			"0.024": 0.0,
			"0.025": 0.0
		}
	}
}
