{
	 "smiles": "OC(=O)C1=CC2=C(OC1=O)C=CC(=C2)[N+]([O-])=O", 
	 "Tm": 473.15, 
	 "num_atms": 22, 
	 "gaussian": { 
		 "optdone": 1, 
		 "sigma_profile": "yes", 
		 "theory": "DFT", 
		 "functional": "B3LYP", 
		 "basiset": "6-31G**", 
		 "properties": { 
			 "R2extent": 5610.9038, 
			 "electric_dipole_moment_norm": 3.80035515182, 
			 "electric_quadrupole_moment_norm": 24.101692641, 
			 "total_energy": -890.089627173, 
			 "HOMO_LUMO_gap": 0.16448, 
			 "cosmo_polarized_energy": -18.57, 
			 "cosmo_cavitation_energy": 28.67, 
			 "cosmo_dispersion_energy": -21.48, 
			 "cosmo_repulsion_energy": 1.61, 
			 "cosmo_total_nonelectrostatic_energy": 8.81, 
			 "SMD_solvation_energy": 9.45 
		},
		"coords": [
			{
				"x": 3.4884825262,
				"y": -2.3340998569,
				"z": -3.2924644512,
				"element": "O" 
			},
			{
				"x": 2.2791640765,
				"y": -2.5651546931,
				"z": -2.7777472049,
				"element": "C" 
			},
			{
				"x": 1.7850568531,
				"y": -3.6706671917,
				"z": -2.7383392163,
				"element": "O" 
			},
			{
				"x": 1.532444785,
				"y": -1.3662795261,
				"z": -2.2348016259,
				"element": "C" 
			},
			{
				"x": 0.296286957,
				"y": -1.5520157931,
				"z": -1.7014813589,
				"element": "C" 
			},
			{
				"x": -0.4568709789,
				"y": -0.4512687527,
				"z": -1.1721646887,
				"element": "C" 
			},
			{
				"x": 0.1322080268,
				"y": 0.830042946,
				"z": -1.2253087808,
				"element": "C" 
			},
			{
				"x": 1.3700082422,
				"y": 1.0100442812,
				"z": -1.760301229,
				"element": "O" 
			},
			{
				"x": 2.119086288,
				"y": -0.0290329382,
				"z": -2.2776438163,
				"element": "C" 
			},
			{
				"x": 3.2151748362,
				"y": 0.2532632415,
				"z": -2.73097918,
				"element": "O" 
			},
			{
				"x": -0.5234573926,
				"y": 1.9630292266,
				"z": -0.735058531,
				"element": "C" 
			},
			{
				"x": -1.787115728,
				"y": 1.8209565559,
				"z": -0.1821162844,
				"element": "C" 
			},
			{
				"x": -2.3754821543,
				"y": 0.5498227948,
				"z": -0.127713354,
				"element": "C" 
			},
			{
				"x": -1.7376235914,
				"y": -0.5805880435,
				"z": -0.6092717452,
				"element": "C" 
			},
			{
				"x": -3.7177793949,
				"y": 0.4126698,
				"z": 0.4616979616,
				"element": "N" 
			},
			{
				"x": -4.2087820905,
				"y": -0.7135836161,
				"z": 0.4960840016,
				"element": "O" 
			},
			{
				"x": -4.2574284057,
				"y": 1.4346232112,
				"z": 0.8806842718,
				"element": "O" 
			},
			{
				"x": 3.6961735118,
				"y": -1.3734863734,
				"z": -3.2258682572,
				"element": "H" 
			},
			{
				"x": -0.1099971957,
				"y": -2.5597358921,
				"z": -1.6856597413,
				"element": "H" 
			},
			{
				"x": -0.033619547,
				"y": 2.927972004,
				"z": -0.796154562,
				"element": "H" 
			},
			{
				"x": -2.3320488599,
				"y": 2.6705335352,
				"z": 0.2097379032,
				"element": "H" 
			},
			{
				"x": -2.2272807641,
				"y": -1.5451449194,
				"z": -0.5482301113,
				"element": "H" 
			}
		],
		 "valence_orbital": [ 
			{
				"type": "occ",
				"energy": -0.32072,
				"method": "rhf"
			},
			{
				"type": "occ",
				"energy": -0.31427,
				"method": "rhf"
			},
			{
				"type": "occ",
				"energy": -0.3037,
				"method": "rhf"
			},
			{
				"type": "occ",
				"energy": -0.28786,
				"method": "rhf"
			},
			{
				"type": "occ",
				"energy": -0.2851,
				"method": "rhf"
			},
			{
				"type": "unocc",
				"energy": -0.12062,
				"method": "rhf"
			},
			{
				"type": "unocc",
				"energy": -0.11304,
				"method": "rhf"
			},
			{
				"type": "unocc",
				"energy": -0.0448,
				"method": "rhf"
			},
			{
				"type": "unocc",
				"energy": -0.03846,
				"method": "rhf"
			},
			{
				"type": "unocc",
				"energy": -0.00041,
				"method": "rhf"
			}
		],
		"cosmo_sigma_profile": { 
			"-0.025": 0.0,
			"-0.024": 0.0,
			"-0.023": 0.0,
			"-0.022": 0.0,
			"-0.021": 0.0,
			"-0.02": 0.0,
			"-0.019": 0.0,
			"-0.018": 0.0,
			"-0.017": 0.0,
			"-0.016": 0.0,
			"-0.015": 0.0,
			"-0.014": 0.0,
			"-0.013": 0.0,
			"-0.012": 0.267599821551,
			"-0.011": 2.13687375602,
			"-0.01": 2.5592854989,
			"-0.009": 7.56821026258,
			"-0.008": 10.0946561527,
			"-0.007": 11.6769110944,
			"-0.006": 14.2735060355,
			"-0.005": 12.176279397,
			"-0.004": 17.8640661319,
			"-0.003": 23.4247640012,
			"-0.002": 19.1389181821,
			"-0.001": 10.7976846895,
			"0.0": 8.39993025138,
			"0.001": 5.21074940864,
			"0.002": 5.44019921355,
			"0.003": 6.83365283473,
			"0.004": 6.53361742041,
			"0.005": 6.98701429722,
			"0.006": 9.2384763989,
			"0.007": 13.8272469851,
			"0.008": 9.87571504506,
			"0.009": 9.70138738826,
			"0.01": 8.08970594131,
			"0.011": 6.06844011016,
			"0.012": 3.28943631757,
			"0.013": 1.09398902122,
			"0.014": 0.0,
			"0.015": 0.0,
			"0.016": 0.0,
			"0.017": 0.0,
			"0.018": 0.0,
			"0.019": 0.0,
			"0.02": 0.0,
			"0.021": 0.0,
			"0.022": 0.0,
			"0.023": 0.0,
			"0.024": 0.0,
			"0.025": 0.0
		}
	}
}
