{
	 "smiles": "CC1=C(CC(O)=O)SC(S)=N1", 
	 "Tm": 479.15, 
	 "num_atms": 18, 
	 "gaussian": { 
		 "optdone": 1, 
		 "sigma_profile": "yes", 
		 "theory": "DFT", 
		 "functional": "B3LYP", 
		 "basiset": "6-31G**", 
		 "properties": { 
			 "R2extent": 3084.3968, 
			 "electric_dipole_moment_norm": 3.19438644813, 
			 "electric_quadrupole_moment_norm": 7.39481657379, 
			 "total_energy": -1234.43458617, 
			 "HOMO_LUMO_gap": 0.19352, 
			 "cosmo_polarized_energy": -15.07, 
			 "cosmo_cavitation_energy": 26.23, 
			 "cosmo_dispersion_energy": -19.76, 
			 "cosmo_repulsion_energy": 1.53, 
			 "cosmo_total_nonelectrostatic_energy": 8.0, 
			 "SMD_solvation_energy": 3.23 
		},
		"coords": [
			{
				"x": -1.7335461949,
				"y": -0.605133889,
				"z": 0.9522227877,
				"element": "C" 
			},
			{
				"x": -1.2323636574,
				"y": 0.2673694264,
				"z": -0.1606293491,
				"element": "C" 
			},
			{
				"x": -0.2629157746,
				"y": -0.0606869254,
				"z": -1.0711040226,
				"element": "C" 
			},
			{
				"x": 0.5328988171,
				"y": -1.3238141266,
				"z": -1.1910785368,
				"element": "C" 
			},
			{
				"x": 1.6588077104,
				"y": -1.4479799823,
				"z": -0.1686234431,
				"element": "C" 
			},
			{
				"x": 2.5564240454,
				"y": -2.3840087385,
				"z": -0.5609625255,
				"element": "O" 
			},
			{
				"x": 1.7492015006,
				"y": -0.8424924407,
				"z": 0.8728303452,
				"element": "O" 
			},
			{
				"x": 0.0235266036,
				"y": 1.3002300126,
				"z": -2.1390991546,
				"element": "S" 
			},
			{
				"x": -1.2100695367,
				"y": 2.1927210047,
				"z": -1.2591812598,
				"element": "C" 
			},
			{
				"x": -1.714441233,
				"y": 3.8443683983,
				"z": -1.6534657483,
				"element": "S" 
			},
			{
				"x": -1.7607139644,
				"y": 1.5400200834,
				"z": -0.2845050845,
				"element": "N" 
			},
			{
				"x": -1.288779561,
				"y": -0.3004755831,
				"z": 1.9056468811,
				"element": "H" 
			},
			{
				"x": -2.8191685752,
				"y": -0.5122230384,
				"z": 1.0432926612,
				"element": "H" 
			},
			{
				"x": -1.4819632615,
				"y": -1.6564367765,
				"z": 0.7918140153,
				"element": "H" 
			},
			{
				"x": -0.1174794367,
				"y": -2.1953484986,
				"z": -1.0371366193,
				"element": "H" 
			},
			{
				"x": 0.957535357,
				"y": -1.4502142967,
				"z": -2.1909240082,
				"element": "H" 
			},
			{
				"x": 3.2177910614,
				"y": -2.4416572103,
				"z": 0.1492954994,
				"element": "H" 
			},
			{
				"x": -0.8295439001,
				"y": 4.0370625809,
				"z": -2.651292438,
				"element": "H" 
			}
		],
		 "valence_orbital": [ 
			{
				"type": "occ",
				"energy": -0.29985,
				"method": "rhf"
			},
			{
				"type": "occ",
				"energy": -0.2849,
				"method": "rhf"
			},
			{
				"type": "occ",
				"energy": -0.27685,
				"method": "rhf"
			},
			{
				"type": "occ",
				"energy": -0.27613,
				"method": "rhf"
			},
			{
				"type": "occ",
				"energy": -0.21938,
				"method": "rhf"
			},
			{
				"type": "unocc",
				"energy": -0.02586,
				"method": "rhf"
			},
			{
				"type": "unocc",
				"energy": -0.01843,
				"method": "rhf"
			},
			{
				"type": "unocc",
				"energy": -0.00034,
				"method": "rhf"
			},
			{
				"type": "unocc",
				"energy": 0.03175,
				"method": "rhf"
			},
			{
				"type": "unocc",
				"energy": 0.04688,
				"method": "rhf"
			}
		],
		"cosmo_sigma_profile": { 
			"-0.025": 0.0,
			"-0.024": 0.0,
			"-0.023": 0.0,
			"-0.022": 0.0,
			"-0.021": 0.0,
			"-0.02": 0.0,
			"-0.019": 0.0731515311272,
			"-0.018": 0.786966296248,
			"-0.017": 1.09699586942,
			"-0.016": 0.913573610646,
			"-0.015": 0.650927359336,
			"-0.014": 0.609628743324,
			"-0.013": 0.646042876773,
			"-0.012": 2.73215314142,
			"-0.011": 3.67424332397,
			"-0.01": 2.22272687217,
			"-0.009": 2.80637936372,
			"-0.008": 7.23801270586,
			"-0.007": 7.79848573756,
			"-0.006": 7.4047772494,
			"-0.005": 8.74448649755,
			"-0.004": 11.2023310944,
			"-0.003": 11.0241359285,
			"-0.002": 12.1484566829,
			"-0.001": 12.4670356389,
			"0.0": 15.6027890291,
			"0.001": 15.3832150593,
			"0.002": 17.578162251,
			"0.003": 14.3587108266,
			"0.004": 10.8077299399,
			"0.005": 8.17283353739,
			"0.006": 6.87561231616,
			"0.007": 6.76215920658,
			"0.008": 4.7835064479,
			"0.009": 4.85467611175,
			"0.01": 3.63039179434,
			"0.011": 5.20826658809,
			"0.012": 3.18938398697,
			"0.013": 1.10724236739,
			"0.014": 0.700436004227,
			"0.015": 0.0883667531472,
			"0.016": 0.0,
			"0.017": 0.0,
			"0.018": 0.0,
			"0.019": 0.0,
			"0.02": 0.0,
			"0.021": 0.0,
			"0.022": 0.0,
			"0.023": 0.0,
			"0.024": 0.0,
			"0.025": 0.0
		}
	}
}
