{
	 "smiles": "O=CC1=CC=C(C=C1)C1=CC=C(C=O)C=C1", 
	 "Tm": 421.15, 
	 "num_atms": 26, 
	 "gaussian": { 
		 "optdone": 1, 
		 "sigma_profile": "yes", 
		 "theory": "DFT", 
		 "functional": "B3LYP", 
		 "basiset": "6-31G**", 
		 "properties": { 
			 "R2extent": 5679.2305, 
			 "electric_dipole_moment_norm": 3.08757748567, 
			 "electric_quadrupole_moment_norm": 32.2933734644, 
			 "total_energy": -689.956465681, 
			 "HOMO_LUMO_gap": 0.16143, 
			 "cosmo_polarized_energy": -13.39, 
			 "cosmo_cavitation_energy": 31.63, 
			 "cosmo_dispersion_energy": -22.61, 
			 "cosmo_repulsion_energy": 1.72, 
			 "cosmo_total_nonelectrostatic_energy": 10.73, 
			 "SMD_solvation_energy": 7.28 
		},
		"coords": [
			{
				"x": 5.8692526148,
				"y": -0.9249028875,
				"z": -2.0337120203,
				"element": "O" 
			},
			{
				"x": 5.4893068518,
				"y": -0.5965274833,
				"z": -0.925822294,
				"element": "C" 
			},
			{
				"x": 4.0789613832,
				"y": -0.3255980967,
				"z": -0.5681326359,
				"element": "C" 
			},
			{
				"x": 3.0664643525,
				"y": -0.4429277657,
				"z": -1.5325762527,
				"element": "C" 
			},
			{
				"x": 1.7457064649,
				"y": -0.1882986474,
				"z": -1.1914130736,
				"element": "C" 
			},
			{
				"x": 1.3978380491,
				"y": 0.1926880736,
				"z": 0.1207514404,
				"element": "C" 
			},
			{
				"x": 2.4201197435,
				"y": 0.3077690371,
				"z": 1.0796969574,
				"element": "C" 
			},
			{
				"x": 3.7442839904,
				"y": 0.0510494048,
				"z": 0.7385026853,
				"element": "C" 
			},
			{
				"x": -0.0148597406,
				"y": 0.4655615448,
				"z": 0.4810939897,
				"element": "C" 
			},
			{
				"x": -1.0600420095,
				"y": -0.304759886,
				"z": -0.0685777544,
				"element": "C" 
			},
			{
				"x": -2.3827752749,
				"y": -0.0531423433,
				"z": 0.2671237806,
				"element": "C" 
			},
			{
				"x": -2.6986178366,
				"y": 0.9800065887,
				"z": 1.1626140988,
				"element": "C" 
			},
			{
				"x": -4.1075134961,
				"y": 1.2535967527,
				"z": 1.5239363231,
				"element": "C" 
			},
			{
				"x": -5.0623733882,
				"y": 0.6329960905,
				"z": 1.0964905112,
				"element": "O" 
			},
			{
				"x": -1.6682358705,
				"y": 1.7519425336,
				"z": 1.7136047571,
				"element": "C" 
			},
			{
				"x": -0.3420710696,
				"y": 1.4982730794,
				"z": 1.3779387286,
				"element": "C" 
			},
			{
				"x": 6.2105240656,
				"y": -0.4770855524,
				"z": -0.0864339067,
				"element": "H" 
			},
			{
				"x": 3.3441589222,
				"y": -0.7273826709,
				"z": -2.542623169,
				"element": "H" 
			},
			{
				"x": 0.9716635149,
				"y": -0.2559825759,
				"z": -1.9495489352,
				"element": "H" 
			},
			{
				"x": 2.1682098744,
				"y": 0.5720536257,
				"z": 2.1018990267,
				"element": "H" 
			},
			{
				"x": 4.5259894233,
				"y": 0.1338277104,
				"z": 1.4902299944,
				"element": "H" 
			},
			{
				"x": -0.8221710793,
				"y": -1.1224640092,
				"z": -0.7418298854,
				"element": "H" 
			},
			{
				"x": -3.1927181629,
				"y": -0.6474655784,
				"z": -0.1439661392,
				"element": "H" 
			},
			{
				"x": -4.2466256837,
				"y": 2.0956004545,
				"z": 2.238548551,
				"element": "H" 
			},
			{
				"x": -1.9109461199,
				"y": 2.5592321736,
				"z": 2.4009093425,
				"element": "H" 
			},
			{
				"x": 0.446670481,
				"y": 2.1203404271,
				"z": 1.7891958795,
				"element": "H" 
			}
		],
		 "valence_orbital": [ 
			{
				"type": "occ",
				"energy": -0.2754,
				"method": "rhf"
			},
			{
				"type": "occ",
				"energy": -0.27478,
				"method": "rhf"
			},
			{
				"type": "occ",
				"energy": -0.26071,
				"method": "rhf"
			},
			{
				"type": "occ",
				"energy": -0.26021,
				"method": "rhf"
			},
			{
				"type": "occ",
				"energy": -0.24908,
				"method": "rhf"
			},
			{
				"type": "unocc",
				"energy": -0.08765,
				"method": "rhf"
			},
			{
				"type": "unocc",
				"energy": -0.0545,
				"method": "rhf"
			},
			{
				"type": "unocc",
				"energy": -0.02676,
				"method": "rhf"
			},
			{
				"type": "unocc",
				"energy": -0.02208,
				"method": "rhf"
			},
			{
				"type": "unocc",
				"energy": 0.01645,
				"method": "rhf"
			}
		],
		"cosmo_sigma_profile": { 
			"-0.025": 0.0,
			"-0.024": 0.0,
			"-0.023": 0.0,
			"-0.022": 0.0,
			"-0.021": 0.0,
			"-0.02": 0.0,
			"-0.019": 0.0,
			"-0.018": 0.0,
			"-0.017": 0.0,
			"-0.016": 0.0,
			"-0.015": 0.0,
			"-0.014": 0.0,
			"-0.013": 0.0,
			"-0.012": 0.0,
			"-0.011": 0.0,
			"-0.01": 0.0,
			"-0.009": 0.0,
			"-0.008": 2.1511600963,
			"-0.007": 14.9138193099,
			"-0.006": 23.3619148084,
			"-0.005": 19.7406214113,
			"-0.004": 17.3026951287,
			"-0.003": 14.8757352583,
			"-0.002": 15.3304890253,
			"-0.001": 14.9302017385,
			"0.0": 18.8867433038,
			"0.001": 21.3920904249,
			"0.002": 24.3276032329,
			"0.003": 24.9411053681,
			"0.004": 4.40877875437,
			"0.005": 3.26065972173,
			"0.006": 3.15708376504,
			"0.007": 3.46357843423,
			"0.008": 3.36207137765,
			"0.009": 3.75043982903,
			"0.01": 5.62872460124,
			"0.011": 8.15319231258,
			"0.012": 5.72699254528,
			"0.013": 1.56591590052,
			"0.014": 0.0,
			"0.015": 0.0,
			"0.016": 0.0,
			"0.017": 0.0,
			"0.018": 0.0,
			"0.019": 0.0,
			"0.02": 0.0,
			"0.021": 0.0,
			"0.022": 0.0,
			"0.023": 0.0,
			"0.024": 0.0,
			"0.025": 0.0
		}
	}
}
