{
	 "smiles": "NC(=O)COCC1=CC=CC=C1", 
	 "Tm": 366.15, 
	 "num_atms": 23, 
	 "gaussian": { 
		 "optdone": 1, 
		 "sigma_profile": "yes", 
		 "theory": "DFT", 
		 "functional": "B3LYP", 
		 "basiset": "6-31G**", 
		 "properties": { 
			 "R2extent": 2528.1734, 
			 "electric_dipole_moment_norm": 3.45978072571, 
			 "electric_quadrupole_moment_norm": 18.6221778635, 
			 "total_energy": -554.786899435, 
			 "HOMO_LUMO_gap": 0.21357, 
			 "cosmo_polarized_energy": -13.54, 
			 "cosmo_cavitation_energy": 26.62, 
			 "cosmo_dispersion_energy": -18.61, 
			 "cosmo_repulsion_energy": 1.51, 
			 "cosmo_total_nonelectrostatic_energy": 9.52, 
			 "SMD_solvation_energy": 5.24 
		},
		"coords": [
			{
				"x": 1.6459611882,
				"y": 1.7819187916,
				"z": 1.865388627,
				"element": "N" 
			},
			{
				"x": 0.7998296909,
				"y": 2.8078335481,
				"z": 1.5831179861,
				"element": "C" 
			},
			{
				"x": 1.1518511117,
				"y": 3.9434741727,
				"z": 1.2972421831,
				"element": "O" 
			},
			{
				"x": -0.6878320005,
				"y": 2.4685001115,
				"z": 1.7489195435,
				"element": "C" 
			},
			{
				"x": -0.9991286536,
				"y": 1.0822217242,
				"z": 1.7600959406,
				"element": "O" 
			},
			{
				"x": -1.4565599649,
				"y": 0.5435825356,
				"z": 0.5123761008,
				"element": "C" 
			},
			{
				"x": -0.3537985626,
				"y": 0.2706012527,
				"z": -0.4885995558,
				"element": "C" 
			},
			{
				"x": 0.4338105744,
				"y": -0.8837202866,
				"z": -0.3675997717,
				"element": "C" 
			},
			{
				"x": 1.4762539675,
				"y": -1.1319431009,
				"z": -1.2598350795,
				"element": "C" 
			},
			{
				"x": 1.74341821,
				"y": -0.2268832588,
				"z": -2.2907108184,
				"element": "C" 
			},
			{
				"x": 0.9619465136,
				"y": 0.9212694358,
				"z": -2.4253347601,
				"element": "C" 
			},
			{
				"x": -0.0812047917,
				"y": 1.1658857065,
				"z": -1.5297101473,
				"element": "C" 
			},
			{
				"x": 2.6288190512,
				"y": 1.9141265439,
				"z": 1.6819968969,
				"element": "H" 
			},
			{
				"x": 1.2723046878,
				"y": 0.8472574759,
				"z": 1.9275565134,
				"element": "H" 
			},
			{
				"x": -1.2384055865,
				"y": 3.0104391538,
				"z": 0.9708304612,
				"element": "H" 
			},
			{
				"x": -1.0019957669,
				"y": 2.8756217418,
				"z": 2.7178201622,
				"element": "H" 
			},
			{
				"x": -1.9586636878,
				"y": -0.3906667639,
				"z": 0.7822719117,
				"element": "H" 
			},
			{
				"x": -2.2073325287,
				"y": 1.2166301841,
				"z": 0.0746092584,
				"element": "H" 
			},
			{
				"x": 0.2209704784,
				"y": -1.5938358567,
				"z": 0.4286346398,
				"element": "H" 
			},
			{
				"x": 2.0746368962,
				"y": -2.0329545993,
				"z": -1.1577161169,
				"element": "H" 
			},
			{
				"x": 2.5529693286,
				"y": -0.4199567984,
				"z": -2.9886893651,
				"element": "H" 
			},
			{
				"x": 1.1623256159,
				"y": 1.6262835465,
				"z": -3.2268203045,
				"element": "H" 
			},
			{
				"x": -0.6890757712,
				"y": 2.0602147397,
				"z": -1.6422443053,
				"element": "H" 
			}
		],
		 "valence_orbital": [ 
			{
				"type": "occ",
				"energy": -0.2911,
				"method": "rhf"
			},
			{
				"type": "occ",
				"energy": -0.26113,
				"method": "rhf"
			},
			{
				"type": "occ",
				"energy": -0.25912,
				"method": "rhf"
			},
			{
				"type": "occ",
				"energy": -0.25429,
				"method": "rhf"
			},
			{
				"type": "occ",
				"energy": -0.23163,
				"method": "rhf"
			},
			{
				"type": "unocc",
				"energy": -0.01806,
				"method": "rhf"
			},
			{
				"type": "unocc",
				"energy": -0.01207,
				"method": "rhf"
			},
			{
				"type": "unocc",
				"energy": 0.03708,
				"method": "rhf"
			},
			{
				"type": "unocc",
				"energy": 0.07753,
				"method": "rhf"
			},
			{
				"type": "unocc",
				"energy": 0.09527,
				"method": "rhf"
			}
		],
		"cosmo_sigma_profile": { 
			"-0.025": 0.0,
			"-0.024": 0.0,
			"-0.023": 0.0,
			"-0.022": 0.0,
			"-0.021": 0.0,
			"-0.02": 0.0,
			"-0.019": 0.0,
			"-0.018": 0.0,
			"-0.017": 0.0,
			"-0.016": 0.0,
			"-0.015": 0.0,
			"-0.014": 0.596248537954,
			"-0.013": 1.10971226777,
			"-0.012": 1.00134943422,
			"-0.011": 1.10625830625,
			"-0.01": 1.86401771109,
			"-0.009": 2.21992004626,
			"-0.008": 1.83108010128,
			"-0.007": 3.62831548016,
			"-0.006": 16.0581394615,
			"-0.005": 21.0771634339,
			"-0.004": 20.7953555323,
			"-0.003": 18.3510774622,
			"-0.002": 12.92192948,
			"-0.001": 11.2135128088,
			"0.0": 9.73542284211,
			"0.001": 9.98322087445,
			"0.002": 9.50907555446,
			"0.003": 11.4221423789,
			"0.004": 12.4628984178,
			"0.005": 12.3000488991,
			"0.006": 5.82392412538,
			"0.007": 2.57873573536,
			"0.008": 2.62906343156,
			"0.009": 1.650209898,
			"0.01": 1.45951952837,
			"0.011": 2.90539819297,
			"0.012": 2.30779928823,
			"0.013": 3.60242813516,
			"0.014": 5.99214100319,
			"0.015": 2.19353185518,
			"0.016": 0.0,
			"0.017": 0.0,
			"0.018": 0.0,
			"0.019": 0.0,
			"0.02": 0.0,
			"0.021": 0.0,
			"0.022": 0.0,
			"0.023": 0.0,
			"0.024": 0.0,
			"0.025": 0.0
		}
	}
}
