{
	 "smiles": "NC(=O)NC1NC(=O)NC1=O", 
	 "Tm": 511.15, 
	 "num_atms": 17, 
	 "gaussian": { 
		 "optdone": 1, 
		 "sigma_profile": "yes", 
		 "theory": "DFT", 
		 "functional": "B3LYP", 
		 "basiset": "6-31G**", 
		 "properties": { 
			 "R2extent": 2400.0607, 
			 "electric_dipole_moment_norm": 2.49220308362, 
			 "electric_quadrupole_moment_norm": 12.9492015665, 
			 "total_energy": -600.777762327, 
			 "HOMO_LUMO_gap": 0.21436, 
			 "cosmo_polarized_energy": -23.16, 
			 "cosmo_cavitation_energy": 21.97, 
			 "cosmo_dispersion_energy": -16.64, 
			 "cosmo_repulsion_energy": 1.38, 
			 "cosmo_total_nonelectrostatic_energy": 6.71, 
			 "SMD_solvation_energy": 5.1 
		},
		"coords": [
			{
				"x": 1.7092579386,
				"y": -2.2115527948,
				"z": -0.7405168089,
				"element": "N" 
			},
			{
				"x": 0.5734455591,
				"y": -2.0828275213,
				"z": 0.0378883934,
				"element": "C" 
			},
			{
				"x": 0.29522048,
				"y": -2.8031679678,
				"z": 0.9843624136,
				"element": "O" 
			},
			{
				"x": -0.2450975197,
				"y": -1.0196018332,
				"z": -0.3381499143,
				"element": "N" 
			},
			{
				"x": 0.2134543634,
				"y": 0.1540158003,
				"z": -1.0577432685,
				"element": "C" 
			},
			{
				"x": -0.6279685144,
				"y": 1.3036655448,
				"z": -0.811802908,
				"element": "N" 
			},
			{
				"x": -1.1313955337,
				"y": 1.8696920649,
				"z": -1.9672458509,
				"element": "C" 
			},
			{
				"x": -1.7813495516,
				"y": 2.8819753456,
				"z": -2.0840729157,
				"element": "O" 
			},
			{
				"x": -0.7245381985,
				"y": 1.0146529253,
				"z": -3.0171927255,
				"element": "N" 
			},
			{
				"x": 0.079167493,
				"y": -0.012072075,
				"z": -2.5926299092,
				"element": "C" 
			},
			{
				"x": 0.5912274932,
				"y": -0.8886564958,
				"z": -3.2612054825,
				"element": "O" 
			},
			{
				"x": 2.2245566304,
				"y": -3.0549885895,
				"z": -0.5311005138,
				"element": "H" 
			},
			{
				"x": 1.6142980234,
				"y": -1.9949830502,
				"z": -1.7292104032,
				"element": "H" 
			},
			{
				"x": -1.06843802,
				"y": -0.9065707219,
				"z": 0.2356560575,
				"element": "H" 
			},
			{
				"x": 1.2728185866,
				"y": 0.33906072,
				"z": -0.8272108759,
				"element": "H" 
			},
			{
				"x": -0.5716436831,
				"y": 1.8657744315,
				"z": 0.0246507797,
				"element": "H" 
			},
			{
				"x": -1.0108155464,
				"y": 1.166384217,
				"z": -3.9745760678,
				"element": "H" 
			}
		],
		 "valence_orbital": [ 
			{
				"type": "occ",
				"energy": -0.30598,
				"method": "rhf"
			},
			{
				"type": "occ",
				"energy": -0.29548,
				"method": "rhf"
			},
			{
				"type": "occ",
				"energy": -0.27499,
				"method": "rhf"
			},
			{
				"type": "occ",
				"energy": -0.26663,
				"method": "rhf"
			},
			{
				"type": "occ",
				"energy": -0.25078,
				"method": "rhf"
			},
			{
				"type": "unocc",
				"energy": -0.03642,
				"method": "rhf"
			},
			{
				"type": "unocc",
				"energy": 0.03497,
				"method": "rhf"
			},
			{
				"type": "unocc",
				"energy": 0.04676,
				"method": "rhf"
			},
			{
				"type": "unocc",
				"energy": 0.05887,
				"method": "rhf"
			},
			{
				"type": "unocc",
				"energy": 0.08209,
				"method": "rhf"
			}
		],
		"cosmo_sigma_profile": { 
			"-0.025": 0.0,
			"-0.024": 0.0,
			"-0.023": 0.0,
			"-0.022": 0.0,
			"-0.021": 0.0,
			"-0.02": 0.0,
			"-0.019": 0.0,
			"-0.018": 0.208223739473,
			"-0.017": 1.17004358713,
			"-0.016": 2.76186998856,
			"-0.015": 2.6590016197,
			"-0.014": 2.12415978435,
			"-0.013": 3.61331426875,
			"-0.012": 4.02301860301,
			"-0.011": 4.25146297742,
			"-0.01": 4.46564852855,
			"-0.009": 7.14240820535,
			"-0.008": 7.07762478024,
			"-0.007": 6.30434592511,
			"-0.006": 5.4698805402,
			"-0.005": 6.6915968841,
			"-0.004": 6.7224521541,
			"-0.003": 9.64038016493,
			"-0.002": 7.68558511749,
			"-0.001": 6.30991050885,
			"0.0": 5.6407832888,
			"0.001": 6.01288613521,
			"0.002": 6.39707569052,
			"0.003": 6.20773871435,
			"0.004": 5.51113433566,
			"0.005": 3.99197211104,
			"0.006": 3.2827464999,
			"0.007": 5.15408227952,
			"0.008": 4.15759728055,
			"0.009": 4.72179324644,
			"0.01": 5.7686003022,
			"0.011": 7.79049890542,
			"0.012": 8.4997640716,
			"0.013": 4.49486942031,
			"0.014": 6.53640515093,
			"0.015": 1.61023151423,
			"0.016": 0.0,
			"0.017": 0.0,
			"0.018": 0.0,
			"0.019": 0.0,
			"0.02": 0.0,
			"0.021": 0.0,
			"0.022": 0.0,
			"0.023": 0.0,
			"0.024": 0.0,
			"0.025": 0.0
		}
	}
}
