{
	 "smiles": "OC(=O)C1C2CCCC12", 
	 "Tm": 308.15, 
	 "num_atms": 19, 
	 "gaussian": { 
		 "optdone": 1, 
		 "sigma_profile": "yes", 
		 "theory": "DFT", 
		 "functional": "B3LYP", 
		 "basiset": "6-31G**", 
		 "properties": { 
			 "R2extent": 1564.4492, 
			 "electric_dipole_moment_norm": 4.87429598609, 
			 "electric_quadrupole_moment_norm": 14.4102881717, 
			 "total_energy": -423.1147391, 
			 "HOMO_LUMO_gap": 0.22947, 
			 "cosmo_polarized_energy": -11.57, 
			 "cosmo_cavitation_energy": 21.31, 
			 "cosmo_dispersion_energy": -15.95, 
			 "cosmo_repulsion_energy": 1.31, 
			 "cosmo_total_nonelectrostatic_energy": 6.67, 
			 "SMD_solvation_energy": 3.9 
		},
		"coords": [
			{
				"x": -1.0250096591,
				"y": -0.2666979465,
				"z": -3.0255816564,
				"element": "O" 
			},
			{
				"x": -1.0688760958,
				"y": -1.4681073215,
				"z": -2.3947824587,
				"element": "C" 
			},
			{
				"x": -1.7785538449,
				"y": -2.3600169375,
				"z": -2.7860472071,
				"element": "O" 
			},
			{
				"x": -0.1925633626,
				"y": -1.5770398492,
				"z": -1.1687003235,
				"element": "C" 
			},
			{
				"x": -0.6727252504,
				"y": -0.846212609,
				"z": 0.0641818277,
				"element": "C" 
			},
			{
				"x": -0.4000308334,
				"y": -0.5848569347,
				"z": 1.538522184,
				"element": "C" 
			},
			{
				"x": 0.285129361,
				"y": 0.8510785606,
				"z": 1.3961724992,
				"element": "C" 
			},
			{
				"x": 0.702996845,
				"y": 1.0197334597,
				"z": -0.1378431879,
				"element": "C" 
			},
			{
				"x": 0.6569756567,
				"y": -0.4523421731,
				"z": -0.5629363461,
				"element": "C" 
			},
			{
				"x": -0.2908478177,
				"y": 0.24742477,
				"z": -2.6543327921,
				"element": "H" 
			},
			{
				"x": 0.285746558,
				"y": -2.5504331426,
				"z": -1.0911111915,
				"element": "H" 
			},
			{
				"x": -1.4350831028,
				"y": -0.1347232409,
				"z": -0.2659489876,
				"element": "H" 
			},
			{
				"x": 0.2901715688,
				"y": -1.3100462258,
				"z": 1.9789010847,
				"element": "H" 
			},
			{
				"x": -1.2988935938,
				"y": -0.548378923,
				"z": 2.162184401,
				"element": "H" 
			},
			{
				"x": 1.1621620803,
				"y": 0.9282476245,
				"z": 2.046960637,
				"element": "H" 
			},
			{
				"x": -0.4030499149,
				"y": 1.6470319478,
				"z": 1.6988051691,
				"element": "H" 
			},
			{
				"x": -0.018242194,
				"y": 1.6517264326,
				"z": -0.6665570442,
				"element": "H" 
			},
			{
				"x": 1.6914085361,
				"y": 1.4789501123,
				"z": -0.2431280338,
				"element": "H" 
			},
			{
				"x": 1.4707850634,
				"y": -0.9615376038,
				"z": -0.0411585737,
				"element": "H" 
			}
		],
		 "valence_orbital": [ 
			{
				"type": "occ",
				"energy": -0.34231,
				"method": "rhf"
			},
			{
				"type": "occ",
				"energy": -0.33024,
				"method": "rhf"
			},
			{
				"type": "occ",
				"energy": -0.31264,
				"method": "rhf"
			},
			{
				"type": "occ",
				"energy": -0.27789,
				"method": "rhf"
			},
			{
				"type": "occ",
				"energy": -0.23795,
				"method": "rhf"
			},
			{
				"type": "unocc",
				"energy": -0.00848,
				"method": "rhf"
			},
			{
				"type": "unocc",
				"energy": 0.05086,
				"method": "rhf"
			},
			{
				"type": "unocc",
				"energy": 0.06085,
				"method": "rhf"
			},
			{
				"type": "unocc",
				"energy": 0.08271,
				"method": "rhf"
			},
			{
				"type": "unocc",
				"energy": 0.09887,
				"method": "rhf"
			}
		],
		"cosmo_sigma_profile": { 
			"-0.025": 0.0,
			"-0.024": 0.0,
			"-0.023": 0.0,
			"-0.022": 0.0,
			"-0.021": 0.0,
			"-0.02": 0.0,
			"-0.019": 0.0,
			"-0.018": 0.0,
			"-0.017": 0.0,
			"-0.016": 0.0,
			"-0.015": 0.331437645996,
			"-0.014": 0.524593717959,
			"-0.013": 0.838565875366,
			"-0.012": 0.915756791528,
			"-0.011": 1.44012871799,
			"-0.01": 1.26888720676,
			"-0.009": 1.40758787847,
			"-0.008": 2.20002537958,
			"-0.007": 3.95468325031,
			"-0.006": 4.9019675343,
			"-0.005": 8.99433878205,
			"-0.004": 11.6177797974,
			"-0.003": 18.6417004128,
			"-0.002": 21.5885271157,
			"-0.001": 16.3023332257,
			"0.0": 15.0848734221,
			"0.001": 9.93393870345,
			"0.002": 5.12393393921,
			"0.003": 5.02374398087,
			"0.004": 4.65922317279,
			"0.005": 2.63019422526,
			"0.006": 2.377189498,
			"0.007": 2.92955404278,
			"0.008": 2.61493653492,
			"0.009": 3.58937788484,
			"0.01": 5.25347016466,
			"0.011": 5.13076861712,
			"0.012": 5.57408499473,
			"0.013": 1.84209479458,
			"0.014": 0.00652737572419,
			"0.015": 0.0,
			"0.016": 0.0,
			"0.017": 0.0,
			"0.018": 0.0,
			"0.019": 0.0,
			"0.02": 0.0,
			"0.021": 0.0,
			"0.022": 0.0,
			"0.023": 0.0,
			"0.024": 0.0,
			"0.025": 0.0
		}
	}
}
