{
	 "smiles": "CCC(CC)C(N)CC(O)=O", 
	 "Tm": 487.15, 
	 "num_atms": 28, 
	 "gaussian": { 
		 "optdone": 1, 
		 "sigma_profile": "yes", 
		 "theory": "DFT", 
		 "functional": "B3LYP", 
		 "basiset": "6-31G**", 
		 "properties": { 
			 "R2extent": 2311.3958, 
			 "electric_dipole_moment_norm": 1.64672437888, 
			 "electric_quadrupole_moment_norm": 8.39818594698, 
			 "total_energy": -520.319561217, 
			 "HOMO_LUMO_gap": 0.22745, 
			 "cosmo_polarized_energy": -10.19, 
			 "cosmo_cavitation_energy": 27.92, 
			 "cosmo_dispersion_energy": -19.82, 
			 "cosmo_repulsion_energy": 1.6, 
			 "cosmo_total_nonelectrostatic_energy": 9.7, 
			 "SMD_solvation_energy": 4.4 
		},
		"coords": [
			{
				"x": 1.1923499555,
				"y": -1.910531082,
				"z": -1.3326561469,
				"element": "C" 
			},
			{
				"x": 1.5445243179,
				"y": -0.6552087543,
				"z": -0.5181190151,
				"element": "C" 
			},
			{
				"x": 0.3683737391,
				"y": 0.19769837,
				"z": 0.0339395373,
				"element": "C" 
			},
			{
				"x": -0.7788393644,
				"y": -0.6436717826,
				"z": 0.6264236271,
				"element": "C" 
			},
			{
				"x": -0.3724982312,
				"y": -1.4371750437,
				"z": 1.8752040026,
				"element": "C" 
			},
			{
				"x": -0.0763370448,
				"y": 1.3318697851,
				"z": -0.9498401058,
				"element": "C" 
			},
			{
				"x": -0.9974811305,
				"y": 2.3220719568,
				"z": -0.3873431013,
				"element": "N" 
			},
			{
				"x": -0.618563184,
				"y": 0.8921460002,
				"z": -2.3287439442,
				"element": "C" 
			},
			{
				"x": -1.9341842532,
				"y": 0.1467664716,
				"z": -2.3114261002,
				"element": "C" 
			},
			{
				"x": -1.9432948295,
				"y": -0.8936499283,
				"z": -3.1798315877,
				"element": "O" 
			},
			{
				"x": -2.9090693578,
				"y": 0.4270925302,
				"z": -1.6416889183,
				"element": "O" 
			},
			{
				"x": 0.5284010092,
				"y": -1.7066688625,
				"z": -2.1771077054,
				"element": "H" 
			},
			{
				"x": 0.7019924619,
				"y": -2.667926046,
				"z": -0.7128978456,
				"element": "H" 
			},
			{
				"x": 2.104655836,
				"y": -2.3641617065,
				"z": -1.7344221156,
				"element": "H" 
			},
			{
				"x": 2.1893601059,
				"y": -0.001721895,
				"z": -1.122034362,
				"element": "H" 
			},
			{
				"x": 2.1684873551,
				"y": -0.9719152775,
				"z": 0.3264257267,
				"element": "H" 
			},
			{
				"x": 0.7910976668,
				"y": 0.7667993077,
				"z": 0.8782494865,
				"element": "H" 
			},
			{
				"x": -1.6070470241,
				"y": 0.0239405501,
				"z": 0.8869825294,
				"element": "H" 
			},
			{
				"x": -1.1772546785,
				"y": -1.334877665,
				"z": -0.125152588,
				"element": "H" 
			},
			{
				"x": -1.2265721673,
				"y": -1.9844172703,
				"z": 2.287616332,
				"element": "H" 
			},
			{
				"x": 0.0035570384,
				"y": -0.7702999733,
				"z": 2.6600823052,
				"element": "H" 
			},
			{
				"x": 0.4142016673,
				"y": -2.1686047724,
				"z": 1.6621472254,
				"element": "H" 
			},
			{
				"x": 0.8536874663,
				"y": 1.8697667409,
				"z": -1.1860185407,
				"element": "H" 
			},
			{
				"x": -0.7080341908,
				"y": 2.5803249958,
				"z": 0.5525919078,
				"element": "H" 
			},
			{
				"x": -1.9356263669,
				"y": 1.9338359884,
				"z": -0.331869323,
				"element": "H" 
			},
			{
				"x": 0.1217080985,
				"y": 0.3095276028,
				"z": -2.877789224,
				"element": "H" 
			},
			{
				"x": -0.804133798,
				"y": 1.810594849,
				"z": -2.8999008136,
				"element": "H" 
			},
			{
				"x": -2.8321610966,
				"y": -1.2850050893,
				"z": -3.1232212427,
				"element": "H" 
			}
		],
		 "valence_orbital": [ 
			{
				"type": "occ",
				"energy": -0.31978,
				"method": "rhf"
			},
			{
				"type": "occ",
				"energy": -0.31051,
				"method": "rhf"
			},
			{
				"type": "occ",
				"energy": -0.30391,
				"method": "rhf"
			},
			{
				"type": "occ",
				"energy": -0.27772,
				"method": "rhf"
			},
			{
				"type": "occ",
				"energy": -0.22391,
				"method": "rhf"
			},
			{
				"type": "unocc",
				"energy": 0.00354,
				"method": "rhf"
			},
			{
				"type": "unocc",
				"energy": 0.06711,
				"method": "rhf"
			},
			{
				"type": "unocc",
				"energy": 0.07759,
				"method": "rhf"
			},
			{
				"type": "unocc",
				"energy": 0.10121,
				"method": "rhf"
			},
			{
				"type": "unocc",
				"energy": 0.11148,
				"method": "rhf"
			}
		],
		"cosmo_sigma_profile": { 
			"-0.025": 0.0,
			"-0.024": 0.0,
			"-0.023": 0.0,
			"-0.022": 0.0,
			"-0.021": 0.0,
			"-0.02": 0.0,
			"-0.019": 0.0,
			"-0.018": 0.612865306466,
			"-0.017": 0.928086624216,
			"-0.016": 1.01789779945,
			"-0.015": 0.603930195475,
			"-0.014": 0.759878598478,
			"-0.013": 0.574668891784,
			"-0.012": 0.472027484178,
			"-0.011": 1.08006992191,
			"-0.01": 0.676320576006,
			"-0.009": 1.48837485335,
			"-0.008": 2.15508448495,
			"-0.007": 2.07391106646,
			"-0.006": 4.80218304424,
			"-0.005": 6.4901356384,
			"-0.004": 7.77681518249,
			"-0.003": 17.2482995478,
			"-0.002": 31.456901092,
			"-0.001": 28.3128213292,
			"0.0": 25.4054982459,
			"0.001": 25.6529882544,
			"0.002": 14.7945139842,
			"0.003": 4.84302247956,
			"0.004": 4.23880786101,
			"0.005": 4.40328441455,
			"0.006": 3.62104767338,
			"0.007": 3.59726121368,
			"0.008": 3.4531188931,
			"0.009": 3.23378605971,
			"0.01": 2.85430898364,
			"0.011": 3.44057318001,
			"0.012": 2.48693177624,
			"0.013": 0.673736834089,
			"0.014": 0.736600038876,
			"0.015": 0.543961030798,
			"0.016": 0.364190214207,
			"0.017": 0.824415533913,
			"0.018": 0.461055307547,
			"0.019": 0.501257865796,
			"0.02": 0.107050948537,
			"0.021": 0.0,
			"0.022": 0.0,
			"0.023": 0.0,
			"0.024": 0.0,
			"0.025": 0.0
		}
	}
}
