{
	 "smiles": "FC(F)(F)C1=CC(C#N)=C(C=C1)N1C=NC=N1", 
	 "Tm": 388.15, 
	 "num_atms": 22, 
	 "gaussian": { 
		 "optdone": 1, 
		 "sigma_profile": "yes", 
		 "theory": "DFT", 
		 "functional": "B3LYP", 
		 "basiset": "6-31G**", 
		 "properties": { 
			 "R2extent": 4683.7447, 
			 "electric_dipole_moment_norm": 4.47809784618, 
			 "electric_quadrupole_moment_norm": 10.9962445999, 
			 "total_energy": -902.564228132, 
			 "HOMO_LUMO_gap": 0.19057, 
			 "cosmo_polarized_energy": -16.89, 
			 "cosmo_cavitation_energy": 30.23, 
			 "cosmo_dispersion_energy": -20.65, 
			 "cosmo_repulsion_energy": 1.51, 
			 "cosmo_total_nonelectrostatic_energy": 11.09, 
			 "SMD_solvation_energy": 5.92 
		},
		"coords": [
			{
				"x": 1.070818645,
				"y": -0.7137291355,
				"z": 3.301748159,
				"element": "F" 
			},
			{
				"x": 1.8584423358,
				"y": -0.3821378204,
				"z": 2.25957574,
				"element": "C" 
			},
			{
				"x": 2.4285985359,
				"y": 0.8080786091,
				"z": 2.5482077966,
				"element": "F" 
			},
			{
				"x": 2.8545923196,
				"y": -1.290323474,
				"z": 2.186256328,
				"element": "F" 
			},
			{
				"x": 1.0815757778,
				"y": -0.3161065267,
				"z": 0.9689731276,
				"element": "C" 
			},
			{
				"x": -0.2885621228,
				"y": -0.0737256513,
				"z": 0.9876474449,
				"element": "C" 
			},
			{
				"x": -1.0108932643,
				"y": 0.0445954913,
				"z": -0.2103487541,
				"element": "C" 
			},
			{
				"x": -2.4060274153,
				"y": 0.3642260477,
				"z": -0.1241820149,
				"element": "C" 
			},
			{
				"x": -3.51765523,
				"y": 0.6606622608,
				"z": 0.0417711894,
				"element": "N" 
			},
			{
				"x": -0.3305200003,
				"y": -0.1055874199,
				"z": -1.4378251438,
				"element": "C" 
			},
			{
				"x": 1.0447192888,
				"y": -0.3569890502,
				"z": -1.4443818745,
				"element": "C" 
			},
			{
				"x": 1.7507725031,
				"y": -0.4512704011,
				"z": -0.2502597378,
				"element": "C" 
			},
			{
				"x": -1.0120261895,
				"y": 0.000301823,
				"z": -2.6701467099,
				"element": "N" 
			},
			{
				"x": -0.6055270306,
				"y": 0.6069749588,
				"z": -3.8245584784,
				"element": "C" 
			},
			{
				"x": -1.5201768857,
				"y": 0.4687544872,
				"z": -4.7588304086,
				"element": "N" 
			},
			{
				"x": -2.4949475743,
				"y": -0.2494674843,
				"z": -4.1228199063,
				"element": "C" 
			},
			{
				"x": -2.2427241666,
				"y": -0.5583028326,
				"z": -2.863627632,
				"element": "N" 
			},
			{
				"x": -0.8120073108,
				"y": 0.032807467,
				"z": 1.9302544039,
				"element": "H" 
			},
			{
				"x": 1.5512472104,
				"y": -0.5091228496,
				"z": -2.3910274063,
				"element": "H" 
			},
			{
				"x": 2.8150300294,
				"y": -0.6587528424,
				"z": -0.2646908088,
				"element": "H" 
			},
			{
				"x": 0.3292370133,
				"y": 1.143014264,
				"z": -3.9092248757,
				"element": "H" 
			},
			{
				"x": -3.4131664688,
				"y": -0.5549999208,
				"z": -4.6045104384,
				"element": "H" 
			}
		],
		 "valence_orbital": [ 
			{
				"type": "occ",
				"energy": -0.33339,
				"method": "rhf"
			},
			{
				"type": "occ",
				"energy": -0.30031,
				"method": "rhf"
			},
			{
				"type": "occ",
				"energy": -0.29519,
				"method": "rhf"
			},
			{
				"type": "occ",
				"energy": -0.29353,
				"method": "rhf"
			},
			{
				"type": "occ",
				"energy": -0.27512,
				"method": "rhf"
			},
			{
				"type": "unocc",
				"energy": -0.08455,
				"method": "rhf"
			},
			{
				"type": "unocc",
				"energy": -0.06504,
				"method": "rhf"
			},
			{
				"type": "unocc",
				"energy": -0.00882,
				"method": "rhf"
			},
			{
				"type": "unocc",
				"energy": 0.01991,
				"method": "rhf"
			},
			{
				"type": "unocc",
				"energy": 0.03634,
				"method": "rhf"
			}
		],
		"cosmo_sigma_profile": { 
			"-0.025": 0.0,
			"-0.024": 0.0,
			"-0.023": 0.0,
			"-0.022": 0.0,
			"-0.021": 0.0,
			"-0.02": 0.0,
			"-0.019": 0.0,
			"-0.018": 0.0,
			"-0.017": 0.0,
			"-0.016": 0.0,
			"-0.015": 0.0,
			"-0.014": 0.0,
			"-0.013": 0.0,
			"-0.012": 0.409198017648,
			"-0.011": 3.35827533043,
			"-0.01": 4.2333394812,
			"-0.009": 9.81507440249,
			"-0.008": 8.22322195792,
			"-0.007": 9.54613443276,
			"-0.006": 8.65071002953,
			"-0.005": 9.63394788349,
			"-0.004": 10.9023195773,
			"-0.003": 15.1148316484,
			"-0.002": 20.0689058204,
			"-0.001": 20.4219444391,
			"0.0": 14.4052601617,
			"0.001": 14.3545106531,
			"0.002": 28.9269338142,
			"0.003": 18.0211215067,
			"0.004": 3.81362001809,
			"0.005": 4.61553508851,
			"0.006": 5.86262130394,
			"0.007": 5.1265018006,
			"0.008": 5.99540300961,
			"0.009": 5.81108338378,
			"0.01": 6.05370958568,
			"0.011": 5.3163142717,
			"0.012": 3.72400026564,
			"0.013": 1.36105218303,
			"0.014": 0.997573479748,
			"0.015": 1.14929867173,
			"0.016": 0.214857924421,
			"0.017": 0.0,
			"0.018": 0.0,
			"0.019": 0.0,
			"0.02": 0.0,
			"0.021": 0.0,
			"0.022": 0.0,
			"0.023": 0.0,
			"0.024": 0.0,
			"0.025": 0.0
		}
	}
}
