{
	 "smiles": "OC(=O)C1CC2=C(CN1C(=O)C1=CC=CC=C1)C=CC=C2", 
	 "Tm": 415.15, 
	 "num_atms": 36, 
	 "gaussian": { 
		 "optdone": 1, 
		 "sigma_profile": "yes", 
		 "theory": "DFT", 
		 "functional": "B3LYP", 
		 "basiset": "6-31G**", 
		 "properties": { 
			 "R2extent": 6904.6815, 
			 "electric_dipole_moment_norm": 1.94231078358, 
			 "electric_quadrupole_moment_norm": 20.3103872713, 
			 "total_energy": -937.301509995, 
			 "HOMO_LUMO_gap": 0.20359, 
			 "cosmo_polarized_energy": -17.5, 
			 "cosmo_cavitation_energy": 39.25, 
			 "cosmo_dispersion_energy": -27.21, 
			 "cosmo_repulsion_energy": 2.08, 
			 "cosmo_total_nonelectrostatic_energy": 14.11, 
			 "SMD_solvation_energy": 7.25 
		},
		"coords": [
			{
				"x": -0.524973266,
				"y": 1.6521478147,
				"z": -2.2752122548,
				"element": "O" 
			},
			{
				"x": 0.3604208811,
				"y": 0.8112438695,
				"z": -1.6979214446,
				"element": "C" 
			},
			{
				"x": 1.4274966624,
				"y": 0.5316280149,
				"z": -2.196097703,
				"element": "O" 
			},
			{
				"x": -0.172053876,
				"y": 0.1965465515,
				"z": -0.3911370668,
				"element": "C" 
			},
			{
				"x": 0.9773038059,
				"y": -0.1029921608,
				"z": 0.5776118459,
				"element": "C" 
			},
			{
				"x": 1.471984894,
				"y": 1.1522371468,
				"z": 1.2641839398,
				"element": "C" 
			},
			{
				"x": 0.6455872463,
				"y": 2.2814117985,
				"z": 1.3570437076,
				"element": "C" 
			},
			{
				"x": -0.7511094419,
				"y": 2.3121980962,
				"z": 0.7695604309,
				"element": "C" 
			},
			{
				"x": -1.1906564523,
				"y": 1.0066209458,
				"z": 0.2673251993,
				"element": "N" 
			},
			{
				"x": -2.5496922931,
				"y": 0.8762566661,
				"z": 0.0369077569,
				"element": "C" 
			},
			{
				"x": -3.3178621745,
				"y": 1.8140899433,
				"z": 0.2258647325,
				"element": "O" 
			},
			{
				"x": -3.085277298,
				"y": -0.4644160085,
				"z": -0.3891501685,
				"element": "C" 
			},
			{
				"x": -4.0725221154,
				"y": -0.4896473857,
				"z": -1.3831723511,
				"element": "C" 
			},
			{
				"x": -4.6583495264,
				"y": -1.6957851083,
				"z": -1.762315925,
				"element": "C" 
			},
			{
				"x": -4.2842146504,
				"y": -2.8858762504,
				"z": -1.132540453,
				"element": "C" 
			},
			{
				"x": -3.3234372677,
				"y": -2.8646147332,
				"z": -0.1200458076,
				"element": "C" 
			},
			{
				"x": -2.7228760987,
				"y": -1.6597241226,
				"z": 0.2485048255,
				"element": "C" 
			},
			{
				"x": 1.124542212,
				"y": 3.4324625539,
				"z": 1.9988662974,
				"element": "C" 
			},
			{
				"x": 2.4015065528,
				"y": 3.4664380639,
				"z": 2.5505964193,
				"element": "C" 
			},
			{
				"x": 3.2247559539,
				"y": 2.3400729644,
				"z": 2.4611638674,
				"element": "C" 
			},
			{
				"x": 2.7587087185,
				"y": 1.1968278468,
				"z": 1.8190877113,
				"element": "C" 
			},
			{
				"x": -0.117817507,
				"y": 1.9465210637,
				"z": -3.1076996098,
				"element": "H" 
			},
			{
				"x": -0.6320507191,
				"y": -0.7443652258,
				"z": -0.7033955608,
				"element": "H" 
			},
			{
				"x": 0.6153625426,
				"y": -0.822715144,
				"z": 1.3230209565,
				"element": "H" 
			},
			{
				"x": 1.790831778,
				"y": -0.5822278313,
				"z": 0.0268851829,
				"element": "H" 
			},
			{
				"x": -1.4776877017,
				"y": 2.6289522625,
				"z": 1.5216456376,
				"element": "H" 
			},
			{
				"x": -0.8068479676,
				"y": 3.0596250342,
				"z": -0.0355207175,
				"element": "H" 
			},
			{
				"x": -4.3751207993,
				"y": 0.4454612909,
				"z": -1.8429048498,
				"element": "H" 
			},
			{
				"x": -5.4138221495,
				"y": -1.7076122448,
				"z": -2.5425896123,
				"element": "H" 
			},
			{
				"x": -4.7471575492,
				"y": -3.8245313816,
				"z": -1.4230991324,
				"element": "H" 
			},
			{
				"x": -3.0457075643,
				"y": -3.7836816528,
				"z": 0.3878276629,
				"element": "H" 
			},
			{
				"x": -1.9920957004,
				"y": -1.6423814707,
				"z": 1.0523306777,
				"element": "H" 
			},
			{
				"x": 0.4826147948,
				"y": 4.3080356624,
				"z": 2.0663821794,
				"element": "H" 
			},
			{
				"x": 2.7547220512,
				"y": 4.3654275607,
				"z": 3.0473220147,
				"element": "H" 
			},
			{
				"x": 4.2251730611,
				"y": 2.3574028803,
				"z": 2.8836516692,
				"element": "H" 
			},
			{
				"x": 3.3992209637,
				"y": 0.3218626895,
				"z": 1.7374199421,
				"element": "H" 
			}
		],
		 "valence_orbital": [ 
			{
				"type": "occ",
				"energy": -0.26,
				"method": "rhf"
			},
			{
				"type": "occ",
				"energy": -0.25143,
				"method": "rhf"
			},
			{
				"type": "occ",
				"energy": -0.24521,
				"method": "rhf"
			},
			{
				"type": "occ",
				"energy": -0.24251,
				"method": "rhf"
			},
			{
				"type": "occ",
				"energy": -0.2356,
				"method": "rhf"
			},
			{
				"type": "unocc",
				"energy": -0.03201,
				"method": "rhf"
			},
			{
				"type": "unocc",
				"energy": -0.01693,
				"method": "rhf"
			},
			{
				"type": "unocc",
				"energy": -0.00785,
				"method": "rhf"
			},
			{
				"type": "unocc",
				"energy": -0.00054,
				"method": "rhf"
			},
			{
				"type": "unocc",
				"energy": 0.00663,
				"method": "rhf"
			}
		],
		"cosmo_sigma_profile": { 
			"-0.025": 0.0,
			"-0.024": 0.0,
			"-0.023": 0.0,
			"-0.022": 0.0,
			"-0.021": 0.0,
			"-0.02": 0.0,
			"-0.019": 0.461774021312,
			"-0.018": 0.923456743948,
			"-0.017": 1.03276317616,
			"-0.016": 1.18184307881,
			"-0.015": 0.371528012764,
			"-0.014": 0.00837025000269,
			"-0.013": 0.660189668606,
			"-0.012": 0.975360479943,
			"-0.011": 1.15949610614,
			"-0.01": 0.692028112979,
			"-0.009": 0.685081605038,
			"-0.008": 1.78273343049,
			"-0.007": 4.23068669445,
			"-0.006": 18.5128442427,
			"-0.005": 29.2424202574,
			"-0.004": 30.3023392455,
			"-0.003": 26.5713580903,
			"-0.002": 22.4669541134,
			"-0.001": 17.6275087453,
			"0.0": 16.8060055239,
			"0.001": 18.0740953172,
			"0.002": 18.3594573174,
			"0.003": 17.7915122629,
			"0.004": 23.5394563374,
			"0.005": 16.1410422512,
			"0.006": 11.0432311093,
			"0.007": 4.63195478221,
			"0.008": 2.66386372741,
			"0.009": 3.37286589484,
			"0.01": 4.29507336055,
			"0.011": 6.44458278911,
			"0.012": 3.88512684256,
			"0.013": 4.68980098328,
			"0.014": 1.76190514131,
			"0.015": 0.0143282471446,
			"0.016": 0.0,
			"0.017": 0.0,
			"0.018": 0.0,
			"0.019": 0.0,
			"0.02": 0.0,
			"0.021": 0.0,
			"0.022": 0.0,
			"0.023": 0.0,
			"0.024": 0.0,
			"0.025": 0.0
		}
	}
}
