{
	 "smiles": "NCCN1C(=O)C2C3CC(C=C3)C2C1=O", 
	 "Tm": 343.15, 
	 "num_atms": 29, 
	 "gaussian": { 
		 "optdone": 1, 
		 "sigma_profile": "yes", 
		 "theory": "DFT", 
		 "functional": "B3LYP", 
		 "basiset": "6-31G**", 
		 "properties": { 
			 "R2extent": 3190.0094, 
			 "electric_dipole_moment_norm": 2.41806988319, 
			 "electric_quadrupole_moment_norm": 18.194237637, 
			 "total_energy": -687.549141741, 
			 "HOMO_LUMO_gap": 0.21323, 
			 "cosmo_polarized_energy": -15.83, 
			 "cosmo_cavitation_energy": 30.42, 
			 "cosmo_dispersion_energy": -21.68, 
			 "cosmo_repulsion_energy": 1.72, 
			 "cosmo_total_nonelectrostatic_energy": 10.46, 
			 "SMD_solvation_energy": 4.46 
		},
		"coords": [
			{
				"x": 1.9394151546,
				"y": -3.9063356594,
				"z": 1.5394316154,
				"element": "N" 
			},
			{
				"x": 1.5167572643,
				"y": -3.7067280697,
				"z": 0.1512146356,
				"element": "C" 
			},
			{
				"x": 1.7917602603,
				"y": -2.2718400861,
				"z": -0.3063699359,
				"element": "C" 
			},
			{
				"x": 0.9838478936,
				"y": -1.2777151906,
				"z": 0.4044197375,
				"element": "N" 
			},
			{
				"x": -0.3853217753,
				"y": -1.1143036179,
				"z": 0.1777856607,
				"element": "C" 
			},
			{
				"x": -1.0425785182,
				"y": -1.8041820239,
				"z": -0.57791615,
				"element": "O" 
			},
			{
				"x": -0.8681411618,
				"y": 0.0565074876,
				"z": 1.0207715599,
				"element": "C" 
			},
			{
				"x": -1.3922723082,
				"y": 1.3049644911,
				"z": 0.211755222,
				"element": "C" 
			},
			{
				"x": -1.0520537712,
				"y": 2.4210256086,
				"z": 1.2322379514,
				"element": "C" 
			},
			{
				"x": 0.4640847196,
				"y": 2.0990532379,
				"z": 1.2359223918,
				"element": "C" 
			},
			{
				"x": 0.7365565639,
				"y": 2.0782107349,
				"z": -0.2622450724,
				"element": "C" 
			},
			{
				"x": -0.3628193973,
				"y": 1.6078221769,
				"z": -0.8686919355,
				"element": "C" 
			},
			{
				"x": 0.4022611822,
				"y": 0.5994120414,
				"z": 1.7200975633,
				"element": "C" 
			},
			{
				"x": 1.5376970716,
				"y": -0.2891981411,
				"z": 1.2324064554,
				"element": "C" 
			},
			{
				"x": 2.7196027323,
				"y": -0.179898561,
				"z": 1.4832892573,
				"element": "O" 
			},
			{
				"x": 1.3451257766,
				"y": -3.3624438749,
				"z": 2.1608060478,
				"element": "H" 
			},
			{
				"x": 1.8042998467,
				"y": -4.8789579594,
				"z": 1.802869904,
				"element": "H" 
			},
			{
				"x": 0.4601968669,
				"y": -3.9419759182,
				"z": -0.049834247,
				"element": "H" 
			},
			{
				"x": 2.1189102236,
				"y": -4.3663186291,
				"z": -0.4851065534,
				"element": "H" 
			},
			{
				"x": 1.5742511152,
				"y": -2.1808880468,
				"z": -1.3752771945,
				"element": "H" 
			},
			{
				"x": 2.8341284485,
				"y": -2.0081640573,
				"z": -0.1162327681,
				"element": "H" 
			},
			{
				"x": -1.6385635577,
				"y": -0.2948398369,
				"z": 1.7136684442,
				"element": "H" 
			},
			{
				"x": -2.4278750471,
				"y": 1.209906999,
				"z": -0.115633506,
				"element": "H" 
			},
			{
				"x": -1.269690608,
				"y": 3.4220912572,
				"z": 0.8504368419,
				"element": "H" 
			},
			{
				"x": -1.5325718267,
				"y": 2.2856543449,
				"z": 2.2081635985,
				"element": "H" 
			},
			{
				"x": 1.1188306454,
				"y": 2.7267253686,
				"z": 1.8408124731,
				"element": "H" 
			},
			{
				"x": 1.6940003747,
				"y": 2.3063785292,
				"z": -0.7166636106,
				"element": "H" 
			},
			{
				"x": -0.487076893,
				"y": 1.3737827799,
				"z": -1.9199527676,
				"element": "H" 
			},
			{
				"x": 0.3584387245,
				"y": 0.5561546153,
				"z": 2.8124343811,
				"element": "H" 
			}
		],
		 "valence_orbital": [ 
			{
				"type": "occ",
				"energy": -0.27675,
				"method": "rhf"
			},
			{
				"type": "occ",
				"energy": -0.27225,
				"method": "rhf"
			},
			{
				"type": "occ",
				"energy": -0.25432,
				"method": "rhf"
			},
			{
				"type": "occ",
				"energy": -0.25331,
				"method": "rhf"
			},
			{
				"type": "occ",
				"energy": -0.23197,
				"method": "rhf"
			},
			{
				"type": "unocc",
				"energy": -0.01874,
				"method": "rhf"
			},
			{
				"type": "unocc",
				"energy": 0.00321,
				"method": "rhf"
			},
			{
				"type": "unocc",
				"energy": 0.022,
				"method": "rhf"
			},
			{
				"type": "unocc",
				"energy": 0.08217,
				"method": "rhf"
			},
			{
				"type": "unocc",
				"energy": 0.08834,
				"method": "rhf"
			}
		],
		"cosmo_sigma_profile": { 
			"-0.025": 0.0,
			"-0.024": 0.0,
			"-0.023": 0.0,
			"-0.022": 0.0,
			"-0.021": 0.0,
			"-0.02": 0.0,
			"-0.019": 0.0,
			"-0.018": 0.0,
			"-0.017": 0.0,
			"-0.016": 0.0,
			"-0.015": 0.0,
			"-0.014": 0.0,
			"-0.013": 0.0,
			"-0.012": 0.0,
			"-0.011": 0.0625385037571,
			"-0.01": 1.12633442922,
			"-0.009": 2.81671792615,
			"-0.008": 3.05234927661,
			"-0.007": 7.80073616045,
			"-0.006": 15.2686630869,
			"-0.005": 21.1646383915,
			"-0.004": 24.6602054196,
			"-0.003": 22.9176574091,
			"-0.002": 23.0450628754,
			"-0.001": 22.1508063284,
			"0.0": 17.5833392677,
			"0.001": 8.17599883206,
			"0.002": 6.76794635913,
			"0.003": 6.23373709222,
			"0.004": 5.74971582153,
			"0.005": 4.55411761765,
			"0.006": 5.04202626392,
			"0.007": 3.71726148753,
			"0.008": 4.11189088924,
			"0.009": 4.05161711263,
			"0.01": 3.66574725862,
			"0.011": 7.38281879685,
			"0.012": 9.7384239508,
			"0.013": 3.6631238469,
			"0.014": 0.595353357795,
			"0.015": 0.410541323367,
			"0.016": 0.458006903573,
			"0.017": 0.88998117511,
			"0.018": 0.592387367723,
			"0.019": 0.299996368579,
			"0.02": 0.177447649053,
			"0.021": 0.0,
			"0.022": 0.0,
			"0.023": 0.0,
			"0.024": 0.0,
			"0.025": 0.0
		}
	}
}
