{
	 "smiles": "COCCC1=NOC(=N1)C1=C(N)C=CC(Cl)=C1", 
	 "Tm": 367.15, 
	 "num_atms": 29, 
	 "gaussian": { 
		 "optdone": 1, 
		 "sigma_profile": "yes", 
		 "theory": "DFT", 
		 "functional": "B3LYP", 
		 "basiset": "6-31G**", 
		 "properties": { 
			 "R2extent": 6381.6253, 
			 "electric_dipole_moment_norm": 2.6355877409, 
			 "electric_quadrupole_moment_norm": 22.1261305232, 
			 "total_energy": -1201.25737387, 
			 "HOMO_LUMO_gap": 0.15499, 
			 "cosmo_polarized_energy": -14.16, 
			 "cosmo_cavitation_energy": 35.33, 
			 "cosmo_dispersion_energy": -25.75, 
			 "cosmo_repulsion_energy": 2.02, 
			 "cosmo_total_nonelectrostatic_energy": 11.61, 
			 "SMD_solvation_energy": 4.05 
		},
		"coords": [
			{
				"x": -1.2832999275,
				"y": 1.0956714099,
				"z": -4.5750785872,
				"element": "C" 
			},
			{
				"x": -1.8063688294,
				"y": 0.8631643776,
				"z": -3.2812499075,
				"element": "O" 
			},
			{
				"x": -1.7114165749,
				"y": 1.9654420455,
				"z": -2.4029710705,
				"element": "C" 
			},
			{
				"x": -0.2745401282,
				"y": 2.2834144379,
				"z": -1.9456031283,
				"element": "C" 
			},
			{
				"x": 0.3808151069,
				"y": 1.1112649034,
				"z": -1.2885075942,
				"element": "C" 
			},
			{
				"x": 1.439168439,
				"y": 0.5319240898,
				"z": -1.8012871798,
				"element": "N" 
			},
			{
				"x": 1.7008568552,
				"y": -0.5104708026,
				"z": -0.8823094834,
				"element": "O" 
			},
			{
				"x": 0.7555732584,
				"y": -0.4328207848,
				"z": 0.0829911205,
				"element": "C" 
			},
			{
				"x": -0.0807021889,
				"y": 0.5536728981,
				"z": -0.122020364,
				"element": "N" 
			},
			{
				"x": 0.7486283322,
				"y": -1.3873398004,
				"z": 1.1823993097,
				"element": "C" 
			},
			{
				"x": 1.7116266304,
				"y": -2.4240314581,
				"z": 1.3367051046,
				"element": "C" 
			},
			{
				"x": 2.780053074,
				"y": -2.5921569008,
				"z": 0.4923754601,
				"element": "N" 
			},
			{
				"x": 1.5681515918,
				"y": -3.2906593268,
				"z": 2.4444370382,
				"element": "C" 
			},
			{
				"x": 0.539472431,
				"y": -3.1463709084,
				"z": 3.3583931116,
				"element": "C" 
			},
			{
				"x": -0.3952313669,
				"y": -2.1157809901,
				"z": 3.1940535132,
				"element": "C" 
			},
			{
				"x": -1.7015102378,
				"y": -1.932413388,
				"z": 4.356719578,
				"element": "Cl" 
			},
			{
				"x": -0.2933586545,
				"y": -1.25007289,
				"z": 2.1224494927,
				"element": "C" 
			},
			{
				"x": -0.1887977845,
				"y": 1.1944302198,
				"z": -4.5770441121,
				"element": "H" 
			},
			{
				"x": -1.7185658384,
				"y": 1.9987165658,
				"z": -5.0321666571,
				"element": "H" 
			},
			{
				"x": -1.5515565892,
				"y": 0.2297698771,
				"z": -5.1851079852,
				"element": "H" 
			},
			{
				"x": -2.1452616559,
				"y": 2.8700722416,
				"z": -2.8607165399,
				"element": "H" 
			},
			{
				"x": -2.3142552256,
				"y": 1.7005502171,
				"z": -1.5296579497,
				"element": "H" 
			},
			{
				"x": 0.3470699643,
				"y": 2.6096733751,
				"z": -2.783635185,
				"element": "H" 
			},
			{
				"x": -0.3214670718,
				"y": 3.1120329416,
				"z": -1.2289938778,
				"element": "H" 
			},
			{
				"x": 3.2866087618,
				"y": -3.4610822256,
				"z": 0.5445753631,
				"element": "H" 
			},
			{
				"x": 2.7976177,
				"y": -2.1077370009,
				"z": -0.3909239702,
				"element": "H" 
			},
			{
				"x": 2.2947381119,
				"y": -4.0874133829,
				"z": 2.5788529706,
				"element": "H" 
			},
			{
				"x": 0.4554133782,
				"y": -3.8269882488,
				"z": 4.198690026,
				"element": "H" 
			},
			{
				"x": -1.0122615614,
				"y": -0.4524614917,
				"z": 1.9789315036,
				"element": "H" 
			}
		],
		 "valence_orbital": [ 
			{
				"type": "occ",
				"energy": -0.29637,
				"method": "rhf"
			},
			{
				"type": "occ",
				"energy": -0.29436,
				"method": "rhf"
			},
			{
				"type": "occ",
				"energy": -0.25787,
				"method": "rhf"
			},
			{
				"type": "occ",
				"energy": -0.25304,
				"method": "rhf"
			},
			{
				"type": "occ",
				"energy": -0.21167,
				"method": "rhf"
			},
			{
				"type": "unocc",
				"energy": -0.05668,
				"method": "rhf"
			},
			{
				"type": "unocc",
				"energy": -0.00529,
				"method": "rhf"
			},
			{
				"type": "unocc",
				"energy": 0.01613,
				"method": "rhf"
			},
			{
				"type": "unocc",
				"energy": 0.03086,
				"method": "rhf"
			},
			{
				"type": "unocc",
				"energy": 0.05686,
				"method": "rhf"
			}
		],
		"cosmo_sigma_profile": { 
			"-0.025": 0.0,
			"-0.024": 0.0,
			"-0.023": 0.0,
			"-0.022": 0.0,
			"-0.021": 0.0,
			"-0.02": 0.0,
			"-0.019": 0.0,
			"-0.018": 0.0,
			"-0.017": 0.0,
			"-0.016": 0.0,
			"-0.015": 0.0,
			"-0.014": 0.836063625442,
			"-0.013": 1.87883670414,
			"-0.012": 1.55483668908,
			"-0.011": 2.19254581144,
			"-0.01": 2.76178233311,
			"-0.009": 2.37592817393,
			"-0.008": 2.91547966755,
			"-0.007": 4.86244353909,
			"-0.006": 9.98707918272,
			"-0.005": 15.8788350444,
			"-0.004": 25.0181633129,
			"-0.003": 24.324890433,
			"-0.002": 24.2249475999,
			"-0.001": 17.3371235622,
			"0.0": 16.6586801569,
			"0.001": 21.2487867214,
			"0.002": 24.4645487319,
			"0.003": 22.6554432595,
			"0.004": 15.3170283092,
			"0.005": 14.7634727096,
			"0.006": 6.28264495062,
			"0.007": 5.61142514353,
			"0.008": 4.41225623664,
			"0.009": 3.74997991869,
			"0.01": 3.45355170917,
			"0.011": 3.34274157171,
			"0.012": 2.41528663055,
			"0.013": 2.73145763634,
			"0.014": 0.313433666319,
			"0.015": 0.0,
			"0.016": 0.0,
			"0.017": 0.0,
			"0.018": 0.0,
			"0.019": 0.0,
			"0.02": 0.0,
			"0.021": 0.0,
			"0.022": 0.0,
			"0.023": 0.0,
			"0.024": 0.0,
			"0.025": 0.0
		}
	}
}
