{
	 "smiles": "NC(=O)C1=CC(F)=C(CO)C=C1", 
	 "Tm": 377.15, 
	 "num_atms": 20, 
	 "gaussian": { 
		 "optdone": 1, 
		 "sigma_profile": "yes", 
		 "theory": "DFT", 
		 "functional": "B3LYP", 
		 "basiset": "6-31G**", 
		 "properties": { 
			 "R2extent": 2628.5525, 
			 "electric_dipole_moment_norm": 4.02894427983, 
			 "electric_quadrupole_moment_norm": 12.736485569, 
			 "total_energy": -614.715344542, 
			 "HOMO_LUMO_gap": 0.20748, 
			 "cosmo_polarized_energy": -16.56, 
			 "cosmo_cavitation_energy": 24.9, 
			 "cosmo_dispersion_energy": -18.28, 
			 "cosmo_repulsion_energy": 1.45, 
			 "cosmo_total_nonelectrostatic_energy": 8.06, 
			 "SMD_solvation_energy": 5.55 
		},
		"coords": [
			{
				"x": 2.3718245026,
				"y": -2.2291004866,
				"z": 0.0651843595,
				"element": "N" 
			},
			{
				"x": 1.7194749164,
				"y": -1.2476061364,
				"z": -0.6417552556,
				"element": "C" 
			},
			{
				"x": 1.9548100626,
				"y": -1.0388386832,
				"z": -1.8252481263,
				"element": "O" 
			},
			{
				"x": 0.7191552229,
				"y": -0.4275127931,
				"z": 0.1249583696,
				"element": "C" 
			},
			{
				"x": -0.1835558441,
				"y": 0.3346431802,
				"z": -0.6274144403,
				"element": "C" 
			},
			{
				"x": -1.1244069854,
				"y": 1.1047582553,
				"z": 0.0331519406,
				"element": "C" 
			},
			{
				"x": -2.0023918918,
				"y": 1.8354179775,
				"z": -0.6949484199,
				"element": "F" 
			},
			{
				"x": -1.2157054347,
				"y": 1.1675049004,
				"z": 1.4260166691,
				"element": "C" 
			},
			{
				"x": -2.2619006179,
				"y": 2.0386108857,
				"z": 2.0946815064,
				"element": "C" 
			},
			{
				"x": -2.4831622237,
				"y": 1.7094543255,
				"z": 3.4561133475,
				"element": "O" 
			},
			{
				"x": -0.2945613706,
				"y": 0.4162702581,
				"z": 2.1614071257,
				"element": "C" 
			},
			{
				"x": 0.6623917468,
				"y": -0.3742008383,
				"z": 1.5242143355,
				"element": "C" 
			},
			{
				"x": 2.9510385698,
				"y": -2.8453493224,
				"z": -0.4866773577,
				"element": "H" 
			},
			{
				"x": 1.9656636357,
				"y": -2.6128037192,
				"z": 0.9038558888,
				"element": "H" 
			},
			{
				"x": -0.1356763423,
				"y": 0.3161718214,
				"z": -1.7099344293,
				"element": "H" 
			},
			{
				"x": -1.9271811424,
				"y": 3.0826135444,
				"z": 2.0934670753,
				"element": "H" 
			},
			{
				"x": -3.1912867763,
				"y": 2.0101233154,
				"z": 1.5086634377,
				"element": "H" 
			},
			{
				"x": -2.8843765823,
				"y": 0.8306941596,
				"z": 3.4843620757,
				"element": "H" 
			},
			{
				"x": -0.338083591,
				"y": 0.4692104613,
				"z": 3.2443540833,
				"element": "H" 
			},
			{
				"x": 1.3861301457,
				"y": -0.9150611057,
				"z": 2.1260478144,
				"element": "H" 
			}
		],
		 "valence_orbital": [ 
			{
				"type": "occ",
				"energy": -0.2891,
				"method": "rhf"
			},
			{
				"type": "occ",
				"energy": -0.27681,
				"method": "rhf"
			},
			{
				"type": "occ",
				"energy": -0.26348,
				"method": "rhf"
			},
			{
				"type": "occ",
				"energy": -0.25363,
				"method": "rhf"
			},
			{
				"type": "occ",
				"energy": -0.25162,
				"method": "rhf"
			},
			{
				"type": "unocc",
				"energy": -0.04414,
				"method": "rhf"
			},
			{
				"type": "unocc",
				"energy": -0.01193,
				"method": "rhf"
			},
			{
				"type": "unocc",
				"energy": 0.05274,
				"method": "rhf"
			},
			{
				"type": "unocc",
				"energy": 0.07051,
				"method": "rhf"
			},
			{
				"type": "unocc",
				"energy": 0.0749,
				"method": "rhf"
			}
		],
		"cosmo_sigma_profile": { 
			"-0.025": 0.0,
			"-0.024": 0.0,
			"-0.023": 0.0,
			"-0.022": 0.0,
			"-0.021": 0.0,
			"-0.02": 0.0,
			"-0.019": 0.0,
			"-0.018": 0.0,
			"-0.017": 0.0,
			"-0.016": 0.58849271715,
			"-0.015": 0.955996551009,
			"-0.014": 2.94298327434,
			"-0.013": 3.45056219667,
			"-0.012": 2.76690015216,
			"-0.011": 3.64076683648,
			"-0.01": 3.54375066579,
			"-0.009": 3.29395989091,
			"-0.008": 3.5685352665,
			"-0.007": 4.41963075957,
			"-0.006": 7.84536009952,
			"-0.005": 9.90584903736,
			"-0.004": 10.2176018194,
			"-0.003": 9.72187053551,
			"-0.002": 10.7269251321,
			"-0.001": 10.5761840915,
			"0.0": 14.3560506897,
			"0.001": 15.1773322587,
			"0.002": 14.3879892863,
			"0.003": 15.6097402655,
			"0.004": 13.5250145841,
			"0.005": 4.33766979407,
			"0.006": 3.27429515127,
			"0.007": 2.51071150808,
			"0.008": 3.83235997412,
			"0.009": 2.41254208123,
			"0.01": 3.04921094876,
			"0.011": 2.80000031603,
			"0.012": 3.32782843237,
			"0.013": 6.96917848906,
			"0.014": 3.85547636801,
			"0.015": 0.157408581716,
			"0.016": 0.0,
			"0.017": 0.0,
			"0.018": 0.0,
			"0.019": 0.0,
			"0.02": 0.0,
			"0.021": 0.0,
			"0.022": 0.0,
			"0.023": 0.0,
			"0.024": 0.0,
			"0.025": 0.0
		}
	}
}
