{
	 "smiles": "CC(C)(C)C1=CC=C(C=C1)C(=O)NCCC(O)=O", 
	 "Tm": 403.15, 
	 "num_atms": 37, 
	 "gaussian": { 
		 "optdone": 1, 
		 "sigma_profile": "yes", 
		 "theory": "DFT", 
		 "functional": "B3LYP", 
		 "basiset": "6-31G**", 
		 "properties": { 
			 "R2extent": 8958.9714, 
			 "electric_dipole_moment_norm": 6.82114876762, 
			 "electric_quadrupole_moment_norm": 38.5670750917, 
			 "total_energy": -825.401957778, 
			 "HOMO_LUMO_gap": 0.20457, 
			 "cosmo_polarized_energy": -22.85, 
			 "cosmo_cavitation_energy": 39.5, 
			 "cosmo_dispersion_energy": -27.27, 
			 "cosmo_repulsion_energy": 2.13, 
			 "cosmo_total_nonelectrostatic_energy": 14.37, 
			 "SMD_solvation_energy": 7.74 
		},
		"coords": [
			{
				"x": 0.7068360315,
				"y": -3.2681113278,
				"z": -0.2154375615,
				"element": "C" 
			},
			{
				"x": 0.9638771926,
				"y": -1.9368332968,
				"z": -0.9615879278,
				"element": "C" 
			},
			{
				"x": 2.3466785966,
				"y": -1.3771894014,
				"z": -0.54979985,
				"element": "C" 
			},
			{
				"x": 0.9958084215,
				"y": -2.2317908591,
				"z": -2.4732304796,
				"element": "C" 
			},
			{
				"x": -0.1303063338,
				"y": -0.9212343538,
				"z": -0.5863429368,
				"element": "C" 
			},
			{
				"x": -1.0007849498,
				"y": -0.3541575106,
				"z": -1.5293482292,
				"element": "C" 
			},
			{
				"x": -1.98820371,
				"y": 0.5557021038,
				"z": -1.1533667007,
				"element": "C" 
			},
			{
				"x": -2.122705133,
				"y": 0.9572481864,
				"z": 0.179009497,
				"element": "C" 
			},
			{
				"x": -1.2689789611,
				"y": 0.3877952816,
				"z": 1.1348780867,
				"element": "C" 
			},
			{
				"x": -0.2976967838,
				"y": -0.5346316408,
				"z": 0.7550297354,
				"element": "C" 
			},
			{
				"x": -3.248005578,
				"y": 1.8902331826,
				"z": 0.528651672,
				"element": "C" 
			},
			{
				"x": -4.3416578372,
				"y": 1.7832545987,
				"z": -0.0168514203,
				"element": "O" 
			},
			{
				"x": -3.0368173473,
				"y": 2.832789409,
				"z": 1.5154551405,
				"element": "N" 
			},
			{
				"x": -1.7877568269,
				"y": 3.5165627472,
				"z": 1.8190674711,
				"element": "C" 
			},
			{
				"x": -1.5880226915,
				"y": 4.8056923498,
				"z": 1.0051352884,
				"element": "C" 
			},
			{
				"x": -2.65225371,
				"y": 5.8557370497,
				"z": 1.3005984986,
				"element": "C" 
			},
			{
				"x": -2.5173219213,
				"y": 7.0344482359,
				"z": 0.6436569898,
				"element": "O" 
			},
			{
				"x": -3.5728941853,
				"y": 5.6927434142,
				"z": 2.0653268035,
				"element": "O" 
			},
			{
				"x": 0.7179944846,
				"y": -3.1363178967,
				"z": 0.8705032868,
				"element": "H" 
			},
			{
				"x": 1.4802068439,
				"y": -4.0016212297,
				"z": -0.4697058536,
				"element": "H" 
			},
			{
				"x": -0.2652832575,
				"y": -3.689817444,
				"z": -0.4905652395,
				"element": "H" 
			},
			{
				"x": 2.559881771,
				"y": -0.4372214336,
				"z": -1.0696393825,
				"element": "H" 
			},
			{
				"x": 3.1373255853,
				"y": -2.0920971038,
				"z": -0.8037409628,
				"element": "H" 
			},
			{
				"x": 2.4053736524,
				"y": -1.185230459,
				"z": 0.5256888058,
				"element": "H" 
			},
			{
				"x": 1.7903195756,
				"y": -2.9528837086,
				"z": -2.6905006927,
				"element": "H" 
			},
			{
				"x": 0.0535815116,
				"y": -2.6646759473,
				"z": -2.8246113073,
				"element": "H" 
			},
			{
				"x": 1.1991511616,
				"y": -1.3305128253,
				"z": -3.0609747149,
				"element": "H" 
			},
			{
				"x": -0.9240438939,
				"y": -0.6275885987,
				"z": -2.5753126792,
				"element": "H" 
			},
			{
				"x": -2.6749306661,
				"y": 0.958583694,
				"z": -1.8910622091,
				"element": "H" 
			},
			{
				"x": -1.386808164,
				"y": 0.6404164712,
				"z": 2.1846975399,
				"element": "H" 
			},
			{
				"x": 0.3354499559,
				"y": -0.9666384643,
				"z": 1.5244288176,
				"element": "H" 
			},
			{
				"x": -3.8628298475,
				"y": 3.3965005395,
				"z": 1.6894705473,
				"element": "H" 
			},
			{
				"x": -0.9516655019,
				"y": 2.8458652343,
				"z": 1.6227118952,
				"element": "H" 
			},
			{
				"x": -1.7737971482,
				"y": 3.7637272013,
				"z": 2.8854908516,
				"element": "H" 
			},
			{
				"x": -0.6012883552,
				"y": 5.236596564,
				"z": 1.2261836268,
				"element": "H" 
			},
			{
				"x": -1.6005508237,
				"y": 4.5801983962,
				"z": -0.0696296454,
				"element": "H" 
			},
			{
				"x": -1.7402811571,
				"y": 7.0130588418,
				"z": 0.0668232389,
				"element": "H" 
			}
		],
		 "valence_orbital": [ 
			{
				"type": "occ",
				"energy": -0.28643,
				"method": "rhf"
			},
			{
				"type": "occ",
				"energy": -0.25885,
				"method": "rhf"
			},
			{
				"type": "occ",
				"energy": -0.25564,
				"method": "rhf"
			},
			{
				"type": "occ",
				"energy": -0.24868,
				"method": "rhf"
			},
			{
				"type": "occ",
				"energy": -0.234,
				"method": "rhf"
			},
			{
				"type": "unocc",
				"energy": -0.02943,
				"method": "rhf"
			},
			{
				"type": "unocc",
				"energy": -0.00802,
				"method": "rhf"
			},
			{
				"type": "unocc",
				"energy": -0.00363,
				"method": "rhf"
			},
			{
				"type": "unocc",
				"energy": 0.04227,
				"method": "rhf"
			},
			{
				"type": "unocc",
				"energy": 0.05421,
				"method": "rhf"
			}
		],
		"cosmo_sigma_profile": { 
			"-0.025": 0.0,
			"-0.024": 0.0,
			"-0.023": 0.0,
			"-0.022": 0.0,
			"-0.021": 0.0,
			"-0.02": 0.0124675744308,
			"-0.019": 0.972477064742,
			"-0.018": 0.927844327841,
			"-0.017": 1.15044772712,
			"-0.016": 1.43947048549,
			"-0.015": 0.713635200079,
			"-0.014": 1.31474114566,
			"-0.013": 1.11765468573,
			"-0.012": 1.01180750039,
			"-0.011": 1.68903856841,
			"-0.01": 1.08409237013,
			"-0.009": 1.97624926652,
			"-0.008": 3.44826692798,
			"-0.007": 5.5159524147,
			"-0.006": 10.3444732091,
			"-0.005": 19.3166854889,
			"-0.004": 21.1129262299,
			"-0.003": 30.765120416,
			"-0.002": 29.5073487141,
			"-0.001": 26.4542780591,
			"0.0": 24.8265753887,
			"0.001": 29.2111279877,
			"0.002": 16.0055821295,
			"0.003": 10.7872563165,
			"0.004": 11.9218728467,
			"0.005": 11.3554590857,
			"0.006": 4.62258562159,
			"0.007": 4.75649267739,
			"0.008": 4.06038116328,
			"0.009": 3.88111678751,
			"0.01": 6.23653296791,
			"0.011": 6.6823138835,
			"0.012": 4.57951535915,
			"0.013": 5.05551897854,
			"0.014": 4.87810849079,
			"0.015": 0.801566551071,
			"0.016": 0.0,
			"0.017": 0.0,
			"0.018": 0.0,
			"0.019": 0.0,
			"0.02": 0.0,
			"0.021": 0.0,
			"0.022": 0.0,
			"0.023": 0.0,
			"0.024": 0.0,
			"0.025": 0.0
		}
	}
}
