{
	 "smiles": "NS(=O)(=O)CC1=CC=C(F)C=C1", 
	 "Tm": 396.15, 
	 "num_atms": 20, 
	 "gaussian": { 
		 "optdone": 1, 
		 "sigma_profile": "yes", 
		 "theory": "DFT", 
		 "functional": "B3LYP", 
		 "basiset": "6-31G**", 
		 "properties": { 
			 "R2extent": 3299.55, 
			 "electric_dipole_moment_norm": 2.78000643165, 
			 "electric_quadrupole_moment_norm": 17.3183461136, 
			 "total_energy": -974.726396881, 
			 "HOMO_LUMO_gap": 0.22811, 
			 "cosmo_polarized_energy": -15.8, 
			 "cosmo_cavitation_energy": 26.1, 
			 "cosmo_dispersion_energy": -19.18, 
			 "cosmo_repulsion_energy": 1.47, 
			 "cosmo_total_nonelectrostatic_energy": 8.38, 
			 "SMD_solvation_energy": 4.47 
		},
		"coords": [
			{
				"x": -3.6359088206,
				"y": -0.2396287895,
				"z": -0.4591019935,
				"element": "N" 
			},
			{
				"x": -3.1392292026,
				"y": 1.3613826054,
				"z": -0.2001955761,
				"element": "S" 
			},
			{
				"x": -2.7624752631,
				"y": 1.9599774107,
				"z": -1.4853254159,
				"element": "O" 
			},
			{
				"x": -4.1463493513,
				"y": 1.9776401418,
				"z": 0.6693066996,
				"element": "O" 
			},
			{
				"x": -1.6210635323,
				"y": 1.1414157163,
				"z": 0.790575382,
				"element": "C" 
			},
			{
				"x": -0.5376248775,
				"y": 0.3691093465,
				"z": 0.0923685308,
				"element": "C" 
			},
			{
				"x": 0.2825446846,
				"y": 0.9910123488,
				"z": -0.860743312,
				"element": "C" 
			},
			{
				"x": 1.2858121367,
				"y": 0.2784867671,
				"z": -1.513932641,
				"element": "C" 
			},
			{
				"x": 1.4595288524,
				"y": -1.0663857761,
				"z": -1.2042800768,
				"element": "C" 
			},
			{
				"x": 2.4316732644,
				"y": -1.7606264577,
				"z": -1.8288399483,
				"element": "F" 
			},
			{
				"x": 0.6620236468,
				"y": -1.716232522,
				"z": -0.2690811609,
				"element": "C" 
			},
			{
				"x": -0.3392887167,
				"y": -0.9895911086,
				"z": 0.3734729825,
				"element": "C" 
			},
			{
				"x": -3.4798618712,
				"y": -0.5011885085,
				"z": -1.4290545211,
				"element": "H" 
			},
			{
				"x": -4.6196279534,
				"y": -0.3120218144,
				"z": -0.2118736894,
				"element": "H" 
			},
			{
				"x": -1.9508485083,
				"y": 0.6631683637,
				"z": 1.7149876984,
				"element": "H" 
			},
			{
				"x": -1.3226254424,
				"y": 2.1693780513,
				"z": 1.0173318884,
				"element": "H" 
			},
			{
				"x": 0.1262167338,
				"y": 2.0377973964,
				"z": -1.101345376,
				"element": "H" 
			},
			{
				"x": 1.9284739291,
				"y": 0.7466484393,
				"z": -2.2513502817,
				"element": "H" 
			},
			{
				"x": 0.831020844,
				"y": -2.7660560235,
				"z": -0.0560634796,
				"element": "H" 
			},
			{
				"x": -0.9744905522,
				"y": -1.4848855869,
				"z": 1.1018442904,
				"element": "H" 
			}
		],
		 "valence_orbital": [ 
			{
				"type": "occ",
				"energy": -0.31826,
				"method": "rhf"
			},
			{
				"type": "occ",
				"energy": -0.30459,
				"method": "rhf"
			},
			{
				"type": "occ",
				"energy": -0.29643,
				"method": "rhf"
			},
			{
				"type": "occ",
				"energy": -0.26972,
				"method": "rhf"
			},
			{
				"type": "occ",
				"energy": -0.24958,
				"method": "rhf"
			},
			{
				"type": "unocc",
				"energy": -0.02147,
				"method": "rhf"
			},
			{
				"type": "unocc",
				"energy": -0.02036,
				"method": "rhf"
			},
			{
				"type": "unocc",
				"energy": 0.05176,
				"method": "rhf"
			},
			{
				"type": "unocc",
				"energy": 0.07482,
				"method": "rhf"
			},
			{
				"type": "unocc",
				"energy": 0.08268,
				"method": "rhf"
			}
		],
		"cosmo_sigma_profile": { 
			"-0.025": 0.0,
			"-0.024": 0.0,
			"-0.023": 0.0,
			"-0.022": 0.0,
			"-0.021": 0.0,
			"-0.02": 0.0,
			"-0.019": 0.0,
			"-0.018": 0.0,
			"-0.017": 0.0,
			"-0.016": 0.00302988615577,
			"-0.015": 1.0970280073,
			"-0.014": 2.15987418432,
			"-0.013": 2.70157433896,
			"-0.012": 2.45852740951,
			"-0.011": 1.9130367484,
			"-0.01": 1.53217489093,
			"-0.009": 4.5118166522,
			"-0.008": 7.15923493044,
			"-0.007": 10.2496647162,
			"-0.006": 12.7810378367,
			"-0.005": 11.7120552245,
			"-0.004": 10.5444580096,
			"-0.003": 8.2227517353,
			"-0.002": 8.14900468317,
			"-0.001": 8.27522947338,
			"0.0": 10.9409587685,
			"0.001": 13.8655686898,
			"0.002": 13.0874557606,
			"0.003": 16.2756854472,
			"0.004": 16.8654676533,
			"0.005": 5.10807341418,
			"0.006": 3.80463383507,
			"0.007": 4.56209144981,
			"0.008": 3.36903999183,
			"0.009": 4.34407209599,
			"0.01": 5.36040968808,
			"0.011": 10.869895696,
			"0.012": 5.7131864257,
			"0.013": 0.0179809867615,
			"0.014": 0.0,
			"0.015": 0.0,
			"0.016": 0.0,
			"0.017": 0.0,
			"0.018": 0.0,
			"0.019": 0.0,
			"0.02": 0.0,
			"0.021": 0.0,
			"0.022": 0.0,
			"0.023": 0.0,
			"0.024": 0.0,
			"0.025": 0.0
		}
	}
}
