{
	 "smiles": "CC1=C(N)C=C(C=C1)C1=CC=NC=C1", 
	 "Tm": 476.15, 
	 "num_atms": 26, 
	 "gaussian": { 
		 "optdone": 1, 
		 "sigma_profile": "yes", 
		 "theory": "DFT", 
		 "functional": "B3LYP", 
		 "basiset": "6-31G**", 
		 "properties": { 
			 "R2extent": 3584.6001, 
			 "electric_dipole_moment_norm": 4.20924611065, 
			 "electric_quadrupole_moment_norm": 10.0942972643, 
			 "total_energy": -574.024388331, 
			 "HOMO_LUMO_gap": 0.16896, 
			 "cosmo_polarized_energy": -11.77, 
			 "cosmo_cavitation_energy": 29.38, 
			 "cosmo_dispersion_energy": -21.66, 
			 "cosmo_repulsion_energy": 1.68, 
			 "cosmo_total_nonelectrostatic_energy": 9.4, 
			 "SMD_solvation_energy": 3.34 
		},
		"coords": [
			{
				"x": 2.7054948542,
				"y": -2.8482615553,
				"z": -2.3027423927,
				"element": "C" 
			},
			{
				"x": 1.84606617,
				"y": -2.0424506772,
				"z": -1.3619896092,
				"element": "C" 
			},
			{
				"x": 1.8283946238,
				"y": -0.6302819104,
				"z": -1.4431006674,
				"element": "C" 
			},
			{
				"x": 2.580891515,
				"y": 0.0255168437,
				"z": -2.4217415417,
				"element": "N" 
			},
			{
				"x": 1.0113423105,
				"y": 0.1030080524,
				"z": -0.5720231073,
				"element": "C" 
			},
			{
				"x": 0.2076079504,
				"y": -0.5278935418,
				"z": 0.3868385,
				"element": "C" 
			},
			{
				"x": 0.2350068672,
				"y": -1.9279923381,
				"z": 0.4699811682,
				"element": "C" 
			},
			{
				"x": 1.0438090434,
				"y": -2.6578733925,
				"z": -0.3990147773,
				"element": "C" 
			},
			{
				"x": -0.6496875998,
				"y": 0.2728693932,
				"z": 1.2946778535,
				"element": "C" 
			},
			{
				"x": -1.2927932177,
				"y": 1.4445005348,
				"z": 0.8653787534,
				"element": "C" 
			},
			{
				"x": -2.0863550186,
				"y": 2.1594913836,
				"z": 1.7603569503,
				"element": "C" 
			},
			{
				"x": -2.2892552697,
				"y": 1.8017156587,
				"z": 3.03512204,
				"element": "N" 
			},
			{
				"x": -1.6770178366,
				"y": 0.6822768197,
				"z": 3.4433143996,
				"element": "C" 
			},
			{
				"x": -0.8617929858,
				"y": -0.1028659665,
				"z": 2.6305198693,
				"element": "C" 
			},
			{
				"x": 3.7770304592,
				"y": -2.6464787647,
				"z": -2.1590411837,
				"element": "H" 
			},
			{
				"x": 2.5573984196,
				"y": -3.920063864,
				"z": -2.1496283457,
				"element": "H" 
			},
			{
				"x": 2.4751814494,
				"y": -2.6208135113,
				"z": -3.3510554594,
				"element": "H" 
			},
			{
				"x": 3.4351724997,
				"y": -0.4379172877,
				"z": -2.6984336434,
				"element": "H" 
			},
			{
				"x": 2.729335451,
				"y": 1.0108939038,
				"z": -2.2518296556,
				"element": "H" 
			},
			{
				"x": 1.0259838283,
				"y": 1.1886510635,
				"z": -0.6280711756,
				"element": "H" 
			},
			{
				"x": -0.3974940839,
				"y": -2.4441902336,
				"z": 1.1846105778,
				"element": "H" 
			},
			{
				"x": 1.0476259599,
				"y": -3.7434797918,
				"z": -0.336688607,
				"element": "H" 
			},
			{
				"x": -1.1977875084,
				"y": 1.7817212092,
				"z": -0.1619631689,
				"element": "H" 
			},
			{
				"x": -2.5920644987,
				"y": 3.0663573922,
				"z": 1.4317558281,
				"element": "H" 
			},
			{
				"x": -1.8412606984,
				"y": 0.398810548,
				"z": 4.4819334691,
				"element": "H" 
			},
			{
				"x": -0.3775326839,
				"y": -0.984049968,
				"z": 3.0391339256,
				"element": "H" 
			}
		],
		 "valence_orbital": [ 
			{
				"type": "occ",
				"energy": -0.28271,
				"method": "rhf"
			},
			{
				"type": "occ",
				"energy": -0.25554,
				"method": "rhf"
			},
			{
				"type": "occ",
				"energy": -0.24737,
				"method": "rhf"
			},
			{
				"type": "occ",
				"energy": -0.23427,
				"method": "rhf"
			},
			{
				"type": "occ",
				"energy": -0.20507,
				"method": "rhf"
			},
			{
				"type": "unocc",
				"energy": -0.03611,
				"method": "rhf"
			},
			{
				"type": "unocc",
				"energy": -0.00518,
				"method": "rhf"
			},
			{
				"type": "unocc",
				"energy": 0.00893,
				"method": "rhf"
			},
			{
				"type": "unocc",
				"energy": 0.0293,
				"method": "rhf"
			},
			{
				"type": "unocc",
				"energy": 0.07134,
				"method": "rhf"
			}
		],
		"cosmo_sigma_profile": { 
			"-0.025": 0.0,
			"-0.024": 0.0,
			"-0.023": 0.0,
			"-0.022": 0.0,
			"-0.021": 0.0,
			"-0.02": 0.0,
			"-0.019": 0.0,
			"-0.018": 0.0,
			"-0.017": 0.0,
			"-0.016": 0.0,
			"-0.015": 0.0,
			"-0.014": 0.0,
			"-0.013": 0.206114490698,
			"-0.012": 1.43333500543,
			"-0.011": 2.47006944778,
			"-0.01": 2.87666511934,
			"-0.009": 3.25728516146,
			"-0.008": 3.04030472559,
			"-0.007": 3.68790390473,
			"-0.006": 10.8254184569,
			"-0.005": 18.6916570754,
			"-0.004": 17.8690442384,
			"-0.003": 17.5200444679,
			"-0.002": 15.2477140645,
			"-0.001": 14.1098714939,
			"0.0": 17.2141394514,
			"0.001": 14.9777250718,
			"0.002": 17.7712412056,
			"0.003": 22.3727449821,
			"0.004": 9.5958858694,
			"0.005": 10.8626099025,
			"0.006": 10.5374970679,
			"0.007": 4.11661704792,
			"0.008": 2.96942196499,
			"0.009": 1.91457441412,
			"0.01": 0.944298712199,
			"0.011": 2.24735611123,
			"0.012": 1.75526179153,
			"0.013": 1.18652814703,
			"0.014": 1.66595849893,
			"0.015": 1.02580616863,
			"0.016": 0.969029006549,
			"0.017": 0.543108868521,
			"0.018": 0.035347463684,
			"0.019": 0.0,
			"0.02": 0.0,
			"0.021": 0.0,
			"0.022": 0.0,
			"0.023": 0.0,
			"0.024": 0.0,
			"0.025": 0.0
		}
	}
}
