{
	 "smiles": "CNC(C)C1=CC=C(C=C1)N1C=NC=N1", 
	 "Tm": 319.15, 
	 "num_atms": 29, 
	 "gaussian": { 
		 "optdone": 1, 
		 "sigma_profile": "yes", 
		 "theory": "DFT", 
		 "functional": "B3LYP", 
		 "basiset": "6-31G**", 
		 "properties": { 
			 "R2extent": 5312.6362, 
			 "electric_dipole_moment_norm": 2.56877329089, 
			 "electric_quadrupole_moment_norm": 16.5897249974, 
			 "total_energy": -646.590688687, 
			 "HOMO_LUMO_gap": 0.1858, 
			 "cosmo_polarized_energy": -12.41, 
			 "cosmo_cavitation_energy": 31.98, 
			 "cosmo_dispersion_energy": -23.03, 
			 "cosmo_repulsion_energy": 1.77, 
			 "cosmo_total_nonelectrostatic_energy": 10.73, 
			 "SMD_solvation_energy": 1.73 
		},
		"coords": [
			{
				"x": -1.8153001293,
				"y": -1.6254852497,
				"z": -1.9512413488,
				"element": "C" 
			},
			{
				"x": -0.8071737699,
				"y": -2.3920389619,
				"z": -1.2223210055,
				"element": "N" 
			},
			{
				"x": 0.3741346806,
				"y": -1.6514278919,
				"z": -0.7303716377,
				"element": "C" 
			},
			{
				"x": 1.2349231773,
				"y": -1.1667115397,
				"z": -1.9026307147,
				"element": "C" 
			},
			{
				"x": 0.0374765558,
				"y": -0.5559630338,
				"z": 0.2844869718,
				"element": "C" 
			},
			{
				"x": 0.0111099076,
				"y": -0.8714619658,
				"z": 1.6505984967,
				"element": "C" 
			},
			{
				"x": -0.336518624,
				"y": 0.0708148506,
				"z": 2.6153900151,
				"element": "C" 
			},
			{
				"x": -0.6907019914,
				"y": 1.3631963531,
				"z": 2.2163577114,
				"element": "C" 
			},
			{
				"x": -0.6672508,
				"y": 1.7085128471,
				"z": 0.8630472823,
				"element": "C" 
			},
			{
				"x": -0.2997316849,
				"y": 0.7552857838,
				"z": -0.0844538327,
				"element": "C" 
			},
			{
				"x": -1.0720364014,
				"y": 2.333357867,
				"z": 3.1818942098,
				"element": "N" 
			},
			{
				"x": -1.5829793723,
				"y": 2.158488792,
				"z": 4.4305268527,
				"element": "C" 
			},
			{
				"x": -1.8245773978,
				"y": 3.323262594,
				"z": 5.0021534476,
				"element": "N" 
			},
			{
				"x": -1.4410023034,
				"y": 4.2083323152,
				"z": 4.0378582454,
				"element": "C" 
			},
			{
				"x": -0.9830978303,
				"y": 3.6685136729,
				"z": 2.9200753565,
				"element": "N" 
			},
			{
				"x": -2.6471058761,
				"y": -2.2929579313,
				"z": -2.1957314259,
				"element": "H" 
			},
			{
				"x": -1.402746172,
				"y": -1.2664291365,
				"z": -2.8993212168,
				"element": "H" 
			},
			{
				"x": -2.2247543915,
				"y": -0.7562380747,
				"z": -1.4100476841,
				"element": "H" 
			},
			{
				"x": -1.2523746017,
				"y": -2.8436160624,
				"z": -0.4276138443,
				"element": "H" 
			},
			{
				"x": 0.9656422347,
				"y": -2.4024038341,
				"z": -0.1910727408,
				"element": "H" 
			},
			{
				"x": 0.7336236171,
				"y": -0.4063283357,
				"z": -2.5085414732,
				"element": "H" 
			},
			{
				"x": 1.4679441433,
				"y": -2.012287671,
				"z": -2.5552027694,
				"element": "H" 
			},
			{
				"x": 2.1700865336,
				"y": -0.7327843304,
				"z": -1.5368963732,
				"element": "H" 
			},
			{
				"x": 0.2901396408,
				"y": -1.8725631525,
				"z": 1.9716685072,
				"element": "H" 
			},
			{
				"x": -0.3037644093,
				"y": -0.1930453593,
				"z": 3.6673875225,
				"element": "H" 
			},
			{
				"x": -0.9279800296,
				"y": 2.7191224975,
				"z": 0.5726742638,
				"element": "H" 
			},
			{
				"x": -0.2728955175,
				"y": 1.0493275594,
				"z": -1.1287303542,
				"element": "H" 
			},
			{
				"x": -1.7763156596,
				"y": 1.18623307,
				"z": 4.8592804582,
				"element": "H" 
			},
			{
				"x": -1.4988735288,
				"y": 5.2807943279,
				"z": 4.1632770803,
				"element": "H" 
			}
		],
		 "valence_orbital": [ 
			{
				"type": "occ",
				"energy": -0.27881,
				"method": "rhf"
			},
			{
				"type": "occ",
				"energy": -0.27715,
				"method": "rhf"
			},
			{
				"type": "occ",
				"energy": -0.26533,
				"method": "rhf"
			},
			{
				"type": "occ",
				"energy": -0.24219,
				"method": "rhf"
			},
			{
				"type": "occ",
				"energy": -0.22046,
				"method": "rhf"
			},
			{
				"type": "unocc",
				"energy": -0.03466,
				"method": "rhf"
			},
			{
				"type": "unocc",
				"energy": -0.01793,
				"method": "rhf"
			},
			{
				"type": "unocc",
				"energy": 0.02685,
				"method": "rhf"
			},
			{
				"type": "unocc",
				"energy": 0.05156,
				"method": "rhf"
			},
			{
				"type": "unocc",
				"energy": 0.07557,
				"method": "rhf"
			}
		],
		"cosmo_sigma_profile": { 
			"-0.025": 0.0,
			"-0.024": 0.0,
			"-0.023": 0.0,
			"-0.022": 0.0,
			"-0.021": 0.0,
			"-0.02": 0.0,
			"-0.019": 0.0,
			"-0.018": 0.0,
			"-0.017": 0.0,
			"-0.016": 0.0,
			"-0.015": 0.0,
			"-0.014": 0.0,
			"-0.013": 0.0,
			"-0.012": 0.0,
			"-0.011": 1.45318932122,
			"-0.01": 2.82655354017,
			"-0.009": 4.08095425279,
			"-0.008": 5.76303561774,
			"-0.007": 5.05018827901,
			"-0.006": 12.3992025565,
			"-0.005": 12.73879264,
			"-0.004": 16.7122088069,
			"-0.003": 20.0106725132,
			"-0.002": 20.6069836762,
			"-0.001": 23.558503457,
			"0.0": 28.2856927072,
			"0.001": 21.0621498498,
			"0.002": 14.5549238303,
			"0.003": 13.4059133962,
			"0.004": 14.4913764605,
			"0.005": 6.34645135323,
			"0.006": 3.94939919977,
			"0.007": 4.57472426218,
			"0.008": 2.87093328321,
			"0.009": 2.66975605869,
			"0.01": 3.70191921603,
			"0.011": 2.61193315274,
			"0.012": 2.00223284406,
			"0.013": 2.09683115269,
			"0.014": 2.25265906138,
			"0.015": 1.63070923025,
			"0.016": 1.0665016128,
			"0.017": 0.723602669745,
			"0.018": 0.232912269979,
			"0.019": 0.018069508233,
			"0.02": 0.0,
			"0.021": 0.0,
			"0.022": 0.0,
			"0.023": 0.0,
			"0.024": 0.0,
			"0.025": 0.0
		}
	}
}
