{
	 "smiles": "NC(=O)NO", 
	 "Tm": 415.15, 
	 "num_atms": 9, 
	 "gaussian": { 
		 "optdone": 1, 
		 "sigma_profile": "yes", 
		 "theory": "DFT", 
		 "functional": "B3LYP", 
		 "basiset": "6-31G**", 
		 "properties": { 
			 "R2extent": 458.9021, 
			 "electric_dipole_moment_norm": 3.64338940411, 
			 "electric_quadrupole_moment_norm": 9.16513510048, 
			 "total_energy": -300.424896777, 
			 "HOMO_LUMO_gap": 0.26251, 
			 "cosmo_polarized_energy": -14.55, 
			 "cosmo_cavitation_energy": 13.13, 
			 "cosmo_dispersion_energy": -10.16, 
			 "cosmo_repulsion_energy": 0.93, 
			 "cosmo_total_nonelectrostatic_energy": 3.91, 
			 "SMD_solvation_energy": 4.28 
		},
		"coords": [
			{
				"x": -1.9172146914,
				"y": -0.4910555645,
				"z": 1.1667063976,
				"element": "N" 
			},
			{
				"x": -0.9678292464,
				"y": -0.036012754,
				"z": 0.280057738,
				"element": "C" 
			},
			{
				"x": -0.4292976665,
				"y": 1.064450342,
				"z": 0.3390752736,
				"element": "O" 
			},
			{
				"x": -0.6467718882,
				"y": -0.944005937,
				"z": -0.7329687759,
				"element": "N" 
			},
			{
				"x": 0.4789388453,
				"y": -0.527728742,
				"z": -1.4837463348,
				"element": "O" 
			},
			{
				"x": -2.5920925498,
				"y": -1.1616248297,
				"z": 0.8258309935,
				"element": "H" 
			},
			{
				"x": -2.295090093,
				"y": 0.2316619583,
				"z": 1.762587228,
				"element": "H" 
			},
			{
				"x": -0.4690744935,
				"y": -1.8879899096,
				"z": -0.3996352259,
				"element": "H" 
			},
			{
				"x": 0.6882317835,
				"y": 0.3327054366,
				"z": -1.0591072941,
				"element": "H" 
			}
		],
		 "valence_orbital": [ 
			{
				"type": "occ",
				"energy": -0.37976,
				"method": "rhf"
			},
			{
				"type": "occ",
				"energy": -0.35474,
				"method": "rhf"
			},
			{
				"type": "occ",
				"energy": -0.29812,
				"method": "rhf"
			},
			{
				"type": "occ",
				"energy": -0.28359,
				"method": "rhf"
			},
			{
				"type": "occ",
				"energy": -0.23609,
				"method": "rhf"
			},
			{
				"type": "unocc",
				"energy": 0.02642,
				"method": "rhf"
			},
			{
				"type": "unocc",
				"energy": 0.05624,
				"method": "rhf"
			},
			{
				"type": "unocc",
				"energy": 0.09471,
				"method": "rhf"
			},
			{
				"type": "unocc",
				"energy": 0.11717,
				"method": "rhf"
			},
			{
				"type": "unocc",
				"energy": 0.12554,
				"method": "rhf"
			}
		],
		"cosmo_sigma_profile": { 
			"-0.025": 0.0,
			"-0.024": 0.0,
			"-0.023": 0.0,
			"-0.022": 0.0,
			"-0.021": 0.0,
			"-0.02": 0.0,
			"-0.019": 0.0,
			"-0.018": 0.0,
			"-0.017": 0.0,
			"-0.016": 0.139719597373,
			"-0.015": 1.92648195135,
			"-0.014": 4.58842926533,
			"-0.013": 3.59016240092,
			"-0.012": 3.84866513321,
			"-0.011": 3.6803008606,
			"-0.01": 3.07666813653,
			"-0.009": 3.35286637416,
			"-0.008": 3.15779859714,
			"-0.007": 2.96056955469,
			"-0.006": 1.54050053785,
			"-0.005": 3.08586473375,
			"-0.004": 3.25431947544,
			"-0.003": 2.82138358116,
			"-0.002": 3.43500437076,
			"-0.001": 3.48507838669,
			"0.0": 3.76201883162,
			"0.001": 3.3189209999,
			"0.002": 4.08743638123,
			"0.003": 3.73602656791,
			"0.004": 3.31565237233,
			"0.005": 2.23929671391,
			"0.006": 3.43325726106,
			"0.007": 3.4222457544,
			"0.008": 4.62708287359,
			"0.009": 2.77453245929,
			"0.01": 4.43025171804,
			"0.011": 4.9798714398,
			"0.012": 6.55851378042,
			"0.013": 3.7326767653,
			"0.014": 0.562505253245,
			"0.015": 0.0,
			"0.016": 0.0,
			"0.017": 0.0,
			"0.018": 0.0,
			"0.019": 0.0,
			"0.02": 0.0,
			"0.021": 0.0,
			"0.022": 0.0,
			"0.023": 0.0,
			"0.024": 0.0,
			"0.025": 0.0
		}
	}
}
