{
	 "smiles": "SC1=NC=CC(=C1)C#N", 
	 "Tm": 501.15, 
	 "num_atms": 13, 
	 "gaussian": { 
		 "optdone": 1, 
		 "sigma_profile": "yes", 
		 "theory": "DFT", 
		 "functional": "B3LYP", 
		 "basiset": "6-31G**", 
		 "properties": { 
			 "R2extent": 1952.49, 
			 "electric_dipole_moment_norm": 2.78316684013, 
			 "electric_quadrupole_moment_norm": 9.71706022982, 
			 "total_energy": -738.710740647, 
			 "HOMO_LUMO_gap": 0.17148, 
			 "cosmo_polarized_energy": -9.39, 
			 "cosmo_cavitation_energy": 20.62, 
			 "cosmo_dispersion_energy": -15.28, 
			 "cosmo_repulsion_energy": 1.21, 
			 "cosmo_total_nonelectrostatic_energy": 6.55, 
			 "SMD_solvation_energy": 3.33 
		},
		"coords": [
			{
				"x": -3.1664466035,
				"y": -0.9288848912,
				"z": 1.4958105074,
				"element": "S" 
			},
			{
				"x": -1.4553902467,
				"y": -0.7461224919,
				"z": 1.0323274211,
				"element": "C" 
			},
			{
				"x": -1.0089515592,
				"y": -1.4516444758,
				"z": -0.010537887,
				"element": "N" 
			},
			{
				"x": 0.2775339222,
				"y": -1.3126431032,
				"z": -0.3569315677,
				"element": "C" 
			},
			{
				"x": 1.1740460921,
				"y": -0.4790792858,
				"z": 0.3034247859,
				"element": "C" 
			},
			{
				"x": 0.6917909489,
				"y": 0.2572320628,
				"z": 1.3982201023,
				"element": "C" 
			},
			{
				"x": -0.6472027551,
				"y": 0.1266301277,
				"z": 1.7759806079,
				"element": "C" 
			},
			{
				"x": 1.5633830156,
				"y": 1.1370472829,
				"z": 2.1249403501,
				"element": "C" 
			},
			{
				"x": 2.2716389697,
				"y": 1.8484376554,
				"z": 2.7110797757,
				"element": "N" 
			},
			{
				"x": -3.4403320828,
				"y": -1.8146464641,
				"z": 0.5195746794,
				"element": "H" 
			},
			{
				"x": 0.6049847861,
				"y": -1.9023358542,
				"z": -1.2102045614,
				"element": "H" 
			},
			{
				"x": 2.207050465,
				"y": -0.39878626,
				"z": -0.0130417981,
				"element": "H" 
			},
			{
				"x": -1.0429049522,
				"y": 0.6841956974,
				"z": 2.6171575843,
				"element": "H" 
			}
		],
		 "valence_orbital": [ 
			{
				"type": "occ",
				"energy": -0.34673,
				"method": "rhf"
			},
			{
				"type": "occ",
				"energy": -0.32345,
				"method": "rhf"
			},
			{
				"type": "occ",
				"energy": -0.30283,
				"method": "rhf"
			},
			{
				"type": "occ",
				"energy": -0.28766,
				"method": "rhf"
			},
			{
				"type": "occ",
				"energy": -0.25026,
				"method": "rhf"
			},
			{
				"type": "unocc",
				"energy": -0.07878,
				"method": "rhf"
			},
			{
				"type": "unocc",
				"energy": -0.04013,
				"method": "rhf"
			},
			{
				"type": "unocc",
				"energy": 0.00105,
				"method": "rhf"
			},
			{
				"type": "unocc",
				"energy": 0.01975,
				"method": "rhf"
			},
			{
				"type": "unocc",
				"energy": 0.05764,
				"method": "rhf"
			}
		],
		"cosmo_sigma_profile": { 
			"-0.025": 0.0,
			"-0.024": 0.0,
			"-0.023": 0.0,
			"-0.022": 0.0,
			"-0.021": 0.0,
			"-0.02": 0.0,
			"-0.019": 0.0,
			"-0.018": 0.0,
			"-0.017": 0.0,
			"-0.016": 0.0,
			"-0.015": 0.0,
			"-0.014": 0.0,
			"-0.013": 0.0,
			"-0.012": 0.00630906189611,
			"-0.011": 1.16929212027,
			"-0.01": 2.04157899507,
			"-0.009": 5.6001791396,
			"-0.008": 8.21172345516,
			"-0.007": 8.08186337612,
			"-0.006": 6.91318437163,
			"-0.005": 6.45979111625,
			"-0.004": 7.51458374925,
			"-0.003": 10.6589668665,
			"-0.002": 11.494324372,
			"-0.001": 16.374270735,
			"0.0": 14.781139856,
			"0.001": 8.22462671145,
			"0.002": 9.85936469839,
			"0.003": 7.93903961522,
			"0.004": 6.82566208935,
			"0.005": 6.84754419539,
			"0.006": 5.71481509426,
			"0.007": 6.96599961496,
			"0.008": 4.7549090282,
			"0.009": 4.07993599074,
			"0.01": 3.53619747695,
			"0.011": 2.98617555965,
			"0.012": 2.62618802233,
			"0.013": 0.481607828327,
			"0.014": 0.0,
			"0.015": 0.0,
			"0.016": 0.0,
			"0.017": 0.0,
			"0.018": 0.0,
			"0.019": 0.0,
			"0.02": 0.0,
			"0.021": 0.0,
			"0.022": 0.0,
			"0.023": 0.0,
			"0.024": 0.0,
			"0.025": 0.0
		}
	}
}
