{
	 "smiles": "ClCCI", 
	 "Tm": 257.55, 
	 "num_atms": 8, 
	 "gaussian": { 
		 "optdone": 1, 
		 "sigma_profile": "no", 
		 "theory": "DFT", 
		 "functional": "B3LYP", 
		 "basiset": "6-31G**", 
		 "properties": { 
			 "R2extent": 682.2686, 
			 "electric_dipole_moment_norm": 2.70322162798, 
			 "electric_quadrupole_moment_norm": 5.19205908479, 
			 "total_energy": -550.208268839, 
			 "HOMO_LUMO_gap": 0.2119, 
			 "cosmo_polarized_energy": -94110.28, 
			 "cosmo_cavitation_energy": 16.08, 
			 "cosmo_dispersion_energy": -13.67, 
			 "cosmo_repulsion_energy": 1.19, 
			 "cosmo_total_nonelectrostatic_energy": 3.59, 
			 "SMD_solvation_energy": 1.64 
		},
		"coords": [
			{
				"x": -1.1281150061,
				"y": 2.2137899104,
				"z": -0.4030886455,
				"element": "Cl" 
			},
			{
				"x": 0.2830886646,
				"y": 1.2402727505,
				"z": -0.9743988668,
				"element": "C" 
			},
			{
				"x": 0.8915711792,
				"y": 0.3728845454,
				"z": 0.1085025619,
				"element": "C" 
			},
			{
				"x": -0.3634659212,
				"y": -1.295049763,
				"z": 0.7270716896,
				"element": "I" 
			},
			{
				"x": -0.0560230895,
				"y": 0.6532344086,
				"z": -1.828211196,
				"element": "H" 
			},
			{
				"x": 1.0339383355,
				"y": 1.961164922,
				"z": -1.3110826202,
				"element": "H" 
			},
			{
				"x": 1.1011853811,
				"y": 0.9376158598,
				"z": 1.0154856716,
				"element": "H" 
			},
			{
				"x": 1.8093204564,
				"y": -0.0870126338,
				"z": -0.2609785945,
				"element": "H" 
			}
		],
		 "valence_orbital": [ 
			{
				"type": "occ",
				"energy": -0.35614,
				"method": "rhf"
			},
			{
				"type": "occ",
				"energy": -0.30859,
				"method": "rhf"
			},
			{
				"type": "occ",
				"energy": -0.30473,
				"method": "rhf"
			},
			{
				"type": "occ",
				"energy": -0.26679,
				"method": "rhf"
			},
			{
				"type": "occ",
				"energy": -0.26327,
				"method": "rhf"
			},
			{
				"type": "unocc",
				"energy": -0.05137,
				"method": "rhf"
			},
			{
				"type": "unocc",
				"energy": 0.01733,
				"method": "rhf"
			},
			{
				"type": "unocc",
				"energy": 0.03853,
				"method": "rhf"
			},
			{
				"type": "unocc",
				"energy": 0.04068,
				"method": "rhf"
			},
			{
				"type": "unocc",
				"energy": 0.05226,
				"method": "rhf"
			}
		],
		"cosmo_sigma_profile": { 
			"0.0": 0.0,
			"0.0": 0.0,
			"0.0": 0.0,
			"0.0": 0.0,
			"0.0": 0.0,
			"0.0": 0.0,
			"0.0": 0.0,
			"0.0": 0.0,
			"0.0": 0.0,
			"0.0": 0.0,
			"0.0": 0.0,
			"0.0": 0.0,
			"0.0": 0.0,
			"0.0": 0.0,
			"0.0": 0.0,
			"0.0": 0.0,
			"0.0": 0.0,
			"0.0": 0.0,
			"0.0": 0.0,
			"0.0": 0.0,
			"0.0": 0.0,
			"0.0": 0.0,
			"0.0": 0.0,
			"0.0": 0.0,
			"0.0": 0.0,
			"0.0": 0.0,
			"0.0": 0.0,
			"0.0": 0.0,
			"0.0": 0.0,
			"0.0": 0.0,
			"0.0": 0.0,
			"0.0": 0.0,
			"0.0": 0.0,
			"0.0": 0.0,
			"0.0": 0.0,
			"0.0": 0.0,
			"0.0": 0.0,
			"0.0": 0.0,
			"0.0": 0.0,
			"0.0": 0.0,
			"0.0": 0.0,
			"0.0": 0.0,
			"0.0": 0.0,
			"0.0": 0.0,
			"0.0": 0.0,
			"0.0": 0.0,
			"0.0": 0.0,
			"0.0": 0.0,
			"0.0": 0.0,
			"0.0": 0.0,
			"0.0": 0.0
		}
	}
}
