{
	 "smiles": "NC(=O)C1=C(N)N(N=C1)C1=CC=CC=C1", 
	 "Tm": 441.15, 
	 "num_atms": 25, 
	 "gaussian": { 
		 "optdone": 1, 
		 "sigma_profile": "yes", 
		 "theory": "DFT", 
		 "functional": "B3LYP", 
		 "basiset": "6-31G**", 
		 "properties": { 
			 "R2extent": 4613.3041, 
			 "electric_dipole_moment_norm": 0.747229355687, 
			 "electric_quadrupole_moment_norm": 18.9679933211, 
			 "total_energy": -681.329280573, 
			 "HOMO_LUMO_gap": 0.1898, 
			 "cosmo_polarized_energy": -16.42, 
			 "cosmo_cavitation_energy": 29.14, 
			 "cosmo_dispersion_energy": -21.82, 
			 "cosmo_repulsion_energy": 1.7, 
			 "cosmo_total_nonelectrostatic_energy": 9.01, 
			 "SMD_solvation_energy": 4.9 
		},
		"coords": [
			{
				"x": 2.3767655208,
				"y": -0.2294535738,
				"z": -4.5455774542,
				"element": "N" 
			},
			{
				"x": 1.4627104758,
				"y": -0.2441598244,
				"z": -3.5218272081,
				"element": "C" 
			},
			{
				"x": 0.3198328989,
				"y": -0.6907188419,
				"z": -3.6989229015,
				"element": "O" 
			},
			{
				"x": 1.9090809606,
				"y": 0.2469784452,
				"z": -2.2200756917,
				"element": "C" 
			},
			{
				"x": 1.067069481,
				"y": 0.301811125,
				"z": -1.1007947258,
				"element": "C" 
			},
			{
				"x": -0.2663536628,
				"y": -0.0014177091,
				"z": -1.0423731473,
				"element": "N" 
			},
			{
				"x": 1.8264548156,
				"y": 0.7572790672,
				"z": -0.0595349494,
				"element": "N" 
			},
			{
				"x": 3.1404296573,
				"y": 0.9731996481,
				"z": -0.4405954419,
				"element": "N" 
			},
			{
				"x": 3.1702163323,
				"y": 0.6754564502,
				"z": -1.7239017467,
				"element": "C" 
			},
			{
				"x": 1.4550047126,
				"y": 0.9612979975,
				"z": 1.2957651349,
				"element": "C" 
			},
			{
				"x": 0.1791356988,
				"y": 1.4359220775,
				"z": 1.6262861654,
				"element": "C" 
			},
			{
				"x": -0.1583029895,
				"y": 1.6215444701,
				"z": 2.9681178699,
				"element": "C" 
			},
			{
				"x": 0.7694800551,
				"y": 1.3576432457,
				"z": 3.9757061314,
				"element": "C" 
			},
			{
				"x": 2.0475970099,
				"y": 0.9068942519,
				"z": 3.6346003525,
				"element": "C" 
			},
			{
				"x": 2.394597851,
				"y": 0.7026694811,
				"z": 2.3014920536,
				"element": "C" 
			},
			{
				"x": 3.1962599081,
				"y": 0.3548598386,
				"z": -4.4961469834,
				"element": "H" 
			},
			{
				"x": 2.014228351,
				"y": -0.4452846019,
				"z": -5.4623309592,
				"element": "H" 
			},
			{
				"x": -0.6087596029,
				"y": -0.3861578029,
				"z": -0.1722550715,
				"element": "H" 
			},
			{
				"x": -0.553864038,
				"y": -0.4818959066,
				"z": -1.8947741865,
				"element": "H" 
			},
			{
				"x": 4.1078995376,
				"y": 0.76674026,
				"z": -2.2587672902,
				"element": "H" 
			},
			{
				"x": -0.5294867593,
				"y": 1.6807644907,
				"z": 0.8431307289,
				"element": "H" 
			},
			{
				"x": -1.1481659083,
				"y": 1.9905076618,
				"z": 3.220391579,
				"element": "H" 
			},
			{
				"x": 0.5027790762,
				"y": 1.5083006329,
				"z": 5.0173582213,
				"element": "H" 
			},
			{
				"x": 2.7792939115,
				"y": 0.7063606206,
				"z": 4.4117852577,
				"element": "H" 
			},
			{
				"x": 3.3821967066,
				"y": 0.3580584964,
				"z": 2.0197442629,
				"element": "H" 
			}
		],
		 "valence_orbital": [ 
			{
				"type": "occ",
				"energy": -0.26765,
				"method": "rhf"
			},
			{
				"type": "occ",
				"energy": -0.25997,
				"method": "rhf"
			},
			{
				"type": "occ",
				"energy": -0.25194,
				"method": "rhf"
			},
			{
				"type": "occ",
				"energy": -0.23087,
				"method": "rhf"
			},
			{
				"type": "occ",
				"energy": -0.21095,
				"method": "rhf"
			},
			{
				"type": "unocc",
				"energy": -0.02115,
				"method": "rhf"
			},
			{
				"type": "unocc",
				"energy": -0.01124,
				"method": "rhf"
			},
			{
				"type": "unocc",
				"energy": 0.00281,
				"method": "rhf"
			},
			{
				"type": "unocc",
				"energy": 0.03991,
				"method": "rhf"
			},
			{
				"type": "unocc",
				"energy": 0.07462,
				"method": "rhf"
			}
		],
		"cosmo_sigma_profile": { 
			"-0.025": 0.0,
			"-0.024": 0.0,
			"-0.023": 0.0,
			"-0.022": 0.0,
			"-0.021": 0.0,
			"-0.02": 0.0,
			"-0.019": 0.0,
			"-0.018": 0.0,
			"-0.017": 0.0,
			"-0.016": 0.0,
			"-0.015": 0.0714254307618,
			"-0.014": 1.37567955858,
			"-0.013": 3.38597230922,
			"-0.012": 3.62318625855,
			"-0.011": 3.61324218476,
			"-0.01": 4.08991373561,
			"-0.009": 5.01964341234,
			"-0.008": 5.62172039187,
			"-0.007": 5.06926301741,
			"-0.006": 10.7659320646,
			"-0.005": 14.475591243,
			"-0.004": 14.1094196991,
			"-0.003": 11.2412310967,
			"-0.002": 10.9856300571,
			"-0.001": 11.3917091623,
			"0.0": 12.1199169011,
			"0.001": 15.8158236579,
			"0.002": 18.3026691586,
			"0.003": 17.3819627985,
			"0.004": 17.6574489113,
			"0.005": 12.9268494923,
			"0.006": 5.22038642347,
			"0.007": 4.95418668324,
			"0.008": 2.90854426135,
			"0.009": 4.15175733911,
			"0.01": 3.97008941603,
			"0.011": 2.63615261131,
			"0.012": 2.36187852489,
			"0.013": 3.40255793245,
			"0.014": 3.38357117416,
			"0.015": 1.10691810536,
			"0.016": 0.0,
			"0.017": 0.0,
			"0.018": 0.0,
			"0.019": 0.0,
			"0.02": 0.0,
			"0.021": 0.0,
			"0.022": 0.0,
			"0.023": 0.0,
			"0.024": 0.0,
			"0.025": 0.0
		}
	}
}
