{
	 "smiles": "CC(C)(C)OC(=O)NCC1=CC2=C(NCCC2)C=C1", 
	 "Tm": 337.15, 
	 "num_atms": 41, 
	 "gaussian": { 
		 "optdone": 1, 
		 "sigma_profile": "yes", 
		 "theory": "DFT", 
		 "functional": "B3LYP", 
		 "basiset": "6-31G**", 
		 "properties": { 
			 "R2extent": 8952.2297, 
			 "electric_dipole_moment_norm": 3.03025277658, 
			 "electric_quadrupole_moment_norm": 13.754234874, 
			 "total_energy": -844.861740547, 
			 "HOMO_LUMO_gap": 0.1927, 
			 "cosmo_polarized_energy": -12.67, 
			 "cosmo_cavitation_energy": 41.91, 
			 "cosmo_dispersion_energy": -29.77, 
			 "cosmo_repulsion_energy": 2.32, 
			 "cosmo_total_nonelectrostatic_energy": 14.46, 
			 "SMD_solvation_energy": 5.61 
		},
		"coords": [
			{
				"x": -2.4840242193,
				"y": -3.0703646058,
				"z": 3.607853948,
				"element": "C" 
			},
			{
				"x": -2.8690108459,
				"y": -2.7057227143,
				"z": 2.1712421387,
				"element": "C" 
			},
			{
				"x": -2.6036418848,
				"y": -3.8813644192,
				"z": 1.2239475815,
				"element": "C" 
			},
			{
				"x": -4.3228370238,
				"y": -2.22468285,
				"z": 2.104413878,
				"element": "C" 
			},
			{
				"x": -1.9560364404,
				"y": -1.5958953449,
				"z": 1.8682448875,
				"element": "O" 
			},
			{
				"x": -1.986324767,
				"y": -0.9774424422,
				"z": 0.6596202123,
				"element": "C" 
			},
			{
				"x": -2.7209575498,
				"y": -1.2600665724,
				"z": -0.2767332271,
				"element": "O" 
			},
			{
				"x": -1.0747321715,
				"y": 0.0409060774,
				"z": 0.6523202981,
				"element": "N" 
			},
			{
				"x": -0.7384201928,
				"y": 0.7556694085,
				"z": -0.5783578662,
				"element": "C" 
			},
			{
				"x": 0.4807707121,
				"y": 0.2152409323,
				"z": -1.2979409237,
				"element": "C" 
			},
			{
				"x": 1.682938008,
				"y": 0.92572734,
				"z": -1.3250849874,
				"element": "C" 
			},
			{
				"x": 2.8269932193,
				"y": 0.4492720116,
				"z": -1.9723949692,
				"element": "C" 
			},
			{
				"x": 2.7692138219,
				"y": -0.8087100298,
				"z": -2.6095993899,
				"element": "C" 
			},
			{
				"x": 3.8995043262,
				"y": -1.3569676093,
				"z": -3.2163689573,
				"element": "N" 
			},
			{
				"x": 5.0304710066,
				"y": -0.498105668,
				"z": -3.5390250107,
				"element": "C" 
			},
			{
				"x": 5.331391557,
				"y": 0.4050464129,
				"z": -2.3409384283,
				"element": "C" 
			},
			{
				"x": 4.1051786627,
				"y": 1.2679074162,
				"z": -2.0105153479,
				"element": "C" 
			},
			{
				"x": 1.5616682928,
				"y": -1.5332797298,
				"z": -2.5853657282,
				"element": "C" 
			},
			{
				"x": 0.4378826844,
				"y": -1.0292028933,
				"z": -1.9459654592,
				"element": "C" 
			},
			{
				"x": -3.1015436101,
				"y": -3.9003066933,
				"z": 3.9642236523,
				"element": "H" 
			},
			{
				"x": -1.4337176352,
				"y": -3.3717495056,
				"z": 3.6612991801,
				"element": "H" 
			},
			{
				"x": -2.6318055353,
				"y": -2.2163724595,
				"z": 4.2753738867,
				"element": "H" 
			},
			{
				"x": -2.8601048711,
				"y": -3.619406986,
				"z": 0.1973187338,
				"element": "H" 
			},
			{
				"x": -3.2036261233,
				"y": -4.7445050084,
				"z": 1.5306903456,
				"element": "H" 
			},
			{
				"x": -1.5482985207,
				"y": -4.1696395112,
				"z": 1.2640954317,
				"element": "H" 
			},
			{
				"x": -4.9918166045,
				"y": -3.024489472,
				"z": 2.4388490672,
				"element": "H" 
			},
			{
				"x": -4.5920217931,
				"y": -1.9408335554,
				"z": 1.0867908849,
				"element": "H" 
			},
			{
				"x": -4.4675505871,
				"y": -1.3627368547,
				"z": 2.7635714116,
				"element": "H" 
			},
			{
				"x": -0.4110303443,
				"y": 0.0500830487,
				"z": 1.4133776092,
				"element": "H" 
			},
			{
				"x": -1.6258858256,
				"y": 0.6860284647,
				"z": -1.2120414625,
				"element": "H" 
			},
			{
				"x": -0.5878091281,
				"y": 1.8124311548,
				"z": -0.3310812517,
				"element": "H" 
			},
			{
				"x": 1.7368559663,
				"y": 1.8957686923,
				"z": -0.831427101,
				"element": "H" 
			},
			{
				"x": 3.7015768743,
				"y": -2.0814883424,
				"z": -3.89237392,
				"element": "H" 
			},
			{
				"x": 4.8385005277,
				"y": 0.1281945461,
				"z": -4.4284383344,
				"element": "H" 
			},
			{
				"x": 5.8917889572,
				"y": -1.1344727631,
				"z": -3.7690136903,
				"element": "H" 
			},
			{
				"x": 6.1992018964,
				"y": 1.0365322513,
				"z": -2.5586431998,
				"element": "H" 
			},
			{
				"x": 5.5888874868,
				"y": -0.2265689042,
				"z": -1.4828592402,
				"element": "H" 
			},
			{
				"x": 4.2499760605,
				"y": 1.7804010977,
				"z": -1.0519892096,
				"element": "H" 
			},
			{
				"x": 4.0106925812,
				"y": 2.0618583823,
				"z": -2.7656676026,
				"element": "H" 
			},
			{
				"x": 1.5170841274,
				"y": -2.5020500165,
				"z": -3.0786820996,
				"element": "H" 
			},
			{
				"x": -0.4867810951,
				"y": -1.6000422854,
				"z": -1.9439257404,
				"element": "H" 
			}
		],
		 "valence_orbital": [ 
			{
				"type": "occ",
				"energy": -0.27968,
				"method": "rhf"
			},
			{
				"type": "occ",
				"energy": -0.25675,
				"method": "rhf"
			},
			{
				"type": "occ",
				"energy": -0.24254,
				"method": "rhf"
			},
			{
				"type": "occ",
				"energy": -0.23356,
				"method": "rhf"
			},
			{
				"type": "occ",
				"energy": -0.18607,
				"method": "rhf"
			},
			{
				"type": "unocc",
				"energy": 0.00663,
				"method": "rhf"
			},
			{
				"type": "unocc",
				"energy": 0.01775,
				"method": "rhf"
			},
			{
				"type": "unocc",
				"energy": 0.06393,
				"method": "rhf"
			},
			{
				"type": "unocc",
				"energy": 0.08443,
				"method": "rhf"
			},
			{
				"type": "unocc",
				"energy": 0.09099,
				"method": "rhf"
			}
		],
		"cosmo_sigma_profile": { 
			"-0.025": 0.0,
			"-0.024": 0.0,
			"-0.023": 0.0,
			"-0.022": 0.0,
			"-0.021": 0.0,
			"-0.02": 0.0,
			"-0.019": 0.0,
			"-0.018": 0.0,
			"-0.017": 0.0,
			"-0.016": 0.0,
			"-0.015": 0.0,
			"-0.014": 0.111183771644,
			"-0.013": 0.959194648961,
			"-0.012": 1.71621575015,
			"-0.011": 2.56385040288,
			"-0.01": 1.82150477781,
			"-0.009": 2.4213133824,
			"-0.008": 2.30757759746,
			"-0.007": 2.3693178057,
			"-0.006": 2.96039657428,
			"-0.005": 8.4065948966,
			"-0.004": 22.748329474,
			"-0.003": 36.7796046401,
			"-0.002": 41.8135502644,
			"-0.001": 39.7911140897,
			"0.0": 40.3896949095,
			"0.001": 30.6989583457,
			"0.002": 13.9767452073,
			"0.003": 12.6980597278,
			"0.004": 10.6698954961,
			"0.005": 11.2840344662,
			"0.006": 12.6357918231,
			"0.007": 11.6652810609,
			"0.008": 4.39476228058,
			"0.009": 2.13225561628,
			"0.01": 1.73270720218,
			"0.011": 2.41116415291,
			"0.012": 1.75210138095,
			"0.013": 2.62744325768,
			"0.014": 1.00259938572,
			"0.015": 0.0,
			"0.016": 0.0,
			"0.017": 0.0,
			"0.018": 0.0,
			"0.019": 0.0,
			"0.02": 0.0,
			"0.021": 0.0,
			"0.022": 0.0,
			"0.023": 0.0,
			"0.024": 0.0,
			"0.025": 0.0
		}
	}
}
