{
	 "smiles": "ClC1=CC(Cl)=C(Cl)C=C1Cl", 
	 "Tm": 413.15, 
	 "num_atms": 12, 
	 "gaussian": { 
		 "optdone": 1, 
		 "sigma_profile": "yes", 
		 "theory": "DFT", 
		 "functional": "B3LYP", 
		 "basiset": "6-31G**", 
		 "properties": { 
			 "R2extent": 3461.2823, 
			 "electric_dipole_moment_norm": 0.0001, 
			 "electric_quadrupole_moment_norm": 4.77524768468, 
			 "total_energy": -2070.60280639, 
			 "HOMO_LUMO_gap": 0.21004, 
			 "cosmo_polarized_energy": -3.54, 
			 "cosmo_cavitation_energy": 23.76, 
			 "cosmo_dispersion_energy": -18.2, 
			 "cosmo_repulsion_energy": 1.48, 
			 "cosmo_total_nonelectrostatic_energy": 7.04, 
			 "SMD_solvation_energy": 3.04 
		},
		"coords": [
			{
				"x": 0.7969555565,
				"y": 2.2719063466,
				"z": -2.3123527222,
				"element": "Cl" 
			},
			{
				"x": 0.3539185583,
				"y": 1.6318635239,
				"z": -0.7545666092,
				"element": "C" 
			},
			{
				"x": -0.8818624391,
				"y": 1.9843589137,
				"z": -0.2137554463,
				"element": "C" 
			},
			{
				"x": -1.2801952711,
				"y": 1.4968777896,
				"z": 1.0302717171,
				"element": "C" 
			},
			{
				"x": -2.8349649132,
				"y": 1.9719252538,
				"z": 1.6545224994,
				"element": "Cl" 
			},
			{
				"x": -0.4284908075,
				"y": 0.6426059864,
				"z": 1.7454690825,
				"element": "C" 
			},
			{
				"x": -0.8715165798,
				"y": 0.0025585895,
				"z": 3.3032543831,
				"element": "Cl" 
			},
			{
				"x": 0.807297629,
				"y": 0.2901083,
				"z": 1.204650595,
				"element": "C" 
			},
			{
				"x": 1.2056373184,
				"y": 0.7775793018,
				"z": -0.0393715631,
				"element": "C" 
			},
			{
				"x": 2.7603899581,
				"y": 0.3025487752,
				"z": -0.6636244017,
				"element": "Cl" 
			},
			{
				"x": -1.5395668271,
				"y": 2.6440573471,
				"z": -0.7660325001,
				"element": "H" 
			},
			{
				"x": 1.4649978175,
				"y": -0.3695901276,
				"z": 1.7569349655,
				"element": "H" 
			}
		],
		 "valence_orbital": [ 
			{
				"type": "occ",
				"energy": -0.32771,
				"method": "rhf"
			},
			{
				"type": "occ",
				"energy": -0.32333,
				"method": "rhf"
			},
			{
				"type": "occ",
				"energy": -0.32257,
				"method": "rhf"
			},
			{
				"type": "occ",
				"energy": -0.2763,
				"method": "rhf"
			},
			{
				"type": "occ",
				"energy": -0.25767,
				"method": "rhf"
			},
			{
				"type": "unocc",
				"energy": -0.04763,
				"method": "rhf"
			},
			{
				"type": "unocc",
				"energy": -0.04585,
				"method": "rhf"
			},
			{
				"type": "unocc",
				"energy": -0.029,
				"method": "rhf"
			},
			{
				"type": "unocc",
				"energy": 0.01157,
				"method": "rhf"
			},
			{
				"type": "unocc",
				"energy": 0.03217,
				"method": "rhf"
			}
		],
		"cosmo_sigma_profile": { 
			"-0.025": 0.0,
			"-0.024": 0.0,
			"-0.023": 0.0,
			"-0.022": 0.0,
			"-0.021": 0.0,
			"-0.02": 0.0,
			"-0.019": 0.0,
			"-0.018": 0.0,
			"-0.017": 0.0,
			"-0.016": 0.0,
			"-0.015": 0.0,
			"-0.014": 0.0,
			"-0.013": 0.0,
			"-0.012": 0.0,
			"-0.011": 0.0,
			"-0.01": 0.451638129528,
			"-0.009": 2.80930765782,
			"-0.008": 3.1766345877,
			"-0.007": 3.04947204244,
			"-0.006": 3.31651184302,
			"-0.005": 3.73718032081,
			"-0.004": 5.96624153678,
			"-0.003": 10.0191563943,
			"-0.002": 18.4319287948,
			"-0.001": 34.7670006337,
			"0.0": 23.0406441124,
			"0.001": 17.3985337009,
			"0.002": 22.7586483794,
			"0.003": 32.8169553055,
			"0.004": 17.5509606852,
			"0.005": 1.66688356162,
			"0.006": 0.0,
			"0.007": 0.0,
			"0.008": 0.0,
			"0.009": 0.0,
			"0.01": 0.0,
			"0.011": 0.0,
			"0.012": 0.0,
			"0.013": 0.0,
			"0.014": 0.0,
			"0.015": 0.0,
			"0.016": 0.0,
			"0.017": 0.0,
			"0.018": 0.0,
			"0.019": 0.0,
			"0.02": 0.0,
			"0.021": 0.0,
			"0.022": 0.0,
			"0.023": 0.0,
			"0.024": 0.0,
			"0.025": 0.0
		}
	}
}
