{
	 "smiles": "OCCN1CCCC1=O", 
	 "Tm": 293.15, 
	 "num_atms": 20, 
	 "gaussian": { 
		 "optdone": 1, 
		 "sigma_profile": "yes", 
		 "theory": "DFT", 
		 "functional": "B3LYP", 
		 "basiset": "6-31G**", 
		 "properties": { 
			 "R2extent": 1507.2341, 
			 "electric_dipole_moment_norm": 3.98585581525, 
			 "electric_quadrupole_moment_norm": 10.1449257158, 
			 "total_energy": -440.473321967, 
			 "HOMO_LUMO_gap": 0.2708, 
			 "cosmo_polarized_energy": -13.88, 
			 "cosmo_cavitation_energy": 22.6, 
			 "cosmo_dispersion_energy": -16.68, 
			 "cosmo_repulsion_energy": 1.41, 
			 "cosmo_total_nonelectrostatic_energy": 7.34, 
			 "SMD_solvation_energy": 4.01 
		},
		"coords": [
			{
				"x": 0.3684686708,
				"y": 2.377853276,
				"z": -1.8898132996,
				"element": "O" 
			},
			{
				"x": 0.6514840668,
				"y": 1.0897519467,
				"z": -1.3637393828,
				"element": "C" 
			},
			{
				"x": -0.2095317557,
				"y": 0.9249880069,
				"z": -0.1103464267,
				"element": "C" 
			},
			{
				"x": -0.1070163252,
				"y": -0.4040152048,
				"z": 0.462600604,
				"element": "N" 
			},
			{
				"x": -0.9492696429,
				"y": -1.5191282013,
				"z": 0.0448233412,
				"element": "C" 
			},
			{
				"x": -0.3332463493,
				"y": -2.7247348786,
				"z": 0.7877427687,
				"element": "C" 
			},
			{
				"x": 0.3256639666,
				"y": -2.0959669963,
				"z": 2.0256572114,
				"element": "C" 
			},
			{
				"x": 0.6098551107,
				"y": -0.6506587992,
				"z": 1.6109881167,
				"element": "C" 
			},
			{
				"x": 1.3157208875,
				"y": 0.1592060921,
				"z": 2.1913353056,
				"element": "O" 
			},
			{
				"x": 0.9876542022,
				"y": 2.5556091118,
				"z": -2.6076251419,
				"element": "H" 
			},
			{
				"x": 0.4132031588,
				"y": 0.294833964,
				"z": -2.0902886133,
				"element": "H" 
			},
			{
				"x": 1.709671958,
				"y": 0.9788296627,
				"z": -1.084811735,
				"element": "H" 
			},
			{
				"x": 0.1179552825,
				"y": 1.6404322799,
				"z": 0.6480818156,
				"element": "H" 
			},
			{
				"x": -1.2548681616,
				"y": 1.1409379476,
				"z": -0.3632224638,
				"element": "H" 
			},
			{
				"x": -1.9965850256,
				"y": -1.3475755726,
				"z": 0.3395057238,
				"element": "H" 
			},
			{
				"x": -0.931453171,
				"y": -1.6449266803,
				"z": -1.0432876225,
				"element": "H" 
			},
			{
				"x": 0.4282464875,
				"y": -3.192719372,
				"z": 0.1558046202,
				"element": "H" 
			},
			{
				"x": -1.0807878618,
				"y": -3.4849606594,
				"z": 1.0261431713,
				"element": "H" 
			},
			{
				"x": -0.3523625701,
				"y": -2.0691650116,
				"z": 2.8876932932,
				"element": "H" 
			},
			{
				"x": 1.2438970721,
				"y": -2.5899909117,
				"z": 2.3500587138,
				"element": "H" 
			}
		],
		 "valence_orbital": [ 
			{
				"type": "occ",
				"energy": -0.33727,
				"method": "rhf"
			},
			{
				"type": "occ",
				"energy": -0.32983,
				"method": "rhf"
			},
			{
				"type": "occ",
				"energy": -0.27032,
				"method": "rhf"
			},
			{
				"type": "occ",
				"energy": -0.2406,
				"method": "rhf"
			},
			{
				"type": "occ",
				"energy": -0.23636,
				"method": "rhf"
			},
			{
				"type": "unocc",
				"energy": 0.03444,
				"method": "rhf"
			},
			{
				"type": "unocc",
				"energy": 0.07253,
				"method": "rhf"
			},
			{
				"type": "unocc",
				"energy": 0.07774,
				"method": "rhf"
			},
			{
				"type": "unocc",
				"energy": 0.10677,
				"method": "rhf"
			},
			{
				"type": "unocc",
				"energy": 0.11309,
				"method": "rhf"
			}
		],
		"cosmo_sigma_profile": { 
			"-0.025": 0.0,
			"-0.024": 0.0,
			"-0.023": 0.0,
			"-0.022": 0.0,
			"-0.021": 0.0,
			"-0.02": 0.0,
			"-0.019": 0.0,
			"-0.018": 0.0,
			"-0.017": 0.0,
			"-0.016": 0.821475205858,
			"-0.015": 0.936547433749,
			"-0.014": 0.845853703069,
			"-0.013": 0.817453345828,
			"-0.012": 1.18960113985,
			"-0.011": 0.793182103725,
			"-0.01": 0.676215472934,
			"-0.009": 0.521972275659,
			"-0.008": 0.748622613429,
			"-0.007": 1.18463537013,
			"-0.006": 1.88507363397,
			"-0.005": 10.690232762,
			"-0.004": 26.9651424113,
			"-0.003": 28.1722259924,
			"-0.002": 22.2556906337,
			"-0.001": 15.8753488561,
			"0.0": 11.4155533611,
			"0.001": 5.89715327939,
			"0.002": 2.59938274312,
			"0.003": 2.55073274589,
			"0.004": 2.65858931894,
			"0.005": 2.86578220125,
			"0.006": 3.20509000557,
			"0.007": 2.02342265154,
			"0.008": 2.82570404397,
			"0.009": 3.02886874171,
			"0.01": 1.92782656998,
			"0.011": 2.15763717213,
			"0.012": 3.81344828414,
			"0.013": 4.35380410065,
			"0.014": 7.55757915986,
			"0.015": 2.30210275758,
			"0.016": 0.149032594436,
			"0.017": 0.0,
			"0.018": 0.0,
			"0.019": 0.0,
			"0.02": 0.0,
			"0.021": 0.0,
			"0.022": 0.0,
			"0.023": 0.0,
			"0.024": 0.0,
			"0.025": 0.0
		}
	}
}
