{
	 "smiles": "CCOC(=O)C1=C(N)C=NC=C1", 
	 "Tm": 447.15, 
	 "num_atms": 22, 
	 "gaussian": { 
		 "optdone": 1, 
		 "sigma_profile": "yes", 
		 "theory": "DFT", 
		 "functional": "B3LYP", 
		 "basiset": "6-31G**", 
		 "properties": { 
			 "R2extent": 2415.2251, 
			 "electric_dipole_moment_norm": 2.43671313248, 
			 "electric_quadrupole_moment_norm": 12.0135614661, 
			 "total_energy": -570.849067747, 
			 "HOMO_LUMO_gap": 0.15778, 
			 "cosmo_polarized_energy": -10.09, 
			 "cosmo_cavitation_energy": 25.79, 
			 "cosmo_dispersion_energy": -19.27, 
			 "cosmo_repulsion_energy": 1.55, 
			 "cosmo_total_nonelectrostatic_energy": 8.07, 
			 "SMD_solvation_energy": 4.06 
		},
		"coords": [
			{
				"x": -3.8554423902,
				"y": -1.565702691,
				"z": -0.203112657,
				"element": "C" 
			},
			{
				"x": -3.1958420835,
				"y": -0.361407002,
				"z": -0.8581295018,
				"element": "C" 
			},
			{
				"x": -1.7534648378,
				"y": -0.484351666,
				"z": -0.8577086858,
				"element": "O" 
			},
			{
				"x": -1.1060858901,
				"y": -0.0702656256,
				"z": 0.251542509,
				"element": "C" 
			},
			{
				"x": -1.6935437525,
				"y": 0.3991421864,
				"z": 1.2214450038,
				"element": "O" 
			},
			{
				"x": 0.3583939191,
				"y": -0.246646482,
				"z": 0.1610207755,
				"element": "C" 
			},
			{
				"x": 1.1989208259,
				"y": 0.1618108882,
				"z": 1.2303878125,
				"element": "C" 
			},
			{
				"x": 0.735455298,
				"y": 0.7732651368,
				"z": 2.3548356258,
				"element": "N" 
			},
			{
				"x": 2.5909576131,
				"y": -0.0753591211,
				"z": 1.0690421918,
				"element": "C" 
			},
			{
				"x": 3.1419774747,
				"y": -0.6331160867,
				"z": 0.0049843657,
				"element": "N" 
			},
			{
				"x": 2.3340703741,
				"y": -1.00729607,
				"z": -1.007343326,
				"element": "C" 
			},
			{
				"x": 0.9607188777,
				"y": -0.8341985034,
				"z": -0.965219869,
				"element": "C" 
			},
			{
				"x": -4.9440786364,
				"y": -1.4837789903,
				"z": -0.2893568234,
				"element": "H" 
			},
			{
				"x": -3.5985632191,
				"y": -1.6155664733,
				"z": 0.8576953766,
				"element": "H" 
			},
			{
				"x": -3.541417903,
				"y": -2.4943561094,
				"z": -0.6885408022,
				"element": "H" 
			},
			{
				"x": -3.471157671,
				"y": 0.5653399469,
				"z": -0.3497680926,
				"element": "H" 
			},
			{
				"x": -3.4579868836,
				"y": -0.2874404925,
				"z": -1.9161580139,
				"element": "H" 
			},
			{
				"x": -0.2662390337,
				"y": 0.8263197764,
				"z": 2.4841277879,
				"element": "H" 
			},
			{
				"x": 1.3549254999,
				"y": 0.8983113122,
				"z": 3.1383038572,
				"element": "H" 
			},
			{
				"x": 3.2647436201,
				"y": 0.2211034267,
				"z": 1.8744713541,
				"element": "H" 
			},
			{
				"x": 2.8154678375,
				"y": -1.4598544646,
				"z": -1.8701385966,
				"element": "H" 
			},
			{
				"x": 0.3378909606,
				"y": -1.1521528958,
				"z": -1.7926802916,
				"element": "H" 
			}
		],
		 "valence_orbital": [ 
			{
				"type": "occ",
				"energy": -0.30417,
				"method": "rhf"
			},
			{
				"type": "occ",
				"energy": -0.28572,
				"method": "rhf"
			},
			{
				"type": "occ",
				"energy": -0.2779,
				"method": "rhf"
			},
			{
				"type": "occ",
				"energy": -0.25025,
				"method": "rhf"
			},
			{
				"type": "occ",
				"energy": -0.21096,
				"method": "rhf"
			},
			{
				"type": "unocc",
				"energy": -0.05318,
				"method": "rhf"
			},
			{
				"type": "unocc",
				"energy": 0.00774,
				"method": "rhf"
			},
			{
				"type": "unocc",
				"energy": 0.05113,
				"method": "rhf"
			},
			{
				"type": "unocc",
				"energy": 0.09043,
				"method": "rhf"
			},
			{
				"type": "unocc",
				"energy": 0.10486,
				"method": "rhf"
			}
		],
		"cosmo_sigma_profile": { 
			"-0.025": 0.0,
			"-0.024": 0.0,
			"-0.023": 0.0,
			"-0.022": 0.0,
			"-0.021": 0.0,
			"-0.02": 0.0,
			"-0.019": 0.0,
			"-0.018": 0.0,
			"-0.017": 0.0,
			"-0.016": 0.0,
			"-0.015": 0.0,
			"-0.014": 0.763633677114,
			"-0.013": 1.53718357771,
			"-0.012": 1.44906751743,
			"-0.011": 1.64616933,
			"-0.01": 1.6590078977,
			"-0.009": 1.84580055926,
			"-0.008": 2.5628380653,
			"-0.007": 2.81034948012,
			"-0.006": 6.6132451339,
			"-0.005": 10.2588412859,
			"-0.004": 15.9016097134,
			"-0.003": 16.5983906373,
			"-0.002": 17.3593202433,
			"-0.001": 17.1825343731,
			"0.0": 17.9431312698,
			"0.001": 18.5989982446,
			"0.002": 15.217634769,
			"0.003": 14.0042452402,
			"0.004": 9.11467708823,
			"0.005": 7.30481482489,
			"0.006": 4.34698342261,
			"0.007": 3.17365273105,
			"0.008": 3.8008083286,
			"0.009": 2.88724241192,
			"0.01": 2.63483987262,
			"0.011": 2.48721192247,
			"0.012": 1.4687016584,
			"0.013": 1.07490909975,
			"0.014": 0.804780601172,
			"0.015": 0.770143001384,
			"0.016": 1.02193207055,
			"0.017": 0.0999931272468,
			"0.018": 0.0,
			"0.019": 0.0,
			"0.02": 0.0,
			"0.021": 0.0,
			"0.022": 0.0,
			"0.023": 0.0,
			"0.024": 0.0,
			"0.025": 0.0
		}
	}
}
