{
	 "smiles": "CCCCCCCCCCCCCCOCCOCCOCCOCCOCCOCCO", 
	 "Tm": 305.65, 
	 "num_atms": 87, 
	 "gaussian": { 
		 "optdone": 1, 
		 "sigma_profile": "yes", 
		 "theory": "DFT", 
		 "functional": "B3LYP", 
		 "basiset": "6-31G**", 
		 "properties": { 
			 "R2extent": 22049.2212, 
			 "electric_dipole_moment_norm": 5.13282749856, 
			 "electric_quadrupole_moment_norm": 15.7054574585, 
			 "total_energy": -1549.82016142, 
			 "HOMO_LUMO_gap": 0.2858, 
			 "cosmo_polarized_energy": -18.14, 
			 "cosmo_cavitation_energy": 83.48, 
			 "cosmo_dispersion_energy": -47.02, 
			 "cosmo_repulsion_energy": 3.67, 
			 "cosmo_total_nonelectrostatic_energy": 40.13, 
			 "SMD_solvation_energy": 11.55 
		},
		"coords": [
			{
				"x": 5.1592297754,
				"y": -5.5303303711,
				"z": 1.4041279193,
				"element": "C" 
			},
			{
				"x": 4.4961363167,
				"y": -4.2606442438,
				"z": 0.8606327905,
				"element": "C" 
			},
			{
				"x": 4.6991839445,
				"y": -3.0361752603,
				"z": 1.7620569107,
				"element": "C" 
			},
			{
				"x": 4.0422336788,
				"y": -1.7579790296,
				"z": 1.2242496729,
				"element": "C" 
			},
			{
				"x": 4.2459997086,
				"y": -0.5448344833,
				"z": 2.1421824252,
				"element": "C" 
			},
			{
				"x": 3.713224251,
				"y": 0.8002235943,
				"z": 1.6158027688,
				"element": "C" 
			},
			{
				"x": 2.1795521911,
				"y": 0.8902495769,
				"z": 1.4375841483,
				"element": "C" 
			},
			{
				"x": 1.6365554296,
				"y": 0.5521392865,
				"z": 0.0353266832,
				"element": "C" 
			},
			{
				"x": 1.9603773241,
				"y": 1.6041336665,
				"z": -1.0365358677,
				"element": "C" 
			},
			{
				"x": 1.4052424055,
				"y": 1.2416292747,
				"z": -2.4215266447,
				"element": "C" 
			},
			{
				"x": 1.783149071,
				"y": 2.2228106534,
				"z": -3.5456413977,
				"element": "C" 
			},
			{
				"x": 1.32818151,
				"y": 3.6895597944,
				"z": -3.4092312833,
				"element": "C" 
			},
			{
				"x": -0.189637009,
				"y": 3.9598878031,
				"z": -3.4880089773,
				"element": "C" 
			},
			{
				"x": -0.9348610342,
				"y": 3.8350115671,
				"z": -2.1518023874,
				"element": "C" 
			},
			{
				"x": -2.2605645533,
				"y": 4.3491437313,
				"z": -2.1964438893,
				"element": "O" 
			},
			{
				"x": -3.2266736506,
				"y": 3.5659646038,
				"z": -2.8758960049,
				"element": "C" 
			},
			{
				"x": -3.5666204802,
				"y": 2.2385555903,
				"z": -2.2094719162,
				"element": "C" 
			},
			{
				"x": -4.1108499015,
				"y": 2.4808469675,
				"z": -0.9254734763,
				"element": "O" 
			},
			{
				"x": -4.2347392806,
				"y": 1.3024355734,
				"z": -0.1542506432,
				"element": "C" 
			},
			{
				"x": -4.7945220202,
				"y": 1.6818942281,
				"z": 1.2149973358,
				"element": "C" 
			},
			{
				"x": -4.8183133748,
				"y": 0.5488156201,
				"z": 2.0740668694,
				"element": "O" 
			},
			{
				"x": -3.6280691646,
				"y": 0.3745708335,
				"z": 2.8244462537,
				"element": "C" 
			},
			{
				"x": -3.6535918317,
				"y": -1.0267034168,
				"z": 3.4162865869,
				"element": "C" 
			},
			{
				"x": -2.5338331427,
				"y": -1.1272696589,
				"z": 4.2825904425,
				"element": "O" 
			},
			{
				"x": -2.2125847564,
				"y": -2.4371461318,
				"z": 4.7160707835,
				"element": "C" 
			},
			{
				"x": -0.9811559716,
				"y": -2.9833264777,
				"z": 4.0114981931,
				"element": "C" 
			},
			{
				"x": -1.291508366,
				"y": -3.3329274891,
				"z": 2.6714173251,
				"element": "O" 
			},
			{
				"x": -0.1496883007,
				"y": -3.7706170561,
				"z": 1.9548589326,
				"element": "C" 
			},
			{
				"x": -0.5356632197,
				"y": -4.2761771285,
				"z": 0.5719046217,
				"element": "C" 
			},
			{
				"x": -0.858400835,
				"y": -3.2622073329,
				"z": -0.3639653341,
				"element": "O" 
			},
			{
				"x": -2.1992883036,
				"y": -2.780998677,
				"z": -0.3110576448,
				"element": "C" 
			},
			{
				"x": -2.3482426815,
				"y": -1.8013888464,
				"z": -1.4612735116,
				"element": "C" 
			},
			{
				"x": -1.4724235866,
				"y": -0.6900121595,
				"z": -1.3161761793,
				"element": "O" 
			},
			{
				"x": 6.2415438454,
				"y": -5.3959738546,
				"z": 1.512159827,
				"element": "H" 
			},
			{
				"x": 4.9958462685,
				"y": -6.3851625257,
				"z": 0.7395718428,
				"element": "H" 
			},
			{
				"x": 4.7613170933,
				"y": -5.7948072813,
				"z": 2.3907086244,
				"element": "H" 
			},
			{
				"x": 3.4194122643,
				"y": -4.4378216576,
				"z": 0.7279919735,
				"element": "H" 
			},
			{
				"x": 4.8899929555,
				"y": -4.0415935345,
				"z": -0.1411228429,
				"element": "H" 
			},
			{
				"x": 5.7763395935,
				"y": -2.8613755316,
				"z": 1.8963490913,
				"element": "H" 
			},
			{
				"x": 4.3032387045,
				"y": -3.2548706183,
				"z": 2.7645701571,
				"element": "H" 
			},
			{
				"x": 2.9689839226,
				"y": -1.9422954688,
				"z": 1.0810872305,
				"element": "H" 
			},
			{
				"x": 4.4477554154,
				"y": -1.5339745648,
				"z": 0.2270180338,
				"element": "H" 
			},
			{
				"x": 5.3215509743,
				"y": -0.4354292506,
				"z": 2.339837953,
				"element": "H" 
			},
			{
				"x": 3.7823384138,
				"y": -0.7530717986,
				"z": 3.1175342169,
				"element": "H" 
			},
			{
				"x": 4.0307226263,
				"y": 1.5763445164,
				"z": 2.3231052942,
				"element": "H" 
			},
			{
				"x": 4.21559522,
				"y": 1.0426475151,
				"z": 0.6697328984,
				"element": "H" 
			},
			{
				"x": 1.8492763279,
				"y": 1.907420662,
				"z": 1.6860052801,
				"element": "H" 
			},
			{
				"x": 1.6976037906,
				"y": 0.2372307057,
				"z": 2.1781440379,
				"element": "H" 
			},
			{
				"x": 0.544972918,
				"y": 0.449610001,
				"z": 0.102428189,
				"element": "H" 
			},
			{
				"x": 2.0193652325,
				"y": -0.4240303566,
				"z": -0.2914837165,
				"element": "H" 
			},
			{
				"x": 1.5567803104,
				"y": 2.5716739778,
				"z": -0.7101052684,
				"element": "H" 
			},
			{
				"x": 3.0480506518,
				"y": 1.7406949493,
				"z": -1.1136505333,
				"element": "H" 
			},
			{
				"x": 1.7903486656,
				"y": 0.2505646041,
				"z": -2.7020929301,
				"element": "H" 
			},
			{
				"x": 0.3160070007,
				"y": 1.1241809785,
				"z": -2.3626397045,
				"element": "H" 
			},
			{
				"x": 2.8777016616,
				"y": 2.221471764,
				"z": -3.6458935599,
				"element": "H" 
			},
			{
				"x": 1.396134509,
				"y": 1.8294175661,
				"z": -4.4958048389,
				"element": "H" 
			},
			{
				"x": 1.809512013,
				"y": 4.2466578687,
				"z": -4.2224844111,
				"element": "H" 
			},
			{
				"x": 1.7286601399,
				"y": 4.1248463364,
				"z": -2.4835132631,
				"element": "H" 
			},
			{
				"x": -0.636918359,
				"y": 3.2981337308,
				"z": -4.2416765565,
				"element": "H" 
			},
			{
				"x": -0.3543508398,
				"y": 4.9851071227,
				"z": -3.8412509961,
				"element": "H" 
			},
			{
				"x": -0.9248954963,
				"y": 2.8012943962,
				"z": -1.7829578772,
				"element": "H" 
			},
			{
				"x": -0.424940532,
				"y": 4.4478430937,
				"z": -1.3994972827,
				"element": "H" 
			},
			{
				"x": -4.1272528389,
				"y": 4.1876991554,
				"z": -2.905447572,
				"element": "H" 
			},
			{
				"x": -2.9292498,
				"y": 3.3592352877,
				"z": -3.916626163,
				"element": "H" 
			},
			{
				"x": -4.2947809403,
				"y": 1.7093565674,
				"z": -2.8512077235,
				"element": "H" 
			},
			{
				"x": -2.6817238503,
				"y": 1.5894821538,
				"z": -2.1328927962,
				"element": "H" 
			},
			{
				"x": -4.9153918634,
				"y": 0.5790565263,
				"z": -0.6361194095,
				"element": "H" 
			},
			{
				"x": -3.2566697638,
				"y": 0.8094180711,
				"z": -0.0435675357,
				"element": "H" 
			},
			{
				"x": -5.8252309459,
				"y": 2.0369659939,
				"z": 1.1158454257,
				"element": "H" 
			},
			{
				"x": -4.1982580928,
				"y": 2.5002128277,
				"z": 1.6421736165,
				"element": "H" 
			},
			{
				"x": -2.7294465793,
				"y": 0.485680827,
				"z": 2.2005913316,
				"element": "H" 
			},
			{
				"x": -3.5628388512,
				"y": 1.1162301834,
				"z": 3.6358867163,
				"element": "H" 
			},
			{
				"x": -3.6077073072,
				"y": -1.7717670363,
				"z": 2.6115957327,
				"element": "H" 
			},
			{
				"x": -4.5958858719,
				"y": -1.1779918606,
				"z": 3.9659378409,
				"element": "H" 
			},
			{
				"x": -1.9947548745,
				"y": -2.3889305034,
				"z": 5.7913913355,
				"element": "H" 
			},
			{
				"x": -3.0563146625,
				"y": -3.1267366844,
				"z": 4.576638194,
				"element": "H" 
			},
			{
				"x": -0.6112347291,
				"y": -3.8693083179,
				"z": 4.5574999286,
				"element": "H" 
			},
			{
				"x": -0.1886313006,
				"y": -2.2188291926,
				"z": 4.0385201572,
				"element": "H" 
			},
			{
				"x": 0.5837163332,
				"y": -2.9536979252,
				"z": 1.8548974456,
				"element": "H" 
			},
			{
				"x": 0.3454497496,
				"y": -4.5957501929,
				"z": 2.4973068216,
				"element": "H" 
			},
			{
				"x": -1.3624304053,
				"y": -4.996606914,
				"z": 0.6652363977,
				"element": "H" 
			},
			{
				"x": 0.3293903211,
				"y": -4.80542242,
				"z": 0.1552696333,
				"element": "H" 
			},
			{
				"x": -2.3951658697,
				"y": -2.2835011036,
				"z": 0.6458597806,
				"element": "H" 
			},
			{
				"x": -2.9125483702,
				"y": -3.6138743714,
				"z": -0.4226325896,
				"element": "H" 
			},
			{
				"x": -3.3672837656,
				"y": -1.403836555,
				"z": -1.4798191649,
				"element": "H" 
			},
			{
				"x": -2.1655578818,
				"y": -2.3263598562,
				"z": -2.4113121841,
				"element": "H" 
			},
			{
				"x": -0.5912772727,
				"y": -1.0578926077,
				"z": -1.1570415932,
				"element": "H" 
			}
		],
		 "valence_orbital": [ 
			{
				"type": "occ",
				"energy": -0.26195,
				"method": "rhf"
			},
			{
				"type": "occ",
				"energy": -0.25246,
				"method": "rhf"
			},
			{
				"type": "occ",
				"energy": -0.24697,
				"method": "rhf"
			},
			{
				"type": "occ",
				"energy": -0.24291,
				"method": "rhf"
			},
			{
				"type": "occ",
				"energy": -0.23647,
				"method": "rhf"
			},
			{
				"type": "unocc",
				"energy": 0.04933,
				"method": "rhf"
			},
			{
				"type": "unocc",
				"energy": 0.0632,
				"method": "rhf"
			},
			{
				"type": "unocc",
				"energy": 0.07837,
				"method": "rhf"
			},
			{
				"type": "unocc",
				"energy": 0.07976,
				"method": "rhf"
			},
			{
				"type": "unocc",
				"energy": 0.08553,
				"method": "rhf"
			}
		],
		"cosmo_sigma_profile": { 
			"-0.025": 0.0,
			"-0.024": 0.0,
			"-0.023": 0.0,
			"-0.022": 0.0,
			"-0.021": 0.0,
			"-0.02": 0.0,
			"-0.019": 0.0,
			"-0.018": 0.0,
			"-0.017": 0.0,
			"-0.016": 0.0,
			"-0.015": 0.0,
			"-0.014": 0.0,
			"-0.013": 0.0,
			"-0.012": 0.0,
			"-0.011": 0.0,
			"-0.01": 0.0,
			"-0.009": 0.0,
			"-0.008": 0.0,
			"-0.007": 0.798557972695,
			"-0.006": 1.23230888598,
			"-0.005": 13.5472256827,
			"-0.004": 59.2665945785,
			"-0.003": 75.1749028249,
			"-0.002": 88.6614972958,
			"-0.001": 101.916626967,
			"0.0": 95.1770823094,
			"0.001": 71.3488969164,
			"0.002": 37.4614426315,
			"0.003": 15.2690186778,
			"0.004": 12.7474984714,
			"0.005": 11.7234608636,
			"0.006": 10.25054464,
			"0.007": 9.39580886675,
			"0.008": 7.72507933332,
			"0.009": 6.70298968894,
			"0.01": 5.26898045725,
			"0.011": 5.65711822298,
			"0.012": 5.02892806245,
			"0.013": 3.11860138047,
			"0.014": 2.8598291176,
			"0.015": 0.706834608305,
			"0.016": 0.0,
			"0.017": 0.0,
			"0.018": 0.0,
			"0.019": 0.0,
			"0.02": 0.0,
			"0.021": 0.0,
			"0.022": 0.0,
			"0.023": 0.0,
			"0.024": 0.0,
			"0.025": 0.0
		}
	}
}
