{
	 "smiles": "CN(C)CC1=CC=C(C=C1)C(N)=N", 
	 "Tm": 398.15, 
	 "num_atms": 28, 
	 "gaussian": { 
		 "optdone": 1, 
		 "sigma_profile": "yes", 
		 "theory": "DFT", 
		 "functional": "B3LYP", 
		 "basiset": "6-31G**", 
		 "properties": { 
			 "R2extent": 4028.4689, 
			 "electric_dipole_moment_norm": 2.99849845756, 
			 "electric_quadrupole_moment_norm": 18.1213558505, 
			 "total_energy": -554.350216575, 
			 "HOMO_LUMO_gap": 0.1895, 
			 "cosmo_polarized_energy": -14.2, 
			 "cosmo_cavitation_energy": 30.62, 
			 "cosmo_dispersion_energy": -21.98, 
			 "cosmo_repulsion_energy": 1.76, 
			 "cosmo_total_nonelectrostatic_energy": 10.4, 
			 "SMD_solvation_energy": 3.25 
		},
		"coords": [
			{
				"x": -0.3153263566,
				"y": 2.030439235,
				"z": -1.1313352078,
				"element": "C" 
			},
			{
				"x": -0.4965555379,
				"y": 0.9405606195,
				"z": -2.0836841285,
				"element": "N" 
			},
			{
				"x": -0.9231725265,
				"y": 1.4398863039,
				"z": -3.3835928518,
				"element": "C" 
			},
			{
				"x": -1.4024158372,
				"y": -0.0887509066,
				"z": -1.576885128,
				"element": "C" 
			},
			{
				"x": -0.8298952511,
				"y": -0.8729835169,
				"z": -0.4111574086,
				"element": "C" 
			},
			{
				"x": -1.6271905773,
				"y": -1.2139971443,
				"z": 0.6849872413,
				"element": "C" 
			},
			{
				"x": -1.1171425086,
				"y": -1.9853267643,
				"z": 1.7306624585,
				"element": "C" 
			},
			{
				"x": 0.2118746396,
				"y": -2.4283962448,
				"z": 1.7052300253,
				"element": "C" 
			},
			{
				"x": 1.0195007016,
				"y": -2.0686069215,
				"z": 0.6148108511,
				"element": "C" 
			},
			{
				"x": 0.5044505524,
				"y": -1.3078182058,
				"z": -0.4281606469,
				"element": "C" 
			},
			{
				"x": 0.7977422638,
				"y": -3.2536381957,
				"z": 2.8041465571,
				"element": "C" 
			},
			{
				"x": -0.1322618741,
				"y": -3.9025605851,
				"z": 3.6155664147,
				"element": "N" 
			},
			{
				"x": 2.0728050623,
				"y": -3.2762272624,
				"z": 2.9561657806,
				"element": "N" 
			},
			{
				"x": -1.2498179703,
				"y": 2.5924400755,
				"z": -0.9371840169,
				"element": "H" 
			},
			{
				"x": 0.4292960167,
				"y": 2.7344143145,
				"z": -1.5160788285,
				"element": "H" 
			},
			{
				"x": 0.0486850985,
				"y": 1.637009662,
				"z": -0.1790264431,
				"element": "H" 
			},
			{
				"x": -0.1878313564,
				"y": 2.1581733793,
				"z": -3.7601252532,
				"element": "H" 
			},
			{
				"x": -0.9865341877,
				"y": 0.6132645669,
				"z": -4.0987878685,
				"element": "H" 
			},
			{
				"x": -1.9078253401,
				"y": 1.9466177453,
				"z": -3.3588444945,
				"element": "H" 
			},
			{
				"x": -2.3878906977,
				"y": 0.328930158,
				"z": -1.2877617414,
				"element": "H" 
			},
			{
				"x": -1.5975946843,
				"y": -0.7841844912,
				"z": -2.4046537907,
				"element": "H" 
			},
			{
				"x": -2.6565326961,
				"y": -0.8659924527,
				"z": 0.7286481819,
				"element": "H" 
			},
			{
				"x": -1.7478568047,
				"y": -2.2040059272,
				"z": 2.5870713859,
				"element": "H" 
			},
			{
				"x": 2.0518817831,
				"y": -2.4006213207,
				"z": 0.6100257012,
				"element": "H" 
			},
			{
				"x": 1.1333461744,
				"y": -1.0271806845,
				"z": -1.2674889243,
				"element": "H" 
			},
			{
				"x": 0.2520261196,
				"y": -4.5951481856,
				"z": 4.2441510386,
				"element": "H" 
			},
			{
				"x": -0.9833316378,
				"y": -4.2080161838,
				"z": 3.1634739904,
				"element": "H" 
			},
			{
				"x": 2.3431674326,
				"y": -3.8997810672,
				"z": 3.7218271061,
				"element": "H" 
			}
		],
		 "valence_orbital": [ 
			{
				"type": "occ",
				"energy": -0.25944,
				"method": "rhf"
			},
			{
				"type": "occ",
				"energy": -0.25039,
				"method": "rhf"
			},
			{
				"type": "occ",
				"energy": -0.24535,
				"method": "rhf"
			},
			{
				"type": "occ",
				"energy": -0.22691,
				"method": "rhf"
			},
			{
				"type": "occ",
				"energy": -0.21296,
				"method": "rhf"
			},
			{
				"type": "unocc",
				"energy": -0.02346,
				"method": "rhf"
			},
			{
				"type": "unocc",
				"energy": 0.00174,
				"method": "rhf"
			},
			{
				"type": "unocc",
				"energy": 0.06076,
				"method": "rhf"
			},
			{
				"type": "unocc",
				"energy": 0.08037,
				"method": "rhf"
			},
			{
				"type": "unocc",
				"energy": 0.09201,
				"method": "rhf"
			}
		],
		"cosmo_sigma_profile": { 
			"-0.025": 0.0,
			"-0.024": 0.0,
			"-0.023": 0.0,
			"-0.022": 0.0,
			"-0.021": 0.0,
			"-0.02": 0.0,
			"-0.019": 0.0,
			"-0.018": 0.0,
			"-0.017": 0.0,
			"-0.016": 0.0,
			"-0.015": 0.0,
			"-0.014": 0.0675967735907,
			"-0.013": 2.40100390955,
			"-0.012": 3.26574923306,
			"-0.011": 2.91786350737,
			"-0.01": 4.0994547771,
			"-0.009": 2.76827511252,
			"-0.008": 3.31136234302,
			"-0.007": 3.00014633996,
			"-0.006": 3.90219259098,
			"-0.005": 7.60078621984,
			"-0.004": 16.7094997061,
			"-0.003": 18.3436103249,
			"-0.002": 25.0182043246,
			"-0.001": 29.0561139075,
			"0.0": 26.3768165053,
			"0.001": 13.2746322201,
			"0.002": 12.2779695002,
			"0.003": 11.758526164,
			"0.004": 11.7862788093,
			"0.005": 12.6940136718,
			"0.006": 4.81333502219,
			"0.007": 3.82054615755,
			"0.008": 3.56337675837,
			"0.009": 3.02054037889,
			"0.01": 2.75389736554,
			"0.011": 2.43110549802,
			"0.012": 2.8255309759,
			"0.013": 1.17176766031,
			"0.014": 1.54868100015,
			"0.015": 0.984391147133,
			"0.016": 0.886109538771,
			"0.017": 1.14666216716,
			"0.018": 0.442941357154,
			"0.019": 0.0511085548893,
			"0.02": 0.0,
			"0.021": 0.0,
			"0.022": 0.0,
			"0.023": 0.0,
			"0.024": 0.0,
			"0.025": 0.0
		}
	}
}
