{
	 "smiles": "OC(=O)CN1C(=O)CC2=C1C=CC=C2", 
	 "Tm": 494.15, 
	 "num_atms": 23, 
	 "gaussian": { 
		 "optdone": 1, 
		 "sigma_profile": "yes", 
		 "theory": "DFT", 
		 "functional": "B3LYP", 
		 "basiset": "6-31G**", 
		 "properties": { 
			 "R2extent": 3124.0198, 
			 "electric_dipole_moment_norm": 5.01789154426, 
			 "electric_quadrupole_moment_norm": 14.0232234418, 
			 "total_energy": -666.93822852, 
			 "HOMO_LUMO_gap": 0.20385, 
			 "cosmo_polarized_energy": -17.01, 
			 "cosmo_cavitation_energy": 27.33, 
			 "cosmo_dispersion_energy": -19.62, 
			 "cosmo_repulsion_energy": 1.55, 
			 "cosmo_total_nonelectrostatic_energy": 9.25, 
			 "SMD_solvation_energy": 6.51 
		},
		"coords": [
			{
				"x": -1.6884948383,
				"y": 1.5833502565,
				"z": -3.0351939563,
				"element": "O" 
			},
			{
				"x": -0.6258389363,
				"y": 0.9622386991,
				"z": -3.5877177873,
				"element": "C" 
			},
			{
				"x": -0.0526063734,
				"y": 1.4113491304,
				"z": -4.5473664574,
				"element": "O" 
			},
			{
				"x": -0.2219392626,
				"y": -0.3719225043,
				"z": -2.9458078235,
				"element": "C" 
			},
			{
				"x": -0.5657633252,
				"y": -0.4965819281,
				"z": -1.5438583719,
				"element": "N" 
			},
			{
				"x": -1.414657056,
				"y": -1.5050293391,
				"z": -1.0671933647,
				"element": "C" 
			},
			{
				"x": -2.0614493863,
				"y": -2.2521154482,
				"z": -1.7735940885,
				"element": "O" 
			},
			{
				"x": -1.3528773941,
				"y": -1.4556878027,
				"z": 0.4639631465,
				"element": "C" 
			},
			{
				"x": -0.3291051462,
				"y": -0.3858881744,
				"z": 0.7444566743,
				"element": "C" 
			},
			{
				"x": 0.1138032253,
				"y": 0.1409155645,
				"z": -0.4799029581,
				"element": "C" 
			},
			{
				"x": 1.0724511571,
				"y": 1.1449875296,
				"z": -0.552119503,
				"element": "C" 
			},
			{
				"x": 1.5947062758,
				"y": 1.625679994,
				"z": 0.656091435,
				"element": "C" 
			},
			{
				"x": 1.1649472418,
				"y": 1.116296118,
				"z": 1.8824252469,
				"element": "C" 
			},
			{
				"x": 0.1958075695,
				"y": 0.1035726604,
				"z": 1.9316048748,
				"element": "C" 
			},
			{
				"x": -1.987125072,
				"y": 1.0757157815,
				"z": -2.2636583354,
				"element": "H" 
			},
			{
				"x": 0.8518297341,
				"y": -0.5038377818,
				"z": -3.1065753105,
				"element": "H" 
			},
			{
				"x": -0.7529367111,
				"y": -1.1761016088,
				"z": -3.4676266055,
				"element": "H" 
			},
			{
				"x": -2.3499055646,
				"y": -1.2305413821,
				"z": 0.8607326687,
				"element": "H" 
			},
			{
				"x": -1.0778293823,
				"y": -2.4462464873,
				"z": 0.8428103875,
				"element": "H" 
			},
			{
				"x": 1.405886081,
				"y": 1.5490173444,
				"z": -1.5025725207,
				"element": "H" 
			},
			{
				"x": 2.3451836388,
				"y": 2.4099434486,
				"z": 0.6317419802,
				"element": "H" 
			},
			{
				"x": 1.5835795672,
				"y": 1.5057773544,
				"z": 2.8050296915,
				"element": "H" 
			},
			{
				"x": -0.1342660422,
				"y": -0.2940914244,
				"z": 2.8873309773,
				"element": "H" 
			}
		],
		 "valence_orbital": [ 
			{
				"type": "occ",
				"energy": -0.32112,
				"method": "rhf"
			},
			{
				"type": "occ",
				"energy": -0.28343,
				"method": "rhf"
			},
			{
				"type": "occ",
				"energy": -0.27647,
				"method": "rhf"
			},
			{
				"type": "occ",
				"energy": -0.2678,
				"method": "rhf"
			},
			{
				"type": "occ",
				"energy": -0.23384,
				"method": "rhf"
			},
			{
				"type": "unocc",
				"energy": -0.02999,
				"method": "rhf"
			},
			{
				"type": "unocc",
				"energy": -0.01916,
				"method": "rhf"
			},
			{
				"type": "unocc",
				"energy": 0.00182,
				"method": "rhf"
			},
			{
				"type": "unocc",
				"energy": 0.01001,
				"method": "rhf"
			},
			{
				"type": "unocc",
				"energy": 0.0661,
				"method": "rhf"
			}
		],
		"cosmo_sigma_profile": { 
			"-0.025": 0.0,
			"-0.024": 0.0,
			"-0.023": 0.0,
			"-0.022": 0.0,
			"-0.021": 0.0,
			"-0.02": 0.0,
			"-0.019": 0.0,
			"-0.018": 0.0,
			"-0.017": 0.207618961805,
			"-0.016": 0.975226059244,
			"-0.015": 0.570138873857,
			"-0.014": 1.24391243805,
			"-0.013": 0.761407683126,
			"-0.012": 1.32073127488,
			"-0.011": 1.53073633295,
			"-0.01": 1.15111972912,
			"-0.009": 1.9243238684,
			"-0.008": 6.22396797378,
			"-0.007": 12.3155720923,
			"-0.006": 16.3269088134,
			"-0.005": 18.4416316727,
			"-0.004": 20.2441039942,
			"-0.003": 14.6310781948,
			"-0.002": 9.48742301349,
			"-0.001": 8.75070248397,
			"0.0": 8.83287077155,
			"0.001": 8.32033352983,
			"0.002": 9.71300275222,
			"0.003": 8.95089912571,
			"0.004": 10.5952467339,
			"0.005": 10.6512482057,
			"0.006": 5.51392266866,
			"0.007": 3.36988868013,
			"0.008": 3.92723046859,
			"0.009": 6.31005336893,
			"0.01": 6.00047767044,
			"0.011": 8.07013840546,
			"0.012": 9.23908758216,
			"0.013": 2.6047489813,
			"0.014": 0.0682777232379,
			"0.015": 0.0,
			"0.016": 0.0,
			"0.017": 0.0,
			"0.018": 0.0,
			"0.019": 0.0,
			"0.02": 0.0,
			"0.021": 0.0,
			"0.022": 0.0,
			"0.023": 0.0,
			"0.024": 0.0,
			"0.025": 0.0
		}
	}
}
