{
	 "smiles": "CC1=CC(=CC=C1)N=NC1=C2NC(=O)C=C(N2N=C1N)C(F)(F)F", 
	 "Tm": 553.15, 
	 "num_atms": 35, 
	 "gaussian": { 
		 "optdone": 1, 
		 "sigma_profile": "yes", 
		 "theory": "DFT", 
		 "functional": "B3LYP", 
		 "basiset": "6-31G**", 
		 "properties": { 
			 "R2extent": 13499.7617, 
			 "electric_dipole_moment_norm": 4.24610971714, 
			 "electric_quadrupole_moment_norm": 10.0112647697, 
			 "total_energy": -1243.33555212, 
			 "HOMO_LUMO_gap": 0.13347, 
			 "cosmo_polarized_energy": -16.14, 
			 "cosmo_cavitation_energy": 42.49, 
			 "cosmo_dispersion_energy": -30.24, 
			 "cosmo_repulsion_energy": 2.23, 
			 "cosmo_total_nonelectrostatic_energy": 14.48, 
			 "SMD_solvation_energy": 7.3 
		},
		"coords": [
			{
				"x": -2.9883744946,
				"y": -3.9749865083,
				"z": 3.3846636528,
				"element": "C" 
			},
			{
				"x": -1.8455724014,
				"y": -2.9911044154,
				"z": 3.4799595543,
				"element": "C" 
			},
			{
				"x": -1.6231345413,
				"y": -2.0508668354,
				"z": 2.4691295431,
				"element": "C" 
			},
			{
				"x": -0.5494955295,
				"y": -1.1517301147,
				"z": 2.5300745846,
				"element": "C" 
			},
			{
				"x": 0.3265075241,
				"y": -1.1874720105,
				"z": 3.6285599666,
				"element": "C" 
			},
			{
				"x": 0.1097403834,
				"y": -2.1164735108,
				"z": 4.6387216232,
				"element": "C" 
			},
			{
				"x": -0.9650650081,
				"y": -3.0098344162,
				"z": 4.5693360278,
				"element": "C" 
			},
			{
				"x": -0.4423678407,
				"y": -0.2536363707,
				"z": 1.4421873549,
				"element": "N" 
			},
			{
				"x": 0.5375756863,
				"y": 0.5587636142,
				"z": 1.5090777783,
				"element": "N" 
			},
			{
				"x": 0.6461953662,
				"y": 1.4326700121,
				"z": 0.4620649607,
				"element": "C" 
			},
			{
				"x": 1.6347672188,
				"y": 2.410584938,
				"z": 0.3762871929,
				"element": "C" 
			},
			{
				"x": 2.6762082357,
				"y": 2.761974611,
				"z": 1.1765635117,
				"element": "N" 
			},
			{
				"x": 3.5715108321,
				"y": 3.8153488257,
				"z": 0.8918744221,
				"element": "C" 
			},
			{
				"x": 4.4868983456,
				"y": 4.0784353083,
				"z": 1.6544676828,
				"element": "O" 
			},
			{
				"x": 3.2732228112,
				"y": 4.5070373921,
				"z": -0.3626424472,
				"element": "C" 
			},
			{
				"x": 2.2294840587,
				"y": 4.1463428831,
				"z": -1.1532001448,
				"element": "C" 
			},
			{
				"x": 1.417486054,
				"y": 3.103636427,
				"z": -0.7827391388,
				"element": "N" 
			},
			{
				"x": 0.3173290828,
				"y": 2.6330115521,
				"z": -1.4910973855,
				"element": "N" 
			},
			{
				"x": -0.136303112,
				"y": 1.6313648971,
				"z": -0.7444673736,
				"element": "C" 
			},
			{
				"x": -1.1977430802,
				"y": 0.8710613064,
				"z": -1.0941364993,
				"element": "N" 
			},
			{
				"x": 1.9078859422,
				"y": 4.8550548347,
				"z": -2.4555215729,
				"element": "C" 
			},
			{
				"x": 1.9712845349,
				"y": 4.0125593575,
				"z": -3.4975872793,
				"element": "F" 
			},
			{
				"x": 2.7952047616,
				"y": 5.8461657083,
				"z": -2.6712126507,
				"element": "F" 
			},
			{
				"x": 0.6824092438,
				"y": 5.4007631874,
				"z": -2.423089856,
				"element": "F" 
			},
			{
				"x": -2.6780790223,
				"y": -4.8927732757,
				"z": 2.8697679818,
				"element": "H" 
			},
			{
				"x": -3.8307160463,
				"y": -3.5574993739,
				"z": 2.8251407097,
				"element": "H" 
			},
			{
				"x": -3.3498556849,
				"y": -4.2649097331,
				"z": 4.3757287269,
				"element": "H" 
			},
			{
				"x": -2.2857990702,
				"y": -1.9987318318,
				"z": 1.6094167041,
				"element": "H" 
			},
			{
				"x": 1.152862685,
				"y": -0.4881665454,
				"z": 3.6711120565,
				"element": "H" 
			},
			{
				"x": 0.7790463431,
				"y": -2.1478399942,
				"z": 5.4940328153,
				"element": "H" 
			},
			{
				"x": -1.1209723857,
				"y": -3.7270781711,
				"z": 5.3712265613,
				"element": "H" 
			},
			{
				"x": 2.8264513835,
				"y": 2.2407597662,
				"z": 2.0324066448,
				"element": "H" 
			},
			{
				"x": 3.9195095646,
				"y": 5.3253476294,
				"z": -0.6433180188,
				"element": "H" 
			},
			{
				"x": -1.7737735423,
				"y": 1.1558707585,
				"z": -1.8697596256,
				"element": "H" 
			},
			{
				"x": -1.5289282981,
				"y": 0.2171500979,
				"z": -0.3981280638,
				"element": "H" 
			}
		],
		 "valence_orbital": [ 
			{
				"type": "occ",
				"energy": -0.27625,
				"method": "rhf"
			},
			{
				"type": "occ",
				"energy": -0.25058,
				"method": "rhf"
			},
			{
				"type": "occ",
				"energy": -0.24117,
				"method": "rhf"
			},
			{
				"type": "occ",
				"energy": -0.22442,
				"method": "rhf"
			},
			{
				"type": "occ",
				"energy": -0.21645,
				"method": "rhf"
			},
			{
				"type": "unocc",
				"energy": -0.08298,
				"method": "rhf"
			},
			{
				"type": "unocc",
				"energy": -0.06285,
				"method": "rhf"
			},
			{
				"type": "unocc",
				"energy": -0.00651,
				"method": "rhf"
			},
			{
				"type": "unocc",
				"energy": 0.00146,
				"method": "rhf"
			},
			{
				"type": "unocc",
				"energy": 0.02317,
				"method": "rhf"
			}
		],
		"cosmo_sigma_profile": { 
			"-0.025": 0.0,
			"-0.024": 0.0,
			"-0.023": 0.0,
			"-0.022": 0.0,
			"-0.021": 0.0,
			"-0.02": 0.0,
			"-0.019": 0.0,
			"-0.018": 0.0,
			"-0.017": 0.0692104176333,
			"-0.016": 0.74380970964,
			"-0.015": 1.08406746476,
			"-0.014": 2.10514539321,
			"-0.013": 1.49189048465,
			"-0.012": 1.66321152806,
			"-0.011": 1.81087183522,
			"-0.01": 2.28562443697,
			"-0.009": 4.26303588315,
			"-0.008": 3.51027993701,
			"-0.007": 5.70140544633,
			"-0.006": 8.30473169805,
			"-0.005": 17.8728013599,
			"-0.004": 26.8535893004,
			"-0.003": 26.6640208515,
			"-0.002": 24.2146965946,
			"-0.001": 24.730854219,
			"0.0": 26.722482537,
			"0.001": 30.0219673651,
			"0.002": 39.7244029821,
			"0.003": 24.1295156196,
			"0.004": 19.2117285611,
			"0.005": 15.7409670339,
			"0.006": 4.79395661584,
			"0.007": 3.88522607051,
			"0.008": 3.27308392248,
			"0.009": 3.19470323994,
			"0.01": 3.28252178859,
			"0.011": 4.07285998849,
			"0.012": 6.47935065872,
			"0.013": 3.18904590819,
			"0.014": 0.140422790389,
			"0.015": 0.0,
			"0.016": 0.0,
			"0.017": 0.0,
			"0.018": 0.0,
			"0.019": 0.0,
			"0.02": 0.0,
			"0.021": 0.0,
			"0.022": 0.0,
			"0.023": 0.0,
			"0.024": 0.0,
			"0.025": 0.0
		}
	}
}
