{
	 "smiles": "CC1=CC(C)=C(NC(=O)NC(=O)CCl)C=C1", 
	 "Tm": 433.15, 
	 "num_atms": 29, 
	 "gaussian": { 
		 "optdone": 1, 
		 "sigma_profile": "yes", 
		 "theory": "DFT", 
		 "functional": "B3LYP", 
		 "basiset": "6-31G**", 
		 "properties": { 
			 "R2extent": 5234.2914, 
			 "electric_dipole_moment_norm": 3.00704773657, 
			 "electric_quadrupole_moment_norm": 7.53160526116, 
			 "total_energy": -1147.1933937, 
			 "HOMO_LUMO_gap": 0.2038, 
			 "cosmo_polarized_energy": -15.05, 
			 "cosmo_cavitation_energy": 34.69, 
			 "cosmo_dispersion_energy": -24.1, 
			 "cosmo_repulsion_energy": 1.93, 
			 "cosmo_total_nonelectrostatic_energy": 12.52, 
			 "SMD_solvation_energy": 7.44 
		},
		"coords": [
			{
				"x": 0.6459782439,
				"y": 3.0450573652,
				"z": -2.5460288052,
				"element": "C" 
			},
			{
				"x": 0.4211516527,
				"y": 2.1206409082,
				"z": -1.3725186191,
				"element": "C" 
			},
			{
				"x": -0.1077896604,
				"y": 2.6067743969,
				"z": -0.169495929,
				"element": "C" 
			},
			{
				"x": -0.3181090801,
				"y": 1.7897609149,
				"z": 0.9442431367,
				"element": "C" 
			},
			{
				"x": -0.9429214512,
				"y": 2.3277251969,
				"z": 2.2056302072,
				"element": "C" 
			},
			{
				"x": 0.0392574817,
				"y": 0.4328056537,
				"z": 0.8440276075,
				"element": "C" 
			},
			{
				"x": -0.1100814102,
				"y": -0.4103000042,
				"z": 1.9879237153,
				"element": "N" 
			},
			{
				"x": -0.5912930279,
				"y": -1.686607599,
				"z": 2.0577691303,
				"element": "C" 
			},
			{
				"x": -0.286711545,
				"y": -2.4774915872,
				"z": 2.9350963038,
				"element": "O" 
			},
			{
				"x": -1.4917145706,
				"y": -2.0912500187,
				"z": 1.0293397074,
				"element": "N" 
			},
			{
				"x": -2.5671759901,
				"y": -1.3815530009,
				"z": 0.5496300822,
				"element": "C" 
			},
			{
				"x": -2.8187387586,
				"y": -0.2150061545,
				"z": 0.7891735894,
				"element": "O" 
			},
			{
				"x": -3.5213628713,
				"y": -2.1227002298,
				"z": -0.3942528599,
				"element": "C" 
			},
			{
				"x": -3.2535590928,
				"y": -3.9013758097,
				"z": -0.6145118492,
				"element": "Cl" 
			},
			{
				"x": 0.5795187469,
				"y": -0.0705386363,
				"z": -0.3411191017,
				"element": "C" 
			},
			{
				"x": 0.7531104232,
				"y": 0.7637145659,
				"z": -1.4442351594,
				"element": "C" 
			},
			{
				"x": 1.5822821254,
				"y": 3.6065765095,
				"z": -2.4362306133,
				"element": "H" 
			},
			{
				"x": -0.1609045498,
				"y": 3.7791096246,
				"z": -2.6378319137,
				"element": "H" 
			},
			{
				"x": 0.7068728123,
				"y": 2.4900596918,
				"z": -3.4866133673,
				"element": "H" 
			},
			{
				"x": -0.3850974774,
				"y": 3.6566128731,
				"z": -0.1010867378,
				"element": "H" 
			},
			{
				"x": -1.2451461054,
				"y": 3.3701870966,
				"z": 2.0779659049,
				"element": "H" 
			},
			{
				"x": -0.255140316,
				"y": 2.287289654,
				"z": 3.0601555325,
				"element": "H" 
			},
			{
				"x": -1.8250088544,
				"y": 1.734737225,
				"z": 2.4662665125,
				"element": "H" 
			},
			{
				"x": 0.428170701,
				"y": -0.1747379735,
				"z": 2.8128003821,
				"element": "H" 
			},
			{
				"x": -1.5528112243,
				"y": -3.1009556172,
				"z": 0.9602316226,
				"element": "H" 
			},
			{
				"x": -4.5358778561,
				"y": -1.9886590656,
				"z": -0.0198299994,
				"element": "H" 
			},
			{
				"x": -3.4442906415,
				"y": -1.6607081679,
				"z": -1.3795600483,
				"element": "H" 
			},
			{
				"x": 0.8656740078,
				"y": -1.1162521417,
				"z": -0.3962286088,
				"element": "H" 
			},
			{
				"x": 1.1682182879,
				"y": 0.3566843301,
				"z": -2.3626098223,
				"element": "H" 
			}
		],
		 "valence_orbital": [ 
			{
				"type": "occ",
				"energy": -0.29278,
				"method": "rhf"
			},
			{
				"type": "occ",
				"energy": -0.27003,
				"method": "rhf"
			},
			{
				"type": "occ",
				"energy": -0.26797,
				"method": "rhf"
			},
			{
				"type": "occ",
				"energy": -0.24683,
				"method": "rhf"
			},
			{
				"type": "occ",
				"energy": -0.22828,
				"method": "rhf"
			},
			{
				"type": "unocc",
				"energy": -0.02448,
				"method": "rhf"
			},
			{
				"type": "unocc",
				"energy": -0.00278,
				"method": "rhf"
			},
			{
				"type": "unocc",
				"energy": -0.00207,
				"method": "rhf"
			},
			{
				"type": "unocc",
				"energy": 0.00929,
				"method": "rhf"
			},
			{
				"type": "unocc",
				"energy": 0.04719,
				"method": "rhf"
			}
		],
		"cosmo_sigma_profile": { 
			"-0.025": 0.0,
			"-0.024": 0.0,
			"-0.023": 0.0,
			"-0.022": 0.0,
			"-0.021": 0.0,
			"-0.02": 0.0,
			"-0.019": 0.0,
			"-0.018": 0.0,
			"-0.017": 0.0,
			"-0.016": 0.0,
			"-0.015": 0.191319822532,
			"-0.014": 0.941633994823,
			"-0.013": 1.17836768323,
			"-0.012": 1.20217508294,
			"-0.011": 1.00646441444,
			"-0.01": 3.06606746391,
			"-0.009": 6.85419540924,
			"-0.008": 6.21385530221,
			"-0.007": 7.41214184364,
			"-0.006": 8.91070730929,
			"-0.005": 14.5116473725,
			"-0.004": 21.398022168,
			"-0.003": 20.058209773,
			"-0.002": 20.5709239342,
			"-0.001": 22.6700678162,
			"0.0": 27.7838134664,
			"0.001": 19.3361931632,
			"0.002": 12.6916366129,
			"0.003": 12.6876369302,
			"0.004": 13.010965124,
			"0.005": 16.1602121881,
			"0.006": 7.18290813734,
			"0.007": 4.87786904281,
			"0.008": 3.76774567025,
			"0.009": 3.90009941744,
			"0.01": 3.67992034856,
			"0.011": 3.55733785679,
			"0.012": 6.62282053951,
			"0.013": 4.89167893696,
			"0.014": 0.31588612747,
			"0.015": 0.0,
			"0.016": 0.0,
			"0.017": 0.0,
			"0.018": 0.0,
			"0.019": 0.0,
			"0.02": 0.0,
			"0.021": 0.0,
			"0.022": 0.0,
			"0.023": 0.0,
			"0.024": 0.0,
			"0.025": 0.0
		}
	}
}
