{
	 "smiles": "COP(=S)(OC)OC1=CC=C(C=C1)[N+]([O-])=O", 
	 "Tm": 308.95, 
	 "num_atms": 26, 
	 "gaussian": { 
		 "optdone": 1, 
		 "sigma_profile": "yes", 
		 "theory": "DFT", 
		 "functional": "B3LYP", 
		 "basiset": "6-31G**", 
		 "properties": { 
			 "R2extent": 5790.5948, 
			 "electric_dipole_moment_norm": 4.41620525225, 
			 "electric_quadrupole_moment_norm": 29.3643740953, 
			 "total_energy": -1481.24173847, 
			 "HOMO_LUMO_gap": 0.16619, 
			 "cosmo_polarized_energy": -14.03, 
			 "cosmo_cavitation_energy": 34.75, 
			 "cosmo_dispersion_energy": -24.73, 
			 "cosmo_repulsion_energy": 1.88, 
			 "cosmo_total_nonelectrostatic_energy": 11.9, 
			 "SMD_solvation_energy": 9.7 
		},
		"coords": [
			{
				"x": -3.8519158558,
				"y": -1.099123253,
				"z": 0.4441422193,
				"element": "C" 
			},
			{
				"x": -2.6327580683,
				"y": -0.8764909839,
				"z": 1.1831287961,
				"element": "O" 
			},
			{
				"x": -2.0711007901,
				"y": 0.6226136348,
				"z": 1.4408811892,
				"element": "P" 
			},
			{
				"x": -3.3787868288,
				"y": 1.9807614954,
				"z": 1.8411121111,
				"element": "S" 
			},
			{
				"x": -0.8986805212,
				"y": 0.3088347888,
				"z": 2.4926546877,
				"element": "O" 
			},
			{
				"x": -1.2165833328,
				"y": -0.0235156841,
				"z": 3.8598329204,
				"element": "C" 
			},
			{
				"x": -1.1846468658,
				"y": 0.9955264098,
				"z": 0.1234152175,
				"element": "O" 
			},
			{
				"x": -0.0326243157,
				"y": 0.3822953418,
				"z": -0.3407190398,
				"element": "C" 
			},
			{
				"x": 0.8386170072,
				"y": 1.2127643914,
				"z": -1.0531077417,
				"element": "C" 
			},
			{
				"x": 2.0014047097,
				"y": 0.684117762,
				"z": -1.5989408123,
				"element": "C" 
			},
			{
				"x": 2.2728956053,
				"y": -0.6722257828,
				"z": -1.4198886229,
				"element": "C" 
			},
			{
				"x": 1.4081908538,
				"y": -1.5068667833,
				"z": -0.7142460194,
				"element": "C" 
			},
			{
				"x": 0.240946041,
				"y": -0.9792264689,
				"z": -0.1715140968,
				"element": "C" 
			},
			{
				"x": 3.5008532158,
				"y": -1.2365711477,
				"z": -1.9916373014,
				"element": "N" 
			},
			{
				"x": 3.7149615905,
				"y": -2.4362688841,
				"z": -1.8150072551,
				"element": "O" 
			},
			{
				"x": 4.24302123,
				"y": -0.4764425078,
				"z": -2.6137339268,
				"element": "O" 
			},
			{
				"x": -4.0715427452,
				"y": -2.1628604103,
				"z": 0.5398378078,
				"element": "H" 
			},
			{
				"x": -3.7102110031,
				"y": -0.8428345891,
				"z": -0.6097895088,
				"element": "H" 
			},
			{
				"x": -4.6664325507,
				"y": -0.5041132678,
				"z": 0.8639760837,
				"element": "H" 
			},
			{
				"x": -0.2616752332,
				"y": -0.0988969206,
				"z": 4.3800064718,
				"element": "H" 
			},
			{
				"x": -1.8274233292,
				"y": 0.7633390345,
				"z": 4.3101735635,
				"element": "H" 
			},
			{
				"x": -1.7429387871,
				"y": -0.9808610225,
				"z": 3.9034637315,
				"element": "H" 
			},
			{
				"x": 0.5892824089,
				"y": 2.2617443687,
				"z": -1.1652954533,
				"element": "H" 
			},
			{
				"x": 2.6981178047,
				"y": 1.2993211642,
				"z": -2.1540850741,
				"element": "H" 
			},
			{
				"x": 1.6560142584,
				"y": -2.5550123723,
				"z": -0.6033282768,
				"element": "H" 
			},
			{
				"x": -0.4476844982,
				"y": -1.6136083133,
				"z": 0.3714683297,
				"element": "H" 
			}
		],
		 "valence_orbital": [ 
			{
				"type": "occ",
				"energy": -0.29074,
				"method": "rhf"
			},
			{
				"type": "occ",
				"energy": -0.28492,
				"method": "rhf"
			},
			{
				"type": "occ",
				"energy": -0.27221,
				"method": "rhf"
			},
			{
				"type": "occ",
				"energy": -0.26075,
				"method": "rhf"
			},
			{
				"type": "occ",
				"energy": -0.25512,
				"method": "rhf"
			},
			{
				"type": "unocc",
				"energy": -0.08893,
				"method": "rhf"
			},
			{
				"type": "unocc",
				"energy": -0.03379,
				"method": "rhf"
			},
			{
				"type": "unocc",
				"energy": -0.00169,
				"method": "rhf"
			},
			{
				"type": "unocc",
				"energy": 0.02365,
				"method": "rhf"
			},
			{
				"type": "unocc",
				"energy": 0.03361,
				"method": "rhf"
			}
		],
		"cosmo_sigma_profile": { 
			"-0.025": 0.0,
			"-0.024": 0.0,
			"-0.023": 0.0,
			"-0.022": 0.0,
			"-0.021": 0.0,
			"-0.02": 0.0,
			"-0.019": 0.0,
			"-0.018": 0.0,
			"-0.017": 0.0,
			"-0.016": 0.0,
			"-0.015": 0.0,
			"-0.014": 0.0,
			"-0.013": 0.0,
			"-0.012": 0.0,
			"-0.011": 0.0,
			"-0.01": 0.0,
			"-0.009": 0.261317327457,
			"-0.008": 4.18673120031,
			"-0.007": 12.5944440874,
			"-0.006": 18.9536615582,
			"-0.005": 21.37005534,
			"-0.004": 26.8404796084,
			"-0.003": 17.6868282268,
			"-0.002": 16.6933942424,
			"-0.001": 21.7612444901,
			"0.0": 23.6500621812,
			"0.001": 19.6990539074,
			"0.002": 12.5140270795,
			"0.003": 9.41934815048,
			"0.004": 10.2357583382,
			"0.005": 10.3315237274,
			"0.006": 12.3119156631,
			"0.007": 16.0326205473,
			"0.008": 14.2565085854,
			"0.009": 7.49161120801,
			"0.01": 2.79140556528,
			"0.011": 0.194975554722,
			"0.012": 0.0,
			"0.013": 0.0,
			"0.014": 0.0,
			"0.015": 0.0,
			"0.016": 0.0,
			"0.017": 0.0,
			"0.018": 0.0,
			"0.019": 0.0,
			"0.02": 0.0,
			"0.021": 0.0,
			"0.022": 0.0,
			"0.023": 0.0,
			"0.024": 0.0,
			"0.025": 0.0
		}
	}
}
