{
	 "smiles": "CCC(C(=O)NC(N)=O)C1=CC=CC=C1", 
	 "Tm": 435.15, 
	 "num_atms": 29, 
	 "gaussian": { 
		 "optdone": 1, 
		 "sigma_profile": "yes", 
		 "theory": "DFT", 
		 "functional": "B3LYP", 
		 "basiset": "6-31G**", 
		 "properties": { 
			 "R2extent": 3720.1167, 
			 "electric_dipole_moment_norm": 6.25039163733, 
			 "electric_quadrupole_moment_norm": 21.1260476242, 
			 "total_energy": -687.599777925, 
			 "HOMO_LUMO_gap": 0.2193, 
			 "cosmo_polarized_energy": -23.22, 
			 "cosmo_cavitation_energy": 33.0, 
			 "cosmo_dispersion_energy": -22.45, 
			 "cosmo_repulsion_energy": 1.82, 
			 "cosmo_total_nonelectrostatic_energy": 12.38, 
			 "SMD_solvation_energy": 7.18 
		},
		"coords": [
			{
				"x": -1.42181843,
				"y": -3.1510881018,
				"z": 0.2255777514,
				"element": "C" 
			},
			{
				"x": -0.2616938721,
				"y": -2.4216351814,
				"z": 0.9072849023,
				"element": "C" 
			},
			{
				"x": -0.2053147638,
				"y": -0.9182435025,
				"z": 0.5706651615,
				"element": "C" 
			},
			{
				"x": 0.8058920171,
				"y": -0.1986728895,
				"z": 1.4990558854,
				"element": "C" 
			},
			{
				"x": 1.3253548173,
				"y": -0.7358581264,
				"z": 2.4527616273,
				"element": "O" 
			},
			{
				"x": 1.0278409182,
				"y": 1.1312298567,
				"z": 1.1368421062,
				"element": "N" 
			},
			{
				"x": 1.7310249819,
				"y": 2.1008447484,
				"z": 1.8836373711,
				"element": "C" 
			},
			{
				"x": 1.9910826244,
				"y": 3.2340086101,
				"z": 1.1231076704,
				"element": "N" 
			},
			{
				"x": 2.0197937944,
				"y": 1.9990997594,
				"z": 3.0554023549,
				"element": "O" 
			},
			{
				"x": 0.0566583661,
				"y": -0.6351581646,
				"z": -0.9027964946,
				"element": "C" 
			},
			{
				"x": -0.894160792,
				"y": 0.0271455407,
				"z": -1.6917238298,
				"element": "C" 
			},
			{
				"x": -0.6521503545,
				"y": 0.2874654703,
				"z": -3.0437720057,
				"element": "C" 
			},
			{
				"x": 0.5491631715,
				"y": -0.112339836,
				"z": -3.6279592142,
				"element": "C" 
			},
			{
				"x": 1.5069985913,
				"y": -0.7724165951,
				"z": -2.8524587101,
				"element": "C" 
			},
			{
				"x": 1.2636745485,
				"y": -1.0295078772,
				"z": -1.5043612521,
				"element": "C" 
			},
			{
				"x": -2.3880883886,
				"y": -2.7251875373,
				"z": 0.5207778262,
				"element": "H" 
			},
			{
				"x": -1.3535593396,
				"y": -3.094080641,
				"z": -0.8655475893,
				"element": "H" 
			},
			{
				"x": -1.4292248292,
				"y": -4.2092404912,
				"z": 0.5049244464,
				"element": "H" 
			},
			{
				"x": -0.3340432279,
				"y": -2.5182718304,
				"z": 1.9940116992,
				"element": "H" 
			},
			{
				"x": 0.6911487858,
				"y": -2.8870774886,
				"z": 0.6298945704,
				"element": "H" 
			},
			{
				"x": -1.1832623463,
				"y": -0.4796408979,
				"z": 0.820788309,
				"element": "H" 
			},
			{
				"x": 0.6107012257,
				"y": 1.4320341109,
				"z": 0.265894861,
				"element": "H" 
			},
			{
				"x": 2.1875887055,
				"y": 3.1191814758,
				"z": 0.138177521,
				"element": "H" 
			},
			{
				"x": 2.5923534194,
				"y": 3.8923651635,
				"z": 1.5984901081,
				"element": "H" 
			},
			{
				"x": -1.8376217031,
				"y": 0.3330562456,
				"z": -1.2455656338,
				"element": "H" 
			},
			{
				"x": -1.4052322698,
				"y": 0.7978595554,
				"z": -3.6374485857,
				"element": "H" 
			},
			{
				"x": 0.739593359,
				"y": 0.0864335902,
				"z": -4.6785627635,
				"element": "H" 
			},
			{
				"x": 2.4460140155,
				"y": -1.0865286167,
				"z": -3.2994321824,
				"element": "H" 
			},
			{
				"x": 2.0180869752,
				"y": -1.5381763494,
				"z": -0.9095659107,
				"element": "H" 
			}
		],
		 "valence_orbital": [ 
			{
				"type": "occ",
				"energy": -0.27927,
				"method": "rhf"
			},
			{
				"type": "occ",
				"energy": -0.27358,
				"method": "rhf"
			},
			{
				"type": "occ",
				"energy": -0.26512,
				"method": "rhf"
			},
			{
				"type": "occ",
				"energy": -0.25862,
				"method": "rhf"
			},
			{
				"type": "occ",
				"energy": -0.24028,
				"method": "rhf"
			},
			{
				"type": "unocc",
				"energy": -0.02098,
				"method": "rhf"
			},
			{
				"type": "unocc",
				"energy": -0.01919,
				"method": "rhf"
			},
			{
				"type": "unocc",
				"energy": -0.00103,
				"method": "rhf"
			},
			{
				"type": "unocc",
				"energy": 0.05569,
				"method": "rhf"
			},
			{
				"type": "unocc",
				"energy": 0.06684,
				"method": "rhf"
			}
		],
		"cosmo_sigma_profile": { 
			"-0.025": 0.0,
			"-0.024": 0.0,
			"-0.023": 0.0,
			"-0.022": 0.0,
			"-0.021": 0.0,
			"-0.02": 0.0,
			"-0.019": 0.0,
			"-0.018": 0.0,
			"-0.017": 0.0,
			"-0.016": 0.283384567451,
			"-0.015": 1.67714451622,
			"-0.014": 1.9285479284,
			"-0.013": 3.5246338655,
			"-0.012": 2.72478728051,
			"-0.011": 2.65345476915,
			"-0.01": 2.88075017775,
			"-0.009": 3.74372462524,
			"-0.008": 2.36329601463,
			"-0.007": 5.45088113811,
			"-0.006": 13.0097015514,
			"-0.005": 15.8787944778,
			"-0.004": 16.5152833609,
			"-0.003": 18.9572601993,
			"-0.002": 19.0949300788,
			"-0.001": 21.9827221412,
			"0.0": 21.1396252242,
			"0.001": 20.4132128929,
			"0.002": 14.1089884082,
			"0.003": 10.2034521423,
			"0.004": 10.7408869426,
			"0.005": 9.8170483,
			"0.006": 4.15745556372,
			"0.007": 2.78889296089,
			"0.008": 2.54685673906,
			"0.009": 3.13204619924,
			"0.01": 3.76850080523,
			"0.011": 3.43453661587,
			"0.012": 6.71586182127,
			"0.013": 7.41717858232,
			"0.014": 3.05570474128,
			"0.015": 1.54311393424,
			"0.016": 1.48672788971,
			"0.017": 0.856404224643,
			"0.018": 0.144372097907,
			"0.019": 0.0,
			"0.02": 0.0,
			"0.021": 0.0,
			"0.022": 0.0,
			"0.023": 0.0,
			"0.024": 0.0,
			"0.025": 0.0
		}
	}
}
