{
	 "smiles": "CCOC1=C(OC)C=C(C=CC(O)=O)C=C1", 
	 "Tm": 476.15, 
	 "num_atms": 30, 
	 "gaussian": { 
		 "optdone": 1, 
		 "sigma_profile": "yes", 
		 "theory": "DFT", 
		 "functional": "B3LYP", 
		 "basiset": "6-31G**", 
		 "properties": { 
			 "R2extent": 5742.3775, 
			 "electric_dipole_moment_norm": 5.4063522462, 
			 "electric_quadrupole_moment_norm": 17.5299417771, 
			 "total_energy": -766.581375751, 
			 "HOMO_LUMO_gap": 0.15514, 
			 "cosmo_polarized_energy": -14.6, 
			 "cosmo_cavitation_energy": 34.39, 
			 "cosmo_dispersion_energy": -24.37, 
			 "cosmo_repulsion_energy": 1.94, 
			 "cosmo_total_nonelectrostatic_energy": 11.96, 
			 "SMD_solvation_energy": 8.4 
		},
		"coords": [
			{
				"x": 1.0412673973,
				"y": -3.0913398632,
				"z": 2.5497957692,
				"element": "C" 
			},
			{
				"x": 0.1548723073,
				"y": -1.8964220596,
				"z": 2.247133042,
				"element": "C" 
			},
			{
				"x": 0.5716915109,
				"y": -1.3578180226,
				"z": 0.9896537522,
				"element": "O" 
			},
			{
				"x": -0.0473879738,
				"y": -0.2440738533,
				"z": 0.5164714073,
				"element": "C" 
			},
			{
				"x": 0.4446581115,
				"y": 0.2753856504,
				"z": -0.706293138,
				"element": "C" 
			},
			{
				"x": 1.5131914078,
				"y": -0.3087802584,
				"z": -1.3427698458,
				"element": "O" 
			},
			{
				"x": 1.2578669198,
				"y": -1.5797558309,
				"z": -1.9440411581,
				"element": "C" 
			},
			{
				"x": -0.1061021916,
				"y": 1.4255931273,
				"z": -1.2494947302,
				"element": "C" 
			},
			{
				"x": -1.1663623195,
				"y": 2.1058499885,
				"z": -0.6146157562,
				"element": "C" 
			},
			{
				"x": -1.8424471352,
				"y": 3.3022350305,
				"z": -1.1216482225,
				"element": "C" 
			},
			{
				"x": -1.5541989434,
				"y": 4.2797037176,
				"z": -2.0139578934,
				"element": "C" 
			},
			{
				"x": -0.3597744823,
				"y": 4.6123210235,
				"z": -2.8086297598,
				"element": "C" 
			},
			{
				"x": 0.7715646803,
				"y": 3.9197269004,
				"z": -2.5136550819,
				"element": "O" 
			},
			{
				"x": -0.3594889659,
				"y": 5.486724898,
				"z": -3.6569768181,
				"element": "O" 
			},
			{
				"x": -1.668492646,
				"y": 1.5505422078,
				"z": 0.5756405983,
				"element": "C" 
			},
			{
				"x": -1.1153207614,
				"y": 0.4057172309,
				"z": 1.14479514,
				"element": "C" 
			},
			{
				"x": 0.7616449955,
				"y": -3.5302140648,
				"z": 3.5123993814,
				"element": "H" 
			},
			{
				"x": 0.9361075174,
				"y": -3.8578939077,
				"z": 1.7768913261,
				"element": "H" 
			},
			{
				"x": 2.0911149484,
				"y": -2.789773161,
				"z": 2.5965661899,
				"element": "H" 
			},
			{
				"x": -0.9016544899,
				"y": -2.1938788154,
				"z": 2.1934745601,
				"element": "H" 
			},
			{
				"x": 0.2506511595,
				"y": -1.1283592427,
				"z": 3.0265768278,
				"element": "H" 
			},
			{
				"x": 2.1875926527,
				"y": -1.8768750521,
				"z": -2.4337452927,
				"element": "H" 
			},
			{
				"x": 0.9839928153,
				"y": -2.3313098235,
				"z": -1.1972968012,
				"element": "H" 
			},
			{
				"x": 0.4623000156,
				"y": -1.5044911724,
				"z": -2.696956542,
				"element": "H" 
			},
			{
				"x": 0.3138039243,
				"y": 1.7913193021,
				"z": -2.1751093963,
				"element": "H" 
			},
			{
				"x": -2.8249495293,
				"y": 3.4268316967,
				"z": -0.6646894763,
				"element": "H" 
			},
			{
				"x": -2.3336098492,
				"y": 5.0126822874,
				"z": -2.1975956207,
				"element": "H" 
			},
			{
				"x": 1.4540710692,
				"y": 4.2842210054,
				"z": -3.1016453382,
				"element": "H" 
			},
			{
				"x": -2.5030158285,
				"y": 2.0331983105,
				"z": 1.0771493567,
				"element": "H" 
			},
			{
				"x": -1.5217863167,
				"y": 0.0249327505,
				"z": 2.0738735204,
				"element": "H" 
			}
		],
		 "valence_orbital": [ 
			{
				"type": "occ",
				"energy": -0.28127,
				"method": "rhf"
			},
			{
				"type": "occ",
				"energy": -0.27469,
				"method": "rhf"
			},
			{
				"type": "occ",
				"energy": -0.26521,
				"method": "rhf"
			},
			{
				"type": "occ",
				"energy": -0.24331,
				"method": "rhf"
			},
			{
				"type": "occ",
				"energy": -0.21304,
				"method": "rhf"
			},
			{
				"type": "unocc",
				"energy": -0.0579,
				"method": "rhf"
			},
			{
				"type": "unocc",
				"energy": -0.00156,
				"method": "rhf"
			},
			{
				"type": "unocc",
				"energy": 0.02571,
				"method": "rhf"
			},
			{
				"type": "unocc",
				"energy": 0.07979,
				"method": "rhf"
			},
			{
				"type": "unocc",
				"energy": 0.08681,
				"method": "rhf"
			}
		],
		"cosmo_sigma_profile": { 
			"-0.025": 0.0,
			"-0.024": 0.0,
			"-0.023": 0.0,
			"-0.022": 0.0,
			"-0.021": 0.0,
			"-0.02": 0.0,
			"-0.019": 0.0,
			"-0.018": 0.298594059088,
			"-0.017": 0.853893440237,
			"-0.016": 1.23672409827,
			"-0.015": 0.319754843497,
			"-0.014": 0.908494746599,
			"-0.013": 0.489646027373,
			"-0.012": 0.990700130862,
			"-0.011": 0.816214088226,
			"-0.01": 0.592190304292,
			"-0.009": 0.359916087487,
			"-0.008": 0.712775722271,
			"-0.007": 6.38710657244,
			"-0.006": 11.7137458711,
			"-0.005": 18.3340983729,
			"-0.004": 22.6667963775,
			"-0.003": 26.3567370851,
			"-0.002": 26.3051109933,
			"-0.001": 20.7068932689,
			"0.0": 21.1209669998,
			"0.001": 16.6076674131,
			"0.002": 17.3263436225,
			"0.003": 16.7117357366,
			"0.004": 17.6465254632,
			"0.005": 7.41829334316,
			"0.006": 5.23472521093,
			"0.007": 3.20401037779,
			"0.008": 4.51118585064,
			"0.009": 3.87605426025,
			"0.01": 4.49934074469,
			"0.011": 4.85282627433,
			"0.012": 6.29474630435,
			"0.013": 2.97109233222,
			"0.014": 0.176343712055,
			"0.015": 0.0,
			"0.016": 0.0,
			"0.017": 0.0,
			"0.018": 0.0,
			"0.019": 0.0,
			"0.02": 0.0,
			"0.021": 0.0,
			"0.022": 0.0,
			"0.023": 0.0,
			"0.024": 0.0,
			"0.025": 0.0
		}
	}
}
