{
	 "smiles": "CC1(NC(=O)NC1=O)C1=CC2=C(C=CC=C2)C=C1", 
	 "Tm": 464.15, 
	 "num_atms": 30, 
	 "gaussian": { 
		 "optdone": 1, 
		 "sigma_profile": "yes", 
		 "theory": "DFT", 
		 "functional": "B3LYP", 
		 "basiset": "6-31G**", 
		 "properties": { 
			 "R2extent": 5895.8846, 
			 "electric_dipole_moment_norm": 2.57815630248, 
			 "electric_quadrupole_moment_norm": 13.6178628951, 
			 "total_energy": -800.7293918, 
			 "HOMO_LUMO_gap": 0.17599, 
			 "cosmo_polarized_energy": -17.32, 
			 "cosmo_cavitation_energy": 33.84, 
			 "cosmo_dispersion_energy": -24.26, 
			 "cosmo_repulsion_energy": 1.85, 
			 "cosmo_total_nonelectrostatic_energy": 11.43, 
			 "SMD_solvation_energy": 7.14 
		},
		"coords": [
			{
				"x": 1.8989017718,
				"y": -3.3626658942,
				"z": 0.8287522605,
				"element": "C" 
			},
			{
				"x": 2.3643470305,
				"y": -2.0310597306,
				"z": 0.2027974929,
				"element": "C" 
			},
			{
				"x": 3.4148927764,
				"y": -1.4051990192,
				"z": 1.00263377,
				"element": "N" 
			},
			{
				"x": 4.6433123608,
				"y": -1.3762911037,
				"z": 0.3894926619,
				"element": "C" 
			},
			{
				"x": 5.7063771465,
				"y": -1.0072284148,
				"z": 0.8412356623,
				"element": "O" 
			},
			{
				"x": 4.4224899258,
				"y": -1.8785942609,
				"z": -0.9101793632,
				"element": "N" 
			},
			{
				"x": 3.1374501975,
				"y": -2.3281690186,
				"z": -1.1130101116,
				"element": "C" 
			},
			{
				"x": 2.6980704536,
				"y": -2.8683325707,
				"z": -2.1059998974,
				"element": "O" 
			},
			{
				"x": 1.1799307485,
				"y": -1.0967890984,
				"z": -0.0711631924,
				"element": "C" 
			},
			{
				"x": 1.0903673775,
				"y": 0.1471804881,
				"z": 0.5166498409,
				"element": "C" 
			},
			{
				"x": -0.0277051728,
				"y": 0.9953279258,
				"z": 0.291192086,
				"element": "C" 
			},
			{
				"x": -1.0772299356,
				"y": 0.5485004502,
				"z": -0.5733870761,
				"element": "C" 
			},
			{
				"x": -2.1944027693,
				"y": 1.3968088076,
				"z": -0.7960287377,
				"element": "C" 
			},
			{
				"x": -2.2713208646,
				"y": 2.6320600381,
				"z": -0.1920063954,
				"element": "C" 
			},
			{
				"x": -1.2320476582,
				"y": 3.0757488673,
				"z": 0.662487186,
				"element": "C" 
			},
			{
				"x": -0.1360914814,
				"y": 2.2758243206,
				"z": 0.8976901024,
				"element": "C" 
			},
			{
				"x": -0.9521418428,
				"y": -0.7293473812,
				"z": -1.1822405921,
				"element": "C" 
			},
			{
				"x": 0.1382654433,
				"y": -1.5303084906,
				"z": -0.940839223,
				"element": "C" 
			},
			{
				"x": 2.7557737879,
				"y": -4.0152799003,
				"z": 1.0210674361,
				"element": "H" 
			},
			{
				"x": 1.3806134285,
				"y": -3.1697415929,
				"z": 1.7729908398,
				"element": "H" 
			},
			{
				"x": 1.2116538786,
				"y": -3.8812282034,
				"z": 0.1578361778,
				"element": "H" 
			},
			{
				"x": 3.3620954598,
				"y": -1.2948058274,
				"z": 2.0037650771,
				"element": "H" 
			},
			{
				"x": 5.1649455267,
				"y": -1.9567020104,
				"z": -1.5904933097,
				"element": "H" 
			},
			{
				"x": 1.8884345036,
				"y": 0.5043517237,
				"z": 1.1597914558,
				"element": "H" 
			},
			{
				"x": -2.9890357679,
				"y": 1.0542366462,
				"z": -1.4539318384,
				"element": "H" 
			},
			{
				"x": -3.1301183617,
				"y": 3.2728313907,
				"z": -0.3697661163,
				"element": "H" 
			},
			{
				"x": -1.303452961,
				"y": 4.0527487663,
				"z": 1.1316256984,
				"element": "H" 
			},
			{
				"x": 0.6631222271,
				"y": 2.6149867713,
				"z": 1.5519018195,
				"element": "H" 
			},
			{
				"x": -1.7359904374,
				"y": -1.0685548745,
				"z": -1.8546023285,
				"element": "H" 
			},
			{
				"x": 0.229193208,
				"y": -2.4868088039,
				"z": -1.4428613855,
				"element": "H" 
			}
		],
		 "valence_orbital": [ 
			{
				"type": "occ",
				"energy": -0.287,
				"method": "rhf"
			},
			{
				"type": "occ",
				"energy": -0.27393,
				"method": "rhf"
			},
			{
				"type": "occ",
				"energy": -0.26539,
				"method": "rhf"
			},
			{
				"type": "occ",
				"energy": -0.24459,
				"method": "rhf"
			},
			{
				"type": "occ",
				"energy": -0.21966,
				"method": "rhf"
			},
			{
				"type": "unocc",
				"energy": -0.04367,
				"method": "rhf"
			},
			{
				"type": "unocc",
				"energy": -0.02156,
				"method": "rhf"
			},
			{
				"type": "unocc",
				"energy": -0.00442,
				"method": "rhf"
			},
			{
				"type": "unocc",
				"energy": 0.02769,
				"method": "rhf"
			},
			{
				"type": "unocc",
				"energy": 0.05648,
				"method": "rhf"
			}
		],
		"cosmo_sigma_profile": { 
			"-0.025": 0.0,
			"-0.024": 0.0,
			"-0.023": 0.0,
			"-0.022": 0.0,
			"-0.021": 0.0,
			"-0.02": 0.0,
			"-0.019": 0.0,
			"-0.018": 0.0,
			"-0.017": 0.411856920253,
			"-0.016": 1.41992210172,
			"-0.015": 2.24987860121,
			"-0.014": 2.06255665228,
			"-0.013": 1.65452734197,
			"-0.012": 1.40077087007,
			"-0.011": 3.2409710563,
			"-0.01": 1.62980468943,
			"-0.009": 1.66973701106,
			"-0.008": 2.3547232538,
			"-0.007": 3.34301561984,
			"-0.006": 14.6603435062,
			"-0.005": 21.3977746702,
			"-0.004": 20.6249812036,
			"-0.003": 21.4015077829,
			"-0.002": 18.2606504086,
			"-0.001": 19.4273618134,
			"0.0": 13.8057416785,
			"0.001": 12.7645382865,
			"0.002": 12.4426131358,
			"0.003": 16.5204613802,
			"0.004": 26.1920399461,
			"0.005": 15.2374181682,
			"0.006": 4.28572947177,
			"0.007": 2.68024703346,
			"0.008": 2.15572177316,
			"0.009": 2.36493661646,
			"0.01": 3.49504474689,
			"0.011": 6.02319151483,
			"0.012": 8.16636942645,
			"0.013": 5.91386952124,
			"0.014": 0.590240529537,
			"0.015": 0.0,
			"0.016": 0.0,
			"0.017": 0.0,
			"0.018": 0.0,
			"0.019": 0.0,
			"0.02": 0.0,
			"0.021": 0.0,
			"0.022": 0.0,
			"0.023": 0.0,
			"0.024": 0.0,
			"0.025": 0.0
		}
	}
}
