{
	 "smiles": "CC1CCCCN1C1=NC=CC(=C1)C(O)=O", 
	 "Tm": 438.15, 
	 "num_atms": 32, 
	 "gaussian": { 
		 "optdone": 1, 
		 "sigma_profile": "yes", 
		 "theory": "DFT", 
		 "functional": "B3LYP", 
		 "basiset": "6-31G**", 
		 "properties": { 
			 "R2extent": 5467.3022, 
			 "electric_dipole_moment_norm": 2.17854504888, 
			 "electric_quadrupole_moment_norm": 8.9986868781, 
			 "total_energy": -726.895408271, 
			 "HOMO_LUMO_gap": 0.15324, 
			 "cosmo_polarized_energy": -10.08, 
			 "cosmo_cavitation_energy": 33.54, 
			 "cosmo_dispersion_energy": -24.29, 
			 "cosmo_repulsion_energy": 1.9, 
			 "cosmo_total_nonelectrostatic_energy": 11.15, 
			 "SMD_solvation_energy": 4.59 
		},
		"coords": [
			{
				"x": -0.3165987618,
				"y": -2.3500911939,
				"z": 2.5041070218,
				"element": "C" 
			},
			{
				"x": 0.1620282912,
				"y": -2.3638256522,
				"z": 1.0466917763,
				"element": "C" 
			},
			{
				"x": -0.9503010959,
				"y": -2.9828858401,
				"z": 0.1762960877,
				"element": "C" 
			},
			{
				"x": -0.6718852691,
				"y": -2.9274495126,
				"z": -1.3266776749,
				"element": "C" 
			},
			{
				"x": -0.3937236497,
				"y": -1.4799156735,
				"z": -1.7343165756,
				"element": "C" 
			},
			{
				"x": 0.7472780203,
				"y": -0.9172745665,
				"z": -0.8924064886,
				"element": "C" 
			},
			{
				"x": 0.4714821151,
				"y": -0.9959871859,
				"z": 0.560804653,
				"element": "N" 
			},
			{
				"x": 1.3915734943,
				"y": -0.2335178873,
				"z": 1.3128728912,
				"element": "C" 
			},
			{
				"x": 2.2345931737,
				"y": -0.8555732171,
				"z": 2.1490508623,
				"element": "N" 
			},
			{
				"x": 3.0978299517,
				"y": -0.1131654065,
				"z": 2.8595745413,
				"element": "C" 
			},
			{
				"x": 3.1971021317,
				"y": 1.2674617202,
				"z": 2.7617344168,
				"element": "C" 
			},
			{
				"x": 2.3161014206,
				"y": 1.9205697446,
				"z": 1.8867936859,
				"element": "C" 
			},
			{
				"x": 1.3960939134,
				"y": 1.1702120745,
				"z": 1.1635515805,
				"element": "C" 
			},
			{
				"x": 2.386254658,
				"y": 3.4074122827,
				"z": 1.7878701834,
				"element": "C" 
			},
			{
				"x": 1.4864940123,
				"y": 3.9252356324,
				"z": 0.9171471712,
				"element": "O" 
			},
			{
				"x": 3.1622819926,
				"y": 4.1028346881,
				"z": 2.4105727706,
				"element": "O" 
			},
			{
				"x": -0.6614034066,
				"y": -3.3517778748,
				"z": 2.7809163192,
				"element": "H" 
			},
			{
				"x": -1.1580252265,
				"y": -1.6579289357,
				"z": 2.6177910331,
				"element": "H" 
			},
			{
				"x": 0.4748605974,
				"y": -2.0606599498,
				"z": 3.1937744652,
				"element": "H" 
			},
			{
				"x": 1.0638410676,
				"y": -2.9952740378,
				"z": 0.9734824085,
				"element": "H" 
			},
			{
				"x": -1.8869891506,
				"y": -2.4489516714,
				"z": 0.3864547239,
				"element": "H" 
			},
			{
				"x": -1.0953793574,
				"y": -4.0188388434,
				"z": 0.5038063836,
				"element": "H" 
			},
			{
				"x": 0.2015201677,
				"y": -3.5490603528,
				"z": -1.5690608842,
				"element": "H" 
			},
			{
				"x": -1.5187369053,
				"y": -3.3392838576,
				"z": -1.8876439586,
				"element": "H" 
			},
			{
				"x": -1.2928428674,
				"y": -0.8692600991,
				"z": -1.5824686061,
				"element": "H" 
			},
			{
				"x": -0.1232150673,
				"y": -1.4087257439,
				"z": -2.7944138058,
				"element": "H" 
			},
			{
				"x": 1.6756396882,
				"y": -1.4695736562,
				"z": -1.129220169,
				"element": "H" 
			},
			{
				"x": 0.9285991224,
				"y": 0.1285510364,
				"z": -1.1512039653,
				"element": "H" 
			},
			{
				"x": 3.7505945813,
				"y": -0.6641085311,
				"z": 3.5342642585,
				"element": "H" 
			},
			{
				"x": 3.9149430165,
				"y": 1.836873912,
				"z": 3.3397463008,
				"element": "H" 
			},
			{
				"x": 0.6779206758,
				"y": 1.654573426,
				"z": 0.5138775916,
				"element": "H" 
			},
			{
				"x": 1.6206686657,
				"y": 4.8871051723,
				"z": 0.9372310015,
				"element": "H" 
			}
		],
		 "valence_orbital": [ 
			{
				"type": "occ",
				"energy": -0.2888,
				"method": "rhf"
			},
			{
				"type": "occ",
				"energy": -0.28503,
				"method": "rhf"
			},
			{
				"type": "occ",
				"energy": -0.2762,
				"method": "rhf"
			},
			{
				"type": "occ",
				"energy": -0.25936,
				"method": "rhf"
			},
			{
				"type": "occ",
				"energy": -0.21316,
				"method": "rhf"
			},
			{
				"type": "unocc",
				"energy": -0.05992,
				"method": "rhf"
			},
			{
				"type": "unocc",
				"energy": -0.01111,
				"method": "rhf"
			},
			{
				"type": "unocc",
				"energy": 0.04953,
				"method": "rhf"
			},
			{
				"type": "unocc",
				"energy": 0.07279,
				"method": "rhf"
			},
			{
				"type": "unocc",
				"energy": 0.08962,
				"method": "rhf"
			}
		],
		"cosmo_sigma_profile": { 
			"-0.025": 0.0,
			"-0.024": 0.0,
			"-0.023": 0.0,
			"-0.022": 0.0,
			"-0.021": 0.0,
			"-0.02": 0.0,
			"-0.019": 0.264747513688,
			"-0.018": 1.04780993028,
			"-0.017": 0.564999514705,
			"-0.016": 1.21021481233,
			"-0.015": 0.991534179148,
			"-0.014": 0.493207911099,
			"-0.013": 0.384494273827,
			"-0.012": 0.366461074653,
			"-0.011": 0.749003274331,
			"-0.01": 0.699583676866,
			"-0.009": 0.56650956504,
			"-0.008": 1.08137206966,
			"-0.007": 2.65931092544,
			"-0.006": 6.11552861283,
			"-0.005": 6.46230661197,
			"-0.004": 8.06163280579,
			"-0.003": 20.4203173512,
			"-0.002": 37.62706856,
			"-0.001": 38.2330868385,
			"0.0": 33.8705941717,
			"0.001": 32.8655625791,
			"0.002": 19.2479766661,
			"0.003": 8.53731952058,
			"0.004": 6.29777773765,
			"0.005": 4.33737227186,
			"0.006": 5.35742863593,
			"0.007": 4.69377585818,
			"0.008": 3.7021872244,
			"0.009": 3.2927934536,
			"0.01": 3.6899292209,
			"0.011": 5.94069582363,
			"0.012": 2.19986828786,
			"0.013": 0.648139455409,
			"0.014": 0.188519467796,
			"0.015": 0.0,
			"0.016": 0.0,
			"0.017": 0.0,
			"0.018": 0.0,
			"0.019": 0.0,
			"0.02": 0.0,
			"0.021": 0.0,
			"0.022": 0.0,
			"0.023": 0.0,
			"0.024": 0.0,
			"0.025": 0.0
		}
	}
}
