{
	 "smiles": "CSC(SC)=C(C(C)=O)C(C)=O", 
	 "Tm": 334.15, 
	 "num_atms": 24, 
	 "gaussian": { 
		 "optdone": 1, 
		 "sigma_profile": "yes", 
		 "theory": "DFT", 
		 "functional": "B3LYP", 
		 "basiset": "6-31G**", 
		 "properties": { 
			 "R2extent": 2962.9432, 
			 "electric_dipole_moment_norm": 3.88373624748, 
			 "electric_quadrupole_moment_norm": 9.82441082406, 
			 "total_energy": -1258.87365023, 
			 "HOMO_LUMO_gap": 0.16503, 
			 "cosmo_polarized_energy": -10.45, 
			 "cosmo_cavitation_energy": 30.42, 
			 "cosmo_dispersion_energy": -21.3, 
			 "cosmo_repulsion_energy": 1.64, 
			 "cosmo_total_nonelectrostatic_energy": 10.77, 
			 "SMD_solvation_energy": 7.22 
		},
		"coords": [
			{
				"x": -1.1244733526,
				"y": -1.7391720125,
				"z": -1.6014248602,
				"element": "C" 
			},
			{
				"x": -1.0696019869,
				"y": -1.2199893683,
				"z": 0.1504766654,
				"element": "S" 
			},
			{
				"x": 0.1579010079,
				"y": 0.0660840287,
				"z": 0.1812061393,
				"element": "C" 
			},
			{
				"x": 1.7244365571,
				"y": -0.2743652467,
				"z": -0.6364777419,
				"element": "S" 
			},
			{
				"x": 1.8070312052,
				"y": 1.0774300787,
				"z": -1.879681755,
				"element": "C" 
			},
			{
				"x": -0.0076817076,
				"y": 1.1448831621,
				"z": 0.9855915553,
				"element": "C" 
			},
			{
				"x": 1.1878310453,
				"y": 2.0184290802,
				"z": 1.3691868926,
				"element": "C" 
			},
			{
				"x": 1.8718932353,
				"y": 1.6632782778,
				"z": 2.665954002,
				"element": "C" 
			},
			{
				"x": 1.514526591,
				"y": 2.9635852882,
				"z": 0.6767136686,
				"element": "O" 
			},
			{
				"x": -1.2861480564,
				"y": 1.5791706391,
				"z": 1.649604054,
				"element": "C" 
			},
			{
				"x": -2.5958428868,
				"y": 1.5944300653,
				"z": 0.8772955285,
				"element": "C" 
			},
			{
				"x": -1.2424075186,
				"y": 2.0226879699,
				"z": 2.7891739696,
				"element": "O" 
			},
			{
				"x": -0.1154894554,
				"y": -1.9399642654,
				"z": -1.9639024111,
				"element": "H" 
			},
			{
				"x": -1.7102584227,
				"y": -2.6605335609,
				"z": -1.6228578739,
				"element": "H" 
			},
			{
				"x": -1.6122073568,
				"y": -0.9847593023,
				"z": -2.222070935,
				"element": "H" 
			},
			{
				"x": 2.7758678569,
				"y": 0.9612265075,
				"z": -2.3713068797,
				"element": "H" 
			},
			{
				"x": 1.0130731922,
				"y": 0.965293272,
				"z": -2.6202596069,
				"element": "H" 
			},
			{
				"x": 1.7509195336,
				"y": 2.0496045362,
				"z": -1.3911292734,
				"element": "H" 
			},
			{
				"x": 2.7105387461,
				"y": 2.339644414,
				"z": 2.840603469,
				"element": "H" 
			},
			{
				"x": 1.136247435,
				"y": 1.7431900886,
				"z": 3.472873377,
				"element": "H" 
			},
			{
				"x": 2.2207934769,
				"y": 0.6257343651,
				"z": 2.6346244918,
				"element": "H" 
			},
			{
				"x": -3.015465326,
				"y": 2.6001551469,
				"z": 0.9785482965,
				"element": "H" 
			},
			{
				"x": -3.3021390872,
				"y": 0.895813112,
				"z": 1.3340844127,
				"element": "H" 
			},
			{
				"x": -2.4811447255,
				"y": 1.3436437238,
				"z": -0.1769251854,
				"element": "H" 
			}
		],
		 "valence_orbital": [ 
			{
				"type": "occ",
				"energy": -0.29911,
				"method": "rhf"
			},
			{
				"type": "occ",
				"energy": -0.26626,
				"method": "rhf"
			},
			{
				"type": "occ",
				"energy": -0.25417,
				"method": "rhf"
			},
			{
				"type": "occ",
				"energy": -0.24473,
				"method": "rhf"
			},
			{
				"type": "occ",
				"energy": -0.2342,
				"method": "rhf"
			},
			{
				"type": "unocc",
				"energy": -0.06917,
				"method": "rhf"
			},
			{
				"type": "unocc",
				"energy": -0.02548,
				"method": "rhf"
			},
			{
				"type": "unocc",
				"energy": 0.00036,
				"method": "rhf"
			},
			{
				"type": "unocc",
				"energy": 0.03163,
				"method": "rhf"
			},
			{
				"type": "unocc",
				"energy": 0.0433,
				"method": "rhf"
			}
		],
		"cosmo_sigma_profile": { 
			"-0.025": 0.0,
			"-0.024": 0.0,
			"-0.023": 0.0,
			"-0.022": 0.0,
			"-0.021": 0.0,
			"-0.02": 0.0,
			"-0.019": 0.0,
			"-0.018": 0.0,
			"-0.017": 0.0,
			"-0.016": 0.0,
			"-0.015": 0.0,
			"-0.014": 0.0,
			"-0.013": 0.0,
			"-0.012": 0.0,
			"-0.011": 0.0,
			"-0.01": 0.0,
			"-0.009": 0.0,
			"-0.008": 0.215689946345,
			"-0.007": 3.75999248773,
			"-0.006": 10.0610341348,
			"-0.005": 17.4366326166,
			"-0.004": 23.3029662923,
			"-0.003": 26.0363480514,
			"-0.002": 33.7991379174,
			"-0.001": 26.6345015966,
			"0.0": 15.1226705741,
			"0.001": 12.9887638472,
			"0.002": 11.8867875214,
			"0.003": 11.4031303382,
			"0.004": 11.8830757284,
			"0.005": 8.25140822576,
			"0.006": 5.74478850823,
			"0.007": 3.89753748754,
			"0.008": 3.73480833835,
			"0.009": 3.52339335122,
			"0.01": 4.82584820472,
			"0.011": 5.54279581642,
			"0.012": 3.20363440395,
			"0.013": 0.704743375262,
			"0.014": 0.0,
			"0.015": 0.0,
			"0.016": 0.0,
			"0.017": 0.0,
			"0.018": 0.0,
			"0.019": 0.0,
			"0.02": 0.0,
			"0.021": 0.0,
			"0.022": 0.0,
			"0.023": 0.0,
			"0.024": 0.0,
			"0.025": 0.0
		}
	}
}
