{
	 "smiles": "NC1=CC=C(C=C1)C1=CC=CN1", 
	 "Tm": 394.15, 
	 "num_atms": 22, 
	 "gaussian": { 
		 "optdone": 1, 
		 "sigma_profile": "yes", 
		 "theory": "DFT", 
		 "functional": "B3LYP", 
		 "basiset": "6-31G**", 
		 "properties": { 
			 "R2extent": 3389.0926, 
			 "electric_dipole_moment_norm": 3.08180466123, 
			 "electric_quadrupole_moment_norm": 13.2275714683, 
			 "total_energy": -496.592015453, 
			 "HOMO_LUMO_gap": 0.17408, 
			 "cosmo_polarized_energy": -13.21, 
			 "cosmo_cavitation_energy": 25.8, 
			 "cosmo_dispersion_energy": -19.24, 
			 "cosmo_repulsion_energy": 1.52, 
			 "cosmo_total_nonelectrostatic_energy": 8.07, 
			 "SMD_solvation_energy": 4.41 
		},
		"coords": [
			{
				"x": -3.7647615,
				"y": 2.9065134159,
				"z": 1.7839567325,
				"element": "N" 
			},
			{
				"x": -3.0704365266,
				"y": 1.9930132173,
				"z": 0.9857726168,
				"element": "C" 
			},
			{
				"x": -3.5418400768,
				"y": 0.6795740192,
				"z": 0.8133947161,
				"element": "C" 
			},
			{
				"x": -2.8254420101,
				"y": -0.241281281,
				"z": 0.0594665608,
				"element": "C" 
			},
			{
				"x": -1.6007788692,
				"y": 0.0951981669,
				"z": -0.5456214464,
				"element": "C" 
			},
			{
				"x": -1.1320470806,
				"y": 1.407844738,
				"z": -0.3579361709,
				"element": "C" 
			},
			{
				"x": -1.8505464486,
				"y": 2.3408061044,
				"z": 0.3826839727,
				"element": "C" 
			},
			{
				"x": -0.857627303,
				"y": -0.8903931831,
				"z": -1.3316920243,
				"element": "C" 
			},
			{
				"x": -0.8203089507,
				"y": -2.2764049973,
				"z": -1.2618202543,
				"element": "C" 
			},
			{
				"x": 0.0772434385,
				"y": -2.7442971765,
				"z": -2.2600389139,
				"element": "C" 
			},
			{
				"x": 0.5694812654,
				"y": -1.6395337688,
				"z": -2.9218398035,
				"element": "C" 
			},
			{
				"x": 0.0083807946,
				"y": -0.5242512104,
				"z": -2.3455194365,
				"element": "N" 
			},
			{
				"x": -3.5887827714,
				"y": 3.8791373329,
				"z": 1.5718618278,
				"element": "H" 
			},
			{
				"x": -4.7533216526,
				"y": 2.7199428505,
				"z": 1.883597342,
				"element": "H" 
			},
			{
				"x": -4.4850775295,
				"y": 0.3861325196,
				"z": 1.2684090475,
				"element": "H" 
			},
			{
				"x": -3.2294160243,
				"y": -1.2391175516,
				"z": -0.0832579542,
				"element": "H" 
			},
			{
				"x": -0.1719494117,
				"y": 1.7031803021,
				"z": -0.7740137554,
				"element": "H" 
			},
			{
				"x": -1.4546206357,
				"y": 3.3449834819,
				"z": 0.515164667,
				"element": "H" 
			},
			{
				"x": -1.3513861634,
				"y": -2.8793544882,
				"z": -0.5386411598,
				"element": "H" 
			},
			{
				"x": 0.3420073094,
				"y": -3.7728027393,
				"z": -2.4619702682,
				"element": "H" 
			},
			{
				"x": 1.2641165162,
				"y": -1.5541027693,
				"z": -3.744233172,
				"element": "H" 
			},
			{
				"x": 0.1074136301,
				"y": 0.4164130169,
				"z": -2.6915231237,
				"element": "H" 
			}
		],
		 "valence_orbital": [ 
			{
				"type": "occ",
				"energy": -0.30912,
				"method": "rhf"
			},
			{
				"type": "occ",
				"energy": -0.24544,
				"method": "rhf"
			},
			{
				"type": "occ",
				"energy": -0.23201,
				"method": "rhf"
			},
			{
				"type": "occ",
				"energy": -0.22619,
				"method": "rhf"
			},
			{
				"type": "occ",
				"energy": -0.17315,
				"method": "rhf"
			},
			{
				"type": "unocc",
				"energy": 0.00093,
				"method": "rhf"
			},
			{
				"type": "unocc",
				"energy": 0.00383,
				"method": "rhf"
			},
			{
				"type": "unocc",
				"energy": 0.06758,
				"method": "rhf"
			},
			{
				"type": "unocc",
				"energy": 0.08167,
				"method": "rhf"
			},
			{
				"type": "unocc",
				"energy": 0.08317,
				"method": "rhf"
			}
		],
		"cosmo_sigma_profile": { 
			"-0.025": 0.0,
			"-0.024": 0.0,
			"-0.023": 0.0,
			"-0.022": 0.0,
			"-0.021": 0.0,
			"-0.02": 0.0,
			"-0.019": 0.0,
			"-0.018": 0.0,
			"-0.017": 0.0,
			"-0.016": 0.0,
			"-0.015": 0.417021689143,
			"-0.014": 1.25988339964,
			"-0.013": 1.40862325545,
			"-0.012": 3.3968532534,
			"-0.011": 3.71283994746,
			"-0.01": 4.21120722459,
			"-0.009": 4.88156739134,
			"-0.008": 4.19686342735,
			"-0.007": 6.49857842369,
			"-0.006": 7.7360951762,
			"-0.005": 11.4918525684,
			"-0.004": 12.4010496235,
			"-0.003": 13.3286317924,
			"-0.002": 10.8925617866,
			"-0.001": 10.488434998,
			"0.0": 9.84612642264,
			"0.001": 10.2180324493,
			"0.002": 7.79052794601,
			"0.003": 10.4578247654,
			"0.004": 12.1206126989,
			"0.005": 13.8679309623,
			"0.006": 17.0476012407,
			"0.007": 12.1895369327,
			"0.008": 6.41369736268,
			"0.009": 5.1514812932,
			"0.01": 1.01129156852,
			"0.011": 0.579736628043,
			"0.012": 0.946170840202,
			"0.013": 0.657150086353,
			"0.014": 0.695178603496,
			"0.015": 0.25935649648,
			"0.016": 0.0,
			"0.017": 0.0,
			"0.018": 0.0,
			"0.019": 0.0,
			"0.02": 0.0,
			"0.021": 0.0,
			"0.022": 0.0,
			"0.023": 0.0,
			"0.024": 0.0,
			"0.025": 0.0
		}
	}
}
