{
	 "smiles": "CC1=CC(Cl)=C(C=C1)N=C1NCCN1", 
	 "Tm": 422.15, 
	 "num_atms": 26, 
	 "gaussian": { 
		 "optdone": 1, 
		 "sigma_profile": "yes", 
		 "theory": "DFT", 
		 "functional": "B3LYP", 
		 "basiset": "6-31G**", 
		 "properties": { 
			 "R2extent": 3845.0023, 
			 "electric_dipole_moment_norm": 3.45552307763, 
			 "electric_quadrupole_moment_norm": 13.0688021241, 
			 "total_energy": -1012.75087195, 
			 "HOMO_LUMO_gap": 0.20333, 
			 "cosmo_polarized_energy": -12.31, 
			 "cosmo_cavitation_energy": 30.69, 
			 "cosmo_dispersion_energy": -22.56, 
			 "cosmo_repulsion_energy": 1.8, 
			 "cosmo_total_nonelectrostatic_energy": 9.93, 
			 "SMD_solvation_energy": 1.04 
		},
		"coords": [
			{
				"x": 4.767753054,
				"y": -2.3338535351,
				"z": -0.951519386,
				"element": "C" 
			},
			{
				"x": 3.3538685512,
				"y": -1.8254684748,
				"z": -0.7928162079,
				"element": "C" 
			},
			{
				"x": 3.0460639607,
				"y": -0.4761494281,
				"z": -0.9751406054,
				"element": "C" 
			},
			{
				"x": 1.7354358859,
				"y": -0.0145823303,
				"z": -0.8369915223,
				"element": "C" 
			},
			{
				"x": 1.4380166217,
				"y": 1.7084805396,
				"z": -1.1102635759,
				"element": "Cl" 
			},
			{
				"x": 0.6651038224,
				"y": -0.870775498,
				"z": -0.5100545476,
				"element": "C" 
			},
			{
				"x": 0.9981141075,
				"y": -2.2317040981,
				"z": -0.3437697261,
				"element": "C" 
			},
			{
				"x": 2.2998805716,
				"y": -2.6956544276,
				"z": -0.4733304484,
				"element": "C" 
			},
			{
				"x": -0.6750012926,
				"y": -0.4876136176,
				"z": -0.4474552076,
				"element": "N" 
			},
			{
				"x": -1.1122025962,
				"y": 0.2998528733,
				"z": 0.4686637959,
				"element": "C" 
			},
			{
				"x": -2.4229854131,
				"y": 0.7455478054,
				"z": 0.5040032374,
				"element": "N" 
			},
			{
				"x": -2.7152758252,
				"y": 1.3455700487,
				"z": 1.8005219826,
				"element": "C" 
			},
			{
				"x": -1.3148852312,
				"y": 1.8395169523,
				"z": 2.2071035358,
				"element": "C" 
			},
			{
				"x": -0.4672163742,
				"y": 0.8221744613,
				"z": 1.5848192771,
				"element": "N" 
			},
			{
				"x": 5.0928212791,
				"y": -2.8959940499,
				"z": -0.0685450539,
				"element": "H" 
			},
			{
				"x": 4.8568191241,
				"y": -3.0081194404,
				"z": -1.8118585126,
				"element": "H" 
			},
			{
				"x": 5.4735292579,
				"y": -1.5121498144,
				"z": -1.1020431231,
				"element": "H" 
			},
			{
				"x": 3.8269981911,
				"y": 0.2328188709,
				"z": -1.2320670931,
				"element": "H" 
			},
			{
				"x": 0.1877406127,
				"y": -2.9146552389,
				"z": -0.1085046695,
				"element": "H" 
			},
			{
				"x": 2.5039664641,
				"y": -3.7539027285,
				"z": -0.3278881884,
				"element": "H" 
			},
			{
				"x": -3.1033327531,
				"y": 0.1666097846,
				"z": 0.0331990717,
				"element": "H" 
			},
			{
				"x": -3.0938227752,
				"y": 0.6122167737,
				"z": 2.5286642954,
				"element": "H" 
			},
			{
				"x": -3.4379652711,
				"y": 2.1618978682,
				"z": 1.7179323174,
				"element": "H" 
			},
			{
				"x": -1.1246629754,
				"y": 2.8418091387,
				"z": 1.7975541338,
				"element": "H" 
			},
			{
				"x": -1.1796378931,
				"y": 1.8696496104,
				"z": 3.2916364437,
				"element": "H" 
			},
			{
				"x": 0.5213768964,
				"y": 1.0076779543,
				"z": 1.4871497771,
				"element": "H" 
			}
		],
		 "valence_orbital": [ 
			{
				"type": "occ",
				"energy": -0.28614,
				"method": "rhf"
			},
			{
				"type": "occ",
				"energy": -0.25168,
				"method": "rhf"
			},
			{
				"type": "occ",
				"energy": -0.23512,
				"method": "rhf"
			},
			{
				"type": "occ",
				"energy": -0.22675,
				"method": "rhf"
			},
			{
				"type": "occ",
				"energy": -0.19996,
				"method": "rhf"
			},
			{
				"type": "unocc",
				"energy": 0.00337,
				"method": "rhf"
			},
			{
				"type": "unocc",
				"energy": 0.00898,
				"method": "rhf"
			},
			{
				"type": "unocc",
				"energy": 0.04207,
				"method": "rhf"
			},
			{
				"type": "unocc",
				"energy": 0.05631,
				"method": "rhf"
			},
			{
				"type": "unocc",
				"energy": 0.07949,
				"method": "rhf"
			}
		],
		"cosmo_sigma_profile": { 
			"-0.025": 0.0,
			"-0.024": 0.0,
			"-0.023": 0.0,
			"-0.022": 0.0,
			"-0.021": 0.0,
			"-0.02": 0.0,
			"-0.019": 0.0,
			"-0.018": 0.0,
			"-0.017": 0.0,
			"-0.016": 0.0,
			"-0.015": 0.0,
			"-0.014": 0.116062984007,
			"-0.013": 1.1372494976,
			"-0.012": 1.68998264669,
			"-0.011": 1.58327360157,
			"-0.01": 1.91991844141,
			"-0.009": 1.45138631166,
			"-0.008": 1.80217879425,
			"-0.007": 2.24017120532,
			"-0.006": 6.80920531243,
			"-0.005": 16.1562586099,
			"-0.004": 28.7415543875,
			"-0.003": 26.3071861538,
			"-0.002": 19.0100188795,
			"-0.001": 15.7723192199,
			"0.0": 17.4537229041,
			"0.001": 13.0060806472,
			"0.002": 12.6446692356,
			"0.003": 14.5398391178,
			"0.004": 16.8021334118,
			"0.005": 18.2835795901,
			"0.006": 8.32665918854,
			"0.007": 3.92824093794,
			"0.008": 2.70745455667,
			"0.009": 3.48901198162,
			"0.01": 2.33875009513,
			"0.011": 1.54818199564,
			"0.012": 1.24641326895,
			"0.013": 1.07338303175,
			"0.014": 1.44059245035,
			"0.015": 0.449249590535,
			"0.016": 0.871443356419,
			"0.017": 0.0820755651758,
			"0.018": 0.0,
			"0.019": 0.0,
			"0.02": 0.0,
			"0.021": 0.0,
			"0.022": 0.0,
			"0.023": 0.0,
			"0.024": 0.0,
			"0.025": 0.0
		}
	}
}
