{
	 "smiles": "ClCC(=O)N1CCNC(=O)C1", 
	 "Tm": 398.15, 
	 "num_atms": 20, 
	 "gaussian": { 
		 "optdone": 1, 
		 "sigma_profile": "yes", 
		 "theory": "DFT", 
		 "functional": "B3LYP", 
		 "basiset": "6-31G**", 
		 "properties": { 
			 "R2extent": 3119.1386, 
			 "electric_dipole_moment_norm": 2.91111523647, 
			 "electric_quadrupole_moment_norm": 13.9437451264, 
			 "total_energy": -954.223553618, 
			 "HOMO_LUMO_gap": 0.21984, 
			 "cosmo_polarized_energy": -17.5, 
			 "cosmo_cavitation_energy": 24.79, 
			 "cosmo_dispersion_energy": -18.4, 
			 "cosmo_repulsion_energy": 1.5, 
			 "cosmo_total_nonelectrostatic_energy": 7.89, 
			 "SMD_solvation_energy": 4.09 
		},
		"coords": [
			{
				"x": 1.2673471049,
				"y": -4.1504321346,
				"z": -1.5535714469,
				"element": "Cl" 
			},
			{
				"x": 1.186189358,
				"y": -3.7414327719,
				"z": 0.2137531054,
				"element": "C" 
			},
			{
				"x": 0.0211553964,
				"y": -2.8097636736,
				"z": 0.5518103312,
				"element": "C" 
			},
			{
				"x": -0.8959832328,
				"y": -3.2320741155,
				"z": 1.2470218443,
				"element": "O" 
			},
			{
				"x": 0.0605495486,
				"y": -1.5235718132,
				"z": 0.0787660621,
				"element": "N" 
			},
			{
				"x": -1.062672217,
				"y": -0.6321922521,
				"z": 0.3497967302,
				"element": "C" 
			},
			{
				"x": -0.5751485458,
				"y": 0.5635457722,
				"z": 1.1616759412,
				"element": "C" 
			},
			{
				"x": 0.5920315587,
				"y": 1.1568794346,
				"z": 0.5148861596,
				"element": "N" 
			},
			{
				"x": 1.4750949226,
				"y": 0.5119291596,
				"z": -0.3020864365,
				"element": "C" 
			},
			{
				"x": 2.4866496195,
				"y": 1.0418977513,
				"z": -0.7385453224,
				"element": "O" 
			},
			{
				"x": 1.1220714976,
				"y": -0.9213690926,
				"z": -0.7196149706,
				"element": "C" 
			},
			{
				"x": 1.0085757911,
				"y": -4.6710993333,
				"z": 0.7486625814,
				"element": "H" 
			},
			{
				"x": 2.1579653886,
				"y": -3.330139773,
				"z": 0.4932925366,
				"element": "H" 
			},
			{
				"x": -1.49119236,
				"y": -0.2920145881,
				"z": -0.6026692455,
				"element": "H" 
			},
			{
				"x": -1.8150576811,
				"y": -1.1963690373,
				"z": 0.8996259789,
				"element": "H" 
			},
			{
				"x": -1.3684549944,
				"y": 1.3163583529,
				"z": 1.2260515079,
				"element": "H" 
			},
			{
				"x": -0.3352061346,
				"y": 0.2401714986,
				"z": 2.1840772723,
				"element": "H" 
			},
			{
				"x": 0.8913386686,
				"y": 2.0831452414,
				"z": 0.7917489842,
				"element": "H" 
			},
			{
				"x": 2.0443395464,
				"y": -1.4961475036,
				"z": -0.6573131744,
				"element": "H" 
			},
			{
				"x": 0.8445067646,
				"y": -0.8880211219,
				"z": -1.7827684391,
				"element": "H" 
			}
		],
		 "valence_orbital": [ 
			{
				"type": "occ",
				"energy": -0.31076,
				"method": "rhf"
			},
			{
				"type": "occ",
				"energy": -0.28129,
				"method": "rhf"
			},
			{
				"type": "occ",
				"energy": -0.26897,
				"method": "rhf"
			},
			{
				"type": "occ",
				"energy": -0.26039,
				"method": "rhf"
			},
			{
				"type": "occ",
				"energy": -0.24578,
				"method": "rhf"
			},
			{
				"type": "unocc",
				"energy": -0.02594,
				"method": "rhf"
			},
			{
				"type": "unocc",
				"energy": 0.01339,
				"method": "rhf"
			},
			{
				"type": "unocc",
				"energy": 0.0423,
				"method": "rhf"
			},
			{
				"type": "unocc",
				"energy": 0.07296,
				"method": "rhf"
			},
			{
				"type": "unocc",
				"energy": 0.09127,
				"method": "rhf"
			}
		],
		"cosmo_sigma_profile": { 
			"-0.025": 0.0,
			"-0.024": 0.0,
			"-0.023": 0.0,
			"-0.022": 0.0,
			"-0.021": 0.0,
			"-0.02": 0.0,
			"-0.019": 0.0,
			"-0.018": 0.0,
			"-0.017": 0.0,
			"-0.016": 0.0,
			"-0.015": 0.119113306926,
			"-0.014": 0.909057753753,
			"-0.013": 1.34275222497,
			"-0.012": 1.25201208846,
			"-0.011": 2.43996382272,
			"-0.01": 3.1118660423,
			"-0.009": 3.38020885856,
			"-0.008": 4.71387634333,
			"-0.007": 10.1607933723,
			"-0.006": 14.6491377027,
			"-0.005": 18.8284791765,
			"-0.004": 15.1145756501,
			"-0.003": 13.2795048076,
			"-0.002": 8.25358146038,
			"-0.001": 9.26164485864,
			"0.0": 9.47557849296,
			"0.001": 7.61932205281,
			"0.002": 7.57231599056,
			"0.003": 10.2511615667,
			"0.004": 7.48359792311,
			"0.005": 9.37474323943,
			"0.006": 5.7467319884,
			"0.007": 2.01119309691,
			"0.008": 2.15169158926,
			"0.009": 2.48991704546,
			"0.01": 2.98139873485,
			"0.011": 2.45269834894,
			"0.012": 5.99018457774,
			"0.013": 8.0365661911,
			"0.014": 6.1367062655,
			"0.015": 0.851764015895,
			"0.016": 0.0,
			"0.017": 0.0,
			"0.018": 0.0,
			"0.019": 0.0,
			"0.02": 0.0,
			"0.021": 0.0,
			"0.022": 0.0,
			"0.023": 0.0,
			"0.024": 0.0,
			"0.025": 0.0
		}
	}
}
