{
	 "smiles": "CC1=CSC(NC(=O)CCl)=N1", 
	 "Tm": 401.15, 
	 "num_atms": 18, 
	 "gaussian": { 
		 "optdone": 1, 
		 "sigma_profile": "yes", 
		 "theory": "DFT", 
		 "functional": "B3LYP", 
		 "basiset": "6-31G**", 
		 "properties": { 
			 "R2extent": 3343.8344, 
			 "electric_dipole_moment_norm": 1.85905638699, 
			 "electric_quadrupole_moment_norm": 9.05549065816, 
			 "total_energy": -1275.96808701, 
			 "HOMO_LUMO_gap": 0.18978, 
			 "cosmo_polarized_energy": -14.83, 
			 "cosmo_cavitation_energy": 26.12, 
			 "cosmo_dispersion_energy": -19.89, 
			 "cosmo_repulsion_energy": 1.59, 
			 "cosmo_total_nonelectrostatic_energy": 7.83, 
			 "SMD_solvation_energy": 3.72 
		},
		"coords": [
			{
				"x": -1.9211094704,
				"y": -0.0413552651,
				"z": 2.6026159249,
				"element": "C" 
			},
			{
				"x": -0.8620797561,
				"y": 0.4317550642,
				"z": 1.6525403122,
				"element": "C" 
			},
			{
				"x": -0.307377709,
				"y": 1.6785149126,
				"z": 1.6268800537,
				"element": "C" 
			},
			{
				"x": 0.8847428077,
				"y": 1.7941458984,
				"z": 0.3611541558,
				"element": "S" 
			},
			{
				"x": 0.5219859551,
				"y": 0.1058901278,
				"z": -0.0367872564,
				"element": "C" 
			},
			{
				"x": 1.2155331127,
				"y": -0.488066675,
				"z": -1.0873791964,
				"element": "N" 
			},
			{
				"x": 1.0960086041,
				"y": -1.7876941652,
				"z": -1.528885453,
				"element": "C" 
			},
			{
				"x": 0.3627269812,
				"y": -2.6410442875,
				"z": -1.0756987842,
				"element": "O" 
			},
			{
				"x": 1.9867151086,
				"y": -2.1828601804,
				"z": -2.7156829133,
				"element": "C" 
			},
			{
				"x": 3.0906762393,
				"y": -0.9079386883,
				"z": -3.3940157884,
				"element": "Cl" 
			},
			{
				"x": -0.3817522476,
				"y": -0.4527597538,
				"z": 0.7007193637,
				"element": "N" 
			},
			{
				"x": -2.8103036638,
				"y": -0.3689744964,
				"z": 2.0537780203,
				"element": "H" 
			},
			{
				"x": -2.2116956504,
				"y": 0.7493434451,
				"z": 3.2984876466,
				"element": "H" 
			},
			{
				"x": -1.5630695415,
				"y": -0.9008974787,
				"z": 3.178991786,
				"element": "H" 
			},
			{
				"x": -0.5205337832,
				"y": 2.5257739597,
				"z": 2.2622286504,
				"element": "H" 
			},
			{
				"x": 1.8831431555,
				"y": 0.0895345401,
				"z": -1.5826079439,
				"element": "H" 
			},
			{
				"x": 1.3397757634,
				"y": -2.5117126185,
				"z": -3.5291257624,
				"element": "H" 
			},
			{
				"x": 2.6149140945,
				"y": -3.0172543393,
				"z": -2.4035128155,
				"element": "H" 
			}
		],
		 "valence_orbital": [ 
			{
				"type": "occ",
				"energy": -0.31243,
				"method": "rhf"
			},
			{
				"type": "occ",
				"energy": -0.29098,
				"method": "rhf"
			},
			{
				"type": "occ",
				"energy": -0.28253,
				"method": "rhf"
			},
			{
				"type": "occ",
				"energy": -0.25881,
				"method": "rhf"
			},
			{
				"type": "occ",
				"energy": -0.22513,
				"method": "rhf"
			},
			{
				"type": "unocc",
				"energy": -0.03535,
				"method": "rhf"
			},
			{
				"type": "unocc",
				"energy": -0.0028,
				"method": "rhf"
			},
			{
				"type": "unocc",
				"energy": 0.00418,
				"method": "rhf"
			},
			{
				"type": "unocc",
				"energy": 0.02027,
				"method": "rhf"
			},
			{
				"type": "unocc",
				"energy": 0.06457,
				"method": "rhf"
			}
		],
		"cosmo_sigma_profile": { 
			"-0.025": 0.0,
			"-0.024": 0.0,
			"-0.023": 0.0,
			"-0.022": 0.0,
			"-0.021": 0.0,
			"-0.02": 0.0,
			"-0.019": 0.0,
			"-0.018": 0.0,
			"-0.017": 0.0,
			"-0.016": 0.0,
			"-0.015": 0.140868151539,
			"-0.014": 0.980729288393,
			"-0.013": 0.919869647717,
			"-0.012": 0.530231752596,
			"-0.011": 0.972012585318,
			"-0.01": 2.73384885624,
			"-0.009": 6.61351309271,
			"-0.008": 7.42330795306,
			"-0.007": 7.41532766096,
			"-0.006": 8.80482978227,
			"-0.005": 11.3147190257,
			"-0.004": 12.5172410898,
			"-0.003": 10.9863012794,
			"-0.002": 13.1571141011,
			"-0.001": 17.481353704,
			"0.0": 18.3684834884,
			"0.001": 16.2340017558,
			"0.002": 14.6341420081,
			"0.003": 14.8990462085,
			"0.004": 11.4266386674,
			"0.005": 8.73619650414,
			"0.006": 2.85353484529,
			"0.007": 1.76296726451,
			"0.008": 2.26574512969,
			"0.009": 1.81038330175,
			"0.01": 2.6405967205,
			"0.011": 3.07780851356,
			"0.012": 5.194398597,
			"0.013": 2.02758426903,
			"0.014": 1.04622729007,
			"0.015": 1.22651674731,
			"0.016": 1.01203066758,
			"0.017": 1.24562453217,
			"0.018": 0.600953954093,
			"0.019": 0.17870088539,
			"0.02": 0.0,
			"0.021": 0.0,
			"0.022": 0.0,
			"0.023": 0.0,
			"0.024": 0.0,
			"0.025": 0.0
		}
	}
}
