{
	 "smiles": "CC1=NC=C(N1CCCN1C(=O)C2=C(C=CC=C2)C1=O)[N+]([O-])=O", 
	 "Tm": 441.15, 
	 "num_atms": 37, 
	 "gaussian": { 
		 "optdone": 1, 
		 "sigma_profile": "yes", 
		 "theory": "DFT", 
		 "functional": "B3LYP", 
		 "basiset": "6-31G**", 
		 "properties": { 
			 "R2extent": 9744.0007, 
			 "electric_dipole_moment_norm": 7.55981093745, 
			 "electric_quadrupole_moment_norm": 7.63984320978, 
			 "total_energy": -1099.87297371, 
			 "HOMO_LUMO_gap": 0.15887, 
			 "cosmo_polarized_energy": -20.07, 
			 "cosmo_cavitation_energy": 42.68, 
			 "cosmo_dispersion_energy": -28.59, 
			 "cosmo_repulsion_energy": 2.14, 
			 "cosmo_total_nonelectrostatic_energy": 16.23, 
			 "SMD_solvation_energy": 8.29 
		},
		"coords": [
			{
				"x": -0.2848838967,
				"y": -1.1148245028,
				"z": -2.2839991628,
				"element": "C" 
			},
			{
				"x": -0.1231420699,
				"y": 0.3237307675,
				"z": -2.6523564719,
				"element": "C" 
			},
			{
				"x": -0.3078318187,
				"y": 0.7966301461,
				"z": -3.8850477332,
				"element": "N" 
			},
			{
				"x": -0.0819827946,
				"y": 2.1311783085,
				"z": -3.8084112717,
				"element": "C" 
			},
			{
				"x": 0.2487989572,
				"y": 2.4774220737,
				"z": -2.513121989,
				"element": "C" 
			},
			{
				"x": 0.2179563241,
				"y": 1.3049140891,
				"z": -1.7643259318,
				"element": "N" 
			},
			{
				"x": 0.5057615478,
				"y": 1.1057868316,
				"z": -0.3358511654,
				"element": "C" 
			},
			{
				"x": 2.0118754158,
				"y": 1.0303659497,
				"z": -0.0545278169,
				"element": "C" 
			},
			{
				"x": 2.3380586228,
				"y": 0.775396975,
				"z": 1.4232093162,
				"element": "C" 
			},
			{
				"x": 1.9990031486,
				"y": -0.5670560909,
				"z": 1.8865342399,
				"element": "N" 
			},
			{
				"x": 0.785347038,
				"y": -0.9130511279,
				"z": 2.5018959146,
				"element": "C" 
			},
			{
				"x": -0.1611930607,
				"y": -0.1638516918,
				"z": 2.6539357226,
				"element": "O" 
			},
			{
				"x": 0.9229061218,
				"y": -2.3477880957,
				"z": 2.8908740086,
				"element": "C" 
			},
			{
				"x": 2.189963603,
				"y": -2.7878993219,
				"z": 2.500278081,
				"element": "C" 
			},
			{
				"x": 2.6081904576,
				"y": -4.0905788988,
				"z": 2.7293224023,
				"element": "C" 
			},
			{
				"x": 1.7077451447,
				"y": -4.952846059,
				"z": 3.3697745064,
				"element": "C" 
			},
			{
				"x": 0.4371054309,
				"y": -4.5115768518,
				"z": 3.7612267872,
				"element": "C" 
			},
			{
				"x": 0.0241427456,
				"y": -3.1932456335,
				"z": 3.5249884207,
				"element": "C" 
			},
			{
				"x": 2.9040308123,
				"y": -1.645244327,
				"z": 1.8573212524,
				"element": "C" 
			},
			{
				"x": 4.0268743956,
				"y": -1.6011233516,
				"z": 1.3962492655,
				"element": "O" 
			},
			{
				"x": 0.5597221886,
				"y": 3.769438578,
				"z": -2.0160616135,
				"element": "N" 
			},
			{
				"x": 0.4940761867,
				"y": 4.7028125608,
				"z": -2.8198168063,
				"element": "O" 
			},
			{
				"x": 0.8785582836,
				"y": 3.8914352959,
				"z": -0.8223516629,
				"element": "O" 
			},
			{
				"x": 0.6243917767,
				"y": -1.5327316194,
				"z": -1.8388292439,
				"element": "H" 
			},
			{
				"x": -0.5128102635,
				"y": -1.6680857263,
				"z": -3.1955305712,
				"element": "H" 
			},
			{
				"x": -1.1056296136,
				"y": -1.2655347814,
				"z": -1.5733286122,
				"element": "H" 
			},
			{
				"x": -0.1570180607,
				"y": 2.7938882048,
				"z": -4.657707685,
				"element": "H" 
			},
			{
				"x": -0.0003316481,
				"y": 0.187045997,
				"z": -0.0377138906,
				"element": "H" 
			},
			{
				"x": 0.0574029025,
				"y": 1.9274422473,
				"z": 0.2207141311,
				"element": "H" 
			},
			{
				"x": 2.4630392506,
				"y": 1.985283263,
				"z": -0.3400458734,
				"element": "H" 
			},
			{
				"x": 2.4758706558,
				"y": 0.2493343756,
				"z": -0.6676289381,
				"element": "H" 
			},
			{
				"x": 3.4123327285,
				"y": 0.8977276068,
				"z": 1.5801432536,
				"element": "H" 
			},
			{
				"x": 1.8067291686,
				"y": 1.4847344156,
				"z": 2.0642156406,
				"element": "H" 
			},
			{
				"x": 3.5953500727,
				"y": -4.4213987231,
				"z": 2.4232442409,
				"element": "H" 
			},
			{
				"x": 1.9981863328,
				"y": -5.9802558357,
				"z": 3.5675369542,
				"element": "H" 
			},
			{
				"x": -0.2371223404,
				"y": -5.203777018,
				"z": 4.2565061569,
				"element": "H" 
			},
			{
				"x": -0.9570737459,
				"y": -2.8402980293,
				"z": 3.8254861452,
				"element": "H" 
			}
		],
		 "valence_orbital": [ 
			{
				"type": "occ",
				"energy": -0.28804,
				"method": "rhf"
			},
			{
				"type": "occ",
				"energy": -0.28129,
				"method": "rhf"
			},
			{
				"type": "occ",
				"energy": -0.27928,
				"method": "rhf"
			},
			{
				"type": "occ",
				"energy": -0.27698,
				"method": "rhf"
			},
			{
				"type": "occ",
				"energy": -0.25194,
				"method": "rhf"
			},
			{
				"type": "unocc",
				"energy": -0.09307,
				"method": "rhf"
			},
			{
				"type": "unocc",
				"energy": -0.08267,
				"method": "rhf"
			},
			{
				"type": "unocc",
				"energy": -0.05114,
				"method": "rhf"
			},
			{
				"type": "unocc",
				"energy": 0.01743,
				"method": "rhf"
			},
			{
				"type": "unocc",
				"energy": 0.01811,
				"method": "rhf"
			}
		],
		"cosmo_sigma_profile": { 
			"-0.025": 0.0,
			"-0.024": 0.0,
			"-0.023": 0.0,
			"-0.022": 0.0,
			"-0.021": 0.0,
			"-0.02": 0.0,
			"-0.019": 0.0,
			"-0.018": 0.0,
			"-0.017": 0.0,
			"-0.016": 0.0,
			"-0.015": 0.0,
			"-0.014": 0.0,
			"-0.013": 0.0,
			"-0.012": 0.0,
			"-0.011": 0.0,
			"-0.01": 0.0,
			"-0.009": 0.639003615069,
			"-0.008": 4.2738952902,
			"-0.007": 15.1504980256,
			"-0.006": 28.5971392492,
			"-0.005": 29.9279936567,
			"-0.004": 29.2365684796,
			"-0.003": 30.5788390196,
			"-0.002": 27.6297091963,
			"-0.001": 23.6117307101,
			"0.0": 21.8031543475,
			"0.001": 19.6306340416,
			"0.002": 19.973647626,
			"0.003": 11.1951908375,
			"0.004": 6.86684726869,
			"0.005": 7.59587504365,
			"0.006": 6.41702560854,
			"0.007": 7.30433837629,
			"0.008": 13.0498131887,
			"0.009": 9.72534470047,
			"0.01": 9.8212407331,
			"0.011": 10.6442061746,
			"0.012": 3.79988724804,
			"0.013": 0.907667694282,
			"0.014": 1.0936628602,
			"0.015": 0.948240262752,
			"0.016": 0.594113259842,
			"0.017": 0.154454197958,
			"0.018": 0.0,
			"0.019": 0.0,
			"0.02": 0.0,
			"0.021": 0.0,
			"0.022": 0.0,
			"0.023": 0.0,
			"0.024": 0.0,
			"0.025": 0.0
		}
	}
}
