{
	 "smiles": "COC1=CC=C(CNC2=CC3=C(NC(=O)N3)C=C2)C=C1", 
	 "Tm": 528.15, 
	 "num_atms": 35, 
	 "gaussian": { 
		 "optdone": 1, 
		 "sigma_profile": "yes", 
		 "theory": "DFT", 
		 "functional": "B3LYP", 
		 "basiset": "6-31G**", 
		 "properties": { 
			 "R2extent": 8409.6241, 
			 "electric_dipole_moment_norm": 5.47082868037, 
			 "electric_quadrupole_moment_norm": 13.7117135067, 
			 "total_energy": -895.357464716, 
			 "HOMO_LUMO_gap": 0.17408, 
			 "cosmo_polarized_energy": -20.68, 
			 "cosmo_cavitation_energy": 39.17, 
			 "cosmo_dispersion_energy": -28.28, 
			 "cosmo_repulsion_energy": 2.18, 
			 "cosmo_total_nonelectrostatic_energy": 13.07, 
			 "SMD_solvation_energy": 6.48 
		},
		"coords": [
			{
				"x": -5.2575781091,
				"y": -3.4945109117,
				"z": -1.8717969,
				"element": "C" 
			},
			{
				"x": -4.5487664464,
				"y": -2.745228228,
				"z": -0.8984986439,
				"element": "O" 
			},
			{
				"x": -3.2209795897,
				"y": -2.5078023646,
				"z": -1.1082027459,
				"element": "C" 
			},
			{
				"x": -2.5699604705,
				"y": -1.766540145,
				"z": -0.1085401502,
				"element": "C" 
			},
			{
				"x": -1.2187748493,
				"y": -1.4732065404,
				"z": -0.224120549,
				"element": "C" 
			},
			{
				"x": -0.4730711971,
				"y": -1.9047679217,
				"z": -1.3363719143,
				"element": "C" 
			},
			{
				"x": 0.9963226144,
				"y": -1.5550713427,
				"z": -1.4894520429,
				"element": "C" 
			},
			{
				"x": 1.2633950867,
				"y": -0.1551813795,
				"z": -1.8502390626,
				"element": "N" 
			},
			{
				"x": 1.2833544998,
				"y": 0.8711728666,
				"z": -0.8912966583,
				"element": "C" 
			},
			{
				"x": 1.893512138,
				"y": 0.688487449,
				"z": 0.3686560042,
				"element": "C" 
			},
			{
				"x": 1.9396063413,
				"y": 1.7699174651,
				"z": 1.2375156248,
				"element": "C" 
			},
			{
				"x": 1.4128745168,
				"y": 3.0307571425,
				"z": 0.8922624806,
				"element": "C" 
			},
			{
				"x": 1.6375307916,
				"y": 3.8701258714,
				"z": 1.9856826309,
				"element": "N" 
			},
			{
				"x": 2.2905695591,
				"y": 3.197103073,
				"z": 3.0141293728,
				"element": "C" 
			},
			{
				"x": 2.6369981172,
				"y": 3.6314377827,
				"z": 4.0985506419,
				"element": "O" 
			},
			{
				"x": 2.4605208554,
				"y": 1.8993400582,
				"z": 2.5199418758,
				"element": "N" 
			},
			{
				"x": 0.8199663141,
				"y": 3.2224707602,
				"z": -0.3461824867,
				"element": "C" 
			},
			{
				"x": 0.7529785251,
				"y": 2.1343221796,
				"z": -1.2224428783,
				"element": "C" 
			},
			{
				"x": -1.1362264118,
				"y": -2.6407528808,
				"z": -2.3201474167,
				"element": "C" 
			},
			{
				"x": -2.4975508805,
				"y": -2.948265456,
				"z": -2.2208235068,
				"element": "C" 
			},
			{
				"x": -5.2539303245,
				"y": -2.9957942374,
				"z": -2.8498451451,
				"element": "H" 
			},
			{
				"x": -4.8452422204,
				"y": -4.5056445213,
				"z": -1.9850659087,
				"element": "H" 
			},
			{
				"x": -6.2844989882,
				"y": -3.5650829861,
				"z": -1.5098708036,
				"element": "H" 
			},
			{
				"x": -3.1475495851,
				"y": -1.4381120773,
				"z": 0.7495260279,
				"element": "H" 
			},
			{
				"x": -0.7319099066,
				"y": -0.8981023104,
				"z": 0.5583421975,
				"element": "H" 
			},
			{
				"x": 1.5431623386,
				"y": -1.7812058248,
				"z": -0.5706736966,
				"element": "H" 
			},
			{
				"x": 1.4374587307,
				"y": -2.1863821559,
				"z": -2.2691934409,
				"element": "H" 
			},
			{
				"x": 0.7285129669,
				"y": 0.1144782303,
				"z": -2.6674389984,
				"element": "H" 
			},
			{
				"x": 2.3384775485,
				"y": -0.2599647357,
				"z": 0.6474523395,
				"element": "H" 
			},
			{
				"x": 1.3854777307,
				"y": 4.8409022966,
				"z": 2.0703878272,
				"element": "H" 
			},
			{
				"x": 2.9224289379,
				"y": 1.1889829984,
				"z": 3.0638440091,
				"element": "H" 
			},
			{
				"x": 0.4047694646,
				"y": 4.1839597344,
				"z": -0.6320735477,
				"element": "H" 
			},
			{
				"x": 0.2775942437,
				"y": 2.266063958,
				"z": -2.1907032027,
				"element": "H" 
			},
			{
				"x": -0.5829535387,
				"y": -2.9922540018,
				"z": -3.1885708822,
				"element": "H" 
			},
			{
				"x": -2.9724188035,
				"y": -3.525551845,
				"z": -3.0053404506,
				"element": "H" 
			}
		],
		 "valence_orbital": [ 
			{
				"type": "occ",
				"energy": -0.25953,
				"method": "rhf"
			},
			{
				"type": "occ",
				"energy": -0.25246,
				"method": "rhf"
			},
			{
				"type": "occ",
				"energy": -0.22552,
				"method": "rhf"
			},
			{
				"type": "occ",
				"energy": -0.21863,
				"method": "rhf"
			},
			{
				"type": "occ",
				"energy": -0.17937,
				"method": "rhf"
			},
			{
				"type": "unocc",
				"energy": -0.00529,
				"method": "rhf"
			},
			{
				"type": "unocc",
				"energy": -0.00182,
				"method": "rhf"
			},
			{
				"type": "unocc",
				"energy": 0.00612,
				"method": "rhf"
			},
			{
				"type": "unocc",
				"energy": 0.03211,
				"method": "rhf"
			},
			{
				"type": "unocc",
				"energy": 0.07691,
				"method": "rhf"
			}
		],
		"cosmo_sigma_profile": { 
			"-0.025": 0.0,
			"-0.024": 0.0,
			"-0.023": 0.0,
			"-0.022": 0.0,
			"-0.021": 0.0,
			"-0.02": 0.0,
			"-0.019": 0.0,
			"-0.018": 0.0,
			"-0.017": 0.0,
			"-0.016": 1.12902219901,
			"-0.015": 2.58904880837,
			"-0.014": 3.05397106787,
			"-0.013": 1.42714936938,
			"-0.012": 1.59371577328,
			"-0.011": 3.35562510376,
			"-0.01": 3.10655030957,
			"-0.009": 3.85090073776,
			"-0.008": 4.23725442013,
			"-0.007": 6.66083399486,
			"-0.006": 13.7374735583,
			"-0.005": 25.441584435,
			"-0.004": 24.7470354698,
			"-0.003": 24.6117321647,
			"-0.002": 17.5227955102,
			"-0.001": 15.997593659,
			"0.0": 15.885974822,
			"0.001": 18.2031114629,
			"0.002": 17.5378410368,
			"0.003": 18.0417261101,
			"0.004": 18.8656758701,
			"0.005": 18.8185385922,
			"0.006": 18.0599614783,
			"0.007": 5.71813041181,
			"0.008": 3.1975620993,
			"0.009": 3.16512285752,
			"0.01": 3.17968650503,
			"0.011": 2.20572647988,
			"0.012": 2.7178472982,
			"0.013": 3.66100054919,
			"0.014": 7.60561775768,
			"0.015": 1.77058609407,
			"0.016": 0.0,
			"0.017": 0.0,
			"0.018": 0.0,
			"0.019": 0.0,
			"0.02": 0.0,
			"0.021": 0.0,
			"0.022": 0.0,
			"0.023": 0.0,
			"0.024": 0.0,
			"0.025": 0.0
		}
	}
}
