{
	 "smiles": "OC1=NC(O)=NC(O)=N1", 
	 "Tm": 633.15, 
	 "num_atms": 12, 
	 "gaussian": { 
		 "optdone": 1, 
		 "sigma_profile": "yes", 
		 "theory": "DFT", 
		 "functional": "B3LYP", 
		 "basiset": "6-31G**", 
		 "properties": { 
			 "R2extent": 1399.5802, 
			 "electric_dipole_moment_norm": 2.91623993869, 
			 "electric_quadrupole_moment_norm": 16.4624387546, 
			 "total_energy": -506.081025372, 
			 "HOMO_LUMO_gap": 0.26409, 
			 "cosmo_polarized_energy": -16.78, 
			 "cosmo_cavitation_energy": 17.45, 
			 "cosmo_dispersion_energy": -13.74, 
			 "cosmo_repulsion_energy": 1.15, 
			 "cosmo_total_nonelectrostatic_energy": 4.86, 
			 "SMD_solvation_energy": 0.21 
		},
		"coords": [
			{
				"x": -1.3447551991,
				"y": -1.1337842076,
				"z": -0.2350192385,
				"element": "O" 
			},
			{
				"x": -0.0727704343,
				"y": -0.7357127125,
				"z": -0.2170650307,
				"element": "C" 
			},
			{
				"x": 0.4136274216,
				"y": -0.2872784553,
				"z": -1.3736146725,
				"element": "N" 
			},
			{
				"x": 1.6844514182,
				"y": 0.0929832783,
				"z": -1.2871852199,
				"element": "C" 
			},
			{
				"x": 2.2365431257,
				"y": 0.5539684,
				"z": -2.4108709878,
				"element": "O" 
			},
			{
				"x": 2.4612667593,
				"y": 0.0606176786,
				"z": -0.1937398197,
				"element": "N" 
			},
			{
				"x": 1.8353990792,
				"y": -0.4133452683,
				"z": 0.8898950758,
				"element": "C" 
			},
			{
				"x": 2.5353965932,
				"y": -0.4806269509,
				"z": 2.0242850785,
				"element": "O" 
			},
			{
				"x": 0.5734923875,
				"y": -0.8291096915,
				"z": 0.9534542626,
				"element": "N" 
			},
			{
				"x": -1.5536627816,
				"y": -1.4291868875,
				"z": 0.6656303725,
				"element": "H" 
			},
			{
				"x": 3.1527680525,
				"y": 0.7895578393,
				"z": -2.1967209982,
				"element": "H" 
			},
			{
				"x": 3.4244435779,
				"y": -0.1480830226,
				"z": 1.8237511779,
				"element": "H" 
			}
		],
		 "valence_orbital": [ 
			{
				"type": "occ",
				"energy": -0.33309,
				"method": "rhf"
			},
			{
				"type": "occ",
				"energy": -0.29718,
				"method": "rhf"
			},
			{
				"type": "occ",
				"energy": -0.29081,
				"method": "rhf"
			},
			{
				"type": "occ",
				"energy": -0.28903,
				"method": "rhf"
			},
			{
				"type": "occ",
				"energy": -0.28515,
				"method": "rhf"
			},
			{
				"type": "unocc",
				"energy": -0.02106,
				"method": "rhf"
			},
			{
				"type": "unocc",
				"energy": -0.01947,
				"method": "rhf"
			},
			{
				"type": "unocc",
				"energy": 0.06511,
				"method": "rhf"
			},
			{
				"type": "unocc",
				"energy": 0.07264,
				"method": "rhf"
			},
			{
				"type": "unocc",
				"energy": 0.08351,
				"method": "rhf"
			}
		],
		"cosmo_sigma_profile": { 
			"-0.025": 0.0,
			"-0.024": 0.0,
			"-0.023": 0.0,
			"-0.022": 0.0,
			"-0.021": 0.0,
			"-0.02": 0.0108286313255,
			"-0.019": 1.33017461887,
			"-0.018": 2.54022273962,
			"-0.017": 2.26807599876,
			"-0.016": 2.8819915268,
			"-0.015": 1.16747360592,
			"-0.014": 1.51355027924,
			"-0.013": 2.6148042728,
			"-0.012": 2.42267371331,
			"-0.011": 2.51154049979,
			"-0.01": 1.23735925779,
			"-0.009": 1.64236836741,
			"-0.008": 2.81703228991,
			"-0.007": 3.95324321622,
			"-0.006": 4.38678560437,
			"-0.005": 3.86585437467,
			"-0.004": 6.10467217027,
			"-0.003": 8.34347096136,
			"-0.002": 6.55689898513,
			"-0.001": 5.33959851408,
			"0.0": 6.18623722299,
			"0.001": 5.12364537387,
			"0.002": 5.25734816857,
			"0.003": 4.91115793766,
			"0.004": 5.5390646453,
			"0.005": 4.79575567723,
			"0.006": 6.12829289663,
			"0.007": 5.8997230279,
			"0.008": 7.18572385734,
			"0.009": 9.91379077878,
			"0.01": 7.80647119287,
			"0.011": 2.310619787,
			"0.012": 2.72104746394,
			"0.013": 1.42860605823,
			"0.014": 1.00543618673,
			"0.015": 0.0604385843058,
			"0.016": 0.0,
			"0.017": 0.0,
			"0.018": 0.0,
			"0.019": 0.0,
			"0.02": 0.0,
			"0.021": 0.0,
			"0.022": 0.0,
			"0.023": 0.0,
			"0.024": 0.0,
			"0.025": 0.0
		}
	}
}
