{
	 "smiles": "NC1=C(F)C=CC(Cl)=C1F", 
	 "Tm": 320.15, 
	 "num_atms": 14, 
	 "gaussian": { 
		 "optdone": 1, 
		 "sigma_profile": "yes", 
		 "theory": "DFT", 
		 "functional": "B3LYP", 
		 "basiset": "6-31G**", 
		 "properties": { 
			 "R2extent": 2822.4542, 
			 "electric_dipole_moment_norm": 2.07712804372, 
			 "electric_quadrupole_moment_norm": 11.1884606855, 
			 "total_energy": -945.657838263, 
			 "HOMO_LUMO_gap": 0.21155, 
			 "cosmo_polarized_energy": -6.55, 
			 "cosmo_cavitation_energy": 20.93, 
			 "cosmo_dispersion_energy": -15.7, 
			 "cosmo_repulsion_energy": 1.24, 
			 "cosmo_total_nonelectrostatic_energy": 6.47, 
			 "SMD_solvation_energy": 4.19 
		},
		"coords": [
			{
				"x": 1.0456123502,
				"y": 2.3233716718,
				"z": 0.9009874622,
				"element": "N" 
			},
			{
				"x": 1.1126280416,
				"y": 1.0009469605,
				"z": 1.3072508898,
				"element": "C" 
			},
			{
				"x": 2.1847987651,
				"y": 0.1694285505,
				"z": 0.9581024237,
				"element": "C" 
			},
			{
				"x": 3.2000917984,
				"y": 0.7427467752,
				"z": 0.2654777222,
				"element": "F" 
			},
			{
				"x": 2.241129568,
				"y": -1.1708180481,
				"z": 1.3010559909,
				"element": "C" 
			},
			{
				"x": 1.1923248218,
				"y": -1.7390911046,
				"z": 2.0274407544,
				"element": "C" 
			},
			{
				"x": 0.1102595835,
				"y": -0.940941831,
				"z": 2.4002372142,
				"element": "C" 
			},
			{
				"x": -1.2181143461,
				"y": -1.6053837003,
				"z": 3.320715023,
				"element": "Cl" 
			},
			{
				"x": 0.0799027778,
				"y": 0.4040233191,
				"z": 2.0414256769,
				"element": "C" 
			},
			{
				"x": -0.9516500794,
				"y": 1.1949343634,
				"z": 2.4045961271,
				"element": "F" 
			},
			{
				"x": 0.4388397932,
				"y": 2.9093789678,
				"z": 1.4561497222,
				"element": "H" 
			},
			{
				"x": 1.9379143406,
				"y": 2.7422119923,
				"z": 0.6813375664,
				"element": "H" 
			},
			{
				"x": 3.1013001382,
				"y": -1.757877269,
				"z": 0.999827086,
				"element": "H" 
			},
			{
				"x": 1.210462447,
				"y": -2.7853306477,
				"z": 2.306696341,
				"element": "H" 
			}
		],
		 "valence_orbital": [ 
			{
				"type": "occ",
				"energy": -0.35769,
				"method": "rhf"
			},
			{
				"type": "occ",
				"energy": -0.3171,
				"method": "rhf"
			},
			{
				"type": "occ",
				"energy": -0.31309,
				"method": "rhf"
			},
			{
				"type": "occ",
				"energy": -0.24554,
				"method": "rhf"
			},
			{
				"type": "occ",
				"energy": -0.21935,
				"method": "rhf"
			},
			{
				"type": "unocc",
				"energy": -0.0078,
				"method": "rhf"
			},
			{
				"type": "unocc",
				"energy": -0.00556,
				"method": "rhf"
			},
			{
				"type": "unocc",
				"energy": 0.01858,
				"method": "rhf"
			},
			{
				"type": "unocc",
				"energy": 0.07123,
				"method": "rhf"
			},
			{
				"type": "unocc",
				"energy": 0.10924,
				"method": "rhf"
			}
		],
		"cosmo_sigma_profile": { 
			"-0.025": 0.0,
			"-0.024": 0.0,
			"-0.023": 0.0,
			"-0.022": 0.0,
			"-0.021": 0.0,
			"-0.02": 0.0,
			"-0.019": 0.0,
			"-0.018": 0.0,
			"-0.017": 0.0,
			"-0.016": 0.0,
			"-0.015": 0.0,
			"-0.014": 0.0,
			"-0.013": 1.25979988765,
			"-0.012": 2.07822953742,
			"-0.011": 2.09650851547,
			"-0.01": 2.60559570644,
			"-0.009": 2.27626178961,
			"-0.008": 3.60697198891,
			"-0.007": 5.14910701672,
			"-0.006": 5.70773561968,
			"-0.005": 6.27433526542,
			"-0.004": 4.11397456284,
			"-0.003": 6.07235896064,
			"-0.002": 6.90722026221,
			"-0.001": 9.53554284177,
			"0.0": 16.7363414886,
			"0.001": 20.4365965448,
			"0.002": 18.650495411,
			"0.003": 21.5899432104,
			"0.004": 23.0127670098,
			"0.005": 7.28397541521,
			"0.006": 1.09241813535,
			"0.007": 0.698029166546,
			"0.008": 0.903783146971,
			"0.009": 0.331498948831,
			"0.01": 0.380948635587,
			"0.011": 1.02453476666,
			"0.012": 0.474646568067,
			"0.013": 0.223837290338,
			"0.014": 0.0,
			"0.015": 0.0,
			"0.016": 0.0,
			"0.017": 0.0,
			"0.018": 0.0,
			"0.019": 0.0,
			"0.02": 0.0,
			"0.021": 0.0,
			"0.022": 0.0,
			"0.023": 0.0,
			"0.024": 0.0,
			"0.025": 0.0
		}
	}
}
