{
	 "smiles": "[O-][N+](=O)C1=CC=CC2=C1NN=C2", 
	 "Tm": 460.15, 
	 "num_atms": 17, 
	 "gaussian": { 
		 "optdone": 1, 
		 "sigma_profile": "yes", 
		 "theory": "DFT", 
		 "functional": "B3LYP", 
		 "basiset": "6-31G**", 
		 "properties": { 
			 "R2extent": 2547.31, 
			 "electric_dipole_moment_norm": 3.90773299625, 
			 "electric_quadrupole_moment_norm": 9.86496899336, 
			 "total_energy": -584.347103822, 
			 "HOMO_LUMO_gap": 0.15038, 
			 "cosmo_polarized_energy": -10.24, 
			 "cosmo_cavitation_energy": 22.0, 
			 "cosmo_dispersion_energy": -16.77, 
			 "cosmo_repulsion_energy": 1.31, 
			 "cosmo_total_nonelectrostatic_energy": 6.54, 
			 "SMD_solvation_energy": 4.89 
		},
		"coords": [
			{
				"x": 0.2650496062,
				"y": -3.9967811312,
				"z": -2.1885247551,
				"element": "O" 
			},
			{
				"x": 0.1771645639,
				"y": -2.7808902505,
				"z": -2.3437506865,
				"element": "N" 
			},
			{
				"x": 0.3114661245,
				"y": -2.2026576739,
				"z": -3.433182281,
				"element": "O" 
			},
			{
				"x": -0.1012677696,
				"y": -1.9472509257,
				"z": -1.1909129469,
				"element": "C" 
			},
			{
				"x": -0.2655323135,
				"y": -2.51465462,
				"z": 0.0664757461,
				"element": "C" 
			},
			{
				"x": -0.535491286,
				"y": -1.7080909999,
				"z": 1.1852346225,
				"element": "C" 
			},
			{
				"x": -0.6450867818,
				"y": -0.3256966735,
				"z": 1.0645345393,
				"element": "C" 
			},
			{
				"x": -0.4818936574,
				"y": 0.2629585651,
				"z": -0.1983087552,
				"element": "C" 
			},
			{
				"x": -0.2087375432,
				"y": -0.5506933251,
				"z": -1.3316370557,
				"element": "C" 
			},
			{
				"x": -0.1059500607,
				"y": 0.2950664062,
				"z": -2.3858695138,
				"element": "N" 
			},
			{
				"x": -0.2900655326,
				"y": 1.5952545997,
				"z": -2.0313535799,
				"element": "N" 
			},
			{
				"x": -0.5148939818,
				"y": 1.5912629225,
				"z": -0.7316105306,
				"element": "C" 
			},
			{
				"x": -0.1797183865,
				"y": -3.5907677527,
				"z": 0.15744278,
				"element": "H" 
			},
			{
				"x": -0.6590224876,
				"y": -2.1786777227,
				"z": 2.154698939,
				"element": "H" 
			},
			{
				"x": -0.8539569444,
				"y": 0.2874074761,
				"z": 1.9361705346,
				"element": "H" 
			},
			{
				"x": 0.0844308269,
				"y": 0.0291745102,
				"z": -3.3398954308,
				"element": "H" 
			},
			{
				"x": -0.6930943763,
				"y": 2.5218365953,
				"z": -0.2101116259,
				"element": "H" 
			}
		],
		 "valence_orbital": [ 
			{
				"type": "occ",
				"energy": -0.31463,
				"method": "rhf"
			},
			{
				"type": "occ",
				"energy": -0.31012,
				"method": "rhf"
			},
			{
				"type": "occ",
				"energy": -0.29945,
				"method": "rhf"
			},
			{
				"type": "occ",
				"energy": -0.26881,
				"method": "rhf"
			},
			{
				"type": "occ",
				"energy": -0.25041,
				"method": "rhf"
			},
			{
				"type": "unocc",
				"energy": -0.10003,
				"method": "rhf"
			},
			{
				"type": "unocc",
				"energy": -0.02962,
				"method": "rhf"
			},
			{
				"type": "unocc",
				"energy": -0.00779,
				"method": "rhf"
			},
			{
				"type": "unocc",
				"energy": 0.04528,
				"method": "rhf"
			},
			{
				"type": "unocc",
				"energy": 0.08184,
				"method": "rhf"
			}
		],
		"cosmo_sigma_profile": { 
			"-0.025": 0.0,
			"-0.024": 0.0,
			"-0.023": 0.0,
			"-0.022": 0.0,
			"-0.021": 0.0,
			"-0.02": 0.0,
			"-0.019": 0.0,
			"-0.018": 0.0,
			"-0.017": 0.0,
			"-0.016": 0.0470961690761,
			"-0.015": 0.698195258865,
			"-0.014": 0.471053147064,
			"-0.013": 0.514309708413,
			"-0.012": 0.86078082838,
			"-0.011": 0.685236456369,
			"-0.01": 0.75663976918,
			"-0.009": 1.13254183513,
			"-0.008": 6.15290161531,
			"-0.007": 8.9422188485,
			"-0.006": 11.8273548638,
			"-0.005": 8.91905993056,
			"-0.004": 8.88252398958,
			"-0.003": 10.8050810104,
			"-0.002": 10.4186468419,
			"-0.001": 13.5272006051,
			"0.0": 16.157210716,
			"0.001": 15.3183041745,
			"0.002": 13.3383667755,
			"0.003": 5.66651464347,
			"0.004": 4.54677752962,
			"0.005": 3.99825792891,
			"0.006": 5.10533912304,
			"0.007": 7.22539920258,
			"0.008": 7.55071707265,
			"0.009": 5.16660525623,
			"0.01": 4.28266691469,
			"0.011": 1.39091290343,
			"0.012": 1.33536987548,
			"0.013": 0.948579710393,
			"0.014": 0.91603311293,
			"0.015": 0.265937326935,
			"0.016": 0.0,
			"0.017": 0.0,
			"0.018": 0.0,
			"0.019": 0.0,
			"0.02": 0.0,
			"0.021": 0.0,
			"0.022": 0.0,
			"0.023": 0.0,
			"0.024": 0.0,
			"0.025": 0.0
		}
	}
}
