{
	 "smiles": "NC1=C(Br)C=C(C=C1)[N+]([O-])=O", 
	 "Tm": 373.15, 
	 "num_atms": 16, 
	 "gaussian": { 
		 "optdone": 1, 
		 "sigma_profile": "yes", 
		 "theory": "DFT", 
		 "functional": "B3LYP", 
		 "basiset": "6-31G**", 
		 "properties": { 
			 "R2extent": 5432.2249, 
			 "electric_dipole_moment_norm": 6.49356370724, 
			 "electric_quadrupole_moment_norm": 16.1087666626, 
			 "total_energy": -3062.91327509, 
			 "HOMO_LUMO_gap": 0.15536, 
			 "cosmo_polarized_energy": -13.41, 
			 "cosmo_cavitation_energy": 23.26, 
			 "cosmo_dispersion_energy": -17.84, 
			 "cosmo_repulsion_energy": 1.43, 
			 "cosmo_total_nonelectrostatic_energy": 6.85, 
			 "SMD_solvation_energy": 5.19 
		},
		"coords": [
			{
				"x": -0.7597995588,
				"y": 3.9954183716,
				"z": -3.142881586,
				"element": "N" 
			},
			{
				"x": -0.6042925374,
				"y": 2.8071500573,
				"z": -2.4867043862,
				"element": "C" 
			},
			{
				"x": 0.6075906246,
				"y": 2.0759740698,
				"z": -2.5381003665,
				"element": "C" 
			},
			{
				"x": 2.051709374,
				"y": 2.7398279893,
				"z": -3.6045072552,
				"element": "Br" 
			},
			{
				"x": 0.7758033223,
				"y": 0.8922292525,
				"z": -1.841896101,
				"element": "C" 
			},
			{
				"x": -0.2803712665,
				"y": 0.406065343,
				"z": -1.070915258,
				"element": "C" 
			},
			{
				"x": -1.4944197369,
				"y": 1.0922226017,
				"z": -0.9942821385,
				"element": "C" 
			},
			{
				"x": -1.6485184002,
				"y": 2.2748934871,
				"z": -1.6950150253,
				"element": "C" 
			},
			{
				"x": -0.1078067356,
				"y": -0.8414250761,
				"z": -0.3379821896,
				"element": "N" 
			},
			{
				"x": 0.9782188789,
				"y": -1.418403582,
				"z": -0.4303675302,
				"element": "O" 
			},
			{
				"x": -1.060060991,
				"y": -1.2474795292,
				"z": 0.3325911862,
				"element": "O" 
			},
			{
				"x": -0.0763095349,
				"y": 4.25269035,
				"z": -3.8387719817,
				"element": "H" 
			},
			{
				"x": -1.6891398944,
				"y": 4.3660736137,
				"z": -3.2584147631,
				"element": "H" 
			},
			{
				"x": 1.7042648027,
				"y": 0.3386615731,
				"z": -1.887171413,
				"element": "H" 
			},
			{
				"x": -2.2947236456,
				"y": 0.6865996897,
				"z": -0.3883910573,
				"element": "H" 
			},
			{
				"x": -2.5875447016,
				"y": 2.8180017886,
				"z": -1.6382901346,
				"element": "H" 
			}
		],
		 "valence_orbital": [ 
			{
				"type": "occ",
				"energy": -0.30065,
				"method": "rhf"
			},
			{
				"type": "occ",
				"energy": -0.29904,
				"method": "rhf"
			},
			{
				"type": "occ",
				"energy": -0.28224,
				"method": "rhf"
			},
			{
				"type": "occ",
				"energy": -0.26948,
				"method": "rhf"
			},
			{
				"type": "occ",
				"energy": -0.23485,
				"method": "rhf"
			},
			{
				"type": "unocc",
				"energy": -0.07949,
				"method": "rhf"
			},
			{
				"type": "unocc",
				"energy": -0.03188,
				"method": "rhf"
			},
			{
				"type": "unocc",
				"energy": -0.01123,
				"method": "rhf"
			},
			{
				"type": "unocc",
				"energy": 0.01144,
				"method": "rhf"
			},
			{
				"type": "unocc",
				"energy": 0.06196,
				"method": "rhf"
			}
		],
		"cosmo_sigma_profile": { 
			"-0.025": 0.0,
			"-0.024": 0.0,
			"-0.023": 0.0,
			"-0.022": 0.0,
			"-0.021": 0.0,
			"-0.02": 0.0,
			"-0.019": 0.0,
			"-0.018": 0.0,
			"-0.017": 0.0,
			"-0.016": 0.0,
			"-0.015": 0.785591071652,
			"-0.014": 1.70779350993,
			"-0.013": 2.21421346862,
			"-0.012": 2.61089931111,
			"-0.011": 2.65585682035,
			"-0.01": 2.58308879344,
			"-0.009": 1.69921646608,
			"-0.008": 4.09536582463,
			"-0.007": 5.7242720056,
			"-0.006": 5.86791597374,
			"-0.005": 7.50693906305,
			"-0.004": 7.15107893428,
			"-0.003": 9.09355490948,
			"-0.002": 11.5065781874,
			"-0.001": 12.9601130091,
			"0.0": 19.094445526,
			"0.001": 21.7594516595,
			"0.002": 15.2119845717,
			"0.003": 12.2129399448,
			"0.004": 8.48327163346,
			"0.005": 3.83939372306,
			"0.006": 3.32859223362,
			"0.007": 4.59948493502,
			"0.008": 10.2754381372,
			"0.009": 6.17036364557,
			"0.01": 4.41876007203,
			"0.011": 2.23135290956,
			"0.012": 0.0,
			"0.013": 0.0,
			"0.014": 0.0,
			"0.015": 0.0,
			"0.016": 0.0,
			"0.017": 0.0,
			"0.018": 0.0,
			"0.019": 0.0,
			"0.02": 0.0,
			"0.021": 0.0,
			"0.022": 0.0,
			"0.023": 0.0,
			"0.024": 0.0,
			"0.025": 0.0
		}
	}
}
