{
	 "smiles": "O=C1CNC(=O)C2=C(N1)C=CC=C2", 
	 "Tm": 598.15, 
	 "num_atms": 21, 
	 "gaussian": { 
		 "optdone": 1, 
		 "sigma_profile": "yes", 
		 "theory": "DFT", 
		 "functional": "B3LYP", 
		 "basiset": "6-31G**", 
		 "properties": { 
			 "R2extent": 3212.5096, 
			 "electric_dipole_moment_norm": 2.97309939625, 
			 "electric_quadrupole_moment_norm": 18.5558469284, 
			 "total_energy": -607.756520435, 
			 "HOMO_LUMO_gap": 0.19245, 
			 "cosmo_polarized_energy": -17.55, 
			 "cosmo_cavitation_energy": 24.92, 
			 "cosmo_dispersion_energy": -18.73, 
			 "cosmo_repulsion_energy": 1.47, 
			 "cosmo_total_nonelectrostatic_energy": 7.66, 
			 "SMD_solvation_energy": 4.84 
		},
		"coords": [
			{
				"x": 0.9031907579,
				"y": 1.8025235823,
				"z": 2.0938516962,
				"element": "O" 
			},
			{
				"x": 0.0826047436,
				"y": 1.0360940224,
				"z": 1.618835107,
				"element": "C" 
			},
			{
				"x": -0.1328424069,
				"y": -0.3853241726,
				"z": 2.1231811598,
				"element": "C" 
			},
			{
				"x": -1.5053143512,
				"y": -0.6128251165,
				"z": 2.5396640408,
				"element": "N" 
			},
			{
				"x": -2.5806069111,
				"y": -0.7837758123,
				"z": 1.7086860173,
				"element": "C" 
			},
			{
				"x": -3.64213957,
				"y": -1.2303985564,
				"z": 2.1324892987,
				"element": "O" 
			},
			{
				"x": -2.4145751061,
				"y": -0.4062259274,
				"z": 0.2637764054,
				"element": "C" 
			},
			{
				"x": -1.579199096,
				"y": 0.6184163693,
				"z": -0.2367249922,
				"element": "C" 
			},
			{
				"x": -0.7223644569,
				"y": 1.406576825,
				"z": 0.5607652224,
				"element": "N" 
			},
			{
				"x": -1.6346287734,
				"y": 0.9389273343,
				"z": -1.6050528347,
				"element": "C" 
			},
			{
				"x": -2.4818319717,
				"y": 0.257573784,
				"z": -2.4689773907,
				"element": "C" 
			},
			{
				"x": -3.300730097,
				"y": -0.7663131335,
				"z": -1.9833385701,
				"element": "C" 
			},
			{
				"x": -3.266386369,
				"y": -1.0760359494,
				"z": -0.6308476274,
				"element": "C" 
			},
			{
				"x": 0.1689156101,
				"y": -1.0988274449,
				"z": 1.3431784212,
				"element": "H" 
			},
			{
				"x": 0.5261939611,
				"y": -0.520000455,
				"z": 2.9799440881,
				"element": "H" 
			},
			{
				"x": -1.6843162591,
				"y": -0.876223421,
				"z": 3.49896906,
				"element": "H" 
			},
			{
				"x": -0.4836964335,
				"y": 2.3209220266,
				"z": 0.1956535941,
				"element": "H" 
			},
			{
				"x": -0.9943787783,
				"y": 1.731711419,
				"z": -1.9829780734,
				"element": "H" 
			},
			{
				"x": -2.4999699937,
				"y": 0.5245424478,
				"z": -3.5214984232,
				"element": "H" 
			},
			{
				"x": -3.9660107661,
				"y": -1.3039558121,
				"z": -2.6512111053,
				"element": "H" 
			},
			{
				"x": -3.9203137326,
				"y": -1.8335820094,
				"z": -0.2130650941,
				"element": "H" 
			}
		],
		 "valence_orbital": [ 
			{
				"type": "occ",
				"energy": -0.28909,
				"method": "rhf"
			},
			{
				"type": "occ",
				"energy": -0.27143,
				"method": "rhf"
			},
			{
				"type": "occ",
				"energy": -0.25799,
				"method": "rhf"
			},
			{
				"type": "occ",
				"energy": -0.24755,
				"method": "rhf"
			},
			{
				"type": "occ",
				"energy": -0.23637,
				"method": "rhf"
			},
			{
				"type": "unocc",
				"energy": -0.04392,
				"method": "rhf"
			},
			{
				"type": "unocc",
				"energy": -0.02494,
				"method": "rhf"
			},
			{
				"type": "unocc",
				"energy": 0.01607,
				"method": "rhf"
			},
			{
				"type": "unocc",
				"energy": 0.0472,
				"method": "rhf"
			},
			{
				"type": "unocc",
				"energy": 0.07212,
				"method": "rhf"
			}
		],
		"cosmo_sigma_profile": { 
			"-0.025": 0.0,
			"-0.024": 0.0,
			"-0.023": 0.0,
			"-0.022": 0.0,
			"-0.021": 0.0,
			"-0.02": 0.0,
			"-0.019": 0.0,
			"-0.018": 0.0,
			"-0.017": 0.0,
			"-0.016": 0.00116071445075,
			"-0.015": 1.0670614879,
			"-0.014": 2.3069822302,
			"-0.013": 3.05936123626,
			"-0.012": 2.3240853772,
			"-0.011": 1.84595764169,
			"-0.01": 2.76357991797,
			"-0.009": 2.92422298984,
			"-0.008": 4.29736670726,
			"-0.007": 9.16566027738,
			"-0.006": 12.2542755651,
			"-0.005": 13.4040825322,
			"-0.004": 12.9931803149,
			"-0.003": 9.4294471108,
			"-0.002": 10.0038060749,
			"-0.001": 11.6048883105,
			"0.0": 11.4870313732,
			"0.001": 13.2277598129,
			"0.002": 11.3269045465,
			"0.003": 11.6016101335,
			"0.004": 10.983462549,
			"0.005": 3.82253436954,
			"0.006": 3.2901398163,
			"0.007": 2.03836673316,
			"0.008": 1.78617922134,
			"0.009": 2.88043384855,
			"0.01": 3.02532619114,
			"0.011": 4.39938223539,
			"0.012": 6.23791131734,
			"0.013": 8.52623854197,
			"0.014": 4.55393852241,
			"0.015": 0.188471859256,
			"0.016": 0.0,
			"0.017": 0.0,
			"0.018": 0.0,
			"0.019": 0.0,
			"0.02": 0.0,
			"0.021": 0.0,
			"0.022": 0.0,
			"0.023": 0.0,
			"0.024": 0.0,
			"0.025": 0.0
		}
	}
}
