{
	 "smiles": "OC(=O)C1=CC2=C(C=C1)C(=O)N1CCCC1=N2", 
	 "Tm": 628.15, 
	 "num_atms": 27, 
	 "gaussian": { 
		 "optdone": 1, 
		 "sigma_profile": "yes", 
		 "theory": "DFT", 
		 "functional": "B3LYP", 
		 "basiset": "6-31G**", 
		 "properties": { 
			 "R2extent": 5141.4676, 
			 "electric_dipole_moment_norm": 5.4599307056, 
			 "electric_quadrupole_moment_norm": 28.4775797662, 
			 "total_energy": -798.525873312, 
			 "HOMO_LUMO_gap": 0.17047, 
			 "cosmo_polarized_energy": -20.87, 
			 "cosmo_cavitation_energy": 31.08, 
			 "cosmo_dispersion_energy": -23.31, 
			 "cosmo_repulsion_energy": 1.77, 
			 "cosmo_total_nonelectrostatic_energy": 9.54, 
			 "SMD_solvation_energy": 4.54 
		},
		"coords": [
			{
				"x": 3.3687618165,
				"y": 0.9564999987,
				"z": -4.758883041,
				"element": "O" 
			},
			{
				"x": 2.9482168488,
				"y": 1.6238134573,
				"z": -3.6510530249,
				"element": "C" 
			},
			{
				"x": 3.2310611183,
				"y": 2.7881017421,
				"z": -3.5013059635,
				"element": "O" 
			},
			{
				"x": 2.1335327726,
				"y": 0.8358955604,
				"z": -2.6635034956,
				"element": "C" 
			},
			{
				"x": 1.311057231,
				"y": 1.5479890692,
				"z": -1.7976452178,
				"element": "C" 
			},
			{
				"x": 0.5160118864,
				"y": 0.877668301,
				"z": -0.8501131905,
				"element": "C" 
			},
			{
				"x": 0.5854778681,
				"y": -0.5373287321,
				"z": -0.7833711265,
				"element": "C" 
			},
			{
				"x": 1.4352312589,
				"y": -1.2486760916,
				"z": -1.643470689,
				"element": "C" 
			},
			{
				"x": 2.2022630664,
				"y": -0.5725962857,
				"z": -2.5774429601,
				"element": "C" 
			},
			{
				"x": -0.2329968909,
				"y": -1.2656978765,
				"z": 0.1998514758,
				"element": "C" 
			},
			{
				"x": -0.2748639611,
				"y": -2.4802928884,
				"z": 0.3524423567,
				"element": "O" 
			},
			{
				"x": -0.9971757866,
				"y": -0.4046562015,
				"z": 0.9909319655,
				"element": "N" 
			},
			{
				"x": -1.9016613631,
				"y": -0.8761617765,
				"z": 2.0479990241,
				"element": "C" 
			},
			{
				"x": -2.1794031874,
				"y": 0.4084326888,
				"z": 2.8550014428,
				"element": "C" 
			},
			{
				"x": -1.9797470525,
				"y": 1.5503174804,
				"z": 1.8352321238,
				"element": "C" 
			},
			{
				"x": -1.0034859427,
				"y": 0.9678822441,
				"z": 0.8417679306,
				"element": "C" 
			},
			{
				"x": -0.301997859,
				"y": 1.631184763,
				"z": -0.0163291358,
				"element": "N" 
			},
			{
				"x": 2.9363248075,
				"y": 0.0929457406,
				"z": -4.8133108542,
				"element": "H" 
			},
			{
				"x": 1.275442371,
				"y": 2.6299621904,
				"z": -1.8502808162,
				"element": "H" 
			},
			{
				"x": 1.4753367478,
				"y": -2.3286779643,
				"z": -1.5482553641,
				"element": "H" 
			},
			{
				"x": 2.8863044538,
				"y": -1.1346638177,
				"z": -3.2079412605,
				"element": "H" 
			},
			{
				"x": -1.4180807534,
				"y": -1.671498321,
				"z": 2.6177511933,
				"element": "H" 
			},
			{
				"x": -2.8081356728,
				"y": -1.2932026279,
				"z": 1.5938427997,
				"element": "H" 
			},
			{
				"x": -1.4478402038,
				"y": 0.499746564,
				"z": 3.6638978346,
				"element": "H" 
			},
			{
				"x": -3.1746737236,
				"y": 0.4040024648,
				"z": 3.3036920253,
				"element": "H" 
			},
			{
				"x": -2.9134364235,
				"y": 1.7921328126,
				"z": 1.3114557559,
				"element": "H" 
			},
			{
				"x": -1.5991234268,
				"y": 2.4781775056,
				"z": 2.2662402115,
				"element": "H" 
			}
		],
		 "valence_orbital": [ 
			{
				"type": "occ",
				"energy": -0.28322,
				"method": "rhf"
			},
			{
				"type": "occ",
				"energy": -0.28006,
				"method": "rhf"
			},
			{
				"type": "occ",
				"energy": -0.27213,
				"method": "rhf"
			},
			{
				"type": "occ",
				"energy": -0.26794,
				"method": "rhf"
			},
			{
				"type": "occ",
				"energy": -0.2399,
				"method": "rhf"
			},
			{
				"type": "unocc",
				"energy": -0.06943,
				"method": "rhf"
			},
			{
				"type": "unocc",
				"energy": -0.04736,
				"method": "rhf"
			},
			{
				"type": "unocc",
				"energy": 0.01263,
				"method": "rhf"
			},
			{
				"type": "unocc",
				"energy": 0.01454,
				"method": "rhf"
			},
			{
				"type": "unocc",
				"energy": 0.06289,
				"method": "rhf"
			}
		],
		"cosmo_sigma_profile": { 
			"-0.025": 0.0,
			"-0.024": 0.0,
			"-0.023": 0.0,
			"-0.022": 0.0,
			"-0.021": 0.0,
			"-0.02": 0.0,
			"-0.019": 0.323867976934,
			"-0.018": 1.12574311106,
			"-0.017": 0.837198369309,
			"-0.016": 1.17193376579,
			"-0.015": 0.745858197484,
			"-0.014": 0.885772799433,
			"-0.013": 1.37218541439,
			"-0.012": 1.21600576583,
			"-0.011": 0.843306412118,
			"-0.01": 1.38097071796,
			"-0.009": 1.1837376808,
			"-0.008": 2.20082104711,
			"-0.007": 4.24143160505,
			"-0.006": 17.2884372657,
			"-0.005": 24.7011736904,
			"-0.004": 26.4226434399,
			"-0.003": 18.8884550955,
			"-0.002": 16.9682276151,
			"-0.001": 12.7963293325,
			"0.0": 12.814922042,
			"0.001": 18.7583250463,
			"0.002": 11.8412400359,
			"0.003": 7.04123874791,
			"0.004": 5.03648696382,
			"0.005": 5.64967318561,
			"0.006": 5.6123895332,
			"0.007": 5.15390847026,
			"0.008": 5.09661202677,
			"0.009": 5.43938668046,
			"0.01": 7.87319027299,
			"0.011": 8.22784199748,
			"0.012": 8.92592413876,
			"0.013": 5.08519157988,
			"0.014": 0.569197181283,
			"0.015": 0.626262018081,
			"0.016": 0.012667937879,
			"0.017": 0.0,
			"0.018": 0.0,
			"0.019": 0.0,
			"0.02": 0.0,
			"0.021": 0.0,
			"0.022": 0.0,
			"0.023": 0.0,
			"0.024": 0.0,
			"0.025": 0.0
		}
	}
}
