{
	 "smiles": "ONC1=NC2=C(NC1=O)C=CC=C2", 
	 "Tm": 532.15, 
	 "num_atms": 20, 
	 "gaussian": { 
		 "optdone": 1, 
		 "sigma_profile": "yes", 
		 "theory": "DFT", 
		 "functional": "B3LYP", 
		 "basiset": "6-31G**", 
		 "properties": { 
			 "R2extent": 2724.7395, 
			 "electric_dipole_moment_norm": 3.7359994834, 
			 "electric_quadrupole_moment_norm": 10.7784016969, 
			 "total_energy": -623.73469526, 
			 "HOMO_LUMO_gap": 0.14554, 
			 "cosmo_polarized_energy": -13.85, 
			 "cosmo_cavitation_energy": 24.42, 
			 "cosmo_dispersion_energy": -18.82, 
			 "cosmo_repulsion_energy": 1.47, 
			 "cosmo_total_nonelectrostatic_energy": 7.06, 
			 "SMD_solvation_energy": 3.92 
		},
		"coords": [
			{
				"x": -2.2002133837,
				"y": -1.5122531159,
				"z": -2.5840780874,
				"element": "O" 
			},
			{
				"x": -1.0944252397,
				"y": -1.5065959358,
				"z": -1.6921131312,
				"element": "N" 
			},
			{
				"x": -0.8088699899,
				"y": -0.3448262091,
				"z": -1.0110485092,
				"element": "C" 
			},
			{
				"x": 0.4316047303,
				"y": -0.0335305058,
				"z": -0.7671704867,
				"element": "N" 
			},
			{
				"x": 0.7014054615,
				"y": 1.0350347982,
				"z": 0.066289008,
				"element": "C" 
			},
			{
				"x": -0.3319434083,
				"y": 1.8269216667,
				"z": 0.6212543507,
				"element": "C" 
			},
			{
				"x": -1.6396684753,
				"y": 1.4629951397,
				"z": 0.310513709,
				"element": "N" 
			},
			{
				"x": -1.9867636907,
				"y": 0.3852644031,
				"z": -0.4579560845,
				"element": "C" 
			},
			{
				"x": -3.1637265482,
				"y": 0.0609226367,
				"z": -0.6492081369,
				"element": "O" 
			},
			{
				"x": -0.0417292015,
				"y": 2.9208491149,
				"z": 1.4444214467,
				"element": "C" 
			},
			{
				"x": 1.2843973103,
				"y": 3.2333694101,
				"z": 1.720409843,
				"element": "C" 
			},
			{
				"x": 2.3232565342,
				"y": 2.4600200398,
				"z": 1.1787214449,
				"element": "C" 
			},
			{
				"x": 2.0343262822,
				"y": 1.3756576554,
				"z": 0.3624151956,
				"element": "C" 
			},
			{
				"x": -2.9317133091,
				"y": -1.2307784709,
				"z": -1.9955732712,
				"element": "H" 
			},
			{
				"x": -0.2944573082,
				"y": -1.895679709,
				"z": -2.1789972663,
				"element": "H" 
			},
			{
				"x": -2.4167958309,
				"y": 1.9776637098,
				"z": 0.7086844385,
				"element": "H" 
			},
			{
				"x": -0.8518439232,
				"y": 3.5147122149,
				"z": 1.8599374598,
				"element": "H" 
			},
			{
				"x": 1.5125817074,
				"y": 4.081092962,
				"z": 2.3588048695,
				"element": "H" 
			},
			{
				"x": 3.3558634767,
				"y": 2.7115909047,
				"z": 1.3992546681,
				"element": "H" 
			},
			{
				"x": 2.8184148058,
				"y": 0.7628692906,
				"z": -0.0697614602,
				"element": "H" 
			}
		],
		 "valence_orbital": [ 
			{
				"type": "occ",
				"energy": -0.30968,
				"method": "rhf"
			},
			{
				"type": "occ",
				"energy": -0.27156,
				"method": "rhf"
			},
			{
				"type": "occ",
				"energy": -0.25957,
				"method": "rhf"
			},
			{
				"type": "occ",
				"energy": -0.24413,
				"method": "rhf"
			},
			{
				"type": "occ",
				"energy": -0.20942,
				"method": "rhf"
			},
			{
				"type": "unocc",
				"energy": -0.06388,
				"method": "rhf"
			},
			{
				"type": "unocc",
				"energy": -0.01535,
				"method": "rhf"
			},
			{
				"type": "unocc",
				"energy": -0.00185,
				"method": "rhf"
			},
			{
				"type": "unocc",
				"energy": 0.067,
				"method": "rhf"
			},
			{
				"type": "unocc",
				"energy": 0.07127,
				"method": "rhf"
			}
		],
		"cosmo_sigma_profile": { 
			"-0.025": 0.0,
			"-0.024": 0.0,
			"-0.023": 0.0,
			"-0.022": 0.0,
			"-0.021": 0.0,
			"-0.02": 0.0,
			"-0.019": 0.0,
			"-0.018": 0.0,
			"-0.017": 0.471785001615,
			"-0.016": 1.53400004288,
			"-0.015": 1.69003358778,
			"-0.014": 2.11345034533,
			"-0.013": 1.67669488778,
			"-0.012": 2.65610823351,
			"-0.011": 1.98795876673,
			"-0.01": 1.05597941893,
			"-0.009": 2.29535483467,
			"-0.008": 2.85147502624,
			"-0.007": 4.51066016393,
			"-0.006": 9.86033045433,
			"-0.005": 11.3135235941,
			"-0.004": 13.022277431,
			"-0.003": 11.5051495756,
			"-0.002": 12.1066016642,
			"-0.001": 10.194178787,
			"0.0": 10.0764656621,
			"0.001": 11.5103136553,
			"0.002": 13.9450582952,
			"0.003": 15.396960222,
			"0.004": 12.5888553618,
			"0.005": 8.14839636978,
			"0.006": 4.37640696556,
			"0.007": 5.24257985081,
			"0.008": 3.53307836598,
			"0.009": 4.65296160465,
			"0.01": 5.06863587201,
			"0.011": 5.16905602661,
			"0.012": 3.85351346654,
			"0.013": 1.30117552303,
			"0.014": 0.0,
			"0.015": 0.0,
			"0.016": 0.0,
			"0.017": 0.0,
			"0.018": 0.0,
			"0.019": 0.0,
			"0.02": 0.0,
			"0.021": 0.0,
			"0.022": 0.0,
			"0.023": 0.0,
			"0.024": 0.0,
			"0.025": 0.0
		}
	}
}
