{
	 "smiles": "CCOC(=O)C1CC(=O)C(=C(O)C2CC2)C(=O)C1", 
	 "Tm": 309.15, 
	 "num_atms": 34, 
	 "gaussian": { 
		 "optdone": 1, 
		 "sigma_profile": "yes", 
		 "theory": "DFT", 
		 "functional": "B3LYP", 
		 "basiset": "6-31G**", 
		 "properties": { 
			 "R2extent": 5297.3722, 
			 "electric_dipole_moment_norm": 4.39738570289, 
			 "electric_quadrupole_moment_norm": 16.1958394108, 
			 "total_energy": -881.109575878, 
			 "HOMO_LUMO_gap": 0.17074, 
			 "cosmo_polarized_energy": -22.35, 
			 "cosmo_cavitation_energy": 36.97, 
			 "cosmo_dispersion_energy": -24.9, 
			 "cosmo_repulsion_energy": 1.97, 
			 "cosmo_total_nonelectrostatic_energy": 14.04, 
			 "SMD_solvation_energy": 7.98 
		},
		"coords": [
			{
				"x": -1.4201665331,
				"y": -2.0226448773,
				"z": -1.1791727431,
				"element": "C" 
			},
			{
				"x": -0.8905190533,
				"y": -1.361353041,
				"z": -2.4368022058,
				"element": "C" 
			},
			{
				"x": -0.0867836474,
				"y": -0.2286643401,
				"z": -2.0262506778,
				"element": "O" 
			},
			{
				"x": 0.5005774454,
				"y": 0.4775948512,
				"z": -3.0151596828,
				"element": "C" 
			},
			{
				"x": 0.3740170512,
				"y": 0.2192640483,
				"z": -4.1926840189,
				"element": "O" 
			},
			{
				"x": 1.3638647995,
				"y": 1.6094443306,
				"z": -2.4703848585,
				"element": "C" 
			},
			{
				"x": 2.7266547195,
				"y": 1.0758230724,
				"z": -1.9910329623,
				"element": "C" 
			},
			{
				"x": 2.6856554775,
				"y": 0.2873197568,
				"z": -0.6801005801,
				"element": "C" 
			},
			{
				"x": 3.4410047065,
				"y": -0.6638452213,
				"z": -0.5460743802,
				"element": "O" 
			},
			{
				"x": 1.7494112806,
				"y": 0.7601774661,
				"z": 0.3796815512,
				"element": "C" 
			},
			{
				"x": 1.8528504654,
				"y": 0.2821258426,
				"z": 1.674035557,
				"element": "C" 
			},
			{
				"x": 2.840342536,
				"y": -0.563306449,
				"z": 1.9880274416,
				"element": "O" 
			},
			{
				"x": 0.938989404,
				"y": 0.6586679726,
				"z": 2.7923445213,
				"element": "C" 
			},
			{
				"x": 1.3281051809,
				"y": 0.4662942621,
				"z": 4.2469581154,
				"element": "C" 
			},
			{
				"x": 1.2393461055,
				"y": 1.8549171245,
				"z": 3.6701088942,
				"element": "C" 
			},
			{
				"x": 0.6743072675,
				"y": 1.7225130552,
				"z": 0.0380928449,
				"element": "C" 
			},
			{
				"x": -0.2228189725,
				"y": 2.0464809843,
				"z": 0.8120532423,
				"element": "O" 
			},
			{
				"x": 0.7069515454,
				"y": 2.4005423437,
				"z": -1.3323560453,
				"element": "C" 
			},
			{
				"x": -0.5982899409,
				"y": -2.3728988988,
				"z": -0.5484017649,
				"element": "H" 
			},
			{
				"x": -2.0410274338,
				"y": -2.8833750099,
				"z": -1.4467751583,
				"element": "H" 
			},
			{
				"x": -2.0294273362,
				"y": -1.3243649239,
				"z": -0.5981570598,
				"element": "H" 
			},
			{
				"x": -0.2656229794,
				"y": -2.0369708622,
				"z": -3.0285708696,
				"element": "H" 
			},
			{
				"x": -1.6950834446,
				"y": -1.0013403725,
				"z": -3.0855786165,
				"element": "H" 
			},
			{
				"x": 1.5276225325,
				"y": 2.2668252191,
				"z": -3.3287484013,
				"element": "H" 
			},
			{
				"x": 3.3896523541,
				"y": 1.9375658359,
				"z": -1.8268457778,
				"element": "H" 
			},
			{
				"x": 3.2063166657,
				"y": 0.4396367454,
				"z": -2.7386580852,
				"element": "H" 
			},
			{
				"x": 2.7076927706,
				"y": -0.8502772412,
				"z": 2.9040990168,
				"element": "H" 
			},
			{
				"x": -0.1101845968,
				"y": 0.5512835213,
				"z": 2.5471613374,
				"element": "H" 
			},
			{
				"x": 2.3233010932,
				"y": 0.1173188349,
				"z": 4.5181773756,
				"element": "H" 
			},
			{
				"x": 0.5526603946,
				"y": 0.1231920644,
				"z": 4.9241129811,
				"element": "H" 
			},
			{
				"x": 0.4026340585,
				"y": 2.4922873738,
				"z": 3.9335195041,
				"element": "H" 
			},
			{
				"x": 2.1738484355,
				"y": 2.3813192579,
				"z": 3.5018217612,
				"element": "H" 
			},
			{
				"x": 1.2750499605,
				"y": 3.3323601984,
				"z": -1.1962814553,
				"element": "H" 
			},
			{
				"x": -0.3196323123,
				"y": 2.6944870758,
				"z": -1.5644588007,
				"element": "H" 
			}
		],
		 "valence_orbital": [ 
			{
				"type": "occ",
				"energy": -0.29953,
				"method": "rhf"
			},
			{
				"type": "occ",
				"energy": -0.26641,
				"method": "rhf"
			},
			{
				"type": "occ",
				"energy": -0.24221,
				"method": "rhf"
			},
			{
				"type": "occ",
				"energy": -0.24193,
				"method": "rhf"
			},
			{
				"type": "occ",
				"energy": -0.22667,
				"method": "rhf"
			},
			{
				"type": "unocc",
				"energy": -0.05593,
				"method": "rhf"
			},
			{
				"type": "unocc",
				"energy": -0.00838,
				"method": "rhf"
			},
			{
				"type": "unocc",
				"energy": 0.01537,
				"method": "rhf"
			},
			{
				"type": "unocc",
				"energy": 0.05591,
				"method": "rhf"
			},
			{
				"type": "unocc",
				"energy": 0.06769,
				"method": "rhf"
			}
		],
		"cosmo_sigma_profile": { 
			"-0.025": 0.0,
			"-0.024": 0.0,
			"-0.023": 0.0,
			"-0.022": 0.0,
			"-0.021": 0.0,
			"-0.02": 0.0,
			"-0.019": 0.0,
			"-0.018": 0.146498461001,
			"-0.017": 0.88824705551,
			"-0.016": 1.14299573546,
			"-0.015": 0.352488615553,
			"-0.014": 1.00278627643,
			"-0.013": 1.45444663431,
			"-0.012": 0.901959664507,
			"-0.011": 1.12551887267,
			"-0.01": 1.03153062887,
			"-0.009": 1.0854547514,
			"-0.008": 2.02861330097,
			"-0.007": 7.53098550545,
			"-0.006": 18.5974088277,
			"-0.005": 27.590824403,
			"-0.004": 29.7945003343,
			"-0.003": 29.0857952362,
			"-0.002": 25.3032670182,
			"-0.001": 21.1645269494,
			"0.0": 19.0684196373,
			"0.001": 10.7215354508,
			"0.002": 9.29528338244,
			"0.003": 9.49995687276,
			"0.004": 7.69424856669,
			"0.005": 7.24020116978,
			"0.006": 4.97742316118,
			"0.007": 5.78640475069,
			"0.008": 4.64853080937,
			"0.009": 4.84632530713,
			"0.01": 5.473069772,
			"0.011": 7.48506078393,
			"0.012": 9.9563392616,
			"0.013": 7.6645866696,
			"0.014": 3.78816007241,
			"0.015": 1.64332448316,
			"0.016": 0.404537294276,
			"0.017": 0.0,
			"0.018": 0.0,
			"0.019": 0.0,
			"0.02": 0.0,
			"0.021": 0.0,
			"0.022": 0.0,
			"0.023": 0.0,
			"0.024": 0.0,
			"0.025": 0.0
		}
	}
}
