{
	 "smiles": "COC1=C(C=CC=C1)C1=NN=C(S)N1CCC1=CC=CC=C1", 
	 "Tm": 361.15, 
	 "num_atms": 39, 
	 "gaussian": { 
		 "optdone": 1, 
		 "sigma_profile": "yes", 
		 "theory": "DFT", 
		 "functional": "B3LYP", 
		 "basiset": "6-31G**", 
		 "properties": { 
			 "R2extent": 7142.1707, 
			 "electric_dipole_moment_norm": 3.72670201921, 
			 "electric_quadrupole_moment_norm": 18.2391751349, 
			 "total_energy": -1295.68617446, 
			 "HOMO_LUMO_gap": 0.19963, 
			 "cosmo_polarized_energy": -18.29, 
			 "cosmo_cavitation_energy": 43.6, 
			 "cosmo_dispersion_energy": -28.92, 
			 "cosmo_repulsion_energy": 2.17, 
			 "cosmo_total_nonelectrostatic_energy": 16.85, 
			 "SMD_solvation_energy": 5.31 
		},
		"coords": [
			{
				"x": 1.8534983766,
				"y": -1.4405486685,
				"z": -2.1128172018,
				"element": "C" 
			},
			{
				"x": 0.5886100199,
				"y": -0.7618974478,
				"z": -2.2050573141,
				"element": "O" 
			},
			{
				"x": 0.657590004,
				"y": 0.5401668455,
				"z": -2.6415880051,
				"element": "C" 
			},
			{
				"x": 0.7753629849,
				"y": 1.59667263,
				"z": -1.7182892115,
				"element": "C" 
			},
			{
				"x": 0.7640853219,
				"y": 2.9158643354,
				"z": -2.1967417242,
				"element": "C" 
			},
			{
				"x": 0.6403753254,
				"y": 3.1841470132,
				"z": -3.5592364952,
				"element": "C" 
			},
			{
				"x": 0.5264145497,
				"y": 2.1273944377,
				"z": -4.4650623036,
				"element": "C" 
			},
			{
				"x": 0.5369749646,
				"y": 0.8102384049,
				"z": -4.0076710159,
				"element": "C" 
			},
			{
				"x": 0.9208259649,
				"y": 1.3155807179,
				"z": -0.2739979201,
				"element": "C" 
			},
			{
				"x": 1.9802214659,
				"y": 0.7923640948,
				"z": 0.3027006794,
				"element": "N" 
			},
			{
				"x": 1.7268717108,
				"y": 0.696961853,
				"z": 1.6552848726,
				"element": "N" 
			},
			{
				"x": 0.5195618799,
				"y": 1.1743278092,
				"z": 1.8524030154,
				"element": "C" 
			},
			{
				"x": -0.2841173434,
				"y": 1.3092906971,
				"z": 3.4233537449,
				"element": "S" 
			},
			{
				"x": -0.0477055176,
				"y": 1.592132141,
				"z": 0.6737726941,
				"element": "N" 
			},
			{
				"x": -1.3891717252,
				"y": 2.1334083728,
				"z": 0.4513861477,
				"element": "C" 
			},
			{
				"x": -2.3812329732,
				"y": 1.1148602112,
				"z": -0.1495230773,
				"element": "C" 
			},
			{
				"x": -2.6414213551,
				"y": -0.0955423742,
				"z": 0.7203894128,
				"element": "C" 
			},
			{
				"x": -3.6104724918,
				"y": -0.0529324311,
				"z": 1.7328175268,
				"element": "C" 
			},
			{
				"x": -3.8388265974,
				"y": -1.1601544512,
				"z": 2.5500703242,
				"element": "C" 
			},
			{
				"x": -3.0984602093,
				"y": -2.3293910265,
				"z": 2.3646775449,
				"element": "C" 
			},
			{
				"x": -2.1335217351,
				"y": -2.3837318358,
				"z": 1.3578043922,
				"element": "C" 
			},
			{
				"x": -1.9068929616,
				"y": -1.2757108829,
				"z": 0.5392989346,
				"element": "C" 
			},
			{
				"x": 2.3528383071,
				"y": -1.4613643768,
				"z": -3.0897771216,
				"element": "H" 
			},
			{
				"x": 2.4946258625,
				"y": -0.9566059892,
				"z": -1.3699444913,
				"element": "H" 
			},
			{
				"x": 1.6261302152,
				"y": -2.4616524549,
				"z": -1.8013131465,
				"element": "H" 
			},
			{
				"x": 0.8742038127,
				"y": 3.7333404798,
				"z": -1.4895592133,
				"element": "H" 
			},
			{
				"x": 0.6385115344,
				"y": 4.2109602604,
				"z": -3.9116403648,
				"element": "H" 
			},
			{
				"x": 0.4273456743,
				"y": 2.3279541234,
				"z": -5.5279337801,
				"element": "H" 
			},
			{
				"x": 0.4340908862,
				"y": -0.0249197263,
				"z": -4.6934041776,
				"element": "H" 
			},
			{
				"x": 0.8795740741,
				"y": 1.2584117799,
				"z": 4.09837413,
				"element": "H" 
			},
			{
				"x": -1.298622763,
				"y": 2.9922272898,
				"z": -0.219291003,
				"element": "H" 
			},
			{
				"x": -1.7516521692,
				"y": 2.5038523624,
				"z": 1.4139883465,
				"element": "H" 
			},
			{
				"x": -2.0051655824,
				"y": 0.800728549,
				"z": -1.1280652959,
				"element": "H" 
			},
			{
				"x": -3.3166064388,
				"y": 1.6588059217,
				"z": -0.3293314269,
				"element": "H" 
			},
			{
				"x": -4.1967070572,
				"y": 0.8523557809,
				"z": 1.8770590462,
				"element": "H" 
			},
			{
				"x": -4.5965320784,
				"y": -1.1115324049,
				"z": 3.3271314146,
				"element": "H" 
			},
			{
				"x": -3.2754351704,
				"y": -3.1932328653,
				"z": 2.9990214059,
				"element": "H" 
			},
			{
				"x": -1.5559441261,
				"y": -3.2911977631,
				"z": 1.2061453825,
				"element": "H" 
			},
			{
				"x": -1.1590246395,
				"y": -1.3239314124,
				"z": -0.2484347255,
				"element": "H" 
			}
		],
		 "valence_orbital": [ 
			{
				"type": "occ",
				"energy": -0.25097,
				"method": "rhf"
			},
			{
				"type": "occ",
				"energy": -0.2477,
				"method": "rhf"
			},
			{
				"type": "occ",
				"energy": -0.24632,
				"method": "rhf"
			},
			{
				"type": "occ",
				"energy": -0.24085,
				"method": "rhf"
			},
			{
				"type": "occ",
				"energy": -0.22414,
				"method": "rhf"
			},
			{
				"type": "unocc",
				"energy": -0.02451,
				"method": "rhf"
			},
			{
				"type": "unocc",
				"energy": -0.01138,
				"method": "rhf"
			},
			{
				"type": "unocc",
				"energy": -0.00176,
				"method": "rhf"
			},
			{
				"type": "unocc",
				"energy": 0.00043,
				"method": "rhf"
			},
			{
				"type": "unocc",
				"energy": 0.01426,
				"method": "rhf"
			}
		],
		"cosmo_sigma_profile": { 
			"-0.025": 0.0,
			"-0.024": 0.0,
			"-0.023": 0.0,
			"-0.022": 0.0,
			"-0.021": 0.0,
			"-0.02": 0.0,
			"-0.019": 0.0,
			"-0.018": 0.0,
			"-0.017": 0.0,
			"-0.016": 0.0,
			"-0.015": 0.0,
			"-0.014": 0.0,
			"-0.013": 0.0295203282501,
			"-0.012": 1.05723225115,
			"-0.011": 1.60157540055,
			"-0.01": 1.69961923201,
			"-0.009": 0.743521569461,
			"-0.008": 1.67431982133,
			"-0.007": 6.62909588307,
			"-0.006": 20.0043713226,
			"-0.005": 33.7050082389,
			"-0.004": 29.7404034992,
			"-0.003": 31.4100485337,
			"-0.002": 28.8208300825,
			"-0.001": 23.7864573325,
			"0.0": 20.6143806214,
			"0.001": 21.4537910236,
			"0.002": 22.7681557936,
			"0.003": 21.7626056601,
			"0.004": 23.8546679302,
			"0.005": 16.5728477419,
			"0.006": 13.7935984657,
			"0.007": 6.2443324463,
			"0.008": 2.95566377267,
			"0.009": 2.16933952919,
			"0.01": 2.73040620047,
			"0.011": 2.3898535508,
			"0.012": 2.62315529198,
			"0.013": 2.87783139694,
			"0.014": 2.97157210493,
			"0.015": 2.29391490375,
			"0.016": 0.906552045737,
			"0.017": 0.279731010369,
			"0.018": 0.0,
			"0.019": 0.0,
			"0.02": 0.0,
			"0.021": 0.0,
			"0.022": 0.0,
			"0.023": 0.0,
			"0.024": 0.0,
			"0.025": 0.0
		}
	}
}
