{
	 "smiles": "CC1=NN(C2=C1C=C(C=O)C(Cl)=N2)C1=CC=CC=C1", 
	 "Tm": 463.15, 
	 "num_atms": 29, 
	 "gaussian": { 
		 "optdone": 1, 
		 "sigma_profile": "yes", 
		 "theory": "DFT", 
		 "functional": "B3LYP", 
		 "basiset": "6-31G**", 
		 "properties": { 
			 "R2extent": 6435.2067, 
			 "electric_dipole_moment_norm": 4.42499218643, 
			 "electric_quadrupole_moment_norm": 27.3986163028, 
			 "total_energy": -1239.16978636, 
			 "HOMO_LUMO_gap": 0.15081, 
			 "cosmo_polarized_energy": -13.2, 
			 "cosmo_cavitation_energy": 35.74, 
			 "cosmo_dispersion_energy": -26.06, 
			 "cosmo_repulsion_energy": 1.98, 
			 "cosmo_total_nonelectrostatic_energy": 11.66, 
			 "SMD_solvation_energy": 5.25 
		},
		"coords": [
			{
				"x": 3.1518891794,
				"y": -2.0420119819,
				"z": 0.9233347121,
				"element": "C" 
			},
			{
				"x": 1.9856606548,
				"y": -1.1989943633,
				"z": 0.5178933828,
				"element": "C" 
			},
			{
				"x": 0.9121375004,
				"y": -1.7352561272,
				"z": -0.0250230807,
				"element": "N" 
			},
			{
				"x": 0.0131293262,
				"y": -0.7256135419,
				"z": -0.2909784149,
				"element": "N" 
			},
			{
				"x": 0.5348022839,
				"y": 0.4813707965,
				"z": 0.0952621576,
				"element": "C" 
			},
			{
				"x": 1.8216048502,
				"y": 0.220115846,
				"z": 0.629080196,
				"element": "C" 
			},
			{
				"x": 2.5506251046,
				"y": 1.3109978955,
				"z": 1.0917089527,
				"element": "C" 
			},
			{
				"x": 1.9937987949,
				"y": 2.5918746237,
				"z": 1.0117095362,
				"element": "C" 
			},
			{
				"x": 2.8303850098,
				"y": 3.7049283776,
				"z": 1.5245261882,
				"element": "C" 
			},
			{
				"x": 2.5558105715,
				"y": 4.885117426,
				"z": 1.5558832649,
				"element": "O" 
			},
			{
				"x": 0.6835422326,
				"y": 2.7032979244,
				"z": 0.4481924038,
				"element": "C" 
			},
			{
				"x": -0.0889552363,
				"y": 4.263188433,
				"z": 0.3091971472,
				"element": "Cl" 
			},
			{
				"x": -0.0321642505,
				"y": 1.6920459251,
				"z": 0.0017535525,
				"element": "N" 
			},
			{
				"x": -1.2407075699,
				"y": -1.0551376723,
				"z": -0.8868561219,
				"element": "C" 
			},
			{
				"x": -1.512121562,
				"y": -2.3984637067,
				"z": -1.1808811271,
				"element": "C" 
			},
			{
				"x": -2.729934709,
				"y": -2.7414248731,
				"z": -1.7627455401,
				"element": "C" 
			},
			{
				"x": -3.6809018816,
				"y": -1.7619423765,
				"z": -2.0553022127,
				"element": "C" 
			},
			{
				"x": -3.4002450331,
				"y": -0.4283825437,
				"z": -1.7584151715,
				"element": "C" 
			},
			{
				"x": -2.1868174662,
				"y": -0.0625425317,
				"z": -1.1755094071,
				"element": "C" 
			},
			{
				"x": 4.061705684,
				"y": -1.7425942487,
				"z": 0.3911251473,
				"element": "H" 
			},
			{
				"x": 2.9462328771,
				"y": -3.0898738167,
				"z": 0.6970615086,
				"element": "H" 
			},
			{
				"x": 3.3534858234,
				"y": -1.9502546122,
				"z": 1.9964622662,
				"element": "H" 
			},
			{
				"x": 3.5456276322,
				"y": 1.1925155719,
				"z": 1.5152766651,
				"element": "H" 
			},
			{
				"x": 3.8111382846,
				"y": 3.3413287473,
				"z": 1.9101199248,
				"element": "H" 
			},
			{
				"x": -0.7703483449,
				"y": -3.152016888,
				"z": -0.9513622495,
				"element": "H" 
			},
			{
				"x": -2.933222318,
				"y": -3.7843595098,
				"z": -1.987763481,
				"element": "H" 
			},
			{
				"x": -4.6286188416,
				"y": -2.0355262473,
				"z": -2.5089924244,
				"element": "H" 
			},
			{
				"x": -4.129841991,
				"y": 0.3449922176,
				"z": -1.9799920827,
				"element": "H" 
			},
			{
				"x": -1.9752966054,
				"y": 0.9732212564,
				"z": -0.9477656923,
				"element": "H" 
			}
		],
		 "valence_orbital": [ 
			{
				"type": "occ",
				"energy": -0.28785,
				"method": "rhf"
			},
			{
				"type": "occ",
				"energy": -0.26475,
				"method": "rhf"
			},
			{
				"type": "occ",
				"energy": -0.25865,
				"method": "rhf"
			},
			{
				"type": "occ",
				"energy": -0.25537,
				"method": "rhf"
			},
			{
				"type": "occ",
				"energy": -0.22705,
				"method": "rhf"
			},
			{
				"type": "unocc",
				"energy": -0.07624,
				"method": "rhf"
			},
			{
				"type": "unocc",
				"energy": -0.06542,
				"method": "rhf"
			},
			{
				"type": "unocc",
				"energy": -0.01562,
				"method": "rhf"
			},
			{
				"type": "unocc",
				"energy": -0.00545,
				"method": "rhf"
			},
			{
				"type": "unocc",
				"energy": 0.03091,
				"method": "rhf"
			}
		],
		"cosmo_sigma_profile": { 
			"-0.025": 0.0,
			"-0.024": 0.0,
			"-0.023": 0.0,
			"-0.022": 0.0,
			"-0.021": 0.0,
			"-0.02": 0.0,
			"-0.019": 0.0,
			"-0.018": 0.0,
			"-0.017": 0.0,
			"-0.016": 0.0,
			"-0.015": 0.0,
			"-0.014": 0.0,
			"-0.013": 0.0,
			"-0.012": 0.0,
			"-0.011": 0.0,
			"-0.01": 1.80539181329,
			"-0.009": 3.41502423597,
			"-0.008": 3.19811234699,
			"-0.007": 4.77048706031,
			"-0.006": 13.2974635738,
			"-0.005": 18.5949263678,
			"-0.004": 20.3179033812,
			"-0.003": 26.8754462591,
			"-0.002": 29.9319756783,
			"-0.001": 27.9367518796,
			"0.0": 17.9721046238,
			"0.001": 16.0231503985,
			"0.002": 19.1813666885,
			"0.003": 20.939222149,
			"0.004": 21.0591408766,
			"0.005": 15.4814564222,
			"0.006": 7.43483598601,
			"0.007": 4.35773208048,
			"0.008": 3.1211135303,
			"0.009": 4.36362106549,
			"0.01": 3.4513557384,
			"0.011": 4.76407154606,
			"0.012": 2.2048541427,
			"0.013": 0.172535345669,
			"0.014": 0.0,
			"0.015": 0.0,
			"0.016": 0.0,
			"0.017": 0.0,
			"0.018": 0.0,
			"0.019": 0.0,
			"0.02": 0.0,
			"0.021": 0.0,
			"0.022": 0.0,
			"0.023": 0.0,
			"0.024": 0.0,
			"0.0": 0.0
		}
	}
}
