{
	 "smiles": "CC(O)C1=C(C)N=C(S1)C1=CC=C(C)C=C1", 
	 "Tm": 385.15, 
	 "num_atms": 31, 
	 "gaussian": { 
		 "optdone": 1, 
		 "sigma_profile": "yes", 
		 "theory": "DFT", 
		 "functional": "B3LYP", 
		 "basiset": "6-31G**", 
		 "properties": { 
			 "R2extent": 6185.5281, 
			 "electric_dipole_moment_norm": 2.01868420017, 
			 "electric_quadrupole_moment_norm": 18.5592571877, 
			 "total_energy": -1032.5957225, 
			 "HOMO_LUMO_gap": 0.16191, 
			 "cosmo_polarized_energy": -11.23, 
			 "cosmo_cavitation_energy": 35.5, 
			 "cosmo_dispersion_energy": -26.04, 
			 "cosmo_repulsion_energy": 2.0, 
			 "cosmo_total_nonelectrostatic_energy": 11.46, 
			 "SMD_solvation_energy": 4.51 
		},
		"coords": [
			{
				"x": 0.4814102239,
				"y": -3.3691315703,
				"z": -3.5376819839,
				"element": "C" 
			},
			{
				"x": 0.8744279888,
				"y": -1.8943095973,
				"z": -3.7094986883,
				"element": "C" 
			},
			{
				"x": 0.1356458661,
				"y": -1.2805183291,
				"z": -4.7684919352,
				"element": "O" 
			},
			{
				"x": 0.6409569877,
				"y": -1.0915958993,
				"z": -2.4515646054,
				"element": "C" 
			},
			{
				"x": -0.5256794645,
				"y": -0.6194778281,
				"z": -1.8971856047,
				"element": "C" 
			},
			{
				"x": -1.9118386942,
				"y": -0.7565989472,
				"z": -2.4610196199,
				"element": "C" 
			},
			{
				"x": -0.3778545556,
				"y": 0.0441886091,
				"z": -0.6992931309,
				"element": "N" 
			},
			{
				"x": 0.8652329561,
				"y": 0.1001334491,
				"z": -0.3017437277,
				"element": "C" 
			},
			{
				"x": 1.9863796658,
				"y": -0.6780729109,
				"z": -1.4196533558,
				"element": "S" 
			},
			{
				"x": 1.303885441,
				"y": 0.7417416397,
				"z": 0.943535883,
				"element": "C" 
			},
			{
				"x": 2.6477959926,
				"y": 0.7684905598,
				"z": 1.3451290621,
				"element": "C" 
			},
			{
				"x": 3.0222816366,
				"y": 1.3911298223,
				"z": 2.5332821083,
				"element": "C" 
			},
			{
				"x": 2.0741943394,
				"y": 2.0049624149,
				"z": 3.3616376492,
				"element": "C" 
			},
			{
				"x": 2.4763752786,
				"y": 2.6557198634,
				"z": 4.6631382343,
				"element": "C" 
			},
			{
				"x": 0.7315201363,
				"y": 1.9778464458,
				"z": 2.953438581,
				"element": "C" 
			},
			{
				"x": 0.347606856,
				"y": 1.3593347574,
				"z": 1.7698003596,
				"element": "C" 
			},
			{
				"x": 1.0555827879,
				"y": -3.8333857803,
				"z": -2.7303524578,
				"element": "H" 
			},
			{
				"x": 0.6828423517,
				"y": -3.9316731999,
				"z": -4.4582226072,
				"element": "H" 
			},
			{
				"x": -0.5825086191,
				"y": -3.4577945367,
				"z": -3.301380627,
				"element": "H" 
			},
			{
				"x": 1.9507843904,
				"y": -1.853728449,
				"z": -3.9423989707,
				"element": "H" 
			},
			{
				"x": 0.2044905517,
				"y": -1.8575723518,
				"z": -5.5408404111,
				"element": "H" 
			},
			{
				"x": -1.8855409587,
				"y": -1.1345279543,
				"z": -3.4823917618,
				"element": "H" 
			},
			{
				"x": -2.5164496395,
				"y": -1.4268269613,
				"z": -1.8385070846,
				"element": "H" 
			},
			{
				"x": -2.4096723613,
				"y": 0.2182920035,
				"z": -2.4590007951,
				"element": "H" 
			},
			{
				"x": 3.4118853181,
				"y": 0.3035971071,
				"z": 0.7277021971,
				"element": "H" 
			},
			{
				"x": 4.0704280466,
				"y": 1.4012581696,
				"z": 2.821467123,
				"element": "H" 
			},
			{
				"x": 3.5438478156,
				"y": 2.8936329638,
				"z": 4.6795540377,
				"element": "H" 
			},
			{
				"x": 1.9194989968,
				"y": 3.5823272699,
				"z": 4.8360518188,
				"element": "H" 
			},
			{
				"x": 2.2745124,
				"y": 1.9949106434,
				"z": 5.5157404007,
				"element": "H" 
			},
			{
				"x": -0.0243711458,
				"y": 2.4524028772,
				"z": 3.574783635,
				"element": "H" 
			},
			{
				"x": -0.691370589,
				"y": 1.3446457196,
				"z": 1.4596662774,
				"element": "H" 
			}
		],
		 "valence_orbital": [ 
			{
				"type": "occ",
				"energy": -0.27161,
				"method": "rhf"
			},
			{
				"type": "occ",
				"energy": -0.25961,
				"method": "rhf"
			},
			{
				"type": "occ",
				"energy": -0.25849,
				"method": "rhf"
			},
			{
				"type": "occ",
				"energy": -0.2489,
				"method": "rhf"
			},
			{
				"type": "occ",
				"energy": -0.2058,
				"method": "rhf"
			},
			{
				"type": "unocc",
				"energy": -0.04389,
				"method": "rhf"
			},
			{
				"type": "unocc",
				"energy": 0.00013,
				"method": "rhf"
			},
			{
				"type": "unocc",
				"energy": 0.01979,
				"method": "rhf"
			},
			{
				"type": "unocc",
				"energy": 0.02702,
				"method": "rhf"
			},
			{
				"type": "unocc",
				"energy": 0.06436,
				"method": "rhf"
			}
		],
		"cosmo_sigma_profile": { 
			"-0.025": 0.0,
			"-0.024": 0.0,
			"-0.023": 0.0,
			"-0.022": 0.0,
			"-0.021": 0.0,
			"-0.02": 0.0,
			"-0.019": 0.0,
			"-0.018": 0.0,
			"-0.017": 0.0,
			"-0.016": 0.331325174802,
			"-0.015": 0.91470465702,
			"-0.014": 1.19752073349,
			"-0.013": 0.944831668832,
			"-0.012": 1.05412361877,
			"-0.011": 0.434849178614,
			"-0.01": 1.4509409035,
			"-0.009": 1.0726319019,
			"-0.008": 0.501122224403,
			"-0.007": 1.66112027486,
			"-0.006": 5.77908952273,
			"-0.005": 15.4652525341,
			"-0.004": 24.9492456661,
			"-0.003": 24.0161893931,
			"-0.002": 25.0090244234,
			"-0.001": 29.3870936939,
			"0.0": 30.9880417782,
			"0.001": 22.5816478598,
			"0.002": 21.3816718699,
			"0.003": 20.5610797224,
			"0.004": 16.7581382548,
			"0.005": 14.4915223361,
			"0.006": 4.16240206337,
			"0.007": 3.47550675765,
			"0.008": 2.0980647201,
			"0.009": 2.76186317579,
			"0.01": 3.07780212397,
			"0.011": 1.89989781094,
			"0.012": 2.34100255696,
			"0.013": 1.17206449394,
			"0.014": 0.989745752497,
			"0.015": 0.00770636513352,
			"0.016": 0.0,
			"0.017": 0.0,
			"0.018": 0.0,
			"0.019": 0.0,
			"0.02": 0.0,
			"0.021": 0.0,
			"0.022": 0.0,
			"0.023": 0.0,
			"0.024": 0.0,
			"0.025": 0.0
		}
	}
}
