{
	 "smiles": "CC1=C(N=C(O1)C1=C(F)C=CC=C1)C(O)=O", 
	 "Tm": 448.15, 
	 "num_atms": 24, 
	 "gaussian": { 
		 "optdone": 1, 
		 "sigma_profile": "yes", 
		 "theory": "DFT", 
		 "functional": "B3LYP", 
		 "basiset": "6-31G**", 
		 "properties": { 
			 "R2extent": 4834.3127, 
			 "electric_dipole_moment_norm": 4.63053587936, 
			 "electric_quadrupole_moment_norm": 21.0487968255, 
			 "total_energy": -804.259491154, 
			 "HOMO_LUMO_gap": 0.17841, 
			 "cosmo_polarized_energy": -16.38, 
			 "cosmo_cavitation_energy": 30.23, 
			 "cosmo_dispersion_energy": -21.95, 
			 "cosmo_repulsion_energy": 1.69, 
			 "cosmo_total_nonelectrostatic_energy": 9.97, 
			 "SMD_solvation_energy": 5.99 
		},
		"coords": [
			{
				"x": 4.0843165764,
				"y": -1.4394477152,
				"z": -2.1701009177,
				"element": "C" 
			},
			{
				"x": 3.0223909698,
				"y": -0.7700746104,
				"z": -1.3706233247,
				"element": "C" 
			},
			{
				"x": 2.9264548628,
				"y": 0.3750736382,
				"z": -0.6200730155,
				"element": "C" 
			},
			{
				"x": 1.6493659042,
				"y": 0.486696582,
				"z": -0.0922395322,
				"element": "N" 
			},
			{
				"x": 1.0182464713,
				"y": -0.5625390715,
				"z": -0.5220977553,
				"element": "C" 
			},
			{
				"x": 1.8036394246,
				"y": -1.3774112064,
				"z": -1.3133395572,
				"element": "O" 
			},
			{
				"x": -0.35688038,
				"y": -0.9971252482,
				"z": -0.3008762896,
				"element": "C" 
			},
			{
				"x": -1.2524335668,
				"y": -0.2531376126,
				"z": 0.4856963112,
				"element": "C" 
			},
			{
				"x": -0.8517685868,
				"y": 0.8902646915,
				"z": 1.0575033573,
				"element": "F" 
			},
			{
				"x": -2.5627039201,
				"y": -0.6656835203,
				"z": 0.6972921646,
				"element": "C" 
			},
			{
				"x": -3.0116402747,
				"y": -1.8507005002,
				"z": 0.1167990111,
				"element": "C" 
			},
			{
				"x": -2.145234081,
				"y": -2.6133220992,
				"z": -0.6709202919,
				"element": "C" 
			},
			{
				"x": -0.8361502644,
				"y": -2.1896599521,
				"z": -0.8751457747,
				"element": "C" 
			},
			{
				"x": 3.9581808259,
				"y": 1.3901110124,
				"z": -0.3552843528,
				"element": "C" 
			},
			{
				"x": 5.134276868,
				"y": 1.0758049571,
				"z": -0.9737648277,
				"element": "O" 
			},
			{
				"x": 3.8225840353,
				"y": 2.3869831245,
				"z": 0.3168676915,
				"element": "O" 
			},
			{
				"x": 4.9505775705,
				"y": -1.6778645137,
				"z": -1.5463017892,
				"element": "H" 
			},
			{
				"x": 4.4394567358,
				"y": -0.7858431799,
				"z": -2.9720028202,
				"element": "H" 
			},
			{
				"x": 3.6940337024,
				"y": -2.3608173131,
				"z": -2.6066443522,
				"element": "H" 
			},
			{
				"x": -3.2062902089,
				"y": -0.0482443063,
				"z": 1.3143265027,
				"element": "H" 
			},
			{
				"x": -4.034596846,
				"y": -2.1754312707,
				"z": 0.2803275737,
				"element": "H" 
			},
			{
				"x": -2.4891617773,
				"y": -3.5368484974,
				"z": -1.1254412412,
				"element": "H" 
			},
			{
				"x": -0.1619122074,
				"y": -2.7793127264,
				"z": -1.4857634393,
				"element": "H" 
			},
			{
				"x": 5.7464481664,
				"y": 1.7942293378,
				"z": -0.7439933305,
				"element": "H" 
			}
		],
		 "valence_orbital": [ 
			{
				"type": "occ",
				"energy": -0.28995,
				"method": "rhf"
			},
			{
				"type": "occ",
				"energy": -0.28839,
				"method": "rhf"
			},
			{
				"type": "occ",
				"energy": -0.27401,
				"method": "rhf"
			},
			{
				"type": "occ",
				"energy": -0.25647,
				"method": "rhf"
			},
			{
				"type": "occ",
				"energy": -0.22818,
				"method": "rhf"
			},
			{
				"type": "unocc",
				"energy": -0.04977,
				"method": "rhf"
			},
			{
				"type": "unocc",
				"energy": -0.03109,
				"method": "rhf"
			},
			{
				"type": "unocc",
				"energy": -0.00817,
				"method": "rhf"
			},
			{
				"type": "unocc",
				"energy": 0.04846,
				"method": "rhf"
			},
			{
				"type": "unocc",
				"energy": 0.0774,
				"method": "rhf"
			}
		],
		"cosmo_sigma_profile": { 
			"-0.025": 0.0,
			"-0.024": 0.0,
			"-0.023": 0.0,
			"-0.022": 0.0,
			"-0.021": 0.0,
			"-0.02": 0.0,
			"-0.019": 0.0,
			"-0.018": 0.670545342394,
			"-0.017": 1.26030573344,
			"-0.016": 0.692287292464,
			"-0.015": 0.535031306646,
			"-0.014": 0.745819901212,
			"-0.013": 0.979090371162,
			"-0.012": 0.57879356033,
			"-0.011": 0.662754778213,
			"-0.01": 0.889427821689,
			"-0.009": 0.362535865246,
			"-0.008": 1.14789143282,
			"-0.007": 6.50258991273,
			"-0.006": 14.457560153,
			"-0.005": 14.5050188533,
			"-0.004": 14.1398817651,
			"-0.003": 20.1084599601,
			"-0.002": 23.3469450275,
			"-0.001": 21.4886364575,
			"0.0": 19.808946091,
			"0.001": 15.7292040553,
			"0.002": 17.0951657126,
			"0.003": 17.3281556495,
			"0.004": 12.3714802061,
			"0.005": 6.28085304302,
			"0.006": 3.11959825003,
			"0.007": 2.9534219607,
			"0.008": 2.65158261652,
			"0.009": 2.30711309904,
			"0.01": 3.62049569941,
			"0.011": 5.67982079969,
			"0.012": 4.66838451389,
			"0.013": 2.90807648792,
			"0.014": 1.96112561273,
			"0.015": 1.2804289833,
			"0.016": 0.0669396103671,
			"0.017": 0.0,
			"0.018": 0.0,
			"0.019": 0.0,
			"0.02": 0.0,
			"0.021": 0.0,
			"0.022": 0.0,
			"0.023": 0.0,
			"0.024": 0.0,
			"0.025": 0.0
		}
	}
}
