{
	 "smiles": "CN1CCCN(CC#N)CCN(CC#N)CCCN(CC#N)CC1", 
	 "Tm": 361.15, 
	 "num_atms": 53, 
	 "gaussian": { 
		 "optdone": 1, 
		 "sigma_profile": "yes", 
		 "theory": "DFT", 
		 "functional": "B3LYP", 
		 "basiset": "6-31G**", 
		 "properties": { 
			 "R2extent": 9162.2309, 
			 "electric_dipole_moment_norm": 5.12991697594, 
			 "electric_quadrupole_moment_norm": 44.4708157572, 
			 "total_energy": -1048.4195796, 
			 "HOMO_LUMO_gap": 0.22282, 
			 "cosmo_polarized_energy": -28.84, 
			 "cosmo_cavitation_energy": 51.69, 
			 "cosmo_dispersion_energy": -31.79, 
			 "cosmo_repulsion_energy": 2.38, 
			 "cosmo_total_nonelectrostatic_energy": 22.28, 
			 "SMD_solvation_energy": 7.42 
		},
		"coords": [
			{
				"x": -3.1970940413,
				"y": -2.3093659124,
				"z": 1.4561791189,
				"element": "C" 
			},
			{
				"x": -2.2686604866,
				"y": -1.3953299567,
				"z": 0.7988767279,
				"element": "N" 
			},
			{
				"x": -2.6694765621,
				"y": -0.0001128007,
				"z": 1.0130608277,
				"element": "C" 
			},
			{
				"x": -1.5295542366,
				"y": 1.0317630452,
				"z": 0.8441572313,
				"element": "C" 
			},
			{
				"x": -1.5370628468,
				"y": 1.8042961846,
				"z": -0.4930645668,
				"element": "C" 
			},
			{
				"x": -0.5746845836,
				"y": 2.9070768652,
				"z": -0.6264337891,
				"element": "N" 
			},
			{
				"x": -0.8804774704,
				"y": 4.116471778,
				"z": 0.1119893211,
				"element": "C" 
			},
			{
				"x": -0.5253841018,
				"y": 4.1321572922,
				"z": 1.5585840002,
				"element": "C" 
			},
			{
				"x": -0.2037970393,
				"y": 4.1372828428,
				"z": 2.6746954256,
				"element": "N" 
			},
			{
				"x": 0.8418938331,
				"y": 2.5371376163,
				"z": -0.6584057235,
				"element": "C" 
			},
			{
				"x": 1.3776789241,
				"y": 2.2944986877,
				"z": -2.0766207469,
				"element": "C" 
			},
			{
				"x": 0.8405868338,
				"y": 1.1029884623,
				"z": -2.7567514125,
				"element": "N" 
			},
			{
				"x": 1.0745317217,
				"y": 1.1888265149,
				"z": -4.2008940613,
				"element": "C" 
			},
			{
				"x": 0.0609149051,
				"y": 0.4791862813,
				"z": -5.0022009879,
				"element": "C" 
			},
			{
				"x": -0.7328863036,
				"y": -0.0562978003,
				"z": -5.6575187772,
				"element": "N" 
			},
			{
				"x": 1.3708558718,
				"y": -0.1359928021,
				"z": -2.1673233135,
				"element": "C" 
			},
			{
				"x": 0.7943910133,
				"y": -1.4323906341,
				"z": -2.7489109131,
				"element": "C" 
			},
			{
				"x": 1.0868282975,
				"y": -2.6336555546,
				"z": -1.8392384548,
				"element": "C" 
			},
			{
				"x": 0.3003455832,
				"y": -2.6198837425,
				"z": -0.5964541634,
				"element": "N" 
			},
			{
				"x": 0.9271462066,
				"y": -3.4751921769,
				"z": 0.4099482839,
				"element": "C" 
			},
			{
				"x": 0.3472172121,
				"y": -3.3394516462,
				"z": 1.7555385707,
				"element": "C" 
			},
			{
				"x": -0.0730586385,
				"y": -3.2959073194,
				"z": 2.8358528246,
				"element": "N" 
			},
			{
				"x": -1.1289225473,
				"y": -2.9319824578,
				"z": -0.8245156293,
				"element": "C" 
			},
			{
				"x": -2.0733190568,
				"y": -1.7396462419,
				"z": -0.6059543416,
				"element": "C" 
			},
			{
				"x": -3.2254501436,
				"y": -2.0983914396,
				"z": 2.5285716223,
				"element": "H" 
			},
			{
				"x": -4.2277046393,
				"y": -2.2429710408,
				"z": 1.0557645266,
				"element": "H" 
			},
			{
				"x": -2.8605296206,
				"y": -3.3430360211,
				"z": 1.3453226942,
				"element": "H" 
			},
			{
				"x": -3.5366673379,
				"y": 0.2795488156,
				"z": 0.3798962986,
				"element": "H" 
			},
			{
				"x": -3.0256710742,
				"y": 0.0589549039,
				"z": 2.0456962996,
				"element": "H" 
			},
			{
				"x": -1.6041651027,
				"y": 1.7557881537,
				"z": 1.6618688826,
				"element": "H" 
			},
			{
				"x": -0.5823889336,
				"y": 0.5017876064,
				"z": 0.9902068692,
				"element": "H" 
			},
			{
				"x": -2.5366453666,
				"y": 2.2292541085,
				"z": -0.6538914459,
				"element": "H" 
			},
			{
				"x": -1.3510071,
				"y": 1.1353539918,
				"z": -1.337629269,
				"element": "H" 
			},
			{
				"x": -0.3596292227,
				"y": 4.9680321326,
				"z": -0.3446318593,
				"element": "H" 
			},
			{
				"x": -1.9526110183,
				"y": 4.3246618044,
				"z": 0.0259537413,
				"element": "H" 
			},
			{
				"x": 1.4310333278,
				"y": 3.3646867276,
				"z": -0.2478448255,
				"element": "H" 
			},
			{
				"x": 1.0564616914,
				"y": 1.6817051026,
				"z": -0.0040945748,
				"element": "H" 
			},
			{
				"x": 1.1064786845,
				"y": 3.1710580128,
				"z": -2.6730371566,
				"element": "H" 
			},
			{
				"x": 2.4845087828,
				"y": 2.2588951688,
				"z": -2.0255820843,
				"element": "H" 
			},
			{
				"x": 1.0258122584,
				"y": 2.2391028827,
				"z": -4.5054941205,
				"element": "H" 
			},
			{
				"x": 2.0732552458,
				"y": 0.8222040921,
				"z": -4.5029415207,
				"element": "H" 
			},
			{
				"x": 2.4767045224,
				"y": -0.1642815594,
				"z": -2.2537782982,
				"element": "H" 
			},
			{
				"x": 1.1369865953,
				"y": -0.1226788843,
				"z": -1.0999348241,
				"element": "H" 
			},
			{
				"x": 1.2217027463,
				"y": -1.6441677575,
				"z": -3.7352333414,
				"element": "H" 
			},
			{
				"x": -0.2835350084,
				"y": -1.3275437796,
				"z": -2.9016827394,
				"element": "H" 
			},
			{
				"x": 0.9229487512,
				"y": -3.5674202752,
				"z": -2.4079487067,
				"element": "H" 
			},
			{
				"x": 2.1502698139,
				"y": -2.6178802427,
				"z": -1.5689560905,
				"element": "H" 
			},
			{
				"x": 0.8949333253,
				"y": -4.5519898567,
				"z": 0.1517405001,
				"element": "H" 
			},
			{
				"x": 1.9867326948,
				"y": -3.2064917251,
				"z": 0.4891140672,
				"element": "H" 
			},
			{
				"x": -1.4310577824,
				"y": -3.7623669634,
				"z": -0.1765199367,
				"element": "H" 
			},
			{
				"x": -1.2656498109,
				"y": -3.2935513333,
				"z": -1.8536240039,
				"element": "H" 
			},
			{
				"x": -3.0366257797,
				"y": -1.9623487014,
				"z": -1.1096768438,
				"element": "H" 
			},
			{
				"x": -1.6460029866,
				"y": -0.8787904482,
				"z": -1.1217293111,
				"element": "H" 
			}
		],
		 "valence_orbital": [ 
			{
				"type": "occ",
				"energy": -0.31518,
				"method": "rhf"
			},
			{
				"type": "occ",
				"energy": -0.24888,
				"method": "rhf"
			},
			{
				"type": "occ",
				"energy": -0.23766,
				"method": "rhf"
			},
			{
				"type": "occ",
				"energy": -0.22497,
				"method": "rhf"
			},
			{
				"type": "occ",
				"energy": -0.20831,
				"method": "rhf"
			},
			{
				"type": "unocc",
				"energy": 0.01451,
				"method": "rhf"
			},
			{
				"type": "unocc",
				"energy": 0.01989,
				"method": "rhf"
			},
			{
				"type": "unocc",
				"energy": 0.02334,
				"method": "rhf"
			},
			{
				"type": "unocc",
				"energy": 0.03227,
				"method": "rhf"
			},
			{
				"type": "unocc",
				"energy": 0.03661,
				"method": "rhf"
			}
		],
		"cosmo_sigma_profile": { 
			"-0.025": 0.0,
			"-0.024": 0.0,
			"-0.023": 0.0,
			"-0.022": 0.0,
			"-0.021": 0.0,
			"-0.02": 0.0,
			"-0.019": 0.0,
			"-0.018": 0.0,
			"-0.017": 0.0,
			"-0.016": 0.0,
			"-0.015": 0.0,
			"-0.014": 0.0,
			"-0.013": 0.0,
			"-0.012": 0.0,
			"-0.011": 0.0,
			"-0.01": 0.00453901117612,
			"-0.009": 3.63263688663,
			"-0.008": 12.4489245653,
			"-0.007": 17.9389055922,
			"-0.006": 23.9002221079,
			"-0.005": 24.2832903692,
			"-0.004": 31.0306391193,
			"-0.003": 46.5801794206,
			"-0.002": 47.3341516962,
			"-0.001": 36.7607754181,
			"0.0": 26.0434465711,
			"0.001": 14.6948971811,
			"0.002": 9.75645960921,
			"0.003": 9.46470222669,
			"0.004": 9.75033826522,
			"0.005": 8.7923738027,
			"0.006": 10.7534279102,
			"0.007": 8.68854290259,
			"0.008": 11.0292418354,
			"0.009": 11.7993920064,
			"0.01": 11.2185270445,
			"0.011": 11.0976783407,
			"0.012": 8.32997242725,
			"0.013": 7.24617289511,
			"0.014": 1.43353876601,
			"0.015": 0.0,
			"0.016": 0.0,
			"0.017": 0.0,
			"0.018": 0.0,
			"0.019": 0.0,
			"0.02": 0.0,
			"0.021": 0.0,
			"0.022": 0.0,
			"0.023": 0.0,
			"0.024": 0.0,
			"0.025": 0.0
		}
	}
}
