{
	 "smiles": "COC1=CC=C(O)C(F)=C1F", 
	 "Tm": 378.15, 
	 "num_atms": 17, 
	 "gaussian": { 
		 "optdone": 1, 
		 "sigma_profile": "yes", 
		 "theory": "DFT", 
		 "functional": "B3LYP", 
		 "basiset": "6-31G**", 
		 "properties": { 
			 "R2extent": 2147.6105, 
			 "electric_dipole_moment_norm": 0.835588331656, 
			 "electric_quadrupole_moment_norm": 5.04104754887, 
			 "total_energy": -620.440736564, 
			 "HOMO_LUMO_gap": 0.20375, 
			 "cosmo_polarized_energy": -6.68, 
			 "cosmo_cavitation_energy": 22.02, 
			 "cosmo_dispersion_energy": -16.44, 
			 "cosmo_repulsion_energy": 1.28, 
			 "cosmo_total_nonelectrostatic_energy": 6.86, 
			 "SMD_solvation_energy": 5.82 
		},
		"coords": [
			{
				"x": 0.2878578473,
				"y": -0.3036712247,
				"z": 2.4798812394,
				"element": "C" 
			},
			{
				"x": 1.4553097266,
				"y": -0.2500774017,
				"z": 1.6614296142,
				"element": "O" 
			},
			{
				"x": 1.3633869126,
				"y": -0.2826699424,
				"z": 0.3019690091,
				"element": "C" 
			},
			{
				"x": 2.5807888516,
				"y": -0.2232177333,
				"z": -0.3950989523,
				"element": "C" 
			},
			{
				"x": 2.6421121725,
				"y": -0.2471530702,
				"z": -1.7841805682,
				"element": "C" 
			},
			{
				"x": 1.4689240667,
				"y": -0.3328209628,
				"z": -2.5369629411,
				"element": "C" 
			},
			{
				"x": 1.5122828348,
				"y": -0.3572937165,
				"z": -3.8995260952,
				"element": "O" 
			},
			{
				"x": 0.2591778795,
				"y": -0.3920741697,
				"z": -1.8511523386,
				"element": "C" 
			},
			{
				"x": -0.8857501837,
				"y": -0.4754742669,
				"z": -2.5737339294,
				"element": "F" 
			},
			{
				"x": 0.1901790341,
				"y": -0.3685154215,
				"z": -0.4602922507,
				"element": "C" 
			},
			{
				"x": -1.0400843988,
				"y": -0.431403538,
				"z": 0.0980946205,
				"element": "F" 
			},
			{
				"x": -0.269811186,
				"y": -1.2335098251,
				"z": 2.3315801128,
				"element": "H" 
			},
			{
				"x": -0.3765226394,
				"y": 0.5462026523,
				"z": 2.2957844215,
				"element": "H" 
			},
			{
				"x": 0.6572841036,
				"y": -0.2609070959,
				"z": 3.5058186447,
				"element": "H" 
			},
			{
				"x": 3.4867380081,
				"y": -0.156831112,
				"z": 0.1973067157,
				"element": "H" 
			},
			{
				"x": 3.5935036933,
				"y": -0.2001248167,
				"z": -2.3021574578,
				"element": "H" 
			},
			{
				"x": 0.6029232773,
				"y": -0.4185583551,
				"z": -4.2258598447,
				"element": "H" 
			}
		],
		 "valence_orbital": [ 
			{
				"type": "occ",
				"energy": -0.36502,
				"method": "rhf"
			},
			{
				"type": "occ",
				"energy": -0.33251,
				"method": "rhf"
			},
			{
				"type": "occ",
				"energy": -0.29879,
				"method": "rhf"
			},
			{
				"type": "occ",
				"energy": -0.24933,
				"method": "rhf"
			},
			{
				"type": "occ",
				"energy": -0.20844,
				"method": "rhf"
			},
			{
				"type": "unocc",
				"energy": -0.00469,
				"method": "rhf"
			},
			{
				"type": "unocc",
				"energy": 0.01413,
				"method": "rhf"
			},
			{
				"type": "unocc",
				"energy": 0.04302,
				"method": "rhf"
			},
			{
				"type": "unocc",
				"energy": 0.08726,
				"method": "rhf"
			},
			{
				"type": "unocc",
				"energy": 0.11733,
				"method": "rhf"
			}
		],
		"cosmo_sigma_profile": { 
			"-0.025": 0.0,
			"-0.024": 0.0,
			"-0.023": 0.0,
			"-0.022": 0.0,
			"-0.021": 0.0,
			"-0.02": 0.0,
			"-0.019": 0.0,
			"-0.018": 0.0,
			"-0.017": 0.0808824505232,
			"-0.016": 0.871952757187,
			"-0.015": 0.589869375917,
			"-0.014": 0.776333191528,
			"-0.013": 0.738203053032,
			"-0.012": 0.691237721875,
			"-0.011": 0.86183149508,
			"-0.01": 1.0107456632,
			"-0.009": 0.902711898865,
			"-0.008": 0.998539512574,
			"-0.007": 3.39201881793,
			"-0.006": 6.99525181488,
			"-0.005": 10.504744583,
			"-0.004": 12.0056113284,
			"-0.003": 12.8745100724,
			"-0.002": 10.8101875627,
			"-0.001": 12.6663440269,
			"0.0": 13.8665741738,
			"0.001": 13.5657654732,
			"0.002": 14.1871248654,
			"0.003": 21.458359007,
			"0.004": 16.2530828685,
			"0.005": 4.54664234018,
			"0.006": 2.50166866426,
			"0.007": 2.39717631519,
			"0.008": 3.08705072342,
			"0.009": 2.83964503041,
			"0.01": 3.05412274397,
			"0.011": 1.59455876648,
			"0.012": 0.0811825831814,
			"0.013": 0.0,
			"0.014": 0.0,
			"0.015": 0.0,
			"0.016": 0.0,
			"0.017": 0.0,
			"0.018": 0.0,
			"0.019": 0.0,
			"0.02": 0.0,
			"0.021": 0.0,
			"0.022": 0.0,
			"0.023": 0.0,
			"0.024": 0.0,
			"0.025": 0.0
		}
	}
}
