{
	 "smiles": "C(=C(C1=CC=CC=C1)C1=CC=CC=C1)C1=CC=CC=C1", 
	 "Tm": 345.65, 
	 "num_atms": 36, 
	 "gaussian": { 
		 "optdone": 1, 
		 "sigma_profile": "yes", 
		 "theory": "DFT", 
		 "functional": "B3LYP", 
		 "basiset": "6-31G**", 
		 "properties": { 
			 "R2extent": 6351.4137, 
			 "electric_dipole_moment_norm": 0.372002002683, 
			 "electric_quadrupole_moment_norm": 5.77653622944, 
			 "total_energy": -771.76661464, 
			 "HOMO_LUMO_gap": 0.15555, 
			 "cosmo_polarized_energy": -6.93, 
			 "cosmo_cavitation_energy": 39.5, 
			 "cosmo_dispersion_energy": -27.22, 
			 "cosmo_repulsion_energy": 2.1, 
			 "cosmo_total_nonelectrostatic_energy": 14.38, 
			 "SMD_solvation_energy": 6.39 
		},
		"coords": [
			{
				"x": 0.60914051,
				"y": 1.3659720283,
				"z": 0.6730342364,
				"element": "C" 
			},
			{
				"x": -0.4953788856,
				"y": 1.1162600533,
				"z": -0.0758986725,
				"element": "C" 
			},
			{
				"x": -1.0754452044,
				"y": 2.2059502156,
				"z": -0.9097295241,
				"element": "C" 
			},
			{
				"x": -2.4683018617,
				"y": 2.3281592709,
				"z": -1.0698638791,
				"element": "C" 
			},
			{
				"x": -3.0156968878,
				"y": 3.3683042156,
				"z": -1.8186443769,
				"element": "C" 
			},
			{
				"x": -2.1850919777,
				"y": 4.3052607001,
				"z": -2.4371969571,
				"element": "C" 
			},
			{
				"x": -0.8002445579,
				"y": 4.1883961402,
				"z": -2.3028804947,
				"element": "C" 
			},
			{
				"x": -0.2523445406,
				"y": 3.1490781898,
				"z": -1.5527613514,
				"element": "C" 
			},
			{
				"x": -1.218257816,
				"y": -0.1906442435,
				"z": -0.0799756429,
				"element": "C" 
			},
			{
				"x": -1.6849088708,
				"y": -0.7589285394,
				"z": 1.1168337137,
				"element": "C" 
			},
			{
				"x": -2.3793071377,
				"y": -1.9683068061,
				"z": 1.1091976271,
				"element": "C" 
			},
			{
				"x": -2.6194839102,
				"y": -2.6333618147,
				"z": -0.0951136701,
				"element": "C" 
			},
			{
				"x": -2.169072947,
				"y": -2.0748374723,
				"z": -1.2932780895,
				"element": "C" 
			},
			{
				"x": -1.4837794651,
				"y": -0.8598975603,
				"z": -1.2866378934,
				"element": "C" 
			},
			{
				"x": 1.4448830394,
				"y": 0.4619821387,
				"z": 1.4789111492,
				"element": "C" 
			},
			{
				"x": 1.6178379373,
				"y": -0.9081298899,
				"z": 1.1999939699,
				"element": "C" 
			},
			{
				"x": 2.4586268215,
				"y": -1.6946805863,
				"z": 1.9836134664,
				"element": "C" 
			},
			{
				"x": 3.1500842699,
				"y": -1.1386849736,
				"z": 3.063381221,
				"element": "C" 
			},
			{
				"x": 3.0036292317,
				"y": 0.2208785918,
				"z": 3.3442917019,
				"element": "C" 
			},
			{
				"x": 2.1694388612,
				"y": 1.0101320343,
				"z": 2.5553896162,
				"element": "C" 
			},
			{
				"x": 0.9435820322,
				"y": 2.4019033077,
				"z": 0.6986212602,
				"element": "H" 
			},
			{
				"x": -3.1232526852,
				"y": 1.6074879559,
				"z": -0.5906898637,
				"element": "H" 
			},
			{
				"x": -4.0947228992,
				"y": 3.4481177387,
				"z": -1.9178075844,
				"element": "H" 
			},
			{
				"x": -2.6121887813,
				"y": 5.111842685,
				"z": -3.0261660827,
				"element": "H" 
			},
			{
				"x": -0.1430632518,
				"y": 4.8997054827,
				"z": -2.7955432078,
				"element": "H" 
			},
			{
				"x": 0.8262931975,
				"y": 3.0470892968,
				"z": -1.482486012,
				"element": "H" 
			},
			{
				"x": -1.4987579447,
				"y": -0.2435781833,
				"z": 2.0538985364,
				"element": "H" 
			},
			{
				"x": -2.7357962102,
				"y": -2.3899188763,
				"z": 2.0448700907,
				"element": "H" 
			},
			{
				"x": -3.1589875737,
				"y": -3.5761784686,
				"z": -0.1006607349,
				"element": "H" 
			},
			{
				"x": -2.3549805728,
				"y": -2.5831800603,
				"z": -2.2353073552,
				"element": "H" 
			},
			{
				"x": -1.1442621744,
				"y": -0.4237660018,
				"z": -2.2216626687,
				"element": "H" 
			},
			{
				"x": 1.102545623,
				"y": -1.352364376,
				"z": 0.3564938058,
				"element": "H" 
			},
			{
				"x": 2.5808681564,
				"y": -2.7476323877,
				"z": 1.7450458622,
				"element": "H" 
			},
			{
				"x": 3.8040032762,
				"y": -1.7568327394,
				"z": 3.6717806802,
				"element": "H" 
			},
			{
				"x": 3.5436876675,
				"y": 0.6685903998,
				"z": 4.1739311116,
				"element": "H" 
			},
			{
				"x": 2.066405532,
				"y": 2.0702125345,
				"z": 2.7742160121,
				"element": "H" 
			}
		],
		 "valence_orbital": [ 
			{
				"type": "occ",
				"energy": -0.25204,
				"method": "rhf"
			},
			{
				"type": "occ",
				"energy": -0.24997,
				"method": "rhf"
			},
			{
				"type": "occ",
				"energy": -0.24595,
				"method": "rhf"
			},
			{
				"type": "occ",
				"energy": -0.24249,
				"method": "rhf"
			},
			{
				"type": "occ",
				"energy": -0.20177,
				"method": "rhf"
			},
			{
				"type": "unocc",
				"energy": -0.04622,
				"method": "rhf"
			},
			{
				"type": "unocc",
				"energy": -0.00754,
				"method": "rhf"
			},
			{
				"type": "unocc",
				"energy": -0.00519,
				"method": "rhf"
			},
			{
				"type": "unocc",
				"energy": 0.0032,
				"method": "rhf"
			},
			{
				"type": "unocc",
				"energy": 0.01045,
				"method": "rhf"
			}
		],
		"cosmo_sigma_profile": { 
			"-0.025": 0.0,
			"-0.024": 0.0,
			"-0.023": 0.0,
			"-0.022": 0.0,
			"-0.021": 0.0,
			"-0.02": 0.0,
			"-0.019": 0.0,
			"-0.018": 0.0,
			"-0.017": 0.0,
			"-0.016": 0.0,
			"-0.015": 0.0,
			"-0.014": 0.0,
			"-0.013": 0.0,
			"-0.012": 0.0,
			"-0.011": 0.0,
			"-0.01": 0.0,
			"-0.009": 0.0,
			"-0.008": 0.0,
			"-0.007": 0.0,
			"-0.006": 9.77873770395,
			"-0.005": 28.6277058602,
			"-0.004": 32.2767681953,
			"-0.003": 32.3233862561,
			"-0.002": 23.0880555995,
			"-0.001": 22.5810288067,
			"0.0": 22.5716947706,
			"0.001": 22.1452093317,
			"0.002": 25.5877553904,
			"0.003": 27.0519200083,
			"0.004": 28.2769958896,
			"0.005": 26.0744590253,
			"0.006": 16.0299306717,
			"0.007": 0.202313969679,
			"0.008": 0.0,
			"0.009": 0.0,
			"0.01": 0.0,
			"0.011": 0.0,
			"0.012": 0.0,
			"0.013": 0.0,
			"0.014": 0.0,
			"0.015": 0.0,
			"0.016": 0.0,
			"0.017": 0.0,
			"0.018": 0.0,
			"0.019": 0.0,
			"0.02": 0.0,
			"0.021": 0.0,
			"0.022": 0.0,
			"0.023": 0.0,
			"0.024": 0.0,
			"0.025": 0.0
		}
	}
}
