{
	 "smiles": "NC1=CC(=CC=C1)C(=O)NC1=NC=CN=C1", 
	 "Tm": 409.15, 
	 "num_atms": 26, 
	 "gaussian": { 
		 "optdone": 1, 
		 "sigma_profile": "yes", 
		 "theory": "DFT", 
		 "functional": "B3LYP", 
		 "basiset": "6-31G**", 
		 "properties": { 
			 "R2extent": 3862.7556, 
			 "electric_dipole_moment_norm": 4.12420304301, 
			 "electric_quadrupole_moment_norm": 14.0526371991, 
			 "total_energy": -719.429736741, 
			 "HOMO_LUMO_gap": 0.16063, 
			 "cosmo_polarized_energy": -17.19, 
			 "cosmo_cavitation_energy": 30.98, 
			 "cosmo_dispersion_energy": -22.06, 
			 "cosmo_repulsion_energy": 1.72, 
			 "cosmo_total_nonelectrostatic_energy": 10.65, 
			 "SMD_solvation_energy": 3.03 
		},
		"coords": [
			{
				"x": -3.9466845131,
				"y": 0.120131158,
				"z": 1.2788805351,
				"element": "N" 
			},
			{
				"x": -2.7643651019,
				"y": 0.8536975729,
				"z": 1.206688509,
				"element": "C" 
			},
			{
				"x": -1.8935930463,
				"y": 0.7018241976,
				"z": 0.1154898833,
				"element": "C" 
			},
			{
				"x": -0.7406946631,
				"y": 1.4877836865,
				"z": 0.009957223,
				"element": "C" 
			},
			{
				"x": -0.4469984013,
				"y": 2.4511927806,
				"z": 0.9830825013,
				"element": "C" 
			},
			{
				"x": -1.3007515903,
				"y": 2.5903220049,
				"z": 2.0762373213,
				"element": "C" 
			},
			{
				"x": -2.4446501074,
				"y": 1.8043774607,
				"z": 2.1934091245,
				"element": "C" 
			},
			{
				"x": 0.1543901245,
				"y": 1.4053548309,
				"z": -1.1862719141,
				"element": "C" 
			},
			{
				"x": 0.6335984216,
				"y": 2.4053636898,
				"z": -1.6999627379,
				"element": "O" 
			},
			{
				"x": 0.3875576989,
				"y": 0.1634981877,
				"z": -1.7827369525,
				"element": "N" 
			},
			{
				"x": 0.4292034288,
				"y": -1.1418271713,
				"z": -1.2867234698,
				"element": "C" 
			},
			{
				"x": 0.5253667859,
				"y": -2.0856520848,
				"z": -2.2317352227,
				"element": "N" 
			},
			{
				"x": 0.5893708192,
				"y": -3.3539780365,
				"z": -1.8147283822,
				"element": "C" 
			},
			{
				"x": 0.5522663078,
				"y": -3.6920781096,
				"z": -0.4646540541,
				"element": "C" 
			},
			{
				"x": 0.491027672,
				"y": -2.7475475442,
				"z": 0.4852691587,
				"element": "N" 
			},
			{
				"x": 0.4421686615,
				"y": -1.479981844,
				"z": 0.0845489455,
				"element": "C" 
			},
			{
				"x": -3.9489044157,
				"y": -0.7544637043,
				"z": 0.7728205998,
				"element": "H" 
			},
			{
				"x": -4.3441631173,
				"y": 0.0262491691,
				"z": 2.2030281656,
				"element": "H" 
			},
			{
				"x": -2.1337019991,
				"y": -0.017472999,
				"z": -0.6622726137,
				"element": "H" 
			},
			{
				"x": 0.4332367204,
				"y": 3.0730962018,
				"z": 0.8681256287,
				"element": "H" 
			},
			{
				"x": -1.0772950152,
				"y": 3.3220583642,
				"z": 2.8471767266,
				"element": "H" 
			},
			{
				"x": -3.1063884985,
				"y": 1.9298581174,
				"z": 3.0469043786,
				"element": "H" 
			},
			{
				"x": 0.7776803957,
				"y": 0.2475180771,
				"z": -2.7154652813,
				"element": "H" 
			},
			{
				"x": 0.6743628883,
				"y": -4.1178492564,
				"z": -2.584981724,
				"element": "H" 
			},
			{
				"x": 0.5926385546,
				"y": -4.7280418952,
				"z": -0.1382211645,
				"element": "H" 
			},
			{
				"x": 0.4229219899,
				"y": -0.7157328539,
				"z": 0.8535348157,
				"element": "H" 
			}
		],
		 "valence_orbital": [ 
			{
				"type": "occ",
				"energy": -0.27018,
				"method": "rhf"
			},
			{
				"type": "occ",
				"energy": -0.25998,
				"method": "rhf"
			},
			{
				"type": "occ",
				"energy": -0.25386,
				"method": "rhf"
			},
			{
				"type": "occ",
				"energy": -0.24009,
				"method": "rhf"
			},
			{
				"type": "occ",
				"energy": -0.2136,
				"method": "rhf"
			},
			{
				"type": "unocc",
				"energy": -0.05297,
				"method": "rhf"
			},
			{
				"type": "unocc",
				"energy": -0.04777,
				"method": "rhf"
			},
			{
				"type": "unocc",
				"energy": -0.01374,
				"method": "rhf"
			},
			{
				"type": "unocc",
				"energy": 0.00402,
				"method": "rhf"
			},
			{
				"type": "unocc",
				"energy": 0.04897,
				"method": "rhf"
			}
		],
		"cosmo_sigma_profile": { 
			"-0.025": 0.0,
			"-0.024": 0.0,
			"-0.023": 0.0,
			"-0.022": 0.0,
			"-0.021": 0.0,
			"-0.02": 0.0,
			"-0.019": 0.0,
			"-0.018": 0.0,
			"-0.017": 0.0,
			"-0.016": 0.0,
			"-0.015": 0.0365223007245,
			"-0.014": 0.487119396327,
			"-0.013": 1.91191144993,
			"-0.012": 3.89713322217,
			"-0.011": 3.10407329971,
			"-0.01": 4.04151960284,
			"-0.009": 4.08227606208,
			"-0.008": 5.55697730818,
			"-0.007": 9.56645033999,
			"-0.006": 14.1506078405,
			"-0.005": 14.2381563379,
			"-0.004": 15.0165541729,
			"-0.003": 14.0672718524,
			"-0.002": 17.5538698874,
			"-0.001": 16.7129615575,
			"0.0": 16.7490435637,
			"0.001": 15.1386814568,
			"0.002": 11.7449535202,
			"0.003": 11.9658226157,
			"0.004": 13.197817826,
			"0.005": 11.7517605125,
			"0.006": 7.09383649206,
			"0.007": 4.45764855618,
			"0.008": 3.43066316732,
			"0.009": 4.84755310441,
			"0.01": 3.3147517045,
			"0.011": 5.33395731763,
			"0.012": 7.76907630587,
			"0.013": 4.85106987417,
			"0.014": 1.21294757449,
			"0.015": 0.78109316807,
			"0.016": 0.0,
			"0.017": 0.0,
			"0.018": 0.0,
			"0.019": 0.0,
			"0.02": 0.0,
			"0.021": 0.0,
			"0.022": 0.0,
			"0.023": 0.0,
			"0.024": 0.0,
			"0.025": 0.0
		}
	}
}
