{
	 "smiles": "CCC1COC(=O)O1", 
	 "Tm": 228.15, 
	 "num_atms": 16, 
	 "gaussian": { 
		 "optdone": 1, 
		 "sigma_profile": "yes", 
		 "theory": "DFT", 
		 "functional": "B3LYP", 
		 "basiset": "6-31G**", 
		 "properties": { 
			 "R2extent": 1479.6862, 
			 "electric_dipole_moment_norm": 5.3296118095, 
			 "electric_quadrupole_moment_norm": 17.1866497878, 
			 "total_energy": -421.036316999, 
			 "HOMO_LUMO_gap": 0.32972, 
			 "cosmo_polarized_energy": -11.84, 
			 "cosmo_cavitation_energy": 18.92, 
			 "cosmo_dispersion_energy": -14.32, 
			 "cosmo_repulsion_energy": 1.21, 
			 "cosmo_total_nonelectrostatic_energy": 5.81, 
			 "SMD_solvation_energy": 4.93 
		},
		"coords": [
			{
				"x": -0.4806256403,
				"y": 1.4958472899,
				"z": -0.0156366943,
				"element": "C" 
			},
			{
				"x": 1.0066374463,
				"y": 1.8152077635,
				"z": 0.1689667011,
				"element": "C" 
			},
			{
				"x": 1.7728346264,
				"y": 0.826211797,
				"z": 1.0494601909,
				"element": "C" 
			},
			{
				"x": 1.737994889,
				"y": -0.6455728219,
				"z": 0.5829635234,
				"element": "C" 
			},
			{
				"x": 0.8108114487,
				"y": -1.2712985262,
				"z": 1.4763031053,
				"element": "O" 
			},
			{
				"x": 0.5691424657,
				"y": -0.4555951146,
				"z": 2.5396925783,
				"element": "C" 
			},
			{
				"x": -0.0879106322,
				"y": -0.7558755318,
				"z": 3.4926479984,
				"element": "O" 
			},
			{
				"x": 1.1777535831,
				"y": 0.7477875688,
				"z": 2.3614251548,
				"element": "O" 
			},
			{
				"x": -0.9495962817,
				"y": 2.2379423746,
				"z": -0.6679511435,
				"element": "H" 
			},
			{
				"x": -1.0075427618,
				"y": 1.5153966001,
				"z": 0.9423543167,
				"element": "H" 
			},
			{
				"x": -0.6412861344,
				"y": 0.5121038848,
				"z": -0.4692467032,
				"element": "H" 
			},
			{
				"x": 1.5164145226,
				"y": 1.846832895,
				"z": -0.8036127231,
				"element": "H" 
			},
			{
				"x": 1.1175315586,
				"y": 2.8130119613,
				"z": 0.608568529,
				"element": "H" 
			},
			{
				"x": 2.801523332,
				"y": 1.1730443658,
				"z": 1.18455488,
				"element": "H" 
			},
			{
				"x": 1.3744784679,
				"y": -0.7649190668,
				"z": -0.4405185768,
				"element": "H" 
			},
			{
				"x": 2.71123911,
				"y": -1.1380254394,
				"z": 0.6787288631,
				"element": "H" 
			}
		],
		 "valence_orbital": [ 
			{
				"type": "occ",
				"energy": -0.36763,
				"method": "rhf"
			},
			{
				"type": "occ",
				"energy": -0.35102,
				"method": "rhf"
			},
			{
				"type": "occ",
				"energy": -0.30665,
				"method": "rhf"
			},
			{
				"type": "occ",
				"energy": -0.30278,
				"method": "rhf"
			},
			{
				"type": "occ",
				"energy": -0.28984,
				"method": "rhf"
			},
			{
				"type": "unocc",
				"energy": 0.03988,
				"method": "rhf"
			},
			{
				"type": "unocc",
				"energy": 0.06046,
				"method": "rhf"
			},
			{
				"type": "unocc",
				"energy": 0.08337,
				"method": "rhf"
			},
			{
				"type": "unocc",
				"energy": 0.09527,
				"method": "rhf"
			},
			{
				"type": "unocc",
				"energy": 0.11959,
				"method": "rhf"
			}
		],
		"cosmo_sigma_profile": { 
			"-0.025": 0.0,
			"-0.024": 0.0,
			"-0.023": 0.0,
			"-0.022": 0.0,
			"-0.021": 0.0,
			"-0.02": 0.0,
			"-0.019": 0.0,
			"-0.018": 0.0,
			"-0.017": 0.0,
			"-0.016": 0.0,
			"-0.015": 0.0,
			"-0.014": 0.0,
			"-0.013": 0.0,
			"-0.012": 0.0,
			"-0.011": 0.0,
			"-0.01": 0.0,
			"-0.009": 0.0,
			"-0.008": 4.1247428872,
			"-0.007": 13.9386247833,
			"-0.006": 9.88465708026,
			"-0.005": 9.28808288929,
			"-0.004": 11.1344830422,
			"-0.003": 12.6871737462,
			"-0.002": 12.443829265,
			"-0.001": 13.7462718058,
			"0.0": 9.99419302602,
			"0.001": 6.54042487878,
			"0.002": 3.08464228181,
			"0.003": 2.36454829186,
			"0.004": 2.56626653926,
			"0.005": 3.65580626956,
			"0.006": 3.17105320473,
			"0.007": 3.71631498168,
			"0.008": 5.78178888364,
			"0.009": 5.71790609538,
			"0.01": 3.61755894781,
			"0.011": 6.4616130082,
			"0.012": 4.41716619679,
			"0.013": 0.198195893218,
			"0.014": 0.0,
			"0.015": 0.0,
			"0.016": 0.0,
			"0.017": 0.0,
			"0.018": 0.0,
			"0.019": 0.0,
			"0.02": 0.0,
			"0.021": 0.0,
			"0.022": 0.0,
			"0.023": 0.0,
			"0.024": 0.0,
			"0.025": 0.0
		}
	}
}
