{
	 "smiles": "CC1=CSC2=C1N=CN=C2Cl", 
	 "Tm": 397.15, 
	 "num_atms": 16, 
	 "gaussian": { 
		 "optdone": 1, 
		 "sigma_profile": "yes", 
		 "theory": "DFT", 
		 "functional": "B3LYP", 
		 "basiset": "6-31G**", 
		 "properties": { 
			 "R2extent": 3905.6948, 
			 "electric_dipole_moment_norm": 3.19274695208, 
			 "electric_quadrupole_moment_norm": 12.0350407864, 
			 "total_energy": -1237.64113108, 
			 "HOMO_LUMO_gap": 0.18516, 
			 "cosmo_polarized_energy": -6.63, 
			 "cosmo_cavitation_energy": 23.7, 
			 "cosmo_dispersion_energy": -18.42, 
			 "cosmo_repulsion_energy": 1.42, 
			 "cosmo_total_nonelectrostatic_energy": 6.7, 
			 "SMD_solvation_energy": 0.96 
		},
		"coords": [
			{
				"x": 0.1125128804,
				"y": -0.3308525762,
				"z": -4.0335790062,
				"element": "C" 
			},
			{
				"x": 0.9730158453,
				"y": 0.5003463929,
				"z": -3.1286071063,
				"element": "C" 
			},
			{
				"x": 2.1888031596,
				"y": 1.0327745365,
				"z": -3.4340480948,
				"element": "C" 
			},
			{
				"x": 2.9387442944,
				"y": 1.9592507044,
				"z": -2.1468623584,
				"element": "S" 
			},
			{
				"x": 1.5689752527,
				"y": 1.6353685824,
				"z": -1.1215283222,
				"element": "C" 
			},
			{
				"x": 0.5935740827,
				"y": 0.8433381585,
				"z": -1.7767865098,
				"element": "C" 
			},
			{
				"x": -0.5503488059,
				"y": 0.4719205874,
				"z": -1.1693836285,
				"element": "N" 
			},
			{
				"x": -0.6961740178,
				"y": 0.8987013408,
				"z": 0.0785244552,
				"element": "C" 
			},
			{
				"x": 0.1671269877,
				"y": 1.6535716061,
				"z": 0.7912656447,
				"element": "N" 
			},
			{
				"x": 1.2821230043,
				"y": 2.0121547388,
				"z": 0.1906571052,
				"element": "C" 
			},
			{
				"x": 2.4235731365,
				"y": 2.9930183414,
				"z": 1.0908066982,
				"element": "Cl" 
			},
			{
				"x": -0.8637600899,
				"y": 0.142173754,
				"z": -4.1822937788,
				"element": "H" 
			},
			{
				"x": 0.5829500052,
				"y": -0.4727043695,
				"z": -5.009506583,
				"element": "H" 
			},
			{
				"x": -0.0778206835,
				"y": -1.3144567057,
				"z": -3.591686328,
				"element": "H" 
			},
			{
				"x": 2.719506785,
				"y": 0.9387694323,
				"z": -4.3728902009,
				"element": "H" 
			},
			{
				"x": -1.6096018367,
				"y": 0.6151254757,
				"z": 0.5952180137,
				"element": "H" 
			}
		],
		 "valence_orbital": [ 
			{
				"type": "occ",
				"energy": -0.31331,
				"method": "rhf"
			},
			{
				"type": "occ",
				"energy": -0.30918,
				"method": "rhf"
			},
			{
				"type": "occ",
				"energy": -0.27102,
				"method": "rhf"
			},
			{
				"type": "occ",
				"energy": -0.27033,
				"method": "rhf"
			},
			{
				"type": "occ",
				"energy": -0.24895,
				"method": "rhf"
			},
			{
				"type": "unocc",
				"energy": -0.06379,
				"method": "rhf"
			},
			{
				"type": "unocc",
				"energy": -0.03659,
				"method": "rhf"
			},
			{
				"type": "unocc",
				"energy": -0.00174,
				"method": "rhf"
			},
			{
				"type": "unocc",
				"energy": 0.02508,
				"method": "rhf"
			},
			{
				"type": "unocc",
				"energy": 0.03731,
				"method": "rhf"
			}
		],
		"cosmo_sigma_profile": { 
			"-0.025": 0.0,
			"-0.024": 0.0,
			"-0.023": 0.0,
			"-0.022": 0.0,
			"-0.021": 0.0,
			"-0.02": 0.0,
			"-0.019": 0.0,
			"-0.018": 0.0,
			"-0.017": 0.0,
			"-0.016": 0.0,
			"-0.015": 0.0,
			"-0.014": 0.0,
			"-0.013": 0.0,
			"-0.012": 0.0,
			"-0.011": 0.0,
			"-0.01": 0.976622888515,
			"-0.009": 2.72544715479,
			"-0.008": 3.70605468317,
			"-0.007": 3.87588704527,
			"-0.006": 4.3779327199,
			"-0.005": 7.01675572419,
			"-0.004": 9.80048564156,
			"-0.003": 14.7649306662,
			"-0.002": 19.5239268211,
			"-0.001": 25.4412799985,
			"0.0": 24.6464548322,
			"0.001": 19.8897403078,
			"0.002": 16.7174431557,
			"0.003": 14.6079723483,
			"0.004": 6.42991926537,
			"0.005": 3.77079604131,
			"0.006": 3.43577191683,
			"0.007": 2.04874235276,
			"0.008": 2.73998921097,
			"0.009": 1.75717566926,
			"0.01": 1.93163487642,
			"0.011": 1.5352439395,
			"0.012": 1.83954347312,
			"0.013": 1.59361969823,
			"0.014": 0.422943588025,
			"0.015": 0.0,
			"0.016": 0.0,
			"0.017": 0.0,
			"0.018": 0.0,
			"0.019": 0.0,
			"0.02": 0.0,
			"0.021": 0.0,
			"0.022": 0.0,
			"0.023": 0.0,
			"0.024": 0.0,
			"0.025": 0.0
		}
	}
}
