{
	 "smiles": "CCCOC1=C(OC)C=C(C=C1)C(=O)NN", 
	 "Tm": 420.15, 
	 "num_atms": 32, 
	 "gaussian": { 
		 "optdone": 1, 
		 "sigma_profile": "yes", 
		 "theory": "DFT", 
		 "functional": "B3LYP", 
		 "basiset": "6-31G**", 
		 "properties": { 
			 "R2extent": 5041.333, 
			 "electric_dipole_moment_norm": 4.26572294693, 
			 "electric_quadrupole_moment_norm": 13.5134308209, 
			 "total_energy": -763.942263093, 
			 "HOMO_LUMO_gap": 0.19763, 
			 "cosmo_polarized_energy": -15.47, 
			 "cosmo_cavitation_energy": 35.51, 
			 "cosmo_dispersion_energy": -24.53, 
			 "cosmo_repulsion_energy": 1.96, 
			 "cosmo_total_nonelectrostatic_energy": 12.95, 
			 "SMD_solvation_energy": 7.99 
		},
		"coords": [
			{
				"x": -2.5017606341,
				"y": -4.0722639382,
				"z": -0.444881683,
				"element": "C" 
			},
			{
				"x": -1.2092146922,
				"y": -3.709393138,
				"z": -1.1820103614,
				"element": "C" 
			},
			{
				"x": -0.9183396007,
				"y": -2.2158067479,
				"z": -1.2057135792,
				"element": "C" 
			},
			{
				"x": -0.744940035,
				"y": -1.77027541,
				"z": 0.1585526877,
				"element": "O" 
			},
			{
				"x": -0.5349228904,
				"y": -0.4230647049,
				"z": 0.3178143235,
				"element": "C" 
			},
			{
				"x": 0.6730037646,
				"y": 0.1859970195,
				"z": -0.0771679604,
				"element": "C" 
			},
			{
				"x": 1.6702889285,
				"y": -0.5288112446,
				"z": -0.7029219839,
				"element": "O" 
			},
			{
				"x": 2.3473582945,
				"y": -1.4757575044,
				"z": 0.1324263417,
				"element": "C" 
			},
			{
				"x": 0.8541673037,
				"y": 1.5540809742,
				"z": 0.1202324007,
				"element": "C" 
			},
			{
				"x": -0.1492043363,
				"y": 2.3352990579,
				"z": 0.7112757355,
				"element": "C" 
			},
			{
				"x": -1.346938598,
				"y": 1.7214996886,
				"z": 1.1011151357,
				"element": "C" 
			},
			{
				"x": -1.5306773875,
				"y": 0.3545789338,
				"z": 0.9143845285,
				"element": "C" 
			},
			{
				"x": -0.0547095711,
				"y": 3.8248240919,
				"z": 0.8728703195,
				"element": "C" 
			},
			{
				"x": -1.0388245758,
				"y": 4.5447016062,
				"z": 0.7451336519,
				"element": "O" 
			},
			{
				"x": 1.178163449,
				"y": 4.3856083568,
				"z": 1.1569635107,
				"element": "N" 
			},
			{
				"x": 2.2362688625,
				"y": 3.7589936713,
				"z": 1.8542386053,
				"element": "N" 
			},
			{
				"x": -2.6668197961,
				"y": -5.1541383802,
				"z": -0.4482038607,
				"element": "H" 
			},
			{
				"x": -2.4625178615,
				"y": -3.7363647899,
				"z": 0.5946621242,
				"element": "H" 
			},
			{
				"x": -3.3707030854,
				"y": -3.6003790537,
				"z": -0.9178686416,
				"element": "H" 
			},
			{
				"x": -1.2577902033,
				"y": -4.0510711108,
				"z": -2.2238547412,
				"element": "H" 
			},
			{
				"x": -0.3566374216,
				"y": -4.2258391315,
				"z": -0.7238753734,
				"element": "H" 
			},
			{
				"x": -0.0126467789,
				"y": -1.9953510911,
				"z": -1.7810676211,
				"element": "H" 
			},
			{
				"x": -1.7563298131,
				"y": -1.6625377053,
				"z": -1.6530516838,
				"element": "H" 
			},
			{
				"x": 1.6542792371,
				"y": -2.22103745,
				"z": 0.5341119679,
				"element": "H" 
			},
			{
				"x": 3.0908565993,
				"y": -1.9644789423,
				"z": -0.5002553503,
				"element": "H" 
			},
			{
				"x": 2.8564610497,
				"y": -0.967755035,
				"z": 0.9616195401,
				"element": "H" 
			},
			{
				"x": 1.7798607921,
				"y": 1.9915168273,
				"z": -0.2375378797,
				"element": "H" 
			},
			{
				"x": -2.1319096053,
				"y": 2.3347396368,
				"z": 1.5298979473,
				"element": "H" 
			},
			{
				"x": -2.4522563139,
				"y": -0.1355037189,
				"z": 1.2120825088,
				"element": "H" 
			},
			{
				"x": 1.1057852883,
				"y": 5.37739482,
				"z": 1.3530328567,
				"element": "H" 
			},
			{
				"x": 2.8399666393,
				"y": 3.275997652,
				"z": 1.1955989654,
				"element": "H" 
			},
			{
				"x": 1.8681829917,
				"y": 3.0683967605,
				"z": 2.5042975685,
				"element": "H" 
			}
		],
		 "valence_orbital": [ 
			{
				"type": "occ",
				"energy": -0.2729,
				"method": "rhf"
			},
			{
				"type": "occ",
				"energy": -0.2563,
				"method": "rhf"
			},
			{
				"type": "occ",
				"energy": -0.25208,
				"method": "rhf"
			},
			{
				"type": "occ",
				"energy": -0.24865,
				"method": "rhf"
			},
			{
				"type": "occ",
				"energy": -0.23313,
				"method": "rhf"
			},
			{
				"type": "unocc",
				"energy": -0.0355,
				"method": "rhf"
			},
			{
				"type": "unocc",
				"energy": -0.0092,
				"method": "rhf"
			},
			{
				"type": "unocc",
				"energy": 0.04683,
				"method": "rhf"
			},
			{
				"type": "unocc",
				"energy": 0.06821,
				"method": "rhf"
			},
			{
				"type": "unocc",
				"energy": 0.07895,
				"method": "rhf"
			}
		],
		"cosmo_sigma_profile": { 
			"-0.025": 0.0,
			"-0.024": 0.0,
			"-0.023": 0.0,
			"-0.022": 0.0,
			"-0.021": 0.0,
			"-0.02": 0.0,
			"-0.019": 0.0,
			"-0.018": 0.0,
			"-0.017": 0.0,
			"-0.016": 0.0,
			"-0.015": 0.0,
			"-0.014": 0.0454278807557,
			"-0.013": 0.751066805708,
			"-0.012": 2.2401435117,
			"-0.011": 4.12724019572,
			"-0.01": 3.69518376471,
			"-0.009": 4.14090955866,
			"-0.008": 3.14027669881,
			"-0.007": 3.52734140532,
			"-0.006": 6.99621617365,
			"-0.005": 11.114987537,
			"-0.004": 17.991325985,
			"-0.003": 30.69684863,
			"-0.002": 30.9543072787,
			"-0.001": 27.0545321573,
			"0.0": 23.647363021,
			"0.001": 21.7120339488,
			"0.002": 18.1405802853,
			"0.003": 14.7670899546,
			"0.004": 9.99435435898,
			"0.005": 6.49812834803,
			"0.006": 4.88008561516,
			"0.007": 4.49778128854,
			"0.008": 3.83472524087,
			"0.009": 3.99906421983,
			"0.01": 3.52285584079,
			"0.011": 3.20917706371,
			"0.012": 3.15855333719,
			"0.013": 6.00141751188,
			"0.014": 3.57952612271,
			"0.015": 0.714855328921,
			"0.016": 0.376929890658,
			"0.017": 0.0432322379752,
			"0.018": 0.0,
			"0.019": 0.0,
			"0.02": 0.0,
			"0.021": 0.0,
			"0.022": 0.0,
			"0.023": 0.0,
			"0.024": 0.0,
			"0.025": 0.0
		}
	}
}
