{
	 "smiles": "CSC1=NC=CN1", 
	 "Tm": 403.15, 
	 "num_atms": 13, 
	 "gaussian": { 
		 "optdone": 1, 
		 "sigma_profile": "yes", 
		 "theory": "DFT", 
		 "functional": "B3LYP", 
		 "basiset": "6-31G**", 
		 "properties": { 
			 "R2extent": 1462.23, 
			 "electric_dipole_moment_norm": 1.83224225745, 
			 "electric_quadrupole_moment_norm": 12.5333633192, 
			 "total_energy": -663.721207544, 
			 "HOMO_LUMO_gap": 0.22257, 
			 "cosmo_polarized_energy": -10.76, 
			 "cosmo_cavitation_energy": 18.42, 
			 "cosmo_dispersion_energy": -14.46, 
			 "cosmo_repulsion_energy": 1.17, 
			 "cosmo_total_nonelectrostatic_energy": 5.13, 
			 "SMD_solvation_energy": 2.43 
		},
		"coords": [
			{
				"x": -0.1048931214,
				"y": -1.0331136264,
				"z": -0.3015620034,
				"element": "C" 
			},
			{
				"x": -0.5632244172,
				"y": 0.0887764851,
				"z": 1.0636277618,
				"element": "S" 
			},
			{
				"x": -0.8676235194,
				"y": 1.5532354439,
				"z": 0.1194925147,
				"element": "C" 
			},
			{
				"x": -0.7638866465,
				"y": 1.6862200744,
				"z": -1.1850459658,
				"element": "N" 
			},
			{
				"x": -1.1011603733,
				"y": 3.002136667,
				"z": -1.442090328,
				"element": "C" 
			},
			{
				"x": -1.4091211565,
				"y": 3.6625815806,
				"z": -0.284029727,
				"element": "C" 
			},
			{
				"x": -1.2559789901,
				"y": 2.7198185145,
				"z": 0.7210721619,
				"element": "N" 
			},
			{
				"x": 0.112532978,
				"y": -1.9966507448,
				"z": 0.1630038029,
				"element": "H" 
			},
			{
				"x": -0.9320973325,
				"y": -1.1278305772,
				"z": -1.0049344988,
				"element": "H" 
			},
			{
				"x": 0.7750266484,
				"y": -0.6539959668,
				"z": -0.8211579287,
				"element": "H" 
			},
			{
				"x": -1.1003565772,
				"y": 3.3911466306,
				"z": -2.450691481,
				"element": "H" 
			},
			{
				"x": -1.712786659,
				"y": 4.6765344198,
				"z": -0.0756276821,
				"element": "H" 
			},
			{
				"x": -1.4028308333,
				"y": 2.8658410993,
				"z": 1.7079433736,
				"element": "H" 
			}
		],
		 "valence_orbital": [ 
			{
				"type": "occ",
				"energy": -0.33372,
				"method": "rhf"
			},
			{
				"type": "occ",
				"energy": -0.28275,
				"method": "rhf"
			},
			{
				"type": "occ",
				"energy": -0.27105,
				"method": "rhf"
			},
			{
				"type": "occ",
				"energy": -0.2686,
				"method": "rhf"
			},
			{
				"type": "occ",
				"energy": -0.20042,
				"method": "rhf"
			},
			{
				"type": "unocc",
				"energy": 0.02215,
				"method": "rhf"
			},
			{
				"type": "unocc",
				"energy": 0.03316,
				"method": "rhf"
			},
			{
				"type": "unocc",
				"energy": 0.07296,
				"method": "rhf"
			},
			{
				"type": "unocc",
				"energy": 0.08505,
				"method": "rhf"
			},
			{
				"type": "unocc",
				"energy": 0.08646,
				"method": "rhf"
			}
		],
		"cosmo_sigma_profile": { 
			"-0.025": 0.0,
			"-0.024": 0.0,
			"-0.023": 0.0,
			"-0.022": 0.0,
			"-0.021": 0.0,
			"-0.02": 0.0,
			"-0.019": 0.0,
			"-0.018": 0.0,
			"-0.017": 0.524026091108,
			"-0.016": 1.46699842601,
			"-0.015": 1.59333667786,
			"-0.014": 0.656185069752,
			"-0.013": 1.91870060418,
			"-0.012": 1.00678251,
			"-0.011": 0.951768240519,
			"-0.01": 1.36463196669,
			"-0.009": 1.08420058874,
			"-0.008": 3.56378542354,
			"-0.007": 4.40172438291,
			"-0.006": 6.88130962429,
			"-0.005": 8.8809729698,
			"-0.004": 8.19323894342,
			"-0.003": 9.88289042199,
			"-0.002": 10.7950279063,
			"-0.001": 8.95868159014,
			"0.0": 6.12099311541,
			"0.001": 6.25404670614,
			"0.002": 7.88871988342,
			"0.003": 10.2530411008,
			"0.004": 9.93694327743,
			"0.005": 8.91639842103,
			"0.006": 7.90343860672,
			"0.007": 5.64880825548,
			"0.008": 3.83408753365,
			"0.009": 2.02515559185,
			"0.01": 2.09311216149,
			"0.011": 1.4975548589,
			"0.012": 0.863555596332,
			"0.013": 0.808825809551,
			"0.014": 1.08980782093,
			"0.015": 0.851580662473,
			"0.016": 0.584983052764,
			"0.017": 0.184728299333,
			"0.018": 0.0,
			"0.019": 0.0,
			"0.02": 0.0,
			"0.021": 0.0,
			"0.022": 0.0,
			"0.023": 0.0,
			"0.024": 0.0,
			"0.025": 0.0
		}
	}
}
