{
	 "smiles": "COC1=CC=C(C=C1)C1=C(C(=CO1)C(=O)C1=CC=CC=C1)S(=O)(=O)C1=CC=CC=C1", 
	 "Tm": 383.15, 
	 "num_atms": 48, 
	 "gaussian": { 
		 "optdone": 1, 
		 "sigma_profile": "yes", 
		 "theory": "DFT", 
		 "functional": "B3LYP", 
		 "basiset": "6-31G**", 
		 "properties": { 
			 "R2extent": 14098.5102, 
			 "electric_dipole_moment_norm": 0.783884806588, 
			 "electric_quadrupole_moment_norm": 21.0669290256, 
			 "total_energy": -1699.59775989, 
			 "HOMO_LUMO_gap": 0.14683, 
			 "cosmo_polarized_energy": -20.28, 
			 "cosmo_cavitation_energy": 53.33, 
			 "cosmo_dispersion_energy": -35.74, 
			 "cosmo_repulsion_energy": 2.63, 
			 "cosmo_total_nonelectrostatic_energy": 20.22, 
			 "SMD_solvation_energy": 10.18 
		},
		"coords": [
			{
				"x": -4.2277843504,
				"y": -5.4625133161,
				"z": -2.7572286757,
				"element": "C" 
			},
			{
				"x": -4.9429285848,
				"y": -4.38916076,
				"z": -2.1610787963,
				"element": "O" 
			},
			{
				"x": -4.2402792661,
				"y": -3.4338331653,
				"z": -1.4952377676,
				"element": "C" 
			},
			{
				"x": -2.8494288232,
				"y": -3.439152527,
				"z": -1.326748429,
				"element": "C" 
			},
			{
				"x": -2.2320540079,
				"y": -2.4055635733,
				"z": -0.6265288086,
				"element": "C" 
			},
			{
				"x": -2.9787330903,
				"y": -1.3473329216,
				"z": -0.0897876419,
				"element": "C" 
			},
			{
				"x": -4.3793811445,
				"y": -1.3647305952,
				"z": -0.2530093458,
				"element": "C" 
			},
			{
				"x": -5.0018340676,
				"y": -2.3889959319,
				"z": -0.946023982,
				"element": "C" 
			},
			{
				"x": -2.3546035437,
				"y": -0.2709450213,
				"z": 0.6731942783,
				"element": "C" 
			},
			{
				"x": -1.1367429692,
				"y": 0.3859621194,
				"z": 0.6736718483,
				"element": "C" 
			},
			{
				"x": -1.1665027977,
				"y": 1.3410085569,
				"z": 1.7660638058,
				"element": "C" 
			},
			{
				"x": -2.4095090468,
				"y": 1.2148011925,
				"z": 2.3080217148,
				"element": "C" 
			},
			{
				"x": -3.1217454178,
				"y": 0.2444603615,
				"z": 1.6848057676,
				"element": "O" 
			},
			{
				"x": -0.2041118127,
				"y": 2.3479332248,
				"z": 2.3289387766,
				"element": "C" 
			},
			{
				"x": -0.6031718914,
				"y": 3.4915102886,
				"z": 2.5139090138,
				"element": "O" 
			},
			{
				"x": 1.1612578134,
				"y": 1.929941923,
				"z": 2.7628511804,
				"element": "C" 
			},
			{
				"x": 2.0598078845,
				"y": 2.9377227331,
				"z": 3.1550052499,
				"element": "C" 
			},
			{
				"x": 3.3302523324,
				"y": 2.6063688281,
				"z": 3.6111606999,
				"element": "C" 
			},
			{
				"x": 3.7150197504,
				"y": 1.2626078428,
				"z": 3.6920129962,
				"element": "C" 
			},
			{
				"x": 2.8245854384,
				"y": 0.2561005267,
				"z": 3.3165433666,
				"element": "C" 
			},
			{
				"x": 1.5501976249,
				"y": 0.5858531654,
				"z": 2.8532763191,
				"element": "C" 
			},
			{
				"x": 0.1203970475,
				"y": 0.2004692508,
				"z": -0.5865933855,
				"element": "S" 
			},
			{
				"x": 1.233552348,
				"y": -0.5987319747,
				"z": -0.0438355158,
				"element": "O" 
			},
			{
				"x": -0.5500427106,
				"y": -0.2338219223,
				"z": -1.821229989,
				"element": "O" 
			},
			{
				"x": 0.7145651665,
				"y": 1.8755952231,
				"z": -0.86004576,
				"element": "C" 
			},
			{
				"x": 2.0375431846,
				"y": 2.1833281583,
				"z": -0.5440868128,
				"element": "C" 
			},
			{
				"x": 2.5174076993,
				"y": 3.4628187402,
				"z": -0.8308057444,
				"element": "C" 
			},
			{
				"x": 1.6785060314,
				"y": 4.4100014222,
				"z": -1.4196541299,
				"element": "C" 
			},
			{
				"x": 0.3559574985,
				"y": 4.0844258447,
				"z": -1.7366868068,
				"element": "C" 
			},
			{
				"x": -0.1325938771,
				"y": 2.8083040425,
				"z": -1.4658579599,
				"element": "C" 
			},
			{
				"x": -3.6927215036,
				"y": -6.0574691763,
				"z": -2.0064245486,
				"element": "H" 
			},
			{
				"x": -3.5131478011,
				"y": -5.1029348976,
				"z": -3.5078493029,
				"element": "H" 
			},
			{
				"x": -4.9771142967,
				"y": -6.0884471153,
				"z": -3.2437114914,
				"element": "H" 
			},
			{
				"x": -2.2404157909,
				"y": -4.2401853324,
				"z": -1.7272254572,
				"element": "H" 
			},
			{
				"x": -1.1580147581,
				"y": -2.4371541684,
				"z": -0.4885117629,
				"element": "H" 
			},
			{
				"x": -4.9753859302,
				"y": -0.5600954623,
				"z": 0.1641868219,
				"element": "H" 
			},
			{
				"x": -6.0777884707,
				"y": -2.4036511408,
				"z": -1.08360553,
				"element": "H" 
			},
			{
				"x": -2.8905095104,
				"y": 1.7184223021,
				"z": 3.131550622,
				"element": "H" 
			},
			{
				"x": 1.7329753866,
				"y": 3.9700903237,
				"z": 3.0922030373,
				"element": "H" 
			},
			{
				"x": 4.0225056784,
				"y": 3.3891235032,
				"z": 3.9077163043,
				"element": "H" 
			},
			{
				"x": 4.7075428431,
				"y": 1.0030858706,
				"z": 4.0497682727,
				"element": "H" 
			},
			{
				"x": 3.1198732332,
				"y": -0.7866172798,
				"z": 3.380796681,
				"element": "H" 
			},
			{
				"x": 0.8678086215,
				"y": -0.2022838915,
				"z": 2.5588465745,
				"element": "H" 
			},
			{
				"x": 2.6676624634,
				"y": 1.4293854176,
				"z": -0.0864661904,
				"element": "H" 
			},
			{
				"x": 3.5451383917,
				"y": 3.717319984,
				"z": -0.5907833738,
				"element": "H" 
			},
			{
				"x": 2.0550461143,
				"y": 5.4054620439,
				"z": -1.6361517203,
				"element": "H" 
			},
			{
				"x": -0.2915205066,
				"y": 4.8223931278,
				"z": -2.2000208862,
				"element": "H" 
			},
			{
				"x": -1.149736582,
				"y": 2.5349241555,
				"z": -1.7261335164,
				"element": "H" 
			}
		],
		 "valence_orbital": [ 
			{
				"type": "occ",
				"energy": -0.25777,
				"method": "rhf"
			},
			{
				"type": "occ",
				"energy": -0.2559,
				"method": "rhf"
			},
			{
				"type": "occ",
				"energy": -0.25467,
				"method": "rhf"
			},
			{
				"type": "occ",
				"energy": -0.25043,
				"method": "rhf"
			},
			{
				"type": "occ",
				"energy": -0.2112,
				"method": "rhf"
			},
			{
				"type": "unocc",
				"energy": -0.06437,
				"method": "rhf"
			},
			{
				"type": "unocc",
				"energy": -0.04297,
				"method": "rhf"
			},
			{
				"type": "unocc",
				"energy": -0.0319,
				"method": "rhf"
			},
			{
				"type": "unocc",
				"energy": -0.0163,
				"method": "rhf"
			},
			{
				"type": "unocc",
				"energy": -0.0071,
				"method": "rhf"
			}
		],
		"cosmo_sigma_profile": { 
			"-0.025": 0.0,
			"-0.024": 0.0,
			"-0.023": 0.0,
			"-0.022": 0.0,
			"-0.021": 0.0,
			"-0.02": 0.0,
			"-0.019": 0.0,
			"-0.018": 0.0,
			"-0.017": 0.0,
			"-0.016": 0.0,
			"-0.015": 0.0,
			"-0.014": 0.0,
			"-0.013": 0.0,
			"-0.012": 0.0,
			"-0.011": 0.595913154721,
			"-0.01": 2.20055036175,
			"-0.009": 1.13857598929,
			"-0.008": 2.58102089286,
			"-0.007": 13.6160680205,
			"-0.006": 31.6447947213,
			"-0.005": 37.5027721331,
			"-0.004": 33.3286898095,
			"-0.003": 30.7365846508,
			"-0.002": 27.3426879343,
			"-0.001": 29.6999829264,
			"0.0": 25.8452576275,
			"0.001": 30.6235168112,
			"0.002": 38.53949431,
			"0.003": 37.6034871043,
			"0.004": 22.3064232206,
			"0.005": 9.19065856852,
			"0.006": 7.05420388381,
			"0.007": 6.73118538303,
			"0.008": 7.74406134913,
			"0.009": 6.94032908348,
			"0.01": 8.74194604719,
			"0.011": 11.300128976,
			"0.012": 5.03719120895,
			"0.013": 0.271023634618,
			"0.014": 0.0,
			"0.015": 0.0,
			"0.016": 0.0,
			"0.017": 0.0,
			"0.018": 0.0,
			"0.019": 0.0,
			"0.02": 0.0,
			"0.021": 0.0,
			"0.022": 0.0,
			"0.023": 0.0,
			"0.024": 0.0,
			"0.025": 0.0
		}
	}
}
