{
	 "smiles": "COC1=CC=C(CC2CCNCC2)C=C1", 
	 "Tm": 329.15, 
	 "num_atms": 34, 
	 "gaussian": { 
		 "optdone": 1, 
		 "sigma_profile": "yes", 
		 "theory": "DFT", 
		 "functional": "B3LYP", 
		 "basiset": "6-31G**", 
		 "properties": { 
			 "R2extent": 5206.5693, 
			 "electric_dipole_moment_norm": 2.43014871561, 
			 "electric_quadrupole_moment_norm": 5.57133627957, 
			 "total_energy": -636.80347268, 
			 "HOMO_LUMO_gap": 0.20792, 
			 "cosmo_polarized_energy": -8.58, 
			 "cosmo_cavitation_energy": 34.34, 
			 "cosmo_dispersion_energy": -24.81, 
			 "cosmo_repulsion_energy": 1.94, 
			 "cosmo_total_nonelectrostatic_energy": 11.47, 
			 "SMD_solvation_energy": 3.05 
		},
		"coords": [
			{
				"x": -0.5555915636,
				"y": -5.1876751798,
				"z": -1.6293809967,
				"element": "C" 
			},
			{
				"x": -0.2453892063,
				"y": -4.7703291428,
				"z": -0.3109590099,
				"element": "O" 
			},
			{
				"x": -0.3961079555,
				"y": -3.4473516598,
				"z": -0.0008592968,
				"element": "C" 
			},
			{
				"x": -0.8413391506,
				"y": -2.4641043067,
				"z": -0.8922272786,
				"element": "C" 
			},
			{
				"x": -0.9573317369,
				"y": -1.1411070717,
				"z": -0.457428892,
				"element": "C" 
			},
			{
				"x": -0.6391026183,
				"y": -0.7600623321,
				"z": 0.8504672811,
				"element": "C" 
			},
			{
				"x": -0.7578047711,
				"y": 0.6838056388,
				"z": 1.2924472486,
				"element": "C" 
			},
			{
				"x": 0.3627545634,
				"y": 1.6114031078,
				"z": 0.7488479337,
				"element": "C" 
			},
			{
				"x": 0.0805685352,
				"y": 3.0982145886,
				"z": 1.0628838021,
				"element": "C" 
			},
			{
				"x": 0.3582948194,
				"y": 3.4516362356,
				"z": 2.5359386022,
				"element": "C" 
			},
			{
				"x": 1.6987044923,
				"y": 3.0754674358,
				"z": 2.9983831582,
				"element": "N" 
			},
			{
				"x": 1.9878365094,
				"y": 1.661558172,
				"z": 2.7306007196,
				"element": "C" 
			},
			{
				"x": 1.7696198872,
				"y": 1.2375521034,
				"z": 1.2666850475,
				"element": "C" 
			},
			{
				"x": -0.1996628175,
				"y": -1.7655332084,
				"z": 1.7267210242,
				"element": "C" 
			},
			{
				"x": -0.0770510319,
				"y": -3.0880801342,
				"z": 1.3155611612,
				"element": "C" 
			},
			{
				"x": 0.0786784826,
				"y": -4.6888017387,
				"z": -2.3740530629,
				"element": "H" 
			},
			{
				"x": -0.3648092427,
				"y": -6.2617603748,
				"z": -1.6596253228,
				"element": "H" 
			},
			{
				"x": -1.6090618168,
				"y": -5.0027316836,
				"z": -1.8777513644,
				"element": "H" 
			},
			{
				"x": -1.1038035163,
				"y": -2.7133117267,
				"z": -1.9137777629,
				"element": "H" 
			},
			{
				"x": -1.3125116678,
				"y": -0.3909942201,
				"z": -1.1607080517,
				"element": "H" 
			},
			{
				"x": -1.71995595,
				"y": 1.0883023242,
				"z": 0.9509682194,
				"element": "H" 
			},
			{
				"x": -0.7856734826,
				"y": 0.7232428239,
				"z": 2.3870483956,
				"element": "H" 
			},
			{
				"x": 0.3625715848,
				"y": 1.4896326817,
				"z": -0.342942288,
				"element": "H" 
			},
			{
				"x": 0.7275067046,
				"y": 3.7215198123,
				"z": 0.4291535598,
				"element": "H" 
			},
			{
				"x": -0.9546341575,
				"y": 3.3549949357,
				"z": 0.8005707535,
				"element": "H" 
			},
			{
				"x": -0.3695790952,
				"y": 2.9487250042,
				"z": 3.187023214,
				"element": "H" 
			},
			{
				"x": 0.2242807702,
				"y": 4.5271831633,
				"z": 2.6989375851,
				"element": "H" 
			},
			{
				"x": 2.3854410116,
				"y": 3.6472035274,
				"z": 2.5082644146,
				"element": "H" 
			},
			{
				"x": 3.020903949,
				"y": 1.4562924865,
				"z": 3.033517962,
				"element": "H" 
			},
			{
				"x": 1.3490184584,
				"y": 1.0640566989,
				"z": 3.3953361517,
				"element": "H" 
			},
			{
				"x": 2.5187665347,
				"y": 1.7454005259,
				"z": 0.6427111191,
				"element": "H" 
			},
			{
				"x": 1.9450961879,
				"y": 0.1614145819,
				"z": 1.1523060326,
				"element": "H" 
			},
			{
				"x": 0.0458004088,
				"y": -1.5079308169,
				"z": 2.7542986399,
				"element": "H" 
			},
			{
				"x": 0.260566881,
				"y": -3.8622322515,
				"z": 1.9971413009,
				"element": "H" 
			}
		],
		 "valence_orbital": [ 
			{
				"type": "occ",
				"energy": -0.3012,
				"method": "rhf"
			},
			{
				"type": "occ",
				"energy": -0.29965,
				"method": "rhf"
			},
			{
				"type": "occ",
				"energy": -0.24633,
				"method": "rhf"
			},
			{
				"type": "occ",
				"energy": -0.21096,
				"method": "rhf"
			},
			{
				"type": "occ",
				"energy": -0.20693,
				"method": "rhf"
			},
			{
				"type": "unocc",
				"energy": 0.00099,
				"method": "rhf"
			},
			{
				"type": "unocc",
				"energy": 0.01659,
				"method": "rhf"
			},
			{
				"type": "unocc",
				"energy": 0.07812,
				"method": "rhf"
			},
			{
				"type": "unocc",
				"energy": 0.08768,
				"method": "rhf"
			},
			{
				"type": "unocc",
				"energy": 0.09892,
				"method": "rhf"
			}
		],
		"cosmo_sigma_profile": { 
			"-0.025": 0.0,
			"-0.024": 0.0,
			"-0.023": 0.0,
			"-0.022": 0.0,
			"-0.021": 0.0,
			"-0.02": 0.0,
			"-0.019": 0.0,
			"-0.018": 0.0,
			"-0.017": 0.0,
			"-0.016": 0.0,
			"-0.015": 0.0,
			"-0.014": 0.0,
			"-0.013": 0.0,
			"-0.012": 0.0,
			"-0.011": 0.0,
			"-0.01": 0.0,
			"-0.009": 0.750716753453,
			"-0.008": 1.22650107312,
			"-0.007": 1.46939702612,
			"-0.006": 5.19823955562,
			"-0.005": 15.9170454209,
			"-0.004": 20.2084131046,
			"-0.003": 34.2529229758,
			"-0.002": 34.3959805022,
			"-0.001": 32.1212319814,
			"0.0": 28.9789299328,
			"0.001": 20.020972379,
			"0.002": 13.3774748851,
			"0.003": 9.29083025985,
			"0.004": 11.0526184494,
			"0.005": 11.1414811756,
			"0.006": 10.828295687,
			"0.007": 3.92443671719,
			"0.008": 2.19646701595,
			"0.009": 2.62997984765,
			"0.01": 1.78470468933,
			"0.011": 1.86328212185,
			"0.012": 0.829165015391,
			"0.013": 0.668700640956,
			"0.014": 0.426166140407,
			"0.015": 0.524334071514,
			"0.016": 0.507145131504,
			"0.017": 0.843715135998,
			"0.018": 0.460610754572,
			"0.019": 0.493865226354,
			"0.02": 0.0507373161534,
			"0.021": 0.0,
			"0.022": 0.0,
			"0.023": 0.0,
			"0.024": 0.0,
			"0.025": 0.0
		}
	}
}
