{
	 "smiles": "CSCC1=C(Cl)C=CC(N)=N1", 
	 "Tm": 344.15, 
	 "num_atms": 20, 
	 "gaussian": { 
		 "optdone": 1, 
		 "sigma_profile": "yes", 
		 "theory": "DFT", 
		 "functional": "B3LYP", 
		 "basiset": "6-31G**", 
		 "properties": { 
			 "R2extent": 4365.1635, 
			 "electric_dipole_moment_norm": 4.52047069009, 
			 "electric_quadrupole_moment_norm": 14.0791200712, 
			 "total_energy": -1240.06288958, 
			 "HOMO_LUMO_gap": 0.18047, 
			 "cosmo_polarized_energy": -11.45, 
			 "cosmo_cavitation_energy": 26.91, 
			 "cosmo_dispersion_energy": -19.93, 
			 "cosmo_repulsion_energy": 1.58, 
			 "cosmo_total_nonelectrostatic_energy": 8.56, 
			 "SMD_solvation_energy": 3.41 
		},
		"coords": [
			{
				"x": -0.4158704111,
				"y": -1.2415411822,
				"z": 1.69599661,
				"element": "C" 
			},
			{
				"x": 0.853397219,
				"y": -0.2881963637,
				"z": 2.6002457622,
				"element": "S" 
			},
			{
				"x": 1.3810460302,
				"y": 0.8942849988,
				"z": 1.2837051428,
				"element": "C" 
			},
			{
				"x": 0.3594421367,
				"y": 1.9603740522,
				"z": 0.9929823234,
				"element": "C" 
			},
			{
				"x": 0.289093408,
				"y": 3.1699838745,
				"z": 1.6967101602,
				"element": "C" 
			},
			{
				"x": 1.421410901,
				"y": 3.5542726352,
				"z": 2.98575617,
				"element": "Cl" 
			},
			{
				"x": -0.69795383,
				"y": 4.1000357392,
				"z": 1.3642147224,
				"element": "C" 
			},
			{
				"x": -1.596506896,
				"y": 3.8047534093,
				"z": 0.3525645804,
				"element": "C" 
			},
			{
				"x": -1.4675227457,
				"y": 2.567346231,
				"z": -0.3088777876,
				"element": "C" 
			},
			{
				"x": -2.3547914402,
				"y": 2.1793336388,
				"z": -1.2944489886,
				"element": "N" 
			},
			{
				"x": -0.5083764256,
				"y": 1.6851346333,
				"z": 0.0040460492,
				"element": "N" 
			},
			{
				"x": -1.1974007977,
				"y": -0.5867437245,
				"z": 1.3070842891,
				"element": "H" 
			},
			{
				"x": -0.8505220984,
				"y": -1.9385639835,
				"z": 2.4161735036,
				"element": "H" 
			},
			{
				"x": 0.0299332832,
				"y": -1.8082144411,
				"z": 0.8740752402,
				"element": "H" 
			},
			{
				"x": 2.3138709001,
				"y": 1.3236916236,
				"z": 1.65243882,
				"element": "H" 
			},
			{
				"x": 1.5820319512,
				"y": 0.3331399139,
				"z": 0.3683855099,
				"element": "H" 
			},
			{
				"x": -0.7539777123,
				"y": 5.0424681775,
				"z": 1.8986299056,
				"element": "H" 
			},
			{
				"x": -2.3795136274,
				"y": 4.5051931864,
				"z": 0.0794506685,
				"element": "H" 
			},
			{
				"x": -2.8276753896,
				"y": 2.9082757784,
				"z": -1.8069674704,
				"element": "H" 
			},
			{
				"x": -2.0363144555,
				"y": 1.4018718029,
				"z": -1.8553652109,
				"element": "H" 
			}
		],
		 "valence_orbital": [ 
			{
				"type": "occ",
				"energy": -0.29724,
				"method": "rhf"
			},
			{
				"type": "occ",
				"energy": -0.28191,
				"method": "rhf"
			},
			{
				"type": "occ",
				"energy": -0.26727,
				"method": "rhf"
			},
			{
				"type": "occ",
				"energy": -0.22055,
				"method": "rhf"
			},
			{
				"type": "occ",
				"energy": -0.21046,
				"method": "rhf"
			},
			{
				"type": "unocc",
				"energy": -0.02999,
				"method": "rhf"
			},
			{
				"type": "unocc",
				"energy": -0.0059,
				"method": "rhf"
			},
			{
				"type": "unocc",
				"energy": 0.0331,
				"method": "rhf"
			},
			{
				"type": "unocc",
				"energy": 0.05376,
				"method": "rhf"
			},
			{
				"type": "unocc",
				"energy": 0.08043,
				"method": "rhf"
			}
		],
		"cosmo_sigma_profile": { 
			"-0.025": 0.0,
			"-0.024": 0.0,
			"-0.023": 0.0,
			"-0.022": 0.0,
			"-0.021": 0.0,
			"-0.02": 0.0,
			"-0.019": 0.0,
			"-0.018": 0.0,
			"-0.017": 0.0,
			"-0.016": 0.0,
			"-0.015": 0.0,
			"-0.014": 0.288212830404,
			"-0.013": 1.98680368771,
			"-0.012": 2.22258155101,
			"-0.011": 2.65767501666,
			"-0.01": 2.64426046299,
			"-0.009": 2.84787899451,
			"-0.008": 3.86062419311,
			"-0.007": 5.32923886737,
			"-0.006": 8.78853352523,
			"-0.005": 11.385070196,
			"-0.004": 12.0523719655,
			"-0.003": 12.2187643011,
			"-0.002": 16.3853751336,
			"-0.001": 15.2063762441,
			"0.0": 14.5760365206,
			"0.001": 15.4236076435,
			"0.002": 19.2481610319,
			"0.003": 16.9975773897,
			"0.004": 12.5234490982,
			"0.005": 12.9685473286,
			"0.006": 7.15223686247,
			"0.007": 6.21559991782,
			"0.008": 3.44972429667,
			"0.009": 4.40232031435,
			"0.01": 3.29363593238,
			"0.011": 2.24086528866,
			"0.012": 1.08432428525,
			"0.013": 0.193705599837,
			"0.014": 0.0,
			"0.015": 0.0,
			"0.016": 0.0,
			"0.017": 0.0,
			"0.018": 0.0,
			"0.019": 0.0,
			"0.02": 0.0,
			"0.021": 0.0,
			"0.022": 0.0,
			"0.023": 0.0,
			"0.024": 0.0,
			"0.025": 0.0
		}
	}
}
