{
	 "smiles": "COC1=CC(=CC=C1)C1=NN(C(N)=C1)C1=CC=C(C)C=C1", 
	 "Tm": 383.15, 
	 "num_atms": 38, 
	 "gaussian": { 
		 "optdone": 1, 
		 "sigma_profile": "yes", 
		 "theory": "DFT", 
		 "functional": "B3LYP", 
		 "basiset": "6-31G**", 
		 "properties": { 
			 "R2extent": 9629.5925, 
			 "electric_dipole_moment_norm": 4.51119277021, 
			 "electric_quadrupole_moment_norm": 16.3557928622, 
			 "total_energy": -897.516726835, 
			 "HOMO_LUMO_gap": 0.17109, 
			 "cosmo_polarized_energy": -16.42, 
			 "cosmo_cavitation_energy": 41.74, 
			 "cosmo_dispersion_energy": -30.17, 
			 "cosmo_repulsion_energy": 2.29, 
			 "cosmo_total_nonelectrostatic_energy": 13.86, 
			 "SMD_solvation_energy": 7.09 
		},
		"coords": [
			{
				"x": -5.7128949011,
				"y": 1.5372349862,
				"z": 2.5645437175,
				"element": "C" 
			},
			{
				"x": -5.4456561461,
				"y": 0.2790602337,
				"z": 3.157489014,
				"element": "O" 
			},
			{
				"x": -4.2810023352,
				"y": -0.3599935847,
				"z": 2.8285942252,
				"element": "C" 
			},
			{
				"x": -3.3252064303,
				"y": 0.1477786889,
				"z": 1.9446608402,
				"element": "C" 
			},
			{
				"x": -2.1565054324,
				"y": -0.5840551872,
				"z": 1.6675615349,
				"element": "C" 
			},
			{
				"x": -1.9622279914,
				"y": -1.8278592107,
				"z": 2.2835653757,
				"element": "C" 
			},
			{
				"x": -2.9235328841,
				"y": -2.3256500191,
				"z": 3.1631430511,
				"element": "C" 
			},
			{
				"x": -4.0796195607,
				"y": -1.6038492762,
				"z": 3.442865409,
				"element": "C" 
			},
			{
				"x": -1.1464022083,
				"y": -0.0472911774,
				"z": 0.7388895063,
				"element": "C" 
			},
			{
				"x": -0.092100448,
				"y": -0.7832194089,
				"z": 0.390702869,
				"element": "N" 
			},
			{
				"x": 0.6237944846,
				"y": -0.0029747768,
				"z": -0.4777664308,
				"element": "N" 
			},
			{
				"x": 0.0364680811,
				"y": 1.2275426243,
				"z": -0.650392876,
				"element": "C" 
			},
			{
				"x": 0.5622709488,
				"y": 2.2064297086,
				"z": -1.4925284614,
				"element": "N" 
			},
			{
				"x": -1.1151391045,
				"y": 1.2287989842,
				"z": 0.1117941901,
				"element": "C" 
			},
			{
				"x": 1.8476348433,
				"y": -0.4906357708,
				"z": -1.004698146,
				"element": "C" 
			},
			{
				"x": 2.2569079267,
				"y": -0.1725537583,
				"z": -2.3047136041,
				"element": "C" 
			},
			{
				"x": 3.4688715844,
				"y": -0.6691029454,
				"z": -2.7883159071,
				"element": "C" 
			},
			{
				"x": 4.2827659499,
				"y": -1.499662782,
				"z": -2.0112649772,
				"element": "C" 
			},
			{
				"x": 5.5995845273,
				"y": -2.0228759532,
				"z": -2.5340014717,
				"element": "C" 
			},
			{
				"x": 3.8389888582,
				"y": -1.8266250639,
				"z": -0.7201620019,
				"element": "C" 
			},
			{
				"x": 2.6437774091,
				"y": -1.3293789604,
				"z": -0.213276401,
				"element": "C" 
			},
			{
				"x": -6.6776886213,
				"y": 1.8594841951,
				"z": 2.9602816538,
				"element": "H" 
			},
			{
				"x": -4.9501447256,
				"y": 2.2823588942,
				"z": 2.8276650433,
				"element": "H" 
			},
			{
				"x": -5.7789554236,
				"y": 1.4667554741,
				"z": 1.4706243866,
				"element": "H" 
			},
			{
				"x": -3.4812770505,
				"y": 1.103366558,
				"z": 1.4601962667,
				"element": "H" 
			},
			{
				"x": -1.0615778787,
				"y": -2.3892188265,
				"z": 2.0642815545,
				"element": "H" 
			},
			{
				"x": -2.7693184841,
				"y": -3.2903077932,
				"z": 3.6387255254,
				"element": "H" 
			},
			{
				"x": -4.8365696854,
				"y": -1.9769513293,
				"z": 4.1247602992,
				"element": "H" 
			},
			{
				"x": 1.5758445792,
				"y": 2.2430917658,
				"z": -1.492988171,
				"element": "H" 
			},
			{
				"x": 0.1735940524,
				"y": 3.1197696935,
				"z": -1.2945341501,
				"element": "H" 
			},
			{
				"x": -1.8111942911,
				"y": 2.0477170304,
				"z": 0.2119461512,
				"element": "H" 
			},
			{
				"x": 1.6224633867,
				"y": 0.433161446,
				"z": -2.941985395,
				"element": "H" 
			},
			{
				"x": 3.7737382841,
				"y": -0.4171472296,
				"z": -3.8009337387,
				"element": "H" 
			},
			{
				"x": 6.4475217934,
				"y": -1.4969413602,
				"z": -2.0777035434,
				"element": "H" 
			},
			{
				"x": 5.6787375405,
				"y": -1.8952575041,
				"z": -3.6173169965,
				"element": "H" 
			},
			{
				"x": 5.7243259119,
				"y": -3.0875479427,
				"z": -2.3101112582,
				"element": "H" 
			},
			{
				"x": 4.4448482453,
				"y": -2.4799873409,
				"z": -0.0969432895,
				"element": "H" 
			},
			{
				"x": 2.3021751955,
				"y": -1.5884630813,
				"z": 0.7816462059,
				"element": "H" 
			}
		],
		 "valence_orbital": [ 
			{
				"type": "occ",
				"energy": -0.25419,
				"method": "rhf"
			},
			{
				"type": "occ",
				"energy": -0.24225,
				"method": "rhf"
			},
			{
				"type": "occ",
				"energy": -0.21635,
				"method": "rhf"
			},
			{
				"type": "occ",
				"energy": -0.21237,
				"method": "rhf"
			},
			{
				"type": "occ",
				"energy": -0.19341,
				"method": "rhf"
			},
			{
				"type": "unocc",
				"energy": -0.02232,
				"method": "rhf"
			},
			{
				"type": "unocc",
				"energy": -0.00718,
				"method": "rhf"
			},
			{
				"type": "unocc",
				"energy": 0.00237,
				"method": "rhf"
			},
			{
				"type": "unocc",
				"energy": 0.02211,
				"method": "rhf"
			},
			{
				"type": "unocc",
				"energy": 0.05845,
				"method": "rhf"
			}
		],
		"cosmo_sigma_profile": { 
			"-0.025": 0.0,
			"-0.024": 0.0,
			"-0.023": 0.0,
			"-0.022": 0.0,
			"-0.021": 0.0,
			"-0.02": 0.0,
			"-0.019": 0.0,
			"-0.018": 0.0,
			"-0.017": 0.0,
			"-0.016": 0.0,
			"-0.015": 0.0,
			"-0.014": 0.203504539045,
			"-0.013": 1.65783502432,
			"-0.012": 2.57338486388,
			"-0.011": 2.65058629794,
			"-0.01": 2.58584931454,
			"-0.009": 2.87767813608,
			"-0.008": 2.91058847346,
			"-0.007": 5.05953862763,
			"-0.006": 10.9696080666,
			"-0.005": 24.9199475351,
			"-0.004": 29.6712547078,
			"-0.003": 29.5304471965,
			"-0.002": 24.1215842214,
			"-0.001": 20.545625249,
			"0.0": 21.6416637485,
			"0.001": 18.2648627694,
			"0.002": 16.7402554031,
			"0.003": 21.1895912923,
			"0.004": 27.6283399083,
			"0.005": 31.6292042341,
			"0.006": 14.8520914288,
			"0.007": 4.40864656679,
			"0.008": 4.74363742184,
			"0.009": 3.70869080446,
			"0.01": 3.03060200814,
			"0.011": 2.27494607772,
			"0.012": 1.19845359665,
			"0.013": 0.996653021587,
			"0.014": 0.12158294618,
			"0.015": 0.0,
			"0.016": 0.0,
			"0.017": 0.0,
			"0.018": 0.0,
			"0.019": 0.0,
			"0.02": 0.0,
			"0.021": 0.0,
			"0.022": 0.0,
			"0.023": 0.0,
			"0.024": 0.0,
			"0.025": 0.0
		}
	}
}
