{
	 "smiles": "ClS(=O)(=O)C1CCOCC1", 
	 "Tm": 308.15, 
	 "num_atms": 19, 
	 "gaussian": { 
		 "optdone": 1, 
		 "sigma_profile": "yes", 
		 "theory": "DFT", 
		 "functional": "B3LYP", 
		 "basiset": "6-31G**", 
		 "properties": { 
			 "R2extent": 2491.9201, 
			 "electric_dipole_moment_norm": 3.54079717719, 
			 "electric_quadrupole_moment_norm": 11.5964767085, 
			 "total_energy": -1279.93702808, 
			 "HOMO_LUMO_gap": 0.18021, 
			 "cosmo_polarized_energy": -10.8, 
			 "cosmo_cavitation_energy": 23.67, 
			 "cosmo_dispersion_energy": -18.52, 
			 "cosmo_repulsion_energy": 1.44, 
			 "cosmo_total_nonelectrostatic_energy": 6.6, 
			 "SMD_solvation_energy": 2.41 
		},
		"coords": [
			{
				"x": -3.4763457305,
				"y": -1.7224371848,
				"z": -0.3773434027,
				"element": "Cl" 
			},
			{
				"x": -1.6026856601,
				"y": -1.6380740032,
				"z": 0.6719317375,
				"element": "S" 
			},
			{
				"x": -1.6358245541,
				"y": -0.4273813747,
				"z": 1.4889757213,
				"element": "O" 
			},
			{
				"x": -1.4018823886,
				"y": -2.9520055032,
				"z": 1.2738046372,
				"element": "O" 
			},
			{
				"x": -0.4522822134,
				"y": -1.4556693595,
				"z": -0.7660587823,
				"element": "C" 
			},
			{
				"x": 0.9902047916,
				"y": -1.7194893951,
				"z": -0.2912322716,
				"element": "C" 
			},
			{
				"x": 1.6147816672,
				"y": -0.4864949895,
				"z": 0.3708736458,
				"element": "C" 
			},
			{
				"x": 1.5313000375,
				"y": 0.6464750347,
				"z": -0.4815655763,
				"element": "O" 
			},
			{
				"x": 0.1808564951,
				"y": 1.0211542155,
				"z": -0.7273344314,
				"element": "C" 
			},
			{
				"x": -0.5858370776,
				"y": -0.0904327357,
				"z": -1.4568253484,
				"element": "C" 
			},
			{
				"x": -0.7970209101,
				"y": -2.2654539625,
				"z": -1.4154351382,
				"element": "H" 
			},
			{
				"x": 1.032076056,
				"y": -2.5927788765,
				"z": 0.366213114,
				"element": "H" 
			},
			{
				"x": 1.5639241217,
				"y": -1.9601488775,
				"z": -1.1941084064,
				"element": "H" 
			},
			{
				"x": 2.6785877548,
				"y": -0.6588646193,
				"z": 0.555726716,
				"element": "H" 
			},
			{
				"x": 1.1316374418,
				"y": -0.2768161097,
				"z": 1.3378293433,
				"element": "H" 
			},
			{
				"x": -0.3218488477,
				"y": 1.2791573645,
				"z": 0.2144997747,
				"element": "H" 
			},
			{
				"x": 0.2190569443,
				"y": 1.9165935968,
				"z": -1.353519228,
				"element": "H" 
			},
			{
				"x": -0.1557082082,
				"y": -0.2170630935,
				"z": -2.4575899226,
				"element": "H" 
			},
			{
				"x": -1.6362897198,
				"y": 0.1846298731,
				"z": -1.5937421819,
				"element": "H" 
			}
		],
		 "valence_orbital": [ 
			{
				"type": "occ",
				"energy": -0.33628,
				"method": "rhf"
			},
			{
				"type": "occ",
				"energy": -0.33072,
				"method": "rhf"
			},
			{
				"type": "occ",
				"energy": -0.31789,
				"method": "rhf"
			},
			{
				"type": "occ",
				"energy": -0.3151,
				"method": "rhf"
			},
			{
				"type": "occ",
				"energy": -0.26772,
				"method": "rhf"
			},
			{
				"type": "unocc",
				"energy": -0.08751,
				"method": "rhf"
			},
			{
				"type": "unocc",
				"energy": 0.02907,
				"method": "rhf"
			},
			{
				"type": "unocc",
				"energy": 0.04721,
				"method": "rhf"
			},
			{
				"type": "unocc",
				"energy": 0.0664,
				"method": "rhf"
			},
			{
				"type": "unocc",
				"energy": 0.08635,
				"method": "rhf"
			}
		],
		"cosmo_sigma_profile": { 
			"-0.025": 0.0,
			"-0.024": 0.0,
			"-0.023": 0.0,
			"-0.022": 0.0,
			"-0.021": 0.0,
			"-0.02": 0.0,
			"-0.019": 0.0,
			"-0.018": 0.0,
			"-0.017": 0.0,
			"-0.016": 0.0,
			"-0.015": 0.0,
			"-0.014": 0.0,
			"-0.013": 0.0,
			"-0.012": 0.0,
			"-0.011": 0.0,
			"-0.01": 1.19006738368,
			"-0.009": 2.72741656784,
			"-0.008": 3.32642129394,
			"-0.007": 4.99689892206,
			"-0.006": 11.590992664,
			"-0.005": 18.6270982736,
			"-0.004": 18.3720146173,
			"-0.003": 17.0466551182,
			"-0.002": 13.3099201342,
			"-0.001": 7.32796128357,
			"0.0": 8.30047117015,
			"0.001": 9.48609041386,
			"0.002": 9.66207057164,
			"0.003": 13.0121660071,
			"0.004": 11.5495783349,
			"0.005": 4.43428851726,
			"0.006": 5.05995123112,
			"0.007": 5.0053384312,
			"0.008": 9.03008039353,
			"0.009": 8.46522374342,
			"0.01": 1.39749578226,
			"0.011": 1.31160700232,
			"0.012": 1.48643770181,
			"0.013": 1.59296012664,
			"0.014": 0.0410438123848,
			"0.015": 0.0,
			"0.016": 0.0,
			"0.017": 0.0,
			"0.018": 0.0,
			"0.019": 0.0,
			"0.02": 0.0,
			"0.021": 0.0,
			"0.022": 0.0,
			"0.023": 0.0,
			"0.024": 0.0,
			"0.025": 0.0
		}
	}
}
