{
	 "smiles": "NCC(O)COCC1=CC=CC=C1", 
	 "Tm": 348.15, 
	 "num_atms": 28, 
	 "gaussian": { 
		 "optdone": 1, 
		 "sigma_profile": "yes", 
		 "theory": "DFT", 
		 "functional": "B3LYP", 
		 "basiset": "6-31G**", 
		 "properties": { 
			 "R2extent": 3493.8784, 
			 "electric_dipole_moment_norm": 3.24978865774, 
			 "electric_quadrupole_moment_norm": 7.98685982223, 
			 "total_energy": -595.27692092, 
			 "HOMO_LUMO_gap": 0.21268, 
			 "cosmo_polarized_energy": -13.11, 
			 "cosmo_cavitation_energy": 30.8, 
			 "cosmo_dispersion_energy": -21.55, 
			 "cosmo_repulsion_energy": 1.75, 
			 "cosmo_total_nonelectrostatic_energy": 11.0, 
			 "SMD_solvation_energy": 3.51 
		},
		"coords": [
			{
				"x": 1.1466894548,
				"y": -0.7102084123,
				"z": 2.5644118599,
				"element": "N" 
			},
			{
				"x": -0.1555250105,
				"y": -1.2991020524,
				"z": 2.2550416499,
				"element": "C" 
			},
			{
				"x": -1.2098620656,
				"y": -0.3489568957,
				"z": 1.6598333849,
				"element": "C" 
			},
			{
				"x": -2.4605278171,
				"y": -1.031174901,
				"z": 1.7390510574,
				"element": "O" 
			},
			{
				"x": -0.9476877811,
				"y": 0.0173354508,
				"z": 0.19446155,
				"element": "C" 
			},
			{
				"x": 0.2780490592,
				"y": 0.729568043,
				"z": 0.0822228023,
				"element": "O" 
			},
			{
				"x": 0.567392855,
				"y": 1.1770495618,
				"z": -1.2371980789,
				"element": "C" 
			},
			{
				"x": 0.9080634114,
				"y": 0.0666337254,
				"z": -2.2140504631,
				"element": "C" 
			},
			{
				"x": 1.7834688545,
				"y": -0.962641384,
				"z": -1.8411505866,
				"element": "C" 
			},
			{
				"x": 2.1251522851,
				"y": -1.9645793572,
				"z": -2.7484103948,
				"element": "C" 
			},
			{
				"x": 1.6016314703,
				"y": -1.947805382,
				"z": -4.0441644539,
				"element": "C" 
			},
			{
				"x": 0.7295516835,
				"y": -0.9273048884,
				"z": -4.4239608108,
				"element": "C" 
			},
			{
				"x": 0.3811949566,
				"y": 0.0697100144,
				"z": -3.5098341589,
				"element": "C" 
			},
			{
				"x": 1.4692783135,
				"y": -0.1880907144,
				"z": 1.7534606028,
				"element": "H" 
			},
			{
				"x": 1.0408070032,
				"y": -0.026824816,
				"z": 3.3112158304,
				"element": "H" 
			},
			{
				"x": -0.5814330026,
				"y": -1.7238245803,
				"z": 3.1703970857,
				"element": "H" 
			},
			{
				"x": -0.0118482538,
				"y": -2.1375656842,
				"z": 1.5613306072,
				"element": "H" 
			},
			{
				"x": -1.2243541012,
				"y": 0.576175238,
				"z": 2.2608605487,
				"element": "H" 
			},
			{
				"x": -3.1560790813,
				"y": -0.430035493,
				"z": 1.4422333834,
				"element": "H" 
			},
			{
				"x": -0.9305191635,
				"y": -0.9035916243,
				"z": -0.4053561512,
				"element": "H" 
			},
			{
				"x": -1.7763984651,
				"y": 0.6439350644,
				"z": -0.1832120505,
				"element": "H" 
			},
			{
				"x": -0.2735031164,
				"y": 1.7715151742,
				"z": -1.6285743795,
				"element": "H" 
			},
			{
				"x": 1.4219223891,
				"y": 1.8539398588,
				"z": -1.1220493196,
				"element": "H" 
			},
			{
				"x": 2.1893611501,
				"y": -0.9789710691,
				"z": -0.8336736209,
				"element": "H" 
			},
			{
				"x": 2.8017883719,
				"y": -2.7586839881,
				"z": -2.4454901314,
				"element": "H" 
			},
			{
				"x": 1.8698491415,
				"y": -2.7278593483,
				"z": -4.7508895306,
				"element": "H" 
			},
			{
				"x": 0.3129000757,
				"y": -0.9106729132,
				"z": -5.4271339923,
				"element": "H" 
			},
			{
				"x": -0.3066626171,
				"y": 0.8582313732,
				"z": -3.8070722397,
				"element": "H" 
			}
		],
		 "valence_orbital": [ 
			{
				"type": "occ",
				"energy": -0.27205,
				"method": "rhf"
			},
			{
				"type": "occ",
				"energy": -0.26867,
				"method": "rhf"
			},
			{
				"type": "occ",
				"energy": -0.25295,
				"method": "rhf"
			},
			{
				"type": "occ",
				"energy": -0.24772,
				"method": "rhf"
			},
			{
				"type": "occ",
				"energy": -0.22176,
				"method": "rhf"
			},
			{
				"type": "unocc",
				"energy": -0.00908,
				"method": "rhf"
			},
			{
				"type": "unocc",
				"energy": -0.00378,
				"method": "rhf"
			},
			{
				"type": "unocc",
				"energy": 0.06639,
				"method": "rhf"
			},
			{
				"type": "unocc",
				"energy": 0.08047,
				"method": "rhf"
			},
			{
				"type": "unocc",
				"energy": 0.09678,
				"method": "rhf"
			}
		],
		"cosmo_sigma_profile": { 
			"-0.025": 0.0,
			"-0.024": 0.0,
			"-0.023": 0.0,
			"-0.022": 0.0,
			"-0.021": 0.0,
			"-0.02": 0.0,
			"-0.019": 0.0,
			"-0.018": 0.0,
			"-0.017": 0.0,
			"-0.016": 0.167036835533,
			"-0.015": 0.996146644085,
			"-0.014": 1.50597919581,
			"-0.013": 0.528497744462,
			"-0.012": 0.88511868735,
			"-0.011": 1.15720130356,
			"-0.01": 1.23392089189,
			"-0.009": 2.87931937313,
			"-0.008": 2.22960193437,
			"-0.007": 2.3525325523,
			"-0.006": 6.51474177101,
			"-0.005": 19.0604782813,
			"-0.004": 23.6218705903,
			"-0.003": 27.0257030656,
			"-0.002": 21.4481849669,
			"-0.001": 20.0099563496,
			"0.0": 15.9206736833,
			"0.001": 13.7109043558,
			"0.002": 10.9998669183,
			"0.003": 12.2289605737,
			"0.004": 10.8243193976,
			"0.005": 10.9687349055,
			"0.006": 10.2396225011,
			"0.007": 2.83936759311,
			"0.008": 3.3522180402,
			"0.009": 2.85771517024,
			"0.01": 1.81543084664,
			"0.011": 2.23880150749,
			"0.012": 2.34453175454,
			"0.013": 2.68514120869,
			"0.014": 2.11239746929,
			"0.015": 0.414816455335,
			"0.016": 1.35029947641,
			"0.017": 0.275851177942,
			"0.018": 0.478846558466,
			"0.019": 0.797770263318,
			"0.02": 0.603491095989,
			"0.021": 0.0366588138265,
			"0.022": 0.0,
			"0.023": 0.0,
			"0.024": 0.0,
			"0.025": 0.0
		}
	}
}
