{
	 "smiles": "[O-][N+](=O)C1=CC2=C(NCC2)C=C1", 
	 "Tm": 366.15, 
	 "num_atms": 20, 
	 "gaussian": { 
		 "optdone": 1, 
		 "sigma_profile": "yes", 
		 "theory": "DFT", 
		 "functional": "B3LYP", 
		 "basiset": "6-31G**", 
		 "properties": { 
			 "R2extent": 2242.2694, 
			 "electric_dipole_moment_norm": 7.28238773549, 
			 "electric_quadrupole_moment_norm": 7.79692601607, 
			 "total_energy": -569.529100922, 
			 "HOMO_LUMO_gap": 0.1485, 
			 "cosmo_polarized_energy": -13.64, 
			 "cosmo_cavitation_energy": 23.99, 
			 "cosmo_dispersion_energy": -18.19, 
			 "cosmo_repulsion_energy": 1.45, 
			 "cosmo_total_nonelectrostatic_energy": 7.25, 
			 "SMD_solvation_energy": 4.87 
		},
		"coords": [
			{
				"x": 1.9160566068,
				"y": -1.5824410986,
				"z": -1.9266657988,
				"element": "O" 
			},
			{
				"x": 0.7311008872,
				"y": -1.2666888253,
				"z": -2.0737167235,
				"element": "N" 
			},
			{
				"x": 0.0457334441,
				"y": -1.5861796819,
				"z": -3.04973133,
				"element": "O" 
			},
			{
				"x": 0.105961941,
				"y": -0.4681715577,
				"z": -1.0289522803,
				"element": "C" 
			},
			{
				"x": 0.8686203121,
				"y": -0.0941250357,
				"z": 0.0903080977,
				"element": "C" 
			},
			{
				"x": 0.2612666365,
				"y": 0.672554031,
				"z": 1.0621214809,
				"element": "C" 
			},
			{
				"x": -1.092186837,
				"y": 1.0583512029,
				"z": 0.9292787397,
				"element": "C" 
			},
			{
				"x": -1.4921077059,
				"y": 1.7920995462,
				"z": 2.0289328639,
				"element": "N" 
			},
			{
				"x": -0.3038938337,
				"y": 2.2403456801,
				"z": 2.7777369384,
				"element": "C" 
			},
			{
				"x": 0.7778348687,
				"y": 1.2012003594,
				"z": 2.3851431457,
				"element": "C" 
			},
			{
				"x": -1.847441661,
				"y": 0.6780450454,
				"z": -0.1876532093,
				"element": "C" 
			},
			{
				"x": -1.232121243,
				"y": -0.0920987951,
				"z": -1.1703985523,
				"element": "C" 
			},
			{
				"x": 1.9036218103,
				"y": -0.4078017423,
				"z": 0.1546829512,
				"element": "H" 
			},
			{
				"x": -2.2716771185,
				"y": 2.4283035508,
				"z": 1.9351524701,
				"element": "H" 
			},
			{
				"x": -0.504764318,
				"y": 2.2602654487,
				"z": 3.8521758003,
				"element": "H" 
			},
			{
				"x": -0.0003785221,
				"y": 3.2509452914,
				"z": 2.4665228228,
				"element": "H" 
			},
			{
				"x": 0.8240092194,
				"y": 0.3939775283,
				"z": 3.12714267,
				"element": "H" 
			},
			{
				"x": 1.7743739814,
				"y": 1.6461887455,
				"z": 2.3225004249,
				"element": "H" 
			},
			{
				"x": -2.8858944172,
				"y": 0.9766105172,
				"z": -0.2915958404,
				"element": "H" 
			},
			{
				"x": -1.7698140512,
				"y": -0.4064802102,
				"z": -2.056184671,
				"element": "H" 
			}
		],
		 "valence_orbital": [ 
			{
				"type": "occ",
				"energy": -0.29039,
				"method": "rhf"
			},
			{
				"type": "occ",
				"energy": -0.28942,
				"method": "rhf"
			},
			{
				"type": "occ",
				"energy": -0.27075,
				"method": "rhf"
			},
			{
				"type": "occ",
				"energy": -0.2656,
				"method": "rhf"
			},
			{
				"type": "occ",
				"energy": -0.21716,
				"method": "rhf"
			},
			{
				"type": "unocc",
				"energy": -0.06866,
				"method": "rhf"
			},
			{
				"type": "unocc",
				"energy": -0.01892,
				"method": "rhf"
			},
			{
				"type": "unocc",
				"energy": 0.0242,
				"method": "rhf"
			},
			{
				"type": "unocc",
				"energy": 0.06934,
				"method": "rhf"
			},
			{
				"type": "unocc",
				"energy": 0.09549,
				"method": "rhf"
			}
		],
		"cosmo_sigma_profile": { 
			"-0.025": 0.0,
			"-0.024": 0.0,
			"-0.023": 0.0,
			"-0.022": 0.0,
			"-0.021": 0.0,
			"-0.02": 0.0,
			"-0.019": 0.0,
			"-0.018": 0.0,
			"-0.017": 0.0,
			"-0.016": 0.0,
			"-0.015": 0.0,
			"-0.014": 1.1270083314,
			"-0.013": 1.52519225406,
			"-0.012": 1.30217074913,
			"-0.011": 1.19574318872,
			"-0.01": 1.53203275525,
			"-0.009": 1.45173837591,
			"-0.008": 1.73008883095,
			"-0.007": 3.95742834061,
			"-0.006": 6.47725459153,
			"-0.005": 13.4272391873,
			"-0.004": 20.6722814393,
			"-0.003": 17.3153869826,
			"-0.002": 16.8042181921,
			"-0.001": 9.63352973679,
			"0.0": 10.812145684,
			"0.001": 12.4147030106,
			"0.002": 12.6044294786,
			"0.003": 13.5949046677,
			"0.004": 5.78991213423,
			"0.005": 3.67303269897,
			"0.006": 2.59654033103,
			"0.007": 4.47199950627,
			"0.008": 6.54341535593,
			"0.009": 10.3972465906,
			"0.01": 5.23253439348,
			"0.011": 3.84804882851,
			"0.012": 0.849799349418,
			"0.013": 0.0,
			"0.014": 0.0,
			"0.015": 0.0,
			"0.016": 0.0,
			"0.017": 0.0,
			"0.018": 0.0,
			"0.019": 0.0,
			"0.02": 0.0,
			"0.021": 0.0,
			"0.022": 0.0,
			"0.023": 0.0,
			"0.024": 0.0,
			"0.025": 0.0
		}
	}
}
