{
	 "smiles": "OCCN1CCCCC1", 
	 "Tm": 290.05, 
	 "num_atms": 24, 
	 "gaussian": { 
		 "optdone": 1, 
		 "sigma_profile": "yes", 
		 "theory": "DFT", 
		 "functional": "B3LYP", 
		 "basiset": "6-31G**", 
		 "properties": { 
			 "R2extent": 1878.9477, 
			 "electric_dipole_moment_norm": 1.62552300814, 
			 "electric_quadrupole_moment_norm": 9.8486581289, 
			 "total_energy": -405.740104158, 
			 "HOMO_LUMO_gap": 0.2826, 
			 "cosmo_polarized_energy": -7.09, 
			 "cosmo_cavitation_energy": 24.25, 
			 "cosmo_dispersion_energy": -18.22, 
			 "cosmo_repulsion_energy": 1.52, 
			 "cosmo_total_nonelectrostatic_energy": 7.56, 
			 "SMD_solvation_energy": 1.53 
		},
		"coords": [
			{
				"x": -2.4550289041,
				"y": -3.0557646372,
				"z": 1.5122564245,
				"element": "O" 
			},
			{
				"x": -1.9378276485,
				"y": -2.3875553051,
				"z": 0.3691845133,
				"element": "C" 
			},
			{
				"x": -0.8939847396,
				"y": -1.3317306621,
				"z": 0.7543694576,
				"element": "C" 
			},
			{
				"x": -0.4010772581,
				"y": -0.5745365521,
				"z": -0.388598802,
				"element": "N" 
			},
			{
				"x": 0.308155322,
				"y": 0.6500884912,
				"z": -0.0140016227,
				"element": "C" 
			},
			{
				"x": 0.4107334381,
				"y": 1.596297318,
				"z": -1.2301529642,
				"element": "C" 
			},
			{
				"x": 0.5067804645,
				"y": 0.7977711487,
				"z": -2.5483491618,
				"element": "C" 
			},
			{
				"x": 1.2128265505,
				"y": -0.5376852644,
				"z": -2.2944699765,
				"element": "C" 
			},
			{
				"x": 0.4017824525,
				"y": -1.4017657244,
				"z": -1.3050552461,
				"element": "C" 
			},
			{
				"x": -2.9337441378,
				"y": -2.404863017,
				"z": 2.0416735409,
				"element": "H" 
			},
			{
				"x": -2.7298527152,
				"y": -1.9091345516,
				"z": -0.2273451657,
				"element": "H" 
			},
			{
				"x": -1.4915788271,
				"y": -3.1724047607,
				"z": -0.2482256422,
				"element": "H" 
			},
			{
				"x": -0.0821538723,
				"y": -1.8305122477,
				"z": 1.3202360354,
				"element": "H" 
			},
			{
				"x": -1.3723705242,
				"y": -0.6244055375,
				"z": 1.4458152536,
				"element": "H" 
			},
			{
				"x": -0.2460905069,
				"y": 1.1378179877,
				"z": 0.7945101616,
				"element": "H" 
			},
			{
				"x": 1.3161740525,
				"y": 0.4328163664,
				"z": 0.3915990742,
				"element": "H" 
			},
			{
				"x": -0.4618185978,
				"y": 2.2575177945,
				"z": -1.2627301115,
				"element": "H" 
			},
			{
				"x": 1.2914313262,
				"y": 2.2383312915,
				"z": -1.1070222485,
				"element": "H" 
			},
			{
				"x": 1.0351903323,
				"y": 1.3787384747,
				"z": -3.3121923445,
				"element": "H" 
			},
			{
				"x": -0.4991473896,
				"y": 0.6027660447,
				"z": -2.9365164474,
				"element": "H" 
			},
			{
				"x": 1.3615695997,
				"y": -1.0941513053,
				"z": -3.2260310254,
				"element": "H" 
			},
			{
				"x": 2.2136471926,
				"y": -0.3421672112,
				"z": -1.8893718662,
				"element": "H" 
			},
			{
				"x": -0.2788654633,
				"y": -2.0542539695,
				"z": -1.8646029999,
				"element": "H" 
			},
			{
				"x": 1.0896498538,
				"y": -2.0649141716,
				"z": -0.7440788368,
				"element": "H" 
			}
		],
		 "valence_orbital": [ 
			{
				"type": "occ",
				"energy": -0.32266,
				"method": "rhf"
			},
			{
				"type": "occ",
				"energy": -0.31,
				"method": "rhf"
			},
			{
				"type": "occ",
				"energy": -0.30559,
				"method": "rhf"
			},
			{
				"type": "occ",
				"energy": -0.26332,
				"method": "rhf"
			},
			{
				"type": "occ",
				"energy": -0.20587,
				"method": "rhf"
			},
			{
				"type": "unocc",
				"energy": 0.07673,
				"method": "rhf"
			},
			{
				"type": "unocc",
				"energy": 0.07923,
				"method": "rhf"
			},
			{
				"type": "unocc",
				"energy": 0.11091,
				"method": "rhf"
			},
			{
				"type": "unocc",
				"energy": 0.11458,
				"method": "rhf"
			},
			{
				"type": "unocc",
				"energy": 0.12063,
				"method": "rhf"
			}
		],
		"cosmo_sigma_profile": { 
			"-0.025": 0.0,
			"-0.024": 0.0,
			"-0.023": 0.0,
			"-0.022": 0.0,
			"-0.021": 0.0,
			"-0.02": 0.0,
			"-0.019": 0.0,
			"-0.018": 0.0,
			"-0.017": 0.0,
			"-0.016": 0.000181781727213,
			"-0.015": 0.792022277509,
			"-0.014": 1.12360385899,
			"-0.013": 0.90289770267,
			"-0.012": 1.31940073466,
			"-0.011": 0.766667209005,
			"-0.01": 1.15945916673,
			"-0.009": 0.898389077033,
			"-0.008": 0.651349285401,
			"-0.007": 0.947126660652,
			"-0.006": 1.57182017641,
			"-0.005": 1.61034309893,
			"-0.004": 6.22505642805,
			"-0.003": 14.4287866105,
			"-0.002": 23.9819588284,
			"-0.001": 41.3479530933,
			"0.0": 35.078676618,
			"0.001": 19.4390121152,
			"0.002": 5.53787895246,
			"0.003": 3.39880813615,
			"0.004": 2.34659525989,
			"0.005": 2.37666324022,
			"0.006": 1.84902874998,
			"0.007": 1.82850448755,
			"0.008": 2.22511780823,
			"0.009": 2.33084792677,
			"0.01": 2.06397945603,
			"0.011": 1.55547575303,
			"0.012": 1.22504720584,
			"0.013": 2.47177433676,
			"0.014": 2.86050517868,
			"0.015": 1.37119220329,
			"0.016": 0.0,
			"0.017": 0.0,
			"0.018": 0.0,
			"0.019": 0.0,
			"0.02": 0.0,
			"0.021": 0.0,
			"0.022": 0.0,
			"0.023": 0.0,
			"0.024": 0.0,
			"0.025": 0.0
		}
	}
}
