{
	 "smiles": "ClCC(=O)NC1=CC(=CC=C1)S(=O)(=O)N=C1CCCCCN1", 
	 "Tm": 407.15, 
	 "num_atms": 40, 
	 "gaussian": { 
		 "optdone": 1, 
		 "sigma_profile": "yes", 
		 "theory": "DFT", 
		 "functional": "B3LYP", 
		 "basiset": "6-31G**", 
		 "properties": { 
			 "R2extent": 10186.7573, 
			 "electric_dipole_moment_norm": 5.52878503652, 
			 "electric_quadrupole_moment_norm": 37.526829021, 
			 "total_energy": -1792.59700567, 
			 "HOMO_LUMO_gap": 0.20003, 
			 "cosmo_polarized_energy": -27.71, 
			 "cosmo_cavitation_energy": 45.56, 
			 "cosmo_dispersion_energy": -32.02, 
			 "cosmo_repulsion_energy": 2.44, 
			 "cosmo_total_nonelectrostatic_energy": 15.98, 
			 "SMD_solvation_energy": 5.36 
		},
		"coords": [
			{
				"x": 2.9373640994,
				"y": 2.4427059322,
				"z": -2.1075164798,
				"element": "Cl" 
			},
			{
				"x": 2.883217187,
				"y": 3.634965818,
				"z": -0.7415271537,
				"element": "C" 
			},
			{
				"x": 3.8586584035,
				"y": 3.2316419631,
				"z": 0.3587853059,
				"element": "C" 
			},
			{
				"x": 5.0362222125,
				"y": 3.5465699459,
				"z": 0.2957493887,
				"element": "O" 
			},
			{
				"x": 3.3846380628,
				"y": 2.5298842838,
				"z": 1.4498845569,
				"element": "N" 
			},
			{
				"x": 2.0894172307,
				"y": 2.1082269436,
				"z": 1.8334912349,
				"element": "C" 
			},
			{
				"x": 1.1682104972,
				"y": 1.5706868559,
				"z": 0.9287020737,
				"element": "C" 
			},
			{
				"x": -0.0855079302,
				"y": 1.1743266706,
				"z": 1.3975002012,
				"element": "C" 
			},
			{
				"x": -0.4386363115,
				"y": 1.2647916871,
				"z": 2.7399133013,
				"element": "C" 
			},
			{
				"x": 0.5010084023,
				"y": 1.7720007942,
				"z": 3.6413994335,
				"element": "C" 
			},
			{
				"x": 1.7473194549,
				"y": 2.1976504428,
				"z": 3.1947840912,
				"element": "C" 
			},
			{
				"x": -1.3107044093,
				"y": 0.5856767832,
				"z": 0.2207937556,
				"element": "S" 
			},
			{
				"x": -2.5303755161,
				"y": 0.2493213166,
				"z": 0.978626881,
				"element": "O" 
			},
			{
				"x": -1.4069035473,
				"y": 1.5855379677,
				"z": -0.8577862305,
				"element": "O" 
			},
			{
				"x": -0.5370824423,
				"y": -0.7922831938,
				"z": -0.3064949302,
				"element": "N" 
			},
			{
				"x": -1.1134099169,
				"y": -1.5716713957,
				"z": -1.1875244189,
				"element": "C" 
			},
			{
				"x": -2.4633698096,
				"y": -1.373618586,
				"z": -1.8491171654,
				"element": "C" 
			},
			{
				"x": -3.5261426423,
				"y": -2.3886825926,
				"z": -1.3679628751,
				"element": "C" 
			},
			{
				"x": -3.4426017157,
				"y": -3.7654312601,
				"z": -2.0431222594,
				"element": "C" 
			},
			{
				"x": -2.1210105379,
				"y": -4.5238853994,
				"z": -1.8500608058,
				"element": "C" 
			},
			{
				"x": -0.8820981822,
				"y": -3.7822011312,
				"z": -2.3776088849,
				"element": "C" 
			},
			{
				"x": -0.4252177717,
				"y": -2.6869306539,
				"z": -1.5255486095,
				"element": "N" 
			},
			{
				"x": 1.8462395079,
				"y": 3.7056831269,
				"z": -0.4156543893,
				"element": "H" 
			},
			{
				"x": 3.2278695433,
				"y": 4.5851839766,
				"z": -1.1452394162,
				"element": "H" 
			},
			{
				"x": 4.1114865831,
				"y": 2.4245434746,
				"z": 2.1482228994,
				"element": "H" 
			},
			{
				"x": 1.4227930081,
				"y": 1.4321425261,
				"z": -0.1151219067,
				"element": "H" 
			},
			{
				"x": -1.4232961453,
				"y": 0.9421450839,
				"z": 3.0572950679,
				"element": "H" 
			},
			{
				"x": 0.2539487549,
				"y": 1.8492619093,
				"z": 4.6957940081,
				"element": "H" 
			},
			{
				"x": 2.4650652495,
				"y": 2.6148514179,
				"z": 3.8959794257,
				"element": "H" 
			},
			{
				"x": -2.3309586615,
				"y": -1.4611494789,
				"z": -2.9354365769,
				"element": "H" 
			},
			{
				"x": -2.8036945845,
				"y": -0.3567531586,
				"z": -1.6619333463,
				"element": "H" 
			},
			{
				"x": -3.4630849726,
				"y": -2.4822038492,
				"z": -0.2777552901,
				"element": "H" 
			},
			{
				"x": -4.5118093617,
				"y": -1.959911958,
				"z": -1.5784917973,
				"element": "H" 
			},
			{
				"x": -4.2648308684,
				"y": -4.3909158287,
				"z": -1.6755123953,
				"element": "H" 
			},
			{
				"x": -3.6165253934,
				"y": -3.638107034,
				"z": -3.1214472828,
				"element": "H" 
			},
			{
				"x": -1.9632490957,
				"y": -4.7578567434,
				"z": -0.7895647634,
				"element": "H" 
			},
			{
				"x": -2.187531893,
				"y": -5.4832756132,
				"z": -2.3782760217,
				"element": "H" 
			},
			{
				"x": -0.0398877342,
				"y": -4.4752576853,
				"z": -2.4503721992,
				"element": "H" 
			},
			{
				"x": -1.0694417152,
				"y": -3.4141020185,
				"z": -3.3954297813,
				"element": "H" 
			},
			{
				"x": 0.4476129614,
				"y": -2.8006613396,
				"z": -1.0274166453,
				"element": "H" 
			}
		],
		 "valence_orbital": [ 
			{
				"type": "occ",
				"energy": -0.27835,
				"method": "rhf"
			},
			{
				"type": "occ",
				"energy": -0.26518,
				"method": "rhf"
			},
			{
				"type": "occ",
				"energy": -0.25907,
				"method": "rhf"
			},
			{
				"type": "occ",
				"energy": -0.24085,
				"method": "rhf"
			},
			{
				"type": "occ",
				"energy": -0.23855,
				"method": "rhf"
			},
			{
				"type": "unocc",
				"energy": -0.03852,
				"method": "rhf"
			},
			{
				"type": "unocc",
				"energy": -0.03329,
				"method": "rhf"
			},
			{
				"type": "unocc",
				"energy": -0.01079,
				"method": "rhf"
			},
			{
				"type": "unocc",
				"energy": -0.00636,
				"method": "rhf"
			},
			{
				"type": "unocc",
				"energy": 0.05647,
				"method": "rhf"
			}
		],
		"cosmo_sigma_profile": { 
			"-0.025": 0.0,
			"-0.024": 0.0,
			"-0.023": 0.0,
			"-0.022": 0.0,
			"-0.021": 0.0,
			"-0.02": 0.0,
			"-0.019": 0.0,
			"-0.018": 0.0,
			"-0.017": 0.0,
			"-0.016": 0.0853749195669,
			"-0.015": 1.08753173319,
			"-0.014": 2.43067960826,
			"-0.013": 2.48588085815,
			"-0.012": 2.39948914202,
			"-0.011": 1.75263345496,
			"-0.01": 2.61328528012,
			"-0.009": 3.720171745,
			"-0.008": 8.34131259853,
			"-0.007": 12.5672819415,
			"-0.006": 18.2292954854,
			"-0.005": 18.1767585628,
			"-0.004": 23.7536336976,
			"-0.003": 33.4977519188,
			"-0.002": 30.7098156405,
			"-0.001": 29.4637211315,
			"0.0": 24.3249767936,
			"0.001": 19.5442029652,
			"0.002": 20.6950162798,
			"0.003": 17.4050014515,
			"0.004": 13.8619442789,
			"0.005": 14.9093047576,
			"0.006": 7.32494140815,
			"0.007": 5.3726360803,
			"0.008": 6.05445427887,
			"0.009": 5.49535398876,
			"0.01": 6.82574505678,
			"0.011": 11.5029616269,
			"0.012": 12.8194685051,
			"0.013": 4.5286341286,
			"0.014": 0.157049476051,
			"0.015": 0.0,
			"0.016": 0.0,
			"0.017": 0.0,
			"0.018": 0.0,
			"0.019": 0.0,
			"0.02": 0.0,
			"0.021": 0.0,
			"0.022": 0.0,
			"0.023": 0.0,
			"0.024": 0.0,
			"0.025": 0.0
		}
	}
}
