{
	 "smiles": "NC(=O)C1=C(OCC(O)=O)C=CC=C1", 
	 "Tm": 494.15, 
	 "num_atms": 23, 
	 "gaussian": { 
		 "optdone": 1, 
		 "sigma_profile": "yes", 
		 "theory": "DFT", 
		 "functional": "B3LYP", 
		 "basiset": "6-31G**", 
		 "properties": { 
			 "R2extent": 3290.8448, 
			 "electric_dipole_moment_norm": 3.59078213903, 
			 "electric_quadrupole_moment_norm": 21.6223796311, 
			 "total_energy": -704.044998428, 
			 "HOMO_LUMO_gap": 0.20264, 
			 "cosmo_polarized_energy": -19.35, 
			 "cosmo_cavitation_energy": 27.76, 
			 "cosmo_dispersion_energy": -20.1, 
			 "cosmo_repulsion_energy": 1.61, 
			 "cosmo_total_nonelectrostatic_energy": 9.27, 
			 "SMD_solvation_energy": 6.96 
		},
		"coords": [
			{
				"x": 2.3152434929,
				"y": 2.3670196873,
				"z": 1.281404447,
				"element": "N" 
			},
			{
				"x": 2.0978815753,
				"y": 2.3455652453,
				"z": -0.0611973802,
				"element": "C" 
			},
			{
				"x": 2.9114399592,
				"y": 2.8174544543,
				"z": -0.8517578467,
				"element": "O" 
			},
			{
				"x": 0.8189796764,
				"y": 1.7096222374,
				"z": -0.5664790187,
				"element": "C" 
			},
			{
				"x": -0.2432616394,
				"y": 1.1904008728,
				"z": 0.2075074269,
				"element": "C" 
			},
			{
				"x": -0.1374322924,
				"y": 1.2813954207,
				"z": 1.5815643244,
				"element": "O" 
			},
			{
				"x": -1.2007920881,
				"y": 0.8216966733,
				"z": 2.3912046554,
				"element": "C" 
			},
			{
				"x": -1.3319601,
				"y": -0.6961068584,
				"z": 2.491369469,
				"element": "C" 
			},
			{
				"x": -0.1647653149,
				"y": -1.330757863,
				"z": 2.2849305773,
				"element": "O" 
			},
			{
				"x": -2.3694166904,
				"y": -1.2501551279,
				"z": 2.77519427,
				"element": "O" 
			},
			{
				"x": -1.3589692783,
				"y": 0.6182880653,
				"z": -0.4143774128,
				"element": "C" 
			},
			{
				"x": -1.433638894,
				"y": 0.5635678822,
				"z": -1.8066528451,
				"element": "C" 
			},
			{
				"x": -0.4010294581,
				"y": 1.0776651438,
				"z": -2.5875726741,
				"element": "C" 
			},
			{
				"x": 0.7066350067,
				"y": 1.6403423825,
				"z": -1.9610817944,
				"element": "C" 
			},
			{
				"x": 1.6647584714,
				"y": 1.9559389409,
				"z": 1.930608049,
				"element": "H" 
			},
			{
				"x": 3.1867318254,
				"y": 2.7662478003,
				"z": 1.5927828375,
				"element": "H" 
			},
			{
				"x": -2.1678443584,
				"y": 1.2274362643,
				"z": 2.0794469316,
				"element": "H" 
			},
			{
				"x": -0.9873253343,
				"y": 1.1977735601,
				"z": 3.3971322766,
				"element": "H" 
			},
			{
				"x": -0.3454655272,
				"y": -2.2814388273,
				"z": 2.3820646564,
				"element": "H" 
			},
			{
				"x": -2.1738262112,
				"y": 0.2074958404,
				"z": 0.1695761438,
				"element": "H" 
			},
			{
				"x": -2.3066582265,
				"y": 0.1145430957,
				"z": -2.2713677219,
				"element": "H" 
			},
			{
				"x": -0.4558659231,
				"y": 1.0385294765,
				"z": -3.67077253,
				"element": "H" 
			},
			{
				"x": 1.5325813292,
				"y": 2.0514756337,
				"z": -2.531026841,
				"element": "H" 
			}
		],
		 "valence_orbital": [ 
			{
				"type": "occ",
				"energy": -0.29591,
				"method": "rhf"
			},
			{
				"type": "occ",
				"energy": -0.26031,
				"method": "rhf"
			},
			{
				"type": "occ",
				"energy": -0.2525,
				"method": "rhf"
			},
			{
				"type": "occ",
				"energy": -0.2443,
				"method": "rhf"
			},
			{
				"type": "occ",
				"energy": -0.23774,
				"method": "rhf"
			},
			{
				"type": "unocc",
				"energy": -0.0351,
				"method": "rhf"
			},
			{
				"type": "unocc",
				"energy": -0.01593,
				"method": "rhf"
			},
			{
				"type": "unocc",
				"energy": 6e-05,
				"method": "rhf"
			},
			{
				"type": "unocc",
				"energy": 0.05656,
				"method": "rhf"
			},
			{
				"type": "unocc",
				"energy": 0.0706,
				"method": "rhf"
			}
		],
		"cosmo_sigma_profile": { 
			"-0.025": 0.0,
			"-0.024": 0.0,
			"-0.023": 0.0,
			"-0.022": 0.0,
			"-0.021": 0.0,
			"-0.02": 0.0,
			"-0.019": 0.586357506839,
			"-0.018": 1.25609687557,
			"-0.017": 0.493284031773,
			"-0.016": 1.00337536253,
			"-0.015": 0.739366121293,
			"-0.014": 1.1209603183,
			"-0.013": 1.89816864268,
			"-0.012": 1.76870388842,
			"-0.011": 1.93219547111,
			"-0.01": 3.99630098742,
			"-0.009": 5.77621980929,
			"-0.008": 7.53283812268,
			"-0.007": 8.36521137772,
			"-0.006": 12.4399608439,
			"-0.005": 11.7176983732,
			"-0.004": 12.2000343362,
			"-0.003": 10.5674065388,
			"-0.002": 8.72061730334,
			"-0.001": 9.68148646772,
			"0.0": 11.2914799419,
			"0.001": 12.5803465439,
			"0.002": 14.3052204056,
			"0.003": 17.6334906,
			"0.004": 17.101034904,
			"0.005": 6.48943534082,
			"0.006": 4.1323692894,
			"0.007": 4.10868285476,
			"0.008": 4.73661786721,
			"0.009": 3.9163832694,
			"0.01": 3.64865950897,
			"0.011": 6.23189138485,
			"0.012": 3.95862957326,
			"0.013": 2.8673605469,
			"0.014": 5.41247622853,
			"0.015": 1.03996028282,
			"0.016": 0.0,
			"0.017": 0.0,
			"0.018": 0.0,
			"0.019": 0.0,
			"0.02": 0.0,
			"0.021": 0.0,
			"0.022": 0.0,
			"0.023": 0.0,
			"0.024": 0.0,
			"0.025": 0.0
		}
	}
}
