{
	 "smiles": "CC(C)(C)OC(=O)NCC1CCNCC1", 
	 "Tm": 380.15, 
	 "num_atms": 37, 
	 "gaussian": { 
		 "optdone": 1, 
		 "sigma_profile": "yes", 
		 "theory": "DFT", 
		 "functional": "B3LYP", 
		 "basiset": "6-31G**", 
		 "properties": { 
			 "R2extent": 4463.6836, 
			 "electric_dipole_moment_norm": 1.82729453565, 
			 "electric_quadrupole_moment_norm": 14.3826592767, 
			 "total_energy": -692.414484156, 
			 "HOMO_LUMO_gap": 0.27199, 
			 "cosmo_polarized_energy": -11.83, 
			 "cosmo_cavitation_energy": 36.92, 
			 "cosmo_dispersion_energy": -25.03, 
			 "cosmo_repulsion_energy": 1.99, 
			 "cosmo_total_nonelectrostatic_energy": 13.89, 
			 "SMD_solvation_energy": 3.7 
		},
		"coords": [
			{
				"x": 3.3182152377,
				"y": -0.1461759501,
				"z": -0.9049690839,
				"element": "C" 
			},
			{
				"x": 2.9195227588,
				"y": -0.3282020788,
				"z": 0.5620282978,
				"element": "C" 
			},
			{
				"x": 3.8442323282,
				"y": 0.4790104307,
				"z": 1.4796891864,
				"element": "C" 
			},
			{
				"x": 2.8851817225,
				"y": -1.8141912246,
				"z": 0.9354736206,
				"element": "C" 
			},
			{
				"x": 1.5600035632,
				"y": 0.2314857547,
				"z": 0.5962947982,
				"element": "O" 
			},
			{
				"x": 0.85652845,
				"y": 0.2733307246,
				"z": 1.7557252741,
				"element": "C" 
			},
			{
				"x": 1.2230373813,
				"y": -0.1612269238,
				"z": 2.8370540631,
				"element": "O" 
			},
			{
				"x": -0.3482235553,
				"y": 0.8960258301,
				"z": 1.5700770742,
				"element": "N" 
			},
			{
				"x": -0.9195572784,
				"y": 1.3199844817,
				"z": 0.2974100322,
				"element": "C" 
			},
			{
				"x": -1.6180323182,
				"y": 0.2037764909,
				"z": -0.4963184815,
				"element": "C" 
			},
			{
				"x": -2.1405852283,
				"y": 0.7128329977,
				"z": -1.8476805452,
				"element": "C" 
			},
			{
				"x": -2.6808760197,
				"y": -0.4665875694,
				"z": -2.7048254734,
				"element": "C" 
			},
			{
				"x": -3.1507260736,
				"y": -1.621200382,
				"z": -1.9234761441,
				"element": "N" 
			},
			{
				"x": -3.7527609839,
				"y": -1.2077010386,
				"z": -0.6553807533,
				"element": "C" 
			},
			{
				"x": -2.7783765097,
				"y": -0.4482757778,
				"z": 0.2907906503,
				"element": "C" 
			},
			{
				"x": 2.6307524759,
				"y": -0.6865088789,
				"z": -1.562572936,
				"element": "H" 
			},
			{
				"x": 4.3290372871,
				"y": -0.5306372594,
				"z": -1.0705206876,
				"element": "H" 
			},
			{
				"x": 3.3005720311,
				"y": 0.911998241,
				"z": -1.1820408598,
				"element": "H" 
			},
			{
				"x": 4.8751316149,
				"y": 0.129117129,
				"z": 1.3626513086,
				"element": "H" 
			},
			{
				"x": 3.5494157299,
				"y": 0.3689735025,
				"z": 2.5233635648,
				"element": "H" 
			},
			{
				"x": 3.8133036798,
				"y": 1.5398910389,
				"z": 1.2113276695,
				"element": "H" 
			},
			{
				"x": 3.8805487995,
				"y": -2.2505210007,
				"z": 0.8021298068,
				"element": "H" 
			},
			{
				"x": 2.5755858187,
				"y": -1.9468423114,
				"z": 1.9721148483,
				"element": "H" 
			},
			{
				"x": 2.1890929781,
				"y": -2.3531939682,
				"z": 0.2845096676,
				"element": "H" 
			},
			{
				"x": -0.9373265199,
				"y": 0.8624005496,
				"z": 2.3880497548,
				"element": "H" 
			},
			{
				"x": -1.6355331019,
				"y": 2.1232071739,
				"z": 0.5121159437,
				"element": "H" 
			},
			{
				"x": -0.117398928,
				"y": 1.7538123679,
				"z": -0.3050234873,
				"element": "H" 
			},
			{
				"x": -0.8553965534,
				"y": -0.5623007464,
				"z": -0.6945722034,
				"element": "H" 
			},
			{
				"x": -1.3549927165,
				"y": 1.2470603326,
				"z": -2.3959457787,
				"element": "H" 
			},
			{
				"x": -2.9403642258,
				"y": 1.4441238051,
				"z": -1.6658068486,
				"element": "H" 
			},
			{
				"x": -3.506641603,
				"y": -0.1100832471,
				"z": -3.3349889253,
				"element": "H" 
			},
			{
				"x": -1.9018067952,
				"y": -0.8245016892,
				"z": -3.3865381851,
				"element": "H" 
			},
			{
				"x": -2.3662351077,
				"y": -2.2384671045,
				"z": -1.7303880127,
				"element": "H" 
			},
			{
				"x": -4.1638331697,
				"y": -2.0910204724,
				"z": -0.1553834908,
				"element": "H" 
			},
			{
				"x": -4.6092435478,
				"y": -0.5667962463,
				"z": -0.8999560252,
				"element": "H" 
			},
			{
				"x": -3.3347559468,
				"y": 0.3271426482,
				"z": 0.837626122,
				"element": "H" 
			},
			{
				"x": -2.3704956737,
				"y": -1.1284396294,
				"z": 1.0472562391,
				"element": "H" 
			}
		],
		 "valence_orbital": [ 
			{
				"type": "occ",
				"energy": -0.31103,
				"method": "rhf"
			},
			{
				"type": "occ",
				"energy": -0.28485,
				"method": "rhf"
			},
			{
				"type": "occ",
				"energy": -0.25716,
				"method": "rhf"
			},
			{
				"type": "occ",
				"energy": -0.24516,
				"method": "rhf"
			},
			{
				"type": "occ",
				"energy": -0.21528,
				"method": "rhf"
			},
			{
				"type": "unocc",
				"energy": 0.05671,
				"method": "rhf"
			},
			{
				"type": "unocc",
				"energy": 0.06751,
				"method": "rhf"
			},
			{
				"type": "unocc",
				"energy": 0.08156,
				"method": "rhf"
			},
			{
				"type": "unocc",
				"energy": 0.08621,
				"method": "rhf"
			},
			{
				"type": "unocc",
				"energy": 0.10171,
				"method": "rhf"
			}
		],
		"cosmo_sigma_profile": { 
			"-0.025": 0.0,
			"-0.024": 0.0,
			"-0.023": 0.0,
			"-0.022": 0.0,
			"-0.021": 0.0,
			"-0.02": 0.0,
			"-0.019": 0.0,
			"-0.018": 0.0,
			"-0.017": 0.0,
			"-0.016": 0.0,
			"-0.015": 0.0,
			"-0.014": 0.0,
			"-0.013": 0.762471920197,
			"-0.012": 0.778789114671,
			"-0.011": 1.02357801863,
			"-0.01": 0.686740505353,
			"-0.009": 1.83646231489,
			"-0.008": 2.91607675762,
			"-0.007": 2.48197834806,
			"-0.006": 3.08120371663,
			"-0.005": 4.7671593654,
			"-0.004": 16.0305323457,
			"-0.003": 33.5785055302,
			"-0.002": 45.9066907848,
			"-0.001": 40.2268485659,
			"0.0": 40.5600635064,
			"0.001": 30.531306085,
			"0.002": 10.6180802668,
			"0.003": 6.54975538658,
			"0.004": 6.87094775346,
			"0.005": 6.75336060084,
			"0.006": 4.42303251913,
			"0.007": 2.42389000837,
			"0.008": 2.37424950761,
			"0.009": 2.31503297812,
			"0.01": 2.21716607498,
			"0.011": 1.35719752306,
			"0.012": 2.98879724037,
			"0.013": 2.72707451523,
			"0.014": 4.01483124059,
			"0.015": 1.11646910169,
			"0.016": 0.67461320763,
			"0.017": 0.626561511037,
			"0.018": 0.45549212113,
			"0.019": 0.431221379545,
			"0.02": 0.0287347394984,
			"0.021": 0.0,
			"0.022": 0.0,
			"0.023": 0.0,
			"0.024": 0.0,
			"0.025": 0.0
		}
	}
}
