{
	 "smiles": "CC(N)CN", 
	 "Tm": 236.15, 
	 "num_atms": 15, 
	 "gaussian": { 
		 "optdone": 1, 
		 "sigma_profile": "yes", 
		 "theory": "DFT", 
		 "functional": "B3LYP", 
		 "basiset": "6-31G**", 
		 "properties": { 
			 "R2extent": 732.094, 
			 "electric_dipole_moment_norm": 1.90585457472, 
			 "electric_quadrupole_moment_norm": 6.81677539017, 
			 "total_energy": -229.844737587, 
			 "HOMO_LUMO_gap": 0.28793, 
			 "cosmo_polarized_energy": -7.56, 
			 "cosmo_cavitation_energy": 16.75, 
			 "cosmo_dispersion_energy": -12.64, 
			 "cosmo_repulsion_energy": 1.14, 
			 "cosmo_total_nonelectrostatic_energy": 5.25, 
			 "SMD_solvation_energy": 1.13 
		},
		"coords": [
			{
				"x": -0.4272386205,
				"y": 0.6780647606,
				"z": -1.1301000923,
				"element": "C" 
			},
			{
				"x": 0.2301689666,
				"y": 1.1698728162,
				"z": 0.17259669,
				"element": "C" 
			},
			{
				"x": 0.0984434489,
				"y": 2.6111634017,
				"z": 0.4087183482,
				"element": "N" 
			},
			{
				"x": -0.3223336244,
				"y": 0.4382373944,
				"z": 1.4072040719,
				"element": "C" 
			},
			{
				"x": -1.7538725017,
				"y": 0.7226637405,
				"z": 1.5907493748,
				"element": "N" 
			},
			{
				"x": 0.0070639509,
				"y": 1.1872674746,
				"z": -1.9978430771,
				"element": "H" 
			},
			{
				"x": -1.5025813523,
				"y": 0.8899354979,
				"z": -1.1290832032,
				"element": "H" 
			},
			{
				"x": -0.2871077649,
				"y": -0.4003783154,
				"z": -1.2770917113,
				"element": "H" 
			},
			{
				"x": 1.3031961738,
				"y": 0.9347431786,
				"z": 0.1196471307,
				"element": "H" 
			},
			{
				"x": -0.8748979347,
				"y": 2.7904353069,
				"z": 0.6523309987,
				"element": "H" 
			},
			{
				"x": 0.2933399208,
				"y": 3.1267172907,
				"z": -0.4463681295,
				"element": "H" 
			},
			{
				"x": 0.2087556586,
				"y": 0.8222003134,
				"z": 2.283767282,
				"element": "H" 
			},
			{
				"x": -0.0916509175,
				"y": -0.6369504727,
				"z": 1.3245953881,
				"element": "H" 
			},
			{
				"x": -2.3167462857,
				"y": 0.1106147401,
				"z": 1.0067675444,
				"element": "H" 
			},
			{
				"x": -2.0295391179,
				"y": 0.5375128724,
				"z": 2.5502093846,
				"element": "H" 
			}
		],
		 "valence_orbital": [ 
			{
				"type": "occ",
				"energy": -0.36424,
				"method": "rhf"
			},
			{
				"type": "occ",
				"energy": -0.33548,
				"method": "rhf"
			},
			{
				"type": "occ",
				"energy": -0.32469,
				"method": "rhf"
			},
			{
				"type": "occ",
				"energy": -0.23994,
				"method": "rhf"
			},
			{
				"type": "occ",
				"energy": -0.21635,
				"method": "rhf"
			},
			{
				"type": "unocc",
				"energy": 0.07158,
				"method": "rhf"
			},
			{
				"type": "unocc",
				"energy": 0.11626,
				"method": "rhf"
			},
			{
				"type": "unocc",
				"energy": 0.12893,
				"method": "rhf"
			},
			{
				"type": "unocc",
				"energy": 0.13819,
				"method": "rhf"
			},
			{
				"type": "unocc",
				"energy": 0.15492,
				"method": "rhf"
			}
		],
		"cosmo_sigma_profile": { 
			"-0.025": 0.0,
			"-0.024": 0.0,
			"-0.023": 0.0,
			"-0.022": 0.0,
			"-0.021": 0.0,
			"-0.02": 0.0,
			"-0.019": 0.0,
			"-0.018": 0.0,
			"-0.017": 0.0,
			"-0.016": 0.0,
			"-0.015": 0.0,
			"-0.014": 0.0,
			"-0.013": 0.0,
			"-0.012": 0.0,
			"-0.011": 0.0,
			"-0.01": 0.737234417939,
			"-0.009": 3.00586001002,
			"-0.008": 4.02015868339,
			"-0.007": 3.61377275142,
			"-0.006": 4.98531955666,
			"-0.005": 5.73165028837,
			"-0.004": 5.79748409129,
			"-0.003": 9.29611448719,
			"-0.002": 17.8411237355,
			"-0.001": 17.9811476087,
			"0.0": 13.8766000407,
			"0.001": 10.8450568773,
			"0.002": 5.94143000292,
			"0.003": 2.32957785577,
			"0.004": 1.87353612246,
			"0.005": 1.38628296873,
			"0.006": 2.39208126007,
			"0.007": 1.89580499957,
			"0.008": 1.6505055496,
			"0.009": 1.5304104087,
			"0.01": 2.01908503406,
			"0.011": 1.3761210585,
			"0.012": 1.22520109221,
			"0.013": 1.16236631672,
			"0.014": 1.5091699448,
			"0.015": 0.814707620971,
			"0.016": 0.528772750847,
			"0.017": 0.824207320143,
			"0.018": 0.345140110189,
			"0.019": 0.481089589649,
			"0.02": 0.811746324993,
			"0.021": 0.186822939608,
			"0.022": 0.0,
			"0.023": 0.0,
			"0.024": 0.0,
			"0.025": 0.0
		}
	}
}
