{
	 "smiles": "COC1=CC=C(C=C1)C(=O)CNC(=O)CCC(O)=O", 
	 "Tm": 441.15, 
	 "num_atms": 34, 
	 "gaussian": { 
		 "optdone": 1, 
		 "sigma_profile": "yes", 
		 "theory": "DFT", 
		 "functional": "B3LYP", 
		 "basiset": "6-31G**", 
		 "properties": { 
			 "R2extent": 7726.7811, 
			 "electric_dipole_moment_norm": 7.12927327923, 
			 "electric_quadrupole_moment_norm": 30.2482716153, 
			 "total_energy": -935.311330971, 
			 "HOMO_LUMO_gap": 0.17556, 
			 "cosmo_polarized_energy": -25.96, 
			 "cosmo_cavitation_energy": 38.98, 
			 "cosmo_dispersion_energy": -26.99, 
			 "cosmo_repulsion_energy": 2.11, 
			 "cosmo_total_nonelectrostatic_energy": 14.1, 
			 "SMD_solvation_energy": 8.85 
		},
		"coords": [
			{
				"x": 2.3084014573,
				"y": -2.6500568674,
				"z": 4.1858779755,
				"element": "C" 
			},
			{
				"x": 1.9400359285,
				"y": -1.2804542404,
				"z": 4.0761839962,
				"element": "O" 
			},
			{
				"x": 1.0760531568,
				"y": -0.9140888471,
				"z": 3.0978444264,
				"element": "C" 
			},
			{
				"x": 0.7642259003,
				"y": 0.4577075848,
				"z": 3.0434064,
				"element": "C" 
			},
			{
				"x": -0.1064478301,
				"y": 0.9316833972,
				"z": 2.0808657964,
				"element": "C" 
			},
			{
				"x": -0.694792155,
				"y": 0.0615712845,
				"z": 1.140019844,
				"element": "C" 
			},
			{
				"x": -0.3776501878,
				"y": -1.3020877488,
				"z": 1.2087316324,
				"element": "C" 
			},
			{
				"x": 0.4980064688,
				"y": -1.7967727954,
				"z": 2.1742284991,
				"element": "C" 
			},
			{
				"x": -1.6257657401,
				"y": 0.63810006,
				"z": 0.1361571566,
				"element": "C" 
			},
			{
				"x": -1.9457001644,
				"y": 1.8200139091,
				"z": 0.162108086,
				"element": "O" 
			},
			{
				"x": -2.1685551979,
				"y": -0.2535904216,
				"z": -0.9985208654,
				"element": "C" 
			},
			{
				"x": -1.1648499082,
				"y": -0.5446173312,
				"z": -2.0135382664,
				"element": "N" 
			},
			{
				"x": -0.7619938138,
				"y": 0.2673305142,
				"z": -3.04979478,
				"element": "C" 
			},
			{
				"x": 0.2030439497,
				"y": -0.0411106372,
				"z": -3.7375924883,
				"element": "O" 
			},
			{
				"x": -1.5842184362,
				"y": 1.524664308,
				"z": -3.313786733,
				"element": "C" 
			},
			{
				"x": -1.0352751151,
				"y": 2.3063665759,
				"z": -4.5076993375,
				"element": "C" 
			},
			{
				"x": 0.3759227849,
				"y": 2.8372671933,
				"z": -4.3505256515,
				"element": "C" 
			},
			{
				"x": 0.7041694685,
				"y": 3.0704050898,
				"z": -3.0547425425,
				"element": "O" 
			},
			{
				"x": 1.1238854281,
				"y": 3.0953580248,
				"z": -5.265727101,
				"element": "O" 
			},
			{
				"x": 3.0040044098,
				"y": -2.70597285,
				"z": 5.023809379,
				"element": "H" 
			},
			{
				"x": 2.8073092996,
				"y": -3.0056710473,
				"z": 3.2761859332,
				"element": "H" 
			},
			{
				"x": 1.4383466101,
				"y": -3.2845836495,
				"z": 4.3944609595,
				"element": "H" 
			},
			{
				"x": 1.2240981208,
				"y": 1.1197784352,
				"z": 3.769556477,
				"element": "H" 
			},
			{
				"x": -0.3563377299,
				"y": 1.9858580035,
				"z": 2.0266832618,
				"element": "H" 
			},
			{
				"x": -0.818777113,
				"y": -2.0086853295,
				"z": 0.5121630158,
				"element": "H" 
			},
			{
				"x": 0.7200579884,
				"y": -2.8565347192,
				"z": 2.2004686363,
				"element": "H" 
			},
			{
				"x": -2.5546995452,
				"y": -1.2012470781,
				"z": -0.6102663489,
				"element": "H" 
			},
			{
				"x": -3.006527027,
				"y": 0.2837595071,
				"z": -1.444859781,
				"element": "H" 
			},
			{
				"x": -0.5283369707,
				"y": -1.3143821555,
				"z": -1.852539237,
				"element": "H" 
			},
			{
				"x": -2.6241286442,
				"y": 1.2363027915,
				"z": -3.5150240326,
				"element": "H" 
			},
			{
				"x": -1.6048144564,
				"y": 2.1439326136,
				"z": -2.4117198447,
				"element": "H" 
			},
			{
				"x": -1.6789153352,
				"y": 3.1748987224,
				"z": -4.6965183347,
				"element": "H" 
			},
			{
				"x": -1.0356933995,
				"y": 1.6998355763,
				"z": -5.4149355336,
				"element": "H" 
			},
			{
				"x": 1.6128177981,
				"y": 3.414022127,
				"z": -3.071060597,
				"element": "H" 
			}
		],
		 "valence_orbital": [ 
			{
				"type": "occ",
				"energy": -0.27216,
				"method": "rhf"
			},
			{
				"type": "occ",
				"energy": -0.25759,
				"method": "rhf"
			},
			{
				"type": "occ",
				"energy": -0.25112,
				"method": "rhf"
			},
			{
				"type": "occ",
				"energy": -0.24266,
				"method": "rhf"
			},
			{
				"type": "occ",
				"energy": -0.2378,
				"method": "rhf"
			},
			{
				"type": "unocc",
				"energy": -0.06224,
				"method": "rhf"
			},
			{
				"type": "unocc",
				"energy": -0.02125,
				"method": "rhf"
			},
			{
				"type": "unocc",
				"energy": 0.02502,
				"method": "rhf"
			},
			{
				"type": "unocc",
				"energy": 0.02779,
				"method": "rhf"
			},
			{
				"type": "unocc",
				"energy": 0.03469,
				"method": "rhf"
			}
		],
		"cosmo_sigma_profile": { 
			"-0.025": 0.0,
			"-0.024": 0.0,
			"-0.023": 0.0,
			"-0.022": 0.0,
			"-0.021": 0.0,
			"-0.02": 0.0,
			"-0.019": 0.0359367130425,
			"-0.018": 0.711366525564,
			"-0.017": 0.783419567845,
			"-0.016": 0.979504608152,
			"-0.015": 0.68760747711,
			"-0.014": 0.512664441242,
			"-0.013": 2.04683887635,
			"-0.012": 2.54241765206,
			"-0.011": 2.14601590142,
			"-0.01": 2.52484473504,
			"-0.009": 2.51800017794,
			"-0.008": 4.76050016854,
			"-0.007": 14.1233904826,
			"-0.006": 24.5277920055,
			"-0.005": 24.5223101137,
			"-0.004": 25.5397956276,
			"-0.003": 19.1272042704,
			"-0.002": 17.306971109,
			"-0.001": 15.2251050335,
			"0.0": 11.4799735273,
			"0.001": 15.6295732307,
			"0.002": 15.9934714135,
			"0.003": 22.1007798942,
			"0.004": 14.3750756307,
			"0.005": 7.33771848748,
			"0.006": 7.00758759036,
			"0.007": 8.24868141022,
			"0.008": 6.53774105545,
			"0.009": 6.55862618994,
			"0.01": 5.69114906958,
			"0.011": 7.68084796027,
			"0.012": 10.8346357105,
			"0.013": 6.15952133232,
			"0.014": 2.13653182212,
			"0.015": 0.0302008778533,
			"0.016": 0.0,
			"0.017": 0.0,
			"0.018": 0.0,
			"0.019": 0.0,
			"0.02": 0.0,
			"0.021": 0.0,
			"0.022": 0.0,
			"0.023": 0.0,
			"0.024": 0.0,
			"0.025": 0.0
		}
	}
}
