{
	 "smiles": "CCOC(=O)C1=CC2=C(N1)C=CC(=C2)C(O)=O", 
	 "Tm": 521.15, 
	 "num_atms": 28, 
	 "gaussian": { 
		 "optdone": 1, 
		 "sigma_profile": "yes", 
		 "theory": "DFT", 
		 "functional": "B3LYP", 
		 "basiset": "6-31G**", 
		 "properties": { 
			 "R2extent": 6837.4311, 
			 "electric_dipole_moment_norm": 2.07961243986, 
			 "electric_quadrupole_moment_norm": 21.6505014526, 
			 "total_energy": -819.603116132, 
			 "HOMO_LUMO_gap": 0.16696, 
			 "cosmo_polarized_energy": -14.91, 
			 "cosmo_cavitation_energy": 33.68, 
			 "cosmo_dispersion_energy": -24.64, 
			 "cosmo_repulsion_energy": 1.92, 
			 "cosmo_total_nonelectrostatic_energy": 10.97, 
			 "SMD_solvation_energy": 7.69 
		},
		"coords": [
			{
				"x": -4.5508465844,
				"y": -0.8782179798,
				"z": 2.2713619605,
				"element": "C" 
			},
			{
				"x": -3.1582487438,
				"y": -0.7585394161,
				"z": 2.8593439218,
				"element": "C" 
			},
			{
				"x": -2.2896541816,
				"y": -0.2536532711,
				"z": 1.8172360997,
				"element": "O" 
			},
			{
				"x": -1.0011255444,
				"y": -0.0816248952,
				"z": 2.162640576,
				"element": "C" 
			},
			{
				"x": -0.5423346448,
				"y": -0.3201510884,
				"z": 3.2684419378,
				"element": "O" 
			},
			{
				"x": -0.1860554175,
				"y": 0.4312116728,
				"z": 1.0566256745,
				"element": "C" 
			},
			{
				"x": -0.4813733136,
				"y": 0.7649459983,
				"z": -0.2459838904,
				"element": "C" 
			},
			{
				"x": 0.739359595,
				"y": 1.2106574051,
				"z": -0.8454081086,
				"element": "C" 
			},
			{
				"x": 1.7544028965,
				"y": 1.1229720799,
				"z": 0.1585881534,
				"element": "C" 
			},
			{
				"x": 1.1622472741,
				"y": 0.6486084819,
				"z": 1.2957124041,
				"element": "N" 
			},
			{
				"x": 3.0860425436,
				"y": 1.4871021748,
				"z": -0.0950285567,
				"element": "C" 
			},
			{
				"x": 3.3959948766,
				"y": 1.9412162307,
				"z": -1.3647376838,
				"element": "C" 
			},
			{
				"x": 2.4049817783,
				"y": 2.0368623941,
				"z": -2.3776987025,
				"element": "C" 
			},
			{
				"x": 1.0843165342,
				"y": 1.6746202905,
				"z": -2.1226659384,
				"element": "C" 
			},
			{
				"x": 2.7304521279,
				"y": 2.5227451621,
				"z": -3.7403389481,
				"element": "C" 
			},
			{
				"x": 4.0408519617,
				"y": 2.8516153365,
				"z": -3.8933021415,
				"element": "O" 
			},
			{
				"x": 1.9353530875,
				"y": 2.6306391664,
				"z": -4.655006253,
				"element": "O" 
			},
			{
				"x": -4.559370474,
				"y": -1.567693751,
				"z": 1.4224100447,
				"element": "H" 
			},
			{
				"x": -4.9164901586,
				"y": 0.0943818196,
				"z": 1.9300080812,
				"element": "H" 
			},
			{
				"x": -5.2411147486,
				"y": -1.258428587,
				"z": 3.0306879969,
				"element": "H" 
			},
			{
				"x": -3.1264113267,
				"y": -0.0686475977,
				"z": 3.7084801676,
				"element": "H" 
			},
			{
				"x": -2.7709657662,
				"y": -1.7227449888,
				"z": 3.2033241362,
				"element": "H" 
			},
			{
				"x": -1.4550359669,
				"y": 0.6960467751,
				"z": -0.7075208769,
				"element": "H" 
			},
			{
				"x": 1.5872615585,
				"y": 0.4665229825,
				"z": 2.1928245941,
				"element": "H" 
			},
			{
				"x": 3.8470348291,
				"y": 1.4157991865,
				"z": 0.6759586835,
				"element": "H" 
			},
			{
				"x": 4.4126586928,
				"y": 2.2321847075,
				"z": -1.6008683877,
				"element": "H" 
			},
			{
				"x": 0.3514542779,
				"y": 1.7594632885,
				"z": -2.9181087493,
				"element": "H" 
			},
			{
				"x": 4.1262148377,
				"y": 3.1507064222,
				"z": -4.8131761951,
				"element": "H" 
			}
		],
		 "valence_orbital": [ 
			{
				"type": "occ",
				"energy": -0.29358,
				"method": "rhf"
			},
			{
				"type": "occ",
				"energy": -0.28497,
				"method": "rhf"
			},
			{
				"type": "occ",
				"energy": -0.2705,
				"method": "rhf"
			},
			{
				"type": "occ",
				"energy": -0.2386,
				"method": "rhf"
			},
			{
				"type": "occ",
				"energy": -0.22297,
				"method": "rhf"
			},
			{
				"type": "unocc",
				"energy": -0.05601,
				"method": "rhf"
			},
			{
				"type": "unocc",
				"energy": -0.03028,
				"method": "rhf"
			},
			{
				"type": "unocc",
				"energy": 0.01552,
				"method": "rhf"
			},
			{
				"type": "unocc",
				"energy": 0.07506,
				"method": "rhf"
			},
			{
				"type": "unocc",
				"energy": 0.08322,
				"method": "rhf"
			}
		],
		"cosmo_sigma_profile": { 
			"-0.025": 0.0,
			"-0.024": 0.0,
			"-0.023": 0.0,
			"-0.022": 0.0,
			"-0.021": 0.0,
			"-0.02": 0.0,
			"-0.019": 0.0,
			"-0.018": 0.523579367897,
			"-0.017": 1.02883008247,
			"-0.016": 0.904800950025,
			"-0.015": 1.88264218293,
			"-0.014": 1.84982264402,
			"-0.013": 1.22574509995,
			"-0.012": 1.34759737754,
			"-0.011": 1.71624091348,
			"-0.01": 1.86468235126,
			"-0.009": 1.98857989036,
			"-0.008": 2.3490972594,
			"-0.007": 4.51130674609,
			"-0.006": 8.58490382171,
			"-0.005": 15.5538645143,
			"-0.004": 19.2966686503,
			"-0.003": 19.6007620257,
			"-0.002": 21.5672676145,
			"-0.001": 20.0146002979,
			"0.0": 19.2627921604,
			"0.001": 21.0875039848,
			"0.002": 22.2361864018,
			"0.003": 23.6832398301,
			"0.004": 14.5559249855,
			"0.005": 5.32715830347,
			"0.006": 5.99474100154,
			"0.007": 5.56725457372,
			"0.008": 3.26920951155,
			"0.009": 3.36352098739,
			"0.01": 3.15239006178,
			"0.011": 6.21170579875,
			"0.012": 8.10906122059,
			"0.013": 0.920275780003,
			"0.014": 0.0,
			"0.015": 0.0,
			"0.016": 0.0,
			"0.017": 0.0,
			"0.018": 0.0,
			"0.019": 0.0,
			"0.02": 0.0,
			"0.021": 0.0,
			"0.022": 0.0,
			"0.023": 0.0,
			"0.024": 0.0,
			"0.025": 0.0
		}
	}
}
