{
	 "smiles": "N1C2=C(C=CC=C2)C2=C1C=NC=C2", 
	 "Tm": 473.15, 
	 "num_atms": 21, 
	 "gaussian": { 
		 "optdone": 1, 
		 "sigma_profile": "yes", 
		 "theory": "DFT", 
		 "functional": "B3LYP", 
		 "basiset": "6-31G**", 
		 "properties": { 
			 "R2extent": 2928.5188, 
			 "electric_dipole_moment_norm": 2.97137218302, 
			 "electric_quadrupole_moment_norm": 15.0608043773, 
			 "total_energy": -533.509087124, 
			 "HOMO_LUMO_gap": 0.17059, 
			 "cosmo_polarized_energy": -11.39, 
			 "cosmo_cavitation_energy": 24.9, 
			 "cosmo_dispersion_energy": -18.88, 
			 "cosmo_repulsion_energy": 1.45, 
			 "cosmo_total_nonelectrostatic_energy": 7.47, 
			 "SMD_solvation_energy": 2.23 
		},
		"coords": [
			{
				"x": -1.0901537656,
				"y": 1.0104211717,
				"z": -0.1600251779,
				"element": "N" 
			},
			{
				"x": -0.3426264762,
				"y": -0.1322482333,
				"z": 0.0785092617,
				"element": "C" 
			},
			{
				"x": 0.1900092512,
				"y": -0.0621905536,
				"z": 1.394858455,
				"element": "C" 
			},
			{
				"x": 0.987760031,
				"y": -1.1105044183,
				"z": 1.8711031122,
				"element": "C" 
			},
			{
				"x": 1.2402955298,
				"y": -2.19832638,
				"z": 1.0416277852,
				"element": "C" 
			},
			{
				"x": 0.7042768132,
				"y": -2.2500140487,
				"z": -0.258649527,
				"element": "C" 
			},
			{
				"x": -0.0917563319,
				"y": -1.2231785602,
				"z": -0.758747939,
				"element": "C" 
			},
			{
				"x": -0.2702778992,
				"y": 1.1900472215,
				"z": 1.9592910013,
				"element": "C" 
			},
			{
				"x": -1.05863197,
				"y": 1.8211640107,
				"z": 0.9635972846,
				"element": "C" 
			},
			{
				"x": -1.649187045,
				"y": 3.0617989304,
				"z": 1.2132470727,
				"element": "C" 
			},
			{
				"x": -1.4904084436,
				"y": 3.6823876895,
				"z": 2.3831253781,
				"element": "N" 
			},
			{
				"x": -0.7419726356,
				"y": 3.0866246094,
				"z": 3.3328055065,
				"element": "C" 
			},
			{
				"x": -0.1132259337,
				"y": 1.8532263967,
				"z": 3.1804270089,
				"element": "C" 
			},
			{
				"x": -1.5788102909,
				"y": 1.2178786049,
				"z": -1.0154828093,
				"element": "H" 
			},
			{
				"x": 1.4029796075,
				"y": -1.0736337714,
				"z": 2.8742169574,
				"element": "H" 
			},
			{
				"x": 1.8568978623,
				"y": -3.017670427,
				"z": 1.3979028475,
				"element": "H" 
			},
			{
				"x": 0.9155047231,
				"y": -3.1099222958,
				"z": -0.8876399397,
				"element": "H" 
			},
			{
				"x": -0.5019235786,
				"y": -1.2701014814,
				"z": -1.7632807162,
				"element": "H" 
			},
			{
				"x": -2.2585632546,
				"y": 3.5643269644,
				"z": 0.4626942949,
				"element": "H" 
			},
			{
				"x": -0.6443219552,
				"y": 3.6343539053,
				"z": 4.2675942909,
				"element": "H" 
			},
			{
				"x": 0.476135762,
				"y": 1.4305606651,
				"z": 3.9885258523,
				"element": "H" 
			}
		],
		 "valence_orbital": [ 
			{
				"type": "occ",
				"energy": -0.29787,
				"method": "rhf"
			},
			{
				"type": "occ",
				"energy": -0.25915,
				"method": "rhf"
			},
			{
				"type": "occ",
				"energy": -0.24772,
				"method": "rhf"
			},
			{
				"type": "occ",
				"energy": -0.23043,
				"method": "rhf"
			},
			{
				"type": "occ",
				"energy": -0.21107,
				"method": "rhf"
			},
			{
				"type": "unocc",
				"energy": -0.04048,
				"method": "rhf"
			},
			{
				"type": "unocc",
				"energy": -0.00047,
				"method": "rhf"
			},
			{
				"type": "unocc",
				"energy": 0.02175,
				"method": "rhf"
			},
			{
				"type": "unocc",
				"energy": 0.03395,
				"method": "rhf"
			},
			{
				"type": "unocc",
				"energy": 0.07714,
				"method": "rhf"
			}
		],
		"cosmo_sigma_profile": { 
			"-0.025": 0.0,
			"-0.024": 0.0,
			"-0.023": 0.0,
			"-0.022": 0.0,
			"-0.021": 0.0,
			"-0.02": 0.0,
			"-0.019": 0.0,
			"-0.018": 0.0,
			"-0.017": 0.0,
			"-0.016": 0.742077841157,
			"-0.015": 1.66240807163,
			"-0.014": 1.46415045396,
			"-0.013": 1.47521231241,
			"-0.012": 1.35483220906,
			"-0.011": 0.95821394698,
			"-0.01": 1.50948511812,
			"-0.009": 1.79842254952,
			"-0.008": 1.38036663755,
			"-0.007": 3.75741634179,
			"-0.006": 11.3790997556,
			"-0.005": 14.5042236017,
			"-0.004": 14.1949720394,
			"-0.003": 12.4432713577,
			"-0.002": 10.8195426831,
			"-0.001": 8.83645788999,
			"0.0": 9.59445679518,
			"0.001": 11.1197384207,
			"0.002": 19.9164890853,
			"0.003": 21.6637516336,
			"0.004": 17.8805229189,
			"0.005": 12.3963524348,
			"0.006": 7.64572275583,
			"0.007": 1.29397059721,
			"0.008": 1.24153449536,
			"0.009": 2.12643865795,
			"0.01": 1.38685751901,
			"0.011": 0.411931588091,
			"0.012": 1.0983691938,
			"0.013": 0.72322421708,
			"0.014": 1.06421513757,
			"0.015": 1.17194165039,
			"0.016": 0.85890777484,
			"0.017": 0.650991844686,
			"0.018": 0.187386418122,
			"0.019": 0.0,
			"0.02": 0.0,
			"0.021": 0.0,
			"0.022": 0.0,
			"0.023": 0.0,
			"0.024": 0.0,
			"0.025": 0.0
		}
	}
}
