{
	 "smiles": "CC1=NN(CC2=CC=C(C)C=C2)C(C)=C1CCC(O)=O", 
	 "Tm": 408.15, 
	 "num_atms": 40, 
	 "gaussian": { 
		 "optdone": 1, 
		 "sigma_profile": "yes", 
		 "theory": "DFT", 
		 "functional": "B3LYP", 
		 "basiset": "6-31G**", 
		 "properties": { 
			 "R2extent": 7797.0472, 
			 "electric_dipole_moment_norm": 5.23901541227, 
			 "electric_quadrupole_moment_norm": 24.2736804193, 
			 "total_energy": -881.730197324, 
			 "HOMO_LUMO_gap": 0.2265, 
			 "cosmo_polarized_energy": -17.12, 
			 "cosmo_cavitation_energy": 42.68, 
			 "cosmo_dispersion_energy": -28.77, 
			 "cosmo_repulsion_energy": 2.23, 
			 "cosmo_total_nonelectrostatic_energy": 16.13, 
			 "SMD_solvation_energy": 7.07 
		},
		"coords": [
			{
				"x": -2.4131965298,
				"y": -1.4866393609,
				"z": 2.4689942134,
				"element": "C" 
			},
			{
				"x": -1.715226426,
				"y": -0.7134284465,
				"z": 1.3912071327,
				"element": "C" 
			},
			{
				"x": -1.3658262764,
				"y": 0.5553781502,
				"z": 1.593788267,
				"element": "N" 
			},
			{
				"x": -0.7570097682,
				"y": 0.9478825543,
				"z": 0.4460086317,
				"element": "N" 
			},
			{
				"x": -0.1882809748,
				"y": 2.2895950171,
				"z": 0.3680525404,
				"element": "C" 
			},
			{
				"x": 1.3025486579,
				"y": 2.3427542731,
				"z": 0.652666436,
				"element": "C" 
			},
			{
				"x": 2.1693460381,
				"y": 3.0225637227,
				"z": -0.2062157684,
				"element": "C" 
			},
			{
				"x": 3.5357261967,
				"y": 3.1019491718,
				"z": 0.0751051336,
				"element": "C" 
			},
			{
				"x": 4.0723913218,
				"y": 2.4986381521,
				"z": 1.2167232937,
				"element": "C" 
			},
			{
				"x": 5.5517067644,
				"y": 2.5604037201,
				"z": 1.5160555063,
				"element": "C" 
			},
			{
				"x": 3.1947296607,
				"y": 1.8160270617,
				"z": 2.0745220364,
				"element": "C" 
			},
			{
				"x": 1.8324915355,
				"y": 1.7381758676,
				"z": 1.8014006052,
				"element": "C" 
			},
			{
				"x": -0.6959045143,
				"y": -0.0496469338,
				"z": -0.4823037489,
				"element": "C" 
			},
			{
				"x": -0.0607929999,
				"y": 0.133628576,
				"z": -1.8251460005,
				"element": "C" 
			},
			{
				"x": -1.3249949952,
				"y": -1.1556271934,
				"z": 0.0926080737,
				"element": "C" 
			},
			{
				"x": -1.5058453504,
				"y": -2.5308779846,
				"z": -0.4953791283,
				"element": "C" 
			},
			{
				"x": -2.9392928127,
				"y": -2.8814438603,
				"z": -0.9769630278,
				"element": "C" 
			},
			{
				"x": -3.424312977,
				"y": -2.103404792,
				"z": -2.1959630363,
				"element": "C" 
			},
			{
				"x": -3.3766987159,
				"y": -0.7504545602,
				"z": -2.0920270751,
				"element": "O" 
			},
			{
				"x": -3.846229322,
				"y": -2.6237144452,
				"z": -3.1998591554,
				"element": "O" 
			},
			{
				"x": -2.4617237716,
				"y": -0.8852945864,
				"z": 3.3793257401,
				"element": "H" 
			},
			{
				"x": -1.8853856581,
				"y": -2.4195355324,
				"z": 2.6989053259,
				"element": "H" 
			},
			{
				"x": -3.4376749703,
				"y": -1.7559582274,
				"z": 2.1859764973,
				"element": "H" 
			},
			{
				"x": -0.3986155051,
				"y": 2.7042597657,
				"z": -0.6225935982,
				"element": "H" 
			},
			{
				"x": -0.746391107,
				"y": 2.8803265054,
				"z": 1.0995614463,
				"element": "H" 
			},
			{
				"x": 1.7774630608,
				"y": 3.5014067578,
				"z": -1.1009518579,
				"element": "H" 
			},
			{
				"x": 4.1919292788,
				"y": 3.6376233165,
				"z": -0.6063369518,
				"element": "H" 
			},
			{
				"x": 5.7369877327,
				"y": 2.8383640918,
				"z": 2.5591276511,
				"element": "H" 
			},
			{
				"x": 6.0593184506,
				"y": 3.2890433793,
				"z": 0.8779530692,
				"element": "H" 
			},
			{
				"x": 6.031178374,
				"y": 1.5874341712,
				"z": 1.3530298587,
				"element": "H" 
			},
			{
				"x": 3.5870406089,
				"y": 1.3424177873,
				"z": 2.9715156063,
				"element": "H" 
			},
			{
				"x": 1.1676549592,
				"y": 1.2070848452,
				"z": 2.4768816669,
				"element": "H" 
			},
			{
				"x": -0.6522845757,
				"y": 0.7957562618,
				"z": -2.4682902747,
				"element": "H" 
			},
			{
				"x": 0.9447542514,
				"y": 0.5568011648,
				"z": -1.736391904,
				"element": "H" 
			},
			{
				"x": 0.0206415915,
				"y": -0.8259266309,
				"z": -2.3397788231,
				"element": "H" 
			},
			{
				"x": -0.809547968,
				"y": -2.6755255289,
				"z": -1.3290832577,
				"element": "H" 
			},
			{
				"x": -1.2285882707,
				"y": -3.2778361416,
				"z": 0.2582748295,
				"element": "H" 
			},
			{
				"x": -2.9948711327,
				"y": -3.9388143425,
				"z": -1.2435830098,
				"element": "H" 
			},
			{
				"x": -3.6498943483,
				"y": -2.710538574,
				"z": -0.1578429218,
				"element": "H" 
			},
			{
				"x": -2.9577195128,
				"y": -0.5016471723,
				"z": -1.2486740217,
				"element": "H" 
			}
		],
		 "valence_orbital": [ 
			{
				"type": "occ",
				"energy": -0.25805,
				"method": "rhf"
			},
			{
				"type": "occ",
				"energy": -0.2567,
				"method": "rhf"
			},
			{
				"type": "occ",
				"energy": -0.24923,
				"method": "rhf"
			},
			{
				"type": "occ",
				"energy": -0.24207,
				"method": "rhf"
			},
			{
				"type": "occ",
				"energy": -0.23817,
				"method": "rhf"
			},
			{
				"type": "unocc",
				"energy": -0.01167,
				"method": "rhf"
			},
			{
				"type": "unocc",
				"energy": -0.00935,
				"method": "rhf"
			},
			{
				"type": "unocc",
				"energy": 0.01268,
				"method": "rhf"
			},
			{
				"type": "unocc",
				"energy": 0.01753,
				"method": "rhf"
			},
			{
				"type": "unocc",
				"energy": 0.04646,
				"method": "rhf"
			}
		],
		"cosmo_sigma_profile": { 
			"-0.025": 0.0,
			"-0.024": 0.0,
			"-0.023": 0.0,
			"-0.022": 0.0,
			"-0.021": 0.0,
			"-0.02": 0.0,
			"-0.019": 0.0,
			"-0.018": 0.0,
			"-0.017": 0.0,
			"-0.016": 0.0,
			"-0.015": 0.0,
			"-0.014": 0.0,
			"-0.013": 0.0,
			"-0.012": 0.0,
			"-0.011": 0.000358432853958,
			"-0.01": 0.639462950301,
			"-0.009": 1.84328274532,
			"-0.008": 1.67392275645,
			"-0.007": 4.56601840554,
			"-0.006": 16.3790038802,
			"-0.005": 24.8629259979,
			"-0.004": 37.4157262825,
			"-0.003": 37.1129290881,
			"-0.002": 34.9931021714,
			"-0.001": 30.9664361215,
			"0.0": 27.2356521349,
			"0.001": 17.6798143522,
			"0.002": 14.6477262511,
			"0.003": 14.3356580523,
			"0.004": 13.0701920585,
			"0.005": 12.9135469279,
			"0.006": 10.155578236,
			"0.007": 3.30737691822,
			"0.008": 3.33035758615,
			"0.009": 4.68732477394,
			"0.01": 4.35844038191,
			"0.011": 5.95318730447,
			"0.012": 7.36701589961,
			"0.013": 4.78918398398,
			"0.014": 1.02448449482,
			"0.015": 0.818650658164,
			"0.016": 0.309725086751,
			"0.017": 0.0,
			"0.018": 0.0,
			"0.019": 0.0,
			"0.02": 0.0,
			"0.021": 0.0,
			"0.022": 0.0,
			"0.023": 0.0,
			"0.024": 0.0,
			"0.025": 0.0
		}
	}
}
