{
	 "smiles": "CSC1=NC=CN1C1=CC=C(C=C1)C(O)=O", 
	 "Tm": 570.15, 
	 "num_atms": 26, 
	 "gaussian": { 
		 "optdone": 1, 
		 "sigma_profile": "yes", 
		 "theory": "DFT", 
		 "functional": "B3LYP", 
		 "basiset": "6-31G**", 
		 "properties": { 
			 "R2extent": 5528.3362, 
			 "electric_dipole_moment_norm": 3.0532426484, 
			 "electric_quadrupole_moment_norm": 21.7341590458, 
			 "total_energy": -1083.33287894, 
			 "HOMO_LUMO_gap": 0.14772, 
			 "cosmo_polarized_energy": -18.53, 
			 "cosmo_cavitation_energy": 32.32, 
			 "cosmo_dispersion_energy": -23.85, 
			 "cosmo_repulsion_energy": 1.8, 
			 "cosmo_total_nonelectrostatic_energy": 10.27, 
			 "SMD_solvation_energy": 6.11 
		},
		"coords": [
			{
				"x": -3.0148680185,
				"y": 3.2492119141,
				"z": 2.7410438987,
				"element": "C" 
			},
			{
				"x": -2.0515453273,
				"y": 2.228667932,
				"z": 1.5729169214,
				"element": "S" 
			},
			{
				"x": -0.4344390647,
				"y": 2.5465748635,
				"z": 2.2213321956,
				"element": "C" 
			},
			{
				"x": -0.1610564878,
				"y": 3.3949939252,
				"z": 3.1856337123,
				"element": "N" 
			},
			{
				"x": 1.1966745319,
				"y": 3.2772825949,
				"z": 3.4094239711,
				"element": "C" 
			},
			{
				"x": 1.7461930183,
				"y": 2.3439416407,
				"z": 2.5800854452,
				"element": "C" 
			},
			{
				"x": 0.6949751388,
				"y": 1.8655257065,
				"z": 1.7950113825,
				"element": "N" 
			},
			{
				"x": 0.805121439,
				"y": 0.8457474967,
				"z": 0.8150324797,
				"element": "C" 
			},
			{
				"x": 1.5592634863,
				"y": -0.3029970266,
				"z": 1.0961536422,
				"element": "C" 
			},
			{
				"x": 1.693916239,
				"y": -1.2965085026,
				"z": 0.1350565048,
				"element": "C" 
			},
			{
				"x": 1.0543677417,
				"y": -1.1798187327,
				"z": -1.1070247958,
				"element": "C" 
			},
			{
				"x": 0.3114111691,
				"y": -0.0240008668,
				"z": -1.3827042778,
				"element": "C" 
			},
			{
				"x": 0.1946018839,
				"y": 0.9907138487,
				"z": -0.436120206,
				"element": "C" 
			},
			{
				"x": 1.2395925575,
				"y": -2.2935761437,
				"z": -2.0930092437,
				"element": "C" 
			},
			{
				"x": 0.3243114465,
				"y": -2.384762725,
				"z": -3.0943956848,
				"element": "O" 
			},
			{
				"x": 2.1480196743,
				"y": -3.0879073051,
				"z": -2.0289151704,
				"element": "O" 
			},
			{
				"x": -2.8906975922,
				"y": 2.8803546165,
				"z": 3.7592194541,
				"element": "H" 
			},
			{
				"x": -2.69370882,
				"y": 4.2889122301,
				"z": 2.6869711087,
				"element": "H" 
			},
			{
				"x": -4.0557331918,
				"y": 3.1537324615,
				"z": 2.4256311346,
				"element": "H" 
			},
			{
				"x": 1.695099627,
				"y": 3.882681455,
				"z": 4.1534664069,
				"element": "H" 
			},
			{
				"x": 2.7580009909,
				"y": 2.0043099069,
				"z": 2.4253702127,
				"element": "H" 
			},
			{
				"x": 2.0207893243,
				"y": -0.4145789302,
				"z": 2.0715019412,
				"element": "H" 
			},
			{
				"x": 2.2820237318,
				"y": -2.1861670312,
				"z": 0.3319512166,
				"element": "H" 
			},
			{
				"x": -0.1414433874,
				"y": 0.1276593713,
				"z": -2.3593168308,
				"element": "H" 
			},
			{
				"x": -0.346378186,
				"y": 1.8998754711,
				"z": -0.6724192554,
				"element": "H" 
			},
			{
				"x": -0.4273919245,
				"y": -1.8025681708,
				"z": -2.9174961638,
				"element": "H" 
			}
		],
		 "valence_orbital": [ 
			{
				"type": "occ",
				"energy": -0.28387,
				"method": "rhf"
			},
			{
				"type": "occ",
				"energy": -0.28098,
				"method": "rhf"
			},
			{
				"type": "occ",
				"energy": -0.27915,
				"method": "rhf"
			},
			{
				"type": "occ",
				"energy": -0.25805,
				"method": "rhf"
			},
			{
				"type": "occ",
				"energy": -0.21179,
				"method": "rhf"
			},
			{
				"type": "unocc",
				"energy": -0.06407,
				"method": "rhf"
			},
			{
				"type": "unocc",
				"energy": -0.03732,
				"method": "rhf"
			},
			{
				"type": "unocc",
				"energy": 0.01347,
				"method": "rhf"
			},
			{
				"type": "unocc",
				"energy": 0.02765,
				"method": "rhf"
			},
			{
				"type": "unocc",
				"energy": 0.04491,
				"method": "rhf"
			}
		],
		"cosmo_sigma_profile": { 
			"-0.025": 0.0,
			"-0.024": 0.0,
			"-0.023": 0.0,
			"-0.022": 0.0,
			"-0.021": 0.0,
			"-0.02": 0.0,
			"-0.019": 0.421154556678,
			"-0.018": 0.820342625833,
			"-0.017": 1.2850516321,
			"-0.016": 0.789539986769,
			"-0.015": 1.22017353815,
			"-0.014": 0.508882499725,
			"-0.013": 1.05463451995,
			"-0.012": 1.73710727474,
			"-0.011": 1.18150889571,
			"-0.01": 1.11079548208,
			"-0.009": 2.06213705856,
			"-0.008": 6.09390387217,
			"-0.007": 12.5706296606,
			"-0.006": 13.8303295955,
			"-0.005": 14.5985076251,
			"-0.004": 15.7129569957,
			"-0.003": 15.6009297343,
			"-0.002": 18.7575292232,
			"-0.001": 18.220893747,
			"0.0": 13.5942268429,
			"0.001": 19.9948646059,
			"0.002": 21.8067004195,
			"0.003": 12.8576617171,
			"0.004": 8.84145633103,
			"0.005": 11.374355462,
			"0.006": 6.60807641812,
			"0.007": 6.29651447089,
			"0.008": 5.43774064395,
			"0.009": 4.99076386664,
			"0.01": 6.11025974857,
			"0.011": 6.57848895083,
			"0.012": 5.08426094062,
			"0.013": 2.4029206488,
			"0.014": 0.843978198198,
			"0.015": 0.66002553441,
			"0.016": 0.00378800590002,
			"0.017": 0.0,
			"0.018": 0.0,
			"0.019": 0.0,
			"0.02": 0.0,
			"0.021": 0.0,
			"0.022": 0.0,
			"0.023": 0.0,
			"0.024": 0.0,
			"0.025": 0.0
		}
	}
}
