{
	 "smiles": "NC1=C(Cl)N=CC(Br)=C1", 
	 "Tm": 404.15, 
	 "num_atms": 13, 
	 "gaussian": { 
		 "optdone": 1, 
		 "sigma_profile": "yes", 
		 "theory": "DFT", 
		 "functional": "B3LYP", 
		 "basiset": "6-31G**", 
		 "properties": { 
			 "R2extent": 2769.3703, 
			 "electric_dipole_moment_norm": 3.5421119844, 
			 "electric_quadrupole_moment_norm": 8.54562321893, 
			 "total_energy": -3334.04030811, 
			 "HOMO_LUMO_gap": 0.18964, 
			 "cosmo_polarized_energy": -9.88, 
			 "cosmo_cavitation_energy": 21.46, 
			 "cosmo_dispersion_energy": -16.86, 
			 "cosmo_repulsion_energy": 1.39, 
			 "cosmo_total_nonelectrostatic_energy": 5.99, 
			 "SMD_solvation_energy": 0.96 
		},
		"coords": [
			{
				"x": 2.1758621491,
				"y": -0.7639421885,
				"z": 0.7014606933,
				"element": "N" 
			},
			{
				"x": 1.0781088193,
				"y": 0.0622607789,
				"z": 0.6207453587,
				"element": "C" 
			},
			{
				"x": 1.0102042945,
				"y": 1.3074307871,
				"z": 1.2905220148,
				"element": "C" 
			},
			{
				"x": 2.3673224597,
				"y": 1.7694550228,
				"z": 2.3297830832,
				"element": "Cl" 
			},
			{
				"x": 0.0108335639,
				"y": 2.1525699954,
				"z": 1.2079711359,
				"element": "N" 
			},
			{
				"x": -1.0444199589,
				"y": 1.8497562788,
				"z": 0.4432832603,
				"element": "C" 
			},
			{
				"x": -1.0899419644,
				"y": 0.6475615937,
				"z": -0.2592449074,
				"element": "C" 
			},
			{
				"x": -2.608206308,
				"y": 0.2373195167,
				"z": -1.3353352633,
				"element": "Br" 
			},
			{
				"x": -0.0343930851,
				"y": -0.2530648341,
				"z": -0.1763128569,
				"element": "C" 
			},
			{
				"x": 2.038384695,
				"y": -1.7341514816,
				"z": 0.4617320262,
				"element": "H" 
			},
			{
				"x": 2.8077706382,
				"y": -0.6010814006,
				"z": 1.4717726008,
				"element": "H" 
			},
			{
				"x": -1.8543424536,
				"y": 2.5698645794,
				"z": 0.3962135879,
				"element": "H" 
			},
			{
				"x": -0.0628828497,
				"y": -1.1885786478,
				"z": -0.7248907335,
				"element": "H" 
			}
		],
		 "valence_orbital": [ 
			{
				"type": "occ",
				"energy": -0.31758,
				"method": "rhf"
			},
			{
				"type": "occ",
				"energy": -0.30141,
				"method": "rhf"
			},
			{
				"type": "occ",
				"energy": -0.27851,
				"method": "rhf"
			},
			{
				"type": "occ",
				"energy": -0.26606,
				"method": "rhf"
			},
			{
				"type": "occ",
				"energy": -0.22865,
				"method": "rhf"
			},
			{
				"type": "unocc",
				"energy": -0.03901,
				"method": "rhf"
			},
			{
				"type": "unocc",
				"energy": -0.01653,
				"method": "rhf"
			},
			{
				"type": "unocc",
				"energy": -0.00169,
				"method": "rhf"
			},
			{
				"type": "unocc",
				"energy": 0.02865,
				"method": "rhf"
			},
			{
				"type": "unocc",
				"energy": 0.06882,
				"method": "rhf"
			}
		],
		"cosmo_sigma_profile": { 
			"-0.025": 0.0,
			"-0.024": 0.0,
			"-0.023": 0.0,
			"-0.022": 0.0,
			"-0.021": 0.0,
			"-0.02": 0.0,
			"-0.019": 0.0,
			"-0.018": 0.0,
			"-0.017": 0.0,
			"-0.016": 0.0,
			"-0.015": 0.204023129979,
			"-0.014": 1.72544507774,
			"-0.013": 1.65391666095,
			"-0.012": 2.57822541278,
			"-0.011": 3.0725131174,
			"-0.01": 2.43566864697,
			"-0.009": 3.62676880848,
			"-0.008": 2.99941088909,
			"-0.007": 4.3266231458,
			"-0.006": 4.62905241159,
			"-0.005": 4.47852142677,
			"-0.004": 5.2811124314,
			"-0.003": 7.71093820824,
			"-0.002": 8.30005114675,
			"-0.001": 12.2607387217,
			"0.0": 18.9549437973,
			"0.001": 22.3677902901,
			"0.002": 14.3949013591,
			"0.003": 14.8717467768,
			"0.004": 19.474531782,
			"0.005": 7.43134959597,
			"0.006": 3.42715473507,
			"0.007": 2.31108644962,
			"0.008": 2.15195517889,
			"0.009": 1.66136866324,
			"0.01": 2.17227090518,
			"0.011": 1.14909770485,
			"0.012": 0.686875275579,
			"0.013": 1.07768074995,
			"0.014": 0.541628995874,
			"0.015": 0.0,
			"0.016": 0.0,
			"0.017": 0.0,
			"0.018": 0.0,
			"0.019": 0.0,
			"0.02": 0.0,
			"0.021": 0.0,
			"0.022": 0.0,
			"0.023": 0.0,
			"0.024": 0.0,
			"0.025": 0.0
		}
	}
}
