{
	 "smiles": "[O-][N+](=O)C1=C(C=CC(Cl)=C1)C#N", 
	 "Tm": 370.65, 
	 "num_atms": 15, 
	 "gaussian": { 
		 "optdone": 1, 
		 "sigma_profile": "yes", 
		 "theory": "DFT", 
		 "functional": "B3LYP", 
		 "basiset": "6-31G**", 
		 "properties": { 
			 "R2extent": 2791.9036, 
			 "electric_dipole_moment_norm": 5.387887922, 
			 "electric_quadrupole_moment_norm": 11.8170600604, 
			 "total_energy": -988.563225131, 
			 "HOMO_LUMO_gap": 0.16648, 
			 "cosmo_polarized_energy": -13.21, 
			 "cosmo_cavitation_energy": 23.61, 
			 "cosmo_dispersion_energy": -16.97, 
			 "cosmo_repulsion_energy": 1.35, 
			 "cosmo_total_nonelectrostatic_energy": 7.99, 
			 "SMD_solvation_energy": 7.16 
		},
		"coords": [
			{
				"x": -1.1913891973,
				"y": -0.3169277435,
				"z": 3.3935222491,
				"element": "O" 
			},
			{
				"x": -0.1790700761,
				"y": 0.2485110136,
				"z": 2.9949598353,
				"element": "N" 
			},
			{
				"x": 0.7056362569,
				"y": 0.7113245076,
				"z": 3.7112462144,
				"element": "O" 
			},
			{
				"x": -0.006393118,
				"y": 0.385825066,
				"z": 1.5331351782,
				"element": "C" 
			},
			{
				"x": -0.9688777369,
				"y": -0.113330335,
				"z": 0.6360764055,
				"element": "C" 
			},
			{
				"x": -0.7270393838,
				"y": 0.0594032621,
				"z": -0.7392411734,
				"element": "C" 
			},
			{
				"x": 0.418731858,
				"y": 0.6986321162,
				"z": -1.1989202352,
				"element": "C" 
			},
			{
				"x": 1.3509301361,
				"y": 1.180449245,
				"z": -0.277202853,
				"element": "C" 
			},
			{
				"x": 2.7922542283,
				"y": 1.9841689702,
				"z": -0.8425308196,
				"element": "Cl" 
			},
			{
				"x": 1.1453958019,
				"y": 1.0278810367,
				"z": 1.09141336,
				"element": "C" 
			},
			{
				"x": -2.1798634239,
				"y": -0.7853827663,
				"z": 1.0047578629,
				"element": "C" 
			},
			{
				"x": -3.1921192338,
				"y": -1.3420839043,
				"z": 1.1377692655,
				"element": "N" 
			},
			{
				"x": -1.4574517312,
				"y": -0.3184942088,
				"z": -1.4457331718,
				"element": "H" 
			},
			{
				"x": 0.5894340453,
				"y": 0.8232772774,
				"z": -2.2620710634,
				"element": "H" 
			},
			{
				"x": 1.8563215744,
				"y": 1.3947464631,
				"z": 1.8196189456,
				"element": "H" 
			}
		],
		 "valence_orbital": [ 
			{
				"type": "occ",
				"energy": -0.33196,
				"method": "rhf"
			},
			{
				"type": "occ",
				"energy": -0.32739,
				"method": "rhf"
			},
			{
				"type": "occ",
				"energy": -0.31806,
				"method": "rhf"
			},
			{
				"type": "occ",
				"energy": -0.30998,
				"method": "rhf"
			},
			{
				"type": "occ",
				"energy": -0.28738,
				"method": "rhf"
			},
			{
				"type": "unocc",
				"energy": -0.1209,
				"method": "rhf"
			},
			{
				"type": "unocc",
				"energy": -0.07798,
				"method": "rhf"
			},
			{
				"type": "unocc",
				"energy": -0.03326,
				"method": "rhf"
			},
			{
				"type": "unocc",
				"energy": -0.0066,
				"method": "rhf"
			},
			{
				"type": "unocc",
				"energy": 0.02053,
				"method": "rhf"
			}
		],
		"cosmo_sigma_profile": { 
			"-0.025": 0.0,
			"-0.024": 0.0,
			"-0.023": 0.0,
			"-0.022": 0.0,
			"-0.021": 0.0,
			"-0.02": 0.0,
			"-0.019": 0.0,
			"-0.018": 0.0,
			"-0.017": 0.0,
			"-0.016": 0.0,
			"-0.015": 0.0,
			"-0.014": 0.0,
			"-0.013": 0.0,
			"-0.012": 0.0,
			"-0.011": 0.0,
			"-0.01": 3.4289646913,
			"-0.009": 6.91191281208,
			"-0.008": 7.44816593491,
			"-0.007": 6.9905862931,
			"-0.006": 7.5987166904,
			"-0.005": 7.45447604826,
			"-0.004": 14.9017411661,
			"-0.003": 17.6065970162,
			"-0.002": 19.2231122396,
			"-0.001": 11.8160152513,
			"0.0": 7.95190821373,
			"0.001": 7.37858411669,
			"0.002": 10.211255764,
			"0.003": 12.1872092687,
			"0.004": 5.9345811961,
			"0.005": 4.88891274808,
			"0.006": 9.68714925382,
			"0.007": 11.6370903816,
			"0.008": 8.56025176038,
			"0.009": 5.24434424861,
			"0.01": 2.82484616958,
			"0.011": 2.40905134682,
			"0.012": 1.9378200977,
			"0.013": 0.228167208912,
			"0.014": 0.0,
			"0.015": 0.0,
			"0.016": 0.0,
			"0.017": 0.0,
			"0.018": 0.0,
			"0.019": 0.0,
			"0.02": 0.0,
			"0.021": 0.0,
			"0.022": 0.0,
			"0.023": 0.0,
			"0.024": 0.0,
			"0.025": 0.0
		}
	}
}
