{
	 "smiles": "NS(=O)(=O)C1=CC(NC(=O)C2=CC=C(S2)C(O)=O)=CC=C1", 
	 "Tm": 582.15, 
	 "num_atms": 31, 
	 "gaussian": { 
		 "optdone": 1, 
		 "sigma_profile": "yes", 
		 "theory": "DFT", 
		 "functional": "B3LYP", 
		 "basiset": "6-31G**", 
		 "properties": { 
			 "R2extent": 9628.3263, 
			 "electric_dipole_moment_norm": 3.83807821442, 
			 "electric_quadrupole_moment_norm": 21.2696062676, 
			 "total_energy": -1745.24319813, 
			 "HOMO_LUMO_gap": 0.16644, 
			 "cosmo_polarized_energy": -27.14, 
			 "cosmo_cavitation_energy": 40.45, 
			 "cosmo_dispersion_energy": -29.14, 
			 "cosmo_repulsion_energy": 2.19, 
			 "cosmo_total_nonelectrostatic_energy": 13.5, 
			 "SMD_solvation_energy": 8.16 
		},
		"coords": [
			{
				"x": 4.2616179191,
				"y": -3.189768171,
				"z": 2.4908856213,
				"element": "N" 
			},
			{
				"x": 2.8458968821,
				"y": -3.7068162904,
				"z": 1.7150538997,
				"element": "S" 
			},
			{
				"x": 3.2242182504,
				"y": -4.0609156956,
				"z": 0.3442235853,
				"element": "O" 
			},
			{
				"x": 2.1660244843,
				"y": -4.6442411784,
				"z": 2.6130104886,
				"element": "O" 
			},
			{
				"x": 1.8511634034,
				"y": -2.2139681842,
				"z": 1.6405214048,
				"element": "C" 
			},
			{
				"x": 1.9687146987,
				"y": -1.3853299635,
				"z": 0.5268147992,
				"element": "C" 
			},
			{
				"x": 1.2075351255,
				"y": -0.2122407525,
				"z": 0.4663431925,
				"element": "C" 
			},
			{
				"x": 1.3789693163,
				"y": 0.6490467948,
				"z": -0.6470105382,
				"element": "N" 
			},
			{
				"x": 0.4694875688,
				"y": 1.4732594551,
				"z": -1.290322306,
				"element": "C" 
			},
			{
				"x": 0.8608865477,
				"y": 2.4621643036,
				"z": -1.8977227055,
				"element": "O" 
			},
			{
				"x": -0.9748032523,
				"y": 1.1111498688,
				"z": -1.3095816357,
				"element": "C" 
			},
			{
				"x": -1.9627647568,
				"y": 2.0300633286,
				"z": -1.6045246759,
				"element": "C" 
			},
			{
				"x": -3.2486595986,
				"y": 1.4524251093,
				"z": -1.6930495081,
				"element": "C" 
			},
			{
				"x": -3.2326629004,
				"y": 0.0892153168,
				"z": -1.4889467547,
				"element": "C" 
			},
			{
				"x": -1.6283647098,
				"y": -0.4977253542,
				"z": -1.1662263577,
				"element": "S" 
			},
			{
				"x": -4.4165403359,
				"y": -0.7833993665,
				"z": -1.5322101126,
				"element": "C" 
			},
			{
				"x": -4.1087117993,
				"y": -2.0836974239,
				"z": -1.3069929318,
				"element": "O" 
			},
			{
				"x": -5.5468360093,
				"y": -0.3940283104,
				"z": -1.7442638205,
				"element": "O" 
			},
			{
				"x": 0.3434856273,
				"y": 0.1073631364,
				"z": 1.5246674237,
				"element": "C" 
			},
			{
				"x": 0.2131564171,
				"y": -0.7574212276,
				"z": 2.6098290299,
				"element": "C" 
			},
			{
				"x": 0.9682348317,
				"y": -1.9285278975,
				"z": 2.6816608804,
				"element": "C" 
			},
			{
				"x": 4.3450733349,
				"y": -3.6545745119,
				"z": 3.391323028,
				"element": "H" 
			},
			{
				"x": 5.059161788,
				"y": -3.3935348449,
				"z": 1.8939658582,
				"element": "H" 
			},
			{
				"x": 2.6247255385,
				"y": -1.6605293908,
				"z": -0.2919359125,
				"element": "H" 
			},
			{
				"x": 2.3314327029,
				"y": 0.917123571,
				"z": -0.866612482,
				"element": "H" 
			},
			{
				"x": -1.7364338332,
				"y": 3.0771420345,
				"z": -1.7620931528,
				"element": "H" 
			},
			{
				"x": -4.1645455566,
				"y": 1.9902105229,
				"z": -1.9050985475,
				"element": "H" 
			},
			{
				"x": -4.9434179954,
				"y": -2.5776527171,
				"z": -1.3587047569,
				"element": "H" 
			},
			{
				"x": -0.2242508492,
				"y": 1.0309330374,
				"z": 1.492071892,
				"element": "H" 
			},
			{
				"x": -0.4726802221,
				"y": -0.507750005,
				"z": 3.4133167062,
				"element": "H" 
			},
			{
				"x": 0.8716873824,
				"y": -2.6134751937,
				"z": 3.5161083888,
				"element": "H" 
			}
		],
		 "valence_orbital": [ 
			{
				"type": "occ",
				"energy": -0.2816,
				"method": "rhf"
			},
			{
				"type": "occ",
				"energy": -0.27706,
				"method": "rhf"
			},
			{
				"type": "occ",
				"energy": -0.27178,
				"method": "rhf"
			},
			{
				"type": "occ",
				"energy": -0.25697,
				"method": "rhf"
			},
			{
				"type": "occ",
				"energy": -0.25001,
				"method": "rhf"
			},
			{
				"type": "unocc",
				"energy": -0.08357,
				"method": "rhf"
			},
			{
				"type": "unocc",
				"energy": -0.04845,
				"method": "rhf"
			},
			{
				"type": "unocc",
				"energy": -0.03675,
				"method": "rhf"
			},
			{
				"type": "unocc",
				"energy": -0.0042,
				"method": "rhf"
			},
			{
				"type": "unocc",
				"energy": 0.01809,
				"method": "rhf"
			}
		],
		"cosmo_sigma_profile": { 
			"-0.025": 0.0,
			"-0.024": 0.0,
			"-0.023": 0.0,
			"-0.022": 0.0,
			"-0.021": 0.0,
			"-0.02": 0.0,
			"-0.019": 0.470896263251,
			"-0.018": 1.17094104491,
			"-0.017": 0.566152507936,
			"-0.016": 1.20340509369,
			"-0.015": 3.12934767891,
			"-0.014": 3.66278899919,
			"-0.013": 3.44176602343,
			"-0.012": 4.39694167462,
			"-0.011": 5.85471810389,
			"-0.01": 3.024936631,
			"-0.009": 3.43713375454,
			"-0.008": 8.57287022249,
			"-0.007": 13.3679290497,
			"-0.006": 14.5376090135,
			"-0.005": 14.0879524299,
			"-0.004": 12.2684441435,
			"-0.003": 14.7885730428,
			"-0.002": 19.8329715321,
			"-0.001": 20.2088708446,
			"0.0": 24.5146661444,
			"0.001": 30.9839420611,
			"0.002": 24.8264231034,
			"0.003": 12.0565237018,
			"0.004": 8.09388684069,
			"0.005": 6.85028005731,
			"0.006": 7.53180004134,
			"0.007": 8.27921368389,
			"0.008": 6.61257599505,
			"0.009": 6.71097585185,
			"0.01": 13.684434834,
			"0.011": 16.2503721201,
			"0.012": 9.02152668639,
			"0.013": 2.21492301576,
			"0.014": 0.0,
			"0.015": 0.0,
			"0.016": 0.0,
			"0.017": 0.0,
			"0.018": 0.0,
			"0.019": 0.0,
			"0.02": 0.0,
			"0.021": 0.0,
			"0.022": 0.0,
			"0.023": 0.0,
			"0.024": 0.0,
			"0.025": 0.0
		}
	}
}
