{
	 "smiles": "COC1=CC(=CC=C1)C1=CC=CC(OC)=C1", 
	 "Tm": 309.15, 
	 "num_atms": 30, 
	 "gaussian": { 
		 "optdone": 1, 
		 "sigma_profile": "yes", 
		 "theory": "DFT", 
		 "functional": "B3LYP", 
		 "basiset": "6-31G**", 
		 "properties": { 
			 "R2extent": 4570.7, 
			 "electric_dipole_moment_norm": 1.87702213626, 
			 "electric_quadrupole_moment_norm": 10.7532703412, 
			 "total_energy": -692.358608752, 
			 "HOMO_LUMO_gap": 0.1848, 
			 "cosmo_polarized_energy": -9.03, 
			 "cosmo_cavitation_energy": 33.52, 
			 "cosmo_dispersion_energy": -24.09, 
			 "cosmo_repulsion_energy": 1.87, 
			 "cosmo_total_nonelectrostatic_energy": 11.31, 
			 "SMD_solvation_energy": 7.02 
		},
		"coords": [
			{
				"x": -2.8818825893,
				"y": -1.2659923005,
				"z": 2.4996074402,
				"element": "C" 
			},
			{
				"x": -1.9040434829,
				"y": -0.8105929835,
				"z": 3.4192538005,
				"element": "O" 
			},
			{
				"x": -0.7408325626,
				"y": -0.2901193247,
				"z": 2.9258548685,
				"element": "C" 
			},
			{
				"x": -0.4440883786,
				"y": -0.1693505375,
				"z": 1.5654002824,
				"element": "C" 
			},
			{
				"x": 0.7785977067,
				"y": 0.3904522838,
				"z": 1.1488681992,
				"element": "C" 
			},
			{
				"x": 1.6925216621,
				"y": 0.8253968439,
				"z": 2.1180802435,
				"element": "C" 
			},
			{
				"x": 1.3880382635,
				"y": 0.7008888311,
				"z": 3.475973043,
				"element": "C" 
			},
			{
				"x": 0.1817146222,
				"y": 0.1476042522,
				"z": 3.8876775118,
				"element": "C" 
			},
			{
				"x": 1.0894868681,
				"y": 0.5164905204,
				"z": -0.2999041071,
				"element": "C" 
			},
			{
				"x": 1.7397490024,
				"y": 1.6541139925,
				"z": -0.7966761817,
				"element": "C" 
			},
			{
				"x": 2.025424248,
				"y": 1.7600637773,
				"z": -2.160219768,
				"element": "C" 
			},
			{
				"x": 1.6727762403,
				"y": 0.7463726478,
				"z": -3.0427880505,
				"element": "C" 
			},
			{
				"x": 1.0224575365,
				"y": -0.3972837762,
				"z": -2.5560408225,
				"element": "C" 
			},
			{
				"x": 0.722518353,
				"y": -1.3474426176,
				"z": -3.4912781407,
				"element": "O" 
			},
			{
				"x": 0.0700366562,
				"y": -2.5310342805,
				"z": -3.0638871263,
				"element": "C" 
			},
			{
				"x": 0.7328700267,
				"y": -0.5112383654,
				"z": -1.1934546013,
				"element": "C" 
			},
			{
				"x": -3.7113386223,
				"y": -1.6405020488,
				"z": 3.101742973,
				"element": "H" 
			},
			{
				"x": -2.4993388284,
				"y": -2.0792921667,
				"z": 1.8688063936,
				"element": "H" 
			},
			{
				"x": -3.2431155448,
				"y": -0.4544431591,
				"z": 1.8545056413,
				"element": "H" 
			},
			{
				"x": -1.1627096525,
				"y": -0.4744312131,
				"z": 0.8145810123,
				"element": "H" 
			},
			{
				"x": 2.6497560811,
				"y": 1.2329779115,
				"z": 1.8101208689,
				"element": "H" 
			},
			{
				"x": 2.1054787826,
				"y": 1.0325937309,
				"z": 4.2213122419,
				"element": "H" 
			},
			{
				"x": -0.071569654,
				"y": 0.0443061607,
				"z": 4.9375417288,
				"element": "H" 
			},
			{
				"x": 1.9947925226,
				"y": 2.4651727119,
				"z": -0.1225885036,
				"element": "H" 
			},
			{
				"x": 2.5220737194,
				"y": 2.6490364393,
				"z": -2.5388331413,
				"element": "H" 
			},
			{
				"x": 1.887768169,
				"y": 0.8114994671,
				"z": -4.1041897228,
				"element": "H" 
			},
			{
				"x": -0.0753453251,
				"y": -3.1361030293,
				"z": -3.9603121493,
				"element": "H" 
			},
			{
				"x": 0.6786682566,
				"y": -3.0941551,
				"z": -2.3443621619,
				"element": "H" 
			},
			{
				"x": -0.9075752647,
				"y": -2.316029329,
				"z": -2.6125085484,
				"element": "H" 
			},
			{
				"x": 0.2602111883,
				"y": -1.4039593383,
				"z": -0.8024832237,
				"element": "H" 
			}
		],
		 "valence_orbital": [ 
			{
				"type": "occ",
				"energy": -0.3092,
				"method": "rhf"
			},
			{
				"type": "occ",
				"energy": -0.26315,
				"method": "rhf"
			},
			{
				"type": "occ",
				"energy": -0.23468,
				"method": "rhf"
			},
			{
				"type": "occ",
				"energy": -0.22066,
				"method": "rhf"
			},
			{
				"type": "occ",
				"energy": -0.20854,
				"method": "rhf"
			},
			{
				"type": "unocc",
				"energy": -0.02374,
				"method": "rhf"
			},
			{
				"type": "unocc",
				"energy": 0.01076,
				"method": "rhf"
			},
			{
				"type": "unocc",
				"energy": 0.01176,
				"method": "rhf"
			},
			{
				"type": "unocc",
				"energy": 0.03601,
				"method": "rhf"
			},
			{
				"type": "unocc",
				"energy": 0.08903,
				"method": "rhf"
			}
		],
		"cosmo_sigma_profile": { 
			"-0.025": 0.0,
			"-0.024": 0.0,
			"-0.023": 0.0,
			"-0.022": 0.0,
			"-0.021": 0.0,
			"-0.02": 0.0,
			"-0.019": 0.0,
			"-0.018": 0.0,
			"-0.017": 0.0,
			"-0.016": 0.0,
			"-0.015": 0.0,
			"-0.014": 0.0,
			"-0.013": 0.0,
			"-0.012": 0.0,
			"-0.011": 0.0,
			"-0.01": 0.0,
			"-0.009": 0.0,
			"-0.008": 0.0,
			"-0.007": 0.0468641275895,
			"-0.006": 11.7538280412,
			"-0.005": 31.4468178602,
			"-0.004": 29.6223575523,
			"-0.003": 31.288832703,
			"-0.002": 19.2292352599,
			"-0.001": 14.9704007819,
			"0.0": 11.54921608,
			"0.001": 12.3216363338,
			"0.002": 15.6198017885,
			"0.003": 17.9990815206,
			"0.004": 22.7722646389,
			"0.005": 22.9506188749,
			"0.006": 13.3480277165,
			"0.007": 2.91818445527,
			"0.008": 1.66013324435,
			"0.009": 2.88536621529,
			"0.01": 3.77026911185,
			"0.011": 0.877161765768,
			"0.012": 0.0,
			"0.013": 0.0,
			"0.014": 0.0,
			"0.015": 0.0,
			"0.016": 0.0,
			"0.017": 0.0,
			"0.018": 0.0,
			"0.019": 0.0,
			"0.02": 0.0,
			"0.021": 0.0,
			"0.022": 0.0,
			"0.023": 0.0,
			"0.024": 0.0,
			"0.025": 0.0
		}
	}
}
