{
	 "smiles": "CC(=O)C1=CC=C(O)C(CC=C)=C1", 
	 "Tm": 389.15, 
	 "num_atms": 25, 
	 "gaussian": { 
		 "optdone": 1, 
		 "sigma_profile": "yes", 
		 "theory": "DFT", 
		 "functional": "B3LYP", 
		 "basiset": "6-31G**", 
		 "properties": { 
			 "R2extent": 2905.2819, 
			 "electric_dipole_moment_norm": 4.28538854248, 
			 "electric_quadrupole_moment_norm": 8.36292786409, 
			 "total_energy": -576.832092786, 
			 "HOMO_LUMO_gap": 0.18637, 
			 "cosmo_polarized_energy": -14.17, 
			 "cosmo_cavitation_energy": 29.11, 
			 "cosmo_dispersion_energy": -20.34, 
			 "cosmo_repulsion_energy": 1.62, 
			 "cosmo_total_nonelectrostatic_energy": 10.38, 
			 "SMD_solvation_energy": 6.54 
		},
		"coords": [
			{
				"x": 0.6755041964,
				"y": -3.3651883987,
				"z": 1.3346306255,
				"element": "C" 
			},
			{
				"x": -0.067945264,
				"y": -2.0483934169,
				"z": 1.1650170036,
				"element": "C" 
			},
			{
				"x": -1.1472860338,
				"y": -1.8748815132,
				"z": 1.7144563886,
				"element": "O" 
			},
			{
				"x": 0.5434750743,
				"y": -0.9805322759,
				"z": 0.3201445976,
				"element": "C" 
			},
			{
				"x": 1.7812048967,
				"y": -1.1248546448,
				"z": -0.3213601116,
				"element": "C" 
			},
			{
				"x": 2.299459125,
				"y": -0.0879613316,
				"z": -1.0910291977,
				"element": "C" 
			},
			{
				"x": 1.5851174328,
				"y": 1.107237173,
				"z": -1.2327925505,
				"element": "C" 
			},
			{
				"x": 2.0606295522,
				"y": 2.1478417935,
				"z": -1.9725552236,
				"element": "O" 
			},
			{
				"x": 0.3368722945,
				"y": 1.2833818986,
				"z": -0.5986939693,
				"element": "C" 
			},
			{
				"x": -0.4305417094,
				"y": 2.5754415068,
				"z": -0.7586770533,
				"element": "C" 
			},
			{
				"x": -1.3106064657,
				"y": 2.6668207814,
				"z": -1.9881549693,
				"element": "C" 
			},
			{
				"x": -1.5438382944,
				"y": 1.7013721422,
				"z": -2.8759306379,
				"element": "C" 
			},
			{
				"x": -0.1544785008,
				"y": 0.2300523056,
				"z": 0.1646170798,
				"element": "C" 
			},
			{
				"x": 0.8384950013,
				"y": -3.8542804231,
				"z": 0.3678453415,
				"element": "H" 
			},
			{
				"x": 0.0821447733,
				"y": -4.0189833269,
				"z": 1.9743670177,
				"element": "H" 
			},
			{
				"x": 1.6589900842,
				"y": -3.2072359786,
				"z": 1.7910972553,
				"element": "H" 
			},
			{
				"x": 2.3517059648,
				"y": -2.0427247935,
				"z": -0.2243107556,
				"element": "H" 
			},
			{
				"x": 3.2625316976,
				"y": -0.2012960283,
				"z": -1.584777683,
				"element": "H" 
			},
			{
				"x": 2.91966481,
				"y": 1.9099600178,
				"z": -2.3451465339,
				"element": "H" 
			},
			{
				"x": -1.0596422066,
				"y": 2.7278385786,
				"z": 0.1290409157,
				"element": "H" 
			},
			{
				"x": 0.2716500237,
				"y": 3.4183626131,
				"z": -0.77565853,
				"element": "H" 
			},
			{
				"x": -1.7934109823,
				"y": 3.6353913415,
				"z": -2.1215089692,
				"element": "H" 
			},
			{
				"x": -2.2014106568,
				"y": 1.8657079854,
				"z": -3.7241737322,
				"element": "H" 
			},
			{
				"x": -1.0926070296,
				"y": 0.7173835569,
				"z": -2.7884626911,
				"element": "H" 
			},
			{
				"x": -1.1106777835,
				"y": 0.3271404371,
				"z": 0.670016383,
				"element": "H" 
			}
		],
		 "valence_orbital": [ 
			{
				"type": "occ",
				"energy": -0.32919,
				"method": "rhf"
			},
			{
				"type": "occ",
				"energy": -0.25602,
				"method": "rhf"
			},
			{
				"type": "occ",
				"energy": -0.24927,
				"method": "rhf"
			},
			{
				"type": "occ",
				"energy": -0.24073,
				"method": "rhf"
			},
			{
				"type": "occ",
				"energy": -0.23037,
				"method": "rhf"
			},
			{
				"type": "unocc",
				"energy": -0.044,
				"method": "rhf"
			},
			{
				"type": "unocc",
				"energy": -0.00998,
				"method": "rhf"
			},
			{
				"type": "unocc",
				"energy": 0.02915,
				"method": "rhf"
			},
			{
				"type": "unocc",
				"energy": 0.04971,
				"method": "rhf"
			},
			{
				"type": "unocc",
				"energy": 0.05966,
				"method": "rhf"
			}
		],
		"cosmo_sigma_profile": { 
			"-0.025": 0.0,
			"-0.024": 0.0,
			"-0.023": 0.0,
			"-0.022": 0.0,
			"-0.021": 0.0,
			"-0.02": 0.0,
			"-0.019": 0.0706527271693,
			"-0.018": 0.789997124309,
			"-0.017": 1.33726313374,
			"-0.016": 1.13327015523,
			"-0.015": 1.26981216755,
			"-0.014": 1.02623238786,
			"-0.013": 0.478579669041,
			"-0.012": 0.853382729642,
			"-0.011": 1.08207620078,
			"-0.01": 1.51884662782,
			"-0.009": 0.835468549972,
			"-0.008": 1.08300452423,
			"-0.007": 2.52906529541,
			"-0.006": 9.12163441064,
			"-0.005": 15.3618816403,
			"-0.004": 18.1126302056,
			"-0.003": 19.5412347597,
			"-0.002": 18.4703785099,
			"-0.001": 19.3424464539,
			"0.0": 16.6537669362,
			"0.001": 14.3267188164,
			"0.002": 15.8056079811,
			"0.003": 16.173786242,
			"0.004": 14.120217871,
			"0.005": 6.34063359655,
			"0.006": 5.90905184919,
			"0.007": 5.52455476049,
			"0.008": 4.42249908195,
			"0.009": 4.23202858636,
			"0.01": 2.85582815197,
			"0.011": 2.13549956661,
			"0.012": 4.28647611294,
			"0.013": 3.09255085832,
			"0.014": 0.779173926983,
			"0.015": 0.0109703661295,
			"0.016": 0.0,
			"0.017": 0.0,
			"0.018": 0.0,
			"0.019": 0.0,
			"0.02": 0.0,
			"0.021": 0.0,
			"0.022": 0.0,
			"0.023": 0.0,
			"0.024": 0.0,
			"0.025": 0.0
		}
	}
}
