{
	 "smiles": "CCN(CC)C1=CC=C(C=C1)C1=NN=C(S)N1C1=C(C)C=CC=C1", 
	 "Tm": 506.15, 
	 "num_atms": 46, 
	 "gaussian": { 
		 "optdone": 1, 
		 "sigma_profile": "yes", 
		 "theory": "DFT", 
		 "functional": "B3LYP", 
		 "basiset": "6-31G**", 
		 "properties": { 
			 "R2extent": 11864.6342, 
			 "electric_dipole_moment_norm": 6.19573276861, 
			 "electric_quadrupole_moment_norm": 25.9167933485, 
			 "total_energy": -1354.46287751, 
			 "HOMO_LUMO_gap": 0.15559, 
			 "cosmo_polarized_energy": -18.02, 
			 "cosmo_cavitation_energy": 49.15, 
			 "cosmo_dispersion_energy": -33.65, 
			 "cosmo_repulsion_energy": 2.53, 
			 "cosmo_total_nonelectrostatic_energy": 18.03, 
			 "SMD_solvation_energy": 5.92 
		},
		"coords": [
			{
				"x": 1.9265866689,
				"y": -1.5960444318,
				"z": 3.4009770934,
				"element": "C" 
			},
			{
				"x": 2.2420574076,
				"y": -0.1226611333,
				"z": 3.1012149224,
				"element": "C" 
			},
			{
				"x": 1.0810135922,
				"y": 0.760950356,
				"z": 3.0409526499,
				"element": "N" 
			},
			{
				"x": 0.7152888056,
				"y": 1.4956737684,
				"z": 4.2497910603,
				"element": "C" 
			},
			{
				"x": -0.3790200747,
				"y": 0.8402488378,
				"z": 5.1055664057,
				"element": "C" 
			},
			{
				"x": 0.2910290845,
				"y": 0.8231006755,
				"z": 1.9014431322,
				"element": "C" 
			},
			{
				"x": 0.5960064025,
				"y": 0.0757159052,
				"z": 0.7393831919,
				"element": "C" 
			},
			{
				"x": -0.1716811511,
				"y": 0.1766636418,
				"z": -0.4154832902,
				"element": "C" 
			},
			{
				"x": -1.2915402451,
				"y": 1.019557048,
				"z": -0.4824393746,
				"element": "C" 
			},
			{
				"x": -1.6123042449,
				"y": 1.7497272238,
				"z": 0.6771432535,
				"element": "C" 
			},
			{
				"x": -0.8556968787,
				"y": 1.6546120554,
				"z": 1.8333100336,
				"element": "C" 
			},
			{
				"x": -2.1701584387,
				"y": 1.1635448963,
				"z": -1.6467524521,
				"element": "C" 
			},
			{
				"x": -3.375191646,
				"y": 1.6974294279,
				"z": -1.588741008,
				"element": "N" 
			},
			{
				"x": -3.9185726973,
				"y": 1.711546769,
				"z": -2.8538581219,
				"element": "N" 
			},
			{
				"x": -3.0303325592,
				"y": 1.1770441575,
				"z": -3.6534458152,
				"element": "C" 
			},
			{
				"x": -3.1949759717,
				"y": 0.9546267684,
				"z": -5.4004058191,
				"element": "S" 
			},
			{
				"x": -1.8975590896,
				"y": 0.799272122,
				"z": -2.9658395802,
				"element": "N" 
			},
			{
				"x": -0.7118154459,
				"y": 0.2495357394,
				"z": -3.559832288,
				"element": "C" 
			},
			{
				"x": -0.6298428468,
				"y": -1.1347162903,
				"z": -3.8038712721,
				"element": "C" 
			},
			{
				"x": -1.7553992804,
				"y": -2.0679614276,
				"z": -3.431433793,
				"element": "C" 
			},
			{
				"x": 0.545191679,
				"y": -1.6129854907,
				"z": -4.3975281689,
				"element": "C" 
			},
			{
				"x": 1.5943758503,
				"y": -0.7567975808,
				"z": -4.7352588895,
				"element": "C" 
			},
			{
				"x": 1.4904297444,
				"y": 0.6117673633,
				"z": -4.4853282033,
				"element": "C" 
			},
			{
				"x": 0.3312756853,
				"y": 1.1152201542,
				"z": -3.8977131342,
				"element": "C" 
			},
			{
				"x": 2.8461937392,
				"y": -2.1916629213,
				"z": 3.3857557574,
				"element": "H" 
			},
			{
				"x": 1.4672864718,
				"y": -1.7087860547,
				"z": 4.3874394828,
				"element": "H" 
			},
			{
				"x": 1.2378793314,
				"y": -2.0131647964,
				"z": 2.6610283884,
				"element": "H" 
			},
			{
				"x": 2.7985201028,
				"y": -0.0450319362,
				"z": 2.1598754149,
				"element": "H" 
			},
			{
				"x": 2.9096637443,
				"y": 0.2695598224,
				"z": 3.8753123068,
				"element": "H" 
			},
			{
				"x": 1.6251479383,
				"y": 1.6081703067,
				"z": 4.8481164464,
				"element": "H" 
			},
			{
				"x": 0.4125613259,
				"y": 2.5123835326,
				"z": 3.9734433057,
				"element": "H" 
			},
			{
				"x": -1.2968990017,
				"y": 0.6906034432,
				"z": 4.5304252058,
				"element": "H" 
			},
			{
				"x": -0.0555333597,
				"y": -0.1349073959,
				"z": 5.4814574122,
				"element": "H" 
			},
			{
				"x": -0.616300887,
				"y": 1.4739337281,
				"z": 5.9673138283,
				"element": "H" 
			},
			{
				"x": 1.4390579175,
				"y": -0.6031924751,
				"z": 0.7274940662,
				"element": "H" 
			},
			{
				"x": 0.1148535232,
				"y": -0.428372259,
				"z": -1.2670460916,
				"element": "H" 
			},
			{
				"x": -2.4826826113,
				"y": 2.3964733515,
				"z": 0.6555611163,
				"element": "H" 
			},
			{
				"x": -1.1625390087,
				"y": 2.239779933,
				"z": 2.6908325556,
				"element": "H" 
			},
			{
				"x": -4.449237005,
				"y": 1.4451657513,
				"z": -5.3994545816,
				"element": "H" 
			},
			{
				"x": -1.4675022493,
				"y": -3.1077633752,
				"z": -3.6046414644,
				"element": "H" 
			},
			{
				"x": -2.6551176621,
				"y": -1.8629596906,
				"z": -4.0215108727,
				"element": "H" 
			},
			{
				"x": -2.0319117494,
				"y": -1.9605600329,
				"z": -2.3773815544,
				"element": "H" 
			},
			{
				"x": 0.6350511985,
				"y": -2.6776881295,
				"z": -4.5952638913,
				"element": "H" 
			},
			{
				"x": 2.4923883839,
				"y": -1.1605223866,
				"z": -5.193711632,
				"element": "H" 
			},
			{
				"x": 2.3019875938,
				"y": 1.2836962455,
				"z": -4.7464107762,
				"element": "H" 
			},
			{
				"x": 0.2224679133,
				"y": 2.1751747837,
				"z": -3.6918849552,
				"element": "H" 
			}
		],
		 "valence_orbital": [ 
			{
				"type": "occ",
				"energy": -0.2588,
				"method": "rhf"
			},
			{
				"type": "occ",
				"energy": -0.24499,
				"method": "rhf"
			},
			{
				"type": "occ",
				"energy": -0.23712,
				"method": "rhf"
			},
			{
				"type": "occ",
				"energy": -0.22633,
				"method": "rhf"
			},
			{
				"type": "occ",
				"energy": -0.18042,
				"method": "rhf"
			},
			{
				"type": "unocc",
				"energy": -0.02483,
				"method": "rhf"
			},
			{
				"type": "unocc",
				"energy": -0.01547,
				"method": "rhf"
			},
			{
				"type": "unocc",
				"energy": -0.01237,
				"method": "rhf"
			},
			{
				"type": "unocc",
				"energy": 0.00433,
				"method": "rhf"
			},
			{
				"type": "unocc",
				"energy": 0.01959,
				"method": "rhf"
			}
		],
		"cosmo_sigma_profile": { 
			"-0.025": 0.0,
			"-0.024": 0.0,
			"-0.023": 0.0,
			"-0.022": 0.0,
			"-0.021": 0.0,
			"-0.02": 0.0,
			"-0.019": 0.0,
			"-0.018": 0.0,
			"-0.017": 0.0,
			"-0.016": 0.0,
			"-0.015": 0.0,
			"-0.014": 0.0,
			"-0.013": 0.00615964673445,
			"-0.012": 1.29957964199,
			"-0.011": 1.20023925856,
			"-0.01": 1.63697897866,
			"-0.009": 0.867719610531,
			"-0.008": 1.55760348166,
			"-0.007": 3.78507393317,
			"-0.006": 14.8985283477,
			"-0.005": 23.3055556565,
			"-0.004": 32.5265933266,
			"-0.003": 40.8639965005,
			"-0.002": 42.7257592144,
			"-0.001": 38.7352930893,
			"0.0": 34.5944291279,
			"0.001": 34.0226110966,
			"0.002": 26.502716569,
			"0.003": 23.0780586042,
			"0.004": 19.2839376462,
			"0.005": 15.3650165781,
			"0.006": 11.5004417371,
			"0.007": 2.46583643787,
			"0.008": 1.61505435422,
			"0.009": 3.11115440763,
			"0.01": 2.20116961392,
			"0.011": 1.45210602605,
			"0.012": 3.14520384414,
			"0.013": 2.76163474082,
			"0.014": 3.47942063937,
			"0.015": 2.30156137186,
			"0.016": 2.04750635545,
			"0.017": 0.220702263175,
			"0.018": 0.0,
			"0.019": 0.0,
			"0.02": 0.0,
			"0.021": 0.0,
			"0.022": 0.0,
			"0.023": 0.0,
			"0.024": 0.0,
			"0.025": 0.0
		}
	}
}
