{
	 "smiles": "CCCCCCCCCCCCC(CCCCCCCCCCC)CCCCCCCCCCCC", 
	 "Tm": 282.85, 
	 "num_atms": 110, 
	 "gaussian": { 
		 "optdone": 1, 
		 "sigma_profile": "yes", 
		 "theory": "DFT", 
		 "functional": "B3LYP", 
		 "basiset": "6-31G**", 
		 "properties": { 
			 "R2extent": 28134.389, 
			 "electric_dipole_moment_norm": 0.153314252436, 
			 "electric_quadrupole_moment_norm": 0.89996439374, 
			 "total_energy": -1416.53695178, 
			 "HOMO_LUMO_gap": 0.33699, 
			 "cosmo_polarized_energy": -2.12, 
			 "cosmo_cavitation_energy": 101.34, 
			 "cosmo_dispersion_energy": -55.13, 
			 "cosmo_repulsion_energy": 4.34, 
			 "cosmo_total_nonelectrostatic_energy": 50.55, 
			 "SMD_solvation_energy": 12.15 
		},
		"coords": [
			{
				"x": 0.9680200078,
				"y": -4.1718991176,
				"z": 2.0594845536,
				"element": "C" 
			},
			{
				"x": 2.3454126063,
				"y": -3.8138398696,
				"z": 1.4906513409,
				"element": "C" 
			},
			{
				"x": 2.438675233,
				"y": -4.0230680947,
				"z": -0.027262562,
				"element": "C" 
			},
			{
				"x": 3.8321761164,
				"y": -3.7674827563,
				"z": -0.6284277038,
				"element": "C" 
			},
			{
				"x": 4.3683983821,
				"y": -2.3298156373,
				"z": -0.5047079048,
				"element": "C" 
			},
			{
				"x": 3.5493959994,
				"y": -1.2780870594,
				"z": -1.2693885852,
				"element": "C" 
			},
			{
				"x": 4.1683352992,
				"y": 0.1312091344,
				"z": -1.2719620975,
				"element": "C" 
			},
			{
				"x": 4.1660665229,
				"y": 0.8301630039,
				"z": 0.0958004408,
				"element": "C" 
			},
			{
				"x": 4.8880972567,
				"y": 2.1887576176,
				"z": 0.1179090854,
				"element": "C" 
			},
			{
				"x": 4.3007708107,
				"y": 3.3254165099,
				"z": -0.7413464422,
				"element": "C" 
			},
			{
				"x": 2.9156951912,
				"y": 3.8583733462,
				"z": -0.3071505024,
				"element": "C" 
			},
			{
				"x": 1.7117620136,
				"y": 3.2107486266,
				"z": -1.0116787501,
				"element": "C" 
			},
			{
				"x": 0.3446390265,
				"y": 3.8430373716,
				"z": -0.6701086425,
				"element": "C" 
			},
			{
				"x": -0.7483822225,
				"y": 3.4097473428,
				"z": -1.6816687954,
				"element": "C" 
			},
			{
				"x": -0.9888501659,
				"y": 1.9059514238,
				"z": -1.9223039089,
				"element": "C" 
			},
			{
				"x": -1.6106114825,
				"y": 1.11885336,
				"z": -0.7572244604,
				"element": "C" 
			},
			{
				"x": -2.0998713719,
				"y": -0.2884998516,
				"z": -1.1410556307,
				"element": "C" 
			},
			{
				"x": -0.986168016,
				"y": -1.2626484226,
				"z": -1.5526854164,
				"element": "C" 
			},
			{
				"x": -1.4630719007,
				"y": -2.7076559554,
				"z": -1.7863120659,
				"element": "C" 
			},
			{
				"x": -2.461571658,
				"y": -2.9113910619,
				"z": -2.9399549337,
				"element": "C" 
			},
			{
				"x": -1.9153761944,
				"y": -2.5599965767,
				"z": -4.3311464937,
				"element": "C" 
			},
			{
				"x": -2.909312594,
				"y": -2.8704055567,
				"z": -5.4595835987,
				"element": "C" 
			},
			{
				"x": -2.3827287412,
				"y": -2.5916896226,
				"z": -6.8772708613,
				"element": "C" 
			},
			{
				"x": -2.1194161759,
				"y": -1.1113458546,
				"z": -7.1789715005,
				"element": "C" 
			},
			{
				"x": -0.0651205106,
				"y": 3.6451146279,
				"z": 0.8182303348,
				"element": "C" 
			},
			{
				"x": 0.1820187107,
				"y": 4.8827516359,
				"z": 1.6977659261,
				"element": "C" 
			},
			{
				"x": -0.0671657194,
				"y": 4.7024972976,
				"z": 3.2062653942,
				"element": "C" 
			},
			{
				"x": -1.5159848345,
				"y": 4.3640033274,
				"z": 3.6241471824,
				"element": "C" 
			},
			{
				"x": -1.8318300129,
				"y": 2.8644002203,
				"z": 3.7416619037,
				"element": "C" 
			},
			{
				"x": -3.2783590963,
				"y": 2.5905432433,
				"z": 4.1778252355,
				"element": "C" 
			},
			{
				"x": -3.6131850521,
				"y": 1.1066033089,
				"z": 4.4053373921,
				"element": "C" 
			},
			{
				"x": -3.5828263324,
				"y": 0.2459498619,
				"z": 3.1324769406,
				"element": "C" 
			},
			{
				"x": -4.0601500205,
				"y": -1.2039263055,
				"z": 3.3264473732,
				"element": "C" 
			},
			{
				"x": -3.145740436,
				"y": -2.0638783162,
				"z": 4.2120847299,
				"element": "C" 
			},
			{
				"x": -3.6154161153,
				"y": -3.5181109054,
				"z": 4.3898804108,
				"element": "C" 
			},
			{
				"x": -3.5739621189,
				"y": -4.3635723019,
				"z": 3.1110403263,
				"element": "C" 
			},
			{
				"x": 0.7208773436,
				"y": -5.2223900443,
				"z": 1.8674910046,
				"element": "H" 
			},
			{
				"x": 0.9267413936,
				"y": -4.012714259,
				"z": 3.1421451401,
				"element": "H" 
			},
			{
				"x": 0.1806410177,
				"y": -3.5605682145,
				"z": 1.6029551616,
				"element": "H" 
			},
			{
				"x": 2.5768147654,
				"y": -2.770376171,
				"z": 1.7392815338,
				"element": "H" 
			},
			{
				"x": 3.1152596591,
				"y": -4.4216367539,
				"z": 1.9863170963,
				"element": "H" 
			},
			{
				"x": 2.1485046658,
				"y": -5.0575874699,
				"z": -0.2571701233,
				"element": "H" 
			},
			{
				"x": 1.6929619316,
				"y": -3.3885369638,
				"z": -0.5251654034,
				"element": "H" 
			},
			{
				"x": 4.5489106753,
				"y": -4.4508235618,
				"z": -0.1523021393,
				"element": "H" 
			},
			{
				"x": 3.811903152,
				"y": -4.0443059062,
				"z": -1.6915735533,
				"element": "H" 
			},
			{
				"x": 4.4398493318,
				"y": -2.0547125189,
				"z": 0.5545607148,
				"element": "H" 
			},
			{
				"x": 5.3986971134,
				"y": -2.3132999432,
				"z": -0.8866592805,
				"element": "H" 
			},
			{
				"x": 2.5321016539,
				"y": -1.2205004353,
				"z": -0.8587664987,
				"element": "H" 
			},
			{
				"x": 3.4350887265,
				"y": -1.6149047153,
				"z": -2.3091290852,
				"element": "H" 
			},
			{
				"x": 5.2023194064,
				"y": 0.0690611194,
				"z": -1.6422758582,
				"element": "H" 
			},
			{
				"x": 3.6250964238,
				"y": 0.7501797538,
				"z": -1.9967826604,
				"element": "H" 
			},
			{
				"x": 4.6557434367,
				"y": 0.182685281,
				"z": 0.8340228624,
				"element": "H" 
			},
			{
				"x": 3.1305425445,
				"y": 0.9461243274,
				"z": 0.4435544204,
				"element": "H" 
			},
			{
				"x": 5.929757033,
				"y": 2.0275260452,
				"z": -0.1936479383,
				"element": "H" 
			},
			{
				"x": 4.9389411777,
				"y": 2.5395729837,
				"z": 1.1579841365,
				"element": "H" 
			},
			{
				"x": 4.2644642127,
				"y": 3.0247676098,
				"z": -1.7969099696,
				"element": "H" 
			},
			{
				"x": 5.0175527954,
				"y": 4.1551870818,
				"z": -0.6996771876,
				"element": "H" 
			},
			{
				"x": 2.8766712662,
				"y": 4.9376752321,
				"z": -0.5068088918,
				"element": "H" 
			},
			{
				"x": 2.8185031008,
				"y": 3.75333192,
				"z": 0.7815498185,
				"element": "H" 
			},
			{
				"x": 1.8701222637,
				"y": 3.2891678806,
				"z": -2.0971144446,
				"element": "H" 
			},
			{
				"x": 1.6808015892,
				"y": 2.137079702,
				"z": -0.7881700137,
				"element": "H" 
			},
			{
				"x": 0.4536594899,
				"y": 4.9278366062,
				"z": -0.8249747013,
				"element": "H" 
			},
			{
				"x": -1.6985552202,
				"y": 3.8765329381,
				"z": -1.3852826067,
				"element": "H" 
			},
			{
				"x": -0.488220807,
				"y": 3.8542392893,
				"z": -2.6521086293,
				"element": "H" 
			},
			{
				"x": -1.6640966218,
				"y": 1.8208033371,
				"z": -2.7859455562,
				"element": "H" 
			},
			{
				"x": -0.0514259376,
				"y": 1.430688238,
				"z": -2.2353010858,
				"element": "H" 
			},
			{
				"x": -2.4644336188,
				"y": 1.6864213521,
				"z": -0.3626009215,
				"element": "H" 
			},
			{
				"x": -0.8931722616,
				"y": 1.0353248309,
				"z": 0.0692893412,
				"element": "H" 
			},
			{
				"x": -2.8352367442,
				"y": -0.1977222722,
				"z": -1.9521736062,
				"element": "H" 
			},
			{
				"x": -2.6426978817,
				"y": -0.7175776101,
				"z": -0.2870642052,
				"element": "H" 
			},
			{
				"x": -0.2232077831,
				"y": -1.2755454729,
				"z": -0.7612094752,
				"element": "H" 
			},
			{
				"x": -0.4770701864,
				"y": -0.8922180502,
				"z": -2.4507783774,
				"element": "H" 
			},
			{
				"x": -0.5848196152,
				"y": -3.3426154476,
				"z": -1.9671221798,
				"element": "H" 
			},
			{
				"x": -1.919066523,
				"y": -3.0806819298,
				"z": -0.8586658007,
				"element": "H" 
			},
			{
				"x": -2.775878999,
				"y": -3.9641204044,
				"z": -2.9403109233,
				"element": "H" 
			},
			{
				"x": -3.3743296697,
				"y": -2.3300828923,
				"z": -2.7521863416,
				"element": "H" 
			},
			{
				"x": -0.9843576925,
				"y": -3.1193717374,
				"z": -4.5063134407,
				"element": "H" 
			},
			{
				"x": -1.6424031745,
				"y": -1.4981881911,
				"z": -4.3625025864,
				"element": "H" 
			},
			{
				"x": -3.8322221927,
				"y": -2.2943422854,
				"z": -5.2981194214,
				"element": "H" 
			},
			{
				"x": -3.1986592055,
				"y": -3.928172993,
				"z": -5.3922759412,
				"element": "H" 
			},
			{
				"x": -3.1100705122,
				"y": -2.9774993699,
				"z": -7.6031703326,
				"element": "H" 
			},
			{
				"x": -1.4605899951,
				"y": -3.1670225429,
				"z": -7.0387967615,
				"element": "H" 
			},
			{
				"x": -1.3373920284,
				"y": -0.6950624735,
				"z": -6.5357352715,
				"element": "H" 
			},
			{
				"x": -3.0250161187,
				"y": -0.5116628446,
				"z": -7.0289210026,
				"element": "H" 
			},
			{
				"x": -1.797930933,
				"y": -0.9716610012,
				"z": -8.2164560849,
				"element": "H" 
			},
			{
				"x": 0.4688816295,
				"y": 2.7840484993,
				"z": 1.2442121651,
				"element": "H" 
			},
			{
				"x": -1.1290323583,
				"y": 3.3926787554,
				"z": 0.8698590732,
				"element": "H" 
			},
			{
				"x": -0.4508878994,
				"y": 5.7036672859,
				"z": 1.3300449144,
				"element": "H" 
			},
			{
				"x": 1.2161221021,
				"y": 5.2225192958,
				"z": 1.5611893585,
				"element": "H" 
			},
			{
				"x": 0.6126299825,
				"y": 3.9327542857,
				"z": 3.5991717167,
				"element": "H" 
			},
			{
				"x": 0.229837547,
				"y": 5.637509697,
				"z": 3.6978705306,
				"element": "H" 
			},
			{
				"x": -1.7218939528,
				"y": 4.8270197935,
				"z": 4.5985195226,
				"element": "H" 
			},
			{
				"x": -2.2183801905,
				"y": 4.833971829,
				"z": 2.9204261729,
				"element": "H" 
			},
			{
				"x": -1.1448052991,
				"y": 2.4140753817,
				"z": 4.4731151186,
				"element": "H" 
			},
			{
				"x": -1.6288657868,
				"y": 2.3633295967,
				"z": 2.7889856565,
				"element": "H" 
			},
			{
				"x": -3.4753557144,
				"y": 3.1426791413,
				"z": 5.107193085,
				"element": "H" 
			},
			{
				"x": -3.9679998667,
				"y": 3.0061706338,
				"z": 3.4286413248,
				"element": "H" 
			},
			{
				"x": -4.6157929038,
				"y": 1.0359386953,
				"z": 4.8498795649,
				"element": "H" 
			},
			{
				"x": -2.9208855063,
				"y": 0.6970754027,
				"z": 5.1529296144,
				"element": "H" 
			},
			{
				"x": -4.2169880623,
				"y": 0.7257128779,
				"z": 2.3737706698,
				"element": "H" 
			},
			{
				"x": -2.5678847172,
				"y": 0.2323305742,
				"z": 2.7132162464,
				"element": "H" 
			},
			{
				"x": -5.073522033,
				"y": -1.1976523548,
				"z": 3.7544151982,
				"element": "H" 
			},
			{
				"x": -4.1520500555,
				"y": -1.6714298517,
				"z": 2.3380512764,
				"element": "H" 
			},
			{
				"x": -3.0623591223,
				"y": -1.603147245,
				"z": 5.2042079131,
				"element": "H" 
			},
			{
				"x": -2.1298845424,
				"y": -2.0624205708,
				"z": 3.789799327,
				"element": "H" 
			},
			{
				"x": -4.6363449288,
				"y": -3.5197767861,
				"z": 4.7964168223,
				"element": "H" 
			},
			{
				"x": -2.9871594318,
				"y": -3.9980445278,
				"z": 5.1512598342,
				"element": "H" 
			},
			{
				"x": -4.2487461707,
				"y": -3.9766024084,
				"z": 2.3406465013,
				"element": "H" 
			},
			{
				"x": -3.8695512803,
				"y": -5.3984086237,
				"z": 3.3136677848,
				"element": "H" 
			},
			{
				"x": -2.5633162911,
				"y": -4.384808424,
				"z": 2.6861299648,
				"element": "H" 
			}
		],
		 "valence_orbital": [ 
			{
				"type": "occ",
				"energy": -0.29658,
				"method": "rhf"
			},
			{
				"type": "occ",
				"energy": -0.29524,
				"method": "rhf"
			},
			{
				"type": "occ",
				"energy": -0.29086,
				"method": "rhf"
			},
			{
				"type": "occ",
				"energy": -0.28626,
				"method": "rhf"
			},
			{
				"type": "occ",
				"energy": -0.28491,
				"method": "rhf"
			},
			{
				"type": "unocc",
				"energy": 0.05208,
				"method": "rhf"
			},
			{
				"type": "unocc",
				"energy": 0.07109,
				"method": "rhf"
			},
			{
				"type": "unocc",
				"energy": 0.07265,
				"method": "rhf"
			},
			{
				"type": "unocc",
				"energy": 0.08346,
				"method": "rhf"
			},
			{
				"type": "unocc",
				"energy": 0.0878,
				"method": "rhf"
			}
		],
		"cosmo_sigma_profile": { 
			"-0.025": 0.0,
			"-0.024": 0.0,
			"-0.023": 0.0,
			"-0.022": 0.0,
			"-0.021": 0.0,
			"-0.02": 0.0,
			"-0.019": 0.0,
			"-0.018": 0.0,
			"-0.017": 0.0,
			"-0.016": 0.0,
			"-0.015": 0.0,
			"-0.014": 0.0,
			"-0.013": 0.0,
			"-0.012": 0.0,
			"-0.011": 0.0,
			"-0.01": 0.0,
			"-0.009": 0.0,
			"-0.008": 0.0,
			"-0.007": 0.0,
			"-0.006": 0.0,
			"-0.005": 0.0,
			"-0.004": 0.0,
			"-0.003": 3.50109432803,
			"-0.002": 62.9515032806,
			"-0.001": 204.387455101,
			"0.0": 236.737375902,
			"0.001": 189.479319582,
			"0.002": 71.86877866,
			"0.003": 1.74947062667,
			"0.004": 0.0,
			"0.005": 0.0,
			"0.006": 0.0,
			"0.007": 0.0,
			"0.008": 0.0,
			"0.009": 0.0,
			"0.01": 0.0,
			"0.011": 0.0,
			"0.012": 0.0,
			"0.013": 0.0,
			"0.014": 0.0,
			"0.015": 0.0,
			"0.016": 0.0,
			"0.017": 0.0,
			"0.018": 0.0,
			"0.019": 0.0,
			"0.02": 0.0,
			"0.021": 0.0,
			"0.022": 0.0,
			"0.023": 0.0,
			"0.024": 0.0,
			"0.025": 0.0
		}
	}
}
