{
	 "smiles": "CC1CNC2=C(NC1)C=CC=C2", 
	 "Tm": 356.15, 
	 "num_atms": 26, 
	 "gaussian": { 
		 "optdone": 1, 
		 "sigma_profile": "yes", 
		 "theory": "DFT", 
		 "functional": "B3LYP", 
		 "basiset": "6-31G**", 
		 "properties": { 
			 "R2extent": 2550.4073, 
			 "electric_dipole_moment_norm": 1.45994387221, 
			 "electric_quadrupole_moment_norm": 9.19896211972, 
			 "total_energy": -499.004361635, 
			 "HOMO_LUMO_gap": 0.18993, 
			 "cosmo_polarized_energy": -8.39, 
			 "cosmo_cavitation_energy": 26.8, 
			 "cosmo_dispersion_energy": -20.18, 
			 "cosmo_repulsion_energy": 1.59, 
			 "cosmo_total_nonelectrostatic_energy": 8.21, 
			 "SMD_solvation_energy": 2.66 
		},
		"coords": [
			{
				"x": 1.3455087619,
				"y": -1.5061301924,
				"z": -3.3897334651,
				"element": "C" 
			},
			{
				"x": 1.5965361036,
				"y": -1.541006268,
				"z": -1.8781585485,
				"element": "C" 
			},
			{
				"x": 1.3493570925,
				"y": -0.1711524483,
				"z": -1.2176881248,
				"element": "C" 
			},
			{
				"x": -0.0835819629,
				"y": 0.0824672393,
				"z": -1.0235174605,
				"element": "N" 
			},
			{
				"x": -0.6992856369,
				"y": -0.3486537043,
				"z": 0.169780182,
				"element": "C" 
			},
			{
				"x": -0.3665042044,
				"y": -1.5884893827,
				"z": 0.777934166,
				"element": "C" 
			},
			{
				"x": 0.6224038595,
				"y": -2.4392526615,
				"z": 0.2401268262,
				"element": "N" 
			},
			{
				"x": 0.7042249132,
				"y": -2.6079328011,
				"z": -1.2143811257,
				"element": "C" 
			},
			{
				"x": -1.0195622802,
				"y": -1.9488526224,
				"z": 1.9647659285,
				"element": "C" 
			},
			{
				"x": -1.9925999967,
				"y": -1.1393837022,
				"z": 2.5497966961,
				"element": "C" 
			},
			{
				"x": -2.342963841,
				"y": 0.0606364033,
				"z": 1.9347272362,
				"element": "C" 
			},
			{
				"x": -1.6920164873,
				"y": 0.4437676386,
				"z": 0.7626930675,
				"element": "C" 
			},
			{
				"x": 0.3344767301,
				"y": -1.1376579555,
				"z": -3.5961764677,
				"element": "H" 
			},
			{
				"x": 1.4387194082,
				"y": -2.5023506815,
				"z": -3.8371152921,
				"element": "H" 
			},
			{
				"x": 2.0582402215,
				"y": -0.8470423236,
				"z": -3.8972001236,
				"element": "H" 
			},
			{
				"x": 2.6471297276,
				"y": -1.8033588435,
				"z": -1.692447325,
				"element": "H" 
			},
			{
				"x": 1.8914596602,
				"y": -0.1144922032,
				"z": -0.2648092795,
				"element": "H" 
			},
			{
				"x": 1.7461866197,
				"y": 0.6208130614,
				"z": -1.8621077767,
				"element": "H" 
			},
			{
				"x": -0.3440346833,
				"y": 1.034094104,
				"z": -1.2437257305,
				"element": "H" 
			},
			{
				"x": 0.644163721,
				"y": -3.3226411206,
				"z": 0.73165645,
				"element": "H" 
			},
			{
				"x": 1.1191204067,
				"y": -3.6013903031,
				"z": -1.4146367426,
				"element": "H" 
			},
			{
				"x": -0.2951903615,
				"y": -2.5813843711,
				"z": -1.6731801557,
				"element": "H" 
			},
			{
				"x": -0.7579199488,
				"y": -2.8980871654,
				"z": 2.4288478249,
				"element": "H" 
			},
			{
				"x": -2.4784540429,
				"y": -1.4560648462,
				"z": 3.4677003447,
				"element": "H" 
			},
			{
				"x": -3.1038967109,
				"y": 0.7044372176,
				"z": 2.3653128595,
				"element": "H" 
			},
			{
				"x": -1.9459170689,
				"y": 1.3908079324,
				"z": 0.2899360362,
				"element": "H" 
			}
		],
		 "valence_orbital": [ 
			{
				"type": "occ",
				"energy": -0.32273,
				"method": "rhf"
			},
			{
				"type": "occ",
				"energy": -0.28145,
				"method": "rhf"
			},
			{
				"type": "occ",
				"energy": -0.27418,
				"method": "rhf"
			},
			{
				"type": "occ",
				"energy": -0.21128,
				"method": "rhf"
			},
			{
				"type": "occ",
				"energy": -0.17113,
				"method": "rhf"
			},
			{
				"type": "unocc",
				"energy": 0.0188,
				"method": "rhf"
			},
			{
				"type": "unocc",
				"energy": 0.02864,
				"method": "rhf"
			},
			{
				"type": "unocc",
				"energy": 0.07537,
				"method": "rhf"
			},
			{
				"type": "unocc",
				"energy": 0.09627,
				"method": "rhf"
			},
			{
				"type": "unocc",
				"energy": 0.105,
				"method": "rhf"
			}
		],
		"cosmo_sigma_profile": { 
			"-0.025": 0.0,
			"-0.024": 0.0,
			"-0.023": 0.0,
			"-0.022": 0.0,
			"-0.021": 0.0,
			"-0.02": 0.0,
			"-0.019": 0.0,
			"-0.018": 0.0,
			"-0.017": 0.0,
			"-0.016": 0.0,
			"-0.015": 0.0,
			"-0.014": 0.0,
			"-0.013": 0.0,
			"-0.012": 0.749730944338,
			"-0.011": 2.45719947659,
			"-0.01": 3.00053194448,
			"-0.009": 3.15326741388,
			"-0.008": 2.83475351602,
			"-0.007": 2.82844109014,
			"-0.006": 4.9615810953,
			"-0.005": 7.85298986131,
			"-0.004": 11.0175353645,
			"-0.003": 16.445486623,
			"-0.002": 25.7931742208,
			"-0.001": 24.3262823423,
			"0.0": 21.2754530429,
			"0.001": 15.9761888196,
			"0.002": 10.963209121,
			"0.003": 7.90039860117,
			"0.004": 7.77857121271,
			"0.005": 7.99928257055,
			"0.006": 8.98348075205,
			"0.007": 10.0983423886,
			"0.008": 7.60878425199,
			"0.009": 1.88086456483,
			"0.01": 1.75934279009,
			"0.011": 0.979114203156,
			"0.012": 0.403874188426,
			"0.013": 0.411693170285,
			"0.014": 0.0,
			"0.015": 0.0,
			"0.016": 0.0,
			"0.017": 0.0,
			"0.018": 0.0,
			"0.019": 0.0,
			"0.02": 0.0,
			"0.021": 0.0,
			"0.022": 0.0,
			"0.023": 0.0,
			"0.024": 0.0,
			"0.025": 0.0
		}
	}
}
