{
	 "smiles": "NC1=C(F)C(F)=NC(F)=C1F", 
	 "Tm": 359.15, 
	 "num_atms": 13, 
	 "gaussian": { 
		 "optdone": 1, 
		 "sigma_profile": "yes", 
		 "theory": "DFT", 
		 "functional": "B3LYP", 
		 "basiset": "6-31G**", 
		 "properties": { 
			 "R2extent": 1749.0832, 
			 "electric_dipole_moment_norm": 4.35712767887, 
			 "electric_quadrupole_moment_norm": 9.01007553131, 
			 "total_energy": -700.567661415, 
			 "HOMO_LUMO_gap": 0.22635, 
			 "cosmo_polarized_energy": -9.03, 
			 "cosmo_cavitation_energy": 19.99, 
			 "cosmo_dispersion_energy": -14.54, 
			 "cosmo_repulsion_energy": 1.09, 
			 "cosmo_total_nonelectrostatic_energy": 6.53, 
			 "SMD_solvation_energy": 3.82 
		},
		"coords": [
			{
				"x": 2.9222169405,
				"y": 0.3194743159,
				"z": -1.1926294589,
				"element": "N" 
			},
			{
				"x": 1.7097233055,
				"y": -0.018630232,
				"z": -0.660042577,
				"element": "C" 
			},
			{
				"x": 1.5973582006,
				"y": -0.84831013,
				"z": 0.4661605122,
				"element": "C" 
			},
			{
				"x": 2.7267543533,
				"y": -1.274646893,
				"z": 1.0703280787,
				"element": "F" 
			},
			{
				"x": 0.3392126904,
				"y": -1.1966569051,
				"z": 0.9320710643,
				"element": "C" 
			},
			{
				"x": 0.2517866854,
				"y": -1.9852085104,
				"z": 2.0068211004,
				"element": "F" 
			},
			{
				"x": -0.7881906107,
				"y": -0.7941166643,
				"z": 0.3789143084,
				"element": "N" 
			},
			{
				"x": -0.6987006564,
				"y": -0.0099059396,
				"z": -0.6775219904,
				"element": "C" 
			},
			{
				"x": -1.8390680685,
				"y": 0.405486469,
				"z": -1.2356913392,
				"element": "F" 
			},
			{
				"x": 0.5011696166,
				"y": 0.4050380552,
				"z": -1.2338258054,
				"element": "C" 
			},
			{
				"x": 0.5466644485,
				"y": 1.2179058184,
				"z": -2.3106205075,
				"element": "F" 
			},
			{
				"x": 2.9430934069,
				"y": 1.0959944438,
				"z": -1.8351493281,
				"element": "H" 
			},
			{
				"x": 3.733979688,
				"y": 0.1916761723,
				"z": -0.6087140575,
				"element": "H" 
			}
		],
		 "valence_orbital": [ 
			{
				"type": "occ",
				"energy": -0.39231,
				"method": "rhf"
			},
			{
				"type": "occ",
				"energy": -0.3577,
				"method": "rhf"
			},
			{
				"type": "occ",
				"energy": -0.31263,
				"method": "rhf"
			},
			{
				"type": "occ",
				"energy": -0.25408,
				"method": "rhf"
			},
			{
				"type": "occ",
				"energy": -0.25053,
				"method": "rhf"
			},
			{
				"type": "unocc",
				"energy": -0.02418,
				"method": "rhf"
			},
			{
				"type": "unocc",
				"energy": -0.00999,
				"method": "rhf"
			},
			{
				"type": "unocc",
				"energy": 0.03836,
				"method": "rhf"
			},
			{
				"type": "unocc",
				"energy": 0.09768,
				"method": "rhf"
			},
			{
				"type": "unocc",
				"energy": 0.10369,
				"method": "rhf"
			}
		],
		"cosmo_sigma_profile": { 
			"-0.025": 0.0,
			"-0.024": 0.0,
			"-0.023": 0.0,
			"-0.022": 0.0,
			"-0.021": 0.0,
			"-0.02": 0.0,
			"-0.019": 0.0,
			"-0.018": 0.0,
			"-0.017": 0.0,
			"-0.016": 0.0,
			"-0.015": 0.449778219115,
			"-0.014": 1.86180308397,
			"-0.013": 2.34226378385,
			"-0.012": 2.00486092909,
			"-0.011": 2.44478969706,
			"-0.01": 2.60162554624,
			"-0.009": 1.17792130476,
			"-0.008": 2.39572263126,
			"-0.007": 2.35333343634,
			"-0.006": 2.58671797249,
			"-0.005": 2.10833996265,
			"-0.004": 5.47979107746,
			"-0.003": 13.0412856116,
			"-0.002": 14.4920144725,
			"-0.001": 10.3458740056,
			"0.0": 8.96028153397,
			"0.001": 9.32985650969,
			"0.002": 15.6331182448,
			"0.003": 36.3489590417,
			"0.004": 10.0237282458,
			"0.005": 3.70042755399,
			"0.006": 2.39105664165,
			"0.007": 2.50683259134,
			"0.008": 1.79749362923,
			"0.009": 2.11513322523,
			"0.01": 1.02868102209,
			"0.011": 1.09513404614,
			"0.012": 1.12423906075,
			"0.013": 0.0461148444691,
			"0.014": 0.0,
			"0.015": 0.0,
			"0.016": 0.0,
			"0.017": 0.0,
			"0.018": 0.0,
			"0.019": 0.0,
			"0.02": 0.0,
			"0.021": 0.0,
			"0.022": 0.0,
			"0.023": 0.0,
			"0.024": 0.0,
			"0.025": 0.0
		}
	}
}
