{
	 "smiles": "[O-][N+](=O)C1=CC2=C(NC3=C2CCCC3)C=C1", 
	 "Tm": 446.15, 
	 "num_atms": 28, 
	 "gaussian": { 
		 "optdone": 1, 
		 "sigma_profile": "yes", 
		 "theory": "DFT", 
		 "functional": "B3LYP", 
		 "basiset": "6-31G**", 
		 "properties": { 
			 "R2extent": 5342.5673, 
			 "electric_dipole_moment_norm": 7.95109540692, 
			 "electric_quadrupole_moment_norm": 26.783665398, 
			 "total_energy": -724.389971778, 
			 "HOMO_LUMO_gap": 0.14526, 
			 "cosmo_polarized_energy": -13.84, 
			 "cosmo_cavitation_energy": 30.98, 
			 "cosmo_dispersion_energy": -23.15, 
			 "cosmo_repulsion_energy": 1.79, 
			 "cosmo_total_nonelectrostatic_energy": 9.62, 
			 "SMD_solvation_energy": 6.21 
		},
		"coords": [
			{
				"x": 4.0383667159,
				"y": 2.3882890748,
				"z": -2.6161917301,
				"element": "O" 
			},
			{
				"x": 4.3205878232,
				"y": 1.6376944676,
				"z": -1.6791854361,
				"element": "N" 
			},
			{
				"x": 5.4565312692,
				"y": 1.2164279375,
				"z": -1.4483462818,
				"element": "O" 
			},
			{
				"x": 3.2393808357,
				"y": 1.2201495718,
				"z": -0.7838333872,
				"element": "C" 
			},
			{
				"x": 1.9528729647,
				"y": 1.6879977786,
				"z": -1.0328011263,
				"element": "C" 
			},
			{
				"x": 0.9318557408,
				"y": 1.2810971572,
				"z": -0.1690388502,
				"element": "C" 
			},
			{
				"x": 1.2502890964,
				"y": 0.4122501754,
				"z": 0.9198197966,
				"element": "C" 
			},
			{
				"x": 0.0814269215,
				"y": 0.1722661343,
				"z": 1.6014763657,
				"element": "N" 
			},
			{
				"x": -0.9621815601,
				"y": 0.8542913733,
				"z": 0.9852080858,
				"element": "C" 
			},
			{
				"x": -0.4823342093,
				"y": 1.5459166022,
				"z": -0.0977113425,
				"element": "C" 
			},
			{
				"x": -1.3591592343,
				"y": 2.3892743138,
				"z": -0.9799029303,
				"element": "C" 
			},
			{
				"x": -2.7102200853,
				"y": 2.6633835595,
				"z": -0.2887407638,
				"element": "C" 
			},
			{
				"x": -3.2976567503,
				"y": 1.3928192841,
				"z": 0.3497535736,
				"element": "C" 
			},
			{
				"x": -2.3817861585,
				"y": 0.8326974698,
				"z": 1.4579546511,
				"element": "C" 
			},
			{
				"x": 2.5511248242,
				"y": -0.0493753223,
				"z": 1.1546108035,
				"element": "C" 
			},
			{
				"x": 3.5522761115,
				"y": 0.3632615871,
				"z": 0.2887159503,
				"element": "C" 
			},
			{
				"x": 1.777000301,
				"y": 2.3449222735,
				"z": -1.8756262279,
				"element": "H" 
			},
			{
				"x": -0.0084499908,
				"y": -0.4106918296,
				"z": 2.4184167731,
				"element": "H" 
			},
			{
				"x": -0.8648486436,
				"y": 3.337795823,
				"z": -1.2244651439,
				"element": "H" 
			},
			{
				"x": -1.5301518502,
				"y": 1.8825129116,
				"z": -1.9411249805,
				"element": "H" 
			},
			{
				"x": -2.5688206172,
				"y": 3.4233719586,
				"z": 0.4911446829,
				"element": "H" 
			},
			{
				"x": -3.4199063483,
				"y": 3.0813643012,
				"z": -1.0109025696,
				"element": "H" 
			},
			{
				"x": -4.2902696146,
				"y": 1.5985471557,
				"z": 0.7643259022,
				"element": "H" 
			},
			{
				"x": -3.429960365,
				"y": 0.627525119,
				"z": -0.4257855079,
				"element": "H" 
			},
			{
				"x": -2.4847556584,
				"y": 1.4373894508,
				"z": 2.3714806537,
				"element": "H" 
			},
			{
				"x": -2.6895434964,
				"y": -0.1861690735,
				"z": 1.7286498193,
				"element": "H" 
			},
			{
				"x": 2.7763043083,
				"y": -0.7097253381,
				"z": 1.9866673285,
				"element": "H" 
			},
			{
				"x": 4.5777276697,
				"y": 0.042216083,
				"z": 0.4159318918,
				"element": "H" 
			}
		],
		 "valence_orbital": [ 
			{
				"type": "occ",
				"energy": -0.28955,
				"method": "rhf"
			},
			{
				"type": "occ",
				"energy": -0.28452,
				"method": "rhf"
			},
			{
				"type": "occ",
				"energy": -0.27142,
				"method": "rhf"
			},
			{
				"type": "occ",
				"energy": -0.2391,
				"method": "rhf"
			},
			{
				"type": "occ",
				"energy": -0.21297,
				"method": "rhf"
			},
			{
				"type": "unocc",
				"energy": -0.06771,
				"method": "rhf"
			},
			{
				"type": "unocc",
				"energy": -0.02196,
				"method": "rhf"
			},
			{
				"type": "unocc",
				"energy": 0.03192,
				"method": "rhf"
			},
			{
				"type": "unocc",
				"energy": 0.05529,
				"method": "rhf"
			},
			{
				"type": "unocc",
				"energy": 0.06894,
				"method": "rhf"
			}
		],
		"cosmo_sigma_profile": { 
			"-0.025": 0.0,
			"-0.024": 0.0,
			"-0.023": 0.0,
			"-0.022": 0.0,
			"-0.021": 0.0,
			"-0.02": 0.0,
			"-0.019": 0.0,
			"-0.018": 0.0,
			"-0.017": 0.0,
			"-0.016": 0.647939636683,
			"-0.015": 1.69982902722,
			"-0.014": 1.34343044526,
			"-0.013": 1.24344476184,
			"-0.012": 0.738721257987,
			"-0.011": 1.78239963503,
			"-0.01": 1.55520502363,
			"-0.009": 1.45793799673,
			"-0.008": 1.79807551879,
			"-0.007": 4.01618645551,
			"-0.006": 4.50560292498,
			"-0.005": 7.5082541451,
			"-0.004": 13.2756540118,
			"-0.003": 21.0672607538,
			"-0.002": 28.6060625976,
			"-0.001": 29.5172644905,
			"0.0": 25.138341325,
			"0.001": 16.998791612,
			"0.002": 14.1872725257,
			"0.003": 20.951509379,
			"0.004": 12.7285006367,
			"0.005": 3.95318935386,
			"0.006": 3.45597636497,
			"0.007": 3.56866936938,
			"0.008": 8.83710342275,
			"0.009": 7.52169950521,
			"0.01": 4.26634961287,
			"0.011": 2.76953566885,
			"0.012": 0.0966917793563,
			"0.013": 0.0,
			"0.014": 0.0,
			"0.015": 0.0,
			"0.016": 0.0,
			"0.017": 0.0,
			"0.018": 0.0,
			"0.019": 0.0,
			"0.02": 0.0,
			"0.021": 0.0,
			"0.022": 0.0,
			"0.023": 0.0,
			"0.024": 0.0,
			"0.025": 0.0
		}
	}
}
