{
	 "smiles": "OC(=O)C1CC2=C(CN1S(=O)(=O)C1=CC=CC=C1)C=CC=C2", 
	 "Tm": 412.15, 
	 "num_atms": 37, 
	 "gaussian": { 
		 "optdone": 1, 
		 "sigma_profile": "yes", 
		 "theory": "DFT", 
		 "functional": "B3LYP", 
		 "basiset": "6-31G**", 
		 "properties": { 
			 "R2extent": 7772.6183, 
			 "electric_dipole_moment_norm": 4.57730041509, 
			 "electric_quadrupole_moment_norm": 20.0464244999, 
			 "total_energy": -1372.52117241, 
			 "HOMO_LUMO_gap": 0.20038, 
			 "cosmo_polarized_energy": -19.37, 
			 "cosmo_cavitation_energy": 41.27, 
			 "cosmo_dispersion_energy": -28.77, 
			 "cosmo_repulsion_energy": 2.15, 
			 "cosmo_total_nonelectrostatic_energy": 14.65, 
			 "SMD_solvation_energy": 6.42 
		},
		"coords": [
			{
				"x": 3.2356248172,
				"y": 0.1093843373,
				"z": 2.3613251831,
				"element": "O" 
			},
			{
				"x": 3.2309111854,
				"y": 1.0845401188,
				"z": 1.4314886148,
				"element": "C" 
			},
			{
				"x": 4.2399213336,
				"y": 1.5808550211,
				"z": 0.9819472385,
				"element": "O" 
			},
			{
				"x": 1.8153332481,
				"y": 1.5387794162,
				"z": 1.0417164546,
				"element": "C" 
			},
			{
				"x": 1.7283103822,
				"y": 1.8058639125,
				"z": -0.4669119955,
				"element": "C" 
			},
			{
				"x": 1.617906159,
				"y": 0.521334369,
				"z": -1.2617960609,
				"element": "C" 
			},
			{
				"x": 1.1307588612,
				"y": -0.6499711872,
				"z": -0.6637186813,
				"element": "C" 
			},
			{
				"x": 0.7236847311,
				"y": -0.701150407,
				"z": 0.7972167412,
				"element": "C" 
			},
			{
				"x": 0.7283912692,
				"y": 0.6329355623,
				"z": 1.4121945979,
				"element": "N" 
			},
			{
				"x": 0.068073128,
				"y": 0.7359507237,
				"z": 2.9686845506,
				"element": "S" 
			},
			{
				"x": 0.3074388592,
				"y": -0.5067112695,
				"z": 3.7087531085,
				"element": "O" 
			},
			{
				"x": 0.4887274934,
				"y": 2.0389304715,
				"z": 3.4965964984,
				"element": "O" 
			},
			{
				"x": -1.6951131707,
				"y": 0.8066961947,
				"z": 2.6247866886,
				"element": "C" 
			},
			{
				"x": -2.2489062973,
				"y": 1.9974343641,
				"z": 2.1464925538,
				"element": "C" 
			},
			{
				"x": -3.6173478125,
				"y": 2.0510707346,
				"z": 1.8911833648,
				"element": "C" 
			},
			{
				"x": -4.41796661,
				"y": 0.9260822487,
				"z": 2.1141421017,
				"element": "C" 
			},
			{
				"x": -3.854033129,
				"y": -0.2537049583,
				"z": 2.6009876183,
				"element": "C" 
			},
			{
				"x": -2.4835891324,
				"y": -0.3192834501,
				"z": 2.8637000099,
				"element": "C" 
			},
			{
				"x": 1.034146129,
				"y": -1.8246628086,
				"z": -1.422504039,
				"element": "C" 
			},
			{
				"x": 1.4064251019,
				"y": -1.8430498317,
				"z": -2.7631413778,
				"element": "C" 
			},
			{
				"x": 1.8897010648,
				"y": -0.6764374417,
				"z": -3.3626486606,
				"element": "C" 
			},
			{
				"x": 1.9950363732,
				"y": 0.4906264158,
				"z": -2.6119544994,
				"element": "C" 
			},
			{
				"x": 4.1669947664,
				"y": -0.062635101,
				"z": 2.5808053365,
				"element": "H" 
			},
			{
				"x": 1.6602546334,
				"y": 2.4731493964,
				"z": 1.5888297716,
				"element": "H" 
			},
			{
				"x": 0.8501142052,
				"y": 2.4369605038,
				"z": -0.6492315946,
				"element": "H" 
			},
			{
				"x": 2.6119201799,
				"y": 2.3710131548,
				"z": -0.7748810103,
				"element": "H" 
			},
			{
				"x": -0.2936532407,
				"y": -1.1020404795,
				"z": 0.8723598506,
				"element": "H" 
			},
			{
				"x": 1.3818321099,
				"y": -1.3856707409,
				"z": 1.3487851237,
				"element": "H" 
			},
			{
				"x": -1.618096418,
				"y": 2.8665445274,
				"z": 1.9942547388,
				"element": "H" 
			},
			{
				"x": -4.0611048545,
				"y": 2.9712152489,
				"z": 1.5232705752,
				"element": "H" 
			},
			{
				"x": -5.484297255,
				"y": 0.973974741,
				"z": 1.9138289297,
				"element": "H" 
			},
			{
				"x": -4.478822916,
				"y": -1.122717115,
				"z": 2.7837371987,
				"element": "H" 
			},
			{
				"x": -2.0260680892,
				"y": -1.2174646005,
				"z": 3.2632931199,
				"element": "H" 
			},
			{
				"x": 0.6613514134,
				"y": -2.7321295938,
				"z": -0.9524397092,
				"element": "H" 
			},
			{
				"x": 1.3226906127,
				"y": -2.7609548187,
				"z": -3.3375881498,
				"element": "H" 
			},
			{
				"x": 2.1889039044,
				"y": -0.6804604144,
				"z": -4.4066887875,
				"element": "H" 
			},
			{
				"x": 2.3806469633,
				"y": 1.3974027555,
				"z": -3.0716754036,
				"element": "H" 
			}
		],
		 "valence_orbital": [ 
			{
				"type": "occ",
				"energy": -0.27786,
				"method": "rhf"
			},
			{
				"type": "occ",
				"energy": -0.27186,
				"method": "rhf"
			},
			{
				"type": "occ",
				"energy": -0.25347,
				"method": "rhf"
			},
			{
				"type": "occ",
				"energy": -0.24663,
				"method": "rhf"
			},
			{
				"type": "occ",
				"energy": -0.24003,
				"method": "rhf"
			},
			{
				"type": "unocc",
				"energy": -0.03965,
				"method": "rhf"
			},
			{
				"type": "unocc",
				"energy": -0.02235,
				"method": "rhf"
			},
			{
				"type": "unocc",
				"energy": -0.01427,
				"method": "rhf"
			},
			{
				"type": "unocc",
				"energy": -0.00378,
				"method": "rhf"
			},
			{
				"type": "unocc",
				"energy": 0.00774,
				"method": "rhf"
			}
		],
		"cosmo_sigma_profile": { 
			"-0.025": 0.0,
			"-0.024": 0.0,
			"-0.023": 0.0,
			"-0.022": 0.0,
			"-0.021": 0.0,
			"-0.02": 0.0,
			"-0.019": 0.289558956985,
			"-0.018": 1.24570705902,
			"-0.017": 0.860298966056,
			"-0.016": 0.963365902768,
			"-0.015": 0.750044291288,
			"-0.014": 0.576384762879,
			"-0.013": 0.449438651414,
			"-0.012": 1.17261972186,
			"-0.011": 1.03171842822,
			"-0.01": 0.249453574267,
			"-0.009": 0.700843165263,
			"-0.008": 1.65557570027,
			"-0.007": 9.77450029574,
			"-0.006": 20.7238646978,
			"-0.005": 32.0648262876,
			"-0.004": 27.7333317117,
			"-0.003": 23.7202775644,
			"-0.002": 21.7899676158,
			"-0.001": 17.913415796,
			"0.0": 17.7168151926,
			"0.001": 20.3768457142,
			"0.002": 23.0129065334,
			"0.003": 24.6500689479,
			"0.004": 14.8560129533,
			"0.005": 12.620779426,
			"0.006": 8.92199027006,
			"0.007": 5.16241850063,
			"0.008": 6.26949331667,
			"0.009": 6.34169333538,
			"0.01": 9.61538785584,
			"0.011": 12.6643612664,
			"0.012": 2.96056845712,
			"0.013": 0.0,
			"0.014": 0.0,
			"0.015": 0.0,
			"0.016": 0.0,
			"0.017": 0.0,
			"0.018": 0.0,
			"0.019": 0.0,
			"0.02": 0.0,
			"0.021": 0.0,
			"0.022": 0.0,
			"0.023": 0.0,
			"0.024": 0.0,
			"0.025": 0.0
		}
	}
}
