{
	 "smiles": "FC(F)(F)COC1=CC=C(OCC(F)(F)F)C(=C1)S(Cl)(=O)=O", 
	 "Tm": 321.65, 
	 "num_atms": 29, 
	 "gaussian": { 
		 "optdone": 1, 
		 "sigma_profile": "yes", 
		 "theory": "DFT", 
		 "functional": "B3LYP", 
		 "basiset": "6-31G**", 
		 "properties": { 
			 "R2extent": 10585.0477, 
			 "electric_dipole_moment_norm": 5.30020027357, 
			 "electric_quadrupole_moment_norm": 15.7897059703, 
			 "total_energy": -2143.50710079, 
			 "HOMO_LUMO_gap": 0.16786, 
			 "cosmo_polarized_energy": -13.79, 
			 "cosmo_cavitation_energy": 40.16, 
			 "cosmo_dispersion_energy": -27.93, 
			 "cosmo_repulsion_energy": 1.98, 
			 "cosmo_total_nonelectrostatic_energy": 14.22, 
			 "SMD_solvation_energy": 8.25 
		},
		"coords": [
			{
				"x": 4.4650304106,
				"y": 0.7664800022,
				"z": 2.8661631095,
				"element": "F" 
			},
			{
				"x": 4.2505383517,
				"y": 1.1067283079,
				"z": 1.5875506133,
				"element": "C" 
			},
			{
				"x": 5.3868063235,
				"y": 1.6396320544,
				"z": 1.0913229477,
				"element": "F" 
			},
			{
				"x": 3.9910677605,
				"y": -0.0261578444,
				"z": 0.8980864416,
				"element": "F" 
			},
			{
				"x": 3.1289467063,
				"y": 2.1307672693,
				"z": 1.459249213,
				"element": "C" 
			},
			{
				"x": 1.9272359022,
				"y": 1.6873316297,
				"z": 2.0559121064,
				"element": "O" 
			},
			{
				"x": 0.9349695254,
				"y": 1.1312142483,
				"z": 1.2900957731,
				"element": "C" 
			},
			{
				"x": 1.1143160316,
				"y": 0.5611384494,
				"z": 0.0248109461,
				"element": "C" 
			},
			{
				"x": 0.0256697729,
				"y": 0.0184900819,
				"z": -0.6602760141,
				"element": "C" 
			},
			{
				"x": -1.2504834077,
				"y": 0.0308261919,
				"z": -0.0997194795,
				"element": "C" 
			},
			{
				"x": -2.3219645065,
				"y": -0.57277061,
				"z": -0.7002555598,
				"element": "O" 
			},
			{
				"x": -2.8560015146,
				"y": 0.0235077693,
				"z": -1.8768965823,
				"element": "C" 
			},
			{
				"x": -2.6725308365,
				"y": -0.9065411698,
				"z": -3.0648457371,
				"element": "C" 
			},
			{
				"x": -1.3634949819,
				"y": -1.1103955896,
				"z": -3.3474787538,
				"element": "F" 
			},
			{
				"x": -3.2430245484,
				"y": -0.3522349483,
				"z": -4.1545537433,
				"element": "F" 
			},
			{
				"x": -3.2340635987,
				"y": -2.1054741392,
				"z": -2.8559648204,
				"element": "F" 
			},
			{
				"x": -1.4102808313,
				"y": 0.6106724253,
				"z": 1.1693999164,
				"element": "C" 
			},
			{
				"x": -0.3379155329,
				"y": 1.1535094222,
				"z": 1.8697730784,
				"element": "C" 
			},
			{
				"x": -3.0394137185,
				"y": 0.7802332734,
				"z": 1.8959594972,
				"element": "S" 
			},
			{
				"x": -3.5129246703,
				"y": -1.2180451871,
				"z": 2.405673388,
				"element": "Cl" 
			},
			{
				"x": -2.9094203561,
				"y": 1.503796432,
				"z": 3.154929785,
				"element": "O" 
			},
			{
				"x": -3.9950023198,
				"y": 1.20015618,
				"z": 0.8766558648,
				"element": "O" 
			},
			{
				"x": 3.4434913669,
				"y": 3.0236818047,
				"z": 2.0058161653,
				"element": "H" 
			},
			{
				"x": 3.0034980441,
				"y": 2.3901703128,
				"z": 0.4030649439,
				"element": "H" 
			},
			{
				"x": 2.100124878,
				"y": 0.4899762137,
				"z": -0.4160328969,
				"element": "H" 
			},
			{
				"x": 0.1632558311,
				"y": -0.4482679753,
				"z": -1.6286179448,
				"element": "H" 
			},
			{
				"x": -2.3751430266,
				"y": 0.9786919789,
				"z": -2.1054309364,
				"element": "H" 
			},
			{
				"x": -3.9249024051,
				"y": 0.1895137228,
				"z": -1.7208468552,
				"element": "H" 
			},
			{
				"x": -0.4827846499,
				"y": 1.6022696935,
				"z": 2.8449555341,
				"element": "H" 
			}
		],
		 "valence_orbital": [ 
			{
				"type": "occ",
				"energy": -0.33368,
				"method": "rhf"
			},
			{
				"type": "occ",
				"energy": -0.31499,
				"method": "rhf"
			},
			{
				"type": "occ",
				"energy": -0.31479,
				"method": "rhf"
			},
			{
				"type": "occ",
				"energy": -0.29897,
				"method": "rhf"
			},
			{
				"type": "occ",
				"energy": -0.25751,
				"method": "rhf"
			},
			{
				"type": "unocc",
				"energy": -0.08965,
				"method": "rhf"
			},
			{
				"type": "unocc",
				"energy": -0.05392,
				"method": "rhf"
			},
			{
				"type": "unocc",
				"energy": -0.034,
				"method": "rhf"
			},
			{
				"type": "unocc",
				"energy": 0.04117,
				"method": "rhf"
			},
			{
				"type": "unocc",
				"energy": 0.05651,
				"method": "rhf"
			}
		],
		"cosmo_sigma_profile": { 
			"-0.025": 0.0,
			"-0.024": 0.0,
			"-0.023": 0.0,
			"-0.022": 0.0,
			"-0.021": 0.0,
			"-0.02": 0.0,
			"-0.019": 0.0,
			"-0.018": 0.0,
			"-0.017": 0.0,
			"-0.016": 0.0,
			"-0.015": 0.0,
			"-0.014": 0.0,
			"-0.013": 0.0,
			"-0.012": 0.0893137538633,
			"-0.011": 1.05307634471,
			"-0.01": 3.46282840694,
			"-0.009": 8.47859779536,
			"-0.008": 11.316764277,
			"-0.007": 11.4625016084,
			"-0.006": 10.4192939998,
			"-0.005": 10.4495949412,
			"-0.004": 11.5163275343,
			"-0.003": 13.3866954057,
			"-0.002": 16.0431430679,
			"-0.001": 24.2716024974,
			"0.0": 27.9122245676,
			"0.001": 28.60612452,
			"0.002": 59.0635096429,
			"0.003": 42.622252898,
			"0.004": 11.0923561951,
			"0.005": 8.19396350641,
			"0.006": 5.55997913083,
			"0.007": 7.86123261553,
			"0.008": 8.34869731664,
			"0.009": 3.76287331643,
			"0.01": 0.0,
			"0.011": 0.0,
			"0.012": 0.0,
			"0.013": 0.0,
			"0.014": 0.0,
			"0.015": 0.0,
			"0.016": 0.0,
			"0.017": 0.0,
			"0.018": 0.0,
			"0.019": 0.0,
			"0.02": 0.0,
			"0.021": 0.0,
			"0.022": 0.0,
			"0.023": 0.0,
			"0.024": 0.0,
			"0.025": 0.0
		}
	}
}
