{
	 "smiles": "OC(=O)C1=CNC=N1", 
	 "Tm": 517.15, 
	 "num_atms": 12, 
	 "gaussian": { 
		 "optdone": 1, 
		 "sigma_profile": "yes", 
		 "theory": "DFT", 
		 "functional": "B3LYP", 
		 "basiset": "6-31G**", 
		 "properties": { 
			 "R2extent": 900.9566, 
			 "electric_dipole_moment_norm": 7.04986455544, 
			 "electric_quadrupole_moment_norm": 11.0531774495, 
			 "total_energy": -414.794884004, 
			 "HOMO_LUMO_gap": 0.23201, 
			 "cosmo_polarized_energy": -18.78, 
			 "cosmo_cavitation_energy": 16.92, 
			 "cosmo_dispersion_energy": -12.95, 
			 "cosmo_repulsion_energy": 1.09, 
			 "cosmo_total_nonelectrostatic_energy": 5.06, 
			 "SMD_solvation_energy": 3.85 
		},
		"coords": [
			{
				"x": -1.1131988138,
				"y": 1.5171855943,
				"z": -1.0037869476,
				"element": "O" 
			},
			{
				"x": -0.6574597943,
				"y": 0.2835262779,
				"z": -1.309251533,
				"element": "C" 
			},
			{
				"x": -0.795461507,
				"y": -0.2098184644,
				"z": -2.4064233528,
				"element": "O" 
			},
			{
				"x": 0.018732658,
				"y": -0.3918130101,
				"z": -0.17875679,
				"element": "C" 
			},
			{
				"x": 0.5911530162,
				"y": -1.6413707212,
				"z": -0.1519311053,
				"element": "C" 
			},
			{
				"x": 1.0739022801,
				"y": -1.7811146518,
				"z": 1.1256056957,
				"element": "N" 
			},
			{
				"x": 0.7808296844,
				"y": -0.6310654014,
				"z": 1.8116065249,
				"element": "C" 
			},
			{
				"x": 0.1436013631,
				"y": 0.2268832512,
				"z": 1.0496511555,
				"element": "N" 
			},
			{
				"x": -0.884650183,
				"y": 1.6901029437,
				"z": -0.0710425187,
				"element": "H" 
			},
			{
				"x": 0.6858610604,
				"y": -2.4030660843,
				"z": -0.9089137546,
				"element": "H" 
			},
			{
				"x": 1.5580191071,
				"y": -2.5873127202,
				"z": 1.4926109058,
				"element": "H" 
			},
			{
				"x": 1.0558711287,
				"y": -0.4864370137,
				"z": 2.8469317201,
				"element": "H" 
			}
		],
		 "valence_orbital": [ 
			{
				"type": "occ",
				"energy": -0.31187,
				"method": "rhf"
			},
			{
				"type": "occ",
				"energy": -0.30945,
				"method": "rhf"
			},
			{
				"type": "occ",
				"energy": -0.3004,
				"method": "rhf"
			},
			{
				"type": "occ",
				"energy": -0.26127,
				"method": "rhf"
			},
			{
				"type": "occ",
				"energy": -0.25508,
				"method": "rhf"
			},
			{
				"type": "unocc",
				"energy": -0.02307,
				"method": "rhf"
			},
			{
				"type": "unocc",
				"energy": 0.0054,
				"method": "rhf"
			},
			{
				"type": "unocc",
				"energy": 0.05178,
				"method": "rhf"
			},
			{
				"type": "unocc",
				"energy": 0.11534,
				"method": "rhf"
			},
			{
				"type": "unocc",
				"energy": 0.11971,
				"method": "rhf"
			}
		],
		"cosmo_sigma_profile": { 
			"-0.025": 0.0,
			"-0.024": 0.0,
			"-0.023": 0.0,
			"-0.022": 0.0,
			"-0.021": 0.0,
			"-0.02": 0.0,
			"-0.019": 0.0,
			"-0.018": 0.930396075485,
			"-0.017": 2.20221390703,
			"-0.016": 1.36966832389,
			"-0.015": 1.24541218317,
			"-0.014": 1.32839458596,
			"-0.013": 2.12729099849,
			"-0.012": 1.49627473432,
			"-0.011": 1.70480832587,
			"-0.01": 6.67524947794,
			"-0.009": 5.11783786195,
			"-0.008": 3.50355485485,
			"-0.007": 3.96222838897,
			"-0.006": 4.06775348135,
			"-0.005": 3.48393954529,
			"-0.004": 4.34778502823,
			"-0.003": 4.83341460966,
			"-0.002": 5.98483658579,
			"-0.001": 6.18131161015,
			"0.0": 7.91897836845,
			"0.001": 10.8871137169,
			"0.002": 7.52074524901,
			"0.003": 4.97170046416,
			"0.004": 4.1605883111,
			"0.005": 2.88379203942,
			"0.006": 4.40939463948,
			"0.007": 3.18486950325,
			"0.008": 2.91721838362,
			"0.009": 4.70765136364,
			"0.01": 5.88029311371,
			"0.011": 5.7847041129,
			"0.012": 6.2283019626,
			"0.013": 3.26816753736,
			"0.014": 0.725790217991,
			"0.015": 0.0,
			"0.016": 0.0,
			"0.017": 0.0,
			"0.018": 0.0,
			"0.019": 0.0,
			"0.02": 0.0,
			"0.021": 0.0,
			"0.022": 0.0,
			"0.023": 0.0,
			"0.024": 0.0,
			"0.025": 0.0
		}
	}
}
