{
	 "smiles": "C1=CN2C=CC=CC2=C1", 
	 "Tm": 348.15, 
	 "num_atms": 16, 
	 "gaussian": { 
		 "optdone": 1, 
		 "sigma_profile": "yes", 
		 "theory": "DFT", 
		 "functional": "B3LYP", 
		 "basiset": "6-31G**", 
		 "properties": { 
			 "R2extent": 1210.8403, 
			 "electric_dipole_moment_norm": 1.13517195173, 
			 "electric_quadrupole_moment_norm": 7.11716517091, 
			 "total_energy": -363.802660133, 
			 "HOMO_LUMO_gap": 0.16306, 
			 "cosmo_polarized_energy": -5.25, 
			 "cosmo_cavitation_energy": 19.45, 
			 "cosmo_dispersion_energy": -14.8, 
			 "cosmo_repulsion_energy": 1.18, 
			 "cosmo_total_nonelectrostatic_energy": 5.83, 
			 "SMD_solvation_energy": 4.02 
		},
		"coords": [
			{
				"x": -1.4813615861,
				"y": 1.3301004021,
				"z": -1.3272140657,
				"element": "C" 
			},
			{
				"x": -1.0618198937,
				"y": 0.9650142645,
				"z": -0.0578646584,
				"element": "C" 
			},
			{
				"x": 0.1811705938,
				"y": 0.3885369549,
				"z": -0.1728083492,
				"element": "N" 
			},
			{
				"x": 1.0024342244,
				"y": -0.1295651557,
				"z": 0.8046895025,
				"element": "C" 
			},
			{
				"x": 2.2123623815,
				"y": -0.6615233643,
				"z": 0.4696617938,
				"element": "C" 
			},
			{
				"x": 2.636444935,
				"y": -0.6856291884,
				"z": -0.89371929,
				"element": "C" 
			},
			{
				"x": 1.8223843892,
				"y": -0.1710119473,
				"z": -1.8706961345,
				"element": "C" 
			},
			{
				"x": 0.5621346158,
				"y": 0.3851711592,
				"z": -1.5375476468,
				"element": "C" 
			},
			{
				"x": -0.4791349861,
				"y": 0.97405443,
				"z": -2.2538732347,
				"element": "C" 
			},
			{
				"x": -2.4247513782,
				"y": 1.8084900262,
				"z": -1.5533468001,
				"element": "H" 
			},
			{
				"x": -1.5375328944,
				"y": 1.0657625554,
				"z": 0.9060735901,
				"element": "H" 
			},
			{
				"x": 0.6225168603,
				"y": -0.08094997,
				"z": 1.8184808013,
				"element": "H" 
			},
			{
				"x": 2.8440944574,
				"y": -1.0642266827,
				"z": 1.253332393,
				"element": "H" 
			},
			{
				"x": 3.6011382063,
				"y": -1.1113536454,
				"z": -1.1488872441,
				"element": "H" 
			},
			{
				"x": 2.1205037869,
				"y": -0.1768480513,
				"z": -2.9142802993,
				"element": "H" 
			},
			{
				"x": -0.4960837121,
				"y": 1.1216782128,
				"z": -3.324100358,
				"element": "H" 
			}
		],
		 "valence_orbital": [ 
			{
				"type": "occ",
				"energy": -0.35641,
				"method": "rhf"
			},
			{
				"type": "occ",
				"energy": -0.32043,
				"method": "rhf"
			},
			{
				"type": "occ",
				"energy": -0.29432,
				"method": "rhf"
			},
			{
				"type": "occ",
				"energy": -0.22739,
				"method": "rhf"
			},
			{
				"type": "occ",
				"energy": -0.18224,
				"method": "rhf"
			},
			{
				"type": "unocc",
				"energy": -0.01918,
				"method": "rhf"
			},
			{
				"type": "unocc",
				"energy": 0.01894,
				"method": "rhf"
			},
			{
				"type": "unocc",
				"energy": 0.08653,
				"method": "rhf"
			},
			{
				"type": "unocc",
				"energy": 0.0953,
				"method": "rhf"
			},
			{
				"type": "unocc",
				"energy": 0.12424,
				"method": "rhf"
			}
		],
		"cosmo_sigma_profile": { 
			"-0.025": 0.0,
			"-0.024": 0.0,
			"-0.023": 0.0,
			"-0.022": 0.0,
			"-0.021": 0.0,
			"-0.02": 0.0,
			"-0.019": 0.0,
			"-0.018": 0.0,
			"-0.017": 0.0,
			"-0.016": 0.0,
			"-0.015": 0.0,
			"-0.014": 0.0,
			"-0.013": 0.0,
			"-0.012": 0.0,
			"-0.011": 0.0,
			"-0.01": 0.0,
			"-0.009": 0.454626715697,
			"-0.008": 3.95968551178,
			"-0.007": 4.44685752871,
			"-0.006": 9.47244006543,
			"-0.005": 11.7917203599,
			"-0.004": 12.2884809487,
			"-0.003": 12.2326118834,
			"-0.002": 10.0076707013,
			"-0.001": 9.16986803707,
			"0.0": 9.06224979705,
			"0.001": 7.62657505486,
			"0.002": 10.6216858777,
			"0.003": 12.1910137369,
			"0.004": 13.6692772552,
			"0.005": 13.3132534978,
			"0.006": 7.45289868501,
			"0.007": 5.26215057888,
			"0.008": 3.41893987973,
			"0.009": 0.170440950939,
			"0.01": 0.0,
			"0.011": 0.0,
			"0.012": 0.0,
			"0.013": 0.0,
			"0.014": 0.0,
			"0.015": 0.0,
			"0.016": 0.0,
			"0.017": 0.0,
			"0.018": 0.0,
			"0.019": 0.0,
			"0.02": 0.0,
			"0.021": 0.0,
			"0.022": 0.0,
			"0.023": 0.0,
			"0.024": 0.0,
			"0.025": 0.0
		}
	}
}
