{
	 "smiles": "CC(C)C1=NN=C(N1)C(C)C", 
	 "Tm": 421.15, 
	 "num_atms": 26, 
	 "gaussian": { 
		 "optdone": 1, 
		 "sigma_profile": "yes", 
		 "theory": "DFT", 
		 "functional": "B3LYP", 
		 "basiset": "6-31G**", 
		 "properties": { 
			 "R2extent": 2258.7748, 
			 "electric_dipole_moment_norm": 5.33281512618, 
			 "electric_quadrupole_moment_norm": 10.1240498868, 
			 "total_energy": -478.153838068, 
			 "HOMO_LUMO_gap": 0.26549, 
			 "cosmo_polarized_energy": -19.0, 
			 "cosmo_cavitation_energy": 28.66, 
			 "cosmo_dispersion_energy": -19.74, 
			 "cosmo_repulsion_energy": 1.64, 
			 "cosmo_total_nonelectrostatic_energy": 10.56, 
			 "SMD_solvation_energy": 2.76 
		},
		"coords": [
			{
				"x": -1.6945963601,
				"y": 0.3663781707,
				"z": -2.6411914366,
				"element": "C" 
			},
			{
				"x": -1.4703514312,
				"y": 1.4924780855,
				"z": -1.6136500669,
				"element": "C" 
			},
			{
				"x": -0.503145436,
				"y": 2.5635826185,
				"z": -2.1534746257,
				"element": "C" 
			},
			{
				"x": -1.0244540986,
				"y": 0.9555112587,
				"z": -0.2842724668,
				"element": "C" 
			},
			{
				"x": -1.6819184369,
				"y": 1.0606855663,
				"z": 0.8465887539,
				"element": "N" 
			},
			{
				"x": -0.9349133256,
				"y": 0.4367572381,
				"z": 1.8326977139,
				"element": "N" 
			},
			{
				"x": 0.1570739832,
				"y": -0.0315087299,
				"z": 1.2754938118,
				"element": "C" 
			},
			{
				"x": 0.1491625221,
				"y": 0.270896649,
				"z": -0.0668358196,
				"element": "N" 
			},
			{
				"x": 1.2512634713,
				"y": -0.7809612897,
				"z": 1.9793752229,
				"element": "C" 
			},
			{
				"x": 2.5905119168,
				"y": -0.0205375499,
				"z": 1.9311175306,
				"element": "C" 
			},
			{
				"x": 1.3994104126,
				"y": -2.2178954511,
				"z": 1.4431780004,
				"element": "C" 
			},
			{
				"x": -2.09044842,
				"y": 0.775230541,
				"z": -3.5764020565,
				"element": "H" 
			},
			{
				"x": -2.4034343469,
				"y": -0.3767997503,
				"z": -2.2651727314,
				"element": "H" 
			},
			{
				"x": -0.7577060204,
				"y": -0.1512987175,
				"z": -2.8809980057,
				"element": "H" 
			},
			{
				"x": -2.434306079,
				"y": 1.9691393662,
				"z": -1.4061976623,
				"element": "H" 
			},
			{
				"x": 0.4842865854,
				"y": 2.139379542,
				"z": -2.3731807427,
				"element": "H" 
			},
			{
				"x": -0.3685396077,
				"y": 3.3745784047,
				"z": -1.4321431332,
				"element": "H" 
			},
			{
				"x": -0.8885435402,
				"y": 2.9928332599,
				"z": -3.08390015,
				"element": "H" 
			},
			{
				"x": 0.8553851402,
				"y": 0.0393410064,
				"z": -0.748355297,
				"element": "H" 
			},
			{
				"x": 0.9197329685,
				"y": -0.83277171,
				"z": 3.021900301,
				"element": "H" 
			},
			{
				"x": 3.3517152451,
				"y": -0.5492683501,
				"z": 2.5137746885,
				"element": "H" 
			},
			{
				"x": 2.4871014769,
				"y": 0.9890032755,
				"z": 2.3389068129,
				"element": "H" 
			},
			{
				"x": 2.9664215823,
				"y": 0.066668503,
				"z": 0.9043192237,
				"element": "H" 
			},
			{
				"x": 2.1495426582,
				"y": -2.7665344378,
				"z": 2.0217824053,
				"element": "H" 
			},
			{
				"x": 1.7249747131,
				"y": -2.2245767956,
				"z": 0.3956938694,
				"element": "H" 
			},
			{
				"x": 0.4531744267,
				"y": -2.7628107035,
				"z": 1.5053458596,
				"element": "H" 
			}
		],
		 "valence_orbital": [ 
			{
				"type": "occ",
				"energy": -0.34216,
				"method": "rhf"
			},
			{
				"type": "occ",
				"energy": -0.28982,
				"method": "rhf"
			},
			{
				"type": "occ",
				"energy": -0.28861,
				"method": "rhf"
			},
			{
				"type": "occ",
				"energy": -0.24036,
				"method": "rhf"
			},
			{
				"type": "occ",
				"energy": -0.23804,
				"method": "rhf"
			},
			{
				"type": "unocc",
				"energy": 0.02745,
				"method": "rhf"
			},
			{
				"type": "unocc",
				"energy": 0.04319,
				"method": "rhf"
			},
			{
				"type": "unocc",
				"energy": 0.05614,
				"method": "rhf"
			},
			{
				"type": "unocc",
				"energy": 0.08917,
				"method": "rhf"
			},
			{
				"type": "unocc",
				"energy": 0.1049,
				"method": "rhf"
			}
		],
		"cosmo_sigma_profile": { 
			"-0.025": 0.0,
			"-0.024": 0.0,
			"-0.023": 0.0,
			"-0.022": 0.0,
			"-0.021": 0.0,
			"-0.02": 0.0,
			"-0.019": 0.0,
			"-0.018": 0.0,
			"-0.017": 0.0,
			"-0.016": 0.204587592489,
			"-0.015": 0.886500203417,
			"-0.014": 0.826074034585,
			"-0.013": 1.27815801679,
			"-0.012": 1.42735893449,
			"-0.011": 2.7847086369,
			"-0.01": 2.08137867881,
			"-0.009": 2.34734043386,
			"-0.008": 1.69809639567,
			"-0.007": 2.3380831643,
			"-0.006": 1.93649019435,
			"-0.005": 3.94452428267,
			"-0.004": 13.524754837,
			"-0.003": 29.4590524945,
			"-0.002": 29.5553321115,
			"-0.001": 31.3741164834,
			"0.0": 35.8696371422,
			"0.001": 22.1594529365,
			"0.002": 2.63884094832,
			"0.003": 2.85214406853,
			"0.004": 2.0486040862,
			"0.005": 2.09183486477,
			"0.006": 1.83718158286,
			"0.007": 1.938511339,
			"0.008": 1.4738485683,
			"0.009": 1.68734175007,
			"0.01": 2.29396416894,
			"0.011": 1.8382316639,
			"0.012": 2.31130987343,
			"0.013": 1.92884631361,
			"0.014": 3.54521585041,
			"0.015": 3.89327938096,
			"0.016": 2.54111256049,
			"0.017": 2.55857114126,
			"0.018": 1.68217865017,
			"0.019": 0.0892904333723,
			"0.02": 0.0,
			"0.021": 0.0,
			"0.022": 0.0,
			"0.023": 0.0,
			"0.024": 0.0,
			"0.025": 0.0
		}
	}
}
