{
	 "smiles": "NS(=O)(=O)C1=C(Cl)C=CC(=C1)C(F)(F)F", 
	 "Tm": 428.15, 
	 "num_atms": 20, 
	 "gaussian": { 
		 "optdone": 1, 
		 "sigma_profile": "yes", 
		 "theory": "DFT", 
		 "functional": "B3LYP", 
		 "basiset": "6-31G**", 
		 "properties": { 
			 "R2extent": 5666.8835, 
			 "electric_dipole_moment_norm": 2.23338332133, 
			 "electric_quadrupole_moment_norm": 28.6116914154, 
			 "total_energy": -1632.78423079, 
			 "HOMO_LUMO_gap": 0.2142, 
			 "cosmo_polarized_energy": -15.97, 
			 "cosmo_cavitation_energy": 29.27, 
			 "cosmo_dispersion_energy": -21.41, 
			 "cosmo_repulsion_energy": 1.58, 
			 "cosmo_total_nonelectrostatic_energy": 9.44, 
			 "SMD_solvation_energy": 5.65 
		},
		"coords": [
			{
				"x": 1.2658635395,
				"y": -1.7554215155,
				"z": -1.3763155659,
				"element": "N" 
			},
			{
				"x": 1.9238380134,
				"y": -2.3988758344,
				"z": 0.0407149308,
				"element": "S" 
			},
			{
				"x": 3.3744223337,
				"y": -2.2275118102,
				"z": -0.0361752565,
				"element": "O" 
			},
			{
				"x": 1.3008822669,
				"y": -3.7045436838,
				"z": 0.2563092368,
				"element": "O" 
			},
			{
				"x": 1.2953319967,
				"y": -1.2667751366,
				"z": 1.3049744461,
				"element": "C" 
			},
			{
				"x": 1.6223082067,
				"y": -1.4617037249,
				"z": 2.6575132834,
				"element": "C" 
			},
			{
				"x": 2.6293451506,
				"y": -2.7824882183,
				"z": 3.1857846638,
				"element": "Cl" 
			},
			{
				"x": 1.1398439808,
				"y": -0.5794531375,
				"z": 3.6261703396,
				"element": "C" 
			},
			{
				"x": 0.3329493403,
				"y": 0.4926956301,
				"z": 3.2581621103,
				"element": "C" 
			},
			{
				"x": 0.005519299,
				"y": 0.6877152992,
				"z": 1.9159918588,
				"element": "C" 
			},
			{
				"x": 0.485706508,
				"y": -0.1893280665,
				"z": 0.9437469468,
				"element": "C" 
			},
			{
				"x": -0.9129677463,
				"y": 1.813434177,
				"z": 1.5182688384,
				"element": "C" 
			},
			{
				"x": -2.2103727234,
				"y": 1.4397816718,
				"z": 1.5851226114,
				"element": "F" 
			},
			{
				"x": -0.767454787,
				"y": 2.8818086691,
				"z": 2.3310915587,
				"element": "F" 
			},
			{
				"x": -0.6834049439,
				"y": 2.2235144928,
				"z": 0.2529702366,
				"element": "F" 
			},
			{
				"x": 0.6533479484,
				"y": -2.4437523636,
				"z": -1.8052931523,
				"element": "H" 
			},
			{
				"x": 2.0184009848,
				"y": -1.4742227851,
				"z": -1.9988927841,
				"element": "H" 
			},
			{
				"x": 1.4050873528,
				"y": -0.7403075485,
				"z": 4.6648014266,
				"element": "H" 
			},
			{
				"x": -0.0327047687,
				"y": 1.1797320371,
				"z": 4.0133308536,
				"element": "H" 
			},
			{
				"x": 0.2444580477,
				"y": -0.040698152,
				"z": -0.1006765827,
				"element": "H" 
			}
		],
		 "valence_orbital": [ 
			{
				"type": "occ",
				"energy": -0.33144,
				"method": "rhf"
			},
			{
				"type": "occ",
				"energy": -0.32,
				"method": "rhf"
			},
			{
				"type": "occ",
				"energy": -0.30147,
				"method": "rhf"
			},
			{
				"type": "occ",
				"energy": -0.29028,
				"method": "rhf"
			},
			{
				"type": "occ",
				"energy": -0.27508,
				"method": "rhf"
			},
			{
				"type": "unocc",
				"energy": -0.06088,
				"method": "rhf"
			},
			{
				"type": "unocc",
				"energy": -0.04823,
				"method": "rhf"
			},
			{
				"type": "unocc",
				"energy": 0.00372,
				"method": "rhf"
			},
			{
				"type": "unocc",
				"energy": 0.04366,
				"method": "rhf"
			},
			{
				"type": "unocc",
				"energy": 0.06626,
				"method": "rhf"
			}
		],
		"cosmo_sigma_profile": { 
			"-0.025": 0.0,
			"-0.024": 0.0,
			"-0.023": 0.0,
			"-0.022": 0.0,
			"-0.021": 0.0,
			"-0.02": 0.0,
			"-0.019": 0.0,
			"-0.018": 0.0,
			"-0.017": 0.0,
			"-0.016": 0.303978009609,
			"-0.015": 2.21953734789,
			"-0.014": 2.55155699394,
			"-0.013": 3.09632908878,
			"-0.012": 2.19551047106,
			"-0.011": 1.54774466731,
			"-0.01": 2.22343843487,
			"-0.009": 4.14413253369,
			"-0.008": 5.90110979368,
			"-0.007": 6.34987244277,
			"-0.006": 5.88670546527,
			"-0.005": 7.14220680935,
			"-0.004": 8.41557321001,
			"-0.003": 12.3989236315,
			"-0.002": 14.0081882604,
			"-0.001": 26.0814349864,
			"0.0": 19.3682985051,
			"0.001": 14.8103742695,
			"0.002": 31.4062575534,
			"0.003": 24.483907794,
			"0.004": 4.50918022484,
			"0.005": 2.5027622073,
			"0.006": 3.8866399005,
			"0.007": 4.75196353524,
			"0.008": 3.88342501889,
			"0.009": 3.9359908982,
			"0.01": 12.3258857195,
			"0.011": 6.6518407465,
			"0.012": 0.208754383296,
			"0.013": 0.0,
			"0.014": 0.0,
			"0.015": 0.0,
			"0.016": 0.0,
			"0.017": 0.0,
			"0.018": 0.0,
			"0.019": 0.0,
			"0.02": 0.0,
			"0.021": 0.0,
			"0.022": 0.0,
			"0.023": 0.0,
			"0.024": 0.0,
			"0.025": 0.0
		}
	}
}
