{
	 "smiles": "ClC1=C(Cl)C=C(C=C1)S(=O)(=O)N1CCNCC1", 
	 "Tm": 399.15, 
	 "num_atms": 29, 
	 "gaussian": { 
		 "optdone": 1, 
		 "sigma_profile": "yes", 
		 "theory": "DFT", 
		 "functional": "B3LYP", 
		 "basiset": "6-31G**", 
		 "properties": { 
			 "R2extent": 6973.27, 
			 "electric_dipole_moment_norm": 4.24458745227, 
			 "electric_quadrupole_moment_norm": 12.3786779124, 
			 "total_energy": -1966.73548403, 
			 "HOMO_LUMO_gap": 0.17539, 
			 "cosmo_polarized_energy": -15.92, 
			 "cosmo_cavitation_energy": 36.05, 
			 "cosmo_dispersion_energy": -26.49, 
			 "cosmo_repulsion_energy": 2.02, 
			 "cosmo_total_nonelectrostatic_energy": 11.58, 
			 "SMD_solvation_energy": 0.72 
		},
		"coords": [
			{
				"x": -1.5313880194,
				"y": -2.8108535132,
				"z": -4.6721248535,
				"element": "Cl" 
			},
			{
				"x": -1.2532314427,
				"y": -2.3744401495,
				"z": -3.0088432466,
				"element": "C" 
			},
			{
				"x": -2.2218649135,
				"y": -1.6842370981,
				"z": -2.2630452844,
				"element": "C" 
			},
			{
				"x": -3.7565317698,
				"y": -1.2349564889,
				"z": -2.9577847215,
				"element": "Cl" 
			},
			{
				"x": -1.9654070158,
				"y": -1.3505517759,
				"z": -0.9322645448,
				"element": "C" 
			},
			{
				"x": -0.7450023304,
				"y": -1.70453307,
				"z": -0.3580243704,
				"element": "C" 
			},
			{
				"x": 0.2208724474,
				"y": -2.4007013678,
				"z": -1.0883793866,
				"element": "C" 
			},
			{
				"x": -0.0397274986,
				"y": -2.7333999802,
				"z": -2.414248993,
				"element": "C" 
			},
			{
				"x": -0.4016699114,
				"y": -1.2196121914,
				"z": 1.3436987498,
				"element": "S" 
			},
			{
				"x": -1.6943215003,
				"y": -1.038177976,
				"z": 2.0053742187,
				"element": "O" 
			},
			{
				"x": 0.62036991,
				"y": -2.1384530163,
				"z": 1.8469631847,
				"element": "O" 
			},
			{
				"x": 0.3173975091,
				"y": 0.3029375503,
				"z": 1.2791038304,
				"element": "N" 
			},
			{
				"x": 1.6894330421,
				"y": 0.3803468987,
				"z": 0.7494555329,
				"element": "C" 
			},
			{
				"x": 2.3172302061,
				"y": 1.7101018042,
				"z": 1.2004715518,
				"element": "C" 
			},
			{
				"x": 1.51596106,
				"y": 2.8865188981,
				"z": 0.8670051488,
				"element": "N" 
			},
			{
				"x": 0.1430733948,
				"y": 2.7423433993,
				"z": 1.3487072265,
				"element": "C" 
			},
			{
				"x": -0.5403908379,
				"y": 1.4392043084,
				"z": 0.901338749,
				"element": "C" 
			},
			{
				"x": -2.7223678539,
				"y": -0.8459209061,
				"z": -0.3437686192,
				"element": "H" 
			},
			{
				"x": 1.1480262002,
				"y": -2.7008623279,
				"z": -0.6139335365,
				"element": "H" 
			},
			{
				"x": 0.6904143014,
				"y": -3.281017053,
				"z": -2.9995287668,
				"element": "H" 
			},
			{
				"x": 1.6878147527,
				"y": 0.3254252192,
				"z": -0.3534570163,
				"element": "H" 
			},
			{
				"x": 2.2577241807,
				"y": -0.4653182475,
				"z": 1.1412774927,
				"element": "H" 
			},
			{
				"x": 2.4464505765,
				"y": 1.6838965609,
				"z": 2.2891005748,
				"element": "H" 
			},
			{
				"x": 3.3106024081,
				"y": 1.8118864094,
				"z": 0.7509854731,
				"element": "H" 
			},
			{
				"x": 1.5118632125,
				"y": 3.0231581697,
				"z": -0.1423115911,
				"element": "H" 
			},
			{
				"x": 0.1626816742,
				"y": 2.7682849463,
				"z": 2.4447975579,
				"element": "H" 
			},
			{
				"x": -0.4498477333,
				"y": 3.5972630613,
				"z": 1.0072408152,
				"element": "H" 
			},
			{
				"x": -1.5055616179,
				"y": 1.3217914739,
				"z": 1.3975266577,
				"element": "H" 
			},
			{
				"x": -0.7041024309,
				"y": 1.4610764623,
				"z": -0.1904318333,
				"element": "H" 
			}
		],
		 "valence_orbital": [ 
			{
				"type": "occ",
				"energy": -0.3105,
				"method": "rhf"
			},
			{
				"type": "occ",
				"energy": -0.2875,
				"method": "rhf"
			},
			{
				"type": "occ",
				"energy": -0.27749,
				"method": "rhf"
			},
			{
				"type": "occ",
				"energy": -0.26503,
				"method": "rhf"
			},
			{
				"type": "occ",
				"energy": -0.2338,
				"method": "rhf"
			},
			{
				"type": "unocc",
				"energy": -0.05841,
				"method": "rhf"
			},
			{
				"type": "unocc",
				"energy": -0.0454,
				"method": "rhf"
			},
			{
				"type": "unocc",
				"energy": -0.0132,
				"method": "rhf"
			},
			{
				"type": "unocc",
				"energy": 0.04313,
				"method": "rhf"
			},
			{
				"type": "unocc",
				"energy": 0.05465,
				"method": "rhf"
			}
		],
		"cosmo_sigma_profile": { 
			"-0.025": 0.0,
			"-0.024": 0.0,
			"-0.023": 0.0,
			"-0.022": 0.0,
			"-0.021": 0.0,
			"-0.02": 0.0,
			"-0.019": 0.0,
			"-0.018": 0.0,
			"-0.017": 0.0,
			"-0.016": 0.0,
			"-0.015": 0.0,
			"-0.014": 0.0,
			"-0.013": 0.0,
			"-0.012": 0.0,
			"-0.011": 0.120403517831,
			"-0.01": 1.50731713923,
			"-0.009": 2.86082219898,
			"-0.008": 6.7870170947,
			"-0.007": 7.330614487,
			"-0.006": 7.87591689569,
			"-0.005": 20.9800036512,
			"-0.004": 29.3543007027,
			"-0.003": 27.0632921099,
			"-0.002": 21.89278788,
			"-0.001": 28.333709507,
			"0.0": 25.2342415857,
			"0.001": 14.9675091691,
			"0.002": 14.5560111407,
			"0.003": 22.0893728522,
			"0.004": 13.4136514443,
			"0.005": 6.36354403072,
			"0.006": 4.22198412017,
			"0.007": 5.05617940024,
			"0.008": 4.52038665785,
			"0.009": 4.41677254275,
			"0.01": 7.45558822096,
			"0.011": 8.2250604522,
			"0.012": 2.20013546521,
			"0.013": 0.887869463613,
			"0.014": 0.528448820879,
			"0.015": 0.43024198374,
			"0.016": 0.498622448591,
			"0.017": 0.73553127451,
			"0.018": 0.173707699145,
			"0.019": 0.0,
			"0.02": 0.0,
			"0.021": 0.0,
			"0.022": 0.0,
			"0.023": 0.0,
			"0.024": 0.0,
			"0.025": 0.0
		}
	}
}
