{
	 "smiles": "CC1CCC2=C(C1)SC1=C2C(=O)NC(CC#N)=N1", 
	 "Tm": 540.15, 
	 "num_atms": 31, 
	 "gaussian": { 
		 "optdone": 1, 
		 "sigma_profile": "yes", 
		 "theory": "DFT", 
		 "functional": "B3LYP", 
		 "basiset": "6-31G**", 
		 "properties": { 
			 "R2extent": 7069.5224, 
			 "electric_dipole_moment_norm": 3.61854382452, 
			 "electric_quadrupole_moment_norm": 23.5970582929, 
			 "total_energy": -1140.90740386, 
			 "HOMO_LUMO_gap": 0.16628, 
			 "cosmo_polarized_energy": -16.22, 
			 "cosmo_cavitation_energy": 36.05, 
			 "cosmo_dispersion_energy": -26.38, 
			 "cosmo_repulsion_energy": 1.98, 
			 "cosmo_total_nonelectrostatic_energy": 11.65, 
			 "SMD_solvation_energy": 5.06 
		},
		"coords": [
			{
				"x": -3.5612772715,
				"y": 1.0300891435,
				"z": 3.2435700735,
				"element": "C" 
			},
			{
				"x": -2.268947603,
				"y": 0.8369158079,
				"z": 2.4437143908,
				"element": "C" 
			},
			{
				"x": -1.1851809929,
				"y": 1.8566062064,
				"z": 2.8372550948,
				"element": "C" 
			},
			{
				"x": 0.1593624898,
				"y": 1.5754821933,
				"z": 2.147188376,
				"element": "C" 
			},
			{
				"x": -0.0291464074,
				"y": 1.2810561333,
				"z": 0.6791696964,
				"element": "C" 
			},
			{
				"x": -1.2551704442,
				"y": 0.9761950153,
				"z": 0.1509734028,
				"element": "C" 
			},
			{
				"x": -2.5421032865,
				"y": 0.9128745176,
				"z": 0.925430314,
				"element": "C" 
			},
			{
				"x": -1.1885606279,
				"y": 0.6699185744,
				"z": -1.5795647387,
				"element": "S" 
			},
			{
				"x": 0.5323473791,
				"y": 0.9562489661,
				"z": -1.5950517272,
				"element": "C" 
			},
			{
				"x": 1.0019057144,
				"y": 1.2686311454,
				"z": -0.3208656874,
				"element": "C" 
			},
			{
				"x": 2.4177366833,
				"y": 1.5348005448,
				"z": -0.1567286079,
				"element": "C" 
			},
			{
				"x": 3.0279734985,
				"y": 1.8210487354,
				"z": 0.8638350856,
				"element": "O" 
			},
			{
				"x": 3.1139647914,
				"y": 1.4286460647,
				"z": -1.3923297592,
				"element": "N" 
			},
			{
				"x": 2.5402191175,
				"y": 1.1106234026,
				"z": -2.5899714793,
				"element": "C" 
			},
			{
				"x": 3.4132089811,
				"y": 1.0956654745,
				"z": -3.8357637083,
				"element": "C" 
			},
			{
				"x": 4.8326876137,
				"y": 0.8550893386,
				"z": -3.5727392745,
				"element": "C" 
			},
			{
				"x": 5.9548747977,
				"y": 0.6872959653,
				"z": -3.3294393675,
				"element": "N" 
			},
			{
				"x": 1.2712727654,
				"y": 0.8674456415,
				"z": -2.7390655729,
				"element": "N" 
			},
			{
				"x": -3.9744291629,
				"y": 2.0337063248,
				"z": 3.0860672701,
				"element": "H" 
			},
			{
				"x": -4.3274316403,
				"y": 0.3045686626,
				"z": 2.9484316101,
				"element": "H" 
			},
			{
				"x": -3.3820187033,
				"y": 0.9088741232,
				"z": 4.3169886397,
				"element": "H" 
			},
			{
				"x": -1.8759225686,
				"y": -0.1678332275,
				"z": 2.6579804538,
				"element": "H" 
			},
			{
				"x": -1.53334983,
				"y": 2.863933696,
				"z": 2.5684368083,
				"element": "H" 
			},
			{
				"x": -1.047368379,
				"y": 1.85374238,
				"z": 3.9246758484,
				"element": "H" 
			},
			{
				"x": 0.655786832,
				"y": 0.7186762782,
				"z": 2.6233375047,
				"element": "H" 
			},
			{
				"x": 0.8510790298,
				"y": 2.413666313,
				"z": 2.2719291713,
				"element": "H" 
			},
			{
				"x": -3.1517800638,
				"y": 1.8033800163,
				"z": 0.7089481988,
				"element": "H" 
			},
			{
				"x": -3.1431080132,
				"y": 0.050436409,
				"z": 0.6105768869,
				"element": "H" 
			},
			{
				"x": 4.1166284652,
				"y": 1.5741787339,
				"z": -1.3266598612,
				"element": "H" 
			},
			{
				"x": 3.0198587282,
				"y": 0.3308410996,
				"z": -4.5110378986,
				"element": "H" 
			},
			{
				"x": 3.3147881075,
				"y": 2.05829632,
				"z": -4.3545911433,
				"element": "H" 
			}
		],
		 "valence_orbital": [ 
			{
				"type": "occ",
				"energy": -0.29719,
				"method": "rhf"
			},
			{
				"type": "occ",
				"energy": -0.29528,
				"method": "rhf"
			},
			{
				"type": "occ",
				"energy": -0.26793,
				"method": "rhf"
			},
			{
				"type": "occ",
				"energy": -0.258,
				"method": "rhf"
			},
			{
				"type": "occ",
				"energy": -0.21883,
				"method": "rhf"
			},
			{
				"type": "unocc",
				"energy": -0.05255,
				"method": "rhf"
			},
			{
				"type": "unocc",
				"energy": -0.01655,
				"method": "rhf"
			},
			{
				"type": "unocc",
				"energy": 0.00414,
				"method": "rhf"
			},
			{
				"type": "unocc",
				"energy": 0.01445,
				"method": "rhf"
			},
			{
				"type": "unocc",
				"energy": 0.01699,
				"method": "rhf"
			}
		],
		"cosmo_sigma_profile": { 
			"-0.025": 0.0,
			"-0.024": 0.0,
			"-0.023": 0.0,
			"-0.022": 0.0,
			"-0.021": 0.0,
			"-0.02": 0.0,
			"-0.019": 0.0,
			"-0.018": 0.0,
			"-0.017": 0.0,
			"-0.016": 0.0,
			"-0.015": 0.0367215117874,
			"-0.014": 0.733343644776,
			"-0.013": 1.10391654295,
			"-0.012": 0.902796633872,
			"-0.011": 5.46997580146,
			"-0.01": 6.23094086807,
			"-0.009": 5.49730811187,
			"-0.008": 5.9117203355,
			"-0.007": 4.90900156351,
			"-0.006": 4.38321446066,
			"-0.005": 6.15962066731,
			"-0.004": 12.2941446316,
			"-0.003": 27.0582730766,
			"-0.002": 34.149190998,
			"-0.001": 30.5459988621,
			"0.0": 25.9831280175,
			"0.001": 25.5473650906,
			"0.002": 20.5807078631,
			"0.003": 14.3612909355,
			"0.004": 9.60647056884,
			"0.005": 5.71183702879,
			"0.006": 4.52754523308,
			"0.007": 4.87033336131,
			"0.008": 5.2151998536,
			"0.009": 5.22284058378,
			"0.01": 5.40712612226,
			"0.011": 4.75259550361,
			"0.012": 5.95129875068,
			"0.013": 4.94486923155,
			"0.014": 0.317654277809,
			"0.015": 0.0,
			"0.016": 0.0,
			"0.017": 0.0,
			"0.018": 0.0,
			"0.019": 0.0,
			"0.02": 0.0,
			"0.021": 0.0,
			"0.022": 0.0,
			"0.023": 0.0,
			"0.024": 0.0,
			"0.0": 0.0
		}
	}
}
