{
	 "smiles": "OCC1OC(C(O)C1O)N1C=NC2=C1N=CN=C2NCC1=CC=CC=C1", 
	 "Tm": 458.15, 
	 "num_atms": 45, 
	 "gaussian": { 
		 "optdone": 1, 
		 "sigma_profile": "yes", 
		 "theory": "DFT", 
		 "functional": "B3LYP", 
		 "basiset": "6-31G**", 
		 "properties": { 
			 "R2extent": 12744.1992, 
			 "electric_dipole_moment_norm": 3.01378450457, 
			 "electric_quadrupole_moment_norm": 12.7459304337, 
			 "total_energy": -1233.9077612, 
			 "HOMO_LUMO_gap": 0.1903, 
			 "cosmo_polarized_energy": -18.69, 
			 "cosmo_cavitation_energy": 47.2, 
			 "cosmo_dispersion_energy": -33.95, 
			 "cosmo_repulsion_energy": 2.55, 
			 "cosmo_total_nonelectrostatic_energy": 15.8, 
			 "SMD_solvation_energy": 4.26 
		},
		"coords": [
			{
				"x": -1.0082420274,
				"y": -5.1582356683,
				"z": -2.6958921881,
				"element": "O" 
			},
			{
				"x": -2.0158009531,
				"y": -4.2166312243,
				"z": -3.0270166917,
				"element": "C" 
			},
			{
				"x": -2.0150749088,
				"y": -3.0495393118,
				"z": -2.049248442,
				"element": "C" 
			},
			{
				"x": -0.6947772604,
				"y": -2.423410926,
				"z": -2.1090493165,
				"element": "O" 
			},
			{
				"x": -0.8290821772,
				"y": -1.0254955064,
				"z": -2.1822833063,
				"element": "C" 
			},
			{
				"x": -2.2860165978,
				"y": -0.6978427235,
				"z": -1.7743026252,
				"element": "C" 
			},
			{
				"x": -2.8021081835,
				"y": 0.4669635909,
				"z": -2.3579165028,
				"element": "O" 
			},
			{
				"x": -3.0198727507,
				"y": -1.9287119094,
				"z": -2.3271656192,
				"element": "C" 
			},
			{
				"x": -3.2176420289,
				"y": -1.7705491298,
				"z": -3.7188115029,
				"element": "O" 
			},
			{
				"x": 0.1665857054,
				"y": -0.4090389673,
				"z": -1.2995615235,
				"element": "N" 
			},
			{
				"x": 1.2603718413,
				"y": -0.9981352263,
				"z": -0.6967080787,
				"element": "C" 
			},
			{
				"x": 2.0189057047,
				"y": -0.1486117157,
				"z": -0.0438070178,
				"element": "N" 
			},
			{
				"x": 1.4040067816,
				"y": 1.0807252302,
				"z": -0.2287618194,
				"element": "C" 
			},
			{
				"x": 0.2488215777,
				"y": 0.9336976189,
				"z": -1.0083867484,
				"element": "C" 
			},
			{
				"x": -0.6093072449,
				"y": 1.9019703743,
				"z": -1.3765482525,
				"element": "N" 
			},
			{
				"x": -0.2332673108,
				"y": 3.0982181161,
				"z": -0.9010735714,
				"element": "C" 
			},
			{
				"x": 0.8324365504,
				"y": 3.390011501,
				"z": -0.1575668589,
				"element": "N" 
			},
			{
				"x": 1.6893396707,
				"y": 2.4019887127,
				"z": 0.2016473537,
				"element": "C" 
			},
			{
				"x": 2.7617665876,
				"y": 2.7857551702,
				"z": 0.9280117053,
				"element": "N" 
			},
			{
				"x": 3.7596750295,
				"y": 1.9220616192,
				"z": 1.5639759611,
				"element": "C" 
			},
			{
				"x": 3.4889381417,
				"y": 1.6808822034,
				"z": 3.0393573712,
				"element": "C" 
			},
			{
				"x": 2.6760773015,
				"y": 0.6142160488,
				"z": 3.4466431044,
				"element": "C" 
			},
			{
				"x": 2.4025530098,
				"y": 0.4116920718,
				"z": 4.7996484605,
				"element": "C" 
			},
			{
				"x": 2.9379755875,
				"y": 1.2715189657,
				"z": 5.7616689658,
				"element": "C" 
			},
			{
				"x": 3.7534882379,
				"y": 2.3326992379,
				"z": 5.3652397909,
				"element": "C" 
			},
			{
				"x": 4.0274691179,
				"y": 2.5328678359,
				"z": 4.0111104624,
				"element": "C" 
			},
			{
				"x": -0.1676306044,
				"y": -4.6829484131,
				"z": -2.7445770912,
				"element": "H" 
			},
			{
				"x": -2.9750582902,
				"y": -4.741113234,
				"z": -2.9672351617,
				"element": "H" 
			},
			{
				"x": -1.9039742623,
				"y": -3.8284689804,
				"z": -4.0464819903,
				"element": "H" 
			},
			{
				"x": -2.1500618429,
				"y": -3.4325918986,
				"z": -1.0291001979,
				"element": "H" 
			},
			{
				"x": -0.6500522089,
				"y": -0.6651886296,
				"z": -3.204545224,
				"element": "H" 
			},
			{
				"x": -2.3473721646,
				"y": -0.6835260761,
				"z": -0.6750697584,
				"element": "H" 
			},
			{
				"x": -2.1859415687,
				"y": 1.1999938301,
				"z": -2.1196605035,
				"element": "H" 
			},
			{
				"x": -3.9717533054,
				"y": -2.1088175727,
				"z": -1.8064839141,
				"element": "H" 
			},
			{
				"x": -3.3861192609,
				"y": -0.8217929474,
				"z": -3.8460727745,
				"element": "H" 
			},
			{
				"x": 1.4265636608,
				"y": -2.0617731439,
				"z": -0.7754683828,
				"element": "H" 
			},
			{
				"x": -0.8811116325,
				"y": 3.9353890407,
				"z": -1.1516722685,
				"element": "H" 
			},
			{
				"x": 2.7303818013,
				"y": 3.7599284082,
				"z": 1.2009965642,
				"element": "H" 
			},
			{
				"x": 4.7364937389,
				"y": 2.4023973062,
				"z": 1.4386780267,
				"element": "H" 
			},
			{
				"x": 3.7761726251,
				"y": 0.9775452764,
				"z": 1.019605111,
				"element": "H" 
			},
			{
				"x": 2.2697368483,
				"y": -0.0583343513,
				"z": 2.6960997937,
				"element": "H" 
			},
			{
				"x": 1.7753498504,
				"y": -0.4214054617,
				"z": 5.1046341798,
				"element": "H" 
			},
			{
				"x": 2.7259195086,
				"y": 1.1113137667,
				"z": 6.8149338109,
				"element": "H" 
			},
			{
				"x": 4.1802720623,
				"y": 3.0000696015,
				"z": 6.1086687159,
				"element": "H" 
			},
			{
				"x": 4.6722656433,
				"y": 3.3551574907,
				"z": 3.7073479549,
				"element": "H" 
			}
		],
		 "valence_orbital": [ 
			{
				"type": "occ",
				"energy": -0.26511,
				"method": "rhf"
			},
			{
				"type": "occ",
				"energy": -0.26005,
				"method": "rhf"
			},
			{
				"type": "occ",
				"energy": -0.25366,
				"method": "rhf"
			},
			{
				"type": "occ",
				"energy": -0.25137,
				"method": "rhf"
			},
			{
				"type": "occ",
				"energy": -0.22243,
				"method": "rhf"
			},
			{
				"type": "unocc",
				"energy": -0.03213,
				"method": "rhf"
			},
			{
				"type": "unocc",
				"energy": -0.00988,
				"method": "rhf"
			},
			{
				"type": "unocc",
				"energy": -0.00582,
				"method": "rhf"
			},
			{
				"type": "unocc",
				"energy": -0.00251,
				"method": "rhf"
			},
			{
				"type": "unocc",
				"energy": 0.02933,
				"method": "rhf"
			}
		],
		"cosmo_sigma_profile": { 
			"-0.025": 0.0,
			"-0.024": 0.0,
			"-0.023": 0.0,
			"-0.022": 0.0,
			"-0.021": 0.0,
			"-0.02": 0.0,
			"-0.019": 0.0,
			"-0.018": 0.0,
			"-0.017": 0.0,
			"-0.016": 0.0,
			"-0.015": 0.0,
			"-0.014": 0.437948229057,
			"-0.013": 1.44114007081,
			"-0.012": 1.79318254177,
			"-0.011": 1.94672624159,
			"-0.01": 1.87260505746,
			"-0.009": 3.07610071654,
			"-0.008": 3.94616721797,
			"-0.007": 10.1160490505,
			"-0.006": 24.5633075952,
			"-0.005": 28.4648623923,
			"-0.004": 24.3651869203,
			"-0.003": 28.2376743091,
			"-0.002": 26.6592307429,
			"-0.001": 29.260416419,
			"0.0": 28.6239993642,
			"0.001": 27.261948773,
			"0.002": 23.0480995893,
			"0.003": 21.4581158708,
			"0.004": 18.3734751922,
			"0.005": 16.0342852221,
			"0.006": 13.7194094627,
			"0.007": 7.49162007818,
			"0.008": 5.54824370448,
			"0.009": 4.70875516191,
			"0.01": 5.18413436136,
			"0.011": 4.61773476988,
			"0.012": 4.43289522783,
			"0.013": 4.10222308959,
			"0.014": 3.28879035864,
			"0.015": 0.311752895345,
			"0.016": 0.0,
			"0.017": 0.0,
			"0.018": 0.0,
			"0.019": 0.0,
			"0.02": 0.0,
			"0.021": 0.0,
			"0.022": 0.0,
			"0.023": 0.0,
			"0.024": 0.0,
			"0.025": 0.0
		}
	}
}
