{
	 "smiles": "CC1=CC=C(C(N)=C1C)[N+]([O-])=O", 
	 "Tm": 393.15, 
	 "num_atms": 22, 
	 "gaussian": { 
		 "optdone": 1, 
		 "sigma_profile": "yes", 
		 "theory": "DFT", 
		 "functional": "B3LYP", 
		 "basiset": "6-31G**", 
		 "properties": { 
			 "R2extent": 3030.3963, 
			 "electric_dipole_moment_norm": 5.45986479869, 
			 "electric_quadrupole_moment_norm": 21.5871273179, 
			 "total_energy": -570.750929092, 
			 "HOMO_LUMO_gap": 0.14106, 
			 "cosmo_polarized_energy": -10.91, 
			 "cosmo_cavitation_energy": 25.0, 
			 "cosmo_dispersion_energy": -18.9, 
			 "cosmo_repulsion_energy": 1.48, 
			 "cosmo_total_nonelectrostatic_energy": 7.59, 
			 "SMD_solvation_energy": 6.19 
		},
		"coords": [
			{
				"x": -0.2353096575,
				"y": 1.8443584601,
				"z": 0.3044515824,
				"element": "C" 
			},
			{
				"x": 0.1352965465,
				"y": 0.3977122641,
				"z": 0.0633762833,
				"element": "C" 
			},
			{
				"x": 0.0520034721,
				"y": -0.1076589565,
				"z": -1.2521949182,
				"element": "C" 
			},
			{
				"x": 0.3779871698,
				"y": -1.4180028927,
				"z": -1.5238750634,
				"element": "C" 
			},
			{
				"x": 0.7969906106,
				"y": -2.2694609912,
				"z": -0.4917746901,
				"element": "C" 
			},
			{
				"x": 0.8975524693,
				"y": -1.7968380999,
				"z": 0.8478998842,
				"element": "C" 
			},
			{
				"x": 1.3244365861,
				"y": -2.5841406519,
				"z": 1.8711347733,
				"element": "N" 
			},
			{
				"x": 0.5547385769,
				"y": -0.4331440329,
				"z": 1.1050302937,
				"element": "C" 
			},
			{
				"x": 0.6726624929,
				"y": 0.0593685447,
				"z": 2.5285429251,
				"element": "C" 
			},
			{
				"x": 1.1038645364,
				"y": -3.6362447441,
				"z": -0.8566240034,
				"element": "N" 
			},
			{
				"x": 1.4672669618,
				"y": -4.4380704242,
				"z": 0.0279631203,
				"element": "O" 
			},
			{
				"x": 0.9931761835,
				"y": -3.968595725,
				"z": -2.0382626257,
				"element": "O" 
			},
			{
				"x": -1.063564476,
				"y": 1.9399443767,
				"z": 1.0154665412,
				"element": "H" 
			},
			{
				"x": 0.6060594599,
				"y": 2.4183166457,
				"z": 0.7089777631,
				"element": "H" 
			},
			{
				"x": -0.5433024181,
				"y": 2.323500406,
				"z": -0.6277616351,
				"element": "H" 
			},
			{
				"x": -0.2726435313,
				"y": 0.5454300403,
				"z": -2.0556934678,
				"element": "H" 
			},
			{
				"x": 0.318569052,
				"y": -1.8243651987,
				"z": -2.5250142212,
				"element": "H" 
			},
			{
				"x": 1.4828767609,
				"y": -3.5615436176,
				"z": 1.6677485045,
				"element": "H" 
			},
			{
				"x": 1.2446910643,
				"y": -2.2616046934,
				"z": 2.818996204,
				"element": "H" 
			},
			{
				"x": 1.6924555816,
				"y": -0.0711942214,
				"z": 2.9142313976,
				"element": "H" 
			},
			{
				"x": 0.4265535417,
				"y": 1.1166462381,
				"z": 2.6189248888,
				"element": "H" 
			},
			{
				"x": -0.0021609834,
				"y": -0.484712726,
				"z": 3.2045564636,
				"element": "H" 
			}
		],
		 "valence_orbital": [ 
			{
				"type": "occ",
				"energy": -0.29713,
				"method": "rhf"
			},
			{
				"type": "occ",
				"energy": -0.29555,
				"method": "rhf"
			},
			{
				"type": "occ",
				"energy": -0.27768,
				"method": "rhf"
			},
			{
				"type": "occ",
				"energy": -0.25654,
				"method": "rhf"
			},
			{
				"type": "occ",
				"energy": -0.21606,
				"method": "rhf"
			},
			{
				"type": "unocc",
				"energy": -0.075,
				"method": "rhf"
			},
			{
				"type": "unocc",
				"energy": -0.00067,
				"method": "rhf"
			},
			{
				"type": "unocc",
				"energy": 0.0174,
				"method": "rhf"
			},
			{
				"type": "unocc",
				"energy": 0.07062,
				"method": "rhf"
			},
			{
				"type": "unocc",
				"energy": 0.09588,
				"method": "rhf"
			}
		],
		"cosmo_sigma_profile": { 
			"-0.025": 0.0,
			"-0.024": 0.0,
			"-0.023": 0.0,
			"-0.022": 0.0,
			"-0.021": 0.0,
			"-0.02": 0.0,
			"-0.019": 0.0,
			"-0.018": 0.0,
			"-0.017": 0.0,
			"-0.016": 0.0,
			"-0.015": 0.0,
			"-0.014": 0.232061266771,
			"-0.013": 1.18162739932,
			"-0.012": 0.418878030446,
			"-0.011": 1.11736696854,
			"-0.01": 1.8198929208,
			"-0.009": 2.32870445804,
			"-0.008": 2.71654025514,
			"-0.007": 2.01111253417,
			"-0.006": 5.10614597643,
			"-0.005": 11.4800029893,
			"-0.004": 18.5914536852,
			"-0.003": 16.5443762921,
			"-0.002": 16.5554219887,
			"-0.001": 19.4663188446,
			"0.0": 19.8517109016,
			"0.001": 13.1061733398,
			"0.002": 13.4362492602,
			"0.003": 10.3697224787,
			"0.004": 9.32116516796,
			"0.005": 4.60961818204,
			"0.006": 3.96576828585,
			"0.007": 3.87520386257,
			"0.008": 5.27624228358,
			"0.009": 6.11229211728,
			"0.01": 4.15604836352,
			"0.011": 3.72817674682,
			"0.012": 0.832383039488,
			"0.013": 0.0,
			"0.014": 0.0,
			"0.015": 0.0,
			"0.016": 0.0,
			"0.017": 0.0,
			"0.018": 0.0,
			"0.019": 0.0,
			"0.02": 0.0,
			"0.021": 0.0,
			"0.022": 0.0,
			"0.023": 0.0,
			"0.024": 0.0,
			"0.025": 0.0
		}
	}
}
