{
	 "smiles": "CN(C1=C(N)C=CC=C1)S(C)(=O)=O", 
	 "Tm": 412.15, 
	 "num_atms": 25, 
	 "gaussian": { 
		 "optdone": 1, 
		 "sigma_profile": "yes", 
		 "theory": "DFT", 
		 "functional": "B3LYP", 
		 "basiset": "6-31G**", 
		 "properties": { 
			 "R2extent": 3326.3679, 
			 "electric_dipole_moment_norm": 4.9005260136, 
			 "electric_quadrupole_moment_norm": 13.0030763172, 
			 "total_energy": -970.154935477, 
			 "HOMO_LUMO_gap": 0.19762, 
			 "cosmo_polarized_energy": -15.86, 
			 "cosmo_cavitation_energy": 28.86, 
			 "cosmo_dispersion_energy": -20.85, 
			 "cosmo_repulsion_energy": 1.6, 
			 "cosmo_total_nonelectrostatic_energy": 9.61, 
			 "SMD_solvation_energy": 4.95 
		},
		"coords": [
			{
				"x": 1.0314601059,
				"y": 0.181991965,
				"z": 0.9704080443,
				"element": "C" 
			},
			{
				"x": -0.2039538897,
				"y": -0.6230052837,
				"z": 0.8593973325,
				"element": "N" 
			},
			{
				"x": -0.6855646022,
				"y": -0.8401700151,
				"z": -0.486228032,
				"element": "C" 
			},
			{
				"x": -1.9096844101,
				"y": -0.2217897269,
				"z": -0.8334540664,
				"element": "C" 
			},
			{
				"x": -2.6405939516,
				"y": 0.4674028206,
				"z": 0.1264603522,
				"element": "N" 
			},
			{
				"x": -2.3825858301,
				"y": -0.3704117751,
				"z": -2.1494863348,
				"element": "C" 
			},
			{
				"x": -1.6649798447,
				"y": -1.113914312,
				"z": -3.0812736341,
				"element": "C" 
			},
			{
				"x": -0.4606434693,
				"y": -1.7315703297,
				"z": -2.7307817265,
				"element": "C" 
			},
			{
				"x": 0.0231679989,
				"y": -1.5881725708,
				"z": -1.4318620546,
				"element": "C" 
			},
			{
				"x": -0.1773524028,
				"y": -2.0088676588,
				"z": 1.8825547208,
				"element": "S" 
			},
			{
				"x": -1.9130659947,
				"y": -2.4835017603,
				"z": 1.8691181068,
				"element": "C" 
			},
			{
				"x": 0.1800627676,
				"y": -1.5121393002,
				"z": 3.2158397673,
				"element": "O" 
			},
			{
				"x": 0.6000747143,
				"y": -3.1079617473,
				"z": 1.2923659371,
				"element": "O" 
			},
			{
				"x": 1.8943790872,
				"y": -0.2949572538,
				"z": 0.48975718,
				"element": "H" 
			},
			{
				"x": 1.2505192047,
				"y": 0.3479260223,
				"z": 2.0259149646,
				"element": "H" 
			},
			{
				"x": 0.8443341198,
				"y": 1.1423499051,
				"z": 0.4845256127,
				"element": "H" 
			},
			{
				"x": -3.2625497005,
				"y": 1.1823279987,
				"z": -0.2226593361,
				"element": "H" 
			},
			{
				"x": -2.0954150935,
				"y": 0.7505960563,
				"z": 0.9302368103,
				"element": "H" 
			},
			{
				"x": -3.3222205065,
				"y": 0.0986608777,
				"z": -2.4302767816,
				"element": "H" 
			},
			{
				"x": -2.0522457654,
				"y": -1.2132456986,
				"z": -4.0915170445,
				"element": "H" 
			},
			{
				"x": 0.0916979802,
				"y": -2.3176259747,
				"z": -3.457960794,
				"element": "H" 
			},
			{
				"x": 0.9470802611,
				"y": -2.0694060673,
				"z": -1.1288480922,
				"element": "H" 
			},
			{
				"x": -1.9912550348,
				"y": -3.3242427064,
				"z": 2.560412153,
				"element": "H" 
			},
			{
				"x": -2.5182445397,
				"y": -1.6421167421,
				"z": 2.2033796471,
				"element": "H" 
			},
			{
				"x": -2.1931212042,
				"y": -2.7915567229,
				"z": 0.862377268,
				"element": "H" 
			}
		],
		 "valence_orbital": [ 
			{
				"type": "occ",
				"energy": -0.30562,
				"method": "rhf"
			},
			{
				"type": "occ",
				"energy": -0.29595,
				"method": "rhf"
			},
			{
				"type": "occ",
				"energy": -0.25609,
				"method": "rhf"
			},
			{
				"type": "occ",
				"energy": -0.25368,
				"method": "rhf"
			},
			{
				"type": "occ",
				"energy": -0.21311,
				"method": "rhf"
			},
			{
				"type": "unocc",
				"energy": -0.01549,
				"method": "rhf"
			},
			{
				"type": "unocc",
				"energy": 0.00621,
				"method": "rhf"
			},
			{
				"type": "unocc",
				"energy": 0.06438,
				"method": "rhf"
			},
			{
				"type": "unocc",
				"energy": 0.0659,
				"method": "rhf"
			},
			{
				"type": "unocc",
				"energy": 0.08648,
				"method": "rhf"
			}
		],
		"cosmo_sigma_profile": { 
			"-0.025": 0.0,
			"-0.024": 0.0,
			"-0.023": 0.0,
			"-0.022": 0.0,
			"-0.021": 0.0,
			"-0.02": 0.0,
			"-0.019": 0.0,
			"-0.018": 0.0,
			"-0.017": 0.0,
			"-0.016": 0.0,
			"-0.015": 0.0,
			"-0.014": 0.0,
			"-0.013": 0.693129510559,
			"-0.012": 1.43985415567,
			"-0.011": 1.20701760835,
			"-0.01": 2.35260966899,
			"-0.009": 4.21465735607,
			"-0.008": 5.80429705191,
			"-0.007": 7.04695085227,
			"-0.006": 10.7576865297,
			"-0.005": 19.8871491161,
			"-0.004": 23.0422425333,
			"-0.003": 20.7573270993,
			"-0.002": 17.5043648893,
			"-0.001": 10.6272413623,
			"0.0": 9.47144607511,
			"0.001": 8.88316153335,
			"0.002": 9.13572986104,
			"0.003": 9.81867226584,
			"0.004": 10.3261717891,
			"0.005": 11.0567404793,
			"0.006": 8.96064899095,
			"0.007": 4.2189149977,
			"0.008": 3.48348212855,
			"0.009": 3.97010313901,
			"0.01": 5.89527978369,
			"0.011": 10.1344564089,
			"0.012": 6.93688157026,
			"0.013": 0.456415037494,
			"0.014": 0.0,
			"0.015": 0.0,
			"0.016": 0.0,
			"0.017": 0.0,
			"0.018": 0.0,
			"0.019": 0.0,
			"0.02": 0.0,
			"0.021": 0.0,
			"0.022": 0.0,
			"0.023": 0.0,
			"0.024": 0.0,
			"0.025": 0.0
		}
	}
}
