{
	 "smiles": "CN1C(N)=NC2=C1C=CC=C2", 
	 "Tm": 477.15, 
	 "num_atms": 20, 
	 "gaussian": { 
		 "optdone": 1, 
		 "sigma_profile": "yes", 
		 "theory": "DFT", 
		 "functional": "B3LYP", 
		 "basiset": "6-31G**", 
		 "properties": { 
			 "R2extent": 2317.5535, 
			 "electric_dipole_moment_norm": 3.97886738407, 
			 "electric_quadrupole_moment_norm": 12.6553277536, 
			 "total_energy": -474.546153957, 
			 "HOMO_LUMO_gap": 0.20253, 
			 "cosmo_polarized_energy": -14.1, 
			 "cosmo_cavitation_energy": 23.4, 
			 "cosmo_dispersion_energy": -17.62, 
			 "cosmo_repulsion_energy": 1.4, 
			 "cosmo_total_nonelectrostatic_energy": 7.19, 
			 "SMD_solvation_energy": 1.99 
		},
		"coords": [
			{
				"x": -0.6495723028,
				"y": -2.8969430651,
				"z": -1.2270744255,
				"element": "C" 
			},
			{
				"x": -0.2057091592,
				"y": -1.5607102274,
				"z": -1.5659724195,
				"element": "N" 
			},
			{
				"x": -0.5039779786,
				"y": -0.8465251696,
				"z": -2.7120839484,
				"element": "C" 
			},
			{
				"x": -1.3354072784,
				"y": -1.3837420444,
				"z": -3.6859489485,
				"element": "N" 
			},
			{
				"x": 0.1156107564,
				"y": 0.3058276809,
				"z": -2.8060890647,
				"element": "N" 
			},
			{
				"x": 0.8875063702,
				"y": 0.3803102388,
				"z": -1.6525872904,
				"element": "C" 
			},
			{
				"x": 0.6917223265,
				"y": -0.7706788549,
				"z": -0.8508544456,
				"element": "C" 
			},
			{
				"x": 1.3286580921,
				"y": -0.953143782,
				"z": 0.3740165518,
				"element": "C" 
			},
			{
				"x": 2.1957236851,
				"y": 0.0601773519,
				"z": 0.7904881235,
				"element": "C" 
			},
			{
				"x": 2.4041634595,
				"y": 1.209108404,
				"z": 0.0080687782,
				"element": "C" 
			},
			{
				"x": 1.756921557,
				"y": 1.3837330125,
				"z": -1.2154827462,
				"element": "C" 
			},
			{
				"x": -0.949535378,
				"y": -3.4156203104,
				"z": -2.1403905133,
				"element": "H" 
			},
			{
				"x": 0.1756647945,
				"y": -3.4528570276,
				"z": -0.7730976015,
				"element": "H" 
			},
			{
				"x": -1.4915371321,
				"y": -2.8879336735,
				"z": -0.5238134353,
				"element": "H" 
			},
			{
				"x": -2.2310280543,
				"y": -1.7125109426,
				"z": -3.3431755675,
				"element": "H" 
			},
			{
				"x": -1.4596631173,
				"y": -0.7156931953,
				"z": -4.4373187702,
				"element": "H" 
			},
			{
				"x": 1.1637771825,
				"y": -1.8367683255,
				"z": 0.9836600697,
				"element": "H" 
			},
			{
				"x": 2.7155851695,
				"y": -0.042465361,
				"z": 1.7384460679,
				"element": "H" 
			},
			{
				"x": 3.0837610406,
				"y": 1.9769227612,
				"z": 0.3665065225,
				"element": "H" 
			},
			{
				"x": 1.9157359668,
				"y": 2.2703125298,
				"z": -1.8210969369,
				"element": "H" 
			}
		],
		 "valence_orbital": [ 
			{
				"type": "occ",
				"energy": -0.29534,
				"method": "rhf"
			},
			{
				"type": "occ",
				"energy": -0.28116,
				"method": "rhf"
			},
			{
				"type": "occ",
				"energy": -0.26304,
				"method": "rhf"
			},
			{
				"type": "occ",
				"energy": -0.2138,
				"method": "rhf"
			},
			{
				"type": "occ",
				"energy": -0.19897,
				"method": "rhf"
			},
			{
				"type": "unocc",
				"energy": 0.00356,
				"method": "rhf"
			},
			{
				"type": "unocc",
				"energy": 0.0306,
				"method": "rhf"
			},
			{
				"type": "unocc",
				"energy": 0.06324,
				"method": "rhf"
			},
			{
				"type": "unocc",
				"energy": 0.07661,
				"method": "rhf"
			},
			{
				"type": "unocc",
				"energy": 0.10135,
				"method": "rhf"
			}
		],
		"cosmo_sigma_profile": { 
			"-0.025": 0.0,
			"-0.024": 0.0,
			"-0.023": 0.0,
			"-0.022": 0.0,
			"-0.021": 0.0,
			"-0.02": 0.0,
			"-0.019": 0.0,
			"-0.018": 0.0,
			"-0.017": 0.0,
			"-0.016": 0.0,
			"-0.015": 0.0,
			"-0.014": 0.486902619995,
			"-0.013": 2.34880637366,
			"-0.012": 2.70153635718,
			"-0.011": 2.27357633064,
			"-0.01": 3.02056753414,
			"-0.009": 3.02536409504,
			"-0.008": 1.88428225968,
			"-0.007": 2.02334624303,
			"-0.006": 9.87165771513,
			"-0.005": 15.1133154908,
			"-0.004": 16.043375472,
			"-0.003": 16.9086106852,
			"-0.002": 12.2087592865,
			"-0.001": 8.88666481645,
			"0.0": 7.92617162702,
			"0.001": 7.52108761829,
			"0.002": 9.1984998895,
			"0.003": 8.0074478926,
			"0.004": 10.0869747495,
			"0.005": 10.7543034997,
			"0.006": 10.9068138345,
			"0.007": 8.72640043618,
			"0.008": 3.4630709609,
			"0.009": 1.40181323014,
			"0.01": 2.03632715231,
			"0.011": 1.73823051067,
			"0.012": 1.87110470164,
			"0.013": 1.39813776717,
			"0.014": 0.662251492824,
			"0.015": 1.33493675398,
			"0.016": 1.1437923597,
			"0.017": 0.660869040804,
			"0.018": 0.655581724408,
			"0.019": 0.0131986356359,
			"0.02": 0.0,
			"0.021": 0.0,
			"0.022": 0.0,
			"0.023": 0.0,
			"0.024": 0.0,
			"0.025": 0.0
		}
	}
}
