{
	 "smiles": "O=C(CN1C=CC=N1)NC1CCCCC1", 
	 "Tm": 390.15, 
	 "num_atms": 32, 
	 "gaussian": { 
		 "optdone": 1, 
		 "sigma_profile": "yes", 
		 "theory": "DFT", 
		 "functional": "B3LYP", 
		 "basiset": "6-31G**", 
		 "properties": { 
			 "R2extent": 3968.2073, 
			 "electric_dipole_moment_norm": 2.26549425292, 
			 "electric_quadrupole_moment_norm": 9.12217174087, 
			 "total_energy": -668.897459362, 
			 "HOMO_LUMO_gap": 0.24342, 
			 "cosmo_polarized_energy": -12.25, 
			 "cosmo_cavitation_energy": 33.34, 
			 "cosmo_dispersion_energy": -23.33, 
			 "cosmo_repulsion_energy": 1.84, 
			 "cosmo_total_nonelectrostatic_energy": 11.85, 
			 "SMD_solvation_energy": 4.93 
		},
		"coords": [
			{
				"x": -2.3690549512,
				"y": -1.0082155627,
				"z": -1.0909469089,
				"element": "O" 
			},
			{
				"x": -1.4260376278,
				"y": -0.9977456881,
				"z": -0.3059409344,
				"element": "C" 
			},
			{
				"x": -0.9869845325,
				"y": -2.3089231413,
				"z": 0.3714994042,
				"element": "C" 
			},
			{
				"x": 0.0897479751,
				"y": -2.9558412878,
				"z": -0.3631477502,
				"element": "N" 
			},
			{
				"x": 0.0201986416,
				"y": -3.5338830695,
				"z": -1.5924954656,
				"element": "C" 
			},
			{
				"x": 1.2995842567,
				"y": -3.9517642671,
				"z": -1.907132042,
				"element": "C" 
			},
			{
				"x": 2.0797594784,
				"y": -3.5682226443,
				"z": -0.7948976231,
				"element": "C" 
			},
			{
				"x": 1.3473982455,
				"y": -2.9616381972,
				"z": 0.1404456693,
				"element": "N" 
			},
			{
				"x": -0.7202494052,
				"y": 0.1328981542,
				"z": -0.0290611412,
				"element": "N" 
			},
			{
				"x": 0.4348799956,
				"y": 0.3159618284,
				"z": 0.8626728762,
				"element": "C" 
			},
			{
				"x": 0.0070021129,
				"y": 0.76144504,
				"z": 2.2788075317,
				"element": "C" 
			},
			{
				"x": -0.5549532697,
				"y": 2.1912453412,
				"z": 2.2997156859,
				"element": "C" 
			},
			{
				"x": 0.4425651097,
				"y": 3.1935698652,
				"z": 1.697616721,
				"element": "C" 
			},
			{
				"x": 0.8636301243,
				"y": 2.7806875812,
				"z": 0.2783996983,
				"element": "C" 
			},
			{
				"x": 1.4084737434,
				"y": 1.3422758769,
				"z": 0.2477959216,
				"element": "C" 
			},
			{
				"x": -1.8657973948,
				"y": -2.9567847014,
				"z": 0.3747336599,
				"element": "H" 
			},
			{
				"x": -0.6341407063,
				"y": -2.176298709,
				"z": 1.3945328957,
				"element": "H" 
			},
			{
				"x": -0.9149795756,
				"y": -3.5882966652,
				"z": -2.130224927,
				"element": "H" 
			},
			{
				"x": 1.618315638,
				"y": -4.4629737062,
				"z": -2.8030500203,
				"element": "H" 
			},
			{
				"x": 3.1391100369,
				"y": -3.7144148608,
				"z": -0.6307247421,
				"element": "H" 
			},
			{
				"x": -1.0715422229,
				"y": 0.9406676658,
				"z": -0.5280090565,
				"element": "H" 
			},
			{
				"x": 0.9537712108,
				"y": -0.6438087541,
				"z": 0.923146808,
				"element": "H" 
			},
			{
				"x": 0.8882787789,
				"y": 0.7061676994,
				"z": 2.932421011,
				"element": "H" 
			},
			{
				"x": -0.7285462841,
				"y": 0.0546348882,
				"z": 2.6810320746,
				"element": "H" 
			},
			{
				"x": -1.4941349669,
				"y": 2.2216617264,
				"z": 1.7303252214,
				"element": "H" 
			},
			{
				"x": -0.8096068975,
				"y": 2.4768452683,
				"z": 3.3267317962,
				"element": "H" 
			},
			{
				"x": 0.0118262314,
				"y": 4.2016183765,
				"z": 1.6879419936,
				"element": "H" 
			},
			{
				"x": 1.335634487,
				"y": 3.2411904872,
				"z": 2.3369937555,
				"element": "H" 
			},
			{
				"x": 1.6222612193,
				"y": 3.4685948429,
				"z": -0.1122675192,
				"element": "H" 
			},
			{
				"x": 0.0015102647,
				"y": 2.8761886252,
				"z": -0.3983335953,
				"element": "H" 
			},
			{
				"x": 1.6591908852,
				"y": 1.0390009326,
				"z": -0.7746028336,
				"element": "H" 
			},
			{
				"x": 2.3393893993,
				"y": 1.3033570551,
				"z": 0.827621835,
				"element": "H" 
			}
		],
		 "valence_orbital": [ 
			{
				"type": "occ",
				"energy": -0.28872,
				"method": "rhf"
			},
			{
				"type": "occ",
				"energy": -0.26328,
				"method": "rhf"
			},
			{
				"type": "occ",
				"energy": -0.24796,
				"method": "rhf"
			},
			{
				"type": "occ",
				"energy": -0.2459,
				"method": "rhf"
			},
			{
				"type": "occ",
				"energy": -0.23606,
				"method": "rhf"
			},
			{
				"type": "unocc",
				"energy": 0.00736,
				"method": "rhf"
			},
			{
				"type": "unocc",
				"energy": 0.02625,
				"method": "rhf"
			},
			{
				"type": "unocc",
				"energy": 0.06705,
				"method": "rhf"
			},
			{
				"type": "unocc",
				"energy": 0.07106,
				"method": "rhf"
			},
			{
				"type": "unocc",
				"energy": 0.08642,
				"method": "rhf"
			}
		],
		"cosmo_sigma_profile": { 
			"-0.025": 0.0,
			"-0.024": 0.0,
			"-0.023": 0.0,
			"-0.022": 0.0,
			"-0.021": 0.0,
			"-0.02": 0.0,
			"-0.019": 0.0,
			"-0.018": 0.0,
			"-0.017": 0.0,
			"-0.016": 0.0,
			"-0.015": 0.0,
			"-0.014": 0.0,
			"-0.013": 0.0,
			"-0.012": 0.27592477754,
			"-0.011": 1.20137508965,
			"-0.01": 0.909717599789,
			"-0.009": 1.25553497985,
			"-0.008": 3.3530671944,
			"-0.007": 8.84344430948,
			"-0.006": 11.9641940329,
			"-0.005": 10.8488101644,
			"-0.004": 12.7329368802,
			"-0.003": 23.7221303963,
			"-0.002": 30.8626432106,
			"-0.001": 31.8641460127,
			"0.0": 33.0840089102,
			"0.001": 24.1770541377,
			"0.002": 10.1386869152,
			"0.003": 7.44788648678,
			"0.004": 7.95224489244,
			"0.005": 9.07750629205,
			"0.006": 5.77071095598,
			"0.007": 2.38299667001,
			"0.008": 2.51773650574,
			"0.009": 1.99379304588,
			"0.01": 2.74541616161,
			"0.011": 2.39251483185,
			"0.012": 2.56490661016,
			"0.013": 3.85569391374,
			"0.014": 6.00742154319,
			"0.015": 0.98451218462,
			"0.016": 0.0,
			"0.017": 0.0,
			"0.018": 0.0,
			"0.019": 0.0,
			"0.02": 0.0,
			"0.021": 0.0,
			"0.022": 0.0,
			"0.023": 0.0,
			"0.024": 0.0,
			"0.025": 0.0
		}
	}
}
