{
	 "smiles": "BrC1=CC=C(C=C1)C1=CC=C(O1)C=C1C(=O)NC(=O)NC1=O", 
	 "Tm": 528.15, 
	 "num_atms": 31, 
	 "gaussian": { 
		 "optdone": 1, 
		 "sigma_profile": "yes", 
		 "theory": "DFT", 
		 "functional": "B3LYP", 
		 "basiset": "6-31G**", 
		 "properties": { 
			 "R2extent": 14391.8281, 
			 "electric_dipole_moment_norm": 4.69499414483, 
			 "electric_quadrupole_moment_norm": 16.7257857427, 
			 "total_energy": -3558.85842236, 
			 "HOMO_LUMO_gap": 0.11882, 
			 "cosmo_polarized_energy": -19.64, 
			 "cosmo_cavitation_energy": 40.12, 
			 "cosmo_dispersion_energy": -29.53, 
			 "cosmo_repulsion_energy": 2.2, 
			 "cosmo_total_nonelectrostatic_energy": 12.8, 
			 "SMD_solvation_energy": 8.02 
		},
		"coords": [
			{
				"x": -2.2995538328,
				"y": 0.1654484567,
				"z": 6.6033892962,
				"element": "Br" 
			},
			{
				"x": -1.0036092107,
				"y": 0.1328935072,
				"z": 5.2050331055,
				"element": "C" 
			},
			{
				"x": -1.4175659134,
				"y": 0.2721585688,
				"z": 3.8796544115,
				"element": "C" 
			},
			{
				"x": -0.4711375941,
				"y": 0.2481296781,
				"z": 2.8602947213,
				"element": "C" 
			},
			{
				"x": 0.8948883243,
				"y": 0.0846442,
				"z": 3.1609372344,
				"element": "C" 
			},
			{
				"x": 1.2879778699,
				"y": -0.0537164574,
				"z": 4.5040547869,
				"element": "C" 
			},
			{
				"x": 0.3453067886,
				"y": -0.0302532069,
				"z": 5.5257520072,
				"element": "C" 
			},
			{
				"x": 1.8774120473,
				"y": 0.0605007466,
				"z": 2.0907794246,
				"element": "C" 
			},
			{
				"x": 3.2577376852,
				"y": -0.0800536264,
				"z": 2.0582795177,
				"element": "C" 
			},
			{
				"x": 3.6268398135,
				"y": -0.0201457891,
				"z": 0.7035062171,
				"element": "C" 
			},
			{
				"x": 2.4598586518,
				"y": 0.1542613851,
				"z": -0.0357273781,
				"element": "C" 
			},
			{
				"x": 1.4034492366,
				"y": 0.2007443552,
				"z": 0.833012987,
				"element": "O" 
			},
			{
				"x": 2.3395608117,
				"y": 0.2685264447,
				"z": -1.4393482381,
				"element": "C" 
			},
			{
				"x": 1.308294474,
				"y": 0.4399334388,
				"z": -2.3301519618,
				"element": "C" 
			},
			{
				"x": 1.7401919117,
				"y": 0.4988107989,
				"z": -3.7540783161,
				"element": "C" 
			},
			{
				"x": 2.9010414528,
				"y": 0.4060952165,
				"z": -4.1300373505,
				"element": "O" 
			},
			{
				"x": 0.7234386892,
				"y": 0.6720328009,
				"z": -4.6893209006,
				"element": "N" 
			},
			{
				"x": -0.6371603645,
				"y": 0.7951235249,
				"z": -4.4472401075,
				"element": "C" 
			},
			{
				"x": -1.4584278095,
				"y": 0.9444705962,
				"z": -5.3315593504,
				"element": "O" 
			},
			{
				"x": -0.9702389004,
				"y": 0.7317615259,
				"z": -3.1035825829,
				"element": "N" 
			},
			{
				"x": -0.1252416727,
				"y": 0.5639029163,
				"z": -1.99782792,
				"element": "C" 
			},
			{
				"x": -0.6190372134,
				"y": 0.533586854,
				"z": -0.8808843408,
				"element": "O" 
			},
			{
				"x": -2.4689028681,
				"y": 0.3979720886,
				"z": 3.6480253828,
				"element": "H" 
			},
			{
				"x": -0.7802611257,
				"y": 0.3553551182,
				"z": 1.8254684646,
				"element": "H" 
			},
			{
				"x": 2.3361798275,
				"y": -0.1807500522,
				"z": 4.7562406887,
				"element": "H" 
			},
			{
				"x": 0.650741553,
				"y": -0.1371291759,
				"z": 6.5601025789,
				"element": "H" 
			},
			{
				"x": 3.9115185726,
				"y": -0.2092901305,
				"z": 2.9078405934,
				"element": "H" 
			},
			{
				"x": 4.6231333289,
				"y": -0.0933110624,
				"z": 0.2900325815,
				"element": "H" 
			},
			{
				"x": 3.3069891971,
				"y": 0.2044795295,
				"z": -1.9359202599,
				"element": "H" 
			},
			{
				"x": 1.0061099503,
				"y": 0.7134191013,
				"z": -5.6603648037,
				"element": "H" 
			},
			{
				"x": -1.956633681,
				"y": 0.818398648,
				"z": -2.8932604887,
				"element": "H" 
			}
		],
		 "valence_orbital": [ 
			{
				"type": "occ",
				"energy": -0.28773,
				"method": "rhf"
			},
			{
				"type": "occ",
				"energy": -0.27799,
				"method": "rhf"
			},
			{
				"type": "occ",
				"energy": -0.27001,
				"method": "rhf"
			},
			{
				"type": "occ",
				"energy": -0.25777,
				"method": "rhf"
			},
			{
				"type": "occ",
				"energy": -0.22397,
				"method": "rhf"
			},
			{
				"type": "unocc",
				"energy": -0.10515,
				"method": "rhf"
			},
			{
				"type": "unocc",
				"energy": -0.04443,
				"method": "rhf"
			},
			{
				"type": "unocc",
				"energy": -0.02669,
				"method": "rhf"
			},
			{
				"type": "unocc",
				"energy": -0.00189,
				"method": "rhf"
			},
			{
				"type": "unocc",
				"energy": 0.00266,
				"method": "rhf"
			}
		],
		"cosmo_sigma_profile": { 
			"-0.025": 0.0,
			"-0.024": 0.0,
			"-0.023": 0.0,
			"-0.022": 0.0,
			"-0.021": 0.0,
			"-0.02": 0.0,
			"-0.019": 0.0,
			"-0.018": 0.0,
			"-0.017": 0.0406219833625,
			"-0.016": 1.27852677671,
			"-0.015": 1.81421712991,
			"-0.014": 1.35785395006,
			"-0.013": 1.16317256892,
			"-0.012": 1.96345352493,
			"-0.011": 1.75995759539,
			"-0.01": 2.1804749296,
			"-0.009": 6.79566417714,
			"-0.008": 9.06159896554,
			"-0.007": 13.9825892628,
			"-0.006": 12.0967515484,
			"-0.005": 13.9741686672,
			"-0.004": 14.8061034309,
			"-0.003": 17.3505565173,
			"-0.002": 22.0271627296,
			"-0.001": 27.1707152003,
			"0.0": 34.021517148,
			"0.001": 28.3023230435,
			"0.002": 29.7270643842,
			"0.003": 17.3697953408,
			"0.004": 14.9618923299,
			"0.005": 6.81265921117,
			"0.006": 4.70340067775,
			"0.007": 4.04063120101,
			"0.008": 4.69685895599,
			"0.009": 5.78184812052,
			"0.01": 7.07159033202,
			"0.011": 7.20877760841,
			"0.012": 11.7884537508,
			"0.013": 2.10702831471,
			"0.014": 0.0,
			"0.015": 0.0,
			"0.016": 0.0,
			"0.017": 0.0,
			"0.018": 0.0,
			"0.019": 0.0,
			"0.02": 0.0,
			"0.021": 0.0,
			"0.022": 0.0,
			"0.023": 0.0,
			"0.024": 0.0,
			"0.025": 0.0
		}
	}
}
