{
	 "smiles": "CC1=CC=C(C=C1)C1C2=C(NN=C2C(F)(F)F)OC(N)=C1C#N", 
	 "Tm": 458.15, 
	 "num_atms": 34, 
	 "gaussian": { 
		 "optdone": 1, 
		 "sigma_profile": "yes", 
		 "theory": "DFT", 
		 "functional": "B3LYP", 
		 "basiset": "6-31G**", 
		 "properties": { 
			 "R2extent": 6873.3173, 
			 "electric_dipole_moment_norm": 5.32628702663, 
			 "electric_quadrupole_moment_norm": 32.917626763, 
			 "total_energy": -1171.92919459, 
			 "HOMO_LUMO_gap": 0.19834, 
			 "cosmo_polarized_energy": -22.59, 
			 "cosmo_cavitation_energy": 40.69, 
			 "cosmo_dispersion_energy": -27.04, 
			 "cosmo_repulsion_energy": 2.04, 
			 "cosmo_total_nonelectrostatic_energy": 15.69, 
			 "SMD_solvation_energy": 8.54 
		},
		"coords": [
			{
				"x": -2.4612624697,
				"y": -3.6538836919,
				"z": -1.8159078019,
				"element": "C" 
			},
			{
				"x": -1.7746823633,
				"y": -2.3802624093,
				"z": -1.382500658,
				"element": "C" 
			},
			{
				"x": -0.8621612557,
				"y": -1.727133505,
				"z": -2.2171781672,
				"element": "C" 
			},
			{
				"x": -0.2498064031,
				"y": -0.5357968812,
				"z": -1.8237555473,
				"element": "C" 
			},
			{
				"x": -0.5328806232,
				"y": 0.0355664261,
				"z": -0.5816471546,
				"element": "C" 
			},
			{
				"x": -1.4433474594,
				"y": -0.6153457665,
				"z": 0.2603003771,
				"element": "C" 
			},
			{
				"x": -2.0517220729,
				"y": -1.8031631113,
				"z": -0.1337172052,
				"element": "C" 
			},
			{
				"x": 0.1504612227,
				"y": 1.3374725676,
				"z": -0.154825796,
				"element": "C" 
			},
			{
				"x": 1.0416614976,
				"y": 1.1719204272,
				"z": 1.0468619859,
				"element": "C" 
			},
			{
				"x": 0.8333009077,
				"y": 1.8722814451,
				"z": 2.2065023143,
				"element": "C" 
			},
			{
				"x": 1.7782151302,
				"y": 1.5218827502,
				"z": 3.1087985241,
				"element": "N" 
			},
			{
				"x": 2.6324760137,
				"y": 0.6049778194,
				"z": 2.5958693673,
				"element": "N" 
			},
			{
				"x": 2.1895915602,
				"y": 0.3973344472,
				"z": 1.3581842673,
				"element": "C" 
			},
			{
				"x": 2.8745070174,
				"y": -0.5982727575,
				"z": 0.4728220015,
				"element": "C" 
			},
			{
				"x": 2.2295942493,
				"y": -1.783454261,
				"z": 0.4593586629,
				"element": "F" 
			},
			{
				"x": 2.8960623061,
				"y": -0.1465258635,
				"z": -0.8063074853,
				"element": "F" 
			},
			{
				"x": 4.1406600201,
				"y": -0.8261179958,
				"z": 0.8535092862,
				"element": "F" 
			},
			{
				"x": -0.1185938947,
				"y": 2.8033133157,
				"z": 2.4720594469,
				"element": "O" 
			},
			{
				"x": -0.9409617147,
				"y": 3.0810080938,
				"z": 1.4022329666,
				"element": "C" 
			},
			{
				"x": -1.7839664537,
				"y": 4.1065681929,
				"z": 1.7217182005,
				"element": "N" 
			},
			{
				"x": -0.8602776621,
				"y": 2.4394840181,
				"z": 0.1967676494,
				"element": "C" 
			},
			{
				"x": -1.7959467424,
				"y": 2.8470779939,
				"z": -0.790542281,
				"element": "C" 
			},
			{
				"x": -2.5800994986,
				"y": 3.2165666628,
				"z": -1.5718430952,
				"element": "N" 
			},
			{
				"x": -3.4787353641,
				"y": -3.4534489416,
				"z": -2.174278595,
				"element": "H" 
			},
			{
				"x": -2.5452489012,
				"y": -4.3653342048,
				"z": -0.987958368,
				"element": "H" 
			},
			{
				"x": -1.918472249,
				"y": -4.1440168924,
				"z": -2.62910894,
				"element": "H" 
			},
			{
				"x": -0.6246291684,
				"y": -2.1538965993,
				"z": -3.1884032999,
				"element": "H" 
			},
			{
				"x": 0.4607885749,
				"y": -0.0518458495,
				"z": -2.4884223738,
				"element": "H" 
			},
			{
				"x": -1.677515052,
				"y": -0.1881708481,
				"z": 1.2321249677,
				"element": "H" 
			},
			{
				"x": -2.7537038949,
				"y": -2.2931497965,
				"z": 0.5370041714,
				"element": "H" 
			},
			{
				"x": 0.7541405111,
				"y": 1.6770366277,
				"z": -1.0062378129,
				"element": "H" 
			},
			{
				"x": 1.913252652,
				"y": 1.8707448887,
				"z": 4.0452845108,
				"element": "H" 
			},
			{
				"x": -2.5487775926,
				"y": 4.2756674517,
				"z": 1.0834653664,
				"element": "H" 
			},
			{
				"x": -1.9871208271,
				"y": 4.2309162472,
				"z": 2.7027705149,
				"element": "H" 
			}
		],
		 "valence_orbital": [ 
			{
				"type": "occ",
				"energy": -0.28526,
				"method": "rhf"
			},
			{
				"type": "occ",
				"energy": -0.25899,
				"method": "rhf"
			},
			{
				"type": "occ",
				"energy": -0.24695,
				"method": "rhf"
			},
			{
				"type": "occ",
				"energy": -0.23591,
				"method": "rhf"
			},
			{
				"type": "occ",
				"energy": -0.22651,
				"method": "rhf"
			},
			{
				"type": "unocc",
				"energy": -0.02817,
				"method": "rhf"
			},
			{
				"type": "unocc",
				"energy": -0.00568,
				"method": "rhf"
			},
			{
				"type": "unocc",
				"energy": -0.00171,
				"method": "rhf"
			},
			{
				"type": "unocc",
				"energy": 0.00537,
				"method": "rhf"
			},
			{
				"type": "unocc",
				"energy": 0.02612,
				"method": "rhf"
			}
		],
		"cosmo_sigma_profile": { 
			"-0.025": 0.0,
			"-0.024": 0.0,
			"-0.023": 0.0,
			"-0.022": 0.0,
			"-0.021": 0.0,
			"-0.02": 0.0,
			"-0.019": 0.286129866553,
			"-0.018": 1.64983597179,
			"-0.017": 1.78550068696,
			"-0.016": 0.7909911999,
			"-0.015": 2.30318340938,
			"-0.014": 2.97704181211,
			"-0.013": 3.08970596213,
			"-0.012": 4.07815700428,
			"-0.011": 2.40762059282,
			"-0.01": 2.04470195227,
			"-0.009": 2.82716212027,
			"-0.008": 2.76933020394,
			"-0.007": 3.10029427544,
			"-0.006": 6.97385070507,
			"-0.005": 14.6957704269,
			"-0.004": 21.7563224677,
			"-0.003": 22.2161019935,
			"-0.002": 21.4495452535,
			"-0.001": 25.0419958126,
			"0.0": 25.1981564443,
			"0.001": 23.9058643643,
			"0.002": 29.9348383989,
			"0.003": 31.5588751918,
			"0.004": 17.3060085387,
			"0.005": 15.9851944439,
			"0.006": 8.74674648378,
			"0.007": 4.22202663887,
			"0.008": 4.49620391855,
			"0.009": 4.78874941883,
			"0.01": 3.68547153772,
			"0.011": 4.91475629,
			"0.012": 3.81924776079,
			"0.013": 3.24110286001,
			"0.014": 1.78714970451,
			"0.015": 0.0,
			"0.016": 0.0,
			"0.017": 0.0,
			"0.018": 0.0,
			"0.019": 0.0,
			"0.02": 0.0,
			"0.021": 0.0,
			"0.022": 0.0,
			"0.023": 0.0,
			"0.024": 0.0,
			"0.025": 0.0
		}
	}
}
