{
	 "smiles": "CCCCC1=CC=C(C=C1)C1=CC=C(C=C1)C#N", 
	 "Tm": 323.15, 
	 "num_atms": 35, 
	 "gaussian": { 
		 "optdone": 1, 
		 "sigma_profile": "yes", 
		 "theory": "DFT", 
		 "functional": "B3LYP", 
		 "basiset": "6-31G**", 
		 "properties": { 
			 "R2extent": 8345.7885, 
			 "electric_dipole_moment_norm": 5.79076866314, 
			 "electric_quadrupole_moment_norm": 32.4202195713, 
			 "total_energy": -712.818474097, 
			 "HOMO_LUMO_gap": 0.17328, 
			 "cosmo_polarized_energy": -9.97, 
			 "cosmo_cavitation_energy": 39.31, 
			 "cosmo_dispersion_energy": -27.18, 
			 "cosmo_repulsion_energy": 2.11, 
			 "cosmo_total_nonelectrostatic_energy": 14.25, 
			 "SMD_solvation_energy": 7.45 
		},
		"coords": [
			{
				"x": -2.6199303576,
				"y": 1.562556149,
				"z": 4.5703775328,
				"element": "C" 
			},
			{
				"x": -2.7262751203,
				"y": 1.3885581812,
				"z": 3.0519321018,
				"element": "C" 
			},
			{
				"x": -3.6406580463,
				"y": 0.2259529425,
				"z": 2.6474700273,
				"element": "C" 
			},
			{
				"x": -3.7794528524,
				"y": 0.0257619925,
				"z": 1.1216648876,
				"element": "C" 
			},
			{
				"x": -2.4998854253,
				"y": -0.4026031456,
				"z": 0.434695909,
				"element": "C" 
			},
			{
				"x": -2.0311983062,
				"y": -1.7198968712,
				"z": 0.5509361651,
				"element": "C" 
			},
			{
				"x": -0.8476055894,
				"y": -2.1229506412,
				"z": -0.0599444108,
				"element": "C" 
			},
			{
				"x": -0.0821624155,
				"y": -1.2209743205,
				"z": -0.8196990869,
				"element": "C" 
			},
			{
				"x": -0.5521390392,
				"y": 0.0965591256,
				"z": -0.9404252297,
				"element": "C" 
			},
			{
				"x": -1.7370338698,
				"y": 0.4945566242,
				"z": -0.3240442194,
				"element": "C" 
			},
			{
				"x": 1.1771852358,
				"y": -1.6488914373,
				"z": -1.4749596278,
				"element": "C" 
			},
			{
				"x": 2.0431570279,
				"y": -2.565391232,
				"z": -0.8505192759,
				"element": "C" 
			},
			{
				"x": 3.2244452818,
				"y": -2.9715351587,
				"z": -1.4591000367,
				"element": "C" 
			},
			{
				"x": 3.5755758356,
				"y": -2.4633423717,
				"z": -2.7212349694,
				"element": "C" 
			},
			{
				"x": 2.7220005247,
				"y": -1.5461601722,
				"z": -3.3574400252,
				"element": "C" 
			},
			{
				"x": 1.5421398702,
				"y": -1.1505997761,
				"z": -2.7392078179,
				"element": "C" 
			},
			{
				"x": 4.7930725966,
				"y": -2.8767834928,
				"z": -3.3538906764,
				"element": "C" 
			},
			{
				"x": 5.7817629918,
				"y": -3.2124676857,
				"z": -3.8676417485,
				"element": "N" 
			},
			{
				"x": -3.6015561642,
				"y": 1.7537507676,
				"z": 5.0190702525,
				"element": "H" 
			},
			{
				"x": -1.9663869444,
				"y": 2.401187759,
				"z": 4.8315727217,
				"element": "H" 
			},
			{
				"x": -2.2107229247,
				"y": 0.6629592181,
				"z": 5.0442307191,
				"element": "H" 
			},
			{
				"x": -1.7261860876,
				"y": 1.2314587579,
				"z": 2.6295792086,
				"element": "H" 
			},
			{
				"x": -3.1050333479,
				"y": 2.3170625705,
				"z": 2.6022980209,
				"element": "H" 
			},
			{
				"x": -4.642185013,
				"y": 0.3914416568,
				"z": 3.0667379605,
				"element": "H" 
			},
			{
				"x": -3.2694183098,
				"y": -0.7038960736,
				"z": 3.0996026861,
				"element": "H" 
			},
			{
				"x": -4.5535464445,
				"y": -0.7300485245,
				"z": 0.9389573256,
				"element": "H" 
			},
			{
				"x": -4.142330267,
				"y": 0.9568992212,
				"z": 0.6693227453,
				"element": "H" 
			},
			{
				"x": -2.6106881115,
				"y": -2.4449790992,
				"z": 1.1176266411,
				"element": "H" 
			},
			{
				"x": -0.5293030999,
				"y": -3.1579824696,
				"z": 0.0242218162,
				"element": "H" 
			},
			{
				"x": 0.0278570097,
				"y": 0.8245682804,
				"z": -1.5001076848,
				"element": "H" 
			},
			{
				"x": -2.0733380796,
				"y": 1.5228099644,
				"z": -0.4306091695,
				"element": "H" 
			},
			{
				"x": 1.7979393044,
				"y": -2.9441893181,
				"z": 0.136522805,
				"element": "H" 
			},
			{
				"x": 3.8856302689,
				"y": -3.6728466889,
				"z": -0.9609738432,
				"element": "H" 
			},
			{
				"x": 2.9854162759,
				"y": -1.1589726671,
				"z": -4.3361292125,
				"element": "H" 
			},
			{
				"x": 0.8783535926,
				"y": -0.463572065,
				"z": -3.2541924915,
				"element": "H" 
			}
		],
		 "valence_orbital": [ 
			{
				"type": "occ",
				"energy": -0.32469,
				"method": "rhf"
			},
			{
				"type": "occ",
				"energy": -0.27763,
				"method": "rhf"
			},
			{
				"type": "occ",
				"energy": -0.27361,
				"method": "rhf"
			},
			{
				"type": "occ",
				"energy": -0.26029,
				"method": "rhf"
			},
			{
				"type": "occ",
				"energy": -0.23299,
				"method": "rhf"
			},
			{
				"type": "unocc",
				"energy": -0.05971,
				"method": "rhf"
			},
			{
				"type": "unocc",
				"energy": -0.02334,
				"method": "rhf"
			},
			{
				"type": "unocc",
				"energy": -0.0125,
				"method": "rhf"
			},
			{
				"type": "unocc",
				"energy": 0.00049,
				"method": "rhf"
			},
			{
				"type": "unocc",
				"energy": 0.04022,
				"method": "rhf"
			}
		],
		"cosmo_sigma_profile": { 
			"-0.025": 0.0,
			"-0.024": 0.0,
			"-0.023": 0.0,
			"-0.022": 0.0,
			"-0.021": 0.0,
			"-0.02": 0.0,
			"-0.019": 0.0,
			"-0.018": 0.0,
			"-0.017": 0.0,
			"-0.016": 0.0,
			"-0.015": 0.0,
			"-0.014": 0.0,
			"-0.013": 0.0,
			"-0.012": 0.0,
			"-0.011": 0.0,
			"-0.01": 0.0,
			"-0.009": 0.0,
			"-0.008": 2.05715750193,
			"-0.007": 6.52990276334,
			"-0.006": 14.7475200838,
			"-0.005": 16.1084573265,
			"-0.004": 17.4366328239,
			"-0.003": 22.8551325541,
			"-0.002": 30.6222509908,
			"-0.001": 36.1247988268,
			"0.0": 37.7539915244,
			"0.001": 36.1754329871,
			"0.002": 29.3580185382,
			"0.003": 18.0576725484,
			"0.004": 9.18056046829,
			"0.005": 10.5946748035,
			"0.006": 5.28161207596,
			"0.007": 2.16181655839,
			"0.008": 3.10592687163,
			"0.009": 3.68277360537,
			"0.01": 3.28366991498,
			"0.011": 2.8841155068,
			"0.012": 2.58309044598,
			"0.013": 1.75000410736,
			"0.014": 0.167252173337,
			"0.015": 0.0,
			"0.016": 0.0,
			"0.017": 0.0,
			"0.018": 0.0,
			"0.019": 0.0,
			"0.02": 0.0,
			"0.021": 0.0,
			"0.022": 0.0,
			"0.023": 0.0,
			"0.024": 0.0,
			"0.025": 0.0
		}
	}
}
