{
	 "smiles": "CC(C)(C)C1=CC(=C(O)C(Br)=C1)C(C)(C)C", 
	 "Tm": 330.15, 
	 "num_atms": 37, 
	 "gaussian": { 
		 "optdone": 1, 
		 "sigma_profile": "yes", 
		 "theory": "DFT", 
		 "functional": "B3LYP", 
		 "basiset": "6-31G**", 
		 "properties": { 
			 "R2extent": 6114.9789, 
			 "electric_dipole_moment_norm": 1.11433849435, 
			 "electric_quadrupole_moment_norm": 3.46380140164, 
			 "total_energy": -3192.80154979, 
			 "HOMO_LUMO_gap": 0.2096, 
			 "cosmo_polarized_energy": -4.7, 
			 "cosmo_cavitation_energy": 38.2, 
			 "cosmo_dispersion_energy": -26.76, 
			 "cosmo_repulsion_energy": 2.08, 
			 "cosmo_total_nonelectrostatic_energy": 13.52, 
			 "SMD_solvation_energy": 5.98 
		},
		"coords": [
			{
				"x": 0.5031953472,
				"y": -1.527232791,
				"z": -3.1388821295,
				"element": "C" 
			},
			{
				"x": -0.1615267318,
				"y": -2.0742069639,
				"z": -1.8531722502,
				"element": "C" 
			},
			{
				"x": 0.2609803661,
				"y": -3.5482624625,
				"z": -1.6464928785,
				"element": "C" 
			},
			{
				"x": -1.688912247,
				"y": -2.0369308093,
				"z": -2.0506179983,
				"element": "C" 
			},
			{
				"x": 0.2920295431,
				"y": -1.2350307881,
				"z": -0.6430470923,
				"element": "C" 
			},
			{
				"x": -0.5984188267,
				"y": -0.5260246339,
				"z": 0.175573034,
				"element": "C" 
			},
			{
				"x": -0.2122022392,
				"y": 0.2443816584,
				"z": 1.2818229639,
				"element": "C" 
			},
			{
				"x": 1.1682503316,
				"y": 0.3010627096,
				"z": 1.5795182845,
				"element": "C" 
			},
			{
				"x": 1.6019978883,
				"y": 1.0341820971,
				"z": 2.6420739998,
				"element": "O" 
			},
			{
				"x": 2.0634497542,
				"y": -0.405938745,
				"z": 0.7648396991,
				"element": "C" 
			},
			{
				"x": 3.9412317948,
				"y": -0.3163155722,
				"z": 1.1873470562,
				"element": "Br" 
			},
			{
				"x": 1.6517521103,
				"y": -1.160285917,
				"z": -0.3235567065,
				"element": "C" 
			},
			{
				"x": -1.2460738429,
				"y": 1.0023826453,
				"z": 2.1438744721,
				"element": "C" 
			},
			{
				"x": -1.1938246269,
				"y": 0.4910920253,
				"z": 3.6051071454,
				"element": "C" 
			},
			{
				"x": -0.9550988381,
				"y": 2.5232793252,
				"z": 2.1040186488,
				"element": "C" 
			},
			{
				"x": -2.6862381323,
				"y": 0.7940698135,
				"z": 1.6330339728,
				"element": "C" 
			},
			{
				"x": 0.2168543248,
				"y": -0.4851734951,
				"z": -3.3148429185,
				"element": "H" 
			},
			{
				"x": 0.1943712405,
				"y": -2.1168212398,
				"z": -4.0095785879,
				"element": "H" 
			},
			{
				"x": 1.5951906271,
				"y": -1.5675101807,
				"z": -3.0819990961,
				"element": "H" 
			},
			{
				"x": -0.2009545412,
				"y": -3.965379313,
				"z": -0.7456733034,
				"element": "H" 
			},
			{
				"x": 1.3454385602,
				"y": -3.6506150909,
				"z": -1.5426039192,
				"element": "H" 
			},
			{
				"x": -0.0495169295,
				"y": -4.1586379896,
				"z": -2.5021456755,
				"element": "H" 
			},
			{
				"x": -2.0527125228,
				"y": -1.020480697,
				"z": -2.2335617726,
				"element": "H" 
			},
			{
				"x": -2.2229092021,
				"y": -2.4419702815,
				"z": -1.1847350388,
				"element": "H" 
			},
			{
				"x": -1.9615177043,
				"y": -2.6451487568,
				"z": -2.9191258594,
				"element": "H" 
			},
			{
				"x": -1.6516336781,
				"y": -0.5735386796,
				"z": -0.0574017658,
				"element": "H" 
			},
			{
				"x": 2.5690907193,
				"y": 0.9560241395,
				"z": 2.6912948665,
				"element": "H" 
			},
			{
				"x": 2.3977961416,
				"y": -1.6821931887,
				"z": -0.9112495319,
				"element": "H" 
			},
			{
				"x": -1.4311655444,
				"y": -0.5774409958,
				"z": 3.6492428325,
				"element": "H" 
			},
			{
				"x": -1.9337015081,
				"y": 1.0246733217,
				"z": 4.2127042339,
				"element": "H" 
			},
			{
				"x": -0.2110411187,
				"y": 0.6434089079,
				"z": 4.0524826694,
				"element": "H" 
			},
			{
				"x": -1.02266355,
				"y": 2.9027792687,
				"z": 1.0786187636,
				"element": "H" 
			},
			{
				"x": -1.6943997976,
				"y": 3.059620122,
				"z": 2.7098848715,
				"element": "H" 
			},
			{
				"x": 0.0373017137,
				"y": 2.7559382703,
				"z": 2.49167065,
				"element": "H" 
			},
			{
				"x": -2.8206496432,
				"y": 1.1648236999,
				"z": 0.6114101755,
				"element": "H" 
			},
			{
				"x": -2.9871079674,
				"y": -0.2585012906,
				"z": 1.6614785681,
				"element": "H" 
			},
			{
				"x": -3.3767612706,
				"y": 1.3491218773,
				"z": 2.2758896168,
				"element": "H" 
			}
		],
		 "valence_orbital": [ 
			{
				"type": "occ",
				"energy": -0.30984,
				"method": "rhf"
			},
			{
				"type": "occ",
				"energy": -0.30453,
				"method": "rhf"
			},
			{
				"type": "occ",
				"energy": -0.30064,
				"method": "rhf"
			},
			{
				"type": "occ",
				"energy": -0.24118,
				"method": "rhf"
			},
			{
				"type": "occ",
				"energy": -0.21758,
				"method": "rhf"
			},
			{
				"type": "unocc",
				"energy": -0.00798,
				"method": "rhf"
			},
			{
				"type": "unocc",
				"energy": -0.00118,
				"method": "rhf"
			},
			{
				"type": "unocc",
				"energy": 0.00618,
				"method": "rhf"
			},
			{
				"type": "unocc",
				"energy": 0.08077,
				"method": "rhf"
			},
			{
				"type": "unocc",
				"energy": 0.08767,
				"method": "rhf"
			}
		],
		"cosmo_sigma_profile": { 
			"-0.025": 0.0,
			"-0.024": 0.0,
			"-0.023": 0.0,
			"-0.022": 0.0,
			"-0.021": 0.0,
			"-0.02": 0.0,
			"-0.019": 0.0,
			"-0.018": 0.0,
			"-0.017": 0.0,
			"-0.016": 0.0,
			"-0.015": 0.0,
			"-0.014": 0.149349741206,
			"-0.013": 0.594731811,
			"-0.012": 0.397281542662,
			"-0.011": 0.683796374442,
			"-0.01": 0.62664263257,
			"-0.009": 0.988131926533,
			"-0.008": 0.837072484756,
			"-0.007": 0.927467817263,
			"-0.006": 3.20417754954,
			"-0.005": 4.59788646582,
			"-0.004": 5.73008390922,
			"-0.003": 28.6743157277,
			"-0.002": 42.957790166,
			"-0.001": 37.2207812539,
			"0.0": 37.427102061,
			"0.001": 47.3522244049,
			"0.002": 37.2127569764,
			"0.003": 19.8096377936,
			"0.004": 16.9720357292,
			"0.005": 10.8231550097,
			"0.006": 2.29927931619,
			"0.007": 0.802840975986,
			"0.008": 0.125914306414,
			"0.009": 0.0,
			"0.01": 0.0,
			"0.011": 0.0,
			"0.012": 0.0,
			"0.013": 0.0,
			"0.014": 0.0,
			"0.015": 0.0,
			"0.016": 0.0,
			"0.017": 0.0,
			"0.018": 0.0,
			"0.019": 0.0,
			"0.02": 0.0,
			"0.021": 0.0,
			"0.022": 0.0,
			"0.023": 0.0,
			"0.024": 0.0,
			"0.025": 0.0
		}
	}
}
