{
	 "smiles": "NC1=CC2=C(OCC2)C=C1", 
	 "Tm": 345.15, 
	 "num_atms": 19, 
	 "gaussian": { 
		 "optdone": 1, 
		 "sigma_profile": "yes", 
		 "theory": "DFT", 
		 "functional": "B3LYP", 
		 "basiset": "6-31G**", 
		 "properties": { 
			 "R2extent": 2144.4808, 
			 "electric_dipole_moment_norm": 2.35004304216, 
			 "electric_quadrupole_moment_norm": 8.46842356109, 
			 "total_energy": -440.241596718, 
			 "HOMO_LUMO_gap": 0.18039, 
			 "cosmo_polarized_energy": -9.91, 
			 "cosmo_cavitation_energy": 21.92, 
			 "cosmo_dispersion_energy": -16.91, 
			 "cosmo_repulsion_energy": 1.38, 
			 "cosmo_total_nonelectrostatic_energy": 6.39, 
			 "SMD_solvation_energy": 3.62 
		},
		"coords": [
			{
				"x": 1.7024652312,
				"y": 1.2339241437,
				"z": -1.6856022241,
				"element": "N" 
			},
			{
				"x": 0.4494081874,
				"y": 0.8221983146,
				"z": -1.1937591816,
				"element": "C" 
			},
			{
				"x": -0.6391223349,
				"y": 1.7165487319,
				"z": -1.183268417,
				"element": "C" 
			},
			{
				"x": -1.8514983467,
				"y": 1.3086387896,
				"z": -0.6440843171,
				"element": "C" 
			},
			{
				"x": -1.9928389412,
				"y": 0.0274782085,
				"z": -0.1095063923,
				"element": "C" 
			},
			{
				"x": -3.2472529469,
				"y": -0.2183135217,
				"z": 0.3951202611,
				"element": "O" 
			},
			{
				"x": -4.0950277214,
				"y": 0.8693314445,
				"z": -0.0423164953,
				"element": "C" 
			},
			{
				"x": -3.1613112479,
				"y": 2.0380752222,
				"z": -0.4423854457,
				"element": "C" 
			},
			{
				"x": -0.9371392492,
				"y": -0.8741722902,
				"z": -0.1007923936,
				"element": "C" 
			},
			{
				"x": 0.2827567998,
				"y": -0.4613304108,
				"z": -0.6469222569,
				"element": "C" 
			},
			{
				"x": 1.6471130063,
				"y": 1.9536932781,
				"z": -2.3947441898,
				"element": "H" 
			},
			{
				"x": 2.2872142569,
				"y": 0.4714471505,
				"z": -2.0029316874,
				"element": "H" 
			},
			{
				"x": -0.5204330079,
				"y": 2.7173470681,
				"z": -1.5927757586,
				"element": "H" 
			},
			{
				"x": -4.7790555748,
				"y": 1.1091065769,
				"z": 0.7749955576,
				"element": "H" 
			},
			{
				"x": -4.6817767581,
				"y": 0.5228904801,
				"z": -0.9033435085,
				"element": "H" 
			},
			{
				"x": -3.0772323059,
				"y": 2.782888944,
				"z": 0.3597376547,
				"element": "H" 
			},
			{
				"x": -3.5203220346,
				"y": 2.5584754214,
				"z": -1.3358884633,
				"element": "H" 
			},
			{
				"x": -1.0578607685,
				"y": -1.8696273538,
				"z": 0.3129880367,
				"element": "H" 
			},
			{
				"x": 1.1236137567,
				"y": -1.1507001976,
				"z": -0.6500207789,
				"element": "H" 
			}
		],
		 "valence_orbital": [ 
			{
				"type": "occ",
				"energy": -0.33193,
				"method": "rhf"
			},
			{
				"type": "occ",
				"energy": -0.31891,
				"method": "rhf"
			},
			{
				"type": "occ",
				"energy": -0.2636,
				"method": "rhf"
			},
			{
				"type": "occ",
				"energy": -0.23815,
				"method": "rhf"
			},
			{
				"type": "occ",
				"energy": -0.17743,
				"method": "rhf"
			},
			{
				"type": "unocc",
				"energy": 0.00296,
				"method": "rhf"
			},
			{
				"type": "unocc",
				"energy": 0.0365,
				"method": "rhf"
			},
			{
				"type": "unocc",
				"energy": 0.08601,
				"method": "rhf"
			},
			{
				"type": "unocc",
				"energy": 0.10248,
				"method": "rhf"
			},
			{
				"type": "unocc",
				"energy": 0.11608,
				"method": "rhf"
			}
		],
		"cosmo_sigma_profile": { 
			"-0.025": 0.0,
			"-0.024": 0.0,
			"-0.023": 0.0,
			"-0.022": 0.0,
			"-0.021": 0.0,
			"-0.02": 0.0,
			"-0.019": 0.0,
			"-0.018": 0.0,
			"-0.017": 0.0,
			"-0.016": 0.0,
			"-0.015": 0.0,
			"-0.014": 0.0,
			"-0.013": 0.0,
			"-0.012": 0.906847914944,
			"-0.011": 2.70723238236,
			"-0.01": 2.92642144983,
			"-0.009": 3.46052209206,
			"-0.008": 2.99214042182,
			"-0.007": 2.87181105906,
			"-0.006": 5.22605645022,
			"-0.005": 13.4427756269,
			"-0.004": 17.9319200977,
			"-0.003": 17.5370734367,
			"-0.002": 13.5363164563,
			"-0.001": 11.0287677181,
			"0.0": 7.6280861721,
			"0.001": 5.59612938742,
			"0.002": 6.66192478771,
			"0.003": 7.00931637223,
			"0.004": 8.55200502776,
			"0.005": 9.19731358191,
			"0.006": 10.7521654616,
			"0.007": 8.58541558623,
			"0.008": 2.45544935876,
			"0.009": 2.49815502116,
			"0.01": 2.24824118414,
			"0.011": 2.4778087898,
			"0.012": 2.14781939461,
			"0.013": 0.903831295494,
			"0.014": 0.958430614037,
			"0.015": 0.585946510469,
			"0.016": 0.42304282879,
			"0.017": 0.0196786267572,
			"0.018": 0.0,
			"0.019": 0.0,
			"0.02": 0.0,
			"0.021": 0.0,
			"0.022": 0.0,
			"0.023": 0.0,
			"0.024": 0.0,
			"0.025": 0.0
		}
	}
}
