{
	 "smiles": "OC(=O)C1=C(CSC2=NN=CN2)C=CC=C1", 
	 "Tm": 451.15, 
	 "num_atms": 25, 
	 "gaussian": { 
		 "optdone": 1, 
		 "sigma_profile": "yes", 
		 "theory": "DFT", 
		 "functional": "B3LYP", 
		 "basiset": "6-31G**", 
		 "properties": { 
			 "R2extent": 3976.9857, 
			 "electric_dipole_moment_norm": 8.91201975088, 
			 "electric_quadrupole_moment_norm": 18.0245724191, 
			 "total_energy": -1099.35959615, 
			 "HOMO_LUMO_gap": 0.14922, 
			 "cosmo_polarized_energy": -26.14, 
			 "cosmo_cavitation_energy": 30.75, 
			 "cosmo_dispersion_energy": -22.34, 
			 "cosmo_repulsion_energy": 1.68, 
			 "cosmo_total_nonelectrostatic_energy": 10.09, 
			 "SMD_solvation_energy": 3.85 
		},
		"coords": [
			{
				"x": 2.2745533435,
				"y": 3.4248533281,
				"z": 1.3005933366,
				"element": "O" 
			},
			{
				"x": 1.6031799834,
				"y": 2.3219052017,
				"z": 0.9070748552,
				"element": "C" 
			},
			{
				"x": 2.2426129716,
				"y": 1.3419318035,
				"z": 0.5672754483,
				"element": "O" 
			},
			{
				"x": 0.1085786442,
				"y": 2.4287857103,
				"z": 0.8974931959,
				"element": "C" 
			},
			{
				"x": -0.7302092617,
				"y": 1.3691871585,
				"z": 1.3093430361,
				"element": "C" 
			},
			{
				"x": -0.1962341059,
				"y": 0.0727684218,
				"z": 1.882604894,
				"element": "C" 
			},
			{
				"x": -0.7910819928,
				"y": -1.4713339174,
				"z": 1.0570756693,
				"element": "S" 
			},
			{
				"x": -0.2887576605,
				"y": -1.2348460628,
				"z": -0.61877821,
				"element": "C" 
			},
			{
				"x": -0.9282759954,
				"y": -1.7772108352,
				"z": -1.6326447327,
				"element": "N" 
			},
			{
				"x": -0.206774758,
				"y": -1.478355108,
				"z": -2.7742141448,
				"element": "N" 
			},
			{
				"x": 0.8239329582,
				"y": -0.7579533288,
				"z": -2.4028590102,
				"element": "C" 
			},
			{
				"x": 0.8374926543,
				"y": -0.5835597593,
				"z": -1.0466899611,
				"element": "N" 
			},
			{
				"x": -2.1168919004,
				"y": 1.5623983177,
				"z": 1.2422915859,
				"element": "C" 
			},
			{
				"x": -2.6679727591,
				"y": 2.7499283204,
				"z": 0.7694617195,
				"element": "C" 
			},
			{
				"x": -1.8353036017,
				"y": 3.7904008713,
				"z": 0.3522802488,
				"element": "C" 
			},
			{
				"x": -0.4566759962,
				"y": 3.6297225974,
				"z": 0.4269392292,
				"element": "C" 
			},
			{
				"x": 1.6540622426,
				"y": 4.0794581006,
				"z": 1.6533392383,
				"element": "H" 
			},
			{
				"x": -0.5682937804,
				"y": -0.0596269834,
				"z": 2.904235637,
				"element": "H" 
			},
			{
				"x": 0.8905831329,
				"y": 0.0627081417,
				"z": 1.9267745211,
				"element": "H" 
			},
			{
				"x": 1.5723879487,
				"y": -0.3395354558,
				"z": -3.0606540767,
				"element": "H" 
			},
			{
				"x": 1.4709512496,
				"y": -0.0048746339,
				"z": -0.4922200563,
				"element": "H" 
			},
			{
				"x": -2.7687898138,
				"y": 0.7518548318,
				"z": 1.5536656975,
				"element": "H" 
			},
			{
				"x": -3.7468659595,
				"y": 2.8612417374,
				"z": 0.7211644256,
				"element": "H" 
			},
			{
				"x": -2.2555758518,
				"y": 4.7135767629,
				"z": -0.0337357699,
				"element": "H" 
			},
			{
				"x": 0.1931683082,
				"y": 4.4250747797,
				"z": 0.0709832234,
				"element": "H" 
			}
		],
		 "valence_orbital": [ 
			{
				"type": "occ",
				"energy": -0.28951,
				"method": "rhf"
			},
			{
				"type": "occ",
				"energy": -0.28258,
				"method": "rhf"
			},
			{
				"type": "occ",
				"energy": -0.2787,
				"method": "rhf"
			},
			{
				"type": "occ",
				"energy": -0.2425,
				"method": "rhf"
			},
			{
				"type": "occ",
				"energy": -0.22071,
				"method": "rhf"
			},
			{
				"type": "unocc",
				"energy": -0.07149,
				"method": "rhf"
			},
			{
				"type": "unocc",
				"energy": -0.04775,
				"method": "rhf"
			},
			{
				"type": "unocc",
				"energy": 0.00627,
				"method": "rhf"
			},
			{
				"type": "unocc",
				"energy": 0.01112,
				"method": "rhf"
			},
			{
				"type": "unocc",
				"energy": 0.04287,
				"method": "rhf"
			}
		],
		"cosmo_sigma_profile": { 
			"-0.025": 0.0,
			"-0.024": 0.0,
			"-0.023": 0.0,
			"-0.022": 0.0,
			"-0.021": 0.0,
			"-0.02": 0.0,
			"-0.019": 0.243635951893,
			"-0.018": 0.790621209371,
			"-0.017": 1.12052452281,
			"-0.016": 1.20793050367,
			"-0.015": 0.302876150366,
			"-0.014": 1.41765515428,
			"-0.013": 1.50665419579,
			"-0.012": 0.843856513711,
			"-0.011": 1.20065513233,
			"-0.01": 3.84642235055,
			"-0.009": 5.6649168223,
			"-0.008": 7.89234706176,
			"-0.007": 13.3796581752,
			"-0.006": 17.8210481688,
			"-0.005": 16.4096078126,
			"-0.004": 14.0736554604,
			"-0.003": 11.5885048132,
			"-0.002": 10.7201647953,
			"-0.001": 11.6738568748,
			"0.0": 14.3948593312,
			"0.001": 15.5863399707,
			"0.002": 17.4151786719,
			"0.003": 16.0372255357,
			"0.004": 7.49205067914,
			"0.005": 6.39584143218,
			"0.006": 5.76025244595,
			"0.007": 6.75420086437,
			"0.008": 5.83875599047,
			"0.009": 5.56882766648,
			"0.01": 4.48955225897,
			"0.011": 4.97516827594,
			"0.012": 3.26429381175,
			"0.013": 3.10685794149,
			"0.014": 3.48069140488,
			"0.015": 3.43017326881,
			"0.016": 2.17425303271,
			"0.017": 1.4604525961,
			"0.018": 0.0,
			"0.019": 0.0,
			"0.02": 0.0,
			"0.021": 0.0,
			"0.022": 0.0,
			"0.023": 0.0,
			"0.024": 0.0,
			"0.025": 0.0
		}
	}
}
