{
	 "smiles": "CC(NC(=O)CC1CCCCC1)C(O)=O", 
	 "Tm": 430.15, 
	 "num_atms": 34, 
	 "gaussian": { 
		 "optdone": 1, 
		 "sigma_profile": "yes", 
		 "theory": "DFT", 
		 "functional": "B3LYP", 
		 "basiset": "6-31G**", 
		 "properties": { 
			 "R2extent": 3890.5975, 
			 "electric_dipole_moment_norm": 5.83827914715, 
			 "electric_quadrupole_moment_norm": 23.8832561687, 
			 "total_energy": -711.070912136, 
			 "HOMO_LUMO_gap": 0.2351, 
			 "cosmo_polarized_energy": -22.76, 
			 "cosmo_cavitation_energy": 33.97, 
			 "cosmo_dispersion_energy": -23.63, 
			 "cosmo_repulsion_energy": 1.87, 
			 "cosmo_total_nonelectrostatic_energy": 12.21, 
			 "SMD_solvation_energy": 5.85 
		},
		"coords": [
			{
				"x": 1.9525851692,
				"y": 2.8672137585,
				"z": -1.0677696631,
				"element": "C" 
			},
			{
				"x": 2.8515895584,
				"y": 1.6724986475,
				"z": -0.6767247385,
				"element": "C" 
			},
			{
				"x": 2.8816396706,
				"y": 1.4018494051,
				"z": 0.7474797597,
				"element": "N" 
			},
			{
				"x": 1.9039247374,
				"y": 0.9093903057,
				"z": 1.6004755961,
				"element": "C" 
			},
			{
				"x": 2.2362955194,
				"y": 0.5394543072,
				"z": 2.7178772064,
				"element": "O" 
			},
			{
				"x": 0.4476580034,
				"y": 0.9291217338,
				"z": 1.148802386,
				"element": "C" 
			},
			{
				"x": -0.4377934763,
				"y": -0.0039315646,
				"z": 1.9954439367,
				"element": "C" 
			},
			{
				"x": -1.9320461088,
				"y": 0.2514145413,
				"z": 1.7197972229,
				"element": "C" 
			},
			{
				"x": -2.3698354335,
				"y": -0.1467844633,
				"z": 0.2927382413,
				"element": "C" 
			},
			{
				"x": -1.6874961583,
				"y": -1.4537523685,
				"z": -0.1926982738,
				"element": "C" 
			},
			{
				"x": -1.1661950823,
				"y": -2.282669629,
				"z": 0.9887523776,
				"element": "C" 
			},
			{
				"x": -0.0867159767,
				"y": -1.5107987842,
				"z": 1.774208522,
				"element": "C" 
			},
			{
				"x": 2.5475105373,
				"y": 0.4128477563,
				"z": -1.5235712279,
				"element": "C" 
			},
			{
				"x": 2.6995317719,
				"y": 0.5726241882,
				"z": -2.8644101753,
				"element": "O" 
			},
			{
				"x": 2.2063896061,
				"y": -0.6514665839,
				"z": -1.077202868,
				"element": "O" 
			},
			{
				"x": 0.8932364605,
				"y": 2.6428088339,
				"z": -0.9346113423,
				"element": "H" 
			},
			{
				"x": 2.1009052396,
				"y": 3.1608106012,
				"z": -2.1124771854,
				"element": "H" 
			},
			{
				"x": 2.2065525381,
				"y": 3.7247330563,
				"z": -0.4405630377,
				"element": "H" 
			},
			{
				"x": 3.880636142,
				"y": 1.9565993265,
				"z": -0.9344659407,
				"element": "H" 
			},
			{
				"x": 3.7986745098,
				"y": 1.2623892736,
				"z": 1.1519828665,
				"element": "H" 
			},
			{
				"x": 0.3775516092,
				"y": 0.671181975,
				"z": 0.0898310376,
				"element": "H" 
			},
			{
				"x": 0.0947894454,
				"y": 1.9660673257,
				"z": 1.2513467241,
				"element": "H" 
			},
			{
				"x": -0.2311384179,
				"y": 0.2479078825,
				"z": 3.0397380432,
				"element": "H" 
			},
			{
				"x": -2.5132937792,
				"y": -0.3273409533,
				"z": 2.4479507453,
				"element": "H" 
			},
			{
				"x": -2.1796559612,
				"y": 1.3039289623,
				"z": 1.9086035764,
				"element": "H" 
			},
			{
				"x": -2.1516203024,
				"y": 0.6671651737,
				"z": -0.4096009547,
				"element": "H" 
			},
			{
				"x": -3.4600372679,
				"y": -0.2639163439,
				"z": 0.2820424687,
				"element": "H" 
			},
			{
				"x": -2.3851339465,
				"y": -2.0413311532,
				"z": -0.8003349157,
				"element": "H" 
			},
			{
				"x": -0.8383452845,
				"y": -1.2185492929,
				"z": -0.8470965344,
				"element": "H" 
			},
			{
				"x": -0.7510581568,
				"y": -3.2328725398,
				"z": 0.633699256,
				"element": "H" 
			},
			{
				"x": -2.00462956,
				"y": -2.5440813319,
				"z": 1.6486004968,
				"element": "H" 
			},
			{
				"x": 0.0796478286,
				"y": -1.9946286284,
				"z": 2.7423949787,
				"element": "H" 
			},
			{
				"x": 0.8615042571,
				"y": -1.586640842,
				"z": 1.2318530329,
				"element": "H" 
			},
			{
				"x": 2.9926723086,
				"y": 1.4701574247,
				"z": -3.0756916174,
				"element": "H" 
			}
		],
		 "valence_orbital": [ 
			{
				"type": "occ",
				"energy": -0.28642,
				"method": "rhf"
			},
			{
				"type": "occ",
				"energy": -0.28375,
				"method": "rhf"
			},
			{
				"type": "occ",
				"energy": -0.28019,
				"method": "rhf"
			},
			{
				"type": "occ",
				"energy": -0.25746,
				"method": "rhf"
			},
			{
				"type": "occ",
				"energy": -0.24505,
				"method": "rhf"
			},
			{
				"type": "unocc",
				"energy": -0.00995,
				"method": "rhf"
			},
			{
				"type": "unocc",
				"energy": 0.02387,
				"method": "rhf"
			},
			{
				"type": "unocc",
				"energy": 0.02746,
				"method": "rhf"
			},
			{
				"type": "unocc",
				"energy": 0.07489,
				"method": "rhf"
			},
			{
				"type": "unocc",
				"energy": 0.07881,
				"method": "rhf"
			}
		],
		"cosmo_sigma_profile": { 
			"-0.025": 0.0,
			"-0.024": 0.0,
			"-0.023": 0.0,
			"-0.022": 0.0,
			"-0.021": 0.0,
			"-0.02": 0.0,
			"-0.019": 0.650181032716,
			"-0.018": 1.54724701196,
			"-0.017": 1.18114142515,
			"-0.016": 1.16154048419,
			"-0.015": 1.09674222102,
			"-0.014": 1.70043249708,
			"-0.013": 2.65068284775,
			"-0.012": 1.88472313965,
			"-0.011": 3.02891980906,
			"-0.01": 4.40168116191,
			"-0.009": 3.2800985611,
			"-0.008": 3.25593109219,
			"-0.007": 3.53566390928,
			"-0.006": 2.88527244074,
			"-0.005": 7.91478953777,
			"-0.004": 12.6613316971,
			"-0.003": 12.6132334913,
			"-0.002": 27.3308705045,
			"-0.001": 32.0087084318,
			"0.0": 32.5861564919,
			"0.001": 27.6583117149,
			"0.002": 14.9969755501,
			"0.003": 6.49697860101,
			"0.004": 5.89738621906,
			"0.005": 6.69968790194,
			"0.006": 5.65987447951,
			"0.007": 4.08603494906,
			"0.008": 4.76306642807,
			"0.009": 5.10599704635,
			"0.01": 6.57075858165,
			"0.011": 4.24607342892,
			"0.012": 3.88567840204,
			"0.013": 3.67046592364,
			"0.014": 5.02976964045,
			"0.015": 0.47344107717,
			"0.016": 0.0,
			"0.017": 0.0,
			"0.018": 0.0,
			"0.019": 0.0,
			"0.02": 0.0,
			"0.021": 0.0,
			"0.022": 0.0,
			"0.023": 0.0,
			"0.024": 0.0,
			"0.025": 0.0
		}
	}
}
