{
	 "smiles": "CC1=CSC(=N1)N1CCCC(C1)C(O)=O", 
	 "Tm": 421.15, 
	 "num_atms": 29, 
	 "gaussian": { 
		 "optdone": 1, 
		 "sigma_profile": "yes", 
		 "theory": "DFT", 
		 "functional": "B3LYP", 
		 "basiset": "6-31G**", 
		 "properties": { 
			 "R2extent": 4541.8879, 
			 "electric_dipole_moment_norm": 3.58771658162, 
			 "electric_quadrupole_moment_norm": 14.9738465776, 
			 "total_energy": -1047.64597128, 
			 "HOMO_LUMO_gap": 0.19142, 
			 "cosmo_polarized_energy": -17.37, 
			 "cosmo_cavitation_energy": 32.61, 
			 "cosmo_dispersion_energy": -24.27, 
			 "cosmo_repulsion_energy": 1.87, 
			 "cosmo_total_nonelectrostatic_energy": 10.22, 
			 "SMD_solvation_energy": 4.56 
		},
		"coords": [
			{
				"x": -2.0874855833,
				"y": 3.2313055211,
				"z": 2.9679189959,
				"element": "C" 
			},
			{
				"x": -1.6237778355,
				"y": 2.8409564727,
				"z": 1.5954862034,
				"element": "C" 
			},
			{
				"x": -1.6927529216,
				"y": 3.6244716594,
				"z": 0.4832430421,
				"element": "C" 
			},
			{
				"x": -1.0324890301,
				"y": 2.7787788854,
				"z": -0.9007817827,
				"element": "S" 
			},
			{
				"x": -0.7244904815,
				"y": 1.3924532702,
				"z": 0.1709754074,
				"element": "C" 
			},
			{
				"x": -1.0728977039,
				"y": 1.5846929785,
				"z": 1.4165266147,
				"element": "N" 
			},
			{
				"x": -0.1826570384,
				"y": 0.2369635758,
				"z": -0.3162918348,
				"element": "N" 
			},
			{
				"x": 0.2874847083,
				"y": 0.146800491,
				"z": -1.6970534425,
				"element": "C" 
			},
			{
				"x": 0.586050372,
				"y": -1.3185938957,
				"z": -2.0568688774,
				"element": "C" 
			},
			{
				"x": -0.4471356593,
				"y": -2.2375356278,
				"z": -1.3970124527,
				"element": "C" 
			},
			{
				"x": -0.2922361312,
				"y": -2.1907158104,
				"z": 0.156704919,
				"element": "C" 
			},
			{
				"x": 0.2406990576,
				"y": -0.8115736672,
				"z": 0.6089853913,
				"element": "C" 
			},
			{
				"x": 0.6675221679,
				"y": -3.2977574913,
				"z": 0.5948676711,
				"element": "C" 
			},
			{
				"x": 0.1084721063,
				"y": -4.5242338597,
				"z": 0.7740264887,
				"element": "O" 
			},
			{
				"x": 1.8594803775,
				"y": -3.1579326966,
				"z": 0.7264617031,
				"element": "O" 
			},
			{
				"x": -2.8580109767,
				"y": 2.5402245861,
				"z": 3.3273785834,
				"element": "H" 
			},
			{
				"x": -1.2578857735,
				"y": 3.1880636235,
				"z": 3.6822275138,
				"element": "H" 
			},
			{
				"x": -2.4990431499,
				"y": 4.2436055338,
				"z": 2.9751041398,
				"element": "H" 
			},
			{
				"x": -2.0773508684,
				"y": 4.6287104889,
				"z": 0.3833948408,
				"element": "H" 
			},
			{
				"x": -0.5067487151,
				"y": 0.5265449025,
				"z": -2.3534696728,
				"element": "H" 
			},
			{
				"x": 1.1750194507,
				"y": 0.7780701908,
				"z": -1.8614198556,
				"element": "H" 
			},
			{
				"x": 0.5695273372,
				"y": -1.428020762,
				"z": -3.1455547327,
				"element": "H" 
			},
			{
				"x": 1.5903132866,
				"y": -1.6027543245,
				"z": -1.7243474914,
				"element": "H" 
			},
			{
				"x": -0.3475209548,
				"y": -3.2656724012,
				"z": -1.7614985887,
				"element": "H" 
			},
			{
				"x": -1.4560999765,
				"y": -1.9024189938,
				"z": -1.661887753,
				"element": "H" 
			},
			{
				"x": -1.2749435743,
				"y": -2.3693345592,
				"z": 0.611546423,
				"element": "H" 
			},
			{
				"x": -0.1319929413,
				"y": -0.5474874419,
				"z": 1.5976463691,
				"element": "H" 
			},
			{
				"x": 1.335022749,
				"y": -0.859103918,
				"z": 0.6610849404,
				"element": "H" 
			},
			{
				"x": -0.8516722979,
				"y": -4.4723067305,
				"z": 0.6650072374,
				"element": "H" 
			}
		],
		 "valence_orbital": [ 
			{
				"type": "occ",
				"energy": -0.28784,
				"method": "rhf"
			},
			{
				"type": "occ",
				"energy": -0.27563,
				"method": "rhf"
			},
			{
				"type": "occ",
				"energy": -0.26317,
				"method": "rhf"
			},
			{
				"type": "occ",
				"energy": -0.25692,
				"method": "rhf"
			},
			{
				"type": "occ",
				"energy": -0.19145,
				"method": "rhf"
			},
			{
				"type": "unocc",
				"energy": -3e-05,
				"method": "rhf"
			},
			{
				"type": "unocc",
				"energy": 0.00994,
				"method": "rhf"
			},
			{
				"type": "unocc",
				"energy": 0.02443,
				"method": "rhf"
			},
			{
				"type": "unocc",
				"energy": 0.04617,
				"method": "rhf"
			},
			{
				"type": "unocc",
				"energy": 0.06601,
				"method": "rhf"
			}
		],
		"cosmo_sigma_profile": { 
			"-0.025": 0.0,
			"-0.024": 0.0,
			"-0.023": 0.0,
			"-0.022": 0.0,
			"-0.021": 0.0,
			"-0.02": 0.000742355935996,
			"-0.019": 0.5457594431,
			"-0.018": 1.09920389071,
			"-0.017": 0.522014544971,
			"-0.016": 1.59264353633,
			"-0.015": 0.944795900871,
			"-0.014": 1.00212880647,
			"-0.013": 0.879333142293,
			"-0.012": 1.51706446924,
			"-0.011": 1.17709305599,
			"-0.01": 1.20493837448,
			"-0.009": 1.36289415832,
			"-0.008": 2.24677439925,
			"-0.007": 3.93841555925,
			"-0.006": 6.55228229679,
			"-0.005": 13.1908906419,
			"-0.004": 27.6042483425,
			"-0.003": 27.1917186738,
			"-0.002": 24.7882429264,
			"-0.001": 21.3175906336,
			"0.0": 15.69893995,
			"0.001": 12.8555285955,
			"0.002": 12.049837716,
			"0.003": 12.2825518712,
			"0.004": 11.8446603985,
			"0.005": 13.2411457927,
			"0.006": 7.50690494113,
			"0.007": 5.17249324208,
			"0.008": 4.66922516716,
			"0.009": 3.46055133694,
			"0.01": 6.06307182143,
			"0.011": 6.59162708522,
			"0.012": 5.95826051403,
			"0.013": 2.19355546392,
			"0.014": 0.0941719550136,
			"0.015": 0.0,
			"0.016": 0.0,
			"0.017": 0.0,
			"0.018": 0.0,
			"0.019": 0.0,
			"0.02": 0.0,
			"0.021": 0.0,
			"0.022": 0.0,
			"0.023": 0.0,
			"0.024": 0.0,
			"0.025": 0.0
		}
	}
}
