{
	 "smiles": "CNC1=CC=C(N)C2=C1C(=O)C1=C(C=CC=C1)C2=O", 
	 "Tm": 466.15, 
	 "num_atms": 31, 
	 "gaussian": { 
		 "optdone": 1, 
		 "sigma_profile": "yes", 
		 "theory": "DFT", 
		 "functional": "B3LYP", 
		 "basiset": "6-31G**", 
		 "properties": { 
			 "R2extent": 4919.2385, 
			 "electric_dipole_moment_norm": 3.4947580188, 
			 "electric_quadrupole_moment_norm": 26.3369085388, 
			 "total_energy": -838.796732947, 
			 "HOMO_LUMO_gap": 0.09941, 
			 "cosmo_polarized_energy": -17.15, 
			 "cosmo_cavitation_energy": 33.72, 
			 "cosmo_dispersion_energy": -25.32, 
			 "cosmo_repulsion_energy": 1.88, 
			 "cosmo_total_nonelectrostatic_energy": 10.29, 
			 "SMD_solvation_energy": 5.29 
		},
		"coords": [
			{
				"x": 1.3017894933,
				"y": -3.150962702,
				"z": -2.2467915802,
				"element": "C" 
			},
			{
				"x": 2.3877071018,
				"y": -2.7185727133,
				"z": -1.3773367188,
				"element": "N" 
			},
			{
				"x": 2.5133889125,
				"y": -1.460564387,
				"z": -0.8201808724,
				"element": "C" 
			},
			{
				"x": 3.8354919956,
				"y": -0.933789184,
				"z": -0.7556408832,
				"element": "C" 
			},
			{
				"x": 4.099043681,
				"y": 0.3406174777,
				"z": -0.3371162779,
				"element": "C" 
			},
			{
				"x": 3.0494100247,
				"y": 1.2258556653,
				"z": 0.0315629559,
				"element": "C" 
			},
			{
				"x": 3.3564249487,
				"y": 2.5043351193,
				"z": 0.3739527012,
				"element": "N" 
			},
			{
				"x": 1.7223378287,
				"y": 0.7205457772,
				"z": 0.0407870118,
				"element": "C" 
			},
			{
				"x": 1.4611593894,
				"y": -0.6522475747,
				"z": -0.3285897799,
				"element": "C" 
			},
			{
				"x": 0.1322878862,
				"y": -1.2323017018,
				"z": -0.0338181445,
				"element": "C" 
			},
			{
				"x": -0.0747694469,
				"y": -2.4489300184,
				"z": -0.0001591729,
				"element": "O" 
			},
			{
				"x": -0.9841222047,
				"y": -0.2980436351,
				"z": 0.2854680336,
				"element": "C" 
			},
			{
				"x": -0.750724049,
				"y": 1.0702100597,
				"z": 0.4876726286,
				"element": "C" 
			},
			{
				"x": -1.8210781307,
				"y": 1.9243490851,
				"z": 0.7888188637,
				"element": "C" 
			},
			{
				"x": -3.1127339551,
				"y": 1.4172316289,
				"z": 0.8796156745,
				"element": "C" 
			},
			{
				"x": -3.3456065695,
				"y": 0.0489239587,
				"z": 0.6837950068,
				"element": "C" 
			},
			{
				"x": -2.2862011114,
				"y": -0.8048328021,
				"z": 0.3949436704,
				"element": "C" 
			},
			{
				"x": 0.6275771208,
				"y": 1.618323577,
				"z": 0.42693355,
				"element": "C" 
			},
			{
				"x": 0.8059634095,
				"y": 2.8208316954,
				"z": 0.7038810033,
				"element": "O" 
			},
			{
				"x": 0.86982332,
				"y": -2.2991148035,
				"z": -2.7882146912,
				"element": "H" 
			},
			{
				"x": 0.4990727991,
				"y": -3.6287964896,
				"z": -1.6823867897,
				"element": "H" 
			},
			{
				"x": 1.7092940956,
				"y": -3.8533286383,
				"z": -2.9793874729,
				"element": "H" 
			},
			{
				"x": 3.2810403946,
				"y": -3.1147991647,
				"z": -1.628906736,
				"element": "H" 
			},
			{
				"x": 4.6597898148,
				"y": -1.5656440598,
				"z": -1.0805221094,
				"element": "H" 
			},
			{
				"x": 5.1233877067,
				"y": 0.7041929305,
				"z": -0.31649881,
				"element": "H" 
			},
			{
				"x": 2.5841589979,
				"y": 3.1222281207,
				"z": 0.6023008654,
				"element": "H" 
			},
			{
				"x": 4.3088114191,
				"y": 2.8237822733,
				"z": 0.3250922984,
				"element": "H" 
			},
			{
				"x": -1.6090091812,
				"y": 2.9754231902,
				"z": 0.9508042242,
				"element": "H" 
			},
			{
				"x": -3.9412655156,
				"y": 2.0814815377,
				"z": 1.1085002326,
				"element": "H" 
			},
			{
				"x": -4.3547771397,
				"y": -0.3459656391,
				"z": 0.7601499044,
				"element": "H" 
			},
			{
				"x": -2.4353730361,
				"y": -1.8691385829,
				"z": 0.2491714142,
				"element": "H" 
			}
		],
		 "valence_orbital": [ 
			{
				"type": "occ",
				"energy": -0.25126,
				"method": "rhf"
			},
			{
				"type": "occ",
				"energy": -0.25072,
				"method": "rhf"
			},
			{
				"type": "occ",
				"energy": -0.24778,
				"method": "rhf"
			},
			{
				"type": "occ",
				"energy": -0.23631,
				"method": "rhf"
			},
			{
				"type": "occ",
				"energy": -0.18271,
				"method": "rhf"
			},
			{
				"type": "unocc",
				"energy": -0.0833,
				"method": "rhf"
			},
			{
				"type": "unocc",
				"energy": -0.03412,
				"method": "rhf"
			},
			{
				"type": "unocc",
				"energy": -0.01118,
				"method": "rhf"
			},
			{
				"type": "unocc",
				"energy": 0.01564,
				"method": "rhf"
			},
			{
				"type": "unocc",
				"energy": 0.06538,
				"method": "rhf"
			}
		],
		"cosmo_sigma_profile": { 
			"-0.025": 0.0,
			"-0.024": 0.0,
			"-0.023": 0.0,
			"-0.022": 0.0,
			"-0.021": 0.0,
			"-0.02": 0.0,
			"-0.019": 0.0,
			"-0.018": 0.0,
			"-0.017": 0.0,
			"-0.016": 0.0,
			"-0.015": 0.0,
			"-0.014": 1.31954606936,
			"-0.013": 3.26259131092,
			"-0.012": 3.44150878399,
			"-0.011": 2.64312026874,
			"-0.01": 2.86474557167,
			"-0.009": 3.42505025528,
			"-0.008": 5.09946810881,
			"-0.007": 7.06160453397,
			"-0.006": 11.753900313,
			"-0.005": 13.1782934496,
			"-0.004": 14.9792064393,
			"-0.003": 13.1214931276,
			"-0.002": 17.0200079982,
			"-0.001": 20.2633640845,
			"0.0": 19.9923246028,
			"0.001": 17.4365551163,
			"0.002": 26.0968799413,
			"0.003": 30.9943472081,
			"0.004": 16.5737967872,
			"0.005": 6.74148934861,
			"0.006": 5.08506228337,
			"0.007": 4.54767037339,
			"0.008": 3.62791326998,
			"0.009": 3.98126934724,
			"0.01": 3.58168146508,
			"0.011": 4.06899405221,
			"0.012": 4.32557238885,
			"0.013": 3.33535027261,
			"0.014": 0.310802870049,
			"0.015": 0.0,
			"0.016": 0.0,
			"0.017": 0.0,
			"0.018": 0.0,
			"0.019": 0.0,
			"0.02": 0.0,
			"0.021": 0.0,
			"0.022": 0.0,
			"0.023": 0.0,
			"0.024": 0.0,
			"0.025": 0.0
		}
	}
}
