{
	 "smiles": "CC(C)(C)C1=C(Cl)N=C(C=N1)C(=O)NC1=CC(Br)=CC=C1", 
	 "Tm": 378.15, 
	 "num_atms": 36, 
	 "gaussian": { 
		 "optdone": 1, 
		 "sigma_profile": "yes", 
		 "theory": "DFT", 
		 "functional": "B3LYP", 
		 "basiset": "6-31G**", 
		 "properties": { 
			 "R2extent": 8870.1769, 
			 "electric_dipole_moment_norm": 1.68900698341, 
			 "electric_quadrupole_moment_norm": 17.6607863508, 
			 "total_energy": -3851.71998519, 
			 "HOMO_LUMO_gap": 0.1643, 
			 "cosmo_polarized_energy": -12.96, 
			 "cosmo_cavitation_energy": 43.55, 
			 "cosmo_dispersion_energy": -29.38, 
			 "cosmo_repulsion_energy": 2.27, 
			 "cosmo_total_nonelectrostatic_energy": 16.44, 
			 "SMD_solvation_energy": 5.29 
		},
		"coords": [
			{
				"x": -2.5443543876,
				"y": 0.9406637561,
				"z": -4.1563784142,
				"element": "C" 
			},
			{
				"x": -1.6726834873,
				"y": -0.156794375,
				"z": -3.5123336665,
				"element": "C" 
			},
			{
				"x": -2.6204947589,
				"y": -1.1943226252,
				"z": -2.8611201687,
				"element": "C" 
			},
			{
				"x": -0.8333697334,
				"y": -0.8157151521,
				"z": -4.6353559463,
				"element": "C" 
			},
			{
				"x": -0.7500362843,
				"y": 0.468416062,
				"z": -2.4509716677,
				"element": "C" 
			},
			{
				"x": 0.1853112406,
				"y": -0.217953382,
				"z": -1.6255139287,
				"element": "C" 
			},
			{
				"x": 0.4673606334,
				"y": -1.9585224368,
				"z": -1.7333312332,
				"element": "Cl" 
			},
			{
				"x": 0.9248021248,
				"y": 0.3798172605,
				"z": -0.715236859,
				"element": "N" 
			},
			{
				"x": 0.8054380494,
				"y": 1.7057711439,
				"z": -0.5746578553,
				"element": "C" 
			},
			{
				"x": -0.0747980438,
				"y": 2.416862691,
				"z": -1.3877056836,
				"element": "C" 
			},
			{
				"x": -0.8376860003,
				"y": 1.7964251713,
				"z": -2.2889764337,
				"element": "N" 
			},
			{
				"x": 1.6911574153,
				"y": 2.4533531881,
				"z": 0.3844478148,
				"element": "C" 
			},
			{
				"x": 1.9695501239,
				"y": 3.6259049125,
				"z": 0.1586668652,
				"element": "O" 
			},
			{
				"x": 2.2345694108,
				"y": 1.7941035704,
				"z": 1.4634728667,
				"element": "N" 
			},
			{
				"x": 1.8290643501,
				"y": 0.6143975666,
				"z": 2.1395536933,
				"element": "C" 
			},
			{
				"x": 0.475547308,
				"y": 0.3391167594,
				"z": 2.3720037282,
				"element": "C" 
			},
			{
				"x": 0.1303758698,
				"y": -0.8119306022,
				"z": 3.072954956,
				"element": "C" 
			},
			{
				"x": -1.7196491028,
				"y": -1.1903947219,
				"z": 3.3730040236,
				"element": "Br" 
			},
			{
				"x": 1.0957287287,
				"y": -1.6792348441,
				"z": 3.5815583298,
				"element": "C" 
			},
			{
				"x": 2.4410132157,
				"y": -1.3756398205,
				"z": 3.3688566492,
				"element": "C" 
			},
			{
				"x": 2.8118537425,
				"y": -0.2424835953,
				"z": 2.647621532,
				"element": "C" 
			},
			{
				"x": -1.9372632851,
				"y": 1.7043388578,
				"z": -4.6478517356,
				"element": "H" 
			},
			{
				"x": -3.1955999947,
				"y": 0.4787410658,
				"z": -4.9054901234,
				"element": "H" 
			},
			{
				"x": -3.1708240247,
				"y": 1.4459900159,
				"z": -3.417431121,
				"element": "H" 
			},
			{
				"x": -3.3001233953,
				"y": -1.5883127257,
				"z": -3.6239590946,
				"element": "H" 
			},
			{
				"x": -3.2302787627,
				"y": -0.7273018136,
				"z": -2.0806234783,
				"element": "H" 
			},
			{
				"x": -2.0869299086,
				"y": -2.0373960519,
				"z": -2.4209029107,
				"element": "H" 
			},
			{
				"x": -0.1766961874,
				"y": -0.0799939671,
				"z": -5.1114156332,
				"element": "H" 
			},
			{
				"x": -0.2194192235,
				"y": -1.6419470367,
				"z": -4.275009645,
				"element": "H" 
			},
			{
				"x": -1.5071332438,
				"y": -1.2081518363,
				"z": -5.4042196938,
				"element": "H" 
			},
			{
				"x": -0.1582743369,
				"y": 3.4960813611,
				"z": -1.3052480162,
				"element": "H" 
			},
			{
				"x": 2.9319640398,
				"y": 2.3639446526,
				"z": 1.9283600191,
				"element": "H" 
			},
			{
				"x": -0.2924812145,
				"y": 1.0173525777,
				"z": 2.0216498635,
				"element": "H" 
			},
			{
				"x": 0.8021869973,
				"y": -2.5649994583,
				"z": 4.1321038155,
				"element": "H" 
			},
			{
				"x": 3.2066612596,
				"y": -2.039041745,
				"z": 3.7594177147,
				"element": "H" 
			},
			{
				"x": 3.858810866,
				"y": -0.0234444229,
				"z": 2.4622614371,
				"element": "H" 
			}
		],
		 "valence_orbital": [ 
			{
				"type": "occ",
				"energy": -0.28537,
				"method": "rhf"
			},
			{
				"type": "occ",
				"energy": -0.26838,
				"method": "rhf"
			},
			{
				"type": "occ",
				"energy": -0.25806,
				"method": "rhf"
			},
			{
				"type": "occ",
				"energy": -0.25366,
				"method": "rhf"
			},
			{
				"type": "occ",
				"energy": -0.23998,
				"method": "rhf"
			},
			{
				"type": "unocc",
				"energy": -0.07568,
				"method": "rhf"
			},
			{
				"type": "unocc",
				"energy": -0.05403,
				"method": "rhf"
			},
			{
				"type": "unocc",
				"energy": -0.02195,
				"method": "rhf"
			},
			{
				"type": "unocc",
				"energy": -0.01997,
				"method": "rhf"
			},
			{
				"type": "unocc",
				"energy": 0.00095,
				"method": "rhf"
			}
		],
		"cosmo_sigma_profile": { 
			"-0.025": 0.0,
			"-0.024": 0.0,
			"-0.023": 0.0,
			"-0.022": 0.0,
			"-0.021": 0.0,
			"-0.02": 0.0,
			"-0.019": 0.0,
			"-0.018": 0.0,
			"-0.017": 0.0,
			"-0.016": 0.0,
			"-0.015": 0.649982131362,
			"-0.014": 1.47107127042,
			"-0.013": 0.851530087671,
			"-0.012": 0.53672583585,
			"-0.011": 1.15370370658,
			"-0.01": 1.37866403151,
			"-0.009": 1.3404180534,
			"-0.008": 4.66807356028,
			"-0.007": 9.20238609943,
			"-0.006": 10.4753737378,
			"-0.005": 12.3877163004,
			"-0.004": 16.9025423495,
			"-0.003": 33.5164300469,
			"-0.002": 32.036364664,
			"-0.001": 35.4126890695,
			"0.0": 38.2911826458,
			"0.001": 37.4592812656,
			"0.002": 25.5491735767,
			"0.003": 23.6496932607,
			"0.004": 23.821885326,
			"0.005": 11.5163870472,
			"0.006": 5.79823535978,
			"0.007": 3.72825782913,
			"0.008": 3.17814994272,
			"0.009": 3.26657844603,
			"0.01": 3.73179838208,
			"0.011": 2.70131065897,
			"0.012": 4.76535794184,
			"0.013": 2.22980635737,
			"0.014": 0.0201515094859,
			"0.015": 0.0,
			"0.016": 0.0,
			"0.017": 0.0,
			"0.018": 0.0,
			"0.019": 0.0,
			"0.02": 0.0,
			"0.021": 0.0,
			"0.022": 0.0,
			"0.023": 0.0,
			"0.024": 0.0,
			"0.025": 0.0
		}
	}
}
