{
	 "smiles": "OC(=O)C1=NOC(=N1)C1=C(F)C(F)=CC=C1", 
	 "Tm": 387.15, 
	 "num_atms": 20, 
	 "gaussian": { 
		 "optdone": 1, 
		 "sigma_profile": "yes", 
		 "theory": "DFT", 
		 "functional": "B3LYP", 
		 "basiset": "6-31G**", 
		 "properties": { 
			 "R2extent": 5113.7852, 
			 "electric_dipole_moment_norm": 7.49979278647, 
			 "electric_quadrupole_moment_norm": 21.4368022706, 
			 "total_energy": -880.16322742, 
			 "HOMO_LUMO_gap": 0.18497, 
			 "cosmo_polarized_energy": -14.7, 
			 "cosmo_cavitation_energy": 27.73, 
			 "cosmo_dispersion_energy": -20.28, 
			 "cosmo_repulsion_energy": 1.52, 
			 "cosmo_total_nonelectrostatic_energy": 8.97, 
			 "SMD_solvation_energy": 5.84 
		},
		"coords": [
			{
				"x": -2.9090122862,
				"y": 1.7269502306,
				"z": 3.8776471923,
				"element": "O" 
			},
			{
				"x": -3.572463536,
				"y": 2.0618699444,
				"z": 2.7542270588,
				"element": "C" 
			},
			{
				"x": -4.6934169419,
				"y": 2.4975236388,
				"z": 2.7512893978,
				"element": "O" 
			},
			{
				"x": -2.7572374301,
				"y": 1.8304191082,
				"z": 1.5123857046,
				"element": "C" 
			},
			{
				"x": -3.1908195121,
				"y": 2.0816906465,
				"z": 0.3019588078,
				"element": "N" 
			},
			{
				"x": -2.1062889427,
				"y": 1.7152792135,
				"z": -0.4972677596,
				"element": "O" 
			},
			{
				"x": -1.1280141123,
				"y": 1.2792712904,
				"z": 0.3213404951,
				"element": "C" 
			},
			{
				"x": -1.4812825679,
				"y": 1.3301426853,
				"z": 1.5815974521,
				"element": "N" 
			},
			{
				"x": 0.1486394437,
				"y": 0.820246679,
				"z": -0.2147909886,
				"element": "C" 
			},
			{
				"x": 0.4306524261,
				"y": 0.8036591922,
				"z": -1.5870724386,
				"element": "C" 
			},
			{
				"x": -0.4650203636,
				"y": 1.2120491363,
				"z": -2.4893655105,
				"element": "F" 
			},
			{
				"x": 1.670880642,
				"y": 0.3533037017,
				"z": -2.0421242557,
				"element": "C" 
			},
			{
				"x": 1.9012882894,
				"y": 0.3532029541,
				"z": -3.3620398424,
				"element": "F" 
			},
			{
				"x": 2.6423081355,
				"y": -0.08360636,
				"z": -1.1546073442,
				"element": "C" 
			},
			{
				"x": 2.36877994,
				"y": -0.0703542235,
				"z": 0.2173601235,
				"element": "C" 
			},
			{
				"x": 1.1390630344,
				"y": 0.3752017632,
				"z": 0.6832370074,
				"element": "C" 
			},
			{
				"x": -2.0243449092,
				"y": 1.3999602947,
				"z": 3.6343796456,
				"element": "H" 
			},
			{
				"x": 3.5935556761,
				"y": -0.4260565273,
				"z": -1.5472150996,
				"element": "H" 
			},
			{
				"x": 3.1230794432,
				"y": -0.4104503545,
				"z": 0.9185155744,
				"element": "H" 
			},
			{
				"x": 0.9159535717,
				"y": 0.3899969864,
				"z": 1.74344478,
				"element": "H" 
			}
		],
		 "valence_orbital": [ 
			{
				"type": "occ",
				"energy": -0.33512,
				"method": "rhf"
			},
			{
				"type": "occ",
				"energy": -0.32493,
				"method": "rhf"
			},
			{
				"type": "occ",
				"energy": -0.29013,
				"method": "rhf"
			},
			{
				"type": "occ",
				"energy": -0.2811,
				"method": "rhf"
			},
			{
				"type": "occ",
				"energy": -0.27787,
				"method": "rhf"
			},
			{
				"type": "unocc",
				"energy": -0.0929,
				"method": "rhf"
			},
			{
				"type": "unocc",
				"energy": -0.06023,
				"method": "rhf"
			},
			{
				"type": "unocc",
				"energy": -0.03435,
				"method": "rhf"
			},
			{
				"type": "unocc",
				"energy": 0.01624,
				"method": "rhf"
			},
			{
				"type": "unocc",
				"energy": 0.04418,
				"method": "rhf"
			}
		],
		"cosmo_sigma_profile": { 
			"-0.025": 0.0,
			"-0.024": 0.0,
			"-0.023": 0.0,
			"-0.022": 0.0,
			"-0.021": 0.0,
			"-0.02": 0.0,
			"-0.019": 0.0,
			"-0.018": 0.0,
			"-0.017": 0.0,
			"-0.016": 0.228364866594,
			"-0.015": 0.772277307475,
			"-0.014": 0.269693408224,
			"-0.013": 0.50762812585,
			"-0.012": 1.11602100022,
			"-0.011": 0.812332639017,
			"-0.01": 0.702554388981,
			"-0.009": 2.90891175949,
			"-0.008": 6.70001952977,
			"-0.007": 10.5481175241,
			"-0.006": 13.4404158393,
			"-0.005": 10.6965774299,
			"-0.004": 12.099392989,
			"-0.003": 14.1550409654,
			"-0.002": 16.4420160935,
			"-0.001": 17.0277003753,
			"0.0": 14.2851282077,
			"0.001": 14.5725306118,
			"0.002": 15.449689268,
			"0.003": 22.1303459961,
			"0.004": 9.10547829908,
			"0.005": 6.31997180156,
			"0.006": 4.90071041883,
			"0.007": 4.94857008494,
			"0.008": 5.53977996083,
			"0.009": 7.31764274848,
			"0.01": 7.42609969957,
			"0.011": 4.59911926811,
			"0.012": 0.42400763486,
			"0.013": 0.0,
			"0.014": 0.0,
			"0.015": 0.0,
			"0.016": 0.0,
			"0.017": 0.0,
			"0.018": 0.0,
			"0.019": 0.0,
			"0.02": 0.0,
			"0.021": 0.0,
			"0.022": 0.0,
			"0.023": 0.0,
			"0.024": 0.0,
			"0.025": 0.0
		}
	}
}
