{
	 "smiles": "COC1=C(CC(C)CC(O)=O)C=CC=C1", 
	 "Tm": 323.15, 
	 "num_atms": 31, 
	 "gaussian": { 
		 "optdone": 1, 
		 "sigma_profile": "yes", 
		 "theory": "DFT", 
		 "functional": "B3LYP", 
		 "basiset": "6-31G**", 
		 "properties": { 
			 "R2extent": 3745.3787, 
			 "electric_dipole_moment_norm": 2.24525741286, 
			 "electric_quadrupole_moment_norm": 11.899786638, 
			 "total_energy": -692.609066759, 
			 "HOMO_LUMO_gap": 0.21515, 
			 "cosmo_polarized_energy": -11.39, 
			 "cosmo_cavitation_energy": 33.15, 
			 "cosmo_dispersion_energy": -22.95, 
			 "cosmo_repulsion_energy": 1.81, 
			 "cosmo_total_nonelectrostatic_energy": 12.01, 
			 "SMD_solvation_energy": 7.18 
		},
		"coords": [
			{
				"x": 3.3605917472,
				"y": -2.4926562383,
				"z": -1.1956556155,
				"element": "C" 
			},
			{
				"x": 2.0849955695,
				"y": -1.9969627879,
				"z": -0.827036609,
				"element": "O" 
			},
			{
				"x": 1.9801080563,
				"y": -1.2325365457,
				"z": 0.3057795143,
				"element": "C" 
			},
			{
				"x": 0.6751225484,
				"y": -0.8068884452,
				"z": 0.6439899772,
				"element": "C" 
			},
			{
				"x": -0.5192598315,
				"y": -1.1816164141,
				"z": -0.2106230829,
				"element": "C" 
			},
			{
				"x": -0.9495789867,
				"y": -0.1434715592,
				"z": -1.2869802816,
				"element": "C" 
			},
			{
				"x": 0.1506577774,
				"y": 0.1416035217,
				"z": -2.3172663573,
				"element": "C" 
			},
			{
				"x": -1.4532179229,
				"y": 1.1729743076,
				"z": -0.668911086,
				"element": "C" 
			},
			{
				"x": -2.721340395,
				"y": 1.0070005753,
				"z": 0.140089597,
				"element": "C" 
			},
			{
				"x": -2.7959519411,
				"y": 1.8997150197,
				"z": 1.160534346,
				"element": "O" 
			},
			{
				"x": -3.6009977736,
				"y": 0.2000473663,
				"z": -0.0729740104,
				"element": "O" 
			},
			{
				"x": 0.5228688875,
				"y": -0.0488590447,
				"z": 1.8093623816,
				"element": "C" 
			},
			{
				"x": 1.6102545558,
				"y": 0.3059062425,
				"z": 2.6127890952,
				"element": "C" 
			},
			{
				"x": 2.8867427471,
				"y": -0.115421727,
				"z": 2.2540375782,
				"element": "C" 
			},
			{
				"x": 3.07588492,
				"y": -0.8880121442,
				"z": 1.1050975991,
				"element": "C" 
			},
			{
				"x": 3.7872649893,
				"y": -3.13621036,
				"z": -0.4154279508,
				"element": "H" 
			},
			{
				"x": 4.0658687463,
				"y": -1.6800117526,
				"z": -1.4132535062,
				"element": "H" 
			},
			{
				"x": 3.2048614093,
				"y": -3.0822552397,
				"z": -2.1006723514,
				"element": "H" 
			},
			{
				"x": -1.3795456836,
				"y": -1.3619556127,
				"z": 0.4435369049,
				"element": "H" 
			},
			{
				"x": -0.3113636043,
				"y": -2.1253518975,
				"z": -0.722319335,
				"element": "H" 
			},
			{
				"x": -1.8045799063,
				"y": -0.5928625865,
				"z": -1.8064798062,
				"element": "H" 
			},
			{
				"x": -0.2208880729,
				"y": 0.7982095032,
				"z": -3.1121426797,
				"element": "H" 
			},
			{
				"x": 0.5070051767,
				"y": -0.784314279,
				"z": -2.7761177742,
				"element": "H" 
			},
			{
				"x": 1.013450979,
				"y": 0.632478014,
				"z": -1.8541344686,
				"element": "H" 
			},
			{
				"x": -1.692369556,
				"y": 1.8846091728,
				"z": -1.4713792195,
				"element": "H" 
			},
			{
				"x": -0.6877940321,
				"y": 1.650990305,
				"z": -0.0512548589,
				"element": "H" 
			},
			{
				"x": -3.6520867428,
				"y": 1.7388120326,
				"z": 1.5932395007,
				"element": "H" 
			},
			{
				"x": -0.4762964486,
				"y": 0.2689292841,
				"z": 2.0968812527,
				"element": "H" 
			},
			{
				"x": 1.4553407588,
				"y": 0.8979291199,
				"z": 3.5095237396,
				"element": "H" 
			},
			{
				"x": 3.7452910864,
				"y": 0.1464204154,
				"z": 2.8659929702,
				"element": "H" 
			},
			{
				"x": 4.0746609426,
				"y": -1.2165382459,
				"z": 0.8434745363,
				"element": "H" 
			}
		],
		 "valence_orbital": [ 
			{
				"type": "occ",
				"energy": -0.315,
				"method": "rhf"
			},
			{
				"type": "occ",
				"energy": -0.30812,
				"method": "rhf"
			},
			{
				"type": "occ",
				"energy": -0.27184,
				"method": "rhf"
			},
			{
				"type": "occ",
				"energy": -0.24102,
				"method": "rhf"
			},
			{
				"type": "occ",
				"energy": -0.21427,
				"method": "rhf"
			},
			{
				"type": "unocc",
				"energy": 0.00088,
				"method": "rhf"
			},
			{
				"type": "unocc",
				"energy": 0.01125,
				"method": "rhf"
			},
			{
				"type": "unocc",
				"energy": 0.01513,
				"method": "rhf"
			},
			{
				"type": "unocc",
				"energy": 0.07732,
				"method": "rhf"
			},
			{
				"type": "unocc",
				"energy": 0.09433,
				"method": "rhf"
			}
		],
		"cosmo_sigma_profile": { 
			"-0.025": 0.0,
			"-0.024": 0.0,
			"-0.023": 0.0,
			"-0.022": 0.0,
			"-0.021": 0.0,
			"-0.02": 0.0,
			"-0.019": 0.0,
			"-0.018": 0.470806354562,
			"-0.017": 0.863553655091,
			"-0.016": 0.920450725002,
			"-0.015": 0.939752085651,
			"-0.014": 0.744462832332,
			"-0.013": 0.448630626816,
			"-0.012": 0.508651454424,
			"-0.011": 0.865694458762,
			"-0.01": 0.80473945105,
			"-0.009": 0.913085464258,
			"-0.008": 0.224134998029,
			"-0.007": 1.29536567415,
			"-0.006": 8.39448795953,
			"-0.005": 18.9888835644,
			"-0.004": 18.9783949496,
			"-0.003": 25.587278733,
			"-0.002": 25.8138853911,
			"-0.001": 25.4240523733,
			"0.0": 20.3514016645,
			"0.001": 19.0392015239,
			"0.002": 16.1942034593,
			"0.003": 13.0527755046,
			"0.004": 12.9037491107,
			"0.005": 11.7857566064,
			"0.006": 10.6930070952,
			"0.007": 7.35031889758,
			"0.008": 2.61837794038,
			"0.009": 3.06241950531,
			"0.01": 2.40881331759,
			"0.011": 2.9772642421,
			"0.012": 4.76647802982,
			"0.013": 0.636725983552,
			"0.014": 0.0,
			"0.015": 0.0,
			"0.016": 0.0,
			"0.017": 0.0,
			"0.018": 0.0,
			"0.019": 0.0,
			"0.02": 0.0,
			"0.021": 0.0,
			"0.022": 0.0,
			"0.023": 0.0,
			"0.024": 0.0,
			"0.025": 0.0
		}
	}
}
