{
	 "smiles": "ClC(Cl)=C(Cl)C(Cl)(Cl)Cl", 
	 "Tm": 200.15, 
	 "num_atms": 9, 
	 "gaussian": { 
		 "optdone": 1, 
		 "sigma_profile": "yes", 
		 "theory": "DFT", 
		 "functional": "B3LYP", 
		 "basiset": "6-31G**", 
		 "properties": { 
			 "R2extent": 3570.5079, 
			 "electric_dipole_moment_norm": 0.751037775348, 
			 "electric_quadrupole_moment_norm": 2.02951145599, 
			 "total_energy": -2875.39774116, 
			 "HOMO_LUMO_gap": 0.19795, 
			 "cosmo_polarized_energy": -2.02, 
			 "cosmo_cavitation_energy": 23.55, 
			 "cosmo_dispersion_energy": -17.96, 
			 "cosmo_repulsion_energy": 1.47, 
			 "cosmo_total_nonelectrostatic_energy": 7.06, 
			 "SMD_solvation_energy": 2.65 
		},
		"coords": [
			{
				"x": -2.0587454258,
				"y": -1.9748479703,
				"z": -2.7854568764,
				"element": "Cl" 
			},
			{
				"x": -1.738617134,
				"y": -0.8187038662,
				"z": -1.5365001667,
				"element": "C" 
			},
			{
				"x": -2.7243735006,
				"y": -1.0446581255,
				"z": -0.1358082471,
				"element": "Cl" 
			},
			{
				"x": -0.8065372448,
				"y": 0.1536644375,
				"z": -1.6668213552,
				"element": "C" 
			},
			{
				"x": 0.0975415141,
				"y": 0.2351045081,
				"z": -3.1485601494,
				"element": "Cl" 
			},
			{
				"x": -0.4896068858,
				"y": 1.201127709,
				"z": -0.583272416,
				"element": "C" 
			},
			{
				"x": 0.0800645366,
				"y": 0.3826369451,
				"z": 0.9295287866,
				"element": "Cl" 
			},
			{
				"x": 0.7994771702,
				"y": 2.3485654016,
				"z": -1.0740159977,
				"element": "Cl" 
			},
			{
				"x": -1.96430303,
				"y": 2.1886109606,
				"z": -0.2182935781,
				"element": "Cl" 
			}
		],
		 "valence_orbital": [ 
			{
				"type": "occ",
				"energy": -0.33909,
				"method": "rhf"
			},
			{
				"type": "occ",
				"energy": -0.33068,
				"method": "rhf"
			},
			{
				"type": "occ",
				"energy": -0.31533,
				"method": "rhf"
			},
			{
				"type": "occ",
				"energy": -0.30897,
				"method": "rhf"
			},
			{
				"type": "occ",
				"energy": -0.27315,
				"method": "rhf"
			},
			{
				"type": "unocc",
				"energy": -0.0752,
				"method": "rhf"
			},
			{
				"type": "unocc",
				"energy": -0.05602,
				"method": "rhf"
			},
			{
				"type": "unocc",
				"energy": -0.05469,
				"method": "rhf"
			},
			{
				"type": "unocc",
				"energy": -0.02041,
				"method": "rhf"
			},
			{
				"type": "unocc",
				"energy": 0.01145,
				"method": "rhf"
			}
		],
		"cosmo_sigma_profile": { 
			"-0.025": 0.0,
			"-0.024": 0.0,
			"-0.023": 0.0,
			"-0.022": 0.0,
			"-0.021": 0.0,
			"-0.02": 0.0,
			"-0.019": 0.0,
			"-0.018": 0.0,
			"-0.017": 0.0,
			"-0.016": 0.0,
			"-0.015": 0.0,
			"-0.014": 0.0,
			"-0.013": 0.0,
			"-0.012": 0.0,
			"-0.011": 0.0,
			"-0.01": 0.0,
			"-0.009": 0.0,
			"-0.008": 0.0,
			"-0.007": 0.0,
			"-0.006": 1.35426392082,
			"-0.005": 7.07734256807,
			"-0.004": 11.0692946927,
			"-0.003": 17.5499234513,
			"-0.002": 18.161423446,
			"-0.001": 17.5743402878,
			"0.0": 23.6757758779,
			"0.001": 34.8216679877,
			"0.002": 50.1115975983,
			"0.003": 20.7307099754,
			"0.004": 0.0,
			"0.005": 0.0,
			"0.006": 0.0,
			"0.007": 0.0,
			"0.008": 0.0,
			"0.009": 0.0,
			"0.01": 0.0,
			"0.011": 0.0,
			"0.012": 0.0,
			"0.013": 0.0,
			"0.014": 0.0,
			"0.015": 0.0,
			"0.016": 0.0,
			"0.017": 0.0,
			"0.018": 0.0,
			"0.019": 0.0,
			"0.02": 0.0,
			"0.021": 0.0,
			"0.022": 0.0,
			"0.023": 0.0,
			"0.024": 0.0,
			"0.025": 0.0
		}
	}
}
