{
	 "smiles": "NNC(=O)COC1=CC=C(C=C1)[N+]([O-])=O", 
	 "Tm": 462.15, 
	 "num_atms": 24, 
	 "gaussian": { 
		 "optdone": 1, 
		 "sigma_profile": "yes", 
		 "theory": "DFT", 
		 "functional": "B3LYP", 
		 "basiset": "6-31G**", 
		 "properties": { 
			 "R2extent": 5292.6591, 
			 "electric_dipole_moment_norm": 6.86967383869, 
			 "electric_quadrupole_moment_norm": 31.7423152046, 
			 "total_energy": -775.285521622, 
			 "HOMO_LUMO_gap": 0.16888, 
			 "cosmo_polarized_energy": -21.19, 
			 "cosmo_cavitation_energy": 30.16, 
			 "cosmo_dispersion_energy": -21.69, 
			 "cosmo_repulsion_energy": 1.74, 
			 "cosmo_total_nonelectrostatic_energy": 10.21, 
			 "SMD_solvation_energy": 9.23 
		},
		"coords": [
			{
				"x": -0.6924556691,
				"y": 2.5136967902,
				"z": 1.4167579475,
				"element": "N" 
			},
			{
				"x": -0.7401746757,
				"y": 3.2225995434,
				"z": 0.2117012725,
				"element": "N" 
			},
			{
				"x": 0.0041959102,
				"y": 2.8701137138,
				"z": -0.8817300704,
				"element": "C" 
			},
			{
				"x": -0.0413576958,
				"y": 3.5075340972,
				"z": -1.9216143517,
				"element": "O" 
			},
			{
				"x": 0.8901358506,
				"y": 1.6353171909,
				"z": -0.7163171973,
				"element": "C" 
			},
			{
				"x": 0.0258360341,
				"y": 0.4981260563,
				"z": -0.6456821342,
				"element": "O" 
			},
			{
				"x": 0.5750800476,
				"y": -0.7283848801,
				"z": -0.4733832553,
				"element": "C" 
			},
			{
				"x": 1.9536041339,
				"y": -0.9758984767,
				"z": -0.37510088,
				"element": "C" 
			},
			{
				"x": 2.4081833875,
				"y": -2.279321803,
				"z": -0.1952505715,
				"element": "C" 
			},
			{
				"x": 1.4896852137,
				"y": -3.3227533635,
				"z": -0.1167079866,
				"element": "C" 
			},
			{
				"x": 0.1140524243,
				"y": -3.0913911334,
				"z": -0.2181220709,
				"element": "C" 
			},
			{
				"x": -0.3392750877,
				"y": -1.7958622686,
				"z": -0.3965842225,
				"element": "C" 
			},
			{
				"x": 1.9734554608,
				"y": -4.6888999523,
				"z": 0.0748958957,
				"element": "N" 
			},
			{
				"x": 3.1910117542,
				"y": -4.8613375487,
				"z": 0.1602948518,
				"element": "O" 
			},
			{
				"x": 1.1348644545,
				"y": -5.5899009288,
				"z": 0.1411172271,
				"element": "O" 
			},
			{
				"x": -1.559666857,
				"y": 2.0046132622,
				"z": 1.5692614769,
				"element": "H" 
			},
			{
				"x": -0.539145031,
				"y": 3.1557691241,
				"z": 2.1890091962,
				"element": "H" 
			},
			{
				"x": -1.3903684882,
				"y": 3.9897573708,
				"z": 0.0693493801,
				"element": "H" 
			},
			{
				"x": 1.5318816762,
				"y": 1.5799941041,
				"z": -1.6005927497,
				"element": "H" 
			},
			{
				"x": 1.4940914675,
				"y": 1.7099694739,
				"z": 0.1944999104,
				"element": "H" 
			},
			{
				"x": 2.6719070199,
				"y": -0.1682861768,
				"z": -0.4399571826,
				"element": "H" 
			},
			{
				"x": 3.4657068497,
				"y": -2.4984522533,
				"z": -0.1160472627,
				"element": "H" 
			},
			{
				"x": -0.570587406,
				"y": -3.9278634239,
				"z": -0.1555466294,
				"element": "H" 
			},
			{
				"x": -1.3980607742,
				"y": -1.5773385177,
				"z": -0.4820505934,
				"element": "H" 
			}
		],
		 "valence_orbital": [ 
			{
				"type": "occ",
				"energy": -0.28203,
				"method": "rhf"
			},
			{
				"type": "occ",
				"energy": -0.2783,
				"method": "rhf"
			},
			{
				"type": "occ",
				"energy": -0.27366,
				"method": "rhf"
			},
			{
				"type": "occ",
				"energy": -0.26464,
				"method": "rhf"
			},
			{
				"type": "occ",
				"energy": -0.24808,
				"method": "rhf"
			},
			{
				"type": "unocc",
				"energy": -0.0792,
				"method": "rhf"
			},
			{
				"type": "unocc",
				"energy": -0.02627,
				"method": "rhf"
			},
			{
				"type": "unocc",
				"energy": -0.00225,
				"method": "rhf"
			},
			{
				"type": "unocc",
				"energy": 0.01416,
				"method": "rhf"
			},
			{
				"type": "unocc",
				"energy": 0.0516,
				"method": "rhf"
			}
		],
		"cosmo_sigma_profile": { 
			"-0.025": 0.0,
			"-0.024": 0.0,
			"-0.023": 0.0,
			"-0.022": 0.0,
			"-0.021": 0.0,
			"-0.02": 0.0,
			"-0.019": 0.0,
			"-0.018": 0.0,
			"-0.017": 0.0,
			"-0.016": 0.0,
			"-0.015": 0.0,
			"-0.014": 1.04723075899,
			"-0.013": 1.67780798393,
			"-0.012": 4.12230505727,
			"-0.011": 5.05240952079,
			"-0.01": 5.18810222547,
			"-0.009": 4.41160329467,
			"-0.008": 7.98897602573,
			"-0.007": 13.4866827957,
			"-0.006": 12.9761705311,
			"-0.005": 11.0884879153,
			"-0.004": 10.2744241337,
			"-0.003": 10.0174868681,
			"-0.002": 10.1366961822,
			"-0.001": 15.7003521011,
			"0.0": 14.3247675773,
			"0.001": 19.8674621519,
			"0.002": 17.2735797632,
			"0.003": 9.42063859393,
			"0.004": 5.45459020597,
			"0.005": 6.14059837576,
			"0.006": 6.28246982112,
			"0.007": 8.32895253935,
			"0.008": 12.099510912,
			"0.009": 6.53012428838,
			"0.01": 6.51118120907,
			"0.011": 3.30673203034,
			"0.012": 2.41850579739,
			"0.013": 5.70780342374,
			"0.014": 2.86591600321,
			"0.015": 0.0485873662873,
			"0.016": 0.0,
			"0.017": 0.0,
			"0.018": 0.0,
			"0.019": 0.0,
			"0.02": 0.0,
			"0.021": 0.0,
			"0.022": 0.0,
			"0.023": 0.0,
			"0.024": 0.0,
			"0.025": 0.0
		}
	}
}
