{
	 "smiles": "CN1N=C(C=C1O)C1=CC=NC=C1", 
	 "Tm": 483.15, 
	 "num_atms": 22, 
	 "gaussian": { 
		 "optdone": 1, 
		 "sigma_profile": "yes", 
		 "theory": "DFT", 
		 "functional": "B3LYP", 
		 "basiset": "6-31G**", 
		 "properties": { 
			 "R2extent": 3110.2879, 
			 "electric_dipole_moment_norm": 5.38016177917, 
			 "electric_quadrupole_moment_norm": 15.1173657206, 
			 "total_energy": -587.83139639, 
			 "HOMO_LUMO_gap": 0.18917, 
			 "cosmo_polarized_energy": -14.94, 
			 "cosmo_cavitation_energy": 26.53, 
			 "cosmo_dispersion_energy": -19.79, 
			 "cosmo_repulsion_energy": 1.55, 
			 "cosmo_total_nonelectrostatic_energy": 8.29, 
			 "SMD_solvation_energy": 3.0 
		},
		"coords": [
			{
				"x": -0.721017301,
				"y": -2.9014225576,
				"z": -1.8348837821,
				"element": "C" 
			},
			{
				"x": -1.0038785088,
				"y": -1.7435870559,
				"z": -1.0093558034,
				"element": "N" 
			},
			{
				"x": -0.0789511532,
				"y": -1.2801079914,
				"z": -0.1339664158,
				"element": "N" 
			},
			{
				"x": -0.6506528662,
				"y": -0.2241313441,
				"z": 0.4544441438,
				"element": "C" 
			},
			{
				"x": -1.9626522642,
				"y": 0.0019733283,
				"z": -0.0436207186,
				"element": "C" 
			},
			{
				"x": -2.1392720626,
				"y": -0.9991043924,
				"z": -0.9787020306,
				"element": "C" 
			},
			{
				"x": -3.1622945584,
				"y": -1.3371440967,
				"z": -1.8000117087,
				"element": "O" 
			},
			{
				"x": 0.0792784912,
				"y": 0.5368261279,
				"z": 1.4777932057,
				"element": "C" 
			},
			{
				"x": -0.4837930407,
				"y": 1.6487007812,
				"z": 2.1195922966,
				"element": "C" 
			},
			{
				"x": 0.260389768,
				"y": 2.3285448787,
				"z": 3.0822700071,
				"element": "C" 
			},
			{
				"x": 1.5027557582,
				"y": 1.989716093,
				"z": 3.447604852,
				"element": "N" 
			},
			{
				"x": 2.0360406822,
				"y": 0.9248969985,
				"z": 2.8297977634,
				"element": "C" 
			},
			{
				"x": 1.3819392487,
				"y": 0.1762654743,
				"z": 1.8564157368,
				"element": "C" 
			},
			{
				"x": -0.5144252778,
				"y": -3.7690005085,
				"z": -1.2027254989,
				"element": "H" 
			},
			{
				"x": -1.5900964597,
				"y": -3.1035624157,
				"z": -2.4606853615,
				"element": "H" 
			},
			{
				"x": 0.1488089087,
				"y": -2.7053905305,
				"z": -2.4673171998,
				"element": "H" 
			},
			{
				"x": -2.6695889095,
				"y": 0.7696920275,
				"z": 0.2312890912,
				"element": "H" 
			},
			{
				"x": -3.8883508116,
				"y": -0.7170991247,
				"z": -1.6591342761,
				"element": "H" 
			},
			{
				"x": -1.4868365527,
				"y": 1.9866913821,
				"z": 1.878998274,
				"element": "H" 
			},
			{
				"x": -0.1683447649,
				"y": 3.1935233275,
				"z": 3.5865076077,
				"element": "H" 
			},
			{
				"x": 3.0468446945,
				"y": 0.6551857262,
				"z": 3.132061833,
				"element": "H" 
			},
			{
				"x": 1.8631969799,
				"y": -0.6760661279,
				"z": 1.3904279843,
				"element": "H" 
			}
		],
		 "valence_orbital": [ 
			{
				"type": "occ",
				"energy": -0.29008,
				"method": "rhf"
			},
			{
				"type": "occ",
				"energy": -0.2518,
				"method": "rhf"
			},
			{
				"type": "occ",
				"energy": -0.24329,
				"method": "rhf"
			},
			{
				"type": "occ",
				"energy": -0.23777,
				"method": "rhf"
			},
			{
				"type": "occ",
				"energy": -0.22207,
				"method": "rhf"
			},
			{
				"type": "unocc",
				"energy": -0.0329,
				"method": "rhf"
			},
			{
				"type": "unocc",
				"energy": 0.00064,
				"method": "rhf"
			},
			{
				"type": "unocc",
				"energy": 0.04149,
				"method": "rhf"
			},
			{
				"type": "unocc",
				"energy": 0.04566,
				"method": "rhf"
			},
			{
				"type": "unocc",
				"energy": 0.08868,
				"method": "rhf"
			}
		],
		"cosmo_sigma_profile": { 
			"-0.025": 0.0,
			"-0.024": 0.0,
			"-0.023": 0.0,
			"-0.022": 0.0,
			"-0.021": 0.0,
			"-0.02": 0.0625360450317,
			"-0.019": 1.14830676522,
			"-0.018": 0.874451035591,
			"-0.017": 1.36627303525,
			"-0.016": 0.80795819556,
			"-0.015": 0.9372922989,
			"-0.014": 0.749337763161,
			"-0.013": 0.929329938215,
			"-0.012": 0.829383912938,
			"-0.011": 0.945100059733,
			"-0.01": 1.04665940621,
			"-0.009": 0.810741554732,
			"-0.008": 3.11095649669,
			"-0.007": 4.5156279454,
			"-0.006": 12.6592207711,
			"-0.005": 14.6568150381,
			"-0.004": 14.9776027464,
			"-0.003": 16.3214316378,
			"-0.002": 10.6293361613,
			"-0.001": 8.50660944951,
			"0.0": 11.323452072,
			"0.001": 12.4789269208,
			"0.002": 18.9819057902,
			"0.003": 24.0988643618,
			"0.004": 10.8883730343,
			"0.005": 9.1196822655,
			"0.006": 4.93025382726,
			"0.007": 5.0561599968,
			"0.008": 4.75880843387,
			"0.009": 3.49160572719,
			"0.01": 1.88931033506,
			"0.011": 2.11759658902,
			"0.012": 2.39962242278,
			"0.013": 1.30958329262,
			"0.014": 1.29161238293,
			"0.015": 0.951077834213,
			"0.016": 0.923017918583,
			"0.017": 0.517019624481,
			"0.018": 0.0874720128721,
			"0.019": 0.0,
			"0.02": 0.0,
			"0.021": 0.0,
			"0.022": 0.0,
			"0.023": 0.0,
			"0.024": 0.0,
			"0.025": 0.0
		}
	}
}
