{
	 "smiles": "COC(=O)[C@H](C)ON1C(C)=CSC1=S", 
	 "Tm": 343.0, 
	 "num_atms": 25, 
	 "gaussian": { 
		 "optdone": 1, 
		 "sigma_profile": "yes", 
		 "theory": "DFT", 
		 "functional": "B3LYP", 
		 "basiset": "6-31G**", 
		 "properties": { 
			 "R2extent": 3918.7394, 
			 "electric_dipole_moment_norm": 5.03612382393, 
			 "electric_quadrupole_moment_norm": 15.7350835457, 
			 "total_energy": -1388.21567646, 
			 "HOMO_LUMO_gap": 0.16873, 
			 "cosmo_polarized_energy": -16.32, 
			 "cosmo_cavitation_energy": 32.23, 
			 "cosmo_dispersion_energy": -23.14, 
			 "cosmo_repulsion_energy": 1.76, 
			 "cosmo_total_nonelectrostatic_energy": 10.85, 
			 "SMD_solvation_energy": 7.01 
		},
		"coords": [
			{
				"x": 1.702932122,
				"y": 2.3787944193,
				"z": -3.2136630332,
				"element": "C" 
			},
			{
				"x": 1.2554754128,
				"y": 1.5229678378,
				"z": -2.1458895937,
				"element": "O" 
			},
			{
				"x": 0.1220489058,
				"y": 0.8554344254,
				"z": -2.3878666421,
				"element": "C" 
			},
			{
				"x": -0.522711086,
				"y": 0.939551721,
				"z": -3.4116296824,
				"element": "O" 
			},
			{
				"x": -0.2700654258,
				"y": -0.0952181426,
				"z": -1.2576086242,
				"element": "C" 
			},
			{
				"x": -1.7808097686,
				"y": -0.2492692553,
				"z": -1.1568093148,
				"element": "C" 
			},
			{
				"x": 0.3447638333,
				"y": 0.4206849733,
				"z": -0.0395015821,
				"element": "O" 
			},
			{
				"x": 0.2224145525,
				"y": -0.445838593,
				"z": 1.0299253441,
				"element": "N" 
			},
			{
				"x": -0.5186567113,
				"y": -0.0314608999,
				"z": 2.1453789412,
				"element": "C" 
			},
			{
				"x": -1.2705346096,
				"y": 1.2591561724,
				"z": 2.1143336624,
				"element": "C" 
			},
			{
				"x": -0.4007981731,
				"y": -0.9138789135,
				"z": 3.1601544506,
				"element": "C" 
			},
			{
				"x": 0.6480297762,
				"y": -2.2528428149,
				"z": 2.7402816001,
				"element": "S" 
			},
			{
				"x": 0.9918309645,
				"y": -1.5796986775,
				"z": 1.1384464932,
				"element": "C" 
			},
			{
				"x": 2.0377300527,
				"y": -2.2268184562,
				"z": 0.023574624,
				"element": "S" 
			},
			{
				"x": 0.9503888499,
				"y": 3.1389119188,
				"z": -3.4368041188,
				"element": "H" 
			},
			{
				"x": 1.8947697197,
				"y": 1.7937988426,
				"z": -4.11615082,
				"element": "H" 
			},
			{
				"x": 2.62114633,
				"y": 2.8390403951,
				"z": -2.8509282668,
				"element": "H" 
			},
			{
				"x": 0.2066537864,
				"y": -1.0575705558,
				"z": -1.4812658508,
				"element": "H" 
			},
			{
				"x": -2.2652285318,
				"y": 0.7090540714,
				"z": -0.9493617808,
				"element": "H" 
			},
			{
				"x": -2.1607835968,
				"y": -0.6185600567,
				"z": -2.1111378088,
				"element": "H" 
			},
			{
				"x": -2.045228062,
				"y": -0.9671920293,
				"z": -0.3763643544,
				"element": "H" 
			},
			{
				"x": -1.7108589641,
				"y": 1.4452800776,
				"z": 3.0958394253,
				"element": "H" 
			},
			{
				"x": -0.6071492236,
				"y": 2.091493362,
				"z": 1.8614366514,
				"element": "H" 
			},
			{
				"x": -2.0746298308,
				"y": 1.2422788001,
				"z": 1.3726667994,
				"element": "H" 
			},
			{
				"x": -0.8651303223,
				"y": -0.8452986223,
				"z": 4.1326434813,
				"element": "H" 
			}
		],
		 "valence_orbital": [ 
			{
				"type": "occ",
				"energy": -0.29625,
				"method": "rhf"
			},
			{
				"type": "occ",
				"energy": -0.28944,
				"method": "rhf"
			},
			{
				"type": "occ",
				"energy": -0.28301,
				"method": "rhf"
			},
			{
				"type": "occ",
				"energy": -0.21605,
				"method": "rhf"
			},
			{
				"type": "occ",
				"energy": -0.2068,
				"method": "rhf"
			},
			{
				"type": "unocc",
				"energy": -0.03807,
				"method": "rhf"
			},
			{
				"type": "unocc",
				"energy": -0.00662,
				"method": "rhf"
			},
			{
				"type": "unocc",
				"energy": 0.00616,
				"method": "rhf"
			},
			{
				"type": "unocc",
				"energy": 0.00929,
				"method": "rhf"
			},
			{
				"type": "unocc",
				"energy": 0.05799,
				"method": "rhf"
			}
		],
		"cosmo_sigma_profile": { 
			"-0.025": 0.0,
			"-0.024": 0.0,
			"-0.023": 0.0,
			"-0.022": 0.0,
			"-0.021": 0.0,
			"-0.02": 0.0,
			"-0.019": 0.0,
			"-0.018": 0.0,
			"-0.017": 0.0,
			"-0.016": 0.0,
			"-0.015": 0.0,
			"-0.014": 0.0,
			"-0.013": 0.0,
			"-0.012": 0.0,
			"-0.011": 0.0812593455891,
			"-0.01": 1.67355030127,
			"-0.009": 2.68414929601,
			"-0.008": 2.51787192423,
			"-0.007": 6.10946019331,
			"-0.006": 16.7340629871,
			"-0.005": 23.8778740804,
			"-0.004": 27.5376552404,
			"-0.003": 23.6872857642,
			"-0.002": 21.5729457023,
			"-0.001": 17.4904273598,
			"0.0": 15.3534157078,
			"0.001": 14.2845373608,
			"0.002": 14.4041440319,
			"0.003": 9.10831694438,
			"0.004": 7.27004721843,
			"0.005": 6.55415039339,
			"0.006": 7.53765844791,
			"0.007": 6.80205351666,
			"0.008": 8.42868716054,
			"0.009": 8.93624462183,
			"0.01": 9.18339828152,
			"0.011": 7.08224886689,
			"0.012": 1.94335567829,
			"0.013": 0.0,
			"0.014": 0.0,
			"0.015": 0.0,
			"0.016": 0.0,
			"0.017": 0.0,
			"0.018": 0.0,
			"0.019": 0.0,
			"0.02": 0.0,
			"0.021": 0.0,
			"0.022": 0.0,
			"0.023": 0.0,
			"0.024": 0.0,
			"0.025": 0.0
		}
	}
}
