{
	 "smiles": "COC1=CC=C(C=C1[N+]([O-])=O)C(F)(F)F", 
	 "Tm": 321.15, 
	 "num_atms": 21, 
	 "gaussian": { 
		 "optdone": 1, 
		 "sigma_profile": "yes", 
		 "theory": "DFT", 
		 "functional": "B3LYP", 
		 "basiset": "6-31G**", 
		 "properties": { 
			 "R2extent": 3741.8449, 
			 "electric_dipole_moment_norm": 5.66140258682, 
			 "electric_quadrupole_moment_norm": 10.7500593654, 
			 "total_energy": -888.294664646, 
			 "HOMO_LUMO_gap": 0.17301, 
			 "cosmo_polarized_energy": -11.88, 
			 "cosmo_cavitation_energy": 27.82, 
			 "cosmo_dispersion_energy": -19.71, 
			 "cosmo_repulsion_energy": 1.48, 
			 "cosmo_total_nonelectrostatic_energy": 9.6, 
			 "SMD_solvation_energy": 9.1 
		},
		"coords": [
			{
				"x": -2.1253553226,
				"y": 0.4197847545,
				"z": -2.443669197,
				"element": "C" 
			},
			{
				"x": -0.7831470286,
				"y": 0.5796417554,
				"z": -1.9903262091,
				"element": "O" 
			},
			{
				"x": -0.457676306,
				"y": 0.1748483309,
				"z": -0.7519644298,
				"element": "C" 
			},
			{
				"x": -1.3756319696,
				"y": -0.3946002099,
				"z": 0.1489408547,
				"element": "C" 
			},
			{
				"x": -0.9717335273,
				"y": -0.8247125594,
				"z": 1.4071307616,
				"element": "C" 
			},
			{
				"x": 0.3636853624,
				"y": -0.7153052272,
				"z": 1.8037004053,
				"element": "C" 
			},
			{
				"x": 1.2911653807,
				"y": -0.1640347138,
				"z": 0.9257168313,
				"element": "C" 
			},
			{
				"x": 0.8884854936,
				"y": 0.2893954443,
				"z": -0.3265034441,
				"element": "C" 
			},
			{
				"x": 1.9269775173,
				"y": 0.8981620702,
				"z": -1.1717025085,
				"element": "N" 
			},
			{
				"x": 1.5853621528,
				"y": 1.7255161197,
				"z": -2.0106363726,
				"element": "O" 
			},
			{
				"x": 3.0901456023,
				"y": 0.5496504459,
				"z": -0.9579756502,
				"element": "O" 
			},
			{
				"x": 0.8000834948,
				"y": -1.2393644148,
				"z": 3.143624255,
				"element": "C" 
			},
			{
				"x": 1.9207247756,
				"y": -0.6289725439,
				"z": 3.5811336913,
				"element": "F" 
			},
			{
				"x": -0.1596883334,
				"y": -1.0613731672,
				"z": 4.0795512533,
				"element": "F" 
			},
			{
				"x": 1.0609341842,
				"y": -2.5661573532,
				"z": 3.1007961314,
				"element": "F" 
			},
			{
				"x": -2.4245441889,
				"y": -0.6347894258,
				"z": -2.4466957269,
				"element": "H" 
			},
			{
				"x": -2.8249923275,
				"y": 1.0004249405,
				"z": -1.8316552924,
				"element": "H" 
			},
			{
				"x": -2.1325882345,
				"y": 0.8033884237,
				"z": -3.4636223576,
				"element": "H" 
			},
			{
				"x": -2.4145043302,
				"y": -0.4996166945,
				"z": -0.1356759619,
				"element": "H" 
			},
			{
				"x": -1.7034438607,
				"y": -1.2460208508,
				"z": 2.0883269315,
				"element": "H" 
			},
			{
				"x": 2.3350414656,
				"y": -0.0677651243,
				"z": 1.1953060346,
				"element": "H" 
			}
		],
		 "valence_orbital": [ 
			{
				"type": "occ",
				"energy": -0.30767,
				"method": "rhf"
			},
			{
				"type": "occ",
				"energy": -0.30634,
				"method": "rhf"
			},
			{
				"type": "occ",
				"energy": -0.29849,
				"method": "rhf"
			},
			{
				"type": "occ",
				"energy": -0.28202,
				"method": "rhf"
			},
			{
				"type": "occ",
				"energy": -0.26092,
				"method": "rhf"
			},
			{
				"type": "unocc",
				"energy": -0.08791,
				"method": "rhf"
			},
			{
				"type": "unocc",
				"energy": -0.03626,
				"method": "rhf"
			},
			{
				"type": "unocc",
				"energy": -0.01719,
				"method": "rhf"
			},
			{
				"type": "unocc",
				"energy": 0.06231,
				"method": "rhf"
			},
			{
				"type": "unocc",
				"energy": 0.08164,
				"method": "rhf"
			}
		],
		"cosmo_sigma_profile": { 
			"-0.025": 0.0,
			"-0.024": 0.0,
			"-0.023": 0.0,
			"-0.022": 0.0,
			"-0.021": 0.0,
			"-0.02": 0.0,
			"-0.019": 0.0,
			"-0.018": 0.0,
			"-0.017": 0.0,
			"-0.016": 0.0,
			"-0.015": 0.0,
			"-0.014": 0.0,
			"-0.013": 0.0,
			"-0.012": 0.0,
			"-0.011": 0.0,
			"-0.01": 0.0,
			"-0.009": 1.51070436382,
			"-0.008": 5.36466332592,
			"-0.007": 11.482123927,
			"-0.006": 15.3752825327,
			"-0.005": 13.9060393204,
			"-0.004": 13.1242509263,
			"-0.003": 12.7041614109,
			"-0.002": 12.8575877862,
			"-0.001": 16.0609754857,
			"0.0": 19.0114042349,
			"0.001": 15.3363450458,
			"0.002": 23.2322136278,
			"0.003": 24.1859357817,
			"0.004": 2.94703414349,
			"0.005": 3.61736491714,
			"0.006": 4.23875427437,
			"0.007": 6.72327102249,
			"0.008": 9.70265890448,
			"0.009": 6.02967408223,
			"0.01": 4.12077519599,
			"0.011": 1.54395244953,
			"0.012": 0.240293491251,
			"0.013": 0.0,
			"0.014": 0.0,
			"0.015": 0.0,
			"0.016": 0.0,
			"0.017": 0.0,
			"0.018": 0.0,
			"0.019": 0.0,
			"0.02": 0.0,
			"0.021": 0.0,
			"0.022": 0.0,
			"0.023": 0.0,
			"0.024": 0.0,
			"0.025": 0.0
		}
	}
}
