{
	 "smiles": "CCC(CC)C(C)=C", 
	 "Tm": 160.15, 
	 "num_atms": 24, 
	 "gaussian": { 
		 "optdone": 1, 
		 "sigma_profile": "yes", 
		 "theory": "DFT", 
		 "functional": "B3LYP", 
		 "basiset": "6-31G**", 
		 "properties": { 
			 "R2extent": 1463.5714, 
			 "electric_dipole_moment_norm": 0.4557848725, 
			 "electric_quadrupole_moment_norm": 1.75279449166, 
			 "total_energy": -314.492448106, 
			 "HOMO_LUMO_gap": 0.26782, 
			 "cosmo_polarized_energy": -1.63, 
			 "cosmo_cavitation_energy": 24.56, 
			 "cosmo_dispersion_energy": -17.27, 
			 "cosmo_repulsion_energy": 1.43, 
			 "cosmo_total_nonelectrostatic_energy": 8.72, 
			 "SMD_solvation_energy": 4.9 
		},
		"coords": [
			{
				"x": 0.5631619655,
				"y": -1.1053380922,
				"z": -0.9304125168,
				"element": "C" 
			},
			{
				"x": 0.5549053689,
				"y": 0.2297134178,
				"z": -0.1778061415,
				"element": "C" 
			},
			{
				"x": -0.8520490737,
				"y": 0.7463495793,
				"z": 0.2418050039,
				"element": "C" 
			},
			{
				"x": -1.5805797131,
				"y": -0.2083848423,
				"z": 1.2099174794,
				"element": "C" 
			},
			{
				"x": -0.854098298,
				"y": -0.4264903338,
				"z": 2.5424656101,
				"element": "C" 
			},
			{
				"x": -1.6823834504,
				"y": 1.1358634397,
				"z": -0.9784230436,
				"element": "C" 
			},
			{
				"x": -1.2743589733,
				"y": 2.4200711546,
				"z": -1.6643267699,
				"element": "C" 
			},
			{
				"x": -2.7138824687,
				"y": 0.4172235626,
				"z": -1.4373651904,
				"element": "C" 
			},
			{
				"x": -0.0750699161,
				"y": -1.0645473032,
				"z": -1.8185385602,
				"element": "H" 
			},
			{
				"x": 1.577978818,
				"y": -1.3579060929,
				"z": -1.2550216211,
				"element": "H" 
			},
			{
				"x": 0.2073657174,
				"y": -1.9299786218,
				"z": -0.3038541327,
				"element": "H" 
			},
			{
				"x": 1.0374559054,
				"y": 0.9935047753,
				"z": -0.7990128439,
				"element": "H" 
			},
			{
				"x": 1.1784169128,
				"y": 0.1470812926,
				"z": 0.7201907127,
				"element": "H" 
			},
			{
				"x": -0.6710023787,
				"y": 1.6794823813,
				"z": 0.7995699725,
				"element": "H" 
			},
			{
				"x": -2.5768558633,
				"y": 0.2040302814,
				"z": 1.4085408657,
				"element": "H" 
			},
			{
				"x": -1.7473940541,
				"y": -1.1798829568,
				"z": 0.729656351,
				"element": "H" 
			},
			{
				"x": -1.4624824532,
				"y": -1.0337748925,
				"z": 3.2206939387,
				"element": "H" 
			},
			{
				"x": -0.650445528,
				"y": 0.5263987571,
				"z": 3.0451322996,
				"element": "H" 
			},
			{
				"x": 0.1023512516,
				"y": -0.9430298478,
				"z": 2.4128124756,
				"element": "H" 
			},
			{
				"x": -1.9085507178,
				"y": 2.6331210704,
				"z": -2.5290450164,
				"element": "H" 
			},
			{
				"x": -1.3428357816,
				"y": 3.2705353282,
				"z": -0.9733591678,
				"element": "H" 
			},
			{
				"x": -0.2347047527,
				"y": 2.3856012012,
				"z": -2.0118663061,
				"element": "H" 
			},
			{
				"x": -3.0444130307,
				"y": -0.5014499926,
				"z": -0.9647785745,
				"element": "H" 
			},
			{
				"x": -3.2729294862,
				"y": 0.7342067343,
				"z": -2.3137748243,
				"element": "H" 
			}
		],
		 "valence_orbital": [ 
			{
				"type": "occ",
				"energy": -0.33943,
				"method": "rhf"
			},
			{
				"type": "occ",
				"energy": -0.31854,
				"method": "rhf"
			},
			{
				"type": "occ",
				"energy": -0.30858,
				"method": "rhf"
			},
			{
				"type": "occ",
				"energy": -0.30323,
				"method": "rhf"
			},
			{
				"type": "occ",
				"energy": -0.23902,
				"method": "rhf"
			},
			{
				"type": "unocc",
				"energy": 0.0288,
				"method": "rhf"
			},
			{
				"type": "unocc",
				"energy": 0.08075,
				"method": "rhf"
			},
			{
				"type": "unocc",
				"energy": 0.10747,
				"method": "rhf"
			},
			{
				"type": "unocc",
				"energy": 0.12501,
				"method": "rhf"
			},
			{
				"type": "unocc",
				"energy": 0.13206,
				"method": "rhf"
			}
		],
		"cosmo_sigma_profile": { 
			"-0.025": 0.0,
			"-0.024": 0.0,
			"-0.023": 0.0,
			"-0.022": 0.0,
			"-0.021": 0.0,
			"-0.02": 0.0,
			"-0.019": 0.0,
			"-0.018": 0.0,
			"-0.017": 0.0,
			"-0.016": 0.0,
			"-0.015": 0.0,
			"-0.014": 0.0,
			"-0.013": 0.0,
			"-0.012": 0.0,
			"-0.011": 0.0,
			"-0.01": 0.0,
			"-0.009": 0.0,
			"-0.008": 0.0,
			"-0.007": 0.0,
			"-0.006": 0.0,
			"-0.005": 0.0,
			"-0.004": 3.35306742445,
			"-0.003": 15.5673601629,
			"-0.002": 29.8717004734,
			"-0.001": 32.6679461893,
			"0.0": 36.2947551513,
			"0.001": 34.8468071447,
			"0.002": 19.0552866218,
			"0.003": 5.70095826656,
			"0.004": 5.10487704919,
			"0.005": 3.34155204917,
			"0.006": 2.2777029443,
			"0.007": 1.2283033522,
			"0.008": 0.282429870708,
			"0.009": 0.0,
			"0.01": 0.0,
			"0.011": 0.0,
			"0.012": 0.0,
			"0.013": 0.0,
			"0.014": 0.0,
			"0.015": 0.0,
			"0.016": 0.0,
			"0.017": 0.0,
			"0.018": 0.0,
			"0.019": 0.0,
			"0.02": 0.0,
			"0.021": 0.0,
			"0.022": 0.0,
			"0.023": 0.0,
			"0.024": 0.0,
			"0.025": 0.0
		}
	}
}
