{
	 "smiles": "CC1C2C(CC3=CC=CC=C3)NC(=O)C22OC(=O)C=CC(O)CCCC(C)CC=CC2C(O)C1=C", 
	 "Tm": 493.15, 
	 "num_atms": 72, 
	 "gaussian": { 
		 "optdone": 1, 
		 "sigma_profile": "yes", 
		 "theory": "DFT", 
		 "functional": "B3LYP", 
		 "basiset": "6-31G**", 
		 "properties": { 
			 "R2extent": 15693.3401, 
			 "electric_dipole_moment_norm": 5.48911239273, 
			 "electric_quadrupole_moment_norm": 26.8961989233, 
			 "total_energy": -1558.17883922, 
			 "HOMO_LUMO_gap": 0.20132, 
			 "cosmo_polarized_energy": -28.08, 
			 "cosmo_cavitation_energy": 63.76, 
			 "cosmo_dispersion_energy": -40.37, 
			 "cosmo_repulsion_energy": 2.93, 
			 "cosmo_total_nonelectrostatic_energy": 26.31, 
			 "SMD_solvation_energy": 10.31 
		},
		"coords": [
			{
				"x": 1.3729527081,
				"y": 1.7150809433,
				"z": -3.022763054,
				"element": "C" 
			},
			{
				"x": 2.0437383258,
				"y": 0.9279712079,
				"z": -1.886944128,
				"element": "C" 
			},
			{
				"x": 1.3756761791,
				"y": 1.3001990822,
				"z": -0.5196331345,
				"element": "C" 
			},
			{
				"x": 1.9696347503,
				"y": 2.5740065084,
				"z": 0.1720405159,
				"element": "C" 
			},
			{
				"x": 2.375999578,
				"y": 3.8299375297,
				"z": -0.6216887259,
				"element": "C" 
			},
			{
				"x": 1.2450420646,
				"y": 4.7756861962,
				"z": -0.9927976093,
				"element": "C" 
			},
			{
				"x": 0.2985378766,
				"y": 5.1943650606,
				"z": -0.0443521726,
				"element": "C" 
			},
			{
				"x": -0.7076641641,
				"y": 6.0997057508,
				"z": -0.3835629455,
				"element": "C" 
			},
			{
				"x": -0.7829492935,
				"y": 6.615667579,
				"z": -1.6786609529,
				"element": "C" 
			},
			{
				"x": 0.1617887873,
				"y": 6.2239913531,
				"z": -2.6270741114,
				"element": "C" 
			},
			{
				"x": 1.1643579155,
				"y": 5.3149277298,
				"z": -2.2841235588,
				"element": "C" 
			},
			{
				"x": 3.1319543358,
				"y": 1.9975380536,
				"z": 0.8473806574,
				"element": "N" 
			},
			{
				"x": 2.9960836176,
				"y": 0.6838645661,
				"z": 1.1768604719,
				"element": "C" 
			},
			{
				"x": 3.7989571034,
				"y": 0.0140638994,
				"z": 1.804473682,
				"element": "O" 
			},
			{
				"x": 1.6103927281,
				"y": 0.2449991733,
				"z": 0.6000005524,
				"element": "C" 
			},
			{
				"x": 0.7589416916,
				"y": 0.4595443396,
				"z": 1.7795255831,
				"element": "O" 
			},
			{
				"x": -0.6043998181,
				"y": 0.4563465269,
				"z": 1.8692112543,
				"element": "C" 
			},
			{
				"x": -1.1111724179,
				"y": 0.0017763503,
				"z": 2.8688713726,
				"element": "O" 
			},
			{
				"x": -1.4195858582,
				"y": 1.2251665014,
				"z": 0.8693905519,
				"element": "C" 
			},
			{
				"x": -2.3148376731,
				"y": 0.8067872894,
				"z": -0.0323475694,
				"element": "C" 
			},
			{
				"x": -2.5920119085,
				"y": -0.5962920962,
				"z": -0.5351114173,
				"element": "C" 
			},
			{
				"x": -1.6148867585,
				"y": -0.7771000203,
				"z": -1.5791272584,
				"element": "O" 
			},
			{
				"x": -2.5255323897,
				"y": -1.7148308999,
				"z": 0.5107817736,
				"element": "C" 
			},
			{
				"x": -2.7720146981,
				"y": -3.1118274976,
				"z": -0.0768885007,
				"element": "C" 
			},
			{
				"x": -2.5232161119,
				"y": -4.2986027315,
				"z": 0.8803047801,
				"element": "C" 
			},
			{
				"x": -1.1775623253,
				"y": -4.3421269772,
				"z": 1.6644210673,
				"element": "C" 
			},
			{
				"x": -1.2464824854,
				"y": -3.5676446847,
				"z": 2.9965892338,
				"element": "C" 
			},
			{
				"x": 0.0420650891,
				"y": -3.969271655,
				"z": 0.7545015738,
				"element": "C" 
			},
			{
				"x": 1.2285888866,
				"y": -3.3959466626,
				"z": 1.4857674551,
				"element": "C" 
			},
			{
				"x": 1.8278361802,
				"y": -2.2103360635,
				"z": 1.2811471229,
				"element": "C" 
			},
			{
				"x": 1.5242211336,
				"y": -1.2261199431,
				"z": 0.1697865203,
				"element": "C" 
			},
			{
				"x": 2.5005408839,
				"y": -1.4430801815,
				"z": -1.0312780135,
				"element": "C" 
			},
			{
				"x": 2.5241443925,
				"y": -2.7989521736,
				"z": -1.4260009073,
				"element": "O" 
			},
			{
				"x": 2.0465644136,
				"y": -0.5708332027,
				"z": -2.1778000943,
				"element": "C" 
			},
			{
				"x": 1.6899770205,
				"y": -1.1168433976,
				"z": -3.3433369446,
				"element": "C" 
			},
			{
				"x": 0.3592940635,
				"y": 1.3368409959,
				"z": -3.188603461,
				"element": "H" 
			},
			{
				"x": 1.9324088049,
				"y": 1.6152314922,
				"z": -3.9574235517,
				"element": "H" 
			},
			{
				"x": 1.2911193173,
				"y": 2.7760187816,
				"z": -2.793291849,
				"element": "H" 
			},
			{
				"x": 3.1011884797,
				"y": 1.2293209479,
				"z": -1.8203388282,
				"element": "H" 
			},
			{
				"x": 0.3083501803,
				"y": 1.4170324068,
				"z": -0.7003665338,
				"element": "H" 
			},
			{
				"x": 1.2397142461,
				"y": 2.8874818693,
				"z": 0.9307185945,
				"element": "H" 
			},
			{
				"x": 2.9526250594,
				"y": 3.558171215,
				"z": -1.5102602809,
				"element": "H" 
			},
			{
				"x": 3.073142795,
				"y": 4.3850510418,
				"z": 0.0236982384,
				"element": "H" 
			},
			{
				"x": 0.3529826985,
				"y": 4.8277817402,
				"z": 0.9772655039,
				"element": "H" 
			},
			{
				"x": -1.4283468561,
				"y": 6.4084190206,
				"z": 0.3684998096,
				"element": "H" 
			},
			{
				"x": -1.5654791837,
				"y": 7.320951557,
				"z": -1.9425523399,
				"element": "H" 
			},
			{
				"x": 0.1216634773,
				"y": 6.6248339791,
				"z": -3.6358799083,
				"element": "H" 
			},
			{
				"x": 1.8992769695,
				"y": 5.0238485272,
				"z": -3.0302769803,
				"element": "H" 
			},
			{
				"x": 3.8618674172,
				"y": 2.550856781,
				"z": 1.2747642207,
				"element": "H" 
			},
			{
				"x": -1.2848502724,
				"y": 2.3016932525,
				"z": 0.9796533765,
				"element": "H" 
			},
			{
				"x": -2.8244951944,
				"y": 1.5861232797,
				"z": -0.5958702531,
				"element": "H" 
			},
			{
				"x": -3.5997988055,
				"y": -0.5916749013,
				"z": -0.9812987789,
				"element": "H" 
			},
			{
				"x": -1.8710665551,
				"y": -1.5402281268,
				"z": -2.1133456452,
				"element": "H" 
			},
			{
				"x": -1.5406194829,
				"y": -1.6921423269,
				"z": 0.9730723011,
				"element": "H" 
			},
			{
				"x": -3.2443672477,
				"y": -1.500419994,
				"z": 1.3102827231,
				"element": "H" 
			},
			{
				"x": -3.8049262372,
				"y": -3.1806374203,
				"z": -0.4458731084,
				"element": "H" 
			},
			{
				"x": -2.1323306059,
				"y": -3.2443176338,
				"z": -0.9591485538,
				"element": "H" 
			},
			{
				"x": -3.3383405589,
				"y": -4.344503771,
				"z": 1.6139116508,
				"element": "H" 
			},
			{
				"x": -2.6117179603,
				"y": -5.2135351468,
				"z": 0.2797832741,
				"element": "H" 
			},
			{
				"x": -1.0439577125,
				"y": -5.3940907924,
				"z": 1.9512587532,
				"element": "H" 
			},
			{
				"x": -2.1344186995,
				"y": -3.8805692427,
				"z": 3.5576773945,
				"element": "H" 
			},
			{
				"x": -0.3760168621,
				"y": -3.7872128392,
				"z": 3.6216746873,
				"element": "H" 
			},
			{
				"x": -1.2883502473,
				"y": -2.4829208571,
				"z": 2.8845541135,
				"element": "H" 
			},
			{
				"x": -0.2599518363,
				"y": -3.2689888881,
				"z": -0.024594247,
				"element": "H" 
			},
			{
				"x": 0.350959882,
				"y": -4.8778551522,
				"z": 0.2181192611,
				"element": "H" 
			},
			{
				"x": 1.6245074815,
				"y": -4.008829281,
				"z": 2.2962401016,
				"element": "H" 
			},
			{
				"x": 2.6663825625,
				"y": -1.9379959244,
				"z": 1.9142490524,
				"element": "H" 
			},
			{
				"x": 0.5194795882,
				"y": -1.3844223115,
				"z": -0.2359602116,
				"element": "H" 
			},
			{
				"x": 3.5087929467,
				"y": -1.1280091207,
				"z": -0.709351581,
				"element": "H" 
			},
			{
				"x": 2.6052895413,
				"y": -3.3172577241,
				"z": -0.6109283617,
				"element": "H" 
			},
			{
				"x": 1.7563599197,
				"y": -2.1892190767,
				"z": -3.4797410366,
				"element": "H" 
			},
			{
				"x": 1.3365491277,
				"y": -0.528343811,
				"z": -4.1812806162,
				"element": "H" 
			}
		],
		 "valence_orbital": [ 
			{
				"type": "occ",
				"energy": -0.25894,
				"method": "rhf"
			},
			{
				"type": "occ",
				"energy": -0.25399,
				"method": "rhf"
			},
			{
				"type": "occ",
				"energy": -0.24787,
				"method": "rhf"
			},
			{
				"type": "occ",
				"energy": -0.2434,
				"method": "rhf"
			},
			{
				"type": "occ",
				"energy": -0.23059,
				"method": "rhf"
			},
			{
				"type": "unocc",
				"energy": -0.02927,
				"method": "rhf"
			},
			{
				"type": "unocc",
				"energy": -0.01624,
				"method": "rhf"
			},
			{
				"type": "unocc",
				"energy": -0.0128,
				"method": "rhf"
			},
			{
				"type": "unocc",
				"energy": -0.00078,
				"method": "rhf"
			},
			{
				"type": "unocc",
				"energy": 0.00826,
				"method": "rhf"
			}
		],
		"cosmo_sigma_profile": { 
			"-0.025": 0.0,
			"-0.024": 0.0,
			"-0.023": 0.0,
			"-0.022": 0.0,
			"-0.021": 0.0,
			"-0.02": 0.0,
			"-0.019": 0.0,
			"-0.018": 0.0,
			"-0.017": 0.0,
			"-0.016": 0.0,
			"-0.015": 0.643920941721,
			"-0.014": 2.36922484457,
			"-0.013": 2.20476241227,
			"-0.012": 1.93450163293,
			"-0.011": 2.33503537144,
			"-0.01": 3.01799029001,
			"-0.009": 2.69441269668,
			"-0.008": 5.77523912261,
			"-0.007": 7.30098495807,
			"-0.006": 17.3424165871,
			"-0.005": 30.2308320234,
			"-0.004": 35.9685818797,
			"-0.003": 44.0156327899,
			"-0.002": 53.6290360969,
			"-0.001": 50.6564044688,
			"0.0": 43.5952438842,
			"0.001": 33.5196021844,
			"0.002": 24.4607639456,
			"0.003": 21.2814197753,
			"0.004": 18.9241372406,
			"0.005": 21.0273649287,
			"0.006": 18.5395009635,
			"0.007": 13.3047871836,
			"0.008": 10.004488535,
			"0.009": 6.59497573794,
			"0.01": 8.05513981082,
			"0.011": 6.99059009953,
			"0.012": 6.76788951397,
			"0.013": 4.37426113518,
			"0.014": 0.961645375582,
			"0.015": 0.0,
			"0.016": 0.0,
			"0.017": 0.0,
			"0.018": 0.0,
			"0.019": 0.0,
			"0.02": 0.0,
			"0.021": 0.0,
			"0.022": 0.0,
			"0.023": 0.0,
			"0.024": 0.0,
			"0.025": 0.0
		}
	}
}
