{
	 "smiles": "CC(C)(C)OC(=O)NC(CC#N)CC1=CC=CC=C1", 
	 "Tm": 395.15, 
	 "num_atms": 39, 
	 "gaussian": { 
		 "optdone": 1, 
		 "sigma_profile": "yes", 
		 "theory": "DFT", 
		 "functional": "B3LYP", 
		 "basiset": "6-31G**", 
		 "properties": { 
			 "R2extent": 7114.1088, 
			 "electric_dipole_moment_norm": 5.13153948148, 
			 "electric_quadrupole_moment_norm": 26.4998536202, 
			 "total_energy": -843.628673884, 
			 "HOMO_LUMO_gap": 0.23356, 
			 "cosmo_polarized_energy": -16.96, 
			 "cosmo_cavitation_energy": 42.25, 
			 "cosmo_dispersion_energy": -26.95, 
			 "cosmo_repulsion_energy": 2.1, 
			 "cosmo_total_nonelectrostatic_energy": 17.4, 
			 "SMD_solvation_energy": 9.25 
		},
		"coords": [
			{
				"x": -2.7300589141,
				"y": -0.8008910801,
				"z": 1.2088425843,
				"element": "C" 
			},
			{
				"x": -1.3152708611,
				"y": -1.3849180835,
				"z": 1.1431196899,
				"element": "C" 
			},
			{
				"x": -1.1166164866,
				"y": -2.1782998704,
				"z": -0.1509151133,
				"element": "C" 
			},
			{
				"x": -0.982250139,
				"y": -2.2473244428,
				"z": 2.364687176,
				"element": "C" 
			},
			{
				"x": -0.3265750324,
				"y": -0.2951624953,
				"z": 1.0099909196,
				"element": "O" 
			},
			{
				"x": -0.2001380924,
				"y": 0.6414860571,
				"z": 1.9842271566,
				"element": "C" 
			},
			{
				"x": -0.8373705161,
				"y": 0.6877199792,
				"z": 3.0221027001,
				"element": "O" 
			},
			{
				"x": 0.7566491479,
				"y": 1.5732125424,
				"z": 1.6644643738,
				"element": "N" 
			},
			{
				"x": 1.6279077238,
				"y": 1.6479158553,
				"z": 0.4938145516,
				"element": "C" 
			},
			{
				"x": 2.5890915957,
				"y": 0.4349724281,
				"z": 0.3890532389,
				"element": "C" 
			},
			{
				"x": 3.4768212291,
				"y": 0.3272922102,
				"z": 1.5474307287,
				"element": "C" 
			},
			{
				"x": 4.1799150731,
				"y": 0.2616284691,
				"z": 2.4687764398,
				"element": "N" 
			},
			{
				"x": 0.8372350377,
				"y": 1.8686696193,
				"z": -0.8219243751,
				"element": "C" 
			},
			{
				"x": 1.713481662,
				"y": 2.2334559825,
				"z": -2.0019211866,
				"element": "C" 
			},
			{
				"x": 1.9858935712,
				"y": 1.3058412953,
				"z": -3.016820608,
				"element": "C" 
			},
			{
				"x": 2.8067262948,
				"y": 1.641331133,
				"z": -4.0958048463,
				"element": "C" 
			},
			{
				"x": 3.3693821994,
				"y": 2.9154376953,
				"z": -4.1771749083,
				"element": "C" 
			},
			{
				"x": 3.1030090278,
				"y": 3.85196953,
				"z": -3.1755366391,
				"element": "C" 
			},
			{
				"x": 2.2820842963,
				"y": 3.5125548332,
				"z": -2.1004459323,
				"element": "C" 
			},
			{
				"x": -2.8701240944,
				"y": -0.2184443252,
				"z": 2.1193462559,
				"element": "H" 
			},
			{
				"x": -2.9179892942,
				"y": -0.1587296115,
				"z": 0.3423627392,
				"element": "H" 
			},
			{
				"x": -3.4621808615,
				"y": -1.6147086038,
				"z": 1.1925330187,
				"element": "H" 
			},
			{
				"x": -1.3127253494,
				"y": -1.5520784908,
				"z": -1.0265172578,
				"element": "H" 
			},
			{
				"x": -1.8047028561,
				"y": -3.0283106209,
				"z": -0.1763535752,
				"element": "H" 
			},
			{
				"x": -0.094776069,
				"y": -2.5637211994,
				"z": -0.2194106331,
				"element": "H" 
			},
			{
				"x": 0.0483119655,
				"y": -2.6115759643,
				"z": 2.3054092786,
				"element": "H" 
			},
			{
				"x": -1.6477900959,
				"y": -3.1162745316,
				"z": 2.3901499316,
				"element": "H" 
			},
			{
				"x": -1.1043115103,
				"y": -1.6813657147,
				"z": 3.2879732523,
				"element": "H" 
			},
			{
				"x": 0.9172062832,
				"y": 2.2247640104,
				"z": 2.4175068898,
				"element": "H" 
			},
			{
				"x": 2.2442853196,
				"y": 2.5374750244,
				"z": 0.6586212804,
				"element": "H" 
			},
			{
				"x": 2.0023362703,
				"y": -0.4839110357,
				"z": 0.3003585759,
				"element": "H" 
			},
			{
				"x": 3.1995368932,
				"y": 0.5319656382,
				"z": -0.5148025213,
				"element": "H" 
			},
			{
				"x": 0.2558543226,
				"y": 0.9698851528,
				"z": -1.0411245099,
				"element": "H" 
			},
			{
				"x": 0.1194167635,
				"y": 2.6730902649,
				"z": -0.6260445232,
				"element": "H" 
			},
			{
				"x": 1.5440812667,
				"y": 0.3135239465,
				"z": -2.9647355906,
				"element": "H" 
			},
			{
				"x": 3.0023821712,
				"y": 0.9081462797,
				"z": -4.873152552,
				"element": "H" 
			},
			{
				"x": 4.0064679523,
				"y": 3.1793785142,
				"z": -5.0161803187,
				"element": "H" 
			},
			{
				"x": 3.5305408737,
				"y": 4.8488597115,
				"z": -3.2346495092,
				"element": "H" 
			},
			{
				"x": 2.0711632317,
				"y": 4.2531398971,
				"z": -1.3319561817,
				"element": "H" 
			}
		],
		 "valence_orbital": [ 
			{
				"type": "occ",
				"energy": -0.29625,
				"method": "rhf"
			},
			{
				"type": "occ",
				"energy": -0.26937,
				"method": "rhf"
			},
			{
				"type": "occ",
				"energy": -0.26673,
				"method": "rhf"
			},
			{
				"type": "occ",
				"energy": -0.26066,
				"method": "rhf"
			},
			{
				"type": "occ",
				"energy": -0.24924,
				"method": "rhf"
			},
			{
				"type": "unocc",
				"energy": -0.01568,
				"method": "rhf"
			},
			{
				"type": "unocc",
				"energy": -0.0123,
				"method": "rhf"
			},
			{
				"type": "unocc",
				"energy": 0.03646,
				"method": "rhf"
			},
			{
				"type": "unocc",
				"energy": 0.04304,
				"method": "rhf"
			},
			{
				"type": "unocc",
				"energy": 0.04726,
				"method": "rhf"
			}
		],
		"cosmo_sigma_profile": { 
			"-0.025": 0.0,
			"-0.024": 0.0,
			"-0.023": 0.0,
			"-0.022": 0.0,
			"-0.021": 0.0,
			"-0.02": 0.0,
			"-0.019": 0.0,
			"-0.018": 0.0,
			"-0.017": 0.0,
			"-0.016": 0.0,
			"-0.015": 0.123624926153,
			"-0.014": 1.20487605876,
			"-0.013": 1.14434643706,
			"-0.012": 1.247792902,
			"-0.011": 0.946940966597,
			"-0.01": 0.936290757906,
			"-0.009": 1.01840690638,
			"-0.008": 1.75090099968,
			"-0.007": 4.72863664494,
			"-0.006": 11.1180930326,
			"-0.005": 21.2123823764,
			"-0.004": 31.9119971823,
			"-0.003": 36.936112144,
			"-0.002": 28.2952811309,
			"-0.001": 31.3252351874,
			"0.0": 36.2704909411,
			"0.001": 28.1794436578,
			"0.002": 14.2197738316,
			"0.003": 10.4914171257,
			"0.004": 12.1287727619,
			"0.005": 11.7863813407,
			"0.006": 10.7247062789,
			"0.007": 4.10604074757,
			"0.008": 4.90213986607,
			"0.009": 4.99165976191,
			"0.01": 4.36432038645,
			"0.011": 4.55210580185,
			"0.012": 4.62202021718,
			"0.013": 5.38973441061,
			"0.014": 2.18159780664,
			"0.015": 0.0,
			"0.016": 0.0,
			"0.017": 0.0,
			"0.018": 0.0,
			"0.019": 0.0,
			"0.02": 0.0,
			"0.021": 0.0,
			"0.022": 0.0,
			"0.023": 0.0,
			"0.024": 0.0,
			"0.025": 0.0
		}
	}
}
