{
	 "smiles": "CNS(=O)(=O)C1=CC=C(N)C=C1", 
	 "Tm": 384.15, 
	 "num_atms": 22, 
	 "gaussian": { 
		 "optdone": 1, 
		 "sigma_profile": "yes", 
		 "theory": "DFT", 
		 "functional": "B3LYP", 
		 "basiset": "6-31G**", 
		 "properties": { 
			 "R2extent": 2678.3386, 
			 "electric_dipole_moment_norm": 8.03598122571, 
			 "electric_quadrupole_moment_norm": 9.65873355415, 
			 "total_energy": -930.842635278, 
			 "HOMO_LUMO_gap": 0.20192, 
			 "cosmo_polarized_energy": -21.48, 
			 "cosmo_cavitation_energy": 26.98, 
			 "cosmo_dispersion_energy": -20.17, 
			 "cosmo_repulsion_energy": 1.57, 
			 "cosmo_total_nonelectrostatic_energy": 8.38, 
			 "SMD_solvation_energy": 3.54 
		},
		"coords": [
			{
				"x": -0.3129736534,
				"y": -0.2821688617,
				"z": -3.4991695336,
				"element": "C" 
			},
			{
				"x": -0.6160266839,
				"y": -1.3751031641,
				"z": -2.5756617062,
				"element": "N" 
			},
			{
				"x": -1.5058518918,
				"y": -1.0355309565,
				"z": -1.1844435865,
				"element": "S" 
			},
			{
				"x": -1.5884660402,
				"y": -2.313992619,
				"z": -0.4750268697,
				"element": "O" 
			},
			{
				"x": -2.6879751402,
				"y": -0.2976915006,
				"z": -1.6348605963,
				"element": "O" 
			},
			{
				"x": -0.5312192062,
				"y": 0.0778279935,
				"z": -0.1821083366,
				"element": "C" 
			},
			{
				"x": -0.6736965695,
				"y": 1.4619694487,
				"z": -0.3276491669,
				"element": "C" 
			},
			{
				"x": 0.1078635681,
				"y": 2.323907773,
				"z": 0.4313997634,
				"element": "C" 
			},
			{
				"x": 1.0447910424,
				"y": 1.8187226336,
				"z": 1.3544736457,
				"element": "C" 
			},
			{
				"x": 1.7859969392,
				"y": 2.6760476653,
				"z": 2.1486126433,
				"element": "N" 
			},
			{
				"x": 1.1691490281,
				"y": 0.4213909479,
				"z": 1.4967702281,
				"element": "C" 
			},
			{
				"x": 0.3888926395,
				"y": -0.4392135295,
				"z": 0.7371959835,
				"element": "C" 
			},
			{
				"x": 0.3761603293,
				"y": 0.469239296,
				"z": -3.0873463625,
				"element": "H" 
			},
			{
				"x": 0.1301947158,
				"y": -0.7111166445,
				"z": -4.4014795094,
				"element": "H" 
			},
			{
				"x": -1.2491340305,
				"y": 0.205477881,
				"z": -3.775764288,
				"element": "H" 
			},
			{
				"x": 0.1699914071,
				"y": -1.9751006004,
				"z": -2.3439416758,
				"element": "H" 
			},
			{
				"x": -1.4134147221,
				"y": 1.8543692806,
				"z": -1.0170524021,
				"element": "H" 
			},
			{
				"x": -0.0135123684,
				"y": 3.3988091347,
				"z": 0.3258381322,
				"element": "H" 
			},
			{
				"x": 2.6231999749,
				"y": 2.3022216018,
				"z": 2.5699591757,
				"element": "H" 
			},
			{
				"x": 1.8828583715,
				"y": 3.6283074752,
				"z": 1.8292105522,
				"element": "H" 
			},
			{
				"x": 1.8723042952,
				"y": 0.0179788406,
				"z": 2.2207659332,
				"element": "H" 
			},
			{
				"x": 0.4701679951,
				"y": -1.5132520956,
				"z": 0.8683779762,
				"element": "H" 
			}
		],
		 "valence_orbital": [ 
			{
				"type": "occ",
				"energy": -0.29215,
				"method": "rhf"
			},
			{
				"type": "occ",
				"energy": -0.29035,
				"method": "rhf"
			},
			{
				"type": "occ",
				"energy": -0.27279,
				"method": "rhf"
			},
			{
				"type": "occ",
				"energy": -0.26651,
				"method": "rhf"
			},
			{
				"type": "occ",
				"energy": -0.22124,
				"method": "rhf"
			},
			{
				"type": "unocc",
				"energy": -0.01932,
				"method": "rhf"
			},
			{
				"type": "unocc",
				"energy": -0.01697,
				"method": "rhf"
			},
			{
				"type": "unocc",
				"energy": 0.06003,
				"method": "rhf"
			},
			{
				"type": "unocc",
				"energy": 0.0711,
				"method": "rhf"
			},
			{
				"type": "unocc",
				"energy": 0.08962,
				"method": "rhf"
			}
		],
		"cosmo_sigma_profile": { 
			"-0.025": 0.0,
			"-0.024": 0.0,
			"-0.023": 0.0,
			"-0.022": 0.0,
			"-0.021": 0.0,
			"-0.02": 0.0,
			"-0.019": 0.0,
			"-0.018": 0.0,
			"-0.017": 0.0,
			"-0.016": 0.0,
			"-0.015": 0.321704550174,
			"-0.014": 1.23157164491,
			"-0.013": 4.14136459794,
			"-0.012": 3.76000219213,
			"-0.011": 4.22235610054,
			"-0.01": 4.82350669643,
			"-0.009": 3.53817218069,
			"-0.008": 4.46189981783,
			"-0.007": 6.92855049754,
			"-0.006": 10.8971618517,
			"-0.005": 12.6967941485,
			"-0.004": 13.3254765826,
			"-0.003": 14.1476114826,
			"-0.002": 15.0952753999,
			"-0.001": 9.92238993337,
			"0.0": 7.32484953977,
			"0.001": 7.77947200591,
			"0.002": 9.82203389829,
			"0.003": 11.7920240305,
			"0.004": 16.3446347819,
			"0.005": 5.50131966046,
			"0.006": 3.64076064815,
			"0.007": 5.01515773991,
			"0.008": 6.6406454207,
			"0.009": 5.42453992442,
			"0.01": 5.18349323674,
			"0.011": 10.2176744138,
			"0.012": 8.74285199598,
			"0.013": 0.77899625673,
			"0.014": 0.0,
			"0.015": 0.0,
			"0.016": 0.0,
			"0.017": 0.0,
			"0.018": 0.0,
			"0.019": 0.0,
			"0.02": 0.0,
			"0.021": 0.0,
			"0.022": 0.0,
			"0.023": 0.0,
			"0.024": 0.0,
			"0.025": 0.0
		}
	}
}
