{
	 "smiles": "OCC1=CC(OCC2=CC(COC3=CC(CO)=CC(CO)=C3)=CC(COC3=CC(CO)=CC(CO)=C3)=C2)=CC(CO)=C1", 
	 "Tm": 417.15, 
	 "num_atms": 78, 
	 "gaussian": { 
		 "optdone": 1, 
		 "sigma_profile": "yes", 
		 "theory": "DFT", 
		 "functional": "B3LYP", 
		 "basiset": "6-31G**", 
		 "properties": { 
			 "R2extent": 29122.5371, 
			 "electric_dipole_moment_norm": 3.48237548378, 
			 "electric_quadrupole_moment_norm": 25.2477907319, 
			 "total_energy": -1956.14201864, 
			 "HOMO_LUMO_gap": 0.1968, 
			 "cosmo_polarized_energy": -37.31, 
			 "cosmo_cavitation_energy": 80.25, 
			 "cosmo_dispersion_energy": -49.47, 
			 "cosmo_repulsion_energy": 3.8, 
			 "cosmo_total_nonelectrostatic_energy": 34.58, 
			 "SMD_solvation_energy": 13.57 
		},
		"coords": [
			{
				"x": 3.4661316183,
				"y": -4.7724865113,
				"z": -1.1089975138,
				"element": "O" 
			},
			{
				"x": 3.1392353857,
				"y": -5.2248546978,
				"z": -2.4158093191,
				"element": "C" 
			},
			{
				"x": 2.1111707049,
				"y": -4.3633134888,
				"z": -3.1274996811,
				"element": "C" 
			},
			{
				"x": 2.0016045895,
				"y": -3.0065009501,
				"z": -2.7962694693,
				"element": "C" 
			},
			{
				"x": 1.0713373875,
				"y": -2.204836219,
				"z": -3.4645779202,
				"element": "C" 
			},
			{
				"x": 0.8787595527,
				"y": -0.8697751533,
				"z": -3.2264981256,
				"element": "O" 
			},
			{
				"x": 1.718640786,
				"y": -0.201557569,
				"z": -2.2862274799,
				"element": "C" 
			},
			{
				"x": 1.3643836812,
				"y": -0.4704358365,
				"z": -0.8358027878,
				"element": "C" 
			},
			{
				"x": 0.0269322848,
				"y": -0.6241148077,
				"z": -0.4507176206,
				"element": "C" 
			},
			{
				"x": -0.3060922059,
				"y": -0.8146410475,
				"z": 0.8909855398,
				"element": "C" 
			},
			{
				"x": -1.7470634582,
				"y": -1.0018123779,
				"z": 1.3309644972,
				"element": "C" 
			},
			{
				"x": -2.6982029473,
				"y": -0.4484720547,
				"z": 0.4264726875,
				"element": "O" 
			},
			{
				"x": -2.9393514107,
				"y": 0.9025680796,
				"z": 0.4200403798,
				"element": "C" 
			},
			{
				"x": -3.754686923,
				"y": 1.3389801093,
				"z": -0.6355314993,
				"element": "C" 
			},
			{
				"x": -4.1030446363,
				"y": 2.6809696935,
				"z": -0.7526318986,
				"element": "C" 
			},
			{
				"x": -5.018932739,
				"y": 3.1420697155,
				"z": -1.8710262239,
				"element": "C" 
			},
			{
				"x": -4.7776811277,
				"y": 4.4768054823,
				"z": -2.2944770274,
				"element": "O" 
			},
			{
				"x": -3.6218091891,
				"y": 3.597753535,
				"z": 0.1929878153,
				"element": "C" 
			},
			{
				"x": -2.8011659261,
				"y": 3.1743336319,
				"z": 1.2390894378,
				"element": "C" 
			},
			{
				"x": -2.2917347735,
				"y": 4.1764562213,
				"z": 2.2553738874,
				"element": "C" 
			},
			{
				"x": -2.569493393,
				"y": 3.7923535744,
				"z": 3.6057672583,
				"element": "O" 
			},
			{
				"x": -2.4565500112,
				"y": 1.8164944657,
				"z": 1.3605208552,
				"element": "C" 
			},
			{
				"x": 0.7113379039,
				"y": -0.860494141,
				"z": 1.850257971,
				"element": "C" 
			},
			{
				"x": 2.0510772323,
				"y": -0.6951723779,
				"z": 1.488073058,
				"element": "C" 
			},
			{
				"x": 3.145043561,
				"y": -0.6365387715,
				"z": 2.5327416722,
				"element": "C" 
			},
			{
				"x": 3.6043318586,
				"y": 0.7075730317,
				"z": 2.7724806149,
				"element": "O" 
			},
			{
				"x": 2.7077163223,
				"y": 1.6148637322,
				"z": 3.2832268268,
				"element": "C" 
			},
			{
				"x": 1.6433020815,
				"y": 1.2673911104,
				"z": 4.1149998811,
				"element": "C" 
			},
			{
				"x": 0.7257355458,
				"y": 2.2408272382,
				"z": 4.5234519844,
				"element": "C" 
			},
			{
				"x": -0.4751854786,
				"y": 1.8313106973,
				"z": 5.3423946238,
				"element": "C" 
			},
			{
				"x": -0.9434037829,
				"y": 0.5571902983,
				"z": 4.8717214046,
				"element": "O" 
			},
			{
				"x": 0.9161802908,
				"y": 3.5730361156,
				"z": 4.1555662707,
				"element": "C" 
			},
			{
				"x": 2.0166960842,
				"y": 3.9354244326,
				"z": 3.3662844829,
				"element": "C" 
			},
			{
				"x": 2.227719756,
				"y": 5.3814922048,
				"z": 2.9828353665,
				"element": "C" 
			},
			{
				"x": 0.9711105644,
				"y": 5.9640720605,
				"z": 2.6440607534,
				"element": "O" 
			},
			{
				"x": 2.9013285528,
				"y": 2.9534601996,
				"z": 2.9212030906,
				"element": "C" 
			},
			{
				"x": 2.3662011627,
				"y": -0.5036297739,
				"z": 0.1366324727,
				"element": "C" 
			},
			{
				"x": 0.2524635423,
				"y": -2.758793495,
				"z": -4.4576989176,
				"element": "C" 
			},
			{
				"x": 0.3655206338,
				"y": -4.1070469315,
				"z": -4.7926424523,
				"element": "C" 
			},
			{
				"x": -0.4984140026,
				"y": -4.6957832038,
				"z": -5.892952808,
				"element": "C" 
			},
			{
				"x": -0.8048232687,
				"y": -6.0707817413,
				"z": -5.707109893,
				"element": "O" 
			},
			{
				"x": 1.2944379377,
				"y": -4.9108466832,
				"z": -4.1179969446,
				"element": "C" 
			},
			{
				"x": 2.6419692709,
				"y": -4.7237396679,
				"z": -0.6059656024,
				"element": "H" 
			},
			{
				"x": 4.0867941239,
				"y": -5.2089973334,
				"z": -2.9680590982,
				"element": "H" 
			},
			{
				"x": 2.7964892462,
				"y": -6.2714896039,
				"z": -2.4072473691,
				"element": "H" 
			},
			{
				"x": 2.6272174891,
				"y": -2.6153525631,
				"z": -2.0045058849,
				"element": "H" 
			},
			{
				"x": 1.5735523595,
				"y": 0.8600780929,
				"z": -2.5135074117,
				"element": "H" 
			},
			{
				"x": 2.7736065534,
				"y": -0.4375019488,
				"z": -2.4762227903,
				"element": "H" 
			},
			{
				"x": -0.7555866644,
				"y": -0.5907696233,
				"z": -1.2011241597,
				"element": "H" 
			},
			{
				"x": -1.9956209756,
				"y": -2.0691688234,
				"z": 1.3544673297,
				"element": "H" 
			},
			{
				"x": -1.885589367,
				"y": -0.612284407,
				"z": 2.3469080865,
				"element": "H" 
			},
			{
				"x": -4.1027680219,
				"y": 0.6021693278,
				"z": -1.3542224471,
				"element": "H" 
			},
			{
				"x": -6.0610665547,
				"y": 3.1363699574,
				"z": -1.5287953111,
				"element": "H" 
			},
			{
				"x": -4.9582879236,
				"y": 2.4333868831,
				"z": -2.7121515473,
				"element": "H" 
			},
			{
				"x": -3.8471396256,
				"y": 4.5332839283,
				"z": -2.5501587322,
				"element": "H" 
			},
			{
				"x": -3.892925981,
				"y": 4.645064333,
				"z": 0.097613458,
				"element": "H" 
			},
			{
				"x": -2.7212175762,
				"y": 5.1654054868,
				"z": 2.0365135811,
				"element": "H" 
			},
			{
				"x": -1.2037629298,
				"y": 4.2791476438,
				"z": 2.2048563113,
				"element": "H" 
			},
			{
				"x": -3.5154180935,
				"y": 3.6009788072,
				"z": 3.6576330012,
				"element": "H" 
			},
			{
				"x": -1.8219602467,
				"y": 1.5074072631,
				"z": 2.1837883087,
				"element": "H" 
			},
			{
				"x": 0.4437190729,
				"y": -0.9927948929,
				"z": 2.8940805792,
				"element": "H" 
			},
			{
				"x": 2.8227890867,
				"y": -1.1115710339,
				"z": 3.4668279276,
				"element": "H" 
			},
			{
				"x": 4.0415685153,
				"y": -1.1581660497,
				"z": 2.1880335191,
				"element": "H" 
			},
			{
				"x": 1.4797433352,
				"y": 0.2430639474,
				"z": 4.4193628665,
				"element": "H" 
			},
			{
				"x": -0.1971251935,
				"y": 1.7553759375,
				"z": 6.4069509681,
				"element": "H" 
			},
			{
				"x": -1.2545237292,
				"y": 2.5940684014,
				"z": 5.2383931609,
				"element": "H" 
			},
			{
				"x": -1.6926375614,
				"y": 0.3038920273,
				"z": 5.4251448293,
				"element": "H" 
			},
			{
				"x": 0.1904352621,
				"y": 4.327799528,
				"z": 4.4392651439,
				"element": "H" 
			},
			{
				"x": 2.6855517077,
				"y": 5.9216151547,
				"z": 3.8284476586,
				"element": "H" 
			},
			{
				"x": 2.93621471,
				"y": 5.4398152599,
				"z": 2.1422564286,
				"element": "H" 
			},
			{
				"x": 1.0930078461,
				"y": 6.9191458207,
				"z": 2.5777511089,
				"element": "H" 
			},
			{
				"x": 3.7290764963,
				"y": 3.1979596443,
				"z": 2.2620868727,
				"element": "H" 
			},
			{
				"x": 3.4067194399,
				"y": -0.3717358651,
				"z": -0.1537011799,
				"element": "H" 
			},
			{
				"x": -0.4698886182,
				"y": -2.1148007858,
				"z": -4.9513336314,
				"element": "H" 
			},
			{
				"x": 0.0344428524,
				"y": -4.6498978608,
				"z": -6.850458988,
				"element": "H" 
			},
			{
				"x": -1.4109774085,
				"y": -4.090046679,
				"z": -6.008933629,
				"element": "H" 
			},
			{
				"x": -1.239167123,
				"y": -6.1548687435,
				"z": -4.8476857271,
				"element": "H" 
			},
			{
				"x": 1.3618024794,
				"y": -5.96507936,
				"z": -4.37107288,
				"element": "H" 
			}
		],
		 "valence_orbital": [ 
			{
				"type": "occ",
				"energy": -0.2349,
				"method": "rhf"
			},
			{
				"type": "occ",
				"energy": -0.2322,
				"method": "rhf"
			},
			{
				"type": "occ",
				"energy": -0.21733,
				"method": "rhf"
			},
			{
				"type": "occ",
				"energy": -0.21597,
				"method": "rhf"
			},
			{
				"type": "occ",
				"energy": -0.21275,
				"method": "rhf"
			},
			{
				"type": "unocc",
				"energy": -0.01595,
				"method": "rhf"
			},
			{
				"type": "unocc",
				"energy": -0.01335,
				"method": "rhf"
			},
			{
				"type": "unocc",
				"energy": -0.00543,
				"method": "rhf"
			},
			{
				"type": "unocc",
				"energy": -0.00251,
				"method": "rhf"
			},
			{
				"type": "unocc",
				"energy": 0.00382,
				"method": "rhf"
			}
		],
		"cosmo_sigma_profile": { 
			"-0.025": 0.0,
			"-0.024": 0.0,
			"-0.023": 0.0,
			"-0.022": 0.0,
			"-0.021": 0.0,
			"-0.02": 0.0,
			"-0.019": 0.0,
			"-0.018": 0.0,
			"-0.017": 0.0,
			"-0.016": 1.38260546382,
			"-0.015": 5.17045970569,
			"-0.014": 6.18757422953,
			"-0.013": 5.13945214479,
			"-0.012": 4.0494045895,
			"-0.011": 4.80029421333,
			"-0.01": 6.00893506038,
			"-0.009": 5.45761102892,
			"-0.008": 5.53995590503,
			"-0.007": 10.0549740457,
			"-0.006": 22.4165892197,
			"-0.005": 43.6211893465,
			"-0.004": 56.7128105792,
			"-0.003": 47.2936454039,
			"-0.002": 44.897401791,
			"-0.001": 36.2326089201,
			"0.0": 33.7307886012,
			"0.001": 32.1134127131,
			"0.002": 37.1268547874,
			"0.003": 41.8170083485,
			"0.004": 49.4408184428,
			"0.005": 44.4825291264,
			"0.006": 23.5081523525,
			"0.007": 13.6899924215,
			"0.008": 10.0915749265,
			"0.009": 9.18271131776,
			"0.01": 8.14474607259,
			"0.011": 6.60447002198,
			"0.012": 4.82469180257,
			"0.013": 5.39971630404,
			"0.014": 6.02384143915,
			"0.015": 0.273149587904,
			"0.016": 0.0,
			"0.017": 0.0,
			"0.018": 0.0,
			"0.019": 0.0,
			"0.02": 0.0,
			"0.021": 0.0,
			"0.022": 0.0,
			"0.023": 0.0,
			"0.024": 0.0,
			"0.025": 0.0
		}
	}
}
