{
	 "smiles": "OCC1CCN(CC(O)=O)CC1", 
	 "Tm": 476.15, 
	 "num_atms": 27, 
	 "gaussian": { 
		 "optdone": 1, 
		 "sigma_profile": "yes", 
		 "theory": "DFT", 
		 "functional": "B3LYP", 
		 "basiset": "6-31G**", 
		 "properties": { 
			 "R2extent": 3698.1715, 
			 "electric_dipole_moment_norm": 0.890117778724, 
			 "electric_quadrupole_moment_norm": 14.0745296536, 
			 "total_energy": -594.30655587, 
			 "HOMO_LUMO_gap": 0.21958, 
			 "cosmo_polarized_energy": -14.02, 
			 "cosmo_cavitation_energy": 28.29, 
			 "cosmo_dispersion_energy": -20.76, 
			 "cosmo_repulsion_energy": 1.69, 
			 "cosmo_total_nonelectrostatic_energy": 9.22, 
			 "SMD_solvation_energy": 3.88 
		},
		"coords": [
			{
				"x": 0.954556446,
				"y": -2.4061042454,
				"z": -0.1576157687,
				"element": "O" 
			},
			{
				"x": 0.319011392,
				"y": -1.8470796783,
				"z": 0.9894426309,
				"element": "C" 
			},
			{
				"x": -0.0157829401,
				"y": -0.3836315663,
				"z": 0.7091762399,
				"element": "C" 
			},
			{
				"x": 1.2295649887,
				"y": 0.4571339736,
				"z": 0.3930251195,
				"element": "C" 
			},
			{
				"x": 0.872211471,
				"y": 1.9539859902,
				"z": 0.2815541223,
				"element": "C" 
			},
			{
				"x": -0.5292316871,
				"y": 2.1455153241,
				"z": -0.1280846718,
				"element": "N" 
			},
			{
				"x": -0.8108723719,
				"y": 3.5033947352,
				"z": -0.5253266883,
				"element": "C" 
			},
			{
				"x": -0.8107691935,
				"y": 4.4876761814,
				"z": 0.6352556102,
				"element": "C" 
			},
			{
				"x": -1.0923596677,
				"y": 5.7370829854,
				"z": 0.1836974196,
				"element": "O" 
			},
			{
				"x": -0.5998956017,
				"y": 4.2496988449,
				"z": 1.8017987231,
				"element": "O" 
			},
			{
				"x": -0.9426416537,
				"y": 1.1462807259,
				"z": -1.1145504942,
				"element": "C" 
			},
			{
				"x": -1.0370574576,
				"y": -0.2396482392,
				"z": -0.4440718583,
				"element": "C" 
			},
			{
				"x": 1.1323654785,
				"y": -3.3372002727,
				"z": 0.0203201964,
				"element": "H" 
			},
			{
				"x": 0.9772725168,
				"y": -1.908046128,
				"z": 1.8716218616,
				"element": "H" 
			},
			{
				"x": -0.6077097757,
				"y": -2.3936406648,
				"z": 1.2311206325,
				"element": "H" 
			},
			{
				"x": -0.4684755167,
				"y": 0.0149065949,
				"z": 1.6263338964,
				"element": "H" 
			},
			{
				"x": 1.6692088051,
				"y": 0.0908695487,
				"z": -0.5403563718,
				"element": "H" 
			},
			{
				"x": 1.9941421584,
				"y": 0.3242222108,
				"z": 1.1671463765,
				"element": "H" 
			},
			{
				"x": 1.0036356924,
				"y": 2.4525149302,
				"z": 1.2454992273,
				"element": "H" 
			},
			{
				"x": 1.5612420834,
				"y": 2.4410596908,
				"z": -0.4374485002,
				"element": "H" 
			},
			{
				"x": -1.8089208884,
				"y": 3.5572427068,
				"z": -0.9764892945,
				"element": "H" 
			},
			{
				"x": -0.1132149737,
				"y": 3.9051858243,
				"z": -1.2892847015,
				"element": "H" 
			},
			{
				"x": -1.0813839713,
				"y": 6.3131671214,
				"z": 0.9661187009,
				"element": "H" 
			},
			{
				"x": -1.9193738037,
				"y": 1.4345070989,
				"z": -1.5177940186,
				"element": "H" 
			},
			{
				"x": -0.2490770429,
				"y": 1.1106798603,
				"z": -1.9772451763,
				"element": "H" 
			},
			{
				"x": -0.8518270282,
				"y": -1.0172015134,
				"z": -1.1923619334,
				"element": "H" 
			},
			{
				"x": -2.0484174584,
				"y": -0.3941720397,
				"z": -0.0511812796,
				"element": "H" 
			}
		],
		 "valence_orbital": [ 
			{
				"type": "occ",
				"energy": -0.30711,
				"method": "rhf"
			},
			{
				"type": "occ",
				"energy": -0.30147,
				"method": "rhf"
			},
			{
				"type": "occ",
				"energy": -0.27165,
				"method": "rhf"
			},
			{
				"type": "occ",
				"energy": -0.26329,
				"method": "rhf"
			},
			{
				"type": "occ",
				"energy": -0.2068,
				"method": "rhf"
			},
			{
				"type": "unocc",
				"energy": 0.01278,
				"method": "rhf"
			},
			{
				"type": "unocc",
				"energy": 0.07435,
				"method": "rhf"
			},
			{
				"type": "unocc",
				"energy": 0.08077,
				"method": "rhf"
			},
			{
				"type": "unocc",
				"energy": 0.08671,
				"method": "rhf"
			},
			{
				"type": "unocc",
				"energy": 0.1093,
				"method": "rhf"
			}
		],
		"cosmo_sigma_profile": { 
			"-0.025": 0.0,
			"-0.024": 0.0,
			"-0.023": 0.0,
			"-0.022": 0.0,
			"-0.021": 0.0,
			"-0.02": 0.0,
			"-0.019": 0.0,
			"-0.018": 0.571671627871,
			"-0.017": 0.894788146917,
			"-0.016": 1.21930803541,
			"-0.015": 2.0862353553,
			"-0.014": 1.40418354573,
			"-0.013": 1.52071136794,
			"-0.012": 1.03087433549,
			"-0.011": 2.4380055647,
			"-0.01": 1.78523989704,
			"-0.009": 1.28688376251,
			"-0.008": 0.748440680014,
			"-0.007": 3.20789551845,
			"-0.006": 5.60754944023,
			"-0.005": 5.6267906238,
			"-0.004": 8.48225287941,
			"-0.003": 18.9344903797,
			"-0.002": 34.7108348995,
			"-0.001": 35.3808997727,
			"0.0": 18.9612464244,
			"0.001": 10.7180281912,
			"0.002": 6.72502186994,
			"0.003": 5.21454519772,
			"0.004": 4.92029215511,
			"0.005": 4.71090506798,
			"0.006": 3.91005997953,
			"0.007": 4.43742591733,
			"0.008": 5.66427844299,
			"0.009": 5.20478739152,
			"0.01": 4.27296238718,
			"0.011": 5.59259527881,
			"0.012": 6.28788020173,
			"0.013": 2.32344104498,
			"0.014": 1.39544222229,
			"0.015": 0.690079767902,
			"0.016": 0.0637680317973,
			"0.017": 0.0,
			"0.018": 0.0,
			"0.019": 0.0,
			"0.02": 0.0,
			"0.021": 0.0,
			"0.022": 0.0,
			"0.023": 0.0,
			"0.024": 0.0,
			"0.025": 0.0
		}
	}
}
