{
	 "smiles": "CC1=NNC(N)=C1C#N", 
	 "Tm": 434.15, 
	 "num_atms": 15, 
	 "gaussian": { 
		 "optdone": 1, 
		 "sigma_profile": "yes", 
		 "theory": "DFT", 
		 "functional": "B3LYP", 
		 "basiset": "6-31G**", 
		 "properties": { 
			 "R2extent": 1228.4559, 
			 "electric_dipole_moment_norm": 4.8200961868, 
			 "electric_quadrupole_moment_norm": 18.9824129067, 
			 "total_energy": -413.126471884, 
			 "HOMO_LUMO_gap": 0.22769, 
			 "cosmo_polarized_energy": -18.89, 
			 "cosmo_cavitation_energy": 20.46, 
			 "cosmo_dispersion_energy": -14.63, 
			 "cosmo_repulsion_energy": 1.24, 
			 "cosmo_total_nonelectrostatic_energy": 7.07, 
			 "SMD_solvation_energy": 4.06 
		},
		"coords": [
			{
				"x": 0.1762678629,
				"y": -0.4062000748,
				"z": 2.1921073417,
				"element": "C" 
			},
			{
				"x": 0.4721817328,
				"y": -0.7325121956,
				"z": 0.7635002706,
				"element": "C" 
			},
			{
				"x": 1.4880064734,
				"y": -1.5089053697,
				"z": 0.4301711824,
				"element": "N" 
			},
			{
				"x": 1.4481063743,
				"y": -1.5721286102,
				"z": -0.9414587152,
				"element": "N" 
			},
			{
				"x": 0.4339894013,
				"y": -0.859424296,
				"z": -1.4810630262,
				"element": "C" 
			},
			{
				"x": 0.1533298286,
				"y": -0.8280622818,
				"z": -2.8309115266,
				"element": "N" 
			},
			{
				"x": -0.2377198586,
				"y": -0.2813158571,
				"z": -0.3986600807,
				"element": "C" 
			},
			{
				"x": -1.3520276504,
				"y": 0.5807785378,
				"z": -0.4928883396,
				"element": "C" 
			},
			{
				"x": -2.2684064474,
				"y": 1.2941322397,
				"z": -0.6021795417,
				"element": "N" 
			},
			{
				"x": 0.9004736157,
				"y": -0.9034246004,
				"z": 2.8401334114,
				"element": "H" 
			},
			{
				"x": -0.8307120816,
				"y": -0.7344760133,
				"z": 2.4708934843,
				"element": "H" 
			},
			{
				"x": 0.2270084969,
				"y": 0.6733104103,
				"z": 2.3703026686,
				"element": "H" 
			},
			{
				"x": 2.0940266677,
				"y": -2.1788803944,
				"z": -1.4212258684,
				"element": "H" 
			},
			{
				"x": 0.9544032709,
				"y": -0.7739140934,
				"z": -3.4469246582,
				"element": "H" 
			},
			{
				"x": -0.5580276864,
				"y": -0.1508774011,
				"z": -3.0756966024,
				"element": "H" 
			}
		],
		 "valence_orbital": [ 
			{
				"type": "occ",
				"energy": -0.34223,
				"method": "rhf"
			},
			{
				"type": "occ",
				"energy": -0.33093,
				"method": "rhf"
			},
			{
				"type": "occ",
				"energy": -0.29502,
				"method": "rhf"
			},
			{
				"type": "occ",
				"energy": -0.25766,
				"method": "rhf"
			},
			{
				"type": "occ",
				"energy": -0.22697,
				"method": "rhf"
			},
			{
				"type": "unocc",
				"energy": 0.00072,
				"method": "rhf"
			},
			{
				"type": "unocc",
				"energy": 0.02055,
				"method": "rhf"
			},
			{
				"type": "unocc",
				"energy": 0.02809,
				"method": "rhf"
			},
			{
				"type": "unocc",
				"energy": 0.05299,
				"method": "rhf"
			},
			{
				"type": "unocc",
				"energy": 0.08518,
				"method": "rhf"
			}
		],
		"cosmo_sigma_profile": { 
			"-0.025": 0.0,
			"-0.024": 0.0,
			"-0.023": 0.0,
			"-0.022": 0.0,
			"-0.021": 0.0,
			"-0.02": 0.0,
			"-0.019": 0.0,
			"-0.018": 0.0,
			"-0.017": 1.54229079691,
			"-0.016": 2.56693874929,
			"-0.015": 2.92023345493,
			"-0.014": 3.11357559508,
			"-0.013": 3.2167543215,
			"-0.012": 3.11166877725,
			"-0.011": 3.76712113381,
			"-0.01": 2.6612868618,
			"-0.009": 2.48938789937,
			"-0.008": 2.54688125863,
			"-0.007": 2.27355735689,
			"-0.006": 2.70779402181,
			"-0.005": 6.73856438968,
			"-0.004": 7.60496547851,
			"-0.003": 9.18057840654,
			"-0.002": 9.67590106306,
			"-0.001": 11.6752401495,
			"0.0": 9.48099913369,
			"0.001": 9.63205620273,
			"0.002": 10.4118511987,
			"0.003": 6.52160953466,
			"0.004": 4.38281886446,
			"0.005": 4.89137892398,
			"0.006": 4.29581425933,
			"0.007": 4.72938873995,
			"0.008": 4.48522285991,
			"0.009": 4.44450434737,
			"0.01": 5.08720434789,
			"0.011": 5.09948814622,
			"0.012": 4.96913727977,
			"0.013": 3.57168919845,
			"0.014": 2.52676638525,
			"0.015": 0.652010875279,
			"0.016": 0.56283558682,
			"0.017": 0.0,
			"0.018": 0.0,
			"0.019": 0.0,
			"0.02": 0.0,
			"0.021": 0.0,
			"0.022": 0.0,
			"0.023": 0.0,
			"0.024": 0.0,
			"0.025": 0.0
		}
	}
}
