{
	 "smiles": "CC(=O)C1=C(C)C(C)=CC(C)=C1C", 
	 "Tm": 348.15, 
	 "num_atms": 29, 
	 "gaussian": { 
		 "optdone": 1, 
		 "sigma_profile": "yes", 
		 "theory": "DFT", 
		 "functional": "B3LYP", 
		 "basiset": "6-31G**", 
		 "properties": { 
			 "R2extent": 2882.1593, 
			 "electric_dipole_moment_norm": 2.75542175538, 
			 "electric_quadrupole_moment_norm": 13.4845075212, 
			 "total_energy": -542.163801491, 
			 "HOMO_LUMO_gap": 0.21011, 
			 "cosmo_polarized_energy": -8.23, 
			 "cosmo_cavitation_energy": 30.79, 
			 "cosmo_dispersion_energy": -21.4, 
			 "cosmo_repulsion_energy": 1.69, 
			 "cosmo_total_nonelectrostatic_energy": 11.07, 
			 "SMD_solvation_energy": 5.91 
		},
		"coords": [
			{
				"x": -2.2894487925,
				"y": 0.960314638,
				"z": -2.5155014313,
				"element": "C" 
			},
			{
				"x": -0.7878097834,
				"y": 1.1858479921,
				"z": -2.5008525422,
				"element": "C" 
			},
			{
				"x": -0.1982383705,
				"y": 1.6444186556,
				"z": -3.4620978084,
				"element": "O" 
			},
			{
				"x": -0.0640211746,
				"y": 0.8035138329,
				"z": -1.2228861695,
				"element": "C" 
			},
			{
				"x": 0.4527608359,
				"y": -0.4990020838,
				"z": -1.0939832679,
				"element": "C" 
			},
			{
				"x": 0.3258990514,
				"y": -1.5152656509,
				"z": -2.2087566447,
				"element": "C" 
			},
			{
				"x": 1.1023085596,
				"y": -0.8557660087,
				"z": 0.1032258759,
				"element": "C" 
			},
			{
				"x": 1.6726534808,
				"y": -2.241079284,
				"z": 0.2968058663,
				"element": "C" 
			},
			{
				"x": 1.217482936,
				"y": 0.095771902,
				"z": 1.1188303609,
				"element": "C" 
			},
			{
				"x": 0.7202808694,
				"y": 1.3946681666,
				"z": 0.9925613075,
				"element": "C" 
			},
			{
				"x": 0.8884634472,
				"y": 2.3819907996,
				"z": 2.1234051748,
				"element": "C" 
			},
			{
				"x": 0.0686690234,
				"y": 1.7612279221,
				"z": -0.2004180982,
				"element": "C" 
			},
			{
				"x": -0.4679287164,
				"y": 3.1678683447,
				"z": -0.3594621769,
				"element": "C" 
			},
			{
				"x": -2.7076695204,
				"y": 1.2756824541,
				"z": -3.4734112681,
				"element": "H" 
			},
			{
				"x": -2.763196825,
				"y": 1.5155990869,
				"z": -1.6980246747,
				"element": "H" 
			},
			{
				"x": -2.5107382888,
				"y": -0.0990956096,
				"z": -2.3415524401,
				"element": "H" 
			},
			{
				"x": -0.3000265018,
				"y": -2.365894493,
				"z": -1.9101525594,
				"element": "H" 
			},
			{
				"x": -0.0980936618,
				"y": -1.0870477117,
				"z": -3.1184840049,
				"element": "H" 
			},
			{
				"x": 1.3050772836,
				"y": -1.9270906917,
				"z": -2.4781388879,
				"element": "H" 
			},
			{
				"x": 0.9053518694,
				"y": -3.0174155833,
				"z": 0.1895901664,
				"element": "H" 
			},
			{
				"x": 2.1162396841,
				"y": -2.34665165,
				"z": 1.2903446677,
				"element": "H" 
			},
			{
				"x": 2.4524100308,
				"y": -2.4668771059,
				"z": -0.4410409772,
				"element": "H" 
			},
			{
				"x": 1.7193156394,
				"y": -0.1841620121,
				"z": 2.0428018446,
				"element": "H" 
			},
			{
				"x": -0.0756779176,
				"y": 2.7699955555,
				"z": 2.4738255443,
				"element": "H" 
			},
			{
				"x": 1.3904884688,
				"y": 1.9183249588,
				"z": 2.9766427636,
				"element": "H" 
			},
			{
				"x": 1.4845684613,
				"y": 3.2513076294,
				"z": 1.8193820018,
				"element": "H" 
			},
			{
				"x": -0.8424069476,
				"y": 3.360943238,
				"z": -1.3662020091,
				"element": "H" 
			},
			{
				"x": -1.2800928881,
				"y": 3.3733243236,
				"z": 0.3496303951,
				"element": "H" 
			},
			{
				"x": 0.3133797472,
				"y": 3.9108483847,
				"z": -0.1635810083,
				"element": "H" 
			}
		],
		 "valence_orbital": [ 
			{
				"type": "occ",
				"energy": -0.32841,
				"method": "rhf"
			},
			{
				"type": "occ",
				"energy": -0.32698,
				"method": "rhf"
			},
			{
				"type": "occ",
				"energy": -0.24489,
				"method": "rhf"
			},
			{
				"type": "occ",
				"energy": -0.23288,
				"method": "rhf"
			},
			{
				"type": "occ",
				"energy": -0.22447,
				"method": "rhf"
			},
			{
				"type": "unocc",
				"energy": -0.01436,
				"method": "rhf"
			},
			{
				"type": "unocc",
				"energy": 0.0023,
				"method": "rhf"
			},
			{
				"type": "unocc",
				"energy": 0.0054,
				"method": "rhf"
			},
			{
				"type": "unocc",
				"energy": 0.08346,
				"method": "rhf"
			},
			{
				"type": "unocc",
				"energy": 0.09629,
				"method": "rhf"
			}
		],
		"cosmo_sigma_profile": { 
			"-0.025": 0.0,
			"-0.024": 0.0,
			"-0.023": 0.0,
			"-0.022": 0.0,
			"-0.021": 0.0,
			"-0.02": 0.0,
			"-0.019": 0.0,
			"-0.018": 0.0,
			"-0.017": 0.0,
			"-0.016": 0.0,
			"-0.015": 0.0,
			"-0.014": 0.0,
			"-0.013": 0.0,
			"-0.012": 0.0,
			"-0.011": 0.0,
			"-0.01": 0.0,
			"-0.009": 0.0,
			"-0.008": 0.0,
			"-0.007": 0.0,
			"-0.006": 0.928345387269,
			"-0.005": 7.56849132065,
			"-0.004": 33.4992199938,
			"-0.003": 30.1949619895,
			"-0.002": 32.5763845905,
			"-0.001": 30.0416527015,
			"0.0": 31.6356657816,
			"0.001": 17.3415188309,
			"0.002": 9.02653924001,
			"0.003": 6.89688270886,
			"0.004": 7.29840157835,
			"0.005": 7.42106123638,
			"0.006": 8.37438087113,
			"0.007": 3.18653277212,
			"0.008": 1.52644549959,
			"0.009": 1.60606616673,
			"0.01": 1.93882780989,
			"0.011": 3.84650856912,
			"0.012": 4.08718442373,
			"0.013": 2.07293380637,
			"0.014": 0.048365865931,
			"0.015": 0.0,
			"0.016": 0.0,
			"0.017": 0.0,
			"0.018": 0.0,
			"0.019": 0.0,
			"0.02": 0.0,
			"0.021": 0.0,
			"0.022": 0.0,
			"0.023": 0.0,
			"0.024": 0.0,
			"0.025": 0.0
		}
	}
}
