{
	 "smiles": "FC1=CC(COC2=CC=C(C=O)C=C2)=CC=C1", 
	 "Tm": 319.15, 
	 "num_atms": 28, 
	 "gaussian": { 
		 "optdone": 1, 
		 "sigma_profile": "yes", 
		 "theory": "DFT", 
		 "functional": "B3LYP", 
		 "basiset": "6-31G**", 
		 "properties": { 
			 "R2extent": 5332.9568, 
			 "electric_dipole_moment_norm": 4.02705752877, 
			 "electric_quadrupole_moment_norm": 26.7952721384, 
			 "total_energy": -790.386028883, 
			 "HOMO_LUMO_gap": 0.18285, 
			 "cosmo_polarized_energy": -11.39, 
			 "cosmo_cavitation_energy": 33.57, 
			 "cosmo_dispersion_energy": -23.5, 
			 "cosmo_repulsion_energy": 1.8, 
			 "cosmo_total_nonelectrostatic_energy": 11.87, 
			 "SMD_solvation_energy": 7.39 
		},
		"coords": [
			{
				"x": -3.6419433186,
				"y": 2.0399210094,
				"z": 0.0348467919,
				"element": "F" 
			},
			{
				"x": -2.4629549059,
				"y": 1.9573282274,
				"z": -0.614592288,
				"element": "C" 
			},
			{
				"x": -1.3062927033,
				"y": 1.7499535491,
				"z": 0.1260340596,
				"element": "C" 
			},
			{
				"x": -0.0819919383,
				"y": 1.6585981234,
				"z": -0.5439469088,
				"element": "C" 
			},
			{
				"x": 1.2067026536,
				"y": 1.4903179079,
				"z": 0.2374703695,
				"element": "C" 
			},
			{
				"x": 1.0582385715,
				"y": 0.7647107176,
				"z": 1.4584643009,
				"element": "O" 
			},
			{
				"x": 0.9762197131,
				"y": -0.5959866989,
				"z": 1.4291304662,
				"element": "C" 
			},
			{
				"x": 0.90886792,
				"y": -1.3678644761,
				"z": 0.2566853585,
				"element": "C" 
			},
			{
				"x": 0.8445056951,
				"y": -2.7527686743,
				"z": 0.3562351393,
				"element": "C" 
			},
			{
				"x": 0.8405060296,
				"y": -3.3873518423,
				"z": 1.6063307882,
				"element": "C" 
			},
			{
				"x": 0.7716222845,
				"y": -4.8566206818,
				"z": 1.6998980011,
				"element": "C" 
			},
			{
				"x": 0.7201466618,
				"y": -5.6144280579,
				"z": 0.7473591079,
				"element": "O" 
			},
			{
				"x": 0.8992364306,
				"y": -2.6027268999,
				"z": 2.769525142,
				"element": "C" 
			},
			{
				"x": 0.9669018994,
				"y": -1.2203262771,
				"z": 2.6874921129,
				"element": "C" 
			},
			{
				"x": -0.0460373069,
				"y": 1.7804343417,
				"z": -1.9382650775,
				"element": "C" 
			},
			{
				"x": -1.2228663453,
				"y": 1.9971671921,
				"z": -2.6580811772,
				"element": "C" 
			},
			{
				"x": -2.4491762015,
				"y": 2.0861997123,
				"z": -1.999594548,
				"element": "C" 
			},
			{
				"x": -1.3648814712,
				"y": 1.6524676831,
				"z": 1.2041643312,
				"element": "H" 
			},
			{
				"x": 1.9824304355,
				"y": 1.0323957818,
				"z": -0.388832974,
				"element": "H" 
			},
			{
				"x": 1.5790635602,
				"y": 2.4689919731,
				"z": 0.5582516844,
				"element": "H" 
			},
			{
				"x": 0.8836551604,
				"y": -0.8971568163,
				"z": -0.718242942,
				"element": "H" 
			},
			{
				"x": 0.7895571639,
				"y": -3.3703158253,
				"z": -0.5349090707,
				"element": "H" 
			},
			{
				"x": 0.7698186466,
				"y": -5.2518762565,
				"z": 2.7412988693,
				"element": "H" 
			},
			{
				"x": 0.8950177248,
				"y": -3.0866114187,
				"z": 3.7436432432,
				"element": "H" 
			},
			{
				"x": 1.0196467945,
				"y": -0.5979398229,
				"z": 3.5744369375,
				"element": "H" 
			},
			{
				"x": 0.9025436639,
				"y": 1.705032099,
				"z": -2.4636072827,
				"element": "H" 
			},
			{
				"x": -1.1870726478,
				"y": 2.0884186255,
				"z": -3.7394632739,
				"element": "H" 
			},
			{
				"x": -3.3791641703,
				"y": 2.2461368047,
				"z": -2.5338311608,
				"element": "H" 
			}
		],
		 "valence_orbital": [ 
			{
				"type": "occ",
				"energy": -0.26936,
				"method": "rhf"
			},
			{
				"type": "occ",
				"energy": -0.26332,
				"method": "rhf"
			},
			{
				"type": "occ",
				"energy": -0.2535,
				"method": "rhf"
			},
			{
				"type": "occ",
				"energy": -0.2475,
				"method": "rhf"
			},
			{
				"type": "occ",
				"energy": -0.23576,
				"method": "rhf"
			},
			{
				"type": "unocc",
				"energy": -0.05291,
				"method": "rhf"
			},
			{
				"type": "unocc",
				"energy": -0.02433,
				"method": "rhf"
			},
			{
				"type": "unocc",
				"energy": -0.01555,
				"method": "rhf"
			},
			{
				"type": "unocc",
				"energy": -0.00817,
				"method": "rhf"
			},
			{
				"type": "unocc",
				"energy": 0.0495,
				"method": "rhf"
			}
		],
		"cosmo_sigma_profile": { 
			"-0.025": 0.0,
			"-0.024": 0.0,
			"-0.023": 0.0,
			"-0.022": 0.0,
			"-0.021": 0.0,
			"-0.02": 0.0,
			"-0.019": 0.0,
			"-0.018": 0.0,
			"-0.017": 0.0,
			"-0.016": 0.0,
			"-0.015": 0.0,
			"-0.014": 0.0,
			"-0.013": 0.0,
			"-0.012": 0.0,
			"-0.011": 0.0,
			"-0.01": 0.0,
			"-0.009": 0.0,
			"-0.008": 1.18025774603,
			"-0.007": 13.6230707508,
			"-0.006": 21.5375867456,
			"-0.005": 21.6390382048,
			"-0.004": 18.2296423792,
			"-0.003": 15.4641630161,
			"-0.002": 15.2178652072,
			"-0.001": 15.1180078358,
			"0.0": 16.5985547668,
			"0.001": 23.9299065729,
			"0.002": 24.8441196434,
			"0.003": 29.4409498672,
			"0.004": 21.941734939,
			"0.005": 8.61545404593,
			"0.006": 2.16158011065,
			"0.007": 2.50700935129,
			"0.008": 3.27591451165,
			"0.009": 2.26638710154,
			"0.01": 1.91017806862,
			"0.011": 3.79760212158,
			"0.012": 4.25234411312,
			"0.013": 1.60765863857,
			"0.014": 0.181769600224,
			"0.015": 0.0,
			"0.016": 0.0,
			"0.017": 0.0,
			"0.018": 0.0,
			"0.019": 0.0,
			"0.02": 0.0,
			"0.021": 0.0,
			"0.022": 0.0,
			"0.023": 0.0,
			"0.024": 0.0,
			"0.025": 0.0
		}
	}
}
