{
	 "smiles": "OC(=O)CSC1=NN=CN1C1=CC=CC=C1", 
	 "Tm": 481.15, 
	 "num_atms": 25, 
	 "gaussian": { 
		 "optdone": 1, 
		 "sigma_profile": "yes", 
		 "theory": "DFT", 
		 "functional": "B3LYP", 
		 "basiset": "6-31G**", 
		 "properties": { 
			 "R2extent": 4927.3015, 
			 "electric_dipole_moment_norm": 6.19467511497, 
			 "electric_quadrupole_moment_norm": 14.7413627074, 
			 "total_energy": -1099.35376581, 
			 "HOMO_LUMO_gap": 0.19412, 
			 "cosmo_polarized_energy": -21.06, 
			 "cosmo_cavitation_energy": 31.96, 
			 "cosmo_dispersion_energy": -22.98, 
			 "cosmo_repulsion_energy": 1.77, 
			 "cosmo_total_nonelectrostatic_energy": 10.75, 
			 "SMD_solvation_energy": 5.28 
		},
		"coords": [
			{
				"x": 1.9590987526,
				"y": 4.0422677592,
				"z": -0.0668576334,
				"element": "O" 
			},
			{
				"x": 1.7198007207,
				"y": 4.1517250033,
				"z": -1.3869517509,
				"element": "C" 
			},
			{
				"x": 1.486662312,
				"y": 5.2005808661,
				"z": -1.9408499858,
				"element": "O" 
			},
			{
				"x": 1.8362951438,
				"y": 2.8440852295,
				"z": -2.1581855933,
				"element": "C" 
			},
			{
				"x": 1.7923980724,
				"y": 1.2741148939,
				"z": -1.2251805537,
				"element": "S" 
			},
			{
				"x": 0.1022542153,
				"y": 1.336465436,
				"z": -0.7267610795,
				"element": "C" 
			},
			{
				"x": -0.7378068264,
				"y": 2.3118093548,
				"z": -0.9857754947,
				"element": "N" 
			},
			{
				"x": -1.9657578278,
				"y": 1.9552020812,
				"z": -0.4533988793,
				"element": "N" 
			},
			{
				"x": -1.8216597566,
				"y": 0.7818593958,
				"z": 0.0984592708,
				"element": "C" 
			},
			{
				"x": -0.5255218644,
				"y": 0.3237120951,
				"z": -0.0327005308,
				"element": "N" 
			},
			{
				"x": -0.0040802657,
				"y": -0.9217188551,
				"z": 0.43226515,
				"element": "C" 
			},
			{
				"x": 1.1351813687,
				"y": -0.9469876887,
				"z": 1.242948249,
				"element": "C" 
			},
			{
				"x": 1.6250617509,
				"y": -2.1716971764,
				"z": 1.6964395197,
				"element": "C" 
			},
			{
				"x": 0.9728313731,
				"y": -3.360182451,
				"z": 1.3624234,
				"element": "C" 
			},
			{
				"x": -0.1709138099,
				"y": -3.3251606406,
				"z": 0.5621302206,
				"element": "C" 
			},
			{
				"x": -0.6587081369,
				"y": -2.1082942582,
				"z": 0.0868173967,
				"element": "C" 
			},
			{
				"x": 1.8465601901,
				"y": 4.9363479994,
				"z": 0.2974853957,
				"element": "H" 
			},
			{
				"x": 2.8054126378,
				"y": 2.8371053223,
				"z": -2.6673647877,
				"element": "H" 
			},
			{
				"x": 1.0513239868,
				"y": 2.8467808887,
				"z": -2.9145980033,
				"element": "H" 
			},
			{
				"x": -2.5831489845,
				"y": 0.222031877,
				"z": 0.6219097855,
				"element": "H" 
			},
			{
				"x": 1.6216438077,
				"y": -0.0175833681,
				"z": 1.5192371172,
				"element": "H" 
			},
			{
				"x": 2.5116252378,
				"y": -2.1932110032,
				"z": 2.3227012961,
				"element": "H" 
			},
			{
				"x": 1.3544411812,
				"y": -4.3100961591,
				"z": 1.7239932422,
				"element": "H" 
			},
			{
				"x": -0.6795374531,
				"y": -4.2466510564,
				"z": 0.2958217081,
				"element": "H" 
			},
			{
				"x": -1.5307558256,
				"y": -2.0722055455,
				"z": -0.5583074594,
				"element": "H" 
			}
		],
		 "valence_orbital": [ 
			{
				"type": "occ",
				"energy": -0.27678,
				"method": "rhf"
			},
			{
				"type": "occ",
				"energy": -0.27557,
				"method": "rhf"
			},
			{
				"type": "occ",
				"energy": -0.26856,
				"method": "rhf"
			},
			{
				"type": "occ",
				"energy": -0.25306,
				"method": "rhf"
			},
			{
				"type": "occ",
				"energy": -0.2281,
				"method": "rhf"
			},
			{
				"type": "unocc",
				"energy": -0.03398,
				"method": "rhf"
			},
			{
				"type": "unocc",
				"energy": -0.02931,
				"method": "rhf"
			},
			{
				"type": "unocc",
				"energy": 0.00666,
				"method": "rhf"
			},
			{
				"type": "unocc",
				"energy": 0.0187,
				"method": "rhf"
			},
			{
				"type": "unocc",
				"energy": 0.02253,
				"method": "rhf"
			}
		],
		"cosmo_sigma_profile": { 
			"-0.025": 0.0,
			"-0.024": 0.0,
			"-0.023": 0.0,
			"-0.022": 0.0,
			"-0.021": 0.0,
			"-0.02": 0.0,
			"-0.019": 0.324345240406,
			"-0.018": 0.828006342761,
			"-0.017": 1.26300475152,
			"-0.016": 0.906817752195,
			"-0.015": 0.392891878868,
			"-0.014": 0.578533883111,
			"-0.013": 0.863126865345,
			"-0.012": 0.794637619558,
			"-0.011": 1.76871279088,
			"-0.01": 5.5960864644,
			"-0.009": 4.45770705736,
			"-0.008": 5.73701800578,
			"-0.007": 12.7729061047,
			"-0.006": 17.0202078149,
			"-0.005": 17.4351293531,
			"-0.004": 14.3502510269,
			"-0.003": 15.4188783304,
			"-0.002": 13.5059129371,
			"-0.001": 12.4751693568,
			"0.0": 13.7345772451,
			"0.001": 15.4660810631,
			"0.002": 16.4670362489,
			"0.003": 15.8942848159,
			"0.004": 14.0967990159,
			"0.005": 5.31184439935,
			"0.006": 6.27499755938,
			"0.007": 6.90647710645,
			"0.008": 4.93054921887,
			"0.009": 5.65906977189,
			"0.01": 5.87385190267,
			"0.011": 7.51538036908,
			"0.012": 5.22663890018,
			"0.013": 4.0594364325,
			"0.014": 1.50231832519,
			"0.015": 1.45816910119,
			"0.016": 0.985212324298,
			"0.017": 0.150540351996,
			"0.018": 0.0,
			"0.019": 0.0,
			"0.02": 0.0,
			"0.021": 0.0,
			"0.022": 0.0,
			"0.023": 0.0,
			"0.024": 0.0,
			"0.025": 0.0
		}
	}
}
