{
	 "smiles": "CCOC1=C(C=CC=C1)N(=O)=O", 
	 "Tm": 275.35, 
	 "num_atms": 21, 
	 "gaussian": { 
		 "optdone": 1, 
		 "sigma_profile": "yes", 
		 "theory": "DFT", 
		 "functional": "B3LYP", 
		 "basiset": "6-31G**", 
		 "properties": { 
			 "R2extent": 3138.6211, 
			 "electric_dipole_moment_norm": 5.4553944807, 
			 "electric_quadrupole_moment_norm": 18.4609620827, 
			 "total_energy": -590.585112685, 
			 "HOMO_LUMO_gap": 0.1681, 
			 "cosmo_polarized_energy": -11.5, 
			 "cosmo_cavitation_energy": 25.5, 
			 "cosmo_dispersion_energy": -18.59, 
			 "cosmo_repulsion_energy": 1.5, 
			 "cosmo_total_nonelectrostatic_energy": 8.41, 
			 "SMD_solvation_energy": 7.11 
		},
		"coords": [
			{
				"x": 4.2239358872,
				"y": 0.0834346364,
				"z": 1.0674997577,
				"element": "C" 
			},
			{
				"x": 2.709988496,
				"y": 0.0137265184,
				"z": 1.1501428374,
				"element": "C" 
			},
			{
				"x": 2.1925396724,
				"y": 0.9189934426,
				"z": 0.167166335,
				"element": "O" 
			},
			{
				"x": 0.8604618375,
				"y": 1.0437220836,
				"z": 0.0151801691,
				"element": "C" 
			},
			{
				"x": 0.3634723056,
				"y": 1.9000001617,
				"z": -0.9978163658,
				"element": "C" 
			},
			{
				"x": -1.0060558904,
				"y": 2.0234406419,
				"z": -1.2323097804,
				"element": "C" 
			},
			{
				"x": -1.9212330649,
				"y": 1.3255682243,
				"z": -0.4528430438,
				"element": "C" 
			},
			{
				"x": -1.4480106281,
				"y": 0.4854312382,
				"z": 0.5560173005,
				"element": "C" 
			},
			{
				"x": -0.0814094965,
				"y": 0.3383207969,
				"z": 0.7841146484,
				"element": "C" 
			},
			{
				"x": 1.2530364695,
				"y": 2.7030380143,
				"z": -1.8463097558,
				"element": "N" 
			},
			{
				"x": 2.3542184558,
				"y": 3.0225709879,
				"z": -1.4068720149,
				"element": "O" 
			},
			{
				"x": 0.8195267431,
				"y": 3.0330411657,
				"z": -2.9540653193,
				"element": "O" 
			},
			{
				"x": 4.5725215528,
				"y": 1.1002980177,
				"z": 1.2648975076,
				"element": "H" 
			},
			{
				"x": 4.6685165666,
				"y": -0.5899898388,
				"z": 1.8066063278,
				"element": "H" 
			},
			{
				"x": 4.5695054892,
				"y": -0.2118172577,
				"z": 0.0733801606,
				"element": "H" 
			},
			{
				"x": 2.3476365616,
				"y": -1.0028312406,
				"z": 0.9453497853,
				"element": "H" 
			},
			{
				"x": 2.3553346032,
				"y": 0.309243319,
				"z": 2.1466353069,
				"element": "H" 
			},
			{
				"x": -1.3235005766,
				"y": 2.678293925,
				"z": -2.0343794275,
				"element": "H" 
			},
			{
				"x": -2.9854291691,
				"y": 1.4360811974,
				"z": -0.6303738188,
				"element": "H" 
			},
			{
				"x": -2.1469084194,
				"y": -0.0701704165,
				"z": 1.174558761,
				"element": "H" 
			},
			{
				"x": 0.2564526044,
				"y": -0.3312956174,
				"z": 1.564520629,
				"element": "H" 
			}
		],
		 "valence_orbital": [ 
			{
				"type": "occ",
				"energy": -0.29531,
				"method": "rhf"
			},
			{
				"type": "occ",
				"energy": -0.29338,
				"method": "rhf"
			},
			{
				"type": "occ",
				"energy": -0.28335,
				"method": "rhf"
			},
			{
				"type": "occ",
				"energy": -0.26714,
				"method": "rhf"
			},
			{
				"type": "occ",
				"energy": -0.24248,
				"method": "rhf"
			},
			{
				"type": "unocc",
				"energy": -0.07438,
				"method": "rhf"
			},
			{
				"type": "unocc",
				"energy": -0.01177,
				"method": "rhf"
			},
			{
				"type": "unocc",
				"energy": 0.00257,
				"method": "rhf"
			},
			{
				"type": "unocc",
				"energy": 0.07191,
				"method": "rhf"
			},
			{
				"type": "unocc",
				"energy": 0.08922,
				"method": "rhf"
			}
		],
		"cosmo_sigma_profile": { 
			"-0.025": 0.0,
			"-0.024": 0.0,
			"-0.023": 0.0,
			"-0.022": 0.0,
			"-0.021": 0.0,
			"-0.02": 0.0,
			"-0.019": 0.0,
			"-0.018": 0.0,
			"-0.017": 0.0,
			"-0.016": 0.0,
			"-0.015": 0.0,
			"-0.014": 0.0,
			"-0.013": 0.0,
			"-0.012": 0.0,
			"-0.011": 0.0,
			"-0.01": 0.0,
			"-0.009": 0.0,
			"-0.008": 1.15484334134,
			"-0.007": 8.05740542501,
			"-0.006": 13.10735131,
			"-0.005": 17.8752914526,
			"-0.004": 19.3211583476,
			"-0.003": 16.9107583782,
			"-0.002": 14.5832300515,
			"-0.001": 14.0692471093,
			"0.0": 17.128620072,
			"0.001": 14.1209075767,
			"0.002": 12.0301824049,
			"0.003": 11.8482414491,
			"0.004": 4.10507656869,
			"0.005": 3.92456782619,
			"0.006": 3.5926159332,
			"0.007": 4.09506053989,
			"0.008": 10.5840414369,
			"0.009": 7.33979944305,
			"0.01": 6.12020183536,
			"0.011": 2.12266802756,
			"0.012": 0.868171669073,
			"0.013": 0.0389566348955,
			"0.014": 0.0,
			"0.015": 0.0,
			"0.016": 0.0,
			"0.017": 0.0,
			"0.018": 0.0,
			"0.019": 0.0,
			"0.02": 0.0,
			"0.021": 0.0,
			"0.022": 0.0,
			"0.023": 0.0,
			"0.024": 0.0,
			"0.025": 0.0
		}
	}
}
