{
	 "smiles": "NC1=NC2=C(N1)C=CC=C2", 
	 "Tm": 503.15, 
	 "num_atms": 17, 
	 "gaussian": { 
		 "optdone": 1, 
		 "sigma_profile": "yes", 
		 "theory": "DFT", 
		 "functional": "B3LYP", 
		 "basiset": "6-31G**", 
		 "properties": { 
			 "R2extent": 1435.8387, 
			 "electric_dipole_moment_norm": 3.8176603136, 
			 "electric_quadrupole_moment_norm": 12.3511837149, 
			 "total_energy": -435.23364689, 
			 "HOMO_LUMO_gap": 0.20311, 
			 "cosmo_polarized_energy": -16.26, 
			 "cosmo_cavitation_energy": 20.94, 
			 "cosmo_dispersion_energy": -16.15, 
			 "cosmo_repulsion_energy": 1.31, 
			 "cosmo_total_nonelectrostatic_energy": 6.1, 
			 "SMD_solvation_energy": 1.31 
		},
		"coords": [
			{
				"x": 2.7288384813,
				"y": 2.0964213859,
				"z": -0.0251805032,
				"element": "N" 
			},
			{
				"x": 1.7880940318,
				"y": 1.0816903203,
				"z": -0.0722286152,
				"element": "C" 
			},
			{
				"x": 1.9933100857,
				"y": -0.119530046,
				"z": -0.5522072884,
				"element": "N" 
			},
			{
				"x": 0.808601856,
				"y": -0.8063228947,
				"z": -0.298953295,
				"element": "C" 
			},
			{
				"x": -0.1304818004,
				"y": 0.0386616952,
				"z": 0.3420201034,
				"element": "C" 
			},
			{
				"x": 0.5264784466,
				"y": 1.262223939,
				"z": 0.4613885247,
				"element": "N" 
			},
			{
				"x": -1.4042452509,
				"y": -0.387778778,
				"z": 0.7043026222,
				"element": "C" 
			},
			{
				"x": -1.7322161364,
				"y": -1.7137701225,
				"z": 0.4097069792,
				"element": "C" 
			},
			{
				"x": -0.8163831096,
				"y": -2.5666611433,
				"z": -0.2292526971,
				"element": "C" 
			},
			{
				"x": 0.4574459924,
				"y": -2.1271163294,
				"z": -0.5912219612,
				"element": "C" 
			},
			{
				"x": 2.3836670661,
				"y": 3.0107556368,
				"z": -0.2917936701,
				"element": "H" 
			},
			{
				"x": 3.5552160152,
				"y": 1.8417112889,
				"z": -0.5518339052,
				"element": "H" 
			},
			{
				"x": 0.236134071,
				"y": 2.0436938146,
				"z": 1.0277730267,
				"element": "H" 
			},
			{
				"x": -2.113650155,
				"y": 0.2720811025,
				"z": 1.1953997855,
				"element": "H" 
			},
			{
				"x": -2.7145657113,
				"y": -2.0897424431,
				"z": 0.6797397969,
				"element": "H" 
			},
			{
				"x": -1.1085701862,
				"y": -3.5903395513,
				"z": -0.4448789218,
				"element": "H" 
			},
			{
				"x": 1.1666263036,
				"y": -2.7839778749,
				"z": -1.0845799813,
				"element": "H" 
			}
		],
		 "valence_orbital": [ 
			{
				"type": "occ",
				"energy": -0.30649,
				"method": "rhf"
			},
			{
				"type": "occ",
				"energy": -0.28444,
				"method": "rhf"
			},
			{
				"type": "occ",
				"energy": -0.26602,
				"method": "rhf"
			},
			{
				"type": "occ",
				"energy": -0.2186,
				"method": "rhf"
			},
			{
				"type": "occ",
				"energy": -0.19979,
				"method": "rhf"
			},
			{
				"type": "unocc",
				"energy": 0.00332,
				"method": "rhf"
			},
			{
				"type": "unocc",
				"energy": 0.02996,
				"method": "rhf"
			},
			{
				"type": "unocc",
				"energy": 0.06289,
				"method": "rhf"
			},
			{
				"type": "unocc",
				"energy": 0.07009,
				"method": "rhf"
			},
			{
				"type": "unocc",
				"energy": 0.10014,
				"method": "rhf"
			}
		],
		"cosmo_sigma_profile": { 
			"-0.025": 0.0,
			"-0.024": 0.0,
			"-0.023": 0.0,
			"-0.022": 0.0,
			"-0.021": 0.0,
			"-0.02": 0.0,
			"-0.019": 0.0,
			"-0.018": 0.0,
			"-0.017": 0.0101262725274,
			"-0.016": 1.21916374084,
			"-0.015": 1.91282513614,
			"-0.014": 2.71095476481,
			"-0.013": 4.1665692596,
			"-0.012": 3.94917248136,
			"-0.011": 3.33524880002,
			"-0.01": 3.6199488574,
			"-0.009": 2.6648090509,
			"-0.008": 2.56737065091,
			"-0.007": 2.47456915986,
			"-0.006": 4.66592079204,
			"-0.005": 8.06110198493,
			"-0.004": 8.74885045061,
			"-0.003": 9.24436195167,
			"-0.002": 9.48074520055,
			"-0.001": 6.77702288121,
			"0.0": 7.40297648411,
			"0.001": 7.03831243638,
			"0.002": 8.57365144034,
			"0.003": 10.1159554708,
			"0.004": 10.4355421922,
			"0.005": 11.2847116854,
			"0.006": 11.3056305946,
			"0.007": 8.93316190672,
			"0.008": 3.10801358011,
			"0.009": 1.51464300409,
			"0.01": 1.95529758292,
			"0.011": 1.50528723262,
			"0.012": 1.91345824049,
			"0.013": 2.15922340739,
			"0.014": 0.818513056022,
			"0.015": 0.693703829584,
			"0.016": 1.17866373678,
			"0.017": 0.916879908081,
			"0.018": 0.641115211675,
			"0.019": 0.00111656230767,
			"0.02": 0.0,
			"0.021": 0.0,
			"0.022": 0.0,
			"0.023": 0.0,
			"0.024": 0.0,
			"0.025": 0.0
		}
	}
}
