{
	 "smiles": "C[C@@]1(O)CC[C@](C)(O)C#CCCCCCC#C1", 
	 "Tm": 373.15, 
	 "num_atms": 39, 
	 "gaussian": { 
		 "optdone": 1, 
		 "sigma_profile": "yes", 
		 "theory": "DFT", 
		 "functional": "B3LYP", 
		 "basiset": "6-31G**", 
		 "properties": { 
			 "R2extent": 4707.9345, 
			 "electric_dipole_moment_norm": 1.81168657609, 
			 "electric_quadrupole_moment_norm": 16.4106778142, 
			 "total_energy": -735.119467725, 
			 "HOMO_LUMO_gap": 0.22159, 
			 "cosmo_polarized_energy": -11.66, 
			 "cosmo_cavitation_energy": 36.29, 
			 "cosmo_dispersion_energy": -25.58, 
			 "cosmo_repulsion_energy": 1.94, 
			 "cosmo_total_nonelectrostatic_energy": 12.64, 
			 "SMD_solvation_energy": 6.06 
		},
		"coords": [
			{
				"x": -1.1013768849,
				"y": -3.3471313918,
				"z": -1.6971041749,
				"element": "C" 
			},
			{
				"x": -1.2763668086,
				"y": -2.5315998247,
				"z": -0.3956328018,
				"element": "C" 
			},
			{
				"x": -2.400748471,
				"y": -3.066827575,
				"z": 0.3340865321,
				"element": "O" 
			},
			{
				"x": 0.044136788,
				"y": -2.6787621512,
				"z": 0.4482782501,
				"element": "C" 
			},
			{
				"x": 0.1777150671,
				"y": -2.1562994357,
				"z": 1.9117497711,
				"element": "C" 
			},
			{
				"x": -0.2034926146,
				"y": -0.662686226,
				"z": 2.033645685,
				"element": "C" 
			},
			{
				"x": -1.7314488581,
				"y": -0.582656306,
				"z": 2.2735802024,
				"element": "C" 
			},
			{
				"x": 0.2263518809,
				"y": -0.0565166242,
				"z": 0.7883698332,
				"element": "O" 
			},
			{
				"x": 0.3972162364,
				"y": 0.2800217142,
				"z": 3.034825988,
				"element": "C" 
			},
			{
				"x": 0.5496328822,
				"y": 1.4796903298,
				"z": 3.1955621908,
				"element": "C" 
			},
			{
				"x": 0.5793108892,
				"y": 2.9314688306,
				"z": 2.9701706246,
				"element": "C" 
			},
			{
				"x": 0.4137856151,
				"y": 3.2200608808,
				"z": 1.4384446631,
				"element": "C" 
			},
			{
				"x": -0.9156116594,
				"y": 2.7256447675,
				"z": 0.8121013586,
				"element": "C" 
			},
			{
				"x": -0.8374593961,
				"y": 2.382801518,
				"z": -0.6936767474,
				"element": "C" 
			},
			{
				"x": -1.9905213778,
				"y": 1.475766479,
				"z": -1.2401431421,
				"element": "C" 
			},
			{
				"x": -1.8354873171,
				"y": 0.027165908,
				"z": -1.0155143592,
				"element": "C" 
			},
			{
				"x": -1.6291742209,
				"y": -1.1397224741,
				"z": -0.7617160713,
				"element": "C" 
			},
			{
				"x": -2.0217743869,
				"y": -3.29960199,
				"z": -2.2833131872,
				"element": "H" 
			},
			{
				"x": -0.2795851913,
				"y": -2.9547934454,
				"z": -2.3028757735,
				"element": "H" 
			},
			{
				"x": -0.886282067,
				"y": -4.3975456808,
				"z": -1.4655664863,
				"element": "H" 
			},
			{
				"x": -2.1720220637,
				"y": -3.9757854071,
				"z": 0.574188447,
				"element": "H" 
			},
			{
				"x": 0.2441064098,
				"y": -3.7597590649,
				"z": 0.4856422941,
				"element": "H" 
			},
			{
				"x": 0.8475016621,
				"y": -2.2395509801,
				"z": -0.1470619905,
				"element": "H" 
			},
			{
				"x": 1.2227216967,
				"y": -2.3143705035,
				"z": 2.2052499388,
				"element": "H" 
			},
			{
				"x": -0.4341789472,
				"y": -2.7556983432,
				"z": 2.5947018956,
				"element": "H" 
			},
			{
				"x": -2.1147895653,
				"y": 0.4276042026,
				"z": 2.1406936079,
				"element": "H" 
			},
			{
				"x": -2.2897004665,
				"y": -1.2693922434,
				"z": 1.6422006003,
				"element": "H" 
			},
			{
				"x": -1.9016456993,
				"y": -0.8681675649,
				"z": 3.3168612718,
				"element": "H" 
			},
			{
				"x": 1.1333026456,
				"y": 0.2318447522,
				"z": 0.9554389466,
				"element": "H" 
			},
			{
				"x": 1.5184761338,
				"y": 3.3794282816,
				"z": 3.3182933675,
				"element": "H" 
			},
			{
				"x": -0.2250970641,
				"y": 3.4201227708,
				"z": 3.5360410415,
				"element": "H" 
			},
			{
				"x": 0.536855902,
				"y": 4.2994886366,
				"z": 1.2845292268,
				"element": "H" 
			},
			{
				"x": 1.2557452704,
				"y": 2.740726182,
				"z": 0.9247584525,
				"element": "H" 
			},
			{
				"x": -1.2212177249,
				"y": 1.8270862447,
				"z": 1.338717394,
				"element": "H" 
			},
			{
				"x": -1.7012622123,
				"y": 3.4751487463,
				"z": 0.9788180231,
				"element": "H" 
			},
			{
				"x": 0.1115831512,
				"y": 1.8819183955,
				"z": -0.9046809261,
				"element": "H" 
			},
			{
				"x": -0.8425030119,
				"y": 3.3093730751,
				"z": -1.2823595796,
				"element": "H" 
			},
			{
				"x": -2.9475558498,
				"y": 1.8070582508,
				"z": -0.8127891703,
				"element": "H" 
			},
			{
				"x": -2.0775403715,
				"y": 1.6540472661,
				"z": -2.3203151961,
				"element": "H" 
			}
		],
		 "valence_orbital": [ 
			{
				"type": "occ",
				"energy": -0.26445,
				"method": "rhf"
			},
			{
				"type": "occ",
				"energy": -0.24666,
				"method": "rhf"
			},
			{
				"type": "occ",
				"energy": -0.24394,
				"method": "rhf"
			},
			{
				"type": "occ",
				"energy": -0.23413,
				"method": "rhf"
			},
			{
				"type": "occ",
				"energy": -0.22038,
				"method": "rhf"
			},
			{
				"type": "unocc",
				"energy": 0.00121,
				"method": "rhf"
			},
			{
				"type": "unocc",
				"energy": 0.04984,
				"method": "rhf"
			},
			{
				"type": "unocc",
				"energy": 0.05369,
				"method": "rhf"
			},
			{
				"type": "unocc",
				"energy": 0.06448,
				"method": "rhf"
			},
			{
				"type": "unocc",
				"energy": 0.07333,
				"method": "rhf"
			}
		],
		"cosmo_sigma_profile": { 
			"-0.025": 0.0,
			"-0.024": 0.0,
			"-0.023": 0.0,
			"-0.022": 0.0,
			"-0.021": 0.0,
			"-0.02": 0.0,
			"-0.019": 0.0,
			"-0.018": 0.0,
			"-0.017": 0.0,
			"-0.016": 0.0,
			"-0.015": 0.626200770054,
			"-0.014": 0.733049094944,
			"-0.013": 0.985567541632,
			"-0.012": 1.27986709708,
			"-0.011": 2.50567206994,
			"-0.01": 1.28949853003,
			"-0.009": 1.60366405927,
			"-0.008": 1.39176151987,
			"-0.007": 2.3095341708,
			"-0.006": 3.47560283512,
			"-0.005": 7.49095568383,
			"-0.004": 15.2418402562,
			"-0.003": 26.837211821,
			"-0.002": 40.877576066,
			"-0.001": 42.6093245885,
			"0.0": 36.8392292388,
			"0.001": 24.0277926495,
			"0.002": 12.3266787889,
			"0.003": 6.98149315623,
			"0.004": 7.65509427357,
			"0.005": 7.16975407751,
			"0.006": 7.13296515099,
			"0.007": 7.72347670196,
			"0.008": 8.60523842236,
			"0.009": 4.88762249412,
			"0.01": 2.4154552755,
			"0.011": 2.20681609811,
			"0.012": 1.88532982782,
			"0.013": 1.14945709646,
			"0.014": 1.28684393412,
			"0.015": 0.191042742769,
			"0.016": 0.0,
			"0.017": 0.0,
			"0.018": 0.0,
			"0.019": 0.0,
			"0.02": 0.0,
			"0.021": 0.0,
			"0.022": 0.0,
			"0.023": 0.0,
			"0.024": 0.0,
			"0.025": 0.0
		}
	}
}
