{
	 "smiles": "CC(C)C(Br)C(=O)NC1CCCC1", 
	 "Tm": 373.15, 
	 "num_atms": 31, 
	 "gaussian": { 
		 "optdone": 1, 
		 "sigma_profile": "yes", 
		 "theory": "DFT", 
		 "functional": "B3LYP", 
		 "basiset": "6-31G**", 
		 "properties": { 
			 "R2extent": 5002.6975, 
			 "electric_dipole_moment_norm": 2.01484230152, 
			 "electric_quadrupole_moment_norm": 8.05480394237, 
			 "total_energy": -3093.33189971, 
			 "HOMO_LUMO_gap": 0.23311, 
			 "cosmo_polarized_energy": -8.48, 
			 "cosmo_cavitation_energy": 33.45, 
			 "cosmo_dispersion_energy": -23.37, 
			 "cosmo_repulsion_energy": 1.87, 
			 "cosmo_total_nonelectrostatic_energy": 11.94, 
			 "SMD_solvation_energy": 4.18 
		},
		"coords": [
			{
				"x": -2.7807745317,
				"y": -0.2767370275,
				"z": 1.5250964186,
				"element": "C" 
			},
			{
				"x": -2.1771887201,
				"y": -0.311576854,
				"z": 2.9349666095,
				"element": "C" 
			},
			{
				"x": -2.0329364435,
				"y": -1.7547674248,
				"z": 3.452066331,
				"element": "C" 
			},
			{
				"x": -0.8288969229,
				"y": 0.4414106297,
				"z": 3.0373449839,
				"element": "C" 
			},
			{
				"x": -1.1566154428,
				"y": 2.4274303426,
				"z": 2.9289060676,
				"element": "Br" 
			},
			{
				"x": 0.2398758393,
				"y": -0.0516908025,
				"z": 2.0512150376,
				"element": "C" 
			},
			{
				"x": 0.757205406,
				"y": -1.1435346221,
				"z": 2.2834956501,
				"element": "O" 
			},
			{
				"x": 0.5352580245,
				"y": 0.7017961361,
				"z": 0.9686920234,
				"element": "N" 
			},
			{
				"x": 1.5592502771,
				"y": 0.2917924542,
				"z": 0.0021793774,
				"element": "C" 
			},
			{
				"x": 2.0740128947,
				"y": 1.5230215599,
				"z": -0.7946172449,
				"element": "C" 
			},
			{
				"x": 1.4493085405,
				"y": 1.4242822773,
				"z": -2.2170834786,
				"element": "C" 
			},
			{
				"x": 0.388510281,
				"y": 0.3085723581,
				"z": -2.1183179352,
				"element": "C" 
			},
			{
				"x": 0.98430516,
				"y": -0.6507936048,
				"z": -1.0786215572,
				"element": "C" 
			},
			{
				"x": -2.1603907679,
				"y": -0.8306421568,
				"z": 0.8124279577,
				"element": "H" 
			},
			{
				"x": -2.8913083328,
				"y": 0.749080638,
				"z": 1.161766501,
				"element": "H" 
			},
			{
				"x": -3.7720352079,
				"y": -0.7403743212,
				"z": 1.5303196046,
				"element": "H" 
			},
			{
				"x": -2.8590298182,
				"y": 0.217250591,
				"z": 3.6113029902,
				"element": "H" 
			},
			{
				"x": -1.3405868331,
				"y": -2.3316547004,
				"z": 2.8356565719,
				"element": "H" 
			},
			{
				"x": -3.0115922974,
				"y": -2.2461256652,
				"z": 3.4407559949,
				"element": "H" 
			},
			{
				"x": -1.6575935929,
				"y": -1.7743983467,
				"z": 4.4803985112,
				"element": "H" 
			},
			{
				"x": -0.4102833493,
				"y": 0.3207835661,
				"z": 4.0359873799,
				"element": "H" 
			},
			{
				"x": 0.1080252283,
				"y": 1.6140063634,
				"z": 0.8909652195,
				"element": "H" 
			},
			{
				"x": 2.3478926934,
				"y": -0.201357429,
				"z": 0.5759068665,
				"element": "H" 
			},
			{
				"x": 3.1665182916,
				"y": 1.5133335102,
				"z": -0.8407782156,
				"element": "H" 
			},
			{
				"x": 1.7999425038,
				"y": 2.4543619735,
				"z": -0.2871708933,
				"element": "H" 
			},
			{
				"x": 1.0327321712,
				"y": 2.3767045952,
				"z": -2.5582907301,
				"element": "H" 
			},
			{
				"x": 2.2188146073,
				"y": 1.1369925098,
				"z": -2.942330042,
				"element": "H" 
			},
			{
				"x": -0.5601358932,
				"y": 0.7150976334,
				"z": -1.7452555052,
				"element": "H" 
			},
			{
				"x": 0.1801539653,
				"y": -0.1684080073,
				"z": -3.0807771662,
				"element": "H" 
			},
			{
				"x": 0.2760867665,
				"y": -1.3689826392,
				"z": -0.658332672,
				"element": "H" 
			},
			{
				"x": 1.8087755033,
				"y": -1.2212735369,
				"z": -1.5254746564,
				"element": "H" 
			}
		],
		 "valence_orbital": [ 
			{
				"type": "occ",
				"energy": -0.3262,
				"method": "rhf"
			},
			{
				"type": "occ",
				"energy": -0.28949,
				"method": "rhf"
			},
			{
				"type": "occ",
				"energy": -0.28082,
				"method": "rhf"
			},
			{
				"type": "occ",
				"energy": -0.25453,
				"method": "rhf"
			},
			{
				"type": "occ",
				"energy": -0.24792,
				"method": "rhf"
			},
			{
				"type": "unocc",
				"energy": -0.01481,
				"method": "rhf"
			},
			{
				"type": "unocc",
				"energy": 0.02398,
				"method": "rhf"
			},
			{
				"type": "unocc",
				"energy": 0.06779,
				"method": "rhf"
			},
			{
				"type": "unocc",
				"energy": 0.08501,
				"method": "rhf"
			},
			{
				"type": "unocc",
				"energy": 0.096,
				"method": "rhf"
			}
		],
		"cosmo_sigma_profile": { 
			"-0.025": 0.0,
			"-0.024": 0.0,
			"-0.023": 0.0,
			"-0.022": 0.0,
			"-0.021": 0.0,
			"-0.02": 0.0,
			"-0.019": 0.0,
			"-0.018": 0.0,
			"-0.017": 0.0,
			"-0.016": 0.0,
			"-0.015": 0.0,
			"-0.014": 0.0,
			"-0.013": 0.0,
			"-0.012": 0.0,
			"-0.011": 0.135061300924,
			"-0.01": 0.940134321539,
			"-0.009": 0.915804122602,
			"-0.008": 1.94193717117,
			"-0.007": 2.84458730679,
			"-0.006": 4.19798105031,
			"-0.005": 4.12205711097,
			"-0.004": 10.8816948355,
			"-0.003": 31.2255397898,
			"-0.002": 39.2903765693,
			"-0.001": 37.8797591463,
			"0.0": 37.3063840366,
			"0.001": 35.9577242562,
			"0.002": 11.5792490551,
			"0.003": 6.35145868535,
			"0.004": 7.98598054506,
			"0.005": 8.72523279248,
			"0.006": 4.05041951253,
			"0.007": 2.00805820612,
			"0.008": 1.78211760938,
			"0.009": 1.51755806018,
			"0.01": 0.766188196674,
			"0.011": 1.82620542296,
			"0.012": 2.1019838657,
			"0.013": 3.29718120118,
			"0.014": 2.62261720484,
			"0.015": 0.0699601325422,
			"0.016": 0.0,
			"0.017": 0.0,
			"0.018": 0.0,
			"0.019": 0.0,
			"0.02": 0.0,
			"0.021": 0.0,
			"0.022": 0.0,
			"0.023": 0.0,
			"0.024": 0.0,
			"0.025": 0.0
		}
	}
}
