{
	 "smiles": "COC(=O)C1=C2CCCCN2N=C1", 
	 "Tm": 338.15, 
	 "num_atms": 25, 
	 "gaussian": { 
		 "optdone": 1, 
		 "sigma_profile": "yes", 
		 "theory": "DFT", 
		 "functional": "B3LYP", 
		 "basiset": "6-31G**", 
		 "properties": { 
			 "R2extent": 3115.6425, 
			 "electric_dipole_moment_norm": 4.9473603477, 
			 "electric_quadrupole_moment_norm": 10.9745904653, 
			 "total_energy": -610.146998775, 
			 "HOMO_LUMO_gap": 0.22779, 
			 "cosmo_polarized_energy": -11.65, 
			 "cosmo_cavitation_energy": 27.69, 
			 "cosmo_dispersion_energy": -20.49, 
			 "cosmo_repulsion_energy": 1.63, 
			 "cosmo_total_nonelectrostatic_energy": 8.83, 
			 "SMD_solvation_energy": 4.53 
		},
		"coords": [
			{
				"x": -1.8996556961,
				"y": 1.1797469,
				"z": 3.9875243659,
				"element": "C" 
			},
			{
				"x": -1.0916168216,
				"y": 0.8723921934,
				"z": 2.8426371954,
				"element": "O" 
			},
			{
				"x": 0.1444504054,
				"y": 0.374216494,
				"z": 3.1308245844,
				"element": "C" 
			},
			{
				"x": 0.5332123462,
				"y": 0.1989326284,
				"z": 4.2704804246,
				"element": "O" 
			},
			{
				"x": 0.9226385143,
				"y": 0.0832960722,
				"z": 1.9285928635,
				"element": "C" 
			},
			{
				"x": 0.6035659464,
				"y": 0.253002385,
				"z": 0.5771111616,
				"element": "C" 
			},
			{
				"x": -0.6146662016,
				"y": 0.7638808081,
				"z": -0.1373914152,
				"element": "C" 
			},
			{
				"x": -0.3104492086,
				"y": 1.0976661615,
				"z": -1.607929514,
				"element": "C" 
			},
			{
				"x": 0.5189970703,
				"y": -0.0175215421,
				"z": -2.259943017,
				"element": "C" 
			},
			{
				"x": 1.8706128271,
				"y": -0.1664661766,
				"z": -1.5575319641,
				"element": "C" 
			},
			{
				"x": 1.6830984502,
				"y": -0.196600427,
				"z": -0.1099543555,
				"element": "N" 
			},
			{
				"x": 2.6914704264,
				"y": -0.6353530635,
				"z": 0.6927148767,
				"element": "N" 
			},
			{
				"x": 2.2283612935,
				"y": -0.4686668318,
				"z": 1.9229241814,
				"element": "C" 
			},
			{
				"x": -2.0713368835,
				"y": 0.2854278355,
				"z": 4.5920779623,
				"element": "H" 
			},
			{
				"x": -2.8420222463,
				"y": 1.5587501881,
				"z": 3.5907214815,
				"element": "H" 
			},
			{
				"x": -1.4164487627,
				"y": 1.9351935088,
				"z": 4.6126353333,
				"element": "H" 
			},
			{
				"x": -1.4008025904,
				"y": -0.0017883063,
				"z": -0.0841708913,
				"element": "H" 
			},
			{
				"x": -1.0101931013,
				"y": 1.6305381064,
				"z": 0.397921679,
				"element": "H" 
			},
			{
				"x": 0.2448132409,
				"y": 2.0429648697,
				"z": -1.6659607988,
				"element": "H" 
			},
			{
				"x": -1.2477809696,
				"y": 1.2474512127,
				"z": -2.1530934598,
				"element": "H" 
			},
			{
				"x": -0.0307387949,
				"y": -0.9658210333,
				"z": -2.2057599352,
				"element": "H" 
			},
			{
				"x": 0.6947277859,
				"y": 0.1917663227,
				"z": -3.3200814904,
				"element": "H" 
			},
			{
				"x": 2.531370856,
				"y": 0.6731989336,
				"z": -1.8078981581,
				"element": "H" 
			},
			{
				"x": 2.3844408199,
				"y": -1.0878853105,
				"z": -1.842431029,
				"element": "H" 
			},
			{
				"x": 2.8241512942,
				"y": -0.744621929,
				"z": 2.7817799187,
				"element": "H" 
			}
		],
		 "valence_orbital": [ 
			{
				"type": "occ",
				"energy": -0.29243,
				"method": "rhf"
			},
			{
				"type": "occ",
				"energy": -0.28625,
				"method": "rhf"
			},
			{
				"type": "occ",
				"energy": -0.26388,
				"method": "rhf"
			},
			{
				"type": "occ",
				"energy": -0.25138,
				"method": "rhf"
			},
			{
				"type": "occ",
				"energy": -0.24028,
				"method": "rhf"
			},
			{
				"type": "unocc",
				"energy": -0.01249,
				"method": "rhf"
			},
			{
				"type": "unocc",
				"energy": 0.0232,
				"method": "rhf"
			},
			{
				"type": "unocc",
				"energy": 0.07648,
				"method": "rhf"
			},
			{
				"type": "unocc",
				"energy": 0.10391,
				"method": "rhf"
			},
			{
				"type": "unocc",
				"energy": 0.11216,
				"method": "rhf"
			}
		],
		"cosmo_sigma_profile": { 
			"-0.025": 0.0,
			"-0.024": 0.0,
			"-0.023": 0.0,
			"-0.022": 0.0,
			"-0.021": 0.0,
			"-0.02": 0.0,
			"-0.019": 0.0,
			"-0.018": 0.0,
			"-0.017": 0.0,
			"-0.016": 0.0,
			"-0.015": 0.0,
			"-0.014": 0.0,
			"-0.013": 0.0,
			"-0.012": 0.0,
			"-0.011": 0.0,
			"-0.01": 0.0,
			"-0.009": 0.0,
			"-0.008": 0.234777640529,
			"-0.007": 1.82637708335,
			"-0.006": 6.41893204531,
			"-0.005": 17.5403095188,
			"-0.004": 31.5329859736,
			"-0.003": 32.5613063997,
			"-0.002": 21.8325984101,
			"-0.001": 17.3984018965,
			"0.0": 13.3949735728,
			"0.001": 11.11925255,
			"0.002": 10.8596034877,
			"0.003": 10.4156019112,
			"0.004": 7.19618639261,
			"0.005": 4.77631218262,
			"0.006": 4.45201409048,
			"0.007": 3.58252063829,
			"0.008": 2.10790167008,
			"0.009": 3.32618318734,
			"0.01": 2.33333838047,
			"0.011": 3.72892154454,
			"0.012": 5.77779227974,
			"0.013": 3.47449564453,
			"0.014": 1.16042619885,
			"0.015": 0.936978606129,
			"0.016": 0.239690752813,
			"0.017": 0.0,
			"0.018": 0.0,
			"0.019": 0.0,
			"0.02": 0.0,
			"0.021": 0.0,
			"0.022": 0.0,
			"0.023": 0.0,
			"0.024": 0.0,
			"0.025": 0.0
		}
	}
}
