{
	 "smiles": "CC1=CC2=CC=C(F)C=C2C=C1", 
	 "Tm": 346.65, 
	 "num_atms": 21, 
	 "gaussian": { 
		 "optdone": 1, 
		 "sigma_profile": "yes", 
		 "theory": "DFT", 
		 "functional": "B3LYP", 
		 "basiset": "6-31G**", 
		 "properties": { 
			 "R2extent": 2328.1583, 
			 "electric_dipole_moment_norm": 1.87838229868, 
			 "electric_quadrupole_moment_norm": 6.21524077651, 
			 "total_energy": -524.448365996, 
			 "HOMO_LUMO_gap": 0.17461, 
			 "cosmo_polarized_energy": -4.52, 
			 "cosmo_cavitation_energy": 24.98, 
			 "cosmo_dispersion_energy": -18.41, 
			 "cosmo_repulsion_energy": 1.41, 
			 "cosmo_total_nonelectrostatic_energy": 7.98, 
			 "SMD_solvation_energy": 4.56 
		},
		"coords": [
			{
				"x": 1.3473157295,
				"y": 3.6971630447,
				"z": -0.2607101838,
				"element": "C" 
			},
			{
				"x": 1.0572775543,
				"y": 2.2169040737,
				"z": -0.2063647123,
				"element": "C" 
			},
			{
				"x": 0.2422569501,
				"y": 1.6710359346,
				"z": 0.7633278053,
				"element": "C" 
			},
			{
				"x": -0.0320220539,
				"y": 0.2773716862,
				"z": 0.8162112899,
				"element": "C" 
			},
			{
				"x": -0.8709041297,
				"y": -0.2907982695,
				"z": 1.8129234042,
				"element": "C" 
			},
			{
				"x": -1.1229055855,
				"y": -1.6437361931,
				"z": 1.8452631767,
				"element": "C" 
			},
			{
				"x": -0.5329228073,
				"y": -2.4703960237,
				"z": 0.867248349,
				"element": "C" 
			},
			{
				"x": -0.7946583866,
				"y": -3.7948535028,
				"z": 0.91904583,
				"element": "F" 
			},
			{
				"x": 0.2845463568,
				"y": -1.9788466218,
				"z": -0.1180618676,
				"element": "C" 
			},
			{
				"x": 0.5545536489,
				"y": -0.5857585158,
				"z": -0.1654790567,
				"element": "C" 
			},
			{
				"x": 1.3919715449,
				"y": -0.0067279873,
				"z": -1.1577662472,
				"element": "C" 
			},
			{
				"x": 1.6329554491,
				"y": 1.3463118889,
				"z": -1.1752269974,
				"element": "C" 
			},
			{
				"x": 0.8385356415,
				"y": 4.2346648445,
				"z": 0.5440187959,
				"element": "H" 
			},
			{
				"x": 2.4219063565,
				"y": 3.8958551482,
				"z": -0.1702303902,
				"element": "H" 
			},
			{
				"x": 1.0216992229,
				"y": 4.1319922538,
				"z": -1.2132359351,
				"element": "H" 
			},
			{
				"x": -0.2094914399,
				"y": 2.3150995715,
				"z": 1.5148142183,
				"element": "H" 
			},
			{
				"x": -1.31692086,
				"y": 0.3618581797,
				"z": 2.5585899164,
				"element": "H" 
			},
			{
				"x": -1.7607282248,
				"y": -2.0920013171,
				"z": 2.5994356008,
				"element": "H" 
			},
			{
				"x": 0.7167288723,
				"y": -2.6534257028,
				"z": -0.850065459,
				"element": "H" 
			},
			{
				"x": 1.8415517872,
				"y": -0.6533402018,
				"z": -1.9068892969,
				"element": "H" 
			},
			{
				"x": 2.2768543736,
				"y": 1.7676277098,
				"z": -1.9436482403,
				"element": "H" 
			}
		],
		 "valence_orbital": [ 
			{
				"type": "occ",
				"energy": -0.33132,
				"method": "rhf"
			},
			{
				"type": "occ",
				"energy": -0.3139,
				"method": "rhf"
			},
			{
				"type": "occ",
				"energy": -0.28383,
				"method": "rhf"
			},
			{
				"type": "occ",
				"energy": -0.23796,
				"method": "rhf"
			},
			{
				"type": "occ",
				"energy": -0.21368,
				"method": "rhf"
			},
			{
				"type": "unocc",
				"energy": -0.03907,
				"method": "rhf"
			},
			{
				"type": "unocc",
				"energy": -0.00716,
				"method": "rhf"
			},
			{
				"type": "unocc",
				"energy": 0.03039,
				"method": "rhf"
			},
			{
				"type": "unocc",
				"energy": 0.09309,
				"method": "rhf"
			},
			{
				"type": "unocc",
				"energy": 0.09562,
				"method": "rhf"
			}
		],
		"cosmo_sigma_profile": { 
			"-0.025": 0.0,
			"-0.024": 0.0,
			"-0.023": 0.0,
			"-0.022": 0.0,
			"-0.021": 0.0,
			"-0.02": 0.0,
			"-0.019": 0.0,
			"-0.018": 0.0,
			"-0.017": 0.0,
			"-0.016": 0.0,
			"-0.015": 0.0,
			"-0.014": 0.0,
			"-0.013": 0.0,
			"-0.012": 0.0,
			"-0.011": 0.0,
			"-0.01": 0.0,
			"-0.009": 0.0,
			"-0.008": 0.0602608157101,
			"-0.007": 3.24031548156,
			"-0.006": 10.0733486658,
			"-0.005": 12.6276379965,
			"-0.004": 16.6428984284,
			"-0.003": 15.9105709822,
			"-0.002": 15.2434434661,
			"-0.001": 12.9368628569,
			"0.0": 16.5610046772,
			"0.001": 16.5539081757,
			"0.002": 15.3556453774,
			"0.003": 19.9935101738,
			"0.004": 28.2815628156,
			"0.005": 15.6355827661,
			"0.006": 0.715812947955,
			"0.007": 0.0,
			"0.008": 0.0,
			"0.009": 0.0,
			"0.01": 0.0,
			"0.011": 0.0,
			"0.012": 0.0,
			"0.013": 0.0,
			"0.014": 0.0,
			"0.015": 0.0,
			"0.016": 0.0,
			"0.017": 0.0,
			"0.018": 0.0,
			"0.019": 0.0,
			"0.02": 0.0,
			"0.021": 0.0,
			"0.022": 0.0,
			"0.023": 0.0,
			"0.024": 0.0,
			"0.025": 0.0
		}
	}
}
