{
	 "smiles": "FC(F)(F)S(=O)(=O)C1=CC=C(S)C=C1", 
	 "Tm": 390.15, 
	 "num_atms": 19, 
	 "gaussian": { 
		 "optdone": 1, 
		 "sigma_profile": "yes", 
		 "theory": "DFT", 
		 "functional": "B3LYP", 
		 "basiset": "6-31G**", 
		 "properties": { 
			 "R2extent": 5685.2213, 
			 "electric_dipole_moment_norm": 4.88111161724, 
			 "electric_quadrupole_moment_norm": 14.2705403086, 
			 "total_energy": -1516.01247854, 
			 "HOMO_LUMO_gap": 0.19058, 
			 "cosmo_polarized_energy": -11.81, 
			 "cosmo_cavitation_energy": 28.44, 
			 "cosmo_dispersion_energy": -20.9, 
			 "cosmo_repulsion_energy": 1.49, 
			 "cosmo_total_nonelectrostatic_energy": 9.03, 
			 "SMD_solvation_energy": 4.78 
		},
		"coords": [
			{
				"x": 4.0365953705,
				"y": 1.3418007507,
				"z": 1.9791787978,
				"element": "F" 
			},
			{
				"x": 4.0522422894,
				"y": 1.7532099564,
				"z": 0.7071987326,
				"element": "C" 
			},
			{
				"x": 3.450983009,
				"y": 2.9443909301,
				"z": 0.6239934854,
				"element": "F" 
			},
			{
				"x": 5.3105761135,
				"y": 1.858173645,
				"z": 0.2876759629,
				"element": "F" 
			},
			{
				"x": 3.1509041807,
				"y": 0.5103620762,
				"z": -0.373252303,
				"element": "S" 
			},
			{
				"x": 3.1016500653,
				"y": 1.110367181,
				"z": -1.7092408234,
				"element": "O" 
			},
			{
				"x": 3.7902607603,
				"y": -0.7814583179,
				"z": -0.1083156669,
				"element": "O" 
			},
			{
				"x": 1.5154785815,
				"y": 0.5128513326,
				"z": 0.3341792334,
				"element": "C" 
			},
			{
				"x": 1.2096329054,
				"y": -0.3933348741,
				"z": 1.352443254,
				"element": "C" 
			},
			{
				"x": -0.068310935,
				"y": -0.3930456314,
				"z": 1.9015568553,
				"element": "C" 
			},
			{
				"x": -1.0368824718,
				"y": 0.5105085401,
				"z": 1.4358871544,
				"element": "C" 
			},
			{
				"x": -2.6885732743,
				"y": 0.5708640078,
				"z": 2.0895762895,
				"element": "S" 
			},
			{
				"x": -0.7135036833,
				"y": 1.4116187632,
				"z": 0.4071450984,
				"element": "C" 
			},
			{
				"x": 0.5615625373,
				"y": 1.4154839103,
				"z": -0.1453886675,
				"element": "C" 
			},
			{
				"x": 1.9600668847,
				"y": -1.0976632064,
				"z": 1.6944874962,
				"element": "H" 
			},
			{
				"x": -0.3105143451,
				"y": -1.0997822898,
				"z": 2.6890174178,
				"element": "H" 
			},
			{
				"x": -2.5429750319,
				"y": -0.4192267202,
				"z": 2.9904489052,
				"element": "H" 
			},
			{
				"x": -1.4618981247,
				"y": 2.1054761928,
				"z": 0.0370351712,
				"element": "H" 
			},
			{
				"x": 0.8156051687,
				"y": 2.0961037536,
				"z": -0.9505263934,
				"element": "H" 
			}
		],
		 "valence_orbital": [ 
			{
				"type": "occ",
				"energy": -0.33258,
				"method": "rhf"
			},
			{
				"type": "occ",
				"energy": -0.3216,
				"method": "rhf"
			},
			{
				"type": "occ",
				"energy": -0.30695,
				"method": "rhf"
			},
			{
				"type": "occ",
				"energy": -0.29054,
				"method": "rhf"
			},
			{
				"type": "occ",
				"energy": -0.25223,
				"method": "rhf"
			},
			{
				"type": "unocc",
				"energy": -0.06165,
				"method": "rhf"
			},
			{
				"type": "unocc",
				"energy": -0.03931,
				"method": "rhf"
			},
			{
				"type": "unocc",
				"energy": -0.00934,
				"method": "rhf"
			},
			{
				"type": "unocc",
				"energy": 0.0441,
				"method": "rhf"
			},
			{
				"type": "unocc",
				"energy": 0.0503,
				"method": "rhf"
			}
		],
		"cosmo_sigma_profile": { 
			"-0.025": 0.0,
			"-0.024": 0.0,
			"-0.023": 0.0,
			"-0.022": 0.0,
			"-0.021": 0.0,
			"-0.02": 0.0,
			"-0.019": 0.0,
			"-0.018": 0.0,
			"-0.017": 0.0,
			"-0.016": 0.0,
			"-0.015": 0.0,
			"-0.014": 0.0,
			"-0.013": 0.0,
			"-0.012": 1.44128388565,
			"-0.011": 3.38087413356,
			"-0.01": 2.14829908116,
			"-0.009": 3.04226481286,
			"-0.008": 7.56586757755,
			"-0.007": 8.72591398784,
			"-0.006": 7.89126221978,
			"-0.005": 7.73275088991,
			"-0.004": 8.1960974724,
			"-0.003": 8.53609507189,
			"-0.002": 12.2083387269,
			"-0.001": 21.3937106985,
			"0.0": 30.6123369544,
			"0.001": 42.7020515243,
			"0.002": 14.5037097134,
			"0.003": 7.02460187493,
			"0.004": 6.2928259093,
			"0.005": 6.21708019714,
			"0.006": 5.29147029524,
			"0.007": 5.15925417825,
			"0.008": 4.85227060531,
			"0.009": 9.02716053554,
			"0.01": 6.86943646116,
			"0.011": 0.606070217863,
			"0.012": 0.0,
			"0.013": 0.0,
			"0.014": 0.0,
			"0.015": 0.0,
			"0.016": 0.0,
			"0.017": 0.0,
			"0.018": 0.0,
			"0.019": 0.0,
			"0.02": 0.0,
			"0.021": 0.0,
			"0.022": 0.0,
			"0.023": 0.0,
			"0.024": 0.0,
			"0.025": 0.0
		}
	}
}
