{
	 "smiles": "CC(Br)C1=CC=CC=C1", 
	 "Tm": 208.15, 
	 "num_atms": 18, 
	 "gaussian": { 
		 "optdone": 1, 
		 "sigma_profile": "yes", 
		 "theory": "DFT", 
		 "functional": "B3LYP", 
		 "basiset": "6-31G**", 
		 "properties": { 
			 "R2extent": 2011.2368, 
			 "electric_dipole_moment_norm": 2.40908506492, 
			 "electric_quadrupole_moment_norm": 7.08529193682, 
			 "total_energy": -2881.69137124, 
			 "HOMO_LUMO_gap": 0.21319, 
			 "cosmo_polarized_energy": -5.94, 
			 "cosmo_cavitation_energy": 23.33, 
			 "cosmo_dispersion_energy": -17.28, 
			 "cosmo_repulsion_energy": 1.42, 
			 "cosmo_total_nonelectrostatic_energy": 7.48, 
			 "SMD_solvation_energy": 2.85 
		},
		"coords": [
			{
				"x": -0.0391724069,
				"y": 0.2530381399,
				"z": 2.2313040663,
				"element": "C" 
			},
			{
				"x": 0.5159879187,
				"y": 0.7309479835,
				"z": 0.8952458359,
				"element": "C" 
			},
			{
				"x": 2.2553651904,
				"y": -0.2446341753,
				"z": 0.5461112887,
				"element": "Br" 
			},
			{
				"x": -0.4124588213,
				"y": 0.569921365,
				"z": -0.2778132435,
				"element": "C" 
			},
			{
				"x": -0.9861960998,
				"y": -0.6694980549,
				"z": -0.5988464498,
				"element": "C" 
			},
			{
				"x": -1.8807317197,
				"y": -0.7815909029,
				"z": -1.6602847451,
				"element": "C" 
			},
			{
				"x": -2.2173088151,
				"y": 0.343116255,
				"z": -2.4195657513,
				"element": "C" 
			},
			{
				"x": -1.6484912592,
				"y": 1.5786278107,
				"z": -2.1123885492,
				"element": "C" 
			},
			{
				"x": -0.7495831205,
				"y": 1.6887236269,
				"z": -1.0495938043,
				"element": "C" 
			},
			{
				"x": -0.9507500644,
				"y": 0.8170321539,
				"z": 2.4621668967,
				"element": "H" 
			},
			{
				"x": -0.294124765,
				"y": -0.8090014084,
				"z": 2.2040742078,
				"element": "H" 
			},
			{
				"x": 0.6846993374,
				"y": 0.4119114559,
				"z": 3.0337769787,
				"element": "H" 
			},
			{
				"x": 0.8459952173,
				"y": 1.7671884172,
				"z": 0.9676875927,
				"element": "H" 
			},
			{
				"x": -0.7134324426,
				"y": -1.5519957402,
				"z": -0.0276971202,
				"element": "H" 
			},
			{
				"x": -2.3140443842,
				"y": -1.7484908679,
				"z": -1.8995420363,
				"element": "H" 
			},
			{
				"x": -2.914632444,
				"y": 0.2532834455,
				"z": -3.2474232405,
				"element": "H" 
			},
			{
				"x": -1.8999732917,
				"y": 2.4573371702,
				"z": -2.699260733,
				"element": "H" 
			},
			{
				"x": -0.3062480293,
				"y": 2.6535833259,
				"z": -0.8160511936,
				"element": "H" 
			}
		],
		 "valence_orbital": [ 
			{
				"type": "occ",
				"energy": -0.33561,
				"method": "rhf"
			},
			{
				"type": "occ",
				"energy": -0.27195,
				"method": "rhf"
			},
			{
				"type": "occ",
				"energy": -0.266,
				"method": "rhf"
			},
			{
				"type": "occ",
				"energy": -0.25572,
				"method": "rhf"
			},
			{
				"type": "occ",
				"energy": -0.24528,
				"method": "rhf"
			},
			{
				"type": "unocc",
				"energy": -0.03209,
				"method": "rhf"
			},
			{
				"type": "unocc",
				"energy": -0.00666,
				"method": "rhf"
			},
			{
				"type": "unocc",
				"energy": 0.02574,
				"method": "rhf"
			},
			{
				"type": "unocc",
				"energy": 0.08513,
				"method": "rhf"
			},
			{
				"type": "unocc",
				"energy": 0.10819,
				"method": "rhf"
			}
		],
		"cosmo_sigma_profile": { 
			"-0.025": 0.0,
			"-0.024": 0.0,
			"-0.023": 0.0,
			"-0.022": 0.0,
			"-0.021": 0.0,
			"-0.02": 0.0,
			"-0.019": 0.0,
			"-0.018": 0.0,
			"-0.017": 0.0,
			"-0.016": 0.0,
			"-0.015": 0.0,
			"-0.014": 0.0,
			"-0.013": 0.0,
			"-0.012": 0.0,
			"-0.011": 0.0,
			"-0.01": 0.0,
			"-0.009": 0.0,
			"-0.008": 0.500013809057,
			"-0.007": 3.57323263946,
			"-0.006": 9.89124150862,
			"-0.005": 15.3299725381,
			"-0.004": 18.9884354899,
			"-0.003": 15.78193869,
			"-0.002": 13.7556262161,
			"-0.001": 15.5314816997,
			"0.0": 13.0934838601,
			"0.001": 9.74855907258,
			"0.002": 10.6213727689,
			"0.003": 11.2291650405,
			"0.004": 12.5729388467,
			"0.005": 17.5675006259,
			"0.006": 13.3214829833,
			"0.007": 6.80116968001,
			"0.008": 0.0,
			"0.009": 0.0,
			"0.01": 0.0,
			"0.011": 0.0,
			"0.012": 0.0,
			"0.013": 0.0,
			"0.014": 0.0,
			"0.015": 0.0,
			"0.016": 0.0,
			"0.017": 0.0,
			"0.018": 0.0,
			"0.019": 0.0,
			"0.02": 0.0,
			"0.021": 0.0,
			"0.022": 0.0,
			"0.023": 0.0,
			"0.024": 0.0,
			"0.025": 0.0
		}
	}
}
