{
	 "smiles": "ClC1=CC=C(C=CC(=O)C2=CC=C(Cl)C=C2)C=C1", 
	 "Tm": 431.15, 
	 "num_atms": 28, 
	 "gaussian": { 
		 "optdone": 1, 
		 "sigma_profile": "yes", 
		 "theory": "DFT", 
		 "functional": "B3LYP", 
		 "basiset": "6-31G**", 
		 "properties": { 
			 "R2extent": 10601.2073, 
			 "electric_dipole_moment_norm": 2.1281412782, 
			 "electric_quadrupole_moment_norm": 7.13593760763, 
			 "total_energy": -1573.22100644, 
			 "HOMO_LUMO_gap": 0.1561, 
			 "cosmo_polarized_energy": -11.36, 
			 "cosmo_cavitation_energy": 37.3, 
			 "cosmo_dispersion_energy": -26.95, 
			 "cosmo_repulsion_energy": 2.08, 
			 "cosmo_total_nonelectrostatic_energy": 12.42, 
			 "SMD_solvation_energy": 6.19 
		},
		"coords": [
			{
				"x": -2.3816302703,
				"y": 0.4809139069,
				"z": 7.209872133,
				"element": "Cl" 
			},
			{
				"x": -1.6810766297,
				"y": 0.1176315968,
				"z": 5.6439470491,
				"element": "C" 
			},
			{
				"x": -0.705002819,
				"y": -0.8776183268,
				"z": 5.5420760788,
				"element": "C" 
			},
			{
				"x": -0.1505707193,
				"y": -1.164192377,
				"z": 4.3005633395,
				"element": "C" 
			},
			{
				"x": -0.5546058046,
				"y": -0.4699697509,
				"z": 3.143588281,
				"element": "C" 
			},
			{
				"x": 0.0007104608,
				"y": -0.7301269353,
				"z": 1.8129612746,
				"element": "C" 
			},
			{
				"x": 0.8989344234,
				"y": -1.678751229,
				"z": 1.4771836103,
				"element": "C" 
			},
			{
				"x": 1.347299574,
				"y": -1.9960534536,
				"z": 0.1002061427,
				"element": "C" 
			},
			{
				"x": 1.7259670587,
				"y": -3.1372540213,
				"z": -0.1509651078,
				"element": "O" 
			},
			{
				"x": 1.3282893707,
				"y": -0.9605620333,
				"z": -0.9873108692,
				"element": "C" 
			},
			{
				"x": 1.5290291788,
				"y": 0.4079317592,
				"z": -0.7535210415,
				"element": "C" 
			},
			{
				"x": 1.5632196364,
				"y": 1.3155087579,
				"z": -1.8120608513,
				"element": "C" 
			},
			{
				"x": 1.3857642418,
				"y": 0.846676354,
				"z": -3.1130418882,
				"element": "C" 
			},
			{
				"x": 1.4115034209,
				"y": 1.9842461542,
				"z": -4.4491495189,
				"element": "Cl" 
			},
			{
				"x": 1.1968817237,
				"y": -0.5128777234,
				"z": -3.37392824,
				"element": "C" 
			},
			{
				"x": 1.1832229342,
				"y": -1.4079036959,
				"z": -2.3099696958,
				"element": "C" 
			},
			{
				"x": -1.5377471598,
				"y": 0.5263242955,
				"z": 3.2829611476,
				"element": "C" 
			},
			{
				"x": -2.1038028062,
				"y": 0.8248976757,
				"z": 4.5195345666,
				"element": "C" 
			},
			{
				"x": -0.3873312219,
				"y": -1.4170043073,
				"z": 6.4274285818,
				"element": "H" 
			},
			{
				"x": 0.6077541712,
				"y": -1.9374142542,
				"z": 4.2342470814,
				"element": "H" 
			},
			{
				"x": -0.3901357455,
				"y": -0.0893701616,
				"z": 1.025337261,
				"element": "H" 
			},
			{
				"x": 1.2663103721,
				"y": -2.3921134064,
				"z": 2.2104883276,
				"element": "H" 
			},
			{
				"x": 1.6914666597,
				"y": 0.7683682001,
				"z": 0.2564241259,
				"element": "H" 
			},
			{
				"x": 1.7318360443,
				"y": 2.371512854,
				"z": -1.6328719069,
				"element": "H" 
			},
			{
				"x": 1.0701814606,
				"y": -0.8572985704,
				"z": -4.3942890009,
				"element": "H" 
			},
			{
				"x": 1.0619918166,
				"y": -2.4715518531,
				"z": -2.4855268163,
				"element": "H" 
			},
			{
				"x": -1.8660399189,
				"y": 1.0757784154,
				"z": 2.4046969834,
				"element": "H" 
			},
			{
				"x": -2.8618194527,
				"y": 1.5944721297,
				"z": 4.6127189524,
				"element": "H" 
			}
		],
		 "valence_orbital": [ 
			{
				"type": "occ",
				"energy": -0.27896,
				"method": "rhf"
			},
			{
				"type": "occ",
				"energy": -0.27462,
				"method": "rhf"
			},
			{
				"type": "occ",
				"energy": -0.26184,
				"method": "rhf"
			},
			{
				"type": "occ",
				"energy": -0.25138,
				"method": "rhf"
			},
			{
				"type": "occ",
				"energy": -0.24099,
				"method": "rhf"
			},
			{
				"type": "unocc",
				"energy": -0.08489,
				"method": "rhf"
			},
			{
				"type": "unocc",
				"energy": -0.04191,
				"method": "rhf"
			},
			{
				"type": "unocc",
				"energy": -0.0272,
				"method": "rhf"
			},
			{
				"type": "unocc",
				"energy": -0.02408,
				"method": "rhf"
			},
			{
				"type": "unocc",
				"energy": 0.01153,
				"method": "rhf"
			}
		],
		"cosmo_sigma_profile": { 
			"-0.025": 0.0,
			"-0.024": 0.0,
			"-0.023": 0.0,
			"-0.022": 0.0,
			"-0.021": 0.0,
			"-0.02": 0.0,
			"-0.019": 0.0,
			"-0.018": 0.0,
			"-0.017": 0.0,
			"-0.016": 0.0,
			"-0.015": 0.0,
			"-0.014": 0.0,
			"-0.013": 0.0,
			"-0.012": 0.0,
			"-0.011": 0.0,
			"-0.01": 0.0,
			"-0.009": 0.814642005918,
			"-0.008": 6.72977661304,
			"-0.007": 15.128048739,
			"-0.006": 17.1684387638,
			"-0.005": 17.4428872869,
			"-0.004": 13.7869482546,
			"-0.003": 17.5720284581,
			"-0.002": 17.8218305539,
			"-0.001": 21.2597161794,
			"0.0": 24.1804745682,
			"0.001": 33.0188805823,
			"0.002": 42.0617354189,
			"0.003": 30.8176758101,
			"0.004": 22.1540013175,
			"0.005": 7.42729700675,
			"0.006": 1.9390418137,
			"0.007": 1.16270150985,
			"0.008": 1.37279160484,
			"0.009": 1.71937454923,
			"0.01": 2.26170058301,
			"0.011": 2.41658598257,
			"0.012": 4.23455511089,
			"0.013": 2.54660448265,
			"0.014": 0.195056654887,
			"0.015": 0.0,
			"0.016": 0.0,
			"0.017": 0.0,
			"0.018": 0.0,
			"0.019": 0.0,
			"0.02": 0.0,
			"0.021": 0.0,
			"0.022": 0.0,
			"0.023": 0.0,
			"0.024": 0.0,
			"0.025": 0.0
		}
	}
}
