{
	 "smiles": "OC1=CC2=C(C=NN2)C=C1", 
	 "Tm": 463.15, 
	 "num_atms": 16, 
	 "gaussian": { 
		 "optdone": 1, 
		 "sigma_profile": "yes", 
		 "theory": "DFT", 
		 "functional": "B3LYP", 
		 "basiset": "6-31G**", 
		 "properties": { 
			 "R2extent": 1701.596, 
			 "electric_dipole_moment_norm": 2.19442352339, 
			 "electric_quadrupole_moment_norm": 11.1906943761, 
			 "total_energy": -455.065336671, 
			 "HOMO_LUMO_gap": 0.18818, 
			 "cosmo_polarized_energy": -13.24, 
			 "cosmo_cavitation_energy": 20.21, 
			 "cosmo_dispersion_energy": -15.55, 
			 "cosmo_repulsion_energy": 1.25, 
			 "cosmo_total_nonelectrostatic_energy": 5.9, 
			 "SMD_solvation_energy": 2.87 
		},
		"coords": [
			{
				"x": 0.6594877994,
				"y": 0.0056077968,
				"z": -2.1040639725,
				"element": "O" 
			},
			{
				"x": 0.3277786524,
				"y": -0.5032503561,
				"z": -0.8791215648,
				"element": "C" 
			},
			{
				"x": -0.683769243,
				"y": 0.1394278982,
				"z": -0.176799357,
				"element": "C" 
			},
			{
				"x": -1.0137357098,
				"y": -0.392563914,
				"z": 1.0773939078,
				"element": "C" 
			},
			{
				"x": -0.3635731674,
				"y": -1.5293278808,
				"z": 1.6262641932,
				"element": "C" 
			},
			{
				"x": -0.9984111431,
				"y": -1.7233071235,
				"z": 2.8926217848,
				"element": "C" 
			},
			{
				"x": -1.9338529298,
				"y": -0.8194100526,
				"z": 3.1144583285,
				"element": "N" 
			},
			{
				"x": -1.9378793341,
				"y": -0.0165646666,
				"z": 2.0108597747,
				"element": "N" 
			},
			{
				"x": 0.6557554885,
				"y": -2.1544961459,
				"z": 0.8875141166,
				"element": "C" 
			},
			{
				"x": 0.9931420071,
				"y": -1.641028823,
				"z": -0.3527618398,
				"element": "C" 
			},
			{
				"x": 1.3695291649,
				"y": -0.5259611337,
				"z": -2.4855868492,
				"element": "H" 
			},
			{
				"x": -1.1756101227,
				"y": 1.0069161178,
				"z": -0.6024529222,
				"element": "H" 
			},
			{
				"x": -0.801318379,
				"y": -2.4850280431,
				"z": 3.6355450407,
				"element": "H" 
			},
			{
				"x": -2.5878847667,
				"y": 0.7513314973,
				"z": 1.9715812979,
				"element": "H" 
			},
			{
				"x": 1.1733464483,
				"y": -3.0257676713,
				"z": 1.2779325318,
				"element": "H" 
			},
			{
				"x": 1.7791952349,
				"y": -2.1097774995,
				"z": -0.9408844706,
				"element": "H" 
			}
		],
		 "valence_orbital": [ 
			{
				"type": "occ",
				"energy": -0.32139,
				"method": "rhf"
			},
			{
				"type": "occ",
				"energy": -0.28691,
				"method": "rhf"
			},
			{
				"type": "occ",
				"energy": -0.28541,
				"method": "rhf"
			},
			{
				"type": "occ",
				"energy": -0.22825,
				"method": "rhf"
			},
			{
				"type": "occ",
				"energy": -0.21072,
				"method": "rhf"
			},
			{
				"type": "unocc",
				"energy": -0.02254,
				"method": "rhf"
			},
			{
				"type": "unocc",
				"energy": 0.02421,
				"method": "rhf"
			},
			{
				"type": "unocc",
				"energy": 0.0655,
				"method": "rhf"
			},
			{
				"type": "unocc",
				"energy": 0.06751,
				"method": "rhf"
			},
			{
				"type": "unocc",
				"energy": 0.08884,
				"method": "rhf"
			}
		],
		"cosmo_sigma_profile": { 
			"-0.025": 0.0,
			"-0.024": 0.0,
			"-0.023": 0.0,
			"-0.022": 0.0,
			"-0.021": 0.0,
			"-0.02": 0.0,
			"-0.019": 0.0,
			"-0.018": 0.279925727296,
			"-0.017": 1.31770058359,
			"-0.016": 1.97620998494,
			"-0.015": 2.6914012233,
			"-0.014": 2.1917758839,
			"-0.013": 2.24986572291,
			"-0.012": 1.72025330133,
			"-0.011": 1.72447723961,
			"-0.01": 2.29857297124,
			"-0.009": 2.12863107857,
			"-0.008": 2.40763855629,
			"-0.007": 6.13776999177,
			"-0.006": 7.80828209605,
			"-0.005": 6.64798737959,
			"-0.004": 9.02903574232,
			"-0.003": 6.41654707774,
			"-0.002": 5.97384581243,
			"-0.001": 5.59607810721,
			"0.0": 5.54336721916,
			"0.001": 7.52555061642,
			"0.002": 7.06380400793,
			"0.003": 15.0396847433,
			"0.004": 20.0818413257,
			"0.005": 12.3705604538,
			"0.006": 4.37053302765,
			"0.007": 3.53316078407,
			"0.008": 2.78911500112,
			"0.009": 3.21870572525,
			"0.01": 2.6159992659,
			"0.011": 3.52338699177,
			"0.012": 2.11299332652,
			"0.013": 0.626532486381,
			"0.014": 1.43041956203,
			"0.015": 0.920651194759,
			"0.016": 0.591358036226,
			"0.017": 0.0,
			"0.018": 0.0,
			"0.019": 0.0,
			"0.02": 0.0,
			"0.021": 0.0,
			"0.022": 0.0,
			"0.023": 0.0,
			"0.024": 0.0,
			"0.025": 0.0
		}
	}
}
