{
	 "smiles": "COC(=O)C1=C(C=CC=C1C)S(Cl)(=O)=O", 
	 "Tm": 327.15, 
	 "num_atms": 24, 
	 "gaussian": { 
		 "optdone": 1, 
		 "sigma_profile": "yes", 
		 "theory": "DFT", 
		 "functional": "B3LYP", 
		 "basiset": "6-31G**", 
		 "properties": { 
			 "R2extent": 4445.4333, 
			 "electric_dipole_moment_norm": 5.68678643436, 
			 "electric_quadrupole_moment_norm": 17.0585085969, 
			 "total_energy": -1507.59102723, 
			 "HOMO_LUMO_gap": 0.18539, 
			 "cosmo_polarized_energy": -13.08, 
			 "cosmo_cavitation_energy": 31.73, 
			 "cosmo_dispersion_energy": -22.47, 
			 "cosmo_repulsion_energy": 1.72, 
			 "cosmo_total_nonelectrostatic_energy": 10.98, 
			 "SMD_solvation_energy": 5.45 
		},
		"coords": [
			{
				"x": 4.3913571754,
				"y": 0.2328314084,
				"z": -1.8641576262,
				"element": "C" 
			},
			{
				"x": 3.1520336595,
				"y": 0.9069823283,
				"z": -1.5639436186,
				"element": "O" 
			},
			{
				"x": 2.3092220173,
				"y": 0.2225703295,
				"z": -0.7764845722,
				"element": "C" 
			},
			{
				"x": 2.5575605661,
				"y": -0.8336850595,
				"z": -0.2420635654,
				"element": "O" 
			},
			{
				"x": 1.016435432,
				"y": 0.9787635597,
				"z": -0.5742042629,
				"element": "C" 
			},
			{
				"x": -0.1654731051,
				"y": 0.6412949135,
				"z": -1.2466839796,
				"element": "C" 
			},
			{
				"x": -1.3730809403,
				"y": 1.301255794,
				"z": -1.0148366062,
				"element": "C" 
			},
			{
				"x": -1.3975487874,
				"y": 2.329194638,
				"z": -0.0774154828,
				"element": "C" 
			},
			{
				"x": -0.2319650953,
				"y": 2.678177938,
				"z": 0.6037449225,
				"element": "C" 
			},
			{
				"x": 0.9829833622,
				"y": 2.0221334289,
				"z": 0.3715872032,
				"element": "C" 
			},
			{
				"x": 2.2319836488,
				"y": 2.4206511239,
				"z": 1.1222426444,
				"element": "C" 
			},
			{
				"x": -0.1906431874,
				"y": -0.6459035554,
				"z": -2.5004480215,
				"element": "S" 
			},
			{
				"x": -0.5317867446,
				"y": -2.3867745221,
				"z": -1.3359531232,
				"element": "Cl" 
			},
			{
				"x": 1.1353834541,
				"y": -0.7868403626,
				"z": -3.0907153192,
				"element": "O" 
			},
			{
				"x": -1.3806270732,
				"y": -0.4734001107,
				"z": -3.3249564769,
				"element": "O" 
			},
			{
				"x": 4.9539148281,
				"y": 0.9242983344,
				"z": -2.4902166153,
				"element": "H" 
			},
			{
				"x": 4.185147988,
				"y": -0.6950550457,
				"z": -2.401630159,
				"element": "H" 
			},
			{
				"x": 4.9382717659,
				"y": 0.0064597805,
				"z": -0.9460606539,
				"element": "H" 
			},
			{
				"x": -2.2596504351,
				"y": 1.016331629,
				"z": -1.5686020467,
				"element": "H" 
			},
			{
				"x": -2.3240324209,
				"y": 2.859138075,
				"z": 0.1191329306,
				"element": "H" 
			},
			{
				"x": -0.2600178807,
				"y": 3.4811726244,
				"z": 1.3349800241,
				"element": "H" 
			},
			{
				"x": 2.6647585483,
				"y": 1.5635572839,
				"z": 1.6490887025,
				"element": "H" 
			},
			{
				"x": 2.9960882149,
				"y": 2.8021165286,
				"z": 0.4374043193,
				"element": "H" 
			},
			{
				"x": 2.0138850091,
				"y": 3.1967289381,
				"z": 1.8591913831,
				"element": "H" 
			}
		],
		 "valence_orbital": [ 
			{
				"type": "occ",
				"energy": -0.31261,
				"method": "rhf"
			},
			{
				"type": "occ",
				"energy": -0.31031,
				"method": "rhf"
			},
			{
				"type": "occ",
				"energy": -0.29865,
				"method": "rhf"
			},
			{
				"type": "occ",
				"energy": -0.28445,
				"method": "rhf"
			},
			{
				"type": "occ",
				"energy": -0.27219,
				"method": "rhf"
			},
			{
				"type": "unocc",
				"energy": -0.0868,
				"method": "rhf"
			},
			{
				"type": "unocc",
				"energy": -0.04565,
				"method": "rhf"
			},
			{
				"type": "unocc",
				"energy": -0.03795,
				"method": "rhf"
			},
			{
				"type": "unocc",
				"energy": -0.00324,
				"method": "rhf"
			},
			{
				"type": "unocc",
				"energy": 0.05527,
				"method": "rhf"
			}
		],
		"cosmo_sigma_profile": { 
			"-0.025": 0.0,
			"-0.024": 0.0,
			"-0.023": 0.0,
			"-0.022": 0.0,
			"-0.021": 0.0,
			"-0.02": 0.0,
			"-0.019": 0.0,
			"-0.018": 0.0,
			"-0.017": 0.0,
			"-0.016": 0.0,
			"-0.015": 0.0,
			"-0.014": 0.0,
			"-0.013": 0.0,
			"-0.012": 0.0,
			"-0.011": 0.0,
			"-0.01": 0.0,
			"-0.009": 0.217885266828,
			"-0.008": 4.36396778299,
			"-0.007": 10.3220866211,
			"-0.006": 15.0652897129,
			"-0.005": 16.2818153781,
			"-0.004": 19.6174186581,
			"-0.003": 19.9440228432,
			"-0.002": 19.5557913762,
			"-0.001": 21.435333059,
			"0.0": 21.9795152674,
			"0.001": 19.5449025893,
			"0.002": 15.1374750631,
			"0.003": 16.6450291871,
			"0.004": 9.43868546038,
			"0.005": 7.73818514515,
			"0.006": 7.70437487777,
			"0.007": 9.20849844061,
			"0.008": 9.40257712445,
			"0.009": 5.13723322865,
			"0.01": 2.84253857926,
			"0.011": 3.82954838612,
			"0.012": 0.323373641446,
			"0.013": 0.0,
			"0.014": 0.0,
			"0.015": 0.0,
			"0.016": 0.0,
			"0.017": 0.0,
			"0.018": 0.0,
			"0.019": 0.0,
			"0.02": 0.0,
			"0.021": 0.0,
			"0.022": 0.0,
			"0.023": 0.0,
			"0.024": 0.0,
			"0.025": 0.0
		}
	}
}
