{
	 "smiles": "CC1=CC=C(C=NC2=C(CC3=CC=C(Cl)C=C3)C(N=CC3=CC=C(C)C=C3)=NN2)C=C1", 
	 "Tm": 522.15, 
	 "num_atms": 54, 
	 "gaussian": { 
		 "optdone": 1, 
		 "sigma_profile": "yes", 
		 "theory": "DFT", 
		 "functional": "B3LYP", 
		 "basiset": "6-31G**", 
		 "properties": { 
			 "R2extent": 23565.3659, 
			 "electric_dipole_moment_norm": 3.87939614502, 
			 "electric_quadrupole_moment_norm": 41.6187484087, 
			 "total_energy": -1683.82005028, 
			 "HOMO_LUMO_gap": 0.1408, 
			 "cosmo_polarized_energy": -18.11, 
			 "cosmo_cavitation_energy": 62.31, 
			 "cosmo_dispersion_energy": -42.06, 
			 "cosmo_repulsion_energy": 3.18, 
			 "cosmo_total_nonelectrostatic_energy": 23.43, 
			 "SMD_solvation_energy": 7.82 
		},
		"coords": [
			{
				"x": 5.7322290426,
				"y": -3.9359054986,
				"z": 5.6487743582,
				"element": "C" 
			},
			{
				"x": 4.9562709766,
				"y": -3.3689728001,
				"z": 4.4851599249,
				"element": "C" 
			},
			{
				"x": 5.5682915999,
				"y": -2.5423116873,
				"z": 3.5356059854,
				"element": "C" 
			},
			{
				"x": 4.8433502909,
				"y": -2.0232692967,
				"z": 2.4645027894,
				"element": "C" 
			},
			{
				"x": 3.4800048689,
				"y": -2.3171399219,
				"z": 2.3127718067,
				"element": "C" 
			},
			{
				"x": 2.741499258,
				"y": -1.7572167214,
				"z": 1.1833162677,
				"element": "C" 
			},
			{
				"x": 1.4797126884,
				"y": -1.9492453104,
				"z": 1.0123007136,
				"element": "N" 
			},
			{
				"x": 0.8202225751,
				"y": -1.4619958538,
				"z": -0.0929491662,
				"element": "C" 
			},
			{
				"x": -0.5441063062,
				"y": -1.2315344477,
				"z": -0.2346467853,
				"element": "C" 
			},
			{
				"x": -1.6114975853,
				"y": -1.4098256971,
				"z": 0.8050959351,
				"element": "C" 
			},
			{
				"x": -1.864436049,
				"y": -0.1595276719,
				"z": 1.6368389564,
				"element": "C" 
			},
			{
				"x": -2.7020008385,
				"y": 0.8576955867,
				"z": 1.1613487939,
				"element": "C" 
			},
			{
				"x": -2.929889046,
				"y": 2.0126135007,
				"z": 1.9092020234,
				"element": "C" 
			},
			{
				"x": -2.3083081411,
				"y": 2.1506988134,
				"z": 3.1496183695,
				"element": "C" 
			},
			{
				"x": -2.593033861,
				"y": 3.6040060916,
				"z": 4.1054084484,
				"element": "Cl" 
			},
			{
				"x": -1.4656602383,
				"y": 1.1582478456,
				"z": 3.6457962138,
				"element": "C" 
			},
			{
				"x": -1.2499461583,
				"y": 0.0097453048,
				"z": 2.8826873012,
				"element": "C" 
			},
			{
				"x": -0.6878970768,
				"y": -0.7434500318,
				"z": -1.5612765173,
				"element": "C" 
			},
			{
				"x": -1.9079738918,
				"y": -0.3865203642,
				"z": -2.1285311025,
				"element": "N" 
			},
			{
				"x": -1.9243831204,
				"y": 0.3150644924,
				"z": -3.2060515936,
				"element": "C" 
			},
			{
				"x": -3.1676143299,
				"y": 0.6825842348,
				"z": -3.8854269672,
				"element": "C" 
			},
			{
				"x": -4.4244289883,
				"y": 0.2401592095,
				"z": -3.4307040962,
				"element": "C" 
			},
			{
				"x": -5.5832582674,
				"y": 0.6131196329,
				"z": -4.096103164,
				"element": "C" 
			},
			{
				"x": -5.5374218954,
				"y": 1.4353260488,
				"z": -5.2371699686,
				"element": "C" 
			},
			{
				"x": -6.8086390298,
				"y": 1.8298926172,
				"z": -5.9491721498,
				"element": "C" 
			},
			{
				"x": -4.2857190693,
				"y": 1.8698110451,
				"z": -5.6880782784,
				"element": "C" 
			},
			{
				"x": -3.1170735102,
				"y": 1.4996067644,
				"z": -5.0241260471,
				"element": "C" 
			},
			{
				"x": 0.4847438247,
				"y": -0.7094180655,
				"z": -2.2133614024,
				"element": "N" 
			},
			{
				"x": 1.389579764,
				"y": -1.1117704118,
				"z": -1.2980346594,
				"element": "N" 
			},
			{
				"x": 2.8604219909,
				"y": -3.1507387031,
				"z": 3.2638023963,
				"element": "C" 
			},
			{
				"x": 3.5888396991,
				"y": -3.6622203857,
				"z": 4.3275208152,
				"element": "C" 
			},
			{
				"x": 5.7089136846,
				"y": -5.0318176299,
				"z": 5.6452296233,
				"element": "H" 
			},
			{
				"x": 6.7792502292,
				"y": -3.6226390044,
				"z": 5.62400447,
				"element": "H" 
			},
			{
				"x": 5.3068211186,
				"y": -3.6105330663,
				"z": 6.6052542,
				"element": "H" 
			},
			{
				"x": 6.6234378346,
				"y": -2.3022619705,
				"z": 3.6366337099,
				"element": "H" 
			},
			{
				"x": 5.337330951,
				"y": -1.3813223882,
				"z": 1.7387143447,
				"element": "H" 
			},
			{
				"x": 3.3362817754,
				"y": -1.140984518,
				"z": 0.4920917488,
				"element": "H" 
			},
			{
				"x": -2.538113349,
				"y": -1.6998287321,
				"z": 0.2992969973,
				"element": "H" 
			},
			{
				"x": -1.3213660414,
				"y": -2.2308719613,
				"z": 1.4685212237,
				"element": "H" 
			},
			{
				"x": -3.1722976348,
				"y": 0.7466899652,
				"z": 0.1882033781,
				"element": "H" 
			},
			{
				"x": -3.5815438674,
				"y": 2.7956760627,
				"z": 1.5369745004,
				"element": "H" 
			},
			{
				"x": -0.988740809,
				"y": 1.2814341688,
				"z": 4.6120956463,
				"element": "H" 
			},
			{
				"x": -0.5870371037,
				"y": -0.7640197849,
				"z": 3.2607139758,
				"element": "H" 
			},
			{
				"x": -0.9945029087,
				"y": 0.671174959,
				"z": -3.6668254227,
				"element": "H" 
			},
			{
				"x": -4.4634244014,
				"y": -0.3992361894,
				"z": -2.554985973,
				"element": "H" 
			},
			{
				"x": -6.5464838367,
				"y": 0.2624485322,
				"z": -3.7325718292,
				"element": "H" 
			},
			{
				"x": -7.355143756,
				"y": 0.9485367583,
				"z": -6.3046746782,
				"element": "H" 
			},
			{
				"x": -7.4846907185,
				"y": 2.376886236,
				"z": -5.2816559015,
				"element": "H" 
			},
			{
				"x": -6.6032184929,
				"y": 2.4674089953,
				"z": -6.8132572746,
				"element": "H" 
			},
			{
				"x": -4.2256967975,
				"y": 2.5046332709,
				"z": -6.5683822086,
				"element": "H" 
			},
			{
				"x": -2.1535696632,
				"y": 1.8470975935,
				"z": -5.389314661,
				"element": "H" 
			},
			{
				"x": 2.3230420704,
				"y": -1.3289458616,
				"z": -1.6117670978,
				"element": "H" 
			},
			{
				"x": 1.8073870415,
				"y": -3.3827049923,
				"z": 3.143969354,
				"element": "H" 
			},
			{
				"x": 3.0962854989,
				"y": -4.3044287618,
				"z": 5.0538126732,
				"element": "H" 
			}
		],
		 "valence_orbital": [ 
			{
				"type": "occ",
				"energy": -0.25185,
				"method": "rhf"
			},
			{
				"type": "occ",
				"energy": -0.2492,
				"method": "rhf"
			},
			{
				"type": "occ",
				"energy": -0.23007,
				"method": "rhf"
			},
			{
				"type": "occ",
				"energy": -0.21545,
				"method": "rhf"
			},
			{
				"type": "occ",
				"energy": -0.20964,
				"method": "rhf"
			},
			{
				"type": "unocc",
				"energy": -0.06884,
				"method": "rhf"
			},
			{
				"type": "unocc",
				"energy": -0.05347,
				"method": "rhf"
			},
			{
				"type": "unocc",
				"energy": -0.01132,
				"method": "rhf"
			},
			{
				"type": "unocc",
				"energy": -0.00201,
				"method": "rhf"
			},
			{
				"type": "unocc",
				"energy": -0.00088,
				"method": "rhf"
			}
		],
		"cosmo_sigma_profile": { 
			"-0.025": 0.0,
			"-0.024": 0.0,
			"-0.023": 0.0,
			"-0.022": 0.0,
			"-0.021": 0.0,
			"-0.02": 0.0,
			"-0.019": 0.0,
			"-0.018": 0.0,
			"-0.017": 0.235989604696,
			"-0.016": 1.36634405852,
			"-0.015": 1.02275637053,
			"-0.014": 1.64164604128,
			"-0.013": 1.36849027662,
			"-0.012": 0.833790677069,
			"-0.011": 1.24632934448,
			"-0.01": 1.19771024334,
			"-0.009": 1.36199113113,
			"-0.008": 2.35313440735,
			"-0.007": 7.99895709375,
			"-0.006": 15.3607714998,
			"-0.005": 28.5828654313,
			"-0.004": 40.6329940801,
			"-0.003": 39.4780816589,
			"-0.002": 38.6284818068,
			"-0.001": 36.8375998467,
			"0.0": 43.3018955457,
			"0.001": 34.771943754,
			"0.002": 42.1314456763,
			"0.003": 51.3096735364,
			"0.004": 52.1470606158,
			"0.005": 35.454628656,
			"0.006": 5.45967099426,
			"0.007": 4.38543201207,
			"0.008": 2.89898380781,
			"0.009": 2.31098242569,
			"0.01": 2.10196234103,
			"0.011": 0.962399222997,
			"0.012": 1.01693845393,
			"0.013": 0.621750241758,
			"0.014": 1.07641497204,
			"0.015": 0.159026500926,
			"0.016": 0.0,
			"0.017": 0.0,
			"0.018": 0.0,
			"0.019": 0.0,
			"0.02": 0.0,
			"0.021": 0.0,
			"0.022": 0.0,
			"0.023": 0.0,
			"0.024": 0.0,
			"0.025": 0.0
		}
	}
}
