{
	 "smiles": "OC(=O)C=CC1=C(F)C=CC=C1", 
	 "Tm": 452.15, 
	 "num_atms": 19, 
	 "gaussian": { 
		 "optdone": 1, 
		 "sigma_profile": "yes", 
		 "theory": "DFT", 
		 "functional": "B3LYP", 
		 "basiset": "6-31G**", 
		 "properties": { 
			 "R2extent": 3366.7327, 
			 "electric_dipole_moment_norm": 5.84806479444, 
			 "electric_quadrupole_moment_norm": 27.305482355, 
			 "total_energy": -597.449560003, 
			 "HOMO_LUMO_gap": 0.17055, 
			 "cosmo_polarized_energy": -14.74, 
			 "cosmo_cavitation_energy": 24.65, 
			 "cosmo_dispersion_energy": -17.91, 
			 "cosmo_repulsion_energy": 1.4, 
			 "cosmo_total_nonelectrostatic_energy": 8.15, 
			 "SMD_solvation_energy": 6.05 
		},
		"coords": [
			{
				"x": 0.6023590045,
				"y": 3.0533086541,
				"z": -3.5805078412,
				"element": "O" 
			},
			{
				"x": 0.4394644649,
				"y": 1.7693624265,
				"z": -4.0059383144,
				"element": "C" 
			},
			{
				"x": 0.5405077201,
				"y": 1.502794158,
				"z": -5.1815516266,
				"element": "O" 
			},
			{
				"x": 0.1257155755,
				"y": 0.7370127327,
				"z": -2.9845668138,
				"element": "C" 
			},
			{
				"x": -0.4051150545,
				"y": 0.9882495273,
				"z": -1.7736264069,
				"element": "C" 
			},
			{
				"x": -0.784518754,
				"y": 0.0047470704,
				"z": -0.7586517796,
				"element": "C" 
			},
			{
				"x": -1.3281771274,
				"y": 0.4495041355,
				"z": 0.4571418212,
				"element": "C" 
			},
			{
				"x": -1.4847771908,
				"y": 1.7794328698,
				"z": 0.6481028725,
				"element": "F" 
			},
			{
				"x": -1.7132991903,
				"y": -0.408957808,
				"z": 1.4776389608,
				"element": "C" 
			},
			{
				"x": -1.5550774542,
				"y": -1.7813544876,
				"z": 1.2925926386,
				"element": "C" 
			},
			{
				"x": -1.0172022407,
				"y": -2.269213675,
				"z": 0.0963740681,
				"element": "C" 
			},
			{
				"x": -0.6390561738,
				"y": -1.3881609628,
				"z": -0.9105071787,
				"element": "C" 
			},
			{
				"x": 0.6617575055,
				"y": 3.0794286355,
				"z": -2.6155738816,
				"element": "H" 
			},
			{
				"x": 0.2899417961,
				"y": -0.2742962639,
				"z": -3.342071962,
				"element": "H" 
			},
			{
				"x": -0.6116202155,
				"y": 2.0176901237,
				"z": -1.4884199516,
				"element": "H" 
			},
			{
				"x": -2.1263953939,
				"y": 0.0061330177,
				"z": 2.3902843831,
				"element": "H" 
			},
			{
				"x": -1.8514613941,
				"y": -2.4675596302,
				"z": 2.0797661234,
				"element": "H" 
			},
			{
				"x": -0.8944137941,
				"y": -3.337693825,
				"z": -0.0486558462,
				"element": "H" 
			},
			{
				"x": -0.2248320832,
				"y": -1.7798266986,
				"z": -1.833729265,
				"element": "H" 
			}
		],
		 "valence_orbital": [ 
			{
				"type": "occ",
				"energy": -0.3299,
				"method": "rhf"
			},
			{
				"type": "occ",
				"energy": -0.31096,
				"method": "rhf"
			},
			{
				"type": "occ",
				"energy": -0.27145,
				"method": "rhf"
			},
			{
				"type": "occ",
				"energy": -0.26898,
				"method": "rhf"
			},
			{
				"type": "occ",
				"energy": -0.24885,
				"method": "rhf"
			},
			{
				"type": "unocc",
				"energy": -0.0783,
				"method": "rhf"
			},
			{
				"type": "unocc",
				"energy": -0.01937,
				"method": "rhf"
			},
			{
				"type": "unocc",
				"energy": 0.0061,
				"method": "rhf"
			},
			{
				"type": "unocc",
				"energy": 0.05988,
				"method": "rhf"
			},
			{
				"type": "unocc",
				"energy": 0.0722,
				"method": "rhf"
			}
		],
		"cosmo_sigma_profile": { 
			"-0.025": 0.0,
			"-0.024": 0.0,
			"-0.023": 0.0,
			"-0.022": 0.0,
			"-0.021": 0.0,
			"-0.02": 0.0,
			"-0.019": 0.324553088087,
			"-0.018": 0.688911934218,
			"-0.017": 1.10380367916,
			"-0.016": 1.30172132745,
			"-0.015": 0.721602555179,
			"-0.014": 1.12293454734,
			"-0.013": 0.562417412172,
			"-0.012": 0.746541613552,
			"-0.011": 0.861643007768,
			"-0.01": 1.28519556026,
			"-0.009": 2.74144114978,
			"-0.008": 3.80802086614,
			"-0.007": 8.44832655515,
			"-0.006": 10.6308077782,
			"-0.005": 11.0189238948,
			"-0.004": 9.07936958927,
			"-0.003": 10.2510338203,
			"-0.002": 11.5943298784,
			"-0.001": 12.6819207506,
			"0.0": 16.3341660617,
			"0.001": 16.3114614472,
			"0.002": 17.6199947827,
			"0.003": 16.1290810272,
			"0.004": 11.4123498841,
			"0.005": 2.05375581672,
			"0.006": 2.1863365855,
			"0.007": 2.71799268977,
			"0.008": 2.02406536286,
			"0.009": 3.99677338224,
			"0.01": 3.35093481163,
			"0.011": 5.54229437734,
			"0.012": 6.17290761249,
			"0.013": 3.2509317954,
			"0.014": 0.289883532216,
			"0.015": 0.0,
			"0.016": 0.0,
			"0.017": 0.0,
			"0.018": 0.0,
			"0.019": 0.0,
			"0.02": 0.0,
			"0.021": 0.0,
			"0.022": 0.0,
			"0.023": 0.0,
			"0.024": 0.0,
			"0.025": 0.0
		}
	}
}
