{
	 "smiles": "O=C(C(=O)C1=CC=CC2=CC=CC=C12)C1=CC=CC=C1", 
	 "Tm": 375.15, 
	 "num_atms": 32, 
	 "gaussian": { 
		 "optdone": 1, 
		 "sigma_profile": "yes", 
		 "theory": "DFT", 
		 "functional": "B3LYP", 
		 "basiset": "6-31G**", 
		 "properties": { 
			 "R2extent": 6321.0616, 
			 "electric_dipole_moment_norm": 2.86028994859, 
			 "electric_quadrupole_moment_norm": 18.104391865, 
			 "total_energy": -843.590427327, 
			 "HOMO_LUMO_gap": 0.14343, 
			 "cosmo_polarized_energy": -11.97, 
			 "cosmo_cavitation_energy": 36.71, 
			 "cosmo_dispersion_energy": -25.89, 
			 "cosmo_repulsion_energy": 1.95, 
			 "cosmo_total_nonelectrostatic_energy": 12.77, 
			 "SMD_solvation_energy": 6.83 
		},
		"coords": [
			{
				"x": 0.4700733022,
				"y": -2.2695911944,
				"z": -0.6898999959,
				"element": "O" 
			},
			{
				"x": 0.8598831123,
				"y": -1.8307902099,
				"z": 0.3820133446,
				"element": "C" 
			},
			{
				"x": 2.1531727269,
				"y": -0.9924253059,
				"z": 0.3558555623,
				"element": "C" 
			},
			{
				"x": 3.0835528163,
				"y": -1.385175243,
				"z": 1.0482811928,
				"element": "O" 
			},
			{
				"x": 2.3142263565,
				"y": 0.1012393131,
				"z": -0.6467354995,
				"element": "C" 
			},
			{
				"x": 3.5856573008,
				"y": 0.2388889781,
				"z": -1.1831642796,
				"element": "C" 
			},
			{
				"x": 3.8615845026,
				"y": 1.1923192662,
				"z": -2.1824716367,
				"element": "C" 
			},
			{
				"x": 2.8587636649,
				"y": 2.0226025594,
				"z": -2.6298483756,
				"element": "C" 
			},
			{
				"x": 1.5508778127,
				"y": 1.9526349575,
				"z": -2.0813596512,
				"element": "C" 
			},
			{
				"x": 0.5307729128,
				"y": 2.8431376431,
				"z": -2.5130112169,
				"element": "C" 
			},
			{
				"x": -0.7246474509,
				"y": 2.8058330284,
				"z": -1.9532421653,
				"element": "C" 
			},
			{
				"x": -1.005831622,
				"y": 1.8777265114,
				"z": -0.9239154604,
				"element": "C" 
			},
			{
				"x": -0.0417589282,
				"y": 0.9955165105,
				"z": -0.4882894538,
				"element": "C" 
			},
			{
				"x": 1.2596910246,
				"y": 0.9839308238,
				"z": -1.0612767206,
				"element": "C" 
			},
			{
				"x": 0.2108069597,
				"y": -2.1649292288,
				"z": 1.6785850313,
				"element": "C" 
			},
			{
				"x": -0.9249549536,
				"y": -2.992297165,
				"z": 1.645386971,
				"element": "C" 
			},
			{
				"x": -1.5939620559,
				"y": -3.3126939961,
				"z": 2.8213946356,
				"element": "C" 
			},
			{
				"x": -1.1374374518,
				"y": -2.8069367625,
				"z": 4.0434506649,
				"element": "C" 
			},
			{
				"x": -0.0110170026,
				"y": -1.9826408167,
				"z": 4.0847788884,
				"element": "C" 
			},
			{
				"x": 0.6646605993,
				"y": -1.6602628467,
				"z": 2.9085116202,
				"element": "C" 
			},
			{
				"x": 4.3655932165,
				"y": -0.4268790873,
				"z": -0.8288283172,
				"element": "H" 
			},
			{
				"x": 4.8611062779,
				"y": 1.2609108434,
				"z": -2.6006837371,
				"element": "H" 
			},
			{
				"x": 3.0568041959,
				"y": 2.7561449846,
				"z": -3.4072470807,
				"element": "H" 
			},
			{
				"x": 0.7671628228,
				"y": 3.5640146785,
				"z": -3.2913160696,
				"element": "H" 
			},
			{
				"x": -1.4962329496,
				"y": 3.4923492707,
				"z": -2.2886133933,
				"element": "H" 
			},
			{
				"x": -1.9911724571,
				"y": 1.8632847812,
				"z": -0.4674585945,
				"element": "H" 
			},
			{
				"x": -0.2851942878,
				"y": 0.3166415221,
				"z": 0.3203558412,
				"element": "H" 
			},
			{
				"x": -1.2592691201,
				"y": -3.3688479062,
				"z": 0.6842421327,
				"element": "H" 
			},
			{
				"x": -2.4701839041,
				"y": -3.95359868,
				"z": 2.7908572541,
				"element": "H" 
			},
			{
				"x": -1.6601212146,
				"y": -3.0564934813,
				"z": 4.9625685905,
				"element": "H" 
			},
			{
				"x": 0.3447208385,
				"y": -1.5943986143,
				"z": 5.0344068738,
				"element": "H" 
			},
			{
				"x": 1.5501729551,
				"y": -1.0369151339,
				"z": 2.9459730445,
				"element": "H" 
			}
		],
		 "valence_orbital": [ 
			{
				"type": "occ",
				"energy": -0.26516,
				"method": "rhf"
			},
			{
				"type": "occ",
				"energy": -0.26261,
				"method": "rhf"
			},
			{
				"type": "occ",
				"energy": -0.25207,
				"method": "rhf"
			},
			{
				"type": "occ",
				"energy": -0.23622,
				"method": "rhf"
			},
			{
				"type": "occ",
				"energy": -0.22479,
				"method": "rhf"
			},
			{
				"type": "unocc",
				"energy": -0.08136,
				"method": "rhf"
			},
			{
				"type": "unocc",
				"energy": -0.05994,
				"method": "rhf"
			},
			{
				"type": "unocc",
				"energy": -0.02225,
				"method": "rhf"
			},
			{
				"type": "unocc",
				"energy": -0.01678,
				"method": "rhf"
			},
			{
				"type": "unocc",
				"energy": -0.01012,
				"method": "rhf"
			}
		],
		"cosmo_sigma_profile": { 
			"-0.025": 0.0,
			"-0.024": 0.0,
			"-0.023": 0.0,
			"-0.022": 0.0,
			"-0.021": 0.0,
			"-0.02": 0.0,
			"-0.019": 0.0,
			"-0.018": 0.0,
			"-0.017": 0.0,
			"-0.016": 0.0,
			"-0.015": 0.0,
			"-0.014": 0.0,
			"-0.013": 0.0,
			"-0.012": 0.0,
			"-0.011": 0.0,
			"-0.01": 0.0,
			"-0.009": 0.0237484365222,
			"-0.008": 0.582648555995,
			"-0.007": 9.05345650198,
			"-0.006": 23.9498348015,
			"-0.005": 26.8740773399,
			"-0.004": 24.4370671499,
			"-0.003": 17.9922465532,
			"-0.002": 16.691711642,
			"-0.001": 16.9232300694,
			"0.0": 18.3960878741,
			"0.001": 21.2074221399,
			"0.002": 29.903249062,
			"0.003": 35.7681833626,
			"0.004": 19.651946682,
			"0.005": 6.54389565865,
			"0.006": 4.11662862753,
			"0.007": 3.85869672171,
			"0.008": 3.67085505634,
			"0.009": 4.03606434275,
			"0.01": 6.63798606721,
			"0.011": 5.51839985366,
			"0.012": 0.301959766026,
			"0.013": 0.0,
			"0.014": 0.0,
			"0.015": 0.0,
			"0.016": 0.0,
			"0.017": 0.0,
			"0.018": 0.0,
			"0.019": 0.0,
			"0.02": 0.0,
			"0.021": 0.0,
			"0.022": 0.0,
			"0.023": 0.0,
			"0.024": 0.0,
			"0.025": 0.0
		}
	}
}
