{
	 "smiles": "CCCCN=C=O", 
	 "Tm": 198.15, 
	 "num_atms": 16, 
	 "gaussian": { 
		 "optdone": 1, 
		 "sigma_profile": "yes", 
		 "theory": "DFT", 
		 "functional": "B3LYP", 
		 "basiset": "6-31G**", 
		 "properties": { 
			 "R2extent": 2352.3898, 
			 "electric_dipole_moment_norm": 3.15015796112, 
			 "electric_quadrupole_moment_norm": 15.1738903449, 
			 "total_energy": -325.93744955, 
			 "HOMO_LUMO_gap": 0.2967, 
			 "cosmo_polarized_energy": -4.48, 
			 "cosmo_cavitation_energy": 20.05, 
			 "cosmo_dispersion_energy": -14.39, 
			 "cosmo_repulsion_energy": 1.26, 
			 "cosmo_total_nonelectrostatic_energy": 6.92, 
			 "SMD_solvation_energy": 4.92 
		},
		"coords": [
			{
				"x": -1.2974865186,
				"y": -0.3517758851,
				"z": 0.2237889103,
				"element": "C" 
			},
			{
				"x": -0.7357032906,
				"y": -0.7803052785,
				"z": -1.1381404585,
				"element": "C" 
			},
			{
				"x": -0.5283382236,
				"y": 0.3690181252,
				"z": -2.1364706611,
				"element": "C" 
			},
			{
				"x": 0.559528257,
				"y": 1.3591779437,
				"z": -1.7113327424,
				"element": "C" 
			},
			{
				"x": 0.739773213,
				"y": 2.381781634,
				"z": -2.7230954455,
				"element": "N" 
			},
			{
				"x": 1.4112845065,
				"y": 3.3621247759,
				"z": -2.9284759039,
				"element": "C" 
			},
			{
				"x": 2.0005383984,
				"y": 4.3346878036,
				"z": -3.2515061733,
				"element": "O" 
			},
			{
				"x": -1.4849954277,
				"y": -1.2220786689,
				"z": 0.8607089646,
				"element": "H" 
			},
			{
				"x": -2.2459865993,
				"y": 0.1850152649,
				"z": 0.1075069269,
				"element": "H" 
			},
			{
				"x": -0.6103256449,
				"y": 0.3050417022,
				"z": 0.7676658399,
				"element": "H" 
			},
			{
				"x": -1.4198432765,
				"y": -1.5069977712,
				"z": -1.592235582,
				"element": "H" 
			},
			{
				"x": 0.2144462397,
				"y": -1.3128643437,
				"z": -0.9931801672,
				"element": "H" 
			},
			{
				"x": -0.2535053514,
				"y": -0.0386478166,
				"z": -3.1162051311,
				"element": "H" 
			},
			{
				"x": -1.4680567117,
				"y": 0.9171912385,
				"z": -2.2792331033,
				"element": "H" 
			},
			{
				"x": 1.5070545514,
				"y": 0.8254623035,
				"z": -1.5585559531,
				"element": "H" 
			},
			{
				"x": 0.2967158782,
				"y": 1.8366689726,
				"z": -0.7601393202,
				"element": "H" 
			}
		],
		 "valence_orbital": [ 
			{
				"type": "occ",
				"energy": -0.34696,
				"method": "rhf"
			},
			{
				"type": "occ",
				"energy": -0.34159,
				"method": "rhf"
			},
			{
				"type": "occ",
				"energy": -0.33993,
				"method": "rhf"
			},
			{
				"type": "occ",
				"energy": -0.2875,
				"method": "rhf"
			},
			{
				"type": "occ",
				"energy": -0.27309,
				"method": "rhf"
			},
			{
				"type": "unocc",
				"energy": 0.02361,
				"method": "rhf"
			},
			{
				"type": "unocc",
				"energy": 0.0619,
				"method": "rhf"
			},
			{
				"type": "unocc",
				"energy": 0.08651,
				"method": "rhf"
			},
			{
				"type": "unocc",
				"energy": 0.10646,
				"method": "rhf"
			},
			{
				"type": "unocc",
				"energy": 0.12246,
				"method": "rhf"
			}
		],
		"cosmo_sigma_profile": { 
			"-0.025": 0.0,
			"-0.024": 0.0,
			"-0.023": 0.0,
			"-0.022": 0.0,
			"-0.021": 0.0,
			"-0.02": 0.0,
			"-0.019": 0.0,
			"-0.018": 0.0,
			"-0.017": 0.0,
			"-0.016": 0.0,
			"-0.015": 0.0,
			"-0.014": 0.0,
			"-0.013": 0.0,
			"-0.012": 0.0,
			"-0.011": 0.0,
			"-0.01": 0.0,
			"-0.009": 0.0,
			"-0.008": 0.0,
			"-0.007": 0.0,
			"-0.006": 1.09411457704,
			"-0.005": 9.26591119591,
			"-0.004": 10.0813403366,
			"-0.003": 18.0658712558,
			"-0.002": 22.5938944176,
			"-0.001": 22.9988805815,
			"0.0": 21.4974669696,
			"0.001": 15.7596922767,
			"0.002": 6.68796253515,
			"0.003": 3.97041913329,
			"0.004": 3.06697985777,
			"0.005": 3.95004967426,
			"0.006": 3.71547855358,
			"0.007": 3.38875776271,
			"0.008": 6.7934400663,
			"0.009": 4.67997620117,
			"0.01": 0.0,
			"0.011": 0.0,
			"0.012": 0.0,
			"0.013": 0.0,
			"0.014": 0.0,
			"0.015": 0.0,
			"0.016": 0.0,
			"0.017": 0.0,
			"0.018": 0.0,
			"0.019": 0.0,
			"0.02": 0.0,
			"0.021": 0.0,
			"0.022": 0.0,
			"0.023": 0.0,
			"0.024": 0.0,
			"0.025": 0.0
		}
	}
}
