{
	 "smiles": "COC1=C(C=CC=C1)C1=CC=C(C=O)C=C1", 
	 "Tm": 323.15, 
	 "num_atms": 28, 
	 "gaussian": { 
		 "optdone": 1, 
		 "sigma_profile": "yes", 
		 "theory": "DFT", 
		 "functional": "B3LYP", 
		 "basiset": "6-31G**", 
		 "properties": { 
			 "R2extent": 4389.6259, 
			 "electric_dipole_moment_norm": 4.36386911009, 
			 "electric_quadrupole_moment_norm": 16.7108869229, 
			 "total_energy": -691.151706989, 
			 "HOMO_LUMO_gap": 0.16713, 
			 "cosmo_polarized_energy": -10.09, 
			 "cosmo_cavitation_energy": 32.32, 
			 "cosmo_dispersion_energy": -22.73, 
			 "cosmo_repulsion_energy": 1.76, 
			 "cosmo_total_nonelectrostatic_energy": 11.35, 
			 "SMD_solvation_energy": 7.11 
		},
		"coords": [
			{
				"x": -2.8962986411,
				"y": 0.5010158546,
				"z": -0.2104586012,
				"element": "C" 
			},
			{
				"x": -2.0199287271,
				"y": 1.5614922792,
				"z": -0.5961821522,
				"element": "O" 
			},
			{
				"x": -1.0806287081,
				"y": 1.9066832405,
				"z": 0.355227576,
				"element": "C" 
			},
			{
				"x": 0.1513037067,
				"y": 1.2229385822,
				"z": 0.4444537662,
				"element": "C" 
			},
			{
				"x": 1.0632362143,
				"y": 1.6545546375,
				"z": 1.424360868,
				"element": "C" 
			},
			{
				"x": 0.7737482025,
				"y": 2.7159510113,
				"z": 2.2792187162,
				"element": "C" 
			},
			{
				"x": -0.4491211358,
				"y": 3.3798189466,
				"z": 2.1715948159,
				"element": "C" 
			},
			{
				"x": -1.3732925839,
				"y": 2.9695940448,
				"z": 1.2119115665,
				"element": "C" 
			},
			{
				"x": 0.5089933036,
				"y": 0.0927461514,
				"z": -0.4521871707,
				"element": "C" 
			},
			{
				"x": 0.2441214359,
				"y": 0.1350251146,
				"z": -1.8374283097,
				"element": "C" 
			},
			{
				"x": 0.6245169039,
				"y": -0.9130254438,
				"z": -2.6638384972,
				"element": "C" 
			},
			{
				"x": 1.277228985,
				"y": -2.0365394752,
				"z": -2.1322544614,
				"element": "C" 
			},
			{
				"x": 1.681804849,
				"y": -3.156001709,
				"z": -3.0085199412,
				"element": "C" 
			},
			{
				"x": 1.4921317432,
				"y": -3.2008874178,
				"z": -4.2099337255,
				"element": "O" 
			},
			{
				"x": 1.5413969903,
				"y": -2.0895166591,
				"z": -0.7582097035,
				"element": "C" 
			},
			{
				"x": 1.1614297695,
				"y": -1.0386584694,
				"z": 0.0711952342,
				"element": "C" 
			},
			{
				"x": -3.5865746389,
				"y": 0.3500437083,
				"z": -1.0426858208,
				"element": "H" 
			},
			{
				"x": -2.344402299,
				"y": -0.4284588784,
				"z": -0.0250593451,
				"element": "H" 
			},
			{
				"x": -3.4642201356,
				"y": 0.7674438413,
				"z": 0.6903040092,
				"element": "H" 
			},
			{
				"x": 2.0284226879,
				"y": 1.1612037568,
				"z": 1.4906461099,
				"element": "H" 
			},
			{
				"x": 1.5063266224,
				"y": 3.0311975978,
				"z": 3.0160322021,
				"element": "H" 
			},
			{
				"x": -0.6819980965,
				"y": 4.2138405574,
				"z": 2.8270533223,
				"element": "H" 
			},
			{
				"x": -2.331459818,
				"y": 3.4678172256,
				"z": 1.1017169188,
				"element": "H" 
			},
			{
				"x": -0.2604860776,
				"y": 0.9990681611,
				"z": -2.2525689599,
				"element": "H" 
			},
			{
				"x": 0.4321565433,
				"y": -0.8843342717,
				"z": -3.7318490239,
				"element": "H" 
			},
			{
				"x": 2.1930736241,
				"y": -3.9929350125,
				"z": -2.4809611888,
				"element": "H" 
			},
			{
				"x": 2.0400466241,
				"y": -2.9610692537,
				"z": -0.3397082112,
				"element": "H" 
			},
			{
				"x": 1.3527726557,
				"y": -1.0970081202,
				"z": 1.138330007,
				"element": "H" 
			}
		],
		 "valence_orbital": [ 
			{
				"type": "occ",
				"energy": -0.27582,
				"method": "rhf"
			},
			{
				"type": "occ",
				"energy": -0.26216,
				"method": "rhf"
			},
			{
				"type": "occ",
				"energy": -0.2522,
				"method": "rhf"
			},
			{
				"type": "occ",
				"energy": -0.25135,
				"method": "rhf"
			},
			{
				"type": "occ",
				"energy": -0.23389,
				"method": "rhf"
			},
			{
				"type": "unocc",
				"energy": -0.06676,
				"method": "rhf"
			},
			{
				"type": "unocc",
				"energy": -0.012,
				"method": "rhf"
			},
			{
				"type": "unocc",
				"energy": -0.01035,
				"method": "rhf"
			},
			{
				"type": "unocc",
				"energy": -0.00637,
				"method": "rhf"
			},
			{
				"type": "unocc",
				"energy": 0.04846,
				"method": "rhf"
			}
		],
		"cosmo_sigma_profile": { 
			"-0.025": 0.0,
			"-0.024": 0.0,
			"-0.023": 0.0,
			"-0.022": 0.0,
			"-0.021": 0.0,
			"-0.02": 0.0,
			"-0.019": 0.0,
			"-0.018": 0.0,
			"-0.017": 0.0,
			"-0.016": 0.0,
			"-0.015": 0.0,
			"-0.014": 0.0,
			"-0.013": 0.0,
			"-0.012": 0.0,
			"-0.011": 0.0,
			"-0.01": 0.0,
			"-0.009": 0.0,
			"-0.008": 0.38648114388,
			"-0.007": 4.55494680931,
			"-0.006": 16.000947869,
			"-0.005": 21.4128241634,
			"-0.004": 24.7879598756,
			"-0.003": 24.6669779752,
			"-0.002": 20.8273866877,
			"-0.001": 17.5051537125,
			"0.0": 16.8657917201,
			"0.001": 18.9197868364,
			"0.002": 19.5214564026,
			"0.003": 23.7243731326,
			"0.004": 15.4776615923,
			"0.005": 9.66503822347,
			"0.006": 2.93261537631,
			"0.007": 2.81192113655,
			"0.008": 2.53228996194,
			"0.009": 2.90038847798,
			"0.01": 3.41904801168,
			"0.011": 4.73566251122,
			"0.012": 3.98765028833,
			"0.013": 0.995854023702,
			"0.014": 0.0147771282807,
			"0.015": 0.0,
			"0.016": 0.0,
			"0.017": 0.0,
			"0.018": 0.0,
			"0.019": 0.0,
			"0.02": 0.0,
			"0.021": 0.0,
			"0.022": 0.0,
			"0.023": 0.0,
			"0.024": 0.0,
			"0.025": 0.0
		}
	}
}
