{
	 "smiles": "C[C@H]1CC[C@@H](C)C1", 
	 "Tm": 139.15, 
	 "num_atms": 21, 
	 "gaussian": { 
		 "optdone": 1, 
		 "sigma_profile": "yes", 
		 "theory": "DFT", 
		 "functional": "B3LYP", 
		 "basiset": "6-31G**", 
		 "properties": { 
			 "R2extent": 1581.5474, 
			 "electric_dipole_moment_norm": 0.128624531097, 
			 "electric_quadrupole_moment_norm": 0.996373895684, 
			 "total_energy": -275.20234447, 
			 "HOMO_LUMO_gap": 0.38209, 
			 "cosmo_polarized_energy": -0.54, 
			 "cosmo_cavitation_energy": 21.32, 
			 "cosmo_dispersion_energy": -15.89, 
			 "cosmo_repulsion_energy": 1.35, 
			 "cosmo_total_nonelectrostatic_energy": 6.78, 
			 "SMD_solvation_energy": 3.27 
		},
		"coords": [
			{
				"x": -1.6400026592,
				"y": 0.1568322987,
				"z": 1.4095591426,
				"element": "C" 
			},
			{
				"x": -1.5564241746,
				"y": 1.1248326305,
				"z": 0.2291430029,
				"element": "C" 
			},
			{
				"x": -0.902434792,
				"y": 2.4903545598,
				"z": 0.5699243789,
				"element": "C" 
			},
			{
				"x": -0.218485582,
				"y": 2.9829373814,
				"z": -0.7376387405,
				"element": "C" 
			},
			{
				"x": -0.4909521437,
				"y": 1.891642023,
				"z": -1.8069289775,
				"element": "C" 
			},
			{
				"x": 0.6001303319,
				"y": 1.7687611221,
				"z": -2.8707945033,
				"element": "C" 
			},
			{
				"x": -0.7277038628,
				"y": 0.6244164763,
				"z": -0.9668848936,
				"element": "C" 
			},
			{
				"x": -0.640193039,
				"y": -0.0709824938,
				"z": 1.7988646702,
				"element": "H" 
			},
			{
				"x": -2.2277519767,
				"y": 0.5790660368,
				"z": 2.2325127984,
				"element": "H" 
			},
			{
				"x": -2.1088850989,
				"y": -0.7903099942,
				"z": 1.1200234346,
				"element": "H" 
			},
			{
				"x": -2.5770872552,
				"y": 1.31482036,
				"z": -0.1343576806,
				"element": "H" 
			},
			{
				"x": -0.1554991046,
				"y": 2.3531381998,
				"z": 1.361344903,
				"element": "H" 
			},
			{
				"x": -1.6370147531,
				"y": 3.2042389705,
				"z": 0.9568813687,
				"element": "H" 
			},
			{
				"x": 0.8627562726,
				"y": 3.0868712478,
				"z": -0.5853195378,
				"element": "H" 
			},
			{
				"x": -0.5821286443,
				"y": 3.963989786,
				"z": -1.0605428764,
				"element": "H" 
			},
			{
				"x": -1.4383292876,
				"y": 2.1341871967,
				"z": -2.3105341786,
				"element": "H" 
			},
			{
				"x": 0.7305401142,
				"y": 2.7076733898,
				"z": -3.4207251132,
				"element": "H" 
			},
			{
				"x": 0.3625008407,
				"y": 0.9875567794,
				"z": -3.6015549129,
				"element": "H" 
			},
			{
				"x": 1.5643582273,
				"y": 1.5156861672,
				"z": -2.4133054806,
				"element": "H" 
			},
			{
				"x": 0.2361690939,
				"y": 0.2291176977,
				"z": -0.6112886389,
				"element": "H" 
			},
			{
				"x": -1.2211625071,
				"y": -0.1781298355,
				"z": -1.5273781653,
				"element": "H" 
			}
		],
		 "valence_orbital": [ 
			{
				"type": "occ",
				"energy": -0.31816,
				"method": "rhf"
			},
			{
				"type": "occ",
				"energy": -0.31255,
				"method": "rhf"
			},
			{
				"type": "occ",
				"energy": -0.31154,
				"method": "rhf"
			},
			{
				"type": "occ",
				"energy": -0.3021,
				"method": "rhf"
			},
			{
				"type": "occ",
				"energy": -0.29926,
				"method": "rhf"
			},
			{
				"type": "unocc",
				"energy": 0.08283,
				"method": "rhf"
			},
			{
				"type": "unocc",
				"energy": 0.10778,
				"method": "rhf"
			},
			{
				"type": "unocc",
				"energy": 0.10818,
				"method": "rhf"
			},
			{
				"type": "unocc",
				"energy": 0.13855,
				"method": "rhf"
			},
			{
				"type": "unocc",
				"energy": 0.15178,
				"method": "rhf"
			}
		],
		"cosmo_sigma_profile": { 
			"-0.025": 0.0,
			"-0.024": 0.0,
			"-0.023": 0.0,
			"-0.022": 0.0,
			"-0.021": 0.0,
			"-0.02": 0.0,
			"-0.019": 0.0,
			"-0.018": 0.0,
			"-0.017": 0.0,
			"-0.016": 0.0,
			"-0.015": 0.0,
			"-0.014": 0.0,
			"-0.013": 0.0,
			"-0.012": 0.0,
			"-0.011": 0.0,
			"-0.01": 0.0,
			"-0.009": 0.0,
			"-0.008": 0.0,
			"-0.007": 0.0,
			"-0.006": 0.0,
			"-0.005": 0.0,
			"-0.004": 0.0,
			"-0.003": 2.32469889316,
			"-0.002": 20.8709086927,
			"-0.001": 35.8909489328,
			"0.0": 44.3404181839,
			"0.001": 34.6475214086,
			"0.002": 23.2608850368,
			"0.003": 1.90434238509,
			"0.004": 0.0,
			"0.005": 0.0,
			"0.006": 0.0,
			"0.007": 0.0,
			"0.008": 0.0,
			"0.009": 0.0,
			"0.01": 0.0,
			"0.011": 0.0,
			"0.012": 0.0,
			"0.013": 0.0,
			"0.014": 0.0,
			"0.015": 0.0,
			"0.016": 0.0,
			"0.017": 0.0,
			"0.018": 0.0,
			"0.019": 0.0,
			"0.02": 0.0,
			"0.021": 0.0,
			"0.022": 0.0,
			"0.023": 0.0,
			"0.024": 0.0,
			"0.025": 0.0
		}
	}
}
