{
	 "smiles": "OC(=O)C1=CC(=O)C2=C(O1)C=CC=C2", 
	 "Tm": 533.15, 
	 "num_atms": 20, 
	 "gaussian": { 
		 "optdone": 1, 
		 "sigma_profile": "yes", 
		 "theory": "DFT", 
		 "functional": "B3LYP", 
		 "basiset": "6-31G**", 
		 "properties": { 
			 "R2extent": 3078.463, 
			 "electric_dipole_moment_norm": 1.82632363233, 
			 "electric_quadrupole_moment_norm": 23.3222994876, 
			 "total_energy": -685.575262146, 
			 "HOMO_LUMO_gap": 0.16289, 
			 "cosmo_polarized_energy": -14.41, 
			 "cosmo_cavitation_energy": 25.75, 
			 "cosmo_dispersion_energy": -19.12, 
			 "cosmo_repulsion_energy": 1.48, 
			 "cosmo_total_nonelectrostatic_energy": 8.12, 
			 "SMD_solvation_energy": 6.8 
		},
		"coords": [
			{
				"x": -3.7643186753,
				"y": 1.3562906545,
				"z": -0.2306888689,
				"element": "O" 
			},
			{
				"x": -2.6546440337,
				"y": 1.8572880404,
				"z": -0.8151221172,
				"element": "C" 
			},
			{
				"x": -2.611637888,
				"y": 2.9261051777,
				"z": -1.3783803407,
				"element": "O" 
			},
			{
				"x": -1.4899846245,
				"y": 0.9271035802,
				"z": -0.6787246169,
				"element": "C" 
			},
			{
				"x": -1.5220071983,
				"y": -0.2708053774,
				"z": -0.0522811366,
				"element": "C" 
			},
			{
				"x": -0.3266655702,
				"y": -1.1165891274,
				"z": 0.0318295901,
				"element": "C" 
			},
			{
				"x": -0.3183893329,
				"y": -2.2099997989,
				"z": 0.5922961596,
				"element": "O" 
			},
			{
				"x": 0.8636737518,
				"y": -0.5284398219,
				"z": -0.6214211688,
				"element": "C" 
			},
			{
				"x": 0.7782184905,
				"y": 0.7265626525,
				"z": -1.2427895638,
				"element": "C" 
			},
			{
				"x": -0.3891275415,
				"y": 1.445891818,
				"z": -1.2698543431,
				"element": "O" 
			},
			{
				"x": 1.8838620475,
				"y": 1.3112504955,
				"z": -1.869376267,
				"element": "C" 
			},
			{
				"x": 3.0898759188,
				"y": 0.6237184668,
				"z": -1.8701194004,
				"element": "C" 
			},
			{
				"x": 3.2004484718,
				"y": -0.6354091142,
				"z": -1.2540009796,
				"element": "C" 
			},
			{
				"x": 2.096473545,
				"y": -1.2026947653,
				"z": -0.6368675213,
				"element": "C" 
			},
			{
				"x": -4.463631974,
				"y": 2.0170063344,
				"z": -0.3652681696,
				"element": "H" 
			},
			{
				"x": -2.4416819099,
				"y": -0.6202288149,
				"z": 0.3982205944,
				"element": "H" 
			},
			{
				"x": 1.7734096212,
				"y": 2.2832379596,
				"z": -2.3375840412,
				"element": "H" 
			},
			{
				"x": 3.9551925097,
				"y": 1.0673670447,
				"z": -2.353340197,
				"element": "H" 
			},
			{
				"x": 4.1507517535,
				"y": -1.1598411596,
				"z": -1.2634983516,
				"element": "H" 
			},
			{
				"x": 2.1425826383,
				"y": -2.1719142448,
				"z": -0.1511292606,
				"element": "H" 
			}
		],
		 "valence_orbital": [ 
			{
				"type": "occ",
				"energy": -0.30197,
				"method": "rhf"
			},
			{
				"type": "occ",
				"energy": -0.29073,
				"method": "rhf"
			},
			{
				"type": "occ",
				"energy": -0.27112,
				"method": "rhf"
			},
			{
				"type": "occ",
				"energy": -0.25099,
				"method": "rhf"
			},
			{
				"type": "occ",
				"energy": -0.24875,
				"method": "rhf"
			},
			{
				"type": "unocc",
				"energy": -0.08586,
				"method": "rhf"
			},
			{
				"type": "unocc",
				"energy": -0.04112,
				"method": "rhf"
			},
			{
				"type": "unocc",
				"energy": -0.01291,
				"method": "rhf"
			},
			{
				"type": "unocc",
				"energy": 0.03876,
				"method": "rhf"
			},
			{
				"type": "unocc",
				"energy": 0.06085,
				"method": "rhf"
			}
		],
		"cosmo_sigma_profile": { 
			"-0.025": 0.0,
			"-0.024": 0.0,
			"-0.023": 0.0,
			"-0.022": 0.0,
			"-0.021": 0.0,
			"-0.02": 0.111930055347,
			"-0.019": 0.816453756661,
			"-0.018": 0.9254951824,
			"-0.017": 1.28889049901,
			"-0.016": 0.976108557491,
			"-0.015": 0.128558202727,
			"-0.014": 0.44321784449,
			"-0.013": 0.94624494629,
			"-0.012": 1.08107121789,
			"-0.011": 0.77354448173,
			"-0.01": 0.388735149665,
			"-0.009": 0.763567454697,
			"-0.008": 3.05305991296,
			"-0.007": 7.94970135978,
			"-0.006": 12.4188896153,
			"-0.005": 13.8808150475,
			"-0.004": 13.9025182564,
			"-0.003": 12.8467427449,
			"-0.002": 13.353130325,
			"-0.001": 17.1794472782,
			"0.0": 15.6370784889,
			"0.001": 16.3889738396,
			"0.002": 14.3104697973,
			"0.003": 11.0237097995,
			"0.004": 5.49952194193,
			"0.005": 3.9239370319,
			"0.006": 4.63834907864,
			"0.007": 3.58542330843,
			"0.008": 3.42138133972,
			"0.009": 4.12645144527,
			"0.01": 6.4849282119,
			"0.011": 5.88794088091,
			"0.012": 5.50821391513,
			"0.013": 3.58638949598,
			"0.014": 0.534139560416,
			"0.015": 0.0,
			"0.016": 0.0,
			"0.017": 0.0,
			"0.018": 0.0,
			"0.019": 0.0,
			"0.02": 0.0,
			"0.021": 0.0,
			"0.022": 0.0,
			"0.023": 0.0,
			"0.024": 0.0,
			"0.025": 0.0
		}
	}
}
