{
	 "smiles": "CCC1=CC=C(C=C1)C(=O)NN(C(=O)C1=CC(C)=CC(C)=C1)C(C)(C)C", 
	 "Tm": 464.15, 
	 "num_atms": 54, 
	 "gaussian": { 
		 "optdone": 1, 
		 "sigma_profile": "yes", 
		 "theory": "DFT", 
		 "functional": "B3LYP", 
		 "basiset": "6-31G**", 
		 "properties": { 
			 "R2extent": 10529.1828, 
			 "electric_dipole_moment_norm": 6.48319896425, 
			 "electric_quadrupole_moment_norm": 20.9559562492, 
			 "total_energy": -1115.18552814, 
			 "HOMO_LUMO_gap": 0.17963, 
			 "cosmo_polarized_energy": -16.36, 
			 "cosmo_cavitation_energy": 54.56, 
			 "cosmo_dispersion_energy": -34.21, 
			 "cosmo_repulsion_energy": 2.6, 
			 "cosmo_total_nonelectrostatic_energy": 22.95, 
			 "SMD_solvation_energy": 10.73 
		},
		"coords": [
			{
				"x": -0.2799552018,
				"y": -3.8615361599,
				"z": 3.8318600426,
				"element": "C" 
			},
			{
				"x": 0.263712889,
				"y": -4.573162229,
				"z": 2.5793893005,
				"element": "C" 
			},
			{
				"x": 0.0235152875,
				"y": -3.7881607117,
				"z": 1.3078690396,
				"element": "C" 
			},
			{
				"x": -1.1512510375,
				"y": -3.9635744259,
				"z": 0.5623291017,
				"element": "C" 
			},
			{
				"x": -1.3849258737,
				"y": -3.224044724,
				"z": -0.5937158901,
				"element": "C" 
			},
			{
				"x": -0.4639559878,
				"y": -2.2574921863,
				"z": -1.0190501191,
				"element": "C" 
			},
			{
				"x": 0.7195194328,
				"y": -2.0862391581,
				"z": -0.2902738842,
				"element": "C" 
			},
			{
				"x": 0.9585338298,
				"y": -2.8483831064,
				"z": 0.8528438447,
				"element": "C" 
			},
			{
				"x": -0.7399596655,
				"y": -1.5654288017,
				"z": -2.3207494299,
				"element": "C" 
			},
			{
				"x": -1.2065042337,
				"y": -2.176270275,
				"z": -3.2764322738,
				"element": "O" 
			},
			{
				"x": -0.4786604311,
				"y": -0.218685033,
				"z": -2.4546366808,
				"element": "N" 
			},
			{
				"x": -0.1220095139,
				"y": 0.6735480475,
				"z": -1.4338946115,
				"element": "N" 
			},
			{
				"x": 1.1419681691,
				"y": 1.280747913,
				"z": -1.7427642934,
				"element": "C" 
			},
			{
				"x": 1.5722197692,
				"y": 1.2783347577,
				"z": -2.8859642072,
				"element": "O" 
			},
			{
				"x": 1.9669816816,
				"y": 1.8051423402,
				"z": -0.6131429733,
				"element": "C" 
			},
			{
				"x": 2.9188320352,
				"y": 2.7922692371,
				"z": -0.9021548452,
				"element": "C" 
			},
			{
				"x": 3.7811978383,
				"y": 3.2656634807,
				"z": 0.0891180279,
				"element": "C" 
			},
			{
				"x": 4.7807520128,
				"y": 4.3594525841,
				"z": -0.207115478,
				"element": "C" 
			},
			{
				"x": 3.6918233423,
				"y": 2.7058536525,
				"z": 1.3713505265,
				"element": "C" 
			},
			{
				"x": 2.7667305776,
				"y": 1.7014386818,
				"z": 1.6815829657,
				"element": "C" 
			},
			{
				"x": 2.69899007,
				"y": 1.1190420728,
				"z": 3.0747776455,
				"element": "C" 
			},
			{
				"x": 1.9014521337,
				"y": 1.2586810161,
				"z": 0.6756817146,
				"element": "C" 
			},
			{
				"x": -1.3029116853,
				"y": 1.5752685499,
				"z": -1.055493979,
				"element": "C" 
			},
			{
				"x": -1.7934764805,
				"y": 2.3343324259,
				"z": -2.3059438051,
				"element": "C" 
			},
			{
				"x": -0.9242502507,
				"y": 2.5999031386,
				"z": 0.0244619615,
				"element": "C" 
			},
			{
				"x": -2.4193302002,
				"y": 0.675126442,
				"z": -0.5052962669,
				"element": "C" 
			},
			{
				"x": 0.1945947158,
				"y": -2.8835857862,
				"z": 3.9642404589,
				"element": "H" 
			},
			{
				"x": -0.0915413666,
				"y": -4.4549668987,
				"z": 4.7326401119,
				"element": "H" 
			},
			{
				"x": -1.359553972,
				"y": -3.6977416011,
				"z": 3.7524646683,
				"element": "H" 
			},
			{
				"x": 1.3389348347,
				"y": -4.7492022428,
				"z": 2.7029778495,
				"element": "H" 
			},
			{
				"x": -0.2062851833,
				"y": -5.5600165553,
				"z": 2.493629849,
				"element": "H" 
			},
			{
				"x": -1.8823456286,
				"y": -4.7018080611,
				"z": 0.8835210066,
				"element": "H" 
			},
			{
				"x": -2.27674973,
				"y": -3.3928370349,
				"z": -1.1885705115,
				"element": "H" 
			},
			{
				"x": 1.4709788804,
				"y": -1.3839206562,
				"z": -0.6313956415,
				"element": "H" 
			},
			{
				"x": 1.8937555433,
				"y": -2.7204655553,
				"z": 1.3933398262,
				"element": "H" 
			},
			{
				"x": -0.496706959,
				"y": 0.1314890657,
				"z": -3.4060616159,
				"element": "H" 
			},
			{
				"x": 2.9799290655,
				"y": 3.1740777391,
				"z": -1.9165142846,
				"element": "H" 
			},
			{
				"x": 5.722382877,
				"y": 4.1961001598,
				"z": 0.3263078865,
				"element": "H" 
			},
			{
				"x": 4.3983161087,
				"y": 5.3397748752,
				"z": 0.103409593,
				"element": "H" 
			},
			{
				"x": 5.001807948,
				"y": 4.4180982364,
				"z": -1.2763635242,
				"element": "H" 
			},
			{
				"x": 4.3715345793,
				"y": 3.0546048236,
				"z": 2.1469335342,
				"element": "H" 
			},
			{
				"x": 2.1570832794,
				"y": 0.1691989839,
				"z": 3.0835864646,
				"element": "H" 
			},
			{
				"x": 3.6988243278,
				"y": 0.943218151,
				"z": 3.4845544117,
				"element": "H" 
			},
			{
				"x": 2.1827374475,
				"y": 1.7985512972,
				"z": 3.7641464302,
				"element": "H" 
			},
			{
				"x": 1.1897135589,
				"y": 0.4667174078,
				"z": 0.8824728989,
				"element": "H" 
			},
			{
				"x": -2.622850814,
				"y": 2.9954019823,
				"z": -2.036280904,
				"element": "H" 
			},
			{
				"x": -2.1584726329,
				"y": 1.6513530269,
				"z": -3.0773087207,
				"element": "H" 
			},
			{
				"x": -0.9965933781,
				"y": 2.9506512266,
				"z": -2.7349159753,
				"element": "H" 
			},
			{
				"x": -1.8233453561,
				"y": 3.1729101425,
				"z": 0.2707366819,
				"element": "H" 
			},
			{
				"x": -0.1633906343,
				"y": 3.3081504973,
				"z": -0.3101569247,
				"element": "H" 
			},
			{
				"x": -0.569717112,
				"y": 2.1213217301,
				"z": 0.9387953246,
				"element": "H" 
			},
			{
				"x": -2.0699422572,
				"y": 0.1068916699,
				"z": 0.3609357477,
				"element": "H" 
			},
			{
				"x": -2.7818212852,
				"y": -0.0278781485,
				"z": -1.2580535497,
				"element": "H" 
			},
			{
				"x": -3.2660153643,
				"y": 1.2950839959,
				"z": -0.1941065248,
				"element": "H" 
			}
		],
		 "valence_orbital": [ 
			{
				"type": "occ",
				"energy": -0.2526,
				"method": "rhf"
			},
			{
				"type": "occ",
				"energy": -0.25055,
				"method": "rhf"
			},
			{
				"type": "occ",
				"energy": -0.2468,
				"method": "rhf"
			},
			{
				"type": "occ",
				"energy": -0.24445,
				"method": "rhf"
			},
			{
				"type": "occ",
				"energy": -0.23196,
				"method": "rhf"
			},
			{
				"type": "unocc",
				"energy": -0.05233,
				"method": "rhf"
			},
			{
				"type": "unocc",
				"energy": -0.02444,
				"method": "rhf"
			},
			{
				"type": "unocc",
				"energy": -0.00854,
				"method": "rhf"
			},
			{
				"type": "unocc",
				"energy": -0.00186,
				"method": "rhf"
			},
			{
				"type": "unocc",
				"energy": 0.0279,
				"method": "rhf"
			}
		],
		"cosmo_sigma_profile": { 
			"-0.025": 0.0,
			"-0.024": 0.0,
			"-0.023": 0.0,
			"-0.022": 0.0,
			"-0.021": 0.0,
			"-0.02": 0.0,
			"-0.019": 0.0,
			"-0.018": 0.0,
			"-0.017": 0.0,
			"-0.016": 0.0,
			"-0.015": 0.0,
			"-0.014": 0.0,
			"-0.013": 0.0,
			"-0.012": 0.19577258744,
			"-0.011": 0.490376971849,
			"-0.01": 0.854028274162,
			"-0.009": 0.611161069047,
			"-0.008": 0.819950730033,
			"-0.007": 1.05923330711,
			"-0.006": 3.7027246244,
			"-0.005": 18.8965799618,
			"-0.004": 42.7601186608,
			"-0.003": 50.9471915306,
			"-0.002": 54.549197223,
			"-0.001": 54.8974236118,
			"0.0": 56.2437323065,
			"0.001": 38.2706779317,
			"0.002": 18.7273234991,
			"0.003": 18.1168153063,
			"0.004": 19.1028856697,
			"0.005": 12.2741108147,
			"0.006": 3.47069692423,
			"0.007": 3.46844235077,
			"0.008": 2.83716989093,
			"0.009": 2.67395918188,
			"0.01": 3.75916531898,
			"0.011": 4.76309517069,
			"0.012": 5.07069906081,
			"0.013": 5.25470944055,
			"0.014": 3.8155059608,
			"0.015": 0.279934563113,
			"0.016": 0.0,
			"0.017": 0.0,
			"0.018": 0.0,
			"0.019": 0.0,
			"0.02": 0.0,
			"0.021": 0.0,
			"0.022": 0.0,
			"0.023": 0.0,
			"0.024": 0.0,
			"0.025": 0.0
		}
	}
}
