{
	 "smiles": "CCOC(=O)C1=CC(I)=C(N)C(I)=C1", 
	 "Tm": 419.15, 
	 "num_atms": 23, 
	 "gaussian": { 
		 "optdone": 1, 
		 "sigma_profile": "yes", 
		 "theory": "DFT", 
		 "functional": "B3LYP", 
		 "basiset": "6-31G**", 
		 "properties": { 
			 "R2extent": 3927.6183, 
			 "electric_dipole_moment_norm": 2.14208264313, 
			 "electric_quadrupole_moment_norm": 14.1184297353, 
			 "total_energy": -576.377710014, 
			 "HOMO_LUMO_gap": 0.16198, 
			 "cosmo_polarized_energy": -9.94, 
			 "cosmo_cavitation_energy": 33.31, 
			 "cosmo_dispersion_energy": -27.06, 
			 "cosmo_repulsion_energy": 2.1, 
			 "cosmo_total_nonelectrostatic_energy": 8.34, 
			 "SMD_solvation_energy": 4.93 
		},
		"coords": [
			{
				"x": -2.9279243513,
				"y": -2.7351968958,
				"z": -2.2272376356,
				"element": "C" 
			},
			{
				"x": -1.4903133953,
				"y": -2.6928550185,
				"z": -2.7229146182,
				"element": "C" 
			},
			{
				"x": -0.7890921543,
				"y": -1.535667956,
				"z": -2.2083871059,
				"element": "O" 
			},
			{
				"x": -0.2304255036,
				"y": -1.664782327,
				"z": -0.9825006124,
				"element": "C" 
			},
			{
				"x": -0.2840085786,
				"y": -2.6837458456,
				"z": -0.3184065536,
				"element": "O" 
			},
			{
				"x": 0.4575655411,
				"y": -0.423556938,
				"z": -0.5458622896,
				"element": "C" 
			},
			{
				"x": 1.085137911,
				"y": -0.4233380093,
				"z": 0.7060766153,
				"element": "C" 
			},
			{
				"x": 1.7408505506,
				"y": 0.708147873,
				"z": 1.1601929434,
				"element": "C" 
			},
			{
				"x": 2.6630450289,
				"y": 0.6262562777,
				"z": 3.075544191,
				"element": "I" 
			},
			{
				"x": 1.8102979888,
				"y": 1.9032468606,
				"z": 0.3949545972,
				"element": "C" 
			},
			{
				"x": 2.4898661345,
				"y": 3.0030756105,
				"z": 0.8281677267,
				"element": "N" 
			},
			{
				"x": 1.1583189616,
				"y": 1.8651759873,
				"z": -0.8659939834,
				"element": "C" 
			},
			{
				"x": 1.1714843834,
				"y": 3.5897892729,
				"z": -2.1129678071,
				"element": "I" 
			},
			{
				"x": 0.4997874361,
				"y": 0.7365495312,
				"z": -1.3291350931,
				"element": "C" 
			},
			{
				"x": -2.9559217067,
				"y": -2.8696925036,
				"z": -1.1433059016,
				"element": "H" 
			},
			{
				"x": -3.45553724,
				"y": -3.5751717333,
				"z": -2.6913622322,
				"element": "H" 
			},
			{
				"x": -3.4568906418,
				"y": -1.8128536166,
				"z": -2.4848621482,
				"element": "H" 
			},
			{
				"x": -1.4432311398,
				"y": -2.5766222033,
				"z": -3.8083343898,
				"element": "H" 
			},
			{
				"x": -0.9451730039,
				"y": -3.5927756247,
				"z": -2.429069147,
				"element": "H" 
			},
			{
				"x": 1.0426486667,
				"y": -1.3256393679,
				"z": 1.3041147534,
				"element": "H" 
			},
			{
				"x": 2.3513628438,
				"y": 3.8785673319,
				"z": 0.3473142375,
				"element": "H" 
			},
			{
				"x": 2.7691117068,
				"y": 3.0480805579,
				"z": 1.7961856015,
				"element": "H" 
			},
			{
				"x": 0.013440562,
				"y": 0.7442087366,
				"z": -2.2958111481,
				"element": "H" 
			}
		],
		 "valence_orbital": [ 
			{
				"type": "occ",
				"energy": -0.28388,
				"method": "rhf"
			},
			{
				"type": "occ",
				"energy": -0.27939,
				"method": "rhf"
			},
			{
				"type": "occ",
				"energy": -0.27372,
				"method": "rhf"
			},
			{
				"type": "occ",
				"energy": -0.24753,
				"method": "rhf"
			},
			{
				"type": "occ",
				"energy": -0.22469,
				"method": "rhf"
			},
			{
				"type": "unocc",
				"energy": -0.06271,
				"method": "rhf"
			},
			{
				"type": "unocc",
				"energy": -0.04395,
				"method": "rhf"
			},
			{
				"type": "unocc",
				"energy": -0.03194,
				"method": "rhf"
			},
			{
				"type": "unocc",
				"energy": -0.02864,
				"method": "rhf"
			},
			{
				"type": "unocc",
				"energy": 0.02665,
				"method": "rhf"
			}
		],
		"cosmo_sigma_profile": { 
			"-0.025": 0.0,
			"-0.024": 0.0,
			"-0.023": 0.0,
			"-0.022": 0.0,
			"-0.021": 0.0,
			"-0.02": 0.0,
			"-0.019": 0.0,
			"-0.018": 0.0,
			"-0.017": 0.0,
			"-0.016": 0.0,
			"-0.015": 0.0,
			"-0.014": 0.0,
			"-0.013": 0.693193872037,
			"-0.012": 1.46099457044,
			"-0.011": 2.36991321868,
			"-0.01": 1.53683084711,
			"-0.009": 2.06472046389,
			"-0.008": 2.19757505767,
			"-0.007": 4.3216897477,
			"-0.006": 7.98995281745,
			"-0.005": 11.0207846051,
			"-0.004": 18.4204201807,
			"-0.003": 19.4826302357,
			"-0.002": 22.510039582,
			"-0.001": 21.1998923454,
			"0.0": 30.8825617908,
			"0.001": 31.8952646281,
			"0.002": 32.763744587,
			"0.003": 22.1050233195,
			"0.004": 19.4973529372,
			"0.005": 5.98685485529,
			"0.006": 3.01645977896,
			"0.007": 1.82412495194,
			"0.008": 2.5299879485,
			"0.009": 1.40860198409,
			"0.01": 1.67633623082,
			"0.011": 2.22157234889,
			"0.012": 4.01459443004,
			"0.013": 0.584263672109,
			"0.014": 0.0,
			"0.015": 0.0,
			"0.016": 0.0,
			"0.017": 0.0,
			"0.018": 0.0,
			"0.019": 0.0,
			"0.02": 0.0,
			"0.021": 0.0,
			"0.022": 0.0,
			"0.023": 0.0,
			"0.024": 0.0,
			"0.025": 0.0
		}
	}
}
