{
	 "smiles": "COC1=CC=C(NC(=O)CN2C=C(N)C=N2)C=C1", 
	 "Tm": 425.15, 
	 "num_atms": 32, 
	 "gaussian": { 
		 "optdone": 1, 
		 "sigma_profile": "yes", 
		 "theory": "DFT", 
		 "functional": "B3LYP", 
		 "basiset": "6-31G**", 
		 "properties": { 
			 "R2extent": 7345.5873, 
			 "electric_dipole_moment_norm": 4.31285044837, 
			 "electric_quadrupole_moment_norm": 18.8403624387, 
			 "total_energy": -835.144340133, 
			 "HOMO_LUMO_gap": 0.19228, 
			 "cosmo_polarized_energy": -18.79, 
			 "cosmo_cavitation_energy": 36.61, 
			 "cosmo_dispersion_energy": -26.44, 
			 "cosmo_repulsion_energy": 2.04, 
			 "cosmo_total_nonelectrostatic_energy": 12.22, 
			 "SMD_solvation_energy": 7.11 
		},
		"coords": [
			{
				"x": -4.8782264289,
				"y": 0.4177662733,
				"z": 1.5973695462,
				"element": "C" 
			},
			{
				"x": -4.3661044564,
				"y": -0.7440981464,
				"z": 0.9693759162,
				"element": "O" 
			},
			{
				"x": -3.088945122,
				"y": -0.7014907832,
				"z": 0.4808251187,
				"element": "C" 
			},
			{
				"x": -2.6272144597,
				"y": -1.8731791959,
				"z": -0.1340380626,
				"element": "C" 
			},
			{
				"x": -1.3472657582,
				"y": -1.948788672,
				"z": -0.6683433595,
				"element": "C" 
			},
			{
				"x": -0.4922782916,
				"y": -0.8348134412,
				"z": -0.5939770316,
				"element": "C" 
			},
			{
				"x": 0.8230342104,
				"y": -0.825574773,
				"z": -1.1106344484,
				"element": "N" 
			},
			{
				"x": 1.4939771723,
				"y": -1.8315782215,
				"z": -1.73687031,
				"element": "C" 
			},
			{
				"x": 1.0601639093,
				"y": -2.949887964,
				"z": -1.989192621,
				"element": "O" 
			},
			{
				"x": 2.9125809861,
				"y": -1.4505637793,
				"z": -2.2149787225,
				"element": "C" 
			},
			{
				"x": 3.6676141842,
				"y": -0.5745505556,
				"z": -1.336488864,
				"element": "N" 
			},
			{
				"x": 4.7302194908,
				"y": -0.9034710478,
				"z": -0.5416269636,
				"element": "C" 
			},
			{
				"x": 5.0757304089,
				"y": 0.2418893836,
				"z": 0.1618635852,
				"element": "C" 
			},
			{
				"x": 6.1555555886,
				"y": 0.430931701,
				"z": 1.0380618676,
				"element": "N" 
			},
			{
				"x": 4.143177287,
				"y": 1.2111451039,
				"z": -0.2755194103,
				"element": "C" 
			},
			{
				"x": 3.295861535,
				"y": 0.7100782105,
				"z": -1.1815727986,
				"element": "N" 
			},
			{
				"x": -0.9548777988,
				"y": 0.3336381424,
				"z": 0.0210109974,
				"element": "C" 
			},
			{
				"x": -2.2416374119,
				"y": 0.4090163639,
				"z": 0.5559438371,
				"element": "C" 
			},
			{
				"x": -4.9095174828,
				"y": 1.2728707177,
				"z": 0.9088635389,
				"element": "H" 
			},
			{
				"x": -4.2901794491,
				"y": 0.6953420003,
				"z": 2.4825092862,
				"element": "H" 
			},
			{
				"x": -5.8952514716,
				"y": 0.1717938554,
				"z": 1.9074104184,
				"element": "H" 
			},
			{
				"x": -3.2960824675,
				"y": -2.7262451758,
				"z": -0.1856822905,
				"element": "H" 
			},
			{
				"x": -0.9976821653,
				"y": -2.8545612371,
				"z": -1.143544351,
				"element": "H" 
			},
			{
				"x": 1.342993292,
				"y": 0.0448495663,
				"z": -1.013255949,
				"element": "H" 
			},
			{
				"x": 3.461764407,
				"y": -2.3842118687,
				"z": -2.3342475112,
				"element": "H" 
			},
			{
				"x": 2.83008052,
				"y": -0.9730553032,
				"z": -3.1976300889,
				"element": "H" 
			},
			{
				"x": 5.1597666143,
				"y": -1.8941704155,
				"z": -0.5498244513,
				"element": "H" 
			},
			{
				"x": 6.4367461043,
				"y": -0.4171467465,
				"z": 1.5144233758,
				"element": "H" 
			},
			{
				"x": 5.9822353105,
				"y": 1.1585125293,
				"z": 1.720642104,
				"element": "H" 
			},
			{
				"x": 4.0648289703,
				"y": 2.2483179466,
				"z": 0.0229100255,
				"element": "H" 
			},
			{
				"x": -0.3030643597,
				"y": 1.2016399313,
				"z": 0.0849298857,
				"element": "H" 
			},
			{
				"x": -2.5642028675,
				"y": 1.331795601,
				"z": 1.023187731,
				"element": "H" 
			}
		],
		 "valence_orbital": [ 
			{
				"type": "occ",
				"energy": -0.26628,
				"method": "rhf"
			},
			{
				"type": "occ",
				"energy": -0.24642,
				"method": "rhf"
			},
			{
				"type": "occ",
				"energy": -0.24561,
				"method": "rhf"
			},
			{
				"type": "occ",
				"energy": -0.20512,
				"method": "rhf"
			},
			{
				"type": "occ",
				"energy": -0.19569,
				"method": "rhf"
			},
			{
				"type": "unocc",
				"energy": -0.00341,
				"method": "rhf"
			},
			{
				"type": "unocc",
				"energy": 0.00303,
				"method": "rhf"
			},
			{
				"type": "unocc",
				"energy": 0.00802,
				"method": "rhf"
			},
			{
				"type": "unocc",
				"energy": 0.0537,
				"method": "rhf"
			},
			{
				"type": "unocc",
				"energy": 0.06456,
				"method": "rhf"
			}
		],
		"cosmo_sigma_profile": { 
			"-0.025": 0.0,
			"-0.024": 0.0,
			"-0.023": 0.0,
			"-0.022": 0.0,
			"-0.021": 0.0,
			"-0.02": 0.0,
			"-0.019": 0.0,
			"-0.018": 0.0,
			"-0.017": 0.0,
			"-0.016": 0.0,
			"-0.015": 0.0,
			"-0.014": 0.0,
			"-0.013": 0.0196992678665,
			"-0.012": 1.8976064777,
			"-0.011": 3.32872288275,
			"-0.01": 2.6857511657,
			"-0.009": 6.30599824826,
			"-0.008": 11.0556730029,
			"-0.007": 11.949556109,
			"-0.006": 16.3683652303,
			"-0.005": 21.9578197601,
			"-0.004": 20.6282186988,
			"-0.003": 21.0255367299,
			"-0.002": 14.6389056019,
			"-0.001": 13.8148738378,
			"0.0": 12.6793096221,
			"0.001": 13.2540849827,
			"0.002": 15.2872973123,
			"0.003": 18.7350608551,
			"0.004": 21.2191357922,
			"0.005": 20.1548839667,
			"0.006": 8.90030278738,
			"0.007": 6.44364655831,
			"0.008": 3.82631945763,
			"0.009": 3.89166524401,
			"0.01": 5.75737477463,
			"0.011": 4.22478912403,
			"0.012": 3.63915217221,
			"0.013": 4.65145241393,
			"0.014": 1.94797089283,
			"0.015": 0.633438244345,
			"0.016": 0.553422453402,
			"0.017": 0.143458800144,
			"0.018": 0.0,
			"0.019": 0.0,
			"0.02": 0.0,
			"0.021": 0.0,
			"0.022": 0.0,
			"0.023": 0.0,
			"0.024": 0.0,
			"0.025": 0.0
		}
	}
}
