{
	 "smiles": "COC(=O)COC1=CC=C(Cl)C=C1Cl", 
	 "Tm": 392.15, 
	 "num_atms": 22, 
	 "gaussian": { 
		 "optdone": 1, 
		 "sigma_profile": "yes", 
		 "theory": "DFT", 
		 "functional": "B3LYP", 
		 "basiset": "6-31G**", 
		 "properties": { 
			 "R2extent": 5672.0203, 
			 "electric_dipole_moment_norm": 2.32908387569, 
			 "electric_quadrupole_moment_norm": 7.19799361142, 
			 "total_energy": -1493.81872984, 
			 "HOMO_LUMO_gap": 0.21678, 
			 "cosmo_polarized_energy": -9.64, 
			 "cosmo_cavitation_energy": 30.56, 
			 "cosmo_dispersion_energy": -21.95, 
			 "cosmo_repulsion_energy": 1.76, 
			 "cosmo_total_nonelectrostatic_energy": 10.37, 
			 "SMD_solvation_energy": 6.6 
		},
		"coords": [
			{
				"x": -1.0593424368,
				"y": -2.6349734835,
				"z": 0.36977064,
				"element": "C" 
			},
			{
				"x": -0.8528672602,
				"y": -1.2739633087,
				"z": 0.7950817319,
				"element": "O" 
			},
			{
				"x": -0.3734319728,
				"y": -1.1377124496,
				"z": 2.0426919568,
				"element": "C" 
			},
			{
				"x": -0.1249617363,
				"y": -2.0599949078,
				"z": 2.7874651908,
				"element": "O" 
			},
			{
				"x": -0.2019039913,
				"y": 0.314885786,
				"z": 2.4807821539,
				"element": "C" 
			},
			{
				"x": -0.3755406735,
				"y": 1.2951008966,
				"z": 1.4657119364,
				"element": "O" 
			},
			{
				"x": 0.7204723719,
				"y": 1.5976946326,
				"z": 0.6958677573,
				"element": "C" 
			},
			{
				"x": 0.7918730286,
				"y": 1.1217423478,
				"z": -0.6162863523,
				"element": "C" 
			},
			{
				"x": 1.8502224311,
				"y": 1.4705665259,
				"z": -1.4519162794,
				"element": "C" 
			},
			{
				"x": 2.8534088937,
				"y": 2.3058131542,
				"z": -0.9619094202,
				"element": "C" 
			},
			{
				"x": 4.1982561853,
				"y": 2.7509856968,
				"z": -1.9985950232,
				"element": "Cl" 
			},
			{
				"x": 2.8070194184,
				"y": 2.8040836669,
				"z": 0.3386950106,
				"element": "C" 
			},
			{
				"x": 1.7359301769,
				"y": 2.4504575386,
				"z": 1.1589246987,
				"element": "C" 
			},
			{
				"x": 1.6565807072,
				"y": 3.1159032885,
				"z": 2.7775712719,
				"element": "Cl" 
			},
			{
				"x": -0.1171690351,
				"y": -3.1878139463,
				"z": 0.385203735,
				"element": "H" 
			},
			{
				"x": -1.7739285314,
				"y": -3.1351806922,
				"z": 1.0272620383,
				"element": "H" 
			},
			{
				"x": -1.4513193281,
				"y": -2.5688230448,
				"z": -0.6446170201,
				"element": "H" 
			},
			{
				"x": 0.7725643105,
				"y": 0.394884817,
				"z": 2.9725499542,
				"element": "H" 
			},
			{
				"x": -0.9669131064,
				"y": 0.513127327,
				"z": 3.2379836361,
				"element": "H" 
			},
			{
				"x": -0.0035007035,
				"y": 0.4716880471,
				"z": -0.9605933306,
				"element": "H" 
			},
			{
				"x": 1.8985354921,
				"y": 1.0985355517,
				"z": -2.4688755303,
				"element": "H" 
			},
			{
				"x": 3.58201576,
				"y": 3.4637925562,
				"z": 0.709031244,
				"element": "H" 
			}
		],
		 "valence_orbital": [ 
			{
				"type": "occ",
				"energy": -0.31733,
				"method": "rhf"
			},
			{
				"type": "occ",
				"energy": -0.31454,
				"method": "rhf"
			},
			{
				"type": "occ",
				"energy": -0.27688,
				"method": "rhf"
			},
			{
				"type": "occ",
				"energy": -0.26746,
				"method": "rhf"
			},
			{
				"type": "occ",
				"energy": -0.24645,
				"method": "rhf"
			},
			{
				"type": "unocc",
				"energy": -0.02967,
				"method": "rhf"
			},
			{
				"type": "unocc",
				"energy": -0.02396,
				"method": "rhf"
			},
			{
				"type": "unocc",
				"energy": -0.00241,
				"method": "rhf"
			},
			{
				"type": "unocc",
				"energy": 0.00333,
				"method": "rhf"
			},
			{
				"type": "unocc",
				"energy": 0.04493,
				"method": "rhf"
			}
		],
		"cosmo_sigma_profile": { 
			"-0.025": 0.0,
			"-0.024": 0.0,
			"-0.023": 0.0,
			"-0.022": 0.0,
			"-0.021": 0.0,
			"-0.02": 0.0,
			"-0.019": 0.0,
			"-0.018": 0.0,
			"-0.017": 0.0,
			"-0.016": 0.0,
			"-0.015": 0.0,
			"-0.014": 0.0,
			"-0.013": 0.0,
			"-0.012": 0.0,
			"-0.011": 0.0,
			"-0.01": 0.0,
			"-0.009": 1.60279186075,
			"-0.008": 5.61452772589,
			"-0.007": 9.58810438971,
			"-0.006": 14.8304833709,
			"-0.005": 15.5020328537,
			"-0.004": 17.6346001937,
			"-0.003": 15.4614291257,
			"-0.002": 15.3748616702,
			"-0.001": 16.6783345442,
			"0.0": 19.3826141758,
			"0.001": 28.8098016582,
			"0.002": 21.0691690499,
			"0.003": 17.1916842004,
			"0.004": 18.6137789506,
			"0.005": 7.50516521633,
			"0.006": 2.62456982785,
			"0.007": 2.45644199081,
			"0.008": 3.8096126155,
			"0.009": 3.91306090737,
			"0.01": 3.25888414551,
			"0.011": 3.96097291653,
			"0.012": 3.72839626352,
			"0.013": 0.22870764371,
			"0.014": 0.0,
			"0.015": 0.0,
			"0.016": 0.0,
			"0.017": 0.0,
			"0.018": 0.0,
			"0.019": 0.0,
			"0.02": 0.0,
			"0.021": 0.0,
			"0.022": 0.0,
			"0.023": 0.0,
			"0.024": 0.0,
			"0.025": 0.0
		}
	}
}
