{
	 "smiles": "CN1CCC(CC1)NCCO", 
	 "Tm": 311.15, 
	 "num_atms": 29, 
	 "gaussian": { 
		 "optdone": 1, 
		 "sigma_profile": "yes", 
		 "theory": "DFT", 
		 "functional": "B3LYP", 
		 "basiset": "6-31G**", 
		 "properties": { 
			 "R2extent": 2243.0889, 
			 "electric_dipole_moment_norm": 2.83106483677, 
			 "electric_quadrupole_moment_norm": 3.90417208125, 
			 "total_energy": -500.390338504, 
			 "HOMO_LUMO_gap": 0.25563, 
			 "cosmo_polarized_energy": -10.12, 
			 "cosmo_cavitation_energy": 28.25, 
			 "cosmo_dispersion_energy": -20.59, 
			 "cosmo_repulsion_energy": 1.66, 
			 "cosmo_total_nonelectrostatic_energy": 9.33, 
			 "SMD_solvation_energy": 0.04 
		},
		"coords": [
			{
				"x": -1.1216318996,
				"y": 2.8789647466,
				"z": -1.3898495135,
				"element": "C" 
			},
			{
				"x": -0.0510736783,
				"y": 2.7945487135,
				"z": -0.4078382865,
				"element": "N" 
			},
			{
				"x": 1.0390980705,
				"y": 1.860085219,
				"z": -0.7592411448,
				"element": "C" 
			},
			{
				"x": 1.0608201391,
				"y": 0.5608310629,
				"z": 0.0801067345,
				"element": "C" 
			},
			{
				"x": -0.366448893,
				"y": 0.0889794303,
				"z": 0.3925498669,
				"element": "C" 
			},
			{
				"x": -1.0843508769,
				"y": 1.1691446429,
				"z": 1.2356992725,
				"element": "C" 
			},
			{
				"x": -0.5162999366,
				"y": 2.5874961111,
				"z": 0.9587018019,
				"element": "C" 
			},
			{
				"x": -0.3957418686,
				"y": -1.2025435684,
				"z": 1.1014222596,
				"element": "N" 
			},
			{
				"x": -0.6536827969,
				"y": -2.4017837002,
				"z": 0.3103017013,
				"element": "C" 
			},
			{
				"x": 0.5560454574,
				"y": -2.9568028377,
				"z": -0.4442959371,
				"element": "C" 
			},
			{
				"x": 0.9487087076,
				"y": -2.1849744195,
				"z": -1.5747662337,
				"element": "O" 
			},
			{
				"x": -0.7072592329,
				"y": 3.1710942047,
				"z": -2.3604979045,
				"element": "H" 
			},
			{
				"x": -1.6980919351,
				"y": 1.9462921472,
				"z": -1.5425767612,
				"element": "H" 
			},
			{
				"x": -1.8297687566,
				"y": 3.658991856,
				"z": -1.0876281066,
				"element": "H" 
			},
			{
				"x": 0.9386680621,
				"y": 1.6032112108,
				"z": -1.8200152734,
				"element": "H" 
			},
			{
				"x": 2.0066766173,
				"y": 2.3718726538,
				"z": -0.6543504728,
				"element": "H" 
			},
			{
				"x": 1.5865546018,
				"y": 0.7185242236,
				"z": 1.0303008678,
				"element": "H" 
			},
			{
				"x": 1.5999825914,
				"y": -0.2164035605,
				"z": -0.4651091362,
				"element": "H" 
			},
			{
				"x": -0.9002583282,
				"y": -0.0110083848,
				"z": -0.5700234856,
				"element": "H" 
			},
			{
				"x": -2.1639640107,
				"y": 1.131602027,
				"z": 1.0466776128,
				"element": "H" 
			},
			{
				"x": -0.9404354458,
				"y": 0.9407085429,
				"z": 2.3010805291,
				"element": "H" 
			},
			{
				"x": -1.2642468199,
				"y": 3.3516410745,
				"z": 1.1984051995,
				"element": "H" 
			},
			{
				"x": 0.3340153955,
				"y": 2.7690237698,
				"z": 1.6274765824,
				"element": "H" 
			},
			{
				"x": -1.0947455632,
				"y": -1.1537730003,
				"z": 1.8352286501,
				"element": "H" 
			},
			{
				"x": -0.9851505927,
				"y": -3.1849037474,
				"z": 1.0039931334,
				"element": "H" 
			},
			{
				"x": -1.4783482632,
				"y": -2.2646401966,
				"z": -0.4218501146,
				"element": "H" 
			},
			{
				"x": 0.3363094614,
				"y": -3.9949460414,
				"z": -0.7436456097,
				"element": "H" 
			},
			{
				"x": 1.4214049576,
				"y": -2.9732048469,
				"z": 0.2242905157,
				"element": "H" 
			},
			{
				"x": 0.1928148368,
				"y": -2.1379273328,
				"z": -2.1749467474,
				"element": "H" 
			}
		],
		 "valence_orbital": [ 
			{
				"type": "occ",
				"energy": -0.3094,
				"method": "rhf"
			},
			{
				"type": "occ",
				"energy": -0.30203,
				"method": "rhf"
			},
			{
				"type": "occ",
				"energy": -0.26913,
				"method": "rhf"
			},
			{
				"type": "occ",
				"energy": -0.21665,
				"method": "rhf"
			},
			{
				"type": "occ",
				"energy": -0.19016,
				"method": "rhf"
			},
			{
				"type": "unocc",
				"energy": 0.06547,
				"method": "rhf"
			},
			{
				"type": "unocc",
				"energy": 0.08806,
				"method": "rhf"
			},
			{
				"type": "unocc",
				"energy": 0.09493,
				"method": "rhf"
			},
			{
				"type": "unocc",
				"energy": 0.10534,
				"method": "rhf"
			},
			{
				"type": "unocc",
				"energy": 0.12864,
				"method": "rhf"
			}
		],
		"cosmo_sigma_profile": { 
			"-0.025": 0.0,
			"-0.024": 0.0,
			"-0.023": 0.0,
			"-0.022": 0.0,
			"-0.021": 0.0,
			"-0.02": 0.0,
			"-0.019": 0.0,
			"-0.018": 0.0,
			"-0.017": 0.0,
			"-0.016": 0.0,
			"-0.015": 0.430718017765,
			"-0.014": 1.01002722375,
			"-0.013": 0.801989617804,
			"-0.012": 0.945061508286,
			"-0.011": 1.06301401439,
			"-0.01": 0.832037319146,
			"-0.009": 1.95955082713,
			"-0.008": 2.20932161069,
			"-0.007": 1.36463917436,
			"-0.006": 2.89910418463,
			"-0.005": 4.28732681818,
			"-0.004": 8.59068783018,
			"-0.003": 24.1703950931,
			"-0.002": 34.78319307,
			"-0.001": 37.5603194389,
			"0.0": 30.4205803256,
			"0.001": 14.9499784219,
			"0.002": 7.79491197465,
			"0.003": 5.32368845926,
			"0.004": 5.08070899513,
			"0.005": 3.75376980807,
			"0.006": 3.21293978143,
			"0.007": 2.96031889204,
			"0.008": 3.20028384708,
			"0.009": 2.12932532927,
			"0.01": 2.63725083698,
			"0.011": 1.53207681487,
			"0.012": 2.44494849918,
			"0.013": 2.55858564756,
			"0.014": 1.90865600015,
			"0.015": 1.80841241636,
			"0.016": 0.791266687054,
			"0.017": 0.846135107171,
			"0.018": 0.113491625925,
			"0.019": 0.0,
			"0.02": 0.0,
			"0.021": 0.0,
			"0.022": 0.0,
			"0.023": 0.0,
			"0.024": 0.0,
			"0.025": 0.0
		}
	}
}
