{
	 "smiles": "[O-][N+](=O)C1=CC=C(C=C1)C(=O)N=C=S", 
	 "Tm": 364.15, 
	 "num_atms": 18, 
	 "gaussian": { 
		 "optdone": 1, 
		 "sigma_profile": "yes", 
		 "theory": "DFT", 
		 "functional": "B3LYP", 
		 "basiset": "6-31G**", 
		 "properties": { 
			 "R2extent": 5870.8489, 
			 "electric_dipole_moment_norm": 2.00677734191, 
			 "electric_quadrupole_moment_norm": 18.5270882467, 
			 "total_energy": -1040.51670027, 
			 "HOMO_LUMO_gap": 0.16639, 
			 "cosmo_polarized_energy": -9.03, 
			 "cosmo_cavitation_energy": 27.72, 
			 "cosmo_dispersion_energy": -20.39, 
			 "cosmo_repulsion_energy": 1.56, 
			 "cosmo_total_nonelectrostatic_energy": 8.9, 
			 "SMD_solvation_energy": 8.19 
		},
		"coords": [
			{
				"x": -3.5335940433,
				"y": 2.0359403584,
				"z": -1.6515077109,
				"element": "O" 
			},
			{
				"x": -3.1442035624,
				"y": 2.3581876262,
				"z": -0.5311501963,
				"element": "N" 
			},
			{
				"x": -3.4944942491,
				"y": 3.368652711,
				"z": 0.074909399,
				"element": "O" 
			},
			{
				"x": -2.1802845305,
				"y": 1.4615511288,
				"z": 0.1386654535,
				"element": "C" 
			},
			{
				"x": -1.7216862788,
				"y": 1.8014014792,
				"z": 1.4094354403,
				"element": "C" 
			},
			{
				"x": -0.8135285,
				"y": 0.953639772,
				"z": 2.0369106669,
				"element": "C" 
			},
			{
				"x": -0.3791320851,
				"y": -0.2128452851,
				"z": 1.3917399858,
				"element": "C" 
			},
			{
				"x": -0.8572319898,
				"y": -0.5314546471,
				"z": 0.1111718444,
				"element": "C" 
			},
			{
				"x": -1.764118268,
				"y": 0.3075244059,
				"z": -0.5248255512,
				"element": "C" 
			},
			{
				"x": 0.5905341982,
				"y": -1.1494645565,
				"z": 2.0227802431,
				"element": "C" 
			},
			{
				"x": 0.9910004131,
				"y": -2.167200689,
				"z": 1.4997654732,
				"element": "O" 
			},
			{
				"x": 1.0198436879,
				"y": -0.7498449882,
				"z": 3.3140714779,
				"element": "N" 
			},
			{
				"x": 1.7691760261,
				"y": -1.1793224225,
				"z": 4.1680630584,
				"element": "C" 
			},
			{
				"x": 2.7052659769,
				"y": -1.6281691655,
				"z": 5.3439200551,
				"element": "S" 
			},
			{
				"x": -2.0768049129,
				"y": 2.70928741,
				"z": 1.8800255598,
				"element": "H" 
			},
			{
				"x": -0.4388582349,
				"y": 1.1917814412,
				"z": 3.0260479405,
				"element": "H" 
			},
			{
				"x": -0.5062534702,
				"y": -1.4390959126,
				"z": -0.3668391726,
				"element": "H" 
			},
			{
				"x": -2.1516301772,
				"y": 0.0901313336,
				"z": -1.5119839669,
				"element": "H" 
			}
		],
		 "valence_orbital": [ 
			{
				"type": "occ",
				"energy": -0.30525,
				"method": "rhf"
			},
			{
				"type": "occ",
				"energy": -0.30262,
				"method": "rhf"
			},
			{
				"type": "occ",
				"energy": -0.29652,
				"method": "rhf"
			},
			{
				"type": "occ",
				"energy": -0.2879,
				"method": "rhf"
			},
			{
				"type": "occ",
				"energy": -0.28666,
				"method": "rhf"
			},
			{
				"type": "unocc",
				"energy": -0.12027,
				"method": "rhf"
			},
			{
				"type": "unocc",
				"energy": -0.07656,
				"method": "rhf"
			},
			{
				"type": "unocc",
				"energy": -0.06081,
				"method": "rhf"
			},
			{
				"type": "unocc",
				"energy": -0.0449,
				"method": "rhf"
			},
			{
				"type": "unocc",
				"energy": -0.01769,
				"method": "rhf"
			}
		],
		"cosmo_sigma_profile": { 
			"-0.025": 0.0,
			"-0.024": 0.0,
			"-0.023": 0.0,
			"-0.022": 0.0,
			"-0.021": 0.0,
			"-0.02": 0.0,
			"-0.019": 0.0,
			"-0.018": 0.0,
			"-0.017": 0.0,
			"-0.016": 0.0,
			"-0.015": 0.0,
			"-0.014": 0.0,
			"-0.013": 0.0,
			"-0.012": 0.0,
			"-0.011": 0.0,
			"-0.01": 0.0,
			"-0.009": 0.580169587678,
			"-0.008": 5.32296761285,
			"-0.007": 8.66096145144,
			"-0.006": 7.75843312455,
			"-0.005": 9.31605311236,
			"-0.004": 14.3163025185,
			"-0.003": 17.927116327,
			"-0.002": 24.2684181042,
			"-0.001": 30.6166469932,
			"0.0": 25.4339375128,
			"0.001": 15.1825062871,
			"0.002": 18.8570251834,
			"0.003": 5.76133480792,
			"0.004": 3.36793213348,
			"0.005": 5.17130480497,
			"0.006": 5.77159224117,
			"0.007": 11.6466323763,
			"0.008": 6.77054393802,
			"0.009": 7.41820176726,
			"0.01": 4.24047037192,
			"0.011": 0.272156684925,
			"0.012": 0.0,
			"0.013": 0.0,
			"0.014": 0.0,
			"0.015": 0.0,
			"0.016": 0.0,
			"0.017": 0.0,
			"0.018": 0.0,
			"0.019": 0.0,
			"0.02": 0.0,
			"0.021": 0.0,
			"0.022": 0.0,
			"0.023": 0.0,
			"0.024": 0.0,
			"0.025": 0.0
		}
	}
}
