{
	 "smiles": "OCC1=CSC(=N1)C1=CC=CC=C1", 
	 "Tm": 340.15, 
	 "num_atms": 22, 
	 "gaussian": { 
		 "optdone": 1, 
		 "sigma_profile": "yes", 
		 "theory": "DFT", 
		 "functional": "B3LYP", 
		 "basiset": "6-31G**", 
		 "properties": { 
			 "R2extent": 3459.626, 
			 "electric_dipole_moment_norm": 2.44749858836, 
			 "electric_quadrupole_moment_norm": 10.7588129889, 
			 "total_energy": -914.639543699, 
			 "HOMO_LUMO_gap": 0.16739, 
			 "cosmo_polarized_energy": -8.75, 
			 "cosmo_cavitation_energy": 27.64, 
			 "cosmo_dispersion_energy": -21.07, 
			 "cosmo_repulsion_energy": 1.62, 
			 "cosmo_total_nonelectrostatic_energy": 8.2, 
			 "SMD_solvation_energy": 3.7 
		},
		"coords": [
			{
				"x": 0.7482362859,
				"y": 3.9038303569,
				"z": -0.5126363166,
				"element": "O" 
			},
			{
				"x": 0.2569993683,
				"y": 3.8393640382,
				"z": 0.814374044,
				"element": "C" 
			},
			{
				"x": -0.5682605225,
				"y": 2.5982425453,
				"z": 1.0436377288,
				"element": "C" 
			},
			{
				"x": -1.782183784,
				"y": 2.5016194872,
				"z": 1.6622120748,
				"element": "C" 
			},
			{
				"x": -2.3068275822,
				"y": 0.8497288892,
				"z": 1.6958848939,
				"element": "S" 
			},
			{
				"x": -0.8293394243,
				"y": 0.3920239897,
				"z": 0.841789296,
				"element": "C" 
			},
			{
				"x": -0.0465972358,
				"y": 1.409468644,
				"z": 0.5885976296,
				"element": "N" 
			},
			{
				"x": -0.5261815679,
				"y": -0.9968240474,
				"z": 0.4708375727,
				"element": "C" 
			},
			{
				"x": -1.4322896268,
				"y": -2.0447107421,
				"z": 0.7015635774,
				"element": "C" 
			},
			{
				"x": -1.111717606,
				"y": -3.3504046884,
				"z": 0.3371302172,
				"element": "C" 
			},
			{
				"x": 0.116973329,
				"y": -3.6304617993,
				"z": -0.2644449199,
				"element": "C" 
			},
			{
				"x": 1.0242478188,
				"y": -2.5937728943,
				"z": -0.4989642795,
				"element": "C" 
			},
			{
				"x": 0.7088902833,
				"y": -1.2879055005,
				"z": -0.1354671721,
				"element": "C" 
			},
			{
				"x": 1.0629036057,
				"y": 3.0116481056,
				"z": -0.7207286083,
				"element": "H" 
			},
			{
				"x": -0.3462778127,
				"y": 4.7357326312,
				"z": 0.9868847201,
				"element": "H" 
			},
			{
				"x": 1.0850466143,
				"y": 3.8555630501,
				"z": 1.5436800852,
				"element": "H" 
			},
			{
				"x": -2.388345165,
				"y": 3.289918305,
				"z": 2.0852582095,
				"element": "H" 
			},
			{
				"x": -2.3945811087,
				"y": -1.8423329366,
				"z": 1.1638215457,
				"element": "H" 
			},
			{
				"x": -1.823614474,
				"y": -4.1494318275,
				"z": 0.5216523605,
				"element": "H" 
			},
			{
				"x": 0.3654178608,
				"y": -4.6487835372,
				"z": -0.5485274953,
				"element": "H" 
			},
			{
				"x": 1.9820132355,
				"y": -2.8042396229,
				"z": -0.9659865323,
				"element": "H" 
			},
			{
				"x": 1.4063875084,
				"y": -0.476672446,
				"z": -0.3106686314,
				"element": "H" 
			}
		],
		 "valence_orbital": [ 
			{
				"type": "occ",
				"energy": -0.2843,
				"method": "rhf"
			},
			{
				"type": "occ",
				"energy": -0.27715,
				"method": "rhf"
			},
			{
				"type": "occ",
				"energy": -0.26326,
				"method": "rhf"
			},
			{
				"type": "occ",
				"energy": -0.25996,
				"method": "rhf"
			},
			{
				"type": "occ",
				"energy": -0.22548,
				"method": "rhf"
			},
			{
				"type": "unocc",
				"energy": -0.05809,
				"method": "rhf"
			},
			{
				"type": "unocc",
				"energy": -0.01025,
				"method": "rhf"
			},
			{
				"type": "unocc",
				"energy": 0.01492,
				"method": "rhf"
			},
			{
				"type": "unocc",
				"energy": 0.01648,
				"method": "rhf"
			},
			{
				"type": "unocc",
				"energy": 0.05515,
				"method": "rhf"
			}
		],
		"cosmo_sigma_profile": { 
			"-0.025": 0.0,
			"-0.024": 0.0,
			"-0.023": 0.0,
			"-0.022": 0.0,
			"-0.021": 0.0,
			"-0.02": 0.0,
			"-0.019": 0.0,
			"-0.018": 0.0,
			"-0.017": 0.0,
			"-0.016": 0.0,
			"-0.015": 0.0,
			"-0.014": 0.0,
			"-0.013": 0.06362490622,
			"-0.012": 0.306346521791,
			"-0.011": 0.86048138508,
			"-0.01": 0.541201089642,
			"-0.009": 2.35433602812,
			"-0.008": 2.75352770331,
			"-0.007": 3.90081307603,
			"-0.006": 13.2157111614,
			"-0.005": 14.9857313755,
			"-0.004": 19.3068785691,
			"-0.003": 16.1281851934,
			"-0.002": 13.7606992335,
			"-0.001": 13.3281936264,
			"0.0": 14.5514770043,
			"0.001": 20.8591941527,
			"0.002": 21.9765923977,
			"0.003": 21.1252916332,
			"0.004": 17.4838230133,
			"0.005": 9.42511161686,
			"0.006": 2.99684245377,
			"0.007": 1.7764760647,
			"0.008": 1.40139263369,
			"0.009": 1.87944563006,
			"0.01": 1.45160668988,
			"0.011": 1.0620317679,
			"0.012": 1.69316761106,
			"0.013": 1.71634453962,
			"0.014": 2.41843744522,
			"0.015": 0.215446995462,
			"0.016": 0.0,
			"0.017": 0.0,
			"0.018": 0.0,
			"0.019": 0.0,
			"0.02": 0.0,
			"0.021": 0.0,
			"0.022": 0.0,
			"0.023": 0.0,
			"0.024": 0.0,
			"0.025": 0.0
		}
	}
}
