{
	 "smiles": "CC1CC(C)CC2(C1)NC(=O)N(CC(O)=O)C2=O", 
	 "Tm": 533.15, 
	 "num_atms": 36, 
	 "gaussian": { 
		 "optdone": 1, 
		 "sigma_profile": "yes", 
		 "theory": "DFT", 
		 "functional": "B3LYP", 
		 "basiset": "6-31G**", 
		 "properties": { 
			 "R2extent": 5495.6359, 
			 "electric_dipole_moment_norm": 7.60639724837, 
			 "electric_quadrupole_moment_norm": 27.4013548869, 
			 "total_energy": -878.592387795, 
			 "HOMO_LUMO_gap": 0.22382, 
			 "cosmo_polarized_energy": -20.15, 
			 "cosmo_cavitation_energy": 36.63, 
			 "cosmo_dispersion_energy": -25.59, 
			 "cosmo_repulsion_energy": 1.97, 
			 "cosmo_total_nonelectrostatic_energy": 13.02, 
			 "SMD_solvation_energy": 7.74 
		},
		"coords": [
			{
				"x": -1.466670535,
				"y": -1.9960698667,
				"z": -2.9311942092,
				"element": "C" 
			},
			{
				"x": -0.2603470788,
				"y": -1.8252181954,
				"z": -2.0012924156,
				"element": "C" 
			},
			{
				"x": 0.9930266633,
				"y": -1.3760366344,
				"z": -2.7821068257,
				"element": "C" 
			},
			{
				"x": 2.1555640322,
				"y": -0.8296119246,
				"z": -1.8935409008,
				"element": "C" 
			},
			{
				"x": 2.4134477255,
				"y": 0.6673266429,
				"z": -2.1289240459,
				"element": "C" 
			},
			{
				"x": 1.9475460757,
				"y": -1.190011263,
				"z": -0.4071072841,
				"element": "C" 
			},
			{
				"x": 0.5571588597,
				"y": -0.8284877373,
				"z": 0.2061379544,
				"element": "C" 
			},
			{
				"x": -0.5519858534,
				"y": -0.8216872702,
				"z": -0.8767619663,
				"element": "C" 
			},
			{
				"x": 0.250607474,
				"y": -1.7337138816,
				"z": 1.3190392207,
				"element": "N" 
			},
			{
				"x": 0.2086866598,
				"y": -1.1327132537,
				"z": 2.5423100374,
				"element": "C" 
			},
			{
				"x": 0.0265560357,
				"y": -1.6200757335,
				"z": 3.6363714557,
				"element": "O" 
			},
			{
				"x": 0.407050368,
				"y": 0.2609536732,
				"z": 2.2874156615,
				"element": "N" 
			},
			{
				"x": 0.273564559,
				"y": 1.2663119599,
				"z": 3.3386662849,
				"element": "C" 
			},
			{
				"x": 1.5388364971,
				"y": 2.1056656678,
				"z": 3.6048890047,
				"element": "C" 
			},
			{
				"x": 2.0777709837,
				"y": 2.7205925385,
				"z": 2.5419421021,
				"element": "O" 
			},
			{
				"x": 1.9837663683,
				"y": 2.236143254,
				"z": 4.7185615822,
				"element": "O" 
			},
			{
				"x": 0.5754971072,
				"y": 0.5109032467,
				"z": 0.9573629825,
				"element": "C" 
			},
			{
				"x": 0.71635204,
				"y": 1.6273422992,
				"z": 0.4605471748,
				"element": "O" 
			},
			{
				"x": -2.3371722062,
				"y": -2.3836167473,
				"z": -2.3911184963,
				"element": "H" 
			},
			{
				"x": -1.2399859248,
				"y": -2.6918097267,
				"z": -3.7460538003,
				"element": "H" 
			},
			{
				"x": -1.7510652804,
				"y": -1.0380476752,
				"z": -3.3821121288,
				"element": "H" 
			},
			{
				"x": -0.0565810145,
				"y": -2.8049213206,
				"z": -1.5418081378,
				"element": "H" 
			},
			{
				"x": 0.6890288019,
				"y": -0.5908216222,
				"z": -3.4863144575,
				"element": "H" 
			},
			{
				"x": 1.3461494435,
				"y": -2.2118018261,
				"z": -3.3971354844,
				"element": "H" 
			},
			{
				"x": 3.0742040313,
				"y": -1.3539337789,
				"z": -2.1849745613,
				"element": "H" 
			},
			{
				"x": 1.5559469248,
				"y": 1.2845521579,
				"z": -1.8499993079,
				"element": "H" 
			},
			{
				"x": 2.6392050548,
				"y": 0.8489821939,
				"z": -3.1852177469,
				"element": "H" 
			},
			{
				"x": 3.2692662366,
				"y": 1.0160888984,
				"z": -1.5404745522,
				"element": "H" 
			},
			{
				"x": 2.7464847054,
				"y": -0.7594121726,
				"z": 0.2064659622,
				"element": "H" 
			},
			{
				"x": 2.0450423797,
				"y": -2.277605396,
				"z": -0.3064249864,
				"element": "H" 
			},
			{
				"x": -1.511078394,
				"y": -1.0311929615,
				"z": -0.3909722974,
				"element": "H" 
			},
			{
				"x": -0.6176797303,
				"y": 0.1863611072,
				"z": -1.3035748716,
				"element": "H" 
			},
			{
				"x": 0.2759269181,
				"y": -2.7395491956,
				"z": 1.2525625563,
				"element": "H" 
			},
			{
				"x": 0.0259864331,
				"y": 0.7306830275,
				"z": 4.254023606,
				"element": "H" 
			},
			{
				"x": -0.5486395305,
				"y": 1.9447638099,
				"z": 3.0785163316,
				"element": "H" 
			},
			{
				"x": 1.5667331699,
				"y": 2.531467706,
				"z": 1.7215965594,
				"element": "H" 
			}
		],
		 "valence_orbital": [ 
			{
				"type": "occ",
				"energy": -0.30583,
				"method": "rhf"
			},
			{
				"type": "occ",
				"energy": -0.30471,
				"method": "rhf"
			},
			{
				"type": "occ",
				"energy": -0.28886,
				"method": "rhf"
			},
			{
				"type": "occ",
				"energy": -0.27996,
				"method": "rhf"
			},
			{
				"type": "occ",
				"energy": -0.26092,
				"method": "rhf"
			},
			{
				"type": "unocc",
				"energy": -0.0371,
				"method": "rhf"
			},
			{
				"type": "unocc",
				"energy": 0.00806,
				"method": "rhf"
			},
			{
				"type": "unocc",
				"energy": 0.03959,
				"method": "rhf"
			},
			{
				"type": "unocc",
				"energy": 0.04779,
				"method": "rhf"
			},
			{
				"type": "unocc",
				"energy": 0.07264,
				"method": "rhf"
			}
		],
		"cosmo_sigma_profile": { 
			"-0.025": 0.0,
			"-0.024": 0.0,
			"-0.023": 0.0,
			"-0.022": 0.0,
			"-0.021": 0.0,
			"-0.02": 0.0,
			"-0.019": 0.0,
			"-0.018": 0.0,
			"-0.017": 0.0,
			"-0.016": 0.172038769371,
			"-0.015": 1.23637698996,
			"-0.014": 0.711568380667,
			"-0.013": 0.749009175572,
			"-0.012": 1.66326401815,
			"-0.011": 1.40283467659,
			"-0.01": 3.20660731949,
			"-0.009": 4.42249460863,
			"-0.008": 4.15093029455,
			"-0.007": 7.65547962697,
			"-0.006": 10.8148549598,
			"-0.005": 12.3414367766,
			"-0.004": 12.6737764132,
			"-0.003": 25.9804746882,
			"-0.002": 38.8588892058,
			"-0.001": 35.6371216165,
			"0.0": 23.9191729018,
			"0.001": 21.4587772133,
			"0.002": 12.0544443535,
			"0.003": 4.67759404352,
			"0.004": 6.90593590819,
			"0.005": 4.45140208125,
			"0.006": 4.27499096621,
			"0.007": 4.50571725787,
			"0.008": 5.69604852037,
			"0.009": 6.01356433414,
			"0.01": 7.37884878621,
			"0.011": 9.17699397708,
			"0.012": 10.5409656472,
			"0.013": 2.77709644212,
			"0.014": 0.00759548020031,
			"0.015": 0.0,
			"0.016": 0.0,
			"0.017": 0.0,
			"0.018": 0.0,
			"0.019": 0.0,
			"0.02": 0.0,
			"0.021": 0.0,
			"0.022": 0.0,
			"0.023": 0.0,
			"0.024": 0.0,
			"0.025": 0.0
		}
	}
}
