{
	 "smiles": "OC(=O)C1=NN=C(OCC(F)(F)F)C=C1", 
	 "Tm": 417.15, 
	 "num_atms": 20, 
	 "gaussian": { 
		 "optdone": 1, 
		 "sigma_profile": "yes", 
		 "theory": "DFT", 
		 "functional": "B3LYP", 
		 "basiset": "6-31G**", 
		 "properties": { 
			 "R2extent": 4301.0784, 
			 "electric_dipole_moment_norm": 4.37058218662, 
			 "electric_quadrupole_moment_norm": 24.3522802507, 
			 "total_energy": -904.426434787, 
			 "HOMO_LUMO_gap": 0.1911, 
			 "cosmo_polarized_energy": -13.37, 
			 "cosmo_cavitation_energy": 27.4, 
			 "cosmo_dispersion_energy": -19.65, 
			 "cosmo_repulsion_energy": 1.49, 
			 "cosmo_total_nonelectrostatic_energy": 9.24, 
			 "SMD_solvation_energy": 6.41 
		},
		"coords": [
			{
				"x": 2.0444059992,
				"y": -3.8277679609,
				"z": -2.1736995629,
				"element": "O" 
			},
			{
				"x": 1.5645184021,
				"y": -3.9168305701,
				"z": -0.9260324281,
				"element": "C" 
			},
			{
				"x": 1.8217012405,
				"y": -4.8297601169,
				"z": -0.1747922835,
				"element": "O" 
			},
			{
				"x": 0.6663718354,
				"y": -2.7756583948,
				"z": -0.5278163245,
				"element": "C" 
			},
			{
				"x": 0.4673045823,
				"y": -1.8463939982,
				"z": -1.4573949759,
				"element": "N" 
			},
			{
				"x": -0.3077251061,
				"y": -0.7947518691,
				"z": -1.2081580014,
				"element": "N" 
			},
			{
				"x": -0.8834630629,
				"y": -0.6916770591,
				"z": -0.0149609959,
				"element": "C" 
			},
			{
				"x": -1.6941072768,
				"y": 0.3566568537,
				"z": 0.2459984652,
				"element": "O" 
			},
			{
				"x": -1.8205377657,
				"y": 1.394611599,
				"z": -0.7273861338,
				"element": "C" 
			},
			{
				"x": -0.9021854198,
				"y": 2.5523777776,
				"z": -0.3674501701,
				"element": "C" 
			},
			{
				"x": -1.2186673733,
				"y": 3.0838514914,
				"z": 0.827763696,
				"element": "F" 
			},
			{
				"x": -1.0220023592,
				"y": 3.5189204169,
				"z": -1.3002022407,
				"element": "F" 
			},
			{
				"x": 0.3857393561,
				"y": 2.1672446276,
				"z": -0.316903491,
				"element": "F" 
			},
			{
				"x": -0.7240810416,
				"y": -1.6366169086,
				"z": 1.0206637286,
				"element": "C" 
			},
			{
				"x": 0.0831614128,
				"y": -2.7156549982,
				"z": 0.7509899006,
				"element": "C" 
			},
			{
				"x": 1.6860509099,
				"y": -3.0016859095,
				"z": -2.559541388,
				"element": "H" 
			},
			{
				"x": -2.8538848751,
				"y": 1.7424838873,
				"z": -0.6834410522,
				"element": "H" 
			},
			{
				"x": -1.573346005,
				"y": 1.0383299568,
				"z": -1.7271105382,
				"element": "H" 
			},
			{
				"x": -1.2253486778,
				"y": -1.48774468,
				"z": 1.9702807018,
				"element": "H" 
			},
			{
				"x": 0.2828952249,
				"y": -3.503834145,
				"z": 1.467893094,
				"element": "H" 
			}
		],
		 "valence_orbital": [ 
			{
				"type": "occ",
				"energy": -0.33824,
				"method": "rhf"
			},
			{
				"type": "occ",
				"energy": -0.31776,
				"method": "rhf"
			},
			{
				"type": "occ",
				"energy": -0.28675,
				"method": "rhf"
			},
			{
				"type": "occ",
				"energy": -0.28261,
				"method": "rhf"
			},
			{
				"type": "occ",
				"energy": -0.27538,
				"method": "rhf"
			},
			{
				"type": "unocc",
				"energy": -0.08428,
				"method": "rhf"
			},
			{
				"type": "unocc",
				"energy": -0.06637,
				"method": "rhf"
			},
			{
				"type": "unocc",
				"energy": 0.03638,
				"method": "rhf"
			},
			{
				"type": "unocc",
				"energy": 0.06724,
				"method": "rhf"
			},
			{
				"type": "unocc",
				"energy": 0.08762,
				"method": "rhf"
			}
		],
		"cosmo_sigma_profile": { 
			"-0.025": 0.0,
			"-0.024": 0.0,
			"-0.023": 0.0,
			"-0.022": 0.0,
			"-0.021": 0.0,
			"-0.02": 0.0,
			"-0.019": 0.0,
			"-0.018": 0.0,
			"-0.017": 0.0,
			"-0.016": 0.0,
			"-0.015": 0.0026006948612,
			"-0.014": 0.318017845841,
			"-0.013": 0.507113735995,
			"-0.012": 0.696208547302,
			"-0.011": 0.644419111278,
			"-0.01": 3.07201527316,
			"-0.009": 6.853585391,
			"-0.008": 7.68961307933,
			"-0.007": 8.07721131827,
			"-0.006": 10.216635642,
			"-0.005": 11.691653097,
			"-0.004": 12.9882086673,
			"-0.003": 16.1775293637,
			"-0.002": 13.9986345814,
			"-0.001": 10.2408287563,
			"0.0": 9.72611715723,
			"0.001": 11.764835398,
			"0.002": 28.6110550073,
			"0.003": 21.4554503824,
			"0.004": 5.5736686031,
			"0.005": 5.22472224067,
			"0.006": 5.33435826075,
			"0.007": 4.53118153821,
			"0.008": 4.70899425825,
			"0.009": 5.90036149076,
			"0.01": 6.53894017116,
			"0.011": 5.33990211403,
			"0.012": 2.22497419133,
			"0.013": 0.502536633929,
			"0.014": 0.0,
			"0.015": 0.0,
			"0.016": 0.0,
			"0.017": 0.0,
			"0.018": 0.0,
			"0.019": 0.0,
			"0.02": 0.0,
			"0.021": 0.0,
			"0.022": 0.0,
			"0.023": 0.0,
			"0.024": 0.0,
			"0.025": 0.0
		}
	}
}
