{
	 "smiles": "C[C@H]1C[C@H]2[C@@H]3CC[C@](O)(C(C)=O)[C@@]3(C)CC[C@@H]2[C@@]2(C)CCC(=O)C=C12", 
	 "Tm": 494.9, 
	 "num_atms": 57, 
	 "gaussian": { 
		 "optdone": 1, 
		 "sigma_profile": "yes", 
		 "theory": "DFT", 
		 "functional": "B3LYP", 
		 "basiset": "6-31G**", 
		 "properties": { 
			 "R2extent": 9807.2576, 
			 "electric_dipole_moment_norm": 3.1095007461, 
			 "electric_quadrupole_moment_norm": 41.3344644135, 
			 "total_energy": -1083.30714886, 
			 "HOMO_LUMO_gap": 0.18728, 
			 "cosmo_polarized_energy": -17.9, 
			 "cosmo_cavitation_energy": 49.57, 
			 "cosmo_dispersion_energy": -33.91, 
			 "cosmo_repulsion_energy": 2.48, 
			 "cosmo_total_nonelectrostatic_energy": 18.14, 
			 "SMD_solvation_energy": 8.52 
		},
		"coords": [
			{
				"x": 0.8176017758,
				"y": 3.3389606121,
				"z": -3.3273953574,
				"element": "C" 
			},
			{
				"x": 0.3329301275,
				"y": 2.7944036591,
				"z": -1.9801984148,
				"element": "C" 
			},
			{
				"x": 0.179589283,
				"y": 1.2514087772,
				"z": -2.0257049093,
				"element": "C" 
			},
			{
				"x": -0.3411731422,
				"y": 0.6494000631,
				"z": -0.7103867959,
				"element": "C" 
			},
			{
				"x": -0.3489316757,
				"y": -0.8849287713,
				"z": -0.7481881811,
				"element": "C" 
			},
			{
				"x": -1.0662055033,
				"y": -1.6200676298,
				"z": -1.8931723413,
				"element": "C" 
			},
			{
				"x": -1.2424979503,
				"y": -3.0689000193,
				"z": -1.3541383196,
				"element": "C" 
			},
			{
				"x": -0.7922198636,
				"y": -3.0583372727,
				"z": 0.1349683211,
				"element": "C" 
			},
			{
				"x": 0.5964675777,
				"y": -3.3933369341,
				"z": 0.2661671601,
				"element": "O" 
			},
			{
				"x": -1.6321013102,
				"y": -4.0099321631,
				"z": 1.0122930533,
				"element": "C" 
			},
			{
				"x": -0.9504794791,
				"y": -4.6384916021,
				"z": 2.2135220816,
				"element": "C" 
			},
			{
				"x": -2.798452933,
				"y": -4.2454755644,
				"z": 0.749563859,
				"element": "O" 
			},
			{
				"x": -0.9301059654,
				"y": -1.5388177456,
				"z": 0.5380911933,
				"element": "C" 
			},
			{
				"x": -2.418581748,
				"y": -1.1949306309,
				"z": 0.7685727074,
				"element": "C" 
			},
			{
				"x": -0.0869972465,
				"y": -1.0803608654,
				"z": 1.7407399372,
				"element": "C" 
			},
			{
				"x": -0.0065349021,
				"y": 0.4603813126,
				"z": 1.8192203794,
				"element": "C" 
			},
			{
				"x": 0.5068686709,
				"y": 1.107636736,
				"z": 0.513509317,
				"element": "C" 
			},
			{
				"x": 0.6500794716,
				"y": 2.6763067935,
				"z": 0.57123316,
				"element": "C" 
			},
			{
				"x": -0.7173122955,
				"y": 3.3641677977,
				"z": 0.8258651991,
				"element": "C" 
			},
			{
				"x": 1.5868371734,
				"y": 3.1600270176,
				"z": 1.7097696084,
				"element": "C" 
			},
			{
				"x": 3.0780040872,
				"y": 2.9480431127,
				"z": 1.4443356738,
				"element": "C" 
			},
			{
				"x": 3.4842679187,
				"y": 3.6138644359,
				"z": 0.1405245831,
				"element": "C" 
			},
			{
				"x": 4.5975516251,
				"y": 4.0901410364,
				"z": -0.0366769941,
				"element": "O" 
			},
			{
				"x": 2.4747813493,
				"y": 3.5758651645,
				"z": -0.9341347667,
				"element": "C" 
			},
			{
				"x": 1.2186753816,
				"y": 3.1007945725,
				"z": -0.7882695509,
				"element": "C" 
			},
			{
				"x": 0.9491223587,
				"y": 4.4251384747,
				"z": -3.3002516636,
				"element": "H" 
			},
			{
				"x": 0.0845247347,
				"y": 3.1089970411,
				"z": -4.1072596702,
				"element": "H" 
			},
			{
				"x": 1.7702322913,
				"y": 2.8901510954,
				"z": -3.6275596914,
				"element": "H" 
			},
			{
				"x": -0.662961461,
				"y": 3.2173510772,
				"z": -1.7926432949,
				"element": "H" 
			},
			{
				"x": -0.492900411,
				"y": 0.9837567552,
				"z": -2.8497165677,
				"element": "H" 
			},
			{
				"x": 1.1610815516,
				"y": 0.8168496933,
				"z": -2.2645084771,
				"element": "H" 
			},
			{
				"x": -1.3731114962,
				"y": 1.0006224563,
				"z": -0.575414336,
				"element": "H" 
			},
			{
				"x": 0.7023223747,
				"y": -1.202272078,
				"z": -0.7843759666,
				"element": "H" 
			},
			{
				"x": -0.4955717168,
				"y": -1.5956047883,
				"z": -2.8257784009,
				"element": "H" 
			},
			{
				"x": -2.041022152,
				"y": -1.1663629504,
				"z": -2.1058662855,
				"element": "H" 
			},
			{
				"x": -0.6349038284,
				"y": -3.7897416182,
				"z": -1.9146174991,
				"element": "H" 
			},
			{
				"x": -2.2772811576,
				"y": -3.4101636626,
				"z": -1.4173680875,
				"element": "H" 
			},
			{
				"x": 0.774402559,
				"y": -4.1518948567,
				"z": -0.304382017,
				"element": "H" 
			},
			{
				"x": -0.2168137706,
				"y": -5.381687303,
				"z": 1.8831127599,
				"element": "H" 
			},
			{
				"x": -0.391659544,
				"y": -3.8959985097,
				"z": 2.7899479839,
				"element": "H" 
			},
			{
				"x": -1.7028203617,
				"y": -5.1257175845,
				"z": 2.835331252,
				"element": "H" 
			},
			{
				"x": -2.7751207673,
				"y": -1.6355373586,
				"z": 1.7043242906,
				"element": "H" 
			},
			{
				"x": -2.571863118,
				"y": -0.1161735522,
				"z": 0.8399682846,
				"element": "H" 
			},
			{
				"x": -3.0686444484,
				"y": -1.5711721226,
				"z": -0.0237008203,
				"element": "H" 
			},
			{
				"x": -0.5036485216,
				"y": -1.4618374899,
				"z": 2.6818574172,
				"element": "H" 
			},
			{
				"x": 0.9223884834,
				"y": -1.4928023913,
				"z": 1.6462164537,
				"element": "H" 
			},
			{
				"x": -0.9909506208,
				"y": 0.8694060549,
				"z": 2.0751318172,
				"element": "H" 
			},
			{
				"x": 0.6550896239,
				"y": 0.7213946264,
				"z": 2.6514429727,
				"element": "H" 
			},
			{
				"x": 1.5213104204,
				"y": 0.7156089648,
				"z": 0.3413209502,
				"element": "H" 
			},
			{
				"x": -0.6331375379,
				"y": 4.4439722198,
				"z": 0.6647719544,
				"element": "H" 
			},
			{
				"x": -1.5218181028,
				"y": 2.994796216,
				"z": 0.1871517261,
				"element": "H" 
			},
			{
				"x": -1.0264006045,
				"y": 3.2120123749,
				"z": 1.8647093176,
				"element": "H" 
			},
			{
				"x": 1.4175030165,
				"y": 4.2370344167,
				"z": 1.8379468636,
				"element": "H" 
			},
			{
				"x": 1.2937672711,
				"y": 2.6984126271,
				"z": 2.6572137935,
				"element": "H" 
			},
			{
				"x": 3.6979542396,
				"y": 3.3472462737,
				"z": 2.252102773,
				"element": "H" 
			},
			{
				"x": 3.3159794595,
				"y": 1.8782279562,
				"z": 1.3595424143,
				"element": "H" 
			},
			{
				"x": 2.8455908094,
				"y": 3.89256605,
				"z": -1.9040608495,
				"element": "H" 
			}
		],
		 "valence_orbital": [ 
			{
				"type": "occ",
				"energy": -0.29661,
				"method": "rhf"
			},
			{
				"type": "occ",
				"energy": -0.28461,
				"method": "rhf"
			},
			{
				"type": "occ",
				"energy": -0.25096,
				"method": "rhf"
			},
			{
				"type": "occ",
				"energy": -0.23723,
				"method": "rhf"
			},
			{
				"type": "occ",
				"energy": -0.22791,
				"method": "rhf"
			},
			{
				"type": "unocc",
				"energy": -0.04063,
				"method": "rhf"
			},
			{
				"type": "unocc",
				"energy": -0.02237,
				"method": "rhf"
			},
			{
				"type": "unocc",
				"energy": 0.05734,
				"method": "rhf"
			},
			{
				"type": "unocc",
				"energy": 0.06137,
				"method": "rhf"
			},
			{
				"type": "unocc",
				"energy": 0.0718,
				"method": "rhf"
			}
		],
		"cosmo_sigma_profile": { 
			"-0.025": 0.0,
			"-0.024": 0.0,
			"-0.023": 0.0,
			"-0.022": 0.0,
			"-0.021": 0.0,
			"-0.02": 0.0,
			"-0.019": 0.0,
			"-0.018": 0.0,
			"-0.017": 0.0,
			"-0.016": 0.127001166249,
			"-0.015": 0.875191714697,
			"-0.014": 1.24613919209,
			"-0.013": 1.04070566279,
			"-0.012": 1.36540087015,
			"-0.011": 1.0977219818,
			"-0.01": 1.3304215594,
			"-0.009": 1.34212990761,
			"-0.008": 1.09772329571,
			"-0.007": 1.86498270398,
			"-0.006": 2.52678681387,
			"-0.005": 7.70428513152,
			"-0.004": 23.4816543641,
			"-0.003": 48.5642524545,
			"-0.002": 63.5310612249,
			"-0.001": 66.2589787024,
			"0.0": 47.3774621,
			"0.001": 31.8020407267,
			"0.002": 12.2930467746,
			"0.003": 8.28399273354,
			"0.004": 6.75822942678,
			"0.005": 4.48872985914,
			"0.006": 4.86406409487,
			"0.007": 5.17082858012,
			"0.008": 4.46008137322,
			"0.009": 3.87312177336,
			"0.01": 4.98493462931,
			"0.011": 5.59323922919,
			"0.012": 7.17513632195,
			"0.013": 6.48248366409,
			"0.014": 3.58826823675,
			"0.015": 0.749455845646,
			"0.016": 0.0,
			"0.017": 0.0,
			"0.018": 0.0,
			"0.019": 0.0,
			"0.02": 0.0,
			"0.021": 0.0,
			"0.022": 0.0,
			"0.023": 0.0,
			"0.024": 0.0,
			"0.025": 0.0
		}
	}
}
