{
	 "smiles": "CCCC(=O)OC=C", 
	 "Tm": 390.15, 
	 "num_atms": 18, 
	 "gaussian": { 
		 "optdone": 1, 
		 "sigma_profile": "yes", 
		 "theory": "DFT", 
		 "functional": "B3LYP", 
		 "basiset": "6-31G**", 
		 "properties": { 
			 "R2extent": 1694.7217, 
			 "electric_dipole_moment_norm": 1.54204375424, 
			 "electric_quadrupole_moment_norm": 5.06055143734, 
			 "total_energy": -385.106776909, 
			 "HOMO_LUMO_gap": 0.23957, 
			 "cosmo_polarized_energy": -5.62, 
			 "cosmo_cavitation_energy": 22.08, 
			 "cosmo_dispersion_energy": -15.93, 
			 "cosmo_repulsion_energy": 1.36, 
			 "cosmo_total_nonelectrostatic_energy": 7.51, 
			 "SMD_solvation_energy": 6.09 
		},
		"coords": [
			{
				"x": 2.3223328795,
				"y": 2.0790005981,
				"z": 0.344807805,
				"element": "C" 
			},
			{
				"x": 1.2709460244,
				"y": 1.2639958568,
				"z": -0.4128752532,
				"element": "C" 
			},
			{
				"x": 0.9826826092,
				"y": -0.0808509164,
				"z": 0.2567068099,
				"element": "C" 
			},
			{
				"x": -0.0537698543,
				"y": -0.9018328919,
				"z": -0.4763304058,
				"element": "C" 
			},
			{
				"x": -0.630848962,
				"y": -0.5849555407,
				"z": -1.4898756564,
				"element": "O" 
			},
			{
				"x": -0.2621197389,
				"y": -2.089383591,
				"z": 0.1773515919,
				"element": "O" 
			},
			{
				"x": -1.1856815545,
				"y": -2.9718218293,
				"z": -0.3570426174,
				"element": "C" 
			},
			{
				"x": -1.420191413,
				"y": -4.1340515306,
				"z": 0.242043924,
				"element": "C" 
			},
			{
				"x": 2.5114942539,
				"y": 3.0354097093,
				"z": -0.1522059372,
				"element": "H" 
			},
			{
				"x": 1.9986326276,
				"y": 2.2955751292,
				"z": 1.3693475868,
				"element": "H" 
			},
			{
				"x": 3.2761793338,
				"y": 1.5425951263,
				"z": 0.4065842166,
				"element": "H" 
			},
			{
				"x": 0.337269171,
				"y": 1.8317768318,
				"z": -0.4911250504,
				"element": "H" 
			},
			{
				"x": 1.6001355687,
				"y": 1.0872584325,
				"z": -1.4427500992,
				"element": "H" 
			},
			{
				"x": 0.632466203,
				"y": 0.0538224963,
				"z": 1.2886964207,
				"element": "H" 
			},
			{
				"x": 1.8930430487,
				"y": -0.6893880627,
				"z": 0.3386638962,
				"element": "H" 
			},
			{
				"x": -1.6644067609,
				"y": -2.6238662721,
				"z": -1.2648286802,
				"element": "H" 
			},
			{
				"x": -0.9044709904,
				"y": -4.4215348102,
				"z": 1.1515601348,
				"element": "H" 
			},
			{
				"x": -2.1438924457,
				"y": -4.8201487355,
				"z": -0.1809286861,
				"element": "H" 
			}
		],
		 "valence_orbital": [ 
			{
				"type": "occ",
				"energy": -0.34915,
				"method": "rhf"
			},
			{
				"type": "occ",
				"energy": -0.34664,
				"method": "rhf"
			},
			{
				"type": "occ",
				"energy": -0.33722,
				"method": "rhf"
			},
			{
				"type": "occ",
				"energy": -0.2813,
				"method": "rhf"
			},
			{
				"type": "occ",
				"energy": -0.24824,
				"method": "rhf"
			},
			{
				"type": "unocc",
				"energy": -0.00867,
				"method": "rhf"
			},
			{
				"type": "unocc",
				"energy": 0.03908,
				"method": "rhf"
			},
			{
				"type": "unocc",
				"energy": 0.08771,
				"method": "rhf"
			},
			{
				"type": "unocc",
				"energy": 0.12544,
				"method": "rhf"
			},
			{
				"type": "unocc",
				"energy": 0.13299,
				"method": "rhf"
			}
		],
		"cosmo_sigma_profile": { 
			"-0.025": 0.0,
			"-0.024": 0.0,
			"-0.023": 0.0,
			"-0.022": 0.0,
			"-0.021": 0.0,
			"-0.02": 0.0,
			"-0.019": 0.0,
			"-0.018": 0.0,
			"-0.017": 0.0,
			"-0.016": 0.0,
			"-0.015": 0.0,
			"-0.014": 0.0,
			"-0.013": 0.0,
			"-0.012": 0.0,
			"-0.011": 0.0,
			"-0.01": 0.0,
			"-0.009": 0.0,
			"-0.008": 0.0325383393268,
			"-0.007": 1.22599322462,
			"-0.006": 7.92162368652,
			"-0.005": 10.7310341672,
			"-0.004": 10.7408342655,
			"-0.003": 21.047116916,
			"-0.002": 21.7725868522,
			"-0.001": 18.5435495976,
			"0.0": 17.6724008705,
			"0.001": 16.3231134724,
			"0.002": 9.05610704379,
			"0.003": 5.45115764601,
			"0.004": 7.53557280421,
			"0.005": 6.8278695367,
			"0.006": 3.9813112624,
			"0.007": 3.13274641049,
			"0.008": 1.58167585023,
			"0.009": 2.25438952387,
			"0.01": 2.34541143737,
			"0.011": 3.9649197575,
			"0.012": 1.48960047943,
			"0.013": 0.0156094190788,
			"0.014": 0.0,
			"0.015": 0.0,
			"0.016": 0.0,
			"0.017": 0.0,
			"0.018": 0.0,
			"0.019": 0.0,
			"0.02": 0.0,
			"0.021": 0.0,
			"0.022": 0.0,
			"0.023": 0.0,
			"0.024": 0.0,
			"0.025": 0.0
		}
	}
}
