{
	 "smiles": "CC(=O)C1=CC(F)=C(SCC(O)=O)C=C1", 
	 "Tm": 414.15, 
	 "num_atms": 24, 
	 "gaussian": { 
		 "optdone": 1, 
		 "sigma_profile": "yes", 
		 "theory": "DFT", 
		 "functional": "B3LYP", 
		 "basiset": "6-31G**", 
		 "properties": { 
			 "R2extent": 5588.4068, 
			 "electric_dipole_moment_norm": 1.82530986411, 
			 "electric_quadrupole_moment_norm": 29.5375644614, 
			 "total_energy": -1110.18318492, 
			 "HOMO_LUMO_gap": 0.16932, 
			 "cosmo_polarized_energy": -21.18, 
			 "cosmo_cavitation_energy": 31.22, 
			 "cosmo_dispersion_energy": -22.29, 
			 "cosmo_repulsion_energy": 1.7, 
			 "cosmo_total_nonelectrostatic_energy": 10.63, 
			 "SMD_solvation_energy": 7.21 
		},
		"coords": [
			{
				"x": -0.7242336244,
				"y": 3.1049687822,
				"z": 1.856675446,
				"element": "C" 
			},
			{
				"x": 0.7021354725,
				"y": 2.7426974954,
				"z": 1.4851447553,
				"element": "C" 
			},
			{
				"x": 1.6431717216,
				"y": 3.4100381226,
				"z": 1.8854280255,
				"element": "O" 
			},
			{
				"x": 0.9407261629,
				"y": 1.5438038494,
				"z": 0.6122971479,
				"element": "C" 
			},
			{
				"x": 2.2686126193,
				"y": 1.2321203782,
				"z": 0.2858638161,
				"element": "C" 
			},
			{
				"x": 2.5305158507,
				"y": 0.1405264881,
				"z": -0.5202882145,
				"element": "C" 
			},
			{
				"x": 3.8163078252,
				"y": -0.137889744,
				"z": -0.8349779977,
				"element": "F" 
			},
			{
				"x": 1.5145133154,
				"y": -0.6906868061,
				"z": -1.014065683,
				"element": "C" 
			},
			{
				"x": 1.844087285,
				"y": -2.0476343748,
				"z": -2.1218577131,
				"element": "S" 
			},
			{
				"x": 2.9871206887,
				"y": -3.0666421829,
				"z": -1.1305791381,
				"element": "C" 
			},
			{
				"x": 2.3599837502,
				"y": -3.7370753089,
				"z": 0.0957231383,
				"element": "C" 
			},
			{
				"x": 3.2410217382,
				"y": -4.4764393309,
				"z": 0.8234093957,
				"element": "O" 
			},
			{
				"x": 1.2101963239,
				"y": -3.6539758091,
				"z": 0.4324411607,
				"element": "O" 
			},
			{
				"x": 0.193428813,
				"y": -0.3740753395,
				"z": -0.673583946,
				"element": "C" 
			},
			{
				"x": -0.0933604408,
				"y": 0.7343831867,
				"z": 0.1212101093,
				"element": "C" 
			},
			{
				"x": -1.2076970114,
				"y": 2.2856166207,
				"z": 2.4001061081,
				"element": "H" 
			},
			{
				"x": -1.3253667269,
				"y": 3.303559423,
				"z": 0.9625592058,
				"element": "H" 
			},
			{
				"x": -0.7054998377,
				"y": 3.9951616022,
				"z": 2.4856826851,
				"element": "H" 
			},
			{
				"x": 3.0750176399,
				"y": 1.8542610332,
				"z": 0.6571940566,
				"element": "H" 
			},
			{
				"x": 3.3522202323,
				"y": -3.8413709158,
				"z": -1.8149495251,
				"element": "H" 
			},
			{
				"x": 3.848855672,
				"y": -2.463608937,
				"z": -0.8289910124,
				"element": "H" 
			},
			{
				"x": 4.1281111983,
				"y": -4.4336074955,
				"z": 0.4376390727,
				"element": "H" 
			},
			{
				"x": -0.603947506,
				"y": -1.0179065606,
				"z": -1.0281319577,
				"element": "H" 
			},
			{
				"x": -1.126821162,
				"y": 0.9507758233,
				"z": 0.3682510646,
				"element": "H" 
			}
		],
		 "valence_orbital": [ 
			{
				"type": "occ",
				"energy": -0.28605,
				"method": "rhf"
			},
			{
				"type": "occ",
				"energy": -0.2819,
				"method": "rhf"
			},
			{
				"type": "occ",
				"energy": -0.26557,
				"method": "rhf"
			},
			{
				"type": "occ",
				"energy": -0.25729,
				"method": "rhf"
			},
			{
				"type": "occ",
				"energy": -0.2397,
				"method": "rhf"
			},
			{
				"type": "unocc",
				"energy": -0.07038,
				"method": "rhf"
			},
			{
				"type": "unocc",
				"energy": -0.0192,
				"method": "rhf"
			},
			{
				"type": "unocc",
				"energy": -0.00017,
				"method": "rhf"
			},
			{
				"type": "unocc",
				"energy": 0.0077,
				"method": "rhf"
			},
			{
				"type": "unocc",
				"energy": 0.03623,
				"method": "rhf"
			}
		],
		"cosmo_sigma_profile": { 
			"-0.025": 0.0,
			"-0.024": 0.0,
			"-0.023": 0.0,
			"-0.022": 0.0,
			"-0.021": 0.0,
			"-0.02": 0.627801861681,
			"-0.019": 1.05340899703,
			"-0.018": 1.19639383215,
			"-0.017": 1.48377867348,
			"-0.016": 1.10450745042,
			"-0.015": 1.02755749982,
			"-0.014": 0.827216679668,
			"-0.013": 1.42871547373,
			"-0.012": 2.01806771038,
			"-0.011": 1.45626760147,
			"-0.01": 3.28798603459,
			"-0.009": 2.92706998739,
			"-0.008": 4.19807471121,
			"-0.007": 10.4125413765,
			"-0.006": 14.5587265834,
			"-0.005": 13.5624341046,
			"-0.004": 12.0990795605,
			"-0.003": 12.6770051999,
			"-0.002": 15.1313372422,
			"-0.001": 18.1327664704,
			"0.0": 17.6073817976,
			"0.001": 17.1148152216,
			"0.002": 14.8110650015,
			"0.003": 12.4596321435,
			"0.004": 11.6032656451,
			"0.005": 7.74773903553,
			"0.006": 6.45077440288,
			"0.007": 6.03751296093,
			"0.008": 6.25678105638,
			"0.009": 7.5503163079,
			"0.01": 8.02553850137,
			"0.011": 9.02386051913,
			"0.012": 6.15503480279,
			"0.013": 1.1459633379,
			"0.014": 0.0102611133475,
			"0.015": 0.0,
			"0.016": 0.0,
			"0.017": 0.0,
			"0.018": 0.0,
			"0.019": 0.0,
			"0.02": 0.0,
			"0.021": 0.0,
			"0.022": 0.0,
			"0.023": 0.0,
			"0.024": 0.0,
			"0.025": 0.0
		}
	}
}
