{
	 "smiles": "FC(Cl)C(F)(F)S(=O)(=O)C1=CC=C(Cl)C=C1", 
	 "Tm": 329.15, 
	 "num_atms": 21, 
	 "gaussian": { 
		 "optdone": 1, 
		 "sigma_profile": "yes", 
		 "theory": "DFT", 
		 "functional": "B3LYP", 
		 "basiset": "6-31G**", 
		 "properties": { 
			 "R2extent": 6071.6242, 
			 "electric_dipole_moment_norm": 3.0317251541, 
			 "electric_quadrupole_moment_norm": 8.25787709645, 
			 "total_energy": -2076.30220628, 
			 "HOMO_LUMO_gap": 0.21238, 
			 "cosmo_polarized_energy": -10.51, 
			 "cosmo_cavitation_energy": 32.07, 
			 "cosmo_dispersion_energy": -22.93, 
			 "cosmo_repulsion_energy": 1.69, 
			 "cosmo_total_nonelectrostatic_energy": 10.83, 
			 "SMD_solvation_energy": 5.16 
		},
		"coords": [
			{
				"x": 3.1018289041,
				"y": 3.0027625819,
				"z": -0.9280352204,
				"element": "F" 
			},
			{
				"x": 1.9252342874,
				"y": 2.8860253071,
				"z": -0.251809971,
				"element": "C" 
			},
			{
				"x": 1.9624248013,
				"y": 3.9115008715,
				"z": 1.2069073519,
				"element": "Cl" 
			},
			{
				"x": 1.7535197299,
				"y": 1.3991180553,
				"z": 0.1002906149,
				"element": "C" 
			},
			{
				"x": 2.6725951939,
				"y": 0.9728758132,
				"z": 0.9828620461,
				"element": "F" 
			},
			{
				"x": 1.8943440331,
				"y": 0.6952825696,
				"z": -1.0512365552,
				"element": "F" 
			},
			{
				"x": 0.0350792576,
				"y": 0.9844249965,
				"z": 0.7610303212,
				"element": "S" 
			},
			{
				"x": -0.8801674096,
				"y": 1.6281864372,
				"z": -0.1939591546,
				"element": "O" 
			},
			{
				"x": 0.0136788325,
				"y": 1.2795115235,
				"z": 2.1954252493,
				"element": "O" 
			},
			{
				"x": -0.0322718689,
				"y": -0.7894081672,
				"z": 0.5391740443,
				"element": "C" 
			},
			{
				"x": 0.399403866,
				"y": -1.6144413526,
				"z": 1.5803855243,
				"element": "C" 
			},
			{
				"x": 0.337466269,
				"y": -2.9966186317,
				"z": 1.4195223436,
				"element": "C" 
			},
			{
				"x": -0.1552976704,
				"y": -3.521299557,
				"z": 0.2221832173,
				"element": "C" 
			},
			{
				"x": -0.2344684899,
				"y": -5.2571470118,
				"z": 0.0203949236,
				"element": "Cl" 
			},
			{
				"x": -0.5920077293,
				"y": -2.6946182882,
				"z": -0.816511593,
				"element": "C" 
			},
			{
				"x": -0.5273172849,
				"y": -1.3129488852,
				"z": -0.6571885171,
				"element": "C" 
			},
			{
				"x": 1.0971213211,
				"y": 3.2179751742,
				"z": -0.8796583832,
				"element": "H" 
			},
			{
				"x": 0.7603001562,
				"y": -1.1792366495,
				"z": 2.5056822159,
				"element": "H" 
			},
			{
				"x": 0.661381387,
				"y": -3.6612378235,
				"z": 2.2121279557,
				"element": "H" 
			},
			{
				"x": -0.9775321315,
				"y": -3.12927903,
				"z": -1.7315822836,
				"element": "H" 
			},
			{
				"x": -0.8707154546,
				"y": -0.6469279334,
				"z": -1.4408041301,
				"element": "H" 
			}
		],
		 "valence_orbital": [ 
			{
				"type": "occ",
				"energy": -0.33085,
				"method": "rhf"
			},
			{
				"type": "occ",
				"energy": -0.32767,
				"method": "rhf"
			},
			{
				"type": "occ",
				"energy": -0.30445,
				"method": "rhf"
			},
			{
				"type": "occ",
				"energy": -0.29656,
				"method": "rhf"
			},
			{
				"type": "occ",
				"energy": -0.28236,
				"method": "rhf"
			},
			{
				"type": "unocc",
				"energy": -0.06998,
				"method": "rhf"
			},
			{
				"type": "unocc",
				"energy": -0.0459,
				"method": "rhf"
			},
			{
				"type": "unocc",
				"energy": -0.00398,
				"method": "rhf"
			},
			{
				"type": "unocc",
				"energy": 0.00534,
				"method": "rhf"
			},
			{
				"type": "unocc",
				"energy": 0.02165,
				"method": "rhf"
			}
		],
		"cosmo_sigma_profile": { 
			"-0.025": 0.0,
			"-0.024": 0.0,
			"-0.023": 0.0,
			"-0.022": 0.0,
			"-0.021": 0.0,
			"-0.02": 0.0,
			"-0.019": 0.0,
			"-0.018": 0.0,
			"-0.017": 0.0,
			"-0.016": 0.0,
			"-0.015": 0.0,
			"-0.014": 0.0,
			"-0.013": 0.0,
			"-0.012": 0.81199613912,
			"-0.011": 1.78364422131,
			"-0.01": 1.27697292393,
			"-0.009": 4.46370839555,
			"-0.008": 9.09189702708,
			"-0.007": 7.76016047282,
			"-0.006": 8.12718541971,
			"-0.005": 7.71662268141,
			"-0.004": 10.2249790236,
			"-0.003": 12.4088268087,
			"-0.002": 15.8356781609,
			"-0.001": 25.3179808298,
			"0.0": 33.5478940804,
			"0.001": 31.5223289833,
			"0.002": 28.1001015411,
			"0.003": 25.57969476,
			"0.004": 9.74909294811,
			"0.005": 4.01076567525,
			"0.006": 3.68693686427,
			"0.007": 3.02092646979,
			"0.008": 5.12722735919,
			"0.009": 7.92927736198,
			"0.01": 5.15387233251,
			"0.011": 0.244962190107,
			"0.012": 0.0,
			"0.013": 0.0,
			"0.014": 0.0,
			"0.015": 0.0,
			"0.016": 0.0,
			"0.017": 0.0,
			"0.018": 0.0,
			"0.019": 0.0,
			"0.02": 0.0,
			"0.021": 0.0,
			"0.022": 0.0,
			"0.023": 0.0,
			"0.024": 0.0,
			"0.025": 0.0
		}
	}
}
