{
	 "smiles": "[O-][N+](=O)C1=CC(=CC=C1)C1=NN=C2SC(NN12)C1=CC=CC=C1", 
	 "Tm": 478.15, 
	 "num_atms": 34, 
	 "gaussian": { 
		 "optdone": 1, 
		 "sigma_profile": "yes", 
		 "theory": "DFT", 
		 "functional": "B3LYP", 
		 "basiset": "6-31G**", 
		 "properties": { 
			 "R2extent": 9420.0527, 
			 "electric_dipole_moment_norm": 3.84074266907, 
			 "electric_quadrupole_moment_norm": 42.8138325358, 
			 "total_energy": -1400.45079045, 
			 "HOMO_LUMO_gap": 0.13825, 
			 "cosmo_polarized_energy": -21.38, 
			 "cosmo_cavitation_energy": 41.37, 
			 "cosmo_dispersion_energy": -29.78, 
			 "cosmo_repulsion_energy": 2.19, 
			 "cosmo_total_nonelectrostatic_energy": 13.78, 
			 "SMD_solvation_energy": 6.07 
		},
		"coords": [
			{
				"x": 2.7637985001,
				"y": -1.4717273806,
				"z": -3.9798776041,
				"element": "O" 
			},
			{
				"x": 2.2004517674,
				"y": -1.1836364547,
				"z": -2.924878555,
				"element": "N" 
			},
			{
				"x": 2.6942635065,
				"y": -1.3230378445,
				"z": -1.8061701843,
				"element": "O" 
			},
			{
				"x": 0.8355521879,
				"y": -0.6338627623,
				"z": -3.0074129425,
				"element": "C" 
			},
			{
				"x": 0.1872316633,
				"y": -0.2888203652,
				"z": -1.8246499732,
				"element": "C" 
			},
			{
				"x": -1.1111221163,
				"y": 0.2313509937,
				"z": -1.8965556834,
				"element": "C" 
			},
			{
				"x": -1.7207127596,
				"y": 0.3936456292,
				"z": -3.155601283,
				"element": "C" 
			},
			{
				"x": -1.0451873878,
				"y": 0.0407138266,
				"z": -4.3202315018,
				"element": "C" 
			},
			{
				"x": 0.2475013608,
				"y": -0.4815807209,
				"z": -4.260168016,
				"element": "C" 
			},
			{
				"x": -1.8624486954,
				"y": 0.626670032,
				"z": -0.7042352989,
				"element": "C" 
			},
			{
				"x": -3.0464186132,
				"y": 1.2160931705,
				"z": -0.7159306558,
				"element": "N" 
			},
			{
				"x": -3.4474476898,
				"y": 1.4719512139,
				"z": 0.5850988454,
				"element": "N" 
			},
			{
				"x": -2.4980317719,
				"y": 1.0060537504,
				"z": 1.3563528943,
				"element": "C" 
			},
			{
				"x": -2.1679783106,
				"y": 0.915496378,
				"z": 3.0810836262,
				"element": "S" 
			},
			{
				"x": -0.3467041181,
				"y": 0.5532437848,
				"z": 2.593591088,
				"element": "C" 
			},
			{
				"x": -0.3897792147,
				"y": -0.1119832167,
				"z": 1.2843409383,
				"element": "N" 
			},
			{
				"x": -1.4819380513,
				"y": 0.4668677423,
				"z": 0.6096996391,
				"element": "N" 
			},
			{
				"x": 0.4076404676,
				"y": -0.2510821108,
				"z": 3.6163654962,
				"element": "C" 
			},
			{
				"x": -0.1150031917,
				"y": -1.4414573782,
				"z": 4.1425995148,
				"element": "C" 
			},
			{
				"x": 0.6289156659,
				"y": -2.1940303877,
				"z": 5.0503692692,
				"element": "C" 
			},
			{
				"x": 1.8974674518,
				"y": -1.7629528772,
				"z": 5.4450784352,
				"element": "C" 
			},
			{
				"x": 2.4207081801,
				"y": -0.5760333816,
				"z": 4.9300040892,
				"element": "C" 
			},
			{
				"x": 1.6788606748,
				"y": 0.1763980658,
				"z": 4.0193722593,
				"element": "C" 
			},
			{
				"x": 0.6992984123,
				"y": -0.418243799,
				"z": -0.8798818035,
				"element": "H" 
			},
			{
				"x": -2.7247752226,
				"y": 0.8014746857,
				"z": -3.1938328223,
				"element": "H" 
			},
			{
				"x": -1.5279192345,
				"y": 0.1712376343,
				"z": -5.2833970956,
				"element": "H" 
			},
			{
				"x": 0.79695996,
				"y": -0.7675592168,
				"z": -5.1479233821,
				"element": "H" 
			},
			{
				"x": 0.1066009518,
				"y": 1.5361605563,
				"z": 2.4522077155,
				"element": "H" 
			},
			{
				"x": -0.5976189712,
				"y": -1.1050691047,
				"z": 1.4192658175,
				"element": "H" 
			},
			{
				"x": -1.1123909629,
				"y": -1.7660332946,
				"z": 3.8592153722,
				"element": "H" 
			},
			{
				"x": 0.2145863927,
				"y": -3.1122477204,
				"z": 5.4554930539,
				"element": "H" 
			},
			{
				"x": 2.4736874312,
				"y": -2.3483818534,
				"z": 6.1553198428,
				"element": "H" 
			},
			{
				"x": 3.4052288515,
				"y": -0.2352139265,
				"z": 5.23543072,
				"element": "H" 
			},
			{
				"x": 2.0897228863,
				"y": 1.0970963327,
				"z": 3.6143581845,
				"element": "H" 
			}
		],
		 "valence_orbital": [ 
			{
				"type": "occ",
				"energy": -0.27817,
				"method": "rhf"
			},
			{
				"type": "occ",
				"energy": -0.27565,
				"method": "rhf"
			},
			{
				"type": "occ",
				"energy": -0.27494,
				"method": "rhf"
			},
			{
				"type": "occ",
				"energy": -0.26283,
				"method": "rhf"
			},
			{
				"type": "occ",
				"energy": -0.23027,
				"method": "rhf"
			},
			{
				"type": "unocc",
				"energy": -0.09202,
				"method": "rhf"
			},
			{
				"type": "unocc",
				"energy": -0.05666,
				"method": "rhf"
			},
			{
				"type": "unocc",
				"energy": -0.04513,
				"method": "rhf"
			},
			{
				"type": "unocc",
				"energy": -0.03011,
				"method": "rhf"
			},
			{
				"type": "unocc",
				"energy": -0.01141,
				"method": "rhf"
			}
		],
		"cosmo_sigma_profile": { 
			"-0.025": 0.0,
			"-0.024": 0.0,
			"-0.023": 0.0,
			"-0.022": 0.0,
			"-0.021": 0.0,
			"-0.02": 0.0,
			"-0.019": 0.0,
			"-0.018": 0.0,
			"-0.017": 0.0,
			"-0.016": 0.00293509835883,
			"-0.015": 0.660825697488,
			"-0.014": 1.80530284215,
			"-0.013": 0.962595811131,
			"-0.012": 1.75763727994,
			"-0.011": 1.83378625919,
			"-0.01": 1.06132158865,
			"-0.009": 4.25358814656,
			"-0.008": 7.33208727001,
			"-0.007": 13.0764727132,
			"-0.006": 20.2916251449,
			"-0.005": 19.3125466278,
			"-0.004": 20.8717613501,
			"-0.003": 19.2489503256,
			"-0.002": 24.0160905717,
			"-0.001": 24.1808624267,
			"0.0": 30.177060168,
			"0.001": 27.1517096137,
			"0.002": 20.2068213476,
			"0.003": 18.17423617,
			"0.004": 17.961287733,
			"0.005": 10.5475564277,
			"0.006": 7.31236896201,
			"0.007": 9.79886016351,
			"0.008": 9.39455512229,
			"0.009": 5.9032231755,
			"0.01": 4.39067131058,
			"0.011": 2.37212630223,
			"0.012": 2.92649980187,
			"0.013": 3.99963386592,
			"0.014": 2.40057777713,
			"0.015": 1.71955731002,
			"0.016": 0.76698800001,
			"0.017": 0.017275798354,
			"0.018": 0.0,
			"0.019": 0.0,
			"0.02": 0.0,
			"0.021": 0.0,
			"0.022": 0.0,
			"0.023": 0.0,
			"0.024": 0.0,
			"0.025": 0.0
		}
	}
}
