{
	 "smiles": "CCN(C)CC", 
	 "Tm": 77.15, 
	 "num_atms": 19, 
	 "gaussian": { 
		 "optdone": 1, 
		 "sigma_profile": "yes", 
		 "theory": "DFT", 
		 "functional": "B3LYP", 
		 "basiset": "6-31G**", 
		 "properties": { 
			 "R2extent": 898.0338, 
			 "electric_dipole_moment_norm": 0.568203009496, 
			 "electric_quadrupole_moment_norm": 1.80910292687, 
			 "total_energy": -253.1142249, 
			 "HOMO_LUMO_gap": 0.28245, 
			 "cosmo_polarized_energy": -2.36, 
			 "cosmo_cavitation_energy": 20.04, 
			 "cosmo_dispersion_energy": -14.72, 
			 "cosmo_repulsion_energy": 1.27, 
			 "cosmo_total_nonelectrostatic_energy": 6.58, 
			 "SMD_solvation_energy": 1.57 
		},
		"coords": [
			{
				"x": 2.1346111825,
				"y": -0.0575186677,
				"z": -1.7200933298,
				"element": "C" 
			},
			{
				"x": 1.8310662435,
				"y": 0.2212969631,
				"z": -0.245573138,
				"element": "C" 
			},
			{
				"x": 0.4001061384,
				"y": 0.352533291,
				"z": 0.0285375373,
				"element": "N" 
			},
			{
				"x": -0.3277188549,
				"y": -0.9039567312,
				"z": -0.0790435634,
				"element": "C" 
			},
			{
				"x": 0.1021729009,
				"y": 1.0893758377,
				"z": 1.2586884222,
				"element": "C" 
			},
			{
				"x": 0.5417334328,
				"y": 0.4513915256,
				"z": 2.5897504231,
				"element": "C" 
			},
			{
				"x": 1.6725924439,
				"y": 0.7045026043,
				"z": -2.3549168814,
				"element": "H" 
			},
			{
				"x": 1.765031987,
				"y": -1.0364761686,
				"z": -2.0405332382,
				"element": "H" 
			},
			{
				"x": 3.2161397585,
				"y": -0.0462611159,
				"z": -1.8917329146,
				"element": "H" 
			},
			{
				"x": 2.3093544558,
				"y": -0.5604867219,
				"z": 0.376551327,
				"element": "H" 
			},
			{
				"x": 2.304228068,
				"y": 1.170327675,
				"z": 0.0343152176,
				"element": "H" 
			},
			{
				"x": -1.389823933,
				"y": -0.7285934159,
				"z": 0.1217608946,
				"element": "H" 
			},
			{
				"x": -0.2493234962,
				"y": -1.301383233,
				"z": -1.0951296195,
				"element": "H" 
			},
			{
				"x": 0.0232368163,
				"y": -1.6924973587,
				"z": 0.6133212679,
				"element": "H" 
			},
			{
				"x": -0.9822758916,
				"y": 1.2574084133,
				"z": 1.2843221138,
				"element": "H" 
			},
			{
				"x": 0.5657068561,
				"y": 2.0800707217,
				"z": 1.1677454163,
				"element": "H" 
			},
			{
				"x": 1.6264086295,
				"y": 0.3085870862,
				"z": 2.6322873942,
				"element": "H" 
			},
			{
				"x": 0.2599749384,
				"y": 1.0983882329,
				"z": 3.4276351478,
				"element": "H" 
			},
			{
				"x": 0.0680783243,
				"y": -0.5223089378,
				"z": 2.7511075232,
				"element": "H" 
			}
		],
		 "valence_orbital": [ 
			{
				"type": "occ",
				"energy": -0.35641,
				"method": "rhf"
			},
			{
				"type": "occ",
				"energy": -0.3399,
				"method": "rhf"
			},
			{
				"type": "occ",
				"energy": -0.33228,
				"method": "rhf"
			},
			{
				"type": "occ",
				"energy": -0.32768,
				"method": "rhf"
			},
			{
				"type": "occ",
				"energy": -0.19913,
				"method": "rhf"
			},
			{
				"type": "unocc",
				"energy": 0.08332,
				"method": "rhf"
			},
			{
				"type": "unocc",
				"energy": 0.11859,
				"method": "rhf"
			},
			{
				"type": "unocc",
				"energy": 0.12454,
				"method": "rhf"
			},
			{
				"type": "unocc",
				"energy": 0.13139,
				"method": "rhf"
			},
			{
				"type": "unocc",
				"energy": 0.15531,
				"method": "rhf"
			}
		],
		"cosmo_sigma_profile": { 
			"-0.025": 0.0,
			"-0.024": 0.0,
			"-0.023": 0.0,
			"-0.022": 0.0,
			"-0.021": 0.0,
			"-0.02": 0.0,
			"-0.019": 0.0,
			"-0.018": 0.0,
			"-0.017": 0.0,
			"-0.016": 0.0,
			"-0.015": 0.0,
			"-0.014": 0.0,
			"-0.013": 0.0,
			"-0.012": 0.0,
			"-0.011": 0.0,
			"-0.01": 0.0,
			"-0.009": 0.0,
			"-0.008": 0.0,
			"-0.007": 0.0,
			"-0.006": 0.0,
			"-0.005": 0.0,
			"-0.004": 1.82554953294,
			"-0.003": 16.364152745,
			"-0.002": 23.166373027,
			"-0.001": 32.7549157252,
			"0.0": 35.0423944506,
			"0.001": 23.7071448712,
			"0.002": 9.10299528261,
			"0.003": 2.2410390189,
			"0.004": 1.47945374344,
			"0.005": 1.24502260056,
			"0.006": 0.868557244516,
			"0.007": 0.675590121396,
			"0.008": 0.656807692556,
			"0.009": 0.899438589182,
			"0.01": 0.622639606406,
			"0.011": 0.787732215721,
			"0.012": 0.591631642749,
			"0.013": 0.475984610798,
			"0.014": 0.188999345639,
			"0.015": 0.707824178516,
			"0.016": 0.50012633633,
			"0.017": 0.0725385528066,
			"0.018": 0.0,
			"0.019": 0.0,
			"0.02": 0.0,
			"0.021": 0.0,
			"0.022": 0.0,
			"0.023": 0.0,
			"0.024": 0.0,
			"0.025": 0.0
		}
	}
}
