{
	 "smiles": "CSC(Cl)=NS(=O)(=O)C1=CC=C(C)C=C1", 
	 "Tm": 363.65, 
	 "num_atms": 25, 
	 "gaussian": { 
		 "optdone": 1, 
		 "sigma_profile": "yes", 
		 "theory": "DFT", 
		 "functional": "B3LYP", 
		 "basiset": "6-31G**", 
		 "properties": { 
			 "R2extent": 5349.8425, 
			 "electric_dipole_moment_norm": 5.55979926436, 
			 "electric_quadrupole_moment_norm": 20.0368763973, 
			 "total_energy": -1810.66923354, 
			 "HOMO_LUMO_gap": 0.20078, 
			 "cosmo_polarized_energy": -13.76, 
			 "cosmo_cavitation_energy": 34.26, 
			 "cosmo_dispersion_energy": -24.9, 
			 "cosmo_repulsion_energy": 1.9, 
			 "cosmo_total_nonelectrostatic_energy": 11.25, 
			 "SMD_solvation_energy": 4.87 
		},
		"coords": [
			{
				"x": 0.4013076635,
				"y": -4.0676173574,
				"z": -0.214895905,
				"element": "C" 
			},
			{
				"x": -1.1266517445,
				"y": -3.8564916331,
				"z": 0.7608931467,
				"element": "S" 
			},
			{
				"x": -0.9106917303,
				"y": -2.2116395135,
				"z": 1.3473143763,
				"element": "C" 
			},
			{
				"x": -2.2873350185,
				"y": -1.7558591497,
				"z": 2.3781719312,
				"element": "Cl" 
			},
			{
				"x": 0.0893785145,
				"y": -1.5049671005,
				"z": 1.028993085,
				"element": "N" 
			},
			{
				"x": 0.4697469095,
				"y": 0.0832727616,
				"z": 1.5938764547,
				"element": "S" 
			},
			{
				"x": -0.0207810603,
				"y": 0.2828064345,
				"z": 2.9581154575,
				"element": "O" 
			},
			{
				"x": 1.8870549314,
				"y": 0.2231384294,
				"z": 1.2748793895,
				"element": "O" 
			},
			{
				"x": -0.4756913532,
				"y": 1.1038290821,
				"z": 0.473652396,
				"element": "C" 
			},
			{
				"x": -1.6836741448,
				"y": 1.6579346618,
				"z": 0.899576407,
				"element": "C" 
			},
			{
				"x": -2.406958692,
				"y": 2.4556926643,
				"z": 0.0148136799,
				"element": "C" 
			},
			{
				"x": -1.9408535748,
				"y": 2.7076352928,
				"z": -1.2833316846,
				"element": "C" 
			},
			{
				"x": -2.7166443779,
				"y": 3.5981817038,
				"z": -2.2232371027,
				"element": "C" 
			},
			{
				"x": -0.7202723361,
				"y": 2.1392181229,
				"z": -1.6800764798,
				"element": "C" 
			},
			{
				"x": 0.0195043863,
				"y": 1.3423881837,
				"z": -0.8109168958,
				"element": "C" 
			},
			{
				"x": 0.4253466424,
				"y": -3.3583372778,
				"z": -1.0422151641,
				"element": "H" 
			},
			{
				"x": 0.3679230793,
				"y": -5.0911535848,
				"z": -0.5943154304,
				"element": "H" 
			},
			{
				"x": 1.2761139336,
				"y": -3.9267838434,
				"z": 0.4200458244,
				"element": "H" 
			},
			{
				"x": -2.0371160003,
				"y": 1.4721937697,
				"z": 1.9074507012,
				"element": "H" 
			},
			{
				"x": -3.3475771833,
				"y": 2.892392817,
				"z": 0.3394205454,
				"element": "H" 
			},
			{
				"x": -2.3796107037,
				"y": 4.638968374,
				"z": -2.1411080418,
				"element": "H" 
			},
			{
				"x": -3.7866598833,
				"y": 3.5831747897,
				"z": -1.9978646435,
				"element": "H" 
			},
			{
				"x": -2.5817827777,
				"y": 3.2945380317,
				"z": -3.2654435544,
				"element": "H" 
			},
			{
				"x": -0.3425958673,
				"y": 2.3290861042,
				"z": -2.6812502407,
				"element": "H" 
			},
			{
				"x": 0.9717203874,
				"y": 0.9191982368,
				"z": -1.1116482519,
				"element": "H" 
			}
		],
		 "valence_orbital": [ 
			{
				"type": "occ",
				"energy": -0.30284,
				"method": "rhf"
			},
			{
				"type": "occ",
				"energy": -0.28287,
				"method": "rhf"
			},
			{
				"type": "occ",
				"energy": -0.27621,
				"method": "rhf"
			},
			{
				"type": "occ",
				"energy": -0.27194,
				"method": "rhf"
			},
			{
				"type": "occ",
				"energy": -0.25983,
				"method": "rhf"
			},
			{
				"type": "unocc",
				"energy": -0.05905,
				"method": "rhf"
			},
			{
				"type": "unocc",
				"energy": -0.03356,
				"method": "rhf"
			},
			{
				"type": "unocc",
				"energy": -0.02212,
				"method": "rhf"
			},
			{
				"type": "unocc",
				"energy": -0.00889,
				"method": "rhf"
			},
			{
				"type": "unocc",
				"energy": 0.00476,
				"method": "rhf"
			}
		],
		"cosmo_sigma_profile": { 
			"-0.025": 0.0,
			"-0.024": 0.0,
			"-0.023": 0.0,
			"-0.022": 0.0,
			"-0.021": 0.0,
			"-0.02": 0.0,
			"-0.019": 0.0,
			"-0.018": 0.0,
			"-0.017": 0.0,
			"-0.016": 0.0,
			"-0.015": 0.0,
			"-0.014": 0.0,
			"-0.013": 0.0,
			"-0.012": 0.0,
			"-0.011": 0.0,
			"-0.01": 0.0,
			"-0.009": 0.812847391159,
			"-0.008": 2.62072979702,
			"-0.007": 7.99091294326,
			"-0.006": 14.486975271,
			"-0.005": 18.6534836669,
			"-0.004": 20.6100504877,
			"-0.003": 26.0900412863,
			"-0.002": 24.5474414972,
			"-0.001": 24.6313482873,
			"0.0": 23.3126661799,
			"0.001": 24.6006414905,
			"0.002": 24.8314803518,
			"0.003": 17.7884720595,
			"0.004": 7.07947157203,
			"0.005": 4.89598600522,
			"0.006": 3.60386664852,
			"0.007": 2.80949219252,
			"0.008": 4.6344456856,
			"0.009": 5.76630982433,
			"0.01": 9.43985360847,
			"0.011": 7.98707991485,
			"0.012": 0.626954749034,
			"0.013": 0.0,
			"0.014": 0.0,
			"0.015": 0.0,
			"0.016": 0.0,
			"0.017": 0.0,
			"0.018": 0.0,
			"0.019": 0.0,
			"0.02": 0.0,
			"0.021": 0.0,
			"0.022": 0.0,
			"0.023": 0.0,
			"0.024": 0.0,
			"0.025": 0.0
		}
	}
}
