{
	 "smiles": "CC1CCN(CC2=NC3=C(C4=C(CCC4)S3)C(=O)N2)CC1", 
	 "Tm": 530.15, 
	 "num_atms": 42, 
	 "gaussian": { 
		 "optdone": 1, 
		 "sigma_profile": "yes", 
		 "theory": "DFT", 
		 "functional": "B3LYP", 
		 "basiset": "6-31G**", 
		 "properties": { 
			 "R2extent": 10018.3613, 
			 "electric_dipole_moment_norm": 1.80459845118, 
			 "electric_quadrupole_moment_norm": 21.1948133441, 
			 "total_energy": -1260.05144764, 
			 "HOMO_LUMO_gap": 0.16421, 
			 "cosmo_polarized_energy": -15.24, 
			 "cosmo_cavitation_energy": 43.71, 
			 "cosmo_dispersion_energy": -31.92, 
			 "cosmo_repulsion_energy": 2.42, 
			 "cosmo_total_nonelectrostatic_energy": 14.21, 
			 "SMD_solvation_energy": 2.16 
		},
		"coords": [
			{
				"x": 5.6111899639,
				"y": -0.8299344886,
				"z": -0.9482088828,
				"element": "C" 
			},
			{
				"x": 4.3175423466,
				"y": -1.6329884196,
				"z": -1.160790827,
				"element": "C" 
			},
			{
				"x": 3.7239810905,
				"y": -1.4471107375,
				"z": -2.5723809446,
				"element": "C" 
			},
			{
				"x": 3.0502821414,
				"y": -0.0828915164,
				"z": -2.7523988823,
				"element": "C" 
			},
			{
				"x": 2.0120387416,
				"y": 0.1249401674,
				"z": -1.7379153184,
				"element": "N" 
			},
			{
				"x": 1.2683547838,
				"y": 1.3538962463,
				"z": -1.9865644679,
				"element": "C" 
			},
			{
				"x": -0.0264017301,
				"y": 1.431400662,
				"z": -1.2022624908,
				"element": "C" 
			},
			{
				"x": -1.0568807318,
				"y": 0.7227279456,
				"z": -1.5737331296,
				"element": "N" 
			},
			{
				"x": -2.1670395943,
				"y": 0.8648787357,
				"z": -0.8020887668,
				"element": "C" 
			},
			{
				"x": -2.3058599236,
				"y": 1.6822121479,
				"z": 0.3237050046,
				"element": "C" 
			},
			{
				"x": -3.6052466291,
				"y": 1.5865214062,
				"z": 0.905918949,
				"element": "C" 
			},
			{
				"x": -4.4199332224,
				"y": 0.7219159986,
				"z": 0.2358851593,
				"element": "C" 
			},
			{
				"x": -5.8118013062,
				"y": 0.6522704581,
				"z": 0.7987781736,
				"element": "C" 
			},
			{
				"x": -5.6216754794,
				"y": 1.3768330266,
				"z": 2.1696039985,
				"element": "C" 
			},
			{
				"x": -4.3292953233,
				"y": 2.242193193,
				"z": 2.0526568913,
				"element": "C" 
			},
			{
				"x": -3.6504742126,
				"y": -0.0178302577,
				"z": -1.145616646,
				"element": "S" 
			},
			{
				"x": -1.1706807093,
				"y": 2.4776253678,
				"z": 0.7405193396,
				"element": "C" 
			},
			{
				"x": -1.0892361908,
				"y": 3.2493910759,
				"z": 1.6879057563,
				"element": "O" 
			},
			{
				"x": -0.0601865438,
				"y": 2.2699851542,
				"z": -0.1158306018,
				"element": "N" 
			},
			{
				"x": 2.5650599222,
				"y": 0.0618343171,
				"z": -0.382274503,
				"element": "C" 
			},
			{
				"x": 3.2279512345,
				"y": -1.2956127679,
				"z": -0.1229810704,
				"element": "C" 
			},
			{
				"x": 6.0227095129,
				"y": -1.0126668714,
				"z": 0.0505932367,
				"element": "H" 
			},
			{
				"x": 5.4570840972,
				"y": 0.2494614424,
				"z": -1.0456424685,
				"element": "H" 
			},
			{
				"x": 6.3731392349,
				"y": -1.1187836935,
				"z": -1.6805947542,
				"element": "H" 
			},
			{
				"x": 4.5741396996,
				"y": -2.6941670886,
				"z": -1.0430280092,
				"element": "H" 
			},
			{
				"x": 4.5019187691,
				"y": -1.5696706788,
				"z": -3.3358566117,
				"element": "H" 
			},
			{
				"x": 2.9694856463,
				"y": -2.2227570564,
				"z": -2.7492812453,
				"element": "H" 
			},
			{
				"x": 3.8087580003,
				"y": 0.725700405,
				"z": -2.7259233987,
				"element": "H" 
			},
			{
				"x": 2.5765592829,
				"y": -0.0365943075,
				"z": -3.7395892379,
				"element": "H" 
			},
			{
				"x": 1.8728544391,
				"y": 2.2625378486,
				"z": -1.7822368264,
				"element": "H" 
			},
			{
				"x": 0.9977957767,
				"y": 1.3769016546,
				"z": -3.0460280087,
				"element": "H" 
			},
			{
				"x": -6.189955067,
				"y": -0.368814941,
				"z": 0.9194590988,
				"element": "H" 
			},
			{
				"x": -6.5261151466,
				"y": 1.1816596665,
				"z": 0.1528601602,
				"element": "H" 
			},
			{
				"x": -6.498435079,
				"y": 1.9686128019,
				"z": 2.4462258275,
				"element": "H" 
			},
			{
				"x": -5.4783933428,
				"y": 0.6227890813,
				"z": 2.9500266879,
				"element": "H" 
			},
			{
				"x": -4.5586641691,
				"y": 3.2893500761,
				"z": 1.815349662,
				"element": "H" 
			},
			{
				"x": -3.7450227741,
				"y": 2.2556316172,
				"z": 2.9772829517,
				"element": "H" 
			},
			{
				"x": 0.7648160622,
				"y": 2.8048335421,
				"z": 0.1299346697,
				"element": "H" 
			},
			{
				"x": 3.2897602456,
				"y": 0.8848461438,
				"z": -0.2085605167,
				"element": "H" 
			},
			{
				"x": 1.7508511119,
				"y": 0.2035298548,
				"z": 0.3358490642,
				"element": "H" 
			},
			{
				"x": 3.6455510378,
				"y": -1.3053040807,
				"z": 0.8910933705,
				"element": "H" 
			},
			{
				"x": 2.4468740343,
				"y": -2.0641531312,
				"z": -0.1596603926,
				"element": "H" 
			}
		],
		 "valence_orbital": [ 
			{
				"type": "occ",
				"energy": -0.28022,
				"method": "rhf"
			},
			{
				"type": "occ",
				"energy": -0.25714,
				"method": "rhf"
			},
			{
				"type": "occ",
				"energy": -0.25037,
				"method": "rhf"
			},
			{
				"type": "occ",
				"energy": -0.22361,
				"method": "rhf"
			},
			{
				"type": "occ",
				"energy": -0.20567,
				"method": "rhf"
			},
			{
				"type": "unocc",
				"energy": -0.04146,
				"method": "rhf"
			},
			{
				"type": "unocc",
				"energy": -0.00339,
				"method": "rhf"
			},
			{
				"type": "unocc",
				"energy": 0.02673,
				"method": "rhf"
			},
			{
				"type": "unocc",
				"energy": 0.03366,
				"method": "rhf"
			},
			{
				"type": "unocc",
				"energy": 0.06764,
				"method": "rhf"
			}
		],
		"cosmo_sigma_profile": { 
			"-0.025": 0.0,
			"-0.024": 0.0,
			"-0.023": 0.0,
			"-0.022": 0.0,
			"-0.021": 0.0,
			"-0.02": 0.0,
			"-0.019": 0.0,
			"-0.018": 0.0,
			"-0.017": 0.0,
			"-0.016": 0.282467559877,
			"-0.015": 0.870924389905,
			"-0.014": 1.35771422829,
			"-0.013": 0.495068751355,
			"-0.012": 1.40249197569,
			"-0.011": 1.15950348245,
			"-0.01": 1.64275666815,
			"-0.009": 1.57028617539,
			"-0.008": 0.741653857397,
			"-0.007": 1.17981101859,
			"-0.006": 4.11906160122,
			"-0.005": 7.04321922477,
			"-0.004": 21.6337143489,
			"-0.003": 36.2149951203,
			"-0.002": 56.0426441446,
			"-0.001": 51.3665327651,
			"0.0": 43.0397633621,
			"0.001": 30.0073238386,
			"0.002": 22.9170911696,
			"0.003": 14.3815086251,
			"0.004": 8.7800059583,
			"0.005": 3.37907030476,
			"0.006": 3.10560537877,
			"0.007": 3.54526053414,
			"0.008": 3.33718647249,
			"0.009": 2.62061673859,
			"0.01": 2.53394257046,
			"0.011": 3.35209280765,
			"0.012": 3.65537678133,
			"0.013": 7.56565554683,
			"0.014": 3.35518109155,
			"0.015": 1.02340598808,
			"0.016": 0.297175369969,
			"0.017": 0.0030133657295,
			"0.018": 0.0,
			"0.019": 0.0,
			"0.02": 0.0,
			"0.021": 0.0,
			"0.022": 0.0,
			"0.023": 0.0,
			"0.024": 0.0,
			"0.025": 0.0
		}
	}
}
