{
	 "smiles": "CC1=CC(=CC=C1)N1C=CNC1=S", 
	 "Tm": 427.15, 
	 "num_atms": 23, 
	 "gaussian": { 
		 "optdone": 1, 
		 "sigma_profile": "yes", 
		 "theory": "DFT", 
		 "functional": "B3LYP", 
		 "basiset": "6-31G**", 
		 "properties": { 
			 "R2extent": 3189.1834, 
			 "electric_dipole_moment_norm": 5.43825222843, 
			 "electric_quadrupole_moment_norm": 25.4837218881, 
			 "total_energy": -894.79008005, 
			 "HOMO_LUMO_gap": 0.1661, 
			 "cosmo_polarized_energy": -18.32, 
			 "cosmo_cavitation_energy": 28.47, 
			 "cosmo_dispersion_energy": -21.12, 
			 "cosmo_repulsion_energy": 1.63, 
			 "cosmo_total_nonelectrostatic_energy": 8.98, 
			 "SMD_solvation_energy": 4.62 
		},
		"coords": [
			{
				"x": 2.5447231265,
				"y": -1.7547965919,
				"z": 1.6559056957,
				"element": "C" 
			},
			{
				"x": 1.3536051011,
				"y": -1.6949105325,
				"z": 0.7281623334,
				"element": "C" 
			},
			{
				"x": 0.7054955655,
				"y": -0.4807545487,
				"z": 0.4762719077,
				"element": "C" 
			},
			{
				"x": -0.3802738856,
				"y": -0.4180947652,
				"z": -0.4029770924,
				"element": "C" 
			},
			{
				"x": -0.8486336212,
				"y": -1.570570882,
				"z": -1.0375067916,
				"element": "C" 
			},
			{
				"x": -0.2137553028,
				"y": -2.783782571,
				"z": -0.776919825,
				"element": "C" 
			},
			{
				"x": 0.8758224651,
				"y": -2.84777977,
				"z": 0.0917976728,
				"element": "C" 
			},
			{
				"x": -0.9781334291,
				"y": 0.8528073905,
				"z": -0.6639117725,
				"element": "N" 
			},
			{
				"x": -0.2346052097,
				"y": 2.0121225212,
				"z": -0.9140853933,
				"element": "C" 
			},
			{
				"x": -1.1047124679,
				"y": 3.0345471301,
				"z": -1.0738561139,
				"element": "C" 
			},
			{
				"x": -2.3729530624,
				"y": 2.4987003141,
				"z": -0.9180758601,
				"element": "N" 
			},
			{
				"x": -2.3352175014,
				"y": 1.1512919327,
				"z": -0.6566262887,
				"element": "C" 
			},
			{
				"x": -3.6679591526,
				"y": 0.1731421352,
				"z": -0.3767542791,
				"element": "S" 
			},
			{
				"x": 2.5673892915,
				"y": -2.6954041176,
				"z": 2.2144058619,
				"element": "H" 
			},
			{
				"x": 3.4867360006,
				"y": -1.6865414656,
				"z": 1.0973128025,
				"element": "H" 
			},
			{
				"x": 2.5328675227,
				"y": -0.9333292701,
				"z": 2.3781857901,
				"element": "H" 
			},
			{
				"x": 1.0336880302,
				"y": 0.4218901179,
				"z": 0.9841222064,
				"element": "H" 
			},
			{
				"x": -1.6984164185,
				"y": -1.5130411549,
				"z": -1.7052875161,
				"element": "H" 
			},
			{
				"x": -0.5742759285,
				"y": -3.6873929261,
				"z": -1.2593612647,
				"element": "H" 
			},
			{
				"x": 1.3574667808,
				"y": -3.8030825319,
				"z": 0.2840179672,
				"element": "H" 
			},
			{
				"x": 0.8395639427,
				"y": 1.9828768517,
				"z": -0.9891213431,
				"element": "H" 
			},
			{
				"x": -0.934751943,
				"y": 4.0753624574,
				"z": -1.296164388,
				"element": "H" 
			},
			{
				"x": -3.2527699041,
				"y": 2.9884402766,
				"z": -0.9615343091,
				"element": "H" 
			}
		],
		 "valence_orbital": [ 
			{
				"type": "occ",
				"energy": -0.28548,
				"method": "rhf"
			},
			{
				"type": "occ",
				"energy": -0.25301,
				"method": "rhf"
			},
			{
				"type": "occ",
				"energy": -0.24552,
				"method": "rhf"
			},
			{
				"type": "occ",
				"energy": -0.19719,
				"method": "rhf"
			},
			{
				"type": "occ",
				"energy": -0.18556,
				"method": "rhf"
			},
			{
				"type": "unocc",
				"energy": -0.01946,
				"method": "rhf"
			},
			{
				"type": "unocc",
				"energy": -0.00547,
				"method": "rhf"
			},
			{
				"type": "unocc",
				"energy": 0.01917,
				"method": "rhf"
			},
			{
				"type": "unocc",
				"energy": 0.02799,
				"method": "rhf"
			},
			{
				"type": "unocc",
				"energy": 0.07328,
				"method": "rhf"
			}
		],
		"cosmo_sigma_profile": { 
			"-0.025": 0.0,
			"-0.024": 0.0,
			"-0.023": 0.0,
			"-0.022": 0.0,
			"-0.021": 0.0,
			"-0.02": 0.0,
			"-0.019": 0.0,
			"-0.018": 0.0,
			"-0.017": 0.537029382162,
			"-0.016": 1.45236358083,
			"-0.015": 1.16249258436,
			"-0.014": 1.1618604879,
			"-0.013": 0.797462615997,
			"-0.012": 0.731765938593,
			"-0.011": 1.19794991009,
			"-0.01": 4.12378090572,
			"-0.009": 3.81630171786,
			"-0.008": 3.61661974944,
			"-0.007": 5.78547961985,
			"-0.006": 9.04791855737,
			"-0.005": 12.4862585091,
			"-0.004": 19.6474017521,
			"-0.003": 14.6740013023,
			"-0.002": 14.550252728,
			"-0.001": 19.887690357,
			"0.0": 19.4491996434,
			"0.001": 15.3902675303,
			"0.002": 11.9831120162,
			"0.003": 10.4222639936,
			"0.004": 10.4764107955,
			"0.005": 9.79763211247,
			"0.006": 4.1125068512,
			"0.007": 4.63187549108,
			"0.008": 3.87602709013,
			"0.009": 4.33773729094,
			"0.01": 4.79388428687,
			"0.011": 5.95619540361,
			"0.012": 7.09213405575,
			"0.013": 3.26609103023,
			"0.014": 0.0,
			"0.015": 0.0,
			"0.016": 0.0,
			"0.017": 0.0,
			"0.018": 0.0,
			"0.019": 0.0,
			"0.02": 0.0,
			"0.021": 0.0,
			"0.022": 0.0,
			"0.023": 0.0,
			"0.024": 0.0,
			"0.025": 0.0
		}
	}
}
