{
	 "smiles": "CC1=CC=C(O1)C1(C(=O)NC2=CC=CC=C12)C1=CC=C(C)O1", 
	 "Tm": 489.15, 
	 "num_atms": 37, 
	 "gaussian": { 
		 "optdone": 1, 
		 "sigma_profile": "yes", 
		 "theory": "DFT", 
		 "functional": "B3LYP", 
		 "basiset": "6-31G**", 
		 "properties": { 
			 "R2extent": 5955.2013, 
			 "electric_dipole_moment_norm": 2.30581373923, 
			 "electric_quadrupole_moment_norm": 12.1527245431, 
			 "total_energy": -975.362298946, 
			 "HOMO_LUMO_gap": 0.18965, 
			 "cosmo_polarized_energy": -14.94, 
			 "cosmo_cavitation_energy": 41.52, 
			 "cosmo_dispersion_energy": -27.9, 
			 "cosmo_repulsion_energy": 2.19, 
			 "cosmo_total_nonelectrostatic_energy": 15.81, 
			 "SMD_solvation_energy": 8.36 
		},
		"coords": [
			{
				"x": 1.9808148184,
				"y": 0.8519190142,
				"z": -4.4830220646,
				"element": "C" 
			},
			{
				"x": 1.2885622083,
				"y": 1.2614309393,
				"z": -3.2308890348,
				"element": "C" 
			},
			{
				"x": 0.5838539352,
				"y": 2.3677184822,
				"z": -2.8590675517,
				"element": "C" 
			},
			{
				"x": 0.1675898053,
				"y": 2.1587010607,
				"z": -1.5020213963,
				"element": "C" 
			},
			{
				"x": 0.6442823063,
				"y": 0.9356848662,
				"z": -1.1406944347,
				"element": "C" 
			},
			{
				"x": 1.3316714285,
				"y": 0.3749875347,
				"z": -2.1862516905,
				"element": "O" 
			},
			{
				"x": 0.58940105,
				"y": 0.1288259526,
				"z": 0.1288459707,
				"element": "C" 
			},
			{
				"x": 2.0398043311,
				"y": -0.0818774595,
				"z": 0.7002833149,
				"element": "C" 
			},
			{
				"x": 2.8321784067,
				"y": 0.7777041566,
				"z": 1.0272381197,
				"element": "O" 
			},
			{
				"x": 2.2470857332,
				"y": -1.4422786357,
				"z": 0.7680118492,
				"element": "N" 
			},
			{
				"x": 1.1564256456,
				"y": -2.1869503275,
				"z": 0.3004217314,
				"element": "C" 
			},
			{
				"x": 1.02359613,
				"y": -3.5675006656,
				"z": 0.208530196,
				"element": "C" 
			},
			{
				"x": -0.178239566,
				"y": -4.0699420771,
				"z": -0.3059361581,
				"element": "C" 
			},
			{
				"x": -1.2032036339,
				"y": -3.2132755167,
				"z": -0.7121739762,
				"element": "C" 
			},
			{
				"x": -1.0493115181,
				"y": -1.8231744007,
				"z": -0.6104093785,
				"element": "C" 
			},
			{
				"x": 0.1342329875,
				"y": -1.3144939293,
				"z": -0.0983570038,
				"element": "C" 
			},
			{
				"x": -0.2279658632,
				"y": 0.8372379988,
				"z": 1.1799141226,
				"element": "C" 
			},
			{
				"x": 0.0882854691,
				"y": 1.5823611756,
				"z": 2.2756767891,
				"element": "C" 
			},
			{
				"x": -1.1573079075,
				"y": 2.0010177666,
				"z": 2.8507471858,
				"element": "C" 
			},
			{
				"x": -2.1478298844,
				"y": 1.4876510461,
				"z": 2.0669175761,
				"element": "C" 
			},
			{
				"x": -3.634406217,
				"y": 1.543971186,
				"z": 2.1125292413,
				"element": "C" 
			},
			{
				"x": -1.5909046776,
				"y": 0.7743506712,
				"z": 1.0370217347,
				"element": "O" 
			},
			{
				"x": 1.5624847817,
				"y": -0.0764761012,
				"z": -4.8890685685,
				"element": "H" 
			},
			{
				"x": 3.0506289155,
				"y": 0.683315371,
				"z": -4.3134116772,
				"element": "H" 
			},
			{
				"x": 1.8738899833,
				"y": 1.6344708068,
				"z": -5.2378313349,
				"element": "H" 
			},
			{
				"x": 0.3844519025,
				"y": 3.2320412437,
				"z": -3.4766792107,
				"element": "H" 
			},
			{
				"x": -0.403952853,
				"y": 2.8296128301,
				"z": -0.8785991725,
				"element": "H" 
			},
			{
				"x": 3.123548083,
				"y": -1.8248303295,
				"z": 1.0913374904,
				"element": "H" 
			},
			{
				"x": 1.8216255966,
				"y": -4.2342815346,
				"z": 0.521037028,
				"element": "H" 
			},
			{
				"x": -0.3091954193,
				"y": -5.144884433,
				"z": -0.3901495525,
				"element": "H" 
			},
			{
				"x": -2.1252906275,
				"y": -3.6251615704,
				"z": -1.1104911964,
				"element": "H" 
			},
			{
				"x": -1.8422439003,
				"y": -1.1518708266,
				"z": -0.9226240813,
				"element": "H" 
			},
			{
				"x": 1.0876300638,
				"y": 1.8114681257,
				"z": 2.6124382167,
				"element": "H" 
			},
			{
				"x": -1.2957697708,
				"y": 2.6055842686,
				"z": 3.7359769283,
				"element": "H" 
			},
			{
				"x": -4.0487401302,
				"y": 1.9957728915,
				"z": 1.2036866975,
				"element": "H" 
			},
			{
				"x": -4.0721272019,
				"y": 0.5436719511,
				"z": 2.2105717238,
				"element": "H" 
			},
			{
				"x": -3.9554544111,
				"y": 2.1424984681,
				"z": 2.9681915669,
				"element": "H" 
			}
		],
		 "valence_orbital": [ 
			{
				"type": "occ",
				"energy": -0.26111,
				"method": "rhf"
			},
			{
				"type": "occ",
				"energy": -0.25246,
				"method": "rhf"
			},
			{
				"type": "occ",
				"energy": -0.21837,
				"method": "rhf"
			},
			{
				"type": "occ",
				"energy": -0.21182,
				"method": "rhf"
			},
			{
				"type": "occ",
				"energy": -0.20467,
				"method": "rhf"
			},
			{
				"type": "unocc",
				"energy": -0.01502,
				"method": "rhf"
			},
			{
				"type": "unocc",
				"energy": -0.00199,
				"method": "rhf"
			},
			{
				"type": "unocc",
				"energy": 0.01407,
				"method": "rhf"
			},
			{
				"type": "unocc",
				"energy": 0.02192,
				"method": "rhf"
			},
			{
				"type": "unocc",
				"energy": 0.03831,
				"method": "rhf"
			}
		],
		"cosmo_sigma_profile": { 
			"-0.025": 0.0,
			"-0.024": 0.0,
			"-0.023": 0.0,
			"-0.022": 0.0,
			"-0.021": 0.0,
			"-0.02": 0.0,
			"-0.019": 0.0,
			"-0.018": 0.0,
			"-0.017": 0.0262026313546,
			"-0.016": 1.12854138082,
			"-0.015": 1.55505325333,
			"-0.014": 0.860551990864,
			"-0.013": 1.18335941995,
			"-0.012": 1.11008954816,
			"-0.011": 1.12711972331,
			"-0.01": 1.13218256699,
			"-0.009": 0.830208524984,
			"-0.008": 1.83750148059,
			"-0.007": 3.76648239548,
			"-0.006": 12.0400622631,
			"-0.005": 25.2184526841,
			"-0.004": 26.6449282304,
			"-0.003": 25.6739365815,
			"-0.002": 25.6130528794,
			"-0.001": 31.2547611163,
			"0.0": 25.5789945552,
			"0.001": 20.1941546436,
			"0.002": 20.9431843975,
			"0.003": 22.6381476859,
			"0.004": 24.4482389896,
			"0.005": 25.3738439511,
			"0.006": 12.3318622958,
			"0.007": 4.46048391954,
			"0.008": 1.787335813,
			"0.009": 2.0283080922,
			"0.01": 1.56000267834,
			"0.011": 2.16437856836,
			"0.012": 4.95796466272,
			"0.013": 2.26856780587,
			"0.014": 0.00795539551061,
			"0.015": 0.0,
			"0.016": 0.0,
			"0.017": 0.0,
			"0.018": 0.0,
			"0.019": 0.0,
			"0.02": 0.0,
			"0.021": 0.0,
			"0.022": 0.0,
			"0.023": 0.0,
			"0.024": 0.0,
			"0.025": 0.0
		}
	}
}
