{
	 "smiles": "O[C@@H]1CCCOC2=C1C=CC=C2", 
	 "Tm": 363.15, 
	 "num_atms": 24, 
	 "gaussian": { 
		 "optdone": 1, 
		 "sigma_profile": "yes", 
		 "theory": "DFT", 
		 "functional": "B3LYP", 
		 "basiset": "6-31G**", 
		 "properties": { 
			 "R2extent": 2361.6706, 
			 "electric_dipole_moment_norm": 0.54886808069, 
			 "electric_quadrupole_moment_norm": 7.29137498624, 
			 "total_energy": -538.727445878, 
			 "HOMO_LUMO_gap": 0.22759, 
			 "cosmo_polarized_energy": -8.51, 
			 "cosmo_cavitation_energy": 25.44, 
			 "cosmo_dispersion_energy": -19.08, 
			 "cosmo_repulsion_energy": 1.51, 
			 "cosmo_total_nonelectrostatic_energy": 7.88, 
			 "SMD_solvation_energy": 4.01 
		},
		"coords": [
			{
				"x": -2.3240929547,
				"y": 1.3773436153,
				"z": 2.6609741862,
				"element": "O" 
			},
			{
				"x": -1.6037616264,
				"y": 0.2916599727,
				"z": 2.0877990958,
				"element": "C" 
			},
			{
				"x": -0.1782800346,
				"y": 0.3546697291,
				"z": 2.6698761817,
				"element": "C" 
			},
			{
				"x": 0.8712525666,
				"y": -0.3891324862,
				"z": 1.8280741463,
				"element": "C" 
			},
			{
				"x": 0.4947915795,
				"y": -1.8085501194,
				"z": 1.4022202527,
				"element": "C" 
			},
			{
				"x": -0.7333984796,
				"y": -1.9311890843,
				"z": 0.6521206308,
				"element": "O" 
			},
			{
				"x": -1.1441470868,
				"y": -0.8451495904,
				"z": -0.0936229141,
				"element": "C" 
			},
			{
				"x": -1.6073070785,
				"y": 0.3048856253,
				"z": 0.5689114147,
				"element": "C" 
			},
			{
				"x": -2.0616002261,
				"y": 1.382539043,
				"z": -0.1911424896,
				"element": "C" 
			},
			{
				"x": -2.0836041129,
				"y": 1.3092297024,
				"z": -1.5874818866,
				"element": "C" 
			},
			{
				"x": -1.6475211403,
				"y": 0.1508185382,
				"z": -2.2315160477,
				"element": "C" 
			},
			{
				"x": -1.1696005228,
				"y": -0.9296554848,
				"z": -1.4845315383,
				"element": "C" 
			},
			{
				"x": -3.2549881869,
				"y": 1.2689805804,
				"z": 2.4250013517,
				"element": "H" 
			},
			{
				"x": -2.0524308142,
				"y": -0.6657316266,
				"z": 2.3959422597,
				"element": "H" 
			},
			{
				"x": 0.1000553054,
				"y": 1.4125018917,
				"z": 2.7350109658,
				"element": "H" 
			},
			{
				"x": -0.2022827586,
				"y": -0.0320075668,
				"z": 3.695103844,
				"element": "H" 
			},
			{
				"x": 1.8095714755,
				"y": -0.4607319779,
				"z": 2.3915242507,
				"element": "H" 
			},
			{
				"x": 1.1003163526,
				"y": 0.1983515264,
				"z": 0.932456861,
				"element": "H" 
			},
			{
				"x": 1.3110415931,
				"y": -2.2287533553,
				"z": 0.7977988412,
				"element": "H" 
			},
			{
				"x": 0.3573836821,
				"y": -2.455939049,
				"z": 2.2751234963,
				"element": "H" 
			},
			{
				"x": -2.4028218879,
				"y": 2.2754433308,
				"z": 0.3240436278,
				"element": "H" 
			},
			{
				"x": -2.4458019822,
				"y": 2.1525343906,
				"z": -2.1682908621,
				"element": "H" 
			},
			{
				"x": -1.6709088127,
				"y": 0.0867919991,
				"z": -3.3156758585,
				"element": "H" 
			},
			{
				"x": -0.8214648495,
				"y": -1.8404096043,
				"z": -1.9617198096,
				"element": "H" 
			}
		],
		 "valence_orbital": [ 
			{
				"type": "occ",
				"energy": -0.31693,
				"method": "rhf"
			},
			{
				"type": "occ",
				"energy": -0.28091,
				"method": "rhf"
			},
			{
				"type": "occ",
				"energy": -0.26515,
				"method": "rhf"
			},
			{
				"type": "occ",
				"energy": -0.243,
				"method": "rhf"
			},
			{
				"type": "occ",
				"energy": -0.22594,
				"method": "rhf"
			},
			{
				"type": "unocc",
				"energy": 0.00165,
				"method": "rhf"
			},
			{
				"type": "unocc",
				"energy": 0.00586,
				"method": "rhf"
			},
			{
				"type": "unocc",
				"energy": 0.08063,
				"method": "rhf"
			},
			{
				"type": "unocc",
				"energy": 0.09207,
				"method": "rhf"
			},
			{
				"type": "unocc",
				"energy": 0.10141,
				"method": "rhf"
			}
		],
		"cosmo_sigma_profile": { 
			"-0.025": 0.0,
			"-0.024": 0.0,
			"-0.023": 0.0,
			"-0.022": 0.0,
			"-0.021": 0.0,
			"-0.02": 0.0,
			"-0.019": 0.0,
			"-0.018": 0.0,
			"-0.017": 0.0,
			"-0.016": 0.150818946301,
			"-0.015": 1.03297672448,
			"-0.014": 0.708751469068,
			"-0.013": 0.821698660627,
			"-0.012": 0.72530113119,
			"-0.011": 0.844497496425,
			"-0.01": 1.04725849369,
			"-0.009": 0.761373081291,
			"-0.008": 0.832704689922,
			"-0.007": 1.14378257529,
			"-0.006": 3.46718157339,
			"-0.005": 9.93386282012,
			"-0.004": 19.4231708349,
			"-0.003": 29.5568813682,
			"-0.002": 21.7056158444,
			"-0.001": 17.6791373373,
			"0.0": 12.7313960155,
			"0.001": 9.96576010301,
			"0.002": 9.87581265403,
			"0.003": 9.79671359752,
			"0.004": 10.6198901409,
			"0.005": 9.80674108166,
			"0.006": 8.88293733219,
			"0.007": 3.13901936815,
			"0.008": 2.89913528894,
			"0.009": 1.55794807633,
			"0.01": 2.40012050449,
			"0.011": 2.36574320702,
			"0.012": 2.67931723481,
			"0.013": 1.70266423276,
			"0.014": 1.36157083008,
			"0.015": 0.0,
			"0.016": 0.0,
			"0.017": 0.0,
			"0.018": 0.0,
			"0.019": 0.0,
			"0.02": 0.0,
			"0.021": 0.0,
			"0.022": 0.0,
			"0.023": 0.0,
			"0.024": 0.0,
			"0.025": 0.0
		}
	}
}
