{
	 "smiles": "NCCCC1=NNC(N)=C1C1=NC2=C(S1)C=CC=C2", 
	 "Tm": 587.15, 
	 "num_atms": 34, 
	 "gaussian": { 
		 "optdone": 1, 
		 "sigma_profile": "yes", 
		 "theory": "DFT", 
		 "functional": "B3LYP", 
		 "basiset": "6-31G**", 
		 "properties": { 
			 "R2extent": 6518.7315, 
			 "electric_dipole_moment_norm": 3.36493196514, 
			 "electric_quadrupole_moment_norm": 19.4227198736, 
			 "total_energy": -1176.36639468, 
			 "HOMO_LUMO_gap": 0.16802, 
			 "cosmo_polarized_energy": -22.32, 
			 "cosmo_cavitation_energy": 38.64, 
			 "cosmo_dispersion_energy": -28.25, 
			 "cosmo_repulsion_energy": 2.17, 
			 "cosmo_total_nonelectrostatic_energy": 12.56, 
			 "SMD_solvation_energy": 2.63 
		},
		"coords": [
			{
				"x": -0.0306508191,
				"y": -3.3844912455,
				"z": -3.6006824356,
				"element": "N" 
			},
			{
				"x": 0.6998494873,
				"y": -3.1261085787,
				"z": -2.3532329734,
				"element": "C" 
			},
			{
				"x": 0.9288813745,
				"y": -1.6244318627,
				"z": -2.1727393267,
				"element": "C" 
			},
			{
				"x": 1.6508239786,
				"y": -1.2576782938,
				"z": -0.8586759509,
				"element": "C" 
			},
			{
				"x": 0.8425999636,
				"y": -1.527345557,
				"z": 0.3778237561,
				"element": "C" 
			},
			{
				"x": 1.0052787105,
				"y": -2.6566375655,
				"z": 1.0482833985,
				"element": "N" 
			},
			{
				"x": 0.1073929367,
				"y": -2.582936036,
				"z": 2.0824737621,
				"element": "N" 
			},
			{
				"x": -0.6010358687,
				"y": -1.4309075058,
				"z": 2.0961897356,
				"element": "C" 
			},
			{
				"x": -1.5185650759,
				"y": -1.1412573344,
				"z": 3.0902972018,
				"element": "N" 
			},
			{
				"x": -0.156510213,
				"y": -0.6894057884,
				"z": 0.9913117034,
				"element": "C" 
			},
			{
				"x": -0.5938895827,
				"y": 0.6169672184,
				"z": 0.5621618474,
				"element": "C" 
			},
			{
				"x": -0.3786651784,
				"y": 1.1285507046,
				"z": -0.6149362289,
				"element": "N" 
			},
			{
				"x": -0.9094325296,
				"y": 2.3982721884,
				"z": -0.7388750443,
				"element": "C" 
			},
			{
				"x": -1.5809605783,
				"y": 2.8996328514,
				"z": 0.4035862144,
				"element": "C" 
			},
			{
				"x": -1.4844353126,
				"y": 1.7133370376,
				"z": 1.6896909997,
				"element": "S" 
			},
			{
				"x": -2.1768054088,
				"y": 4.161593094,
				"z": 0.4082000719,
				"element": "C" 
			},
			{
				"x": -2.0950500356,
				"y": 4.9312377115,
				"z": -0.7511420826,
				"element": "C" 
			},
			{
				"x": -1.4317057677,
				"y": 4.4481091935,
				"z": -1.8913903379,
				"element": "C" 
			},
			{
				"x": -0.8392229531,
				"y": 3.1904281572,
				"z": -1.8949918395,
				"element": "C" 
			},
			{
				"x": 0.5465203889,
				"y": -3.11386036,
				"z": -4.3948221603,
				"element": "H" 
			},
			{
				"x": -0.1956316516,
				"y": -4.3830924721,
				"z": -3.7033359558,
				"element": "H" 
			},
			{
				"x": 1.6727386386,
				"y": -3.6479128617,
				"z": -2.2864530456,
				"element": "H" 
			},
			{
				"x": 0.0948293382,
				"y": -3.5059218788,
				"z": -1.5223670905,
				"element": "H" 
			},
			{
				"x": 1.538210659,
				"y": -1.252886981,
				"z": -3.0090795317,
				"element": "H" 
			},
			{
				"x": -0.0283937137,
				"y": -1.0979717791,
				"z": -2.2275949703,
				"element": "H" 
			},
			{
				"x": 2.5835179852,
				"y": -1.8275646677,
				"z": -0.777304712,
				"element": "H" 
			},
			{
				"x": 1.9050493549,
				"y": -0.1946828523,
				"z": -0.8881440965,
				"element": "H" 
			},
			{
				"x": 0.0929020711,
				"y": -3.3194632039,
				"z": 2.769995443,
				"element": "H" 
			},
			{
				"x": -2.2219644837,
				"y": -0.4647207591,
				"z": 2.8186989755,
				"element": "H" 
			},
			{
				"x": -1.9363335766,
				"y": -1.9498637254,
				"z": 3.5334642405,
				"element": "H" 
			},
			{
				"x": -2.6886462231,
				"y": 4.5374087561,
				"z": 1.2884299312,
				"element": "H" 
			},
			{
				"x": -2.5510593404,
				"y": 5.9165337785,
				"z": -0.7701827522,
				"element": "H" 
			},
			{
				"x": -1.38230347,
				"y": 5.0666062607,
				"z": -2.7826452382,
				"element": "H" 
			},
			{
				"x": -0.3264331044,
				"y": 2.8040643573,
				"z": -2.7696115083,
				"element": "H" 
			}
		],
		 "valence_orbital": [ 
			{
				"type": "occ",
				"energy": -0.26567,
				"method": "rhf"
			},
			{
				"type": "occ",
				"energy": -0.23166,
				"method": "rhf"
			},
			{
				"type": "occ",
				"energy": -0.23027,
				"method": "rhf"
			},
			{
				"type": "occ",
				"energy": -0.21863,
				"method": "rhf"
			},
			{
				"type": "occ",
				"energy": -0.20258,
				"method": "rhf"
			},
			{
				"type": "unocc",
				"energy": -0.03456,
				"method": "rhf"
			},
			{
				"type": "unocc",
				"energy": -0.00157,
				"method": "rhf"
			},
			{
				"type": "unocc",
				"energy": 0.00785,
				"method": "rhf"
			},
			{
				"type": "unocc",
				"energy": 0.03009,
				"method": "rhf"
			},
			{
				"type": "unocc",
				"energy": 0.0332,
				"method": "rhf"
			}
		],
		"cosmo_sigma_profile": { 
			"-0.025": 0.0,
			"-0.024": 0.0,
			"-0.023": 0.0,
			"-0.022": 0.0,
			"-0.021": 0.0,
			"-0.02": 0.0,
			"-0.019": 0.0,
			"-0.018": 0.0715814936246,
			"-0.017": 1.84160834632,
			"-0.016": 2.40561685082,
			"-0.015": 2.14966691292,
			"-0.014": 2.94686400394,
			"-0.013": 2.54441392679,
			"-0.012": 2.34274328845,
			"-0.011": 2.81767838921,
			"-0.01": 3.12817763854,
			"-0.009": 4.46586374195,
			"-0.008": 5.09038121914,
			"-0.007": 7.1815272836,
			"-0.006": 12.1331192999,
			"-0.005": 12.7706203567,
			"-0.004": 14.0910283233,
			"-0.003": 15.8002831214,
			"-0.002": 18.5958209037,
			"-0.001": 23.1006897033,
			"0.0": 22.5711048399,
			"0.001": 20.1243337674,
			"0.002": 26.9220410765,
			"0.003": 27.5264515099,
			"0.004": 23.3148737131,
			"0.005": 17.1898422082,
			"0.006": 6.82297084765,
			"0.007": 5.31664006376,
			"0.008": 4.56928659668,
			"0.009": 4.03026763717,
			"0.01": 3.32357313221,
			"0.011": 2.19307690759,
			"0.012": 2.17107342171,
			"0.013": 1.39517370658,
			"0.014": 1.61588090873,
			"0.015": 1.46896394476,
			"0.016": 1.26302246866,
			"0.017": 0.545642086937,
			"0.018": 0.833763918506,
			"0.019": 0.497335967139,
			"0.02": 0.469885939327,
			"0.021": 0.0887500880174,
			"0.022": 0.0,
			"0.023": 0.0,
			"0.024": 0.0,
			"0.025": 0.0
		}
	}
}
