{
	 "smiles": "CCOC(=O)CC(=O)C1=C(C)C(C(=O)OCC)=C(C)N1", 
	 "Tm": 415.15, 
	 "num_atms": 39, 
	 "gaussian": { 
		 "optdone": 1, 
		 "sigma_profile": "yes", 
		 "theory": "DFT", 
		 "functional": "B3LYP", 
		 "basiset": "6-31G**", 
		 "properties": { 
			 "R2extent": 8306.0108, 
			 "electric_dipole_moment_norm": 0.604878657253, 
			 "electric_quadrupole_moment_norm": 10.0583223104, 
			 "total_energy": -975.863308385, 
			 "HOMO_LUMO_gap": 0.17281, 
			 "cosmo_polarized_energy": -15.73, 
			 "cosmo_cavitation_energy": 42.77, 
			 "cosmo_dispersion_energy": -29.68, 
			 "cosmo_repulsion_energy": 2.34, 
			 "cosmo_total_nonelectrostatic_energy": 15.43, 
			 "SMD_solvation_energy": 9.69 
		},
		"coords": [
			{
				"x": -0.5785750069,
				"y": 6.2016228839,
				"z": 0.8942996667,
				"element": "C" 
			},
			{
				"x": -0.6210177091,
				"y": 5.1064369926,
				"z": -0.1535744187,
				"element": "C" 
			},
			{
				"x": -1.2937081997,
				"y": 3.9675847935,
				"z": 0.4380587032,
				"element": "O" 
			},
			{
				"x": -1.4055770074,
				"y": 2.8790017379,
				"z": -0.3403117485,
				"element": "C" 
			},
			{
				"x": -1.0078405229,
				"y": 2.8204537627,
				"z": -1.486510506,
				"element": "O" 
			},
			{
				"x": -2.070929975,
				"y": 1.7343625998,
				"z": 0.4103085926,
				"element": "C" 
			},
			{
				"x": -1.0589446921,
				"y": 0.9946608549,
				"z": 1.2959079348,
				"element": "C" 
			},
			{
				"x": -0.8937354843,
				"y": 1.3612724787,
				"z": 2.4596174722,
				"element": "O" 
			},
			{
				"x": -0.3040719926,
				"y": -0.1406957989,
				"z": 0.7831326582,
				"element": "C" 
			},
			{
				"x": -0.2043919589,
				"y": -0.8614343851,
				"z": -0.4140116761,
				"element": "C" 
			},
			{
				"x": -0.9235798563,
				"y": -0.5759486023,
				"z": -1.7029417165,
				"element": "C" 
			},
			{
				"x": 0.7285916888,
				"y": -1.9189338514,
				"z": -0.1617337869,
				"element": "C" 
			},
			{
				"x": 1.223495979,
				"y": -2.9988032939,
				"z": -1.0248495228,
				"element": "C" 
			},
			{
				"x": 2.0762545212,
				"y": -3.80487679,
				"z": -0.6832314933,
				"element": "O" 
			},
			{
				"x": 0.636874037,
				"y": -3.0304367418,
				"z": -2.2479470585,
				"element": "O" 
			},
			{
				"x": 1.0814316022,
				"y": -4.0722490121,
				"z": -3.1476371048,
				"element": "C" 
			},
			{
				"x": 0.3303674116,
				"y": -5.3733824208,
				"z": -2.9059742171,
				"element": "C" 
			},
			{
				"x": 1.1749633318,
				"y": -1.8039939089,
				"z": 1.1715424612,
				"element": "C" 
			},
			{
				"x": 2.1460845248,
				"y": -2.6230811902,
				"z": 1.9563576559,
				"element": "C" 
			},
			{
				"x": 0.5444908531,
				"y": -0.7438184191,
				"z": 1.7035477468,
				"element": "N" 
			},
			{
				"x": -0.035149524,
				"y": 5.8696368341,
				"z": 1.7832326087,
				"element": "H" 
			},
			{
				"x": -1.5883244644,
				"y": 6.4930276268,
				"z": 1.1970285604,
				"element": "H" 
			},
			{
				"x": -0.0726016543,
				"y": 7.0829636249,
				"z": 0.4879960868,
				"element": "H" 
			},
			{
				"x": -1.1702583646,
				"y": 5.4114727343,
				"z": -1.0498559784,
				"element": "H" 
			},
			{
				"x": 0.3798922106,
				"y": 4.7966925664,
				"z": -0.4696128143,
				"element": "H" 
			},
			{
				"x": -2.5314614927,
				"y": 1.0698425343,
				"z": -0.3201361139,
				"element": "H" 
			},
			{
				"x": -2.8261919304,
				"y": 2.1402772213,
				"z": 1.0854144932,
				"element": "H" 
			},
			{
				"x": -0.3960721978,
				"y": -1.0301394816,
				"z": -2.5395653913,
				"element": "H" 
			},
			{
				"x": -1.9336765224,
				"y": -1.0070523476,
				"z": -1.6934789589,
				"element": "H" 
			},
			{
				"x": -1.0094788256,
				"y": 0.4968004612,
				"z": -1.8848432906,
				"element": "H" 
			},
			{
				"x": 2.1578394282,
				"y": -4.211414358,
				"z": -3.0244103991,
				"element": "H" 
			},
			{
				"x": 0.8780249272,
				"y": -3.6731760571,
				"z": -4.1444651981,
				"element": "H" 
			},
			{
				"x": 0.5602361381,
				"y": -5.7685282893,
				"z": -1.913741776,
				"element": "H" 
			},
			{
				"x": 0.6283777811,
				"y": -6.1188203362,
				"z": -3.6510660469,
				"element": "H" 
			},
			{
				"x": -0.7500125265,
				"y": -5.2205180647,
				"z": -2.9863132276,
				"element": "H" 
			},
			{
				"x": 3.1385975424,
				"y": -2.594540535,
				"z": 1.4985274906,
				"element": "H" 
			},
			{
				"x": 2.2160722248,
				"y": -2.25781777,
				"z": 2.9854644737,
				"element": "H" 
			},
			{
				"x": 1.8483177454,
				"y": -3.6746742936,
				"z": 1.9679891472,
				"element": "H" 
			},
			{
				"x": 0.6241879607,
				"y": -0.38117376,
				"z": 2.6446866921,
				"element": "H" 
			}
		],
		 "valence_orbital": [ 
			{
				"type": "occ",
				"energy": -0.27891,
				"method": "rhf"
			},
			{
				"type": "occ",
				"energy": -0.26747,
				"method": "rhf"
			},
			{
				"type": "occ",
				"energy": -0.25341,
				"method": "rhf"
			},
			{
				"type": "occ",
				"energy": -0.25161,
				"method": "rhf"
			},
			{
				"type": "occ",
				"energy": -0.22313,
				"method": "rhf"
			},
			{
				"type": "unocc",
				"energy": -0.05032,
				"method": "rhf"
			},
			{
				"type": "unocc",
				"energy": -0.01197,
				"method": "rhf"
			},
			{
				"type": "unocc",
				"energy": 0.00897,
				"method": "rhf"
			},
			{
				"type": "unocc",
				"energy": 0.0837,
				"method": "rhf"
			},
			{
				"type": "unocc",
				"energy": 0.09193,
				"method": "rhf"
			}
		],
		"cosmo_sigma_profile": { 
			"-0.025": 0.0,
			"-0.024": 0.0,
			"-0.023": 0.0,
			"-0.022": 0.0,
			"-0.021": 0.0,
			"-0.02": 0.0,
			"-0.019": 0.0,
			"-0.018": 0.0,
			"-0.017": 0.0,
			"-0.016": 0.0,
			"-0.015": 0.139008654701,
			"-0.014": 0.844824746402,
			"-0.013": 0.932483296396,
			"-0.012": 1.20704035408,
			"-0.011": 0.945992609118,
			"-0.01": 1.21342460973,
			"-0.009": 1.26797498832,
			"-0.008": 1.31530785792,
			"-0.007": 2.89519754868,
			"-0.006": 7.55770103289,
			"-0.005": 22.3239694609,
			"-0.004": 36.5572005845,
			"-0.003": 35.3376389105,
			"-0.002": 33.2191288941,
			"-0.001": 33.9131304179,
			"0.0": 35.6786479688,
			"0.001": 25.6885437452,
			"0.002": 19.5746026947,
			"0.003": 12.8893641892,
			"0.004": 9.25579921986,
			"0.005": 6.76205676352,
			"0.006": 6.38416750565,
			"0.007": 5.93142406041,
			"0.008": 5.7732747768,
			"0.009": 5.9548040207,
			"0.01": 5.64883807103,
			"0.011": 7.44391666315,
			"0.012": 6.9383637863,
			"0.013": 3.19931422899,
			"0.014": 0.181494021335,
			"0.015": 0.0,
			"0.016": 0.0,
			"0.017": 0.0,
			"0.018": 0.0,
			"0.019": 0.0,
			"0.02": 0.0,
			"0.021": 0.0,
			"0.022": 0.0,
			"0.023": 0.0,
			"0.024": 0.0,
			"0.025": 0.0
		}
	}
}
