{
	 "smiles": "CCOC(=O)[C@@]12[C@@H](C3=C(O[P@@]1(=O)OCC)C=CC=C3)[C@]1([C@@H]2C2=C(O[P@]1(=O)OCC)C=CC=C2)C(=O)OCC", 
	 "Tm": 523.15, 
	 "num_atms": 68, 
	 "gaussian": { 
		 "optdone": 1, 
		 "sigma_profile": "yes", 
		 "theory": "DFT", 
		 "functional": "B3LYP", 
		 "basiset": "6-31G**", 
		 "properties": { 
			 "R2extent": 17021.8597, 
			 "electric_dipole_moment_norm": 1.62426026855, 
			 "electric_quadrupole_moment_norm": 18.2870256256, 
			 "total_energy": -2443.91396258, 
			 "HOMO_LUMO_gap": 0.21069, 
			 "cosmo_polarized_energy": -23.89, 
			 "cosmo_cavitation_energy": 69.92, 
			 "cosmo_dispersion_energy": -42.59, 
			 "cosmo_repulsion_energy": 3.21, 
			 "cosmo_total_nonelectrostatic_energy": 30.54, 
			 "SMD_solvation_energy": 15.38 
		},
		"coords": [
			{
				"x": -1.6436015368,
				"y": -4.1245381122,
				"z": 1.9033859855,
				"element": "C" 
			},
			{
				"x": -0.4494705745,
				"y": -3.403897872,
				"z": 1.2990299949,
				"element": "C" 
			},
			{
				"x": -0.6442502123,
				"y": -1.9641904146,
				"z": 1.2859924277,
				"element": "O" 
			},
			{
				"x": -1.300408438,
				"y": -1.4570085624,
				"z": 0.24181296,
				"element": "C" 
			},
			{
				"x": -1.8517607855,
				"y": -2.1083227749,
				"z": -0.6232985536,
				"element": "O" 
			},
			{
				"x": -1.3554249431,
				"y": 0.0703546506,
				"z": 0.2519991532,
				"element": "C" 
			},
			{
				"x": -0.9435292136,
				"y": 0.6259863119,
				"z": -1.1693770858,
				"element": "C" 
			},
			{
				"x": -1.876685246,
				"y": 1.6059413477,
				"z": -1.8550237125,
				"element": "C" 
			},
			{
				"x": -3.2260782989,
				"y": 1.7502328832,
				"z": -1.4938484014,
				"element": "C" 
			},
			{
				"x": -3.8179601201,
				"y": 0.9876986075,
				"z": -0.4887565364,
				"element": "O" 
			},
			{
				"x": -3.0230916623,
				"y": 0.5876057673,
				"z": 0.8791436847,
				"element": "P" 
			},
			{
				"x": -2.9284155743,
				"y": 1.6390108926,
				"z": 1.9209112228,
				"element": "O" 
			},
			{
				"x": -3.8412056001,
				"y": -0.7018120987,
				"z": 1.3491212135,
				"element": "O" 
			},
			{
				"x": -4.7220268145,
				"y": -1.5191916882,
				"z": 0.5239027372,
				"element": "C" 
			},
			{
				"x": -6.158215006,
				"y": -1.0455698605,
				"z": 0.6537030256,
				"element": "C" 
			},
			{
				"x": -4.0889986257,
				"y": 2.6073537926,
				"z": -2.1763895745,
				"element": "C" 
			},
			{
				"x": -3.6257658267,
				"y": 3.3273759736,
				"z": -3.2722657451,
				"element": "C" 
			},
			{
				"x": -2.3004495826,
				"y": 3.176194396,
				"z": -3.6832039171,
				"element": "C" 
			},
			{
				"x": -1.4490410136,
				"y": 2.3231012684,
				"z": -2.9859563711,
				"element": "C" 
			},
			{
				"x": 0.417442619,
				"y": 1.1471444527,
				"z": -0.5113370237,
				"element": "C" 
			},
			{
				"x": -0.2116370175,
				"y": 0.9359942179,
				"z": 0.898197358,
				"element": "C" 
			},
			{
				"x": 0.6260659933,
				"y": 0.4782503381,
				"z": 2.0618486589,
				"element": "C" 
			},
			{
				"x": 1.9439674453,
				"y": 0.0364219758,
				"z": 1.9098242015,
				"element": "C" 
			},
			{
				"x": 2.5836484529,
				"y": 0.0128128581,
				"z": 0.6689324287,
				"element": "O" 
			},
			{
				"x": 1.7860889952,
				"y": -0.0951932337,
				"z": -0.7406667813,
				"element": "P" 
			},
			{
				"x": 1.2702288354,
				"y": -1.4308439563,
				"z": -1.1387858451,
				"element": "O" 
			},
			{
				"x": 2.9551571433,
				"y": 0.517923324,
				"z": -1.6457186048,
				"element": "O" 
			},
			{
				"x": 2.9559902999,
				"y": 0.339163482,
				"z": -3.0902679777,
				"element": "C" 
			},
			{
				"x": 4.3957579203,
				"y": 0.3889345351,
				"z": -3.563638916,
				"element": "C" 
			},
			{
				"x": 2.7200107559,
				"y": -0.3537405114,
				"z": 3.0000553393,
				"element": "C" 
			},
			{
				"x": 2.1735634919,
				"y": -0.3052570854,
				"z": 4.2800238885,
				"element": "C" 
			},
			{
				"x": 0.8609343129,
				"y": 0.1390129811,
				"z": 4.4621795597,
				"element": "C" 
			},
			{
				"x": 0.1026817834,
				"y": 0.531300128,
				"z": 3.3620891844,
				"element": "C" 
			},
			{
				"x": 0.9369258554,
				"y": 2.5376557154,
				"z": -0.8438012922,
				"element": "C" 
			},
			{
				"x": 1.2825398644,
				"y": 2.8885922859,
				"z": -1.9558369886,
				"element": "O" 
			},
			{
				"x": 0.993247672,
				"y": 3.3204049253,
				"z": 0.2436725459,
				"element": "O" 
			},
			{
				"x": 1.527398857,
				"y": 4.6601126196,
				"z": 0.0642548892,
				"element": "C" 
			},
			{
				"x": 3.0437787312,
				"y": 4.6576604274,
				"z": 0.173204837,
				"element": "C" 
			},
			{
				"x": -1.8719174597,
				"y": -3.7341836839,
				"z": 2.8993170936,
				"element": "H" 
			},
			{
				"x": -2.5242432018,
				"y": -4.0129755811,
				"z": 1.2668739761,
				"element": "H" 
			},
			{
				"x": -1.4197785385,
				"y": -5.192761377,
				"z": 1.99513322,
				"element": "H" 
			},
			{
				"x": 0.4494974543,
				"y": -3.5377874394,
				"z": 1.9038864416,
				"element": "H" 
			},
			{
				"x": -0.2500134771,
				"y": -3.7296984938,
				"z": 0.2764534882,
				"element": "H" 
			},
			{
				"x": -0.7578225278,
				"y": -0.2087037026,
				"z": -1.8486088943,
				"element": "H" 
			},
			{
				"x": -4.3720836549,
				"y": -1.5044502697,
				"z": -0.5090650402,
				"element": "H" 
			},
			{
				"x": -4.598264915,
				"y": -2.5325895467,
				"z": 0.9128768939,
				"element": "H" 
			},
			{
				"x": -6.2727458159,
				"y": -0.0370346318,
				"z": 0.2485807784,
				"element": "H" 
			},
			{
				"x": -6.8185382487,
				"y": -1.7190477674,
				"z": 0.0963247162,
				"element": "H" 
			},
			{
				"x": -6.4724513475,
				"y": -1.0411484363,
				"z": 1.7011154551,
				"element": "H" 
			},
			{
				"x": -5.1167788185,
				"y": 2.6793719671,
				"z": -1.8375145069,
				"element": "H" 
			},
			{
				"x": -4.2984917286,
				"y": 3.9921708455,
				"z": -3.8055867289,
				"element": "H" 
			},
			{
				"x": -1.9278129779,
				"y": 3.7170983094,
				"z": -4.5475020457,
				"element": "H" 
			},
			{
				"x": -0.4222211626,
				"y": 2.2159776692,
				"z": -3.3111810933,
				"element": "H" 
			},
			{
				"x": -0.6819440179,
				"y": 1.8772052247,
				"z": 1.1887644249,
				"element": "H" 
			},
			{
				"x": 2.3636904034,
				"y": 1.1532148702,
				"z": -3.5168678152,
				"element": "H" 
			},
			{
				"x": 2.4874463558,
				"y": -0.6198726887,
				"z": -3.3300897183,
				"element": "H" 
			},
			{
				"x": 4.9786774716,
				"y": -0.4248511223,
				"z": -3.1237761993,
				"element": "H" 
			},
			{
				"x": 4.4282910955,
				"y": 0.2908317816,
				"z": -4.6536647007,
				"element": "H" 
			},
			{
				"x": 4.8611937105,
				"y": 1.3395600377,
				"z": -3.2889405864,
				"element": "H" 
			},
			{
				"x": 3.7384364628,
				"y": -0.6832012369,
				"z": 2.8241011313,
				"element": "H" 
			},
			{
				"x": 2.7748429602,
				"y": -0.6081225546,
				"z": 5.132135796,
				"element": "H" 
			},
			{
				"x": 0.4326636267,
				"y": 0.1873674357,
				"z": 5.4586233492,
				"element": "H" 
			},
			{
				"x": -0.9137627182,
				"y": 0.8924139061,
				"z": 3.4932820015,
				"element": "H" 
			},
			{
				"x": 1.0635323632,
				"y": 5.240131334,
				"z": 0.864525243,
				"element": "H" 
			},
			{
				"x": 1.1946302391,
				"y": 5.0399104343,
				"z": -0.9039890671,
				"element": "H" 
			},
			{
				"x": 3.3643909724,
				"y": 4.2396937358,
				"z": 1.1315301599,
				"element": "H" 
			},
			{
				"x": 3.4196001201,
				"y": 5.6836335632,
				"z": 0.1009892845,
				"element": "H" 
			},
			{
				"x": 3.4879644382,
				"y": 4.07067343,
				"z": -0.6343390267,
				"element": "H" 
			}
		],
		 "valence_orbital": [ 
			{
				"type": "occ",
				"energy": -0.27189,
				"method": "rhf"
			},
			{
				"type": "occ",
				"energy": -0.25329,
				"method": "rhf"
			},
			{
				"type": "occ",
				"energy": -0.24513,
				"method": "rhf"
			},
			{
				"type": "occ",
				"energy": -0.23934,
				"method": "rhf"
			},
			{
				"type": "occ",
				"energy": -0.2322,
				"method": "rhf"
			},
			{
				"type": "unocc",
				"energy": -0.02151,
				"method": "rhf"
			},
			{
				"type": "unocc",
				"energy": -0.01762,
				"method": "rhf"
			},
			{
				"type": "unocc",
				"energy": -0.00581,
				"method": "rhf"
			},
			{
				"type": "unocc",
				"energy": -0.00274,
				"method": "rhf"
			},
			{
				"type": "unocc",
				"energy": 0.00239,
				"method": "rhf"
			}
		],
		"cosmo_sigma_profile": { 
			"-0.025": 0.0,
			"-0.024": 0.0,
			"-0.023": 0.0,
			"-0.022": 0.0,
			"-0.021": 0.0,
			"-0.02": 0.0,
			"-0.019": 0.0,
			"-0.018": 0.0,
			"-0.017": 0.0,
			"-0.016": 0.0,
			"-0.015": 0.0,
			"-0.014": 0.0,
			"-0.013": 0.0,
			"-0.012": 0.0123654254982,
			"-0.011": 0.249651688682,
			"-0.01": 0.30233633959,
			"-0.009": 1.04791560167,
			"-0.008": 1.27646087886,
			"-0.007": 5.35182145693,
			"-0.006": 21.5561290506,
			"-0.005": 40.132192623,
			"-0.004": 63.5839967346,
			"-0.003": 54.8435119152,
			"-0.002": 49.4912162787,
			"-0.001": 50.8634985788,
			"0.0": 50.8388431033,
			"0.001": 32.8626097818,
			"0.002": 34.5111529549,
			"0.003": 32.5834736465,
			"0.004": 29.1010874366,
			"0.005": 17.2439971869,
			"0.006": 10.4476995898,
			"0.007": 9.30127104147,
			"0.008": 8.5018648479,
			"0.009": 7.4703865244,
			"0.01": 6.48065676061,
			"0.011": 6.94202311108,
			"0.012": 3.9863327472,
			"0.013": 4.85187237947,
			"0.014": 3.80037714369,
			"0.015": 0.200914198132,
			"0.016": 0.0,
			"0.017": 0.0,
			"0.018": 0.0,
			"0.019": 0.0,
			"0.02": 0.0,
			"0.021": 0.0,
			"0.022": 0.0,
			"0.023": 0.0,
			"0.024": 0.0,
			"0.025": 0.0
		}
	}
}
