{
	 "smiles": "NC(=O)C1=CC=C(O)C=C1", 
	 "Tm": 434.15, 
	 "num_atms": 17, 
	 "gaussian": { 
		 "optdone": 1, 
		 "sigma_profile": "yes", 
		 "theory": "DFT", 
		 "functional": "B3LYP", 
		 "basiset": "6-31G**", 
		 "properties": { 
			 "R2extent": 1682.8134, 
			 "electric_dipole_moment_norm": 4.70642604638, 
			 "electric_quadrupole_moment_norm": 8.530673491, 
			 "total_energy": -476.177908369, 
			 "HOMO_LUMO_gap": 0.20271, 
			 "cosmo_polarized_energy": -17.63, 
			 "cosmo_cavitation_energy": 21.48, 
			 "cosmo_dispersion_energy": -16.13, 
			 "cosmo_repulsion_energy": 1.31, 
			 "cosmo_total_nonelectrostatic_energy": 6.66, 
			 "SMD_solvation_energy": 4.88 
		},
		"coords": [
			{
				"x": -2.6412174372,
				"y": 1.1809017529,
				"z": -1.7642572035,
				"element": "N" 
			},
			{
				"x": -1.3608356764,
				"y": 1.5424814988,
				"z": -1.4004490512,
				"element": "C" 
			},
			{
				"x": -0.9392179189,
				"y": 2.6773908924,
				"z": -1.5917256059,
				"element": "O" 
			},
			{
				"x": -0.5328490402,
				"y": 0.486179413,
				"z": -0.7373928046,
				"element": "C" 
			},
			{
				"x": 0.8509926929,
				"y": 0.7053343387,
				"z": -0.6468029032,
				"element": "C" 
			},
			{
				"x": 1.6872492437,
				"y": -0.2264740921,
				"z": -0.0493385043,
				"element": "C" 
			},
			{
				"x": 1.1447067023,
				"y": -1.4023012496,
				"z": 0.4873420009,
				"element": "C" 
			},
			{
				"x": 2.0079649646,
				"y": -2.2841735642,
				"z": 1.0644754333,
				"element": "O" 
			},
			{
				"x": -0.2355784138,
				"y": -1.6278672067,
				"z": 0.4229396273,
				"element": "C" 
			},
			{
				"x": -1.0636028854,
				"y": -0.6873276235,
				"z": -0.1858370153,
				"element": "C" 
			},
			{
				"x": -2.8541094184,
				"y": 0.2144287689,
				"z": -1.9574477121,
				"element": "H" 
			},
			{
				"x": -3.1276790158,
				"y": 1.8667226652,
				"z": -2.3242154968,
				"element": "H" 
			},
			{
				"x": 1.2488892832,
				"y": 1.6270256538,
				"z": -1.0576271304,
				"element": "H" 
			},
			{
				"x": 2.7581869965,
				"y": -0.0664333576,
				"z": 0.017471676,
				"element": "H" 
			},
			{
				"x": 1.5139560082,
				"y": -3.0441037781,
				"z": 1.3990745612,
				"element": "H" 
			},
			{
				"x": -0.6608249637,
				"y": -2.530213541,
				"z": 0.8572975159,
				"element": "H" 
			},
			{
				"x": -2.1352311217,
				"y": -0.8636705709,
				"z": -0.1937073874,
				"element": "H" 
			}
		],
		 "valence_orbital": [ 
			{
				"type": "occ",
				"energy": -0.33615,
				"method": "rhf"
			},
			{
				"type": "occ",
				"energy": -0.26966,
				"method": "rhf"
			},
			{
				"type": "occ",
				"energy": -0.26082,
				"method": "rhf"
			},
			{
				"type": "occ",
				"energy": -0.24616,
				"method": "rhf"
			},
			{
				"type": "occ",
				"energy": -0.23014,
				"method": "rhf"
			},
			{
				"type": "unocc",
				"energy": -0.02743,
				"method": "rhf"
			},
			{
				"type": "unocc",
				"energy": -0.01038,
				"method": "rhf"
			},
			{
				"type": "unocc",
				"energy": 0.06197,
				"method": "rhf"
			},
			{
				"type": "unocc",
				"energy": 0.06474,
				"method": "rhf"
			},
			{
				"type": "unocc",
				"energy": 0.08076,
				"method": "rhf"
			}
		],
		"cosmo_sigma_profile": { 
			"-0.025": 0.0,
			"-0.024": 0.0,
			"-0.023": 0.0,
			"-0.022": 0.0,
			"-0.021": 0.0,
			"-0.02": 0.0,
			"-0.019": 0.0,
			"-0.018": 1.03740655941,
			"-0.017": 0.857271897499,
			"-0.016": 0.959519223138,
			"-0.015": 1.34372391685,
			"-0.014": 1.87921086136,
			"-0.013": 3.49724157044,
			"-0.012": 3.38979558793,
			"-0.011": 3.29111332269,
			"-0.01": 4.14065888679,
			"-0.009": 3.43232510412,
			"-0.008": 2.97685430497,
			"-0.007": 4.84564651228,
			"-0.006": 6.9465586589,
			"-0.005": 8.05384009667,
			"-0.004": 7.3845182631,
			"-0.003": 5.58436833667,
			"-0.002": 6.97421620956,
			"-0.001": 7.68175952003,
			"0.0": 7.49397563431,
			"0.001": 10.5281518384,
			"0.002": 10.0453983012,
			"0.003": 13.8940887627,
			"0.004": 15.7947338581,
			"0.005": 7.12735533738,
			"0.006": 3.71034007892,
			"0.007": 3.35989828463,
			"0.008": 3.98233147418,
			"0.009": 3.39088285768,
			"0.01": 3.01376961734,
			"0.011": 2.61591923116,
			"0.012": 2.59210810337,
			"0.013": 3.23502867688,
			"0.014": 5.17140260773,
			"0.015": 0.664656396638,
			"0.016": 0.0,
			"0.017": 0.0,
			"0.018": 0.0,
			"0.019": 0.0,
			"0.02": 0.0,
			"0.021": 0.0,
			"0.022": 0.0,
			"0.023": 0.0,
			"0.024": 0.0,
			"0.025": 0.0
		}
	}
}
