{
	 "smiles": "CN1CC(=O)NC2=C1C=CN=C2", 
	 "Tm": 548.15, 
	 "num_atms": 21, 
	 "gaussian": { 
		 "optdone": 1, 
		 "sigma_profile": "yes", 
		 "theory": "DFT", 
		 "functional": "B3LYP", 
		 "basiset": "6-31G**", 
		 "properties": { 
			 "R2extent": 2576.3734, 
			 "electric_dipole_moment_norm": 3.12082510083, 
			 "electric_quadrupole_moment_norm": 13.1043032123, 
			 "total_energy": -549.76229509, 
			 "HOMO_LUMO_gap": 0.19359, 
			 "cosmo_polarized_energy": -15.08, 
			 "cosmo_cavitation_energy": 24.2, 
			 "cosmo_dispersion_energy": -18.3, 
			 "cosmo_repulsion_energy": 1.43, 
			 "cosmo_total_nonelectrostatic_energy": 7.33, 
			 "SMD_solvation_energy": 2.37 
		},
		"coords": [
			{
				"x": 1.5246228009,
				"y": 0.781581415,
				"z": -1.1175153431,
				"element": "C" 
			},
			{
				"x": 0.4201484926,
				"y": -0.1238098912,
				"z": -1.3836968088,
				"element": "N" 
			},
			{
				"x": 0.7370105672,
				"y": -1.2706021051,
				"z": -2.2311116231,
				"element": "C" 
			},
			{
				"x": -0.4982226449,
				"y": -2.0166741052,
				"z": -2.7271212231,
				"element": "C" 
			},
			{
				"x": -0.4916479643,
				"y": -2.6726270692,
				"z": -3.7553173539,
				"element": "O" 
			},
			{
				"x": -1.5879073631,
				"y": -1.9275179381,
				"z": -1.901627934,
				"element": "N" 
			},
			{
				"x": -1.6146325352,
				"y": -1.2090554227,
				"z": -0.6963092183,
				"element": "C" 
			},
			{
				"x": -0.5737051566,
				"y": -0.2886061697,
				"z": -0.4315921789,
				"element": "C" 
			},
			{
				"x": -0.6632867256,
				"y": 0.425909946,
				"z": 0.7715309678,
				"element": "C" 
			},
			{
				"x": -1.7544154569,
				"y": 0.2089986278,
				"z": 1.6146166452,
				"element": "C" 
			},
			{
				"x": -2.73941633,
				"y": -0.6587613082,
				"z": 1.3647842709,
				"element": "N" 
			},
			{
				"x": -2.6494350021,
				"y": -1.351743283,
				"z": 0.2223100557,
				"element": "C" 
			},
			{
				"x": 2.0955732648,
				"y": 0.9202561279,
				"z": -2.0389368282,
				"element": "H" 
			},
			{
				"x": 1.1449954222,
				"y": 1.7587686892,
				"z": -0.8082722927,
				"element": "H" 
			},
			{
				"x": 2.2095569717,
				"y": 0.4091411132,
				"z": -0.3389407657,
				"element": "H" 
			},
			{
				"x": 1.3874630408,
				"y": -2.0035212271,
				"z": -1.7185587337,
				"element": "H" 
			},
			{
				"x": 1.2743395245,
				"y": -0.9284211185,
				"z": -3.1185128998,
				"element": "H" 
			},
			{
				"x": -2.3968826001,
				"y": -2.4694398075,
				"z": -2.1786312258,
				"element": "H" 
			},
			{
				"x": 0.0998336581,
				"y": 1.1398260248,
				"z": 1.0567697964,
				"element": "H" 
			},
			{
				"x": -1.8270690656,
				"y": 0.7648974018,
				"z": 2.5475308701,
				"element": "H" 
			},
			{
				"x": -3.4518228982,
				"y": -2.0601999004,
				"z": 0.0142018229,
				"element": "H" 
			}
		],
		 "valence_orbital": [ 
			{
				"type": "occ",
				"energy": -0.30906,
				"method": "rhf"
			},
			{
				"type": "occ",
				"energy": -0.26949,
				"method": "rhf"
			},
			{
				"type": "occ",
				"energy": -0.2528,
				"method": "rhf"
			},
			{
				"type": "occ",
				"energy": -0.24308,
				"method": "rhf"
			},
			{
				"type": "occ",
				"energy": -0.21222,
				"method": "rhf"
			},
			{
				"type": "unocc",
				"energy": -0.01863,
				"method": "rhf"
			},
			{
				"type": "unocc",
				"energy": -0.01137,
				"method": "rhf"
			},
			{
				"type": "unocc",
				"energy": 0.02803,
				"method": "rhf"
			},
			{
				"type": "unocc",
				"energy": 0.07416,
				"method": "rhf"
			},
			{
				"type": "unocc",
				"energy": 0.08524,
				"method": "rhf"
			}
		],
		"cosmo_sigma_profile": { 
			"-0.025": 0.0,
			"-0.024": 0.0,
			"-0.023": 0.0,
			"-0.022": 0.0,
			"-0.021": 0.0,
			"-0.02": 0.0,
			"-0.019": 0.0,
			"-0.018": 0.0,
			"-0.017": 0.0,
			"-0.016": 0.205803317549,
			"-0.015": 1.12288774801,
			"-0.014": 1.37146300951,
			"-0.013": 0.948091174674,
			"-0.012": 1.05883800886,
			"-0.011": 1.4369446506,
			"-0.01": 1.21664360791,
			"-0.009": 1.00195614525,
			"-0.008": 2.16373944171,
			"-0.007": 7.14019399899,
			"-0.006": 15.0699606306,
			"-0.005": 15.2022125405,
			"-0.004": 18.5651858378,
			"-0.003": 15.6521537712,
			"-0.002": 13.8473168871,
			"-0.001": 8.34772172991,
			"0.0": 9.42739565508,
			"0.001": 9.02765449935,
			"0.002": 11.3373778498,
			"0.003": 11.528150994,
			"0.004": 8.30152455224,
			"0.005": 4.4292693021,
			"0.006": 4.24183248445,
			"0.007": 1.854724724,
			"0.008": 2.79193891863,
			"0.009": 3.16724270571,
			"0.01": 2.76378305467,
			"0.011": 3.10331343734,
			"0.012": 4.19961683957,
			"0.013": 6.51529519858,
			"0.014": 2.60179638,
			"0.015": 0.821750465826,
			"0.016": 0.724319742852,
			"0.017": 0.998703995263,
			"0.018": 0.217600130513,
			"0.019": 0.0,
			"0.02": 0.0,
			"0.021": 0.0,
			"0.022": 0.0,
			"0.023": 0.0,
			"0.024": 0.0,
			"0.025": 0.0
		}
	}
}
