{
	 "smiles": "OC(=O)C1CCCN1C(=O)C1=CC=CO1", 
	 "Tm": 459.15, 
	 "num_atms": 26, 
	 "gaussian": { 
		 "optdone": 1, 
		 "sigma_profile": "yes", 
		 "theory": "DFT", 
		 "functional": "B3LYP", 
		 "basiset": "6-31G**", 
		 "properties": { 
			 "R2extent": 3366.2776, 
			 "electric_dipole_moment_norm": 3.14495049405, 
			 "electric_quadrupole_moment_norm": 13.6766719223, 
			 "total_energy": -743.339672377, 
			 "HOMO_LUMO_gap": 0.20284, 
			 "cosmo_polarized_energy": -16.58, 
			 "cosmo_cavitation_energy": 29.86, 
			 "cosmo_dispersion_energy": -21.4, 
			 "cosmo_repulsion_energy": 1.68, 
			 "cosmo_total_nonelectrostatic_energy": 10.14, 
			 "SMD_solvation_energy": 6.7 
		},
		"coords": [
			{
				"x": -0.6781339842,
				"y": 3.6058676623,
				"z": -1.1201231767,
				"element": "O" 
			},
			{
				"x": -0.8141662177,
				"y": 2.2765412776,
				"z": -0.9195003843,
				"element": "C" 
			},
			{
				"x": -1.2179870183,
				"y": 1.5144237987,
				"z": -1.7687127461,
				"element": "O" 
			},
			{
				"x": -0.484854234,
				"y": 1.9014195321,
				"z": 0.5263009479,
				"element": "C" 
			},
			{
				"x": -1.7665298181,
				"y": 1.8666185937,
				"z": 1.3878806508,
				"element": "C" 
			},
			{
				"x": -2.2846573162,
				"y": 0.4353669319,
				"z": 1.177286335,
				"element": "C" 
			},
			{
				"x": -1.0019719065,
				"y": -0.4104157047,
				"z": 1.1328265448,
				"element": "C" 
			},
			{
				"x": 0.0091158737,
				"y": 0.5298091663,
				"z": 0.613645951,
				"element": "N" 
			},
			{
				"x": 1.2294160338,
				"y": 0.2719929981,
				"z": 0.0502135806,
				"element": "C" 
			},
			{
				"x": 1.8707664269,
				"y": 1.1676984434,
				"z": -0.5069347852,
				"element": "O" 
			},
			{
				"x": 1.8148101253,
				"y": -1.0807299161,
				"z": 0.1247688881,
				"element": "C" 
			},
			{
				"x": 2.9799173513,
				"y": -1.5253003494,
				"z": -0.4394128071,
				"element": "C" 
			},
			{
				"x": 3.123116024,
				"y": -2.891955934,
				"z": -0.0570101092,
				"element": "C" 
			},
			{
				"x": 2.037594651,
				"y": -3.1840445261,
				"z": 0.7161475093,
				"element": "C" 
			},
			{
				"x": 1.2298836776,
				"y": -2.0976623668,
				"z": 0.8392393296,
				"element": "O" 
			},
			{
				"x": -0.9345733063,
				"y": 3.7694844215,
				"z": -2.0433571308,
				"element": "H" 
			},
			{
				"x": 0.2609655911,
				"y": 2.6070419044,
				"z": 0.8975654967,
				"element": "H" 
			},
			{
				"x": -2.484190029,
				"y": 2.6392506539,
				"z": 1.100605466,
				"element": "H" 
			},
			{
				"x": -1.4951773999,
				"y": 2.0333436254,
				"z": 2.4357593052,
				"element": "H" 
			},
			{
				"x": -2.8036980728,
				"y": 0.3668563727,
				"z": 0.2170850273,
				"element": "H" 
			},
			{
				"x": -2.9693802901,
				"y": 0.1069378341,
				"z": 1.9637192999,
				"element": "H" 
			},
			{
				"x": -0.7180072741,
				"y": -0.767330495,
				"z": 2.1300174542,
				"element": "H" 
			},
			{
				"x": -1.0990720474,
				"y": -1.2809593882,
				"z": 0.4817571242,
				"element": "H" 
			},
			{
				"x": 3.6387257959,
				"y": -0.9263037353,
				"z": -1.0491605488,
				"element": "H" 
			},
			{
				"x": 3.9242572629,
				"y": -3.5677057752,
				"z": -0.3191706838,
				"element": "H" 
			},
			{
				"x": 1.7081301009,
				"y": -4.074745025,
				"z": 1.2289634613,
				"element": "H" 
			}
		],
		 "valence_orbital": [ 
			{
				"type": "occ",
				"energy": -0.28573,
				"method": "rhf"
			},
			{
				"type": "occ",
				"energy": -0.27233,
				"method": "rhf"
			},
			{
				"type": "occ",
				"energy": -0.25192,
				"method": "rhf"
			},
			{
				"type": "occ",
				"energy": -0.23936,
				"method": "rhf"
			},
			{
				"type": "occ",
				"energy": -0.2331,
				"method": "rhf"
			},
			{
				"type": "unocc",
				"energy": -0.03026,
				"method": "rhf"
			},
			{
				"type": "unocc",
				"energy": 0.01311,
				"method": "rhf"
			},
			{
				"type": "unocc",
				"energy": 0.04451,
				"method": "rhf"
			},
			{
				"type": "unocc",
				"energy": 0.07827,
				"method": "rhf"
			},
			{
				"type": "unocc",
				"energy": 0.09019,
				"method": "rhf"
			}
		],
		"cosmo_sigma_profile": { 
			"-0.025": 0.0,
			"-0.024": 0.0,
			"-0.023": 0.0,
			"-0.022": 0.0,
			"-0.021": 0.0,
			"-0.02": 0.0,
			"-0.019": 0.0908398202215,
			"-0.018": 0.853733948911,
			"-0.017": 1.02954664922,
			"-0.016": 0.670366273932,
			"-0.015": 0.928972355201,
			"-0.014": 0.612336989511,
			"-0.013": 0.369164754848,
			"-0.012": 1.16471774649,
			"-0.011": 0.824196413292,
			"-0.01": 1.33142289452,
			"-0.009": 2.07010725785,
			"-0.008": 3.28912622497,
			"-0.007": 6.42266291591,
			"-0.006": 7.6598294486,
			"-0.005": 17.0080728004,
			"-0.004": 21.1070054376,
			"-0.003": 23.0420576786,
			"-0.002": 20.1746244018,
			"-0.001": 18.2927021725,
			"0.0": 12.972039028,
			"0.001": 12.8101018633,
			"0.002": 13.872997846,
			"0.003": 13.5812098718,
			"0.004": 10.4552603231,
			"0.005": 4.77173991329,
			"0.006": 4.54108755304,
			"0.007": 5.93289746296,
			"0.008": 5.48839762249,
			"0.009": 4.34632708114,
			"0.01": 3.63587600295,
			"0.011": 5.66907623001,
			"0.012": 4.99743317026,
			"0.013": 3.83410637753,
			"0.014": 2.53434062597,
			"0.015": 0.00781867169933,
			"0.016": 0.0,
			"0.017": 0.0,
			"0.018": 0.0,
			"0.019": 0.0,
			"0.02": 0.0,
			"0.021": 0.0,
			"0.022": 0.0,
			"0.023": 0.0,
			"0.024": 0.0,
			"0.025": 0.0
		}
	}
}
