{
	 "smiles": "CC1=CC(OCC2=CC=CC=C2)=C(N)C=C1", 
	 "Tm": 342.15, 
	 "num_atms": 31, 
	 "gaussian": { 
		 "optdone": 1, 
		 "sigma_profile": "yes", 
		 "theory": "DFT", 
		 "functional": "B3LYP", 
		 "basiset": "6-31G**", 
		 "properties": { 
			 "R2extent": 4431.18, 
			 "electric_dipole_moment_norm": 0.702378096185, 
			 "electric_quadrupole_moment_norm": 7.72917153387, 
			 "total_energy": -672.50439724, 
			 "HOMO_LUMO_gap": 0.18296, 
			 "cosmo_polarized_energy": -9.86, 
			 "cosmo_cavitation_energy": 34.34, 
			 "cosmo_dispersion_energy": -23.69, 
			 "cosmo_repulsion_energy": 1.88, 
			 "cosmo_total_nonelectrostatic_energy": 12.52, 
			 "SMD_solvation_energy": 5.77 
		},
		"coords": [
			{
				"x": 0.3566335079,
				"y": -4.0403113403,
				"z": 0.3225332323,
				"element": "C" 
			},
			{
				"x": 0.536288336,
				"y": -2.5799300764,
				"z": 0.6671353918,
				"element": "C" 
			},
			{
				"x": -0.3346172095,
				"y": -1.6095190941,
				"z": 0.1481380207,
				"element": "C" 
			},
			{
				"x": -0.1768196169,
				"y": -0.2636646989,
				"z": 0.4551299904,
				"element": "C" 
			},
			{
				"x": -1.0703131988,
				"y": 0.6886874885,
				"z": -0.019789465,
				"element": "O" 
			},
			{
				"x": -0.650385055,
				"y": 1.3630642165,
				"z": -1.226522011,
				"element": "C" 
			},
			{
				"x": -0.8419541384,
				"y": 0.5304910232,
				"z": -2.4742109424,
				"element": "C" 
			},
			{
				"x": -2.1143061716,
				"y": 0.0428323506,
				"z": -2.806402768,
				"element": "C" 
			},
			{
				"x": -2.3043910249,
				"y": -0.7134591186,
				"z": -3.9612565859,
				"element": "C" 
			},
			{
				"x": -1.2234255757,
				"y": -0.9889202504,
				"z": -4.804699146,
				"element": "C" 
			},
			{
				"x": 0.0456695508,
				"y": -0.5088383589,
				"z": -4.4823994747,
				"element": "C" 
			},
			{
				"x": 0.2339068424,
				"y": 0.2430806016,
				"z": -3.3197122791,
				"element": "C" 
			},
			{
				"x": 0.8575243779,
				"y": 0.1705895338,
				"z": 1.311063129,
				"element": "C" 
			},
			{
				"x": 0.9972086046,
				"y": 1.538372709,
				"z": 1.5753110173,
				"element": "N" 
			},
			{
				"x": 1.727288394,
				"y": -0.7962367328,
				"z": 1.8277086452,
				"element": "C" 
			},
			{
				"x": 1.5679740661,
				"y": -2.1451713178,
				"z": 1.5045727775,
				"element": "C" 
			},
			{
				"x": 0.4534904834,
				"y": -4.2158628459,
				"z": -0.7556438341,
				"element": "H" 
			},
			{
				"x": 1.1030566494,
				"y": -4.6610225676,
				"z": 0.8267587887,
				"element": "H" 
			},
			{
				"x": -0.6337173077,
				"y": -4.4067137303,
				"z": 0.6182145141,
				"element": "H" 
			},
			{
				"x": -1.1551845738,
				"y": -1.8926392273,
				"z": -0.5042310103,
				"element": "H" 
			},
			{
				"x": 0.3936812005,
				"y": 1.6838152687,
				"z": -1.1316117679,
				"element": "H" 
			},
			{
				"x": -1.2797301673,
				"y": 2.2588122991,
				"z": -1.2675113883,
				"element": "H" 
			},
			{
				"x": -2.9523894582,
				"y": 0.2537342082,
				"z": -2.1473826953,
				"element": "H" 
			},
			{
				"x": -3.2948949313,
				"y": -1.0857124932,
				"z": -4.2079154132,
				"element": "H" 
			},
			{
				"x": -1.3721207092,
				"y": -1.5757515869,
				"z": -5.706741581,
				"element": "H" 
			},
			{
				"x": 0.8909550702,
				"y": -0.7236221881,
				"z": -5.1301450435,
				"element": "H" 
			},
			{
				"x": 1.2259077361,
				"y": 0.608225534,
				"z": -3.065572594,
				"element": "H" 
			},
			{
				"x": 1.486397723,
				"y": 1.744647567,
				"z": 2.4363724053,
				"element": "H" 
			},
			{
				"x": 0.1139989218,
				"y": 2.0312935836,
				"z": 1.5173877627,
				"element": "H" 
			},
			{
				"x": 2.533006714,
				"y": -0.4879422845,
				"z": 2.4900337827,
				"element": "H" 
			},
			{
				"x": 2.2584609601,
				"y": -2.8727284714,
				"z": 1.9240885418,
				"element": "H" 
			}
		],
		 "valence_orbital": [ 
			{
				"type": "occ",
				"energy": -0.27097,
				"method": "rhf"
			},
			{
				"type": "occ",
				"energy": -0.24888,
				"method": "rhf"
			},
			{
				"type": "occ",
				"energy": -0.24354,
				"method": "rhf"
			},
			{
				"type": "occ",
				"energy": -0.23084,
				"method": "rhf"
			},
			{
				"type": "occ",
				"energy": -0.19072,
				"method": "rhf"
			},
			{
				"type": "unocc",
				"energy": -0.00776,
				"method": "rhf"
			},
			{
				"type": "unocc",
				"energy": 0.00071,
				"method": "rhf"
			},
			{
				"type": "unocc",
				"energy": 0.01367,
				"method": "rhf"
			},
			{
				"type": "unocc",
				"energy": 0.02655,
				"method": "rhf"
			},
			{
				"type": "unocc",
				"energy": 0.08876,
				"method": "rhf"
			}
		],
		"cosmo_sigma_profile": { 
			"-0.025": 0.0,
			"-0.024": 0.0,
			"-0.023": 0.0,
			"-0.022": 0.0,
			"-0.021": 0.0,
			"-0.02": 0.0,
			"-0.019": 0.0,
			"-0.018": 0.0,
			"-0.017": 0.0,
			"-0.016": 0.0,
			"-0.015": 0.0,
			"-0.014": 0.0,
			"-0.013": 0.0318903037536,
			"-0.012": 1.10664015833,
			"-0.011": 1.49342718687,
			"-0.01": 2.15866486478,
			"-0.009": 2.55464445572,
			"-0.008": 2.87296743165,
			"-0.007": 2.00213000277,
			"-0.006": 8.87903376169,
			"-0.005": 18.2376320952,
			"-0.004": 23.5638984078,
			"-0.003": 28.0021298405,
			"-0.002": 22.7381025047,
			"-0.001": 20.2185428409,
			"0.0": 19.9785925951,
			"0.001": 20.1955479491,
			"0.002": 14.4795190953,
			"0.003": 15.6154029722,
			"0.004": 16.9784255458,
			"0.005": 18.9739538147,
			"0.006": 15.6559710258,
			"0.007": 6.45105763574,
			"0.008": 2.29087182145,
			"0.009": 1.91440751682,
			"0.01": 1.6662049802,
			"0.011": 1.2914959992,
			"0.012": 1.38683525584,
			"0.013": 0.650518584958,
			"0.014": 0.591937741855,
			"0.015": 0.0329007481869,
			"0.016": 0.0,
			"0.017": 0.0,
			"0.018": 0.0,
			"0.019": 0.0,
			"0.02": 0.0,
			"0.021": 0.0,
			"0.022": 0.0,
			"0.023": 0.0,
			"0.024": 0.0,
			"0.025": 0.0
		}
	}
}
