{
	 "smiles": "ClC1=CC=C(C=C1)C(=O)NC1=NN=C(O1)C1=CC=C(Cl)C=C1", 
	 "Tm": 551.15, 
	 "num_atms": 31, 
	 "gaussian": { 
		 "optdone": 1, 
		 "sigma_profile": "yes", 
		 "theory": "DFT", 
		 "functional": "B3LYP", 
		 "basiset": "6-31G**", 
		 "properties": { 
			 "R2extent": 15184.6124, 
			 "electric_dipole_moment_norm": 2.32141425429, 
			 "electric_quadrupole_moment_norm": 6.50855506084, 
			 "total_energy": -1812.09197232, 
			 "HOMO_LUMO_gap": 0.16803, 
			 "cosmo_polarized_energy": -16.12, 
			 "cosmo_cavitation_energy": 41.5, 
			 "cosmo_dispersion_energy": -30.44, 
			 "cosmo_repulsion_energy": 2.3, 
			 "cosmo_total_nonelectrostatic_energy": 13.36, 
			 "SMD_solvation_energy": 5.75 
		},
		"coords": [
			{
				"x": 6.4090463548,
				"y": 0.8199099104,
				"z": -0.7355076231,
				"element": "Cl" 
			},
			{
				"x": 4.7244938124,
				"y": 0.4717347792,
				"z": -1.0740159242,
				"element": "C" 
			},
			{
				"x": 4.4038094733,
				"y": -0.4362349288,
				"z": -2.0855680456,
				"element": "C" 
			},
			{
				"x": 3.0653950934,
				"y": -0.6992869399,
				"z": -2.3522641368,
				"element": "C" 
			},
			{
				"x": 2.0497154909,
				"y": -0.0873504587,
				"z": -1.6006606386,
				"element": "C" 
			},
			{
				"x": 2.3945173015,
				"y": 0.8249694239,
				"z": -0.594548953,
				"element": "C" 
			},
			{
				"x": 3.7316189782,
				"y": 1.1118440957,
				"z": -0.3322854952,
				"element": "C" 
			},
			{
				"x": 0.6523547223,
				"y": -0.3750337341,
				"z": -2.0191599819,
				"element": "C" 
			},
			{
				"x": 0.3667004834,
				"y": -0.7024821836,
				"z": -3.1596979819,
				"element": "O" 
			},
			{
				"x": -0.425391129,
				"y": -0.2146791391,
				"z": -1.1164257493,
				"element": "N" 
			},
			{
				"x": -0.5117247168,
				"y": -0.4069636142,
				"z": 0.2430442285,
				"element": "C" 
			},
			{
				"x": 0.3949775233,
				"y": -0.5300819163,
				"z": 1.1643315322,
				"element": "N" 
			},
			{
				"x": -0.3063566847,
				"y": -0.7013219769,
				"z": 2.359902808,
				"element": "N" 
			},
			{
				"x": -1.5705879476,
				"y": -0.6705627928,
				"z": 2.0745753924,
				"element": "C" 
			},
			{
				"x": -1.7830614557,
				"y": -0.4821663719,
				"z": 0.7242562713,
				"element": "O" 
			},
			{
				"x": -2.7145338577,
				"y": -0.8041287405,
				"z": 2.9646847478,
				"element": "C" 
			},
			{
				"x": -2.4920710149,
				"y": -1.004037886,
				"z": 4.337635485,
				"element": "C" 
			},
			{
				"x": -3.5649784771,
				"y": -1.1346400299,
				"z": 5.2113105263,
				"element": "C" 
			},
			{
				"x": -4.8675958095,
				"y": -1.0654126523,
				"z": 4.7105340424,
				"element": "C" 
			},
			{
				"x": -6.2231010199,
				"y": -1.22994199,
				"z": 5.8105907297,
				"element": "Cl" 
			},
			{
				"x": -5.1082696931,
				"y": -0.8677928879,
				"z": 3.3508558661,
				"element": "C" 
			},
			{
				"x": -4.0293228226,
				"y": -0.7374116678,
				"z": 2.480138527,
				"element": "C" 
			},
			{
				"x": 5.1904065866,
				"y": -0.9185531691,
				"z": -2.654547867,
				"element": "H" 
			},
			{
				"x": 2.7874642604,
				"y": -1.3799950147,
				"z": -3.1493045733,
				"element": "H" 
			},
			{
				"x": 1.628632884,
				"y": 1.3193134859,
				"z": -0.0115584577,
				"element": "H" 
			},
			{
				"x": 4.0022235039,
				"y": 1.8214588038,
				"z": 0.4409977032,
				"element": "H" 
			},
			{
				"x": -1.3058920103,
				"y": -0.3458961312,
				"z": -1.6021902483,
				"element": "H" 
			},
			{
				"x": -1.4733706955,
				"y": -1.0553785419,
				"z": 4.706368399,
				"element": "H" 
			},
			{
				"x": -3.398277168,
				"y": -1.289160828,
				"z": 6.2713314792,
				"element": "H" 
			},
			{
				"x": -6.1258787796,
				"y": -0.816896379,
				"z": 2.9805595669,
				"element": "H" 
			},
			{
				"x": -4.2096431863,
				"y": -0.5833205244,
				"z": 1.4218183709,
				"element": "H" 
			}
		],
		 "valence_orbital": [ 
			{
				"type": "occ",
				"energy": -0.28267,
				"method": "rhf"
			},
			{
				"type": "occ",
				"energy": -0.2812,
				"method": "rhf"
			},
			{
				"type": "occ",
				"energy": -0.27098,
				"method": "rhf"
			},
			{
				"type": "occ",
				"energy": -0.2573,
				"method": "rhf"
			},
			{
				"type": "occ",
				"energy": -0.23715,
				"method": "rhf"
			},
			{
				"type": "unocc",
				"energy": -0.06912,
				"method": "rhf"
			},
			{
				"type": "unocc",
				"energy": -0.05947,
				"method": "rhf"
			},
			{
				"type": "unocc",
				"energy": -0.03001,
				"method": "rhf"
			},
			{
				"type": "unocc",
				"energy": -0.02182,
				"method": "rhf"
			},
			{
				"type": "unocc",
				"energy": 0.00645,
				"method": "rhf"
			}
		],
		"cosmo_sigma_profile": { 
			"-0.025": 0.0,
			"-0.024": 0.0,
			"-0.023": 0.0,
			"-0.022": 0.0,
			"-0.021": 0.0,
			"-0.02": 0.0,
			"-0.019": 0.0,
			"-0.018": 0.0,
			"-0.017": 0.181446594307,
			"-0.016": 0.584967799453,
			"-0.015": 1.10326069445,
			"-0.014": 1.23244705683,
			"-0.013": 0.756482635073,
			"-0.012": 0.373608499419,
			"-0.011": 1.19305044465,
			"-0.01": 1.14371703441,
			"-0.009": 0.945837441837,
			"-0.008": 5.87505477712,
			"-0.007": 15.4508330848,
			"-0.006": 18.387669211,
			"-0.005": 16.8631963144,
			"-0.004": 18.0575723684,
			"-0.003": 19.731092728,
			"-0.002": 22.9330714922,
			"-0.001": 23.2872394201,
			"0.0": 30.2359639026,
			"0.001": 37.7048004989,
			"0.002": 39.0332138095,
			"0.003": 19.7024892849,
			"0.004": 23.8274854295,
			"0.005": 7.25577429627,
			"0.006": 3.18664159568,
			"0.007": 2.87754397498,
			"0.008": 3.82222933963,
			"0.009": 4.47885402334,
			"0.01": 4.66227661346,
			"0.011": 7.87425978469,
			"0.012": 4.77017855645,
			"0.013": 1.93682675951,
			"0.014": 0.587809524842,
			"0.015": 0.0,
			"0.016": 0.0,
			"0.017": 0.0,
			"0.018": 0.0,
			"0.019": 0.0,
			"0.02": 0.0,
			"0.021": 0.0,
			"0.022": 0.0,
			"0.023": 0.0,
			"0.024": 0.0,
			"0.025": 0.0
		}
	}
}
