{
	 "smiles": "CN(CC1=C(N)C=CC=C1)C(=O)C1=CC2=C(O1)C=CC=C2", 
	 "Tm": 383.15, 
	 "num_atms": 37, 
	 "gaussian": { 
		 "optdone": 1, 
		 "sigma_profile": "yes", 
		 "theory": "DFT", 
		 "functional": "B3LYP", 
		 "basiset": "6-31G**", 
		 "properties": { 
			 "R2extent": 7766.7071, 
			 "electric_dipole_moment_norm": 1.76450809576, 
			 "electric_quadrupole_moment_norm": 17.3308409236, 
			 "total_energy": -917.40621593, 
			 "HOMO_LUMO_gap": 0.15572, 
			 "cosmo_polarized_energy": -14.12, 
			 "cosmo_cavitation_energy": 40.45, 
			 "cosmo_dispersion_energy": -28.4, 
			 "cosmo_repulsion_energy": 2.15, 
			 "cosmo_total_nonelectrostatic_energy": 14.2, 
			 "SMD_solvation_energy": 7.45 
		},
		"coords": [
			{
				"x": 0.2889023627,
				"y": -1.6063982361,
				"z": 2.2185510653,
				"element": "C" 
			},
			{
				"x": -0.1170953494,
				"y": -0.5765091268,
				"z": 1.2612719469,
				"element": "N" 
			},
			{
				"x": 0.7930136496,
				"y": -0.3555005144,
				"z": 0.1189955711,
				"element": "C" 
			},
			{
				"x": 1.2239747708,
				"y": -1.635293965,
				"z": -0.567849831,
				"element": "C" 
			},
			{
				"x": 0.2880319683,
				"y": -2.4289849878,
				"z": -1.2735741904,
				"element": "C" 
			},
			{
				"x": -1.0540133756,
				"y": -2.0484898628,
				"z": -1.3359067504,
				"element": "N" 
			},
			{
				"x": 0.7408292639,
				"y": -3.5675162174,
				"z": -1.9609661323,
				"element": "C" 
			},
			{
				"x": 2.0885355813,
				"y": -3.9175880713,
				"z": -1.9556769049,
				"element": "C" 
			},
			{
				"x": 3.0155138628,
				"y": -3.1451394657,
				"z": -1.2547289499,
				"element": "C" 
			},
			{
				"x": 2.5687289754,
				"y": -2.0153026005,
				"z": -0.5688241651,
				"element": "C" 
			},
			{
				"x": -1.2372003031,
				"y": 0.1622816671,
				"z": 1.5731472046,
				"element": "C" 
			},
			{
				"x": -1.9999198838,
				"y": -0.1628548689,
				"z": 2.4863040942,
				"element": "O" 
			},
			{
				"x": -1.5965553322,
				"y": 1.3916724816,
				"z": 0.8141793622,
				"element": "C" 
			},
			{
				"x": -2.8065255729,
				"y": 2.0202828193,
				"z": 0.843962436,
				"element": "C" 
			},
			{
				"x": -2.6806565998,
				"y": 3.2000486309,
				"z": 0.0356792691,
				"element": "C" 
			},
			{
				"x": -1.349765179,
				"y": 3.1969431513,
				"z": -0.4257538679,
				"element": "C" 
			},
			{
				"x": -0.6858327335,
				"y": 2.0982251065,
				"z": 0.0464767962,
				"element": "O" 
			},
			{
				"x": -0.8130370092,
				"y": 4.1845293347,
				"z": -1.2444808859,
				"element": "C" 
			},
			{
				"x": -1.6730478302,
				"y": 5.2187051272,
				"z": -1.607946538,
				"element": "C" 
			},
			{
				"x": -3.0108293364,
				"y": 5.252897364,
				"z": -1.1642390269,
				"element": "C" 
			},
			{
				"x": -3.5272543382,
				"y": 4.2553093182,
				"z": -0.3454377181,
				"element": "C" 
			},
			{
				"x": 0.1895172605,
				"y": -2.6089254995,
				"z": 1.7916413231,
				"element": "H" 
			},
			{
				"x": 1.3387426826,
				"y": -1.4565293091,
				"z": 2.4955533243,
				"element": "H" 
			},
			{
				"x": -0.3453583112,
				"y": -1.5263341413,
				"z": 3.0989705765,
				"element": "H" 
			},
			{
				"x": 1.6866597248,
				"y": 0.1807690152,
				"z": 0.465103825,
				"element": "H" 
			},
			{
				"x": 0.2870294855,
				"y": 0.286583977,
				"z": -0.6000258219,
				"element": "H" 
			},
			{
				"x": -1.415510693,
				"y": -1.6098654406,
				"z": -0.4997263017,
				"element": "H" 
			},
			{
				"x": -1.6779392197,
				"y": -2.7646882661,
				"z": -1.6820257074,
				"element": "H" 
			},
			{
				"x": 0.0222041608,
				"y": -4.1762941005,
				"z": -2.5051448336,
				"element": "H" 
			},
			{
				"x": 2.4114428623,
				"y": -4.8025637405,
				"z": -2.4970293724,
				"element": "H" 
			},
			{
				"x": 4.0666718546,
				"y": -3.414977651,
				"z": -1.2432499219,
				"element": "H" 
			},
			{
				"x": 3.2813042734,
				"y": -1.4002118919,
				"z": -0.0235606951,
				"element": "H" 
			},
			{
				"x": -3.6656697758,
				"y": 1.6701935916,
				"z": 1.3954920975,
				"element": "H" 
			},
			{
				"x": 0.2180182081,
				"y": 4.1447766076,
				"z": -1.5781711415,
				"element": "H" 
			},
			{
				"x": -1.3046305244,
				"y": 6.0151722232,
				"z": -2.2473172747,
				"element": "H" 
			},
			{
				"x": -3.6473609564,
				"y": 6.0775420059,
				"z": -1.4705339582,
				"element": "H" 
			},
			{
				"x": -4.5583186237,
				"y": 4.2898355357,
				"z": -0.0070589027,
				"element": "H" 
			}
		],
		 "valence_orbital": [ 
			{
				"type": "occ",
				"energy": -0.24676,
				"method": "rhf"
			},
			{
				"type": "occ",
				"energy": -0.24429,
				"method": "rhf"
			},
			{
				"type": "occ",
				"energy": -0.24074,
				"method": "rhf"
			},
			{
				"type": "occ",
				"energy": -0.22581,
				"method": "rhf"
			},
			{
				"type": "occ",
				"energy": -0.20444,
				"method": "rhf"
			},
			{
				"type": "unocc",
				"energy": -0.04872,
				"method": "rhf"
			},
			{
				"type": "unocc",
				"energy": -0.00143,
				"method": "rhf"
			},
			{
				"type": "unocc",
				"energy": 0.00446,
				"method": "rhf"
			},
			{
				"type": "unocc",
				"energy": 0.01346,
				"method": "rhf"
			},
			{
				"type": "unocc",
				"energy": 0.02246,
				"method": "rhf"
			}
		],
		"cosmo_sigma_profile": { 
			"-0.025": 0.0,
			"-0.024": 0.0,
			"-0.023": 0.0,
			"-0.022": 0.0,
			"-0.021": 0.0,
			"-0.02": 0.0,
			"-0.019": 0.0,
			"-0.018": 0.0,
			"-0.017": 0.0,
			"-0.016": 0.0,
			"-0.015": 0.0,
			"-0.014": 0.0,
			"-0.013": 0.155801595652,
			"-0.012": 1.28582059891,
			"-0.011": 1.23186040207,
			"-0.01": 1.74610501871,
			"-0.009": 3.05296706569,
			"-0.008": 3.05042823654,
			"-0.007": 6.47393327223,
			"-0.006": 14.667063716,
			"-0.005": 25.1508313446,
			"-0.004": 27.2053005372,
			"-0.003": 25.9143865899,
			"-0.002": 27.2555390635,
			"-0.001": 26.5099009121,
			"0.0": 21.2760468885,
			"0.001": 21.6560322022,
			"0.002": 20.7631821611,
			"0.003": 21.7123014687,
			"0.004": 20.5104731884,
			"0.005": 16.2185404069,
			"0.006": 9.87228034759,
			"0.007": 7.97178430448,
			"0.008": 2.84055370918,
			"0.009": 1.56387338872,
			"0.01": 2.32412270743,
			"0.011": 1.99412428254,
			"0.012": 2.74541373472,
			"0.013": 4.82008054826,
			"0.014": 2.87278780397,
			"0.015": 0.0932428550692,
			"0.016": 0.0,
			"0.017": 0.0,
			"0.018": 0.0,
			"0.019": 0.0,
			"0.02": 0.0,
			"0.021": 0.0,
			"0.022": 0.0,
			"0.023": 0.0,
			"0.024": 0.0,
			"0.025": 0.0
		}
	}
}
