{
	 "smiles": "CC1(C)C2CCC1(C)CC2COC(=O)C1=CC=C(C=C1)[N+]([O-])=O", 
	 "Tm": 373.15, 
	 "num_atms": 46, 
	 "gaussian": { 
		 "optdone": 1, 
		 "sigma_profile": "yes", 
		 "theory": "DFT", 
		 "functional": "B3LYP", 
		 "basiset": "6-31G**", 
		 "properties": { 
			 "R2extent": 12943.4457, 
			 "electric_dipole_moment_norm": 4.85320253956, 
			 "electric_quadrupole_moment_norm": 27.3428661592, 
			 "total_energy": -1055.34971782, 
			 "HOMO_LUMO_gap": 0.18116, 
			 "cosmo_polarized_energy": -10.25, 
			 "cosmo_cavitation_energy": 46.15, 
			 "cosmo_dispersion_energy": -31.95, 
			 "cosmo_repulsion_energy": 2.38, 
			 "cosmo_total_nonelectrostatic_energy": 16.58, 
			 "SMD_solvation_energy": 10.42 
		},
		"coords": [
			{
				"x": -0.386391446,
				"y": 1.6743438403,
				"z": -2.9698959167,
				"element": "C" 
			},
			{
				"x": 0.4221566531,
				"y": 0.4827824948,
				"z": -2.4215069399,
				"element": "C" 
			},
			{
				"x": -0.146796719,
				"y": -0.7781101455,
				"z": -3.1012532101,
				"element": "C" 
			},
			{
				"x": 0.4660789453,
				"y": 0.4147722805,
				"z": -0.8587187032,
				"element": "C" 
			},
			{
				"x": 1.1929351827,
				"y": 1.7293208781,
				"z": -0.4923472334,
				"element": "C" 
			},
			{
				"x": 2.2489632578,
				"y": 1.8737531545,
				"z": -1.6314296899,
				"element": "C" 
			},
			{
				"x": 1.9853324612,
				"y": 0.6411328768,
				"z": -2.5419902045,
				"element": "C" 
			},
			{
				"x": 2.5809456694,
				"y": 0.761630043,
				"z": -3.9391614511,
				"element": "C" 
			},
			{
				"x": 2.4906151007,
				"y": -0.5959853368,
				"z": -1.7462194032,
				"element": "C" 
			},
			{
				"x": 1.4224326545,
				"y": -0.7867885251,
				"z": -0.6195444782,
				"element": "C" 
			},
			{
				"x": 2.054786111,
				"y": -0.9126551759,
				"z": 0.7615550712,
				"element": "C" 
			},
			{
				"x": 1.0546226697,
				"y": -0.954390109,
				"z": 1.8136424347,
				"element": "O" 
			},
			{
				"x": 0.5306109473,
				"y": -2.1601454359,
				"z": 2.1075063731,
				"element": "C" 
			},
			{
				"x": 0.8471388355,
				"y": -3.1977520765,
				"z": 1.5584138146,
				"element": "O" 
			},
			{
				"x": -0.4906088694,
				"y": -2.0816730953,
				"z": 3.1998391845,
				"element": "C" 
			},
			{
				"x": -0.8411055391,
				"y": -0.8693776853,
				"z": 3.811123716,
				"element": "C" 
			},
			{
				"x": -1.7969848659,
				"y": -0.8486903473,
				"z": 4.8225421678,
				"element": "C" 
			},
			{
				"x": -2.3886430591,
				"y": -2.0506028032,
				"z": 5.2065693312,
				"element": "C" 
			},
			{
				"x": -2.057561574,
				"y": -3.2686814564,
				"z": 4.6147794618,
				"element": "C" 
			},
			{
				"x": -1.1016639416,
				"y": -3.2764861062,
				"z": 3.604981317,
				"element": "C" 
			},
			{
				"x": -3.4023453604,
				"y": -2.032631084,
				"z": 6.2783095409,
				"element": "N" 
			},
			{
				"x": -3.6773537977,
				"y": -0.9454381573,
				"z": 6.7837741938,
				"element": "O" 
			},
			{
				"x": -3.9097324503,
				"y": -3.1058853702,
				"z": 6.5997023414,
				"element": "O" 
			},
			{
				"x": -1.4482578415,
				"y": 1.5536914741,
				"z": -2.7265473505,
				"element": "H" 
			},
			{
				"x": -0.3100026731,
				"y": 1.7191024211,
				"z": -4.0618818005,
				"element": "H" 
			},
			{
				"x": -0.0700438191,
				"y": 2.6437768137,
				"z": -2.5814373138,
				"element": "H" 
			},
			{
				"x": -0.1115614793,
				"y": -0.6716495957,
				"z": -4.1909987448,
				"element": "H" 
			},
			{
				"x": 0.3797885748,
				"y": -1.7002602045,
				"z": -2.8497999058,
				"element": "H" 
			},
			{
				"x": -1.1987437796,
				"y": -0.9151142962,
				"z": -2.8255577647,
				"element": "H" 
			},
			{
				"x": -0.5055749506,
				"y": 0.2969694893,
				"z": -0.3694616161,
				"element": "H" 
			},
			{
				"x": 1.6411962223,
				"y": 1.7008687099,
				"z": 0.5042272682,
				"element": "H" 
			},
			{
				"x": 0.4932355116,
				"y": 2.5695633621,
				"z": -0.4843967565,
				"element": "H" 
			},
			{
				"x": 2.1186881491,
				"y": 2.8089311471,
				"z": -2.1855814251,
				"element": "H" 
			},
			{
				"x": 3.2785263009,
				"y": 1.8730434062,
				"z": -1.2568954648,
				"element": "H" 
			},
			{
				"x": 2.364569962,
				"y": -0.1234713485,
				"z": -4.5477215243,
				"element": "H" 
			},
			{
				"x": 3.6711750783,
				"y": 0.8676696242,
				"z": -3.8924704833,
				"element": "H" 
			},
			{
				"x": 2.1904341623,
				"y": 1.6382911549,
				"z": -4.4677526078,
				"element": "H" 
			},
			{
				"x": 3.495816268,
				"y": -0.416933675,
				"z": -1.344570569,
				"element": "H" 
			},
			{
				"x": 2.5632195164,
				"y": -1.4844931556,
				"z": -2.3810665684,
				"element": "H" 
			},
			{
				"x": 0.8699163844,
				"y": -1.7156104247,
				"z": -0.7858263461,
				"element": "H" 
			},
			{
				"x": 2.6578923518,
				"y": -1.8221984807,
				"z": 0.818142691,
				"element": "H" 
			},
			{
				"x": 2.6786044243,
				"y": -0.0534736159,
				"z": 1.0158116657,
				"element": "H" 
			},
			{
				"x": -0.3639836457,
				"y": 0.0490202967,
				"z": 3.4913769283,
				"element": "H" 
			},
			{
				"x": -2.0896996476,
				"y": 0.070245406,
				"z": 5.3143326951,
				"element": "H" 
			},
			{
				"x": -2.5461584144,
				"y": -4.1749996037,
				"z": 4.9492094485,
				"element": "H" 
			},
			{
				"x": -0.8124675212,
				"y": -4.1998115627,
				"z": 3.1157938267,
				"element": "H" 
			}
		],
		 "valence_orbital": [ 
			{
				"type": "occ",
				"energy": -0.29302,
				"method": "rhf"
			},
			{
				"type": "occ",
				"energy": -0.28837,
				"method": "rhf"
			},
			{
				"type": "occ",
				"energy": -0.28679,
				"method": "rhf"
			},
			{
				"type": "occ",
				"energy": -0.28447,
				"method": "rhf"
			},
			{
				"type": "occ",
				"energy": -0.28295,
				"method": "rhf"
			},
			{
				"type": "unocc",
				"energy": -0.10179,
				"method": "rhf"
			},
			{
				"type": "unocc",
				"energy": -0.03669,
				"method": "rhf"
			},
			{
				"type": "unocc",
				"energy": -0.03254,
				"method": "rhf"
			},
			{
				"type": "unocc",
				"energy": 0.04921,
				"method": "rhf"
			},
			{
				"type": "unocc",
				"energy": 0.0626,
				"method": "rhf"
			}
		],
		"cosmo_sigma_profile": { 
			"-0.025": 0.0,
			"-0.024": 0.0,
			"-0.023": 0.0,
			"-0.022": 0.0,
			"-0.021": 0.0,
			"-0.02": 0.0,
			"-0.019": 0.0,
			"-0.018": 0.0,
			"-0.017": 0.0,
			"-0.016": 0.0,
			"-0.015": 0.0,
			"-0.014": 0.0,
			"-0.013": 0.0,
			"-0.012": 0.0,
			"-0.011": 0.0,
			"-0.01": 0.0,
			"-0.009": 0.106086098051,
			"-0.008": 2.42525356954,
			"-0.007": 7.69493873524,
			"-0.006": 8.14879002716,
			"-0.005": 9.63511694847,
			"-0.004": 15.6822151618,
			"-0.003": 30.0842173964,
			"-0.002": 50.4877498018,
			"-0.001": 55.0298971593,
			"0.0": 55.058795296,
			"0.001": 45.2492254881,
			"0.002": 24.5463665005,
			"0.003": 7.18174917814,
			"0.004": 6.19211521043,
			"0.005": 5.57265340448,
			"0.006": 6.28732251183,
			"0.007": 10.5372231893,
			"0.008": 6.92121373822,
			"0.009": 6.22795035778,
			"0.01": 3.11786443474,
			"0.011": 3.65367305541,
			"0.012": 1.73087511526,
			"0.013": 0.0,
			"0.014": 0.0,
			"0.015": 0.0,
			"0.016": 0.0,
			"0.017": 0.0,
			"0.018": 0.0,
			"0.019": 0.0,
			"0.02": 0.0,
			"0.021": 0.0,
			"0.022": 0.0,
			"0.023": 0.0,
			"0.024": 0.0,
			"0.025": 0.0
		}
	}
}
