{
	 "smiles": "CCN1N=NN=C1S", 
	 "Tm": 292.15, 
	 "num_atms": 14, 
	 "gaussian": { 
		 "optdone": 1, 
		 "sigma_profile": "yes", 
		 "theory": "DFT", 
		 "functional": "B3LYP", 
		 "basiset": "6-31G**", 
		 "properties": { 
			 "R2extent": 1639.3199, 
			 "electric_dipole_moment_norm": 4.96361817528, 
			 "electric_quadrupole_moment_norm": 11.6420649388, 
			 "total_energy": -735.06972016, 
			 "HOMO_LUMO_gap": 0.24523, 
			 "cosmo_polarized_energy": -13.14, 
			 "cosmo_cavitation_energy": 20.03, 
			 "cosmo_dispersion_energy": -15.1, 
			 "cosmo_repulsion_energy": 1.21, 
			 "cosmo_total_nonelectrostatic_energy": 6.15, 
			 "SMD_solvation_energy": 1.27 
		},
		"coords": [
			{
				"x": -0.6751383185,
				"y": 0.5500965458,
				"z": 1.3336854949,
				"element": "C" 
			},
			{
				"x": 0.0039225996,
				"y": -0.8105337572,
				"z": 1.4945427693,
				"element": "C" 
			},
			{
				"x": 0.5999269051,
				"y": -1.290166915,
				"z": 0.2491421676,
				"element": "N" 
			},
			{
				"x": 1.8898735527,
				"y": -0.9982378641,
				"z": -0.0729499921,
				"element": "N" 
			},
			{
				"x": 2.1066607775,
				"y": -1.5172326462,
				"z": -1.2338186648,
				"element": "N" 
			},
			{
				"x": 0.9990827778,
				"y": -2.1455043863,
				"z": -1.7137211483,
				"element": "N" 
			},
			{
				"x": 0.075111169,
				"y": -1.9905010119,
				"z": -0.7802447925,
				"element": "C" 
			},
			{
				"x": -1.5779768893,
				"y": -2.5913078333,
				"z": -0.8249007647,
				"element": "S" 
			},
			{
				"x": -1.4939355954,
				"y": 0.5031940018,
				"z": 0.6099147808,
				"element": "H" 
			},
			{
				"x": -1.0861866722,
				"y": 0.8729145739,
				"z": 2.2948099898,
				"element": "H" 
			},
			{
				"x": 0.045783841,
				"y": 1.2988840086,
				"z": 0.9954915834,
				"element": "H" 
			},
			{
				"x": -0.7024706129,
				"y": -1.5728036135,
				"z": 1.8378998641,
				"element": "H" 
			},
			{
				"x": 0.8205644097,
				"y": -0.7608647708,
				"z": 2.217762264,
				"element": "H" 
			},
			{
				"x": -1.388517944,
				"y": -3.2431363321,
				"z": -1.9877135516,
				"element": "H" 
			}
		],
		 "valence_orbital": [ 
			{
				"type": "occ",
				"energy": -0.34422,
				"method": "rhf"
			},
			{
				"type": "occ",
				"energy": -0.31035,
				"method": "rhf"
			},
			{
				"type": "occ",
				"energy": -0.29668,
				"method": "rhf"
			},
			{
				"type": "occ",
				"energy": -0.28536,
				"method": "rhf"
			},
			{
				"type": "occ",
				"energy": -0.26069,
				"method": "rhf"
			},
			{
				"type": "unocc",
				"energy": -0.01546,
				"method": "rhf"
			},
			{
				"type": "unocc",
				"energy": -0.01062,
				"method": "rhf"
			},
			{
				"type": "unocc",
				"energy": 0.02164,
				"method": "rhf"
			},
			{
				"type": "unocc",
				"energy": 0.04308,
				"method": "rhf"
			},
			{
				"type": "unocc",
				"energy": 0.09354,
				"method": "rhf"
			}
		],
		"cosmo_sigma_profile": { 
			"-0.025": 0.0,
			"-0.024": 0.0,
			"-0.023": 0.0,
			"-0.022": 0.0,
			"-0.021": 0.0,
			"-0.02": 0.0,
			"-0.019": 0.0,
			"-0.018": 0.0,
			"-0.017": 0.0,
			"-0.016": 0.0,
			"-0.015": 0.0,
			"-0.014": 0.00242436348968,
			"-0.013": 1.32303155585,
			"-0.012": 1.80961114574,
			"-0.011": 0.823451439229,
			"-0.01": 1.52562944648,
			"-0.009": 1.46102137869,
			"-0.008": 2.4033167956,
			"-0.007": 7.18104445277,
			"-0.006": 7.43836075859,
			"-0.005": 12.8650362838,
			"-0.004": 16.0182288195,
			"-0.003": 14.5949393636,
			"-0.002": 13.485441376,
			"-0.001": 11.8130902998,
			"0.0": 10.0699153128,
			"0.001": 6.47482921214,
			"0.002": 5.24112960532,
			"0.003": 4.49276923985,
			"0.004": 4.13880022879,
			"0.005": 4.571789474,
			"0.006": 4.48391848452,
			"0.007": 3.51500567143,
			"0.008": 4.664442888,
			"0.009": 4.66767989244,
			"0.01": 4.85362443625,
			"0.011": 4.27278441542,
			"0.012": 3.57232558452,
			"0.013": 2.31722922245,
			"0.014": 1.65608238784,
			"0.015": 0.299228695175,
			"0.016": 0.0,
			"0.017": 0.0,
			"0.018": 0.0,
			"0.019": 0.0,
			"0.02": 0.0,
			"0.021": 0.0,
			"0.022": 0.0,
			"0.023": 0.0,
			"0.024": 0.0,
			"0.025": 0.0
		}
	}
}
