{
	 "smiles": "CN1C=NC2=C1N=CN=C2N", 
	 "Tm": 574.15, 
	 "num_atms": 18, 
	 "gaussian": { 
		 "optdone": 1, 
		 "sigma_profile": "yes", 
		 "theory": "DFT", 
		 "functional": "B3LYP", 
		 "basiset": "6-31G**", 
		 "properties": { 
			 "R2extent": 1959.1851, 
			 "electric_dipole_moment_norm": 2.52344652806, 
			 "electric_quadrupole_moment_norm": 18.0965489077, 
			 "total_energy": -506.634912991, 
			 "HOMO_LUMO_gap": 0.19981, 
			 "cosmo_polarized_energy": -14.22, 
			 "cosmo_cavitation_energy": 22.3, 
			 "cosmo_dispersion_energy": -16.93, 
			 "cosmo_repulsion_energy": 1.35, 
			 "cosmo_total_nonelectrostatic_energy": 6.72, 
			 "SMD_solvation_energy": -0.28 
		},
		"coords": [
			{
				"x": -0.0315785066,
				"y": 0.660845003,
				"z": 3.7217407669,
				"element": "C" 
			},
			{
				"x": -0.1574086576,
				"y": 0.9303757395,
				"z": 2.3000678177,
				"element": "N" 
			},
			{
				"x": -1.2220532398,
				"y": 1.5053063351,
				"z": 1.6329872874,
				"element": "C" 
			},
			{
				"x": -1.0456028821,
				"y": 1.6199864373,
				"z": 0.3376928417,
				"element": "N" 
			},
			{
				"x": 0.2150781349,
				"y": 1.088382646,
				"z": 0.1316615088,
				"element": "C" 
			},
			{
				"x": 0.7854109542,
				"y": 0.6522267751,
				"z": 1.3329277021,
				"element": "C" 
			},
			{
				"x": 1.9880563076,
				"y": 0.0837894651,
				"z": 1.4937063421,
				"element": "N" 
			},
			{
				"x": 2.6250527067,
				"y": -0.0359366879,
				"z": 0.3245294679,
				"element": "C" 
			},
			{
				"x": 2.212784144,
				"y": 0.3295343066,
				"z": -0.9013312935,
				"element": "N" 
			},
			{
				"x": 1.0025490805,
				"y": 0.9035954578,
				"z": -1.0243904536,
				"element": "C" 
			},
			{
				"x": 0.5900756474,
				"y": 1.3045085064,
				"z": -2.2535170914,
				"element": "N" 
			},
			{
				"x": 0.10482595,
				"y": -0.4096813311,
				"z": 3.8964530827,
				"element": "H" 
			},
			{
				"x": -0.939191187,
				"y": 0.9956270035,
				"z": 4.2273189293,
				"element": "H" 
			},
			{
				"x": 0.8290430621,
				"y": 1.1928212448,
				"z": 4.1357218539,
				"element": "H" 
			},
			{
				"x": -2.1072359257,
				"y": 1.8198490865,
				"z": 2.1716091608,
				"element": "H" 
			},
			{
				"x": 3.611923833,
				"y": -0.4931305762,
				"z": 0.3646341119,
				"element": "H" 
			},
			{
				"x": -0.3684906449,
				"y": 1.5862380438,
				"z": -2.3803206526,
				"element": "H" 
			},
			{
				"x": 1.1312612233,
				"y": 1.0109625448,
				"z": -3.051091382,
				"element": "H" 
			}
		],
		 "valence_orbital": [ 
			{
				"type": "occ",
				"energy": -0.27954,
				"method": "rhf"
			},
			{
				"type": "occ",
				"energy": -0.27697,
				"method": "rhf"
			},
			{
				"type": "occ",
				"energy": -0.25706,
				"method": "rhf"
			},
			{
				"type": "occ",
				"energy": -0.24361,
				"method": "rhf"
			},
			{
				"type": "occ",
				"energy": -0.21439,
				"method": "rhf"
			},
			{
				"type": "unocc",
				"energy": -0.01458,
				"method": "rhf"
			},
			{
				"type": "unocc",
				"energy": 0.01106,
				"method": "rhf"
			},
			{
				"type": "unocc",
				"energy": 0.04715,
				"method": "rhf"
			},
			{
				"type": "unocc",
				"energy": 0.09004,
				"method": "rhf"
			},
			{
				"type": "unocc",
				"energy": 0.09357,
				"method": "rhf"
			}
		],
		"cosmo_sigma_profile": { 
			"-0.025": 0.0,
			"-0.024": 0.0,
			"-0.023": 0.0,
			"-0.022": 0.0,
			"-0.021": 0.0,
			"-0.02": 0.0,
			"-0.019": 0.0,
			"-0.018": 0.0,
			"-0.017": 0.0,
			"-0.016": 0.0,
			"-0.015": 0.0110595611584,
			"-0.014": 1.19173363794,
			"-0.013": 1.98148401876,
			"-0.012": 1.93557387745,
			"-0.011": 1.71538483936,
			"-0.01": 3.78719320291,
			"-0.009": 5.84525349652,
			"-0.008": 3.76883817751,
			"-0.007": 6.03681230442,
			"-0.006": 10.2934181314,
			"-0.005": 10.3665609954,
			"-0.004": 10.1657251937,
			"-0.003": 13.2306735023,
			"-0.002": 8.23008374428,
			"-0.001": 9.56928488502,
			"0.0": 11.8475366585,
			"0.001": 12.8581977041,
			"0.002": 9.76254907469,
			"0.003": 8.20798237592,
			"0.004": 6.93919724296,
			"0.005": 6.11709115796,
			"0.006": 4.44538589942,
			"0.007": 4.49278798434,
			"0.008": 3.88616760443,
			"0.009": 4.12787286034,
			"0.01": 3.18677398424,
			"0.011": 2.48416956583,
			"0.012": 2.67603880161,
			"0.013": 3.54263886051,
			"0.014": 2.55288853657,
			"0.015": 1.97029182031,
			"0.016": 1.24629619805,
			"0.017": 0.0,
			"0.018": 0.0,
			"0.019": 0.0,
			"0.02": 0.0,
			"0.021": 0.0,
			"0.022": 0.0,
			"0.023": 0.0,
			"0.024": 0.0,
			"0.025": 0.0
		}
	}
}
