{
	 "smiles": "CC(=O)N=C1/SC(=NN1C1=C(C=CC=C1)[N+]([O-])=O)C(C)=O", 
	 "Tm": 457.15, 
	 "num_atms": 31, 
	 "gaussian": { 
		 "optdone": 1, 
		 "sigma_profile": "yes", 
		 "theory": "DFT", 
		 "functional": "B3LYP", 
		 "basiset": "6-31G**", 
		 "properties": { 
			 "R2extent": 6997.1348, 
			 "electric_dipole_moment_norm": 7.54020036405, 
			 "electric_quadrupole_moment_norm": 14.5315958576, 
			 "total_energy": -1381.26490655, 
			 "HOMO_LUMO_gap": 0.14879, 
			 "cosmo_polarized_energy": -17.92, 
			 "cosmo_cavitation_energy": 39.05, 
			 "cosmo_dispersion_energy": -26.95, 
			 "cosmo_repulsion_energy": 2.03, 
			 "cosmo_total_nonelectrostatic_energy": 14.13, 
			 "SMD_solvation_energy": 9.29 
		},
		"coords": [
			{
				"x": 4.3179271812,
				"y": 2.4368362143,
				"z": -0.6968336602,
				"element": "C" 
			},
			{
				"x": 3.4243258024,
				"y": 1.3552479591,
				"z": -0.1436363031,
				"element": "C" 
			},
			{
				"x": 3.8502179652,
				"y": 0.2728739669,
				"z": 0.2525703868,
				"element": "O" 
			},
			{
				"x": 2.0707943056,
				"y": 1.6988122233,
				"z": -0.1275006542,
				"element": "N" 
			},
			{
				"x": 1.2462238191,
				"y": 0.8020700799,
				"z": 0.301605128,
				"element": "C" 
			},
			{
				"x": 1.5614150661,
				"y": -0.8283815387,
				"z": 0.9247627127,
				"element": "S" 
			},
			{
				"x": -0.1787217063,
				"y": -0.9802830289,
				"z": 1.1842563653,
				"element": "C" 
			},
			{
				"x": -0.9037789721,
				"y": 0.0423355451,
				"z": 0.8518551666,
				"element": "N" 
			},
			{
				"x": -0.1217366951,
				"y": 1.0312906953,
				"z": 0.3438979167,
				"element": "N" 
			},
			{
				"x": -0.7440265511,
				"y": 2.2639561755,
				"z": -0.0088066464,
				"element": "C" 
			},
			{
				"x": -0.5019679327,
				"y": 2.9297081205,
				"z": -1.2199276925,
				"element": "C" 
			},
			{
				"x": -1.071939739,
				"y": 4.174587176,
				"z": -1.4765159544,
				"element": "C" 
			},
			{
				"x": -1.9344837628,
				"y": 4.7488839601,
				"z": -0.5463016284,
				"element": "C" 
			},
			{
				"x": -2.2109114531,
				"y": 4.0792603998,
				"z": 0.6463524052,
				"element": "C" 
			},
			{
				"x": -1.6050269951,
				"y": 2.8542065676,
				"z": 0.9191598026,
				"element": "C" 
			},
			{
				"x": 0.2888664,
				"y": 2.3283551556,
				"z": -2.3064681681,
				"element": "N" 
			},
			{
				"x": 0.9270388898,
				"y": 3.0931230198,
				"z": -3.0246777175,
				"element": "O" 
			},
			{
				"x": 0.2126880627,
				"y": 1.1117843944,
				"z": -2.4535205466,
				"element": "O" 
			},
			{
				"x": -0.7598374677,
				"y": -2.2288050089,
				"z": 1.7538768485,
				"element": "C" 
			},
			{
				"x": -2.2609336743,
				"y": -2.29349172,
				"z": 1.9162326028,
				"element": "C" 
			},
			{
				"x": -0.0091511119,
				"y": -3.1396622251,
				"z": 2.0580351797,
				"element": "O" 
			},
			{
				"x": 4.2560048468,
				"y": 3.3271389346,
				"z": -0.0618004309,
				"element": "H" 
			},
			{
				"x": 3.9677941427,
				"y": 2.7305598331,
				"z": -1.691388492,
				"element": "H" 
			},
			{
				"x": 5.3488764801,
				"y": 2.0862229209,
				"z": -0.7436894185,
				"element": "H" 
			},
			{
				"x": -0.8383723381,
				"y": 4.6634328827,
				"z": -2.4144909543,
				"element": "H" 
			},
			{
				"x": -2.3892080907,
				"y": 5.711417954,
				"z": -0.7557652361,
				"element": "H" 
			},
			{
				"x": -2.8822779603,
				"y": 4.5177450314,
				"z": 1.3777261967,
				"element": "H" 
			},
			{
				"x": -1.7843594613,
				"y": 2.3399838585,
				"z": 1.8563387481,
				"element": "H" 
			},
			{
				"x": -2.6176337801,
				"y": -1.465743436,
				"z": 2.5368386091,
				"element": "H" 
			},
			{
				"x": -2.75133161,
				"y": -2.1943887694,
				"z": 0.9424580126,
				"element": "H" 
			},
			{
				"x": -2.5257736596,
				"y": -3.2477773413,
				"z": 2.3721574215,
				"element": "H" 
			}
		],
		 "valence_orbital": [ 
			{
				"type": "occ",
				"energy": -0.28904,
				"method": "rhf"
			},
			{
				"type": "occ",
				"energy": -0.28575,
				"method": "rhf"
			},
			{
				"type": "occ",
				"energy": -0.27526,
				"method": "rhf"
			},
			{
				"type": "occ",
				"energy": -0.25391,
				"method": "rhf"
			},
			{
				"type": "occ",
				"energy": -0.2451,
				"method": "rhf"
			},
			{
				"type": "unocc",
				"energy": -0.09631,
				"method": "rhf"
			},
			{
				"type": "unocc",
				"energy": -0.08538,
				"method": "rhf"
			},
			{
				"type": "unocc",
				"energy": -0.05427,
				"method": "rhf"
			},
			{
				"type": "unocc",
				"energy": -0.03137,
				"method": "rhf"
			},
			{
				"type": "unocc",
				"energy": -0.02014,
				"method": "rhf"
			}
		],
		"cosmo_sigma_profile": { 
			"-0.025": 0.0,
			"-0.024": 0.0,
			"-0.023": 0.0,
			"-0.022": 0.0,
			"-0.021": 0.0,
			"-0.02": 0.0,
			"-0.019": 0.0,
			"-0.018": 0.0,
			"-0.017": 0.0,
			"-0.016": 0.0,
			"-0.015": 0.0,
			"-0.014": 0.0,
			"-0.013": 0.0,
			"-0.012": 0.0,
			"-0.011": 0.0,
			"-0.01": 0.0,
			"-0.009": 0.840264757809,
			"-0.008": 8.01381388713,
			"-0.007": 16.1271222765,
			"-0.006": 19.4424172081,
			"-0.005": 20.0000566368,
			"-0.004": 22.4467050574,
			"-0.003": 22.9982302281,
			"-0.002": 27.1313216753,
			"-0.001": 26.6173147159,
			"0.0": 24.3052473241,
			"0.001": 25.6461030389,
			"0.002": 14.3651199768,
			"0.003": 11.5435455165,
			"0.004": 10.8327669521,
			"0.005": 8.36910775463,
			"0.006": 11.0137356155,
			"0.007": 13.1521518668,
			"0.008": 9.80751145138,
			"0.009": 7.77328493773,
			"0.01": 6.65084969843,
			"0.011": 4.39900468136,
			"0.012": 2.55804359316,
			"0.013": 1.26159285854,
			"0.014": 0.0148984640677,
			"0.015": 0.0,
			"0.016": 0.0,
			"0.017": 0.0,
			"0.018": 0.0,
			"0.019": 0.0,
			"0.02": 0.0,
			"0.021": 0.0,
			"0.022": 0.0,
			"0.023": 0.0,
			"0.024": 0.0,
			"0.025": 0.0
		}
	}
}
