{
	 "smiles": "CC(C)CCCCCCCCCCCO", 
	 "Tm": 283.65, 
	 "num_atms": 45, 
	 "gaussian": { 
		 "optdone": 1, 
		 "sigma_profile": "yes", 
		 "theory": "DFT", 
		 "functional": "B3LYP", 
		 "basiset": "6-31G**", 
		 "properties": { 
			 "R2extent": 7965.6163, 
			 "electric_dipole_moment_norm": 1.45340720034, 
			 "electric_quadrupole_moment_norm": 11.6102342328, 
			 "total_energy": -626.821822733, 
			 "HOMO_LUMO_gap": 0.33361, 
			 "cosmo_polarized_energy": -6.01, 
			 "cosmo_cavitation_energy": 43.52, 
			 "cosmo_dispersion_energy": -29.84, 
			 "cosmo_repulsion_energy": 2.45, 
			 "cosmo_total_nonelectrostatic_energy": 16.13, 
			 "SMD_solvation_energy": 6.18 
		},
		"coords": [
			{
				"x": -1.362661302,
				"y": -4.8719971552,
				"z": 0.5501980255,
				"element": "C" 
			},
			{
				"x": -1.715306477,
				"y": -3.6258183296,
				"z": 1.3770635747,
				"element": "C" 
			},
			{
				"x": -2.6469472267,
				"y": -4.0010574421,
				"z": 2.5396028894,
				"element": "C" 
			},
			{
				"x": -2.3419436193,
				"y": -2.5040202458,
				"z": 0.5232950802,
				"element": "C" 
			},
			{
				"x": -1.4156773614,
				"y": -1.9015036777,
				"z": -0.542806526,
				"element": "C" 
			},
			{
				"x": -2.060069848,
				"y": -0.7856990183,
				"z": -1.3866025244,
				"element": "C" 
			},
			{
				"x": -2.4756310915,
				"y": 0.4875426566,
				"z": -0.628241531,
				"element": "C" 
			},
			{
				"x": -1.3158712781,
				"y": 1.2527204785,
				"z": 0.0258136828,
				"element": "C" 
			},
			{
				"x": -1.7669587203,
				"y": 2.5678382572,
				"z": 0.6768633362,
				"element": "C" 
			},
			{
				"x": -0.684130642,
				"y": 3.3484873416,
				"z": 1.4438911172,
				"element": "C" 
			},
			{
				"x": 0.4881134013,
				"y": 3.8790048783,
				"z": 0.5847499011,
				"element": "C" 
			},
			{
				"x": 1.7365241083,
				"y": 2.9771694422,
				"z": 0.5173160505,
				"element": "C" 
			},
			{
				"x": 2.5521072221,
				"y": 2.8895809156,
				"z": 1.8200693875,
				"element": "C" 
			},
			{
				"x": 3.2919109726,
				"y": 4.1719564447,
				"z": 2.1900792814,
				"element": "C" 
			},
			{
				"x": 4.2200454043,
				"y": 4.4663334811,
				"z": 1.1502221906,
				"element": "O" 
			},
			{
				"x": -2.2597842411,
				"y": -5.2914188939,
				"z": 0.0775604257,
				"element": "H" 
			},
			{
				"x": -0.9279890035,
				"y": -5.6524290059,
				"z": 1.1844204205,
				"element": "H" 
			},
			{
				"x": -0.6403561101,
				"y": -4.6528752811,
				"z": -0.2418392608,
				"element": "H" 
			},
			{
				"x": -0.7822169095,
				"y": -3.2324199475,
				"z": 1.808968619,
				"element": "H" 
			},
			{
				"x": -3.6002021855,
				"y": -4.394722916,
				"z": 2.1653804578,
				"element": "H" 
			},
			{
				"x": -2.8713266439,
				"y": -3.1330254803,
				"z": 3.1693852566,
				"element": "H" 
			},
			{
				"x": -2.1991799992,
				"y": -4.7713085748,
				"z": 3.177163035,
				"element": "H" 
			},
			{
				"x": -2.6787097019,
				"y": -1.7084520064,
				"z": 1.2007480003,
				"element": "H" 
			},
			{
				"x": -3.2508853551,
				"y": -2.8915341704,
				"z": 0.0380399521,
				"element": "H" 
			},
			{
				"x": -1.0839137364,
				"y": -2.6906428039,
				"z": -1.2284301369,
				"element": "H" 
			},
			{
				"x": -0.504639362,
				"y": -1.5243072202,
				"z": -0.0585939777,
				"element": "H" 
			},
			{
				"x": -1.3594698951,
				"y": -0.5036567712,
				"z": -2.184567127,
				"element": "H" 
			},
			{
				"x": -2.9442390635,
				"y": -1.1961317751,
				"z": -1.8936328254,
				"element": "H" 
			},
			{
				"x": -3.2248212448,
				"y": 0.2428273631,
				"z": 0.1366187632,
				"element": "H" 
			},
			{
				"x": -2.9838572449,
				"y": 1.1571118829,
				"z": -1.3357491942,
				"element": "H" 
			},
			{
				"x": -0.550575087,
				"y": 1.4548207843,
				"z": -0.7353173862,
				"element": "H" 
			},
			{
				"x": -0.832842527,
				"y": 0.6236724451,
				"z": 0.7858006425,
				"element": "H" 
			},
			{
				"x": -2.1933495976,
				"y": 3.2215323785,
				"z": -0.0979577728,
				"element": "H" 
			},
			{
				"x": -2.591315964,
				"y": 2.3490314008,
				"z": 1.3702381445,
				"element": "H" 
			},
			{
				"x": -0.2980846419,
				"y": 2.721715396,
				"z": 2.2596205723,
				"element": "H" 
			},
			{
				"x": -1.1775034955,
				"y": 4.196622592,
				"z": 1.9350462,
				"element": "H" 
			},
			{
				"x": 0.1261822266,
				"y": 4.0577450433,
				"z": -0.4367584836,
				"element": "H" 
			},
			{
				"x": 0.7897099292,
				"y": 4.8658154655,
				"z": 0.9578116601,
				"element": "H" 
			},
			{
				"x": 2.4024831556,
				"y": 3.3470941371,
				"z": -0.2699368834,
				"element": "H" 
			},
			{
				"x": 1.4418359838,
				"y": 1.9633443533,
				"z": 0.2237108897,
				"element": "H" 
			},
			{
				"x": 1.9091039261,
				"y": 2.6101598338,
				"z": 2.6648193272,
				"element": "H" 
			},
			{
				"x": 3.2987100919,
				"y": 2.0921612232,
				"z": 1.7210050305,
				"element": "H" 
			},
			{
				"x": 3.8088864333,
				"y": 4.0269580769,
				"z": 3.1526618928,
				"element": "H" 
			},
			{
				"x": 2.5783847285,
				"y": 5.0000874146,
				"z": 2.3291172331,
				"element": "H" 
			},
			{
				"x": 4.6412619926,
				"y": 5.3103870293,
				"z": 1.3522525896,
				"element": "H" 
			}
		],
		 "valence_orbital": [ 
			{
				"type": "occ",
				"energy": -0.30382,
				"method": "rhf"
			},
			{
				"type": "occ",
				"energy": -0.29806,
				"method": "rhf"
			},
			{
				"type": "occ",
				"energy": -0.29731,
				"method": "rhf"
			},
			{
				"type": "occ",
				"energy": -0.29129,
				"method": "rhf"
			},
			{
				"type": "occ",
				"energy": -0.26093,
				"method": "rhf"
			},
			{
				"type": "unocc",
				"energy": 0.07268,
				"method": "rhf"
			},
			{
				"type": "unocc",
				"energy": 0.08107,
				"method": "rhf"
			},
			{
				"type": "unocc",
				"energy": 0.09965,
				"method": "rhf"
			},
			{
				"type": "unocc",
				"energy": 0.10531,
				"method": "rhf"
			},
			{
				"type": "unocc",
				"energy": 0.1083,
				"method": "rhf"
			}
		],
		"cosmo_sigma_profile": { 
			"-0.025": 0.0,
			"-0.024": 0.0,
			"-0.023": 0.0,
			"-0.022": 0.0,
			"-0.021": 0.0,
			"-0.02": 0.0,
			"-0.019": 0.0,
			"-0.018": 0.0,
			"-0.017": 0.0,
			"-0.016": 0.068923636641,
			"-0.015": 1.08273358591,
			"-0.014": 0.941041317797,
			"-0.013": 0.814362423361,
			"-0.012": 0.82133995202,
			"-0.011": 1.18943652482,
			"-0.01": 0.838600316654,
			"-0.009": 0.868773134492,
			"-0.008": 0.367570214202,
			"-0.007": 0.561326069118,
			"-0.006": 1.47281487685,
			"-0.005": 1.14592339254,
			"-0.004": 0.868918305101,
			"-0.003": 11.1852223606,
			"-0.002": 41.3666798959,
			"-0.001": 72.8138124651,
			"0.0": 78.6785080874,
			"0.001": 63.2635368551,
			"0.002": 33.7991119168,
			"0.003": 3.56291967253,
			"0.004": 1.14123852876,
			"0.005": 1.08245572894,
			"0.006": 1.75925556715,
			"0.007": 1.61362361191,
			"0.008": 1.28384152548,
			"0.009": 1.61713343566,
			"0.01": 1.3680104986,
			"0.011": 1.36604118244,
			"0.012": 1.83915055112,
			"0.013": 1.26778790276,
			"0.014": 1.24768829856,
			"0.015": 0.759422364741,
			"0.016": 0.00404883197327,
			"0.017": 0.0,
			"0.018": 0.0,
			"0.019": 0.0,
			"0.02": 0.0,
			"0.021": 0.0,
			"0.022": 0.0,
			"0.023": 0.0,
			"0.024": 0.0,
			"0.025": 0.0
		}
	}
}
