{
	 "smiles": "CN1C=CN=C1C(=O)C1=CC=CO1", 
	 "Tm": 308.15, 
	 "num_atms": 21, 
	 "gaussian": { 
		 "optdone": 1, 
		 "sigma_profile": "yes", 
		 "theory": "DFT", 
		 "functional": "B3LYP", 
		 "basiset": "6-31G**", 
		 "properties": { 
			 "R2extent": 2555.1815, 
			 "electric_dipole_moment_norm": 1.91879171095, 
			 "electric_quadrupole_moment_norm": 17.1037473488, 
			 "total_energy": -607.697131567, 
			 "HOMO_LUMO_gap": 0.16584, 
			 "cosmo_polarized_energy": -12.05, 
			 "cosmo_cavitation_energy": 25.79, 
			 "cosmo_dispersion_energy": -19.1, 
			 "cosmo_repulsion_energy": 1.47, 
			 "cosmo_total_nonelectrostatic_energy": 8.16, 
			 "SMD_solvation_energy": 5.6 
		},
		"coords": [
			{
				"x": 1.889443894,
				"y": -2.472809608,
				"z": 1.5165770114,
				"element": "C" 
			},
			{
				"x": 2.1235556177,
				"y": -1.164884218,
				"z": 0.9052037306,
				"element": "N" 
			},
			{
				"x": 3.3314386591,
				"y": -0.5230949581,
				"z": 0.8717729418,
				"element": "C" 
			},
			{
				"x": 3.1209765961,
				"y": 0.6703773976,
				"z": 0.2102929858,
				"element": "C" 
			},
			{
				"x": 1.8173453825,
				"y": 0.7759874555,
				"z": -0.1618777555,
				"element": "N" 
			},
			{
				"x": 1.2241012953,
				"y": -0.3376795416,
				"z": 0.2628160597,
				"element": "C" 
			},
			{
				"x": -0.1992745251,
				"y": -0.6977316984,
				"z": 0.0994413004,
				"element": "C" 
			},
			{
				"x": -0.6338760471,
				"y": -1.7644101497,
				"z": 0.5387081575,
				"element": "O" 
			},
			{
				"x": -1.0750837666,
				"y": 0.2494910328,
				"z": -0.5995561442,
				"element": "C" 
			},
			{
				"x": -0.9148323566,
				"y": 1.4815907238,
				"z": -1.1911671314,
				"element": "C" 
			},
			{
				"x": -2.1907000856,
				"y": 1.8585464838,
				"z": -1.6961530664,
				"element": "C" 
			},
			{
				"x": -3.0373206609,
				"y": 0.8324748196,
				"z": -1.3779516066,
				"element": "C" 
			},
			{
				"x": -2.3855198704,
				"y": -0.1468369942,
				"z": -0.717184783,
				"element": "O" 
			},
			{
				"x": 2.8369018985,
				"y": -2.8259789579,
				"z": 1.927958425,
				"element": "H" 
			},
			{
				"x": 1.1444251955,
				"y": -2.3962071506,
				"z": 2.3087919191,
				"element": "H" 
			},
			{
				"x": 1.5182973346,
				"y": -3.1801553693,
				"z": 0.7746670594,
				"element": "H" 
			},
			{
				"x": 4.2156446965,
				"y": -0.9601828916,
				"z": 1.310957016,
				"element": "H" 
			},
			{
				"x": 3.8430682641,
				"y": 1.4446517649,
				"z": -0.0093441867,
				"element": "H" 
			},
			{
				"x": 0.0173945722,
				"y": 2.0215348092,
				"z": -1.2395655397,
				"element": "H" 
			},
			{
				"x": -2.4470230801,
				"y": 2.7660462211,
				"z": -2.2234227165,
				"element": "H" 
			},
			{
				"x": -4.0900630137,
				"y": 0.6643708292,
				"z": -1.5493636766,
				"element": "H" 
			}
		],
		 "valence_orbital": [ 
			{
				"type": "occ",
				"energy": -0.28021,
				"method": "rhf"
			},
			{
				"type": "occ",
				"energy": -0.27964,
				"method": "rhf"
			},
			{
				"type": "occ",
				"energy": -0.2514,
				"method": "rhf"
			},
			{
				"type": "occ",
				"energy": -0.24006,
				"method": "rhf"
			},
			{
				"type": "occ",
				"energy": -0.22856,
				"method": "rhf"
			},
			{
				"type": "unocc",
				"energy": -0.06272,
				"method": "rhf"
			},
			{
				"type": "unocc",
				"energy": 0.01681,
				"method": "rhf"
			},
			{
				"type": "unocc",
				"energy": 0.04733,
				"method": "rhf"
			},
			{
				"type": "unocc",
				"energy": 0.06684,
				"method": "rhf"
			},
			{
				"type": "unocc",
				"energy": 0.09791,
				"method": "rhf"
			}
		],
		"cosmo_sigma_profile": { 
			"-0.025": 0.0,
			"-0.024": 0.0,
			"-0.023": 0.0,
			"-0.022": 0.0,
			"-0.021": 0.0,
			"-0.02": 0.0,
			"-0.019": 0.0,
			"-0.018": 0.0,
			"-0.017": 0.0,
			"-0.016": 0.0,
			"-0.015": 0.0,
			"-0.014": 0.0,
			"-0.013": 0.0,
			"-0.012": 0.0,
			"-0.011": 0.0,
			"-0.01": 1.70955488061,
			"-0.009": 4.90156935116,
			"-0.008": 6.02040849293,
			"-0.007": 8.02427106219,
			"-0.006": 9.5071173364,
			"-0.005": 14.0130831229,
			"-0.004": 14.3748081102,
			"-0.003": 17.1633793718,
			"-0.002": 13.7871833943,
			"-0.001": 12.2299161249,
			"0.0": 13.0768519653,
			"0.001": 15.9862037487,
			"0.002": 15.0773396415,
			"0.003": 16.4512744514,
			"0.004": 9.81790810068,
			"0.005": 5.26579213957,
			"0.006": 3.710954912,
			"0.007": 4.99688825234,
			"0.008": 4.66566165483,
			"0.009": 3.36474531498,
			"0.01": 3.87696748095,
			"0.011": 3.2074566907,
			"0.012": 3.02492533442,
			"0.013": 2.23850064088,
			"0.014": 1.22843497374,
			"0.015": 0.0525107906141,
			"0.016": 0.0,
			"0.017": 0.0,
			"0.018": 0.0,
			"0.019": 0.0,
			"0.02": 0.0,
			"0.021": 0.0,
			"0.022": 0.0,
			"0.023": 0.0,
			"0.024": 0.0,
			"0.025": 0.0
		}
	}
}
