{
	 "smiles": "CN1C(=O)N(C)C(=O)N(C)C1=O", 
	 "Tm": 449.15, 
	 "num_atms": 21, 
	 "gaussian": { 
		 "optdone": 1, 
		 "sigma_profile": "yes", 
		 "theory": "DFT", 
		 "functional": "B3LYP", 
		 "basiset": "6-31G**", 
		 "properties": { 
			 "R2extent": 2290.5742, 
			 "electric_dipole_moment_norm": 0.147515219554, 
			 "electric_quadrupole_moment_norm": 3.71149761282, 
			 "total_energy": -624.062925529, 
			 "HOMO_LUMO_gap": 0.26409, 
			 "cosmo_polarized_energy": -11.47, 
			 "cosmo_cavitation_energy": 24.43, 
			 "cosmo_dispersion_energy": -18.3, 
			 "cosmo_repulsion_energy": 1.43, 
			 "cosmo_total_nonelectrostatic_energy": 7.56, 
			 "SMD_solvation_energy": 6.9 
		},
		"coords": [
			{
				"x": -0.1020852225,
				"y": -2.4562707583,
				"z": -0.1002364616,
				"element": "C" 
			},
			{
				"x": 0.4980272063,
				"y": -1.1160203375,
				"z": -0.1031817705,
				"element": "N" 
			},
			{
				"x": -0.0699896951,
				"y": -0.1549143554,
				"z": -0.9382977563,
				"element": "C" 
			},
			{
				"x": -1.0381725813,
				"y": -0.3907252146,
				"z": -1.6391941486,
				"element": "O" 
			},
			{
				"x": 0.5424806578,
				"y": 1.0972156102,
				"z": -0.9091898027,
				"element": "N" 
			},
			{
				"x": -0.0097000215,
				"y": 2.1459787648,
				"z": -1.7761489307,
				"element": "C" 
			},
			{
				"x": 1.6827755829,
				"y": 1.4045063004,
				"z": -0.1681877521,
				"element": "C" 
			},
			{
				"x": 2.2120443874,
				"y": 2.5009891593,
				"z": -0.2110853634,
				"element": "O" 
			},
			{
				"x": 2.170285928,
				"y": 0.3717971918,
				"z": 0.6315730936,
				"element": "N" 
			},
			{
				"x": 3.3752545213,
				"y": 0.6375335988,
				"z": 1.4277427039,
				"element": "C" 
			},
			{
				"x": 1.6362420096,
				"y": -0.9152729546,
				"z": 0.6765347801,
				"element": "C" 
			},
			{
				"x": 2.125855957,
				"y": -1.8007088091,
				"z": 1.3551566619,
				"element": "O" 
			},
			{
				"x": 0.0764158258,
				"y": -2.9071170128,
				"z": 0.8736962249,
				"element": "H" 
			},
			{
				"x": 0.3500938168,
				"y": -3.0832208735,
				"z": -0.8742430303,
				"element": "H" 
			},
			{
				"x": -1.1664020415,
				"y": -2.3532827425,
				"z": -0.3010040734,
				"element": "H" 
			},
			{
				"x": -1.0794077551,
				"y": 1.9755162738,
				"z": -1.8778690476,
				"element": "H" 
			},
			{
				"x": 0.196733359,
				"y": 3.1106765472,
				"z": -1.3174327468,
				"element": "H" 
			},
			{
				"x": 0.4547488186,
				"y": 2.1125248316,
				"z": -2.7659881575,
				"element": "H" 
			},
			{
				"x": 3.3466834557,
				"y": 0.0027928057,
				"z": 2.3108963418,
				"element": "H" 
			},
			{
				"x": 4.2766084075,
				"y": 0.4099344318,
				"z": 0.8512248496,
				"element": "H" 
			},
			{
				"x": 3.3802073832,
				"y": 1.6917675427,
				"z": 1.6965343856,
				"element": "H" 
			}
		],
		 "valence_orbital": [ 
			{
				"type": "occ",
				"energy": -0.31286,
				"method": "rhf"
			},
			{
				"type": "occ",
				"energy": -0.29373,
				"method": "rhf"
			},
			{
				"type": "occ",
				"energy": -0.28192,
				"method": "rhf"
			},
			{
				"type": "occ",
				"energy": -0.28192,
				"method": "rhf"
			},
			{
				"type": "occ",
				"energy": -0.27265,
				"method": "rhf"
			},
			{
				"type": "unocc",
				"energy": -0.00856,
				"method": "rhf"
			},
			{
				"type": "unocc",
				"energy": -0.00856,
				"method": "rhf"
			},
			{
				"type": "unocc",
				"energy": 0.08591,
				"method": "rhf"
			},
			{
				"type": "unocc",
				"energy": 0.10609,
				"method": "rhf"
			},
			{
				"type": "unocc",
				"energy": 0.1181,
				"method": "rhf"
			}
		],
		"cosmo_sigma_profile": { 
			"-0.025": 0.0,
			"-0.024": 0.0,
			"-0.023": 0.0,
			"-0.022": 0.0,
			"-0.021": 0.0,
			"-0.02": 0.0,
			"-0.019": 0.0,
			"-0.018": 0.0,
			"-0.017": 0.0,
			"-0.016": 0.0,
			"-0.015": 0.0,
			"-0.014": 0.0,
			"-0.013": 0.0,
			"-0.012": 0.0,
			"-0.011": 0.000683837135768,
			"-0.01": 0.246961655896,
			"-0.009": 0.88001036731,
			"-0.008": 1.81491131798,
			"-0.007": 2.17430316806,
			"-0.006": 14.06846952,
			"-0.005": 22.2416428415,
			"-0.004": 25.4146236606,
			"-0.003": 32.9960286572,
			"-0.002": 15.5389474605,
			"-0.001": 6.00890716775,
			"0.0": 6.84242054747,
			"0.001": 4.59013998175,
			"0.002": 4.70399850206,
			"0.003": 5.29076401201,
			"0.004": 4.37432540735,
			"0.005": 4.56768980335,
			"0.006": 4.89110339398,
			"0.007": 4.15187035398,
			"0.008": 3.72958648659,
			"0.009": 4.16625465065,
			"0.01": 6.59678384751,
			"0.011": 10.665785972,
			"0.012": 8.18013740031,
			"0.013": 0.0,
			"0.014": 0.0,
			"0.015": 0.0,
			"0.016": 0.0,
			"0.017": 0.0,
			"0.018": 0.0,
			"0.019": 0.0,
			"0.02": 0.0,
			"0.021": 0.0,
			"0.022": 0.0,
			"0.023": 0.0,
			"0.024": 0.0,
			"0.025": 0.0
		}
	}
}
