{
	 "smiles": "COC1=C(N)C=C(C=C1)C(=O)N1CCN(C)CC1", 
	 "Tm": 388.15, 
	 "num_atms": 37, 
	 "gaussian": { 
		 "optdone": 1, 
		 "sigma_profile": "yes", 
		 "theory": "DFT", 
		 "functional": "B3LYP", 
		 "basiset": "6-31G**", 
		 "properties": { 
			 "R2extent": 6814.5328, 
			 "electric_dipole_moment_norm": 4.26702397228, 
			 "electric_quadrupole_moment_norm": 22.6183620559, 
			 "total_energy": -821.521814047, 
			 "HOMO_LUMO_gap": 0.18106, 
			 "cosmo_polarized_energy": -17.68, 
			 "cosmo_cavitation_energy": 38.33, 
			 "cosmo_dispersion_energy": -27.62, 
			 "cosmo_repulsion_energy": 2.14, 
			 "cosmo_total_nonelectrostatic_energy": 12.85, 
			 "SMD_solvation_energy": 3.98 
		},
		"coords": [
			{
				"x": 6.3317563666,
				"y": 1.028986166,
				"z": 0.8007099698,
				"element": "C" 
			},
			{
				"x": 5.204386926,
				"y": 0.5615581246,
				"z": 1.5234204611,
				"element": "O" 
			},
			{
				"x": 4.0363241529,
				"y": 0.349759955,
				"z": 0.8365279303,
				"element": "C" 
			},
			{
				"x": 2.9703028111,
				"y": -0.1339901541,
				"z": 1.6339713944,
				"element": "C" 
			},
			{
				"x": 3.2067002743,
				"y": -0.4312764741,
				"z": 2.9753153838,
				"element": "N" 
			},
			{
				"x": 1.7322579726,
				"y": -0.3514474803,
				"z": 1.0257085117,
				"element": "C" 
			},
			{
				"x": 1.5394040255,
				"y": -0.1166550806,
				"z": -0.3454667161,
				"element": "C" 
			},
			{
				"x": 2.6137236217,
				"y": 0.3266317398,
				"z": -1.1196155849,
				"element": "C" 
			},
			{
				"x": 3.8542306241,
				"y": 0.572959476,
				"z": -0.5268702579,
				"element": "C" 
			},
			{
				"x": 0.2519574988,
				"y": -0.4230613436,
				"z": -1.0551613861,
				"element": "C" 
			},
			{
				"x": 0.2616849508,
				"y": -0.9138503265,
				"z": -2.1845575248,
				"element": "O" 
			},
			{
				"x": -0.9426982439,
				"y": -0.1774114387,
				"z": -0.411048839,
				"element": "N" 
			},
			{
				"x": -2.1597766231,
				"y": -0.5781917994,
				"z": -1.1323950693,
				"element": "C" 
			},
			{
				"x": -3.3664578587,
				"y": -0.4526272488,
				"z": -0.200693334,
				"element": "C" 
			},
			{
				"x": -3.5729708839,
				"y": 0.9100914802,
				"z": 0.3248223585,
				"element": "N" 
			},
			{
				"x": -4.6460652772,
				"y": 1.646951816,
				"z": -0.3230978679,
				"element": "C" 
			},
			{
				"x": -2.3349040406,
				"y": 1.6903825713,
				"z": 0.3698474405,
				"element": "C" 
			},
			{
				"x": -1.1342364398,
				"y": 0.7950322916,
				"z": 0.6743580789,
				"element": "C" 
			},
			{
				"x": 6.6285808611,
				"y": 0.3202126297,
				"z": 0.0175590931,
				"element": "H" 
			},
			{
				"x": 7.1409283917,
				"y": 1.1221680042,
				"z": 1.526850566,
				"element": "H" 
			},
			{
				"x": 6.1407595281,
				"y": 2.0086191457,
				"z": 0.3438946566,
				"element": "H" 
			},
			{
				"x": 2.3972918666,
				"y": -0.3751929311,
				"z": 3.5769044932,
				"element": "H" 
			},
			{
				"x": 4.019689201,
				"y": 0.0292246538,
				"z": 3.3601006378,
				"element": "H" 
			},
			{
				"x": 0.9204495435,
				"y": -0.7463833589,
				"z": 1.6299533661,
				"element": "H" 
			},
			{
				"x": 2.4731767767,
				"y": 0.466659494,
				"z": -2.1852666944,
				"element": "H" 
			},
			{
				"x": 4.6742830161,
				"y": 0.9347828147,
				"z": -1.136252241,
				"element": "H" 
			},
			{
				"x": -2.2921466903,
				"y": 0.0363688285,
				"z": -2.0337934825,
				"element": "H" 
			},
			{
				"x": -2.0366996289,
				"y": -1.6083912037,
				"z": -1.4765555577,
				"element": "H" 
			},
			{
				"x": -4.2661673662,
				"y": -0.7695103783,
				"z": -0.7367998645,
				"element": "H" 
			},
			{
				"x": -3.2381842972,
				"y": -1.152029403,
				"z": 0.6372543519,
				"element": "H" 
			},
			{
				"x": -4.4548934674,
				"y": 1.8747013188,
				"z": -1.3901149854,
				"element": "H" 
			},
			{
				"x": -5.5820991851,
				"y": 1.0839661066,
				"z": -0.2559422726,
				"element": "H" 
			},
			{
				"x": -4.7962829594,
				"y": 2.6013587944,
				"z": 0.1940950974,
				"element": "H" 
			},
			{
				"x": -2.1396337686,
				"y": 2.2196024895,
				"z": -0.5831545057,
				"element": "H" 
			},
			{
				"x": -2.4208907132,
				"y": 2.4606825962,
				"z": 1.1477705005,
				"element": "H" 
			},
			{
				"x": -1.300122136,
				"y": 0.2892545166,
				"z": 1.6360942921,
				"element": "H" 
			},
			{
				"x": -0.23625883,
				"y": 1.4057636078,
				"z": 0.7739275999,
				"element": "H" 
			}
		],
		 "valence_orbital": [ 
			{
				"type": "occ",
				"energy": -0.24087,
				"method": "rhf"
			},
			{
				"type": "occ",
				"energy": -0.23065,
				"method": "rhf"
			},
			{
				"type": "occ",
				"energy": -0.22465,
				"method": "rhf"
			},
			{
				"type": "occ",
				"energy": -0.20604,
				"method": "rhf"
			},
			{
				"type": "occ",
				"energy": -0.19163,
				"method": "rhf"
			},
			{
				"type": "unocc",
				"energy": -0.01057,
				"method": "rhf"
			},
			{
				"type": "unocc",
				"energy": 0.01291,
				"method": "rhf"
			},
			{
				"type": "unocc",
				"energy": 0.06964,
				"method": "rhf"
			},
			{
				"type": "unocc",
				"energy": 0.07763,
				"method": "rhf"
			},
			{
				"type": "unocc",
				"energy": 0.08569,
				"method": "rhf"
			}
		],
		"cosmo_sigma_profile": { 
			"-0.025": 0.0,
			"-0.024": 0.0,
			"-0.023": 0.0,
			"-0.022": 0.0,
			"-0.021": 0.0,
			"-0.02": 0.0,
			"-0.019": 0.0,
			"-0.018": 0.0,
			"-0.017": 0.0,
			"-0.016": 0.0,
			"-0.015": 0.0,
			"-0.014": 0.0,
			"-0.013": 0.205745134498,
			"-0.012": 1.33907170192,
			"-0.011": 1.43272982181,
			"-0.01": 3.15122121636,
			"-0.009": 2.02251092734,
			"-0.008": 2.31075435279,
			"-0.007": 3.28673098654,
			"-0.006": 7.74805047159,
			"-0.005": 18.0479301942,
			"-0.004": 32.17144943,
			"-0.003": 41.2040493585,
			"-0.002": 36.149092595,
			"-0.001": 26.2856690168,
			"0.0": 20.9819885589,
			"0.001": 12.3410376325,
			"0.002": 11.7647695196,
			"0.003": 12.3109018389,
			"0.004": 11.1150780664,
			"0.005": 12.2721673614,
			"0.006": 9.51938305437,
			"0.007": 5.67200854494,
			"0.008": 3.64298999982,
			"0.009": 2.78996181854,
			"0.01": 3.32563259917,
			"0.011": 2.78481935243,
			"0.012": 2.87617376193,
			"0.013": 3.15469769415,
			"0.014": 5.80232797013,
			"0.015": 3.52419332025,
			"0.016": 0.538896246765,
			"0.017": 0.0363673684666,
			"0.018": 0.0,
			"0.019": 0.0,
			"0.02": 0.0,
			"0.021": 0.0,
			"0.022": 0.0,
			"0.023": 0.0,
			"0.024": 0.0,
			"0.025": 0.0
		}
	}
}
