{
	 "smiles": "COC(=O)C1=CC(=CC(NC(=O)C(C)Cl)=C1)C(=O)OC", 
	 "Tm": 400.15, 
	 "num_atms": 34, 
	 "gaussian": { 
		 "optdone": 1, 
		 "sigma_profile": "yes", 
		 "theory": "DFT", 
		 "functional": "B3LYP", 
		 "basiset": "6-31G**", 
		 "properties": { 
			 "R2extent": 9708.4096, 
			 "electric_dipole_moment_norm": 2.27951971038, 
			 "electric_quadrupole_moment_norm": 21.4084619784, 
			 "total_energy": -1394.93434577, 
			 "HOMO_LUMO_gap": 0.1802, 
			 "cosmo_polarized_energy": -16.96, 
			 "cosmo_cavitation_energy": 41.36, 
			 "cosmo_dispersion_energy": -29.39, 
			 "cosmo_repulsion_energy": 2.28, 
			 "cosmo_total_nonelectrostatic_energy": 14.25, 
			 "SMD_solvation_energy": 10.35 
		},
		"coords": [
			{
				"x": -2.0908678423,
				"y": -3.7810623585,
				"z": 1.2775217327,
				"element": "C" 
			},
			{
				"x": -1.8762290404,
				"y": -2.4350532906,
				"z": 0.825260821,
				"element": "O" 
			},
			{
				"x": -0.7174091993,
				"y": -1.8701883433,
				"z": 1.2337586116,
				"element": "C" 
			},
			{
				"x": 0.0928405236,
				"y": -2.4453350111,
				"z": 1.9318103859,
				"element": "O" 
			},
			{
				"x": -0.5586707658,
				"y": -0.4724100467,
				"z": 0.7281151591,
				"element": "C" 
			},
			{
				"x": -1.525840952,
				"y": 0.1343293362,
				"z": -0.078619054,
				"element": "C" 
			},
			{
				"x": -1.3166307838,
				"y": 1.444693148,
				"z": -0.5198967455,
				"element": "C" 
			},
			{
				"x": -0.1566836791,
				"y": 2.1320304476,
				"z": -0.1560343854,
				"element": "C" 
			},
			{
				"x": 0.8101805468,
				"y": 1.5221423614,
				"z": 0.6523315608,
				"element": "C" 
			},
			{
				"x": 1.9531999538,
				"y": 2.2841871398,
				"z": 0.9725317085,
				"element": "N" 
			},
			{
				"x": 3.0147170521,
				"y": 1.9269663644,
				"z": 1.7503413252,
				"element": "C" 
			},
			{
				"x": 3.1580607642,
				"y": 0.8493534843,
				"z": 2.3115502455,
				"element": "O" 
			},
			{
				"x": 4.1461222625,
				"y": 2.9585823592,
				"z": 1.9298201655,
				"element": "C" 
			},
			{
				"x": 5.4641981683,
				"y": 2.4217272459,
				"z": 1.3792107659,
				"element": "C" 
			},
			{
				"x": 3.7937316946,
				"y": 4.611780901,
				"z": 1.2088069007,
				"element": "Cl" 
			},
			{
				"x": 0.607703439,
				"y": 0.2088596827,
				"z": 1.0978271483,
				"element": "C" 
			},
			{
				"x": -2.295249074,
				"y": 2.1681011373,
				"z": -1.3839935499,
				"element": "C" 
			},
			{
				"x": -2.1428538083,
				"y": 3.3055410015,
				"z": -1.7860040446,
				"element": "O" 
			},
			{
				"x": -3.3790183887,
				"y": 1.4178307044,
				"z": -1.6751554005,
				"element": "O" 
			},
			{
				"x": -4.3617071199,
				"y": 2.0573022049,
				"z": -2.5053329734,
				"element": "C" 
			},
			{
				"x": -2.1097465587,
				"y": -3.8213342204,
				"z": 2.3694623726,
				"element": "H" 
			},
			{
				"x": -3.0548351226,
				"y": -4.0792879642,
				"z": 0.8656037106,
				"element": "H" 
			},
			{
				"x": -1.2972651589,
				"y": -4.4394778016,
				"z": 0.9155384955,
				"element": "H" 
			},
			{
				"x": -2.4226764983,
				"y": -0.4012766075,
				"z": -0.3578507385,
				"element": "H" 
			},
			{
				"x": -0.0280970514,
				"y": 3.1484373588,
				"z": -0.5171405651,
				"element": "H" 
			},
			{
				"x": 1.9809639369,
				"y": 3.2218932793,
				"z": 0.5924060994,
				"element": "H" 
			},
			{
				"x": 4.2251790896,
				"y": 3.1407651071,
				"z": 3.0029739726,
				"element": "H" 
			},
			{
				"x": 6.2854428781,
				"y": 3.100071084,
				"z": 1.6190230593,
				"element": "H" 
			},
			{
				"x": 5.4134615349,
				"y": 2.2991178391,
				"z": 0.2939532123,
				"element": "H" 
			},
			{
				"x": 5.654546907,
				"y": 1.4475299066,
				"z": 1.8363864837,
				"element": "H" 
			},
			{
				"x": 1.3396725969,
				"y": -0.282580237,
				"z": 1.7230277313,
				"element": "H" 
			},
			{
				"x": -3.9279740972,
				"y": 2.3355285914,
				"z": -3.4690056153,
				"element": "H" 
			},
			{
				"x": -4.7476136969,
				"y": 2.9571091918,
				"z": -2.0199333087,
				"element": "H" 
			},
			{
				"x": -5.1554525105,
				"y": 1.3227260043,
				"z": -2.639195287,
				"element": "H" 
			}
		],
		 "valence_orbital": [ 
			{
				"type": "occ",
				"energy": -0.28475,
				"method": "rhf"
			},
			{
				"type": "occ",
				"energy": -0.274,
				"method": "rhf"
			},
			{
				"type": "occ",
				"energy": -0.26951,
				"method": "rhf"
			},
			{
				"type": "occ",
				"energy": -0.26808,
				"method": "rhf"
			},
			{
				"type": "occ",
				"energy": -0.2404,
				"method": "rhf"
			},
			{
				"type": "unocc",
				"energy": -0.0602,
				"method": "rhf"
			},
			{
				"type": "unocc",
				"energy": -0.04518,
				"method": "rhf"
			},
			{
				"type": "unocc",
				"energy": -0.00509,
				"method": "rhf"
			},
			{
				"type": "unocc",
				"energy": 0.00545,
				"method": "rhf"
			},
			{
				"type": "unocc",
				"energy": 0.05242,
				"method": "rhf"
			}
		],
		"cosmo_sigma_profile": { 
			"-0.025": 0.0,
			"-0.024": 0.0,
			"-0.023": 0.0,
			"-0.022": 0.0,
			"-0.021": 0.0,
			"-0.02": 0.0,
			"-0.019": 0.0,
			"-0.018": 0.0,
			"-0.017": 0.0,
			"-0.016": 0.0,
			"-0.015": 0.0161084088829,
			"-0.014": 0.638754425202,
			"-0.013": 1.21747663275,
			"-0.012": 0.763734235521,
			"-0.011": 0.797996559685,
			"-0.01": 1.28536756872,
			"-0.009": 2.89652261732,
			"-0.008": 3.91493457987,
			"-0.007": 4.84263406238,
			"-0.006": 16.857836794,
			"-0.005": 23.9797473992,
			"-0.004": 27.4658973725,
			"-0.003": 32.9018933929,
			"-0.002": 22.6170425053,
			"-0.001": 26.5786610423,
			"0.0": 31.4590219008,
			"0.001": 30.9360177346,
			"0.002": 16.7212046318,
			"0.003": 12.1698229676,
			"0.004": 15.1920060561,
			"0.005": 14.669366486,
			"0.006": 6.35462250481,
			"0.007": 4.36674514646,
			"0.008": 3.5658381864,
			"0.009": 5.98607890076,
			"0.01": 5.08209640548,
			"0.011": 10.1841624307,
			"0.012": 7.64866980535,
			"0.013": 0.408556587542,
			"0.014": 0.0,
			"0.015": 0.0,
			"0.016": 0.0,
			"0.017": 0.0,
			"0.018": 0.0,
			"0.019": 0.0,
			"0.02": 0.0,
			"0.021": 0.0,
			"0.022": 0.0,
			"0.023": 0.0,
			"0.024": 0.0,
			"0.025": 0.0
		}
	}
}
