{
	 "smiles": "CN1N(C(=O)C=C1C)C1=CC=CC=C1", 
	 "Tm": 387.15, 
	 "num_atms": 26, 
	 "gaussian": { 
		 "optdone": 1, 
		 "sigma_profile": "yes", 
		 "theory": "DFT", 
		 "functional": "B3LYP", 
		 "basiset": "6-31G**", 
		 "properties": { 
			 "R2extent": 3100.4681, 
			 "electric_dipole_moment_norm": 5.19031457332, 
			 "electric_quadrupole_moment_norm": 13.0698144226, 
			 "total_energy": -611.10563399, 
			 "HOMO_LUMO_gap": 0.185, 
			 "cosmo_polarized_energy": -13.78, 
			 "cosmo_cavitation_energy": 29.04, 
			 "cosmo_dispersion_energy": -20.94, 
			 "cosmo_repulsion_energy": 1.64, 
			 "cosmo_total_nonelectrostatic_energy": 9.73, 
			 "SMD_solvation_energy": 5.65 
		},
		"coords": [
			{
				"x": -1.3174310558,
				"y": 0.2553975629,
				"z": -1.7318114403,
				"element": "C" 
			},
			{
				"x": -1.1734517999,
				"y": -0.5183220971,
				"z": -0.4903081542,
				"element": "N" 
			},
			{
				"x": 0.0969174837,
				"y": -0.3822242194,
				"z": 0.117463584,
				"element": "N" 
			},
			{
				"x": -0.055366649,
				"y": -0.2435059648,
				"z": 1.5297271883,
				"element": "C" 
			},
			{
				"x": 0.8725104905,
				"y": -0.2056913342,
				"z": 2.3243940482,
				"element": "O" 
			},
			{
				"x": -1.4961703319,
				"y": -0.1961705302,
				"z": 1.7285266538,
				"element": "C" 
			},
			{
				"x": -2.1102298348,
				"y": -0.32325941,
				"z": 0.5267027333,
				"element": "C" 
			},
			{
				"x": -3.5698222698,
				"y": -0.2696325643,
				"z": 0.2045021958,
				"element": "C" 
			},
			{
				"x": 1.2219334885,
				"y": -0.9820370892,
				"z": -0.5033679363,
				"element": "C" 
			},
			{
				"x": 1.0675910599,
				"y": -1.9833425861,
				"z": -1.4728762678,
				"element": "C" 
			},
			{
				"x": 2.1934483989,
				"y": -2.539533514,
				"z": -2.0803602874,
				"element": "C" 
			},
			{
				"x": 3.4740644083,
				"y": -2.1223600779,
				"z": -1.7162249489,
				"element": "C" 
			},
			{
				"x": 3.6208609365,
				"y": -1.1377764318,
				"z": -0.7362696107,
				"element": "C" 
			},
			{
				"x": 2.5067372995,
				"y": -0.5564534753,
				"z": -0.1343296017,
				"element": "C" 
			},
			{
				"x": -1.2260155903,
				"y": 1.3347121656,
				"z": -1.5532050838,
				"element": "H" 
			},
			{
				"x": -0.5464310863,
				"y": -0.0574982463,
				"z": -2.4366412371,
				"element": "H" 
			},
			{
				"x": -2.2927882099,
				"y": 0.0348563047,
				"z": -2.1685495291,
				"element": "H" 
			},
			{
				"x": -1.966667674,
				"y": -0.1103823782,
				"z": 2.6964166166,
				"element": "H" 
			},
			{
				"x": -3.8395124233,
				"y": 0.6583620889,
				"z": -0.3134683639,
				"element": "H" 
			},
			{
				"x": -3.8669134998,
				"y": -1.10685318,
				"z": -0.4355339182,
				"element": "H" 
			},
			{
				"x": -4.1515990242,
				"y": -0.3165156963,
				"z": 1.1269819523,
				"element": "H" 
			},
			{
				"x": 0.0733722621,
				"y": -2.3339973182,
				"z": -1.7267917858,
				"element": "H" 
			},
			{
				"x": 2.0640532001,
				"y": -3.313251695,
				"z": -2.8319878689,
				"element": "H" 
			},
			{
				"x": 4.3481031664,
				"y": -2.5614931287,
				"z": -2.187641383,
				"element": "H" 
			},
			{
				"x": 4.6129911961,
				"y": -0.8090608146,
				"z": -0.4403755692,
				"element": "H" 
			},
			{
				"x": 2.6149160587,
				"y": 0.2021336295,
				"z": 0.6294280139,
				"element": "H" 
			}
		],
		 "valence_orbital": [ 
			{
				"type": "occ",
				"energy": -0.28946,
				"method": "rhf"
			},
			{
				"type": "occ",
				"energy": -0.25145,
				"method": "rhf"
			},
			{
				"type": "occ",
				"energy": -0.24176,
				"method": "rhf"
			},
			{
				"type": "occ",
				"energy": -0.23187,
				"method": "rhf"
			},
			{
				"type": "occ",
				"energy": -0.20666,
				"method": "rhf"
			},
			{
				"type": "unocc",
				"energy": -0.02166,
				"method": "rhf"
			},
			{
				"type": "unocc",
				"energy": 0.00147,
				"method": "rhf"
			},
			{
				"type": "unocc",
				"energy": 0.01159,
				"method": "rhf"
			},
			{
				"type": "unocc",
				"energy": 0.0786,
				"method": "rhf"
			},
			{
				"type": "unocc",
				"energy": 0.09007,
				"method": "rhf"
			}
		],
		"cosmo_sigma_profile": { 
			"-0.025": 0.0,
			"-0.024": 0.0,
			"-0.023": 0.0,
			"-0.022": 0.0,
			"-0.021": 0.0,
			"-0.02": 0.0,
			"-0.019": 0.0,
			"-0.018": 0.0,
			"-0.017": 0.0,
			"-0.016": 0.0,
			"-0.015": 0.0,
			"-0.014": 0.0,
			"-0.013": 0.0,
			"-0.012": 0.0,
			"-0.011": 0.0,
			"-0.01": 0.0,
			"-0.009": 0.0,
			"-0.008": 0.086715945947,
			"-0.007": 2.19933087377,
			"-0.006": 15.7291830412,
			"-0.005": 23.7564804167,
			"-0.004": 27.4116104356,
			"-0.003": 23.7496216866,
			"-0.002": 19.5614758766,
			"-0.001": 14.2859980335,
			"0.0": 12.8201067666,
			"0.001": 12.7700463856,
			"0.002": 13.8249691421,
			"0.003": 16.0916313525,
			"0.004": 11.7660254287,
			"0.005": 11.158729144,
			"0.006": 5.70397202477,
			"0.007": 2.07355100635,
			"0.008": 1.16560371569,
			"0.009": 1.91536368233,
			"0.01": 1.97756636083,
			"0.011": 1.53598030729,
			"0.012": 1.6059521965,
			"0.013": 3.42733300784,
			"0.014": 4.79750024658,
			"0.015": 1.86018141935,
			"0.016": 0.0753149049652,
			"0.017": 0.0,
			"0.018": 0.0,
			"0.019": 0.0,
			"0.02": 0.0,
			"0.021": 0.0,
			"0.022": 0.0,
			"0.023": 0.0,
			"0.024": 0.0,
			"0.025": 0.0
		}
	}
}
