{
	 "smiles": "ClC1(Cl)SC(=O)C2=CC3=C(N=C12)C(Cl)(Cl)SC3=O", 
	 "Tm": 455.15, 
	 "num_atms": 19, 
	 "gaussian": { 
		 "optdone": 1, 
		 "sigma_profile": "yes", 
		 "theory": "DFT", 
		 "functional": "B3LYP", 
		 "basiset": "6-31G**", 
		 "properties": { 
			 "R2extent": 7593.6331, 
			 "electric_dipole_moment_norm": 0.068018379869, 
			 "electric_quadrupole_moment_norm": 8.7749708991, 
			 "total_energy": -3185.87344056, 
			 "HOMO_LUMO_gap": 0.16353, 
			 "cosmo_polarized_energy": -10.91, 
			 "cosmo_cavitation_energy": 35.32, 
			 "cosmo_dispersion_energy": -25.7, 
			 "cosmo_repulsion_energy": 1.9, 
			 "cosmo_total_nonelectrostatic_energy": 11.52, 
			 "SMD_solvation_energy": 3.81 
		},
		"coords": [
			{
				"x": 1.3387608288,
				"y": 3.2291629387,
				"z": -1.0756647342,
				"element": "Cl" 
			},
			{
				"x": 1.0068173921,
				"y": 2.4308980871,
				"z": 0.5084607093,
				"element": "C" 
			},
			{
				"x": 0.0704183237,
				"y": 3.5652117143,
				"z": 1.5540535989,
				"element": "Cl" 
			},
			{
				"x": 2.5800313222,
				"y": 1.932828331,
				"z": 1.3308405112,
				"element": "S" 
			},
			{
				"x": 2.1560627449,
				"y": 0.1670470103,
				"z": 1.3518086242,
				"element": "C" 
			},
			{
				"x": 2.870108846,
				"y": -0.6902587256,
				"z": 1.8050737397,
				"element": "O" 
			},
			{
				"x": 0.822173843,
				"y": -0.0191021235,
				"z": 0.732023209,
				"element": "C" 
			},
			{
				"x": 0.1735002738,
				"y": -1.2415520857,
				"z": 0.5749415598,
				"element": "C" 
			},
			{
				"x": -1.0781076575,
				"y": -1.196291374,
				"z": -0.0343473141,
				"element": "C" 
			},
			{
				"x": -1.6026863105,
				"y": 0.0339344778,
				"z": -0.4439379269,
				"element": "C" 
			},
			{
				"x": -0.9889172026,
				"y": 1.2025472215,
				"z": -0.2970307794,
				"element": "N" 
			},
			{
				"x": 0.2041110677,
				"y": 1.1531165504,
				"z": 0.2845068428,
				"element": "C" 
			},
			{
				"x": -2.979119025,
				"y": -0.0379459348,
				"z": -1.0978084644,
				"element": "C" 
			},
			{
				"x": -4.1579829252,
				"y": 0.9457812779,
				"z": -0.1494586891,
				"element": "Cl" 
			},
			{
				"x": -2.8911276665,
				"y": 0.6098464914,
				"z": -2.7798804679,
				"element": "Cl" 
			},
			{
				"x": -3.4705687125,
				"y": -1.8149941481,
				"z": -1.107587197,
				"element": "S" 
			},
			{
				"x": -1.9416974398,
				"y": -2.371540957,
				"z": -0.3008568628,
				"element": "C" 
			},
			{
				"x": -1.7009780897,
				"y": -3.5217824946,
				"z": -0.0376232333,
				"element": "O" 
			},
			{
				"x": 0.6172003872,
				"y": -2.1745062568,
				"z": 0.9077868741,
				"element": "H" 
			}
		],
		 "valence_orbital": [ 
			{
				"type": "occ",
				"energy": -0.31789,
				"method": "rhf"
			},
			{
				"type": "occ",
				"energy": -0.30157,
				"method": "rhf"
			},
			{
				"type": "occ",
				"energy": -0.29957,
				"method": "rhf"
			},
			{
				"type": "occ",
				"energy": -0.29295,
				"method": "rhf"
			},
			{
				"type": "occ",
				"energy": -0.28885,
				"method": "rhf"
			},
			{
				"type": "unocc",
				"energy": -0.12532,
				"method": "rhf"
			},
			{
				"type": "unocc",
				"energy": -0.11573,
				"method": "rhf"
			},
			{
				"type": "unocc",
				"energy": -0.0639,
				"method": "rhf"
			},
			{
				"type": "unocc",
				"energy": -0.0517,
				"method": "rhf"
			},
			{
				"type": "unocc",
				"energy": -0.05152,
				"method": "rhf"
			}
		],
		"cosmo_sigma_profile": { 
			"-0.025": 0.0,
			"-0.024": 0.0,
			"-0.023": 0.0,
			"-0.022": 0.0,
			"-0.021": 0.0,
			"-0.02": 0.0,
			"-0.019": 0.0,
			"-0.018": 0.0,
			"-0.017": 0.0,
			"-0.016": 0.0,
			"-0.015": 0.0,
			"-0.014": 0.0,
			"-0.013": 0.0,
			"-0.012": 0.0,
			"-0.011": 0.340220622596,
			"-0.01": 2.23211661295,
			"-0.009": 3.97174284738,
			"-0.008": 5.50168436985,
			"-0.007": 10.545661483,
			"-0.006": 14.5055922764,
			"-0.005": 14.2453166408,
			"-0.004": 14.1064939784,
			"-0.003": 17.1067374245,
			"-0.002": 20.8000243006,
			"-0.001": 23.8001692479,
			"0.0": 21.7720516028,
			"0.001": 27.1932835333,
			"0.002": 43.0600550933,
			"0.003": 35.9802731612,
			"0.004": 7.96318338778,
			"0.005": 7.39892707532,
			"0.006": 6.33068500763,
			"0.007": 5.44060193789,
			"0.008": 8.05599518449,
			"0.009": 8.29851735529,
			"0.01": 0.742216755625,
			"0.011": 0.0,
			"0.012": 0.0,
			"0.013": 0.0,
			"0.014": 0.0,
			"0.015": 0.0,
			"0.016": 0.0,
			"0.017": 0.0,
			"0.018": 0.0,
			"0.019": 0.0,
			"0.02": 0.0,
			"0.021": 0.0,
			"0.022": 0.0,
			"0.023": 0.0,
			"0.024": 0.0,
			"0.025": 0.0
		}
	}
}
