{
	 "smiles": "CN1C=CN=C1C(N)C1=CC=CC=C1", 
	 "Tm": 325.15, 
	 "num_atms": 27, 
	 "gaussian": { 
		 "optdone": 1, 
		 "sigma_profile": "yes", 
		 "theory": "DFT", 
		 "functional": "B3LYP", 
		 "basiset": "6-31G**", 
		 "properties": { 
			 "R2extent": 3701.9146, 
			 "electric_dipole_moment_norm": 3.7281217067, 
			 "electric_quadrupole_moment_norm": 8.5005090924, 
			 "total_energy": -591.248691942, 
			 "HOMO_LUMO_gap": 0.2112, 
			 "cosmo_polarized_energy": -13.41, 
			 "cosmo_cavitation_energy": 29.96, 
			 "cosmo_dispersion_energy": -20.93, 
			 "cosmo_repulsion_energy": 1.64, 
			 "cosmo_total_nonelectrostatic_energy": 10.67, 
			 "SMD_solvation_energy": 2.82 
		},
		"coords": [
			{
				"x": -1.2887997225,
				"y": 1.0746542922,
				"z": -0.4901164756,
				"element": "C" 
			},
			{
				"x": -0.4934075129,
				"y": 0.0621434437,
				"z": -1.1711173197,
				"element": "N" 
			},
			{
				"x": 0.5759169358,
				"y": 0.3378009642,
				"z": -2.0030514232,
				"element": "C" 
			},
			{
				"x": 1.1012848069,
				"y": -0.8782019142,
				"z": -2.3557426006,
				"element": "C" 
			},
			{
				"x": 0.3918421408,
				"y": -1.895607177,
				"z": -1.7640895336,
				"element": "N" 
			},
			{
				"x": -0.5559951081,
				"y": -1.3093403104,
				"z": -1.0508110954,
				"element": "C" 
			},
			{
				"x": -1.6207222447,
				"y": -2.0878848141,
				"z": -0.3073904654,
				"element": "C" 
			},
			{
				"x": -2.9184152102,
				"y": -2.1428677953,
				"z": -1.0074125074,
				"element": "N" 
			},
			{
				"x": -1.7900857975,
				"y": -1.6712168645,
				"z": 1.1548228161,
				"element": "C" 
			},
			{
				"x": -0.6637316843,
				"y": -1.3524552842,
				"z": 1.9285371368,
				"element": "C" 
			},
			{
				"x": -0.7970886598,
				"y": -1.007872825,
				"z": 3.2732680388,
				"element": "C" 
			},
			{
				"x": -2.0610084457,
				"y": -0.97358474,
				"z": 3.8678381036,
				"element": "C" 
			},
			{
				"x": -3.1849819891,
				"y": -1.2967908391,
				"z": 3.1077327418,
				"element": "C" 
			},
			{
				"x": -3.051117581,
				"y": -1.6478718864,
				"z": 1.761786191,
				"element": "C" 
			},
			{
				"x": -2.2743601667,
				"y": 0.6817777714,
				"z": -0.2415948294,
				"element": "H" 
			},
			{
				"x": -1.4112603438,
				"y": 1.9382955845,
				"z": -1.1483055308,
				"element": "H" 
			},
			{
				"x": -0.8111336269,
				"y": 1.3952884128,
				"z": 0.4410040839,
				"element": "H" 
			},
			{
				"x": 0.8485008569,
				"y": 1.3522708302,
				"z": -2.2537259682,
				"element": "H" 
			},
			{
				"x": 1.9442051495,
				"y": -1.0769480997,
				"z": -3.0034445686,
				"element": "H" 
			},
			{
				"x": -1.2342923179,
				"y": -3.113977986,
				"z": -0.3150014565,
				"element": "H" 
			},
			{
				"x": -2.7706138602,
				"y": -2.5633094263,
				"z": -1.9217989107,
				"element": "H" 
			},
			{
				"x": -3.2658297134,
				"y": -1.2017413797,
				"z": -1.1824151108,
				"element": "H" 
			},
			{
				"x": 0.323053936,
				"y": -1.3808027927,
				"z": 1.4735451105,
				"element": "H" 
			},
			{
				"x": 0.086946654,
				"y": -0.7671136574,
				"z": 3.8573778249,
				"element": "H" 
			},
			{
				"x": -2.1659966309,
				"y": -0.7020839552,
				"z": 4.9144358344,
				"element": "H" 
			},
			{
				"x": -4.1718739486,
				"y": -1.2818304023,
				"z": 3.5624456076,
				"element": "H" 
			},
			{
				"x": -3.919835916,
				"y": -1.9211291492,
				"z": 1.1729243066,
				"element": "H" 
			}
		],
		 "valence_orbital": [ 
			{
				"type": "occ",
				"energy": -0.26252,
				"method": "rhf"
			},
			{
				"type": "occ",
				"energy": -0.25415,
				"method": "rhf"
			},
			{
				"type": "occ",
				"energy": -0.24767,
				"method": "rhf"
			},
			{
				"type": "occ",
				"energy": -0.23913,
				"method": "rhf"
			},
			{
				"type": "occ",
				"energy": -0.21409,
				"method": "rhf"
			},
			{
				"type": "unocc",
				"energy": -0.00289,
				"method": "rhf"
			},
			{
				"type": "unocc",
				"energy": 0.00115,
				"method": "rhf"
			},
			{
				"type": "unocc",
				"energy": 0.02434,
				"method": "rhf"
			},
			{
				"type": "unocc",
				"energy": 0.0654,
				"method": "rhf"
			},
			{
				"type": "unocc",
				"energy": 0.07761,
				"method": "rhf"
			}
		],
		"cosmo_sigma_profile": { 
			"-0.025": 0.0,
			"-0.024": 0.0,
			"-0.023": 0.0,
			"-0.022": 0.0,
			"-0.021": 0.0,
			"-0.02": 0.0,
			"-0.019": 0.0,
			"-0.018": 0.0,
			"-0.017": 0.0,
			"-0.016": 0.0,
			"-0.015": 0.0,
			"-0.014": 0.0,
			"-0.013": 0.0,
			"-0.012": 0.0,
			"-0.011": 0.189734008477,
			"-0.01": 0.959463132516,
			"-0.009": 2.13744764792,
			"-0.008": 5.58232246023,
			"-0.007": 7.86669564077,
			"-0.006": 13.3575947451,
			"-0.005": 18.9240799634,
			"-0.004": 20.7930542674,
			"-0.003": 25.1862870455,
			"-0.002": 16.9245234868,
			"-0.001": 17.1894672549,
			"0.0": 13.2714035185,
			"0.001": 11.3996727561,
			"0.002": 11.2772206335,
			"0.003": 12.9699230636,
			"0.004": 12.2647959241,
			"0.005": 13.4156592211,
			"0.006": 12.346218831,
			"0.007": 3.49062737796,
			"0.008": 1.87163762138,
			"0.009": 2.18730843899,
			"0.01": 3.23984884595,
			"0.011": 1.73728289732,
			"0.012": 1.20755367587,
			"0.013": 1.43605317883,
			"0.014": 1.58739444634,
			"0.015": 1.20437397193,
			"0.016": 1.94559612331,
			"0.017": 0.954048941141,
			"0.018": 0.820953656767,
			"0.019": 0.120238592192,
			"0.02": 0.0,
			"0.021": 0.0,
			"0.022": 0.0,
			"0.023": 0.0,
			"0.024": 0.0,
			"0.025": 0.0
		}
	}
}
