{
	 "smiles": "CC1=NC2=C(N=NC3=CC=C(Cl)C=C3)C(N)=NN2C(=C1)C(F)(F)F", 
	 "Tm": 523.15, 
	 "num_atms": 34, 
	 "gaussian": { 
		 "optdone": 1, 
		 "sigma_profile": "yes", 
		 "theory": "DFT", 
		 "functional": "B3LYP", 
		 "basiset": "6-31G**", 
		 "properties": { 
			 "R2extent": 13712.4222, 
			 "electric_dipole_moment_norm": 2.81502883999, 
			 "electric_quadrupole_moment_norm": 25.4985909519, 
			 "total_energy": -1627.691367, 
			 "HOMO_LUMO_gap": 0.1287, 
			 "cosmo_polarized_energy": -14.11, 
			 "cosmo_cavitation_energy": 43.36, 
			 "cosmo_dispersion_energy": -31.08, 
			 "cosmo_repulsion_energy": 2.31, 
			 "cosmo_total_nonelectrostatic_energy": 14.58, 
			 "SMD_solvation_energy": 4.89 
		},
		"coords": [
			{
				"x": 3.5168978189,
				"y": 1.7243580668,
				"z": 2.7917400432,
				"element": "C" 
			},
			{
				"x": 2.9328264861,
				"y": 0.6758203314,
				"z": 1.8843178688,
				"element": "C" 
			},
			{
				"x": 1.7343333401,
				"y": 0.9095437146,
				"z": 1.3616939216,
				"element": "N" 
			},
			{
				"x": 1.2087470631,
				"y": -0.0187517376,
				"z": 0.5535202485,
				"element": "C" 
			},
			{
				"x": -0.0080261054,
				"y": -0.0943445972,
				"z": -0.152761912,
				"element": "C" 
			},
			{
				"x": -0.9726863427,
				"y": 0.8721956115,
				"z": -0.1356538105,
				"element": "N" 
			},
			{
				"x": -2.0092831972,
				"y": 0.6246523435,
				"z": -0.8397571043,
				"element": "N" 
			},
			{
				"x": -2.9913257845,
				"y": 1.6406959479,
				"z": -0.8040975953,
				"element": "C" 
			},
			{
				"x": -2.8753779093,
				"y": 2.8355372813,
				"z": -0.0706822932,
				"element": "C" 
			},
			{
				"x": -3.8972696721,
				"y": 3.7758759851,
				"z": -0.0988844477,
				"element": "C" 
			},
			{
				"x": -5.0428932677,
				"y": 3.5264119865,
				"z": -0.8619227966,
				"element": "C" 
			},
			{
				"x": -6.3332327597,
				"y": 4.7190243755,
				"z": -0.8944572669,
				"element": "Cl" 
			},
			{
				"x": -5.1778712178,
				"y": 2.3488548911,
				"z": -1.5961294046,
				"element": "C" 
			},
			{
				"x": -4.1483500624,
				"y": 1.4116170584,
				"z": -1.5620829841,
				"element": "C" 
			},
			{
				"x": 0.0466937991,
				"y": -1.3609623483,
				"z": -0.8344249033,
				"element": "C" 
			},
			{
				"x": -0.917155113,
				"y": -1.8504911201,
				"z": -1.635652498,
				"element": "N" 
			},
			{
				"x": 1.1832342525,
				"y": -2.0330690638,
				"z": -0.5918039199,
				"element": "N" 
			},
			{
				"x": 1.8786330583,
				"y": -1.2138373384,
				"z": 0.2478002006,
				"element": "N" 
			},
			{
				"x": 3.1014954333,
				"y": -1.4631014803,
				"z": 0.7751861627,
				"element": "C" 
			},
			{
				"x": 3.6544602999,
				"y": -0.5178423087,
				"z": 1.6077606213,
				"element": "C" 
			},
			{
				"x": 3.7901771152,
				"y": -2.7636682478,
				"z": 0.4206808094,
				"element": "C" 
			},
			{
				"x": 4.0043968641,
				"y": -2.8623593245,
				"z": -0.9005235678,
				"element": "F" 
			},
			{
				"x": 4.9884427471,
				"y": -2.8292810973,
				"z": 1.0383476297,
				"element": "F" 
			},
			{
				"x": 3.0684518076,
				"y": -3.8250067213,
				"z": 0.8129623851,
				"element": "F" 
			},
			{
				"x": 3.7148646621,
				"y": 1.3141493743,
				"z": 3.7886434538,
				"element": "H" 
			},
			{
				"x": 2.8221749412,
				"y": 2.5598313262,
				"z": 2.8830940593,
				"element": "H" 
			},
			{
				"x": 4.4709482496,
				"y": 2.094920773,
				"z": 2.3995849414,
				"element": "H" 
			},
			{
				"x": -1.9780280086,
				"y": 3.0055768892,
				"z": 0.512823625,
				"element": "H" 
			},
			{
				"x": -3.8147533662,
				"y": 4.6993140109,
				"z": 0.4640968135,
				"element": "H" 
			},
			{
				"x": -6.0725655317,
				"y": 2.1714373844,
				"z": -2.1823134652,
				"element": "H" 
			},
			{
				"x": -4.2280008012,
				"y": 0.4864926311,
				"z": -2.1244904288,
				"element": "H" 
			},
			{
				"x": -0.802045068,
				"y": -2.7487507558,
				"z": -2.0755027585,
				"element": "H" 
			},
			{
				"x": -1.7394266233,
				"y": -1.2741129293,
				"z": -1.7588360197,
				"element": "H" 
			},
			{
				"x": 4.6298128924,
				"y": -0.6969309125,
				"z": 2.0394243925,
				"element": "H" 
			}
		],
		 "valence_orbital": [ 
			{
				"type": "occ",
				"energy": -0.26375,
				"method": "rhf"
			},
			{
				"type": "occ",
				"energy": -0.26183,
				"method": "rhf"
			},
			{
				"type": "occ",
				"energy": -0.23417,
				"method": "rhf"
			},
			{
				"type": "occ",
				"energy": -0.23196,
				"method": "rhf"
			},
			{
				"type": "occ",
				"energy": -0.20801,
				"method": "rhf"
			},
			{
				"type": "unocc",
				"energy": -0.07931,
				"method": "rhf"
			},
			{
				"type": "unocc",
				"energy": -0.06854,
				"method": "rhf"
			},
			{
				"type": "unocc",
				"energy": -0.01633,
				"method": "rhf"
			},
			{
				"type": "unocc",
				"energy": -0.01013,
				"method": "rhf"
			},
			{
				"type": "unocc",
				"energy": 0.02179,
				"method": "rhf"
			}
		],
		"cosmo_sigma_profile": { 
			"-0.025": 0.0,
			"-0.024": 0.0,
			"-0.023": 0.0,
			"-0.022": 0.0,
			"-0.021": 0.0,
			"-0.02": 0.0,
			"-0.019": 0.0,
			"-0.018": 0.0,
			"-0.017": 0.0,
			"-0.016": 0.0,
			"-0.015": 0.412579198499,
			"-0.014": 0.901194619094,
			"-0.013": 1.66738895444,
			"-0.012": 0.827263534789,
			"-0.011": 0.847592096258,
			"-0.01": 1.51770155649,
			"-0.009": 2.76754733419,
			"-0.008": 3.43540546852,
			"-0.007": 7.8353481786,
			"-0.006": 16.40337991,
			"-0.005": 19.9324777037,
			"-0.004": 23.6959015523,
			"-0.003": 19.4727795324,
			"-0.002": 24.1867365796,
			"-0.001": 26.0589995769,
			"0.0": 20.5380158374,
			"0.001": 34.8502006585,
			"0.002": 53.7885128266,
			"0.003": 35.00030355,
			"0.004": 22.0840812173,
			"0.005": 11.0597898382,
			"0.006": 4.11705533632,
			"0.007": 3.78363056879,
			"0.008": 3.64746828588,
			"0.009": 3.13888342716,
			"0.01": 3.46478509334,
			"0.011": 2.27370204606,
			"0.012": 1.74121933886,
			"0.013": 1.19291468784,
			"0.014": 0.863585993546,
			"0.015": 0.0545119713513,
			"0.016": 0.0,
			"0.017": 0.0,
			"0.018": 0.0,
			"0.019": 0.0,
			"0.02": 0.0,
			"0.021": 0.0,
			"0.022": 0.0,
			"0.023": 0.0,
			"0.024": 0.0,
			"0.025": 0.0
		}
	}
}
