{
	 "smiles": "CC(C)NC(=O)CN1C(=O)C=C(C)C(C(O)=O)=C1C", 
	 "Tm": 503.15, 
	 "num_atms": 37, 
	 "gaussian": { 
		 "optdone": 1, 
		 "sigma_profile": "yes", 
		 "theory": "DFT", 
		 "functional": "B3LYP", 
		 "basiset": "6-31G**", 
		 "properties": { 
			 "R2extent": 6395.6267, 
			 "electric_dipole_moment_norm": 2.61084375059, 
			 "electric_quadrupole_moment_norm": 13.0394265698, 
			 "total_energy": -916.694505246, 
			 "HOMO_LUMO_gap": 0.18059, 
			 "cosmo_polarized_energy": -16.85, 
			 "cosmo_cavitation_energy": 39.09, 
			 "cosmo_dispersion_energy": -27.24, 
			 "cosmo_repulsion_energy": 2.1, 
			 "cosmo_total_nonelectrostatic_energy": 13.96, 
			 "SMD_solvation_energy": 8.35 
		},
		"coords": [
			{
				"x": -1.7049791597,
				"y": -3.2817108334,
				"z": 2.7485464732,
				"element": "C" 
			},
			{
				"x": -1.5905463842,
				"y": -2.5878131559,
				"z": 1.3839343743,
				"element": "C" 
			},
			{
				"x": -1.6227806208,
				"y": -3.5815458244,
				"z": 0.2199339237,
				"element": "C" 
			},
			{
				"x": -0.3683348668,
				"y": -1.7832987599,
				"z": 1.3046791908,
				"element": "N" 
			},
			{
				"x": -0.3232944341,
				"y": -0.4886812255,
				"z": 1.6940528561,
				"element": "C" 
			},
			{
				"x": -1.2719907867,
				"y": 0.1336556382,
				"z": 2.1698820008,
				"element": "O" 
			},
			{
				"x": 1.0468058938,
				"y": 0.1884409714,
				"z": 1.4852716878,
				"element": "C" 
			},
			{
				"x": 1.3269545482,
				"y": 0.5008357506,
				"z": 0.0686011068,
				"element": "N" 
			},
			{
				"x": 1.9728187055,
				"y": -0.5428809831,
				"z": -0.6476825765,
				"element": "C" 
			},
			{
				"x": 2.1685532023,
				"y": -1.6354973327,
				"z": -0.0964189976,
				"element": "O" 
			},
			{
				"x": 2.3588937626,
				"y": -0.2116159501,
				"z": -1.9845615901,
				"element": "C" 
			},
			{
				"x": 2.0587303338,
				"y": 0.9852812549,
				"z": -2.5757425321,
				"element": "C" 
			},
			{
				"x": 2.5304397291,
				"y": 1.2206369015,
				"z": -3.9914725112,
				"element": "C" 
			},
			{
				"x": 1.3376348556,
				"y": 1.976643878,
				"z": -1.8129044068,
				"element": "C" 
			},
			{
				"x": 0.9898288591,
				"y": 3.3037133794,
				"z": -2.3872381472,
				"element": "C" 
			},
			{
				"x": 0.6714790541,
				"y": 3.2502141968,
				"z": -3.7070674868,
				"element": "O" 
			},
			{
				"x": 0.965917203,
				"y": 4.3621769047,
				"z": -1.7862787548,
				"element": "O" 
			},
			{
				"x": 0.9855592806,
				"y": 1.7087831009,
				"z": -0.4908832681,
				"element": "C" 
			},
			{
				"x": 0.2029417062,
				"y": 2.6563014069,
				"z": 0.3840075836,
				"element": "C" 
			},
			{
				"x": -0.874276521,
				"y": -3.9793324263,
				"z": 2.9034787861,
				"element": "H" 
			},
			{
				"x": -1.6910805951,
				"y": -2.5408322967,
				"z": 3.5523083298,
				"element": "H" 
			},
			{
				"x": -2.6417526335,
				"y": -3.845174093,
				"z": 2.8174010373,
				"element": "H" 
			},
			{
				"x": -2.4221172417,
				"y": -1.8819280847,
				"z": 1.2874772924,
				"element": "H" 
			},
			{
				"x": -2.5455651759,
				"y": -4.1687110965,
				"z": 0.2460932178,
				"element": "H" 
			},
			{
				"x": -0.7813198637,
				"y": -4.2824949246,
				"z": 0.2766630259,
				"element": "H" 
			},
			{
				"x": -1.5715292246,
				"y": -3.0648513414,
				"z": -0.7431626452,
				"element": "H" 
			},
			{
				"x": 0.4785829454,
				"y": -2.1716030706,
				"z": 0.8947899475,
				"element": "H" 
			},
			{
				"x": 1.8475206606,
				"y": -0.4771999695,
				"z": 1.8103617067,
				"element": "H" 
			},
			{
				"x": 1.0643640582,
				"y": 1.1000476944,
				"z": 2.0751622444,
				"element": "H" 
			},
			{
				"x": 2.90386158,
				"y": -0.9822781375,
				"z": -2.5172219796,
				"element": "H" 
			},
			{
				"x": 3.2096668733,
				"y": 0.4208226971,
				"z": -4.2944346744,
				"element": "H" 
			},
			{
				"x": 3.0537194611,
				"y": 2.1761371338,
				"z": -4.0887882603,
				"element": "H" 
			},
			{
				"x": 1.6900241416,
				"y": 1.2520207352,
				"z": -4.6889781396,
				"element": "H" 
			},
			{
				"x": 0.4968872258,
				"y": 4.171081228,
				"z": -3.9650293265,
				"element": "H" 
			},
			{
				"x": -0.2732654765,
				"y": 3.430646812,
				"z": -0.2090479157,
				"element": "H" 
			},
			{
				"x": -0.5489020544,
				"y": 2.1180815312,
				"z": 0.9652416684,
				"element": "H" 
			},
			{
				"x": 0.8726509591,
				"y": 3.1704282906,
				"z": 1.0844267591,
				"element": "H" 
			}
		],
		 "valence_orbital": [ 
			{
				"type": "occ",
				"energy": -0.28363,
				"method": "rhf"
			},
			{
				"type": "occ",
				"energy": -0.2674,
				"method": "rhf"
			},
			{
				"type": "occ",
				"energy": -0.25102,
				"method": "rhf"
			},
			{
				"type": "occ",
				"energy": -0.24677,
				"method": "rhf"
			},
			{
				"type": "occ",
				"energy": -0.22817,
				"method": "rhf"
			},
			{
				"type": "unocc",
				"energy": -0.04758,
				"method": "rhf"
			},
			{
				"type": "unocc",
				"energy": -0.03729,
				"method": "rhf"
			},
			{
				"type": "unocc",
				"energy": 0.0178,
				"method": "rhf"
			},
			{
				"type": "unocc",
				"energy": 0.03866,
				"method": "rhf"
			},
			{
				"type": "unocc",
				"energy": 0.07418,
				"method": "rhf"
			}
		],
		"cosmo_sigma_profile": { 
			"-0.025": 0.0,
			"-0.024": 0.0,
			"-0.023": 0.0,
			"-0.022": 0.0,
			"-0.021": 0.0,
			"-0.02": 0.0,
			"-0.019": 0.0,
			"-0.018": 0.558729854902,
			"-0.017": 1.13666359074,
			"-0.016": 0.73000553163,
			"-0.015": 0.674200255473,
			"-0.014": 0.583308544818,
			"-0.013": 0.829698724392,
			"-0.012": 0.635334458614,
			"-0.011": 0.742658630607,
			"-0.01": 0.542453109386,
			"-0.009": 0.85295674455,
			"-0.008": 2.84978871586,
			"-0.007": 6.57289971073,
			"-0.006": 10.9738791368,
			"-0.005": 14.5001735856,
			"-0.004": 22.8691858142,
			"-0.003": 34.1905750489,
			"-0.002": 32.9975449027,
			"-0.001": 36.6535327183,
			"0.0": 33.0306265923,
			"0.001": 24.9390855349,
			"0.002": 13.7028512727,
			"0.003": 9.03741844156,
			"0.004": 6.68420507782,
			"0.005": 5.11235473748,
			"0.006": 4.75217020585,
			"0.007": 5.79162394123,
			"0.008": 3.85102257668,
			"0.009": 4.06942664681,
			"0.01": 4.84701180044,
			"0.011": 5.53341579319,
			"0.012": 6.56294676217,
			"0.013": 6.14613154407,
			"0.014": 4.28332063432,
			"0.015": 0.438279012252,
			"0.016": 0.0,
			"0.017": 0.0,
			"0.018": 0.0,
			"0.019": 0.0,
			"0.02": 0.0,
			"0.021": 0.0,
			"0.022": 0.0,
			"0.023": 0.0,
			"0.024": 0.0,
			"0.025": 0.0
		}
	}
}
