{
	 "smiles": "O=S(=O)(CC#N)N1CCCCC1", 
	 "Tm": 411.15, 
	 "num_atms": 24, 
	 "gaussian": { 
		 "optdone": 1, 
		 "sigma_profile": "yes", 
		 "theory": "DFT", 
		 "functional": "B3LYP", 
		 "basiset": "6-31G**", 
		 "properties": { 
			 "R2extent": 2708.9031, 
			 "electric_dipole_moment_norm": 3.8719893285, 
			 "electric_quadrupole_moment_norm": 12.8202941893, 
			 "total_energy": -932.021158898, 
			 "HOMO_LUMO_gap": 0.24769, 
			 "cosmo_polarized_energy": -15.62, 
			 "cosmo_cavitation_energy": 27.74, 
			 "cosmo_dispersion_energy": -19.92, 
			 "cosmo_repulsion_energy": 1.54, 
			 "cosmo_total_nonelectrostatic_energy": 9.36, 
			 "SMD_solvation_energy": 4.11 
		},
		"coords": [
			{
				"x": -1.340828187,
				"y": 1.8877398954,
				"z": -0.806764,
				"element": "O" 
			},
			{
				"x": -0.1791193139,
				"y": 1.1585192632,
				"z": -1.316641336,
				"element": "S" 
			},
			{
				"x": 1.1461324946,
				"y": 1.7637022544,
				"z": -1.4241904208,
				"element": "O" 
			},
			{
				"x": -0.6890243323,
				"y": 0.7034362923,
				"z": -3.0450026066,
				"element": "C" 
			},
			{
				"x": 0.1987814037,
				"y": -0.2685745566,
				"z": -3.6592496107,
				"element": "C" 
			},
			{
				"x": 0.9059589173,
				"y": -1.071131664,
				"z": -4.1108867008,
				"element": "N" 
			},
			{
				"x": -0.0310924984,
				"y": -0.2535553254,
				"z": -0.4858508426,
				"element": "N" 
			},
			{
				"x": -1.2436264305,
				"y": -0.9522039916,
				"z": -0.0095500421,
				"element": "C" 
			},
			{
				"x": -0.8482186051,
				"y": -1.9340520798,
				"z": 1.0958208141,
				"element": "C" 
			},
			{
				"x": 0.1461037944,
				"y": -3.0042266984,
				"z": 0.5933685101,
				"element": "C" 
			},
			{
				"x": 1.0951365892,
				"y": -2.4456710381,
				"z": -0.495285502,
				"element": "C" 
			},
			{
				"x": 1.2836239063,
				"y": -0.9326164984,
				"z": -0.3700006918,
				"element": "C" 
			},
			{
				"x": -0.6988437245,
				"y": 1.643800313,
				"z": -3.6030291024,
				"element": "H" 
			},
			{
				"x": -1.7093907049,
				"y": 0.315561026,
				"z": -2.9860669993,
				"element": "H" 
			},
			{
				"x": -1.9463748093,
				"y": -0.204903733,
				"z": 0.3634154499,
				"element": "H" 
			},
			{
				"x": -1.7309006762,
				"y": -1.4966006761,
				"z": -0.8339712531,
				"element": "H" 
			},
			{
				"x": -1.7549031052,
				"y": -2.4025923014,
				"z": 1.4922279353,
				"element": "H" 
			},
			{
				"x": -0.4067371225,
				"y": -1.360587923,
				"z": 1.9187303837,
				"element": "H" 
			},
			{
				"x": 0.7232091138,
				"y": -3.3807498769,
				"z": 1.4447970941,
				"element": "H" 
			},
			{
				"x": -0.4011826821,
				"y": -3.8626761261,
				"z": 0.188603862,
				"element": "H" 
			},
			{
				"x": 2.0760363896,
				"y": -2.9288084553,
				"z": -0.4392159315,
				"element": "H" 
			},
			{
				"x": 0.7023605659,
				"y": -2.6592369159,
				"z": -1.4952920743,
				"element": "H" 
			},
			{
				"x": 1.944560738,
				"y": -0.5533371063,
				"z": -1.1493332105,
				"element": "H" 
			},
			{
				"x": 1.7373382788,
				"y": -0.673834078,
				"z": 0.5951662753,
				"element": "H" 
			}
		],
		 "valence_orbital": [ 
			{
				"type": "occ",
				"energy": -0.33349,
				"method": "rhf"
			},
			{
				"type": "occ",
				"energy": -0.32903,
				"method": "rhf"
			},
			{
				"type": "occ",
				"energy": -0.31318,
				"method": "rhf"
			},
			{
				"type": "occ",
				"energy": -0.30731,
				"method": "rhf"
			},
			{
				"type": "occ",
				"energy": -0.26134,
				"method": "rhf"
			},
			{
				"type": "unocc",
				"energy": -0.01365,
				"method": "rhf"
			},
			{
				"type": "unocc",
				"energy": 0.01664,
				"method": "rhf"
			},
			{
				"type": "unocc",
				"energy": 0.0499,
				"method": "rhf"
			},
			{
				"type": "unocc",
				"energy": 0.06416,
				"method": "rhf"
			},
			{
				"type": "unocc",
				"energy": 0.07758,
				"method": "rhf"
			}
		],
		"cosmo_sigma_profile": { 
			"-0.025": 0.0,
			"-0.024": 0.0,
			"-0.023": 0.0,
			"-0.022": 0.0,
			"-0.021": 0.0,
			"-0.02": 0.0,
			"-0.019": 0.0,
			"-0.018": 0.0,
			"-0.017": 0.0,
			"-0.016": 0.0,
			"-0.015": 0.0,
			"-0.014": 0.0,
			"-0.013": 0.0,
			"-0.012": 1.67211328652,
			"-0.011": 5.14023584667,
			"-0.01": 4.46363063732,
			"-0.009": 4.45692705428,
			"-0.008": 3.50824478822,
			"-0.007": 3.92045197582,
			"-0.006": 3.15167410167,
			"-0.005": 6.91987526971,
			"-0.004": 20.6655666638,
			"-0.003": 30.7838413045,
			"-0.002": 23.9406252101,
			"-0.001": 16.1288921083,
			"0.0": 15.2308296756,
			"0.001": 8.70399487667,
			"0.002": 7.97345550578,
			"0.003": 5.3280171436,
			"0.004": 4.22720137358,
			"0.005": 5.16240386093,
			"0.006": 5.1437131862,
			"0.007": 6.02630286173,
			"0.008": 4.94628758552,
			"0.009": 7.60552722578,
			"0.01": 11.430750056,
			"0.011": 9.54454560019,
			"0.012": 2.10411845526,
			"0.013": 0.143694564301,
			"0.014": 0.0,
			"0.015": 0.0,
			"0.016": 0.0,
			"0.017": 0.0,
			"0.018": 0.0,
			"0.019": 0.0,
			"0.02": 0.0,
			"0.021": 0.0,
			"0.022": 0.0,
			"0.023": 0.0,
			"0.024": 0.0,
			"0.025": 0.0
		}
	}
}
