{
	 "smiles": "COC(=O)C1=C(O)C=NC=C1", 
	 "Tm": 423.15, 
	 "num_atms": 18, 
	 "gaussian": { 
		 "optdone": 1, 
		 "sigma_profile": "yes", 
		 "theory": "DFT", 
		 "functional": "B3LYP", 
		 "basiset": "6-31G**", 
		 "properties": { 
			 "R2extent": 2032.2784, 
			 "electric_dipole_moment_norm": 3.50014537698, 
			 "electric_quadrupole_moment_norm": 11.5122728538, 
			 "total_energy": -551.387803468, 
			 "HOMO_LUMO_gap": 0.17405, 
			 "cosmo_polarized_energy": -10.1, 
			 "cosmo_cavitation_energy": 22.53, 
			 "cosmo_dispersion_energy": -16.93, 
			 "cosmo_repulsion_energy": 1.35, 
			 "cosmo_total_nonelectrostatic_energy": 6.94, 
			 "SMD_solvation_energy": 4.51 
		},
		"coords": [
			{
				"x": -0.0915025383,
				"y": 0.8540148035,
				"z": -3.5360595854,
				"element": "C" 
			},
			{
				"x": -0.4896741262,
				"y": 0.2276830296,
				"z": -2.2992447965,
				"element": "O" 
			},
			{
				"x": -0.489918921,
				"y": 1.0409144999,
				"z": -1.1972195923,
				"element": "C" 
			},
			{
				"x": -0.1762081115,
				"y": 2.2091246876,
				"z": -1.262857963,
				"element": "O" 
			},
			{
				"x": -0.9101601778,
				"y": 0.3330562711,
				"z": 0.0384166919,
				"element": "C" 
			},
			{
				"x": -1.2750904944,
				"y": -1.0276903929,
				"z": 0.1074648025,
				"element": "C" 
			},
			{
				"x": -1.2970090168,
				"y": -1.8848903416,
				"z": -0.9318431937,
				"element": "O" 
			},
			{
				"x": -1.6500813088,
				"y": -1.5432344268,
				"z": 1.3660906597,
				"element": "C" 
			},
			{
				"x": -1.6797460947,
				"y": -0.8280424978,
				"z": 2.482546848,
				"element": "N" 
			},
			{
				"x": -1.3307150078,
				"y": 0.4699474328,
				"z": 2.4117777555,
				"element": "C" 
			},
			{
				"x": -0.9458330097,
				"y": 1.079700802,
				"z": 1.2285437887,
				"element": "C" 
			},
			{
				"x": -0.7672614064,
				"y": 1.6772251339,
				"z": -3.7762102521,
				"element": "H" 
			},
			{
				"x": -0.1491370376,
				"y": 0.0723150406,
				"z": -4.2924466589,
				"element": "H" 
			},
			{
				"x": 0.9266433847,
				"y": 1.2392701835,
				"z": -3.4526751456,
				"element": "H" 
			},
			{
				"x": -1.0188591301,
				"y": -1.4024476576,
				"z": -1.7312616171,
				"element": "H" 
			},
			{
				"x": -1.9323913879,
				"y": -2.5925174676,
				"z": 1.4240380432,
				"element": "H" 
			},
			{
				"x": -1.3641791153,
				"y": 1.0316541593,
				"z": 3.3416883709,
				"element": "H" 
			},
			{
				"x": -0.6681765004,
				"y": 2.1274167405,
				"z": 1.1926518444,
				"element": "H" 
			}
		],
		 "valence_orbital": [ 
			{
				"type": "occ",
				"energy": -0.32807,
				"method": "rhf"
			},
			{
				"type": "occ",
				"energy": -0.29838,
				"method": "rhf"
			},
			{
				"type": "occ",
				"energy": -0.28957,
				"method": "rhf"
			},
			{
				"type": "occ",
				"energy": -0.25995,
				"method": "rhf"
			},
			{
				"type": "occ",
				"energy": -0.23969,
				"method": "rhf"
			},
			{
				"type": "unocc",
				"energy": -0.06564,
				"method": "rhf"
			},
			{
				"type": "unocc",
				"energy": -0.00577,
				"method": "rhf"
			},
			{
				"type": "unocc",
				"energy": 0.03912,
				"method": "rhf"
			},
			{
				"type": "unocc",
				"energy": 0.08154,
				"method": "rhf"
			},
			{
				"type": "unocc",
				"energy": 0.10267,
				"method": "rhf"
			}
		],
		"cosmo_sigma_profile": { 
			"-0.025": 0.0,
			"-0.024": 0.0,
			"-0.023": 0.0,
			"-0.022": 0.0,
			"-0.021": 0.0,
			"-0.02": 0.0,
			"-0.019": 0.0,
			"-0.018": 0.0,
			"-0.017": 0.0,
			"-0.016": 0.0,
			"-0.015": 0.0,
			"-0.014": 0.0,
			"-0.013": 0.0,
			"-0.012": 0.204754629579,
			"-0.011": 0.315420901578,
			"-0.01": 0.541430867939,
			"-0.009": 1.16350758864,
			"-0.008": 0.874208693284,
			"-0.007": 7.01480961509,
			"-0.006": 15.0031066898,
			"-0.005": 15.2218458373,
			"-0.004": 18.8676928962,
			"-0.003": 13.136641474,
			"-0.002": 10.4630769487,
			"-0.001": 12.0367449139,
			"0.0": 15.594279131,
			"0.001": 13.2707835197,
			"0.002": 9.62502311955,
			"0.003": 5.01035508093,
			"0.004": 6.34901100016,
			"0.005": 4.43379741741,
			"0.006": 3.62907188188,
			"0.007": 4.10785540674,
			"0.008": 4.35847736124,
			"0.009": 4.58759328028,
			"0.01": 5.18774568658,
			"0.011": 5.48570635945,
			"0.012": 0.921996760032,
			"0.013": 1.06243539042,
			"0.014": 0.819163749162,
			"0.015": 0.853511262028,
			"0.016": 0.49401669637,
			"0.017": 0.0,
			"0.018": 0.0,
			"0.019": 0.0,
			"0.02": 0.0,
			"0.021": 0.0,
			"0.022": 0.0,
			"0.023": 0.0,
			"0.024": 0.0,
			"0.025": 0.0
		}
	}
}
