{
	 "smiles": "CCOC1=C(OCCOC2=CC=C(F)C=C2)C=CC(C=CC(O)=O)=C1", 
	 "Tm": 379.15, 
	 "num_atms": 44, 
	 "gaussian": { 
		 "optdone": 1, 
		 "sigma_profile": "yes", 
		 "theory": "DFT", 
		 "functional": "B3LYP", 
		 "basiset": "6-31G**", 
		 "properties": { 
			 "R2extent": 13743.648, 
			 "electric_dipole_moment_norm": 3.96719179017, 
			 "electric_quadrupole_moment_norm": 34.6317603698, 
			 "total_energy": -1211.3876399, 
			 "HOMO_LUMO_gap": 0.15474, 
			 "cosmo_polarized_energy": -19.5, 
			 "cosmo_cavitation_energy": 49.91, 
			 "cosmo_dispersion_energy": -33.67, 
			 "cosmo_repulsion_energy": 2.57, 
			 "cosmo_total_nonelectrostatic_energy": 18.82, 
			 "SMD_solvation_energy": 10.86 
		},
		"coords": [
			{
				"x": 3.1024633619,
				"y": 3.6679733157,
				"z": 0.1858029519,
				"element": "C" 
			},
			{
				"x": 1.890854341,
				"y": 2.7980129037,
				"z": 0.4667709823,
				"element": "C" 
			},
			{
				"x": 1.9911760639,
				"y": 2.3525347632,
				"z": 1.8347050036,
				"element": "O" 
			},
			{
				"x": 0.94221719,
				"y": 1.6149434671,
				"z": 2.3182034282,
				"element": "C" 
			},
			{
				"x": 0.6746566726,
				"y": 0.3076339532,
				"z": 1.8493325742,
				"element": "C" 
			},
			{
				"x": 1.4962539039,
				"y": -0.152829182,
				"z": 0.8655877905,
				"element": "O" 
			},
			{
				"x": 1.2180573268,
				"y": -1.4090739792,
				"z": 0.2617117034,
				"element": "C" 
			},
			{
				"x": 2.1965879068,
				"y": -1.576243849,
				"z": -0.8923623268,
				"element": "C" 
			},
			{
				"x": 1.9921169632,
				"y": -0.6337842113,
				"z": -1.9363351304,
				"element": "O" 
			},
			{
				"x": 0.9965304754,
				"y": -0.8381321018,
				"z": -2.8580487543,
				"element": "C" 
			},
			{
				"x": 0.1654317276,
				"y": -1.963184488,
				"z": -2.917838219,
				"element": "C" 
			},
			{
				"x": -0.8007843218,
				"y": -2.0645959764,
				"z": -3.9247404018,
				"element": "C" 
			},
			{
				"x": -0.9271665623,
				"y": -1.0440928712,
				"z": -4.8541776798,
				"element": "C" 
			},
			{
				"x": -1.8627839886,
				"y": -1.1427784197,
				"z": -5.8243503013,
				"element": "F" 
			},
			{
				"x": -0.1116251517,
				"y": 0.0838973891,
				"z": -4.8090400317,
				"element": "C" 
			},
			{
				"x": 0.8482511627,
				"y": 0.1832851144,
				"z": -3.8086261904,
				"element": "C" 
			},
			{
				"x": -0.3676485222,
				"y": -0.4252502798,
				"z": 2.4271832444,
				"element": "C" 
			},
			{
				"x": -1.1419681228,
				"y": 0.1191477761,
				"z": 3.4500502928,
				"element": "C" 
			},
			{
				"x": -0.8938466345,
				"y": 1.4140324953,
				"z": 3.9314193105,
				"element": "C" 
			},
			{
				"x": -1.60353688,
				"y": 2.0644382208,
				"z": 5.0369596152,
				"element": "C" 
			},
			{
				"x": -2.8221520551,
				"y": 1.930264586,
				"z": 5.6113507654,
				"element": "C" 
			},
			{
				"x": -4.0107100177,
				"y": 1.1231515882,
				"z": 5.287587778,
				"element": "C" 
			},
			{
				"x": -3.9777702756,
				"y": 0.4433657139,
				"z": 4.1101012104,
				"element": "O" 
			},
			{
				"x": -4.9950733454,
				"y": 1.0889392415,
				"z": 6.004336123,
				"element": "O" 
			},
			{
				"x": 0.1732625327,
				"y": 2.1331533936,
				"z": 3.3500357511,
				"element": "C" 
			},
			{
				"x": 3.131251339,
				"y": 4.5259982487,
				"z": 0.8636853696,
				"element": "H" 
			},
			{
				"x": 4.0247015003,
				"y": 3.0946925277,
				"z": 0.3170693576,
				"element": "H" 
			},
			{
				"x": 3.0690589055,
				"y": 4.0384147035,
				"z": -0.8437245154,
				"element": "H" 
			},
			{
				"x": 0.9594870448,
				"y": 3.3686243647,
				"z": 0.3437290915,
				"element": "H" 
			},
			{
				"x": 1.8599920462,
				"y": 1.9354306287,
				"z": -0.2065036369,
				"element": "H" 
			},
			{
				"x": 0.1804514667,
				"y": -1.4419647018,
				"z": -0.0932978547,
				"element": "H" 
			},
			{
				"x": 1.3644409963,
				"y": -2.2271459945,
				"z": 0.9825248167,
				"element": "H" 
			},
			{
				"x": 2.1601394027,
				"y": -2.6060193105,
				"z": -1.2695486912,
				"element": "H" 
			},
			{
				"x": 3.2091255387,
				"y": -1.3835658232,
				"z": -0.5287778257,
				"element": "H" 
			},
			{
				"x": 0.2514314797,
				"y": -2.7689741182,
				"z": -2.19892344,
				"element": "H" 
			},
			{
				"x": -1.4528596589,
				"y": -2.9291487964,
				"z": -3.9859011415,
				"element": "H" 
			},
			{
				"x": -0.2350136582,
				"y": 0.8654403135,
				"z": -5.5509200705,
				"element": "H" 
			},
			{
				"x": 1.5023988072,
				"y": 1.0463344322,
				"z": -3.7460085367,
				"element": "H" 
			},
			{
				"x": -0.5728196695,
				"y": -1.4364057017,
				"z": 2.0952340373,
				"element": "H" 
			},
			{
				"x": -1.9348590879,
				"y": -0.4745861646,
				"z": 3.8815896563,
				"element": "H" 
			},
			{
				"x": -0.9967025921,
				"y": 2.8410894595,
				"z": 5.5038855442,
				"element": "H" 
			},
			{
				"x": -3.0237496112,
				"y": 2.5533865979,
				"z": 6.4770314198,
				"element": "H" 
			},
			{
				"x": -4.8459951202,
				"y": 0.0111159618,
				"z": 4.0472412074,
				"element": "H" 
			},
			{
				"x": 0.4205271202,
				"y": 3.1306748094,
				"z": 3.7013957227,
				"element": "H" 
			}
		],
		 "valence_orbital": [ 
			{
				"type": "occ",
				"energy": -0.26892,
				"method": "rhf"
			},
			{
				"type": "occ",
				"energy": -0.2679,
				"method": "rhf"
			},
			{
				"type": "occ",
				"energy": -0.24439,
				"method": "rhf"
			},
			{
				"type": "occ",
				"energy": -0.22504,
				"method": "rhf"
			},
			{
				"type": "occ",
				"energy": -0.21489,
				"method": "rhf"
			},
			{
				"type": "unocc",
				"energy": -0.06015,
				"method": "rhf"
			},
			{
				"type": "unocc",
				"energy": -0.01966,
				"method": "rhf"
			},
			{
				"type": "unocc",
				"energy": -0.00347,
				"method": "rhf"
			},
			{
				"type": "unocc",
				"energy": 0.00743,
				"method": "rhf"
			},
			{
				"type": "unocc",
				"energy": 0.02264,
				"method": "rhf"
			}
		],
		"cosmo_sigma_profile": { 
			"-0.025": 0.0,
			"-0.024": 0.0,
			"-0.023": 0.0,
			"-0.022": 0.0,
			"-0.021": 0.0,
			"-0.02": 0.0,
			"-0.019": 0.0,
			"-0.018": 0.276774927357,
			"-0.017": 0.873942526376,
			"-0.016": 1.07948375835,
			"-0.015": 0.567224207669,
			"-0.014": 0.866479652581,
			"-0.013": 0.287240008731,
			"-0.012": 0.661901246814,
			"-0.011": 0.898306682536,
			"-0.01": 1.16319541207,
			"-0.009": 1.75239923964,
			"-0.008": 3.70599109289,
			"-0.007": 17.601876818,
			"-0.006": 28.0677414001,
			"-0.005": 21.4517298892,
			"-0.004": 24.0740533282,
			"-0.003": 25.5255283488,
			"-0.002": 27.2713671086,
			"-0.001": 26.8345761931,
			"0.0": 28.0280366741,
			"0.001": 29.459600137,
			"0.002": 29.4976194837,
			"0.003": 33.8474147549,
			"0.004": 33.7459274279,
			"0.005": 18.5216526381,
			"0.006": 7.98444231244,
			"0.007": 5.43758796334,
			"0.008": 5.25468061134,
			"0.009": 5.17405439996,
			"0.01": 3.92980835045,
			"0.011": 4.43214670645,
			"0.012": 5.93908119321,
			"0.013": 2.69088912677,
			"0.014": 0.155368236296,
			"0.015": 0.0,
			"0.016": 0.0,
			"0.017": 0.0,
			"0.018": 0.0,
			"0.019": 0.0,
			"0.02": 0.0,
			"0.021": 0.0,
			"0.022": 0.0,
			"0.023": 0.0,
			"0.024": 0.0,
			"0.025": 0.0
		}
	}
}
