{
	 "smiles": "OCCC1CSCCN1", 
	 "Tm": 360.15, 
	 "num_atms": 22, 
	 "gaussian": { 
		 "optdone": 1, 
		 "sigma_profile": "yes", 
		 "theory": "DFT", 
		 "functional": "B3LYP", 
		 "basiset": "6-31G**", 
		 "properties": { 
			 "R2extent": 2385.3544, 
			 "electric_dipole_moment_norm": 2.17493020348, 
			 "electric_quadrupole_moment_norm": 6.84263516198, 
			 "total_energy": -764.611713884, 
			 "HOMO_LUMO_gap": 0.25468, 
			 "cosmo_polarized_energy": -12.0, 
			 "cosmo_cavitation_energy": 24.29, 
			 "cosmo_dispersion_energy": -18.72, 
			 "cosmo_repulsion_energy": 1.49, 
			 "cosmo_total_nonelectrostatic_energy": 7.05, 
			 "SMD_solvation_energy": 0.92 
		},
		"coords": [
			{
				"x": -2.8097143693,
				"y": -1.7541330588,
				"z": -0.3533567517,
				"element": "O" 
			},
			{
				"x": -1.9127309349,
				"y": -0.7121721298,
				"z": -0.7110125484,
				"element": "C" 
			},
			{
				"x": -0.4486699621,
				"y": -1.1622940215,
				"z": -0.6286452598,
				"element": "C" 
			},
			{
				"x": 0.6168355895,
				"y": -0.1092446364,
				"z": -0.9870473423,
				"element": "C" 
			},
			{
				"x": 0.4084579405,
				"y": 0.4974209031,
				"z": -2.3879031514,
				"element": "C" 
			},
			{
				"x": 1.8783887845,
				"y": 1.4817059708,
				"z": -2.9129613865,
				"element": "S" 
			},
			{
				"x": 2.4307264463,
				"y": 2.0669227512,
				"z": -1.2499581922,
				"element": "C" 
			},
			{
				"x": 1.2574750633,
				"y": 2.2100175456,
				"z": -0.2855591738,
				"element": "C" 
			},
			{
				"x": 0.7126998648,
				"y": 0.8968761749,
				"z": 0.0882230488,
				"element": "N" 
			},
			{
				"x": -2.6041493863,
				"y": -2.0231052795,
				"z": 0.5516059799,
				"element": "H" 
			},
			{
				"x": -2.0882945517,
				"y": 0.1860523745,
				"z": -0.0947265828,
				"element": "H" 
			},
			{
				"x": -2.1758853174,
				"y": -0.4434510797,
				"z": -1.7386447991,
				"element": "H" 
			},
			{
				"x": -0.2391300602,
				"y": -1.504598248,
				"z": 0.3949572231,
				"element": "H" 
			},
			{
				"x": -0.3268529414,
				"y": -2.0323805851,
				"z": -1.2831298902,
				"element": "H" 
			},
			{
				"x": 1.5756774669,
				"y": -0.6439649159,
				"z": -1.023547707,
				"element": "H" 
			},
			{
				"x": 0.2898780046,
				"y": -0.2910736018,
				"z": -3.1371342941,
				"element": "H" 
			},
			{
				"x": -0.4841760989,
				"y": 1.1299149247,
				"z": -2.4182722965,
				"element": "H" 
			},
			{
				"x": 3.1765069649,
				"y": 1.3793030183,
				"z": -0.8405062424,
				"element": "H" 
			},
			{
				"x": 2.9091880112,
				"y": 3.0356535706,
				"z": -1.4123962853,
				"element": "H" 
			},
			{
				"x": 1.6038510302,
				"y": 2.7069807208,
				"z": 0.6303683328,
				"element": "H" 
			},
			{
				"x": 0.513013427,
				"y": 2.8790963554,
				"z": -0.7501536355,
				"element": "H" 
			},
			{
				"x": -0.1974949712,
				"y": 1.0316732465,
				"z": 0.5167009543,
				"element": "H" 
			}
		],
		 "valence_orbital": [ 
			{
				"type": "occ",
				"energy": -0.32439,
				"method": "rhf"
			},
			{
				"type": "occ",
				"energy": -0.29856,
				"method": "rhf"
			},
			{
				"type": "occ",
				"energy": -0.27093,
				"method": "rhf"
			},
			{
				"type": "occ",
				"energy": -0.22181,
				"method": "rhf"
			},
			{
				"type": "occ",
				"energy": -0.21691,
				"method": "rhf"
			},
			{
				"type": "unocc",
				"energy": 0.03777,
				"method": "rhf"
			},
			{
				"type": "unocc",
				"energy": 0.05661,
				"method": "rhf"
			},
			{
				"type": "unocc",
				"energy": 0.07094,
				"method": "rhf"
			},
			{
				"type": "unocc",
				"energy": 0.07802,
				"method": "rhf"
			},
			{
				"type": "unocc",
				"energy": 0.10379,
				"method": "rhf"
			}
		],
		"cosmo_sigma_profile": { 
			"-0.025": 0.0,
			"-0.024": 0.0,
			"-0.023": 0.0,
			"-0.022": 0.0,
			"-0.021": 0.0,
			"-0.02": 0.0,
			"-0.019": 0.0,
			"-0.018": 0.0,
			"-0.017": 0.0,
			"-0.016": 0.00722825235921,
			"-0.015": 0.941907214275,
			"-0.014": 0.66777893643,
			"-0.013": 1.04928475376,
			"-0.012": 0.966391166991,
			"-0.011": 1.26681294742,
			"-0.01": 1.53832827636,
			"-0.009": 2.30199367578,
			"-0.008": 1.98786817993,
			"-0.007": 3.91604238996,
			"-0.006": 5.05465758944,
			"-0.005": 10.0814160449,
			"-0.004": 21.0714963247,
			"-0.003": 24.7204973481,
			"-0.002": 22.2201320697,
			"-0.001": 17.5735924627,
			"0.0": 10.4430654419,
			"0.001": 7.92417416799,
			"0.002": 4.51018210069,
			"0.003": 4.25673429713,
			"0.004": 4.80173674934,
			"0.005": 5.37229601248,
			"0.006": 4.58266903015,
			"0.007": 5.88821311829,
			"0.008": 4.04918371346,
			"0.009": 3.90132669764,
			"0.01": 3.80756842341,
			"0.011": 3.7452993807,
			"0.012": 3.05961057602,
			"0.013": 2.21724391244,
			"0.014": 2.23108101369,
			"0.015": 1.84338288121,
			"0.016": 0.782560453796,
			"0.017": 0.253651000845,
			"0.018": 0.379080375978,
			"0.019": 0.0,
			"0.02": 0.0,
			"0.021": 0.0,
			"0.022": 0.0,
			"0.023": 0.0,
			"0.024": 0.0,
			"0.025": 0.0
		}
	}
}
