{
	 "smiles": "CC1C(C)=NN(C)C1=O", 
	 "Tm": 406.15, 
	 "num_atms": 19, 
	 "gaussian": { 
		 "optdone": 1, 
		 "sigma_profile": "yes", 
		 "theory": "DFT", 
		 "functional": "B3LYP", 
		 "basiset": "6-31G**", 
		 "properties": { 
			 "R2extent": 1283.3396, 
			 "electric_dipole_moment_norm": 2.55937755714, 
			 "electric_quadrupole_moment_norm": 9.0348927697, 
			 "total_energy": -419.383665099, 
			 "HOMO_LUMO_gap": 0.20365, 
			 "cosmo_polarized_energy": -10.08, 
			 "cosmo_cavitation_energy": 22.31, 
			 "cosmo_dispersion_energy": -16.14, 
			 "cosmo_repulsion_energy": 1.35, 
			 "cosmo_total_nonelectrostatic_energy": 7.51, 
			 "SMD_solvation_energy": 3.99 
		},
		"coords": [
			{
				"x": -0.274954381,
				"y": 2.1291388261,
				"z": 1.7317797654,
				"element": "C" 
			},
			{
				"x": -0.6256502198,
				"y": 0.7847932877,
				"z": 1.077151379,
				"element": "C" 
			},
			{
				"x": -1.4241263833,
				"y": 0.8436446129,
				"z": -0.2039412948,
				"element": "C" 
			},
			{
				"x": -2.7586419046,
				"y": 1.4928827763,
				"z": -0.3701432128,
				"element": "C" 
			},
			{
				"x": -0.8361935752,
				"y": 0.2462831618,
				"z": -1.1851324933,
				"element": "N" 
			},
			{
				"x": 0.3778296456,
				"y": -0.2585732629,
				"z": -0.7171190128,
				"element": "N" 
			},
			{
				"x": 1.2715882583,
				"y": -0.9469816276,
				"z": -1.6186366934,
				"element": "C" 
			},
			{
				"x": 0.621076598,
				"y": 0.0224265841,
				"z": 0.6082893769,
				"element": "C" 
			},
			{
				"x": 1.6211595858,
				"y": -0.2686086433,
				"z": 1.2447379364,
				"element": "O" 
			},
			{
				"x": -1.1645562017,
				"y": 2.6152625174,
				"z": 2.1422599127,
				"element": "H" 
			},
			{
				"x": 0.4381249683,
				"y": 1.9583857473,
				"z": 2.5425539896,
				"element": "H" 
			},
			{
				"x": 0.1878219489,
				"y": 2.8088733751,
				"z": 1.0098740135,
				"element": "H" 
			},
			{
				"x": -1.1478002332,
				"y": 0.155840835,
				"z": 1.8125595168,
				"element": "H" 
			},
			{
				"x": -3.105332141,
				"y": 1.3746555181,
				"z": -1.3989048519,
				"element": "H" 
			},
			{
				"x": -3.5003615858,
				"y": 1.0497020857,
				"z": 0.3059181982,
				"element": "H" 
			},
			{
				"x": -2.7115189162,
				"y": 2.5629364718,
				"z": -0.1345214803,
				"element": "H" 
			},
			{
				"x": 2.1542583459,
				"y": -1.2245542878,
				"z": -1.0400013605,
				"element": "H" 
			},
			{
				"x": 1.5658283062,
				"y": -0.2966294211,
				"z": -2.4487827099,
				"element": "H" 
			},
			{
				"x": 0.7992478849,
				"y": -1.8473785565,
				"z": -2.0240409788,
				"element": "H" 
			}
		],
		 "valence_orbital": [ 
			{
				"type": "occ",
				"energy": -0.35867,
				"method": "rhf"
			},
			{
				"type": "occ",
				"energy": -0.34139,
				"method": "rhf"
			},
			{
				"type": "occ",
				"energy": -0.302,
				"method": "rhf"
			},
			{
				"type": "occ",
				"energy": -0.24579,
				"method": "rhf"
			},
			{
				"type": "occ",
				"energy": -0.2234,
				"method": "rhf"
			},
			{
				"type": "unocc",
				"energy": -0.01975,
				"method": "rhf"
			},
			{
				"type": "unocc",
				"energy": 0.04327,
				"method": "rhf"
			},
			{
				"type": "unocc",
				"energy": 0.09013,
				"method": "rhf"
			},
			{
				"type": "unocc",
				"energy": 0.11838,
				"method": "rhf"
			},
			{
				"type": "unocc",
				"energy": 0.12963,
				"method": "rhf"
			}
		],
		"cosmo_sigma_profile": { 
			"-0.025": 0.0,
			"-0.024": 0.0,
			"-0.023": 0.0,
			"-0.022": 0.0,
			"-0.021": 0.0,
			"-0.02": 0.0,
			"-0.019": 0.0,
			"-0.018": 0.0,
			"-0.017": 0.0,
			"-0.016": 0.0,
			"-0.015": 0.0,
			"-0.014": 0.0,
			"-0.013": 0.0,
			"-0.012": 0.0,
			"-0.011": 0.0,
			"-0.01": 0.0,
			"-0.009": 0.0,
			"-0.008": 0.546254277199,
			"-0.007": 3.30339062716,
			"-0.006": 5.27172282577,
			"-0.005": 16.6011249451,
			"-0.004": 22.3318214261,
			"-0.003": 22.7860128723,
			"-0.002": 22.44823724,
			"-0.001": 18.3635172499,
			"0.0": 13.2840996664,
			"0.001": 5.95172624067,
			"0.002": 3.77868459325,
			"0.003": 4.66684444308,
			"0.004": 3.51460861366,
			"0.005": 3.75041942112,
			"0.006": 2.72358246966,
			"0.007": 2.56380839035,
			"0.008": 2.57369808224,
			"0.009": 2.72103212532,
			"0.01": 3.01616948176,
			"0.011": 1.71631810799,
			"0.012": 3.68890345667,
			"0.013": 6.15609410332,
			"0.014": 3.39561073541,
			"0.015": 0.181332043538,
			"0.016": 0.0,
			"0.017": 0.0,
			"0.018": 0.0,
			"0.019": 0.0,
			"0.02": 0.0,
			"0.021": 0.0,
			"0.022": 0.0,
			"0.023": 0.0,
			"0.024": 0.0,
			"0.025": 0.0
		}
	}
}
