{
	 "smiles": "CC1=CC=C(C)N1C1=C(C=C(C)C=C1)C(O)=O", 
	 "Tm": 431.15, 
	 "num_atms": 32, 
	 "gaussian": { 
		 "optdone": 1, 
		 "sigma_profile": "yes", 
		 "theory": "DFT", 
		 "functional": "B3LYP", 
		 "basiset": "6-31G**", 
		 "properties": { 
			 "R2extent": 3942.676, 
			 "electric_dipole_moment_norm": 4.0914313449, 
			 "electric_quadrupole_moment_norm": 4.11784492666, 
			 "total_energy": -747.748300135, 
			 "HOMO_LUMO_gap": 0.12663, 
			 "cosmo_polarized_energy": -12.94, 
			 "cosmo_cavitation_energy": 35.45, 
			 "cosmo_dispersion_energy": -23.93, 
			 "cosmo_repulsion_energy": 1.88, 
			 "cosmo_total_nonelectrostatic_energy": 13.4, 
			 "SMD_solvation_energy": 7.63 
		},
		"coords": [
			{
				"x": -1.3627819751,
				"y": 2.0565007219,
				"z": 1.49204001,
				"element": "C" 
			},
			{
				"x": -1.7803588282,
				"y": 1.7385152189,
				"z": 0.0937792958,
				"element": "C" 
			},
			{
				"x": -2.7195111586,
				"y": 2.3318329422,
				"z": -0.7182052215,
				"element": "C" 
			},
			{
				"x": -2.6975339977,
				"y": 1.6678715888,
				"z": -1.978753292,
				"element": "C" 
			},
			{
				"x": -1.747852229,
				"y": 0.673551595,
				"z": -1.9204279117,
				"element": "C" 
			},
			{
				"x": -1.3167040001,
				"y": -0.3177548273,
				"z": -2.953593238,
				"element": "C" 
			},
			{
				"x": -1.1815331374,
				"y": 0.7221787349,
				"z": -0.6460972513,
				"element": "N" 
			},
			{
				"x": -0.2302617829,
				"y": -0.2170292715,
				"z": -0.1500368189,
				"element": "C" 
			},
			{
				"x": 1.1616202457,
				"y": -0.0036889991,
				"z": -0.215182881,
				"element": "C" 
			},
			{
				"x": 2.0318268384,
				"y": -1.0108092575,
				"z": 0.2302904902,
				"element": "C" 
			},
			{
				"x": 1.5630975571,
				"y": -2.2142259398,
				"z": 0.7620196945,
				"element": "C" 
			},
			{
				"x": 2.5186169951,
				"y": -3.2673351475,
				"z": 1.2705347162,
				"element": "C" 
			},
			{
				"x": 0.1766831821,
				"y": -2.4073377759,
				"z": 0.8227680926,
				"element": "C" 
			},
			{
				"x": -0.701865695,
				"y": -1.4277263746,
				"z": 0.3679284407,
				"element": "C" 
			},
			{
				"x": 1.73712436,
				"y": 1.2790886986,
				"z": -0.7174141436,
				"element": "C" 
			},
			{
				"x": 2.9776726879,
				"y": 1.1072102529,
				"z": -1.2479632775,
				"element": "O" 
			},
			{
				"x": 1.2143674981,
				"y": 2.3712375552,
				"z": -0.6584109419,
				"element": "O" 
			},
			{
				"x": -0.3252507363,
				"y": 2.4082050169,
				"z": 1.525621565,
				"element": "H" 
			},
			{
				"x": -2.0012597506,
				"y": 2.8491128717,
				"z": 1.8901381928,
				"element": "H" 
			},
			{
				"x": -1.4450407693,
				"y": 1.1931253062,
				"z": 2.1642883624,
				"element": "H" 
			},
			{
				"x": -3.3459058808,
				"y": 3.1666285751,
				"z": -0.4340863527,
				"element": "H" 
			},
			{
				"x": -3.3072909181,
				"y": 1.8931936078,
				"z": -2.8434840945,
				"element": "H" 
			},
			{
				"x": -1.8917851598,
				"y": -0.1555533395,
				"z": -3.8685947604,
				"element": "H" 
			},
			{
				"x": -1.4787601522,
				"y": -1.3566112056,
				"z": -2.6391044657,
				"element": "H" 
			},
			{
				"x": -0.2535918011,
				"y": -0.2236959772,
				"z": -3.2095955962,
				"element": "H" 
			},
			{
				"x": 3.1001351035,
				"y": -0.8369551769,
				"z": 0.1598382161,
				"element": "H" 
			},
			{
				"x": 2.5749309245,
				"y": -3.2533408531,
				"z": 2.3658297987,
				"element": "H" 
			},
			{
				"x": 3.5299234802,
				"y": -3.1079079177,
				"z": 0.887045335,
				"element": "H" 
			},
			{
				"x": 2.1983182145,
				"y": -4.271897063,
				"z": 0.9763996669,
				"element": "H" 
			},
			{
				"x": -0.220386267,
				"y": -3.3366264066,
				"z": 1.2236835195,
				"element": "H" 
			},
			{
				"x": -1.7747559526,
				"y": -1.5884161947,
				"z": 0.4016229402,
				"element": "H" 
			},
			{
				"x": 3.2761131048,
				"y": 1.9971590417,
				"z": -1.4995780897,
				"element": "H" 
			}
		],
		 "valence_orbital": [ 
			{
				"type": "occ",
				"energy": -0.28003,
				"method": "rhf"
			},
			{
				"type": "occ",
				"energy": -0.26749,
				"method": "rhf"
			},
			{
				"type": "occ",
				"energy": -0.25691,
				"method": "rhf"
			},
			{
				"type": "occ",
				"energy": -0.21747,
				"method": "rhf"
			},
			{
				"type": "occ",
				"energy": -0.17817,
				"method": "rhf"
			},
			{
				"type": "unocc",
				"energy": -0.05154,
				"method": "rhf"
			},
			{
				"type": "unocc",
				"energy": -0.01856,
				"method": "rhf"
			},
			{
				"type": "unocc",
				"energy": 0.04043,
				"method": "rhf"
			},
			{
				"type": "unocc",
				"energy": 0.05288,
				"method": "rhf"
			},
			{
				"type": "unocc",
				"energy": 0.07628,
				"method": "rhf"
			}
		],
		"cosmo_sigma_profile": { 
			"-0.025": 0.0,
			"-0.024": 0.0,
			"-0.023": 0.0,
			"-0.022": 0.0,
			"-0.021": 0.0,
			"-0.02": 0.0,
			"-0.019": 0.0,
			"-0.018": 0.778238069191,
			"-0.017": 0.839885918175,
			"-0.016": 0.788722571304,
			"-0.015": 1.10339880313,
			"-0.014": 0.620002379202,
			"-0.013": 0.51357900951,
			"-0.012": 0.59977352618,
			"-0.011": 0.743921499743,
			"-0.01": 0.783811469948,
			"-0.009": 0.447965757199,
			"-0.008": 0.643776580319,
			"-0.007": 2.85950368409,
			"-0.006": 6.72931471262,
			"-0.005": 11.4750466036,
			"-0.004": 22.7886215729,
			"-0.003": 26.1648586971,
			"-0.002": 32.3428614711,
			"-0.001": 31.6544086016,
			"0.0": 33.5191462854,
			"0.001": 21.538926872,
			"0.002": 17.8702977925,
			"0.003": 15.2045314199,
			"0.004": 7.01179475204,
			"0.005": 6.40524894489,
			"0.006": 6.28185432373,
			"0.007": 6.3226082006,
			"0.008": 6.25570493327,
			"0.009": 5.68288100062,
			"0.01": 4.02803983632,
			"0.011": 3.88078939888,
			"0.012": 4.15712919771,
			"0.013": 0.616167716379,
			"0.014": 0.0,
			"0.015": 0.0,
			"0.016": 0.0,
			"0.017": 0.0,
			"0.018": 0.0,
			"0.019": 0.0,
			"0.02": 0.0,
			"0.021": 0.0,
			"0.022": 0.0,
			"0.023": 0.0,
			"0.024": 0.0,
			"0.025": 0.0
		}
	}
}
