{
	 "smiles": "CC1(C)[C@@H](O)CC[C@@]2(C)[C@@H]1C(=O)C(=O)C1=C2C(O)=C(O)C(C(CO)CO)=C1O", 
	 "Tm": 512.15, 
	 "num_atms": 54, 
	 "gaussian": { 
		 "optdone": 1, 
		 "sigma_profile": "yes", 
		 "theory": "DFT", 
		 "functional": "B3LYP", 
		 "basiset": "6-31G**", 
		 "properties": { 
			 "R2extent": 12361.9302, 
			 "electric_dipole_moment_norm": 7.15723080598, 
			 "electric_quadrupole_moment_norm": 27.5512745362, 
			 "total_energy": -1379.56763988, 
			 "HOMO_LUMO_gap": 0.12327, 
			 "cosmo_polarized_energy": -26.79, 
			 "cosmo_cavitation_energy": 49.4, 
			 "cosmo_dispersion_energy": -34.5, 
			 "cosmo_repulsion_energy": 2.56, 
			 "cosmo_total_nonelectrostatic_energy": 17.47, 
			 "SMD_solvation_energy": 9.81 
		},
		"coords": [
			{
				"x": 1.6317273484,
				"y": 0.9326743619,
				"z": 1.5733319113,
				"element": "C" 
			},
			{
				"x": 0.7352758607,
				"y": 1.7452669814,
				"z": 0.6117790552,
				"element": "C" 
			},
			{
				"x": 1.0785491399,
				"y": 3.2354437643,
				"z": 0.8265325882,
				"element": "C" 
			},
			{
				"x": -0.7551112245,
				"y": 1.4773583282,
				"z": 0.9626788631,
				"element": "C" 
			},
			{
				"x": -1.0763761174,
				"y": 1.863697806,
				"z": 2.3013953815,
				"element": "O" 
			},
			{
				"x": -1.7308746924,
				"y": 2.2289185142,
				"z": 0.0499345681,
				"element": "C" 
			},
			{
				"x": -1.228435469,
				"y": 2.3602241446,
				"z": -1.3982072963,
				"element": "C" 
			},
			{
				"x": -0.2754068187,
				"y": 1.2152120499,
				"z": -1.8247255417,
				"element": "C" 
			},
			{
				"x": 0.1390241822,
				"y": 1.4340369999,
				"z": -3.3021620799,
				"element": "C" 
			},
			{
				"x": 1.0024230147,
				"y": 1.3628322023,
				"z": -0.9212503757,
				"element": "C" 
			},
			{
				"x": 1.9022118276,
				"y": 0.1572790093,
				"z": -1.0673665018,
				"element": "C" 
			},
			{
				"x": 3.0957356157,
				"y": 0.2250801571,
				"z": -1.2863358189,
				"element": "O" 
			},
			{
				"x": 1.2338253342,
				"y": -1.2093113539,
				"z": -0.9133086008,
				"element": "C" 
			},
			{
				"x": 1.9325389823,
				"y": -2.1664936058,
				"z": -0.5185527373,
				"element": "O" 
			},
			{
				"x": -0.1617595573,
				"y": -1.3175267238,
				"z": -1.2643300312,
				"element": "C" 
			},
			{
				"x": -0.9117401295,
				"y": -0.186625468,
				"z": -1.7334262551,
				"element": "C" 
			},
			{
				"x": -2.1949177494,
				"y": -0.4377750947,
				"z": -2.187930349,
				"element": "C" 
			},
			{
				"x": -2.9750351612,
				"y": 0.5423118657,
				"z": -2.7425617352,
				"element": "O" 
			},
			{
				"x": -2.7809266136,
				"y": -1.7377465942,
				"z": -2.1091972551,
				"element": "C" 
			},
			{
				"x": -4.0502264615,
				"y": -1.7564314094,
				"z": -2.5597038447,
				"element": "O" 
			},
			{
				"x": -2.0877465493,
				"y": -2.8419445255,
				"z": -1.6059001413,
				"element": "C" 
			},
			{
				"x": -2.6144065483,
				"y": -4.2732600622,
				"z": -1.5419844803,
				"element": "C" 
			},
			{
				"x": -3.9894573703,
				"y": -4.4684213288,
				"z": -0.8939208916,
				"element": "C" 
			},
			{
				"x": -5.0501363713,
				"y": -4.0405627018,
				"z": -1.7676687822,
				"element": "O" 
			},
			{
				"x": -2.4645582741,
				"y": -4.9977235405,
				"z": -2.8915011029,
				"element": "C" 
			},
			{
				"x": -3.1709725734,
				"y": -4.2892932157,
				"z": -3.8993348069,
				"element": "O" 
			},
			{
				"x": -0.7558936157,
				"y": -2.6144066484,
				"z": -1.2059864573,
				"element": "C" 
			},
			{
				"x": -0.0422825463,
				"y": -3.6663764406,
				"z": -0.7777452637,
				"element": "O" 
			},
			{
				"x": 2.690060938,
				"y": 1.0403039445,
				"z": 1.3205541528,
				"element": "H" 
			},
			{
				"x": 1.5065593903,
				"y": 1.3000245667,
				"z": 2.5973455664,
				"element": "H" 
			},
			{
				"x": 1.3988611498,
				"y": -0.1381060153,
				"z": 1.5692240698,
				"element": "H" 
			},
			{
				"x": 2.1508860608,
				"y": 3.4033857773,
				"z": 0.6807140929,
				"element": "H" 
			},
			{
				"x": 0.8157035948,
				"y": 3.5335094043,
				"z": 1.8450186833,
				"element": "H" 
			},
			{
				"x": 0.5430956322,
				"y": 3.8935667282,
				"z": 0.1376497668,
				"element": "H" 
			},
			{
				"x": -0.9248221149,
				"y": 0.3969940943,
				"z": 0.8519059248,
				"element": "H" 
			},
			{
				"x": -0.6687755171,
				"y": 1.228419916,
				"z": 2.9027921364,
				"element": "H" 
			},
			{
				"x": -2.6968246319,
				"y": 1.714529397,
				"z": 0.0750254666,
				"element": "H" 
			},
			{
				"x": -1.8980601989,
				"y": 3.221658425,
				"z": 0.4816113938,
				"element": "H" 
			},
			{
				"x": -2.0706723107,
				"y": 2.433014799,
				"z": -2.0835674148,
				"element": "H" 
			},
			{
				"x": -0.6529459316,
				"y": 3.2863769074,
				"z": -1.5122046712,
				"element": "H" 
			},
			{
				"x": 0.8875865781,
				"y": 0.7023956415,
				"z": -3.6235869923,
				"element": "H" 
			},
			{
				"x": 0.5665120549,
				"y": 2.434077506,
				"z": -3.4350613472,
				"element": "H" 
			},
			{
				"x": -0.7318804951,
				"y": 1.3430000843,
				"z": -3.9564552334,
				"element": "H" 
			},
			{
				"x": 1.5809162925,
				"y": 2.1920993682,
				"z": -1.3397302545,
				"element": "H" 
			},
			{
				"x": -3.8190870144,
				"y": 0.1185422227,
				"z": -2.9693707964,
				"element": "H" 
			},
			{
				"x": -4.4680404521,
				"y": -2.6495137142,
				"z": -2.4607395842,
				"element": "H" 
			},
			{
				"x": -1.9313237994,
				"y": -4.7979008987,
				"z": -0.8649914741,
				"element": "H" 
			},
			{
				"x": -4.0252422927,
				"y": -3.9163047456,
				"z": 0.0544334106,
				"element": "H" 
			},
			{
				"x": -4.1237964346,
				"y": -5.5361869972,
				"z": -0.6742824799,
				"element": "H" 
			},
			{
				"x": -5.8656680692,
				"y": -3.9662349442,
				"z": -1.2555518987,
				"element": "H" 
			},
			{
				"x": -2.839699268,
				"y": -6.0298561389,
				"z": -2.7890507826,
				"element": "H" 
			},
			{
				"x": -1.3915931504,
				"y": -5.0535563252,
				"z": -3.1223770245,
				"element": "H" 
			},
			{
				"x": -2.8920251184,
				"y": -4.6231582544,
				"z": -4.7599290709,
				"element": "H" 
			},
			{
				"x": 0.8792276453,
				"y": -3.3129182204,
				"z": -0.5710276575,
				"element": "H" 
			}
		],
		 "valence_orbital": [ 
			{
				"type": "occ",
				"energy": -0.27592,
				"method": "rhf"
			},
			{
				"type": "occ",
				"energy": -0.25627,
				"method": "rhf"
			},
			{
				"type": "occ",
				"energy": -0.23478,
				"method": "rhf"
			},
			{
				"type": "occ",
				"energy": -0.22921,
				"method": "rhf"
			},
			{
				"type": "occ",
				"energy": -0.20174,
				"method": "rhf"
			},
			{
				"type": "unocc",
				"energy": -0.07847,
				"method": "rhf"
			},
			{
				"type": "unocc",
				"energy": -0.01448,
				"method": "rhf"
			},
			{
				"type": "unocc",
				"energy": 0.01648,
				"method": "rhf"
			},
			{
				"type": "unocc",
				"energy": 0.03868,
				"method": "rhf"
			},
			{
				"type": "unocc",
				"energy": 0.0672,
				"method": "rhf"
			}
		],
		"cosmo_sigma_profile": { 
			"-0.025": 0.0,
			"-0.024": 0.0,
			"-0.023": 0.0,
			"-0.022": 0.0,
			"-0.021": 0.0,
			"-0.02": 0.0,
			"-0.019": 0.0,
			"-0.018": 0.202443277665,
			"-0.017": 1.20914161413,
			"-0.016": 1.75869193614,
			"-0.015": 2.54111838562,
			"-0.014": 2.11097128805,
			"-0.013": 3.83962149524,
			"-0.012": 3.54679194783,
			"-0.011": 2.55525717044,
			"-0.01": 2.92329318354,
			"-0.009": 3.9129337696,
			"-0.008": 3.61406939182,
			"-0.007": 5.00910830188,
			"-0.006": 6.41365324028,
			"-0.005": 20.7587868775,
			"-0.004": 28.8569696785,
			"-0.003": 33.0939069826,
			"-0.002": 33.7215970349,
			"-0.001": 33.9599226022,
			"0.0": 40.2045176487,
			"0.001": 35.749430902,
			"0.002": 19.2887893382,
			"0.003": 12.2782110693,
			"0.004": 10.8622207267,
			"0.005": 9.33361723447,
			"0.006": 9.37978686029,
			"0.007": 9.3538206808,
			"0.008": 8.66461985985,
			"0.009": 6.78224279999,
			"0.01": 8.01558872525,
			"0.011": 8.46597226648,
			"0.012": 6.23820449728,
			"0.013": 3.69539561147,
			"0.014": 3.91814883385,
			"0.015": 1.10395499167,
			"0.016": 0.571999786524,
			"0.017": 0.051583275317,
			"0.018": 0.0,
			"0.019": 0.0,
			"0.02": 0.0,
			"0.021": 0.0,
			"0.022": 0.0,
			"0.023": 0.0,
			"0.024": 0.0,
			"0.025": 0.0
		}
	}
}
