{
	 "smiles": "NC1=NON=C1I", 
	 "Tm": 364.15, 
	 "num_atms": 9, 
	 "gaussian": { 
		 "optdone": 1, 
		 "sigma_profile": "yes", 
		 "theory": "DFT", 
		 "functional": "B3LYP", 
		 "basiset": "6-31G**", 
		 "properties": { 
			 "R2extent": 2094.7968, 
			 "electric_dipole_moment_norm": 4.33477543248, 
			 "electric_quadrupole_moment_norm": 11.8245218335, 
			 "total_energy": -328.1834812, 
			 "HOMO_LUMO_gap": 0.19582, 
			 "cosmo_polarized_energy": -11.51, 
			 "cosmo_cavitation_energy": 17.23, 
			 "cosmo_dispersion_energy": -14.54, 
			 "cosmo_repulsion_energy": 1.2, 
			 "cosmo_total_nonelectrostatic_energy": 3.89, 
			 "SMD_solvation_energy": 1.69 
		},
		"coords": [
			{
				"x": 0.8380552072,
				"y": 0.706705513,
				"z": -0.6320182877,
				"element": "N" 
			},
			{
				"x": 1.8514939755,
				"y": -0.1758689882,
				"z": -0.904078968,
				"element": "C" 
			},
			{
				"x": 1.6761068327,
				"y": -1.4553547603,
				"z": -1.1340217824,
				"element": "N" 
			},
			{
				"x": 2.9387609818,
				"y": -1.9488998206,
				"z": -1.4424601318,
				"element": "O" 
			},
			{
				"x": 3.8906989282,
				"y": -0.9707213463,
				"z": -1.3863857335,
				"element": "N" 
			},
			{
				"x": 3.2505815188,
				"y": 0.118199022,
				"z": -1.0623687766,
				"element": "C" 
			},
			{
				"x": 4.1933220483,
				"y": 1.9512472741,
				"z": -0.8175947098,
				"element": "I" 
			},
			{
				"x": -0.036844351,
				"y": 0.2793461718,
				"z": -0.3614825205,
				"element": "H" 
			},
			{
				"x": 1.0932248584,
				"y": 1.5118469344,
				"z": -0.0775890897,
				"element": "H" 
			}
		],
		 "valence_orbital": [ 
			{
				"type": "occ",
				"energy": -0.34658,
				"method": "rhf"
			},
			{
				"type": "occ",
				"energy": -0.32362,
				"method": "rhf"
			},
			{
				"type": "occ",
				"energy": -0.29562,
				"method": "rhf"
			},
			{
				"type": "occ",
				"energy": -0.28274,
				"method": "rhf"
			},
			{
				"type": "occ",
				"energy": -0.2565,
				"method": "rhf"
			},
			{
				"type": "unocc",
				"energy": -0.06068,
				"method": "rhf"
			},
			{
				"type": "unocc",
				"energy": -0.04905,
				"method": "rhf"
			},
			{
				"type": "unocc",
				"energy": 0.0252,
				"method": "rhf"
			},
			{
				"type": "unocc",
				"energy": 0.03929,
				"method": "rhf"
			},
			{
				"type": "unocc",
				"energy": 0.04683,
				"method": "rhf"
			}
		],
		"cosmo_sigma_profile": { 
			"-0.025": 0.0,
			"-0.024": 0.0,
			"-0.023": 0.0,
			"-0.022": 0.0,
			"-0.021": 0.0,
			"-0.02": 0.0,
			"-0.019": 0.0,
			"-0.018": 0.0,
			"-0.017": 0.0,
			"-0.016": 0.0,
			"-0.015": 0.600701811869,
			"-0.014": 2.14789739857,
			"-0.013": 2.24301903796,
			"-0.012": 2.730974397,
			"-0.011": 3.37292211041,
			"-0.01": 3.40161827402,
			"-0.009": 3.25977029769,
			"-0.008": 3.4782445469,
			"-0.007": 3.01346249524,
			"-0.006": 2.95364652473,
			"-0.005": 4.49055691398,
			"-0.004": 4.55616515828,
			"-0.003": 6.71203570177,
			"-0.002": 8.26199219186,
			"-0.001": 8.81473453456,
			"0.0": 9.64769649696,
			"0.001": 10.1837463221,
			"0.002": 16.3105482942,
			"0.003": 6.93565898641,
			"0.004": 4.48103825484,
			"0.005": 7.32995479612,
			"0.006": 9.60944027231,
			"0.007": 5.04916666109,
			"0.008": 3.62835836053,
			"0.009": 3.29564142774,
			"0.01": 2.70297763732,
			"0.011": 3.08683046134,
			"0.012": 1.19671580864,
			"0.013": 0.280288736523,
			"0.014": 0.0,
			"0.015": 0.0,
			"0.016": 0.0,
			"0.017": 0.0,
			"0.018": 0.0,
			"0.019": 0.0,
			"0.02": 0.0,
			"0.021": 0.0,
			"0.022": 0.0,
			"0.023": 0.0,
			"0.024": 0.0,
			"0.025": 0.0
		}
	}
}
