{
	 "smiles": "COC1=C(OC)C=C(CCNCC(O)COC2=CC=CC(C)=C2)C=C1", 
	 "Tm": 411.15, 
	 "num_atms": 52, 
	 "gaussian": { 
		 "optdone": 1, 
		 "sigma_profile": "yes", 
		 "theory": "DFT", 
		 "functional": "B3LYP", 
		 "basiset": "6-31G**", 
		 "properties": { 
			 "R2extent": 16778.3038, 
			 "electric_dipole_moment_norm": 3.18173134315, 
			 "electric_quadrupole_moment_norm": 13.9327404774, 
			 "total_energy": -1134.0061956, 
			 "HOMO_LUMO_gap": 0.20699, 
			 "cosmo_polarized_energy": -16.81, 
			 "cosmo_cavitation_energy": 54.52, 
			 "cosmo_dispersion_energy": -36.76, 
			 "cosmo_repulsion_energy": 2.84, 
			 "cosmo_total_nonelectrostatic_energy": 20.6, 
			 "SMD_solvation_energy": 7.89 
		},
		"coords": [
			{
				"x": -6.246523738,
				"y": -3.3291457751,
				"z": -2.4367022009,
				"element": "C" 
			},
			{
				"x": -5.2344518406,
				"y": -2.3297573312,
				"z": -2.5802801413,
				"element": "O" 
			},
			{
				"x": -3.9843706184,
				"y": -2.6700324096,
				"z": -2.126349154,
				"element": "C" 
			},
			{
				"x": -3.7117360833,
				"y": -2.8228314475,
				"z": -0.745508038,
				"element": "C" 
			},
			{
				"x": -4.7761083006,
				"y": -2.6636222328,
				"z": 0.0947109846,
				"element": "O" 
			},
			{
				"x": -4.5522270265,
				"y": -2.7678360486,
				"z": 1.4920397747,
				"element": "C" 
			},
			{
				"x": -2.4099777622,
				"y": -3.1137857966,
				"z": -0.3302949511,
				"element": "C" 
			},
			{
				"x": -1.3601359951,
				"y": -3.2494133688,
				"z": -1.2585385063,
				"element": "C" 
			},
			{
				"x": 0.0496721151,
				"y": -3.5244900287,
				"z": -0.7725872938,
				"element": "C" 
			},
			{
				"x": 0.7006554144,
				"y": -2.2961179273,
				"z": -0.1124578284,
				"element": "C" 
			},
			{
				"x": 0.8679443816,
				"y": -1.2201853427,
				"z": -1.0824884296,
				"element": "N" 
			},
			{
				"x": 1.3082431052,
				"y": 0.0650877935,
				"z": -0.551491633,
				"element": "C" 
			},
			{
				"x": 0.3051560593,
				"y": 0.7787763103,
				"z": 0.3772665127,
				"element": "C" 
			},
			{
				"x": -0.9574030102,
				"y": 0.9553018109,
				"z": -0.2627132126,
				"element": "O" 
			},
			{
				"x": 0.7621705029,
				"y": 2.1855696696,
				"z": 0.7488946776,
				"element": "C" 
			},
			{
				"x": 1.9754760628,
				"y": 2.0621311351,
				"z": 1.4809435855,
				"element": "O" 
			},
			{
				"x": 2.5942320862,
				"y": 3.1975260493,
				"z": 1.9267255384,
				"element": "C" 
			},
			{
				"x": 3.7883701162,
				"y": 2.9977940986,
				"z": 2.636571679,
				"element": "C" 
			},
			{
				"x": 4.4821702716,
				"y": 4.0955257744,
				"z": 3.1276893276,
				"element": "C" 
			},
			{
				"x": 4.0027339899,
				"y": 5.3942188179,
				"z": 2.9216651565,
				"element": "C" 
			},
			{
				"x": 2.8157880317,
				"y": 5.6019630253,
				"z": 2.2162077241,
				"element": "C" 
			},
			{
				"x": 2.2818914777,
				"y": 6.99571342,
				"z": 1.9766995178,
				"element": "C" 
			},
			{
				"x": 2.1116938801,
				"y": 4.492154227,
				"z": 1.7188616838,
				"element": "C" 
			},
			{
				"x": -1.6418924336,
				"y": -3.0828458555,
				"z": -2.6159840176,
				"element": "C" 
			},
			{
				"x": -2.9452707617,
				"y": -2.8015977269,
				"z": -3.039943085,
				"element": "C" 
			},
			{
				"x": -5.9683554579,
				"y": -4.2473952778,
				"z": -2.9705354871,
				"element": "H" 
			},
			{
				"x": -7.1498917954,
				"y": -2.9125467272,
				"z": -2.8870582996,
				"element": "H" 
			},
			{
				"x": -6.436844449,
				"y": -3.561600771,
				"z": -1.3848520423,
				"element": "H" 
			},
			{
				"x": -5.5182387512,
				"y": -2.586512383,
				"z": 1.9653662791,
				"element": "H" 
			},
			{
				"x": -3.8325700149,
				"y": -2.0167848173,
				"z": 1.8420113797,
				"element": "H" 
			},
			{
				"x": -4.1934909381,
				"y": -3.7663673492,
				"z": 1.7732220655,
				"element": "H" 
			},
			{
				"x": -2.1963568754,
				"y": -3.2476348717,
				"z": 0.7248809852,
				"element": "H" 
			},
			{
				"x": 0.0417794713,
				"y": -4.3444937275,
				"z": -0.0442684668,
				"element": "H" 
			},
			{
				"x": 0.6745321629,
				"y": -3.8415150233,
				"z": -1.613929752,
				"element": "H" 
			},
			{
				"x": 0.094438202,
				"y": -2.0181770258,
				"z": 0.7706637731,
				"element": "H" 
			},
			{
				"x": 1.6920600682,
				"y": -2.5707583865,
				"z": 0.2716674823,
				"element": "H" 
			},
			{
				"x": 0.0150484213,
				"y": -1.0971067934,
				"z": -1.6225694611,
				"element": "H" 
			},
			{
				"x": 1.509775278,
				"y": 0.7269520079,
				"z": -1.4035567564,
				"element": "H" 
			},
			{
				"x": 2.2544939204,
				"y": -0.0723652311,
				"z": -0.0164310766,
				"element": "H" 
			},
			{
				"x": 0.1891021266,
				"y": 0.2075418152,
				"z": 1.3111499591,
				"element": "H" 
			},
			{
				"x": -1.3699089527,
				"y": 0.0868896614,
				"z": -0.3556917393,
				"element": "H" 
			},
			{
				"x": -0.0137780316,
				"y": 2.6747898064,
				"z": 1.3518540622,
				"element": "H" 
			},
			{
				"x": 0.9134508114,
				"y": 2.7802030695,
				"z": -0.1634433396,
				"element": "H" 
			},
			{
				"x": 4.1430982307,
				"y": 1.9832962886,
				"z": 2.7856089097,
				"element": "H" 
			},
			{
				"x": 5.4065457418,
				"y": 3.94160523,
				"z": 3.6775885974,
				"element": "H" 
			},
			{
				"x": 4.5542489747,
				"y": 6.2454767365,
				"z": 3.3108755495,
				"element": "H" 
			},
			{
				"x": 1.2623385603,
				"y": 7.1054350441,
				"z": 2.3638834368,
				"element": "H" 
			},
			{
				"x": 2.9069386432,
				"y": 7.7503834229,
				"z": 2.4616244957,
				"element": "H" 
			},
			{
				"x": 2.2452580554,
				"y": 7.2303589423,
				"z": 0.9062617622,
				"element": "H" 
			},
			{
				"x": 1.1893077072,
				"y": 4.6559899275,
				"z": 1.1723429816,
				"element": "H" 
			},
			{
				"x": -0.8458715149,
				"y": -3.1828017269,
				"z": -3.348264429,
				"element": "H" 
			},
			{
				"x": -3.1772095185,
				"y": -2.669862681,
				"z": -4.0921385395,
				"element": "H" 
			}
		],
		 "valence_orbital": [ 
			{
				"type": "occ",
				"energy": -0.24306,
				"method": "rhf"
			},
			{
				"type": "occ",
				"energy": -0.23711,
				"method": "rhf"
			},
			{
				"type": "occ",
				"energy": -0.21961,
				"method": "rhf"
			},
			{
				"type": "occ",
				"energy": -0.2122,
				"method": "rhf"
			},
			{
				"type": "occ",
				"energy": -0.21168,
				"method": "rhf"
			},
			{
				"type": "unocc",
				"energy": -0.00469,
				"method": "rhf"
			},
			{
				"type": "unocc",
				"energy": 0.0046,
				"method": "rhf"
			},
			{
				"type": "unocc",
				"energy": 0.00619,
				"method": "rhf"
			},
			{
				"type": "unocc",
				"energy": 0.02154,
				"method": "rhf"
			},
			{
				"type": "unocc",
				"energy": 0.05698,
				"method": "rhf"
			}
		],
		"cosmo_sigma_profile": { 
			"-0.025": 0.0,
			"-0.024": 0.0,
			"-0.023": 0.0,
			"-0.022": 0.0,
			"-0.021": 0.0,
			"-0.02": 0.0,
			"-0.019": 0.0,
			"-0.018": 0.0,
			"-0.017": 0.0,
			"-0.016": 0.0,
			"-0.015": 0.0,
			"-0.014": 0.0,
			"-0.013": 0.0,
			"-0.012": 0.0,
			"-0.011": 0.0,
			"-0.01": 0.00392913056554,
			"-0.009": 0.4948288624,
			"-0.008": 2.05842377445,
			"-0.007": 3.9108441516,
			"-0.006": 12.4996239314,
			"-0.005": 30.197332136,
			"-0.004": 47.1782033442,
			"-0.003": 57.4144623246,
			"-0.002": 47.2018824495,
			"-0.001": 36.7540000232,
			"0.0": 32.9505066028,
			"0.001": 22.5572108764,
			"0.002": 19.4591951883,
			"0.003": 21.2456089212,
			"0.004": 22.2834051684,
			"0.005": 21.0164730764,
			"0.006": 15.7807511634,
			"0.007": 7.24074262212,
			"0.008": 5.07305880489,
			"0.009": 4.44377552912,
			"0.01": 4.53233895249,
			"0.011": 4.66439865398,
			"0.012": 3.8454979788,
			"0.013": 2.41142187202,
			"0.014": 1.02360665848,
			"0.015": 0.429475138118,
			"0.016": 0.514632910116,
			"0.017": 0.413703265508,
			"0.018": 0.262343020492,
			"0.019": 0.0,
			"0.02": 0.0,
			"0.021": 0.0,
			"0.022": 0.0,
			"0.023": 0.0,
			"0.024": 0.0,
			"0.025": 0.0
		}
	}
}
