{
	 "smiles": "FC1=CC(Br)=C(F)C(=C1Br)S(Cl)(=O)=O", 
	 "Tm": 342.15, 
	 "num_atms": 15, 
	 "gaussian": { 
		 "optdone": 1, 
		 "sigma_profile": "yes", 
		 "theory": "DFT", 
		 "functional": "B3LYP", 
		 "basiset": "6-31G**", 
		 "properties": { 
			 "R2extent": 6334.1987, 
			 "electric_dipole_moment_norm": 4.33116150357, 
			 "electric_quadrupole_moment_norm": 7.12510995634, 
			 "total_energy": -6580.43687689, 
			 "HOMO_LUMO_gap": 0.16461, 
			 "cosmo_polarized_energy": -8.58, 
			 "cosmo_cavitation_energy": 28.6, 
			 "cosmo_dispersion_energy": -22.07, 
			 "cosmo_repulsion_energy": 1.65, 
			 "cosmo_total_nonelectrostatic_energy": 8.17, 
			 "SMD_solvation_energy": 2.52 
		},
		"coords": [
			{
				"x": -0.7345478476,
				"y": 2.7980422377,
				"z": -1.6534990193,
				"element": "F" 
			},
			{
				"x": -0.1677631034,
				"y": 2.0824480746,
				"z": -0.6768546331,
				"element": "C" 
			},
			{
				"x": 1.0639520508,
				"y": 2.4986153152,
				"z": -0.1908183709,
				"element": "C" 
			},
			{
				"x": 1.6693679394,
				"y": 1.7805089774,
				"z": 0.8309678836,
				"element": "C" 
			},
			{
				"x": 3.3430261507,
				"y": 2.3210641219,
				"z": 1.5244357336,
				"element": "Br" 
			},
			{
				"x": 1.0397405406,
				"y": 0.6481391148,
				"z": 1.3567061903,
				"element": "C" 
			},
			{
				"x": 1.6518128027,
				"y": -0.0031978826,
				"z": 2.3390467625,
				"element": "F" 
			},
			{
				"x": -0.1996152059,
				"y": 0.2187911304,
				"z": 0.8513575687,
				"element": "C" 
			},
			{
				"x": -0.8230373598,
				"y": 0.954874301,
				"z": -0.1782759281,
				"element": "C" 
			},
			{
				"x": -2.5110914785,
				"y": 0.5582415748,
				"z": -0.9241102162,
				"element": "Br" 
			},
			{
				"x": -0.9470635047,
				"y": -1.295058967,
				"z": 1.5204404825,
				"element": "S" 
			},
			{
				"x": -2.5617076149,
				"y": -0.4727285843,
				"z": 2.621158744,
				"element": "Cl" 
			},
			{
				"x": -0.0620144946,
				"y": -1.8994851387,
				"z": 2.4984499677,
				"element": "O" 
			},
			{
				"x": -1.5081067517,
				"y": -2.0650065934,
				"z": 0.4230660196,
				"element": "O" 
			},
			{
				"x": 1.5320478769,
				"y": 3.3795523183,
				"z": -0.6127711847,
				"element": "H" 
			}
		],
		 "valence_orbital": [ 
			{
				"type": "occ",
				"energy": -0.32158,
				"method": "rhf"
			},
			{
				"type": "occ",
				"energy": -0.32052,
				"method": "rhf"
			},
			{
				"type": "occ",
				"energy": -0.30979,
				"method": "rhf"
			},
			{
				"type": "occ",
				"energy": -0.30319,
				"method": "rhf"
			},
			{
				"type": "occ",
				"energy": -0.2704,
				"method": "rhf"
			},
			{
				"type": "unocc",
				"energy": -0.10579,
				"method": "rhf"
			},
			{
				"type": "unocc",
				"energy": -0.07829,
				"method": "rhf"
			},
			{
				"type": "unocc",
				"energy": -0.05136,
				"method": "rhf"
			},
			{
				"type": "unocc",
				"energy": -0.03991,
				"method": "rhf"
			},
			{
				"type": "unocc",
				"energy": -0.02175,
				"method": "rhf"
			}
		],
		"cosmo_sigma_profile": { 
			"-0.025": 0.0,
			"-0.024": 0.0,
			"-0.023": 0.0,
			"-0.022": 0.0,
			"-0.021": 0.0,
			"-0.02": 0.0,
			"-0.019": 0.0,
			"-0.018": 0.0,
			"-0.017": 0.0,
			"-0.016": 0.0,
			"-0.015": 0.0,
			"-0.014": 0.0,
			"-0.013": 0.0,
			"-0.012": 0.0,
			"-0.011": 1.07706852236,
			"-0.01": 1.79615322895,
			"-0.009": 2.27253995333,
			"-0.008": 2.72780828188,
			"-0.007": 5.04763813905,
			"-0.006": 7.98561253946,
			"-0.005": 12.2885676385,
			"-0.004": 18.1404894798,
			"-0.003": 19.4164935379,
			"-0.002": 16.1698681705,
			"-0.001": 15.0516015908,
			"0.0": 15.3977662361,
			"0.001": 20.5372464861,
			"0.002": 40.4726583891,
			"0.003": 29.2058127717,
			"0.004": 5.36328095166,
			"0.005": 4.00961521842,
			"0.006": 5.74319483802,
			"0.007": 11.3917844179,
			"0.008": 6.45141214771,
			"0.009": 0.108393089721,
			"0.01": 0.0,
			"0.011": 0.0,
			"0.012": 0.0,
			"0.013": 0.0,
			"0.014": 0.0,
			"0.015": 0.0,
			"0.016": 0.0,
			"0.017": 0.0,
			"0.018": 0.0,
			"0.019": 0.0,
			"0.02": 0.0,
			"0.021": 0.0,
			"0.022": 0.0,
			"0.023": 0.0,
			"0.024": 0.0,
			"0.025": 0.0
		}
	}
}
