{
	 "smiles": "COC(=O)C1=CC2=C(C=C1)C(=O)NC(C)=N2", 
	 "Tm": 548.15, 
	 "num_atms": 26, 
	 "gaussian": { 
		 "optdone": 1, 
		 "sigma_profile": "yes", 
		 "theory": "DFT", 
		 "functional": "B3LYP", 
		 "basiset": "6-31G**", 
		 "properties": { 
			 "R2extent": 4699.235, 
			 "electric_dipole_moment_norm": 4.17704415825, 
			 "electric_quadrupole_moment_norm": 17.3887959468, 
			 "total_energy": -760.421153468, 
			 "HOMO_LUMO_gap": 0.16704, 
			 "cosmo_polarized_energy": -16.41, 
			 "cosmo_cavitation_energy": 31.15, 
			 "cosmo_dispersion_energy": -22.98, 
			 "cosmo_repulsion_energy": 1.77, 
			 "cosmo_total_nonelectrostatic_energy": 9.94, 
			 "SMD_solvation_energy": 6.06 
		},
		"coords": [
			{
				"x": 2.2500274221,
				"y": 4.0393778475,
				"z": -0.9804965178,
				"element": "C" 
			},
			{
				"x": 1.5006029272,
				"y": 2.8606086363,
				"z": -0.646476036,
				"element": "O" 
			},
			{
				"x": 0.1835639002,
				"y": 2.913722377,
				"z": -0.941008664,
				"element": "C" 
			},
			{
				"x": -0.3462546554,
				"y": 3.8808763501,
				"z": -1.4520595658,
				"element": "O" 
			},
			{
				"x": -0.5390274401,
				"y": 1.65916946,
				"z": -0.5698372935,
				"element": "C" 
			},
			{
				"x": 0.11286284,
				"y": 0.5777452859,
				"z": 0.0139685845,
				"element": "C" 
			},
			{
				"x": -0.6052029768,
				"y": -0.5862700911,
				"z": 0.3487014316,
				"element": "C" 
			},
			{
				"x": -1.9944638573,
				"y": -0.6280386699,
				"z": 0.078632846,
				"element": "C" 
			},
			{
				"x": -2.6433882265,
				"y": 0.4689287639,
				"z": -0.5111044997,
				"element": "C" 
			},
			{
				"x": -1.9242113183,
				"y": 1.6053372769,
				"z": -0.8340901041,
				"element": "C" 
			},
			{
				"x": -2.7518722087,
				"y": -1.8364236397,
				"z": 0.4237378176,
				"element": "C" 
			},
			{
				"x": -3.9481087127,
				"y": -2.0248614079,
				"z": 0.2542021113,
				"element": "O" 
			},
			{
				"x": -1.9444836373,
				"y": -2.827515118,
				"z": 1.0022810783,
				"element": "N" 
			},
			{
				"x": -0.5907901982,
				"y": -2.7061098243,
				"z": 1.2319236783,
				"element": "C" 
			},
			{
				"x": 0.103730654,
				"y": -3.883688913,
				"z": 1.8646050403,
				"element": "C" 
			},
			{
				"x": 0.0839932453,
				"y": -1.6429967844,
				"z": 0.930076792,
				"element": "N" 
			},
			{
				"x": 2.1953104283,
				"y": 4.2383314202,
				"z": -2.0536955878,
				"element": "H" 
			},
			{
				"x": 1.8616435646,
				"y": 4.9072246102,
				"z": -0.4416723163,
				"element": "H" 
			},
			{
				"x": 3.27658941,
				"y": 3.8293555916,
				"z": -0.6808670325,
				"element": "H" 
			},
			{
				"x": 1.1753288909,
				"y": 0.6086440907,
				"z": 0.2209379209,
				"element": "H" 
			},
			{
				"x": -3.7089707708,
				"y": 0.3955000344,
				"z": -0.7011034328,
				"element": "H" 
			},
			{
				"x": -2.39816448,
				"y": 2.4671967114,
				"z": -1.2899423358,
				"element": "H" 
			},
			{
				"x": -2.4319481931,
				"y": -3.6785410287,
				"z": 1.2547610178,
				"element": "H" 
			},
			{
				"x": -0.5799902874,
				"y": -4.712073519,
				"z": 2.0669274822,
				"element": "H" 
			},
			{
				"x": 0.5697104647,
				"y": -3.5748439898,
				"z": 2.8041586603,
				"element": "H" 
			},
			{
				"x": 0.9007132154,
				"y": -4.2384554703,
				"z": 1.2056389251,
				"element": "H" 
			}
		],
		 "valence_orbital": [ 
			{
				"type": "occ",
				"energy": -0.28215,
				"method": "rhf"
			},
			{
				"type": "occ",
				"energy": -0.27515,
				"method": "rhf"
			},
			{
				"type": "occ",
				"energy": -0.26787,
				"method": "rhf"
			},
			{
				"type": "occ",
				"energy": -0.26671,
				"method": "rhf"
			},
			{
				"type": "occ",
				"energy": -0.23331,
				"method": "rhf"
			},
			{
				"type": "unocc",
				"energy": -0.06627,
				"method": "rhf"
			},
			{
				"type": "unocc",
				"energy": -0.03924,
				"method": "rhf"
			},
			{
				"type": "unocc",
				"energy": 0.01694,
				"method": "rhf"
			},
			{
				"type": "unocc",
				"energy": 0.02322,
				"method": "rhf"
			},
			{
				"type": "unocc",
				"energy": 0.06508,
				"method": "rhf"
			}
		],
		"cosmo_sigma_profile": { 
			"-0.025": 0.0,
			"-0.024": 0.0,
			"-0.023": 0.0,
			"-0.022": 0.0,
			"-0.021": 0.0,
			"-0.02": 0.0,
			"-0.019": 0.0,
			"-0.018": 0.0,
			"-0.017": 0.0584956884418,
			"-0.016": 1.23346314847,
			"-0.015": 0.956030183724,
			"-0.014": 1.5645655532,
			"-0.013": 0.821642554229,
			"-0.012": 1.46964217435,
			"-0.011": 0.87080784931,
			"-0.01": 1.50280877486,
			"-0.009": 0.889473394564,
			"-0.008": 1.49050741527,
			"-0.007": 4.23597889074,
			"-0.006": 13.6558097315,
			"-0.005": 16.6869045282,
			"-0.004": 23.5163581806,
			"-0.003": 24.833556873,
			"-0.002": 22.1769637491,
			"-0.001": 14.9579550538,
			"0.0": 16.5336976363,
			"0.001": 22.6505316626,
			"0.002": 15.2828237964,
			"0.003": 9.0767486321,
			"0.004": 7.35331246407,
			"0.005": 5.32524560277,
			"0.006": 5.34535641827,
			"0.007": 4.438461455,
			"0.008": 3.59552192606,
			"0.009": 3.22620098381,
			"0.01": 4.89438620089,
			"0.011": 6.83861980841,
			"0.012": 7.26917846711,
			"0.013": 4.81668343102,
			"0.014": 0.961425508786,
			"0.015": 0.555448331028,
			"0.016": 0.0,
			"0.017": 0.0,
			"0.018": 0.0,
			"0.019": 0.0,
			"0.02": 0.0,
			"0.021": 0.0,
			"0.022": 0.0,
			"0.023": 0.0,
			"0.024": 0.0,
			"0.025": 0.0
		}
	}
}
