{
	 "smiles": "CC(=O)OC1=C(CC=C)C(=O)C(O)=C2C1=CC=C1C(C)=C(C)C(=O)CC21C", 
	 "Tm": 366.15, 
	 "num_atms": 49, 
	 "gaussian": { 
		 "optdone": 1, 
		 "sigma_profile": "yes", 
		 "theory": "DFT", 
		 "functional": "B3LYP", 
		 "basiset": "6-31G**", 
		 "properties": { 
			 "R2extent": 11486.0674, 
			 "electric_dipole_moment_norm": 6.96312392321, 
			 "electric_quadrupole_moment_norm": 15.3467868425, 
			 "total_energy": -1227.68876968, 
			 "HOMO_LUMO_gap": 0.09146, 
			 "cosmo_polarized_energy": -19.88, 
			 "cosmo_cavitation_energy": 49.65, 
			 "cosmo_dispersion_energy": -33.45, 
			 "cosmo_repulsion_energy": 2.51, 
			 "cosmo_total_nonelectrostatic_energy": 18.71, 
			 "SMD_solvation_energy": 10.89 
		},
		"coords": [
			{
				"x": 1.2849433595,
				"y": 4.1629973857,
				"z": -2.0138232127,
				"element": "C" 
			},
			{
				"x": 0.7849935385,
				"y": 2.7538411841,
				"z": -1.8322242874,
				"element": "C" 
			},
			{
				"x": -0.3642347568,
				"y": 2.4008069816,
				"z": -1.7808504872,
				"element": "O" 
			},
			{
				"x": 1.8559796687,
				"y": 1.8860383603,
				"z": -1.7410510897,
				"element": "O" 
			},
			{
				"x": 1.6030797566,
				"y": 0.5123935874,
				"z": -1.7401230705,
				"element": "C" 
			},
			{
				"x": 1.8110501039,
				"y": -0.1796197246,
				"z": -2.8929782859,
				"element": "C" 
			},
			{
				"x": 2.2790230781,
				"y": 0.4384094989,
				"z": -4.184047998,
				"element": "C" 
			},
			{
				"x": 1.1991664859,
				"y": 0.9765576462,
				"z": -5.1007979358,
				"element": "C" 
			},
			{
				"x": -0.1081192313,
				"y": 1.0416926313,
				"z": -4.8520018357,
				"element": "C" 
			},
			{
				"x": 1.6002934849,
				"y": -1.6226656521,
				"z": -2.8538342808,
				"element": "C" 
			},
			{
				"x": 1.7792803649,
				"y": -2.3747629957,
				"z": -3.829789584,
				"element": "O" 
			},
			{
				"x": 1.1652190874,
				"y": -2.2493662597,
				"z": -1.5912673647,
				"element": "C" 
			},
			{
				"x": 1.0328728904,
				"y": -3.5904381045,
				"z": -1.6970251433,
				"element": "O" 
			},
			{
				"x": 0.9644857949,
				"y": -1.5411708979,
				"z": -0.4412649377,
				"element": "C" 
			},
			{
				"x": 1.212200532,
				"y": -0.1094921112,
				"z": -0.4891346151,
				"element": "C" 
			},
			{
				"x": 1.0862718574,
				"y": 0.6385797804,
				"z": 0.6560740669,
				"element": "C" 
			},
			{
				"x": 0.6268691169,
				"y": 0.0826571565,
				"z": 1.8860899345,
				"element": "C" 
			},
			{
				"x": 0.3207128317,
				"y": -1.2418258234,
				"z": 2.0188181652,
				"element": "C" 
			},
			{
				"x": -0.2642972992,
				"y": -1.7617091331,
				"z": 3.2569414616,
				"element": "C" 
			},
			{
				"x": -0.174344416,
				"y": -0.8993632604,
				"z": 4.4968909774,
				"element": "C" 
			},
			{
				"x": -0.9008759771,
				"y": -2.9730583506,
				"z": 3.292786233,
				"element": "C" 
			},
			{
				"x": -1.4989037272,
				"y": -3.5754465897,
				"z": 4.5385827446,
				"element": "C" 
			},
			{
				"x": -1.0901438155,
				"y": -3.7545036646,
				"z": 2.0390818566,
				"element": "C" 
			},
			{
				"x": -1.6548233336,
				"y": -4.8415247425,
				"z": 2.0457729392,
				"element": "O" 
			},
			{
				"x": -0.6249720892,
				"y": -3.13716876,
				"z": 0.7345869281,
				"element": "C" 
			},
			{
				"x": 0.616777336,
				"y": -2.2229272008,
				"z": 0.8892395971,
				"element": "C" 
			},
			{
				"x": 1.8575369082,
				"y": -3.0738622257,
				"z": 1.3124841808,
				"element": "C" 
			},
			{
				"x": 0.4708072774,
				"y": 4.8627802904,
				"z": -1.8273452843,
				"element": "H" 
			},
			{
				"x": 2.1309185459,
				"y": 4.3679577943,
				"z": -1.3536802305,
				"element": "H" 
			},
			{
				"x": 1.6316813709,
				"y": 4.2829699207,
				"z": -3.045572005,
				"element": "H" 
			},
			{
				"x": 2.8355343522,
				"y": -0.3308478678,
				"z": -4.732372739,
				"element": "H" 
			},
			{
				"x": 2.9884903346,
				"y": 1.2465292384,
				"z": -3.9644374604,
				"element": "H" 
			},
			{
				"x": 1.5746975493,
				"y": 1.3332860578,
				"z": -6.0603354362,
				"element": "H" 
			},
			{
				"x": -0.5377366101,
				"y": 0.7095788066,
				"z": -3.9122911248,
				"element": "H" 
			},
			{
				"x": -0.7966986554,
				"y": 1.4448331826,
				"z": -5.5885358094,
				"element": "H" 
			},
			{
				"x": 1.2629503396,
				"y": -3.764798139,
				"z": -2.6388125613,
				"element": "H" 
			},
			{
				"x": 1.3084674359,
				"y": 1.6985729997,
				"z": 0.6241133663,
				"element": "H" 
			},
			{
				"x": 0.4687543268,
				"y": 0.7663708213,
				"z": 2.7125326358,
				"element": "H" 
			},
			{
				"x": -0.4320057684,
				"y": -1.4581214482,
				"z": 5.3959057119,
				"element": "H" 
			},
			{
				"x": -0.8645297952,
				"y": -0.0487169121,
				"z": 4.4339324259,
				"element": "H" 
			},
			{
				"x": 0.8326466419,
				"y": -0.4910004891,
				"z": 4.6258543953,
				"element": "H" 
			},
			{
				"x": -1.8773728944,
				"y": -4.5710533782,
				"z": 4.304705717,
				"element": "H" 
			},
			{
				"x": -2.3338044688,
				"y": -2.9747369261,
				"z": 4.9185971041,
				"element": "H" 
			},
			{
				"x": -0.7634871733,
				"y": -3.659174614,
				"z": 5.3461028393,
				"element": "H" 
			},
			{
				"x": -1.4597116188,
				"y": -2.5387095223,
				"z": 0.3436939799,
				"element": "H" 
			},
			{
				"x": -0.442272831,
				"y": -3.9398337224,
				"z": 0.0212233795,
				"element": "H" 
			},
			{
				"x": 2.7295952538,
				"y": -2.4279554701,
				"z": 1.4477765541,
				"element": "H" 
			},
			{
				"x": 2.0814704146,
				"y": -3.8063182599,
				"z": 0.534605758,
				"element": "H" 
			},
			{
				"x": 1.6732644228,
				"y": -3.6023810786,
				"z": 2.2513038268,
				"element": "H" 
			}
		],
		 "valence_orbital": [ 
			{
				"type": "occ",
				"energy": -0.26526,
				"method": "rhf"
			},
			{
				"type": "occ",
				"energy": -0.25097,
				"method": "rhf"
			},
			{
				"type": "occ",
				"energy": -0.24785,
				"method": "rhf"
			},
			{
				"type": "occ",
				"energy": -0.23919,
				"method": "rhf"
			},
			{
				"type": "occ",
				"energy": -0.20302,
				"method": "rhf"
			},
			{
				"type": "unocc",
				"energy": -0.11156,
				"method": "rhf"
			},
			{
				"type": "unocc",
				"energy": -0.05397,
				"method": "rhf"
			},
			{
				"type": "unocc",
				"energy": -0.00797,
				"method": "rhf"
			},
			{
				"type": "unocc",
				"energy": 0.001,
				"method": "rhf"
			},
			{
				"type": "unocc",
				"energy": 0.00434,
				"method": "rhf"
			}
		],
		"cosmo_sigma_profile": { 
			"-0.025": 0.0,
			"-0.024": 0.0,
			"-0.023": 0.0,
			"-0.022": 0.0,
			"-0.021": 0.0,
			"-0.02": 0.0,
			"-0.019": 0.0,
			"-0.018": 0.0,
			"-0.017": 0.0,
			"-0.016": 0.0,
			"-0.015": 0.0,
			"-0.014": 0.0,
			"-0.013": 0.0,
			"-0.012": 0.226528509,
			"-0.011": 0.312893434687,
			"-0.01": 0.345096178143,
			"-0.009": 1.48916859007,
			"-0.008": 2.71959972005,
			"-0.007": 7.78553483593,
			"-0.006": 15.4375478775,
			"-0.005": 23.488096265,
			"-0.004": 33.4185577766,
			"-0.003": 39.1506919475,
			"-0.002": 46.0335346165,
			"-0.001": 48.39721043,
			"0.0": 43.9561041416,
			"0.001": 25.8692503285,
			"0.002": 13.9327065747,
			"0.003": 12.6406124849,
			"0.004": 10.830216611,
			"0.005": 11.4464931495,
			"0.006": 9.98784759242,
			"0.007": 9.03508079147,
			"0.008": 4.9847411033,
			"0.009": 5.27227831797,
			"0.01": 5.72044325143,
			"0.011": 8.69057989039,
			"0.012": 7.82104163538,
			"0.013": 3.51606611934,
			"0.014": 0.4260795991,
			"0.015": 0.0,
			"0.016": 0.0,
			"0.017": 0.0,
			"0.018": 0.0,
			"0.019": 0.0,
			"0.02": 0.0,
			"0.021": 0.0,
			"0.022": 0.0,
			"0.023": 0.0,
			"0.024": 0.0,
			"0.025": 0.0
		}
	}
}
