{
	 "smiles": "C1NC2=C(C=CC=C2)C2=C1C=CC=C2", 
	 "Tm": 394.15, 
	 "num_atms": 25, 
	 "gaussian": { 
		 "optdone": 1, 
		 "sigma_profile": "yes", 
		 "theory": "DFT", 
		 "functional": "B3LYP", 
		 "basiset": "6-31G**", 
		 "properties": { 
			 "R2extent": 2809.9914, 
			 "electric_dipole_moment_norm": 1.45994855046, 
			 "electric_quadrupole_moment_norm": 11.8589700008, 
			 "total_energy": -556.777751269, 
			 "HOMO_LUMO_gap": 0.16165, 
			 "cosmo_polarized_energy": -8.42, 
			 "cosmo_cavitation_energy": 27.36, 
			 "cosmo_dispersion_energy": -20.8, 
			 "cosmo_repulsion_energy": 1.59, 
			 "cosmo_total_nonelectrostatic_energy": 8.15, 
			 "SMD_solvation_energy": 2.92 
		},
		"coords": [
			{
				"x": 0.3329078245,
				"y": -1.8401946126,
				"z": 0.9103758213,
				"element": "C" 
			},
			{
				"x": 0.4967549003,
				"y": -0.9296988435,
				"z": 2.0404419058,
				"element": "N" 
			},
			{
				"x": 0.097687415,
				"y": 0.3925917418,
				"z": 1.8512699733,
				"element": "C" 
			},
			{
				"x": 0.2486490042,
				"y": 0.9790746063,
				"z": 0.5686197079,
				"element": "C" 
			},
			{
				"x": -0.1508861557,
				"y": 2.3119994614,
				"z": 0.3953995378,
				"element": "C" 
			},
			{
				"x": -0.6555465222,
				"y": 3.0681335075,
				"z": 1.4507695652,
				"element": "C" 
			},
			{
				"x": -0.765429338,
				"y": 2.4890595291,
				"z": 2.7178935194,
				"element": "C" 
			},
			{
				"x": -0.3978572435,
				"y": 1.161435491,
				"z": 2.9154076284,
				"element": "C" 
			},
			{
				"x": 0.8661936654,
				"y": 0.167584532,
				"z": -0.5004302169,
				"element": "C" 
			},
			{
				"x": 0.948034067,
				"y": -1.230225771,
				"z": -0.3289966113,
				"element": "C" 
			},
			{
				"x": 1.5424587761,
				"y": -2.0256043085,
				"z": -1.3088709534,
				"element": "C" 
			},
			{
				"x": 2.0599835438,
				"y": -1.4560639639,
				"z": -2.4725779412,
				"element": "C" 
			},
			{
				"x": 1.9944678413,
				"y": -0.0723785068,
				"z": -2.6463580835,
				"element": "C" 
			},
			{
				"x": 1.4130607105,
				"y": 0.7290440707,
				"z": -1.6665986662,
				"element": "C" 
			},
			{
				"x": -0.7340958309,
				"y": -2.0673697779,
				"z": 0.7195818334,
				"element": "H" 
			},
			{
				"x": 0.8255057553,
				"y": -2.7875572092,
				"z": 1.1510688252,
				"element": "H" 
			},
			{
				"x": 0.1972616399,
				"y": -1.3202897119,
				"z": 2.9244005105,
				"element": "H" 
			},
			{
				"x": -0.0765678211,
				"y": 2.7628411549,
				"z": -0.5894653324,
				"element": "H" 
			},
			{
				"x": -0.9607533088,
				"y": 4.0968585153,
				"z": 1.2871094963,
				"element": "H" 
			},
			{
				"x": -1.1540486539,
				"y": 3.0667074362,
				"z": 3.5518908118,
				"element": "H" 
			},
			{
				"x": -0.4970342047,
				"y": 0.7057887544,
				"z": 3.8981571755,
				"element": "H" 
			},
			{
				"x": 1.5998530335,
				"y": -3.1013642859,
				"z": -1.1593780513,
				"element": "H" 
			},
			{
				"x": 2.5196259381,
				"y": -2.0843483706,
				"z": -3.2298355744,
				"element": "H" 
			},
			{
				"x": 2.4090977211,
				"y": 0.385639062,
				"z": -3.5398818665,
				"element": "H" 
			},
			{
				"x": 1.4026772429,
				"y": 1.8058374993,
				"z": -1.8014930146,
				"element": "H" 
			}
		],
		 "valence_orbital": [ 
			{
				"type": "occ",
				"energy": -0.29025,
				"method": "rhf"
			},
			{
				"type": "occ",
				"energy": -0.27429,
				"method": "rhf"
			},
			{
				"type": "occ",
				"energy": -0.24348,
				"method": "rhf"
			},
			{
				"type": "occ",
				"energy": -0.22334,
				"method": "rhf"
			},
			{
				"type": "occ",
				"energy": -0.18893,
				"method": "rhf"
			},
			{
				"type": "unocc",
				"energy": -0.02728,
				"method": "rhf"
			},
			{
				"type": "unocc",
				"energy": 0.0001,
				"method": "rhf"
			},
			{
				"type": "unocc",
				"energy": 0.01812,
				"method": "rhf"
			},
			{
				"type": "unocc",
				"energy": 0.04347,
				"method": "rhf"
			},
			{
				"type": "unocc",
				"energy": 0.08607,
				"method": "rhf"
			}
		],
		"cosmo_sigma_profile": { 
			"-0.025": 0.0,
			"-0.024": 0.0,
			"-0.023": 0.0,
			"-0.022": 0.0,
			"-0.021": 0.0,
			"-0.02": 0.0,
			"-0.019": 0.0,
			"-0.018": 0.0,
			"-0.017": 0.0,
			"-0.016": 0.0,
			"-0.015": 0.0,
			"-0.014": 0.0,
			"-0.013": 0.339641738986,
			"-0.012": 1.47557333916,
			"-0.011": 1.12491459714,
			"-0.01": 1.62745058155,
			"-0.009": 1.38116928603,
			"-0.008": 1.39298418343,
			"-0.007": 2.57378839812,
			"-0.006": 8.8919333229,
			"-0.005": 18.9418506426,
			"-0.004": 17.8728667689,
			"-0.003": 22.4867731575,
			"-0.002": 17.6542056267,
			"-0.001": 13.3610749461,
			"0.0": 10.1172579956,
			"0.001": 10.952734494,
			"0.002": 12.5617751828,
			"0.003": 11.9374706726,
			"0.004": 16.747928439,
			"0.005": 18.6163170791,
			"0.006": 18.2268318522,
			"0.007": 6.49052705988,
			"0.008": 1.00807179902,
			"0.009": 0.755119355798,
			"0.01": 0.57879479967,
			"0.011": 0.696155568606,
			"0.012": 0.611957731395,
			"0.013": 0.235217545925,
			"0.014": 0.0,
			"0.015": 0.0,
			"0.016": 0.0,
			"0.017": 0.0,
			"0.018": 0.0,
			"0.019": 0.0,
			"0.02": 0.0,
			"0.021": 0.0,
			"0.022": 0.0,
			"0.023": 0.0,
			"0.024": 0.0,
			"0.025": 0.0
		}
	}
}
