{
	 "smiles": "CC1=NN(C(C)=C1C(O)=O)C1=C(F)C=C(F)C=C1", 
	 "Tm": 503.15, 
	 "num_atms": 28, 
	 "gaussian": { 
		 "optdone": 1, 
		 "sigma_profile": "yes", 
		 "theory": "DFT", 
		 "functional": "B3LYP", 
		 "basiset": "6-31G**", 
		 "properties": { 
			 "R2extent": 5882.5513, 
			 "electric_dipole_moment_norm": 3.99066473034, 
			 "electric_quadrupole_moment_norm": 26.013446674, 
			 "total_energy": -922.924455958, 
			 "HOMO_LUMO_gap": 0.20803, 
			 "cosmo_polarized_energy": -15.18, 
			 "cosmo_cavitation_energy": 33.19, 
			 "cosmo_dispersion_energy": -23.65, 
			 "cosmo_repulsion_energy": 1.76, 
			 "cosmo_total_nonelectrostatic_energy": 11.31, 
			 "SMD_solvation_energy": 6.87 
		},
		"coords": [
			{
				"x": 2.7480628949,
				"y": -2.4096632015,
				"z": 0.1303285118,
				"element": "C" 
			},
			{
				"x": 2.1083360058,
				"y": -1.1483086461,
				"z": -0.3731118976,
				"element": "C" 
			},
			{
				"x": 0.9158229348,
				"y": -0.8115752866,
				"z": 0.0927212876,
				"element": "N" 
			},
			{
				"x": 0.6012051377,
				"y": 0.3617016812,
				"z": -0.5412445346,
				"element": "N" 
			},
			{
				"x": 1.5628109509,
				"y": 0.7626518917,
				"z": -1.4204583079,
				"element": "C" 
			},
			{
				"x": 1.4378207794,
				"y": 1.9720426871,
				"z": -2.286593569,
				"element": "C" 
			},
			{
				"x": 2.5782186728,
				"y": -0.1934679563,
				"z": -1.330846838,
				"element": "C" 
			},
			{
				"x": 3.8158276576,
				"y": -0.1694503295,
				"z": -2.1353098591,
				"element": "C" 
			},
			{
				"x": 4.7681720594,
				"y": -1.0948966718,
				"z": -1.829992042,
				"element": "O" 
			},
			{
				"x": 4.0279870689,
				"y": 0.6072941286,
				"z": -3.0428224174,
				"element": "O" 
			},
			{
				"x": -0.6594010272,
				"y": 0.9553393961,
				"z": -0.268534539,
				"element": "C" 
			},
			{
				"x": -0.7631460074,
				"y": 2.2863015402,
				"z": 0.1476542566,
				"element": "C" 
			},
			{
				"x": 0.3523899341,
				"y": 3.0249305956,
				"z": 0.2866259907,
				"element": "F" 
			},
			{
				"x": -1.9891199138,
				"y": 2.8736554145,
				"z": 0.4324100629,
				"element": "C" 
			},
			{
				"x": -3.1273553937,
				"y": 2.0831606492,
				"z": 0.3241696593,
				"element": "C" 
			},
			{
				"x": -4.3212231982,
				"y": 2.6340011151,
				"z": 0.6030459761,
				"element": "F" 
			},
			{
				"x": -3.0692419152,
				"y": 0.7458022128,
				"z": -0.0578866019,
				"element": "C" 
			},
			{
				"x": -1.8279011595,
				"y": 0.1908384565,
				"z": -0.3549941096,
				"element": "C" 
			},
			{
				"x": 2.0447594695,
				"y": -2.9322060046,
				"z": 0.781545088,
				"element": "H" 
			},
			{
				"x": 3.6486308357,
				"y": -2.2076586884,
				"z": 0.7266065235,
				"element": "H" 
			},
			{
				"x": 3.0198528218,
				"y": -3.0865303691,
				"z": -0.6880212969,
				"element": "H" 
			},
			{
				"x": 1.7096435701,
				"y": 2.8784495562,
				"z": -1.7369699385,
				"element": "H" 
			},
			{
				"x": 2.1137427507,
				"y": 1.8694406704,
				"z": -3.1340880946,
				"element": "H" 
			},
			{
				"x": 0.4089506205,
				"y": 2.0941758066,
				"z": -2.639522904,
				"element": "H" 
			},
			{
				"x": 4.5230749523,
				"y": -1.599457552,
				"z": -1.0435501495,
				"element": "H" 
			},
			{
				"x": -2.0471729544,
				"y": 3.907901178,
				"z": 0.7483440465,
				"element": "H" 
			},
			{
				"x": -3.9814255382,
				"y": 0.1644137046,
				"z": -0.1226106142,
				"element": "H" 
			},
			{
				"x": -1.7408220093,
				"y": -0.8485859785,
				"z": -0.6492936893,
				"element": "H" 
			}
		],
		 "valence_orbital": [ 
			{
				"type": "occ",
				"energy": -0.28954,
				"method": "rhf"
			},
			{
				"type": "occ",
				"energy": -0.27794,
				"method": "rhf"
			},
			{
				"type": "occ",
				"energy": -0.26479,
				"method": "rhf"
			},
			{
				"type": "occ",
				"energy": -0.25521,
				"method": "rhf"
			},
			{
				"type": "occ",
				"energy": -0.24824,
				"method": "rhf"
			},
			{
				"type": "unocc",
				"energy": -0.04021,
				"method": "rhf"
			},
			{
				"type": "unocc",
				"energy": -0.02821,
				"method": "rhf"
			},
			{
				"type": "unocc",
				"energy": -0.01371,
				"method": "rhf"
			},
			{
				"type": "unocc",
				"energy": 0.01323,
				"method": "rhf"
			},
			{
				"type": "unocc",
				"energy": 0.06112,
				"method": "rhf"
			}
		],
		"cosmo_sigma_profile": { 
			"-0.025": 0.0,
			"-0.024": 0.0,
			"-0.023": 0.0,
			"-0.022": 0.0,
			"-0.021": 0.0,
			"-0.02": 0.0,
			"-0.019": 0.0,
			"-0.018": 0.0,
			"-0.017": 0.0,
			"-0.016": 0.0,
			"-0.015": 0.646466025195,
			"-0.014": 1.52210077318,
			"-0.013": 1.0410495124,
			"-0.012": 0.727959790534,
			"-0.011": 1.59725378407,
			"-0.01": 1.53827918342,
			"-0.009": 2.78616398809,
			"-0.008": 6.35497530735,
			"-0.007": 9.43524789431,
			"-0.006": 8.92255947765,
			"-0.005": 13.2142002958,
			"-0.004": 14.5018866124,
			"-0.003": 16.6907872017,
			"-0.002": 22.3761607473,
			"-0.001": 30.6849790734,
			"0.0": 26.0513426278,
			"0.001": 22.2397536862,
			"0.002": 16.7068921333,
			"0.003": 17.8307416954,
			"0.004": 11.2404893302,
			"0.005": 4.17299643852,
			"0.006": 4.51142764336,
			"0.007": 3.35725917646,
			"0.008": 3.86737111782,
			"0.009": 3.64996128557,
			"0.01": 4.795028117,
			"0.011": 5.9649229561,
			"0.012": 5.35916071467,
			"0.013": 2.94889509307,
			"0.014": 1.46946971953,
			"0.015": 0.0532663383249,
			"0.016": 0.0,
			"0.017": 0.0,
			"0.018": 0.0,
			"0.019": 0.0,
			"0.02": 0.0,
			"0.021": 0.0,
			"0.022": 0.0,
			"0.023": 0.0,
			"0.024": 0.0,
			"0.025": 0.0
		}
	}
}
