{
	 "smiles": "CCOC(=O)C1=CC2=C(N1)C=CC(OC)=C2", 
	 "Tm": 428.65, 
	 "num_atms": 29, 
	 "gaussian": { 
		 "optdone": 1, 
		 "sigma_profile": "yes", 
		 "theory": "DFT", 
		 "functional": "B3LYP", 
		 "basiset": "6-31G**", 
		 "properties": { 
			 "R2extent": 5830.0656, 
			 "electric_dipole_moment_norm": 3.95022037107, 
			 "electric_quadrupole_moment_norm": 13.9593113337, 
			 "total_energy": -745.545504927, 
			 "HOMO_LUMO_gap": 0.15299, 
			 "cosmo_polarized_energy": -12.74, 
			 "cosmo_cavitation_energy": 33.32, 
			 "cosmo_dispersion_energy": -24.49, 
			 "cosmo_repulsion_energy": 1.92, 
			 "cosmo_total_nonelectrostatic_energy": 10.74, 
			 "SMD_solvation_energy": 7.12 
		},
		"coords": [
			{
				"x": -1.6140904369,
				"y": 2.2771717406,
				"z": -4.233461087,
				"element": "C" 
			},
			{
				"x": -1.5633862054,
				"y": 3.0010863058,
				"z": -2.8962834034,
				"element": "C" 
			},
			{
				"x": -1.0417492653,
				"y": 2.1449177966,
				"z": -1.8526390064,
				"element": "O" 
			},
			{
				"x": -1.9431980432,
				"y": 1.3332529469,
				"z": -1.2318153638,
				"element": "C" 
			},
			{
				"x": -3.1286361146,
				"y": 1.3001910806,
				"z": -1.4982997975,
				"element": "O" 
			},
			{
				"x": -1.2918798786,
				"y": 0.5164525415,
				"z": -0.2045934755,
				"element": "C" 
			},
			{
				"x": -1.8677576521,
				"y": -0.4182588482,
				"z": 0.6302337634,
				"element": "C" 
			},
			{
				"x": -0.8249808871,
				"y": -0.944976586,
				"z": 1.4533090781,
				"element": "C" 
			},
			{
				"x": 0.3801822851,
				"y": -0.2832130731,
				"z": 1.0672548831,
				"element": "C" 
			},
			{
				"x": 0.0655498234,
				"y": 0.5984886758,
				"z": 0.0585495985,
				"element": "N" 
			},
			{
				"x": 1.6005964258,
				"y": -0.5706313754,
				"z": 1.6839710794,
				"element": "C" 
			},
			{
				"x": 1.6164281178,
				"y": -1.5261739582,
				"z": 2.6938015957,
				"element": "C" 
			},
			{
				"x": 0.4298838283,
				"y": -2.1919507819,
				"z": 3.0889465234,
				"element": "C" 
			},
			{
				"x": 0.3894790821,
				"y": -3.1416493671,
				"z": 4.0783479729,
				"element": "O" 
			},
			{
				"x": 1.5921735447,
				"y": -3.4786866097,
				"z": 4.7442945434,
				"element": "C" 
			},
			{
				"x": -0.785822752,
				"y": -1.9072057234,
				"z": 2.4760461102,
				"element": "C" 
			},
			{
				"x": -0.627351093,
				"y": 1.892241829,
				"z": -4.5077647175,
				"element": "H" 
			},
			{
				"x": -2.3201534731,
				"y": 1.4444511879,
				"z": -4.1908019344,
				"element": "H" 
			},
			{
				"x": -1.9437668817,
				"y": 2.9674954789,
				"z": -5.017137669,
				"element": "H" 
			},
			{
				"x": -0.8743034039,
				"y": 3.8488751684,
				"z": -2.9239523882,
				"element": "H" 
			},
			{
				"x": -2.5555451106,
				"y": 3.3490548839,
				"z": -2.599695456,
				"element": "H" 
			},
			{
				"x": -2.9155614011,
				"y": -0.6795109509,
				"z": 0.6352599991,
				"element": "H" 
			},
			{
				"x": 0.6913949801,
				"y": 1.2172638204,
				"z": -0.4305900994,
				"element": "H" 
			},
			{
				"x": 2.5169308994,
				"y": -0.067148727,
				"z": 1.3902081602,
				"element": "H" 
			},
			{
				"x": 2.5571947098,
				"y": -1.7565472362,
				"z": 3.1787300044,
				"element": "H" 
			},
			{
				"x": 2.0278932728,
				"y": -2.6163462689,
				"z": 5.2669435077,
				"element": "H" 
			},
			{
				"x": 1.3265395729,
				"y": -4.241046072,
				"z": 5.4789141569,
				"element": "H" 
			},
			{
				"x": 2.3410506887,
				"y": -3.8928224071,
				"z": 4.0555751241,
				"element": "H" 
			},
			{
				"x": -1.6774146322,
				"y": -2.433375471,
				"z": 2.8003482979,
				"element": "H" 
			}
		],
		 "valence_orbital": [ 
			{
				"type": "occ",
				"energy": -0.29712,
				"method": "rhf"
			},
			{
				"type": "occ",
				"energy": -0.27877,
				"method": "rhf"
			},
			{
				"type": "occ",
				"energy": -0.27413,
				"method": "rhf"
			},
			{
				"type": "occ",
				"energy": -0.21542,
				"method": "rhf"
			},
			{
				"type": "occ",
				"energy": -0.1976,
				"method": "rhf"
			},
			{
				"type": "unocc",
				"energy": -0.04461,
				"method": "rhf"
			},
			{
				"type": "unocc",
				"energy": 0.0214,
				"method": "rhf"
			},
			{
				"type": "unocc",
				"energy": 0.04,
				"method": "rhf"
			},
			{
				"type": "unocc",
				"energy": 0.08912,
				"method": "rhf"
			},
			{
				"type": "unocc",
				"energy": 0.09681,
				"method": "rhf"
			}
		],
		"cosmo_sigma_profile": { 
			"-0.025": 0.0,
			"-0.024": 0.0,
			"-0.023": 0.0,
			"-0.022": 0.0,
			"-0.021": 0.0,
			"-0.02": 0.0,
			"-0.019": 0.0,
			"-0.018": 0.0,
			"-0.017": 0.0,
			"-0.016": 0.0230631421937,
			"-0.015": 0.555522346778,
			"-0.014": 1.08733658028,
			"-0.013": 0.876899526863,
			"-0.012": 0.969028636762,
			"-0.011": 0.774586356475,
			"-0.01": 1.0380012707,
			"-0.009": 0.96456372286,
			"-0.008": 1.24521126625,
			"-0.007": 3.37433626621,
			"-0.006": 10.0407915682,
			"-0.005": 19.9925852817,
			"-0.004": 25.6416877802,
			"-0.003": 26.0533887336,
			"-0.002": 23.2265265252,
			"-0.001": 19.1952389569,
			"0.0": 18.2428417477,
			"0.001": 14.1346260772,
			"0.002": 12.759762769,
			"0.003": 18.6282906322,
			"0.004": 19.803105666,
			"0.005": 19.1634899589,
			"0.006": 5.92820421641,
			"0.007": 3.06609429274,
			"0.008": 2.49476704985,
			"0.009": 3.21680777128,
			"0.01": 3.34016584595,
			"0.011": 3.94121097973,
			"0.012": 4.44847154051,
			"0.013": 0.572370810413,
			"0.014": 0.0,
			"0.015": 0.0,
			"0.016": 0.0,
			"0.017": 0.0,
			"0.018": 0.0,
			"0.019": 0.0,
			"0.02": 0.0,
			"0.021": 0.0,
			"0.022": 0.0,
			"0.023": 0.0,
			"0.024": 0.0,
			"0.025": 0.0
		}
	}
}
