{
	 "smiles": "SC1=NC2=C(C=CC=C2)C(=O)N1CCCN1CCOCC1", 
	 "Tm": 449.15, 
	 "num_atms": 40, 
	 "gaussian": { 
		 "optdone": 1, 
		 "sigma_profile": "yes", 
		 "theory": "DFT", 
		 "functional": "B3LYP", 
		 "basiset": "6-31G**", 
		 "properties": { 
			 "R2extent": 8540.1975, 
			 "electric_dipole_moment_norm": 1.87909636528, 
			 "electric_quadrupole_moment_norm": 12.4884300314, 
			 "total_energy": -1295.93015303, 
			 "HOMO_LUMO_gap": 0.15958, 
			 "cosmo_polarized_energy": -13.57, 
			 "cosmo_cavitation_energy": 42.56, 
			 "cosmo_dispersion_energy": -30.79, 
			 "cosmo_repulsion_energy": 2.32, 
			 "cosmo_total_nonelectrostatic_energy": 14.09, 
			 "SMD_solvation_energy": 2.67 
		},
		"coords": [
			{
				"x": -1.2832766266,
				"y": 0.3693994074,
				"z": -3.6252535343,
				"element": "S" 
			},
			{
				"x": -0.5897425437,
				"y": -0.9465426635,
				"z": -2.6250577242,
				"element": "C" 
			},
			{
				"x": 0.4851861355,
				"y": -1.5247688618,
				"z": -3.0514009396,
				"element": "N" 
			},
			{
				"x": 1.0109310749,
				"y": -2.5552658234,
				"z": -2.2917182647,
				"element": "C" 
			},
			{
				"x": 0.4029010073,
				"y": -2.9821677511,
				"z": -1.0915496458,
				"element": "C" 
			},
			{
				"x": 0.9577366325,
				"y": -4.036603031,
				"z": -0.3468850901,
				"element": "C" 
			},
			{
				"x": 2.1109860321,
				"y": -4.6630681627,
				"z": -0.7915678291,
				"element": "C" 
			},
			{
				"x": 2.7221607335,
				"y": -4.2397206283,
				"z": -1.987041763,
				"element": "C" 
			},
			{
				"x": 2.184100492,
				"y": -3.2012820858,
				"z": -2.7306221199,
				"element": "C" 
			},
			{
				"x": -0.8103948025,
				"y": -2.3138168422,
				"z": -0.6230401045,
				"element": "C" 
			},
			{
				"x": -1.4204532828,
				"y": -2.5989175956,
				"z": 0.4010930533,
				"element": "O" 
			},
			{
				"x": -1.2649179986,
				"y": -1.258953492,
				"z": -1.4603091732,
				"element": "N" 
			},
			{
				"x": -2.4961387538,
				"y": -0.5561295273,
				"z": -1.0388650648,
				"element": "C" 
			},
			{
				"x": -2.2556061529,
				"y": 0.7465676167,
				"z": -0.2622527484,
				"element": "C" 
			},
			{
				"x": -1.5845611105,
				"y": 0.5538301546,
				"z": 1.1046194626,
				"element": "C" 
			},
			{
				"x": -1.579320731,
				"y": 1.7916322189,
				"z": 1.8832486131,
				"element": "N" 
			},
			{
				"x": -0.7016518905,
				"y": 2.8203005694,
				"z": 1.3048036336,
				"element": "C" 
			},
			{
				"x": -0.3144327241,
				"y": 3.8505154793,
				"z": 2.3595070045,
				"element": "C" 
			},
			{
				"x": 0.4529540823,
				"y": 3.2844958461,
				"z": 3.4188394426,
				"element": "O" 
			},
			{
				"x": 0.1234265253,
				"y": 1.9257767341,
				"z": 3.7125492176,
				"element": "C" 
			},
			{
				"x": -1.3167168228,
				"y": 1.5959317131,
				"z": 3.3221483907,
				"element": "C" 
			},
			{
				"x": -0.3298354517,
				"y": 0.2236637427,
				"z": -4.5628287486,
				"element": "H" 
			},
			{
				"x": 0.4608886088,
				"y": -4.3358563693,
				"z": 0.5698745549,
				"element": "H" 
			},
			{
				"x": 2.5442531075,
				"y": -5.4783779984,
				"z": -0.2205994406,
				"element": "H" 
			},
			{
				"x": 3.6265755575,
				"y": -4.7333627984,
				"z": -2.3314119932,
				"element": "H" 
			},
			{
				"x": 2.6415597308,
				"y": -2.8635588208,
				"z": -3.6545389486,
				"element": "H" 
			},
			{
				"x": -3.043204648,
				"y": -1.2699860379,
				"z": -0.4217302376,
				"element": "H" 
			},
			{
				"x": -3.0906160137,
				"y": -0.3587010521,
				"z": -1.9351401948,
				"element": "H" 
			},
			{
				"x": -1.6766050978,
				"y": 1.439323067,
				"z": -0.8825714165,
				"element": "H" 
			},
			{
				"x": -3.2337436137,
				"y": 1.2155584256,
				"z": -0.0990020322,
				"element": "H" 
			},
			{
				"x": -2.1419346693,
				"y": -0.2033500189,
				"z": 1.6639607447,
				"element": "H" 
			},
			{
				"x": -0.5635079483,
				"y": 0.1499685806,
				"z": 0.9605881279,
				"element": "H" 
			},
			{
				"x": 0.2263841951,
				"y": 2.3800814127,
				"z": 0.8913533347,
				"element": "H" 
			},
			{
				"x": -1.2088829813,
				"y": 3.3291312202,
				"z": 0.4753156221,
				"element": "H" 
			},
			{
				"x": 0.302815545,
				"y": 4.6346476509,
				"z": 1.9092165246,
				"element": "H" 
			},
			{
				"x": -1.2248993901,
				"y": 4.3285296301,
				"z": 2.7544753723,
				"element": "H" 
			},
			{
				"x": 0.274405964,
				"y": 1.7852071307,
				"z": 4.7892158455,
				"element": "H" 
			},
			{
				"x": 0.8181609798,
				"y": 1.2495324147,
				"z": 3.1891729483,
				"element": "H" 
			},
			{
				"x": -1.5441275114,
				"y": 0.5606773417,
				"z": 3.5945944459,
				"element": "H" 
			},
			{
				"x": -1.9929556388,
				"y": 2.2331592041,
				"z": 3.9085106745,
				"element": "H" 
			}
		],
		 "valence_orbital": [ 
			{
				"type": "occ",
				"energy": -0.2694,
				"method": "rhf"
			},
			{
				"type": "occ",
				"energy": -0.26298,
				"method": "rhf"
			},
			{
				"type": "occ",
				"energy": -0.24192,
				"method": "rhf"
			},
			{
				"type": "occ",
				"energy": -0.22614,
				"method": "rhf"
			},
			{
				"type": "occ",
				"energy": -0.20547,
				"method": "rhf"
			},
			{
				"type": "unocc",
				"energy": -0.04589,
				"method": "rhf"
			},
			{
				"type": "unocc",
				"energy": -0.03691,
				"method": "rhf"
			},
			{
				"type": "unocc",
				"energy": 0.00029,
				"method": "rhf"
			},
			{
				"type": "unocc",
				"energy": 0.02431,
				"method": "rhf"
			},
			{
				"type": "unocc",
				"energy": 0.058,
				"method": "rhf"
			}
		],
		"cosmo_sigma_profile": { 
			"-0.025": 0.0,
			"-0.024": 0.0,
			"-0.023": 0.0,
			"-0.022": 0.0,
			"-0.021": 0.0,
			"-0.02": 0.0,
			"-0.019": 0.0,
			"-0.018": 0.0,
			"-0.017": 0.0,
			"-0.016": 0.0,
			"-0.015": 0.0,
			"-0.014": 0.0,
			"-0.013": 0.0,
			"-0.012": 0.59649654793,
			"-0.011": 1.41857844829,
			"-0.01": 1.12810449966,
			"-0.009": 1.26104466835,
			"-0.008": 0.768889626864,
			"-0.007": 3.2561574051,
			"-0.006": 9.81910236729,
			"-0.005": 19.3396643613,
			"-0.004": 35.1689787269,
			"-0.003": 47.1415525287,
			"-0.002": 42.5621440955,
			"-0.001": 27.282236895,
			"0.0": 19.523483329,
			"0.001": 18.1624056643,
			"0.002": 23.7014324789,
			"0.003": 22.8911732539,
			"0.004": 14.9086498059,
			"0.005": 7.30385877585,
			"0.006": 7.73247909963,
			"0.007": 4.75736759651,
			"0.008": 4.88365407578,
			"0.009": 3.97613343984,
			"0.01": 4.03963175061,
			"0.011": 4.5132443822,
			"0.012": 5.28931400204,
			"0.013": 3.74589310866,
			"0.014": 2.06605533362,
			"0.015": 0.433217839114,
			"0.016": 0.0262268601403,
			"0.017": 0.0,
			"0.018": 0.0,
			"0.019": 0.0,
			"0.02": 0.0,
			"0.021": 0.0,
			"0.022": 0.0,
			"0.023": 0.0,
			"0.024": 0.0,
			"0.025": 0.0
		}
	}
}
