{
	 "smiles": "OC(=O)CCC1=NN=C(O1)C1=C(I)C=CC=C1", 
	 "Tm": 358.15, 
	 "num_atms": 26, 
	 "gaussian": { 
		 "optdone": 1, 
		 "sigma_profile": "yes", 
		 "theory": "DFT", 
		 "functional": "B3LYP", 
		 "basiset": "6-31G**", 
		 "properties": { 
			 "R2extent": 5061.4215, 
			 "electric_dipole_moment_norm": 4.5244233721, 
			 "electric_quadrupole_moment_norm": 15.5392828818, 
			 "total_energy": -771.139778151, 
			 "HOMO_LUMO_gap": 0.18314, 
			 "cosmo_polarized_energy": -18.63, 
			 "cosmo_cavitation_energy": 34.74, 
			 "cosmo_dispersion_energy": -25.59, 
			 "cosmo_repulsion_energy": 1.96, 
			 "cosmo_total_nonelectrostatic_energy": 11.11, 
			 "SMD_solvation_energy": 4.3 
		},
		"coords": [
			{
				"x": -0.474355008,
				"y": -3.0403695043,
				"z": 0.4671684752,
				"element": "O" 
			},
			{
				"x": 0.5157296812,
				"y": -2.2996156474,
				"z": 1.0215112484,
				"element": "C" 
			},
			{
				"x": 0.4830688186,
				"y": -1.9181229019,
				"z": 2.1702108135,
				"element": "O" 
			},
			{
				"x": 1.6353594351,
				"y": -2.042264433,
				"z": 0.0316763624,
				"element": "C" 
			},
			{
				"x": 1.1747511119,
				"y": -1.3089572933,
				"z": -1.2503092886,
				"element": "C" 
			},
			{
				"x": 0.7504516676,
				"y": 0.097266008,
				"z": -1.0032464102,
				"element": "C" 
			},
			{
				"x": 1.1862670868,
				"y": 1.1887131125,
				"z": -1.5492646151,
				"element": "N" 
			},
			{
				"x": 0.4813303158,
				"y": 2.2370018539,
				"z": -0.9568892965,
				"element": "N" 
			},
			{
				"x": -0.3298728069,
				"y": 1.7032691371,
				"z": -0.0941444474,
				"element": "C" 
			},
			{
				"x": -0.2158467379,
				"y": 0.3349727097,
				"z": -0.0738390386,
				"element": "O" 
			},
			{
				"x": -1.2497433345,
				"y": 2.3071730607,
				"z": 0.8724303439,
				"element": "C" 
			},
			{
				"x": -1.9014264701,
				"y": 3.5448168972,
				"z": 0.6951626221,
				"element": "C" 
			},
			{
				"x": -1.7474315186,
				"y": 4.7202328836,
				"z": -1.0617743982,
				"element": "I" 
			},
			{
				"x": -2.7405925655,
				"y": 4.0430810396,
				"z": 1.6965590694,
				"element": "C" 
			},
			{
				"x": -2.9460651647,
				"y": 3.3242469936,
				"z": 2.8731688265,
				"element": "C" 
			},
			{
				"x": -2.315202953,
				"y": 2.0939679049,
				"z": 3.0579089319,
				"element": "C" 
			},
			{
				"x": -1.4783465919,
				"y": 1.5941852353,
				"z": 2.0677164967,
				"element": "C" 
			},
			{
				"x": -1.1520425072,
				"y": -3.1509039248,
				"z": 1.1550580702,
				"element": "H" 
			},
			{
				"x": 2.051312882,
				"y": -3.0128856293,
				"z": -0.2605984758,
				"element": "H" 
			},
			{
				"x": 2.4123130512,
				"y": -1.4775780312,
				"z": 0.5501424828,
				"element": "H" 
			},
			{
				"x": 1.9947985869,
				"y": -1.2696295373,
				"z": -1.9706911741,
				"element": "H" 
			},
			{
				"x": 0.3533058904,
				"y": -1.8698143754,
				"z": -1.7097666149,
				"element": "H" 
			},
			{
				"x": -3.2398355918,
				"y": 4.9938069257,
				"z": 1.5496007789,
				"element": "H" 
			},
			{
				"x": -3.6013940457,
				"y": 3.7290822449,
				"z": 3.6386012641,
				"element": "H" 
			},
			{
				"x": -2.467349336,
				"y": 1.5274450662,
				"z": 3.9711215927,
				"element": "H" 
			},
			{
				"x": -0.9729838957,
				"y": 0.6447802052,
				"z": 2.2119863805,
				"element": "H" 
			}
		],
		 "valence_orbital": [ 
			{
				"type": "occ",
				"energy": -0.28744,
				"method": "rhf"
			},
			{
				"type": "occ",
				"energy": -0.28172,
				"method": "rhf"
			},
			{
				"type": "occ",
				"energy": -0.25651,
				"method": "rhf"
			},
			{
				"type": "occ",
				"energy": -0.25137,
				"method": "rhf"
			},
			{
				"type": "occ",
				"energy": -0.23793,
				"method": "rhf"
			},
			{
				"type": "unocc",
				"energy": -0.05479,
				"method": "rhf"
			},
			{
				"type": "unocc",
				"energy": -0.03749,
				"method": "rhf"
			},
			{
				"type": "unocc",
				"energy": -0.02354,
				"method": "rhf"
			},
			{
				"type": "unocc",
				"energy": -0.00989,
				"method": "rhf"
			},
			{
				"type": "unocc",
				"energy": 0.00763,
				"method": "rhf"
			}
		],
		"cosmo_sigma_profile": { 
			"-0.025": 0.0,
			"-0.024": 0.0,
			"-0.023": 0.0,
			"-0.022": 0.0,
			"-0.021": 0.0,
			"-0.02": 0.0,
			"-0.019": 0.173093086103,
			"-0.018": 0.852641196364,
			"-0.017": 0.841858481865,
			"-0.016": 0.820039609756,
			"-0.015": 0.606965887849,
			"-0.014": 0.864544851464,
			"-0.013": 0.180700668006,
			"-0.012": 1.05091173072,
			"-0.011": 1.1546372247,
			"-0.01": 0.455614141561,
			"-0.009": 0.320600470948,
			"-0.008": 2.27998438908,
			"-0.007": 15.9863029805,
			"-0.006": 21.4269358052,
			"-0.005": 20.7546849042,
			"-0.004": 20.2720360286,
			"-0.003": 16.1342425367,
			"-0.002": 14.7678088791,
			"-0.001": 14.881339709,
			"0.0": 18.1774075603,
			"0.001": 23.6824069355,
			"0.002": 25.1354000161,
			"0.003": 19.2115077865,
			"0.004": 14.0573712034,
			"0.005": 6.70361194983,
			"0.006": 4.99551220799,
			"0.007": 4.18675054986,
			"0.008": 4.78264090928,
			"0.009": 4.42420596398,
			"0.01": 4.65261040186,
			"0.011": 6.28452175054,
			"0.012": 6.52047693476,
			"0.013": 3.22024175195,
			"0.014": 2.12378010129,
			"0.015": 0.952572182098,
			"0.016": 0.0403069219553,
			"0.017": 0.0,
			"0.018": 0.0,
			"0.019": 0.0,
			"0.02": 0.0,
			"0.021": 0.0,
			"0.022": 0.0,
			"0.023": 0.0,
			"0.024": 0.0,
			"0.025": 0.0
		}
	}
}
