{
	 "smiles": "COC1=C(OC2=CC=C(N)C=C2)C=CC(=C1)C#N", 
	 "Tm": 397.15, 
	 "num_atms": 30, 
	 "gaussian": { 
		 "optdone": 1, 
		 "sigma_profile": "yes", 
		 "theory": "DFT", 
		 "functional": "B3LYP", 
		 "basiset": "6-31G**", 
		 "properties": { 
			 "R2extent": 6776.0324, 
			 "electric_dipole_moment_norm": 7.45071360676, 
			 "electric_quadrupole_moment_norm": 37.8628051511, 
			 "total_energy": -800.630433248, 
			 "HOMO_LUMO_gap": 0.17865, 
			 "cosmo_polarized_energy": -16.54, 
			 "cosmo_cavitation_energy": 36.11, 
			 "cosmo_dispersion_energy": -24.88, 
			 "cosmo_repulsion_energy": 1.95, 
			 "cosmo_total_nonelectrostatic_energy": 13.17, 
			 "SMD_solvation_energy": 8.52 
		},
		"coords": [
			{
				"x": 1.6077290143,
				"y": -3.4079984222,
				"z": 1.1010920969,
				"element": "C" 
			},
			{
				"x": 1.7369719626,
				"y": -3.4932343566,
				"z": -0.3225476199,
				"element": "O" 
			},
			{
				"x": 1.9467162202,
				"y": -2.3133252901,
				"z": -0.9848902194,
				"element": "C" 
			},
			{
				"x": 0.9426641139,
				"y": -1.3211075988,
				"z": -1.078004485,
				"element": "C" 
			},
			{
				"x": -0.2262318138,
				"y": -1.5849687284,
				"z": -0.4175715414,
				"element": "O" 
			},
			{
				"x": -1.3066167398,
				"y": -0.7096488795,
				"z": -0.5498137343,
				"element": "C" 
			},
			{
				"x": -1.5179638577,
				"y": 0.2776842328,
				"z": 0.4102317225,
				"element": "C" 
			},
			{
				"x": -2.638789894,
				"y": 1.0998015814,
				"z": 0.3234655337,
				"element": "C" 
			},
			{
				"x": -3.564608294,
				"y": 0.9461044855,
				"z": -0.7241948109,
				"element": "C" 
			},
			{
				"x": -4.7169213394,
				"y": 1.7290089719,
				"z": -0.7781331614,
				"element": "N" 
			},
			{
				"x": -3.3328162006,
				"y": -0.0588452892,
				"z": -1.6813683988,
				"element": "C" 
			},
			{
				"x": -2.2134961288,
				"y": -0.8817650516,
				"z": -1.5943668036,
				"element": "C" 
			},
			{
				"x": 1.1786080581,
				"y": -0.1587356417,
				"z": -1.818168119,
				"element": "C" 
			},
			{
				"x": 2.3920459945,
				"y": 0.0222801223,
				"z": -2.4759534092,
				"element": "C" 
			},
			{
				"x": 3.3880657508,
				"y": -0.9619768845,
				"z": -2.3996724941,
				"element": "C" 
			},
			{
				"x": 3.1550790696,
				"y": -2.1254652016,
				"z": -1.6444851882,
				"element": "C" 
			},
			{
				"x": 4.6362959236,
				"y": -0.7829661088,
				"z": -3.0785299223,
				"element": "C" 
			},
			{
				"x": 5.6505253037,
				"y": -0.6339734187,
				"z": -3.6297374114,
				"element": "N" 
			},
			{
				"x": 1.5034896828,
				"y": -4.4353689402,
				"z": 1.454597358,
				"element": "H" 
			},
			{
				"x": 2.5055323545,
				"y": -2.9616805631,
				"z": 1.5473242148,
				"element": "H" 
			},
			{
				"x": 0.7258883997,
				"y": -2.8302749096,
				"z": 1.3911104786,
				"element": "H" 
			},
			{
				"x": -0.8080917297,
				"y": 0.3951430018,
				"z": 1.2228896458,
				"element": "H" 
			},
			{
				"x": -2.8050902384,
				"y": 1.8637074477,
				"z": 1.0785079063,
				"element": "H" 
			},
			{
				"x": -5.1436900091,
				"y": 1.813280348,
				"z": -1.6900342805,
				"element": "H" 
			},
			{
				"x": -4.662635362,
				"y": 2.6174790997,
				"z": -0.3001537467,
				"element": "H" 
			},
			{
				"x": -4.0424374368,
				"y": -0.2006240811,
				"z": -2.4923177882,
				"element": "H" 
			},
			{
				"x": -2.0414323085,
				"y": -1.6621457552,
				"z": -2.3286793776,
				"element": "H" 
			},
			{
				"x": 0.4046302726,
				"y": 0.5964957681,
				"z": -1.8839526503,
				"element": "H" 
			},
			{
				"x": 2.5677036863,
				"y": 0.923859597,
				"z": -3.0525869625,
				"element": "H" 
			},
			{
				"x": 3.9075755455,
				"y": -2.9026395355,
				"z": -1.5722568318,
				"element": "H" 
			}
		],
		 "valence_orbital": [ 
			{
				"type": "occ",
				"energy": -0.28676,
				"method": "rhf"
			},
			{
				"type": "occ",
				"energy": -0.26651,
				"method": "rhf"
			},
			{
				"type": "occ",
				"energy": -0.25658,
				"method": "rhf"
			},
			{
				"type": "occ",
				"energy": -0.23018,
				"method": "rhf"
			},
			{
				"type": "occ",
				"energy": -0.21432,
				"method": "rhf"
			},
			{
				"type": "unocc",
				"energy": -0.03567,
				"method": "rhf"
			},
			{
				"type": "unocc",
				"energy": -0.02073,
				"method": "rhf"
			},
			{
				"type": "unocc",
				"energy": -0.00895,
				"method": "rhf"
			},
			{
				"type": "unocc",
				"energy": 0.00281,
				"method": "rhf"
			},
			{
				"type": "unocc",
				"energy": 0.04622,
				"method": "rhf"
			}
		],
		"cosmo_sigma_profile": { 
			"-0.025": 0.0,
			"-0.024": 0.0,
			"-0.023": 0.0,
			"-0.022": 0.0,
			"-0.021": 0.0,
			"-0.02": 0.0,
			"-0.019": 0.0,
			"-0.018": 0.0,
			"-0.017": 0.0,
			"-0.016": 0.0,
			"-0.015": 0.0,
			"-0.014": 0.0,
			"-0.013": 0.532121426604,
			"-0.012": 2.64314095873,
			"-0.011": 2.90363209961,
			"-0.01": 3.28210602135,
			"-0.009": 3.40100095995,
			"-0.008": 5.48655341365,
			"-0.007": 9.57673658198,
			"-0.006": 15.5511663243,
			"-0.005": 17.1245312662,
			"-0.004": 18.8641878128,
			"-0.003": 20.6798585041,
			"-0.002": 21.5520436456,
			"-0.001": 21.5771082949,
			"0.0": 18.8913474724,
			"0.001": 21.6777498888,
			"0.002": 19.214828152,
			"0.003": 15.1645255991,
			"0.004": 14.3317981964,
			"0.005": 14.068019342,
			"0.006": 7.25266846225,
			"0.007": 5.71420747547,
			"0.008": 6.6780139597,
			"0.009": 5.94890944279,
			"0.01": 5.08947520675,
			"0.011": 5.58160379662,
			"0.012": 3.4464818397,
			"0.013": 2.64179921717,
			"0.014": 0.744180218936,
			"0.015": 0.0694598840837,
			"0.016": 0.0,
			"0.017": 0.0,
			"0.018": 0.0,
			"0.019": 0.0,
			"0.02": 0.0,
			"0.021": 0.0,
			"0.022": 0.0,
			"0.023": 0.0,
			"0.024": 0.0,
			"0.025": 0.0
		}
	}
}
