{
	 "smiles": "CC1=NN(C(=O)C1=CC1=C(O)C2=CC=CC(C)=C2NC1=O)C1=CC=CC=C1", 
	 "Tm": 444.15, 
	 "num_atms": 44, 
	 "gaussian": { 
		 "optdone": 1, 
		 "sigma_profile": "yes", 
		 "theory": "DFT", 
		 "functional": "B3LYP", 
		 "basiset": "6-31G**", 
		 "properties": { 
			 "R2extent": 14662.0856, 
			 "electric_dipole_moment_norm": 10.4418090162, 
			 "electric_quadrupole_moment_norm": 24.6777465653, 
			 "total_energy": -1200.41352118, 
			 "HOMO_LUMO_gap": 0.10557, 
			 "cosmo_polarized_energy": -26.87, 
			 "cosmo_cavitation_energy": 47.94, 
			 "cosmo_dispersion_energy": -34.4, 
			 "cosmo_repulsion_energy": 2.53, 
			 "cosmo_total_nonelectrostatic_energy": 16.07, 
			 "SMD_solvation_energy": 8.49 
		},
		"coords": [
			{
				"x": -1.4406814385,
				"y": -0.114258742,
				"z": -1.0476032721,
				"element": "C" 
			},
			{
				"x": -1.2461935622,
				"y": -1.0110755386,
				"z": 0.1333394882,
				"element": "C" 
			},
			{
				"x": -2.150532594,
				"y": -1.9014724938,
				"z": 0.4175319044,
				"element": "N" 
			},
			{
				"x": -1.7950846377,
				"y": -2.5499248982,
				"z": 1.5999512679,
				"element": "N" 
			},
			{
				"x": -0.6298533844,
				"y": -2.0183274132,
				"z": 2.1510276291,
				"element": "C" 
			},
			{
				"x": -0.0736566068,
				"y": -2.3442100013,
				"z": 3.1912994379,
				"element": "O" 
			},
			{
				"x": -0.2070037239,
				"y": -0.9774155269,
				"z": 1.1607516159,
				"element": "C" 
			},
			{
				"x": 0.8814152168,
				"y": -0.2153509734,
				"z": 1.4154081444,
				"element": "C" 
			},
			{
				"x": 1.574786389,
				"y": 0.7673342726,
				"z": 0.593962736,
				"element": "C" 
			},
			{
				"x": 1.944488309,
				"y": 0.5796836111,
				"z": -0.7203579386,
				"element": "C" 
			},
			{
				"x": 1.5989381784,
				"y": -0.5768834192,
				"z": -1.3346766423,
				"element": "O" 
			},
			{
				"x": 2.7126350113,
				"y": 1.5691146898,
				"z": -1.4527114453,
				"element": "C" 
			},
			{
				"x": 3.0084490767,
				"y": 1.4519326206,
				"z": -2.8262509661,
				"element": "C" 
			},
			{
				"x": 3.7637954701,
				"y": 2.4159776509,
				"z": -3.4702938517,
				"element": "C" 
			},
			{
				"x": 4.2339898243,
				"y": 3.5250590427,
				"z": -2.7512012799,
				"element": "C" 
			},
			{
				"x": 3.9518369574,
				"y": 3.6984812529,
				"z": -1.4005578869,
				"element": "C" 
			},
			{
				"x": 4.4485731065,
				"y": 4.9024274277,
				"z": -0.6393100465,
				"element": "C" 
			},
			{
				"x": 3.1759247871,
				"y": 2.7084659688,
				"z": -0.7509398685,
				"element": "C" 
			},
			{
				"x": 2.8529299556,
				"y": 2.8300094842,
				"z": 0.5816220287,
				"element": "N" 
			},
			{
				"x": 2.0786704941,
				"y": 1.939074728,
				"z": 1.3266244105,
				"element": "C" 
			},
			{
				"x": 1.8717960267,
				"y": 2.1544858945,
				"z": 2.5154827949,
				"element": "O" 
			},
			{
				"x": -2.6320009647,
				"y": -3.5785068679,
				"z": 2.097236213,
				"element": "C" 
			},
			{
				"x": -3.7724802509,
				"y": -3.9487647163,
				"z": 1.3680133799,
				"element": "C" 
			},
			{
				"x": -4.6002032187,
				"y": -4.9619487885,
				"z": 1.8462719654,
				"element": "C" 
			},
			{
				"x": -4.3090041744,
				"y": -5.6165802726,
				"z": 3.044431502,
				"element": "C" 
			},
			{
				"x": -3.1728190512,
				"y": -5.2424418923,
				"z": 3.7628673101,
				"element": "C" 
			},
			{
				"x": -2.330178832,
				"y": -4.230623095,
				"z": 3.3036687682,
				"element": "C" 
			},
			{
				"x": -1.3529658496,
				"y": 0.9377769243,
				"z": -0.7542109263,
				"element": "H" 
			},
			{
				"x": -0.6921944464,
				"y": -0.3033018871,
				"z": -1.8206768811,
				"element": "H" 
			},
			{
				"x": -2.4361237149,
				"y": -0.2828244276,
				"z": -1.463594759,
				"element": "H" 
			},
			{
				"x": 1.2957889129,
				"y": -0.3383398494,
				"z": 2.4166570421,
				"element": "H" 
			},
			{
				"x": 2.1405508744,
				"y": -0.70513167,
				"z": -2.1244846769,
				"element": "H" 
			},
			{
				"x": 2.615573213,
				"y": 0.6212328791,
				"z": -3.4071396087,
				"element": "H" 
			},
			{
				"x": 3.9830329124,
				"y": 2.3217338829,
				"z": -4.5285176024,
				"element": "H" 
			},
			{
				"x": 4.8279745613,
				"y": 4.2786783451,
				"z": -3.2608642882,
				"element": "H" 
			},
			{
				"x": 5.0964782269,
				"y": 4.617323122,
				"z": 0.1995346592,
				"element": "H" 
			},
			{
				"x": 5.0289840116,
				"y": 5.5594651994,
				"z": -1.2904345727,
				"element": "H" 
			},
			{
				"x": 3.6213639089,
				"y": 5.4952473491,
				"z": -0.2284278757,
				"element": "H" 
			},
			{
				"x": 3.1889087253,
				"y": 3.6208241535,
				"z": 1.1149363442,
				"element": "H" 
			},
			{
				"x": -3.9951044378,
				"y": -3.4381279244,
				"z": 0.4402267493,
				"element": "H" 
			},
			{
				"x": -5.4807356747,
				"y": -5.2392854092,
				"z": 1.2731552614,
				"element": "H" 
			},
			{
				"x": -4.9580381804,
				"y": -6.4057300218,
				"z": 3.4122834681,
				"element": "H" 
			},
			{
				"x": -2.931644265,
				"y": -5.7409899519,
				"z": 4.6976580699,
				"element": "H" 
			},
			{
				"x": -1.4510851414,
				"y": -3.9410127188,
				"z": 3.862312198,
				"element": "H" 
			}
		],
		 "valence_orbital": [ 
			{
				"type": "occ",
				"energy": -0.24587,
				"method": "rhf"
			},
			{
				"type": "occ",
				"energy": -0.2433,
				"method": "rhf"
			},
			{
				"type": "occ",
				"energy": -0.23437,
				"method": "rhf"
			},
			{
				"type": "occ",
				"energy": -0.22881,
				"method": "rhf"
			},
			{
				"type": "occ",
				"energy": -0.19568,
				"method": "rhf"
			},
			{
				"type": "unocc",
				"energy": -0.09011,
				"method": "rhf"
			},
			{
				"type": "unocc",
				"energy": -0.04846,
				"method": "rhf"
			},
			{
				"type": "unocc",
				"energy": -0.02639,
				"method": "rhf"
			},
			{
				"type": "unocc",
				"energy": 0.00235,
				"method": "rhf"
			},
			{
				"type": "unocc",
				"energy": 0.00429,
				"method": "rhf"
			}
		],
		"cosmo_sigma_profile": { 
			"-0.025": 0.0,
			"-0.024": 0.0,
			"-0.023": 0.0,
			"-0.022": 0.0,
			"-0.021": 0.0,
			"-0.02": 0.0117850276039,
			"-0.019": 0.87973402087,
			"-0.018": 0.840256117113,
			"-0.017": 0.660095214852,
			"-0.016": 1.33619431047,
			"-0.015": 0.667834599208,
			"-0.014": 1.51627204008,
			"-0.013": 2.12451039888,
			"-0.012": 1.97073588447,
			"-0.011": 2.80865285507,
			"-0.01": 1.91621851494,
			"-0.009": 2.91742060788,
			"-0.008": 2.99874961072,
			"-0.007": 5.90468174344,
			"-0.006": 13.7093005709,
			"-0.005": 22.2839956793,
			"-0.004": 24.2900402725,
			"-0.003": 31.9190206054,
			"-0.002": 34.8956588427,
			"-0.001": 37.4207322694,
			"0.0": 31.4352308048,
			"0.001": 23.0151140256,
			"0.002": 24.9468846812,
			"0.003": 26.9805575971,
			"0.004": 21.0031439852,
			"0.005": 16.3276469661,
			"0.006": 12.0121570118,
			"0.007": 5.13217522071,
			"0.008": 5.00100837694,
			"0.009": 4.8411512873,
			"0.01": 4.36261318729,
			"0.011": 3.44192278341,
			"0.012": 5.57720654683,
			"0.013": 6.54788577751,
			"0.014": 2.68724618615,
			"0.015": 0.0190129171375,
			"0.016": 0.0,
			"0.017": 0.0,
			"0.018": 0.0,
			"0.019": 0.0,
			"0.02": 0.0,
			"0.021": 0.0,
			"0.022": 0.0,
			"0.023": 0.0,
			"0.024": 0.0,
			"0.025": 0.0
		}
	}
}
