{
	 "smiles": "NC1=C(CO)N=CC=N1", 
	 "Tm": 389.15, 
	 "num_atms": 16, 
	 "gaussian": { 
		 "optdone": 1, 
		 "sigma_profile": "yes", 
		 "theory": "DFT", 
		 "functional": "B3LYP", 
		 "basiset": "6-31G**", 
		 "properties": { 
			 "R2extent": 1373.3763, 
			 "electric_dipole_moment_norm": 2.29899362548, 
			 "electric_quadrupole_moment_norm": 9.34316456186, 
			 "total_energy": -434.217056889, 
			 "HOMO_LUMO_gap": 0.18342, 
			 "cosmo_polarized_energy": -11.67, 
			 "cosmo_cavitation_energy": 19.69, 
			 "cosmo_dispersion_energy": -15.21, 
			 "cosmo_repulsion_energy": 1.27, 
			 "cosmo_total_nonelectrostatic_energy": 5.75, 
			 "SMD_solvation_energy": 0.8 
		},
		"coords": [
			{
				"x": -1.8872591736,
				"y": 1.2845629311,
				"z": -1.3546355068,
				"element": "N" 
			},
			{
				"x": -0.541207406,
				"y": 1.0166273877,
				"z": -1.4192771115,
				"element": "C" 
			},
			{
				"x": 0.0199685143,
				"y": -0.0929661129,
				"z": -0.7216305124,
				"element": "C" 
			},
			{
				"x": -0.837293194,
				"y": -1.0309601843,
				"z": 0.0896205289,
				"element": "C" 
			},
			{
				"x": -1.6583941161,
				"y": -0.2770797547,
				"z": 0.9947610431,
				"element": "O" 
			},
			{
				"x": 1.3167916202,
				"y": -0.3672932994,
				"z": -0.8052616934,
				"element": "N" 
			},
			{
				"x": 2.0749577844,
				"y": 0.4238684161,
				"z": -1.582985241,
				"element": "C" 
			},
			{
				"x": 1.5186626338,
				"y": 1.4954098964,
				"z": -2.2718891836,
				"element": "C" 
			},
			{
				"x": 0.2188321951,
				"y": 1.8040990935,
				"z": -2.1919331808,
				"element": "N" 
			},
			{
				"x": -2.3372886488,
				"y": 1.0056606357,
				"z": -0.4910413084,
				"element": "H" 
			},
			{
				"x": -2.1454802527,
				"y": 2.1867323601,
				"z": -1.7299679488,
				"element": "H" 
			},
			{
				"x": -0.169045028,
				"y": -1.7153621123,
				"z": 0.6248458611,
				"element": "H" 
			},
			{
				"x": -1.4718473917,
				"y": -1.6237140164,
				"z": -0.5899688285,
				"element": "H" 
			},
			{
				"x": -2.2626348058,
				"y": -0.8936727622,
				"z": 1.4269580028,
				"element": "H" 
			},
			{
				"x": 3.1343265375,
				"y": 0.1914612453,
				"z": -1.6495166323,
				"element": "H" 
			},
			{
				"x": 2.1328107314,
				"y": 2.1326262763,
				"z": -2.9057782883,
				"element": "H" 
			}
		],
		 "valence_orbital": [ 
			{
				"type": "occ",
				"energy": -0.30237,
				"method": "rhf"
			},
			{
				"type": "occ",
				"energy": -0.29614,
				"method": "rhf"
			},
			{
				"type": "occ",
				"energy": -0.28265,
				"method": "rhf"
			},
			{
				"type": "occ",
				"energy": -0.2407,
				"method": "rhf"
			},
			{
				"type": "occ",
				"energy": -0.21631,
				"method": "rhf"
			},
			{
				"type": "unocc",
				"energy": -0.03289,
				"method": "rhf"
			},
			{
				"type": "unocc",
				"energy": 0.0007,
				"method": "rhf"
			},
			{
				"type": "unocc",
				"energy": 0.06436,
				"method": "rhf"
			},
			{
				"type": "unocc",
				"energy": 0.11548,
				"method": "rhf"
			},
			{
				"type": "unocc",
				"energy": 0.1317,
				"method": "rhf"
			}
		],
		"cosmo_sigma_profile": { 
			"-0.025": 0.0,
			"-0.024": 0.0,
			"-0.023": 0.0,
			"-0.022": 0.0,
			"-0.021": 0.0,
			"-0.02": 0.0,
			"-0.019": 0.0,
			"-0.018": 0.0,
			"-0.017": 0.301078790037,
			"-0.016": 1.17684053271,
			"-0.015": 1.29232195633,
			"-0.014": 0.893400386687,
			"-0.013": 1.07037502958,
			"-0.012": 2.23210262705,
			"-0.011": 1.63572268991,
			"-0.01": 1.52978381775,
			"-0.009": 2.86159057813,
			"-0.008": 2.76806947902,
			"-0.007": 4.64294044582,
			"-0.006": 8.18889830739,
			"-0.005": 10.6433116792,
			"-0.004": 10.0868435621,
			"-0.003": 8.05868389892,
			"-0.002": 7.57410849207,
			"-0.001": 9.71518091756,
			"0.0": 9.88655277657,
			"0.001": 11.0872739611,
			"0.002": 9.97928690966,
			"0.003": 8.04309395852,
			"0.004": 6.07432086748,
			"0.005": 5.80936470864,
			"0.006": 4.25239755962,
			"0.007": 4.46098052911,
			"0.008": 4.1926674804,
			"0.009": 3.07222173949,
			"0.01": 3.33530395264,
			"0.011": 3.59026256949,
			"0.012": 3.37695287894,
			"0.013": 1.73605844676,
			"0.014": 1.54277827305,
			"0.015": 0.990297745343,
			"0.016": 0.122738805954,
			"0.017": 0.0,
			"0.018": 0.0,
			"0.019": 0.0,
			"0.02": 0.0,
			"0.021": 0.0,
			"0.022": 0.0,
			"0.023": 0.0,
			"0.024": 0.0,
			"0.025": 0.0
		}
	}
}
