{
	 "smiles": "CN1CCN(C)C1=O", 
	 "Tm": 281.25, 
	 "num_atms": 18, 
	 "gaussian": { 
		 "optdone": 1, 
		 "sigma_profile": "yes", 
		 "theory": "DFT", 
		 "functional": "B3LYP", 
		 "basiset": "6-31G**", 
		 "properties": { 
			 "R2extent": 1131.7163, 
			 "electric_dipole_moment_norm": 3.72773032018, 
			 "electric_quadrupole_moment_norm": 7.79082344685, 
			 "total_energy": -381.306734322, 
			 "HOMO_LUMO_gap": 0.28579, 
			 "cosmo_polarized_energy": -9.9, 
			 "cosmo_cavitation_energy": 20.28, 
			 "cosmo_dispersion_energy": -15.31, 
			 "cosmo_repulsion_energy": 1.28, 
			 "cosmo_total_nonelectrostatic_energy": 6.26, 
			 "SMD_solvation_energy": 2.81 
		},
		"coords": [
			{
				"x": 0.2506207968,
				"y": 1.6307823218,
				"z": -1.0135642911,
				"element": "C" 
			},
			{
				"x": 0.2904847606,
				"y": 0.8888018774,
				"z": 0.2273467684,
				"element": "N" 
			},
			{
				"x": 1.495363429,
				"y": 0.2039089237,
				"z": 0.6674410943,
				"element": "C" 
			},
			{
				"x": 0.9907334336,
				"y": -0.5585774276,
				"z": 1.9067965138,
				"element": "C" 
			},
			{
				"x": -0.4162529337,
				"y": -0.744742036,
				"z": 1.5902136291,
				"element": "N" 
			},
			{
				"x": -1.3421988251,
				"y": -1.3026082911,
				"z": 2.551146497,
				"element": "C" 
			},
			{
				"x": -0.8406048554,
				"y": 0.2205018113,
				"z": 0.6834524598,
				"element": "C" 
			},
			{
				"x": -1.995440954,
				"y": 0.4410265108,
				"z": 0.348907925,
				"element": "O" 
			},
			{
				"x": 0.8775772698,
				"y": 2.526517161,
				"z": -0.94700435,
				"element": "H" 
			},
			{
				"x": 0.5960524644,
				"y": 1.0271290551,
				"z": -1.8671962343,
				"element": "H" 
			},
			{
				"x": -0.784495851,
				"y": 1.9280225461,
				"z": -1.1895015963,
				"element": "H" 
			},
			{
				"x": 2.3000128521,
				"y": 0.9071361332,
				"z": 0.9057696113,
				"element": "H" 
			},
			{
				"x": 1.8648657347,
				"y": -0.4914824899,
				"z": -0.1043635178,
				"element": "H" 
			},
			{
				"x": 1.5060127962,
				"y": -1.5138391506,
				"z": 2.0508411219,
				"element": "H" 
			},
			{
				"x": 1.1187106467,
				"y": 0.0418217197,
				"z": 2.8227240254,
				"element": "H" 
			},
			{
				"x": -2.3471431003,
				"y": -1.2104278111,
				"z": 2.135976882,
				"element": "H" 
			},
			{
				"x": -1.1206941186,
				"y": -2.3603081194,
				"z": 2.7301777454,
				"element": "H" 
			},
			{
				"x": -1.3069035459,
				"y": -0.7718627347,
				"z": 3.515235716,
				"element": "H" 
			}
		],
		 "valence_orbital": [ 
			{
				"type": "occ",
				"energy": -0.368,
				"method": "rhf"
			},
			{
				"type": "occ",
				"energy": -0.36408,
				"method": "rhf"
			},
			{
				"type": "occ",
				"energy": -0.25533,
				"method": "rhf"
			},
			{
				"type": "occ",
				"energy": -0.23909,
				"method": "rhf"
			},
			{
				"type": "occ",
				"energy": -0.22556,
				"method": "rhf"
			},
			{
				"type": "unocc",
				"energy": 0.06023,
				"method": "rhf"
			},
			{
				"type": "unocc",
				"energy": 0.08438,
				"method": "rhf"
			},
			{
				"type": "unocc",
				"energy": 0.10989,
				"method": "rhf"
			},
			{
				"type": "unocc",
				"energy": 0.1234,
				"method": "rhf"
			},
			{
				"type": "unocc",
				"energy": 0.12705,
				"method": "rhf"
			}
		],
		"cosmo_sigma_profile": { 
			"-0.025": 0.0,
			"-0.024": 0.0,
			"-0.023": 0.0,
			"-0.022": 0.0,
			"-0.021": 0.0,
			"-0.02": 0.0,
			"-0.019": 0.0,
			"-0.018": 0.0,
			"-0.017": 0.0,
			"-0.016": 0.0,
			"-0.015": 0.0,
			"-0.014": 0.0,
			"-0.013": 0.0,
			"-0.012": 0.0,
			"-0.011": 0.0,
			"-0.01": 0.0,
			"-0.009": 0.0,
			"-0.008": 0.0,
			"-0.007": 0.0,
			"-0.006": 0.845905020301,
			"-0.005": 8.64361453551,
			"-0.004": 29.6430739134,
			"-0.003": 28.2502170495,
			"-0.002": 25.0153655355,
			"-0.001": 17.5434683379,
			"0.0": 5.40400169101,
			"0.001": 3.75124328881,
			"0.002": 3.94068247036,
			"0.003": 2.79828248087,
			"0.004": 3.19526692731,
			"0.005": 4.92520036488,
			"0.006": 3.33184175987,
			"0.007": 3.39870564364,
			"0.008": 2.14515152604,
			"0.009": 1.21643906983,
			"0.01": 1.1418099079,
			"0.011": 1.91310521537,
			"0.012": 1.64819236637,
			"0.013": 2.00019761677,
			"0.014": 5.71003263607,
			"0.015": 2.17724766575,
			"0.016": 0.0,
			"0.017": 0.0,
			"0.018": 0.0,
			"0.019": 0.0,
			"0.02": 0.0,
			"0.021": 0.0,
			"0.022": 0.0,
			"0.023": 0.0,
			"0.024": 0.0,
			"0.025": 0.0
		}
	}
}
