{
	 "smiles": "CCCC1=NC(C)=C2N1NC(=NC2=O)C1=C(OCC)C=CC(=C1)S(=O)(=O)N1CCN(CC)CC1", 
	 "Tm": 465.15, 
	 "num_atms": 66, 
	 "gaussian": { 
		 "optdone": 1, 
		 "sigma_profile": "yes", 
		 "theory": "DFT", 
		 "functional": "B3LYP", 
		 "basiset": "6-31G**", 
		 "properties": { 
			 "R2extent": 19244.2619, 
			 "electric_dipole_moment_norm": 2.78244275772, 
			 "electric_quadrupole_moment_norm": 29.4161090413, 
			 "total_energy": -1923.21615946, 
			 "HOMO_LUMO_gap": 0.14137, 
			 "cosmo_polarized_energy": -31.8, 
			 "cosmo_cavitation_energy": 68.08, 
			 "cosmo_dispersion_energy": -44.04, 
			 "cosmo_repulsion_energy": 3.37, 
			 "cosmo_total_nonelectrostatic_energy": 27.41, 
			 "SMD_solvation_energy": 5.88 
		},
		"coords": [
			{
				"x": -0.2707247059,
				"y": -3.6797711338,
				"z": 4.9875022419,
				"element": "C" 
			},
			{
				"x": -0.0055672541,
				"y": -3.9323305952,
				"z": 3.501149292,
				"element": "C" 
			},
			{
				"x": 1.2538319798,
				"y": -3.1960497314,
				"z": 2.9928263211,
				"element": "C" 
			},
			{
				"x": 1.5656449535,
				"y": -3.4487101276,
				"z": 1.553033657,
				"element": "C" 
			},
			{
				"x": 2.4186908601,
				"y": -4.3485510537,
				"z": 1.0729136995,
				"element": "N" 
			},
			{
				"x": 2.3788121139,
				"y": -4.2684254483,
				"z": -0.2926703886,
				"element": "C" 
			},
			{
				"x": 3.2328412735,
				"y": -5.1210566955,
				"z": -1.1738891235,
				"element": "C" 
			},
			{
				"x": 1.4662726157,
				"y": -3.2968341792,
				"z": -0.6809711013,
				"element": "C" 
			},
			{
				"x": 0.9560843457,
				"y": -2.8039633173,
				"z": 0.5189633639,
				"element": "N" 
			},
			{
				"x": 0.0474517598,
				"y": -1.7603085584,
				"z": 0.5486524942,
				"element": "N" 
			},
			{
				"x": -0.3605025655,
				"y": -1.2602498171,
				"z": -0.6833866282,
				"element": "C" 
			},
			{
				"x": 0.1139563519,
				"y": -1.6187563502,
				"z": -1.8295748115,
				"element": "N" 
			},
			{
				"x": 1.014151007,
				"y": -2.7108065734,
				"z": -1.9352310937,
				"element": "C" 
			},
			{
				"x": 1.3651972605,
				"y": -3.1125370427,
				"z": -3.0352597199,
				"element": "O" 
			},
			{
				"x": -1.3893619244,
				"y": -0.1937715473,
				"z": -0.5709649829,
				"element": "C" 
			},
			{
				"x": -2.475754662,
				"y": -0.1270458454,
				"z": -1.4798810373,
				"element": "C" 
			},
			{
				"x": -2.6411703465,
				"y": -1.082398407,
				"z": -2.4306253577,
				"element": "O" 
			},
			{
				"x": -2.1860281574,
				"y": -0.7431114983,
				"z": -3.7667732064,
				"element": "C" 
			},
			{
				"x": -2.1631382458,
				"y": -2.0183602478,
				"z": -4.5840825096,
				"element": "C" 
			},
			{
				"x": -3.4360587131,
				"y": 0.880871202,
				"z": -1.3348487638,
				"element": "C" 
			},
			{
				"x": -3.3411271025,
				"y": 1.8203566859,
				"z": -0.3103330688,
				"element": "C" 
			},
			{
				"x": -2.2666812505,
				"y": 1.7510404703,
				"z": 0.5766128674,
				"element": "C" 
			},
			{
				"x": -1.3040606968,
				"y": 0.7498179215,
				"z": 0.4593623053,
				"element": "C" 
			},
			{
				"x": -2.1392535592,
				"y": 2.9224317506,
				"z": 1.9296967408,
				"element": "S" 
			},
			{
				"x": -3.4105132964,
				"y": 3.6581563472,
				"z": 1.979424599,
				"element": "O" 
			},
			{
				"x": -1.6410339951,
				"y": 2.2058057805,
				"z": 3.1100436114,
				"element": "O" 
			},
			{
				"x": -0.8755804424,
				"y": 3.916216748,
				"z": 1.4077877969,
				"element": "N" 
			},
			{
				"x": -1.2257863303,
				"y": 4.8832644506,
				"z": 0.3457074878,
				"element": "C" 
			},
			{
				"x": -0.0155728808,
				"y": 5.8292716658,
				"z": 0.1260866917,
				"element": "C" 
			},
			{
				"x": 1.2744061465,
				"y": 5.196620896,
				"z": 0.3643120167,
				"element": "N" 
			},
			{
				"x": 1.6376526334,
				"y": 4.1465168849,
				"z": -0.5987048725,
				"element": "C" 
			},
			{
				"x": 1.8762494199,
				"y": 4.6947278533,
				"z": -2.0063084013,
				"element": "C" 
			},
			{
				"x": 1.381288491,
				"y": 4.7929342172,
				"z": 1.7755995739,
				"element": "C" 
			},
			{
				"x": 0.0195066929,
				"y": 4.4661837587,
				"z": 2.4406636832,
				"element": "C" 
			},
			{
				"x": 0.5730147903,
				"y": -4.0170245093,
				"z": 5.5993775002,
				"element": "H" 
			},
			{
				"x": -0.4236526837,
				"y": -2.6139876634,
				"z": 5.1912975527,
				"element": "H" 
			},
			{
				"x": -1.1629502564,
				"y": -4.2152625026,
				"z": 5.3257477577,
				"element": "H" 
			},
			{
				"x": -0.8834728091,
				"y": -3.6250764347,
				"z": 2.9143387325,
				"element": "H" 
			},
			{
				"x": 0.1199940136,
				"y": -5.0048170929,
				"z": 3.3147539437,
				"element": "H" 
			},
			{
				"x": 1.1479721276,
				"y": -2.116378418,
				"z": 3.1686733021,
				"element": "H" 
			},
			{
				"x": 2.1238103522,
				"y": -3.5278925445,
				"z": 3.5668346779,
				"element": "H" 
			},
			{
				"x": 3.0181638516,
				"y": -6.1822896132,
				"z": -1.0073999261,
				"element": "H" 
			},
			{
				"x": 3.0486653595,
				"y": -4.8807203896,
				"z": -2.2219973609,
				"element": "H" 
			},
			{
				"x": 4.2937183731,
				"y": -4.9672844155,
				"z": -0.948918018,
				"element": "H" 
			},
			{
				"x": -0.6523443588,
				"y": -1.8389025075,
				"z": 1.2776709847,
				"element": "H" 
			},
			{
				"x": -2.8719188442,
				"y": 0.002414874,
				"z": -4.1928010039,
				"element": "H" 
			},
			{
				"x": -1.1822678397,
				"y": -0.3149092705,
				"z": -3.6955647206,
				"element": "H" 
			},
			{
				"x": -3.1392158601,
				"y": -2.5124151691,
				"z": -4.5642023322,
				"element": "H" 
			},
			{
				"x": -1.9154192558,
				"y": -1.7836531469,
				"z": -5.6242629186,
				"element": "H" 
			},
			{
				"x": -1.4030218299,
				"y": -2.6998091564,
				"z": -4.1951213146,
				"element": "H" 
			},
			{
				"x": -4.2749517253,
				"y": 0.8937687094,
				"z": -2.0228471928,
				"element": "H" 
			},
			{
				"x": -4.0947461796,
				"y": 2.5892219689,
				"z": -0.1796398171,
				"element": "H" 
			},
			{
				"x": -0.4785954927,
				"y": 0.7141594072,
				"z": 1.1619574858,
				"element": "H" 
			},
			{
				"x": -2.1190565435,
				"y": 5.4660427809,
				"z": 0.6085594298,
				"element": "H" 
			},
			{
				"x": -1.4492588625,
				"y": 4.3185501838,
				"z": -0.5658921334,
				"element": "H" 
			},
			{
				"x": -0.0973945131,
				"y": 6.6859945577,
				"z": 0.8051808929,
				"element": "H" 
			},
			{
				"x": -0.0596419497,
				"y": 6.2367004869,
				"z": -0.8872574469,
				"element": "H" 
			},
			{
				"x": 0.8997348146,
				"y": 3.3259936456,
				"z": -0.6373773998,
				"element": "H" 
			},
			{
				"x": 2.5726405362,
				"y": 3.7024916284,
				"z": -0.2398717645,
				"element": "H" 
			},
			{
				"x": 2.6021239338,
				"y": 5.512961124,
				"z": -1.9805118306,
				"element": "H" 
			},
			{
				"x": 0.9583027901,
				"y": 5.0686930743,
				"z": -2.4714941026,
				"element": "H" 
			},
			{
				"x": 2.2654026295,
				"y": 3.9026765175,
				"z": -2.6539599699,
				"element": "H" 
			},
			{
				"x": 2.0364782285,
				"y": 3.9195645611,
				"z": 1.8363330925,
				"element": "H" 
			},
			{
				"x": 1.8569367242,
				"y": 5.5959755235,
				"z": 2.3572603497,
				"element": "H" 
			},
			{
				"x": -0.4189193088,
				"y": 5.3660153306,
				"z": 2.8968293231,
				"element": "H" 
			},
			{
				"x": 0.1398480117,
				"y": 3.7240199976,
				"z": 3.2299708504,
				"element": "H" 
			}
		],
		 "valence_orbital": [ 
			{
				"type": "occ",
				"energy": -0.25705,
				"method": "rhf"
			},
			{
				"type": "occ",
				"energy": -0.25338,
				"method": "rhf"
			},
			{
				"type": "occ",
				"energy": -0.2508,
				"method": "rhf"
			},
			{
				"type": "occ",
				"energy": -0.22782,
				"method": "rhf"
			},
			{
				"type": "occ",
				"energy": -0.21433,
				"method": "rhf"
			},
			{
				"type": "unocc",
				"energy": -0.07296,
				"method": "rhf"
			},
			{
				"type": "unocc",
				"energy": -0.04928,
				"method": "rhf"
			},
			{
				"type": "unocc",
				"energy": -0.03034,
				"method": "rhf"
			},
			{
				"type": "unocc",
				"energy": -0.00056,
				"method": "rhf"
			},
			{
				"type": "unocc",
				"energy": 0.02699,
				"method": "rhf"
			}
		],
		"cosmo_sigma_profile": { 
			"-0.025": 0.0,
			"-0.024": 0.0,
			"-0.023": 0.0,
			"-0.022": 0.0,
			"-0.021": 0.0,
			"-0.02": 0.0,
			"-0.019": 0.0,
			"-0.018": 0.0,
			"-0.017": 0.0999515375477,
			"-0.016": 0.931703582737,
			"-0.015": 0.984007573479,
			"-0.014": 2.25803318617,
			"-0.013": 2.55793039258,
			"-0.012": 1.28305779147,
			"-0.011": 2.12325599953,
			"-0.01": 1.36262349487,
			"-0.009": 2.03438239456,
			"-0.008": 4.15184166476,
			"-0.007": 5.55591476453,
			"-0.006": 9.47085995286,
			"-0.005": 27.3762720446,
			"-0.004": 52.2393816596,
			"-0.003": 62.3465588006,
			"-0.002": 58.1558995216,
			"-0.001": 61.0875441976,
			"0.0": 58.6122176957,
			"0.001": 45.1161350748,
			"0.002": 21.84565368,
			"0.003": 14.1777863219,
			"0.004": 11.6348591383,
			"0.005": 9.3879451411,
			"0.006": 9.18730709641,
			"0.007": 10.1501405,
			"0.008": 9.10889359208,
			"0.009": 9.3094677337,
			"0.01": 11.58709809,
			"0.011": 12.8863591575,
			"0.012": 8.5341313232,
			"0.013": 4.64749381101,
			"0.014": 2.48165236414,
			"0.015": 1.32240189874,
			"0.016": 0.689949216838,
			"0.017": 0.672686828374,
			"0.018": 0.0246672542162,
			"0.019": 0.0,
			"0.02": 0.0,
			"0.021": 0.0,
			"0.022": 0.0,
			"0.023": 0.0,
			"0.024": 0.0,
			"0.025": 0.0
		}
	}
}
