{
	 "smiles": "NC1=CC=CN=C1O", 
	 "Tm": 397.15, 
	 "num_atms": 14, 
	 "gaussian": { 
		 "optdone": 1, 
		 "sigma_profile": "yes", 
		 "theory": "DFT", 
		 "functional": "B3LYP", 
		 "basiset": "6-31G**", 
		 "properties": { 
			 "R2extent": 1021.1907, 
			 "electric_dipole_moment_norm": 4.72400012807, 
			 "electric_quadrupole_moment_norm": 6.91868453899, 
			 "total_energy": -378.869547516, 
			 "HOMO_LUMO_gap": 0.20508, 
			 "cosmo_polarized_energy": -13.48, 
			 "cosmo_cavitation_energy": 17.83, 
			 "cosmo_dispersion_energy": -13.77, 
			 "cosmo_repulsion_energy": 1.16, 
			 "cosmo_total_nonelectrostatic_energy": 5.21, 
			 "SMD_solvation_energy": 2.32 
		},
		"coords": [
			{
				"x": -1.0836503842,
				"y": 0.2272187882,
				"z": 0.6639796288,
				"element": "N" 
			},
			{
				"x": 0.1459717368,
				"y": -0.1451732637,
				"z": 0.0187426888,
				"element": "C" 
			},
			{
				"x": 0.9557929558,
				"y": -1.2208861226,
				"z": 0.3571439542,
				"element": "C" 
			},
			{
				"x": 2.1185723765,
				"y": -1.4585187178,
				"z": -0.3846039905,
				"element": "C" 
			},
			{
				"x": 2.4152321229,
				"y": -0.5873232238,
				"z": -1.4296458106,
				"element": "C" 
			},
			{
				"x": 1.6454910057,
				"y": 0.451347786,
				"z": -1.7846739967,
				"element": "N" 
			},
			{
				"x": 0.5380598593,
				"y": 0.6550971951,
				"z": -1.0822421985,
				"element": "C" 
			},
			{
				"x": -0.2486814214,
				"y": 1.6852487417,
				"z": -1.4527811609,
				"element": "O" 
			},
			{
				"x": -1.6280128579,
				"y": -0.5857017392,
				"z": 0.9365707997,
				"element": "H" 
			},
			{
				"x": -0.9147121518,
				"y": 0.7781261942,
				"z": 1.5032585051,
				"element": "H" 
			},
			{
				"x": 0.6836649982,
				"y": -1.8640137301,
				"z": 1.1911551585,
				"element": "H" 
			},
			{
				"x": 2.7751424425,
				"y": -2.2900985084,
				"z": -0.1520233653,
				"element": "H" 
			},
			{
				"x": 3.3154676807,
				"y": -0.7315750208,
				"z": -2.0246429429,
				"element": "H" 
			},
			{
				"x": -1.045238363,
				"y": 1.6034516212,
				"z": -0.8925372698,
				"element": "H" 
			}
		],
		 "valence_orbital": [ 
			{
				"type": "occ",
				"energy": -0.34116,
				"method": "rhf"
			},
			{
				"type": "occ",
				"energy": -0.29978,
				"method": "rhf"
			},
			{
				"type": "occ",
				"energy": -0.27337,
				"method": "rhf"
			},
			{
				"type": "occ",
				"energy": -0.25235,
				"method": "rhf"
			},
			{
				"type": "occ",
				"energy": -0.22427,
				"method": "rhf"
			},
			{
				"type": "unocc",
				"energy": -0.01919,
				"method": "rhf"
			},
			{
				"type": "unocc",
				"energy": 0.00867,
				"method": "rhf"
			},
			{
				"type": "unocc",
				"energy": 0.06504,
				"method": "rhf"
			},
			{
				"type": "unocc",
				"energy": 0.10034,
				"method": "rhf"
			},
			{
				"type": "unocc",
				"energy": 0.12587,
				"method": "rhf"
			}
		],
		"cosmo_sigma_profile": { 
			"-0.025": 0.0,
			"-0.024": 0.0,
			"-0.023": 0.0,
			"-0.022": 0.0,
			"-0.021": 0.0,
			"-0.02": 0.0,
			"-0.019": 0.0,
			"-0.018": 0.0,
			"-0.017": 0.0,
			"-0.016": 0.0,
			"-0.015": 0.0,
			"-0.014": 0.0,
			"-0.013": 0.216432043104,
			"-0.012": 2.64056918691,
			"-0.011": 3.32981296049,
			"-0.01": 3.67600058802,
			"-0.009": 3.90214380236,
			"-0.008": 3.76832021293,
			"-0.007": 5.46854943115,
			"-0.006": 8.33774097131,
			"-0.005": 9.16743269103,
			"-0.004": 9.34309455286,
			"-0.003": 6.38834696038,
			"-0.002": 6.40394422497,
			"-0.001": 6.15108819659,
			"0.0": 6.7519154086,
			"0.001": 9.38518520724,
			"0.002": 8.65341672159,
			"0.003": 10.616255839,
			"0.004": 7.39587101228,
			"0.005": 3.66201447818,
			"0.006": 3.23839662853,
			"0.007": 2.42991533039,
			"0.008": 2.87236883284,
			"0.009": 2.94939052248,
			"0.01": 1.89466199984,
			"0.011": 2.93911495206,
			"0.012": 3.57973282876,
			"0.013": 2.47124790963,
			"0.014": 1.27950580056,
			"0.015": 1.24134011423,
			"0.016": 1.01503500332,
			"0.017": 0.629154917362,
			"0.018": 0.0,
			"0.019": 0.0,
			"0.02": 0.0,
			"0.021": 0.0,
			"0.022": 0.0,
			"0.023": 0.0,
			"0.024": 0.0,
			"0.025": 0.0
		}
	}
}
