{
	 "smiles": "COC1=CC=CC=C1NN=C(/C#N)C1=NC2=C(C=CC=C2)N1C", 
	 "Tm": 474.15, 
	 "num_atms": 38, 
	 "gaussian": { 
		 "optdone": 1, 
		 "sigma_profile": "yes", 
		 "theory": "DFT", 
		 "functional": "B3LYP", 
		 "basiset": "6-31G**", 
		 "properties": { 
			 "R2extent": 10575.5648, 
			 "electric_dipole_moment_norm": 6.07030291666, 
			 "electric_quadrupole_moment_norm": 32.1907306006, 
			 "total_energy": -1005.78067835, 
			 "HOMO_LUMO_gap": 0.12406, 
			 "cosmo_polarized_energy": -17.48, 
			 "cosmo_cavitation_energy": 43.68, 
			 "cosmo_dispersion_energy": -30.46, 
			 "cosmo_repulsion_energy": 2.27, 
			 "cosmo_total_nonelectrostatic_energy": 15.49, 
			 "SMD_solvation_energy": 6.99 
		},
		"coords": [
			{
				"x": 0.8011963223,
				"y": -2.6851594421,
				"z": -5.323905248,
				"element": "C" 
			},
			{
				"x": 0.6912590562,
				"y": -2.0755149367,
				"z": -4.0448198022,
				"element": "O" 
			},
			{
				"x": 1.1582018352,
				"y": -0.7996765338,
				"z": -3.8846951926,
				"element": "C" 
			},
			{
				"x": 1.7488879114,
				"y": -0.0228602172,
				"z": -4.8787081879,
				"element": "C" 
			},
			{
				"x": 2.1864110974,
				"y": 1.273776738,
				"z": -4.5836780658,
				"element": "C" 
			},
			{
				"x": 2.0325717643,
				"y": 1.7905982408,
				"z": -3.2994815662,
				"element": "C" 
			},
			{
				"x": 1.4411076754,
				"y": 1.0191794195,
				"z": -2.2972470752,
				"element": "C" 
			},
			{
				"x": 1.0025360744,
				"y": -0.2749036607,
				"z": -2.5801886118,
				"element": "C" 
			},
			{
				"x": 0.4018474747,
				"y": -1.1093044127,
				"z": -1.6326190531,
				"element": "N" 
			},
			{
				"x": 0.2162875444,
				"y": -0.7252245719,
				"z": -0.3818980603,
				"element": "N" 
			},
			{
				"x": -0.3569519467,
				"y": -1.541880237,
				"z": 0.4675569742,
				"element": "C" 
			},
			{
				"x": -0.790371146,
				"y": -2.8481675928,
				"z": 0.0452704739,
				"element": "C" 
			},
			{
				"x": -1.0709714301,
				"y": -3.8556903792,
				"z": -0.4667606396,
				"element": "N" 
			},
			{
				"x": -0.5915659971,
				"y": -1.180454414,
				"z": 1.8579598398,
				"element": "C" 
			},
			{
				"x": -1.2167541662,
				"y": -2.0055353852,
				"z": 2.6782937526,
				"element": "N" 
			},
			{
				"x": -1.2655533733,
				"y": -1.3446274612,
				"z": 3.8850549439,
				"element": "C" 
			},
			{
				"x": -0.6432967566,
				"y": -0.0759962276,
				"z": 3.7741430716,
				"element": "C" 
			},
			{
				"x": -0.5558455526,
				"y": 0.8055812205,
				"z": 4.8555449968,
				"element": "C" 
			},
			{
				"x": -1.1088546082,
				"y": 0.3801866354,
				"z": 6.0604438673,
				"element": "C" 
			},
			{
				"x": -1.7301748425,
				"y": -0.8803557252,
				"z": 6.1865689896,
				"element": "C" 
			},
			{
				"x": -1.8164667996,
				"y": -1.752755283,
				"z": 5.1090656462,
				"element": "C" 
			},
			{
				"x": -0.2101513982,
				"y": 0.0106367813,
				"z": 2.4584299905,
				"element": "N" 
			},
			{
				"x": 0.4996229388,
				"y": 1.139956813,
				"z": 1.8762430772,
				"element": "C" 
			},
			{
				"x": 1.8492795946,
				"y": -2.7714313075,
				"z": -5.6354495412,
				"element": "H" 
			},
			{
				"x": 0.3708723899,
				"y": -3.681563378,
				"z": -5.2192088939,
				"element": "H" 
			},
			{
				"x": 0.2416793826,
				"y": -2.1240137756,
				"z": -6.082207647,
				"element": "H" 
			},
			{
				"x": 1.8712053733,
				"y": -0.4188484671,
				"z": -5.8798292772,
				"element": "H" 
			},
			{
				"x": 2.6455385322,
				"y": 1.8711882625,
				"z": -5.3649453865,
				"element": "H" 
			},
			{
				"x": 2.370584765,
				"y": 2.7962044165,
				"z": -3.0700563766,
				"element": "H" 
			},
			{
				"x": 1.3119753069,
				"y": 1.4072929507,
				"z": -1.2943982567,
				"element": "H" 
			},
			{
				"x": 0.1073672847,
				"y": -2.0342486949,
				"z": -1.9450474602,
				"element": "H" 
			},
			{
				"x": -0.0845163404,
				"y": 1.7800825362,
				"z": 4.7738221038,
				"element": "H" 
			},
			{
				"x": -1.0615077648,
				"y": 1.0368372916,
				"z": 6.9241381986,
				"element": "H" 
			},
			{
				"x": -2.1480520818,
				"y": -1.1689175212,
				"z": 7.1463901389,
				"element": "H" 
			},
			{
				"x": -2.2924015845,
				"y": -2.7241428009,
				"z": 5.1938520624,
				"element": "H" 
			},
			{
				"x": 0.7286062666,
				"y": 1.8485345359,
				"z": 2.6729528413,
				"element": "H" 
			},
			{
				"x": 1.4319368579,
				"y": 0.8128580958,
				"z": 1.4125848205,
				"element": "H" 
			},
			{
				"x": -0.1081396596,
				"y": 1.6398584878,
				"z": 1.1173285524,
				"element": "H" 
			}
		],
		 "valence_orbital": [ 
			{
				"type": "occ",
				"energy": -0.27171,
				"method": "rhf"
			},
			{
				"type": "occ",
				"energy": -0.24989,
				"method": "rhf"
			},
			{
				"type": "occ",
				"energy": -0.23334,
				"method": "rhf"
			},
			{
				"type": "occ",
				"energy": -0.22277,
				"method": "rhf"
			},
			{
				"type": "occ",
				"energy": -0.19772,
				"method": "rhf"
			},
			{
				"type": "unocc",
				"energy": -0.07366,
				"method": "rhf"
			},
			{
				"type": "unocc",
				"energy": -0.00522,
				"method": "rhf"
			},
			{
				"type": "unocc",
				"energy": -0.00081,
				"method": "rhf"
			},
			{
				"type": "unocc",
				"energy": 0.00866,
				"method": "rhf"
			},
			{
				"type": "unocc",
				"energy": 0.02383,
				"method": "rhf"
			}
		],
		"cosmo_sigma_profile": { 
			"-0.025": 0.0,
			"-0.024": 0.0,
			"-0.023": 0.0,
			"-0.022": 0.0,
			"-0.021": 0.0,
			"-0.02": 0.0,
			"-0.019": 0.0,
			"-0.018": 0.0,
			"-0.017": 0.0,
			"-0.016": 0.0,
			"-0.015": 0.0,
			"-0.014": 0.0,
			"-0.013": 0.0,
			"-0.012": 0.0,
			"-0.011": 0.0,
			"-0.01": 0.0,
			"-0.009": 0.235530035921,
			"-0.008": 2.95389586415,
			"-0.007": 6.65806952216,
			"-0.006": 20.5744470315,
			"-0.005": 32.0466906049,
			"-0.004": 36.5359435103,
			"-0.003": 35.680327653,
			"-0.002": 24.0616300382,
			"-0.001": 22.8953382125,
			"0.0": 20.9227850738,
			"0.001": 23.3456512582,
			"0.002": 21.1330053369,
			"0.003": 20.6254443463,
			"0.004": 21.342731687,
			"0.005": 21.6067196817,
			"0.006": 12.7774226257,
			"0.007": 5.39768358604,
			"0.008": 4.65241642567,
			"0.009": 4.30907327776,
			"0.01": 3.76221688354,
			"0.011": 3.91243769212,
			"0.012": 2.89274766083,
			"0.013": 1.08215528395,
			"0.014": 0.847214200178,
			"0.015": 1.07294759218,
			"0.016": 0.247236322363,
			"0.017": 0.0,
			"0.018": 0.0,
			"0.019": 0.0,
			"0.02": 0.0,
			"0.021": 0.0,
			"0.022": 0.0,
			"0.023": 0.0,
			"0.024": 0.0,
			"0.025": 0.0
		}
	}
}
