{
	 "smiles": "NC1=C(C=C(Br)C=C1F)C(O)=O", 
	 "Tm": 488.15, 
	 "num_atms": 17, 
	 "gaussian": { 
		 "optdone": 1, 
		 "sigma_profile": "yes", 
		 "theory": "DFT", 
		 "functional": "B3LYP", 
		 "basiset": "6-31G**", 
		 "properties": { 
			 "R2extent": 4091.9247, 
			 "electric_dipole_moment_norm": 1.84705354552, 
			 "electric_quadrupole_moment_norm": 12.5611705275, 
			 "total_energy": -3146.21079624, 
			 "HOMO_LUMO_gap": 0.15881, 
			 "cosmo_polarized_energy": -12.6, 
			 "cosmo_cavitation_energy": 24.26, 
			 "cosmo_dispersion_energy": -18.69, 
			 "cosmo_repulsion_energy": 1.46, 
			 "cosmo_total_nonelectrostatic_energy": 7.04, 
			 "SMD_solvation_energy": 4.39 
		},
		"coords": [
			{
				"x": 1.3846224678,
				"y": 1.3562491578,
				"z": -0.2037412459,
				"element": "N" 
			},
			{
				"x": 0.5559523992,
				"y": 0.2800789008,
				"z": -0.2328621673,
				"element": "C" 
			},
			{
				"x": 0.7192425539,
				"y": -0.8319475072,
				"z": -1.1042277395,
				"element": "C" 
			},
			{
				"x": -0.1966508446,
				"y": -1.9035079553,
				"z": -1.049173483,
				"element": "C" 
			},
			{
				"x": -1.2772996451,
				"y": -1.8779009006,
				"z": -0.1866997634,
				"element": "C" 
			},
			{
				"x": -2.4940991262,
				"y": -3.3458950985,
				"z": -0.124856465,
				"element": "Br" 
			},
			{
				"x": -1.4796327199,
				"y": -0.7790534032,
				"z": 0.6604142026,
				"element": "C" 
			},
			{
				"x": -0.5737108815,
				"y": 0.2544454492,
				"z": 0.6175030558,
				"element": "C" 
			},
			{
				"x": -0.7338553965,
				"y": 1.3210336234,
				"z": 1.4373707482,
				"element": "F" 
			},
			{
				"x": 1.8795991347,
				"y": -0.8530285265,
				"z": -2.0323959863,
				"element": "C" 
			},
			{
				"x": 1.8481450976,
				"y": -1.7389632072,
				"z": -3.0583367666,
				"element": "O" 
			},
			{
				"x": 2.8491708572,
				"y": -0.1230122555,
				"z": -1.9231581866,
				"element": "O" 
			},
			{
				"x": 2.2781285148,
				"y": 1.2590930293,
				"z": -0.6688199072,
				"element": "H" 
			},
			{
				"x": 1.2601945218,
				"y": 2.0277621107,
				"z": 0.5357157338,
				"element": "H" 
			},
			{
				"x": -0.0410937642,
				"y": -2.7895303931,
				"z": -1.6554097305,
				"element": "H" 
			},
			{
				"x": -2.3161453119,
				"y": -0.7321069303,
				"z": 1.3469411579,
				"element": "H" 
			},
			{
				"x": 0.9640321429,
				"y": -2.1184160937,
				"z": -3.152963457,
				"element": "H" 
			}
		],
		 "valence_orbital": [ 
			{
				"type": "occ",
				"energy": -0.3,
				"method": "rhf"
			},
			{
				"type": "occ",
				"energy": -0.29743,
				"method": "rhf"
			},
			{
				"type": "occ",
				"energy": -0.28741,
				"method": "rhf"
			},
			{
				"type": "occ",
				"energy": -0.27701,
				"method": "rhf"
			},
			{
				"type": "occ",
				"energy": -0.21974,
				"method": "rhf"
			},
			{
				"type": "unocc",
				"energy": -0.06093,
				"method": "rhf"
			},
			{
				"type": "unocc",
				"energy": -0.01534,
				"method": "rhf"
			},
			{
				"type": "unocc",
				"energy": -0.00749,
				"method": "rhf"
			},
			{
				"type": "unocc",
				"energy": 0.03873,
				"method": "rhf"
			},
			{
				"type": "unocc",
				"energy": 0.06123,
				"method": "rhf"
			}
		],
		"cosmo_sigma_profile": { 
			"-0.025": 0.0,
			"-0.024": 0.0,
			"-0.023": 0.0,
			"-0.022": 0.0,
			"-0.021": 0.0,
			"-0.02": 0.0469257213931,
			"-0.019": 0.703758810293,
			"-0.018": 1.1079450719,
			"-0.017": 0.529662443145,
			"-0.016": 1.19867926031,
			"-0.015": 0.434325925907,
			"-0.014": 1.74844466956,
			"-0.013": 1.87923251493,
			"-0.012": 1.76461856165,
			"-0.011": 2.15794391124,
			"-0.01": 2.57843139681,
			"-0.009": 4.18972470777,
			"-0.008": 4.28387519511,
			"-0.007": 4.44288667138,
			"-0.006": 4.49417063457,
			"-0.005": 6.08771244007,
			"-0.004": 6.88087328253,
			"-0.003": 8.16975386802,
			"-0.002": 9.80965171135,
			"-0.001": 12.594303192,
			"0.0": 20.56196374,
			"0.001": 21.0606538636,
			"0.002": 18.3638841414,
			"0.003": 15.1284852014,
			"0.004": 18.0610317721,
			"0.005": 5.94879226902,
			"0.006": 2.41873338307,
			"0.007": 3.95432689812,
			"0.008": 2.94610592592,
			"0.009": 3.55929083353,
			"0.01": 4.4441844267,
			"0.011": 3.30142537224,
			"0.012": 2.46704069256,
			"0.013": 1.08612413971,
			"0.014": 0.0101998646209,
			"0.015": 0.0,
			"0.016": 0.0,
			"0.017": 0.0,
			"0.018": 0.0,
			"0.019": 0.0,
			"0.02": 0.0,
			"0.021": 0.0,
			"0.022": 0.0,
			"0.023": 0.0,
			"0.024": 0.0,
			"0.025": 0.0
		}
	}
}
