{
	 "smiles": "O=C1C=C(NCNC2=NC=CC=C2)C(=O)C2=CC=CC=C12", 
	 "Tm": 408.15, 
	 "num_atms": 34, 
	 "gaussian": { 
		 "optdone": 1, 
		 "sigma_profile": "yes", 
		 "theory": "DFT", 
		 "functional": "B3LYP", 
		 "basiset": "6-31G**", 
		 "properties": { 
			 "R2extent": 9087.7277, 
			 "electric_dipole_moment_norm": 2.48680265803, 
			 "electric_quadrupole_moment_norm": 25.7408215621, 
			 "total_energy": -932.242457025, 
			 "HOMO_LUMO_gap": 0.10686, 
			 "cosmo_polarized_energy": -17.77, 
			 "cosmo_cavitation_energy": 39.1, 
			 "cosmo_dispersion_energy": -28.38, 
			 "cosmo_repulsion_energy": 2.12, 
			 "cosmo_total_nonelectrostatic_energy": 12.84, 
			 "SMD_solvation_energy": 4.3 
		},
		"coords": [
			{
				"x": 2.2105803365,
				"y": -2.8834528947,
				"z": -1.2032198381,
				"element": "O" 
			},
			{
				"x": 1.0232937121,
				"y": -2.5591456171,
				"z": -1.1784982701,
				"element": "C" 
			},
			{
				"x": 0.5280660338,
				"y": -1.5265429217,
				"z": -0.2785436478,
				"element": "C" 
			},
			{
				"x": -0.7903467725,
				"y": -1.1733264388,
				"z": -0.2275476049,
				"element": "C" 
			},
			{
				"x": -1.3581195506,
				"y": -0.2633452482,
				"z": 0.6074165744,
				"element": "N" 
			},
			{
				"x": -0.6424591385,
				"y": 0.5360943108,
				"z": 1.563508044,
				"element": "C" 
			},
			{
				"x": -0.0402140201,
				"y": 1.7043352071,
				"z": 0.9360222148,
				"element": "N" 
			},
			{
				"x": 0.7363191287,
				"y": 2.609178612,
				"z": 1.6366263341,
				"element": "C" 
			},
			{
				"x": 1.5064838405,
				"y": 3.4046363974,
				"z": 0.8722391028,
				"element": "N" 
			},
			{
				"x": 2.2498342009,
				"y": 4.330598198,
				"z": 1.4829635639,
				"element": "C" 
			},
			{
				"x": 2.2841099279,
				"y": 4.5219499256,
				"z": 2.8639368503,
				"element": "C" 
			},
			{
				"x": 1.4903310655,
				"y": 3.6836894148,
				"z": 3.6492230811,
				"element": "C" 
			},
			{
				"x": 0.704392892,
				"y": 2.7101894302,
				"z": 3.0433719841,
				"element": "C" 
			},
			{
				"x": -1.7999510071,
				"y": -1.809722377,
				"z": -1.1532493665,
				"element": "C" 
			},
			{
				"x": -2.9681580535,
				"y": -1.4345479456,
				"z": -1.1078980791,
				"element": "O" 
			},
			{
				"x": -1.3235771118,
				"y": -2.8587875273,
				"z": -2.0784152991,
				"element": "C" 
			},
			{
				"x": -2.2322568438,
				"y": -3.4845936029,
				"z": -2.9410802119,
				"element": "C" 
			},
			{
				"x": -1.7885227651,
				"y": -4.4752695707,
				"z": -3.8139439799,
				"element": "C" 
			},
			{
				"x": -0.4380810721,
				"y": -4.8414906696,
				"z": -3.8280454459,
				"element": "C" 
			},
			{
				"x": 0.470338371,
				"y": -4.2188347969,
				"z": -2.9712403947,
				"element": "C" 
			},
			{
				"x": 0.0350008046,
				"y": -3.2259791707,
				"z": -2.0927087074,
				"element": "C" 
			},
			{
				"x": 1.274868206,
				"y": -1.0581725625,
				"z": 0.3538252703,
				"element": "H" 
			},
			{
				"x": -2.3354299108,
				"y": -0.0761446816,
				"z": 0.416220149,
				"element": "H" 
			},
			{
				"x": 0.1060221333,
				"y": -0.097593411,
				"z": 2.065991311,
				"element": "H" 
			},
			{
				"x": -1.3545956789,
				"y": 0.8638492856,
				"z": 2.3284111475,
				"element": "H" 
			},
			{
				"x": 0.2588450123,
				"y": 1.5898044244,
				"z": -0.0241883284,
				"element": "H" 
			},
			{
				"x": 2.8570920489,
				"y": 4.9527152726,
				"z": 0.8268599227,
				"element": "H" 
			},
			{
				"x": 2.9114250161,
				"y": 5.2896762941,
				"z": 3.3032175668,
				"element": "H" 
			},
			{
				"x": 1.483967813,
				"y": 3.7834297298,
				"z": 4.731198365,
				"element": "H" 
			},
			{
				"x": 0.0855631613,
				"y": 2.0515510198,
				"z": 3.6424498034,
				"element": "H" 
			},
			{
				"x": -3.2734253192,
				"y": -3.1812284494,
				"z": -2.9099423468,
				"element": "H" 
			},
			{
				"x": -2.491339136,
				"y": -4.9625695583,
				"z": -4.4830381334,
				"element": "H" 
			},
			{
				"x": -0.0944806722,
				"y": -5.6139190613,
				"z": -4.5100545171,
				"element": "H" 
			},
			{
				"x": 1.5225233478,
				"y": -4.4828310168,
				"z": -2.964167114,
				"element": "H" 
			}
		],
		 "valence_orbital": [ 
			{
				"type": "occ",
				"energy": -0.26767,
				"method": "rhf"
			},
			{
				"type": "occ",
				"energy": -0.25779,
				"method": "rhf"
			},
			{
				"type": "occ",
				"energy": -0.25022,
				"method": "rhf"
			},
			{
				"type": "occ",
				"energy": -0.23436,
				"method": "rhf"
			},
			{
				"type": "occ",
				"energy": -0.21347,
				"method": "rhf"
			},
			{
				"type": "unocc",
				"energy": -0.10661,
				"method": "rhf"
			},
			{
				"type": "unocc",
				"energy": -0.03832,
				"method": "rhf"
			},
			{
				"type": "unocc",
				"energy": -0.01813,
				"method": "rhf"
			},
			{
				"type": "unocc",
				"energy": -0.01104,
				"method": "rhf"
			},
			{
				"type": "unocc",
				"energy": 0.00725,
				"method": "rhf"
			}
		],
		"cosmo_sigma_profile": { 
			"-0.025": 0.0,
			"-0.024": 0.0,
			"-0.023": 0.0,
			"-0.022": 0.0,
			"-0.021": 0.0,
			"-0.02": 0.0,
			"-0.019": 0.0,
			"-0.018": 0.0,
			"-0.017": 0.0,
			"-0.016": 0.0,
			"-0.015": 0.0,
			"-0.014": 0.127539445977,
			"-0.013": 0.687583676472,
			"-0.012": 0.980106285604,
			"-0.011": 1.41911425711,
			"-0.01": 1.37356419391,
			"-0.009": 2.00987196038,
			"-0.008": 4.27648715045,
			"-0.007": 13.276384911,
			"-0.006": 22.0825154654,
			"-0.005": 27.1245719062,
			"-0.004": 24.5592276482,
			"-0.003": 19.1380493843,
			"-0.002": 18.1187032903,
			"-0.001": 16.7597407215,
			"0.0": 21.2018866617,
			"0.001": 25.1977084232,
			"0.002": 25.6102847067,
			"0.003": 21.1580652833,
			"0.004": 15.6660928781,
			"0.005": 8.92602332012,
			"0.006": 6.19884691548,
			"0.007": 5.66669725253,
			"0.008": 4.86473603629,
			"0.009": 5.54684063052,
			"0.01": 6.20531155117,
			"0.011": 3.60962013186,
			"0.012": 4.28915102115,
			"0.013": 4.8202376157,
			"0.014": 1.88730406711,
			"0.015": 0.816700692296,
			"0.016": 0.266755024905,
			"0.017": 0.0,
			"0.018": 0.0,
			"0.019": 0.0,
			"0.02": 0.0,
			"0.021": 0.0,
			"0.022": 0.0,
			"0.023": 0.0,
			"0.024": 0.0,
			"0.025": 0.0
		}
	}
}
