{
	 "smiles": "CC1=CC(C=O)=C(O)C(C=O)=C1", 
	 "Tm": 402.15, 
	 "num_atms": 20, 
	 "gaussian": { 
		 "optdone": 1, 
		 "sigma_profile": "yes", 
		 "theory": "DFT", 
		 "functional": "B3LYP", 
		 "basiset": "6-31G**", 
		 "properties": { 
			 "R2extent": 2454.6691, 
			 "electric_dipole_moment_norm": 4.17139775735, 
			 "electric_quadrupole_moment_norm": 6.25018080298, 
			 "total_energy": -573.449767901, 
			 "HOMO_LUMO_gap": 0.15518, 
			 "cosmo_polarized_energy": -10.38, 
			 "cosmo_cavitation_energy": 24.65, 
			 "cosmo_dispersion_energy": -18.08, 
			 "cosmo_repulsion_energy": 1.42, 
			 "cosmo_total_nonelectrostatic_energy": 7.99, 
			 "SMD_solvation_energy": 6.61 
		},
		"coords": [
			{
				"x": -0.1711906456,
				"y": 2.6424982608,
				"z": -0.0585840091,
				"element": "C" 
			},
			{
				"x": -0.2359112125,
				"y": 1.1654189277,
				"z": 0.2510537393,
				"element": "C" 
			},
			{
				"x": -0.8315381825,
				"y": 0.6817790449,
				"z": 1.4135578608,
				"element": "C" 
			},
			{
				"x": -0.893580089,
				"y": -0.6927529437,
				"z": 1.705270128,
				"element": "C" 
			},
			{
				"x": -1.5231158932,
				"y": -1.1614979534,
				"z": 2.9283681435,
				"element": "C" 
			},
			{
				"x": -1.6129462764,
				"y": -2.3513566676,
				"z": 3.2474548025,
				"element": "O" 
			},
			{
				"x": -0.3363590157,
				"y": -1.6333813671,
				"z": 0.7972810874,
				"element": "C" 
			},
			{
				"x": -0.3776336819,
				"y": -2.9463622095,
				"z": 1.0426250971,
				"element": "O" 
			},
			{
				"x": 0.2710866577,
				"y": -1.1576253552,
				"z": -0.3860673968,
				"element": "C" 
			},
			{
				"x": 0.8695366816,
				"y": -2.0892747726,
				"z": -1.3714490618,
				"element": "C" 
			},
			{
				"x": 1.4023119599,
				"y": -1.7188064925,
				"z": -2.4035285524,
				"element": "O" 
			},
			{
				"x": 0.3071550523,
				"y": 0.218217117,
				"z": -0.6300436682,
				"element": "C" 
			},
			{
				"x": -0.6410249917,
				"y": 3.2356158124,
				"z": 0.7306871681,
				"element": "H" 
			},
			{
				"x": 0.8650204559,
				"y": 2.983537158,
				"z": -0.16052794,
				"element": "H" 
			},
			{
				"x": -0.6813634227,
				"y": 2.8753732135,
				"z": -0.9998121996,
				"element": "H" 
			},
			{
				"x": -1.2668148861,
				"y": 1.3785438396,
				"z": 2.1278451824,
				"element": "H" 
			},
			{
				"x": -1.9391431628,
				"y": -0.383207113,
				"z": 3.5965250199,
				"element": "H" 
			},
			{
				"x": -0.8408815823,
				"y": -3.0637211484,
				"z": 1.91320002,
				"element": "H" 
			},
			{
				"x": 0.8044682622,
				"y": -3.1620043066,
				"z": -1.1129120606,
				"element": "H" 
			},
			{
				"x": 0.7853239729,
				"y": 0.5343069557,
				"z": -1.5540433603,
				"element": "H" 
			}
		],
		 "valence_orbital": [ 
			{
				"type": "occ",
				"energy": -0.34513,
				"method": "rhf"
			},
			{
				"type": "occ",
				"energy": -0.28536,
				"method": "rhf"
			},
			{
				"type": "occ",
				"energy": -0.2796,
				"method": "rhf"
			},
			{
				"type": "occ",
				"energy": -0.25318,
				"method": "rhf"
			},
			{
				"type": "occ",
				"energy": -0.24253,
				"method": "rhf"
			},
			{
				"type": "unocc",
				"energy": -0.08735,
				"method": "rhf"
			},
			{
				"type": "unocc",
				"energy": -0.05539,
				"method": "rhf"
			},
			{
				"type": "unocc",
				"energy": 0.00783,
				"method": "rhf"
			},
			{
				"type": "unocc",
				"energy": 0.04947,
				"method": "rhf"
			},
			{
				"type": "unocc",
				"energy": 0.0839,
				"method": "rhf"
			}
		],
		"cosmo_sigma_profile": { 
			"-0.025": 0.0,
			"-0.024": 0.0,
			"-0.023": 0.0,
			"-0.022": 0.0,
			"-0.021": 0.0,
			"-0.02": 0.0,
			"-0.019": 0.0,
			"-0.018": 0.0,
			"-0.017": 0.0,
			"-0.016": 0.0,
			"-0.015": 0.0,
			"-0.014": 0.0,
			"-0.013": 0.0,
			"-0.012": 0.0,
			"-0.011": 0.0,
			"-0.01": 0.105552216905,
			"-0.009": 1.91332250318,
			"-0.008": 5.21172481197,
			"-0.007": 5.5592248631,
			"-0.006": 7.11593549914,
			"-0.005": 11.8243305256,
			"-0.004": 18.8406904742,
			"-0.003": 18.7154476522,
			"-0.002": 16.0232867395,
			"-0.001": 20.6185802634,
			"0.0": 20.8567143955,
			"0.001": 14.7448554617,
			"0.002": 10.3087925659,
			"0.003": 4.87754078473,
			"0.004": 4.44355764889,
			"0.005": 3.39337835525,
			"0.006": 4.57245980792,
			"0.007": 4.46118420168,
			"0.008": 5.03790570411,
			"0.009": 3.9241297723,
			"0.01": 4.2588687933,
			"0.011": 5.913697536,
			"0.012": 3.68110279875,
			"0.013": 0.95916129901,
			"0.014": 0.0,
			"0.015": 0.0,
			"0.016": 0.0,
			"0.017": 0.0,
			"0.018": 0.0,
			"0.019": 0.0,
			"0.02": 0.0,
			"0.021": 0.0,
			"0.022": 0.0,
			"0.023": 0.0,
			"0.024": 0.0,
			"0.025": 0.0
		}
	}
}
