{
	 "smiles": "CC1=NC(Cl)=CC(=C1)C(O)=O", 
	 "Tm": 466.15, 
	 "num_atms": 17, 
	 "gaussian": { 
		 "optdone": 1, 
		 "sigma_profile": "yes", 
		 "theory": "DFT", 
		 "functional": "B3LYP", 
		 "basiset": "6-31G**", 
		 "properties": { 
			 "R2extent": 2958.9153, 
			 "electric_dipole_moment_norm": 1.95548546658, 
			 "electric_quadrupole_moment_norm": 12.4523259241, 
			 "total_energy": -935.773827968, 
			 "HOMO_LUMO_gap": 0.18606, 
			 "cosmo_polarized_energy": -10.32, 
			 "cosmo_cavitation_energy": 23.98, 
			 "cosmo_dispersion_energy": -17.82, 
			 "cosmo_repulsion_energy": 1.45, 
			 "cosmo_total_nonelectrostatic_energy": 7.61, 
			 "SMD_solvation_energy": 3.97 
		},
		"coords": [
			{
				"x": -0.0085650506,
				"y": 3.7224814734,
				"z": 1.7278545409,
				"element": "C" 
			},
			{
				"x": -0.5093538413,
				"y": 2.5069747663,
				"z": 0.9905239838,
				"element": "C" 
			},
			{
				"x": -0.8111003729,
				"y": 2.6645009934,
				"z": -0.3116420194,
				"element": "N" 
			},
			{
				"x": -1.2525604704,
				"y": 1.6169783436,
				"z": -0.9850025503,
				"element": "C" 
			},
			{
				"x": -1.6325896715,
				"y": 1.8788472559,
				"z": -2.6861528416,
				"element": "Cl" 
			},
			{
				"x": -1.4358934515,
				"y": 0.3410264866,
				"z": -0.4540485076,
				"element": "C" 
			},
			{
				"x": -1.122339771,
				"y": 0.1786813543,
				"z": 0.8978610649,
				"element": "C" 
			},
			{
				"x": -0.654099203,
				"y": 1.2710013815,
				"z": 1.6300600565,
				"element": "C" 
			},
			{
				"x": -1.2708032511,
				"y": -1.1338902016,
				"z": 1.5971564234,
				"element": "C" 
			},
			{
				"x": -1.7313167219,
				"y": -2.1107635293,
				"z": 0.7840077228,
				"element": "O" 
			},
			{
				"x": -1.0105480915,
				"y": -1.3193208626,
				"z": 2.7672661827,
				"element": "O" 
			},
			{
				"x": -0.6640309779,
				"y": 3.9685204071,
				"z": 2.5705195009,
				"element": "H" 
			},
			{
				"x": 0.9934046969,
				"y": 3.5493907107,
				"z": 2.1357226083,
				"element": "H" 
			},
			{
				"x": 0.0293702165,
				"y": 4.5758570648,
				"z": 1.0497935937,
				"element": "H" 
			},
			{
				"x": -1.8014346338,
				"y": -0.4785054666,
				"z": -1.0577466944,
				"element": "H" 
			},
			{
				"x": -0.4108754313,
				"y": 1.1444867278,
				"z": 2.6791474039,
				"element": "H" 
			},
			{
				"x": -1.7911639736,
				"y": -2.9129669054,
				"z": 1.3289795312,
				"element": "H" 
			}
		],
		 "valence_orbital": [ 
			{
				"type": "occ",
				"energy": -0.31847,
				"method": "rhf"
			},
			{
				"type": "occ",
				"energy": -0.30344,
				"method": "rhf"
			},
			{
				"type": "occ",
				"energy": -0.2964,
				"method": "rhf"
			},
			{
				"type": "occ",
				"energy": -0.2813,
				"method": "rhf"
			},
			{
				"type": "occ",
				"energy": -0.26149,
				"method": "rhf"
			},
			{
				"type": "unocc",
				"energy": -0.07543,
				"method": "rhf"
			},
			{
				"type": "unocc",
				"energy": -0.03175,
				"method": "rhf"
			},
			{
				"type": "unocc",
				"energy": 0.03075,
				"method": "rhf"
			},
			{
				"type": "unocc",
				"energy": 0.03498,
				"method": "rhf"
			},
			{
				"type": "unocc",
				"energy": 0.06448,
				"method": "rhf"
			}
		],
		"cosmo_sigma_profile": { 
			"-0.025": 0.0,
			"-0.024": 0.0,
			"-0.023": 0.0,
			"-0.022": 0.0,
			"-0.021": 0.0,
			"-0.02": 0.032642092716,
			"-0.019": 0.566325946664,
			"-0.018": 1.16542458526,
			"-0.017": 0.786082686079,
			"-0.016": 0.540445096033,
			"-0.015": 0.869936090548,
			"-0.014": 0.320459636674,
			"-0.013": 0.682422775797,
			"-0.012": 1.29176029026,
			"-0.011": 0.634865333478,
			"-0.01": 0.288496156804,
			"-0.009": 0.747018902997,
			"-0.008": 1.67717274008,
			"-0.007": 3.44303678642,
			"-0.006": 5.06307702829,
			"-0.005": 10.4216357998,
			"-0.004": 12.4323920209,
			"-0.003": 12.3072559512,
			"-0.002": 17.260923074,
			"-0.001": 28.7901937784,
			"0.0": 19.2870964007,
			"0.001": 9.61238116887,
			"0.002": 9.04945332593,
			"0.003": 9.88821033825,
			"0.004": 12.672874513,
			"0.005": 7.66400341141,
			"0.006": 5.93800352777,
			"0.007": 3.45019645881,
			"0.008": 2.95466354373,
			"0.009": 2.44959923092,
			"0.01": 4.68447014583,
			"0.011": 5.23670637329,
			"0.012": 1.23350272409,
			"0.013": 0.629982436587,
			"0.014": 0.143706706331,
			"0.015": 0.0,
			"0.016": 0.0,
			"0.017": 0.0,
			"0.018": 0.0,
			"0.019": 0.0,
			"0.02": 0.0,
			"0.021": 0.0,
			"0.022": 0.0,
			"0.023": 0.0,
			"0.024": 0.0,
			"0.025": 0.0
		}
	}
}
