{
	 "smiles": "CC(C)C1=CC=C(CCC(O)=O)C=C1", 
	 "Tm": 345.15, 
	 "num_atms": 30, 
	 "gaussian": { 
		 "optdone": 1, 
		 "sigma_profile": "yes", 
		 "theory": "DFT", 
		 "functional": "B3LYP", 
		 "basiset": "6-31G**", 
		 "properties": { 
			 "R2extent": 5524.9612, 
			 "electric_dipole_moment_norm": 4.36697654104, 
			 "electric_quadrupole_moment_norm": 28.2204813938, 
			 "total_energy": -617.397060297, 
			 "HOMO_LUMO_gap": 0.23086, 
			 "cosmo_polarized_energy": -15.17, 
			 "cosmo_cavitation_energy": 33.3, 
			 "cosmo_dispersion_energy": -23.26, 
			 "cosmo_repulsion_energy": 1.87, 
			 "cosmo_total_nonelectrostatic_energy": 11.91, 
			 "SMD_solvation_energy": 6.67 
		},
		"coords": [
			{
				"x": -0.931942579,
				"y": 3.5482007563,
				"z": -0.1304025282,
				"element": "C" 
			},
			{
				"x": 0.1395901012,
				"y": 2.7206873409,
				"z": -0.8651734385,
				"element": "C" 
			},
			{
				"x": -0.1947635751,
				"y": 2.5892004935,
				"z": -2.3631978127,
				"element": "C" 
			},
			{
				"x": 0.3553175512,
				"y": 1.3621453557,
				"z": -0.2113668469,
				"element": "C" 
			},
			{
				"x": -0.6742097575,
				"y": 0.4121255302,
				"z": -0.1351331451,
				"element": "C" 
			},
			{
				"x": -0.4652945011,
				"y": -0.8306953126,
				"z": 0.4598311685,
				"element": "C" 
			},
			{
				"x": 0.7803966572,
				"y": -1.1743760331,
				"z": 1.0032934556,
				"element": "C" 
			},
			{
				"x": 0.9941814901,
				"y": -2.5103569666,
				"z": 1.6811930132,
				"element": "C" 
			},
			{
				"x": 0.6576879784,
				"y": -2.4645924547,
				"z": 3.1802444927,
				"element": "C" 
			},
			{
				"x": 0.8669741463,
				"y": -3.8035199935,
				"z": 3.875889587,
				"element": "C" 
			},
			{
				"x": 0.583166265,
				"y": -3.8163290582,
				"z": 5.2085734707,
				"element": "O" 
			},
			{
				"x": 1.2532716367,
				"y": -4.8076961289,
				"z": 3.3331836813,
				"element": "O" 
			},
			{
				"x": 1.8094603308,
				"y": -0.2288580515,
				"z": 0.9258859036,
				"element": "C" 
			},
			{
				"x": 1.5991176555,
				"y": 1.0155022044,
				"z": 0.3298583962,
				"element": "C" 
			},
			{
				"x": -1.9132985421,
				"y": 3.0637862178,
				"z": -0.1824382152,
				"element": "H" 
			},
			{
				"x": -0.6789357534,
				"y": 3.6754512567,
				"z": 0.9268161765,
				"element": "H" 
			},
			{
				"x": -1.0290692969,
				"y": 4.5424098137,
				"z": -0.5802062102,
				"element": "H" 
			},
			{
				"x": 1.0883369038,
				"y": 3.268009675,
				"z": -0.7870027718,
				"element": "H" 
			},
			{
				"x": -1.1430656921,
				"y": 2.061510529,
				"z": -2.5137157804,
				"element": "H" 
			},
			{
				"x": -0.2874810854,
				"y": 3.5772106268,
				"z": -2.8274326297,
				"element": "H" 
			},
			{
				"x": 0.5833396287,
				"y": 2.0334754028,
				"z": -2.8955041505,
				"element": "H" 
			},
			{
				"x": -1.6522523904,
				"y": 0.6404986424,
				"z": -0.5509707627,
				"element": "H" 
			},
			{
				"x": -1.2805594428,
				"y": -1.5502893141,
				"z": 0.4958376706,
				"element": "H" 
			},
			{
				"x": 2.0326193124,
				"y": -2.8365526864,
				"z": 1.5670011458,
				"element": "H" 
			},
			{
				"x": 0.3786761237,
				"y": -3.2828550778,
				"z": 1.2096386072,
				"element": "H" 
			},
			{
				"x": -0.3854923094,
				"y": -2.1523732876,
				"z": 3.3277355564,
				"element": "H" 
			},
			{
				"x": 1.2721639113,
				"y": -1.7068555825,
				"z": 3.6859031766,
				"element": "H" 
			},
			{
				"x": 0.286711946,
				"y": -2.9406696969,
				"z": 5.4950487585,
				"element": "H" 
			},
			{
				"x": 2.7905744822,
				"y": -0.4704222652,
				"z": 1.3292068385,
				"element": "H" 
			},
			{
				"x": 2.4189788046,
				"y": 1.7284280643,
				"z": 0.2790031929,
				"element": "H" 
			}
		],
		 "valence_orbital": [ 
			{
				"type": "occ",
				"energy": -0.32164,
				"method": "rhf"
			},
			{
				"type": "occ",
				"energy": -0.3155,
				"method": "rhf"
			},
			{
				"type": "occ",
				"energy": -0.27288,
				"method": "rhf"
			},
			{
				"type": "occ",
				"energy": -0.25035,
				"method": "rhf"
			},
			{
				"type": "occ",
				"energy": -0.23561,
				"method": "rhf"
			},
			{
				"type": "unocc",
				"energy": -0.00475,
				"method": "rhf"
			},
			{
				"type": "unocc",
				"energy": -0.00124,
				"method": "rhf"
			},
			{
				"type": "unocc",
				"energy": 0.01235,
				"method": "rhf"
			},
			{
				"type": "unocc",
				"energy": 0.05536,
				"method": "rhf"
			},
			{
				"type": "unocc",
				"energy": 0.08497,
				"method": "rhf"
			}
		],
		"cosmo_sigma_profile": { 
			"-0.025": 0.0,
			"-0.024": 0.0,
			"-0.023": 0.0,
			"-0.022": 0.0,
			"-0.021": 0.0,
			"-0.02": 0.0,
			"-0.019": 0.401187634518,
			"-0.018": 1.06272428377,
			"-0.017": 1.15434034499,
			"-0.016": 1.37793254613,
			"-0.015": 1.06528915557,
			"-0.014": 0.673836601344,
			"-0.013": 0.857004004277,
			"-0.012": 1.33764265444,
			"-0.011": 1.43075340959,
			"-0.01": 1.27774189496,
			"-0.009": 1.18795498487,
			"-0.008": 1.43992833024,
			"-0.007": 3.81231073021,
			"-0.006": 4.19043334799,
			"-0.005": 10.3358701408,
			"-0.004": 23.2974400904,
			"-0.003": 25.7019576259,
			"-0.002": 25.8967954353,
			"-0.001": 23.2106654144,
			"0.0": 23.7811405968,
			"0.001": 24.624681654,
			"0.002": 15.4640423772,
			"0.003": 9.64033990103,
			"0.004": 8.55205603296,
			"0.005": 9.1327318946,
			"0.006": 10.1832275991,
			"0.007": 5.73216878077,
			"0.008": 2.18432669122,
			"0.009": 3.67036800026,
			"0.01": 4.23379057132,
			"0.011": 5.94165617592,
			"0.012": 5.28080892441,
			"0.013": 2.34934162314,
			"0.014": 0.105402639544,
			"0.015": 0.0,
			"0.016": 0.0,
			"0.017": 0.0,
			"0.018": 0.0,
			"0.019": 0.0,
			"0.02": 0.0,
			"0.021": 0.0,
			"0.022": 0.0,
			"0.023": 0.0,
			"0.024": 0.0,
			"0.025": 0.0
		}
	}
}
