{
	 "smiles": "S=C(N1CCOCC1)C1=CC=C2OCOC2=C1", 
	 "Tm": 427.15, 
	 "num_atms": 30, 
	 "gaussian": { 
		 "optdone": 1, 
		 "sigma_profile": "yes", 
		 "theory": "DFT", 
		 "functional": "B3LYP", 
		 "basiset": "6-31G**", 
		 "properties": { 
			 "R2extent": 6365.8961, 
			 "electric_dipole_moment_norm": 4.22870222172, 
			 "electric_quadrupole_moment_norm": 16.2586279556, 
			 "total_energy": -1143.67294438, 
			 "HOMO_LUMO_gap": 0.14979, 
			 "cosmo_polarized_energy": -16.7, 
			 "cosmo_cavitation_energy": 33.9, 
			 "cosmo_dispersion_energy": -25.41, 
			 "cosmo_repulsion_energy": 1.94, 
			 "cosmo_total_nonelectrostatic_energy": 10.43, 
			 "SMD_solvation_energy": 4.54 
		},
		"coords": [
			{
				"x": -1.3429640392,
				"y": -1.7804572389,
				"z": -3.2189948143,
				"element": "S" 
			},
			{
				"x": -1.1779943893,
				"y": -1.1704629797,
				"z": -1.6656424871,
				"element": "C" 
			},
			{
				"x": -1.3766189945,
				"y": 0.140058148,
				"z": -1.3687514307,
				"element": "N" 
			},
			{
				"x": -1.6006480688,
				"y": 0.6546119674,
				"z": -0.0038201903,
				"element": "C" 
			},
			{
				"x": -2.7431765191,
				"y": 1.6683578263,
				"z": -0.0187552676,
				"element": "C" 
			},
			{
				"x": -2.4734133626,
				"y": 2.7950967207,
				"z": -0.8448665401,
				"element": "O" 
			},
			{
				"x": -1.5649158566,
				"y": 2.5276886154,
				"z": -1.9100056514,
				"element": "C" 
			},
			{
				"x": -1.6646912212,
				"y": 1.1035183006,
				"z": -2.4433672961,
				"element": "C" 
			},
			{
				"x": -0.7523439757,
				"y": -2.0655072298,
				"z": -0.5478096941,
				"element": "C" 
			},
			{
				"x": -1.4116003534,
				"y": -3.2844211281,
				"z": -0.3398717657,
				"element": "C" 
			},
			{
				"x": -1.0138583589,
				"y": -4.1788541374,
				"z": 0.6661720818,
				"element": "C" 
			},
			{
				"x": 0.0796764465,
				"y": -3.8170095279,
				"z": 1.4296196005,
				"element": "C" 
			},
			{
				"x": 0.6655199122,
				"y": -4.5018954682,
				"z": 2.4632716805,
				"element": "O" 
			},
			{
				"x": 1.8455089073,
				"y": -3.7614280969,
				"z": 2.8018304891,
				"element": "C" 
			},
			{
				"x": 1.7893857272,
				"y": -2.5042440593,
				"z": 2.1175697149,
				"element": "O" 
			},
			{
				"x": 0.7527404293,
				"y": -2.614299037,
				"z": 1.2216757168,
				"element": "C" 
			},
			{
				"x": 0.3615894918,
				"y": -1.713588407,
				"z": 0.2547156942,
				"element": "C" 
			},
			{
				"x": -1.852496143,
				"y": -0.1746276417,
				"z": 0.6577952838,
				"element": "H" 
			},
			{
				"x": -0.6922388889,
				"y": 1.1293113605,
				"z": 0.3882347195,
				"element": "H" 
			},
			{
				"x": -3.6670198295,
				"y": 1.1677430025,
				"z": -0.3469162336,
				"element": "H" 
			},
			{
				"x": -2.9086457097,
				"y": 2.0429350633,
				"z": 0.9973620036,
				"element": "H" 
			},
			{
				"x": -1.803574594,
				"y": 3.2308911834,
				"z": -2.7135826503,
				"element": "H" 
			},
			{
				"x": -0.5313109181,
				"y": 2.7313699396,
				"z": -1.5887053997,
				"element": "H" 
			},
			{
				"x": -2.6611202489,
				"y": 0.9102673457,
				"z": -2.8607536746,
				"element": "H" 
			},
			{
				"x": -0.9507445857,
				"y": 0.9456218947,
				"z": -3.2566730922,
				"element": "H" 
			},
			{
				"x": -2.2420518892,
				"y": -3.5404656249,
				"z": -0.9876511526,
				"element": "H" 
			},
			{
				"x": -1.5325225513,
				"y": -5.116196914,
				"z": 0.8311970943,
				"element": "H" 
			},
			{
				"x": 2.7339229687,
				"y": -4.3197619131,
				"z": 2.4748113893,
				"element": "H" 
			},
			{
				"x": 1.8690469845,
				"y": -3.5882050204,
				"z": 3.8819910055,
				"element": "H" 
			},
			{
				"x": 0.9073596301,
				"y": -0.7907469439,
				"z": 0.0964208668,
				"element": "H" 
			}
		],
		 "valence_orbital": [ 
			{
				"type": "occ",
				"energy": -0.26292,
				"method": "rhf"
			},
			{
				"type": "occ",
				"energy": -0.25531,
				"method": "rhf"
			},
			{
				"type": "occ",
				"energy": -0.22477,
				"method": "rhf"
			},
			{
				"type": "occ",
				"energy": -0.21995,
				"method": "rhf"
			},
			{
				"type": "occ",
				"energy": -0.19469,
				"method": "rhf"
			},
			{
				"type": "unocc",
				"energy": -0.0449,
				"method": "rhf"
			},
			{
				"type": "unocc",
				"energy": -0.00771,
				"method": "rhf"
			},
			{
				"type": "unocc",
				"energy": 0.01597,
				"method": "rhf"
			},
			{
				"type": "unocc",
				"energy": 0.07071,
				"method": "rhf"
			},
			{
				"type": "unocc",
				"energy": 0.09115,
				"method": "rhf"
			}
		],
		"cosmo_sigma_profile": { 
			"-0.025": 0.0,
			"-0.024": 0.0,
			"-0.023": 0.0,
			"-0.022": 0.0,
			"-0.021": 0.0,
			"-0.02": 0.0,
			"-0.019": 0.0,
			"-0.018": 0.0,
			"-0.017": 0.0,
			"-0.016": 0.0,
			"-0.015": 0.0,
			"-0.014": 0.0,
			"-0.013": 0.0,
			"-0.012": 0.0,
			"-0.011": 0.0,
			"-0.01": 0.0,
			"-0.009": 0.234767491546,
			"-0.008": 4.77640942442,
			"-0.007": 13.3090997095,
			"-0.006": 25.1384079645,
			"-0.005": 32.707151172,
			"-0.004": 24.0642348145,
			"-0.003": 17.0538499079,
			"-0.002": 15.063630658,
			"-0.001": 13.3988235423,
			"0.0": 11.5001048182,
			"0.001": 14.0719819452,
			"0.002": 14.3015600283,
			"0.003": 12.8291726396,
			"0.004": 9.54353351512,
			"0.005": 8.68319836231,
			"0.006": 7.88999438974,
			"0.007": 8.60168251789,
			"0.008": 9.73108190895,
			"0.009": 12.033289608,
			"0.01": 6.80559018657,
			"0.011": 3.50825532588,
			"0.012": 3.63276057946,
			"0.013": 2.2450215402,
			"0.014": 0.103559151054,
			"0.015": 0.0,
			"0.016": 0.0,
			"0.017": 0.0,
			"0.018": 0.0,
			"0.019": 0.0,
			"0.02": 0.0,
			"0.021": 0.0,
			"0.022": 0.0,
			"0.023": 0.0,
			"0.024": 0.0,
			"0.025": 0.0
		}
	}
}
