{
	 "smiles": "CCCCCCCCCCCCCC(=O)CC", 
	 "Tm": 316.15, 
	 "num_atms": 49, 
	 "gaussian": { 
		 "optdone": 1, 
		 "sigma_profile": "yes", 
		 "theory": "DFT", 
		 "functional": "B3LYP", 
		 "basiset": "6-31G**", 
		 "properties": { 
			 "R2extent": 9251.0964, 
			 "electric_dipole_moment_norm": 2.82523016584, 
			 "electric_quadrupole_moment_norm": 13.8099335375, 
			 "total_energy": -704.250634394, 
			 "HOMO_LUMO_gap": 0.23258, 
			 "cosmo_polarized_energy": -6.79, 
			 "cosmo_cavitation_energy": 46.8, 
			 "cosmo_dispersion_energy": -31.47, 
			 "cosmo_repulsion_energy": 2.56, 
			 "cosmo_total_nonelectrostatic_energy": 17.89, 
			 "SMD_solvation_energy": 6.78 
		},
		"coords": [
			{
				"x": -4.1692547999,
				"y": 3.0695679226,
				"z": 1.1534446931,
				"element": "C" 
			},
			{
				"x": -4.0465675837,
				"y": 2.6010228116,
				"z": -0.3016341269,
				"element": "C" 
			},
			{
				"x": -2.6463846254,
				"y": 2.7776982169,
				"z": -0.9124775098,
				"element": "C" 
			},
			{
				"x": -1.5514422072,
				"y": 1.9092210217,
				"z": -0.2765452189,
				"element": "C" 
			},
			{
				"x": -0.1819651011,
				"y": 2.0883499132,
				"z": -0.9513985961,
				"element": "C" 
			},
			{
				"x": 0.9824584518,
				"y": 1.280159795,
				"z": -0.337041993,
				"element": "C" 
			},
			{
				"x": 1.2250796369,
				"y": -0.1266803828,
				"z": -0.9195521245,
				"element": "C" 
			},
			{
				"x": 0.1253250734,
				"y": -1.1825952401,
				"z": -0.7011245144,
				"element": "C" 
			},
			{
				"x": -0.178981996,
				"y": -1.5453346008,
				"z": 0.7635070939,
				"element": "C" 
			},
			{
				"x": 0.9446609526,
				"y": -2.256568377,
				"z": 1.5442880773,
				"element": "C" 
			},
			{
				"x": 1.3112024737,
				"y": -3.6610876635,
				"z": 1.0003479106,
				"element": "C" 
			},
			{
				"x": 2.5779308931,
				"y": -3.7675520247,
				"z": 0.1256379803,
				"element": "C" 
			},
			{
				"x": 3.9033021135,
				"y": -3.7724621759,
				"z": 0.9052173991,
				"element": "C" 
			},
			{
				"x": 4.4856436427,
				"y": -2.4107568382,
				"z": 1.272183638,
				"element": "C" 
			},
			{
				"x": 4.1854983768,
				"y": -1.389365308,
				"z": 0.6791710898,
				"element": "O" 
			},
			{
				"x": 5.5087335861,
				"y": -2.4013482711,
				"z": 2.4018114851,
				"element": "C" 
			},
			{
				"x": 6.2350163776,
				"y": -1.0684138358,
				"z": 2.5666093377,
				"element": "C" 
			},
			{
				"x": -3.5264319321,
				"y": 2.4912065387,
				"z": 1.8248689891,
				"element": "H" 
			},
			{
				"x": -3.8865912046,
				"y": 4.124344817,
				"z": 1.2525911681,
				"element": "H" 
			},
			{
				"x": -5.1976715191,
				"y": 2.9667402755,
				"z": 1.5156679732,
				"element": "H" 
			},
			{
				"x": -4.3392906515,
				"y": 1.5440962874,
				"z": -0.3705207274,
				"element": "H" 
			},
			{
				"x": -4.7694211914,
				"y": 3.15485551,
				"z": -0.9146161571,
				"element": "H" 
			},
			{
				"x": -2.3542591254,
				"y": 3.836038445,
				"z": -0.84550098,
				"element": "H" 
			},
			{
				"x": -2.6986570893,
				"y": 2.5471678774,
				"z": -1.9855311468,
				"element": "H" 
			},
			{
				"x": -1.8635946735,
				"y": 0.8580830809,
				"z": -0.3161678216,
				"element": "H" 
			},
			{
				"x": -1.4509734395,
				"y": 2.1558923898,
				"z": 0.788887439,
				"element": "H" 
			},
			{
				"x": -0.2667405294,
				"y": 1.8480059229,
				"z": -2.0212928759,
				"element": "H" 
			},
			{
				"x": 0.0706983702,
				"y": 3.1567394056,
				"z": -0.9087125393,
				"element": "H" 
			},
			{
				"x": 1.9108201032,
				"y": 1.8452646978,
				"z": -0.487225478,
				"element": "H" 
			},
			{
				"x": 0.8520889926,
				"y": 1.22405192,
				"z": 0.7523533365,
				"element": "H" 
			},
			{
				"x": 1.3823980775,
				"y": -0.0219238234,
				"z": -2.0025662718,
				"element": "H" 
			},
			{
				"x": 2.1722963694,
				"y": -0.5015048,
				"z": -0.5157043534,
				"element": "H" 
			},
			{
				"x": 0.4103916818,
				"y": -2.0934736995,
				"z": -1.2449633336,
				"element": "H" 
			},
			{
				"x": -0.805310446,
				"y": -0.8458879654,
				"z": -1.1752651252,
				"element": "H" 
			},
			{
				"x": -0.4627804018,
				"y": -0.6375330119,
				"z": 1.3107912156,
				"element": "H" 
			},
			{
				"x": -1.0680555715,
				"y": -2.1916542172,
				"z": 0.7814317969,
				"element": "H" 
			},
			{
				"x": 0.6042310277,
				"y": -2.3569661926,
				"z": 2.58259021,
				"element": "H" 
			},
			{
				"x": 1.833506912,
				"y": -1.6192001552,
				"z": 1.579275486,
				"element": "H" 
			},
			{
				"x": 1.4248088384,
				"y": -4.3602647413,
				"z": 1.8402136184,
				"element": "H" 
			},
			{
				"x": 0.4603795245,
				"y": -4.0436656212,
				"z": 0.4211918945,
				"element": "H" 
			},
			{
				"x": 2.5237862368,
				"y": -4.7065445258,
				"z": -0.4382162673,
				"element": "H" 
			},
			{
				"x": 2.6090907146,
				"y": -2.960605644,
				"z": -0.6131912936,
				"element": "H" 
			},
			{
				"x": 4.6864723359,
				"y": -4.2524180908,
				"z": 0.2975051339,
				"element": "H" 
			},
			{
				"x": 3.8275127497,
				"y": -4.3909700276,
				"z": 1.8095795094,
				"element": "H" 
			},
			{
				"x": 6.213955656,
				"y": -3.2279296587,
				"z": 2.2372152025,
				"element": "H" 
			},
			{
				"x": 4.9684311791,
				"y": -2.6706690086,
				"z": 3.3217404114,
				"element": "H" 
			},
			{
				"x": 6.9284384911,
				"y": -1.1065022841,
				"z": 3.4118130283,
				"element": "H" 
			},
			{
				"x": 6.8032046987,
				"y": -0.8179219899,
				"z": 1.6663558005,
				"element": "H" 
			},
			{
				"x": 5.5227105511,
				"y": -0.2573066741,
				"z": 2.7360575363,
				"element": "H" 
			}
		],
		 "valence_orbital": [ 
			{
				"type": "occ",
				"energy": -0.30336,
				"method": "rhf"
			},
			{
				"type": "occ",
				"energy": -0.29269,
				"method": "rhf"
			},
			{
				"type": "occ",
				"energy": -0.29031,
				"method": "rhf"
			},
			{
				"type": "occ",
				"energy": -0.2839,
				"method": "rhf"
			},
			{
				"type": "occ",
				"energy": -0.24572,
				"method": "rhf"
			},
			{
				"type": "unocc",
				"energy": -0.01314,
				"method": "rhf"
			},
			{
				"type": "unocc",
				"energy": 0.07593,
				"method": "rhf"
			},
			{
				"type": "unocc",
				"energy": 0.08784,
				"method": "rhf"
			},
			{
				"type": "unocc",
				"energy": 0.09968,
				"method": "rhf"
			},
			{
				"type": "unocc",
				"energy": 0.1084,
				"method": "rhf"
			}
		],
		"cosmo_sigma_profile": { 
			"-0.025": 0.0,
			"-0.024": 0.0,
			"-0.023": 0.0,
			"-0.022": 0.0,
			"-0.021": 0.0,
			"-0.02": 0.0,
			"-0.019": 0.0,
			"-0.018": 0.0,
			"-0.017": 0.0,
			"-0.016": 0.0,
			"-0.015": 0.0,
			"-0.014": 0.0,
			"-0.013": 0.0,
			"-0.012": 0.0,
			"-0.011": 0.0,
			"-0.01": 0.0,
			"-0.009": 0.0,
			"-0.008": 0.0,
			"-0.007": 0.0384480935712,
			"-0.006": 3.38404417233,
			"-0.005": 10.3271963066,
			"-0.004": 10.5733315671,
			"-0.003": 17.6976728214,
			"-0.002": 40.1837861115,
			"-0.001": 74.1042751989,
			"0.0": 73.6275576195,
			"0.001": 68.834384473,
			"0.002": 32.7571762322,
			"0.003": 5.65834470131,
			"0.004": 2.9966002751,
			"0.005": 3.12989869659,
			"0.006": 1.94169224608,
			"0.007": 1.9247082401,
			"0.008": 3.10333088922,
			"0.009": 1.12015326295,
			"0.01": 1.60143083619,
			"0.011": 2.07104591882,
			"0.012": 1.94833471278,
			"0.013": 0.948162524187,
			"0.014": 0.305051320471,
			"0.015": 0.221966465279,
			"0.016": 0.195667584721,
			"0.017": 0.0,
			"0.018": 0.0,
			"0.019": 0.0,
			"0.02": 0.0,
			"0.021": 0.0,
			"0.022": 0.0,
			"0.023": 0.0,
			"0.024": 0.0,
			"0.025": 0.0
		}
	}
}
