{
	 "smiles": "COC1=CC(C=C[N+]([O-])=O)=C(OC)C=C1", 
	 "Tm": 389.15, 
	 "num_atms": 26, 
	 "gaussian": { 
		 "optdone": 1, 
		 "sigma_profile": "yes", 
		 "theory": "DFT", 
		 "functional": "B3LYP", 
		 "basiset": "6-31G**", 
		 "properties": { 
			 "R2extent": 4298.8222, 
			 "electric_dipole_moment_norm": 6.33519833391, 
			 "electric_quadrupole_moment_norm": 30.9747869084, 
			 "total_energy": -743.198839895, 
			 "HOMO_LUMO_gap": 0.13102, 
			 "cosmo_polarized_energy": -13.65, 
			 "cosmo_cavitation_energy": 31.09, 
			 "cosmo_dispersion_energy": -22.41, 
			 "cosmo_repulsion_energy": 1.76, 
			 "cosmo_total_nonelectrostatic_energy": 10.43, 
			 "SMD_solvation_energy": 9.64 
		},
		"coords": [
			{
				"x": 3.5924313195,
				"y": 2.2673535181,
				"z": 0.716547387,
				"element": "C" 
			},
			{
				"x": 2.4009190734,
				"y": 2.9819542082,
				"z": 0.427255912,
				"element": "O" 
			},
			{
				"x": 1.2343380325,
				"y": 2.2785089796,
				"z": 0.3378938945,
				"element": "C" 
			},
			{
				"x": 1.1137729072,
				"y": 0.9015446274,
				"z": 0.5088915307,
				"element": "C" 
			},
			{
				"x": -0.1331971662,
				"y": 0.2473643728,
				"z": 0.3997629185,
				"element": "C" 
			},
			{
				"x": -0.136671814,
				"y": -1.193449546,
				"z": 0.5981251358,
				"element": "C" 
			},
			{
				"x": -1.1599706529,
				"y": -2.0636555025,
				"z": 0.5545770186,
				"element": "C" 
			},
			{
				"x": -0.9083349166,
				"y": -3.473882475,
				"z": 0.7896985177,
				"element": "N" 
			},
			{
				"x": -1.8987994306,
				"y": -4.2100723209,
				"z": 0.7339183659,
				"element": "O" 
			},
			{
				"x": 0.240058876,
				"y": -3.8614883798,
				"z": 1.0260634185,
				"element": "O" 
			},
			{
				"x": -1.2814627724,
				"y": 1.0249472231,
				"z": 0.1086609723,
				"element": "C" 
			},
			{
				"x": -2.4675261445,
				"y": 0.362194432,
				"z": 0.0103803254,
				"element": "O" 
			},
			{
				"x": -3.6467442777,
				"y": 1.1016011297,
				"z": -0.2804679389,
				"element": "C" 
			},
			{
				"x": -1.1538921692,
				"y": 2.409242706,
				"z": -0.0621909329,
				"element": "C" 
			},
			{
				"x": 0.0858772884,
				"y": 3.027954517,
				"z": 0.0506275309,
				"element": "C" 
			},
			{
				"x": 3.8168146301,
				"y": 1.5228879853,
				"z": -0.0584373431,
				"element": "H" 
			},
			{
				"x": 3.5373924632,
				"y": 1.7652512421,
				"z": 1.6912562206,
				"element": "H" 
			},
			{
				"x": 4.3908801476,
				"y": 3.010208151,
				"z": 0.7411785312,
				"element": "H" 
			},
			{
				"x": 1.9832229041,
				"y": 0.2944774186,
				"z": 0.7318688202,
				"element": "H" 
			},
			{
				"x": 0.8318035759,
				"y": -1.6387960829,
				"z": 0.8144563383,
				"element": "H" 
			},
			{
				"x": -2.1974544578,
				"y": -1.8550304468,
				"z": 0.3601043158,
				"element": "H" 
			},
			{
				"x": -3.5763508785,
				"y": 1.6029905614,
				"z": -1.2533381474,
				"element": "H" 
			},
			{
				"x": -4.4565599839,
				"y": 0.3717738628,
				"z": -0.3091307501,
				"element": "H" 
			},
			{
				"x": -3.8564921064,
				"y": 1.8450709396,
				"z": 0.4980392503,
				"element": "H" 
			},
			{
				"x": -2.0222486603,
				"y": 3.0166039949,
				"z": -0.2849829755,
				"element": "H" 
			},
			{
				"x": 0.183894213,
				"y": 4.1003448843,
				"z": -0.0818583165,
				"element": "H" 
			}
		],
		 "valence_orbital": [ 
			{
				"type": "occ",
				"energy": -0.2898,
				"method": "rhf"
			},
			{
				"type": "occ",
				"energy": -0.28878,
				"method": "rhf"
			},
			{
				"type": "occ",
				"energy": -0.27138,
				"method": "rhf"
			},
			{
				"type": "occ",
				"energy": -0.25542,
				"method": "rhf"
			},
			{
				"type": "occ",
				"energy": -0.21688,
				"method": "rhf"
			},
			{
				"type": "unocc",
				"energy": -0.08586,
				"method": "rhf"
			},
			{
				"type": "unocc",
				"energy": -0.01767,
				"method": "rhf"
			},
			{
				"type": "unocc",
				"energy": 0.00289,
				"method": "rhf"
			},
			{
				"type": "unocc",
				"energy": 0.05847,
				"method": "rhf"
			},
			{
				"type": "unocc",
				"energy": 0.0759,
				"method": "rhf"
			}
		],
		"cosmo_sigma_profile": { 
			"-0.025": 0.0,
			"-0.024": 0.0,
			"-0.023": 0.0,
			"-0.022": 0.0,
			"-0.021": 0.0,
			"-0.02": 0.0,
			"-0.019": 0.0,
			"-0.018": 0.0,
			"-0.017": 0.0,
			"-0.016": 0.0,
			"-0.015": 0.0,
			"-0.014": 0.0,
			"-0.013": 0.0,
			"-0.012": 0.0,
			"-0.011": 0.0,
			"-0.01": 0.067977121268,
			"-0.009": 1.36546731969,
			"-0.008": 2.50629495776,
			"-0.007": 7.6569668413,
			"-0.006": 18.0146854087,
			"-0.005": 23.4455212071,
			"-0.004": 21.8861921326,
			"-0.003": 21.8284902196,
			"-0.002": 14.2339258427,
			"-0.001": 15.4108428874,
			"0.0": 13.6983002576,
			"0.001": 16.8436592755,
			"0.002": 20.6967832212,
			"0.003": 17.5554433183,
			"0.004": 8.96944324009,
			"0.005": 4.58746096788,
			"0.006": 3.65876559488,
			"0.007": 5.80557467266,
			"0.008": 8.17122305561,
			"0.009": 11.0614462689,
			"0.01": 7.0989037629,
			"0.011": 3.09968107682,
			"0.012": 0.268976174541,
			"0.013": 0.0,
			"0.014": 0.0,
			"0.015": 0.0,
			"0.016": 0.0,
			"0.017": 0.0,
			"0.018": 0.0,
			"0.019": 0.0,
			"0.02": 0.0,
			"0.021": 0.0,
			"0.022": 0.0,
			"0.023": 0.0,
			"0.024": 0.0,
			"0.025": 0.0
		}
	}
}
