{
	 "smiles": "CN(C(=O)OC(C)(C)C)C(C)(C)C(O)=O", 
	 "Tm": 428.15, 
	 "num_atms": 34, 
	 "gaussian": { 
		 "optdone": 1, 
		 "sigma_profile": "yes", 
		 "theory": "DFT", 
		 "functional": "B3LYP", 
		 "basiset": "6-31G**", 
		 "properties": { 
			 "R2extent": 4059.0032, 
			 "electric_dipole_moment_norm": 4.04563064182, 
			 "electric_quadrupole_moment_norm": 15.3739990276, 
			 "total_energy": -748.203117168, 
			 "HOMO_LUMO_gap": 0.26095, 
			 "cosmo_polarized_energy": -13.61, 
			 "cosmo_cavitation_energy": 34.67, 
			 "cosmo_dispersion_energy": -23.07, 
			 "cosmo_repulsion_energy": 1.78, 
			 "cosmo_total_nonelectrostatic_energy": 13.39, 
			 "SMD_solvation_energy": 8.32 
		},
		"coords": [
			{
				"x": 1.04679691,
				"y": 1.9155084263,
				"z": 1.5034208095,
				"element": "C" 
			},
			{
				"x": -0.036526202,
				"y": 1.4516485614,
				"z": 0.6075745535,
				"element": "N" 
			},
			{
				"x": 0.4769734151,
				"y": 0.8729010509,
				"z": -0.5554961387,
				"element": "C" 
			},
			{
				"x": 1.647252811,
				"y": 1.0138655936,
				"z": -0.871821626,
				"element": "O" 
			},
			{
				"x": -0.4402091521,
				"y": 0.1940683447,
				"z": -1.2677226368,
				"element": "O" 
			},
			{
				"x": -0.0833188352,
				"y": -0.4203042912,
				"z": -2.5653758439,
				"element": "C" 
			},
			{
				"x": 0.9884715784,
				"y": -1.4952904126,
				"z": -2.3599798049,
				"element": "C" 
			},
			{
				"x": -1.4056534705,
				"y": -1.0528056506,
				"z": -3.0072442374,
				"element": "C" 
			},
			{
				"x": 0.355631111,
				"y": 0.6630853342,
				"z": -3.5552920864,
				"element": "C" 
			},
			{
				"x": -1.3162677723,
				"y": 1.0928075399,
				"z": 1.2964096078,
				"element": "C" 
			},
			{
				"x": -1.1296796026,
				"y": -0.0902927949,
				"z": 2.255498608,
				"element": "C" 
			},
			{
				"x": -2.5119742616,
				"y": 0.8218456646,
				"z": 0.351847197,
				"element": "C" 
			},
			{
				"x": -1.7613772037,
				"y": 2.3570620268,
				"z": 2.0819081358,
				"element": "C" 
			},
			{
				"x": -1.5701420666,
				"y": 3.5234755879,
				"z": 1.4256793809,
				"element": "O" 
			},
			{
				"x": -2.3105894176,
				"y": 2.3190073314,
				"z": 3.1549575242,
				"element": "O" 
			},
			{
				"x": 0.6168861958,
				"y": 2.4207777908,
				"z": 2.3681353581,
				"element": "H" 
			},
			{
				"x": 1.6890796033,
				"y": 2.6120560496,
				"z": 0.9657969751,
				"element": "H" 
			},
			{
				"x": 1.6690287723,
				"y": 1.084182602,
				"z": 1.8503170381,
				"element": "H" 
			},
			{
				"x": 0.6589332335,
				"y": -2.2223385698,
				"z": -1.6108610901,
				"element": "H" 
			},
			{
				"x": 1.1512983823,
				"y": -2.0304012807,
				"z": -3.3010866771,
				"element": "H" 
			},
			{
				"x": 1.9313738962,
				"y": -1.054919169,
				"z": -2.0368263677,
				"element": "H" 
			},
			{
				"x": -1.739969453,
				"y": -1.8024719612,
				"z": -2.283921416,
				"element": "H" 
			},
			{
				"x": -1.2772214547,
				"y": -1.544587707,
				"z": -3.9758602304,
				"element": "H" 
			},
			{
				"x": -2.1866486134,
				"y": -0.2935978271,
				"z": -3.1070016583,
				"element": "H" 
			},
			{
				"x": -0.4166177272,
				"y": 1.4339830557,
				"z": -3.6434404478,
				"element": "H" 
			},
			{
				"x": 1.2894522786,
				"y": 1.1287103913,
				"z": -3.2406678018,
				"element": "H" 
			},
			{
				"x": 0.4997471895,
				"y": 0.2154066707,
				"z": -4.5438357128,
				"element": "H" 
			},
			{
				"x": -0.3474618888,
				"y": 0.1046620086,
				"z": 2.9929967284,
				"element": "H" 
			},
			{
				"x": -0.8617607852,
				"y": -0.9844342577,
				"z": 1.6848785372,
				"element": "H" 
			},
			{
				"x": -2.055622229,
				"y": -0.2793074046,
				"z": 2.8014483895,
				"element": "H" 
			},
			{
				"x": -2.5914599648,
				"y": 1.5799770668,
				"z": -0.4304746594,
				"element": "H" 
			},
			{
				"x": -2.4348078219,
				"y": -0.1549204809,
				"z": -0.1198533876,
				"element": "H" 
			},
			{
				"x": -3.4236110631,
				"y": 0.8500492207,
				"z": 0.9556779827,
				"element": "H" 
			},
			{
				"x": -1.0470063919,
				"y": 3.3255914892,
				"z": 0.6279149973,
				"element": "H" 
			}
		],
		 "valence_orbital": [ 
			{
				"type": "occ",
				"energy": -0.31527,
				"method": "rhf"
			},
			{
				"type": "occ",
				"energy": -0.30096,
				"method": "rhf"
			},
			{
				"type": "occ",
				"energy": -0.28106,
				"method": "rhf"
			},
			{
				"type": "occ",
				"energy": -0.27489,
				"method": "rhf"
			},
			{
				"type": "occ",
				"energy": -0.25414,
				"method": "rhf"
			},
			{
				"type": "unocc",
				"energy": 0.00681,
				"method": "rhf"
			},
			{
				"type": "unocc",
				"energy": 0.02993,
				"method": "rhf"
			},
			{
				"type": "unocc",
				"energy": 0.06207,
				"method": "rhf"
			},
			{
				"type": "unocc",
				"energy": 0.08335,
				"method": "rhf"
			},
			{
				"type": "unocc",
				"energy": 0.087,
				"method": "rhf"
			}
		],
		"cosmo_sigma_profile": { 
			"-0.025": 0.0,
			"-0.024": 0.0,
			"-0.023": 0.0,
			"-0.022": 0.0,
			"-0.021": 0.0,
			"-0.02": 0.0,
			"-0.019": 0.0,
			"-0.018": 0.0,
			"-0.017": 0.0,
			"-0.016": 0.0364221513642,
			"-0.015": 0.486690361387,
			"-0.014": 0.746479590201,
			"-0.013": 0.421377350709,
			"-0.012": 0.830072533032,
			"-0.011": 1.21789370249,
			"-0.01": 1.17970209747,
			"-0.009": 1.09845725875,
			"-0.008": 1.26826995908,
			"-0.007": 1.49635241419,
			"-0.006": 3.84373300151,
			"-0.005": 8.91310048778,
			"-0.004": 29.1566811751,
			"-0.003": 35.3624135406,
			"-0.002": 32.8956460397,
			"-0.001": 31.8564025274,
			"0.0": 37.0330893519,
			"0.001": 20.3546338873,
			"0.002": 6.71958801573,
			"0.003": 5.48708058909,
			"0.004": 3.8657034557,
			"0.005": 4.88457653136,
			"0.006": 3.75626434794,
			"0.007": 4.25061781454,
			"0.008": 3.99557909709,
			"0.009": 5.2957599903,
			"0.01": 6.1613910898,
			"0.011": 6.93884925854,
			"0.012": 6.28559858826,
			"0.013": 3.24121571626,
			"0.014": 0.0252828915157,
			"0.015": 0.0,
			"0.016": 0.0,
			"0.017": 0.0,
			"0.018": 0.0,
			"0.019": 0.0,
			"0.02": 0.0,
			"0.021": 0.0,
			"0.022": 0.0,
			"0.023": 0.0,
			"0.024": 0.0,
			"0.025": 0.0
		}
	}
}
