{
	 "smiles": "CC1=C(C)C(C)=C(C(C)=C1C)S(Cl)(=O)=O", 
	 "Tm": 353.15, 
	 "num_atms": 30, 
	 "gaussian": { 
		 "optdone": 1, 
		 "sigma_profile": "yes", 
		 "theory": "DFT", 
		 "functional": "B3LYP", 
		 "basiset": "6-31G**", 
		 "properties": { 
			 "R2extent": 4827.1941, 
			 "electric_dipole_moment_norm": 6.30173110264, 
			 "electric_quadrupole_moment_norm": 15.4635442984, 
			 "total_energy": -1436.98351159, 
			 "HOMO_LUMO_gap": 0.163, 
			 "cosmo_polarized_energy": -8.92, 
			 "cosmo_cavitation_energy": 33.05, 
			 "cosmo_dispersion_energy": -24.74, 
			 "cosmo_repulsion_energy": 1.85, 
			 "cosmo_total_nonelectrostatic_energy": 10.16, 
			 "SMD_solvation_energy": 4.27 
		},
		"coords": [
			{
				"x": -2.7049039937,
				"y": -0.55466418,
				"z": -1.556684848,
				"element": "C" 
			},
			{
				"x": -1.6695191232,
				"y": -0.3015156551,
				"z": -0.4778827288,
				"element": "C" 
			},
			{
				"x": -1.6303603825,
				"y": -1.1276665202,
				"z": 0.6621472772,
				"element": "C" 
			},
			{
				"x": -2.7129502914,
				"y": -2.1717173161,
				"z": 0.8715926399,
				"element": "C" 
			},
			{
				"x": -0.6060938949,
				"y": -0.9812890771,
				"z": 1.6227467841,
				"element": "C" 
			},
			{
				"x": -0.512024697,
				"y": -2.0051641809,
				"z": 2.7388591675,
				"element": "C" 
			},
			{
				"x": 0.3080932931,
				"y": 0.0820158397,
				"z": 1.4378254011,
				"element": "C" 
			},
			{
				"x": 0.2856886112,
				"y": 0.9353593903,
				"z": 0.3125784095,
				"element": "C" 
			},
			{
				"x": 1.3021433672,
				"y": 2.0298989073,
				"z": 0.0499984937,
				"element": "C" 
			},
			{
				"x": -0.7364620183,
				"y": 0.7410522091,
				"z": -0.6372040354,
				"element": "C" 
			},
			{
				"x": -0.834062718,
				"y": 1.6744610592,
				"z": -1.8287473033,
				"element": "C" 
			},
			{
				"x": 1.5459620993,
				"y": 0.4088915209,
				"z": 2.7270386162,
				"element": "S" 
			},
			{
				"x": 1.0390727242,
				"y": 2.4288433037,
				"z": 3.2981740271,
				"element": "Cl" 
			},
			{
				"x": 1.2930281083,
				"y": -0.3591396369,
				"z": 3.9387367719,
				"element": "O" 
			},
			{
				"x": 2.8926587756,
				"y": 0.4588130977,
				"z": 2.1623863314,
				"element": "O" 
			},
			{
				"x": -3.6334581542,
				"y": 0.0021837816,
				"z": -1.3727420668,
				"element": "H" 
			},
			{
				"x": -2.33921185,
				"y": -0.2581697091,
				"z": -2.5406634642,
				"element": "H" 
			},
			{
				"x": -2.9682029335,
				"y": -1.6115568225,
				"z": -1.6206404585,
				"element": "H" 
			},
			{
				"x": -2.9546123124,
				"y": -2.2908547394,
				"z": 1.9291597512,
				"element": "H" 
			},
			{
				"x": -3.6382632047,
				"y": -1.8881872944,
				"z": 0.3689188147,
				"element": "H" 
			},
			{
				"x": -2.423012723,
				"y": -3.1595404488,
				"z": 0.4893732853,
				"element": "H" 
			},
			{
				"x": 0.5191126529,
				"y": -2.2562474132,
				"z": 2.9777327914,
				"element": "H" 
			},
			{
				"x": -0.9684300643,
				"y": -1.647087815,
				"z": 3.6676322255,
				"element": "H" 
			},
			{
				"x": -1.014832138,
				"y": -2.9262510202,
				"z": 2.4466256708,
				"element": "H" 
			},
			{
				"x": 0.8694714585,
				"y": 3.0203363532,
				"z": 0.2296644589,
				"element": "H" 
			},
			{
				"x": 2.1984545581,
				"y": 1.9423405127,
				"z": 0.6553223963,
				"element": "H" 
			},
			{
				"x": 1.6166093381,
				"y": 1.9942977106,
				"z": -0.996647139,
				"element": "H" 
			},
			{
				"x": -0.2371402089,
				"y": 1.3188446305,
				"z": -2.6794649972,
				"element": "H" 
			},
			{
				"x": -0.4797366505,
				"y": 2.6769069657,
				"z": -1.5854836917,
				"element": "H" 
			},
			{
				"x": -1.8637176284,
				"y": 1.7771065466,
				"z": -2.1742525808,
				"element": "H" 
			}
		],
		 "valence_orbital": [ 
			{
				"type": "occ",
				"energy": -0.31971,
				"method": "rhf"
			},
			{
				"type": "occ",
				"energy": -0.31276,
				"method": "rhf"
			},
			{
				"type": "occ",
				"energy": -0.3024,
				"method": "rhf"
			},
			{
				"type": "occ",
				"energy": -0.25877,
				"method": "rhf"
			},
			{
				"type": "occ",
				"energy": -0.24576,
				"method": "rhf"
			},
			{
				"type": "unocc",
				"energy": -0.08276,
				"method": "rhf"
			},
			{
				"type": "unocc",
				"energy": -0.03007,
				"method": "rhf"
			},
			{
				"type": "unocc",
				"energy": -0.0196,
				"method": "rhf"
			},
			{
				"type": "unocc",
				"energy": 0.04872,
				"method": "rhf"
			},
			{
				"type": "unocc",
				"energy": 0.07055,
				"method": "rhf"
			}
		],
		"cosmo_sigma_profile": { 
			"-0.025": 0.0,
			"-0.024": 0.0,
			"-0.023": 0.0,
			"-0.022": 0.0,
			"-0.021": 0.0,
			"-0.02": 0.0,
			"-0.019": 0.0,
			"-0.018": 0.0,
			"-0.017": 0.0,
			"-0.016": 0.0,
			"-0.015": 0.0,
			"-0.014": 0.0,
			"-0.013": 0.0,
			"-0.012": 0.0,
			"-0.011": 0.0,
			"-0.01": 0.0,
			"-0.009": 0.0,
			"-0.008": 0.125033059354,
			"-0.007": 0.915099441186,
			"-0.006": 0.88722843844,
			"-0.005": 9.71637341379,
			"-0.004": 32.9621773851,
			"-0.003": 32.9186385953,
			"-0.002": 27.6887610229,
			"-0.001": 30.3272489853,
			"0.0": 30.7604241005,
			"0.001": 17.648339792,
			"0.002": 17.7102975881,
			"0.003": 18.2906569174,
			"0.004": 12.1206308013,
			"0.005": 7.39463934705,
			"0.006": 4.94776733829,
			"0.007": 4.24353904922,
			"0.008": 7.86097611889,
			"0.009": 6.26363481425,
			"0.01": 0.424933410615,
			"0.011": 0.0,
			"0.012": 0.0,
			"0.013": 0.0,
			"0.014": 0.0,
			"0.015": 0.0,
			"0.016": 0.0,
			"0.017": 0.0,
			"0.018": 0.0,
			"0.019": 0.0,
			"0.02": 0.0,
			"0.021": 0.0,
			"0.022": 0.0,
			"0.023": 0.0,
			"0.024": 0.0,
			"0.025": 0.0
		}
	}
}
