{
	 "smiles": "ClC1=CC=CC=C1C1=NC2=C(N1)C=CC=C2", 
	 "Tm": 507.15, 
	 "num_atms": 25, 
	 "gaussian": { 
		 "optdone": 1, 
		 "sigma_profile": "yes", 
		 "theory": "DFT", 
		 "functional": "B3LYP", 
		 "basiset": "6-31G**", 
		 "properties": { 
			 "R2extent": 5380.5019, 
			 "electric_dipole_moment_norm": 1.8884264852, 
			 "electric_quadrupole_moment_norm": 15.1716685229, 
			 "total_energy": -1070.52376489, 
			 "HOMO_LUMO_gap": 0.16142, 
			 "cosmo_polarized_energy": -9.66, 
			 "cosmo_cavitation_energy": 30.62, 
			 "cosmo_dispersion_energy": -23.27, 
			 "cosmo_repulsion_energy": 1.77, 
			 "cosmo_total_nonelectrostatic_energy": 9.12, 
			 "SMD_solvation_energy": 2.84 
		},
		"coords": [
			{
				"x": 2.510407632,
				"y": 1.8274103366,
				"z": -3.1351116955,
				"element": "Cl" 
			},
			{
				"x": 1.4564536639,
				"y": 2.7335419518,
				"z": -2.0329121465,
				"element": "C" 
			},
			{
				"x": 1.3536687498,
				"y": 4.0999198936,
				"z": -2.2992590474,
				"element": "C" 
			},
			{
				"x": 0.5536079727,
				"y": 4.9080584878,
				"z": -1.4978213333,
				"element": "C" 
			},
			{
				"x": -0.1429798575,
				"y": 4.3405170807,
				"z": -0.4282448921,
				"element": "C" 
			},
			{
				"x": -0.0335907038,
				"y": 2.9816402501,
				"z": -0.1726549011,
				"element": "C" 
			},
			{
				"x": 0.7683647615,
				"y": 2.1293968735,
				"z": -0.9636202787,
				"element": "C" 
			},
			{
				"x": 0.7833479289,
				"y": 0.7099781738,
				"z": -0.5678149719,
				"element": "C" 
			},
			{
				"x": 0.0890956799,
				"y": 0.259864975,
				"z": 0.4636972281,
				"element": "N" 
			},
			{
				"x": 0.346959922,
				"y": -1.0926749825,
				"z": 0.5251938161,
				"element": "C" 
			},
			{
				"x": 1.2336338767,
				"y": -1.4694916316,
				"z": -0.5137993999,
				"element": "C" 
			},
			{
				"x": 1.4927129214,
				"y": -0.2971398002,
				"z": -1.1926547649,
				"element": "N" 
			},
			{
				"x": 1.668113291,
				"y": -2.7855639596,
				"z": -0.6918865609,
				"element": "C" 
			},
			{
				"x": 1.185241349,
				"y": -3.7290783124,
				"z": 0.2099907904,
				"element": "C" 
			},
			{
				"x": 0.3011920422,
				"y": -3.3725320039,
				"z": 1.2514826713,
				"element": "C" 
			},
			{
				"x": -0.1267678183,
				"y": -2.0618420833,
				"z": 1.422726164,
				"element": "C" 
			},
			{
				"x": 1.9040831504,
				"y": 4.516756514,
				"z": -3.1351929589,
				"element": "H" 
			},
			{
				"x": 0.4782201076,
				"y": 5.9699027087,
				"z": -1.7106238139,
				"element": "H" 
			},
			{
				"x": -0.7714251805,
				"y": 4.957427658,
				"z": 0.2064985251,
				"element": "H" 
			},
			{
				"x": -0.5655264384,
				"y": 2.5215063673,
				"z": 0.6519656276,
				"element": "H" 
			},
			{
				"x": 2.0873267642,
				"y": -0.1792925835,
				"z": -1.9977925944,
				"element": "H" 
			},
			{
				"x": 2.3478904554,
				"y": -3.0635808096,
				"z": -1.4916263943,
				"element": "H" 
			},
			{
				"x": 1.4958532046,
				"y": -4.7649095695,
				"z": 0.1104436572,
				"element": "H" 
			},
			{
				"x": -0.0490981359,
				"y": -4.1437413322,
				"z": 1.9311151532,
				"element": "H" 
			},
			{
				"x": -0.8060853387,
				"y": -1.7818742028,
				"z": 2.2213021206,
				"element": "H" 
			}
		],
		 "valence_orbital": [ 
			{
				"type": "occ",
				"energy": -0.2768,
				"method": "rhf"
			},
			{
				"type": "occ",
				"energy": -0.27147,
				"method": "rhf"
			},
			{
				"type": "occ",
				"energy": -0.25844,
				"method": "rhf"
			},
			{
				"type": "occ",
				"energy": -0.22622,
				"method": "rhf"
			},
			{
				"type": "occ",
				"energy": -0.21354,
				"method": "rhf"
			},
			{
				"type": "unocc",
				"energy": -0.05212,
				"method": "rhf"
			},
			{
				"type": "unocc",
				"energy": -0.01815,
				"method": "rhf"
			},
			{
				"type": "unocc",
				"energy": 0.00895,
				"method": "rhf"
			},
			{
				"type": "unocc",
				"energy": 0.01213,
				"method": "rhf"
			},
			{
				"type": "unocc",
				"energy": 0.02594,
				"method": "rhf"
			}
		],
		"cosmo_sigma_profile": { 
			"-0.025": 0.0,
			"-0.024": 0.0,
			"-0.023": 0.0,
			"-0.022": 0.0,
			"-0.021": 0.0,
			"-0.02": 0.0,
			"-0.019": 0.0,
			"-0.018": 0.0,
			"-0.017": 0.0,
			"-0.016": 0.0,
			"-0.015": 0.0,
			"-0.014": 0.588409930168,
			"-0.013": 0.553631070644,
			"-0.012": 0.828764852074,
			"-0.011": 1.11574782662,
			"-0.01": 1.00740416115,
			"-0.009": 0.838966840195,
			"-0.008": 2.1698438476,
			"-0.007": 6.70451234664,
			"-0.006": 12.5600935649,
			"-0.005": 17.0990725875,
			"-0.004": 16.0813052337,
			"-0.003": 17.8091124384,
			"-0.002": 16.073052657,
			"-0.001": 14.3186492897,
			"0.0": 17.1079436303,
			"0.001": 22.8032201699,
			"0.002": 25.4438567897,
			"0.003": 25.8664996622,
			"0.004": 20.062529273,
			"0.005": 11.5655832301,
			"0.006": 8.48121884923,
			"0.007": 2.23546685444,
			"0.008": 1.2600942737,
			"0.009": 1.67012627999,
			"0.01": 1.16950482229,
			"0.011": 1.31702837816,
			"0.012": 0.861087520964,
			"0.013": 1.25569927706,
			"0.014": 0.651823699699,
			"0.015": 0.0,
			"0.016": 0.0,
			"0.017": 0.0,
			"0.018": 0.0,
			"0.019": 0.0,
			"0.02": 0.0,
			"0.021": 0.0,
			"0.022": 0.0,
			"0.023": 0.0,
			"0.024": 0.0,
			"0.025": 0.0
		}
	}
}
