{
	 "smiles": "CCN1C=C(C=N1)C(=O)C(O)=O", 
	 "Tm": 403.15, 
	 "num_atms": 20, 
	 "gaussian": { 
		 "optdone": 1, 
		 "sigma_profile": "yes", 
		 "theory": "DFT", 
		 "functional": "B3LYP", 
		 "basiset": "6-31G**", 
		 "properties": { 
			 "R2extent": 2591.8922, 
			 "electric_dipole_moment_norm": 3.67931460057, 
			 "electric_quadrupole_moment_norm": 16.7466397226, 
			 "total_energy": -606.734502372, 
			 "HOMO_LUMO_gap": 0.17484, 
			 "cosmo_polarized_energy": -12.18, 
			 "cosmo_cavitation_energy": 25.22, 
			 "cosmo_dispersion_energy": -18.37, 
			 "cosmo_repulsion_energy": 1.47, 
			 "cosmo_total_nonelectrostatic_energy": 8.32, 
			 "SMD_solvation_energy": 5.88 
		},
		"coords": [
			{
				"x": -2.2868487598,
				"y": 3.343673078,
				"z": 1.0361707738,
				"element": "C" 
			},
			{
				"x": -0.7721160032,
				"y": 3.1717468515,
				"z": 1.1442369371,
				"element": "C" 
			},
			{
				"x": -0.3651417645,
				"y": 1.7717399614,
				"z": 1.0383428812,
				"element": "N" 
			},
			{
				"x": 0.2732008568,
				"y": 1.1669071465,
				"z": 0.0235593399,
				"element": "C" 
			},
			{
				"x": 0.4022935169,
				"y": -0.180778304,
				"z": 0.3779776888,
				"element": "C" 
			},
			{
				"x": -0.2158746467,
				"y": -0.2610803941,
				"z": 1.6594924128,
				"element": "C" 
			},
			{
				"x": -0.6779226889,
				"y": 0.9117561575,
				"z": 2.0549689652,
				"element": "N" 
			},
			{
				"x": 1.0138668814,
				"y": -1.2668721325,
				"z": -0.3471909351,
				"element": "C" 
			},
			{
				"x": 1.0760941363,
				"y": -2.4281524769,
				"z": 0.0623416497,
				"element": "O" 
			},
			{
				"x": 1.64485354,
				"y": -0.9978331055,
				"z": -1.7383786182,
				"element": "C" 
			},
			{
				"x": 2.1593334914,
				"y": -2.1143067265,
				"z": -2.2540602882,
				"element": "O" 
			},
			{
				"x": 1.670788496,
				"y": 0.0791761633,
				"z": -2.2902180432,
				"element": "O" 
			},
			{
				"x": -2.7896641112,
				"y": 2.7691791837,
				"z": 1.8175855776,
				"element": "H" 
			},
			{
				"x": -2.5498115328,
				"y": 4.3990933327,
				"z": 1.154548458,
				"element": "H" 
			},
			{
				"x": -2.652300098,
				"y": 3.0033606222,
				"z": 0.062829652,
				"element": "H" 
			},
			{
				"x": -0.251112455,
				"y": 3.715371407,
				"z": 0.3516631021,
				"element": "H" 
			},
			{
				"x": -0.4077414104,
				"y": 3.5432292978,
				"z": 2.1062070747,
				"element": "H" 
			},
			{
				"x": 0.5993112911,
				"y": 1.6848204906,
				"z": -0.8646006011,
				"element": "H" 
			},
			{
				"x": -0.3221771746,
				"y": -1.1368798377,
				"z": 2.2843996309,
				"element": "H" 
			},
			{
				"x": 1.9842684352,
				"y": -2.809650715,
				"z": -1.5811756581,
				"element": "H" 
			}
		],
		 "valence_orbital": [ 
			{
				"type": "occ",
				"energy": -0.3243,
				"method": "rhf"
			},
			{
				"type": "occ",
				"energy": -0.3086,
				"method": "rhf"
			},
			{
				"type": "occ",
				"energy": -0.28001,
				"method": "rhf"
			},
			{
				"type": "occ",
				"energy": -0.26932,
				"method": "rhf"
			},
			{
				"type": "occ",
				"energy": -0.26199,
				"method": "rhf"
			},
			{
				"type": "unocc",
				"energy": -0.08715,
				"method": "rhf"
			},
			{
				"type": "unocc",
				"energy": -0.00405,
				"method": "rhf"
			},
			{
				"type": "unocc",
				"energy": 0.0281,
				"method": "rhf"
			},
			{
				"type": "unocc",
				"energy": 0.08105,
				"method": "rhf"
			},
			{
				"type": "unocc",
				"energy": 0.10435,
				"method": "rhf"
			}
		],
		"cosmo_sigma_profile": { 
			"-0.025": 0.0,
			"-0.024": 0.0,
			"-0.023": 0.0,
			"-0.022": 0.0,
			"-0.021": 0.0,
			"-0.02": 0.0,
			"-0.019": 0.0,
			"-0.018": 0.0,
			"-0.017": 0.0,
			"-0.016": 0.0,
			"-0.015": 0.0487479149585,
			"-0.014": 0.519794068464,
			"-0.013": 0.382711133504,
			"-0.012": 0.627274369682,
			"-0.011": 1.003355032,
			"-0.01": 2.21622289886,
			"-0.009": 3.21898281413,
			"-0.008": 5.45554610499,
			"-0.007": 8.38523654714,
			"-0.006": 9.43886611548,
			"-0.005": 12.0248176936,
			"-0.004": 17.3303295191,
			"-0.003": 13.9251262099,
			"-0.002": 14.4518806191,
			"-0.001": 17.3150075904,
			"0.0": 17.8425060766,
			"0.001": 11.6966853499,
			"0.002": 6.7388506146,
			"0.003": 6.21233465665,
			"0.004": 5.99491153751,
			"0.005": 4.94888363157,
			"0.006": 6.26351813205,
			"0.007": 5.53674833894,
			"0.008": 7.53460465325,
			"0.009": 7.47078348903,
			"0.01": 6.49824110116,
			"0.011": 4.75015586113,
			"0.012": 2.12788725653,
			"0.013": 0.678782225745,
			"0.014": 0.623983870241,
			"0.015": 0.0532501016793,
			"0.016": 0.0,
			"0.017": 0.0,
			"0.018": 0.0,
			"0.019": 0.0,
			"0.02": 0.0,
			"0.021": 0.0,
			"0.022": 0.0,
			"0.023": 0.0,
			"0.024": 0.0,
			"0.025": 0.0
		}
	}
}
