{
	 "smiles": "COC1=CC=C(C=C1)C1NN2C(S1)=NN=C2C1=CC=C(C=C1)[N+]([O-])=O", 
	 "Tm": 426.15, 
	 "num_atms": 38, 
	 "gaussian": { 
		 "optdone": 1, 
		 "sigma_profile": "yes", 
		 "theory": "DFT", 
		 "functional": "B3LYP", 
		 "basiset": "6-31G**", 
		 "properties": { 
			 "R2extent": 14916.4049, 
			 "electric_dipole_moment_norm": 9.72157671882, 
			 "electric_quadrupole_moment_norm": 35.0919303995, 
			 "total_energy": -1514.97587737, 
			 "HOMO_LUMO_gap": 0.13739, 
			 "cosmo_polarized_energy": -23.91, 
			 "cosmo_cavitation_energy": 45.43, 
			 "cosmo_dispersion_energy": -33.19, 
			 "cosmo_repulsion_energy": 2.42, 
			 "cosmo_total_nonelectrostatic_energy": 14.66, 
			 "SMD_solvation_energy": 7.54 
		},
		"coords": [
			{
				"x": 1.4191067805,
				"y": 3.4388556427,
				"z": 5.4100279781,
				"element": "C" 
			},
			{
				"x": 0.5329575397,
				"y": 2.380359165,
				"z": 5.0678602839,
				"element": "O" 
			},
			{
				"x": 0.809379364,
				"y": 1.6312665384,
				"z": 3.9702063908,
				"element": "C" 
			},
			{
				"x": 1.9142060052,
				"y": 1.8222789644,
				"z": 3.1302849034,
				"element": "C" 
			},
			{
				"x": 2.0929829209,
				"y": 0.984680349,
				"z": 2.0284303858,
				"element": "C" 
			},
			{
				"x": 1.1925224906,
				"y": -0.0449030876,
				"z": 1.7425521783,
				"element": "C" 
			},
			{
				"x": 0.0927708355,
				"y": -0.2306546805,
				"z": 2.599779497,
				"element": "C" 
			},
			{
				"x": -0.1004636562,
				"y": 0.5953979414,
				"z": 3.6958898865,
				"element": "C" 
			},
			{
				"x": 1.3955339324,
				"y": -0.8913166818,
				"z": 0.5216664641,
				"element": "C" 
			},
			{
				"x": 0.3920214259,
				"y": -0.6286205005,
				"z": -0.5210438916,
				"element": "N" 
			},
			{
				"x": 0.3992050363,
				"y": -1.7728212487,
				"z": -1.3433878123,
				"element": "N" 
			},
			{
				"x": 0.8054757656,
				"y": -2.9627059727,
				"z": -0.7976413457,
				"element": "C" 
			},
			{
				"x": 1.3307672847,
				"y": -2.7811065905,
				"z": 0.8689158285,
				"element": "S" 
			},
			{
				"x": 0.7133999731,
				"y": -3.9333230641,
				"z": -1.6730818968,
				"element": "N" 
			},
			{
				"x": 0.2141234229,
				"y": -3.3626003671,
				"z": -2.8290232989,
				"element": "N" 
			},
			{
				"x": 0.0355957484,
				"y": -2.0642183065,
				"z": -2.6408173171,
				"element": "C" 
			},
			{
				"x": -0.4542855571,
				"y": -1.132484652,
				"z": -3.6552006244,
				"element": "C" 
			},
			{
				"x": -0.885035233,
				"y": -1.6596961314,
				"z": -4.888446205,
				"element": "C" 
			},
			{
				"x": -1.3525898956,
				"y": -0.8189334573,
				"z": -5.8880035034,
				"element": "C" 
			},
			{
				"x": -1.3890749631,
				"y": 0.5562573462,
				"z": -5.6504313416,
				"element": "C" 
			},
			{
				"x": -0.9657529813,
				"y": 1.1050396351,
				"z": -4.4421905136,
				"element": "C" 
			},
			{
				"x": -0.4978483485,
				"y": 0.2572712326,
				"z": -3.4436767865,
				"element": "C" 
			},
			{
				"x": -1.8868689395,
				"y": 1.4512147705,
				"z": -6.7036492067,
				"element": "N" 
			},
			{
				"x": -1.9094622837,
				"y": 2.6591342722,
				"z": -6.4641019867,
				"element": "O" 
			},
			{
				"x": -2.2517625562,
				"y": 0.9400043257,
				"z": -7.7623217154,
				"element": "O" 
			},
			{
				"x": 2.4286289633,
				"y": 3.0655072369,
				"z": 5.6216459627,
				"element": "H" 
			},
			{
				"x": 1.4706998112,
				"y": 4.1930997026,
				"z": 4.6151497095,
				"element": "H" 
			},
			{
				"x": 1.0072219952,
				"y": 3.8937085259,
				"z": 6.3114341459,
				"element": "H" 
			},
			{
				"x": 2.633247642,
				"y": 2.6092262493,
				"z": 3.3219096812,
				"element": "H" 
			},
			{
				"x": 2.9505081627,
				"y": 1.1434957194,
				"z": 1.3800263173,
				"element": "H" 
			},
			{
				"x": -0.6038706739,
				"y": -1.0446663288,
				"z": 2.4187870389,
				"element": "H" 
			},
			{
				"x": -0.9422325799,
				"y": 0.4558491425,
				"z": 4.3656392461,
				"element": "H" 
			},
			{
				"x": 2.3807411147,
				"y": -0.7220857886,
				"z": 0.0828763528,
				"element": "H" 
			},
			{
				"x": -0.5323896143,
				"y": -0.5669267399,
				"z": -0.0857371203,
				"element": "H" 
			},
			{
				"x": -0.8417376148,
				"y": -2.7320741241,
				"z": -5.0401201999,
				"element": "H" 
			},
			{
				"x": -1.6895888277,
				"y": -1.2034424856,
				"z": -6.8423692822,
				"element": "H" 
			},
			{
				"x": -1.006313381,
				"y": 2.1779340816,
				"z": -4.302678089,
				"element": "H" 
			},
			{
				"x": -0.1553191087,
				"y": 0.6726993661,
				"z": -2.5027601137,
				"element": "H" 
			}
		],
		 "valence_orbital": [ 
			{
				"type": "occ",
				"energy": -0.27905,
				"method": "rhf"
			},
			{
				"type": "occ",
				"energy": -0.27657,
				"method": "rhf"
			},
			{
				"type": "occ",
				"energy": -0.26359,
				"method": "rhf"
			},
			{
				"type": "occ",
				"energy": -0.248,
				"method": "rhf"
			},
			{
				"type": "occ",
				"energy": -0.23098,
				"method": "rhf"
			},
			{
				"type": "unocc",
				"energy": -0.09359,
				"method": "rhf"
			},
			{
				"type": "unocc",
				"energy": -0.04386,
				"method": "rhf"
			},
			{
				"type": "unocc",
				"energy": -0.0333,
				"method": "rhf"
			},
			{
				"type": "unocc",
				"energy": -0.02745,
				"method": "rhf"
			},
			{
				"type": "unocc",
				"energy": -0.0257,
				"method": "rhf"
			}
		],
		"cosmo_sigma_profile": { 
			"-0.025": 0.0,
			"-0.024": 0.0,
			"-0.023": 0.0,
			"-0.022": 0.0,
			"-0.021": 0.0,
			"-0.02": 0.0,
			"-0.019": 0.0,
			"-0.018": 0.0,
			"-0.017": 0.0,
			"-0.016": 0.0,
			"-0.015": 0.640528517591,
			"-0.014": 1.40279632458,
			"-0.013": 1.62596240638,
			"-0.012": 1.62174988424,
			"-0.011": 1.54299313372,
			"-0.01": 1.3167955713,
			"-0.009": 3.24444145167,
			"-0.008": 7.27740798158,
			"-0.007": 13.0484009603,
			"-0.006": 23.4670833533,
			"-0.005": 24.9926407504,
			"-0.004": 24.7871116296,
			"-0.003": 24.1579903806,
			"-0.002": 23.8521060189,
			"-0.001": 25.5756609254,
			"0.0": 29.1318398805,
			"0.001": 30.8496266759,
			"0.002": 21.4063101097,
			"0.003": 19.6396525294,
			"0.004": 19.4477793682,
			"0.005": 10.2805512199,
			"0.006": 8.80707450052,
			"0.007": 10.8268728983,
			"0.008": 10.9706164384,
			"0.009": 7.31248083619,
			"0.01": 6.16759385125,
			"0.011": 3.15190208005,
			"0.012": 2.94258040194,
			"0.013": 3.05166532518,
			"0.014": 2.91228216861,
			"0.015": 1.35592500611,
			"0.016": 0.658691780216,
			"0.017": 0.0,
			"0.018": 0.0,
			"0.019": 0.0,
			"0.02": 0.0,
			"0.021": 0.0,
			"0.022": 0.0,
			"0.023": 0.0,
			"0.024": 0.0,
			"0.025": 0.0
		}
	}
}
