{
	 "smiles": "OC(=O)C=CC1=CC=CC2=CC=CC=C12", 
	 "Tm": 484.15, 
	 "num_atms": 25, 
	 "gaussian": { 
		 "optdone": 1, 
		 "sigma_profile": "yes", 
		 "theory": "DFT", 
		 "functional": "B3LYP", 
		 "basiset": "6-31G**", 
		 "properties": { 
			 "R2extent": 4188.4251, 
			 "electric_dipole_moment_norm": 3.10372500232, 
			 "electric_quadrupole_moment_norm": 12.4767339556, 
			 "total_energy": -651.86963037, 
			 "HOMO_LUMO_gap": 0.14623, 
			 "cosmo_polarized_energy": -11.28, 
			 "cosmo_cavitation_energy": 29.72, 
			 "cosmo_dispersion_energy": -21.72, 
			 "cosmo_repulsion_energy": 1.67, 
			 "cosmo_total_nonelectrostatic_energy": 9.67, 
			 "SMD_solvation_energy": 6.14 
		},
		"coords": [
			{
				"x": -4.3112357396,
				"y": -0.3049745634,
				"z": -0.8073262793,
				"element": "O" 
			},
			{
				"x": -3.7414602279,
				"y": 0.6927125394,
				"z": -1.538808456,
				"element": "C" 
			},
			{
				"x": -4.4099411045,
				"y": 1.5447468247,
				"z": -2.0930919119,
				"element": "O" 
			},
			{
				"x": -2.2712822778,
				"y": 0.6357472353,
				"z": -1.5845827477,
				"element": "C" 
			},
			{
				"x": -1.5366569744,
				"y": -0.3146981731,
				"z": -0.9751734664,
				"element": "C" 
			},
			{
				"x": -0.0760391655,
				"y": -0.4368970116,
				"z": -1.0338121969,
				"element": "C" 
			},
			{
				"x": 0.6217795413,
				"y": 0.0164511546,
				"z": -2.146585451,
				"element": "C" 
			},
			{
				"x": 2.0213534548,
				"y": -0.1130200034,
				"z": -2.2480409134,
				"element": "C" 
			},
			{
				"x": 2.7350388561,
				"y": -0.7119399234,
				"z": -1.2346955032,
				"element": "C" 
			},
			{
				"x": 2.0765971177,
				"y": -1.1982558719,
				"z": -0.0748099982,
				"element": "C" 
			},
			{
				"x": 2.8063836052,
				"y": -1.8142546035,
				"z": 0.9779046813,
				"element": "C" 
			},
			{
				"x": 2.1700065407,
				"y": -2.2715743716,
				"z": 2.1083654785,
				"element": "C" 
			},
			{
				"x": 0.7693083325,
				"y": -2.1224305801,
				"z": 2.2349517629,
				"element": "C" 
			},
			{
				"x": 0.0331901946,
				"y": -1.5287245748,
				"z": 1.2327255321,
				"element": "C" 
			},
			{
				"x": 0.6528673076,
				"y": -1.0598607728,
				"z": 0.041692012,
				"element": "C" 
			},
			{
				"x": -5.2679044247,
				"y": -0.1471857554,
				"z": -0.8578838226,
				"element": "H" 
			},
			{
				"x": -1.8201971705,
				"y": 1.4447883131,
				"z": -2.1494260889,
				"element": "H" 
			},
			{
				"x": -2.0747452546,
				"y": -1.0602899679,
				"z": -0.3972025313,
				"element": "H" 
			},
			{
				"x": 0.0714617149,
				"y": 0.4503664016,
				"z": -2.9754586662,
				"element": "H" 
			},
			{
				"x": 2.5282711716,
				"y": 0.249043109,
				"z": -3.137406183,
				"element": "H" 
			},
			{
				"x": 3.8132873007,
				"y": -0.8253223354,
				"z": -1.3100571915,
				"element": "H" 
			},
			{
				"x": 3.8835711636,
				"y": -1.9140552318,
				"z": 0.8728415169,
				"element": "H" 
			},
			{
				"x": 2.738152694,
				"y": -2.7405776937,
				"z": 2.9062318752,
				"element": "H" 
			},
			{
				"x": 0.2705674279,
				"y": -2.4738484406,
				"z": 3.1335198676,
				"element": "H" 
			},
			{
				"x": -1.0357740834,
				"y": -1.4069457033,
				"z": 1.367328681,
				"element": "H" 
			}
		],
		 "valence_orbital": [ 
			{
				"type": "occ",
				"energy": -0.30819,
				"method": "rhf"
			},
			{
				"type": "occ",
				"energy": -0.26976,
				"method": "rhf"
			},
			{
				"type": "occ",
				"energy": -0.26945,
				"method": "rhf"
			},
			{
				"type": "occ",
				"energy": -0.25234,
				"method": "rhf"
			},
			{
				"type": "occ",
				"energy": -0.21829,
				"method": "rhf"
			},
			{
				"type": "unocc",
				"energy": -0.07206,
				"method": "rhf"
			},
			{
				"type": "unocc",
				"energy": -0.0275,
				"method": "rhf"
			},
			{
				"type": "unocc",
				"energy": -0.01727,
				"method": "rhf"
			},
			{
				"type": "unocc",
				"energy": 0.0345,
				"method": "rhf"
			},
			{
				"type": "unocc",
				"energy": 0.08049,
				"method": "rhf"
			}
		],
		"cosmo_sigma_profile": { 
			"-0.025": 0.0,
			"-0.024": 0.0,
			"-0.023": 0.0,
			"-0.022": 0.0,
			"-0.021": 0.0,
			"-0.02": 0.0,
			"-0.019": 0.0134710438759,
			"-0.018": 0.504034564641,
			"-0.017": 0.949022162221,
			"-0.016": 0.637774075236,
			"-0.015": 1.01954901786,
			"-0.014": 0.894472756773,
			"-0.013": 0.416749696395,
			"-0.012": 0.119677029421,
			"-0.011": 0.961735555829,
			"-0.01": 0.698626925182,
			"-0.009": 0.68737937038,
			"-0.008": 1.43190205955,
			"-0.007": 6.26007191294,
			"-0.006": 16.573540439,
			"-0.005": 17.3416566428,
			"-0.004": 17.5482142135,
			"-0.003": 12.5109257243,
			"-0.002": 13.8200094553,
			"-0.001": 15.3402302176,
			"0.0": 14.7209404294,
			"0.001": 17.6572654297,
			"0.002": 20.6406729366,
			"0.003": 25.8541423633,
			"0.004": 19.7277280508,
			"0.005": 9.35972566927,
			"0.006": 4.39892578612,
			"0.007": 1.93232578143,
			"0.008": 2.42021772727,
			"0.009": 1.69574955544,
			"0.01": 2.05017434731,
			"0.011": 2.46589541426,
			"0.012": 5.44985756827,
			"0.013": 2.45093692529,
			"0.014": 0.0835438047506,
			"0.015": 0.0,
			"0.016": 0.0,
			"0.017": 0.0,
			"0.018": 0.0,
			"0.019": 0.0,
			"0.02": 0.0,
			"0.021": 0.0,
			"0.022": 0.0,
			"0.023": 0.0,
			"0.024": 0.0,
			"0.025": 0.0
		}
	}
}
