{
	 "smiles": "FC1=CC(Cl)=C(C=C1)C1(CCCC1)C#N", 
	 "Tm": 323.65, 
	 "num_atms": 26, 
	 "gaussian": { 
		 "optdone": 1, 
		 "sigma_profile": "yes", 
		 "theory": "DFT", 
		 "functional": "B3LYP", 
		 "basiset": "6-31G**", 
		 "properties": { 
			 "R2extent": 5582.2562, 
			 "electric_dipole_moment_norm": 4.74470770227, 
			 "electric_quadrupole_moment_norm": 17.5228487573, 
			 "total_energy": -1078.66348156, 
			 "HOMO_LUMO_gap": 0.224, 
			 "cosmo_polarized_energy": -10.52, 
			 "cosmo_cavitation_energy": 30.48, 
			 "cosmo_dispersion_energy": -21.51, 
			 "cosmo_repulsion_energy": 1.65, 
			 "cosmo_total_nonelectrostatic_energy": 10.62, 
			 "SMD_solvation_energy": 6.11 
		},
		"coords": [
			{
				"x": 4.4719882003,
				"y": -0.2293749164,
				"z": -3.5785975021,
				"element": "F" 
			},
			{
				"x": 3.2571367324,
				"y": -0.4386003973,
				"z": -3.0404607066,
				"element": "C" 
			},
			{
				"x": 2.1940838736,
				"y": -0.7332031158,
				"z": -3.882427005,
				"element": "C" 
			},
			{
				"x": 0.9340364337,
				"y": -0.9475385541,
				"z": -3.3243356827,
				"element": "C" 
			},
			{
				"x": -0.3530124,
				"y": -1.3192779735,
				"z": -4.4629160702,
				"element": "Cl" 
			},
			{
				"x": 0.7047589957,
				"y": -0.8796471402,
				"z": -1.9338967151,
				"element": "C" 
			},
			{
				"x": 1.8218752198,
				"y": -0.5808118036,
				"z": -1.1380888314,
				"element": "C" 
			},
			{
				"x": 3.0916505013,
				"y": -0.3564677583,
				"z": -1.6662503126,
				"element": "C" 
			},
			{
				"x": -0.6873684217,
				"y": -1.0971035284,
				"z": -1.3042794731,
				"element": "C" 
			},
			{
				"x": -1.6726868412,
				"y": 0.0622734075,
				"z": -1.6739957384,
				"element": "C" 
			},
			{
				"x": -1.2670795997,
				"y": 1.2064696385,
				"z": -0.7291060522,
				"element": "C" 
			},
			{
				"x": -0.8109435981,
				"y": 0.518436012,
				"z": 0.5866805247,
				"element": "C" 
			},
			{
				"x": -0.7136200554,
				"y": -0.9920923833,
				"z": 0.2560728332,
				"element": "C" 
			},
			{
				"x": -1.2113660406,
				"y": -2.4224915812,
				"z": -1.6801227065,
				"element": "C" 
			},
			{
				"x": -1.6403212062,
				"y": -3.4785066518,
				"z": -1.9025838558,
				"element": "N" 
			},
			{
				"x": 2.3471283519,
				"y": -0.7963383965,
				"z": -4.9526620555,
				"element": "H" 
			},
			{
				"x": 1.7069408402,
				"y": -0.5184569143,
				"z": -0.063786934,
				"element": "H" 
			},
			{
				"x": 3.9379102012,
				"y": -0.1264869547,
				"z": -1.0290791336,
				"element": "H" 
			},
			{
				"x": -2.69171084,
				"y": -0.2763841537,
				"z": -1.4572811017,
				"element": "H" 
			},
			{
				"x": -1.6326002242,
				"y": 0.3326887437,
				"z": -2.7291355219,
				"element": "H" 
			},
			{
				"x": -2.0899088925,
				"y": 1.9098371239,
				"z": -0.5743594996,
				"element": "H" 
			},
			{
				"x": -0.4396121723,
				"y": 1.7737272945,
				"z": -1.1668721771,
				"element": "H" 
			},
			{
				"x": 0.1460956355,
				"y": 0.9236931728,
				"z": 0.9283360663,
				"element": "H" 
			},
			{
				"x": -1.5258236356,
				"y": 0.6801255555,
				"z": 1.3985602108,
				"element": "H" 
			},
			{
				"x": 0.1231482333,
				"y": -1.5087603524,
				"z": 0.7312695584,
				"element": "H" 
			},
			{
				"x": -1.6196992911,
				"y": -1.5037083731,
				"z": 0.5918178817,
				"element": "H" 
			}
		],
		 "valence_orbital": [ 
			{
				"type": "occ",
				"energy": -0.32808,
				"method": "rhf"
			},
			{
				"type": "occ",
				"energy": -0.31459,
				"method": "rhf"
			},
			{
				"type": "occ",
				"energy": -0.30384,
				"method": "rhf"
			},
			{
				"type": "occ",
				"energy": -0.27036,
				"method": "rhf"
			},
			{
				"type": "occ",
				"energy": -0.25753,
				"method": "rhf"
			},
			{
				"type": "unocc",
				"energy": -0.03353,
				"method": "rhf"
			},
			{
				"type": "unocc",
				"energy": -0.02532,
				"method": "rhf"
			},
			{
				"type": "unocc",
				"energy": 0.01413,
				"method": "rhf"
			},
			{
				"type": "unocc",
				"energy": 0.03993,
				"method": "rhf"
			},
			{
				"type": "unocc",
				"energy": 0.05265,
				"method": "rhf"
			}
		],
		"cosmo_sigma_profile": { 
			"-0.025": 0.0,
			"-0.024": 0.0,
			"-0.023": 0.0,
			"-0.022": 0.0,
			"-0.021": 0.0,
			"-0.02": 0.0,
			"-0.019": 0.0,
			"-0.018": 0.0,
			"-0.017": 0.0,
			"-0.016": 0.0,
			"-0.015": 0.0,
			"-0.014": 0.0,
			"-0.013": 0.0,
			"-0.012": 0.0,
			"-0.011": 0.0,
			"-0.01": 0.0,
			"-0.009": 0.536495946891,
			"-0.008": 4.15355856164,
			"-0.007": 5.64929124768,
			"-0.006": 7.88232693759,
			"-0.005": 11.8342697243,
			"-0.004": 14.9896506694,
			"-0.003": 24.4136995803,
			"-0.002": 26.8642988377,
			"-0.001": 27.1488216087,
			"0.0": 27.8489696748,
			"0.001": 23.8692559694,
			"0.002": 13.9828966772,
			"0.003": 13.6828020326,
			"0.004": 13.9681021705,
			"0.005": 3.23728497127,
			"0.006": 3.14070320205,
			"0.007": 2.85235120899,
			"0.008": 3.69137585349,
			"0.009": 3.13823550546,
			"0.01": 3.61237730731,
			"0.011": 2.85759754651,
			"0.012": 2.65605704113,
			"0.013": 2.22652697936,
			"0.014": 0.422671498621,
			"0.015": 0.0,
			"0.016": 0.0,
			"0.017": 0.0,
			"0.018": 0.0,
			"0.019": 0.0,
			"0.02": 0.0,
			"0.021": 0.0,
			"0.022": 0.0,
			"0.023": 0.0,
			"0.024": 0.0,
			"0.025": 0.0
		}
	}
}
