{
	 "smiles": "CC(C)(C)C(=O)NO", 
	 "Tm": 443.15, 
	 "num_atms": 19, 
	 "gaussian": { 
		 "optdone": 1, 
		 "sigma_profile": "yes", 
		 "theory": "DFT", 
		 "functional": "B3LYP", 
		 "basiset": "6-31G**", 
		 "properties": { 
			 "R2extent": 1230.4017, 
			 "electric_dipole_moment_norm": 2.94023648879, 
			 "electric_quadrupole_moment_norm": 6.3074795941, 
			 "total_energy": -402.318709747, 
			 "HOMO_LUMO_gap": 0.25551, 
			 "cosmo_polarized_energy": -10.83, 
			 "cosmo_cavitation_energy": 21.13, 
			 "cosmo_dispersion_energy": -15.29, 
			 "cosmo_repulsion_energy": 1.27, 
			 "cosmo_total_nonelectrostatic_energy": 7.11, 
			 "SMD_solvation_energy": 5.44 
		},
		"coords": [
			{
				"x": 0.8305322846,
				"y": -0.0493817809,
				"z": -1.7304248504,
				"element": "C" 
			},
			{
				"x": 0.2059535914,
				"y": 0.7347639998,
				"z": -0.5565112895,
				"element": "C" 
			},
			{
				"x": 0.0580247887,
				"y": 2.2312483854,
				"z": -0.9238239877,
				"element": "C" 
			},
			{
				"x": 1.1148000597,
				"y": 0.6031442612,
				"z": 0.6791956527,
				"element": "C" 
			},
			{
				"x": -1.178124324,
				"y": 0.1754564533,
				"z": -0.1759442456,
				"element": "C" 
			},
			{
				"x": -1.5003849571,
				"y": -0.0920346143,
				"z": 0.972158142,
				"element": "O" 
			},
			{
				"x": -2.1080171816,
				"y": -0.1230319676,
				"z": -1.173671256,
				"element": "N" 
			},
			{
				"x": -2.1099148128,
				"y": 0.6035754381,
				"z": -2.3861510184,
				"element": "O" 
			},
			{
				"x": 0.8920786849,
				"y": -1.11933454,
				"z": -1.5055038592,
				"element": "H" 
			},
			{
				"x": 0.2681071502,
				"y": 0.0799602191,
				"z": -2.6568984134,
				"element": "H" 
			},
			{
				"x": 1.8487419434,
				"y": 0.3123695099,
				"z": -1.9088441229,
				"element": "H" 
			},
			{
				"x": 1.0449139619,
				"y": 2.6503698939,
				"z": -1.1488546817,
				"element": "H" 
			},
			{
				"x": -0.361913206,
				"y": 2.796927858,
				"z": -0.085559613,
				"element": "H" 
			},
			{
				"x": -0.5854682835,
				"y": 2.3714544448,
				"z": -1.7941218865,
				"element": "H" 
			},
			{
				"x": 2.0972956728,
				"y": 1.0338411099,
				"z": 0.4593654474,
				"element": "H" 
			},
			{
				"x": 0.6875468278,
				"y": 1.1219873161,
				"z": 1.5396331091,
				"element": "H" 
			},
			{
				"x": 1.2516571537,
				"y": -0.4443960986,
				"z": 0.9623720211,
				"element": "H" 
			},
			{
				"x": -3.0503740512,
				"y": -0.1945756438,
				"z": -0.7987041636,
				"element": "H" 
			},
			{
				"x": -1.9530553031,
				"y": -0.0726442443,
				"z": -3.0619109845,
				"element": "H" 
			}
		],
		 "valence_orbital": [ 
			{
				"type": "occ",
				"energy": -0.34111,
				"method": "rhf"
			},
			{
				"type": "occ",
				"energy": -0.32947,
				"method": "rhf"
			},
			{
				"type": "occ",
				"energy": -0.31443,
				"method": "rhf"
			},
			{
				"type": "occ",
				"energy": -0.26631,
				"method": "rhf"
			},
			{
				"type": "occ",
				"energy": -0.24838,
				"method": "rhf"
			},
			{
				"type": "unocc",
				"energy": 0.00713,
				"method": "rhf"
			},
			{
				"type": "unocc",
				"energy": 0.05215,
				"method": "rhf"
			},
			{
				"type": "unocc",
				"energy": 0.09299,
				"method": "rhf"
			},
			{
				"type": "unocc",
				"energy": 0.10676,
				"method": "rhf"
			},
			{
				"type": "unocc",
				"energy": 0.13031,
				"method": "rhf"
			}
		],
		"cosmo_sigma_profile": { 
			"-0.025": 0.0,
			"-0.024": 0.0,
			"-0.023": 0.0,
			"-0.022": 0.0,
			"-0.021": 0.0,
			"-0.02": 0.0,
			"-0.019": 0.0,
			"-0.018": 0.00149986958134,
			"-0.017": 1.00583401158,
			"-0.016": 0.640930168212,
			"-0.015": 0.943007941433,
			"-0.014": 1.61926170008,
			"-0.013": 2.03831044341,
			"-0.012": 1.17981882666,
			"-0.011": 2.05184971822,
			"-0.01": 1.30388377509,
			"-0.009": 1.85522307786,
			"-0.008": 1.75537236637,
			"-0.007": 2.27442881293,
			"-0.006": 2.0752299171,
			"-0.005": 2.26320088387,
			"-0.004": 4.06545479716,
			"-0.003": 18.1872409763,
			"-0.002": 16.5789847136,
			"-0.001": 18.5401682775,
			"0.0": 18.3208639842,
			"0.001": 22.9749573601,
			"0.002": 7.61314518305,
			"0.003": 3.31244812818,
			"0.004": 4.11847576669,
			"0.005": 3.19532755927,
			"0.006": 3.91304867267,
			"0.007": 2.79617490429,
			"0.008": 2.32193989509,
			"0.009": 2.18182927022,
			"0.01": 2.54632681282,
			"0.011": 2.48206933368,
			"0.012": 3.1509263447,
			"0.013": 5.12639019284,
			"0.014": 0.981702953278,
			"0.015": 0.0,
			"0.016": 0.0,
			"0.017": 0.0,
			"0.018": 0.0,
			"0.019": 0.0,
			"0.02": 0.0,
			"0.021": 0.0,
			"0.022": 0.0,
			"0.023": 0.0,
			"0.024": 0.0,
			"0.025": 0.0
		}
	}
}
