{
	 "smiles": "COC1=CC=CC=C1C1NN2C(S1)=NN=C2C1=CC=C(C=C1)[N+]([O-])=O", 
	 "Tm": 425.15, 
	 "num_atms": 38, 
	 "gaussian": { 
		 "optdone": 1, 
		 "sigma_profile": "yes", 
		 "theory": "DFT", 
		 "functional": "B3LYP", 
		 "basiset": "6-31G**", 
		 "properties": { 
			 "R2extent": 10676.2121, 
			 "electric_dipole_moment_norm": 6.99966976721, 
			 "electric_quadrupole_moment_norm": 42.0350970548, 
			 "total_energy": -1514.9698827, 
			 "HOMO_LUMO_gap": 0.13301, 
			 "cosmo_polarized_energy": -24.63, 
			 "cosmo_cavitation_energy": 44.56, 
			 "cosmo_dispersion_energy": -31.01, 
			 "cosmo_repulsion_energy": 2.26, 
			 "cosmo_total_nonelectrostatic_energy": 15.81, 
			 "SMD_solvation_energy": 7.41 
		},
		"coords": [
			{
				"x": -1.5428853208,
				"y": -1.8925902862,
				"z": 1.4855294168,
				"element": "C" 
			},
			{
				"x": -1.2421268979,
				"y": -0.5350037855,
				"z": 1.1755905603,
				"element": "O" 
			},
			{
				"x": -2.2480541298,
				"y": 0.320577252,
				"z": 0.8651094606,
				"element": "C" 
			},
			{
				"x": -3.5817784755,
				"y": -0.0697255231,
				"z": 0.7058537023,
				"element": "C" 
			},
			{
				"x": -4.5562574193,
				"y": 0.8783402502,
				"z": 0.3863948557,
				"element": "C" 
			},
			{
				"x": -4.214541686,
				"y": 2.2179693755,
				"z": 0.223174641,
				"element": "C" 
			},
			{
				"x": -2.8821301838,
				"y": 2.6007240931,
				"z": 0.3828293144,
				"element": "C" 
			},
			{
				"x": -1.8822690059,
				"y": 1.676808984,
				"z": 0.7019532121,
				"element": "C" 
			},
			{
				"x": -0.477160664,
				"y": 2.1921227014,
				"z": 0.8794191384,
				"element": "C" 
			},
			{
				"x": 0.5613881181,
				"y": 1.5743687641,
				"z": 0.01899684,
				"element": "N" 
			},
			{
				"x": 1.2698399336,
				"y": 0.6458171192,
				"z": 0.8018982208,
				"element": "N" 
			},
			{
				"x": 1.1900460747,
				"y": 0.7406218579,
				"z": 2.1596071078,
				"element": "C" 
			},
			{
				"x": 0.1748900812,
				"y": 2.0737652491,
				"z": 2.6775113844,
				"element": "S" 
			},
			{
				"x": 1.8250480929,
				"y": -0.249919758,
				"z": 2.7395187728,
				"element": "N" 
			},
			{
				"x": 2.3372991798,
				"y": -1.0249222178,
				"z": 1.7164257885,
				"element": "N" 
			},
			{
				"x": 1.9760687214,
				"y": -0.508353004,
				"z": 0.5502371949,
				"element": "C" 
			},
			{
				"x": 2.3097464805,
				"y": -1.0806025446,
				"z": -0.7524115008,
				"element": "C" 
			},
			{
				"x": 3.2145312048,
				"y": -2.1600874835,
				"z": -0.7925708541,
				"element": "C" 
			},
			{
				"x": 3.5553444778,
				"y": -2.7488722014,
				"z": -2.0014983346,
				"element": "C" 
			},
			{
				"x": 2.9880002318,
				"y": -2.2532740184,
				"z": -3.1770367182,
				"element": "C" 
			},
			{
				"x": 2.0875759942,
				"y": -1.1903665052,
				"z": -3.1667145523,
				"element": "C" 
			},
			{
				"x": 1.7486831976,
				"y": -0.6047672575,
				"z": -1.9514392339,
				"element": "C" 
			},
			{
				"x": 3.3479862303,
				"y": -2.8699270956,
				"z": -4.4601947965,
				"element": "N" 
			},
			{
				"x": 2.8348937967,
				"y": -2.4087433484,
				"z": -5.4806388706,
				"element": "O" 
			},
			{
				"x": 4.1409660612,
				"y": -3.8115488533,
				"z": -4.43930814,
				"element": "O" 
			},
			{
				"x": -0.5933943266,
				"y": -2.3423866751,
				"z": 1.7754843699,
				"element": "H" 
			},
			{
				"x": -1.9500139603,
				"y": -2.4194410384,
				"z": 0.6142482273,
				"element": "H" 
			},
			{
				"x": -2.2508429484,
				"y": -1.9610791097,
				"z": 2.3194898202,
				"element": "H" 
			},
			{
				"x": -3.8645373797,
				"y": -1.1081137054,
				"z": 0.8280784058,
				"element": "H" 
			},
			{
				"x": -5.5869303062,
				"y": 0.5579645607,
				"z": 0.2655507925,
				"element": "H" 
			},
			{
				"x": -4.9692940518,
				"y": 2.9566503228,
				"z": -0.0253096479,
				"element": "H" 
			},
			{
				"x": -2.6085801857,
				"y": 3.6459905024,
				"z": 0.2588120807,
				"element": "H" 
			},
			{
				"x": -0.4842323646,
				"y": 3.2571202661,
				"z": 0.6434014327,
				"element": "H" 
			},
			{
				"x": 1.2303701639,
				"y": 2.3031256616,
				"z": -0.2344616542,
				"element": "H" 
			},
			{
				"x": 3.6368178713,
				"y": -2.5200717222,
				"z": 0.1385720975,
				"element": "H" 
			},
			{
				"x": 4.2504947191,
				"y": -3.5772816918,
				"z": -2.0542686073,
				"element": "H" 
			},
			{
				"x": 1.6657807301,
				"y": -0.8424352679,
				"z": -4.1012348858,
				"element": "H" 
			},
			{
				"x": 1.0360579455,
				"y": 0.2115461327,
				"z": -1.9274990412,
				"element": "H" 
			}
		],
		 "valence_orbital": [ 
			{
				"type": "occ",
				"energy": -0.27452,
				"method": "rhf"
			},
			{
				"type": "occ",
				"energy": -0.27184,
				"method": "rhf"
			},
			{
				"type": "occ",
				"energy": -0.26059,
				"method": "rhf"
			},
			{
				"type": "occ",
				"energy": -0.24163,
				"method": "rhf"
			},
			{
				"type": "occ",
				"energy": -0.22578,
				"method": "rhf"
			},
			{
				"type": "unocc",
				"energy": -0.09277,
				"method": "rhf"
			},
			{
				"type": "unocc",
				"energy": -0.0454,
				"method": "rhf"
			},
			{
				"type": "unocc",
				"energy": -0.02679,
				"method": "rhf"
			},
			{
				"type": "unocc",
				"energy": -0.02417,
				"method": "rhf"
			},
			{
				"type": "unocc",
				"energy": -0.01191,
				"method": "rhf"
			}
		],
		"cosmo_sigma_profile": { 
			"-0.025": 0.0,
			"-0.024": 0.0,
			"-0.023": 0.0,
			"-0.022": 0.0,
			"-0.021": 0.0,
			"-0.02": 0.0,
			"-0.019": 0.0,
			"-0.018": 0.0,
			"-0.017": 0.0,
			"-0.016": 0.958274045574,
			"-0.015": 2.13242173766,
			"-0.014": 2.0896930651,
			"-0.013": 1.57158459143,
			"-0.012": 1.74119915738,
			"-0.011": 1.89468452949,
			"-0.01": 4.07316136628,
			"-0.009": 3.31726955004,
			"-0.008": 4.98996276794,
			"-0.007": 8.50036307622,
			"-0.006": 21.5162436689,
			"-0.005": 23.822128522,
			"-0.004": 24.6403007308,
			"-0.003": 22.7451556243,
			"-0.002": 20.4411544442,
			"-0.001": 25.1643210855,
			"0.0": 30.6858333343,
			"0.001": 30.0827095421,
			"0.002": 19.3530359152,
			"0.003": 17.8458150688,
			"0.004": 19.2169399654,
			"0.005": 18.9384166556,
			"0.006": 10.4016373832,
			"0.007": 10.1175953728,
			"0.008": 9.33127509272,
			"0.009": 6.652272466,
			"0.01": 4.1094811175,
			"0.011": 2.15484811824,
			"0.012": 2.95463933374,
			"0.013": 3.66793366037,
			"0.014": 2.33957334783,
			"0.015": 2.09273074572,
			"0.016": 0.769886777857,
			"0.017": 0.0257520178121,
			"0.018": 0.0,
			"0.019": 0.0,
			"0.02": 0.0,
			"0.021": 0.0,
			"0.022": 0.0,
			"0.023": 0.0,
			"0.024": 0.0,
			"0.025": 0.0
		}
	}
}
