{
	 "smiles": "CN1C=C2NCCC2=CC1=O", 
	 "Tm": 478.15, 
	 "num_atms": 21, 
	 "gaussian": { 
		 "optdone": 1, 
		 "sigma_profile": "yes", 
		 "theory": "DFT", 
		 "functional": "B3LYP", 
		 "basiset": "6-31G**", 
		 "properties": { 
			 "R2extent": 2124.2573, 
			 "electric_dipole_moment_norm": 5.04805024737, 
			 "electric_quadrupole_moment_norm": 13.7849851737, 
			 "total_energy": -495.600548859, 
			 "HOMO_LUMO_gap": 0.14934, 
			 "cosmo_polarized_energy": -14.73, 
			 "cosmo_cavitation_energy": 23.66, 
			 "cosmo_dispersion_energy": -18.05, 
			 "cosmo_repulsion_energy": 1.45, 
			 "cosmo_total_nonelectrostatic_energy": 7.06, 
			 "SMD_solvation_energy": 3.38 
		},
		"coords": [
			{
				"x": 0.7851201741,
				"y": -0.8504078747,
				"z": 3.4456943859,
				"element": "C" 
			},
			{
				"x": 0.8330969827,
				"y": -0.7416229559,
				"z": 1.9892872795,
				"element": "N" 
			},
			{
				"x": 1.3932241566,
				"y": 0.3939953237,
				"z": 1.4295266998,
				"element": "C" 
			},
			{
				"x": 1.4501253349,
				"y": 0.5302015939,
				"z": 0.0768003959,
				"element": "C" 
			},
			{
				"x": 1.9999480775,
				"y": 1.5546165599,
				"z": -0.7203985276,
				"element": "N" 
			},
			{
				"x": 1.4126618296,
				"y": 1.4191628356,
				"z": -2.0686467703,
				"element": "C" 
			},
			{
				"x": 1.1444479974,
				"y": -0.0990438479,
				"z": -2.1934048154,
				"element": "C" 
			},
			{
				"x": 0.9230992423,
				"y": -0.5095299309,
				"z": -0.7533996005,
				"element": "C" 
			},
			{
				"x": 0.3688591347,
				"y": -1.6242281765,
				"z": -0.2101122358,
				"element": "C" 
			},
			{
				"x": 0.2908767664,
				"y": -1.8073690283,
				"z": 1.2327169974,
				"element": "C" 
			},
			{
				"x": -0.2028477906,
				"y": -2.7949312028,
				"z": 1.7838431952,
				"element": "O" 
			},
			{
				"x": 1.7952741148,
				"y": -0.8136565109,
				"z": 3.8665152726,
				"element": "H" 
			},
			{
				"x": 0.1894894904,
				"y": -0.0367950749,
				"z": 3.873213544,
				"element": "H" 
			},
			{
				"x": 0.3221039013,
				"y": -1.8072085817,
				"z": 3.6814166995,
				"element": "H" 
			},
			{
				"x": 1.7634324592,
				"y": 1.1352720982,
				"z": 2.1288516017,
				"element": "H" 
			},
			{
				"x": 1.9573539459,
				"y": 2.4881017568,
				"z": -0.3300320888,
				"element": "H" 
			},
			{
				"x": 2.1024846124,
				"y": 1.793210436,
				"z": -2.8302722517,
				"element": "H" 
			},
			{
				"x": 0.4650584147,
				"y": 1.973397514,
				"z": -2.1610661248,
				"element": "H" 
			},
			{
				"x": 0.3018996413,
				"y": -0.3281093766,
				"z": -2.8506371345,
				"element": "H" 
			},
			{
				"x": 2.0283242027,
				"y": -0.613814949,
				"z": -2.5907661585,
				"element": "H" 
			},
			{
				"x": -0.0461326883,
				"y": -2.4269406078,
				"z": -0.8096303635,
				"element": "H" 
			}
		],
		 "valence_orbital": [ 
			{
				"type": "occ",
				"energy": -0.33938,
				"method": "rhf"
			},
			{
				"type": "occ",
				"energy": -0.28637,
				"method": "rhf"
			},
			{
				"type": "occ",
				"energy": -0.25242,
				"method": "rhf"
			},
			{
				"type": "occ",
				"energy": -0.23271,
				"method": "rhf"
			},
			{
				"type": "occ",
				"energy": -0.1802,
				"method": "rhf"
			},
			{
				"type": "unocc",
				"energy": -0.03086,
				"method": "rhf"
			},
			{
				"type": "unocc",
				"energy": 0.03883,
				"method": "rhf"
			},
			{
				"type": "unocc",
				"energy": 0.07978,
				"method": "rhf"
			},
			{
				"type": "unocc",
				"energy": 0.10445,
				"method": "rhf"
			},
			{
				"type": "unocc",
				"energy": 0.11163,
				"method": "rhf"
			}
		],
		"cosmo_sigma_profile": { 
			"-0.025": 0.0,
			"-0.024": 0.0,
			"-0.023": 0.0,
			"-0.022": 0.0,
			"-0.021": 0.0,
			"-0.02": 0.0,
			"-0.019": 0.0,
			"-0.018": 0.0,
			"-0.017": 0.0,
			"-0.016": 0.0,
			"-0.015": 0.0,
			"-0.014": 0.0,
			"-0.013": 0.312308771843,
			"-0.012": 1.46880941884,
			"-0.011": 1.45361490388,
			"-0.01": 1.18526759182,
			"-0.009": 1.64376825829,
			"-0.008": 3.56623494639,
			"-0.007": 3.31873214304,
			"-0.006": 6.87164682009,
			"-0.005": 15.5304745305,
			"-0.004": 18.720750264,
			"-0.003": 23.1642831952,
			"-0.002": 20.9435460816,
			"-0.001": 13.7611829576,
			"0.0": 6.38762924944,
			"0.001": 8.98128934222,
			"0.002": 10.8787979278,
			"0.003": 11.0197312673,
			"0.004": 6.31110883392,
			"0.005": 3.65153962262,
			"0.006": 2.29372047188,
			"0.007": 2.03400653979,
			"0.008": 2.23469273475,
			"0.009": 2.1321135059,
			"0.01": 1.72334692073,
			"0.011": 1.84405979234,
			"0.012": 1.91426078039,
			"0.013": 2.34268506724,
			"0.014": 2.87832942092,
			"0.015": 5.68996918766,
			"0.016": 2.41722455406,
			"0.017": 0.365211841974,
			"0.018": 0.0,
			"0.019": 0.0,
			"0.02": 0.0,
			"0.021": 0.0,
			"0.022": 0.0,
			"0.023": 0.0,
			"0.024": 0.0,
			"0.025": 0.0
		}
	}
}
