{
	 "smiles": "NC1=CC=C(NCCO)C(=C1)[N+]([O-])=O", 
	 "Tm": 400.65, 
	 "num_atms": 25, 
	 "gaussian": { 
		 "optdone": 1, 
		 "sigma_profile": "yes", 
		 "theory": "DFT", 
		 "functional": "B3LYP", 
		 "basiset": "6-31G**", 
		 "properties": { 
			 "R2extent": 3159.7908, 
			 "electric_dipole_moment_norm": 6.51724608251, 
			 "electric_quadrupole_moment_norm": 10.4889945443, 
			 "total_energy": -701.287051263, 
			 "HOMO_LUMO_gap": 0.12107, 
			 "cosmo_polarized_energy": -19.36, 
			 "cosmo_cavitation_energy": 28.96, 
			 "cosmo_dispersion_energy": -20.98, 
			 "cosmo_repulsion_energy": 1.68, 
			 "cosmo_total_nonelectrostatic_energy": 9.66, 
			 "SMD_solvation_energy": 5.91 
		},
		"coords": [
			{
				"x": 0.4962894453,
				"y": -3.8480265273,
				"z": 0.1826088415,
				"element": "N" 
			},
			{
				"x": -0.0258132332,
				"y": -2.5575503588,
				"z": 0.0475824062,
				"element": "C" 
			},
			{
				"x": -1.2455960592,
				"y": -2.2017091479,
				"z": 0.656352876,
				"element": "C" 
			},
			{
				"x": -1.7762131878,
				"y": -0.9359644775,
				"z": 0.4902383093,
				"element": "C" 
			},
			{
				"x": -1.1712627968,
				"y": 0.0641673788,
				"z": -0.3077585019,
				"element": "C" 
			},
			{
				"x": -1.8329738435,
				"y": 1.2886650322,
				"z": -0.4317218108,
				"element": "N" 
			},
			{
				"x": -1.2075860886,
				"y": 2.5570484778,
				"z": -0.0420788529,
				"element": "C" 
			},
			{
				"x": -1.0943810094,
				"y": 2.7115818734,
				"z": 1.471869973,
				"element": "C" 
			},
			{
				"x": -2.4117197845,
				"y": 2.592728461,
				"z": 2.006277775,
				"element": "O" 
			},
			{
				"x": 0.0329185119,
				"y": -0.3294466501,
				"z": -0.9467996733,
				"element": "C" 
			},
			{
				"x": 0.5954430273,
				"y": -1.6000352335,
				"z": -0.7477291879,
				"element": "C" 
			},
			{
				"x": 0.740325194,
				"y": 0.5109738775,
				"z": -1.916657641,
				"element": "N" 
			},
			{
				"x": 0.1976682354,
				"y": 1.5449374067,
				"z": -2.3153815844,
				"element": "O" 
			},
			{
				"x": 1.8419596341,
				"y": 0.1251891782,
				"z": -2.3219699639,
				"element": "O" 
			},
			{
				"x": 0.2487065666,
				"y": -4.3189909893,
				"z": 1.0423151729,
				"element": "H" 
			},
			{
				"x": 1.4854592637,
				"y": -3.9265259051,
				"z": -0.0108137255,
				"element": "H" 
			},
			{
				"x": -1.7686306953,
				"y": -2.92381095,
				"z": 1.2785839241,
				"element": "H" 
			},
			{
				"x": -2.6953168811,
				"y": -0.6771268163,
				"z": 1.0093563827,
				"element": "H" 
			},
			{
				"x": -2.7347660691,
				"y": 1.2325946709,
				"z": 0.0297152621,
				"element": "H" 
			},
			{
				"x": -0.2298723662,
				"y": 2.6527858248,
				"z": -0.5107958182,
				"element": "H" 
			},
			{
				"x": -1.8369404069,
				"y": 3.3626601144,
				"z": -0.4352268023,
				"element": "H" 
			},
			{
				"x": -0.6503337565,
				"y": 3.6918160963,
				"z": 1.7060435025,
				"element": "H" 
			},
			{
				"x": -0.4301311582,
				"y": 1.9328751983,
				"z": 1.8780737828,
				"element": "H" 
			},
			{
				"x": -2.3556215208,
				"y": 2.6129681753,
				"z": 2.968935923,
				"element": "H" 
			},
			{
				"x": 1.5223889787,
				"y": -1.8186047099,
				"z": -1.2628205691,
				"element": "H" 
			}
		],
		 "valence_orbital": [ 
			{
				"type": "occ",
				"energy": -0.2804,
				"method": "rhf"
			},
			{
				"type": "occ",
				"energy": -0.27273,
				"method": "rhf"
			},
			{
				"type": "occ",
				"energy": -0.26656,
				"method": "rhf"
			},
			{
				"type": "occ",
				"energy": -0.25804,
				"method": "rhf"
			},
			{
				"type": "occ",
				"energy": -0.194,
				"method": "rhf"
			},
			{
				"type": "unocc",
				"energy": -0.07293,
				"method": "rhf"
			},
			{
				"type": "unocc",
				"energy": -0.0001,
				"method": "rhf"
			},
			{
				"type": "unocc",
				"energy": 0.01947,
				"method": "rhf"
			},
			{
				"type": "unocc",
				"energy": 0.06403,
				"method": "rhf"
			},
			{
				"type": "unocc",
				"energy": 0.0731,
				"method": "rhf"
			}
		],
		"cosmo_sigma_profile": { 
			"-0.025": 0.0,
			"-0.024": 0.0,
			"-0.023": 0.0,
			"-0.022": 0.0,
			"-0.021": 0.0,
			"-0.02": 0.0,
			"-0.019": 0.0,
			"-0.018": 0.0,
			"-0.017": 0.0,
			"-0.016": 0.547904434559,
			"-0.015": 1.35904928807,
			"-0.014": 0.494112019544,
			"-0.013": 1.92892452768,
			"-0.012": 4.27430761118,
			"-0.011": 4.29514404918,
			"-0.01": 4.48152074082,
			"-0.009": 4.87702738576,
			"-0.008": 6.4702920882,
			"-0.007": 6.99232710456,
			"-0.006": 8.59169899112,
			"-0.005": 8.54496671246,
			"-0.004": 17.0355462559,
			"-0.003": 17.8050397394,
			"-0.002": 15.1108112353,
			"-0.001": 11.0011008627,
			"0.0": 9.3325473936,
			"0.001": 11.4875584888,
			"0.002": 13.0411836269,
			"0.003": 14.7292173544,
			"0.004": 10.7737785586,
			"0.005": 6.63796034731,
			"0.006": 5.43015709067,
			"0.007": 6.04932818993,
			"0.008": 8.13786492898,
			"0.009": 8.85603034812,
			"0.01": 7.61584573767,
			"0.011": 5.62672333257,
			"0.012": 2.50263396833,
			"0.013": 2.16362298066,
			"0.014": 1.89608468784,
			"0.015": 0.298037823092,
			"0.016": 0.0,
			"0.017": 0.0,
			"0.018": 0.0,
			"0.019": 0.0,
			"0.02": 0.0,
			"0.021": 0.0,
			"0.022": 0.0,
			"0.023": 0.0,
			"0.024": 0.0,
			"0.025": 0.0
		}
	}
}
