{
	 "smiles": "CS(=O)(=O)C1=CC(=CC=C1)C(N)C1=CC=C(F)C=C1", 
	 "Tm": 362.15, 
	 "num_atms": 33, 
	 "gaussian": { 
		 "optdone": 1, 
		 "sigma_profile": "yes", 
		 "theory": "DFT", 
		 "functional": "B3LYP", 
		 "basiset": "6-31G**", 
		 "properties": { 
			 "R2extent": 7317.0685, 
			 "electric_dipole_moment_norm": 4.58280026294, 
			 "electric_quadrupole_moment_norm": 34.4801862103, 
			 "total_energy": -1245.0848322, 
			 "HOMO_LUMO_gap": 0.20244, 
			 "cosmo_polarized_energy": -19.38, 
			 "cosmo_cavitation_energy": 38.97, 
			 "cosmo_dispersion_energy": -26.97, 
			 "cosmo_repulsion_energy": 2.04, 
			 "cosmo_total_nonelectrostatic_energy": 14.04, 
			 "SMD_solvation_energy": 6.3 
		},
		"coords": [
			{
				"x": 2.8060659993,
				"y": 1.2703878755,
				"z": 2.7188610415,
				"element": "C" 
			},
			{
				"x": 3.2204021102,
				"y": -0.4718683944,
				"z": 2.4593076507,
				"element": "S" 
			},
			{
				"x": 3.7179879877,
				"y": -1.0018926167,
				"z": 3.7390994709,
				"element": "O" 
			},
			{
				"x": 4.0336389841,
				"y": -0.5527873765,
				"z": 1.2357661515,
				"element": "O" 
			},
			{
				"x": 1.6249756781,
				"y": -1.2393639857,
				"z": 2.124773365,
				"element": "C" 
			},
			{
				"x": 1.1382736914,
				"y": -1.2464833578,
				"z": 0.8162089345,
				"element": "C" 
			},
			{
				"x": -0.0978398269,
				"y": -1.8410590933,
				"z": 0.5445863223,
				"element": "C" 
			},
			{
				"x": -0.8117869287,
				"y": -2.4227630908,
				"z": 1.6013924961,
				"element": "C" 
			},
			{
				"x": -0.3121972852,
				"y": -2.4151991454,
				"z": 2.9033066644,
				"element": "C" 
			},
			{
				"x": 0.9201189288,
				"y": -1.8202531805,
				"z": 3.1784304342,
				"element": "C" 
			},
			{
				"x": -0.6794846948,
				"y": -1.8576468731,
				"z": -0.8721111966,
				"element": "C" 
			},
			{
				"x": 0.3969631928,
				"y": -1.7194190429,
				"z": -1.8566105425,
				"element": "N" 
			},
			{
				"x": -1.6972580187,
				"y": -0.7341900493,
				"z": -1.0671601404,
				"element": "C" 
			},
			{
				"x": -1.2744650162,
				"y": 0.5841955664,
				"z": -1.2887659915,
				"element": "C" 
			},
			{
				"x": -2.1986350503,
				"y": 1.6151205667,
				"z": -1.4467442336,
				"element": "C" 
			},
			{
				"x": -3.5556334951,
				"y": 1.3152759334,
				"z": -1.3776778361,
				"element": "C" 
			},
			{
				"x": -4.4549700286,
				"y": 2.3100170997,
				"z": -1.5296087461,
				"element": "F" 
			},
			{
				"x": -4.0104516106,
				"y": 0.0202520452,
				"z": -1.164406539,
				"element": "C" 
			},
			{
				"x": -3.0698614106,
				"y": -1.0003014469,
				"z": -1.0134022694,
				"element": "C" 
			},
			{
				"x": 3.7489447963,
				"y": 1.7809273374,
				"z": 2.9256325109,
				"element": "H" 
			},
			{
				"x": 2.3480822857,
				"y": 1.6694900825,
				"z": 1.8129255665,
				"element": "H" 
			},
			{
				"x": 2.1319192831,
				"y": 1.3555752934,
				"z": 3.5721717622,
				"element": "H" 
			},
			{
				"x": 1.7236188599,
				"y": -0.8201324759,
				"z": 0.0091673561,
				"element": "H" 
			},
			{
				"x": -1.7700620808,
				"y": -2.8951794985,
				"z": 1.3998148508,
				"element": "H" 
			},
			{
				"x": -0.8771680075,
				"y": -2.8844427661,
				"z": 3.7031787815,
				"element": "H" 
			},
			{
				"x": 1.3441338825,
				"y": -1.8241815848,
				"z": 4.1766850217,
				"element": "H" 
			},
			{
				"x": -1.234728495,
				"y": -2.8068006861,
				"z": -0.9696680829,
				"element": "H" 
			},
			{
				"x": 1.0398960325,
				"y": -2.5049347207,
				"z": -1.7905845442,
				"element": "H" 
			},
			{
				"x": 0.0081056037,
				"y": -1.7177436252,
				"z": -2.7954126078,
				"element": "H" 
			},
			{
				"x": -0.2117722971,
				"y": 0.7940780324,
				"z": -1.3509022891,
				"element": "H" 
			},
			{
				"x": -1.8857511582,
				"y": 2.6388569362,
				"z": -1.6226877484,
				"element": "H" 
			},
			{
				"x": -5.0765536453,
				"y": -0.1759386785,
				"z": -1.1279415709,
				"element": "H" 
			},
			{
				"x": -3.4151082664,
				"y": -2.0194950799,
				"z": -0.8583240425,
				"element": "H" 
			}
		],
		 "valence_orbital": [ 
			{
				"type": "occ",
				"energy": -0.27297,
				"method": "rhf"
			},
			{
				"type": "occ",
				"energy": -0.27159,
				"method": "rhf"
			},
			{
				"type": "occ",
				"energy": -0.26533,
				"method": "rhf"
			},
			{
				"type": "occ",
				"energy": -0.25313,
				"method": "rhf"
			},
			{
				"type": "occ",
				"energy": -0.24329,
				"method": "rhf"
			},
			{
				"type": "unocc",
				"energy": -0.04085,
				"method": "rhf"
			},
			{
				"type": "unocc",
				"energy": -0.02603,
				"method": "rhf"
			},
			{
				"type": "unocc",
				"energy": -0.01639,
				"method": "rhf"
			},
			{
				"type": "unocc",
				"energy": 0.00015,
				"method": "rhf"
			},
			{
				"type": "unocc",
				"energy": 0.06687,
				"method": "rhf"
			}
		],
		"cosmo_sigma_profile": { 
			"-0.025": 0.0,
			"-0.024": 0.0,
			"-0.023": 0.0,
			"-0.022": 0.0,
			"-0.021": 0.0,
			"-0.02": 0.0,
			"-0.019": 0.0,
			"-0.018": 0.0,
			"-0.017": 0.0,
			"-0.016": 0.0,
			"-0.015": 0.0,
			"-0.014": 0.0,
			"-0.013": 0.0,
			"-0.012": 0.0,
			"-0.011": 0.421726396427,
			"-0.01": 2.29308022466,
			"-0.009": 3.83258946261,
			"-0.008": 8.66890395427,
			"-0.007": 15.4794193818,
			"-0.006": 23.3605624111,
			"-0.005": 22.4973386187,
			"-0.004": 24.9643066342,
			"-0.003": 20.583738308,
			"-0.002": 15.0596699612,
			"-0.001": 14.0015542119,
			"0.0": 13.9328306287,
			"0.001": 20.5705930284,
			"0.002": 23.057433334,
			"0.003": 26.4836301,
			"0.004": 24.8442084373,
			"0.005": 11.1853291257,
			"0.006": 2.99078946973,
			"0.007": 2.68200672375,
			"0.008": 3.4672785247,
			"0.009": 3.72262982625,
			"0.01": 4.86990344337,
			"0.011": 9.01796666063,
			"0.012": 9.72108723957,
			"0.013": 2.06747309743,
			"0.014": 0.391541626662,
			"0.015": 0.0,
			"0.016": 0.0,
			"0.017": 0.0,
			"0.018": 0.0,
			"0.019": 0.0,
			"0.02": 0.0,
			"0.021": 0.0,
			"0.022": 0.0,
			"0.023": 0.0,
			"0.024": 0.0,
			"0.025": 0.0
		}
	}
}
