{
	 "smiles": "OC(=O)C1=C(C=CC=C1)N1CCCC1", 
	 "Tm": 361.15, 
	 "num_atms": 27, 
	 "gaussian": { 
		 "optdone": 1, 
		 "sigma_profile": "yes", 
		 "theory": "DFT", 
		 "functional": "B3LYP", 
		 "basiset": "6-31G**", 
		 "properties": { 
			 "R2extent": 5388.3822, 
			 "electric_dipole_moment_norm": 2.05981228756, 
			 "electric_quadrupole_moment_norm": 7.76811253201, 
			 "total_energy": -632.212790084, 
			 "HOMO_LUMO_gap": 0.16521, 
			 "cosmo_polarized_energy": -9.98, 
			 "cosmo_cavitation_energy": 28.66, 
			 "cosmo_dispersion_energy": -21.56, 
			 "cosmo_repulsion_energy": 1.7, 
			 "cosmo_total_nonelectrostatic_energy": 8.79, 
			 "SMD_solvation_energy": 4.38 
		},
		"coords": [
			{
				"x": 1.6164233294,
				"y": -1.4044081753,
				"z": -5.0582577162,
				"element": "O" 
			},
			{
				"x": 0.6523203453,
				"y": -1.0705014951,
				"z": -4.1532805519,
				"element": "C" 
			},
			{
				"x": -0.1201391181,
				"y": -1.9193270408,
				"z": -3.738424232,
				"element": "O" 
			},
			{
				"x": 0.618960441,
				"y": 0.3805466802,
				"z": -3.8581268348,
				"element": "C" 
			},
			{
				"x": 0.187240355,
				"y": 0.9671743574,
				"z": -2.6193256751,
				"element": "C" 
			},
			{
				"x": -0.1432617337,
				"y": 2.3514765203,
				"z": -2.6640407359,
				"element": "C" 
			},
			{
				"x": 0.059277601,
				"y": 3.1285863941,
				"z": -3.7927416008,
				"element": "C" 
			},
			{
				"x": 0.6042921082,
				"y": 2.5764542965,
				"z": -4.9550247449,
				"element": "C" 
			},
			{
				"x": 0.8623460478,
				"y": 1.2155286445,
				"z": -4.9694699381,
				"element": "C" 
			},
			{
				"x": 0.1251787659,
				"y": 0.3194029356,
				"z": -1.4051193618,
				"element": "N" 
			},
			{
				"x": 0.6410710957,
				"y": -1.0291667326,
				"z": -1.1184929167,
				"element": "C" 
			},
			{
				"x": 0.3760282347,
				"y": -1.2237068675,
				"z": 0.3774529307,
				"element": "C" 
			},
			{
				"x": 0.5017545236,
				"y": 0.1913500306,
				"z": 0.9495073362,
				"element": "C" 
			},
			{
				"x": -0.0879013982,
				"y": 1.0763414917,
				"z": -0.1570190985,
				"element": "C" 
			},
			{
				"x": 1.4580156688,
				"y": -2.3418562061,
				"z": -5.257705202,
				"element": "H" 
			},
			{
				"x": -0.5714857111,
				"y": 2.8228085833,
				"z": -1.7899246731,
				"element": "H" 
			},
			{
				"x": -0.2085784453,
				"y": 4.1813699018,
				"z": -3.7589412873,
				"element": "H" 
			},
			{
				"x": 0.7846426605,
				"y": 3.1836844113,
				"z": -5.8356582486,
				"element": "H" 
			},
			{
				"x": 1.2240688332,
				"y": 0.7456065084,
				"z": -5.8765689134,
				"element": "H" 
			},
			{
				"x": 1.7183631593,
				"y": -1.079680294,
				"z": -1.3489171175,
				"element": "H" 
			},
			{
				"x": 0.1360643267,
				"y": -1.7779826921,
				"z": -1.7242980918,
				"element": "H" 
			},
			{
				"x": -0.6407681512,
				"y": -1.604918168,
				"z": 0.5254963493,
				"element": "H" 
			},
			{
				"x": 1.0691005942,
				"y": -1.9386093564,
				"z": 0.8291019466,
				"element": "H" 
			},
			{
				"x": -0.0133690031,
				"y": 0.3254859376,
				"z": 1.9046253641,
				"element": "H" 
			},
			{
				"x": 1.5573087694,
				"y": 0.4436955223,
				"z": 1.1015389854,
				"element": "H" 
			},
			{
				"x": -1.158568555,
				"y": 1.2693107344,
				"z": 0.0033118748,
				"element": "H" 
			},
			{
				"x": 0.4185152558,
				"y": 2.0464340779,
				"z": -0.1971978469,
				"element": "H" 
			}
		],
		 "valence_orbital": [ 
			{
				"type": "occ",
				"energy": -0.30323,
				"method": "rhf"
			},
			{
				"type": "occ",
				"energy": -0.2842,
				"method": "rhf"
			},
			{
				"type": "occ",
				"energy": -0.26612,
				"method": "rhf"
			},
			{
				"type": "occ",
				"energy": -0.24659,
				"method": "rhf"
			},
			{
				"type": "occ",
				"energy": -0.1918,
				"method": "rhf"
			},
			{
				"type": "unocc",
				"energy": -0.02659,
				"method": "rhf"
			},
			{
				"type": "unocc",
				"energy": 0.01281,
				"method": "rhf"
			},
			{
				"type": "unocc",
				"energy": 0.04956,
				"method": "rhf"
			},
			{
				"type": "unocc",
				"energy": 0.08246,
				"method": "rhf"
			},
			{
				"type": "unocc",
				"energy": 0.08802,
				"method": "rhf"
			}
		],
		"cosmo_sigma_profile": { 
			"-0.025": 0.0,
			"-0.024": 0.0,
			"-0.023": 0.0,
			"-0.022": 0.0,
			"-0.021": 0.0,
			"-0.02": 0.0,
			"-0.019": 0.0,
			"-0.018": 0.278887592213,
			"-0.017": 0.710652808737,
			"-0.016": 0.621589286022,
			"-0.015": 1.16861749842,
			"-0.014": 0.662594627997,
			"-0.013": 0.707059551493,
			"-0.012": 0.729199499271,
			"-0.011": 0.622316311731,
			"-0.01": 0.725698140099,
			"-0.009": 0.472593476584,
			"-0.008": 0.39814188172,
			"-0.007": 0.586232117404,
			"-0.006": 3.81504029593,
			"-0.005": 9.84264771268,
			"-0.004": 19.171922534,
			"-0.003": 30.0906757238,
			"-0.002": 29.64856016,
			"-0.001": 23.8425333436,
			"0.0": 17.8908683602,
			"0.001": 11.157093856,
			"0.002": 8.29835695554,
			"0.003": 9.21838841928,
			"0.004": 12.9912752929,
			"0.005": 12.9430088848,
			"0.006": 10.3049949835,
			"0.007": 3.50719307655,
			"0.008": 3.73209504198,
			"0.009": 2.3235378579,
			"0.01": 2.4720422826,
			"0.011": 2.71959018518,
			"0.012": 3.90820430227,
			"0.013": 0.603263570706,
			"0.014": 0.0,
			"0.015": 0.0,
			"0.016": 0.0,
			"0.017": 0.0,
			"0.018": 0.0,
			"0.019": 0.0,
			"0.02": 0.0,
			"0.021": 0.0,
			"0.022": 0.0,
			"0.023": 0.0,
			"0.024": 0.0,
			"0.025": 0.0
		}
	}
}
