{
	 "smiles": "CCCCCCCCCCCCCCCCCCOO", 
	 "Tm": 322.65, 
	 "num_atms": 58, 
	 "gaussian": { 
		 "optdone": 1, 
		 "sigma_profile": "yes", 
		 "theory": "DFT", 
		 "functional": "B3LYP", 
		 "basiset": "6-31G**", 
		 "properties": { 
			 "R2extent": 9699.6233, 
			 "electric_dipole_moment_norm": 1.56408443826, 
			 "electric_quadrupole_moment_norm": 7.45866230835, 
			 "total_energy": -859.210634816, 
			 "HOMO_LUMO_gap": 0.27374, 
			 "cosmo_polarized_energy": -6.31, 
			 "cosmo_cavitation_energy": 54.55, 
			 "cosmo_dispersion_energy": -34.42, 
			 "cosmo_repulsion_energy": 2.73, 
			 "cosmo_total_nonelectrostatic_energy": 22.86, 
			 "SMD_solvation_energy": 6.29 
		},
		"coords": [
			{
				"x": 0.1711144986,
				"y": -5.6105974072,
				"z": -0.9193268362,
				"element": "C" 
			},
			{
				"x": -0.2011240031,
				"y": -5.4642881286,
				"z": -2.4010188849,
				"element": "C" 
			},
			{
				"x": 0.2106060273,
				"y": -4.133790372,
				"z": -3.0679094036,
				"element": "C" 
			},
			{
				"x": -0.7916649308,
				"y": -2.9682491875,
				"z": -2.9525956743,
				"element": "C" 
			},
			{
				"x": -1.0428899182,
				"y": -2.3772377545,
				"z": -1.5528246519,
				"element": "C" 
			},
			{
				"x": 0.1866328227,
				"y": -1.7857233086,
				"z": -0.8422744874,
				"element": "C" 
			},
			{
				"x": 0.8491094111,
				"y": -0.611925361,
				"z": -1.5796060733,
				"element": "C" 
			},
			{
				"x": 1.9545444392,
				"y": 0.0681853912,
				"z": -0.7575037236,
				"element": "C" 
			},
			{
				"x": 2.8236347109,
				"y": 1.0674131044,
				"z": -1.5439687917,
				"element": "C" 
			},
			{
				"x": 2.1267150234,
				"y": 2.2737235867,
				"z": -2.2055399008,
				"element": "C" 
			},
			{
				"x": 1.6061984568,
				"y": 3.3793491889,
				"z": -1.2644797107,
				"element": "C" 
			},
			{
				"x": 0.2213651397,
				"y": 3.1435665172,
				"z": -0.6422034361,
				"element": "C" 
			},
			{
				"x": -0.2450983786,
				"y": 4.3206653143,
				"z": 0.2259643021,
				"element": "C" 
			},
			{
				"x": -1.6529230957,
				"y": 4.1586680465,
				"z": 0.8271952606,
				"element": "C" 
			},
			{
				"x": -1.8489293496,
				"y": 2.9434109249,
				"z": 1.7519234537,
				"element": "C" 
			},
			{
				"x": -0.9451958576,
				"y": 2.9447212085,
				"z": 2.9929509089,
				"element": "C" 
			},
			{
				"x": -1.1874976878,
				"y": 1.7702312672,
				"z": 3.9566669661,
				"element": "C" 
			},
			{
				"x": -0.8508235908,
				"y": 0.3900536725,
				"z": 3.3928371731,
				"element": "C" 
			},
			{
				"x": 0.5387657467,
				"y": 0.3970919479,
				"z": 3.0800092848,
				"element": "O" 
			},
			{
				"x": 0.8557320656,
				"y": -0.9555017509,
				"z": 2.631720161,
				"element": "O" 
			},
			{
				"x": -0.109453412,
				"y": -6.6001067649,
				"z": -0.5421930372,
				"element": "H" 
			},
			{
				"x": -0.3226684465,
				"y": -4.8673849568,
				"z": -0.287241426,
				"element": "H" 
			},
			{
				"x": 1.2522041752,
				"y": -5.4989665664,
				"z": -0.7758014689,
				"element": "H" 
			},
			{
				"x": -1.2827316159,
				"y": -5.6118663195,
				"z": -2.5273582895,
				"element": "H" 
			},
			{
				"x": 0.2755574144,
				"y": -6.2866985341,
				"z": -2.9496223497,
				"element": "H" 
			},
			{
				"x": 1.1957236073,
				"y": -3.8274365182,
				"z": -2.6897280904,
				"element": "H" 
			},
			{
				"x": 0.3550551078,
				"y": -4.3201606735,
				"z": -4.1398577899,
				"element": "H" 
			},
			{
				"x": -0.4560930816,
				"y": -2.1642706321,
				"z": -3.6206805791,
				"element": "H" 
			},
			{
				"x": -1.7556961867,
				"y": -3.3038921108,
				"z": -3.3592409973,
				"element": "H" 
			},
			{
				"x": -1.4935466957,
				"y": -3.1398851385,
				"z": -0.9065807556,
				"element": "H" 
			},
			{
				"x": -1.801686795,
				"y": -1.5881811572,
				"z": -1.6503974549,
				"element": "H" 
			},
			{
				"x": 0.9356409692,
				"y": -2.5718957229,
				"z": -0.6764135112,
				"element": "H" 
			},
			{
				"x": -0.1210052533,
				"y": -1.4562263106,
				"z": 0.1592799542,
				"element": "H" 
			},
			{
				"x": 0.0812869919,
				"y": 0.1251341376,
				"z": -1.8497708666,
				"element": "H" 
			},
			{
				"x": 1.279222169,
				"y": -0.9635695207,
				"z": -2.5270599673,
				"element": "H" 
			},
			{
				"x": 1.5079630703,
				"y": 0.5651199482,
				"z": 0.1153678827,
				"element": "H" 
			},
			{
				"x": 2.625250595,
				"y": -0.7089458567,
				"z": -0.3609400522,
				"element": "H" 
			},
			{
				"x": 3.6133871572,
				"y": 1.4448448213,
				"z": -0.8800550257,
				"element": "H" 
			},
			{
				"x": 3.3409213057,
				"y": 0.5050508958,
				"z": -2.3336663648,
				"element": "H" 
			},
			{
				"x": 1.3100979081,
				"y": 1.9302272603,
				"z": -2.8546439259,
				"element": "H" 
			},
			{
				"x": 2.8634774488,
				"y": 2.7283639201,
				"z": -2.8800679058,
				"element": "H" 
			},
			{
				"x": 2.3416313017,
				"y": 3.5484674064,
				"z": -0.4645150318,
				"element": "H" 
			},
			{
				"x": 1.563274297,
				"y": 4.3202300136,
				"z": -1.8301388593,
				"element": "H" 
			},
			{
				"x": -0.5103910075,
				"y": 2.9731686016,
				"z": -1.4456089994,
				"element": "H" 
			},
			{
				"x": 0.2317818257,
				"y": 2.228650082,
				"z": -0.0405183896,
				"element": "H" 
			},
			{
				"x": 0.4854802532,
				"y": 4.485959162,
				"z": 1.0289490935,
				"element": "H" 
			},
			{
				"x": -0.2312260228,
				"y": 5.2367841164,
				"z": -0.3802694636,
				"element": "H" 
			},
			{
				"x": -2.3824816647,
				"y": 4.0953142463,
				"z": 0.0082727619,
				"element": "H" 
			},
			{
				"x": -1.902429241,
				"y": 5.0719197218,
				"z": 1.3846688472,
				"element": "H" 
			},
			{
				"x": -2.8988036315,
				"y": 2.9192264384,
				"z": 2.075816829,
				"element": "H" 
			},
			{
				"x": -1.6928348889,
				"y": 2.0216990862,
				"z": 1.1781466108,
				"element": "H" 
			},
			{
				"x": -1.1002841232,
				"y": 3.8821532894,
				"z": 3.5438763344,
				"element": "H" 
			},
			{
				"x": 0.107869062,
				"y": 2.936660178,
				"z": 2.6918378278,
				"element": "H" 
			},
			{
				"x": -2.2417814343,
				"y": 1.746617345,
				"z": 4.2632361391,
				"element": "H" 
			},
			{
				"x": -0.5985822518,
				"y": 1.9195136931,
				"z": 4.8692717139,
				"element": "H" 
			},
			{
				"x": -1.0549222091,
				"y": -0.3890173152,
				"z": 4.1391454368,
				"element": "H" 
			},
			{
				"x": -1.4363188213,
				"y": 0.1597091887,
				"z": 2.492522247,
				"element": "H" 
			},
			{
				"x": 1.3266405933,
				"y": -0.7464763541,
				"z": 1.8088629875,
				"element": "H" 
			}
		],
		 "valence_orbital": [ 
			{
				"type": "occ",
				"energy": -0.3026,
				"method": "rhf"
			},
			{
				"type": "occ",
				"energy": -0.30066,
				"method": "rhf"
			},
			{
				"type": "occ",
				"energy": -0.29815,
				"method": "rhf"
			},
			{
				"type": "occ",
				"energy": -0.2957,
				"method": "rhf"
			},
			{
				"type": "occ",
				"energy": -0.24603,
				"method": "rhf"
			},
			{
				"type": "unocc",
				"energy": 0.02771,
				"method": "rhf"
			},
			{
				"type": "unocc",
				"energy": 0.05662,
				"method": "rhf"
			},
			{
				"type": "unocc",
				"energy": 0.08036,
				"method": "rhf"
			},
			{
				"type": "unocc",
				"energy": 0.08689,
				"method": "rhf"
			},
			{
				"type": "unocc",
				"energy": 0.09265,
				"method": "rhf"
			}
		],
		"cosmo_sigma_profile": { 
			"-0.025": 0.0,
			"-0.024": 0.0,
			"-0.023": 0.0,
			"-0.022": 0.0,
			"-0.021": 0.0,
			"-0.02": 0.0,
			"-0.019": 0.0,
			"-0.018": 0.0,
			"-0.017": 0.0,
			"-0.016": 0.0,
			"-0.015": 0.0,
			"-0.014": 0.0,
			"-0.013": 0.0,
			"-0.012": 0.0,
			"-0.011": 0.0,
			"-0.01": 0.357372050243,
			"-0.009": 1.65166564623,
			"-0.008": 1.57923122163,
			"-0.007": 1.05558161559,
			"-0.006": 1.65487017509,
			"-0.005": 1.94727969786,
			"-0.004": 6.96567659233,
			"-0.003": 18.2910516516,
			"-0.002": 50.5613131579,
			"-0.001": 97.0165018644,
			"0.0": 103.180805674,
			"0.001": 74.5780753317,
			"0.002": 29.4632808214,
			"0.003": 4.08122390916,
			"0.004": 3.17835072315,
			"0.005": 2.5438914191,
			"0.006": 2.49250289246,
			"0.007": 2.09279028496,
			"0.008": 2.29974453663,
			"0.009": 2.60961020198,
			"0.01": 3.35363675218,
			"0.011": 2.55799128418,
			"0.012": 2.71878940304,
			"0.013": 0.249452050006,
			"0.014": 0.0,
			"0.015": 0.0,
			"0.016": 0.0,
			"0.017": 0.0,
			"0.018": 0.0,
			"0.019": 0.0,
			"0.02": 0.0,
			"0.021": 0.0,
			"0.022": 0.0,
			"0.023": 0.0,
			"0.024": 0.0,
			"0.025": 0.0
		}
	}
}
