{
	 "smiles": "CC(=O)C(C=N)C1=CC=CC=C1", 
	 "Tm": 369.15, 
	 "num_atms": 23, 
	 "gaussian": { 
		 "optdone": 1, 
		 "sigma_profile": "yes", 
		 "theory": "DFT", 
		 "functional": "B3LYP", 
		 "basiset": "6-31G**", 
		 "properties": { 
			 "R2extent": 2172.7054, 
			 "electric_dipole_moment_norm": 4.43865616037, 
			 "electric_quadrupole_moment_norm": 15.0695350983, 
			 "total_energy": -517.645929014, 
			 "HOMO_LUMO_gap": 0.20945, 
			 "cosmo_polarized_energy": -13.04, 
			 "cosmo_cavitation_energy": 26.98, 
			 "cosmo_dispersion_energy": -18.54, 
			 "cosmo_repulsion_energy": 1.5, 
			 "cosmo_total_nonelectrostatic_energy": 9.94, 
			 "SMD_solvation_energy": 4.55 
		},
		"coords": [
			{
				"x": 0.3012090757,
				"y": 2.326083198,
				"z": 1.7518946319,
				"element": "C" 
			},
			{
				"x": -0.3424872559,
				"y": 2.1425396826,
				"z": 0.3926348481,
				"element": "C" 
			},
			{
				"x": -1.4896319136,
				"y": 2.4732861533,
				"z": 0.1638484467,
				"element": "O" 
			},
			{
				"x": 0.5254825448,
				"y": 1.4908199731,
				"z": -0.7040544303,
				"element": "C" 
			},
			{
				"x": 0.0549884501,
				"y": 1.9498398558,
				"z": -2.0852683665,
				"element": "C" 
			},
			{
				"x": -0.1546374944,
				"y": 1.2539092706,
				"z": -3.1245292912,
				"element": "N" 
			},
			{
				"x": 0.5390840805,
				"y": -0.0186726054,
				"z": -0.5128525292,
				"element": "C" 
			},
			{
				"x": 1.7434237778,
				"y": -0.7110533137,
				"z": -0.3309488539,
				"element": "C" 
			},
			{
				"x": 1.7493449246,
				"y": -2.0955859726,
				"z": -0.1531493478,
				"element": "C" 
			},
			{
				"x": 0.5481057615,
				"y": -2.8063352421,
				"z": -0.1559183264,
				"element": "C" 
			},
			{
				"x": -0.65792787,
				"y": -2.1262030367,
				"z": -0.3385219497,
				"element": "C" 
			},
			{
				"x": -0.6642926237,
				"y": -0.7423140515,
				"z": -0.5151443346,
				"element": "C" 
			},
			{
				"x": 0.7987323788,
				"y": 1.4057861156,
				"z": 2.074443661,
				"element": "H" 
			},
			{
				"x": -0.4523702308,
				"y": 2.6236391423,
				"z": 2.4821699601,
				"element": "H" 
			},
			{
				"x": 1.0712303634,
				"y": 3.1052772995,
				"z": 1.6911605036,
				"element": "H" 
			},
			{
				"x": 1.5534700235,
				"y": 1.8610676581,
				"z": -0.5752142892,
				"element": "H" 
			},
			{
				"x": -0.0857606508,
				"y": 3.0326586841,
				"z": -2.1679172995,
				"element": "H" 
			},
			{
				"x": -0.0037904861,
				"y": 0.2574742759,
				"z": -2.9277360182,
				"element": "H" 
			},
			{
				"x": 2.6826120766,
				"y": -0.1632673717,
				"z": -0.3333227201,
				"element": "H" 
			},
			{
				"x": 2.6919223672,
				"y": -2.6172265807,
				"z": -0.0143750198,
				"element": "H" 
			},
			{
				"x": 0.5514863529,
				"y": -3.8835993208,
				"z": -0.0180428652,
				"element": "H" 
			},
			{
				"x": -1.5966053025,
				"y": -2.6725855633,
				"z": -0.3418530686,
				"element": "H" 
			},
			{
				"x": -1.6034883496,
				"y": -0.2133382502,
				"z": -0.6491033414,
				"element": "H" 
			}
		],
		 "valence_orbital": [ 
			{
				"type": "occ",
				"energy": -0.31144,
				"method": "rhf"
			},
			{
				"type": "occ",
				"energy": -0.27083,
				"method": "rhf"
			},
			{
				"type": "occ",
				"energy": -0.26542,
				"method": "rhf"
			},
			{
				"type": "occ",
				"energy": -0.25858,
				"method": "rhf"
			},
			{
				"type": "occ",
				"energy": -0.24411,
				"method": "rhf"
			},
			{
				"type": "unocc",
				"energy": -0.03466,
				"method": "rhf"
			},
			{
				"type": "unocc",
				"energy": -0.01671,
				"method": "rhf"
			},
			{
				"type": "unocc",
				"energy": -0.00376,
				"method": "rhf"
			},
			{
				"type": "unocc",
				"energy": 0.00251,
				"method": "rhf"
			},
			{
				"type": "unocc",
				"energy": 0.08272,
				"method": "rhf"
			}
		],
		"cosmo_sigma_profile": { 
			"-0.025": 0.0,
			"-0.024": 0.0,
			"-0.023": 0.0,
			"-0.022": 0.0,
			"-0.021": 0.0,
			"-0.02": 0.0,
			"-0.019": 0.0,
			"-0.018": 0.0,
			"-0.017": 0.0,
			"-0.016": 0.0,
			"-0.015": 0.0,
			"-0.014": 0.0,
			"-0.013": 0.0,
			"-0.012": 0.0,
			"-0.011": 0.0,
			"-0.01": 0.0,
			"-0.009": 0.21029224742,
			"-0.008": 4.14443333491,
			"-0.007": 9.42852087167,
			"-0.006": 14.4269813471,
			"-0.005": 18.5135136607,
			"-0.004": 20.5533740682,
			"-0.003": 18.4852686806,
			"-0.002": 18.7673331624,
			"-0.001": 16.7864102738,
			"0.0": 11.6544844866,
			"0.001": 10.8765000213,
			"0.002": 10.5978448137,
			"0.003": 9.20543999147,
			"0.004": 9.16640580885,
			"0.005": 10.0860056111,
			"0.006": 4.08841288438,
			"0.007": 2.39891326433,
			"0.008": 3.02068236218,
			"0.009": 3.53145795158,
			"0.01": 3.41955281139,
			"0.011": 4.84746636527,
			"0.012": 3.91296951814,
			"0.013": 1.29965294803,
			"0.014": 1.28403735131,
			"0.015": 1.41004534626,
			"0.016": 0.663926264309,
			"0.017": 1.22804403006,
			"0.018": 0.213024134881,
			"0.019": 0.0,
			"0.02": 0.0,
			"0.021": 0.0,
			"0.022": 0.0,
			"0.023": 0.0,
			"0.024": 0.0,
			"0.025": 0.0
		}
	}
}
