{
	 "smiles": "OC(=O)C1=C(O)C(F)=C(F)C=C1", 
	 "Tm": 451.15, 
	 "num_atms": 16, 
	 "gaussian": { 
		 "optdone": 1, 
		 "sigma_profile": "yes", 
		 "theory": "DFT", 
		 "functional": "B3LYP", 
		 "basiset": "6-31G**", 
		 "properties": { 
			 "R2extent": 2275.4547, 
			 "electric_dipole_moment_norm": 4.19681485534, 
			 "electric_quadrupole_moment_norm": 19.1192139062, 
			 "total_energy": -694.495111967, 
			 "HOMO_LUMO_gap": 0.20866, 
			 "cosmo_polarized_energy": -13.46, 
			 "cosmo_cavitation_energy": 21.83, 
			 "cosmo_dispersion_energy": -16.38, 
			 "cosmo_repulsion_energy": 1.25, 
			 "cosmo_total_nonelectrostatic_energy": 6.7, 
			 "SMD_solvation_energy": 6.26 
		},
		"coords": [
			{
				"x": -0.3979020258,
				"y": 3.1493693291,
				"z": 0.0473267509,
				"element": "O" 
			},
			{
				"x": 0.3021184337,
				"y": 2.3842986601,
				"z": 0.9070015351,
				"element": "C" 
			},
			{
				"x": 0.5688713972,
				"y": 2.7906721747,
				"z": 2.0160539442,
				"element": "O" 
			},
			{
				"x": 0.7377338257,
				"y": 1.0183668729,
				"z": 0.4445241331,
				"element": "C" 
			},
			{
				"x": 0.4693768722,
				"y": 0.4743585917,
				"z": -0.8227996522,
				"element": "C" 
			},
			{
				"x": -0.2346921435,
				"y": 1.1787723813,
				"z": -1.7590238289,
				"element": "O" 
			},
			{
				"x": 0.924656824,
				"y": -0.8045602691,
				"z": -1.1403264814,
				"element": "C" 
			},
			{
				"x": 0.640826164,
				"y": -1.2854130876,
				"z": -2.3749082926,
				"element": "F" 
			},
			{
				"x": 1.6434002823,
				"y": -1.5563847285,
				"z": -0.2214405081,
				"element": "C" 
			},
			{
				"x": 2.0587719981,
				"y": -2.7791888869,
				"z": -0.5739172866,
				"element": "F" 
			},
			{
				"x": 1.9212802914,
				"y": -1.0382443668,
				"z": 1.0403502775,
				"element": "C" 
			},
			{
				"x": 1.4664737642,
				"y": 0.2372983033,
				"z": 1.3552019645,
				"element": "C" 
			},
			{
				"x": -0.5341359887,
				"y": 2.6913088484,
				"z": -0.800003311,
				"element": "H" 
			},
			{
				"x": -0.3189823712,
				"y": 0.6456634917,
				"z": -2.563717216,
				"element": "H" 
			},
			{
				"x": 2.4837155452,
				"y": -1.6383750796,
				"z": 1.7461833093,
				"element": "H" 
			},
			{
				"x": 1.6630871311,
				"y": 0.6748577654,
				"z": 2.3272946625,
				"element": "H" 
			}
		],
		 "valence_orbital": [ 
			{
				"type": "occ",
				"energy": -0.36315,
				"method": "rhf"
			},
			{
				"type": "occ",
				"energy": -0.31051,
				"method": "rhf"
			},
			{
				"type": "occ",
				"energy": -0.27441,
				"method": "rhf"
			},
			{
				"type": "occ",
				"energy": -0.27038,
				"method": "rhf"
			},
			{
				"type": "occ",
				"energy": -0.26373,
				"method": "rhf"
			},
			{
				"type": "unocc",
				"energy": -0.05507,
				"method": "rhf"
			},
			{
				"type": "unocc",
				"energy": -0.02474,
				"method": "rhf"
			},
			{
				"type": "unocc",
				"energy": 0.02129,
				"method": "rhf"
			},
			{
				"type": "unocc",
				"energy": 0.05187,
				"method": "rhf"
			},
			{
				"type": "unocc",
				"energy": 0.0707,
				"method": "rhf"
			}
		],
		"cosmo_sigma_profile": { 
			"-0.025": 0.0,
			"-0.024": 0.0,
			"-0.023": 0.0,
			"-0.022": 0.0,
			"-0.021": 0.0,
			"-0.02": 0.0,
			"-0.019": 0.273202549138,
			"-0.018": 0.61554290933,
			"-0.017": 0.485507692143,
			"-0.016": 1.3396653732,
			"-0.015": 0.775368844274,
			"-0.014": 0.490447914917,
			"-0.013": 0.88580888532,
			"-0.012": 1.25904017535,
			"-0.011": 0.795223842366,
			"-0.01": 1.62109701246,
			"-0.009": 1.94403964647,
			"-0.008": 3.90124042256,
			"-0.007": 4.66535896252,
			"-0.006": 7.48690148012,
			"-0.005": 7.43631763049,
			"-0.004": 6.63191031028,
			"-0.003": 10.8865804019,
			"-0.002": 16.8112753658,
			"-0.001": 16.145697241,
			"0.0": 13.0371264989,
			"0.001": 14.1857884907,
			"0.002": 15.1201756909,
			"0.003": 17.9089049903,
			"0.004": 2.78979153072,
			"0.005": 2.05096937565,
			"0.006": 1.97273700172,
			"0.007": 2.27679000021,
			"0.008": 2.80578480054,
			"0.009": 3.1632772348,
			"0.01": 3.88172490164,
			"0.011": 5.62013025399,
			"0.012": 4.83848533455,
			"0.013": 2.00508404558,
			"0.014": 0.187845112255,
			"0.015": 0.0,
			"0.016": 0.0,
			"0.017": 0.0,
			"0.018": 0.0,
			"0.019": 0.0,
			"0.02": 0.0,
			"0.021": 0.0,
			"0.022": 0.0,
			"0.023": 0.0,
			"0.024": 0.0,
			"0.025": 0.0
		}
	}
}
