{
	 "smiles": "COC1=C(OC)C(=O)OC1C(O)CBr", 
	 "Tm": 369.15, 
	 "num_atms": 25, 
	 "gaussian": { 
		 "optdone": 1, 
		 "sigma_profile": "yes", 
		 "theory": "DFT", 
		 "functional": "B3LYP", 
		 "basiset": "6-31G**", 
		 "properties": { 
			 "R2extent": 5346.2097, 
			 "electric_dipole_moment_norm": 5.90874207086, 
			 "electric_quadrupole_moment_norm": 13.167779672, 
			 "total_energy": -3258.95058034, 
			 "HOMO_LUMO_gap": 0.20008, 
			 "cosmo_polarized_energy": -19.84, 
			 "cosmo_cavitation_energy": 31.28, 
			 "cosmo_dispersion_energy": -22.02, 
			 "cosmo_repulsion_energy": 1.78, 
			 "cosmo_total_nonelectrostatic_energy": 11.05, 
			 "SMD_solvation_energy": 6.62 
		},
		"coords": [
			{
				"x": -0.7918489127,
				"y": -0.1814770682,
				"z": 2.5731768943,
				"element": "C" 
			},
			{
				"x": -0.0653730268,
				"y": 0.742216461,
				"z": 1.7508353586,
				"element": "O" 
			},
			{
				"x": 0.2304173618,
				"y": 0.3309154129,
				"z": 0.4891944222,
				"element": "C" 
			},
			{
				"x": 1.3987746386,
				"y": 0.4748149727,
				"z": -0.1731677666,
				"element": "C" 
			},
			{
				"x": 2.6107915355,
				"y": 0.9572169871,
				"z": 0.1432465587,
				"element": "O" 
			},
			{
				"x": 2.8574854344,
				"y": 1.2964801344,
				"z": 1.5104223925,
				"element": "C" 
			},
			{
				"x": 1.2135968795,
				"y": -0.0112483889,
				"z": -1.5621908488,
				"element": "C" 
			},
			{
				"x": 1.9990370194,
				"y": -0.0575093785,
				"z": -2.4697253985,
				"element": "O" 
			},
			{
				"x": -0.0926479288,
				"y": -0.4513301234,
				"z": -1.6843138644,
				"element": "O" 
			},
			{
				"x": -0.798856355,
				"y": -0.2575366016,
				"z": -0.4462318549,
				"element": "C" 
			},
			{
				"x": -2.0566905059,
				"y": 0.6020730574,
				"z": -0.7273347129,
				"element": "C" 
			},
			{
				"x": -2.8823351908,
				"y": -0.0837516546,
				"z": -1.6413755753,
				"element": "O" 
			},
			{
				"x": -1.6886699938,
				"y": 2.0135989179,
				"z": -1.1858514573,
				"element": "C" 
			},
			{
				"x": -3.2913298355,
				"y": 3.1284458148,
				"z": -1.4466027366,
				"element": "Br" 
			},
			{
				"x": -0.9049231987,
				"y": 0.3053009829,
				"z": 3.5422963483,
				"element": "H" 
			},
			{
				"x": -0.2353836965,
				"y": -1.1180572132,
				"z": 2.69485185,
				"element": "H" 
			},
			{
				"x": -1.7855114919,
				"y": -0.3974812627,
				"z": 2.1654033465,
				"element": "H" 
			},
			{
				"x": 2.751578602,
				"y": 0.4188647699,
				"z": 2.1577545469,
				"element": "H" 
			},
			{
				"x": 2.1789564855,
				"y": 2.0815926377,
				"z": 1.8555588006,
				"element": "H" 
			},
			{
				"x": 3.8876435779,
				"y": 1.6525274743,
				"z": 1.5421119029,
				"element": "H" 
			},
			{
				"x": -1.1580790296,
				"y": -1.2426124006,
				"z": -0.1215248009,
				"element": "H" 
			},
			{
				"x": -2.6323217213,
				"y": 0.6766070863,
				"z": 0.2016252109,
				"element": "H" 
			},
			{
				"x": -2.3580059436,
				"y": -0.2441796403,
				"z": -2.4401420759,
				"element": "H" 
			},
			{
				"x": -1.0842451535,
				"y": 2.5314836409,
				"z": -0.4424155981,
				"element": "H" 
			},
			{
				"x": -1.1668595503,
				"y": 2.0038453818,
				"z": -2.1430009422,
				"element": "H" 
			}
		],
		 "valence_orbital": [ 
			{
				"type": "occ",
				"energy": -0.29376,
				"method": "rhf"
			},
			{
				"type": "occ",
				"energy": -0.28045,
				"method": "rhf"
			},
			{
				"type": "occ",
				"energy": -0.27331,
				"method": "rhf"
			},
			{
				"type": "occ",
				"energy": -0.27203,
				"method": "rhf"
			},
			{
				"type": "occ",
				"energy": -0.23825,
				"method": "rhf"
			},
			{
				"type": "unocc",
				"energy": -0.03817,
				"method": "rhf"
			},
			{
				"type": "unocc",
				"energy": -0.00329,
				"method": "rhf"
			},
			{
				"type": "unocc",
				"energy": 0.0444,
				"method": "rhf"
			},
			{
				"type": "unocc",
				"energy": 0.06817,
				"method": "rhf"
			},
			{
				"type": "unocc",
				"energy": 0.0755,
				"method": "rhf"
			}
		],
		"cosmo_sigma_profile": { 
			"-0.025": 0.0,
			"-0.024": 0.0,
			"-0.023": 0.0,
			"-0.022": 0.0,
			"-0.021": 0.0,
			"-0.02": 0.0,
			"-0.019": 0.0,
			"-0.018": 0.0,
			"-0.017": 0.0,
			"-0.016": 0.00119442904664,
			"-0.015": 0.353780920455,
			"-0.014": 0.743028447691,
			"-0.013": 0.641498198273,
			"-0.012": 0.843417023718,
			"-0.011": 1.05174620443,
			"-0.01": 1.34723813039,
			"-0.009": 3.29029731193,
			"-0.008": 7.29028105506,
			"-0.007": 10.530918421,
			"-0.006": 19.1366486034,
			"-0.005": 22.6790877522,
			"-0.004": 24.5475303964,
			"-0.003": 19.9072819486,
			"-0.002": 14.6204998522,
			"-0.001": 11.1840385248,
			"0.0": 9.60736920886,
			"0.001": 9.08291143606,
			"0.002": 6.72082875155,
			"0.003": 9.70334272318,
			"0.004": 9.73912558802,
			"0.005": 11.0481258929,
			"0.006": 13.1783832189,
			"0.007": 6.88295399409,
			"0.008": 6.38706076009,
			"0.009": 5.3882448278,
			"0.01": 4.93384181582,
			"0.011": 8.93386173849,
			"0.012": 7.53533208273,
			"0.013": 2.55318366779,
			"0.014": 0.128658720134,
			"0.015": 0.0,
			"0.016": 0.0,
			"0.017": 0.0,
			"0.018": 0.0,
			"0.019": 0.0,
			"0.02": 0.0,
			"0.021": 0.0,
			"0.022": 0.0,
			"0.023": 0.0,
			"0.024": 0.0,
			"0.025": 0.0
		}
	}
}
