{
	 "smiles": "CNC(=O)CNC1=C(C)C=CC=C1", 
	 "Tm": 386.15, 
	 "num_atms": 27, 
	 "gaussian": { 
		 "optdone": 1, 
		 "sigma_profile": "yes", 
		 "theory": "DFT", 
		 "functional": "B3LYP", 
		 "basiset": "6-31G**", 
		 "properties": { 
			 "R2extent": 3215.4603, 
			 "electric_dipole_moment_norm": 3.73878603961, 
			 "electric_quadrupole_moment_norm": 16.3104235849, 
			 "total_energy": -574.251855636, 
			 "HOMO_LUMO_gap": 0.20742, 
			 "cosmo_polarized_energy": -13.67, 
			 "cosmo_cavitation_energy": 29.7, 
			 "cosmo_dispersion_energy": -21.29, 
			 "cosmo_repulsion_energy": 1.72, 
			 "cosmo_total_nonelectrostatic_energy": 10.13, 
			 "SMD_solvation_energy": 5.23 
		},
		"coords": [
			{
				"x": 1.56548518,
				"y": -2.2824051645,
				"z": -2.0239524258,
				"element": "C" 
			},
			{
				"x": 1.3624407195,
				"y": -0.9145039313,
				"z": -1.5900319522,
				"element": "N" 
			},
			{
				"x": 1.1883779911,
				"y": 0.112365778,
				"z": -2.4608073079,
				"element": "C" 
			},
			{
				"x": 1.2262561318,
				"y": 0.0116763665,
				"z": -3.6821101132,
				"element": "O" 
			},
			{
				"x": 0.9839569297,
				"y": 1.4866412471,
				"z": -1.799432171,
				"element": "C" 
			},
			{
				"x": 0.5821204767,
				"y": 1.4441229755,
				"z": -0.4000866565,
				"element": "N" 
			},
			{
				"x": -0.7755465416,
				"y": 1.3295328444,
				"z": -0.0449506215,
				"element": "C" 
			},
			{
				"x": -1.170375654,
				"y": 1.6509940353,
				"z": 1.2769825724,
				"element": "C" 
			},
			{
				"x": -0.1580904454,
				"y": 2.1446420461,
				"z": 2.2825978155,
				"element": "C" 
			},
			{
				"x": -2.5123869245,
				"y": 1.4981497537,
				"z": 1.6296471154,
				"element": "C" 
			},
			{
				"x": -3.4665158671,
				"y": 1.0358175273,
				"z": 0.7205837106,
				"element": "C" 
			},
			{
				"x": -3.0660000691,
				"y": 0.7159953237,
				"z": -0.5743424872,
				"element": "C" 
			},
			{
				"x": -1.732388688,
				"y": 0.8601506327,
				"z": -0.9586090194,
				"element": "C" 
			},
			{
				"x": 2.5064944897,
				"y": -2.6871567043,
				"z": -1.6344716705,
				"element": "H" 
			},
			{
				"x": 0.7441478547,
				"y": -2.9312473524,
				"z": -1.6985028423,
				"element": "H" 
			},
			{
				"x": 1.6043254096,
				"y": -2.2771885119,
				"z": -3.1142662767,
				"element": "H" 
			},
			{
				"x": 1.2567923366,
				"y": -0.6925920873,
				"z": -0.6091670445,
				"element": "H" 
			},
			{
				"x": 0.2790151724,
				"y": 2.040143614,
				"z": -2.4324623654,
				"element": "H" 
			},
			{
				"x": 1.9450792507,
				"y": 2.0072392361,
				"z": -1.8644910947,
				"element": "H" 
			},
			{
				"x": 1.0903717509,
				"y": 2.0942956757,
				"z": 0.1816804781,
				"element": "H" 
			},
			{
				"x": -0.6235184179,
				"y": 2.3013313774,
				"z": 3.2586967583,
				"element": "H" 
			},
			{
				"x": 0.2914399009,
				"y": 3.1032199001,
				"z": 1.9847249331,
				"element": "H" 
			},
			{
				"x": 0.6657377919,
				"y": 1.4318182403,
				"z": 2.4174259694,
				"element": "H" 
			},
			{
				"x": -2.8131885859,
				"y": 1.7491116019,
				"z": 2.6441777544,
				"element": "H" 
			},
			{
				"x": -4.5031057977,
				"y": 0.9258740592,
				"z": 1.0235014631,
				"element": "H" 
			},
			{
				"x": -3.7893075615,
				"y": 0.3514521547,
				"z": -1.298255971,
				"element": "H" 
			},
			{
				"x": -1.4406168338,
				"y": 0.5994193621,
				"z": -1.9699785505,
				"element": "H" 
			}
		],
		 "valence_orbital": [ 
			{
				"type": "occ",
				"energy": -0.30356,
				"method": "rhf"
			},
			{
				"type": "occ",
				"energy": -0.24632,
				"method": "rhf"
			},
			{
				"type": "occ",
				"energy": -0.24351,
				"method": "rhf"
			},
			{
				"type": "occ",
				"energy": -0.24069,
				"method": "rhf"
			},
			{
				"type": "occ",
				"energy": -0.204,
				"method": "rhf"
			},
			{
				"type": "unocc",
				"energy": 0.00342,
				"method": "rhf"
			},
			{
				"type": "unocc",
				"energy": 0.01437,
				"method": "rhf"
			},
			{
				"type": "unocc",
				"energy": 0.03335,
				"method": "rhf"
			},
			{
				"type": "unocc",
				"energy": 0.07177,
				"method": "rhf"
			},
			{
				"type": "unocc",
				"energy": 0.10168,
				"method": "rhf"
			}
		],
		"cosmo_sigma_profile": { 
			"-0.025": 0.0,
			"-0.024": 0.0,
			"-0.023": 0.0,
			"-0.022": 0.0,
			"-0.021": 0.0,
			"-0.02": 0.0,
			"-0.019": 0.0,
			"-0.018": 0.0,
			"-0.017": 0.0,
			"-0.016": 0.0,
			"-0.015": 0.0,
			"-0.014": 0.0,
			"-0.013": 0.190636543211,
			"-0.012": 1.20863871181,
			"-0.011": 1.84381700282,
			"-0.01": 2.11368598455,
			"-0.009": 2.43289045826,
			"-0.008": 3.30104836623,
			"-0.007": 5.20175319478,
			"-0.006": 4.19813343432,
			"-0.005": 13.2712237498,
			"-0.004": 24.8882852906,
			"-0.003": 24.8827808359,
			"-0.002": 25.8369886926,
			"-0.001": 20.9627379775,
			"0.0": 16.8377662857,
			"0.001": 12.2371773559,
			"0.002": 13.5919738482,
			"0.003": 8.39018369571,
			"0.004": 8.46752324558,
			"0.005": 8.65397053286,
			"0.006": 8.24199645872,
			"0.007": 8.54928208475,
			"0.008": 3.29583708642,
			"0.009": 1.18317178482,
			"0.01": 0.454262251208,
			"0.011": 1.36228604088,
			"0.012": 2.19320941265,
			"0.013": 1.91643214244,
			"0.014": 5.37707247537,
			"0.015": 2.95199361432,
			"0.016": 0.166605361073,
			"0.017": 0.0,
			"0.018": 0.0,
			"0.019": 0.0,
			"0.02": 0.0,
			"0.021": 0.0,
			"0.022": 0.0,
			"0.023": 0.0,
			"0.024": 0.0,
			"0.025": 0.0
		}
	}
}
