{
	 "smiles": "CC(NC(=O)CC(F)(F)F)C(O)=O", 
	 "Tm": 379.15, 
	 "num_atms": 21, 
	 "gaussian": { 
		 "optdone": 1, 
		 "sigma_profile": "yes", 
		 "theory": "DFT", 
		 "functional": "B3LYP", 
		 "basiset": "6-31G**", 
		 "properties": { 
			 "R2extent": 4446.2011, 
			 "electric_dipole_moment_norm": 2.43770191164, 
			 "electric_quadrupole_moment_norm": 14.2722876187, 
			 "total_energy": -813.449750966, 
			 "HOMO_LUMO_gap": 0.25149, 
			 "cosmo_polarized_energy": -13.5, 
			 "cosmo_cavitation_energy": 27.0, 
			 "cosmo_dispersion_energy": -18.51, 
			 "cosmo_repulsion_energy": 1.45, 
			 "cosmo_total_nonelectrostatic_energy": 9.94, 
			 "SMD_solvation_energy": 7.1 
		},
		"coords": [
			{
				"x": 0.2154529505,
				"y": 1.1240636024,
				"z": -1.025201756,
				"element": "C" 
			},
			{
				"x": -0.5351824756,
				"y": -0.1759647289,
				"z": -1.3739941642,
				"element": "C" 
			},
			{
				"x": -1.2992226622,
				"y": -0.6994480722,
				"z": -0.2538255337,
				"element": "N" 
			},
			{
				"x": -2.4966684165,
				"y": -0.1545218826,
				"z": 0.0874304527,
				"element": "C" 
			},
			{
				"x": -2.9570383992,
				"y": 0.8428302504,
				"z": -0.4554981631,
				"element": "O" 
			},
			{
				"x": -3.2367473796,
				"y": -0.8171808526,
				"z": 1.257863028,
				"element": "C" 
			},
			{
				"x": -3.3843555525,
				"y": -2.3211102774,
				"z": 1.1826854419,
				"element": "C" 
			},
			{
				"x": -2.1831900663,
				"y": -2.9537216843,
				"z": 1.2854187117,
				"element": "F" 
			},
			{
				"x": -4.1544713814,
				"y": -2.7801807567,
				"z": 2.1891459911,
				"element": "F" 
			},
			{
				"x": -3.9431596899,
				"y": -2.7159862675,
				"z": 0.0226339539,
				"element": "F" 
			},
			{
				"x": 0.4266407928,
				"y": -1.2668547318,
				"z": -1.8167506281,
				"element": "C" 
			},
			{
				"x": 1.0726971164,
				"y": -0.9348891617,
				"z": -2.9509286484,
				"element": "O" 
			},
			{
				"x": 0.6148585362,
				"y": -2.3082790112,
				"z": -1.2238448961,
				"element": "O" 
			},
			{
				"x": 0.7635146587,
				"y": 1.4942743963,
				"z": -1.894824369,
				"element": "H" 
			},
			{
				"x": -0.5156215633,
				"y": 1.8740368717,
				"z": -0.7185590616,
				"element": "H" 
			},
			{
				"x": 0.9196903623,
				"y": 0.9547883796,
				"z": -0.2051376702,
				"element": "H" 
			},
			{
				"x": -1.21957737,
				"y": 0.0377820449,
				"z": -2.2039733513,
				"element": "H" 
			},
			{
				"x": -0.9932398854,
				"y": -1.5856205778,
				"z": 0.1303224428,
				"element": "H" 
			},
			{
				"x": -4.2340723136,
				"y": -0.377169884,
				"z": 1.2886224508,
				"element": "H" 
			},
			{
				"x": -2.728601482,
				"y": -0.581129064,
				"z": 2.198443844,
				"element": "H" 
			},
			{
				"x": 1.6759942207,
				"y": -1.6700185928,
				"z": -3.1529280753,
				"element": "H" 
			}
		],
		 "valence_orbital": [ 
			{
				"type": "occ",
				"energy": -0.362,
				"method": "rhf"
			},
			{
				"type": "occ",
				"energy": -0.33941,
				"method": "rhf"
			},
			{
				"type": "occ",
				"energy": -0.29844,
				"method": "rhf"
			},
			{
				"type": "occ",
				"energy": -0.26653,
				"method": "rhf"
			},
			{
				"type": "occ",
				"energy": -0.26234,
				"method": "rhf"
			},
			{
				"type": "unocc",
				"energy": -0.01085,
				"method": "rhf"
			},
			{
				"type": "unocc",
				"energy": 0.01144,
				"method": "rhf"
			},
			{
				"type": "unocc",
				"energy": 0.06082,
				"method": "rhf"
			},
			{
				"type": "unocc",
				"energy": 0.09907,
				"method": "rhf"
			},
			{
				"type": "unocc",
				"energy": 0.11211,
				"method": "rhf"
			}
		],
		"cosmo_sigma_profile": { 
			"-0.025": 0.0,
			"-0.024": 0.0,
			"-0.023": 0.0,
			"-0.022": 0.0,
			"-0.021": 0.0,
			"-0.02": 0.0,
			"-0.019": 0.65747686977,
			"-0.018": 1.00257043708,
			"-0.017": 0.901966388147,
			"-0.016": 0.487818351207,
			"-0.015": 1.19674642803,
			"-0.014": 0.599979217151,
			"-0.013": 0.544262841089,
			"-0.012": 0.579898378219,
			"-0.011": 0.627685198889,
			"-0.01": 0.954888240275,
			"-0.009": 3.60397577749,
			"-0.008": 6.25609397981,
			"-0.007": 7.63609362594,
			"-0.006": 6.93801374455,
			"-0.005": 11.1605770369,
			"-0.004": 11.3701091253,
			"-0.003": 13.9837656783,
			"-0.002": 12.2873101598,
			"-0.001": 16.3890304317,
			"0.0": 17.1357734413,
			"0.001": 12.8020996745,
			"0.002": 28.1056496763,
			"0.003": 18.8214506902,
			"0.004": 3.57264848059,
			"0.005": 3.56835169016,
			"0.006": 4.14725746538,
			"0.007": 3.89382016036,
			"0.008": 3.85225929877,
			"0.009": 3.58157582227,
			"0.01": 4.25110935478,
			"0.011": 4.05086069355,
			"0.012": 2.86900797834,
			"0.013": 4.359061345,
			"0.014": 1.25817952886,
			"0.015": 0.0,
			"0.016": 0.0,
			"0.017": 0.0,
			"0.018": 0.0,
			"0.019": 0.0,
			"0.02": 0.0,
			"0.021": 0.0,
			"0.022": 0.0,
			"0.023": 0.0,
			"0.024": 0.0,
			"0.025": 0.0
		}
	}
}
