{
	 "smiles": "NS(=O)(=O)C1=CC=C(SCCCCO)C=C1", 
	 "Tm": 374.15, 
	 "num_atms": 31, 
	 "gaussian": { 
		 "optdone": 1, 
		 "sigma_profile": "yes", 
		 "theory": "DFT", 
		 "functional": "B3LYP", 
		 "basiset": "6-31G**", 
		 "properties": { 
			 "R2extent": 6494.0548, 
			 "electric_dipole_moment_norm": 3.6943488655, 
			 "electric_quadrupole_moment_norm": 26.526801042, 
			 "total_energy": -1466.82629568, 
			 "HOMO_LUMO_gap": 0.18426, 
			 "cosmo_polarized_energy": -21.52, 
			 "cosmo_cavitation_energy": 37.34, 
			 "cosmo_dispersion_energy": -26.77, 
			 "cosmo_repulsion_energy": 2.08, 
			 "cosmo_total_nonelectrostatic_energy": 12.64, 
			 "SMD_solvation_energy": 5.14 
		},
		"coords": [
			{
				"x": -3.7647549764,
				"y": 0.0388204989,
				"z": -1.8080156417,
				"element": "N" 
			},
			{
				"x": -3.0158333324,
				"y": -1.3251358849,
				"z": -2.4869319689,
				"element": "S" 
			},
			{
				"x": -3.7638076689,
				"y": -2.4825938328,
				"z": -1.9877727518,
				"element": "O" 
			},
			{
				"x": -2.8211461602,
				"y": -1.0747039685,
				"z": -3.9187750294,
				"element": "O" 
			},
			{
				"x": -1.4001966218,
				"y": -1.3335690912,
				"z": -1.7185518808,
				"element": "C" 
			},
			{
				"x": -1.2408596323,
				"y": -1.9138690822,
				"z": -0.4591062526,
				"element": "C" 
			},
			{
				"x": 0.0141090128,
				"y": -1.9001161983,
				"z": 0.1429002875,
				"element": "C" 
			},
			{
				"x": 1.1164929185,
				"y": -1.329394826,
				"z": -0.5153797292,
				"element": "C" 
			},
			{
				"x": 2.7062357473,
				"y": -1.448480844,
				"z": 0.2936847618,
				"element": "S" 
			},
			{
				"x": 3.5463039882,
				"y": 0.1567366443,
				"z": -0.0550876238,
				"element": "C" 
			},
			{
				"x": 3.2318017733,
				"y": 1.292389847,
				"z": 0.925509069,
				"element": "C" 
			},
			{
				"x": 1.804996506,
				"y": 1.845174175,
				"z": 0.8452781671,
				"element": "C" 
			},
			{
				"x": 1.5674123999,
				"y": 3.0039987981,
				"z": 1.8165067775,
				"element": "C" 
			},
			{
				"x": 0.2673876247,
				"y": 3.5639427769,
				"z": 1.6990644551,
				"element": "O" 
			},
			{
				"x": 0.9430541162,
				"y": -0.7840144815,
				"z": -1.7961977186,
				"element": "C" 
			},
			{
				"x": -0.3149800398,
				"y": -0.7736597429,
				"z": -2.3940165452,
				"element": "C" 
			},
			{
				"x": -4.6784463467,
				"y": -0.2382704689,
				"z": -1.4575096725,
				"element": "H" 
			},
			{
				"x": -3.8484617761,
				"y": 0.769576513,
				"z": -2.5103245605,
				"element": "H" 
			},
			{
				"x": -2.0893412235,
				"y": -2.3689509791,
				"z": 0.0402459147,
				"element": "H" 
			},
			{
				"x": 0.1445076529,
				"y": -2.330285732,
				"z": 1.1309250731,
				"element": "H" 
			},
			{
				"x": 3.3437519472,
				"y": 0.4525130037,
				"z": -1.0879600429,
				"element": "H" 
			},
			{
				"x": 4.6084519925,
				"y": -0.1009257168,
				"z": -0.0033982474,
				"element": "H" 
			},
			{
				"x": 3.9450109061,
				"y": 2.1037704421,
				"z": 0.7183794252,
				"element": "H" 
			},
			{
				"x": 3.4428329955,
				"y": 0.9492186866,
				"z": 1.946011419,
				"element": "H" 
			},
			{
				"x": 1.0864807177,
				"y": 1.0442527071,
				"z": 1.0632108899,
				"element": "H" 
			},
			{
				"x": 1.5874070448,
				"y": 2.193745819,
				"z": -0.1721381276,
				"element": "H" 
			},
			{
				"x": 1.7716380305,
				"y": 2.6742643888,
				"z": 2.8492070796,
				"element": "H" 
			},
			{
				"x": 2.2614512465,
				"y": 3.8243999992,
				"z": 1.6013651957,
				"element": "H" 
			},
			{
				"x": -0.3711486936,
				"y": 2.8712399974,
				"z": 1.9128434348,
				"element": "H" 
			},
			{
				"x": 1.789443962,
				"y": -0.3809414023,
				"z": -2.3417413934,
				"element": "H" 
			},
			{
				"x": -0.4533941107,
				"y": -0.3645320458,
				"z": -3.3888247637,
				"element": "H" 
			}
		],
		 "valence_orbital": [ 
			{
				"type": "occ",
				"energy": -0.30441,
				"method": "rhf"
			},
			{
				"type": "occ",
				"energy": -0.28203,
				"method": "rhf"
			},
			{
				"type": "occ",
				"energy": -0.27584,
				"method": "rhf"
			},
			{
				"type": "occ",
				"energy": -0.26857,
				"method": "rhf"
			},
			{
				"type": "occ",
				"energy": -0.23007,
				"method": "rhf"
			},
			{
				"type": "unocc",
				"energy": -0.04581,
				"method": "rhf"
			},
			{
				"type": "unocc",
				"energy": -0.02724,
				"method": "rhf"
			},
			{
				"type": "unocc",
				"energy": 0.03002,
				"method": "rhf"
			},
			{
				"type": "unocc",
				"energy": 0.04978,
				"method": "rhf"
			},
			{
				"type": "unocc",
				"energy": 0.06113,
				"method": "rhf"
			}
		],
		"cosmo_sigma_profile": { 
			"-0.025": 0.0,
			"-0.024": 0.0,
			"-0.023": 0.0,
			"-0.022": 0.0,
			"-0.021": 0.0,
			"-0.02": 0.0,
			"-0.019": 0.0,
			"-0.018": 0.0,
			"-0.017": 0.0,
			"-0.016": 0.000278919438594,
			"-0.015": 1.39220022073,
			"-0.014": 3.45609734432,
			"-0.013": 3.92650393712,
			"-0.012": 3.390934137,
			"-0.011": 2.73463041905,
			"-0.01": 3.0842151665,
			"-0.009": 3.87442510765,
			"-0.008": 5.3651692231,
			"-0.007": 9.26930899116,
			"-0.006": 12.6600341559,
			"-0.005": 12.357987171,
			"-0.004": 18.5872197824,
			"-0.003": 27.7888586828,
			"-0.002": 25.2431158912,
			"-0.001": 19.8544321539,
			"0.0": 17.1198829669,
			"0.001": 15.8291554142,
			"0.002": 20.6043802115,
			"0.003": 14.267701521,
			"0.004": 8.58165913902,
			"0.005": 8.20549312174,
			"0.006": 6.79229434483,
			"0.007": 6.64181836452,
			"0.008": 7.70138639859,
			"0.009": 7.25377141929,
			"0.01": 8.59803239292,
			"0.011": 10.154600447,
			"0.012": 5.23817859925,
			"0.013": 2.14533263662,
			"0.014": 2.12754848308,
			"0.015": 1.50546728537,
			"0.016": 0.0,
			"0.017": 0.0,
			"0.018": 0.0,
			"0.019": 0.0,
			"0.02": 0.0,
			"0.021": 0.0,
			"0.022": 0.0,
			"0.023": 0.0,
			"0.024": 0.0,
			"0.025": 0.0
		}
	}
}
