{
	 "smiles": "[O-][N+](=O)C1=C(NC(=O)C2=CC=CC=C2)C=CC=C1", 
	 "Tm": 369.15, 
	 "num_atms": 28, 
	 "gaussian": { 
		 "optdone": 1, 
		 "sigma_profile": "yes", 
		 "theory": "DFT", 
		 "functional": "B3LYP", 
		 "basiset": "6-31G**", 
		 "properties": { 
			 "R2extent": 5691.3239, 
			 "electric_dipole_moment_norm": 1.11842305949, 
			 "electric_quadrupole_moment_norm": 27.5022224438, 
			 "total_energy": -836.509250507, 
			 "HOMO_LUMO_gap": 0.14218, 
			 "cosmo_polarized_energy": -10.62, 
			 "cosmo_cavitation_energy": 32.94, 
			 "cosmo_dispersion_energy": -24.25, 
			 "cosmo_repulsion_energy": 1.82, 
			 "cosmo_total_nonelectrostatic_energy": 10.51, 
			 "SMD_solvation_energy": 7.85 
		},
		"coords": [
			{
				"x": 0.5791295906,
				"y": 2.2281089516,
				"z": 2.0055453431,
				"element": "O" 
			},
			{
				"x": 1.8191626729,
				"y": 2.123934687,
				"z": 1.9160310354,
				"element": "N" 
			},
			{
				"x": 2.5796732236,
				"y": 2.6827866921,
				"z": 2.7012374703,
				"element": "O" 
			},
			{
				"x": 2.3945759725,
				"y": 1.3129716992,
				"z": 0.8469220801,
				"element": "C" 
			},
			{
				"x": 1.6048451311,
				"y": 0.6517275288,
				"z": -0.139075878,
				"element": "C" 
			},
			{
				"x": 0.2202937148,
				"y": 0.7544453281,
				"z": -0.129207959,
				"element": "N" 
			},
			{
				"x": -0.6995962645,
				"y": 0.1960127261,
				"z": -1.0057946424,
				"element": "C" 
			},
			{
				"x": -0.3985334629,
				"y": -0.5590384404,
				"z": -1.923104215,
				"element": "O" 
			},
			{
				"x": -2.1271742896,
				"y": 0.5769802809,
				"z": -0.7394135133,
				"element": "C" 
			},
			{
				"x": -2.5106761744,
				"y": 1.6935023507,
				"z": 0.0196766333,
				"element": "C" 
			},
			{
				"x": -3.8621479964,
				"y": 1.9826414122,
				"z": 0.2069690241,
				"element": "C" 
			},
			{
				"x": -4.8403538023,
				"y": 1.163128448,
				"z": -0.3590112565,
				"element": "C" 
			},
			{
				"x": -4.4643122337,
				"y": 0.0563581811,
				"z": -1.1248707232,
				"element": "C" 
			},
			{
				"x": -3.1162054408,
				"y": -0.2311280197,
				"z": -1.3191701675,
				"element": "C" 
			},
			{
				"x": 2.2974118234,
				"y": -0.092221582,
				"z": -1.1189560253,
				"element": "C" 
			},
			{
				"x": 3.6825571584,
				"y": -0.1708402912,
				"z": -1.1102390909,
				"element": "C" 
			},
			{
				"x": 4.4439855339,
				"y": 0.4813874865,
				"z": -0.1324995645,
				"element": "C" 
			},
			{
				"x": 3.7937063628,
				"y": 1.219756845,
				"z": 0.8401058171,
				"element": "C" 
			},
			{
				"x": -0.1274728603,
				"y": 1.278060144,
				"z": 0.6687681393,
				"element": "H" 
			},
			{
				"x": -1.7695823099,
				"y": 2.3625679234,
				"z": 0.4466799544,
				"element": "H" 
			},
			{
				"x": -4.1490422418,
				"y": 2.8521287259,
				"z": 0.7906034944,
				"element": "H" 
			},
			{
				"x": -5.8919567656,
				"y": 1.389694437,
				"z": -0.2087638286,
				"element": "H" 
			},
			{
				"x": -5.2224932375,
				"y": -0.5804791918,
				"z": -1.5709392573,
				"element": "H" 
			},
			{
				"x": -2.8016009394,
				"y": -1.0786856956,
				"z": -1.9181767377,
				"element": "H" 
			},
			{
				"x": 1.7131665008,
				"y": -0.6013457,
				"z": -1.8708065548,
				"element": "H" 
			},
			{
				"x": 4.1764471785,
				"y": -0.7548064941,
				"z": -1.8814275285,
				"element": "H" 
			},
			{
				"x": 5.5263941568,
				"y": 0.4124454805,
				"z": -0.1314618748,
				"element": "H" 
			},
			{
				"x": 4.338798999,
				"y": 1.7427060864,
				"z": 1.6146798258,
				"element": "H" 
			}
		],
		 "valence_orbital": [ 
			{
				"type": "occ",
				"energy": -0.28196,
				"method": "rhf"
			},
			{
				"type": "occ",
				"energy": -0.27101,
				"method": "rhf"
			},
			{
				"type": "occ",
				"energy": -0.26544,
				"method": "rhf"
			},
			{
				"type": "occ",
				"energy": -0.25982,
				"method": "rhf"
			},
			{
				"type": "occ",
				"energy": -0.24156,
				"method": "rhf"
			},
			{
				"type": "unocc",
				"energy": -0.09938,
				"method": "rhf"
			},
			{
				"type": "unocc",
				"energy": -0.05222,
				"method": "rhf"
			},
			{
				"type": "unocc",
				"energy": -0.01547,
				"method": "rhf"
			},
			{
				"type": "unocc",
				"energy": -0.01162,
				"method": "rhf"
			},
			{
				"type": "unocc",
				"energy": -0.00136,
				"method": "rhf"
			}
		],
		"cosmo_sigma_profile": { 
			"-0.025": 0.0,
			"-0.024": 0.0,
			"-0.023": 0.0,
			"-0.022": 0.0,
			"-0.021": 0.0,
			"-0.02": 0.0,
			"-0.019": 0.0,
			"-0.018": 0.0,
			"-0.017": 0.0,
			"-0.016": 0.0,
			"-0.015": 0.0,
			"-0.014": 0.0,
			"-0.013": 0.0,
			"-0.012": 0.0,
			"-0.011": 0.0,
			"-0.01": 0.0,
			"-0.009": 0.0,
			"-0.008": 0.880081448594,
			"-0.007": 9.16660759379,
			"-0.006": 20.2511268342,
			"-0.005": 22.262925977,
			"-0.004": 19.8487143159,
			"-0.003": 16.8223491856,
			"-0.002": 18.8502374897,
			"-0.001": 21.169681867,
			"0.0": 19.5536257372,
			"0.001": 21.1075010439,
			"0.002": 24.1053168069,
			"0.003": 17.665847565,
			"0.004": 15.324920297,
			"0.005": 6.50746396642,
			"0.006": 4.87820649636,
			"0.007": 7.30164842596,
			"0.008": 6.10668731141,
			"0.009": 5.16107400891,
			"0.01": 4.63844600734,
			"0.011": 2.07543321777,
			"0.012": 2.30054495364,
			"0.013": 0.271186043487,
			"0.014": 0.0,
			"0.015": 0.0,
			"0.016": 0.0,
			"0.017": 0.0,
			"0.018": 0.0,
			"0.019": 0.0,
			"0.02": 0.0,
			"0.021": 0.0,
			"0.022": 0.0,
			"0.023": 0.0,
			"0.024": 0.0,
			"0.025": 0.0
		}
	}
}
