{
	 "smiles": "CN1N=C(C=C1C(O)=O)C1=CC=CC=C1", 
	 "Tm": 459.15, 
	 "num_atms": 25, 
	 "gaussian": { 
		 "optdone": 1, 
		 "sigma_profile": "yes", 
		 "theory": "DFT", 
		 "functional": "B3LYP", 
		 "basiset": "6-31G**", 
		 "properties": { 
			 "R2extent": 4622.6672, 
			 "electric_dipole_moment_norm": 2.61189759562, 
			 "electric_quadrupole_moment_norm": 12.1193408331, 
			 "total_energy": -685.144408124, 
			 "HOMO_LUMO_gap": 0.1776, 
			 "cosmo_polarized_energy": -15.4, 
			 "cosmo_cavitation_energy": 29.69, 
			 "cosmo_dispersion_energy": -21.87, 
			 "cosmo_repulsion_energy": 1.68, 
			 "cosmo_total_nonelectrostatic_energy": 9.51, 
			 "SMD_solvation_energy": 5.33 
		},
		"coords": [
			{
				"x": -0.345866646,
				"y": 3.3158009665,
				"z": -1.7590372736,
				"element": "C" 
			},
			{
				"x": -0.4303839336,
				"y": 2.0833255781,
				"z": -0.9820171049,
				"element": "N" 
			},
			{
				"x": -1.4650610129,
				"y": 1.9058889322,
				"z": -0.1547263343,
				"element": "N" 
			},
			{
				"x": -1.286185059,
				"y": 0.7062824128,
				"z": 0.427996674,
				"element": "C" 
			},
			{
				"x": -0.1020986542,
				"y": 0.1083222414,
				"z": -0.0528516818,
				"element": "C" 
			},
			{
				"x": 0.4284820422,
				"y": 1.0173204464,
				"z": -0.962634094,
				"element": "C" 
			},
			{
				"x": 1.6559119005,
				"y": 0.9809151099,
				"z": -1.7820402903,
				"element": "C" 
			},
			{
				"x": 2.3159883324,
				"y": -0.2043663401,
				"z": -1.80193052,
				"element": "O" 
			},
			{
				"x": 2.0825408863,
				"y": 1.9270034738,
				"z": -2.4068887978,
				"element": "O" 
			},
			{
				"x": -2.2537570755,
				"y": 0.1967597149,
				"z": 1.4139641183,
				"element": "C" 
			},
			{
				"x": -2.0873098184,
				"y": -1.0635443971,
				"z": 2.0087167483,
				"element": "C" 
			},
			{
				"x": -3.0079094487,
				"y": -1.5378748282,
				"z": 2.9419468554,
				"element": "C" 
			},
			{
				"x": -4.1119954276,
				"y": -0.7611973901,
				"z": 3.2969459633,
				"element": "C" 
			},
			{
				"x": -4.2869497133,
				"y": 0.4946236807,
				"z": 2.7099640815,
				"element": "C" 
			},
			{
				"x": -3.368394747,
				"y": 0.9709292346,
				"z": 1.7780858986,
				"element": "C" 
			},
			{
				"x": -0.2798882691,
				"y": 3.0905358832,
				"z": -2.8244802252,
				"element": "H" 
			},
			{
				"x": 0.5395118162,
				"y": 3.8860450099,
				"z": -1.4741486636,
				"element": "H" 
			},
			{
				"x": -1.252690961,
				"y": 3.8780000305,
				"z": -1.5413828068,
				"element": "H" 
			},
			{
				"x": 0.3190208882,
				"y": -0.8406959018,
				"z": 0.2474984982,
				"element": "H" 
			},
			{
				"x": 1.8080104898,
				"y": -0.884796014,
				"z": -1.3386928299,
				"element": "H" 
			},
			{
				"x": -1.2350008832,
				"y": -1.6821712974,
				"z": 1.7430285448,
				"element": "H" 
			},
			{
				"x": -2.8617545783,
				"y": -2.5159201287,
				"z": 3.3914513171,
				"element": "H" 
			},
			{
				"x": -4.8293138384,
				"y": -1.1307136336,
				"z": 4.0239054453,
				"element": "H" 
			},
			{
				"x": -5.1430496298,
				"y": 1.1064321076,
				"z": 2.9800439622,
				"element": "H" 
			},
			{
				"x": -3.5008566598,
				"y": 1.9455951086,
				"z": 1.3212825154,
				"element": "H" 
			}
		],
		 "valence_orbital": [ 
			{
				"type": "occ",
				"energy": -0.29431,
				"method": "rhf"
			},
			{
				"type": "occ",
				"energy": -0.28569,
				"method": "rhf"
			},
			{
				"type": "occ",
				"energy": -0.27073,
				"method": "rhf"
			},
			{
				"type": "occ",
				"energy": -0.25327,
				"method": "rhf"
			},
			{
				"type": "occ",
				"energy": -0.22645,
				"method": "rhf"
			},
			{
				"type": "unocc",
				"energy": -0.04885,
				"method": "rhf"
			},
			{
				"type": "unocc",
				"energy": -0.02793,
				"method": "rhf"
			},
			{
				"type": "unocc",
				"energy": -0.00251,
				"method": "rhf"
			},
			{
				"type": "unocc",
				"energy": 0.04931,
				"method": "rhf"
			},
			{
				"type": "unocc",
				"energy": 0.06697,
				"method": "rhf"
			}
		],
		"cosmo_sigma_profile": { 
			"-0.025": 0.0,
			"-0.024": 0.0,
			"-0.023": 0.0,
			"-0.022": 0.0,
			"-0.021": 0.0,
			"-0.02": 0.0,
			"-0.019": 0.620579051936,
			"-0.018": 0.719385932987,
			"-0.017": 1.28255612191,
			"-0.016": 1.08702113651,
			"-0.015": 0.848676404685,
			"-0.014": 0.69560252937,
			"-0.013": 1.90906732212,
			"-0.012": 1.22762979715,
			"-0.011": 1.10916760162,
			"-0.01": 1.28602128911,
			"-0.009": 2.07412188565,
			"-0.008": 2.74646114439,
			"-0.007": 3.32778665663,
			"-0.006": 11.3363104977,
			"-0.005": 16.7820404538,
			"-0.004": 20.2398642659,
			"-0.003": 20.3171413659,
			"-0.002": 13.7168976445,
			"-0.001": 11.7947557686,
			"0.0": 12.2697766588,
			"0.001": 13.1489233925,
			"0.002": 16.0455306497,
			"0.003": 17.7169466089,
			"0.004": 14.5350949213,
			"0.005": 15.3231809213,
			"0.006": 8.25450815687,
			"0.007": 4.59344235838,
			"0.008": 3.38077276145,
			"0.009": 4.70413082787,
			"0.01": 6.52694831715,
			"0.011": 4.72952774319,
			"0.012": 2.86176333234,
			"0.013": 0.742626920655,
			"0.014": 0.0,
			"0.015": 0.0,
			"0.016": 0.0,
			"0.017": 0.0,
			"0.018": 0.0,
			"0.019": 0.0,
			"0.02": 0.0,
			"0.021": 0.0,
			"0.022": 0.0,
			"0.023": 0.0,
			"0.024": 0.0,
			"0.025": 0.0
		}
	}
}
