{
	 "smiles": "CCC(C)NS(=O)(=O)C1=CC=C(C=C1)C(O)=O", 
	 "Tm": 493.15, 
	 "num_atms": 32, 
	 "gaussian": { 
		 "optdone": 1, 
		 "sigma_profile": "yes", 
		 "theory": "DFT", 
		 "functional": "B3LYP", 
		 "basiset": "6-31G**", 
		 "properties": { 
			 "R2extent": 6185.6535, 
			 "electric_dipole_moment_norm": 5.23645514733, 
			 "electric_quadrupole_moment_norm": 21.4486478457, 
			 "total_energy": -1181.99577525, 
			 "HOMO_LUMO_gap": 0.19254, 
			 "cosmo_polarized_energy": -22.3, 
			 "cosmo_cavitation_energy": 37.21, 
			 "cosmo_dispersion_energy": -25.62, 
			 "cosmo_repulsion_energy": 1.96, 
			 "cosmo_total_nonelectrostatic_energy": 13.55, 
			 "SMD_solvation_energy": 6.72 
		},
		"coords": [
			{
				"x": -3.0061555485,
				"y": 0.4340707058,
				"z": 0.5608299031,
				"element": "C" 
			},
			{
				"x": -3.4076530767,
				"y": -0.1707547169,
				"z": 1.9077478613,
				"element": "C" 
			},
			{
				"x": -2.2921836818,
				"y": -0.9735443972,
				"z": 2.5991588081,
				"element": "C" 
			},
			{
				"x": -2.7930854959,
				"y": -1.7138905017,
				"z": 3.8447725442,
				"element": "C" 
			},
			{
				"x": -1.1682147704,
				"y": -0.0572345585,
				"z": 2.9082558765,
				"element": "N" 
			},
			{
				"x": 0.4032652974,
				"y": -0.6408093615,
				"z": 3.0328418515,
				"element": "S" 
			},
			{
				"x": 0.4087265203,
				"y": -2.0960933121,
				"z": 3.2257796161,
				"element": "O" 
			},
			{
				"x": 1.0735597748,
				"y": 0.2654097926,
				"z": 3.9700664294,
				"element": "O" 
			},
			{
				"x": 1.0693616688,
				"y": -0.3416317078,
				"z": 1.3870771469,
				"element": "C" 
			},
			{
				"x": 1.333004126,
				"y": 0.9707418253,
				"z": 0.9818459892,
				"element": "C" 
			},
			{
				"x": 1.8639089704,
				"y": 1.1945309671,
				"z": -0.2824753213,
				"element": "C" 
			},
			{
				"x": 2.1205477635,
				"y": 0.1180032877,
				"z": -1.1455788472,
				"element": "C" 
			},
			{
				"x": 1.8744064906,
				"y": -1.1908233078,
				"z": -0.7118560248,
				"element": "C" 
			},
			{
				"x": 1.3493558817,
				"y": -1.4269217374,
				"z": 0.5594569504,
				"element": "C" 
			},
			{
				"x": 2.6974609847,
				"y": 0.438127585,
				"z": -2.4959572732,
				"element": "C" 
			},
			{
				"x": 2.5666059212,
				"y": -0.509749894,
				"z": -3.4599411369,
				"element": "O" 
			},
			{
				"x": 3.2549560317,
				"y": 1.4808647437,
				"z": -2.7414609897,
				"element": "O" 
			},
			{
				"x": -2.1489244605,
				"y": 1.103927031,
				"z": 0.6701660626,
				"element": "H" 
			},
			{
				"x": -3.8323691557,
				"y": 1.0050886514,
				"z": 0.126171897,
				"element": "H" 
			},
			{
				"x": -2.7301258641,
				"y": -0.3479850818,
				"z": -0.1558150919,
				"element": "H" 
			},
			{
				"x": -3.745557132,
				"y": 0.6215429445,
				"z": 2.5904501434,
				"element": "H" 
			},
			{
				"x": -4.2663474779,
				"y": -0.8404788986,
				"z": 1.7751871706,
				"element": "H" 
			},
			{
				"x": -1.8976108574,
				"y": -1.7066007887,
				"z": 1.8862082011,
				"element": "H" 
			},
			{
				"x": -1.9845846537,
				"y": -2.2886237123,
				"z": 4.3014819733,
				"element": "H" 
			},
			{
				"x": -3.6042129212,
				"y": -2.4018011477,
				"z": 3.5845107404,
				"element": "H" 
			},
			{
				"x": -3.1827580916,
				"y": -1.0054230223,
				"z": 4.586089358,
				"element": "H" 
			},
			{
				"x": -1.3325019008,
				"y": 0.5602409937,
				"z": 3.7006776623,
				"element": "H" 
			},
			{
				"x": 1.135763283,
				"y": 1.7975926895,
				"z": 1.655405405,
				"element": "H" 
			},
			{
				"x": 2.0934512183,
				"y": 2.1974477118,
				"z": -0.6251281754,
				"element": "H" 
			},
			{
				"x": 2.1271613884,
				"y": -2.0436624851,
				"z": -1.3368863039,
				"element": "H" 
			},
			{
				"x": 1.1731828354,
				"y": -2.4342275644,
				"z": 0.9192239461,
				"element": "H" 
			},
			{
				"x": 1.9665669319,
				"y": -1.2098327329,
				"z": -3.1683063722,
				"element": "H" 
			}
		],
		 "valence_orbital": [ 
			{
				"type": "occ",
				"energy": -0.30832,
				"method": "rhf"
			},
			{
				"type": "occ",
				"energy": -0.29976,
				"method": "rhf"
			},
			{
				"type": "occ",
				"energy": -0.28953,
				"method": "rhf"
			},
			{
				"type": "occ",
				"energy": -0.28307,
				"method": "rhf"
			},
			{
				"type": "occ",
				"energy": -0.26849,
				"method": "rhf"
			},
			{
				"type": "unocc",
				"energy": -0.07595,
				"method": "rhf"
			},
			{
				"type": "unocc",
				"energy": -0.03918,
				"method": "rhf"
			},
			{
				"type": "unocc",
				"energy": 0.02001,
				"method": "rhf"
			},
			{
				"type": "unocc",
				"energy": 0.04174,
				"method": "rhf"
			},
			{
				"type": "unocc",
				"energy": 0.0563,
				"method": "rhf"
			}
		],
		"cosmo_sigma_profile": { 
			"-0.025": 0.0,
			"-0.024": 0.0,
			"-0.023": 0.0,
			"-0.022": 0.0,
			"-0.021": 0.0,
			"-0.02": 0.0265207772353,
			"-0.019": 0.676976525363,
			"-0.018": 1.06637551503,
			"-0.017": 0.934552279797,
			"-0.016": 0.981301305284,
			"-0.015": 1.02355691457,
			"-0.014": 1.51585466599,
			"-0.013": 2.42865930952,
			"-0.012": 1.78014258704,
			"-0.011": 2.52520513857,
			"-0.01": 2.0639949585,
			"-0.009": 2.56765064665,
			"-0.008": 5.72504725036,
			"-0.007": 8.59445408589,
			"-0.006": 8.00800843029,
			"-0.005": 10.6289055378,
			"-0.004": 16.8303053262,
			"-0.003": 24.395784435,
			"-0.002": 24.9798948616,
			"-0.001": 25.7031894411,
			"0.0": 32.3762303776,
			"0.001": 33.2300743616,
			"0.002": 13.0011424109,
			"0.003": 6.65611835942,
			"0.004": 5.65149550024,
			"0.005": 5.14909667703,
			"0.006": 5.34559877179,
			"0.007": 4.79700706231,
			"0.008": 7.6042434225,
			"0.009": 6.92125362866,
			"0.01": 12.3443077715,
			"0.011": 12.6488977368,
			"0.012": 5.09487824889,
			"0.013": 0.605357996035,
			"0.014": 0.0,
			"0.015": 0.0,
			"0.016": 0.0,
			"0.017": 0.0,
			"0.018": 0.0,
			"0.019": 0.0,
			"0.02": 0.0,
			"0.021": 0.0,
			"0.022": 0.0,
			"0.023": 0.0,
			"0.024": 0.0,
			"0.025": 0.0
		}
	}
}
