{
	 "smiles": "CC1=C(SC(NC(=O)C2=C(Cl)C=CC=C2)=C1)C(O)=O", 
	 "Tm": 497.15, 
	 "num_atms": 29, 
	 "gaussian": { 
		 "optdone": 1, 
		 "sigma_profile": "yes", 
		 "theory": "DFT", 
		 "functional": "B3LYP", 
		 "basiset": "6-31G**", 
		 "properties": { 
			 "R2extent": 6435.4682, 
			 "electric_dipole_moment_norm": 3.14400854006, 
			 "electric_quadrupole_moment_norm": 41.4341882876, 
			 "total_energy": -1640.21565755, 
			 "HOMO_LUMO_gap": 0.16405, 
			 "cosmo_polarized_energy": -23.35, 
			 "cosmo_cavitation_energy": 37.17, 
			 "cosmo_dispersion_energy": -26.11, 
			 "cosmo_repulsion_energy": 2.0, 
			 "cosmo_total_nonelectrostatic_energy": 13.05, 
			 "SMD_solvation_energy": 7.5 
		},
		"coords": [
			{
				"x": 0.3310268678,
				"y": -4.2852083648,
				"z": -2.2718043607,
				"element": "C" 
			},
			{
				"x": 0.4472412415,
				"y": -3.0373278179,
				"z": -1.4293201519,
				"element": "C" 
			},
			{
				"x": 0.060718388,
				"y": -1.7587647633,
				"z": -1.7977223094,
				"element": "C" 
			},
			{
				"x": 0.3292995615,
				"y": -0.5982002288,
				"z": -0.5118804612,
				"element": "S" 
			},
			{
				"x": 0.9585575538,
				"y": -1.8481219952,
				"z": 0.5236591448,
				"element": "C" 
			},
			{
				"x": 1.4965069995,
				"y": -1.6194860997,
				"z": 1.7867486984,
				"element": "N" 
			},
			{
				"x": 1.3052650158,
				"y": -0.6085779112,
				"z": 2.7170863421,
				"element": "C" 
			},
			{
				"x": 2.0568351137,
				"y": -0.524162097,
				"z": 3.6756396077,
				"element": "O" 
			},
			{
				"x": 0.1927903607,
				"y": 0.3809135026,
				"z": 2.5053198218,
				"element": "C" 
			},
			{
				"x": -1.1692304239,
				"y": 0.0510206255,
				"z": 2.5451840713,
				"element": "C" 
			},
			{
				"x": -1.6842982063,
				"y": -1.6107339994,
				"z": 2.7960400579,
				"element": "Cl" 
			},
			{
				"x": -2.1513391121,
				"y": 1.032306263,
				"z": 2.4162359479,
				"element": "C" 
			},
			{
				"x": -1.7752964351,
				"y": 2.3641716703,
				"z": 2.2474015869,
				"element": "C" 
			},
			{
				"x": -0.4249024943,
				"y": 2.7174482372,
				"z": 2.2306774193,
				"element": "C" 
			},
			{
				"x": 0.5474370336,
				"y": 1.7320238853,
				"z": 2.3747990812,
				"element": "C" 
			},
			{
				"x": 0.961123159,
				"y": -3.0750159138,
				"z": -0.1052370617,
				"element": "C" 
			},
			{
				"x": -0.5718450905,
				"y": -1.2046217607,
				"z": -3.0075431929,
				"element": "C" 
			},
			{
				"x": -0.6816107835,
				"y": -2.0172925151,
				"z": -4.0943600761,
				"element": "O" 
			},
			{
				"x": -0.9847407281,
				"y": -0.0658230371,
				"z": -3.0654519089,
				"element": "O" 
			},
			{
				"x": 0.525827127,
				"y": -5.1748265492,
				"z": -1.6684420345,
				"element": "H" 
			},
			{
				"x": 1.0623636853,
				"y": -4.2993637369,
				"z": -3.0917119961,
				"element": "H" 
			},
			{
				"x": -0.6713664531,
				"y": -4.401523359,
				"z": -2.6988306591,
				"element": "H" 
			},
			{
				"x": 2.2145703689,
				"y": -2.2695361087,
				"z": 2.0864143559,
				"element": "H" 
			},
			{
				"x": -3.1971307619,
				"y": 0.7487953334,
				"z": 2.4520789328,
				"element": "H" 
			},
			{
				"x": -2.5422624334,
				"y": 3.1247325378,
				"z": 2.1381113524,
				"element": "H" 
			},
			{
				"x": -0.1309626211,
				"y": 3.7553998257,
				"z": 2.1129363761,
				"element": "H" 
			},
			{
				"x": 1.6006460654,
				"y": 1.9938033285,
				"z": 2.3848402894,
				"element": "H" 
			},
			{
				"x": 1.3079824243,
				"y": -3.9834713521,
				"z": 0.375747416,
				"element": "H" 
			},
			{
				"x": -0.2202054224,
				"y": -2.8536575994,
				"z": -3.9520162894,
				"element": "H" 
			}
		],
		 "valence_orbital": [ 
			{
				"type": "occ",
				"energy": -0.27395,
				"method": "rhf"
			},
			{
				"type": "occ",
				"energy": -0.26741,
				"method": "rhf"
			},
			{
				"type": "occ",
				"energy": -0.26445,
				"method": "rhf"
			},
			{
				"type": "occ",
				"energy": -0.25523,
				"method": "rhf"
			},
			{
				"type": "occ",
				"energy": -0.22759,
				"method": "rhf"
			},
			{
				"type": "unocc",
				"energy": -0.06354,
				"method": "rhf"
			},
			{
				"type": "unocc",
				"energy": -0.03949,
				"method": "rhf"
			},
			{
				"type": "unocc",
				"energy": -0.02373,
				"method": "rhf"
			},
			{
				"type": "unocc",
				"energy": 0.00695,
				"method": "rhf"
			},
			{
				"type": "unocc",
				"energy": 0.01934,
				"method": "rhf"
			}
		],
		"cosmo_sigma_profile": { 
			"-0.025": 0.0,
			"-0.024": 0.0,
			"-0.023": 0.0,
			"-0.022": 0.0,
			"-0.021": 0.0,
			"-0.02": 0.0,
			"-0.019": 0.0,
			"-0.018": 0.0,
			"-0.017": 0.0,
			"-0.016": 0.918162897029,
			"-0.015": 2.04580263078,
			"-0.014": 2.27140402495,
			"-0.013": 2.34146381543,
			"-0.012": 2.60268934411,
			"-0.011": 1.79659470059,
			"-0.01": 2.34430474244,
			"-0.009": 2.83714179098,
			"-0.008": 7.01434912781,
			"-0.007": 14.7090675737,
			"-0.006": 18.7618871245,
			"-0.005": 16.3257077419,
			"-0.004": 12.9030432866,
			"-0.003": 16.1197983477,
			"-0.002": 17.7202568733,
			"-0.001": 16.2889942033,
			"0.0": 17.2469707059,
			"0.001": 22.4813910246,
			"0.002": 33.5528094578,
			"0.003": 26.8966312054,
			"0.004": 13.7563214288,
			"0.005": 4.3980872618,
			"0.006": 3.43400323768,
			"0.007": 4.29302518493,
			"0.008": 4.97029153799,
			"0.009": 3.75481353178,
			"0.01": 6.29656685908,
			"0.011": 8.71933722425,
			"0.012": 10.4910480645,
			"0.013": 3.72227022331,
			"0.014": 0.318552822118,
			"0.015": 0.0,
			"0.016": 0.0,
			"0.017": 0.0,
			"0.018": 0.0,
			"0.019": 0.0,
			"0.02": 0.0,
			"0.021": 0.0,
			"0.022": 0.0,
			"0.023": 0.0,
			"0.024": 0.0,
			"0.025": 0.0
		}
	}
}
