{
	 "smiles": "CC1=CC=C(C=C1O)C(O)=O", 
	 "Tm": 482.65, 
	 "num_atms": 19, 
	 "gaussian": { 
		 "optdone": 1, 
		 "sigma_profile": "yes", 
		 "theory": "DFT", 
		 "functional": "B3LYP", 
		 "basiset": "6-31G**", 
		 "properties": { 
			 "R2extent": 2185.0365, 
			 "electric_dipole_moment_norm": 3.92784238482, 
			 "electric_quadrupole_moment_norm": 12.5911230258, 
			 "total_energy": -535.35775426, 
			 "HOMO_LUMO_gap": 0.19041, 
			 "cosmo_polarized_energy": -16.45, 
			 "cosmo_cavitation_energy": 23.34, 
			 "cosmo_dispersion_energy": -17.35, 
			 "cosmo_repulsion_energy": 1.39, 
			 "cosmo_total_nonelectrostatic_energy": 7.37, 
			 "SMD_solvation_energy": 5.59 
		},
		"coords": [
			{
				"x": 2.6472205644,
				"y": 1.4687735973,
				"z": -2.9383078988,
				"element": "C" 
			},
			{
				"x": 1.9316257297,
				"y": 0.9376383993,
				"z": -1.7252622291,
				"element": "C" 
			},
			{
				"x": 2.6126603279,
				"y": 0.4169369778,
				"z": -0.6236065457,
				"element": "C" 
			},
			{
				"x": 1.9376036759,
				"y": -0.0774964074,
				"z": 0.4942100882,
				"element": "C" 
			},
			{
				"x": 0.5387940122,
				"y": -0.0552820309,
				"z": 0.5250612462,
				"element": "C" 
			},
			{
				"x": -0.1632394821,
				"y": 0.4815431577,
				"z": -0.5611666594,
				"element": "C" 
			},
			{
				"x": 0.5222369301,
				"y": 0.9641298341,
				"z": -1.6721526408,
				"element": "C" 
			},
			{
				"x": -0.1198943424,
				"y": 1.4850372782,
				"z": -2.7592056066,
				"element": "O" 
			},
			{
				"x": -0.2713217879,
				"y": -0.5528306574,
				"z": 1.6828844787,
				"element": "C" 
			},
			{
				"x": 0.3524509481,
				"y": -1.3953887306,
				"z": 2.5488823871,
				"element": "O" 
			},
			{
				"x": -1.4266024111,
				"y": -0.245732523,
				"z": 1.8676183565,
				"element": "O" 
			},
			{
				"x": 3.730672013,
				"y": 1.3845558043,
				"z": -2.8236875001,
				"element": "H" 
			},
			{
				"x": 2.3496869867,
				"y": 0.9241201886,
				"z": -3.8411480509,
				"element": "H" 
			},
			{
				"x": 2.3965277805,
				"y": 2.5205440458,
				"z": -3.1144080092,
				"element": "H" 
			},
			{
				"x": 3.6991247439,
				"y": 0.4061230438,
				"z": -0.6396756783,
				"element": "H" 
			},
			{
				"x": 2.5158140008,
				"y": -0.4301180715,
				"z": 1.3443307993,
				"element": "H" 
			},
			{
				"x": -1.2483623464,
				"y": 0.5110244882,
				"z": -0.5110074075,
				"element": "H" 
			},
			{
				"x": -1.0737809871,
				"y": 1.4625119764,
				"z": -2.6064231541,
				"element": "H" 
			},
			{
				"x": 1.2070836437,
				"y": -1.6678903706,
				"z": 2.1871640245,
				"element": "H" 
			}
		],
		 "valence_orbital": [ 
			{
				"type": "occ",
				"energy": -0.34846,
				"method": "rhf"
			},
			{
				"type": "occ",
				"energy": -0.31295,
				"method": "rhf"
			},
			{
				"type": "occ",
				"energy": -0.2734,
				"method": "rhf"
			},
			{
				"type": "occ",
				"energy": -0.2593,
				"method": "rhf"
			},
			{
				"type": "occ",
				"energy": -0.23711,
				"method": "rhf"
			},
			{
				"type": "unocc",
				"energy": -0.0467,
				"method": "rhf"
			},
			{
				"type": "unocc",
				"energy": -0.009,
				"method": "rhf"
			},
			{
				"type": "unocc",
				"energy": 0.05443,
				"method": "rhf"
			},
			{
				"type": "unocc",
				"energy": 0.06063,
				"method": "rhf"
			},
			{
				"type": "unocc",
				"energy": 0.06579,
				"method": "rhf"
			}
		],
		"cosmo_sigma_profile": { 
			"-0.025": 0.0,
			"-0.024": 0.0,
			"-0.023": 0.0,
			"-0.022": 0.0,
			"-0.021": 0.0,
			"-0.02": 0.0,
			"-0.019": 0.0620314162052,
			"-0.018": 1.37605333573,
			"-0.017": 2.09181729782,
			"-0.016": 1.90449597371,
			"-0.015": 1.97381488733,
			"-0.014": 2.28274413222,
			"-0.013": 1.9774158437,
			"-0.012": 1.92748979564,
			"-0.011": 1.67955045475,
			"-0.01": 2.57723266099,
			"-0.009": 2.20197656727,
			"-0.008": 2.17883305604,
			"-0.007": 3.23626946703,
			"-0.006": 5.64270108306,
			"-0.005": 7.67701552097,
			"-0.004": 10.4920784746,
			"-0.003": 9.27553216698,
			"-0.002": 11.8669275885,
			"-0.001": 11.8905844053,
			"0.0": 15.6449082227,
			"0.001": 11.1334386663,
			"0.002": 11.678818,
			"0.003": 13.2071377353,
			"0.004": 11.3939541668,
			"0.005": 3.8334089233,
			"0.006": 4.20015455239,
			"0.007": 4.51548657546,
			"0.008": 3.79159655633,
			"0.009": 5.14723789636,
			"0.01": 5.85909009133,
			"0.011": 5.33624530233,
			"0.012": 5.21552746856,
			"0.013": 1.98925931931,
			"0.014": 0.18420834674,
			"0.015": 0.0,
			"0.016": 0.0,
			"0.017": 0.0,
			"0.018": 0.0,
			"0.019": 0.0,
			"0.02": 0.0,
			"0.021": 0.0,
			"0.022": 0.0,
			"0.023": 0.0,
			"0.024": 0.0,
			"0.025": 0.0
		}
	}
}
