{
	 "smiles": "CC(C)(C)NS(=O)(=O)C1=CC(=C(Cl)C=C1)[N+]([O-])=O", 
	 "Tm": 362.15, 
	 "num_atms": 31, 
	 "gaussian": { 
		 "optdone": 1, 
		 "sigma_profile": "yes", 
		 "theory": "DFT", 
		 "functional": "B3LYP", 
		 "basiset": "6-31G**", 
		 "properties": { 
			 "R2extent": 6694.6704, 
			 "electric_dipole_moment_norm": 4.0614357486, 
			 "electric_quadrupole_moment_norm": 25.2685953961, 
			 "total_energy": -1657.50400728, 
			 "HOMO_LUMO_gap": 0.17141, 
			 "cosmo_polarized_energy": -15.99, 
			 "cosmo_cavitation_energy": 37.76, 
			 "cosmo_dispersion_energy": -26.11, 
			 "cosmo_repulsion_energy": 1.97, 
			 "cosmo_total_nonelectrostatic_energy": 13.62, 
			 "SMD_solvation_energy": 7.78 
		},
		"coords": [
			{
				"x": -2.1750518953,
				"y": 2.7033631206,
				"z": -1.8950066199,
				"element": "C" 
			},
			{
				"x": -1.7359813059,
				"y": 1.7591563195,
				"z": -0.7607448199,
				"element": "C" 
			},
			{
				"x": -2.8328808872,
				"y": 1.674558138,
				"z": 0.3142628696,
				"element": "C" 
			},
			{
				"x": -0.4230667974,
				"y": 2.2385024581,
				"z": -0.1246191521,
				"element": "C" 
			},
			{
				"x": -1.5782128689,
				"y": 0.3510903206,
				"z": -1.2514847969,
				"element": "N" 
			},
			{
				"x": -0.3917531718,
				"y": -0.1610767367,
				"z": -2.3210285056,
				"element": "S" 
			},
			{
				"x": 0.2315671551,
				"y": 0.9483477103,
				"z": -3.0541195117,
				"element": "O" 
			},
			{
				"x": -0.9949647594,
				"y": -1.2916146521,
				"z": -3.033645627,
				"element": "O" 
			},
			{
				"x": 0.8862437571,
				"y": -0.8093389612,
				"z": -1.229323617,
				"element": "C" 
			},
			{
				"x": 0.5469478489,
				"y": -1.6623507171,
				"z": -0.1855990452,
				"element": "C" 
			},
			{
				"x": 1.5546072977,
				"y": -2.2298769861,
				"z": 0.5913422364,
				"element": "C" 
			},
			{
				"x": 2.9062458433,
				"y": -1.9340147755,
				"z": 0.342784544,
				"element": "C" 
			},
			{
				"x": 4.2159185194,
				"y": -2.5318974262,
				"z": 1.3164934101,
				"element": "Cl" 
			},
			{
				"x": 3.2226459246,
				"y": -1.0639645783,
				"z": -0.7049857793,
				"element": "C" 
			},
			{
				"x": 2.2218041973,
				"y": -0.5096920811,
				"z": -1.498497611,
				"element": "C" 
			},
			{
				"x": 1.1095531784,
				"y": -3.1422878847,
				"z": 1.6627055595,
				"element": "N" 
			},
			{
				"x": 0.0202120323,
				"y": -2.8925439111,
				"z": 2.1776634304,
				"element": "O" 
			},
			{
				"x": 1.8285092303,
				"y": -4.0929850458,
				"z": 1.9454309391,
				"element": "O" 
			},
			{
				"x": -3.1157045955,
				"y": 2.3615133449,
				"z": -2.3411934075,
				"element": "H" 
			},
			{
				"x": -2.3385213802,
				"y": 3.7134164525,
				"z": -1.5047812238,
				"element": "H" 
			},
			{
				"x": -1.4177404843,
				"y": 2.7501134083,
				"z": -2.6797167297,
				"element": "H" 
			},
			{
				"x": -3.7754900341,
				"y": 1.3080586095,
				"z": -0.1086184893,
				"element": "H" 
			},
			{
				"x": -3.0228584812,
				"y": 2.6677749764,
				"z": 0.7319366669,
				"element": "H" 
			},
			{
				"x": -2.5362513655,
				"y": 1.0046585479,
				"z": 1.1260668331,
				"element": "H" 
			},
			{
				"x": -0.575583989,
				"y": 3.2286930913,
				"z": 0.3145065354,
				"element": "H" 
			},
			{
				"x": -0.1024952439,
				"y": 1.5590772162,
				"z": 0.6705617984,
				"element": "H" 
			},
			{
				"x": 0.3749868086,
				"y": 2.3217102558,
				"z": -0.8660094886,
				"element": "H" 
			},
			{
				"x": -2.4511961045,
				"y": -0.0584635283,
				"z": -1.577192792,
				"element": "H" 
			},
			{
				"x": -0.4859717032,
				"y": -1.8855506924,
				"z": 0.0499870486,
				"element": "H" 
			},
			{
				"x": 4.2637144877,
				"y": -0.8226287953,
				"z": -0.8863516176,
				"element": "H" 
			},
			{
				"x": 2.4670687866,
				"y": 0.163552802,
				"z": -2.3122230376,
				"element": "H" 
			}
		],
		 "valence_orbital": [ 
			{
				"type": "occ",
				"energy": -0.31535,
				"method": "rhf"
			},
			{
				"type": "occ",
				"energy": -0.3093,
				"method": "rhf"
			},
			{
				"type": "occ",
				"energy": -0.29462,
				"method": "rhf"
			},
			{
				"type": "occ",
				"energy": -0.29212,
				"method": "rhf"
			},
			{
				"type": "occ",
				"energy": -0.27325,
				"method": "rhf"
			},
			{
				"type": "unocc",
				"energy": -0.10184,
				"method": "rhf"
			},
			{
				"type": "unocc",
				"energy": -0.06479,
				"method": "rhf"
			},
			{
				"type": "unocc",
				"energy": -0.03283,
				"method": "rhf"
			},
			{
				"type": "unocc",
				"energy": -8e-05,
				"method": "rhf"
			},
			{
				"type": "unocc",
				"energy": 0.04365,
				"method": "rhf"
			}
		],
		"cosmo_sigma_profile": { 
			"-0.025": 0.0,
			"-0.024": 0.0,
			"-0.023": 0.0,
			"-0.022": 0.0,
			"-0.021": 0.0,
			"-0.02": 0.0,
			"-0.019": 0.0,
			"-0.018": 0.0,
			"-0.017": 0.0,
			"-0.016": 0.0,
			"-0.015": 0.0,
			"-0.014": 0.533450252723,
			"-0.013": 0.674281714613,
			"-0.012": 0.975122918665,
			"-0.011": 1.04095158072,
			"-0.01": 1.75363018866,
			"-0.009": 5.08046282063,
			"-0.008": 8.17653439749,
			"-0.007": 6.86766648,
			"-0.006": 7.17177513937,
			"-0.005": 9.44636445968,
			"-0.004": 21.2263948423,
			"-0.003": 28.27929916,
			"-0.002": 35.5866788334,
			"-0.001": 32.1739683103,
			"0.0": 32.0574912617,
			"0.001": 19.0268222765,
			"0.002": 13.1009151746,
			"0.003": 11.2460237659,
			"0.004": 7.87602844583,
			"0.005": 5.48943825389,
			"0.006": 8.16807594793,
			"0.007": 14.2332974345,
			"0.008": 8.87191119147,
			"0.009": 6.87886742687,
			"0.01": 7.08903205555,
			"0.011": 7.27855314291,
			"0.012": 0.898756066837,
			"0.013": 0.0,
			"0.014": 0.0,
			"0.015": 0.0,
			"0.016": 0.0,
			"0.017": 0.0,
			"0.018": 0.0,
			"0.019": 0.0,
			"0.02": 0.0,
			"0.021": 0.0,
			"0.022": 0.0,
			"0.023": 0.0,
			"0.024": 0.0,
			"0.025": 0.0
		}
	}
}
