{
	 "smiles": "CC1(C)C2CCC1(C)C(=O)CC2", 
	 "Tm": 466.15, 
	 "num_atms": 30, 
	 "gaussian": { 
		 "optdone": 1, 
		 "sigma_profile": "yes", 
		 "theory": "DFT", 
		 "functional": "B3LYP", 
		 "basiset": "6-31G**", 
		 "properties": { 
			 "R2extent": 1850.9177, 
			 "electric_dipole_moment_norm": 2.9527592147, 
			 "electric_quadrupole_moment_norm": 9.08569620998, 
			 "total_energy": -505.258247781, 
			 "HOMO_LUMO_gap": 0.2233, 
			 "cosmo_polarized_energy": -6.72, 
			 "cosmo_cavitation_energy": 27.57, 
			 "cosmo_dispersion_energy": -20.16, 
			 "cosmo_repulsion_energy": 1.54, 
			 "cosmo_total_nonelectrostatic_energy": 8.96, 
			 "SMD_solvation_energy": 4.65 
		},
		"coords": [
			{
				"x": 0.7921805029,
				"y": -1.9394784004,
				"z": 0.7342504727,
				"element": "C" 
			},
			{
				"x": -0.0561614128,
				"y": -0.8048071408,
				"z": 0.1310906003,
				"element": "C" 
			},
			{
				"x": -1.5200127782,
				"y": -1.2933581345,
				"z": 0.100669994,
				"element": "C" 
			},
			{
				"x": 0.3875343963,
				"y": -0.3586596291,
				"z": -1.2957644917,
				"element": "C" 
			},
			{
				"x": -0.3812045351,
				"y": 0.9697086308,
				"z": -1.5153542531,
				"element": "C" 
			},
			{
				"x": -0.5476244138,
				"y": 1.584649638,
				"z": -0.0966286947,
				"element": "C" 
			},
			{
				"x": 0.0904419533,
				"y": 0.5663192298,
				"z": 0.9024106635,
				"element": "C" 
			},
			{
				"x": -0.5394904123,
				"y": 0.619729677,
				"z": 2.294548244,
				"element": "C" 
			},
			{
				"x": 1.5987543674,
				"y": 0.8660241505,
				"z": 0.9984485586,
				"element": "C" 
			},
			{
				"x": 2.1583152376,
				"y": 1.063810625,
				"z": 2.0614323071,
				"element": "O" 
			},
			{
				"x": 2.3618733363,
				"y": 0.9334542839,
				"z": -0.3241293101,
				"element": "C" 
			},
			{
				"x": 1.9068032934,
				"y": -0.1186296866,
				"z": -1.3591481877,
				"element": "C" 
			},
			{
				"x": 0.7509868709,
				"y": -2.8302442362,
				"z": 0.0968149382,
				"element": "H" 
			},
			{
				"x": 1.8441607775,
				"y": -1.6757431067,
				"z": 0.8692312781,
				"element": "H" 
			},
			{
				"x": 0.4058746835,
				"y": -2.2245818791,
				"z": 1.718258514,
				"element": "H" 
			},
			{
				"x": -1.8560114726,
				"y": -1.6036357214,
				"z": 1.0944727337,
				"element": "H" 
			},
			{
				"x": -1.6047532473,
				"y": -2.1644282259,
				"z": -0.5591573676,
				"element": "H" 
			},
			{
				"x": -2.2189291533,
				"y": -0.5359652275,
				"z": -0.263804474,
				"element": "H" 
			},
			{
				"x": 0.115047413,
				"y": -1.1130113704,
				"z": -2.0439947389,
				"element": "H" 
			},
			{
				"x": -1.3571357695,
				"y": 0.7842728541,
				"z": -1.9732245671,
				"element": "H" 
			},
			{
				"x": 0.1576455598,
				"y": 1.6351100642,
				"z": -2.1980347518,
				"element": "H" 
			},
			{
				"x": -1.6045493189,
				"y": 1.715904972,
				"z": 0.1551279424,
				"element": "H" 
			},
			{
				"x": -0.0895824253,
				"y": 2.5757978706,
				"z": -0.009974898,
				"element": "H" 
			},
			{
				"x": -1.6184319289,
				"y": 0.4492192296,
				"z": 2.2442138797,
				"element": "H" 
			},
			{
				"x": -0.3695969379,
				"y": 1.5980690147,
				"z": 2.7526199919,
				"element": "H" 
			},
			{
				"x": -0.0971560246,
				"y": -0.1224870258,
				"z": 2.9644484249,
				"element": "H" 
			},
			{
				"x": 3.4303612896,
				"y": 0.8690464737,
				"z": -0.1029111801,
				"element": "H" 
			},
			{
				"x": 2.187727852,
				"y": 1.9407370724,
				"z": -0.7274681461,
				"element": "H" 
			},
			{
				"x": 2.1845466315,
				"y": 0.2118939724,
				"z": -2.3668523938,
				"element": "H" 
			},
			{
				"x": 2.4400856656,
				"y": -1.0595179743,
				"z": -1.1883910883,
				"element": "H" 
			}
		],
		 "valence_orbital": [ 
			{
				"type": "occ",
				"energy": -0.31997,
				"method": "rhf"
			},
			{
				"type": "occ",
				"energy": -0.31317,
				"method": "rhf"
			},
			{
				"type": "occ",
				"energy": -0.30649,
				"method": "rhf"
			},
			{
				"type": "occ",
				"energy": -0.29391,
				"method": "rhf"
			},
			{
				"type": "occ",
				"energy": -0.22967,
				"method": "rhf"
			},
			{
				"type": "unocc",
				"energy": -0.00637,
				"method": "rhf"
			},
			{
				"type": "unocc",
				"energy": 0.06553,
				"method": "rhf"
			},
			{
				"type": "unocc",
				"energy": 0.09025,
				"method": "rhf"
			},
			{
				"type": "unocc",
				"energy": 0.10099,
				"method": "rhf"
			},
			{
				"type": "unocc",
				"energy": 0.1131,
				"method": "rhf"
			}
		],
		"cosmo_sigma_profile": { 
			"-0.025": 0.0,
			"-0.024": 0.0,
			"-0.023": 0.0,
			"-0.022": 0.0,
			"-0.021": 0.0,
			"-0.02": 0.0,
			"-0.019": 0.0,
			"-0.018": 0.0,
			"-0.017": 0.0,
			"-0.016": 0.0,
			"-0.015": 0.0,
			"-0.014": 0.0,
			"-0.013": 0.0,
			"-0.012": 0.0,
			"-0.011": 0.0,
			"-0.01": 0.0,
			"-0.009": 0.0,
			"-0.008": 0.0,
			"-0.007": 0.0,
			"-0.006": 0.766634790213,
			"-0.005": 3.71280600476,
			"-0.004": 8.54396610953,
			"-0.003": 28.3075075062,
			"-0.002": 41.5001453529,
			"-0.001": 37.7778461005,
			"0.0": 31.0679345482,
			"0.001": 26.228806571,
			"0.002": 8.96715305374,
			"0.003": 1.73568748995,
			"0.004": 2.35200332536,
			"0.005": 1.73078319119,
			"0.006": 1.54522943608,
			"0.007": 1.58845959806,
			"0.008": 1.59694227744,
			"0.009": 1.58447322101,
			"0.01": 1.52820080543,
			"0.011": 2.61471841058,
			"0.012": 3.75912092675,
			"0.013": 3.73970701908,
			"0.014": 0.801573352014,
			"0.015": 0.0,
			"0.016": 0.0,
			"0.017": 0.0,
			"0.018": 0.0,
			"0.019": 0.0,
			"0.02": 0.0,
			"0.021": 0.0,
			"0.022": 0.0,
			"0.023": 0.0,
			"0.024": 0.0,
			"0.025": 0.0
		}
	}
}
