{
	 "smiles": "CC1(C)OC(=O)C(=CNC2=NC3=C(S2)C=C(Cl)C=C3)C(=O)O1", 
	 "Tm": 524.0, 
	 "num_atms": 33, 
	 "gaussian": { 
		 "optdone": 1, 
		 "sigma_profile": "yes", 
		 "theory": "DFT", 
		 "functional": "B3LYP", 
		 "basiset": "6-31G**", 
		 "properties": { 
			 "R2extent": 10806.7984, 
			 "electric_dipole_moment_norm": 2.4766244891, 
			 "electric_quadrupole_moment_norm": 26.0947251166, 
			 "total_energy": -1808.91527339, 
			 "HOMO_LUMO_gap": 0.15539, 
			 "cosmo_polarized_energy": -22.9, 
			 "cosmo_cavitation_energy": 41.44, 
			 "cosmo_dispersion_energy": -29.44, 
			 "cosmo_repulsion_energy": 2.19, 
			 "cosmo_total_nonelectrostatic_energy": 14.19, 
			 "SMD_solvation_energy": 6.89 
		},
		"coords": [
			{
				"x": -4.3472765574,
				"y": 0.6739959508,
				"z": 2.6300344609,
				"element": "C" 
			},
			{
				"x": -2.9003413567,
				"y": 0.526806383,
				"z": 2.1936145676,
				"element": "C" 
			},
			{
				"x": -2.1607049887,
				"y": -0.5997720207,
				"z": 2.9151600657,
				"element": "C" 
			},
			{
				"x": -2.2755921361,
				"y": 1.7921330634,
				"z": 2.4740500712,
				"element": "O" 
			},
			{
				"x": -1.0926838928,
				"y": 2.0956870881,
				"z": 1.8686977787,
				"element": "C" 
			},
			{
				"x": -0.4238174081,
				"y": 3.0138484693,
				"z": 2.2915250238,
				"element": "O" 
			},
			{
				"x": -0.7479299732,
				"y": 1.2583343562,
				"z": 0.6949994604,
				"element": "C" 
			},
			{
				"x": 0.5073150466,
				"y": 1.4514017953,
				"z": 0.1942468838,
				"element": "C" 
			},
			{
				"x": 1.1756436158,
				"y": 0.7935954172,
				"z": -0.7946626174,
				"element": "N" 
			},
			{
				"x": 0.9815999089,
				"y": -0.5147965404,
				"z": -1.2386701361,
				"element": "C" 
			},
			{
				"x": 0.5565494671,
				"y": -1.4836477852,
				"z": -0.5023254691,
				"element": "N" 
			},
			{
				"x": 0.5134143453,
				"y": -2.6601922635,
				"z": -1.2297123407,
				"element": "C" 
			},
			{
				"x": 0.9593372245,
				"y": -2.5678931546,
				"z": -2.5716652296,
				"element": "C" 
			},
			{
				"x": 1.3959156328,
				"y": -0.9050919931,
				"z": -2.922762143,
				"element": "S" 
			},
			{
				"x": 1.0056112762,
				"y": -3.6785427585,
				"z": -3.4132537727,
				"element": "C" 
			},
			{
				"x": 0.5845165627,
				"y": -4.8949820306,
				"z": -2.8823465539,
				"element": "C" 
			},
			{
				"x": 0.6189607847,
				"y": -6.3229234801,
				"z": -3.9048394814,
				"element": "Cl" 
			},
			{
				"x": 0.133758088,
				"y": -5.0174845381,
				"z": -1.5588347776,
				"element": "C" 
			},
			{
				"x": 0.0988558422,
				"y": -3.9023900718,
				"z": -0.7312604711,
				"element": "C" 
			},
			{
				"x": -1.8009402201,
				"y": 0.4611919702,
				"z": 0.0435266637,
				"element": "C" 
			},
			{
				"x": -1.7694404132,
				"y": 0.061647132,
				"z": -1.0994530416,
				"element": "O" 
			},
			{
				"x": -2.9355462508,
				"y": 0.2725769833,
				"z": 0.7824663335,
				"element": "O" 
			},
			{
				"x": -4.8113292824,
				"y": 1.4966246134,
				"z": 2.0822462889,
				"element": "H" 
			},
			{
				"x": -4.3936329082,
				"y": 0.8862858335,
				"z": 3.7005220604,
				"element": "H" 
			},
			{
				"x": -4.8940426908,
				"y": -0.2480245522,
				"z": 2.4203394676,
				"element": "H" 
			},
			{
				"x": -2.1304779606,
				"y": -0.3951738522,
				"z": 3.988161562,
				"element": "H" 
			},
			{
				"x": -1.136750332,
				"y": -0.69985588,
				"z": 2.5459084836,
				"element": "H" 
			},
			{
				"x": -2.6812350037,
				"y": -1.5458590242,
				"z": 2.7469190789,
				"element": "H" 
			},
			{
				"x": 1.0773738603,
				"y": 2.2586621365,
				"z": 0.6481630254,
				"element": "H" 
			},
			{
				"x": 2.0304125315,
				"y": 1.2324209592,
				"z": -1.109622124,
				"element": "H" 
			},
			{
				"x": 1.3473416351,
				"y": -3.6113647387,
				"z": -4.4392688378,
				"element": "H" 
			},
			{
				"x": -0.1848640323,
				"y": -5.986406513,
				"z": -1.1921165907,
				"element": "H" 
			},
			{
				"x": -0.2452004149,
				"y": -3.9771109548,
				"z": 0.2945123103,
				"element": "H" 
			}
		],
		 "valence_orbital": [ 
			{
				"type": "occ",
				"energy": -0.28656,
				"method": "rhf"
			},
			{
				"type": "occ",
				"energy": -0.27087,
				"method": "rhf"
			},
			{
				"type": "occ",
				"energy": -0.26567,
				"method": "rhf"
			},
			{
				"type": "occ",
				"energy": -0.25361,
				"method": "rhf"
			},
			{
				"type": "occ",
				"energy": -0.23293,
				"method": "rhf"
			},
			{
				"type": "unocc",
				"energy": -0.07754,
				"method": "rhf"
			},
			{
				"type": "unocc",
				"energy": -0.03205,
				"method": "rhf"
			},
			{
				"type": "unocc",
				"energy": -0.0252,
				"method": "rhf"
			},
			{
				"type": "unocc",
				"energy": -0.01914,
				"method": "rhf"
			},
			{
				"type": "unocc",
				"energy": 0.00524,
				"method": "rhf"
			}
		],
		"cosmo_sigma_profile": { 
			"-0.025": 0.0,
			"-0.024": 0.0,
			"-0.023": 0.0,
			"-0.022": 0.0,
			"-0.021": 0.0,
			"-0.02": 0.0,
			"-0.019": 0.288539696039,
			"-0.018": 1.98897861701,
			"-0.017": 1.49926355139,
			"-0.016": 1.5627282232,
			"-0.015": 1.76512647372,
			"-0.014": 1.59908009433,
			"-0.013": 1.1298408616,
			"-0.012": 1.58925590683,
			"-0.011": 1.66442710804,
			"-0.01": 1.83660659544,
			"-0.009": 3.26898893598,
			"-0.008": 4.17281577377,
			"-0.007": 7.28994472749,
			"-0.006": 13.5738872102,
			"-0.005": 20.3024321171,
			"-0.004": 18.7799842188,
			"-0.003": 23.4382893772,
			"-0.002": 26.5479918342,
			"-0.001": 27.1654090196,
			"0.0": 23.7292804774,
			"0.001": 26.7788143621,
			"0.002": 27.9406340007,
			"0.003": 19.4788339278,
			"0.004": 17.9682188615,
			"0.005": 10.9512788054,
			"0.006": 7.13472126452,
			"0.007": 5.675809119,
			"0.008": 6.26686926318,
			"0.009": 6.80969450092,
			"0.01": 7.03522792671,
			"0.011": 8.30177992572,
			"0.012": 6.02664371578,
			"0.013": 2.68066205892,
			"0.014": 0.0301309784568,
			"0.015": 0.0,
			"0.016": 0.0,
			"0.017": 0.0,
			"0.018": 0.0,
			"0.019": 0.0,
			"0.02": 0.0,
			"0.021": 0.0,
			"0.022": 0.0,
			"0.023": 0.0,
			"0.024": 0.0,
			"0.025": 0.0
		}
	}
}
