{
	 "smiles": "[O-][N+](=O)C1=C(CS(Cl)(=O)=O)C=CC=C1", 
	 "Tm": 338.15, 
	 "num_atms": 20, 
	 "gaussian": { 
		 "optdone": 1, 
		 "sigma_profile": "yes", 
		 "theory": "DFT", 
		 "functional": "B3LYP", 
		 "basiset": "6-31G**", 
		 "properties": { 
			 "R2extent": 3862.8245, 
			 "electric_dipole_moment_norm": 5.93430466778, 
			 "electric_quadrupole_moment_norm": 12.5718407419, 
			 "total_energy": -1484.2155763, 
			 "HOMO_LUMO_gap": 0.18311, 
			 "cosmo_polarized_energy": -14.3, 
			 "cosmo_cavitation_energy": 28.26, 
			 "cosmo_dispersion_energy": -20.53, 
			 "cosmo_repulsion_energy": 1.56, 
			 "cosmo_total_nonelectrostatic_energy": 9.29, 
			 "SMD_solvation_energy": 5.64 
		},
		"coords": [
			{
				"x": -0.1190450177,
				"y": 0.9866407595,
				"z": -1.9419748264,
				"element": "O" 
			},
			{
				"x": -0.6769001042,
				"y": -0.1116318338,
				"z": -1.9872237621,
				"element": "N" 
			},
			{
				"x": -1.1223073586,
				"y": -0.6206367106,
				"z": -3.0106693576,
				"element": "O" 
			},
			{
				"x": -0.8692490846,
				"y": -0.8585090018,
				"z": -0.7250588866,
				"element": "C" 
			},
			{
				"x": -0.0111084341,
				"y": -0.7189508691,
				"z": 0.38395796,
				"element": "C" 
			},
			{
				"x": 1.2347342952,
				"y": 0.1193601727,
				"z": 0.4063290209,
				"element": "C" 
			},
			{
				"x": 2.7990835563,
				"y": -0.8479331583,
				"z": 0.3520593694,
				"element": "S" 
			},
			{
				"x": 2.6433129514,
				"y": -1.7432900402,
				"z": -1.5702407896,
				"element": "Cl" 
			},
			{
				"x": 2.7608419206,
				"y": -1.9283832864,
				"z": 1.3313182155,
				"element": "O" 
			},
			{
				"x": 3.9030838627,
				"y": 0.1017259031,
				"z": 0.3052038122,
				"element": "O" 
			},
			{
				"x": -0.3309391122,
				"y": -1.4614156505,
				"z": 1.5305155775,
				"element": "C" 
			},
			{
				"x": -1.4492506332,
				"y": -2.2904659507,
				"z": 1.5805138112,
				"element": "C" 
			},
			{
				"x": -2.2784710881,
				"y": -2.4110885245,
				"z": 0.4655081971,
				"element": "C" 
			},
			{
				"x": -1.9825818616,
				"y": -1.6982158116,
				"z": -0.6920524812,
				"element": "C" 
			},
			{
				"x": 1.343916725,
				"y": 0.6502957059,
				"z": 1.3575207064,
				"element": "H" 
			},
			{
				"x": 1.3053338054,
				"y": 0.8277144039,
				"z": -0.4144293091,
				"element": "H" 
			},
			{
				"x": 0.3272327338,
				"y": -1.396148471,
				"z": 2.3903531613,
				"element": "H" 
			},
			{
				"x": -1.6668917508,
				"y": -2.8439943761,
				"z": 2.4883161563,
				"element": "H" 
			},
			{
				"x": -3.1516485154,
				"y": -3.0546543189,
				"z": 0.493250506,
				"element": "H" 
			},
			{
				"x": -2.6010468899,
				"y": -1.7739189417,
				"z": -1.5773970813,
				"element": "H" 
			}
		],
		 "valence_orbital": [ 
			{
				"type": "occ",
				"energy": -0.32471,
				"method": "rhf"
			},
			{
				"type": "occ",
				"energy": -0.32085,
				"method": "rhf"
			},
			{
				"type": "occ",
				"energy": -0.31431,
				"method": "rhf"
			},
			{
				"type": "occ",
				"energy": -0.29378,
				"method": "rhf"
			},
			{
				"type": "occ",
				"energy": -0.29199,
				"method": "rhf"
			},
			{
				"type": "unocc",
				"energy": -0.10888,
				"method": "rhf"
			},
			{
				"type": "unocc",
				"energy": -0.08793,
				"method": "rhf"
			},
			{
				"type": "unocc",
				"energy": -0.05138,
				"method": "rhf"
			},
			{
				"type": "unocc",
				"energy": -0.02644,
				"method": "rhf"
			},
			{
				"type": "unocc",
				"energy": 0.04311,
				"method": "rhf"
			}
		],
		"cosmo_sigma_profile": { 
			"-0.025": 0.0,
			"-0.024": 0.0,
			"-0.023": 0.0,
			"-0.022": 0.0,
			"-0.021": 0.0,
			"-0.02": 0.0,
			"-0.019": 0.0,
			"-0.018": 0.0,
			"-0.017": 0.0,
			"-0.016": 0.0,
			"-0.015": 0.0,
			"-0.014": 0.0699232518753,
			"-0.013": 1.05560282434,
			"-0.012": 2.0961777118,
			"-0.011": 1.85398922924,
			"-0.01": 2.04729347482,
			"-0.009": 2.48020601317,
			"-0.008": 9.48134616803,
			"-0.007": 14.080893991,
			"-0.006": 11.1219779492,
			"-0.005": 9.26424240704,
			"-0.004": 9.28826770505,
			"-0.003": 10.6009784378,
			"-0.002": 12.800921006,
			"-0.001": 15.8253107551,
			"0.0": 19.3155472108,
			"0.001": 19.8938840212,
			"0.002": 13.2937998131,
			"0.003": 14.6591961648,
			"0.004": 7.6957410638,
			"0.005": 7.33855814159,
			"0.006": 8.37016740793,
			"0.007": 12.7270718904,
			"0.008": 15.3329268556,
			"0.009": 8.19437228053,
			"0.01": 0.618851175666,
			"0.011": 0.0,
			"0.012": 0.0,
			"0.013": 0.0,
			"0.014": 0.0,
			"0.015": 0.0,
			"0.016": 0.0,
			"0.017": 0.0,
			"0.018": 0.0,
			"0.019": 0.0,
			"0.02": 0.0,
			"0.021": 0.0,
			"0.022": 0.0,
			"0.023": 0.0,
			"0.024": 0.0,
			"0.025": 0.0
		}
	}
}
