{
	 "smiles": "CNC(=O)C1=C(C)C(N)=CC=C1", 
	 "Tm": 452.15, 
	 "num_atms": 24, 
	 "gaussian": { 
		 "optdone": 1, 
		 "sigma_profile": "yes", 
		 "theory": "DFT", 
		 "functional": "B3LYP", 
		 "basiset": "6-31G**", 
		 "properties": { 
			 "R2extent": 2295.798, 
			 "electric_dipole_moment_norm": 5.25398725636, 
			 "electric_quadrupole_moment_norm": 12.537250293, 
			 "total_energy": -534.933767601, 
			 "HOMO_LUMO_gap": 0.19353, 
			 "cosmo_polarized_energy": -16.73, 
			 "cosmo_cavitation_energy": 26.69, 
			 "cosmo_dispersion_energy": -19.27, 
			 "cosmo_repulsion_energy": 1.55, 
			 "cosmo_total_nonelectrostatic_energy": 8.97, 
			 "SMD_solvation_energy": 5.08 
		},
		"coords": [
			{
				"x": -1.544810617,
				"y": 0.4100311502,
				"z": -3.1739244899,
				"element": "C" 
			},
			{
				"x": -1.7373511536,
				"y": -0.9451290533,
				"z": -2.6874242541,
				"element": "N" 
			},
			{
				"x": -0.9541320279,
				"y": -1.6523172183,
				"z": -1.8063674254,
				"element": "C" 
			},
			{
				"x": -1.0670258419,
				"y": -2.8696544793,
				"z": -1.7083959636,
				"element": "O" 
			},
			{
				"x": 0.0565521437,
				"y": -0.8916919559,
				"z": -0.9807092886,
				"element": "C" 
			},
			{
				"x": -0.3030194614,
				"y": 0.1058315085,
				"z": -0.0563226292,
				"element": "C" 
			},
			{
				"x": -1.7361532011,
				"y": 0.5071216564,
				"z": 0.2069806058,
				"element": "C" 
			},
			{
				"x": 0.7217093514,
				"y": 0.7222152287,
				"z": 0.7027548574,
				"element": "C" 
			},
			{
				"x": 0.3926445319,
				"y": 1.6724801431,
				"z": 1.6755387039,
				"element": "N" 
			},
			{
				"x": 2.0572807015,
				"y": 0.3315065051,
				"z": 0.5270716115,
				"element": "C" 
			},
			{
				"x": 2.3866342733,
				"y": -0.6769623976,
				"z": -0.3739517855,
				"element": "C" 
			},
			{
				"x": 1.3912600001,
				"y": -1.2968542186,
				"z": -1.1227410229,
				"element": "C" 
			},
			{
				"x": -2.4371019006,
				"y": 1.0263547374,
				"z": -3.0110730681,
				"element": "H" 
			},
			{
				"x": -1.3136654167,
				"y": 0.4155394071,
				"z": -4.2461229224,
				"element": "H" 
			},
			{
				"x": -0.7093076924,
				"y": 0.8692088171,
				"z": -2.6455714555,
				"element": "H" 
			},
			{
				"x": -2.3530921989,
				"y": -1.550372904,
				"z": -3.2163928802,
				"element": "H" 
			},
			{
				"x": -1.9348881211,
				"y": 1.5479995458,
				"z": -0.089204935,
				"element": "H" 
			},
			{
				"x": -2.4435895189,
				"y": -0.1217205266,
				"z": -0.3338202617,
				"element": "H" 
			},
			{
				"x": -1.9634459598,
				"y": 0.4315339829,
				"z": 1.2769985335,
				"element": "H" 
			},
			{
				"x": -0.4200010554,
				"y": 2.2395389738,
				"z": 1.4785293099,
				"element": "H" 
			},
			{
				"x": 1.170654779,
				"y": 2.2333972546,
				"z": 1.9946067067,
				"element": "H" 
			},
			{
				"x": 2.833875142,
				"y": 0.8150709019,
				"z": 1.1153925641,
				"element": "H" 
			},
			{
				"x": 3.4238420352,
				"y": -0.9782930316,
				"z": -0.4891331939,
				"element": "H" 
			},
			{
				"x": 1.6300312085,
				"y": -2.0976340274,
				"z": -1.814117317,
				"element": "H" 
			}
		],
		 "valence_orbital": [ 
			{
				"type": "occ",
				"energy": -0.30733,
				"method": "rhf"
			},
			{
				"type": "occ",
				"energy": -0.25103,
				"method": "rhf"
			},
			{
				"type": "occ",
				"energy": -0.24465,
				"method": "rhf"
			},
			{
				"type": "occ",
				"energy": -0.22989,
				"method": "rhf"
			},
			{
				"type": "occ",
				"energy": -0.20227,
				"method": "rhf"
			},
			{
				"type": "unocc",
				"energy": -0.00874,
				"method": "rhf"
			},
			{
				"type": "unocc",
				"energy": 0.01464,
				"method": "rhf"
			},
			{
				"type": "unocc",
				"energy": 0.04844,
				"method": "rhf"
			},
			{
				"type": "unocc",
				"energy": 0.07459,
				"method": "rhf"
			},
			{
				"type": "unocc",
				"energy": 0.09371,
				"method": "rhf"
			}
		],
		"cosmo_sigma_profile": { 
			"-0.025": 0.0,
			"-0.024": 0.0,
			"-0.023": 0.0,
			"-0.022": 0.0,
			"-0.021": 0.0,
			"-0.02": 0.0,
			"-0.019": 0.0,
			"-0.018": 0.0,
			"-0.017": 0.0,
			"-0.016": 0.0,
			"-0.015": 0.0,
			"-0.014": 0.0145442301191,
			"-0.013": 0.812112034389,
			"-0.012": 3.32382816093,
			"-0.011": 3.52727312408,
			"-0.01": 3.48816607266,
			"-0.009": 4.01311308674,
			"-0.008": 4.48022870428,
			"-0.007": 4.0067620423,
			"-0.006": 5.53365554089,
			"-0.005": 11.7839747475,
			"-0.004": 16.2140878328,
			"-0.003": 19.0709104649,
			"-0.002": 23.6356855615,
			"-0.001": 15.7760263683,
			"0.0": 15.7494271373,
			"0.001": 9.84659167733,
			"0.002": 7.37475865131,
			"0.003": 7.26313798869,
			"0.004": 7.60332181366,
			"0.005": 8.85434167451,
			"0.006": 8.89912451673,
			"0.007": 4.57997444129,
			"0.008": 2.3334058651,
			"0.009": 2.22675992557,
			"0.01": 2.17924452845,
			"0.011": 2.50357862654,
			"0.012": 2.5519937142,
			"0.013": 3.82557751997,
			"0.014": 5.93004885086,
			"0.015": 2.60085955752,
			"0.016": 0.144625723609,
			"0.017": 0.0,
			"0.018": 0.0,
			"0.019": 0.0,
			"0.02": 0.0,
			"0.021": 0.0,
			"0.022": 0.0,
			"0.023": 0.0,
			"0.024": 0.0,
			"0.025": 0.0
		}
	}
}
