{
	 "smiles": "CC(=O)C1=CC(C)=C(C)C=C1O", 
	 "Tm": 344.15, 
	 "num_atms": 24, 
	 "gaussian": { 
		 "optdone": 1, 
		 "sigma_profile": "yes", 
		 "theory": "DFT", 
		 "functional": "B3LYP", 
		 "basiset": "6-31G**", 
		 "properties": { 
			 "R2extent": 2351.5013, 
			 "electric_dipole_moment_norm": 3.74775202755, 
			 "electric_quadrupole_moment_norm": 8.65674068169, 
			 "total_energy": -538.774370698, 
			 "HOMO_LUMO_gap": 0.16024, 
			 "cosmo_polarized_energy": -8.11, 
			 "cosmo_cavitation_energy": 26.75, 
			 "cosmo_dispersion_energy": -19.73, 
			 "cosmo_repulsion_energy": 1.55, 
			 "cosmo_total_nonelectrostatic_energy": 8.58, 
			 "SMD_solvation_energy": 5.5 
		},
		"coords": [
			{
				"x": 1.5090001497,
				"y": -3.0380454286,
				"z": -0.1282443109,
				"element": "C" 
			},
			{
				"x": 0.8864380161,
				"y": -2.1488448383,
				"z": 0.9300818301,
				"element": "C" 
			},
			{
				"x": 0.9097310413,
				"y": -2.5269902621,
				"z": 2.1143150947,
				"element": "O" 
			},
			{
				"x": 0.2723081757,
				"y": -0.8704675809,
				"z": 0.5563902349,
				"element": "C" 
			},
			{
				"x": 0.2274636382,
				"y": -0.4091980688,
				"z": -0.7774457475,
				"element": "C" 
			},
			{
				"x": -0.3516457159,
				"y": 0.79804361,
				"z": -1.1373471509,
				"element": "C" 
			},
			{
				"x": -0.372381001,
				"y": 1.2438327828,
				"z": -2.5801423488,
				"element": "C" 
			},
			{
				"x": -0.924195632,
				"y": 1.6030097969,
				"z": -0.1134255234,
				"element": "C" 
			},
			{
				"x": -1.5665684801,
				"y": 2.9250923084,
				"z": -0.4527532393,
				"element": "C" 
			},
			{
				"x": -0.8917697612,
				"y": 1.1695543764,
				"z": 1.2064329134,
				"element": "C" 
			},
			{
				"x": -0.3041497382,
				"y": -0.0538283471,
				"z": 1.5661422729,
				"element": "C" 
			},
			{
				"x": -0.3101950821,
				"y": -0.405696771,
				"z": 2.8577895921,
				"element": "O" 
			},
			{
				"x": 1.9047987081,
				"y": -3.9301964044,
				"z": 0.3576691658,
				"element": "H" 
			},
			{
				"x": 0.7687885023,
				"y": -3.3317041512,
				"z": -0.8799468399,
				"element": "H" 
			},
			{
				"x": 2.3193932204,
				"y": -2.5189365472,
				"z": -0.6507336483,
				"element": "H" 
			},
			{
				"x": 0.6648693772,
				"y": -1.0247617648,
				"z": -1.5580486732,
				"element": "H" 
			},
			{
				"x": 0.1509359134,
				"y": 2.1974596052,
				"z": -2.7221397878,
				"element": "H" 
			},
			{
				"x": -1.3950411624,
				"y": 1.3882144811,
				"z": -2.9499337788,
				"element": "H" 
			},
			{
				"x": 0.1098129961,
				"y": 0.5042217642,
				"z": -3.2250762452,
				"element": "H" 
			},
			{
				"x": -2.396221504,
				"y": 2.7967243638,
				"z": -1.1583032761,
				"element": "H" 
			},
			{
				"x": -0.8515420134,
				"y": 3.6057693376,
				"z": -0.9302626225,
				"element": "H" 
			},
			{
				"x": -1.9566577247,
				"y": 3.4180350282,
				"z": 0.4406457813,
				"element": "H" 
			},
			{
				"x": -1.324227186,
				"y": 1.7722262463,
				"z": 1.9991180928,
				"element": "H" 
			},
			{
				"x": 0.1458552623,
				"y": -1.2883135366,
				"z": 2.9016182145,
				"element": "H" 
			}
		],
		 "valence_orbital": [ 
			{
				"type": "occ",
				"energy": -0.34033,
				"method": "rhf"
			},
			{
				"type": "occ",
				"energy": -0.32097,
				"method": "rhf"
			},
			{
				"type": "occ",
				"energy": -0.25843,
				"method": "rhf"
			},
			{
				"type": "occ",
				"energy": -0.25333,
				"method": "rhf"
			},
			{
				"type": "occ",
				"energy": -0.21685,
				"method": "rhf"
			},
			{
				"type": "unocc",
				"energy": -0.05661,
				"method": "rhf"
			},
			{
				"type": "unocc",
				"energy": 0.0092,
				"method": "rhf"
			},
			{
				"type": "unocc",
				"energy": 0.03751,
				"method": "rhf"
			},
			{
				"type": "unocc",
				"energy": 0.08671,
				"method": "rhf"
			},
			{
				"type": "unocc",
				"energy": 0.09711,
				"method": "rhf"
			}
		],
		"cosmo_sigma_profile": { 
			"-0.025": 0.0,
			"-0.024": 0.0,
			"-0.023": 0.0,
			"-0.022": 0.0,
			"-0.021": 0.0,
			"-0.02": 0.0,
			"-0.019": 0.0,
			"-0.018": 0.0,
			"-0.017": 0.0,
			"-0.016": 0.0,
			"-0.015": 0.0,
			"-0.014": 0.0,
			"-0.013": 0.0,
			"-0.012": 0.0,
			"-0.011": 0.0,
			"-0.01": 0.0,
			"-0.009": 0.0,
			"-0.008": 0.0,
			"-0.007": 0.237830614725,
			"-0.006": 9.56688949984,
			"-0.005": 14.6640108211,
			"-0.004": 22.3098950762,
			"-0.003": 20.4101082437,
			"-0.002": 21.3606625514,
			"-0.001": 25.2527578185,
			"0.0": 22.179374546,
			"0.001": 12.6972717737,
			"0.002": 10.621280335,
			"0.003": 12.4124107464,
			"0.004": 12.3732848939,
			"0.005": 5.96457059825,
			"0.006": 2.37744442503,
			"0.007": 3.18506377443,
			"0.008": 2.21827193672,
			"0.009": 3.61360731669,
			"0.01": 2.86115431137,
			"0.011": 3.49244594842,
			"0.012": 2.72684197147,
			"0.013": 0.7313302431,
			"0.014": 0.0,
			"0.015": 0.0,
			"0.016": 0.0,
			"0.017": 0.0,
			"0.018": 0.0,
			"0.019": 0.0,
			"0.02": 0.0,
			"0.021": 0.0,
			"0.022": 0.0,
			"0.023": 0.0,
			"0.024": 0.0,
			"0.025": 0.0
		}
	}
}
