{
	 "smiles": "FC1=CC(=CC=C1)C(=O)C1=CC(Br)=CC=C1", 
	 "Tm": 339.15, 
	 "num_atms": 24, 
	 "gaussian": { 
		 "optdone": 1, 
		 "sigma_profile": "yes", 
		 "theory": "DFT", 
		 "functional": "B3LYP", 
		 "basiset": "6-31G**", 
		 "properties": { 
			 "R2extent": 7313.4528, 
			 "electric_dipole_moment_norm": 4.2848592474, 
			 "electric_quadrupole_moment_norm": 5.70250367996, 
			 "total_energy": -3246.66721309, 
			 "HOMO_LUMO_gap": 0.17537, 
			 "cosmo_polarized_energy": -9.1, 
			 "cosmo_cavitation_energy": 31.91, 
			 "cosmo_dispersion_energy": -23.32, 
			 "cosmo_repulsion_energy": 1.78, 
			 "cosmo_total_nonelectrostatic_energy": 10.37, 
			 "SMD_solvation_energy": 5.18 
		},
		"coords": [
			{
				"x": -2.8288265679,
				"y": -4.0607278197,
				"z": -2.1507052801,
				"element": "F" 
			},
			{
				"x": -2.3404271336,
				"y": -3.1708777861,
				"z": -1.2639058913,
				"element": "C" 
			},
			{
				"x": -1.3875080486,
				"y": -2.2563540061,
				"z": -1.6824193279,
				"element": "C" 
			},
			{
				"x": -0.8651475854,
				"y": -1.3443890984,
				"z": -0.7528011627,
				"element": "C" 
			},
			{
				"x": -1.3389954041,
				"y": -1.3520502435,
				"z": 0.5685909647,
				"element": "C" 
			},
			{
				"x": -2.3145891439,
				"y": -2.2721368517,
				"z": 0.9572285737,
				"element": "C" 
			},
			{
				"x": -2.8178063384,
				"y": -3.1986492869,
				"z": 0.0445198889,
				"element": "C" 
			},
			{
				"x": 0.1235437194,
				"y": -0.3362165811,
				"z": -1.2644657942,
				"element": "C" 
			},
			{
				"x": 0.1040852534,
				"y": -0.0097284901,
				"z": -2.4445753616,
				"element": "O" 
			},
			{
				"x": 1.1382059649,
				"y": 0.2758915587,
				"z": -0.3400809661,
				"element": "C" 
			},
			{
				"x": 1.6288754444,
				"y": 1.5462758274,
				"z": -0.68099929,
				"element": "C" 
			},
			{
				"x": 2.6045073394,
				"y": 2.1383566393,
				"z": 0.1103897579,
				"element": "C" 
			},
			{
				"x": 3.2503860637,
				"y": 3.8804526424,
				"z": -0.3370495251,
				"element": "Br" 
			},
			{
				"x": 3.1300125548,
				"y": 1.4827442687,
				"z": 1.2259112072,
				"element": "C" 
			},
			{
				"x": 2.6601146318,
				"y": 0.2089504563,
				"z": 1.5452035198,
				"element": "C" 
			},
			{
				"x": 1.6653477132,
				"y": -0.3934180236,
				"z": 0.7741343092,
				"element": "C" 
			},
			{
				"x": -1.0511094617,
				"y": -2.2374054432,
				"z": -2.7124676031,
				"element": "H" 
			},
			{
				"x": -0.9697460614,
				"y": -0.6251657928,
				"z": 1.2829795809,
				"element": "H" 
			},
			{
				"x": -2.6881747008,
				"y": -2.2666584552,
				"z": 1.9766068972,
				"element": "H" 
			},
			{
				"x": -3.5693026839,
				"y": -3.9290420157,
				"z": 0.3242713397,
				"element": "H" 
			},
			{
				"x": 1.239565819,
				"y": 2.0427973363,
				"z": -1.5616382719,
				"element": "H" 
			},
			{
				"x": 3.895887619,
				"y": 1.9595073233,
				"z": 1.8270855845,
				"element": "H" 
			},
			{
				"x": 3.07645824,
				"y": -0.315464767,
				"z": 2.4000209788,
				"element": "H" 
			},
			{
				"x": 1.3194427667,
				"y": -1.3903913914,
				"z": 1.0229658715,
				"element": "H" 
			}
		],
		 "valence_orbital": [ 
			{
				"type": "occ",
				"energy": -0.27711,
				"method": "rhf"
			},
			{
				"type": "occ",
				"energy": -0.27461,
				"method": "rhf"
			},
			{
				"type": "occ",
				"energy": -0.25952,
				"method": "rhf"
			},
			{
				"type": "occ",
				"energy": -0.25765,
				"method": "rhf"
			},
			{
				"type": "occ",
				"energy": -0.25306,
				"method": "rhf"
			},
			{
				"type": "unocc",
				"energy": -0.07769,
				"method": "rhf"
			},
			{
				"type": "unocc",
				"energy": -0.02878,
				"method": "rhf"
			},
			{
				"type": "unocc",
				"energy": -0.02559,
				"method": "rhf"
			},
			{
				"type": "unocc",
				"energy": -0.01351,
				"method": "rhf"
			},
			{
				"type": "unocc",
				"energy": 0.00165,
				"method": "rhf"
			}
		],
		"cosmo_sigma_profile": { 
			"-0.025": 0.0,
			"-0.024": 0.0,
			"-0.023": 0.0,
			"-0.022": 0.0,
			"-0.021": 0.0,
			"-0.02": 0.0,
			"-0.019": 0.0,
			"-0.018": 0.0,
			"-0.017": 0.0,
			"-0.016": 0.0,
			"-0.015": 0.0,
			"-0.014": 0.0,
			"-0.013": 0.0,
			"-0.012": 0.0,
			"-0.011": 0.0,
			"-0.01": 0.0,
			"-0.009": 0.00723431511109,
			"-0.008": 2.13021232102,
			"-0.007": 10.986896451,
			"-0.006": 15.3604537081,
			"-0.005": 15.0406360846,
			"-0.004": 17.734988405,
			"-0.003": 15.8097789753,
			"-0.002": 15.4281507426,
			"-0.001": 17.0897328948,
			"0.0": 23.9023147569,
			"0.001": 27.7729350323,
			"0.002": 33.2029467062,
			"0.003": 22.4074898887,
			"0.004": 21.8695682203,
			"0.005": 7.10221607693,
			"0.006": 2.11943357457,
			"0.007": 1.38683206711,
			"0.008": 1.55540339061,
			"0.009": 2.06863485912,
			"0.01": 2.0522359298,
			"0.011": 3.74499726443,
			"0.012": 2.17283277453,
			"0.013": 0.0,
			"0.014": 0.0,
			"0.015": 0.0,
			"0.016": 0.0,
			"0.017": 0.0,
			"0.018": 0.0,
			"0.019": 0.0,
			"0.02": 0.0,
			"0.021": 0.0,
			"0.022": 0.0,
			"0.023": 0.0,
			"0.024": 0.0,
			"0.025": 0.0
		}
	}
}
