{
	 "smiles": "ClS(=O)(=O)C1=CC=CS1", 
	 "Tm": 302.15, 
	 "num_atms": 12, 
	 "gaussian": { 
		 "optdone": 1, 
		 "sigma_profile": "yes", 
		 "theory": "DFT", 
		 "functional": "B3LYP", 
		 "basiset": "6-31G**", 
		 "properties": { 
			 "R2extent": 3130.9803, 
			 "electric_dipole_moment_norm": 5.53796951418, 
			 "electric_quadrupole_moment_norm": 11.9686757041, 
			 "total_energy": -1561.15332934, 
			 "HOMO_LUMO_gap": 0.18262, 
			 "cosmo_polarized_energy": -9.2, 
			 "cosmo_cavitation_energy": 21.67, 
			 "cosmo_dispersion_energy": -17.07, 
			 "cosmo_repulsion_energy": 1.3, 
			 "cosmo_total_nonelectrostatic_energy": 5.9, 
			 "SMD_solvation_energy": 2.46 
		},
		"coords": [
			{
				"x": -2.5929671722,
				"y": -3.1685506665,
				"z": -0.5362891872,
				"element": "Cl" 
			},
			{
				"x": -1.4198933203,
				"y": -1.3880774223,
				"z": -0.5182448963,
				"element": "S" 
			},
			{
				"x": -0.5517069974,
				"y": -1.4718936585,
				"z": -1.6848036278,
				"element": "O" 
			},
			{
				"x": -2.357681013,
				"y": -0.2953848887,
				"z": -0.3014907078,
				"element": "O" 
			},
			{
				"x": -0.4523389388,
				"y": -1.595304156,
				"z": 0.9311873233,
				"element": "C" 
			},
			{
				"x": -0.7988368344,
				"y": -1.1455330962,
				"z": 2.1826685426,
				"element": "C" 
			},
			{
				"x": 0.1900996151,
				"y": -1.4724373615,
				"z": 3.1482215859,
				"element": "C" 
			},
			{
				"x": 1.2461002341,
				"y": -2.1631938247,
				"z": 2.607436497,
				"element": "C" 
			},
			{
				"x": 1.0739429132,
				"y": -2.4282487964,
				"z": 0.9097936262,
				"element": "S" 
			},
			{
				"x": -1.7150868754,
				"y": -0.6043803965,
				"z": 2.3837431908,
				"element": "H" 
			},
			{
				"x": 0.1251654828,
				"y": -1.202619956,
				"z": 4.1953678932,
				"element": "H" 
			},
			{
				"x": 2.1341029063,
				"y": -2.5207757768,
				"z": 3.1116097603,
				"element": "H" 
			}
		],
		 "valence_orbital": [ 
			{
				"type": "occ",
				"energy": -0.34337,
				"method": "rhf"
			},
			{
				"type": "occ",
				"energy": -0.33511,
				"method": "rhf"
			},
			{
				"type": "occ",
				"energy": -0.31507,
				"method": "rhf"
			},
			{
				"type": "occ",
				"energy": -0.29171,
				"method": "rhf"
			},
			{
				"type": "occ",
				"energy": -0.27893,
				"method": "rhf"
			},
			{
				"type": "unocc",
				"energy": -0.09631,
				"method": "rhf"
			},
			{
				"type": "unocc",
				"energy": -0.05216,
				"method": "rhf"
			},
			{
				"type": "unocc",
				"energy": -0.00655,
				"method": "rhf"
			},
			{
				"type": "unocc",
				"energy": 0.01821,
				"method": "rhf"
			},
			{
				"type": "unocc",
				"energy": 0.03779,
				"method": "rhf"
			}
		],
		"cosmo_sigma_profile": { 
			"-0.025": 0.0,
			"-0.024": 0.0,
			"-0.023": 0.0,
			"-0.022": 0.0,
			"-0.021": 0.0,
			"-0.02": 0.0,
			"-0.019": 0.0,
			"-0.018": 0.0,
			"-0.017": 0.0,
			"-0.016": 0.0,
			"-0.015": 0.0,
			"-0.014": 0.0,
			"-0.013": 0.0,
			"-0.012": 0.0,
			"-0.011": 0.702111368132,
			"-0.01": 3.26022809672,
			"-0.009": 4.16896123506,
			"-0.008": 5.69269058669,
			"-0.007": 6.2260938916,
			"-0.006": 7.10533565126,
			"-0.005": 5.96671708711,
			"-0.004": 7.08150289276,
			"-0.003": 7.58471211217,
			"-0.002": 11.359119041,
			"-0.001": 14.7576041741,
			"0.0": 20.5943579134,
			"0.001": 19.5605602097,
			"0.002": 14.6530755758,
			"0.003": 15.1454620389,
			"0.004": 8.80048017032,
			"0.005": 2.91531833372,
			"0.006": 3.63709637057,
			"0.007": 7.1166117372,
			"0.008": 10.0317798685,
			"0.009": 3.3697394103,
			"0.01": 0.0,
			"0.011": 0.0,
			"0.012": 0.0,
			"0.013": 0.0,
			"0.014": 0.0,
			"0.015": 0.0,
			"0.016": 0.0,
			"0.017": 0.0,
			"0.018": 0.0,
			"0.019": 0.0,
			"0.02": 0.0,
			"0.021": 0.0,
			"0.022": 0.0,
			"0.023": 0.0,
			"0.024": 0.0,
			"0.025": 0.0
		}
	}
}
