{
	 "smiles": "NC1=CC=NC2=CC=NN12", 
	 "Tm": 472.15, 
	 "num_atms": 16, 
	 "gaussian": { 
		 "optdone": 1, 
		 "sigma_profile": "yes", 
		 "theory": "DFT", 
		 "functional": "B3LYP", 
		 "basiset": "6-31G**", 
		 "properties": { 
			 "R2extent": 1699.2311, 
			 "electric_dipole_moment_norm": 3.58471302199, 
			 "electric_quadrupole_moment_norm": 10.4572397515, 
			 "total_energy": -451.239513533, 
			 "HOMO_LUMO_gap": 0.18194, 
			 "cosmo_polarized_energy": -12.48, 
			 "cosmo_cavitation_energy": 19.99, 
			 "cosmo_dispersion_energy": -15.52, 
			 "cosmo_repulsion_energy": 1.24, 
			 "cosmo_total_nonelectrostatic_energy": 5.71, 
			 "SMD_solvation_energy": 1.44 
		},
		"coords": [
			{
				"x": -1.5288514336,
				"y": 1.2463133803,
				"z": 0.4492775407,
				"element": "N" 
			},
			{
				"x": -0.2410625853,
				"y": 1.2076221086,
				"z": 0.8756509667,
				"element": "C" 
			},
			{
				"x": 0.2359999805,
				"y": 1.3608837076,
				"z": 2.1694936155,
				"element": "C" 
			},
			{
				"x": 1.6321226967,
				"y": 1.3314536294,
				"z": 2.3832399704,
				"element": "C" 
			},
			{
				"x": 2.5496107652,
				"y": 1.1631496809,
				"z": 1.444367968,
				"element": "N" 
			},
			{
				"x": 2.0804620083,
				"y": 1.0064227502,
				"z": 0.188041589,
				"element": "C" 
			},
			{
				"x": 2.6895547524,
				"y": 0.7943909907,
				"z": -1.0508564147,
				"element": "C" 
			},
			{
				"x": 1.6326696038,
				"y": 0.703024547,
				"z": -1.9673793589,
				"element": "C" 
			},
			{
				"x": 0.4205039714,
				"y": 0.8419239779,
				"z": -1.4076060071,
				"element": "N" 
			},
			{
				"x": 0.7060038562,
				"y": 1.0280701259,
				"z": -0.0937812131,
				"element": "N" 
			},
			{
				"x": -1.6887113345,
				"y": 0.9552041082,
				"z": -0.5059698481,
				"element": "H" 
			},
			{
				"x": -2.2690913215,
				"y": 1.1340009702,
				"z": 1.1215279235,
				"element": "H" 
			},
			{
				"x": -0.4530322968,
				"y": 1.5106628693,
				"z": 2.9917808548,
				"element": "H" 
			},
			{
				"x": 2.0036762119,
				"y": 1.4561485193,
				"z": 3.3992765938,
				"element": "H" 
			},
			{
				"x": 3.7491767646,
				"y": 0.7188092817,
				"z": -1.2357948848,
				"element": "H" 
			},
			{
				"x": 1.6942683607,
				"y": 0.5383193528,
				"z": -3.0354692956,
				"element": "H" 
			}
		],
		 "valence_orbital": [ 
			{
				"type": "occ",
				"energy": -0.3107,
				"method": "rhf"
			},
			{
				"type": "occ",
				"energy": -0.2717,
				"method": "rhf"
			},
			{
				"type": "occ",
				"energy": -0.25643,
				"method": "rhf"
			},
			{
				"type": "occ",
				"energy": -0.25276,
				"method": "rhf"
			},
			{
				"type": "occ",
				"energy": -0.20426,
				"method": "rhf"
			},
			{
				"type": "unocc",
				"energy": -0.02232,
				"method": "rhf"
			},
			{
				"type": "unocc",
				"energy": 9e-05,
				"method": "rhf"
			},
			{
				"type": "unocc",
				"energy": 0.06976,
				"method": "rhf"
			},
			{
				"type": "unocc",
				"energy": 0.07783,
				"method": "rhf"
			},
			{
				"type": "unocc",
				"energy": 0.10428,
				"method": "rhf"
			}
		],
		"cosmo_sigma_profile": { 
			"-0.025": 0.0,
			"-0.024": 0.0,
			"-0.023": 0.0,
			"-0.022": 0.0,
			"-0.021": 0.0,
			"-0.02": 0.0,
			"-0.019": 0.0,
			"-0.018": 0.0,
			"-0.017": 0.0,
			"-0.016": 0.156001316796,
			"-0.015": 1.44455036014,
			"-0.014": 1.42787903345,
			"-0.013": 2.06541300742,
			"-0.012": 2.52853513833,
			"-0.011": 2.46680093687,
			"-0.01": 1.91629196185,
			"-0.009": 1.57984903625,
			"-0.008": 3.610451857,
			"-0.007": 6.45464471717,
			"-0.006": 8.35997488378,
			"-0.005": 7.86802405456,
			"-0.004": 6.33257356062,
			"-0.003": 7.22159800534,
			"-0.002": 8.72384079375,
			"-0.001": 10.8520493949,
			"0.0": 10.2792225503,
			"0.001": 9.55595315897,
			"0.002": 10.4272483526,
			"0.003": 12.1908441629,
			"0.004": 11.1508922413,
			"0.005": 7.99430420061,
			"0.006": 4.98792386194,
			"0.007": 3.52714729737,
			"0.008": 4.2338694879,
			"0.009": 2.32089728008,
			"0.01": 2.20108429844,
			"0.011": 2.99868064961,
			"0.012": 1.53292350158,
			"0.013": 1.16039842854,
			"0.014": 1.04801378412,
			"0.015": 0.972253970328,
			"0.016": 0.86025273027,
			"0.017": 0.361763169904,
			"0.018": 0.0,
			"0.019": 0.0,
			"0.02": 0.0,
			"0.021": 0.0,
			"0.022": 0.0,
			"0.023": 0.0,
			"0.024": 0.0,
			"0.025": 0.0
		}
	}
}
