{
	 "smiles": "OC(=O)CCSC1=NC2=C(S1)C=CC=C2", 
	 "Tm": 423.15, 
	 "num_atms": 24, 
	 "gaussian": { 
		 "optdone": 1, 
		 "sigma_profile": "yes", 
		 "theory": "DFT", 
		 "functional": "B3LYP", 
		 "basiset": "6-31G**", 
		 "properties": { 
			 "R2extent": 5404.2503, 
			 "electric_dipole_moment_norm": 4.11311193745, 
			 "electric_quadrupole_moment_norm": 22.3754373233, 
			 "total_energy": -1388.07786317, 
			 "HOMO_LUMO_gap": 0.18729, 
			 "cosmo_polarized_energy": -16.1, 
			 "cosmo_cavitation_energy": 32.02, 
			 "cosmo_dispersion_energy": -24.06, 
			 "cosmo_repulsion_energy": 1.81, 
			 "cosmo_total_nonelectrostatic_energy": 9.77, 
			 "SMD_solvation_energy": 4.65 
		},
		"coords": [
			{
				"x": 2.5342635116,
				"y": 4.2750573461,
				"z": -2.5276755879,
				"element": "O" 
			},
			{
				"x": 1.7438054988,
				"y": 4.3731532311,
				"z": -1.4260779232,
				"element": "C" 
			},
			{
				"x": 1.1468485107,
				"y": 5.394973352,
				"z": -1.1960673151,
				"element": "O" 
			},
			{
				"x": 1.7042607369,
				"y": 3.133007884,
				"z": -0.5412905372,
				"element": "C" 
			},
			{
				"x": 0.6713702827,
				"y": 3.28004472,
				"z": 0.5735034207,
				"element": "C" 
			},
			{
				"x": 0.7176723207,
				"y": 1.925366667,
				"z": 1.8097540048,
				"element": "S" 
			},
			{
				"x": -0.0147967334,
				"y": 0.6153434434,
				"z": 0.8864688561,
				"element": "C" 
			},
			{
				"x": -0.3948215804,
				"y": 0.6850796758,
				"z": -0.3487682897,
				"element": "N" 
			},
			{
				"x": -0.9441126633,
				"y": -0.5198438238,
				"z": -0.7704544478,
				"element": "C" 
			},
			{
				"x": -0.9700884031,
				"y": -1.5480721054,
				"z": 0.2015960689,
				"element": "C" 
			},
			{
				"x": -0.2761640939,
				"y": -0.949018122,
				"z": 1.7018865226,
				"element": "S" 
			},
			{
				"x": -1.4900246876,
				"y": -2.8109590556,
				"z": -0.0850775813,
				"element": "C" 
			},
			{
				"x": -1.9901815199,
				"y": -3.0384763473,
				"z": -1.3662342713,
				"element": "C" 
			},
			{
				"x": -1.9714495609,
				"y": -2.026325484,
				"z": -2.3396062755,
				"element": "C" 
			},
			{
				"x": -1.4524144134,
				"y": -0.7682172643,
				"z": -2.0527111744,
				"element": "C" 
			},
			{
				"x": 2.9272131844,
				"y": 3.39209204,
				"z": -2.5816170914,
				"element": "H" 
			},
			{
				"x": 2.7067626409,
				"y": 2.975296473,
				"z": -0.12256956,
				"element": "H" 
			},
			{
				"x": 1.4631834489,
				"y": 2.2530366605,
				"z": -1.14760721,
				"element": "H" 
			},
			{
				"x": 0.8493667893,
				"y": 4.1897434401,
				"z": 1.1510037395,
				"element": "H" 
			},
			{
				"x": -0.3380784321,
				"y": 3.331022701,
				"z": 0.1634437464,
				"element": "H" 
			},
			{
				"x": -1.5074523227,
				"y": -3.5951288829,
				"z": 0.664868035,
				"element": "H" 
			},
			{
				"x": -2.4006768991,
				"y": -4.0131683812,
				"z": -1.6118154959,
				"element": "H" 
			},
			{
				"x": -2.3689497823,
				"y": -2.2292801415,
				"z": -3.3293838635,
				"element": "H" 
			},
			{
				"x": -1.4343358328,
				"y": 0.0233719742,
				"z": -2.7945677699,
				"element": "H" 
			}
		],
		 "valence_orbital": [ 
			{
				"type": "occ",
				"energy": -0.29139,
				"method": "rhf"
			},
			{
				"type": "occ",
				"energy": -0.28648,
				"method": "rhf"
			},
			{
				"type": "occ",
				"energy": -0.27549,
				"method": "rhf"
			},
			{
				"type": "occ",
				"energy": -0.24294,
				"method": "rhf"
			},
			{
				"type": "occ",
				"energy": -0.22724,
				"method": "rhf"
			},
			{
				"type": "unocc",
				"energy": -0.03995,
				"method": "rhf"
			},
			{
				"type": "unocc",
				"energy": -0.01313,
				"method": "rhf"
			},
			{
				"type": "unocc",
				"energy": -0.01044,
				"method": "rhf"
			},
			{
				"type": "unocc",
				"energy": 0.00575,
				"method": "rhf"
			},
			{
				"type": "unocc",
				"energy": 0.02198,
				"method": "rhf"
			}
		],
		"cosmo_sigma_profile": { 
			"-0.025": 0.0,
			"-0.024": 0.0,
			"-0.023": 0.0,
			"-0.022": 0.0,
			"-0.021": 0.0,
			"-0.02": 0.0958388398694,
			"-0.019": 0.899039671882,
			"-0.018": 1.22475263952,
			"-0.017": 0.777875804936,
			"-0.016": 0.94585371361,
			"-0.015": 1.36852857565,
			"-0.014": 0.883062771129,
			"-0.013": 0.892282519137,
			"-0.012": 1.39210865077,
			"-0.011": 1.35941766899,
			"-0.01": 1.20550472653,
			"-0.009": 1.39906997435,
			"-0.008": 3.95108537523,
			"-0.007": 8.28073702889,
			"-0.006": 15.3453847703,
			"-0.005": 14.2662482062,
			"-0.004": 16.9859403212,
			"-0.003": 13.8479989846,
			"-0.002": 13.5803478631,
			"-0.001": 14.0901397632,
			"0.0": 18.7039381271,
			"0.001": 21.7042730397,
			"0.002": 20.5920485894,
			"0.003": 21.9053487091,
			"0.004": 19.6318443715,
			"0.005": 12.1524382176,
			"0.006": 4.67185171948,
			"0.007": 4.39467836228,
			"0.008": 3.37630882128,
			"0.009": 4.19745987414,
			"0.01": 4.68620594284,
			"0.011": 5.51643041716,
			"0.012": 4.6701636377,
			"0.013": 1.24933913707,
			"0.014": 0.0148726806026,
			"0.015": 0.0,
			"0.016": 0.0,
			"0.017": 0.0,
			"0.018": 0.0,
			"0.019": 0.0,
			"0.02": 0.0,
			"0.021": 0.0,
			"0.022": 0.0,
			"0.023": 0.0,
			"0.024": 0.0,
			"0.025": 0.0
		}
	}
}
