{
	 "smiles": "CCC#C", 
	 "Tm": 147.15, 
	 "num_atms": 10, 
	 "gaussian": { 
		 "optdone": 1, 
		 "sigma_profile": "yes", 
		 "theory": "DFT", 
		 "functional": "B3LYP", 
		 "basiset": "6-31G**", 
		 "properties": { 
			 "R2extent": 620.9872, 
			 "electric_dipole_moment_norm": 0.702288302622, 
			 "electric_quadrupole_moment_norm": 3.1846020552, 
			 "total_energy": -155.972424423, 
			 "HOMO_LUMO_gap": 0.31423, 
			 "cosmo_polarized_energy": -3.46, 
			 "cosmo_cavitation_energy": 13.94, 
			 "cosmo_dispersion_energy": -9.75, 
			 "cosmo_repulsion_energy": 0.9, 
			 "cosmo_total_nonelectrostatic_energy": 5.09, 
			 "SMD_solvation_energy": 4.1 
		},
		"coords": [
			{
				"x": -0.4187119963,
				"y": -0.9756845051,
				"z": -1.608591167,
				"element": "C" 
			},
			{
				"x": -0.607354479,
				"y": 0.5513988197,
				"z": -1.5411709966,
				"element": "C" 
			},
			{
				"x": 0.6578519126,
				"y": 1.2840071975,
				"z": -1.4693635847,
				"element": "C" 
			},
			{
				"x": 1.7105772411,
				"y": 1.8735787886,
				"z": -1.4104392608,
				"element": "C" 
			},
			{
				"x": 0.1623085959,
				"y": -1.2575530173,
				"z": -2.491077663,
				"element": "H" 
			},
			{
				"x": 0.1111830565,
				"y": -1.3418597769,
				"z": -0.7248806393,
				"element": "H" 
			},
			{
				"x": -1.3900565908,
				"y": -1.477014246,
				"z": -1.6606494963,
				"element": "H" 
			},
			{
				"x": -1.1710643468,
				"y": 0.8922899085,
				"z": -2.4194127332,
				"element": "H" 
			},
			{
				"x": -1.2220362403,
				"y": 0.8087148883,
				"z": -0.6686705537,
				"element": "H" 
			},
			{
				"x": 2.6368028471,
				"y": 2.3968219427,
				"z": -1.3584439054,
				"element": "H" 
			}
		],
		 "valence_orbital": [ 
			{
				"type": "occ",
				"energy": -0.3969,
				"method": "rhf"
			},
			{
				"type": "occ",
				"energy": -0.37146,
				"method": "rhf"
			},
			{
				"type": "occ",
				"energy": -0.36331,
				"method": "rhf"
			},
			{
				"type": "occ",
				"energy": -0.25883,
				"method": "rhf"
			},
			{
				"type": "occ",
				"energy": -0.25771,
				"method": "rhf"
			},
			{
				"type": "unocc",
				"energy": 0.05652,
				"method": "rhf"
			},
			{
				"type": "unocc",
				"energy": 0.06261,
				"method": "rhf"
			},
			{
				"type": "unocc",
				"energy": 0.11115,
				"method": "rhf"
			},
			{
				"type": "unocc",
				"energy": 0.13348,
				"method": "rhf"
			},
			{
				"type": "unocc",
				"energy": 0.15018,
				"method": "rhf"
			}
		],
		"cosmo_sigma_profile": { 
			"-0.025": 0.0,
			"-0.024": 0.0,
			"-0.023": 0.0,
			"-0.022": 0.0,
			"-0.021": 0.0,
			"-0.02": 0.0,
			"-0.019": 0.0,
			"-0.018": 0.0,
			"-0.017": 0.0,
			"-0.016": 0.0,
			"-0.015": 0.0,
			"-0.014": 0.0,
			"-0.013": 0.0,
			"-0.012": 0.0166987527068,
			"-0.011": 0.751431310493,
			"-0.01": 1.35880641341,
			"-0.009": 1.27071357041,
			"-0.008": 0.496585853613,
			"-0.007": 1.61908045182,
			"-0.006": 1.31528003984,
			"-0.005": 5.16625912015,
			"-0.004": 7.77431846627,
			"-0.003": 12.0899967773,
			"-0.002": 15.085611444,
			"-0.001": 11.5128043319,
			"0.0": 10.59701889,
			"0.001": 8.25021331846,
			"0.002": 3.96180403959,
			"0.003": 2.86961732822,
			"0.004": 4.57561601381,
			"0.005": 4.53374787806,
			"0.006": 3.90015916261,
			"0.007": 8.13152548172,
			"0.008": 5.61418787157,
			"0.009": 0.000604718104045,
			"0.01": 0.0,
			"0.011": 0.0,
			"0.012": 0.0,
			"0.013": 0.0,
			"0.014": 0.0,
			"0.015": 0.0,
			"0.016": 0.0,
			"0.017": 0.0,
			"0.018": 0.0,
			"0.019": 0.0,
			"0.02": 0.0,
			"0.021": 0.0,
			"0.022": 0.0,
			"0.023": 0.0,
			"0.024": 0.0,
			"0.025": 0.0
		}
	}
}
