{
	 "smiles": "CC1=CC(=O)OC2=C1C=C(O)C(O)=C2", 
	 "Tm": 548.15, 
	 "num_atms": 22, 
	 "gaussian": { 
		 "optdone": 1, 
		 "sigma_profile": "yes", 
		 "theory": "DFT", 
		 "functional": "B3LYP", 
		 "basiset": "6-31G**", 
		 "properties": { 
			 "R2extent": 3122.5242, 
			 "electric_dipole_moment_norm": 4.76748382902, 
			 "electric_quadrupole_moment_norm": 22.2118714473, 
			 "total_energy": -686.778024021, 
			 "HOMO_LUMO_gap": 0.15308, 
			 "cosmo_polarized_energy": -21.88, 
			 "cosmo_cavitation_energy": 26.69, 
			 "cosmo_dispersion_energy": -19.96, 
			 "cosmo_repulsion_energy": 1.55, 
			 "cosmo_total_nonelectrostatic_energy": 8.28, 
			 "SMD_solvation_energy": 6.49 
		},
		"coords": [
			{
				"x": 1.9622888779,
				"y": 1.4125908971,
				"z": 1.1704586087,
				"element": "C" 
			},
			{
				"x": 0.4785764631,
				"y": 1.3535071558,
				"z": 0.925322654,
				"element": "C" 
			},
			{
				"x": -0.3092386181,
				"y": 2.4442029778,
				"z": 1.1204850451,
				"element": "C" 
			},
			{
				"x": -1.7456975683,
				"y": 2.4407038601,
				"z": 0.8988599941,
				"element": "C" 
			},
			{
				"x": -2.4995708652,
				"y": 3.3742784964,
				"z": 1.0533668457,
				"element": "O" 
			},
			{
				"x": -2.2917018591,
				"y": 1.2301333182,
				"z": 0.4637267873,
				"element": "O" 
			},
			{
				"x": -1.5264858855,
				"y": 0.1209488602,
				"z": 0.2596887226,
				"element": "C" 
			},
			{
				"x": -0.1381400296,
				"y": 0.1209246587,
				"z": 0.4731635066,
				"element": "C" 
			},
			{
				"x": 0.5630690944,
				"y": -1.0821041604,
				"z": 0.2321750466,
				"element": "C" 
			},
			{
				"x": -0.0821228882,
				"y": -2.2283186145,
				"z": -0.1993965531,
				"element": "C" 
			},
			{
				"x": 0.5468990669,
				"y": -3.4135502441,
				"z": -0.4462774221,
				"element": "O" 
			},
			{
				"x": -1.4855782614,
				"y": -2.2001635813,
				"z": -0.4070693268,
				"element": "C" 
			},
			{
				"x": -2.0644696752,
				"y": -3.3523636176,
				"z": -0.8301269038,
				"element": "O" 
			},
			{
				"x": -2.1935057468,
				"y": -1.0274322585,
				"z": -0.1758879328,
				"element": "C" 
			},
			{
				"x": 2.5220289964,
				"y": 1.1731825235,
				"z": 0.2587808487,
				"element": "H" 
			},
			{
				"x": 2.2653152641,
				"y": 2.406700146,
				"z": 1.5050189948,
				"element": "H" 
			},
			{
				"x": 2.2643617175,
				"y": 0.6875356851,
				"z": 1.9352011621,
				"element": "H" 
			},
			{
				"x": 0.1010053563,
				"y": 3.3892834075,
				"z": 1.4574518114,
				"element": "H" 
			},
			{
				"x": 1.6378640156,
				"y": -1.1135469588,
				"z": 0.3883757012,
				"element": "H" 
			},
			{
				"x": 1.4909722304,
				"y": -3.3097166075,
				"z": -0.2709141975,
				"element": "H" 
			},
			{
				"x": -3.0145938407,
				"y": -3.2098345684,
				"z": -0.9347311232,
				"element": "H" 
			},
			{
				"x": -3.2678758444,
				"y": -0.982561375,
				"z": -0.3280722699,
				"element": "H" 
			}
		],
		 "valence_orbital": [ 
			{
				"type": "occ",
				"energy": -0.32804,
				"method": "rhf"
			},
			{
				"type": "occ",
				"energy": -0.27983,
				"method": "rhf"
			},
			{
				"type": "occ",
				"energy": -0.26477,
				"method": "rhf"
			},
			{
				"type": "occ",
				"energy": -0.24653,
				"method": "rhf"
			},
			{
				"type": "occ",
				"energy": -0.21061,
				"method": "rhf"
			},
			{
				"type": "unocc",
				"energy": -0.05753,
				"method": "rhf"
			},
			{
				"type": "unocc",
				"energy": -0.00219,
				"method": "rhf"
			},
			{
				"type": "unocc",
				"energy": 0.01102,
				"method": "rhf"
			},
			{
				"type": "unocc",
				"energy": 0.0515,
				"method": "rhf"
			},
			{
				"type": "unocc",
				"energy": 0.0641,
				"method": "rhf"
			}
		],
		"cosmo_sigma_profile": { 
			"-0.025": 0.0,
			"-0.024": 0.0,
			"-0.023": 0.0,
			"-0.022": 0.0,
			"-0.021": 0.0,
			"-0.02": 0.0,
			"-0.019": 0.338947275209,
			"-0.018": 2.15711688507,
			"-0.017": 2.21083354948,
			"-0.016": 2.15338951528,
			"-0.015": 2.1746994156,
			"-0.014": 2.6695595191,
			"-0.013": 1.58226171013,
			"-0.012": 1.60172054913,
			"-0.011": 1.98857757977,
			"-0.01": 2.44176922937,
			"-0.009": 2.19159013666,
			"-0.008": 2.88841167365,
			"-0.007": 4.93813466976,
			"-0.006": 9.2266177576,
			"-0.005": 12.1269692539,
			"-0.004": 10.5855143097,
			"-0.003": 10.5621594804,
			"-0.002": 13.033090897,
			"-0.001": 14.8927744118,
			"0.0": 11.7281440207,
			"0.001": 17.5366687714,
			"0.002": 20.5464907477,
			"0.003": 11.2144591014,
			"0.004": 4.04892344313,
			"0.005": 3.89949984944,
			"0.006": 3.95257279754,
			"0.007": 4.73454336517,
			"0.008": 3.81807801297,
			"0.009": 4.54676087658,
			"0.01": 5.0202059227,
			"0.011": 5.21910757837,
			"0.012": 7.8109214117,
			"0.013": 7.47886676975,
			"0.014": 1.57270012687,
			"0.015": 0.0,
			"0.016": 0.0,
			"0.017": 0.0,
			"0.018": 0.0,
			"0.019": 0.0,
			"0.02": 0.0,
			"0.021": 0.0,
			"0.022": 0.0,
			"0.023": 0.0,
			"0.024": 0.0,
			"0.025": 0.0
		}
	}
}
