{
	 "smiles": "OP(O)(=O)C1=CC=CC=C1", 
	 "Tm": 436.15, 
	 "num_atms": 17, 
	 "gaussian": { 
		 "optdone": 1, 
		 "sigma_profile": "yes", 
		 "theory": "DFT", 
		 "functional": "B3LYP", 
		 "basiset": "6-31G**", 
		 "properties": { 
			 "R2extent": 2663.4765, 
			 "electric_dipole_moment_norm": 4.11696836276, 
			 "electric_quadrupole_moment_norm": 15.8498311404, 
			 "total_energy": -799.947801323, 
			 "HOMO_LUMO_gap": 0.23268, 
			 "cosmo_polarized_energy": -18.56, 
			 "cosmo_cavitation_energy": 23.05, 
			 "cosmo_dispersion_energy": -17.26, 
			 "cosmo_repulsion_energy": 1.39, 
			 "cosmo_total_nonelectrostatic_energy": 7.18, 
			 "SMD_solvation_energy": 6.39 
		},
		"coords": [
			{
				"x": -2.0215860914,
				"y": 1.2306332561,
				"z": -3.3850570515,
				"element": "O" 
			},
			{
				"x": -0.5360702764,
				"y": 1.5263099098,
				"z": -2.7801536161,
				"element": "P" 
			},
			{
				"x": 0.4737633847,
				"y": 0.9811767878,
				"z": -3.9347757555,
				"element": "O" 
			},
			{
				"x": -0.2510825952,
				"y": 2.9368019078,
				"z": -2.4371310844,
				"element": "O" 
			},
			{
				"x": -0.4436594607,
				"y": 0.345369861,
				"z": -1.4195589587,
				"element": "C" 
			},
			{
				"x": 0.3538646123,
				"y": 0.6854592058,
				"z": -0.3177372633,
				"element": "C" 
			},
			{
				"x": 0.488491468,
				"y": -0.2054626114,
				"z": 0.7469194931,
				"element": "C" 
			},
			{
				"x": -0.1728975225,
				"y": -1.4348273688,
				"z": 0.7182227116,
				"element": "C" 
			},
			{
				"x": -0.9762559919,
				"y": -1.7733231805,
				"z": -0.3734587603,
				"element": "C" 
			},
			{
				"x": -1.1139571142,
				"y": -0.8870280559,
				"z": -1.4413721689,
				"element": "C" 
			},
			{
				"x": -2.3799619947,
				"y": 2.0398781782,
				"z": -3.7784402456,
				"element": "H" 
			},
			{
				"x": 0.2654561193,
				"y": 0.082611644,
				"z": -4.2274394606,
				"element": "H" 
			},
			{
				"x": 0.8496011959,
				"y": 1.6508508035,
				"z": -0.2990095727,
				"element": "H" 
			},
			{
				"x": 1.1044807093,
				"y": 0.0621755763,
				"z": 1.6002897863,
				"element": "H" 
			},
			{
				"x": -0.0688350824,
				"y": -2.1267041356,
				"z": 1.549134487,
				"element": "H" 
			},
			{
				"x": -1.5006000974,
				"y": -2.7243240381,
				"z": -0.3897340203,
				"element": "H" 
			},
			{
				"x": -1.7579512627,
				"y": -1.1433977402,
				"z": -2.2773985202,
				"element": "H" 
			}
		],
		 "valence_orbital": [ 
			{
				"type": "occ",
				"energy": -0.33547,
				"method": "rhf"
			},
			{
				"type": "occ",
				"energy": -0.29248,
				"method": "rhf"
			},
			{
				"type": "occ",
				"energy": -0.28818,
				"method": "rhf"
			},
			{
				"type": "occ",
				"energy": -0.26631,
				"method": "rhf"
			},
			{
				"type": "occ",
				"energy": -0.26471,
				"method": "rhf"
			},
			{
				"type": "unocc",
				"energy": -0.03203,
				"method": "rhf"
			},
			{
				"type": "unocc",
				"energy": -0.01645,
				"method": "rhf"
			},
			{
				"type": "unocc",
				"energy": 0.04123,
				"method": "rhf"
			},
			{
				"type": "unocc",
				"energy": 0.07421,
				"method": "rhf"
			},
			{
				"type": "unocc",
				"energy": 0.08836,
				"method": "rhf"
			}
		],
		"cosmo_sigma_profile": { 
			"-0.025": 0.0,
			"-0.024": 0.0,
			"-0.023": 0.0,
			"-0.022": 0.0,
			"-0.021": 0.0,
			"-0.02": 0.0,
			"-0.019": 1.29777603535,
			"-0.018": 1.53172024827,
			"-0.017": 2.2686024637,
			"-0.016": 1.48352013644,
			"-0.015": 1.80564000896,
			"-0.014": 1.57131365491,
			"-0.013": 1.36802021651,
			"-0.012": 1.44375247085,
			"-0.011": 1.63399135756,
			"-0.01": 2.41881594112,
			"-0.009": 1.63619526947,
			"-0.008": 0.963400005797,
			"-0.007": 3.66010531459,
			"-0.006": 11.7095192766,
			"-0.005": 12.8706884526,
			"-0.004": 11.1449244652,
			"-0.003": 9.33974194234,
			"-0.002": 7.70881644917,
			"-0.001": 8.48682647755,
			"0.0": 8.41920370725,
			"0.001": 9.8224629901,
			"0.002": 11.4079196202,
			"0.003": 13.4427985049,
			"0.004": 15.1283097076,
			"0.005": 4.22633554106,
			"0.006": 3.62343581993,
			"0.007": 2.99213738838,
			"0.008": 3.16432235381,
			"0.009": 3.47404248459,
			"0.01": 3.9043524134,
			"0.011": 3.61291115287,
			"0.012": 1.09238449287,
			"0.013": 1.90830115933,
			"0.014": 5.70619455153,
			"0.015": 4.31094228413,
			"0.016": 0.155583606971,
			"0.017": 0.0,
			"0.018": 0.0,
			"0.019": 0.0,
			"0.02": 0.0,
			"0.021": 0.0,
			"0.022": 0.0,
			"0.023": 0.0,
			"0.024": 0.0,
			"0.025": 0.0
		}
	}
}
