{
	 "smiles": "CC1=CC(C(O)=O)=C(C)N1C1=CC=C(Cl)C=C1", 
	 "Tm": 503.15, 
	 "num_atms": 29, 
	 "gaussian": { 
		 "optdone": 1, 
		 "sigma_profile": "yes", 
		 "theory": "DFT", 
		 "functional": "B3LYP", 
		 "basiset": "6-31G**", 
		 "properties": { 
			 "R2extent": 5948.7085, 
			 "electric_dipole_moment_norm": 5.83734852309, 
			 "electric_quadrupole_moment_norm": 35.6832646269, 
			 "total_energy": -1168.0201647, 
			 "HOMO_LUMO_gap": 0.1739, 
			 "cosmo_polarized_energy": -18.01, 
			 "cosmo_cavitation_energy": 35.08, 
			 "cosmo_dispersion_energy": -24.41, 
			 "cosmo_repulsion_energy": 1.9, 
			 "cosmo_total_nonelectrostatic_energy": 12.57, 
			 "SMD_solvation_energy": 6.83 
		},
		"coords": [
			{
				"x": 1.7023345569,
				"y": -2.2677447589,
				"z": 0.6630535212,
				"element": "C" 
			},
			{
				"x": 1.3460294537,
				"y": -1.5058779949,
				"z": -0.5731156129,
				"element": "C" 
			},
			{
				"x": 1.8092922511,
				"y": -1.6288740232,
				"z": -1.8559280989,
				"element": "C" 
			},
			{
				"x": 1.1029501821,
				"y": -0.6988176358,
				"z": -2.679673093,
				"element": "C" 
			},
			{
				"x": 1.3835297944,
				"y": -0.5419162388,
				"z": -4.1199813615,
				"element": "C" 
			},
			{
				"x": 0.4011698914,
				"y": 0.0310221534,
				"z": -4.8867371642,
				"element": "O" 
			},
			{
				"x": 2.415148489,
				"y": -0.8925229025,
				"z": -4.6456723994,
				"element": "O" 
			},
			{
				"x": 0.2178412643,
				"y": 0.0004433136,
				"z": -1.8635422537,
				"element": "C" 
			},
			{
				"x": -0.6949838401,
				"y": 1.1564830525,
				"z": -2.1457921941,
				"element": "C" 
			},
			{
				"x": 0.3711866047,
				"y": -0.5011669309,
				"z": -0.5813036756,
				"element": "N" 
			},
			{
				"x": -0.3416149855,
				"y": -0.0448323578,
				"z": 0.5700082602,
				"element": "C" 
			},
			{
				"x": -1.6925708131,
				"y": -0.3679383098,
				"z": 0.7327244577,
				"element": "C" 
			},
			{
				"x": -2.3927434752,
				"y": 0.0765799309,
				"z": 1.853319999,
				"element": "C" 
			},
			{
				"x": -1.7270378768,
				"y": 0.8382286788,
				"z": 2.8142548288,
				"element": "C" 
			},
			{
				"x": -2.6009104913,
				"y": 1.3952190473,
				"z": 4.2295530723,
				"element": "Cl" 
			},
			{
				"x": -0.3783002716,
				"y": 1.1647193859,
				"z": 2.668590955,
				"element": "C" 
			},
			{
				"x": 0.3107873737,
				"y": 0.7238676691,
				"z": 1.5397005327,
				"element": "C" 
			},
			{
				"x": 2.1467390904,
				"y": -1.6337605446,
				"z": 1.4390300442,
				"element": "H" 
			},
			{
				"x": 0.8306816226,
				"y": -2.7608703847,
				"z": 1.1097174909,
				"element": "H" 
			},
			{
				"x": 2.4309235768,
				"y": -3.0405585018,
				"z": 0.4083452733,
				"element": "H" 
			},
			{
				"x": 2.5656721417,
				"y": -2.3166649782,
				"z": -2.2044829755,
				"element": "H" 
			},
			{
				"x": -0.4249398592,
				"y": 0.0528611081,
				"z": -4.3859500112,
				"element": "H" 
			},
			{
				"x": -0.6500651663,
				"y": 1.9002199769,
				"z": -1.3442613066,
				"element": "H" 
			},
			{
				"x": -1.7479730401,
				"y": 0.8590382774,
				"z": -2.2411100641,
				"element": "H" 
			},
			{
				"x": -0.3973472027,
				"y": 1.6559450336,
				"z": -3.0704657145,
				"element": "H" 
			},
			{
				"x": -2.1904373527,
				"y": -0.9752134981,
				"z": -0.0163954933,
				"element": "H" 
			},
			{
				"x": -3.4400253813,
				"y": -0.1708604058,
				"z": 1.9851359133,
				"element": "H" 
			},
			{
				"x": 0.1216140195,
				"y": 1.7611848094,
				"z": 3.4233748125,
				"element": "H" 
			},
			{
				"x": 1.3559494436,
				"y": 0.9817070289,
				"z": 1.4024022573,
				"element": "H" 
			}
		],
		 "valence_orbital": [ 
			{
				"type": "occ",
				"energy": -0.28826,
				"method": "rhf"
			},
			{
				"type": "occ",
				"energy": -0.27367,
				"method": "rhf"
			},
			{
				"type": "occ",
				"energy": -0.25856,
				"method": "rhf"
			},
			{
				"type": "occ",
				"energy": -0.24584,
				"method": "rhf"
			},
			{
				"type": "occ",
				"energy": -0.21652,
				"method": "rhf"
			},
			{
				"type": "unocc",
				"energy": -0.04262,
				"method": "rhf"
			},
			{
				"type": "unocc",
				"energy": -0.03945,
				"method": "rhf"
			},
			{
				"type": "unocc",
				"energy": -0.0093,
				"method": "rhf"
			},
			{
				"type": "unocc",
				"energy": 0.012,
				"method": "rhf"
			},
			{
				"type": "unocc",
				"energy": 0.03451,
				"method": "rhf"
			}
		],
		"cosmo_sigma_profile": { 
			"-0.025": 0.0,
			"-0.024": 0.0,
			"-0.023": 0.0,
			"-0.022": 0.0,
			"-0.021": 0.0,
			"-0.02": 0.0,
			"-0.019": 0.0,
			"-0.018": 0.0,
			"-0.017": 0.242040478754,
			"-0.016": 0.513996233591,
			"-0.015": 0.872680722096,
			"-0.014": 0.692171526861,
			"-0.013": 0.805610959451,
			"-0.012": 0.806272446227,
			"-0.011": 1.35906099607,
			"-0.01": 1.26047435005,
			"-0.009": 0.396440759446,
			"-0.008": 4.31673200885,
			"-0.007": 9.40380773505,
			"-0.006": 12.7238754039,
			"-0.005": 18.6926631881,
			"-0.004": 20.3100849936,
			"-0.003": 22.1040598221,
			"-0.002": 23.617716732,
			"-0.001": 23.623918384,
			"0.0": 22.5532156625,
			"0.001": 20.9434150246,
			"0.002": 20.6658800887,
			"0.003": 15.5555400042,
			"0.004": 15.4909433301,
			"0.005": 8.96885169394,
			"0.006": 5.77067605916,
			"0.007": 4.014819732,
			"0.008": 2.77429010389,
			"0.009": 2.6409797757,
			"0.01": 3.32121147941,
			"0.011": 4.93199389592,
			"0.012": 5.73004326504,
			"0.013": 5.2079795709,
			"0.014": 1.61441800774,
			"0.015": 0.0326930401941,
			"0.016": 0.0,
			"0.017": 0.0,
			"0.018": 0.0,
			"0.019": 0.0,
			"0.02": 0.0,
			"0.021": 0.0,
			"0.022": 0.0,
			"0.023": 0.0,
			"0.024": 0.0,
			"0.025": 0.0
		}
	}
}
