{
	 "smiles": "IC1=NC(C#N)=C(I)C=C1", 
	 "Tm": 466.65, 
	 "num_atms": 12, 
	 "gaussian": { 
		 "optdone": 1, 
		 "sigma_profile": "no", 
		 "theory": "DFT", 
		 "functional": "B3LYP", 
		 "basiset": "6-31G**", 
		 "properties": { 
			 "R2extent": 1588.3642, 
			 "electric_dipole_moment_norm": 5.30651972389, 
			 "electric_quadrupole_moment_norm": 9.05239651695, 
			 "total_energy": -362.079481519, 
			 "HOMO_LUMO_gap": 0.17401, 
			 "cosmo_polarized_energy": -173267.48, 
			 "cosmo_cavitation_energy": 24.65, 
			 "cosmo_dispersion_energy": -20.36, 
			 "cosmo_repulsion_energy": 1.59, 
			 "cosmo_total_nonelectrostatic_energy": 5.88, 
			 "SMD_solvation_energy": 2.38 
		},
		"coords": [
			{
				"x": 0.723072456,
				"y": 2.2901949525,
				"z": -2.4827225754,
				"element": "I" 
			},
			{
				"x": 0.0833148057,
				"y": 0.7601476308,
				"z": -1.1504639659,
				"element": "C" 
			},
			{
				"x": 0.3162891151,
				"y": 0.9415642621,
				"z": 0.1322503269,
				"element": "N" 
			},
			{
				"x": -0.0755941416,
				"y": -0.007238268,
				"z": 1.003436491,
				"element": "C" 
			},
			{
				"x": 0.2134738731,
				"y": 0.2614949419,
				"z": 2.3893574387,
				"element": "C" 
			},
			{
				"x": 0.4507937963,
				"y": 0.4870288956,
				"z": 3.5040881526,
				"element": "N" 
			},
			{
				"x": -0.7246796468,
				"y": -1.1843388579,
				"z": 0.5906774843,
				"element": "C" 
			},
			{
				"x": -1.336106235,
				"y": -2.6651386651,
				"z": 1.9531153455,
				"element": "I" 
			},
			{
				"x": -0.96175586,
				"y": -1.35567246,
				"z": -0.7774850828,
				"element": "C" 
			},
			{
				"x": -0.5551902798,
				"y": -0.3731953241,
				"z": -1.6728669317,
				"element": "C" 
			},
			{
				"x": -1.459459398,
				"y": -2.248730031,
				"z": -1.1390215017,
				"element": "H" 
			},
			{
				"x": -0.7267584851,
				"y": -0.4815170769,
				"z": -2.7370651815,
				"element": "H" 
			}
		],
		 "valence_orbital": [ 
			{
				"type": "occ",
				"energy": -0.30741,
				"method": "rhf"
			},
			{
				"type": "occ",
				"energy": -0.29301,
				"method": "rhf"
			},
			{
				"type": "occ",
				"energy": -0.29221,
				"method": "rhf"
			},
			{
				"type": "occ",
				"energy": -0.28218,
				"method": "rhf"
			},
			{
				"type": "occ",
				"energy": -0.26331,
				"method": "rhf"
			},
			{
				"type": "unocc",
				"energy": -0.0893,
				"method": "rhf"
			},
			{
				"type": "unocc",
				"energy": -0.06876,
				"method": "rhf"
			},
			{
				"type": "unocc",
				"energy": -0.06647,
				"method": "rhf"
			},
			{
				"type": "unocc",
				"energy": -0.05915,
				"method": "rhf"
			},
			{
				"type": "unocc",
				"energy": 0.01506,
				"method": "rhf"
			}
		],
		"cosmo_sigma_profile": { 
			"0.0": 0.0,
			"0.0": 0.0,
			"0.0": 0.0,
			"0.0": 0.0,
			"0.0": 0.0,
			"0.0": 0.0,
			"0.0": 0.0,
			"0.0": 0.0,
			"0.0": 0.0,
			"0.0": 0.0,
			"0.0": 0.0,
			"0.0": 0.0,
			"0.0": 0.0,
			"0.0": 0.0,
			"0.0": 0.0,
			"0.0": 0.0,
			"0.0": 0.0,
			"0.0": 0.0,
			"0.0": 0.0,
			"0.0": 0.0,
			"0.0": 0.0,
			"0.0": 0.0,
			"0.0": 0.0,
			"0.0": 0.0,
			"0.0": 0.0,
			"0.0": 0.0,
			"0.0": 0.0,
			"0.0": 0.0,
			"0.0": 0.0,
			"0.0": 0.0,
			"0.0": 0.0,
			"0.0": 0.0,
			"0.0": 0.0,
			"0.0": 0.0,
			"0.0": 0.0,
			"0.0": 0.0,
			"0.0": 0.0,
			"0.0": 0.0,
			"0.0": 0.0,
			"0.0": 0.0,
			"0.0": 0.0,
			"0.0": 0.0,
			"0.0": 0.0,
			"0.0": 0.0,
			"0.0": 0.0,
			"0.0": 0.0,
			"0.0": 0.0,
			"0.0": 0.0,
			"0.0": 0.0,
			"0.0": 0.0,
			"0.0": 0.0
		}
	}
}
