{
	 "smiles": "ClC1=CC2=C(OC3=C(O2)C=C(Cl)C(Cl)=C3)C(Cl)=C1", 
	 "Tm": 467.15, 
	 "num_atms": 22, 
	 "gaussian": { 
		 "optdone": 1, 
		 "sigma_profile": "yes", 
		 "theory": "DFT", 
		 "functional": "B3LYP", 
		 "basiset": "6-31G**", 
		 "properties": { 
			 "R2extent": 9401.3593, 
			 "electric_dipole_moment_norm": 1.11290201725, 
			 "electric_quadrupole_moment_norm": 8.47221302435, 
			 "total_energy": -2450.87656156, 
			 "HOMO_LUMO_gap": 0.17522, 
			 "cosmo_polarized_energy": -5.93, 
			 "cosmo_cavitation_energy": 34.59, 
			 "cosmo_dispersion_energy": -26.32, 
			 "cosmo_repulsion_energy": 2.01, 
			 "cosmo_total_nonelectrostatic_energy": 10.29, 
			 "SMD_solvation_energy": 5.21 
		},
		"coords": [
			{
				"x": 4.5007999811,
				"y": -2.7818330393,
				"z": -2.8381716204,
				"element": "Cl" 
			},
			{
				"x": 3.1002480192,
				"y": -2.1578338187,
				"z": -1.9911405774,
				"element": "C" 
			},
			{
				"x": 3.274312308,
				"y": -1.5439370463,
				"z": -0.750598053,
				"element": "C" 
			},
			{
				"x": 2.1578918375,
				"y": -1.0521019914,
				"z": -0.0864537925,
				"element": "C" 
			},
			{
				"x": 0.8760551363,
				"y": -1.1638616716,
				"z": -0.6405442645,
				"element": "C" 
			},
			{
				"x": -0.2412152232,
				"y": -0.6842699893,
				"z": -0.000635637,
				"element": "O" 
			},
			{
				"x": -0.0343306233,
				"y": -0.0838803714,
				"z": 1.2220448308,
				"element": "C" 
			},
			{
				"x": 1.2422425434,
				"y": 0.0308290538,
				"z": 1.7805121514,
				"element": "C" 
			},
			{
				"x": 2.3615275739,
				"y": -0.4510658827,
				"z": 1.1366458088,
				"element": "O" 
			},
			{
				"x": 1.4095146707,
				"y": 0.6420896066,
				"z": 3.0140501142,
				"element": "C" 
			},
			{
				"x": 0.3017422891,
				"y": 1.1454801229,
				"z": 3.7028754968,
				"element": "C" 
			},
			{
				"x": 0.5601322047,
				"y": 1.9059811453,
				"z": 5.2507473256,
				"element": "Cl" 
			},
			{
				"x": -0.9767700086,
				"y": 1.0304703918,
				"z": 3.1433736231,
				"element": "C" 
			},
			{
				"x": -2.3922630715,
				"y": 1.6403513314,
				"z": 3.9588329671,
				"element": "Cl" 
			},
			{
				"x": -1.1378160979,
				"y": 0.412995788,
				"z": 1.8993563288,
				"element": "C" 
			},
			{
				"x": 0.7324300127,
				"y": -1.7831095261,
				"z": -1.8834383127,
				"element": "C" 
			},
			{
				"x": -0.8570851186,
				"y": -1.9294625224,
				"z": -2.5855969308,
				"element": "Cl" 
			},
			{
				"x": 1.8409992405,
				"y": -2.285100164,
				"z": -2.5694274546,
				"element": "C" 
			},
			{
				"x": 4.2518529816,
				"y": -1.4420638274,
				"z": -0.2957667095,
				"element": "H" 
			},
			{
				"x": 2.4044238475,
				"y": 0.7241035541,
				"z": 3.4349251044,
				"element": "H" 
			},
			{
				"x": -2.120479582,
				"y": 0.3164252493,
				"z": 1.4535011324,
				"element": "H" 
			},
			{
				"x": 1.7121870791,
				"y": -2.7624063925,
				"z": -3.5322915311,
				"element": "H" 
			}
		],
		 "valence_orbital": [ 
			{
				"type": "occ",
				"energy": -0.31379,
				"method": "rhf"
			},
			{
				"type": "occ",
				"energy": -0.28101,
				"method": "rhf"
			},
			{
				"type": "occ",
				"energy": -0.27306,
				"method": "rhf"
			},
			{
				"type": "occ",
				"energy": -0.25697,
				"method": "rhf"
			},
			{
				"type": "occ",
				"energy": -0.22307,
				"method": "rhf"
			},
			{
				"type": "unocc",
				"energy": -0.04785,
				"method": "rhf"
			},
			{
				"type": "unocc",
				"energy": -0.03762,
				"method": "rhf"
			},
			{
				"type": "unocc",
				"energy": -0.03673,
				"method": "rhf"
			},
			{
				"type": "unocc",
				"energy": -0.013,
				"method": "rhf"
			},
			{
				"type": "unocc",
				"energy": -0.00554,
				"method": "rhf"
			}
		],
		"cosmo_sigma_profile": { 
			"-0.025": 0.0,
			"-0.024": 0.0,
			"-0.023": 0.0,
			"-0.022": 0.0,
			"-0.021": 0.0,
			"-0.02": 0.0,
			"-0.019": 0.0,
			"-0.018": 0.0,
			"-0.017": 0.0,
			"-0.016": 0.0,
			"-0.015": 0.0,
			"-0.014": 0.0,
			"-0.013": 0.0,
			"-0.012": 0.0,
			"-0.011": 0.0,
			"-0.01": 0.31046543787,
			"-0.009": 4.00290664627,
			"-0.008": 6.36552820388,
			"-0.007": 5.72483814006,
			"-0.006": 6.53787178629,
			"-0.005": 8.55542080623,
			"-0.004": 9.44063637064,
			"-0.003": 14.2567970035,
			"-0.002": 20.4280712576,
			"-0.001": 33.944947713,
			"0.0": 47.4088900525,
			"0.001": 35.4715610131,
			"0.002": 21.2186419549,
			"0.003": 33.6420571818,
			"0.004": 30.1284452086,
			"0.005": 8.06344949098,
			"0.006": 2.7823996431,
			"0.007": 1.25742707124,
			"0.008": 0.0445313464787,
			"0.009": 0.0,
			"0.01": 0.0,
			"0.011": 0.0,
			"0.012": 0.0,
			"0.013": 0.0,
			"0.014": 0.0,
			"0.015": 0.0,
			"0.016": 0.0,
			"0.017": 0.0,
			"0.018": 0.0,
			"0.019": 0.0,
			"0.02": 0.0,
			"0.021": 0.0,
			"0.022": 0.0,
			"0.023": 0.0,
			"0.024": 0.0,
			"0.025": 0.0
		}
	}
}
