{
	 "smiles": "CC(C)(C)OC=C", 
	 "Tm": 161.15, 
	 "num_atms": 19, 
	 "gaussian": { 
		 "optdone": 1, 
		 "sigma_profile": "yes", 
		 "theory": "DFT", 
		 "functional": "B3LYP", 
		 "basiset": "6-31G**", 
		 "properties": { 
			 "R2extent": 914.84, 
			 "electric_dipole_moment_norm": 1.10406343115, 
			 "electric_quadrupole_moment_norm": 1.57300027018, 
			 "total_energy": -311.071390103, 
			 "HOMO_LUMO_gap": 0.26244, 
			 "cosmo_polarized_energy": -3.65, 
			 "cosmo_cavitation_energy": 20.59, 
			 "cosmo_dispersion_energy": -14.84, 
			 "cosmo_repulsion_energy": 1.24, 
			 "cosmo_total_nonelectrostatic_energy": 6.99, 
			 "SMD_solvation_energy": 5.07 
		},
		"coords": [
			{
				"x": -1.5710168094,
				"y": -0.2168885006,
				"z": 0.3646994687,
				"element": "C" 
			},
			{
				"x": -0.1596666898,
				"y": -0.2297021202,
				"z": -0.2357399348,
				"element": "C" 
			},
			{
				"x": 0.1885028677,
				"y": 1.1664708404,
				"z": -0.7711192977,
				"element": "C" 
			},
			{
				"x": -0.0646811599,
				"y": -1.3194185831,
				"z": -1.3130927032,
				"element": "C" 
			},
			{
				"x": 0.6671111454,
				"y": -0.5648121866,
				"z": 0.9148673473,
				"element": "O" 
			},
			{
				"x": 2.0164427142,
				"y": -0.6955978088,
				"z": 0.8849592939,
				"element": "C" 
			},
			{
				"x": 2.9152712991,
				"y": -0.5725982464,
				"z": -0.0987735655,
				"element": "C" 
			},
			{
				"x": -1.8134187408,
				"y": -1.195801772,
				"z": 0.7879554687,
				"element": "H" 
			},
			{
				"x": -1.6380482322,
				"y": 0.5272472145,
				"z": 1.1634133458,
				"element": "H" 
			},
			{
				"x": -2.3125972702,
				"y": 0.0257088809,
				"z": -0.4022302537,
				"element": "H" 
			},
			{
				"x": 0.1312041871,
				"y": 1.9018595741,
				"z": 0.0368067252,
				"element": "H" 
			},
			{
				"x": 1.189183154,
				"y": 1.2145244142,
				"z": -1.2025057227,
				"element": "H" 
			},
			{
				"x": -0.5289090494,
				"y": 1.4534306492,
				"z": -1.5465821602,
				"element": "H" 
			},
			{
				"x": -0.7901624177,
				"y": -1.1168613419,
				"z": -2.1074583932,
				"element": "H" 
			},
			{
				"x": -0.2970972841,
				"y": -2.2961657249,
				"z": -0.8786097957,
				"element": "H" 
			},
			{
				"x": 0.925464349,
				"y": -1.3775881751,
				"z": -1.7669426605,
				"element": "H" 
			},
			{
				"x": 2.3524322211,
				"y": -0.9486345514,
				"z": 1.8890130178,
				"element": "H" 
			},
			{
				"x": 3.9589628703,
				"y": -0.7320952139,
				"z": 0.1459407977,
				"element": "H" 
			},
			{
				"x": 2.6840228455,
				"y": -0.3253773483,
				"z": -1.1252009778,
				"element": "H" 
			}
		],
		 "valence_orbital": [ 
			{
				"type": "occ",
				"energy": -0.36321,
				"method": "rhf"
			},
			{
				"type": "occ",
				"energy": -0.33408,
				"method": "rhf"
			},
			{
				"type": "occ",
				"energy": -0.32447,
				"method": "rhf"
			},
			{
				"type": "occ",
				"energy": -0.30723,
				"method": "rhf"
			},
			{
				"type": "occ",
				"energy": -0.21767,
				"method": "rhf"
			},
			{
				"type": "unocc",
				"energy": 0.04477,
				"method": "rhf"
			},
			{
				"type": "unocc",
				"energy": 0.08475,
				"method": "rhf"
			},
			{
				"type": "unocc",
				"energy": 0.09585,
				"method": "rhf"
			},
			{
				"type": "unocc",
				"energy": 0.12889,
				"method": "rhf"
			},
			{
				"type": "unocc",
				"energy": 0.13816,
				"method": "rhf"
			}
		],
		"cosmo_sigma_profile": { 
			"-0.025": 0.0,
			"-0.024": 0.0,
			"-0.023": 0.0,
			"-0.022": 0.0,
			"-0.021": 0.0,
			"-0.02": 0.0,
			"-0.019": 0.0,
			"-0.018": 0.0,
			"-0.017": 0.0,
			"-0.016": 0.0,
			"-0.015": 0.0,
			"-0.014": 0.0,
			"-0.013": 0.0,
			"-0.012": 0.0,
			"-0.011": 0.0,
			"-0.01": 0.0,
			"-0.009": 0.0,
			"-0.008": 0.0,
			"-0.007": 0.050839298271,
			"-0.006": 2.46016978992,
			"-0.005": 5.04566230783,
			"-0.004": 14.2113780978,
			"-0.003": 20.3499109226,
			"-0.002": 17.7754308456,
			"-0.001": 20.1259420472,
			"0.0": 22.2174005316,
			"0.001": 19.2267055862,
			"0.002": 7.16570474494,
			"0.003": 5.25521144274,
			"0.004": 6.32658944119,
			"0.005": 5.2967143292,
			"0.006": 4.64533120493,
			"0.007": 3.91291618834,
			"0.008": 2.6584927993,
			"0.009": 0.953556515281,
			"0.01": 1.73559039567,
			"0.011": 0.798738973758,
			"0.012": 0.0705303006455,
			"0.013": 0.0,
			"0.014": 0.0,
			"0.015": 0.0,
			"0.016": 0.0,
			"0.017": 0.0,
			"0.018": 0.0,
			"0.019": 0.0,
			"0.02": 0.0,
			"0.021": 0.0,
			"0.022": 0.0,
			"0.023": 0.0,
			"0.024": 0.0,
			"0.025": 0.0
		}
	}
}
