{
	 "smiles": "NC1=NN(C=C1)C1=C(C=C(F)C=C1)C#N", 
	 "Tm": 402.15, 
	 "num_atms": 22, 
	 "gaussian": { 
		 "optdone": 1, 
		 "sigma_profile": "yes", 
		 "theory": "DFT", 
		 "functional": "B3LYP", 
		 "basiset": "6-31G**", 
		 "properties": { 
			 "R2extent": 4247.954, 
			 "electric_dipole_moment_norm": 2.9999028951, 
			 "electric_quadrupole_moment_norm": 18.1450876912, 
			 "total_energy": -704.080067321, 
			 "HOMO_LUMO_gap": 0.14801, 
			 "cosmo_polarized_energy": -13.05, 
			 "cosmo_cavitation_energy": 28.39, 
			 "cosmo_dispersion_energy": -20.27, 
			 "cosmo_repulsion_energy": 1.55, 
			 "cosmo_total_nonelectrostatic_energy": 9.67, 
			 "SMD_solvation_energy": 6.11 
		},
		"coords": [
			{
				"x": -2.9410677093,
				"y": 1.0309817776,
				"z": -0.1755092831,
				"element": "N" 
			},
			{
				"x": -1.8566703404,
				"y": 0.2786668945,
				"z": -0.6028375151,
				"element": "C" 
			},
			{
				"x": -0.7186436787,
				"y": 0.2723576762,
				"z": 0.0793622872,
				"element": "N" 
			},
			{
				"x": 0.131279632,
				"y": -0.5187651288,
				"z": -0.6617065073,
				"element": "N" 
			},
			{
				"x": -0.4854944675,
				"y": -0.9896697213,
				"z": -1.7927756022,
				"element": "C" 
			},
			{
				"x": -1.7678774163,
				"y": -0.5040786158,
				"z": -1.7914184934,
				"element": "C" 
			},
			{
				"x": 1.4647279691,
				"y": -0.6520306473,
				"z": -0.236339809,
				"element": "C" 
			},
			{
				"x": 2.2853395726,
				"y": -1.7507591197,
				"z": -0.5894225599,
				"element": "C" 
			},
			{
				"x": 3.6198791569,
				"y": -1.8040046091,
				"z": -0.1410708094,
				"element": "C" 
			},
			{
				"x": 4.1090502762,
				"y": -0.794056437,
				"z": 0.665842783,
				"element": "C" 
			},
			{
				"x": 5.3834434655,
				"y": -0.8548012853,
				"z": 1.0962015301,
				"element": "F" 
			},
			{
				"x": 3.3090775081,
				"y": 0.2804713375,
				"z": 1.0476867617,
				"element": "C" 
			},
			{
				"x": 1.9992828859,
				"y": 0.3476268249,
				"z": 0.5932202937,
				"element": "C" 
			},
			{
				"x": 1.8205368173,
				"y": -2.8593107381,
				"z": -1.3662648274,
				"element": "C" 
			},
			{
				"x": 1.4825167406,
				"y": -3.7797168646,
				"z": -1.9935806144,
				"element": "N" 
			},
			{
				"x": -3.8412528333,
				"y": 0.6151228282,
				"z": -0.3723713429,
				"element": "H" 
			},
			{
				"x": -2.8612501301,
				"y": 1.3217888675,
				"z": 0.7907009576,
				"element": "H" 
			},
			{
				"x": 0.0244185467,
				"y": -1.6148969562,
				"z": -2.5069617438,
				"element": "H" 
			},
			{
				"x": -2.5284843267,
				"y": -0.6679240542,
				"z": -2.5398533983,
				"element": "H" 
			},
			{
				"x": 4.2533458396,
				"y": -2.6398620351,
				"z": -0.4128579069,
				"element": "H" 
			},
			{
				"x": 3.7208959536,
				"y": 1.0556963409,
				"z": 1.6845736505,
				"element": "H" 
			},
			{
				"x": 1.3552465382,
				"y": 1.171763665,
				"z": 0.8701821491,
				"element": "H" 
			}
		],
		 "valence_orbital": [ 
			{
				"type": "occ",
				"energy": -0.29878,
				"method": "rhf"
			},
			{
				"type": "occ",
				"energy": -0.27912,
				"method": "rhf"
			},
			{
				"type": "occ",
				"energy": -0.27533,
				"method": "rhf"
			},
			{
				"type": "occ",
				"energy": -0.24989,
				"method": "rhf"
			},
			{
				"type": "occ",
				"energy": -0.21059,
				"method": "rhf"
			},
			{
				"type": "unocc",
				"energy": -0.06258,
				"method": "rhf"
			},
			{
				"type": "unocc",
				"energy": -0.03139,
				"method": "rhf"
			},
			{
				"type": "unocc",
				"energy": 0.02185,
				"method": "rhf"
			},
			{
				"type": "unocc",
				"energy": 0.0295,
				"method": "rhf"
			},
			{
				"type": "unocc",
				"energy": 0.06749,
				"method": "rhf"
			}
		],
		"cosmo_sigma_profile": { 
			"-0.025": 0.0,
			"-0.024": 0.0,
			"-0.023": 0.0,
			"-0.022": 0.0,
			"-0.021": 0.0,
			"-0.02": 0.0,
			"-0.019": 0.0,
			"-0.018": 0.0,
			"-0.017": 0.0,
			"-0.016": 0.0,
			"-0.015": 0.0,
			"-0.014": 0.0225896355753,
			"-0.013": 1.27171083829,
			"-0.012": 2.66146309758,
			"-0.011": 2.30149757618,
			"-0.01": 3.13064413682,
			"-0.009": 5.63374163169,
			"-0.008": 7.70936825162,
			"-0.007": 9.1693511597,
			"-0.006": 10.5356177308,
			"-0.005": 9.32933550709,
			"-0.004": 9.50219725248,
			"-0.003": 10.6653884039,
			"-0.002": 13.1446202137,
			"-0.001": 20.2766419749,
			"0.0": 22.505119816,
			"0.001": 15.3601915556,
			"0.002": 12.6027300882,
			"0.003": 15.350804936,
			"0.004": 16.1134945095,
			"0.005": 7.74369761283,
			"0.006": 4.81271462222,
			"0.007": 5.18986456939,
			"0.008": 5.52282292205,
			"0.009": 5.15885742806,
			"0.01": 4.26358661236,
			"0.011": 3.82108388161,
			"0.012": 3.47859186642,
			"0.013": 1.79003455562,
			"0.014": 0.662568860449,
			"0.015": 0.0364998563633,
			"0.016": 0.0,
			"0.017": 0.0,
			"0.018": 0.0,
			"0.019": 0.0,
			"0.02": 0.0,
			"0.021": 0.0,
			"0.022": 0.0,
			"0.023": 0.0,
			"0.024": 0.0,
			"0.025": 0.0
		}
	}
}
