{
	 "smiles": "COC1=CC(=CC=C1)C(C=O)C=O", 
	 "Tm": 336.15, 
	 "num_atms": 23, 
	 "gaussian": { 
		 "optdone": 1, 
		 "sigma_profile": "yes", 
		 "theory": "DFT", 
		 "functional": "B3LYP", 
		 "basiset": "6-31G**", 
		 "properties": { 
			 "R2extent": 3585.7024, 
			 "electric_dipole_moment_norm": 4.26229666846, 
			 "electric_quadrupole_moment_norm": 17.9384462033, 
			 "total_energy": -612.71431202, 
			 "HOMO_LUMO_gap": 0.18087, 
			 "cosmo_polarized_energy": -14.5, 
			 "cosmo_cavitation_energy": 27.9, 
			 "cosmo_dispersion_energy": -19.53, 
			 "cosmo_repulsion_energy": 1.57, 
			 "cosmo_total_nonelectrostatic_energy": 9.95, 
			 "SMD_solvation_energy": 7.5 
		},
		"coords": [
			{
				"x": 0.2184543327,
				"y": 2.8867502015,
				"z": 1.5496421352,
				"element": "C" 
			},
			{
				"x": -0.9939518835,
				"y": 2.1966673699,
				"z": 1.2932364017,
				"element": "O" 
			},
			{
				"x": -0.95660492,
				"y": 0.8379281067,
				"z": 1.1765685347,
				"element": "C" 
			},
			{
				"x": 0.2058799861,
				"y": 0.065209197,
				"z": 1.2764058465,
				"element": "C" 
			},
			{
				"x": 0.1360377928,
				"y": -1.329730846,
				"z": 1.1456096674,
				"element": "C" 
			},
			{
				"x": -1.0943448001,
				"y": -1.9477046898,
				"z": 0.9053597613,
				"element": "C" 
			},
			{
				"x": -2.2504122536,
				"y": -1.1682480395,
				"z": 0.8075580103,
				"element": "C" 
			},
			{
				"x": -2.1900818372,
				"y": 0.21354746,
				"z": 0.9394234024,
				"element": "C" 
			},
			{
				"x": 1.4020538079,
				"y": -2.1611562537,
				"z": 1.2220399219,
				"element": "C" 
			},
			{
				"x": 1.433923097,
				"y": -3.2261375287,
				"z": 2.3219033203,
				"element": "C" 
			},
			{
				"x": 0.5292840615,
				"y": -3.462295197,
				"z": 3.0851433707,
				"element": "O" 
			},
			{
				"x": 1.6698156903,
				"y": -2.8194757572,
				"z": -0.1347889517,
				"element": "C" 
			},
			{
				"x": 1.7447637701,
				"y": -4.0148803569,
				"z": -0.3082234201,
				"element": "O" 
			},
			{
				"x": -0.0437476354,
				"y": 3.943963643,
				"z": 1.6111694166,
				"element": "H" 
			},
			{
				"x": 0.6712394171,
				"y": 2.572261242,
				"z": 2.4989097731,
				"element": "H" 
			},
			{
				"x": 0.9462471221,
				"y": 2.7436140125,
				"z": 0.7401336127,
				"element": "H" 
			},
			{
				"x": 1.1658776996,
				"y": 0.533272073,
				"z": 1.4634417225,
				"element": "H" 
			},
			{
				"x": -1.1520647228,
				"y": -3.0267066595,
				"z": 0.8111730391,
				"element": "H" 
			},
			{
				"x": -3.2085332515,
				"y": -1.6465630649,
				"z": 0.6270857875,
				"element": "H" 
			},
			{
				"x": -3.0783894294,
				"y": 0.8321452135,
				"z": 0.8664667275,
				"element": "H" 
			},
			{
				"x": 2.2611791266,
				"y": -1.4948161465,
				"z": 1.4043369379,
				"element": "H" 
			},
			{
				"x": 2.3937685139,
				"y": -3.7817796839,
				"z": 2.37336724,
				"element": "H" 
			},
			{
				"x": 1.7695063156,
				"y": -2.1008642957,
				"z": -0.9762622575,
				"element": "H" 
			}
		],
		 "valence_orbital": [ 
			{
				"type": "occ",
				"energy": -0.32518,
				"method": "rhf"
			},
			{
				"type": "occ",
				"energy": -0.27755,
				"method": "rhf"
			},
			{
				"type": "occ",
				"energy": -0.26686,
				"method": "rhf"
			},
			{
				"type": "occ",
				"energy": -0.24795,
				"method": "rhf"
			},
			{
				"type": "occ",
				"energy": -0.22587,
				"method": "rhf"
			},
			{
				"type": "unocc",
				"energy": -0.045,
				"method": "rhf"
			},
			{
				"type": "unocc",
				"energy": -0.02972,
				"method": "rhf"
			},
			{
				"type": "unocc",
				"energy": -0.00546,
				"method": "rhf"
			},
			{
				"type": "unocc",
				"energy": 0.00425,
				"method": "rhf"
			},
			{
				"type": "unocc",
				"energy": 0.07949,
				"method": "rhf"
			}
		],
		"cosmo_sigma_profile": { 
			"-0.025": 0.0,
			"-0.024": 0.0,
			"-0.023": 0.0,
			"-0.022": 0.0,
			"-0.021": 0.0,
			"-0.02": 0.0,
			"-0.019": 0.0,
			"-0.018": 0.0,
			"-0.017": 0.0,
			"-0.016": 0.0,
			"-0.015": 0.0,
			"-0.014": 0.0,
			"-0.013": 0.0,
			"-0.012": 0.0,
			"-0.011": 0.0,
			"-0.01": 0.848486088571,
			"-0.009": 7.14220177691,
			"-0.008": 6.68701510084,
			"-0.007": 9.15361382597,
			"-0.006": 14.4434809576,
			"-0.005": 20.650101648,
			"-0.004": 18.4438394692,
			"-0.003": 17.107641694,
			"-0.002": 13.1659342103,
			"-0.001": 9.26812732082,
			"0.0": 8.67686083407,
			"0.001": 9.11278343373,
			"0.002": 10.1006776266,
			"0.003": 12.0358307021,
			"0.004": 12.2746115523,
			"0.005": 10.8667094801,
			"0.006": 5.88303834273,
			"0.007": 6.43002485968,
			"0.008": 5.58136913117,
			"0.009": 6.49911625958,
			"0.01": 9.39123984363,
			"0.011": 6.7638292129,
			"0.012": 1.5048107451,
			"0.013": 0.0,
			"0.014": 0.0,
			"0.015": 0.0,
			"0.016": 0.0,
			"0.017": 0.0,
			"0.018": 0.0,
			"0.019": 0.0,
			"0.02": 0.0,
			"0.021": 0.0,
			"0.022": 0.0,
			"0.023": 0.0,
			"0.024": 0.0,
			"0.025": 0.0
		}
	}
}
