{
	 "smiles": "CS(=O)(=O)C1=C(C=CC(Br)=C1)[N+]([O-])=O", 
	 "Tm": 426.15, 
	 "num_atms": 20, 
	 "gaussian": { 
		 "optdone": 1, 
		 "sigma_profile": "yes", 
		 "theory": "DFT", 
		 "functional": "B3LYP", 
		 "basiset": "6-31G**", 
		 "properties": { 
			 "R2extent": 4745.342, 
			 "electric_dipole_moment_norm": 5.10124264469, 
			 "electric_quadrupole_moment_norm": 16.4458687034, 
			 "total_energy": -3595.41676724, 
			 "HOMO_LUMO_gap": 0.17055, 
			 "cosmo_polarized_energy": -16.25, 
			 "cosmo_cavitation_energy": 28.52, 
			 "cosmo_dispersion_energy": -21.62, 
			 "cosmo_repulsion_energy": 1.64, 
			 "cosmo_total_nonelectrostatic_energy": 8.54, 
			 "SMD_solvation_energy": 5.66 
		},
		"coords": [
			{
				"x": -2.7901241427,
				"y": -0.9704441003,
				"z": -0.4681398073,
				"element": "C" 
			},
			{
				"x": -1.6809890219,
				"y": -0.9972024836,
				"z": 0.9529795288,
				"element": "S" 
			},
			{
				"x": -1.2500180684,
				"y": -2.3682106499,
				"z": 1.2378733277,
				"element": "O" 
			},
			{
				"x": -2.3183478975,
				"y": -0.1823450654,
				"z": 1.9989760143,
				"element": "O" 
			},
			{
				"x": -0.1955708203,
				"y": -0.0396220719,
				"z": 0.4425891006,
				"element": "C" 
			},
			{
				"x": 0.8879182946,
				"y": -0.5251805397,
				"z": -0.3064539899,
				"element": "C" 
			},
			{
				"x": 2.043279371,
				"y": 0.2368197715,
				"z": -0.4678769191,
				"element": "C" 
			},
			{
				"x": 2.1258318006,
				"y": 1.5103949908,
				"z": 0.0874454612,
				"element": "C" 
			},
			{
				"x": 1.0498862522,
				"y": 1.9972555327,
				"z": 0.8265917639,
				"element": "C" 
			},
			{
				"x": 1.1482810015,
				"y": 3.7289357551,
				"z": 1.6014014781,
				"element": "Br" 
			},
			{
				"x": -0.0959192186,
				"y": 1.224579153,
				"z": 1.0225460092,
				"element": "C" 
			},
			{
				"x": 0.8773865732,
				"y": -1.828381938,
				"z": -0.9943788278,
				"element": "N" 
			},
			{
				"x": -0.190110079,
				"y": -2.2208039025,
				"z": -1.4591185392,
				"element": "O" 
			},
			{
				"x": 1.9511259475,
				"y": -2.411618129,
				"z": -1.0999315497,
				"element": "O" 
			},
			{
				"x": -3.6762783932,
				"y": -1.5242902015,
				"z": -0.1501357342,
				"element": "H" 
			},
			{
				"x": -3.0508226167,
				"y": 0.0679394681,
				"z": -0.6774894252,
				"element": "H" 
			},
			{
				"x": -2.3060908675,
				"y": -1.4524760869,
				"z": -1.3134889097,
				"element": "H" 
			},
			{
				"x": 2.8669542483,
				"y": -0.1794352087,
				"z": -1.0351402367,
				"element": "H" 
			},
			{
				"x": 3.0168577777,
				"y": 2.1115968356,
				"z": -0.0490338021,
				"element": "H" 
			},
			{
				"x": -0.9089501409,
				"y": 1.5780888706,
				"z": 1.6450850571,
				"element": "H" 
			}
		],
		 "valence_orbital": [ 
			{
				"type": "occ",
				"energy": -0.31501,
				"method": "rhf"
			},
			{
				"type": "occ",
				"energy": -0.31349,
				"method": "rhf"
			},
			{
				"type": "occ",
				"energy": -0.30603,
				"method": "rhf"
			},
			{
				"type": "occ",
				"energy": -0.3001,
				"method": "rhf"
			},
			{
				"type": "occ",
				"energy": -0.28072,
				"method": "rhf"
			},
			{
				"type": "unocc",
				"energy": -0.11017,
				"method": "rhf"
			},
			{
				"type": "unocc",
				"energy": -0.06569,
				"method": "rhf"
			},
			{
				"type": "unocc",
				"energy": -0.03882,
				"method": "rhf"
			},
			{
				"type": "unocc",
				"energy": -0.02416,
				"method": "rhf"
			},
			{
				"type": "unocc",
				"energy": 0.03482,
				"method": "rhf"
			}
		],
		"cosmo_sigma_profile": { 
			"-0.025": 0.0,
			"-0.024": 0.0,
			"-0.023": 0.0,
			"-0.022": 0.0,
			"-0.021": 0.0,
			"-0.02": 0.0,
			"-0.019": 0.0,
			"-0.018": 0.0,
			"-0.017": 0.0,
			"-0.016": 0.0,
			"-0.015": 0.0,
			"-0.014": 0.0,
			"-0.013": 0.0,
			"-0.012": 0.0,
			"-0.011": 0.0,
			"-0.01": 2.09874642242,
			"-0.009": 9.01532627161,
			"-0.008": 8.56380444496,
			"-0.007": 9.89557478092,
			"-0.006": 10.2092734575,
			"-0.005": 15.0799330668,
			"-0.004": 15.3167300952,
			"-0.003": 17.5331228607,
			"-0.002": 19.7885683353,
			"-0.001": 19.0223973088,
			"0.0": 10.0559529609,
			"0.001": 10.0253370918,
			"0.002": 11.5629524516,
			"0.003": 14.8552333263,
			"0.004": 5.9293104907,
			"0.005": 5.33626850336,
			"0.006": 7.15834620904,
			"0.007": 9.77556787013,
			"0.008": 7.78333566481,
			"0.009": 6.01611285309,
			"0.01": 7.71993149676,
			"0.011": 8.54591094068,
			"0.012": 1.55263285663,
			"0.013": 0.0,
			"0.014": 0.0,
			"0.015": 0.0,
			"0.016": 0.0,
			"0.017": 0.0,
			"0.018": 0.0,
			"0.019": 0.0,
			"0.02": 0.0,
			"0.021": 0.0,
			"0.022": 0.0,
			"0.023": 0.0,
			"0.024": 0.0,
			"0.025": 0.0
		}
	}
}
