{
	 "smiles": "CC(=O)OC1=NC(CCC2=CC=CC=C2)=NN1C1=CC=CC=C1", 
	 "Tm": 382.15, 
	 "num_atms": 40, 
	 "gaussian": { 
		 "optdone": 1, 
		 "sigma_profile": "yes", 
		 "theory": "DFT", 
		 "functional": "B3LYP", 
		 "basiset": "6-31G**", 
		 "properties": { 
			 "R2extent": 8801.9069, 
			 "electric_dipole_moment_norm": 3.36827667658, 
			 "electric_quadrupole_moment_norm": 15.6075040567, 
			 "total_energy": -1010.86866069, 
			 "HOMO_LUMO_gap": 0.20166, 
			 "cosmo_polarized_energy": -14.64, 
			 "cosmo_cavitation_energy": 45.3, 
			 "cosmo_dispersion_energy": -30.35, 
			 "cosmo_repulsion_energy": 2.37, 
			 "cosmo_total_nonelectrostatic_energy": 17.32, 
			 "SMD_solvation_energy": 6.03 
		},
		"coords": [
			{
				"x": -3.0416009713,
				"y": 0.4225754538,
				"z": -3.3578763795,
				"element": "C" 
			},
			{
				"x": -1.6132964477,
				"y": 0.2997252435,
				"z": -2.9071017781,
				"element": "C" 
			},
			{
				"x": -0.6428775075,
				"y": 0.103349801,
				"z": -3.5827184063,
				"element": "O" 
			},
			{
				"x": -1.5501936249,
				"y": 0.443141741,
				"z": -1.5179428737,
				"element": "O" 
			},
			{
				"x": -0.3079083476,
				"y": 0.4837161895,
				"z": -0.9586783034,
				"element": "C" 
			},
			{
				"x": 0.4454283161,
				"y": 1.5495627071,
				"z": -0.8538065156,
				"element": "N" 
			},
			{
				"x": 1.5479675602,
				"y": 1.0709305145,
				"z": -0.1961934559,
				"element": "C" 
			},
			{
				"x": 2.7310008086,
				"y": 1.937837842,
				"z": 0.1201730748,
				"element": "C" 
			},
			{
				"x": 3.536927849,
				"y": 1.5035250506,
				"z": 1.3642738211,
				"element": "C" 
			},
			{
				"x": 2.8230856446,
				"y": 1.7522183958,
				"z": 2.6780642463,
				"element": "C" 
			},
			{
				"x": 2.8790683288,
				"y": 3.0146142638,
				"z": 3.2860978835,
				"element": "C" 
			},
			{
				"x": 2.2144138534,
				"y": 3.2647007496,
				"z": 4.4869831348,
				"element": "C" 
			},
			{
				"x": 1.4807781115,
				"y": 2.2496851654,
				"z": 5.104516905,
				"element": "C" 
			},
			{
				"x": 1.4187558851,
				"y": 0.9877958829,
				"z": 4.5111712035,
				"element": "C" 
			},
			{
				"x": 2.0841179912,
				"y": 0.7418603669,
				"z": 3.3086498511,
				"element": "C" 
			},
			{
				"x": 1.4943282488,
				"y": -0.2191584685,
				"z": 0.1027175258,
				"element": "N" 
			},
			{
				"x": 0.2750368261,
				"y": -0.6045673817,
				"z": -0.3890104241,
				"element": "N" 
			},
			{
				"x": -0.1611007191,
				"y": -1.9551703687,
				"z": -0.2898276637,
				"element": "C" 
			},
			{
				"x": -1.5196162172,
				"y": -2.2585074056,
				"z": -0.1504197379,
				"element": "C" 
			},
			{
				"x": -1.9144533106,
				"y": -3.5933904788,
				"z": -0.0594430906,
				"element": "C" 
			},
			{
				"x": -0.9665629305,
				"y": -4.6171816401,
				"z": -0.0879589698,
				"element": "C" 
			},
			{
				"x": 0.3885072233,
				"y": -4.3005380898,
				"z": -0.2090355294,
				"element": "C" 
			},
			{
				"x": 0.7978661189,
				"y": -2.9731442262,
				"z": -0.314531378,
				"element": "C" 
			},
			{
				"x": -3.6606088936,
				"y": -0.3218965669,
				"z": -2.8488680573,
				"element": "H" 
			},
			{
				"x": -3.4289942239,
				"y": 1.4101168082,
				"z": -3.0909319452,
				"element": "H" 
			},
			{
				"x": -3.0927024912,
				"y": 0.2786404622,
				"z": -4.4362531692,
				"element": "H" 
			},
			{
				"x": 2.3713138638,
				"y": 2.9651899595,
				"z": 0.2349918203,
				"element": "H" 
			},
			{
				"x": 3.396459152,
				"y": 1.9412650204,
				"z": -0.7540143878,
				"element": "H" 
			},
			{
				"x": 3.7896904577,
				"y": 0.4430588454,
				"z": 1.2699706003,
				"element": "H" 
			},
			{
				"x": 4.4822970126,
				"y": 2.058174991,
				"z": 1.3578453437,
				"element": "H" 
			},
			{
				"x": 3.4555145087,
				"y": 3.8084607558,
				"z": 2.8155343293,
				"element": "H" 
			},
			{
				"x": 2.2741272146,
				"y": 4.2492371837,
				"z": 4.943011657,
				"element": "H" 
			},
			{
				"x": 0.9653945752,
				"y": 2.4402088385,
				"z": 6.0417441655,
				"element": "H" 
			},
			{
				"x": 0.8528403177,
				"y": 0.1907019247,
				"z": 4.9859412133,
				"element": "H" 
			},
			{
				"x": 2.0259652361,
				"y": -0.2377189573,
				"z": 2.8437309738,
				"element": "H" 
			},
			{
				"x": -2.2527119196,
				"y": -1.4625290162,
				"z": -0.1010149344,
				"element": "H" 
			},
			{
				"x": -2.9689011625,
				"y": -3.8293482573,
				"z": 0.0493664303,
				"element": "H" 
			},
			{
				"x": -1.2804618368,
				"y": -5.6536737057,
				"z": -0.0109192264,
				"element": "H" 
			},
			{
				"x": 1.1333928781,
				"y": -5.0904490354,
				"z": -0.2277302625,
				"element": "H" 
			},
			{
				"x": 1.8442126221,
				"y": -2.7093205584,
				"z": -0.4092076905,
				"element": "H" 
			}
		],
		 "valence_orbital": [ 
			{
				"type": "occ",
				"energy": -0.26779,
				"method": "rhf"
			},
			{
				"type": "occ",
				"energy": -0.26287,
				"method": "rhf"
			},
			{
				"type": "occ",
				"energy": -0.23978,
				"method": "rhf"
			},
			{
				"type": "occ",
				"energy": -0.23534,
				"method": "rhf"
			},
			{
				"type": "occ",
				"energy": -0.23166,
				"method": "rhf"
			},
			{
				"type": "unocc",
				"energy": -0.03,
				"method": "rhf"
			},
			{
				"type": "unocc",
				"energy": -0.01405,
				"method": "rhf"
			},
			{
				"type": "unocc",
				"energy": -0.01185,
				"method": "rhf"
			},
			{
				"type": "unocc",
				"energy": 0.00794,
				"method": "rhf"
			},
			{
				"type": "unocc",
				"energy": 0.0103,
				"method": "rhf"
			}
		],
		"cosmo_sigma_profile": { 
			"-0.025": 0.0,
			"-0.024": 0.0,
			"-0.023": 0.0,
			"-0.022": 0.0,
			"-0.021": 0.0,
			"-0.02": 0.0,
			"-0.019": 0.0,
			"-0.018": 0.0,
			"-0.017": 0.0,
			"-0.016": 0.0,
			"-0.015": 0.0,
			"-0.014": 0.0,
			"-0.013": 0.0,
			"-0.012": 0.0,
			"-0.011": 0.0,
			"-0.01": 0.0,
			"-0.009": 0.0,
			"-0.008": 1.21195783922,
			"-0.007": 7.40790338165,
			"-0.006": 18.4298190641,
			"-0.005": 29.4639986708,
			"-0.004": 36.1826522876,
			"-0.003": 38.6789261862,
			"-0.002": 31.7122862778,
			"-0.001": 23.7585111407,
			"0.0": 24.7755441168,
			"0.001": 19.9302357459,
			"0.002": 21.0774707249,
			"0.003": 24.5463805267,
			"0.004": 26.4258090227,
			"0.005": 15.8660816703,
			"0.006": 12.6979072352,
			"0.007": 8.80030042484,
			"0.008": 4.58506201906,
			"0.009": 4.77545665379,
			"0.01": 5.96933581741,
			"0.011": 2.03436566961,
			"0.012": 0.757271866948,
			"0.013": 1.26699268144,
			"0.014": 0.908485186621,
			"0.015": 0.583201272094,
			"0.016": 0.119905058612,
			"0.017": 0.0,
			"0.018": 0.0,
			"0.019": 0.0,
			"0.02": 0.0,
			"0.021": 0.0,
			"0.022": 0.0,
			"0.023": 0.0,
			"0.024": 0.0,
			"0.025": 0.0
		}
	}
}
