{
	 "smiles": "CC(=O)C1=C(C)N=C(N)S1", 
	 "Tm": 539.15, 
	 "num_atms": 18, 
	 "gaussian": { 
		 "optdone": 1, 
		 "sigma_profile": "yes", 
		 "theory": "DFT", 
		 "functional": "B3LYP", 
		 "basiset": "6-31G**", 
		 "properties": { 
			 "R2extent": 2395.4866, 
			 "electric_dipole_moment_norm": 3.54713201756, 
			 "electric_quadrupole_moment_norm": 18.6085313088, 
			 "total_energy": -816.380823094, 
			 "HOMO_LUMO_gap": 0.16783, 
			 "cosmo_polarized_energy": -15.39, 
			 "cosmo_cavitation_energy": 23.44, 
			 "cosmo_dispersion_energy": -17.89, 
			 "cosmo_repulsion_energy": 1.41, 
			 "cosmo_total_nonelectrostatic_energy": 6.96, 
			 "SMD_solvation_energy": 3.09 
		},
		"coords": [
			{
				"x": -2.4394654238,
				"y": -1.7724504464,
				"z": -3.0690884915,
				"element": "C" 
			},
			{
				"x": -2.4683701763,
				"y": -0.6449753469,
				"z": -2.050005035,
				"element": "C" 
			},
			{
				"x": -3.2550491998,
				"y": 0.2908101304,
				"z": -2.1808910931,
				"element": "O" 
			},
			{
				"x": -1.5558850688,
				"y": -0.6741436112,
				"z": -0.9085912388,
				"element": "C" 
			},
			{
				"x": -0.5693813921,
				"y": -1.5431321711,
				"z": -0.4720400767,
				"element": "C" 
			},
			{
				"x": -0.1296539489,
				"y": -2.8282354882,
				"z": -1.1211752499,
				"element": "C" 
			},
			{
				"x": 0.0788930452,
				"y": -1.1809022039,
				"z": 0.6810276327,
				"element": "N" 
			},
			{
				"x": -0.3945732971,
				"y": -0.0461073499,
				"z": 1.1497162888,
				"element": "C" 
			},
			{
				"x": 0.052010183,
				"y": 0.5005158326,
				"z": 2.3171506624,
				"element": "N" 
			},
			{
				"x": -1.6818393851,
				"y": 0.6853419941,
				"z": 0.2161200961,
				"element": "S" 
			},
			{
				"x": -2.6492790491,
				"y": -2.739468678,
				"z": -2.600612631,
				"element": "H" 
			},
			{
				"x": -3.1979421788,
				"y": -1.564179757,
				"z": -3.8246122444,
				"element": "H" 
			},
			{
				"x": -1.4592099867,
				"y": -1.8475466097,
				"z": -3.5512364614,
				"element": "H" 
			},
			{
				"x": 0.2379733099,
				"y": -2.6683423885,
				"z": -2.1396005638,
				"element": "H" 
			},
			{
				"x": -0.9449041595,
				"y": -3.5565728199,
				"z": -1.1777901159,
				"element": "H" 
			},
			{
				"x": 0.6766414027,
				"y": -3.2591533473,
				"z": -0.5261139857,
				"element": "H" 
			},
			{
				"x": -0.0896006902,
				"y": 1.4844961858,
				"z": 2.4837133011,
				"element": "H" 
			},
			{
				"x": 0.9116360154,
				"y": 0.105546075,
				"z": 2.671429206,
				"element": "H" 
			}
		],
		 "valence_orbital": [ 
			{
				"type": "occ",
				"energy": -0.31398,
				"method": "rhf"
			},
			{
				"type": "occ",
				"energy": -0.28602,
				"method": "rhf"
			},
			{
				"type": "occ",
				"energy": -0.27475,
				"method": "rhf"
			},
			{
				"type": "occ",
				"energy": -0.23842,
				"method": "rhf"
			},
			{
				"type": "occ",
				"energy": -0.21574,
				"method": "rhf"
			},
			{
				"type": "unocc",
				"energy": -0.04791,
				"method": "rhf"
			},
			{
				"type": "unocc",
				"energy": 0.01201,
				"method": "rhf"
			},
			{
				"type": "unocc",
				"energy": 0.02768,
				"method": "rhf"
			},
			{
				"type": "unocc",
				"energy": 0.06878,
				"method": "rhf"
			},
			{
				"type": "unocc",
				"energy": 0.07307,
				"method": "rhf"
			}
		],
		"cosmo_sigma_profile": { 
			"-0.025": 0.0,
			"-0.024": 0.0,
			"-0.023": 0.0,
			"-0.022": 0.0,
			"-0.021": 0.0,
			"-0.02": 0.0,
			"-0.019": 0.0,
			"-0.018": 0.0,
			"-0.017": 0.0,
			"-0.016": 0.371329914648,
			"-0.015": 1.52040447848,
			"-0.014": 2.87030264637,
			"-0.013": 2.62253426213,
			"-0.012": 2.24858331783,
			"-0.011": 2.6187479671,
			"-0.01": 2.31807037802,
			"-0.009": 1.24921142097,
			"-0.008": 1.85031006553,
			"-0.007": 3.81655472496,
			"-0.006": 8.66005318884,
			"-0.005": 10.1158229911,
			"-0.004": 10.6585730899,
			"-0.003": 12.4581848804,
			"-0.002": 13.8475763466,
			"-0.001": 16.5000630517,
			"0.0": 12.5039813887,
			"0.001": 10.4031690021,
			"0.002": 12.2793998361,
			"0.003": 9.93912995564,
			"0.004": 10.2467057077,
			"0.005": 6.4468733371,
			"0.006": 4.49107589207,
			"0.007": 3.88047931862,
			"0.008": 2.96978766728,
			"0.009": 3.1051766349,
			"0.01": 3.04107456662,
			"0.011": 3.14198631192,
			"0.012": 4.35634394417,
			"0.013": 4.94277577504,
			"0.014": 2.02872517147,
			"0.015": 0.276415553944,
			"0.016": 0.0,
			"0.017": 0.0,
			"0.018": 0.0,
			"0.019": 0.0,
			"0.02": 0.0,
			"0.021": 0.0,
			"0.022": 0.0,
			"0.023": 0.0,
			"0.024": 0.0,
			"0.025": 0.0
		}
	}
}
