{
	 "smiles": "CC(=O)C1=CC=C(C=C1)N1C=NC=N1", 
	 "Tm": 391.15, 
	 "num_atms": 23, 
	 "gaussian": { 
		 "optdone": 1, 
		 "sigma_profile": "yes", 
		 "theory": "DFT", 
		 "functional": "B3LYP", 
		 "basiset": "6-31G**", 
		 "properties": { 
			 "R2extent": 4235.6211, 
			 "electric_dipole_moment_norm": 3.08998607764, 
			 "electric_quadrupole_moment_norm": 17.7493470857, 
			 "total_energy": -625.951268392, 
			 "HOMO_LUMO_gap": 0.17773, 
			 "cosmo_polarized_energy": -14.29, 
			 "cosmo_cavitation_energy": 27.85, 
			 "cosmo_dispersion_energy": -20.5, 
			 "cosmo_repulsion_energy": 1.56, 
			 "cosmo_total_nonelectrostatic_energy": 8.91, 
			 "SMD_solvation_energy": 3.75 
		},
		"coords": [
			{
				"x": -4.0436049065,
				"y": 0.9350811647,
				"z": 2.2768081206,
				"element": "C" 
			},
			{
				"x": -3.0754746625,
				"y": -0.2358645582,
				"z": 2.2634453547,
				"element": "C" 
			},
			{
				"x": -3.4425357018,
				"y": -1.3515823476,
				"z": 2.5997331747,
				"element": "O" 
			},
			{
				"x": -1.6601493441,
				"y": -0.0003785392,
				"z": 1.8304783436,
				"element": "C" 
			},
			{
				"x": -0.7750481473,
				"y": -1.0901528902,
				"z": 1.8225940297,
				"element": "C" 
			},
			{
				"x": 0.5480340492,
				"y": -0.9396160721,
				"z": 1.4326725607,
				"element": "C" 
			},
			{
				"x": 1.0110656973,
				"y": 0.3235493754,
				"z": 1.0389741641,
				"element": "C" 
			},
			{
				"x": 0.1446946824,
				"y": 1.4234707914,
				"z": 1.0396342362,
				"element": "C" 
			},
			{
				"x": -1.179558045,
				"y": 1.2554358717,
				"z": 1.433625517,
				"element": "C" 
			},
			{
				"x": 2.3639253062,
				"y": 0.4727620864,
				"z": 0.6411981338,
				"element": "N" 
			},
			{
				"x": 3.0413074027,
				"y": 1.5800811104,
				"z": 0.2224802654,
				"element": "C" 
			},
			{
				"x": 4.2943918409,
				"y": 1.2825111853,
				"z": -0.0535247556,
				"element": "N" 
			},
			{
				"x": 4.347057858,
				"y": -0.0553829769,
				"z": 0.2168299408,
				"element": "C" 
			},
			{
				"x": 3.2167898645,
				"y": -0.593381792,
				"z": 0.6368984892,
				"element": "N" 
			},
			{
				"x": -4.1456019087,
				"y": 1.3733451859,
				"z": 1.2777570678,
				"element": "H" 
			},
			{
				"x": -3.6939999753,
				"y": 1.7275858373,
				"z": 2.9478551915,
				"element": "H" 
			},
			{
				"x": -5.0165199408,
				"y": 0.5784690384,
				"z": 2.6155440551,
				"element": "H" 
			},
			{
				"x": -1.1543995355,
				"y": -2.0584653793,
				"z": 2.1309631861,
				"element": "H" 
			},
			{
				"x": 1.2345900478,
				"y": -1.776541352,
				"z": 1.4247818845,
				"element": "H" 
			},
			{
				"x": 0.4886516985,
				"y": 2.4060990749,
				"z": 0.7377625383,
				"element": "H" 
			},
			{
				"x": -1.8361745689,
				"y": 2.1189847644,
				"z": 1.4278138127,
				"element": "H" 
			},
			{
				"x": 2.5927163673,
				"y": 2.5579949826,
				"z": 0.1359774403,
				"element": "H" 
			},
			{
				"x": 5.2445419216,
				"y": -0.6468045612,
				"z": 0.0995972486,
				"element": "H" 
			}
		],
		 "valence_orbital": [ 
			{
				"type": "occ",
				"energy": -0.2885,
				"method": "rhf"
			},
			{
				"type": "occ",
				"energy": -0.28759,
				"method": "rhf"
			},
			{
				"type": "occ",
				"energy": -0.27562,
				"method": "rhf"
			},
			{
				"type": "occ",
				"energy": -0.25496,
				"method": "rhf"
			},
			{
				"type": "occ",
				"energy": -0.24932,
				"method": "rhf"
			},
			{
				"type": "unocc",
				"energy": -0.07159,
				"method": "rhf"
			},
			{
				"type": "unocc",
				"energy": -0.02599,
				"method": "rhf"
			},
			{
				"type": "unocc",
				"energy": -0.01152,
				"method": "rhf"
			},
			{
				"type": "unocc",
				"energy": 0.04345,
				"method": "rhf"
			},
			{
				"type": "unocc",
				"energy": 0.05028,
				"method": "rhf"
			}
		],
		"cosmo_sigma_profile": { 
			"-0.025": 0.0,
			"-0.024": 0.0,
			"-0.023": 0.0,
			"-0.022": 0.0,
			"-0.021": 0.0,
			"-0.02": 0.0,
			"-0.019": 0.0,
			"-0.018": 0.0,
			"-0.017": 0.0,
			"-0.016": 0.0,
			"-0.015": 0.0,
			"-0.014": 0.0,
			"-0.013": 0.143521916722,
			"-0.012": 1.92956737515,
			"-0.011": 2.43037371959,
			"-0.01": 1.83535642826,
			"-0.009": 3.67464347814,
			"-0.008": 4.09257357285,
			"-0.007": 8.07633000441,
			"-0.006": 15.263348624,
			"-0.005": 14.0234274581,
			"-0.004": 13.2723824996,
			"-0.003": 14.6071709711,
			"-0.002": 15.5744527745,
			"-0.001": 17.2292338496,
			"0.0": 15.5873084593,
			"0.001": 17.6537881681,
			"0.002": 19.3195491113,
			"0.003": 13.2464651344,
			"0.004": 4.85342552167,
			"0.005": 3.59432566938,
			"0.006": 6.02340911078,
			"0.007": 4.81538717129,
			"0.008": 3.7263039915,
			"0.009": 3.47022898077,
			"0.01": 4.50598582695,
			"0.011": 5.10256372836,
			"0.012": 5.02040198838,
			"0.013": 2.33433860352,
			"0.014": 1.11431883538,
			"0.015": 1.04231213184,
			"0.016": 0.675271232958,
			"0.017": 0.0,
			"0.018": 0.0,
			"0.019": 0.0,
			"0.02": 0.0,
			"0.021": 0.0,
			"0.022": 0.0,
			"0.023": 0.0,
			"0.024": 0.0,
			"0.025": 0.0
		}
	}
}
