{
	 "smiles": "FC(F)OC1=CC(=CC=C1)C(Cl)=CC#N", 
	 "Tm": 319.15, 
	 "num_atms": 21, 
	 "gaussian": { 
		 "optdone": 1, 
		 "sigma_profile": "yes", 
		 "theory": "DFT", 
		 "functional": "B3LYP", 
		 "basiset": "6-31G**", 
		 "properties": { 
			 "R2extent": 6017.0143, 
			 "electric_dipole_moment_norm": 3.15860320078, 
			 "electric_quadrupole_moment_norm": 23.3346044719, 
			 "total_energy": -1174.48274363, 
			 "HOMO_LUMO_gap": 0.1704, 
			 "cosmo_polarized_energy": -9.81, 
			 "cosmo_cavitation_energy": 29.63, 
			 "cosmo_dispersion_energy": -20.44, 
			 "cosmo_repulsion_energy": 1.58, 
			 "cosmo_total_nonelectrostatic_energy": 10.76, 
			 "SMD_solvation_energy": 7.45 
		},
		"coords": [
			{
				"x": -0.6739183948,
				"y": -2.1678520197,
				"z": 0.1147678521,
				"element": "F" 
			},
			{
				"x": -0.6913791365,
				"y": -2.7171780176,
				"z": 1.358748367,
				"element": "C" 
			},
			{
				"x": 0.5571537327,
				"y": -3.2053602509,
				"z": 1.5881907638,
				"element": "F" 
			},
			{
				"x": -1.0615301313,
				"y": -1.8055938276,
				"z": 2.3096211572,
				"element": "O" 
			},
			{
				"x": -0.3340983603,
				"y": -0.6398736753,
				"z": 2.5226814016,
				"element": "C" 
			},
			{
				"x": 0.8136617242,
				"y": -0.2802219395,
				"z": 1.821512515,
				"element": "C" 
			},
			{
				"x": 1.4676216774,
				"y": 0.9224154368,
				"z": 2.1441458024,
				"element": "C" 
			},
			{
				"x": 0.9457697891,
				"y": 1.7571732972,
				"z": 3.1452670201,
				"element": "C" 
			},
			{
				"x": -0.2091898882,
				"y": 1.3796144573,
				"z": 3.827981392,
				"element": "C" 
			},
			{
				"x": -0.8517083649,
				"y": 0.1830469594,
				"z": 3.5258238966,
				"element": "C" 
			},
			{
				"x": 2.7042429474,
				"y": 1.3027697155,
				"z": 1.4341429108,
				"element": "C" 
			},
			{
				"x": 2.7741847082,
				"y": 0.8905014186,
				"z": -0.2747649449,
				"element": "Cl" 
			},
			{
				"x": 3.7916039368,
				"y": 1.9263429976,
				"z": 1.9416679676,
				"element": "C" 
			},
			{
				"x": 3.9630972628,
				"y": 2.2726464083,
				"z": 3.3109716372,
				"element": "C" 
			},
			{
				"x": 4.162565426,
				"y": 2.580931633,
				"z": 4.4164829144,
				"element": "N" 
			},
			{
				"x": -1.4157271213,
				"y": -3.5340015324,
				"z": 1.3891160732,
				"element": "H" 
			},
			{
				"x": 1.2096917342,
				"y": -0.9145982151,
				"z": 1.0424449633,
				"element": "H" 
			},
			{
				"x": 1.4267743876,
				"y": 2.698829491,
				"z": 3.3783487271,
				"element": "H" 
			},
			{
				"x": -0.6151987518,
				"y": 2.0282088133,
				"z": 4.5975254471,
				"element": "H" 
			},
			{
				"x": -1.7516173841,
				"y": -0.1266854248,
				"z": 4.0459943573,
				"element": "H" 
			},
			{
				"x": 4.6199002067,
				"y": 2.1728842749,
				"z": 1.285229779,
				"element": "H" 
			}
		],
		 "valence_orbital": [ 
			{
				"type": "occ",
				"energy": -0.33921,
				"method": "rhf"
			},
			{
				"type": "occ",
				"energy": -0.3321,
				"method": "rhf"
			},
			{
				"type": "occ",
				"energy": -0.29182,
				"method": "rhf"
			},
			{
				"type": "occ",
				"energy": -0.26395,
				"method": "rhf"
			},
			{
				"type": "occ",
				"energy": -0.25109,
				"method": "rhf"
			},
			{
				"type": "unocc",
				"energy": -0.08069,
				"method": "rhf"
			},
			{
				"type": "unocc",
				"energy": -0.02578,
				"method": "rhf"
			},
			{
				"type": "unocc",
				"energy": -0.01195,
				"method": "rhf"
			},
			{
				"type": "unocc",
				"energy": 0.00884,
				"method": "rhf"
			},
			{
				"type": "unocc",
				"energy": 0.04546,
				"method": "rhf"
			}
		],
		"cosmo_sigma_profile": { 
			"-0.025": 0.0,
			"-0.024": 0.0,
			"-0.023": 0.0,
			"-0.022": 0.0,
			"-0.021": 0.0,
			"-0.02": 0.0,
			"-0.019": 0.0,
			"-0.018": 0.0,
			"-0.017": 0.0,
			"-0.016": 0.0,
			"-0.015": 0.0,
			"-0.014": 0.0,
			"-0.013": 0.0,
			"-0.012": 0.0,
			"-0.011": 3.23948029582,
			"-0.01": 4.36143758812,
			"-0.009": 3.05788824275,
			"-0.008": 3.98759154102,
			"-0.007": 7.93341761599,
			"-0.006": 9.12656768053,
			"-0.005": 10.9916221512,
			"-0.004": 9.78215171867,
			"-0.003": 12.9509500533,
			"-0.002": 15.9371621541,
			"-0.001": 19.0014002903,
			"0.0": 18.9200018152,
			"0.001": 27.8181526082,
			"0.002": 28.6276925708,
			"0.003": 30.914597371,
			"0.004": 10.6449185942,
			"0.005": 3.51906661559,
			"0.006": 3.62881223472,
			"0.007": 3.04677658578,
			"0.008": 2.83881292675,
			"0.009": 3.18726204756,
			"0.01": 2.54395798782,
			"0.011": 2.77226411008,
			"0.012": 2.40377755474,
			"0.013": 0.911985790866,
			"0.014": 0.0,
			"0.015": 0.0,
			"0.016": 0.0,
			"0.017": 0.0,
			"0.018": 0.0,
			"0.019": 0.0,
			"0.02": 0.0,
			"0.021": 0.0,
			"0.022": 0.0,
			"0.023": 0.0,
			"0.024": 0.0,
			"0.025": 0.0
		}
	}
}
