{
	 "smiles": "CCCC1=NC(CCC)=CC(=O)N1", 
	 "Tm": 343.15, 
	 "num_atms": 29, 
	 "gaussian": { 
		 "optdone": 1, 
		 "sigma_profile": "yes", 
		 "theory": "DFT", 
		 "functional": "B3LYP", 
		 "basiset": "6-31G**", 
		 "properties": { 
			 "R2extent": 3513.1873, 
			 "electric_dipole_moment_norm": 3.28991137267, 
			 "electric_quadrupole_moment_norm": 20.4238607506, 
			 "total_energy": -575.474512434, 
			 "HOMO_LUMO_gap": 0.19317, 
			 "cosmo_polarized_energy": -13.03, 
			 "cosmo_cavitation_energy": 31.49, 
			 "cosmo_dispersion_energy": -21.84, 
			 "cosmo_repulsion_energy": 1.79, 
			 "cosmo_total_nonelectrostatic_energy": 11.44, 
			 "SMD_solvation_energy": 5.3 
		},
		"coords": [
			{
				"x": 0.2703554585,
				"y": 2.4720899847,
				"z": 2.864253682,
				"element": "C" 
			},
			{
				"x": -0.856931836,
				"y": 1.5404861575,
				"z": 2.4095019532,
				"element": "C" 
			},
			{
				"x": -1.5112670194,
				"y": 1.9689161513,
				"z": 1.0881398746,
				"element": "C" 
			},
			{
				"x": -0.6169992859,
				"y": 1.8288271447,
				"z": -0.1251542385,
				"element": "C" 
			},
			{
				"x": 0.3084180827,
				"y": 0.9096654666,
				"z": -0.1673895084,
				"element": "N" 
			},
			{
				"x": 1.0584321001,
				"y": 0.8058095755,
				"z": -1.3248833742,
				"element": "C" 
			},
			{
				"x": 2.1039294612,
				"y": -0.2832467267,
				"z": -1.3272461436,
				"element": "C" 
			},
			{
				"x": 1.5662373757,
				"y": -1.6715028002,
				"z": -1.749412353,
				"element": "C" 
			},
			{
				"x": 0.5797832317,
				"y": -2.3050438556,
				"z": -0.7637815844,
				"element": "C" 
			},
			{
				"x": 0.8651043391,
				"y": 1.6172907872,
				"z": -2.4106097988,
				"element": "C" 
			},
			{
				"x": -0.1517248881,
				"y": 2.6441082159,
				"z": -2.4021659247,
				"element": "C" 
			},
			{
				"x": -0.4401984078,
				"y": 3.4382309235,
				"z": -3.287805685,
				"element": "O" 
			},
			{
				"x": -0.8545359906,
				"y": 2.6709478897,
				"z": -1.1694589411,
				"element": "N" 
			},
			{
				"x": -0.0887819847,
				"y": 3.499416466,
				"z": 2.9978288464,
				"element": "H" 
			},
			{
				"x": 1.0848414182,
				"y": 2.4891577534,
				"z": 2.1339186424,
				"element": "H" 
			},
			{
				"x": 0.6884974458,
				"y": 2.1407967464,
				"z": 3.8199565022,
				"element": "H" 
			},
			{
				"x": -0.4715323074,
				"y": 0.5236684817,
				"z": 2.2907619853,
				"element": "H" 
			},
			{
				"x": -1.6391319661,
				"y": 1.5027587421,
				"z": 3.1768525232,
				"element": "H" 
			},
			{
				"x": -1.8616180779,
				"y": 3.0073782466,
				"z": 1.1573388104,
				"element": "H" 
			},
			{
				"x": -2.4053404366,
				"y": 1.3564487616,
				"z": 0.9049975797,
				"element": "H" 
			},
			{
				"x": 2.5300712045,
				"y": -0.3516228405,
				"z": -0.3197713787,
				"element": "H" 
			},
			{
				"x": 2.9106318405,
				"y": 0.0019725706,
				"z": -2.0110599398,
				"element": "H" 
			},
			{
				"x": 1.099818271,
				"y": -1.5824876135,
				"z": -2.7388314994,
				"element": "H" 
			},
			{
				"x": 2.4292637198,
				"y": -2.3372022127,
				"z": -1.8757687566,
				"element": "H" 
			},
			{
				"x": 0.259180461,
				"y": -3.2905332339,
				"z": -1.1179109201,
				"element": "H" 
			},
			{
				"x": -0.3106582315,
				"y": -1.6856323192,
				"z": -0.6279564177,
				"element": "H" 
			},
			{
				"x": 1.0384196264,
				"y": -2.4352785456,
				"z": 0.2226434804,
				"element": "H" 
			},
			{
				"x": 1.4675302247,
				"y": 1.5255844143,
				"z": -3.3068719176,
				"element": "H" 
			},
			{
				"x": -1.5740938288,
				"y": 3.3820956687,
				"z": -1.1048154982,
				"element": "H" 
			}
		],
		 "valence_orbital": [ 
			{
				"type": "occ",
				"energy": -0.33122,
				"method": "rhf"
			},
			{
				"type": "occ",
				"energy": -0.30043,
				"method": "rhf"
			},
			{
				"type": "occ",
				"energy": -0.2734,
				"method": "rhf"
			},
			{
				"type": "occ",
				"energy": -0.25118,
				"method": "rhf"
			},
			{
				"type": "occ",
				"energy": -0.23188,
				"method": "rhf"
			},
			{
				"type": "unocc",
				"energy": -0.03871,
				"method": "rhf"
			},
			{
				"type": "unocc",
				"energy": 0.00376,
				"method": "rhf"
			},
			{
				"type": "unocc",
				"energy": 0.06997,
				"method": "rhf"
			},
			{
				"type": "unocc",
				"energy": 0.09502,
				"method": "rhf"
			},
			{
				"type": "unocc",
				"energy": 0.09898,
				"method": "rhf"
			}
		],
		"cosmo_sigma_profile": { 
			"-0.025": 0.0,
			"-0.024": 0.0,
			"-0.023": 0.0,
			"-0.022": 0.0,
			"-0.021": 0.0,
			"-0.02": 0.0,
			"-0.019": 0.0,
			"-0.018": 0.0,
			"-0.017": 0.0,
			"-0.016": 0.20180029211,
			"-0.015": 1.18664845371,
			"-0.014": 1.12616725388,
			"-0.013": 1.53174239459,
			"-0.012": 0.851590145189,
			"-0.011": 1.38447228451,
			"-0.01": 1.00810454148,
			"-0.009": 2.10321827743,
			"-0.008": 0.483401134435,
			"-0.007": 1.56083560896,
			"-0.006": 5.53070753757,
			"-0.005": 8.5744204125,
			"-0.004": 9.59397768534,
			"-0.003": 21.3187531699,
			"-0.002": 34.8888863515,
			"-0.001": 36.0235640306,
			"0.0": 35.0960528959,
			"0.001": 26.9101119536,
			"0.002": 15.5707032485,
			"0.003": 6.23011998265,
			"0.004": 3.79205450711,
			"0.005": 2.50572781352,
			"0.006": 2.43836206333,
			"0.007": 2.54394441792,
			"0.008": 2.7053495771,
			"0.009": 2.68284416171,
			"0.01": 1.86327114888,
			"0.011": 2.58513844516,
			"0.012": 1.78577422355,
			"0.013": 3.52942093014,
			"0.014": 6.18736749491,
			"0.015": 1.86125232345,
			"0.016": 0.0858185699139,
			"0.017": 0.0,
			"0.018": 0.0,
			"0.019": 0.0,
			"0.02": 0.0,
			"0.021": 0.0,
			"0.022": 0.0,
			"0.023": 0.0,
			"0.024": 0.0,
			"0.025": 0.0
		}
	}
}
