{
	 "smiles": "O=CC1=CC=C(S1)C1=CC=C(S1)C1=CC=CS1", 
	 "Tm": 407.15, 
	 "num_atms": 25, 
	 "gaussian": { 
		 "optdone": 1, 
		 "sigma_profile": "yes", 
		 "theory": "DFT", 
		 "functional": "B3LYP", 
		 "basiset": "6-31G**", 
		 "properties": { 
			 "R2extent": 8553.7544, 
			 "electric_dipole_moment_norm": 5.38725986565, 
			 "electric_quadrupole_moment_norm": 17.3754477623, 
			 "total_energy": -1769.94762506, 
			 "HOMO_LUMO_gap": 0.11935, 
			 "cosmo_polarized_energy": -11.26, 
			 "cosmo_cavitation_energy": 35.39, 
			 "cosmo_dispersion_energy": -26.94, 
			 "cosmo_repulsion_energy": 1.92, 
			 "cosmo_total_nonelectrostatic_energy": 10.37, 
			 "SMD_solvation_energy": 6.24 
		},
		"coords": [
			{
				"x": 3.5973233014,
				"y": -1.3782462141,
				"z": 5.9224812376,
				"element": "O" 
			},
			{
				"x": 2.5892752713,
				"y": -1.580852164,
				"z": 5.2654537142,
				"element": "C" 
			},
			{
				"x": 2.2625414007,
				"y": -0.8467764561,
				"z": 4.0460257929,
				"element": "C" 
			},
			{
				"x": 2.9940570418,
				"y": 0.1678119605,
				"z": 3.4593840576,
				"element": "C" 
			},
			{
				"x": 2.3975207826,
				"y": 0.6838500165,
				"z": 2.2924526759,
				"element": "C" 
			},
			{
				"x": 1.1981593986,
				"y": 0.0636331975,
				"z": 1.9636730989,
				"element": "C" 
			},
			{
				"x": 0.8139065183,
				"y": -1.1830091878,
				"z": 3.1242707232,
				"element": "S" 
			},
			{
				"x": 0.3504816458,
				"y": 0.3494668387,
				"z": 0.8266167349,
				"element": "C" 
			},
			{
				"x": 0.6913055114,
				"y": 1.0329980762,
				"z": -0.3254710918,
				"element": "C" 
			},
			{
				"x": -0.3760565829,
				"y": 1.1691388579,
				"z": -1.2430156856,
				"element": "C" 
			},
			{
				"x": -1.5516586659,
				"y": 0.5804175829,
				"z": -0.8181790968,
				"element": "C" 
			},
			{
				"x": -1.3285782279,
				"y": -0.1506074513,
				"z": 0.7581260593,
				"element": "S" 
			},
			{
				"x": -2.8160907664,
				"y": 0.5174306042,
				"z": -1.5246360655,
				"element": "C" 
			},
			{
				"x": -3.021622769,
				"y": 0.5943630096,
				"z": -2.8870966166,
				"element": "C" 
			},
			{
				"x": -4.3930556646,
				"y": 0.5197896962,
				"z": -3.2576847041,
				"element": "C" 
			},
			{
				"x": -5.2282054331,
				"y": 0.3794326819,
				"z": -2.1821814014,
				"element": "C" 
			},
			{
				"x": -4.3497842233,
				"y": 0.3532549877,
				"z": -0.6890673058,
				"element": "S" 
			},
			{
				"x": 1.8514818304,
				"y": -2.3541408035,
				"z": 5.57022151,
				"element": "H" 
			},
			{
				"x": 3.9249599725,
				"y": 0.5182339217,
				"z": 3.8889870409,
				"element": "H" 
			},
			{
				"x": 2.8092998796,
				"y": 1.5020957543,
				"z": 1.7135784453,
				"element": "H" 
			},
			{
				"x": 1.6881102082,
				"y": 1.418471795,
				"z": -0.505416341,
				"element": "H" 
			},
			{
				"x": -0.2956987113,
				"y": 1.6993914488,
				"z": -2.1846222239,
				"element": "H" 
			},
			{
				"x": -2.2074540015,
				"y": 0.6737945752,
				"z": -3.5980525674,
				"element": "H" 
			},
			{
				"x": -4.7427264144,
				"y": 0.5565843099,
				"z": -4.2830160465,
				"element": "H" 
			},
			{
				"x": -6.3054913023,
				"y": 0.2897729622,
				"z": -2.1738319445,
				"element": "H" 
			}
		],
		 "valence_orbital": [ 
			{
				"type": "occ",
				"energy": -0.26697,
				"method": "rhf"
			},
			{
				"type": "occ",
				"energy": -0.26223,
				"method": "rhf"
			},
			{
				"type": "occ",
				"energy": -0.2545,
				"method": "rhf"
			},
			{
				"type": "occ",
				"energy": -0.25052,
				"method": "rhf"
			},
			{
				"type": "occ",
				"energy": -0.20469,
				"method": "rhf"
			},
			{
				"type": "unocc",
				"energy": -0.08534,
				"method": "rhf"
			},
			{
				"type": "unocc",
				"energy": -0.04453,
				"method": "rhf"
			},
			{
				"type": "unocc",
				"energy": -0.02121,
				"method": "rhf"
			},
			{
				"type": "unocc",
				"energy": -0.00567,
				"method": "rhf"
			},
			{
				"type": "unocc",
				"energy": 0.0182,
				"method": "rhf"
			}
		],
		"cosmo_sigma_profile": { 
			"-0.025": 0.0,
			"-0.024": 0.0,
			"-0.023": 0.0,
			"-0.022": 0.0,
			"-0.021": 0.0,
			"-0.02": 0.0,
			"-0.019": 0.0,
			"-0.018": 0.0,
			"-0.017": 0.0,
			"-0.016": 0.0,
			"-0.015": 0.0,
			"-0.014": 0.0,
			"-0.013": 0.0,
			"-0.012": 0.0,
			"-0.011": 0.0,
			"-0.01": 0.0014469115956,
			"-0.009": 1.33827595803,
			"-0.008": 8.26303467644,
			"-0.007": 16.5483758415,
			"-0.006": 16.3509855165,
			"-0.005": 14.3561582386,
			"-0.004": 14.5136765665,
			"-0.003": 12.8599231046,
			"-0.002": 13.2009542453,
			"-0.001": 21.0360468999,
			"0.0": 25.2173759951,
			"0.001": 31.500582705,
			"0.002": 40.3402068464,
			"0.003": 34.4594448832,
			"0.004": 17.572338514,
			"0.005": 6.13092147969,
			"0.006": 1.36901124714,
			"0.007": 1.41584134966,
			"0.008": 1.67710854647,
			"0.009": 1.70627539684,
			"0.01": 2.73255155661,
			"0.011": 3.70326547166,
			"0.012": 4.19333009173,
			"0.013": 1.46607735079,
			"0.014": 0.0679774865854,
			"0.015": 0.0,
			"0.016": 0.0,
			"0.017": 0.0,
			"0.018": 0.0,
			"0.019": 0.0,
			"0.02": 0.0,
			"0.021": 0.0,
			"0.022": 0.0,
			"0.023": 0.0,
			"0.024": 0.0,
			"0.025": 0.0
		}
	}
}
