{
	 "smiles": "CCOC(=O)C1=NOC(=C1)C1=CC=CC=C1", 
	 "Tm": 321.95, 
	 "num_atms": 27, 
	 "gaussian": { 
		 "optdone": 1, 
		 "sigma_profile": "yes", 
		 "theory": "DFT", 
		 "functional": "B3LYP", 
		 "basiset": "6-31G**", 
		 "properties": { 
			 "R2extent": 5689.7577, 
			 "electric_dipole_moment_norm": 5.13322552105, 
			 "electric_quadrupole_moment_norm": 19.4337037582, 
			 "total_energy": -744.292116724, 
			 "HOMO_LUMO_gap": 0.17868, 
			 "cosmo_polarized_energy": -12.83, 
			 "cosmo_cavitation_energy": 32.7, 
			 "cosmo_dispersion_energy": -23.7, 
			 "cosmo_repulsion_energy": 1.85, 
			 "cosmo_total_nonelectrostatic_energy": 10.85, 
			 "SMD_solvation_energy": 6.49 
		},
		"coords": [
			{
				"x": 4.2120647943,
				"y": -3.2337163689,
				"z": -3.1111339075,
				"element": "C" 
			},
			{
				"x": 2.9923003964,
				"y": -2.6477521007,
				"z": -3.795463772,
				"element": "C" 
			},
			{
				"x": 2.2062575296,
				"y": -1.9743113155,
				"z": -2.7830636529,
				"element": "O" 
			},
			{
				"x": 1.0708567983,
				"y": -1.3884678167,
				"z": -3.2222933382,
				"element": "C" 
			},
			{
				"x": 0.6937799744,
				"y": -1.3980711517,
				"z": -4.3716111063,
				"element": "O" 
			},
			{
				"x": 0.3606923665,
				"y": -0.7352680894,
				"z": -2.0859345151,
				"element": "C" 
			},
			{
				"x": -0.7771265554,
				"y": -0.1050851514,
				"z": -2.3105590331,
				"element": "N" 
			},
			{
				"x": -1.168365126,
				"y": 0.3786601813,
				"z": -1.0753497924,
				"element": "O" 
			},
			{
				"x": -0.260948593,
				"y": 0.0334830924,
				"z": -0.1233126094,
				"element": "C" 
			},
			{
				"x": 0.7419200314,
				"y": -0.6832998418,
				"z": -0.7182316479,
				"element": "C" 
			},
			{
				"x": -0.5240188117,
				"y": 0.4685343406,
				"z": 1.2464717094,
				"element": "C" 
			},
			{
				"x": 0.3764649053,
				"y": 0.1447360186,
				"z": 2.2756961041,
				"element": "C" 
			},
			{
				"x": 0.1296393016,
				"y": 0.5571963834,
				"z": 3.5820332533,
				"element": "C" 
			},
			{
				"x": -1.0171786823,
				"y": 1.297524438,
				"z": 3.8805996587,
				"element": "C" 
			},
			{
				"x": -1.9163101725,
				"y": 1.6228748127,
				"z": 2.8628857542,
				"element": "C" 
			},
			{
				"x": -1.6754792781,
				"y": 1.2133491382,
				"z": 1.5534548275,
				"element": "C" 
			},
			{
				"x": 3.921322143,
				"y": -3.951707497,
				"z": -2.3388545403,
				"element": "H" 
			},
			{
				"x": 4.8147582807,
				"y": -2.4490563729,
				"z": -2.6447325954,
				"element": "H" 
			},
			{
				"x": 4.8342805843,
				"y": -3.753304278,
				"z": -3.8462630831,
				"element": "H" 
			},
			{
				"x": 3.2607424834,
				"y": -1.9226678463,
				"z": -4.5700418227,
				"element": "H" 
			},
			{
				"x": 2.3721157567,
				"y": -3.4170990823,
				"z": -4.2658433028,
				"element": "H" 
			},
			{
				"x": 1.6223736234,
				"y": -1.1157601196,
				"z": -0.273018679,
				"element": "H" 
			},
			{
				"x": 1.2699425739,
				"y": -0.4301178469,
				"z": 2.0521902316,
				"element": "H" 
			},
			{
				"x": 0.8330590939,
				"y": 0.3007356795,
				"z": 4.3685967427,
				"element": "H" 
			},
			{
				"x": -1.2080182695,
				"y": 1.6184076395,
				"z": 4.9003566375,
				"element": "H" 
			},
			{
				"x": -2.8093360035,
				"y": 2.1979948558,
				"z": 3.0886687571,
				"element": "H" 
			},
			{
				"x": -2.3736891452,
				"y": 1.465988299,
				"z": 0.763153722,
				"element": "H" 
			}
		],
		 "valence_orbital": [ 
			{
				"type": "occ",
				"energy": -0.30471,
				"method": "rhf"
			},
			{
				"type": "occ",
				"energy": -0.30082,
				"method": "rhf"
			},
			{
				"type": "occ",
				"energy": -0.2793,
				"method": "rhf"
			},
			{
				"type": "occ",
				"energy": -0.26552,
				"method": "rhf"
			},
			{
				"type": "occ",
				"energy": -0.23801,
				"method": "rhf"
			},
			{
				"type": "unocc",
				"energy": -0.05933,
				"method": "rhf"
			},
			{
				"type": "unocc",
				"energy": -0.03369,
				"method": "rhf"
			},
			{
				"type": "unocc",
				"energy": -0.01412,
				"method": "rhf"
			},
			{
				"type": "unocc",
				"energy": 0.04817,
				"method": "rhf"
			},
			{
				"type": "unocc",
				"energy": 0.07753,
				"method": "rhf"
			}
		],
		"cosmo_sigma_profile": { 
			"-0.025": 0.0,
			"-0.024": 0.0,
			"-0.023": 0.0,
			"-0.022": 0.0,
			"-0.021": 0.0,
			"-0.02": 0.0,
			"-0.019": 0.0,
			"-0.018": 0.0,
			"-0.017": 0.0,
			"-0.016": 0.0,
			"-0.015": 0.0,
			"-0.014": 0.0,
			"-0.013": 0.0,
			"-0.012": 0.0,
			"-0.011": 0.0,
			"-0.01": 0.140067924389,
			"-0.009": 2.30629377698,
			"-0.008": 2.21486427548,
			"-0.007": 3.76844979677,
			"-0.006": 12.9187819791,
			"-0.005": 19.7417261557,
			"-0.004": 27.7103937802,
			"-0.003": 21.0679923153,
			"-0.002": 19.8689529904,
			"-0.001": 25.118540413,
			"0.0": 25.8495730434,
			"0.001": 17.9553299767,
			"0.002": 14.0405822972,
			"0.003": 14.0129853247,
			"0.004": 16.9620473977,
			"0.005": 7.50816599014,
			"0.006": 4.12041172648,
			"0.007": 3.68901720003,
			"0.008": 3.24122486912,
			"0.009": 3.25043063831,
			"0.01": 3.97770996901,
			"0.011": 6.60496173286,
			"0.012": 4.21456806143,
			"0.013": 1.31108090933,
			"0.014": 0.167396768427,
			"0.015": 0.0,
			"0.016": 0.0,
			"0.017": 0.0,
			"0.018": 0.0,
			"0.019": 0.0,
			"0.02": 0.0,
			"0.021": 0.0,
			"0.022": 0.0,
			"0.023": 0.0,
			"0.024": 0.0,
			"0.025": 0.0
		}
	}
}
