{
	 "smiles": "OC(=O)C1=CC(F)=C(F)C(Br)=C1F", 
	 "Tm": 396.15, 
	 "num_atms": 15, 
	 "gaussian": { 
		 "optdone": 1, 
		 "sigma_profile": "yes", 
		 "theory": "DFT", 
		 "functional": "B3LYP", 
		 "basiset": "6-31G**", 
		 "properties": { 
			 "R2extent": 3657.7463, 
			 "electric_dipole_moment_norm": 3.49065483828, 
			 "electric_quadrupole_moment_norm": 17.279165608, 
			 "total_energy": -3289.28553008, 
			 "HOMO_LUMO_gap": 0.20054, 
			 "cosmo_polarized_energy": -14.26, 
			 "cosmo_cavitation_energy": 24.48, 
			 "cosmo_dispersion_energy": -17.97, 
			 "cosmo_repulsion_energy": 1.37, 
			 "cosmo_total_nonelectrostatic_energy": 7.87, 
			 "SMD_solvation_energy": 5.74 
		},
		"coords": [
			{
				"x": 0.5004076521,
				"y": 3.8946125234,
				"z": 1.4105133562,
				"element": "O" 
			},
			{
				"x": -0.4797766651,
				"y": 2.9680746863,
				"z": 1.5923318602,
				"element": "C" 
			},
			{
				"x": -1.4126623258,
				"y": 3.1939346569,
				"z": 2.3178724534,
				"element": "O" 
			},
			{
				"x": -0.2744299141,
				"y": 1.6694905422,
				"z": 0.8626617704,
				"element": "C" 
			},
			{
				"x": 1.0084939385,
				"y": 1.1152469778,
				"z": 0.723612213,
				"element": "C" 
			},
			{
				"x": 1.1758866958,
				"y": -0.1111876307,
				"z": 0.1045130402,
				"element": "C" 
			},
			{
				"x": 2.3943765237,
				"y": -0.6552344235,
				"z": -0.0187070681,
				"element": "F" 
			},
			{
				"x": 0.077012775,
				"y": -0.8088826638,
				"z": -0.3991780691,
				"element": "C" 
			},
			{
				"x": 0.2728027195,
				"y": -1.9832185662,
				"z": -0.9955684458,
				"element": "F" 
			},
			{
				"x": -1.2051092269,
				"y": -0.2764426971,
				"z": -0.2752287816,
				"element": "C" 
			},
			{
				"x": -2.6887753636,
				"y": -1.2095367353,
				"z": -0.9691687836,
				"element": "Br" 
			},
			{
				"x": -1.3703693512,
				"y": 0.9558628482,
				"z": 0.3650920045,
				"element": "C" 
			},
			{
				"x": -2.5983908941,
				"y": 1.4608666784,
				"z": 0.4642265662,
				"element": "F" 
			},
			{
				"x": 1.073845239,
				"y": 3.6401286714,
				"z": 0.6737559386,
				"element": "H" 
			},
			{
				"x": 1.8819881971,
				"y": 1.6105851321,
				"z": 1.1338719458,
				"element": "H" 
			}
		],
		 "valence_orbital": [ 
			{
				"type": "occ",
				"energy": -0.33154,
				"method": "rhf"
			},
			{
				"type": "occ",
				"energy": -0.31382,
				"method": "rhf"
			},
			{
				"type": "occ",
				"energy": -0.29333,
				"method": "rhf"
			},
			{
				"type": "occ",
				"energy": -0.27799,
				"method": "rhf"
			},
			{
				"type": "occ",
				"energy": -0.27139,
				"method": "rhf"
			},
			{
				"type": "unocc",
				"energy": -0.07085,
				"method": "rhf"
			},
			{
				"type": "unocc",
				"energy": -0.04418,
				"method": "rhf"
			},
			{
				"type": "unocc",
				"energy": -0.03051,
				"method": "rhf"
			},
			{
				"type": "unocc",
				"energy": 0.01937,
				"method": "rhf"
			},
			{
				"type": "unocc",
				"energy": 0.04983,
				"method": "rhf"
			}
		],
		"cosmo_sigma_profile": { 
			"-0.025": 0.0,
			"-0.024": 0.0,
			"-0.023": 0.0,
			"-0.022": 0.0,
			"-0.021": 0.0,
			"-0.02": 0.0468312763702,
			"-0.019": 1.15775318293,
			"-0.018": 0.728450497536,
			"-0.017": 0.755731123348,
			"-0.016": 1.27423872622,
			"-0.015": 1.21502297708,
			"-0.014": 1.16778353862,
			"-0.013": 1.36870888885,
			"-0.012": 1.09735490613,
			"-0.011": 1.94700993789,
			"-0.01": 1.5557031973,
			"-0.009": 2.50075882903,
			"-0.008": 3.22089714476,
			"-0.007": 2.67285052994,
			"-0.006": 3.90403639032,
			"-0.005": 5.28658374128,
			"-0.004": 13.8537243999,
			"-0.003": 18.6224142757,
			"-0.002": 14.4883371148,
			"-0.001": 11.153393864,
			"0.0": 9.6711852787,
			"0.001": 11.7575872574,
			"0.002": 27.8270925309,
			"0.003": 29.1624706594,
			"0.004": 4.87952608854,
			"0.005": 2.8155725134,
			"0.006": 3.10344278267,
			"0.007": 2.85708606993,
			"0.008": 3.52811970206,
			"0.009": 5.1348540293,
			"0.01": 5.54517532464,
			"0.011": 5.50733835989,
			"0.012": 1.63043735562,
			"0.013": 0.0672162565554,
			"0.014": 0.0,
			"0.015": 0.0,
			"0.016": 0.0,
			"0.017": 0.0,
			"0.018": 0.0,
			"0.019": 0.0,
			"0.02": 0.0,
			"0.021": 0.0,
			"0.022": 0.0,
			"0.023": 0.0,
			"0.024": 0.0,
			"0.025": 0.0
		}
	}
}
