{
	 "smiles": "COC1=CC=C(Br)C(=C1)C(=O)NN", 
	 "Tm": 439.15, 
	 "num_atms": 22, 
	 "gaussian": { 
		 "optdone": 1, 
		 "sigma_profile": "yes", 
		 "theory": "DFT", 
		 "functional": "B3LYP", 
		 "basiset": "6-31G**", 
		 "properties": { 
			 "R2extent": 3672.9274, 
			 "electric_dipole_moment_norm": 3.4932801362, 
			 "electric_quadrupole_moment_norm": 10.7981023402, 
			 "total_energy": -3141.5897453, 
			 "HOMO_LUMO_gap": 0.19645, 
			 "cosmo_polarized_energy": -14.39, 
			 "cosmo_cavitation_energy": 28.36, 
			 "cosmo_dispersion_energy": -20.79, 
			 "cosmo_repulsion_energy": 1.67, 
			 "cosmo_total_nonelectrostatic_energy": 9.24, 
			 "SMD_solvation_energy": 5.75 
		},
		"coords": [
			{
				"x": 0.0697523211,
				"y": 1.4357288502,
				"z": -3.5643317876,
				"element": "C" 
			},
			{
				"x": 0.0925175116,
				"y": 2.1948596671,
				"z": -2.3623398579,
				"element": "O" 
			},
			{
				"x": -0.0259439252,
				"y": 1.5344637676,
				"z": -1.1793696213,
				"element": "C" 
			},
			{
				"x": 0.0483904508,
				"y": 2.3289095574,
				"z": -0.024499398,
				"element": "C" 
			},
			{
				"x": -0.0463257579,
				"y": 1.7431614779,
				"z": 1.2292363874,
				"element": "C" 
			},
			{
				"x": -0.2380461251,
				"y": 0.3632408689,
				"z": 1.3466720903,
				"element": "C" 
			},
			{
				"x": -0.2970260706,
				"y": -0.3771370736,
				"z": 3.115853305,
				"element": "Br" 
			},
			{
				"x": -0.3340741992,
				"y": -0.4437032261,
				"z": 0.2110205132,
				"element": "C" 
			},
			{
				"x": -0.2052713719,
				"y": 0.1550857164,
				"z": -1.0535433724,
				"element": "C" 
			},
			{
				"x": -0.4573636766,
				"y": -1.9530749172,
				"z": 0.2080034105,
				"element": "C" 
			},
			{
				"x": 0.3975779119,
				"y": -2.6504234784,
				"z": -0.3233159435,
				"element": "O" 
			},
			{
				"x": -1.5876081896,
				"y": -2.4979036395,
				"z": 0.7529780347,
				"element": "N" 
			},
			{
				"x": -2.7440547762,
				"y": -1.8333841973,
				"z": 1.1914037527,
				"element": "N" 
			},
			{
				"x": -0.8841895273,
				"y": 0.908170049,
				"z": -3.6899117178,
				"element": "H" 
			},
			{
				"x": 0.1916943795,
				"y": 2.1552423021,
				"z": -4.374841467,
				"element": "H" 
			},
			{
				"x": 0.8907069027,
				"y": 0.7090884732,
				"z": -3.5971735725,
				"element": "H" 
			},
			{
				"x": 0.194536465,
				"y": 3.3982946084,
				"z": -0.1328683433,
				"element": "H" 
			},
			{
				"x": 0.0346952876,
				"y": 2.3518848552,
				"z": 2.1225524674,
				"element": "H" 
			},
			{
				"x": -0.2312319035,
				"y": -0.4916860073,
				"z": -1.9216025968,
				"element": "H" 
			},
			{
				"x": -1.6652265357,
				"y": -3.5034459506,
				"z": 0.6708170958,
				"element": "H" 
			},
			{
				"x": -2.5443054172,
				"y": -1.3537246435,
				"z": 2.0669249274,
				"element": "H" 
			},
			{
				"x": -3.0303037544,
				"y": -1.1437470598,
				"z": 0.5013356936,
				"element": "H" 
			}
		],
		 "valence_orbital": [ 
			{
				"type": "occ",
				"energy": -0.28556,
				"method": "rhf"
			},
			{
				"type": "occ",
				"energy": -0.27743,
				"method": "rhf"
			},
			{
				"type": "occ",
				"energy": -0.2559,
				"method": "rhf"
			},
			{
				"type": "occ",
				"energy": -0.24548,
				"method": "rhf"
			},
			{
				"type": "occ",
				"energy": -0.2304,
				"method": "rhf"
			},
			{
				"type": "unocc",
				"energy": -0.03395,
				"method": "rhf"
			},
			{
				"type": "unocc",
				"energy": -0.01253,
				"method": "rhf"
			},
			{
				"type": "unocc",
				"energy": -0.00286,
				"method": "rhf"
			},
			{
				"type": "unocc",
				"energy": 0.03234,
				"method": "rhf"
			},
			{
				"type": "unocc",
				"energy": 0.08823,
				"method": "rhf"
			}
		],
		"cosmo_sigma_profile": { 
			"-0.025": 0.0,
			"-0.024": 0.0,
			"-0.023": 0.0,
			"-0.022": 0.0,
			"-0.021": 0.0,
			"-0.02": 0.0,
			"-0.019": 0.0,
			"-0.018": 0.0,
			"-0.017": 0.0,
			"-0.016": 0.0,
			"-0.015": 0.0,
			"-0.014": 0.611559238612,
			"-0.013": 0.899953311493,
			"-0.012": 1.47367111039,
			"-0.011": 2.45511018248,
			"-0.01": 1.44120278259,
			"-0.009": 2.90956440325,
			"-0.008": 4.06465353247,
			"-0.007": 9.13265045989,
			"-0.006": 15.4554383581,
			"-0.005": 16.1670572018,
			"-0.004": 17.3817169799,
			"-0.003": 15.7558820096,
			"-0.002": 10.5780308412,
			"-0.001": 11.8535837866,
			"0.0": 13.4865206021,
			"0.001": 15.4960273374,
			"0.002": 23.1836935747,
			"0.003": 16.8404310378,
			"0.004": 12.1090263255,
			"0.005": 4.99639315697,
			"0.006": 3.16491546249,
			"0.007": 3.08167883272,
			"0.008": 3.15346669658,
			"0.009": 3.32688638267,
			"0.01": 3.63163598274,
			"0.011": 2.43016036118,
			"0.012": 2.28279533094,
			"0.013": 6.78653964758,
			"0.014": 3.30934566661,
			"0.015": 0.552012501899,
			"0.016": 0.36735408766,
			"0.017": 0.0,
			"0.018": 0.0,
			"0.019": 0.0,
			"0.02": 0.0,
			"0.021": 0.0,
			"0.022": 0.0,
			"0.023": 0.0,
			"0.024": 0.0,
			"0.025": 0.0
		}
	}
}
