{
	 "smiles": "COC1=CC=CC=C1OC", 
	 "Tm": 295.65, 
	 "num_atms": 20, 
	 "gaussian": { 
		 "optdone": 1, 
		 "sigma_profile": "yes", 
		 "theory": "DFT", 
		 "functional": "B3LYP", 
		 "basiset": "6-31G**", 
		 "properties": { 
			 "R2extent": 1547.233, 
			 "electric_dipole_moment_norm": 2.18947315352, 
			 "electric_quadrupole_moment_norm": 6.54471570582, 
			 "total_energy": -461.292265731, 
			 "HOMO_LUMO_gap": 0.21803, 
			 "cosmo_polarized_energy": -7.02, 
			 "cosmo_cavitation_energy": 23.2, 
			 "cosmo_dispersion_energy": -17.12, 
			 "cosmo_repulsion_energy": 1.39, 
			 "cosmo_total_nonelectrostatic_energy": 7.47, 
			 "SMD_solvation_energy": 5.64 
		},
		"coords": [
			{
				"x": -2.1200697621,
				"y": -1.3427513424,
				"z": -0.3146763753,
				"element": "C" 
			},
			{
				"x": -1.232109073,
				"y": -0.6205963772,
				"z": 0.5226983805,
				"element": "O" 
			},
			{
				"x": -0.3705192534,
				"y": 0.2648262136,
				"z": -0.0632262527,
				"element": "C" 
			},
			{
				"x": -0.2786462976,
				"y": 0.4913958433,
				"z": -1.4396117547,
				"element": "C" 
			},
			{
				"x": 0.6207442249,
				"y": 1.4394596971,
				"z": -1.9403182715,
				"element": "C" 
			},
			{
				"x": 1.4326513117,
				"y": 2.1662307638,
				"z": -1.07500102,
				"element": "C" 
			},
			{
				"x": 1.3518913934,
				"y": 1.932863992,
				"z": 0.301205746,
				"element": "C" 
			},
			{
				"x": 0.4641006787,
				"y": 0.9926969822,
				"z": 0.816377338,
				"element": "C" 
			},
			{
				"x": 0.3732187157,
				"y": 0.8453616178,
				"z": 2.1797689655,
				"element": "O" 
			},
			{
				"x": 0.8133749512,
				"y": -0.4092480268,
				"z": 2.7028244241,
				"element": "C" 
			},
			{
				"x": -2.7808719193,
				"y": -0.6707837135,
				"z": -0.8770828455,
				"element": "H" 
			},
			{
				"x": -2.722146631,
				"y": -1.9643209694,
				"z": 0.3499797136,
				"element": "H" 
			},
			{
				"x": -1.580593503,
				"y": -1.9873334763,
				"z": -1.0209960399,
				"element": "H" 
			},
			{
				"x": -0.9097012516,
				"y": -0.0591785648,
				"z": -2.1274384541,
				"element": "H" 
			},
			{
				"x": 0.6740123387,
				"y": 1.6047930047,
				"z": -3.0123633611,
				"element": "H" 
			},
			{
				"x": 2.1279078413,
				"y": 2.9054269516,
				"z": -1.4605995121,
				"element": "H" 
			},
			{
				"x": 1.9685570938,
				"y": 2.4822441956,
				"z": 1.0057137721,
				"element": "H" 
			},
			{
				"x": 0.1977889553,
				"y": -1.2366378808,
				"z": 2.3377704979,
				"element": "H" 
			},
			{
				"x": 1.8647963545,
				"y": -0.594231659,
				"z": 2.4454548069,
				"element": "H" 
			},
			{
				"x": 0.7184138319,
				"y": -0.3360172515,
				"z": 3.7884202422,
				"element": "H" 
			}
		],
		 "valence_orbital": [ 
			{
				"type": "occ",
				"energy": -0.32243,
				"method": "rhf"
			},
			{
				"type": "occ",
				"energy": -0.31512,
				"method": "rhf"
			},
			{
				"type": "occ",
				"energy": -0.26859,
				"method": "rhf"
			},
			{
				"type": "occ",
				"energy": -0.23676,
				"method": "rhf"
			},
			{
				"type": "occ",
				"energy": -0.21092,
				"method": "rhf"
			},
			{
				"type": "unocc",
				"energy": 0.00711,
				"method": "rhf"
			},
			{
				"type": "unocc",
				"energy": 0.01536,
				"method": "rhf"
			},
			{
				"type": "unocc",
				"energy": 0.08703,
				"method": "rhf"
			},
			{
				"type": "unocc",
				"energy": 0.1006,
				"method": "rhf"
			},
			{
				"type": "unocc",
				"energy": 0.12337,
				"method": "rhf"
			}
		],
		"cosmo_sigma_profile": { 
			"-0.025": 0.0,
			"-0.024": 0.0,
			"-0.023": 0.0,
			"-0.022": 0.0,
			"-0.021": 0.0,
			"-0.02": 0.0,
			"-0.019": 0.0,
			"-0.018": 0.0,
			"-0.017": 0.0,
			"-0.016": 0.0,
			"-0.015": 0.0,
			"-0.014": 0.0,
			"-0.013": 0.0,
			"-0.012": 0.0,
			"-0.011": 0.0,
			"-0.01": 0.0,
			"-0.009": 0.0,
			"-0.008": 0.0,
			"-0.007": 0.24494262728,
			"-0.006": 7.73519896017,
			"-0.005": 19.2492197831,
			"-0.004": 19.9067606969,
			"-0.003": 23.6633259897,
			"-0.002": 17.3498141626,
			"-0.001": 11.3632953157,
			"0.0": 9.63985645199,
			"0.001": 9.82555316849,
			"0.002": 10.1523564683,
			"0.003": 10.6160554779,
			"0.004": 11.330407118,
			"0.005": 10.5226585179,
			"0.006": 8.65810841419,
			"0.007": 2.87788278462,
			"0.008": 2.09447831604,
			"0.009": 1.82653049096,
			"0.01": 2.2304597229,
			"0.011": 2.77618042467,
			"0.012": 1.85987269216,
			"0.013": 0.123451359573,
			"0.014": 0.0,
			"0.015": 0.0,
			"0.016": 0.0,
			"0.017": 0.0,
			"0.018": 0.0,
			"0.019": 0.0,
			"0.02": 0.0,
			"0.021": 0.0,
			"0.022": 0.0,
			"0.023": 0.0,
			"0.024": 0.0,
			"0.025": 0.0
		}
	}
}
