{
	 "smiles": "CC1(C)C2CCC1(C)C=C2", 
	 "Tm": 386.15, 
	 "num_atms": 26, 
	 "gaussian": { 
		 "optdone": 1, 
		 "sigma_profile": "yes", 
		 "theory": "DFT", 
		 "functional": "B3LYP", 
		 "basiset": "6-31G**", 
		 "properties": { 
			 "R2extent": 1408.7987, 
			 "electric_dipole_moment_norm": 0.216196415326, 
			 "electric_quadrupole_moment_norm": 1.83145097668, 
			 "total_energy": -390.683053182, 
			 "HOMO_LUMO_gap": 0.25343, 
			 "cosmo_polarized_energy": -1.32, 
			 "cosmo_cavitation_energy": 24.77, 
			 "cosmo_dispersion_energy": -18.21, 
			 "cosmo_repulsion_energy": 1.45, 
			 "cosmo_total_nonelectrostatic_energy": 8.01, 
			 "SMD_solvation_energy": 4.01 
		},
		"coords": [
			{
				"x": -0.1800696817,
				"y": 1.2824956635,
				"z": 1.619078501,
				"element": "C" 
			},
			{
				"x": 0.9190736816,
				"y": 0.5023544544,
				"z": 0.8757941251,
				"element": "C" 
			},
			{
				"x": 2.1568079553,
				"y": 0.4895102667,
				"z": 1.7899097463,
				"element": "C" 
			},
			{
				"x": 1.2118087025,
				"y": 1.0147354786,
				"z": -0.5751063065,
				"element": "C" 
			},
			{
				"x": -0.1700877657,
				"y": 0.7977283337,
				"z": -1.2807914555,
				"element": "C" 
			},
			{
				"x": -0.6671269113,
				"y": -0.5366770068,
				"z": -0.6495643093,
				"element": "C" 
			},
			{
				"x": 0.4845603872,
				"y": -0.9243464539,
				"z": 0.3494782092,
				"element": "C" 
			},
			{
				"x": 0.1097481426,
				"y": -1.9880886879,
				"z": 1.3714978126,
				"element": "C" 
			},
			{
				"x": 1.6621080687,
				"y": -1.2462168594,
				"z": -0.5679924865,
				"element": "C" 
			},
			{
				"x": 2.0949637922,
				"y": -0.1013817739,
				"z": -1.1099337411,
				"element": "C" 
			},
			{
				"x": 0.1584562309,
				"y": 2.3054719614,
				"z": 1.82092264,
				"element": "H" 
			},
			{
				"x": -1.1249201496,
				"y": 1.3516388316,
				"z": 1.0782716413,
				"element": "H" 
			},
			{
				"x": -0.3895675651,
				"y": 0.8174650402,
				"z": 2.5890742853,
				"element": "H" 
			},
			{
				"x": 1.9207844731,
				"y": 0.0228021007,
				"z": 2.7531990868,
				"element": "H" 
			},
			{
				"x": 2.9984297878,
				"y": -0.0470448317,
				"z": 1.3503951628,
				"element": "H" 
			},
			{
				"x": 2.4814554348,
				"y": 1.5150404506,
				"z": 2.0014609574,
				"element": "H" 
			},
			{
				"x": 1.6085198644,
				"y": 2.0304302426,
				"z": -0.6607098538,
				"element": "H" 
			},
			{
				"x": -0.0550635269,
				"y": 0.7341110925,
				"z": -2.366243485,
				"element": "H" 
			},
			{
				"x": -0.8571578999,
				"y": 1.624700148,
				"z": -1.0760894858,
				"element": "H" 
			},
			{
				"x": -0.8200810067,
				"y": -1.325849914,
				"z": -1.3914220929,
				"element": "H" 
			},
			{
				"x": -1.6166660348,
				"y": -0.4061189297,
				"z": -0.1192340427,
				"element": "H" 
			},
			{
				"x": -0.7370707173,
				"y": -1.668644267,
				"z": 1.9888495417,
				"element": "H" 
			},
			{
				"x": 0.9467621725,
				"y": -2.2175631414,
				"z": 2.0397068455,
				"element": "H" 
			},
			{
				"x": -0.1813677914,
				"y": -2.921656714,
				"z": 0.8759651749,
				"element": "H" 
			},
			{
				"x": 1.9963271478,
				"y": -2.254050816,
				"z": -0.7961466398,
				"element": "H" 
			},
			{
				"x": 2.854673209,
				"y": 0.0209553313,
				"z": -1.8750698309,
				"element": "H" 
			}
		],
		 "valence_orbital": [ 
			{
				"type": "occ",
				"energy": -0.31867,
				"method": "rhf"
			},
			{
				"type": "occ",
				"energy": -0.31229,
				"method": "rhf"
			},
			{
				"type": "occ",
				"energy": -0.29754,
				"method": "rhf"
			},
			{
				"type": "occ",
				"energy": -0.27806,
				"method": "rhf"
			},
			{
				"type": "occ",
				"energy": -0.22889,
				"method": "rhf"
			},
			{
				"type": "unocc",
				"energy": 0.02454,
				"method": "rhf"
			},
			{
				"type": "unocc",
				"energy": 0.08192,
				"method": "rhf"
			},
			{
				"type": "unocc",
				"energy": 0.11333,
				"method": "rhf"
			},
			{
				"type": "unocc",
				"energy": 0.1271,
				"method": "rhf"
			},
			{
				"type": "unocc",
				"energy": 0.13227,
				"method": "rhf"
			}
		],
		"cosmo_sigma_profile": { 
			"-0.025": 0.0,
			"-0.024": 0.0,
			"-0.023": 0.0,
			"-0.022": 0.0,
			"-0.021": 0.0,
			"-0.02": 0.0,
			"-0.019": 0.0,
			"-0.018": 0.0,
			"-0.017": 0.0,
			"-0.016": 0.0,
			"-0.015": 0.0,
			"-0.014": 0.0,
			"-0.013": 0.0,
			"-0.012": 0.0,
			"-0.011": 0.0,
			"-0.01": 0.0,
			"-0.009": 0.0,
			"-0.008": 0.0,
			"-0.007": 0.0,
			"-0.006": 0.0,
			"-0.005": 1.52163783598,
			"-0.004": 3.28212551736,
			"-0.003": 9.32986015142,
			"-0.002": 29.5965073401,
			"-0.001": 33.4230547443,
			"0.0": 38.0303833419,
			"0.001": 35.103344818,
			"0.002": 25.8271391962,
			"0.003": 8.16584942732,
			"0.004": 3.08985636194,
			"0.005": 2.24141697772,
			"0.006": 1.24349267415,
			"0.007": 0.137893660671,
			"0.008": 0.0,
			"0.009": 0.0,
			"0.01": 0.0,
			"0.011": 0.0,
			"0.012": 0.0,
			"0.013": 0.0,
			"0.014": 0.0,
			"0.015": 0.0,
			"0.016": 0.0,
			"0.017": 0.0,
			"0.018": 0.0,
			"0.019": 0.0,
			"0.02": 0.0,
			"0.021": 0.0,
			"0.022": 0.0,
			"0.023": 0.0,
			"0.024": 0.0,
			"0.025": 0.0
		}
	}
}
