{
	 "smiles": "OC(=O)C1=NC2=C(C=C(Cl)C=C2)C(Cl)=C1", 
	 "Tm": 468.15, 
	 "num_atms": 20, 
	 "gaussian": { 
		 "optdone": 1, 
		 "sigma_profile": "yes", 
		 "theory": "DFT", 
		 "functional": "B3LYP", 
		 "basiset": "6-31G**", 
		 "properties": { 
			 "R2extent": 4773.5019, 
			 "electric_dipole_moment_norm": 4.16529056609, 
			 "electric_quadrupole_moment_norm": 16.5510639936, 
			 "total_energy": -1509.68595885, 
			 "HOMO_LUMO_gap": 0.16308, 
			 "cosmo_polarized_energy": -10.43, 
			 "cosmo_cavitation_energy": 28.93, 
			 "cosmo_dispersion_energy": -21.76, 
			 "cosmo_repulsion_energy": 1.68, 
			 "cosmo_total_nonelectrostatic_energy": 8.86, 
			 "SMD_solvation_energy": 4.61 
		},
		"coords": [
			{
				"x": 3.2138713054,
				"y": 0.1713442395,
				"z": -1.8583415384,
				"element": "O" 
			},
			{
				"x": 2.2862167844,
				"y": -0.7906984903,
				"z": -1.9513322147,
				"element": "C" 
			},
			{
				"x": 2.3505519606,
				"y": -1.709194974,
				"z": -2.7359314077,
				"element": "O" 
			},
			{
				"x": 1.140407059,
				"y": -0.62446591,
				"z": -0.9786768842,
				"element": "C" 
			},
			{
				"x": 1.2016232571,
				"y": 0.4255339399,
				"z": -0.1803407974,
				"element": "N" 
			},
			{
				"x": 0.1941800271,
				"y": 0.61857524,
				"z": 0.712400971,
				"element": "C" 
			},
			{
				"x": -0.9252883508,
				"y": -0.2742264594,
				"z": 0.8151184719,
				"element": "C" 
			},
			{
				"x": -1.9383299854,
				"y": -0.0095955938,
				"z": 1.7692502645,
				"element": "C" 
			},
			{
				"x": -1.8327880005,
				"y": 1.0971948834,
				"z": 2.5807446813,
				"element": "C" 
			},
			{
				"x": -3.082530557,
				"y": 1.4282381861,
				"z": 3.7613809096,
				"element": "Cl" 
			},
			{
				"x": -0.7351635914,
				"y": 1.9874464333,
				"z": 2.4921022219,
				"element": "C" 
			},
			{
				"x": 0.2566364622,
				"y": 1.7464512056,
				"z": 1.5724449019,
				"element": "C" 
			},
			{
				"x": -0.9315822579,
				"y": -1.3887624624,
				"z": -0.075173346,
				"element": "C" 
			},
			{
				"x": -2.2477002579,
				"y": -2.5369005526,
				"z": -0.0333537121,
				"element": "Cl" 
			},
			{
				"x": 0.0924238638,
				"y": -1.5717475507,
				"z": -0.9719101074,
				"element": "C" 
			},
			{
				"x": 2.9117044508,
				"y": 0.7775420621,
				"z": -1.1503114848,
				"element": "H" 
			},
			{
				"x": -2.7871180131,
				"y": -0.6760603298,
				"z": 1.8554529444,
				"element": "H" 
			},
			{
				"x": -0.6908910964,
				"y": 2.847605326,
				"z": 3.1504550042,
				"element": "H" 
			},
			{
				"x": 1.1111147438,
				"y": 2.4078359326,
				"z": 1.477956588,
				"element": "H" 
			},
			{
				"x": 0.1242621962,
				"y": -2.4040151254,
				"z": -1.6635354661,
				"element": "H" 
			}
		],
		 "valence_orbital": [ 
			{
				"type": "occ",
				"energy": -0.31772,
				"method": "rhf"
			},
			{
				"type": "occ",
				"energy": -0.31534,
				"method": "rhf"
			},
			{
				"type": "occ",
				"energy": -0.28174,
				"method": "rhf"
			},
			{
				"type": "occ",
				"energy": -0.27776,
				"method": "rhf"
			},
			{
				"type": "occ",
				"energy": -0.26183,
				"method": "rhf"
			},
			{
				"type": "unocc",
				"energy": -0.09875,
				"method": "rhf"
			},
			{
				"type": "unocc",
				"energy": -0.06521,
				"method": "rhf"
			},
			{
				"type": "unocc",
				"energy": -0.01954,
				"method": "rhf"
			},
			{
				"type": "unocc",
				"energy": 0.00483,
				"method": "rhf"
			},
			{
				"type": "unocc",
				"energy": 0.01095,
				"method": "rhf"
			}
		],
		"cosmo_sigma_profile": { 
			"-0.025": 0.0,
			"-0.024": 0.0,
			"-0.023": 0.0,
			"-0.022": 0.0,
			"-0.021": 0.0,
			"-0.02": 0.0,
			"-0.019": 0.0,
			"-0.018": 0.0,
			"-0.017": 0.0,
			"-0.016": 0.0,
			"-0.015": 0.0,
			"-0.014": 0.0,
			"-0.013": 0.746333876858,
			"-0.012": 0.382482668369,
			"-0.011": 0.830961652398,
			"-0.01": 0.462143974878,
			"-0.009": 0.991285332347,
			"-0.008": 4.68329004228,
			"-0.007": 7.52989775886,
			"-0.006": 8.50781228777,
			"-0.005": 9.50359649298,
			"-0.004": 12.1752796213,
			"-0.003": 16.6380272587,
			"-0.002": 25.5368191883,
			"-0.001": 28.2403469003,
			"0.0": 28.6771545823,
			"0.001": 20.6207505125,
			"0.002": 16.3398630154,
			"0.003": 18.0312499633,
			"0.004": 10.540248211,
			"0.005": 2.64716104894,
			"0.006": 2.0705642208,
			"0.007": 2.86055021664,
			"0.008": 3.27021889059,
			"0.009": 4.56752048714,
			"0.01": 4.79086314025,
			"0.011": 5.0739592212,
			"0.012": 2.46898613858,
			"0.013": 0.497109641998,
			"0.014": 0.0,
			"0.015": 0.0,
			"0.016": 0.0,
			"0.017": 0.0,
			"0.018": 0.0,
			"0.019": 0.0,
			"0.02": 0.0,
			"0.021": 0.0,
			"0.022": 0.0,
			"0.023": 0.0,
			"0.024": 0.0,
			"0.025": 0.0
		}
	}
}
