{
	 "smiles": "CN1CCN(CC1)C1=C(C=O)C(Cl)=CC=C1", 
	 "Tm": 354.15, 
	 "num_atms": 31, 
	 "gaussian": { 
		 "optdone": 1, 
		 "sigma_profile": "yes", 
		 "theory": "DFT", 
		 "functional": "B3LYP", 
		 "basiset": "6-31G**", 
		 "properties": { 
			 "R2extent": 5009.7088, 
			 "electric_dipole_moment_norm": 5.25294994551, 
			 "electric_quadrupole_moment_norm": 17.8635885037, 
			 "total_energy": -1111.19170811, 
			 "HOMO_LUMO_gap": 0.15396, 
			 "cosmo_polarized_energy": -12.54, 
			 "cosmo_cavitation_energy": 33.85, 
			 "cosmo_dispersion_energy": -24.63, 
			 "cosmo_repulsion_energy": 1.9, 
			 "cosmo_total_nonelectrostatic_energy": 11.12, 
			 "SMD_solvation_energy": 2.75 
		},
		"coords": [
			{
				"x": 4.2961513891,
				"y": 1.8495652803,
				"z": 2.047557732,
				"element": "C" 
			},
			{
				"x": 3.0760583304,
				"y": 2.1345146229,
				"z": 1.3077501816,
				"element": "N" 
			},
			{
				"x": 1.8812684343,
				"y": 1.8529264668,
				"z": 2.1076549587,
				"element": "C" 
			},
			{
				"x": 0.6481964147,
				"y": 1.7571064217,
				"z": 1.2154165585,
				"element": "C" 
			},
			{
				"x": 0.7551135945,
				"y": 0.5793249943,
				"z": 0.3459642993,
				"element": "N" 
			},
			{
				"x": 2.1405682579,
				"y": 0.2537605223,
				"z": -0.0632983199,
				"element": "C" 
			},
			{
				"x": 3.0145955779,
				"y": 1.5141832275,
				"z": -0.0263137637,
				"element": "C" 
			},
			{
				"x": -0.3238183921,
				"y": 0.250970433,
				"z": -0.476024622,
				"element": "C" 
			},
			{
				"x": -0.4080685008,
				"y": -1.0558112249,
				"z": -1.0536561355,
				"element": "C" 
			},
			{
				"x": 0.4460335738,
				"y": -2.1292440086,
				"z": -0.4835449948,
				"element": "C" 
			},
			{
				"x": 0.736717177,
				"y": -3.1913465223,
				"z": -0.9988129109,
				"element": "O" 
			},
			{
				"x": -1.4372929665,
				"y": -1.3092182964,
				"z": -1.9847402175,
				"element": "C" 
			},
			{
				"x": -1.5829388509,
				"y": -2.8572510124,
				"z": -2.7945780293,
				"element": "Cl" 
			},
			{
				"x": -2.4192962044,
				"y": -0.3647788873,
				"z": -2.2686771914,
				"element": "C" 
			},
			{
				"x": -2.3758865055,
				"y": 0.867378656,
				"z": -1.6170711179,
				"element": "C" 
			},
			{
				"x": -1.3463100649,
				"y": 1.18319193,
				"z": -0.7390577437,
				"element": "C" 
			},
			{
				"x": 5.1686944355,
				"y": 2.160842843,
				"z": 1.4654284141,
				"element": "H" 
			},
			{
				"x": 4.297347287,
				"y": 2.4246386524,
				"z": 2.9800201442,
				"element": "H" 
			},
			{
				"x": 4.4203784128,
				"y": 0.7824021371,
				"z": 2.3157943621,
				"element": "H" 
			},
			{
				"x": 1.9728778074,
				"y": 0.9094701871,
				"z": 2.6795638132,
				"element": "H" 
			},
			{
				"x": 1.7377627213,
				"y": 2.6562914889,
				"z": 2.8409616335,
				"element": "H" 
			},
			{
				"x": 0.5592853893,
				"y": 2.6939325126,
				"z": 0.6420931769,
				"element": "H" 
			},
			{
				"x": -0.2512646864,
				"y": 1.6614411524,
				"z": 1.8320376738,
				"element": "H" 
			},
			{
				"x": 2.1239729848,
				"y": -0.1588867091,
				"z": -1.0759977871,
				"element": "H" 
			},
			{
				"x": 2.5738041066,
				"y": -0.5114268355,
				"z": 0.5931464674,
				"element": "H" 
			},
			{
				"x": 4.0273297931,
				"y": 1.2559526555,
				"z": -0.3512429977,
				"element": "H" 
			},
			{
				"x": 2.6243730629,
				"y": 2.2381130714,
				"z": -0.7544904807,
				"element": "H" 
			},
			{
				"x": 0.7828460934,
				"y": -1.8945576987,
				"z": 0.5473609886,
				"element": "H" 
			},
			{
				"x": -3.2052366794,
				"y": -0.5999594101,
				"z": -2.9762847263,
				"element": "H" 
			},
			{
				"x": -3.1454514263,
				"y": 1.6059543328,
				"z": -1.8230160698,
				"element": "H" 
			},
			{
				"x": -1.3174105666,
				"y": 2.1683190176,
				"z": -0.2917432959,
				"element": "H" 
			}
		],
		 "valence_orbital": [ 
			{
				"type": "occ",
				"energy": -0.28684,
				"method": "rhf"
			},
			{
				"type": "occ",
				"energy": -0.25135,
				"method": "rhf"
			},
			{
				"type": "occ",
				"energy": -0.23982,
				"method": "rhf"
			},
			{
				"type": "occ",
				"energy": -0.21951,
				"method": "rhf"
			},
			{
				"type": "occ",
				"energy": -0.21042,
				"method": "rhf"
			},
			{
				"type": "unocc",
				"energy": -0.05646,
				"method": "rhf"
			},
			{
				"type": "unocc",
				"energy": -0.00783,
				"method": "rhf"
			},
			{
				"type": "unocc",
				"energy": 0.02828,
				"method": "rhf"
			},
			{
				"type": "unocc",
				"energy": 0.04091,
				"method": "rhf"
			},
			{
				"type": "unocc",
				"energy": 0.06454,
				"method": "rhf"
			}
		],
		"cosmo_sigma_profile": { 
			"-0.025": 0.0,
			"-0.024": 0.0,
			"-0.023": 0.0,
			"-0.022": 0.0,
			"-0.021": 0.0,
			"-0.02": 0.0,
			"-0.019": 0.0,
			"-0.018": 0.0,
			"-0.017": 0.0,
			"-0.016": 0.0,
			"-0.015": 0.0,
			"-0.014": 0.0,
			"-0.013": 0.0,
			"-0.012": 0.0,
			"-0.011": 0.0,
			"-0.01": 0.0,
			"-0.009": 0.0,
			"-0.008": 0.0308057348539,
			"-0.007": 3.76857970076,
			"-0.006": 8.81593518756,
			"-0.005": 19.3514024313,
			"-0.004": 29.9492652299,
			"-0.003": 32.9684173202,
			"-0.002": 29.7287028493,
			"-0.001": 24.7695067769,
			"0.0": 20.1425559116,
			"0.001": 14.534377207,
			"0.002": 18.2743416123,
			"0.003": 16.0552768655,
			"0.004": 15.0340946716,
			"0.005": 6.93785224596,
			"0.006": 2.17265878357,
			"0.007": 3.93500579452,
			"0.008": 2.90698308155,
			"0.009": 2.1925015218,
			"0.01": 3.88641463733,
			"0.011": 3.83217795718,
			"0.012": 5.36884916289,
			"0.013": 2.46956276067,
			"0.014": 0.488501139094,
			"0.015": 0.590289925663,
			"0.016": 0.370146196111,
			"0.017": 0.0767148957073,
			"0.018": 0.0,
			"0.019": 0.0,
			"0.02": 0.0,
			"0.021": 0.0,
			"0.022": 0.0,
			"0.023": 0.0,
			"0.024": 0.0,
			"0.025": 0.0
		}
	}
}
