{
	 "smiles": "NCC1(O)CCSCC1", 
	 "Tm": 339.15, 
	 "num_atms": 22, 
	 "gaussian": { 
		 "optdone": 1, 
		 "sigma_profile": "yes", 
		 "theory": "DFT", 
		 "functional": "B3LYP", 
		 "basiset": "6-31G**", 
		 "properties": { 
			 "R2extent": 1584.4683, 
			 "electric_dipole_moment_norm": 3.6921159692, 
			 "electric_quadrupole_moment_norm": 13.7012700141, 
			 "total_energy": -764.638764953, 
			 "HOMO_LUMO_gap": 0.25808, 
			 "cosmo_polarized_energy": -11.57, 
			 "cosmo_cavitation_energy": 23.56, 
			 "cosmo_dispersion_energy": -18.34, 
			 "cosmo_repulsion_energy": 1.45, 
			 "cosmo_total_nonelectrostatic_energy": 6.67, 
			 "SMD_solvation_energy": 2.39 
		},
		"coords": [
			{
				"x": 2.050696711,
				"y": -1.6403256251,
				"z": 1.737358496,
				"element": "N" 
			},
			{
				"x": 1.8417289422,
				"y": -0.7717506305,
				"z": 0.5661943654,
				"element": "C" 
			},
			{
				"x": 0.3223897106,
				"y": -0.6421415806,
				"z": 0.2894564864,
				"element": "C" 
			},
			{
				"x": -0.2164002358,
				"y": -1.9589282369,
				"z": 0.2815757911,
				"element": "O" 
			},
			{
				"x": 0.0484744381,
				"y": -0.0625137681,
				"z": -1.1084291895,
				"element": "C" 
			},
			{
				"x": 0.4447551931,
				"y": 1.4061405173,
				"z": -1.2921052098,
				"element": "C" 
			},
			{
				"x": -0.4418531035,
				"y": 2.5388815226,
				"z": -0.1505224474,
				"element": "S" 
			},
			{
				"x": -0.0557221323,
				"y": 1.6742922487,
				"z": 1.421786226,
				"element": "C" 
			},
			{
				"x": -0.4027800626,
				"y": 0.1817047324,
				"z": 1.3814479599,
				"element": "C" 
			},
			{
				"x": 2.0126845019,
				"y": -1.1069771989,
				"z": 2.6010797015,
				"element": "H" 
			},
			{
				"x": 2.9653594271,
				"y": -2.0785330039,
				"z": 1.7028221977,
				"element": "H" 
			},
			{
				"x": 2.3210426383,
				"y": 0.2129281321,
				"z": 0.6606933117,
				"element": "H" 
			},
			{
				"x": 2.2912059566,
				"y": -1.2704867053,
				"z": -0.2988542845,
				"element": "H" 
			},
			{
				"x": 0.2816569978,
				"y": -2.421282482,
				"z": 0.9812807242,
				"element": "H" 
			},
			{
				"x": -1.0220509223,
				"y": -0.1784379447,
				"z": -1.3083665579,
				"element": "H" 
			},
			{
				"x": 0.578832247,
				"y": -0.6796297539,
				"z": -1.845178477,
				"element": "H" 
			},
			{
				"x": 0.1834950808,
				"y": 1.7471728028,
				"z": -2.297933139,
				"element": "H" 
			},
			{
				"x": 1.5242501958,
				"y": 1.5512150415,
				"z": -1.1742429675,
				"element": "H" 
			},
			{
				"x": -0.6478844475,
				"y": 2.185026445,
				"z": 2.1868061136,
				"element": "H" 
			},
			{
				"x": 0.9994174468,
				"y": 1.837870868,
				"z": 1.6701347686,
				"element": "H" 
			},
			{
				"x": -1.4776185715,
				"y": 0.0606078328,
				"z": 1.2132654239,
				"element": "H" 
			},
			{
				"x": -0.1893800117,
				"y": -0.2657332134,
				"z": 2.3623307065,
				"element": "H" 
			}
		],
		 "valence_orbital": [ 
			{
				"type": "occ",
				"energy": -0.30508,
				"method": "rhf"
			},
			{
				"type": "occ",
				"energy": -0.29582,
				"method": "rhf"
			},
			{
				"type": "occ",
				"energy": -0.26638,
				"method": "rhf"
			},
			{
				"type": "occ",
				"energy": -0.24665,
				"method": "rhf"
			},
			{
				"type": "occ",
				"energy": -0.21567,
				"method": "rhf"
			},
			{
				"type": "unocc",
				"energy": 0.04241,
				"method": "rhf"
			},
			{
				"type": "unocc",
				"energy": 0.0585,
				"method": "rhf"
			},
			{
				"type": "unocc",
				"energy": 0.08415,
				"method": "rhf"
			},
			{
				"type": "unocc",
				"energy": 0.09167,
				"method": "rhf"
			},
			{
				"type": "unocc",
				"energy": 0.10517,
				"method": "rhf"
			}
		],
		"cosmo_sigma_profile": { 
			"-0.025": 0.0,
			"-0.024": 0.0,
			"-0.023": 0.0,
			"-0.022": 0.0,
			"-0.021": 0.0,
			"-0.02": 0.0,
			"-0.019": 0.0,
			"-0.018": 0.0,
			"-0.017": 0.0,
			"-0.016": 0.0,
			"-0.015": 0.0,
			"-0.014": 0.0,
			"-0.013": 0.0,
			"-0.012": 0.0,
			"-0.011": 0.541161508899,
			"-0.01": 2.6724512222,
			"-0.009": 2.8562887837,
			"-0.008": 3.19783358343,
			"-0.007": 4.17048860784,
			"-0.006": 5.42859431147,
			"-0.005": 13.6884831668,
			"-0.004": 16.6576160123,
			"-0.003": 19.9988657892,
			"-0.002": 20.7833360245,
			"-0.001": 18.2188203,
			"0.0": 11.7646612677,
			"0.001": 6.95999688483,
			"0.002": 6.05605356063,
			"0.003": 6.41115055262,
			"0.004": 5.29139415235,
			"0.005": 4.62783470596,
			"0.006": 6.17319282381,
			"0.007": 5.31902868944,
			"0.008": 4.62516929951,
			"0.009": 3.51481331703,
			"0.01": 3.91142121371,
			"0.011": 3.65226054889,
			"0.012": 1.57745155249,
			"0.013": 1.33260729506,
			"0.014": 1.81642017399,
			"0.015": 1.72837709681,
			"0.016": 0.399659262793,
			"0.017": 0.0,
			"0.018": 0.0,
			"0.019": 0.0,
			"0.02": 0.0,
			"0.021": 0.0,
			"0.022": 0.0,
			"0.023": 0.0,
			"0.024": 0.0,
			"0.025": 0.0
		}
	}
}
