{
	 "smiles": "CC(=O)NC1=NC=C(S1)[N+]([O-])=O", 
	 "Tm": 537.15, 
	 "num_atms": 17, 
	 "gaussian": { 
		 "optdone": 1, 
		 "sigma_profile": "yes", 
		 "theory": "DFT", 
		 "functional": "B3LYP", 
		 "basiset": "6-31G**", 
		 "properties": { 
			 "R2extent": 3273.9418, 
			 "electric_dipole_moment_norm": 2.3344131361, 
			 "electric_quadrupole_moment_norm": 22.3528795729, 
			 "total_energy": -981.551127938, 
			 "HOMO_LUMO_gap": 0.15439, 
			 "cosmo_polarized_energy": -14.86, 
			 "cosmo_cavitation_energy": 24.42, 
			 "cosmo_dispersion_energy": -18.52, 
			 "cosmo_repulsion_energy": 1.43, 
			 "cosmo_total_nonelectrostatic_energy": 7.33, 
			 "SMD_solvation_energy": 6.06 
		},
		"coords": [
			{
				"x": -2.09289184,
				"y": 0.4617194358,
				"z": -0.8528052242,
				"element": "C" 
			},
			{
				"x": -1.3735246763,
				"y": 1.7747080841,
				"z": -0.6607730906,
				"element": "C" 
			},
			{
				"x": -1.9392507964,
				"y": 2.8494571851,
				"z": -0.6132251279,
				"element": "O" 
			},
			{
				"x": 0.025568376,
				"y": 1.7638337219,
				"z": -0.52889061,
				"element": "N" 
			},
			{
				"x": 0.9888430519,
				"y": 0.7863385728,
				"z": -0.5294965846,
				"element": "C" 
			},
			{
				"x": 2.2524080204,
				"y": 1.1356030713,
				"z": -0.3766859849,
				"element": "N" 
			},
			{
				"x": 3.0616530711,
				"y": 0.0439413572,
				"z": -0.4026488744,
				"element": "C" 
			},
			{
				"x": 2.4239146119,
				"y": -1.1541973904,
				"z": -0.5759683128,
				"element": "C" 
			},
			{
				"x": 0.6954896308,
				"y": -0.9408816408,
				"z": -0.7199098956,
				"element": "S" 
			},
			{
				"x": 3.0047814404,
				"y": -2.4527102313,
				"z": -0.6431519862,
				"element": "N" 
			},
			{
				"x": 4.2298983439,
				"y": -2.5324235521,
				"z": -0.5343790692,
				"element": "O" 
			},
			{
				"x": 2.2307204783,
				"y": -3.4039136069,
				"z": -0.8062812399,
				"element": "O" 
			},
			{
				"x": -1.7616690749,
				"y": -0.0472290597,
				"z": -1.763992924,
				"element": "H" 
			},
			{
				"x": -3.1573014549,
				"y": 0.679764918,
				"z": -0.9335415295,
				"element": "H" 
			},
			{
				"x": -1.9289374429,
				"y": -0.2127215184,
				"z": -0.0058973188,
				"element": "H" 
			},
			{
				"x": 0.4143709853,
				"y": 2.6944040363,
				"z": -0.4043178901,
				"element": "H" 
			},
			{
				"x": 4.1336272753,
				"y": 0.147906617,
				"z": -0.2911343372,
				"element": "H" 
			}
		],
		 "valence_orbital": [ 
			{
				"type": "occ",
				"energy": -0.3141,
				"method": "rhf"
			},
			{
				"type": "occ",
				"energy": -0.30974,
				"method": "rhf"
			},
			{
				"type": "occ",
				"energy": -0.29936,
				"method": "rhf"
			},
			{
				"type": "occ",
				"energy": -0.29158,
				"method": "rhf"
			},
			{
				"type": "occ",
				"energy": -0.25999,
				"method": "rhf"
			},
			{
				"type": "unocc",
				"energy": -0.1056,
				"method": "rhf"
			},
			{
				"type": "unocc",
				"energy": -0.04242,
				"method": "rhf"
			},
			{
				"type": "unocc",
				"energy": -0.02022,
				"method": "rhf"
			},
			{
				"type": "unocc",
				"energy": 0.00152,
				"method": "rhf"
			},
			{
				"type": "unocc",
				"energy": 0.03853,
				"method": "rhf"
			}
		],
		"cosmo_sigma_profile": { 
			"-0.025": 0.0,
			"-0.024": 0.0,
			"-0.023": 0.0,
			"-0.022": 0.0,
			"-0.021": 0.0,
			"-0.02": 0.0,
			"-0.019": 0.0,
			"-0.018": 0.0,
			"-0.017": 0.0,
			"-0.016": 0.40938041647,
			"-0.015": 0.783104307047,
			"-0.014": 0.592806305929,
			"-0.013": 1.00900271289,
			"-0.012": 0.727656252839,
			"-0.011": 0.937905628466,
			"-0.01": 2.73962355431,
			"-0.009": 4.29284004872,
			"-0.008": 5.40753499337,
			"-0.007": 6.75221944331,
			"-0.006": 10.7914767796,
			"-0.005": 12.9834758659,
			"-0.004": 16.1557953088,
			"-0.003": 19.2387589304,
			"-0.002": 17.3556778442,
			"-0.001": 10.2729945526,
			"0.0": 9.75108940395,
			"0.001": 7.64712224739,
			"0.002": 4.62779019867,
			"0.003": 5.40058966538,
			"0.004": 5.42935494498,
			"0.005": 4.42019539382,
			"0.006": 5.4270441551,
			"0.007": 10.4696174249,
			"0.008": 11.3367402576,
			"0.009": 6.83673175161,
			"0.01": 6.06435896318,
			"0.011": 5.5870331269,
			"0.012": 3.84358256044,
			"0.013": 0.489670469358,
			"0.014": 0.0,
			"0.015": 0.0,
			"0.016": 0.0,
			"0.017": 0.0,
			"0.018": 0.0,
			"0.019": 0.0,
			"0.02": 0.0,
			"0.021": 0.0,
			"0.022": 0.0,
			"0.023": 0.0,
			"0.024": 0.0,
			"0.025": 0.0
		}
	}
}
