{
	 "smiles": "OC1C(OC2=CC(O)=CC=C2C1=O)C1=CC(O)=C(O)C=C1", 
	 "Tm": 500.15, 
	 "num_atms": 33, 
	 "gaussian": { 
		 "optdone": 1, 
		 "sigma_profile": "yes", 
		 "theory": "DFT", 
		 "functional": "B3LYP", 
		 "basiset": "6-31G**", 
		 "properties": { 
			 "R2extent": 8120.4273, 
			 "electric_dipole_moment_norm": 5.39007684825, 
			 "electric_quadrupole_moment_norm": 9.86493780315, 
			 "total_energy": -1030.15341669, 
			 "HOMO_LUMO_gap": 0.15133, 
			 "cosmo_polarized_energy": -22.25, 
			 "cosmo_cavitation_energy": 37.25, 
			 "cosmo_dispersion_energy": -27.51, 
			 "cosmo_repulsion_energy": 2.07, 
			 "cosmo_total_nonelectrostatic_energy": 11.8, 
			 "SMD_solvation_energy": 7.53 
		},
		"coords": [
			{
				"x": 0.5584888513,
				"y": -0.6154249206,
				"z": 3.5841501763,
				"element": "O" 
			},
			{
				"x": 0.7364894925,
				"y": -1.2389708174,
				"z": 2.3399135124,
				"element": "C" 
			},
			{
				"x": -0.1169654752,
				"y": -0.5809974226,
				"z": 1.2500038608,
				"element": "C" 
			},
			{
				"x": 0.0852138919,
				"y": -1.302909115,
				"z": -0.0045797198,
				"element": "O" 
			},
			{
				"x": -0.0483649655,
				"y": -2.6520962124,
				"z": 0.0186827886,
				"element": "C" 
			},
			{
				"x": -0.2794167328,
				"y": -3.2900996585,
				"z": -1.2033948313,
				"element": "C" 
			},
			{
				"x": -0.4223776724,
				"y": -4.6780383273,
				"z": -1.2354216073,
				"element": "C" 
			},
			{
				"x": -0.6455623991,
				"y": -5.3558479276,
				"z": -2.389932969,
				"element": "O" 
			},
			{
				"x": -0.3545730561,
				"y": -5.4437090358,
				"z": -0.0530806618,
				"element": "C" 
			},
			{
				"x": -0.1243686826,
				"y": -4.8021952234,
				"z": 1.1469722025,
				"element": "C" 
			},
			{
				"x": 0.0474022824,
				"y": -3.4047417914,
				"z": 1.2079575081,
				"element": "C" 
			},
			{
				"x": 0.3560221501,
				"y": -2.7204215358,
				"z": 2.4560315464,
				"element": "C" 
			},
			{
				"x": 0.3449200148,
				"y": -3.2382031622,
				"z": 3.5703302467,
				"element": "O" 
			},
			{
				"x": 0.1695189827,
				"y": 0.8746395347,
				"z": 0.9541541506,
				"element": "C" 
			},
			{
				"x": -0.5159881544,
				"y": 1.4769699736,
				"z": -0.1155351851,
				"element": "C" 
			},
			{
				"x": -0.2876914919,
				"y": 2.8056707366,
				"z": -0.4382254695,
				"element": "C" 
			},
			{
				"x": -0.9037513327,
				"y": 3.4779305328,
				"z": -1.470845892,
				"element": "O" 
			},
			{
				"x": 0.6272824582,
				"y": 3.5746195728,
				"z": 0.3052988205,
				"element": "C" 
			},
			{
				"x": 0.8472436201,
				"y": 4.8799212731,
				"z": -0.011492254,
				"element": "O" 
			},
			{
				"x": 1.2993094571,
				"y": 2.9830517832,
				"z": 1.3690511795,
				"element": "C" 
			},
			{
				"x": 1.0747469233,
				"y": 1.6412172877,
				"z": 1.6916162655,
				"element": "C" 
			},
			{
				"x": 0.5076944504,
				"y": -1.3553141902,
				"z": 4.2192871485,
				"element": "H" 
			},
			{
				"x": 1.7922945099,
				"y": -1.1990269327,
				"z": 2.0114404768,
				"element": "H" 
			},
			{
				"x": -1.1753969377,
				"y": -0.7078075184,
				"z": 1.5262042887,
				"element": "H" 
			},
			{
				"x": -0.352217471,
				"y": -2.689703308,
				"z": -2.1056255081,
				"element": "H" 
			},
			{
				"x": -0.6589515767,
				"y": -4.7371814792,
				"z": -3.132456191,
				"element": "H" 
			},
			{
				"x": -0.4780545651,
				"y": -6.5186903716,
				"z": -0.1173271343,
				"element": "H" 
			},
			{
				"x": -0.0541596158,
				"y": -5.3599392512,
				"z": 2.0753475497,
				"element": "H" 
			},
			{
				"x": -1.2154104593,
				"y": 0.8913944509,
				"z": -0.7081116093,
				"element": "H" 
			},
			{
				"x": -1.5258913111,
				"y": 2.8914645135,
				"z": -1.9178656995,
				"element": "H" 
			},
			{
				"x": 0.2827851551,
				"y": 5.0951585692,
				"z": -0.769082319,
				"element": "H" 
			},
			{
				"x": 1.9965294418,
				"y": 3.5861634239,
				"z": 1.941084443,
				"element": "H" 
			},
			{
				"x": 1.5858002178,
				"y": 1.2101165489,
				"z": 2.5435508864,
				"element": "H" 
			}
		],
		 "valence_orbital": [ 
			{
				"type": "occ",
				"energy": -0.26097,
				"method": "rhf"
			},
			{
				"type": "occ",
				"energy": -0.2534,
				"method": "rhf"
			},
			{
				"type": "occ",
				"energy": -0.23939,
				"method": "rhf"
			},
			{
				"type": "occ",
				"energy": -0.23552,
				"method": "rhf"
			},
			{
				"type": "occ",
				"energy": -0.2108,
				"method": "rhf"
			},
			{
				"type": "unocc",
				"energy": -0.05947,
				"method": "rhf"
			},
			{
				"type": "unocc",
				"energy": -0.01121,
				"method": "rhf"
			},
			{
				"type": "unocc",
				"energy": -0.00189,
				"method": "rhf"
			},
			{
				"type": "unocc",
				"energy": 0.01283,
				"method": "rhf"
			},
			{
				"type": "unocc",
				"energy": 0.04051,
				"method": "rhf"
			}
		],
		"cosmo_sigma_profile": { 
			"-0.025": 0.0,
			"-0.024": 0.0,
			"-0.023": 0.0,
			"-0.022": 0.0,
			"-0.021": 0.0,
			"-0.02": 0.0,
			"-0.019": 0.490073893871,
			"-0.018": 2.16337571368,
			"-0.017": 2.27217746215,
			"-0.016": 2.49978461758,
			"-0.015": 2.54967819847,
			"-0.014": 1.30426885548,
			"-0.013": 2.24951874145,
			"-0.012": 3.0446073118,
			"-0.011": 3.15063428174,
			"-0.01": 3.43843264251,
			"-0.009": 3.0184106052,
			"-0.008": 3.72847450548,
			"-0.007": 8.46198973433,
			"-0.006": 14.3019961912,
			"-0.005": 14.8183082107,
			"-0.004": 15.6727027539,
			"-0.003": 14.6236420914,
			"-0.002": 13.2259736483,
			"-0.001": 13.5785799519,
			"0.0": 14.67301181,
			"0.001": 19.5390906533,
			"0.002": 27.8282724443,
			"0.003": 24.9053205478,
			"0.004": 17.7986761087,
			"0.005": 14.9141826919,
			"0.006": 11.4534524216,
			"0.007": 9.20245192062,
			"0.008": 7.02238978236,
			"0.009": 7.19808702443,
			"0.01": 8.20852870657,
			"0.011": 6.57581351712,
			"0.012": 2.58787202964,
			"0.013": 0.052265684752,
			"0.014": 0.0,
			"0.015": 0.0,
			"0.016": 0.0,
			"0.017": 0.0,
			"0.018": 0.0,
			"0.019": 0.0,
			"0.02": 0.0,
			"0.021": 0.0,
			"0.022": 0.0,
			"0.023": 0.0,
			"0.024": 0.0,
			"0.025": 0.0
		}
	}
}
