{
	 "smiles": "CCOC(=O)C(CC(C)C)(C=C1C2CCC(C)(C1=O)C2(C)C)C=C1C2CCC(C)(C1=O)C2(C)C", 
	 "Tm": 429.15, 
	 "num_atms": 78, 
	 "gaussian": { 
		 "optdone": 1, 
		 "sigma_profile": "yes", 
		 "theory": "DFT", 
		 "functional": "B3LYP", 
		 "basiset": "6-31G**", 
		 "properties": { 
			 "R2extent": 15682.6138, 
			 "electric_dipole_moment_norm": 3.69781371489, 
			 "electric_quadrupole_moment_norm": 21.4181047049, 
			 "total_energy": -1470.5979212, 
			 "HOMO_LUMO_gap": 0.16897, 
			 "cosmo_polarized_energy": -17.22, 
			 "cosmo_cavitation_energy": 69.66, 
			 "cosmo_dispersion_energy": -41.04, 
			 "cosmo_repulsion_energy": 3.01, 
			 "cosmo_total_nonelectrostatic_energy": 31.63, 
			 "SMD_solvation_energy": 12.05 
		},
		"coords": [
			{
				"x": 2.2203701809,
				"y": 3.5078926184,
				"z": 1.9163010343,
				"element": "C" 
			},
			{
				"x": 2.8434704392,
				"y": 3.0281332405,
				"z": 0.6194788171,
				"element": "C" 
			},
			{
				"x": 2.0964134967,
				"y": 1.8724006733,
				"z": 0.1642498517,
				"element": "O" 
			},
			{
				"x": 2.4682457092,
				"y": 1.3996691488,
				"z": -1.0399432542,
				"element": "C" 
			},
			{
				"x": 3.2872099001,
				"y": 1.9413325199,
				"z": -1.748469172,
				"element": "O" 
			},
			{
				"x": 1.6055648646,
				"y": 0.1816658504,
				"z": -1.5022698732,
				"element": "C" 
			},
			{
				"x": 2.4667036187,
				"y": -0.5534522947,
				"z": -2.5910939896,
				"element": "C" 
			},
			{
				"x": 1.9084110535,
				"y": -1.748309128,
				"z": -3.4032671661,
				"element": "C" 
			},
			{
				"x": 0.6845411697,
				"y": -1.4277594212,
				"z": -4.2768700635,
				"element": "C" 
			},
			{
				"x": 1.669470749,
				"y": -3.0345142708,
				"z": -2.5967400449,
				"element": "C" 
			},
			{
				"x": 1.1962304527,
				"y": -0.7750610442,
				"z": -0.3986888805,
				"element": "C" 
			},
			{
				"x": 1.9382423179,
				"y": -1.2766837893,
				"z": 0.6006075608,
				"element": "C" 
			},
			{
				"x": 1.4797280935,
				"y": -2.2584643347,
				"z": 1.6682806024,
				"element": "C" 
			},
			{
				"x": 2.2314408546,
				"y": -3.592723493,
				"z": 1.4042774573,
				"element": "C" 
			},
			{
				"x": 3.7050074676,
				"y": -3.2300309479,
				"z": 1.7612876175,
				"element": "C" 
			},
			{
				"x": 3.6284610592,
				"y": -1.7443654769,
				"z": 2.258539927,
				"element": "C" 
			},
			{
				"x": 4.8463274019,
				"y": -1.2608250933,
				"z": 3.0250891777,
				"element": "C" 
			},
			{
				"x": 3.3496397647,
				"y": -0.9645050997,
				"z": 0.963924988,
				"element": "C" 
			},
			{
				"x": 4.1511912625,
				"y": -0.2728935868,
				"z": 0.3517691214,
				"element": "O" 
			},
			{
				"x": 2.2088463221,
				"y": -1.7027982366,
				"z": 2.9390563866,
				"element": "C" 
			},
			{
				"x": 2.0803350266,
				"y": -2.5960740849,
				"z": 4.1836022519,
				"element": "C" 
			},
			{
				"x": 1.7429240474,
				"y": -0.2878214901,
				"z": 3.3226510518,
				"element": "C" 
			},
			{
				"x": 0.4192434723,
				"y": 0.8876146714,
				"z": -2.1589134386,
				"element": "C" 
			},
			{
				"x": -0.7626792459,
				"y": 1.3087988635,
				"z": -1.6743450771,
				"element": "C" 
			},
			{
				"x": -1.7958888427,
				"y": 2.0759883523,
				"z": -2.4896011129,
				"element": "C" 
			},
			{
				"x": -3.0089308973,
				"y": 1.1227163489,
				"z": -2.6750431361,
				"element": "C" 
			},
			{
				"x": -3.604578609,
				"y": 1.0471416477,
				"z": -1.2371141825,
				"element": "C" 
			},
			{
				"x": -2.7010190775,
				"y": 2.0113154981,
				"z": -0.3959691227,
				"element": "C" 
			},
			{
				"x": -3.2756849662,
				"y": 2.4200673333,
				"z": 0.9485279531,
				"element": "C" 
			},
			{
				"x": -1.3685484955,
				"y": 1.2464356945,
				"z": -0.2948067858,
				"element": "C" 
			},
			{
				"x": -0.9419068259,
				"y": 0.7096687612,
				"z": 0.7116268719,
				"element": "O" 
			},
			{
				"x": -2.3279366459,
				"y": 3.1168828593,
				"z": -1.4489217414,
				"element": "C" 
			},
			{
				"x": -1.2431995614,
				"y": 4.0921068031,
				"z": -0.9571610701,
				"element": "C" 
			},
			{
				"x": -3.5196136552,
				"y": 3.9498256613,
				"z": -1.947675321,
				"element": "C" 
			},
			{
				"x": 2.2783836312,
				"y": 2.7409411312,
				"z": 2.6928222463,
				"element": "H" 
			},
			{
				"x": 1.1682695915,
				"y": 3.7711064484,
				"z": 1.7734883565,
				"element": "H" 
			},
			{
				"x": 2.7526077665,
				"y": 4.3965807876,
				"z": 2.270967996,
				"element": "H" 
			},
			{
				"x": 3.887574096,
				"y": 2.7276348679,
				"z": 0.7484026702,
				"element": "H" 
			},
			{
				"x": 2.8113809914,
				"y": 3.7958964691,
				"z": -0.1591131225,
				"element": "H" 
			},
			{
				"x": 2.7797837438,
				"y": 0.2220267828,
				"z": -3.2971828175,
				"element": "H" 
			},
			{
				"x": 3.379776874,
				"y": -0.876735898,
				"z": -2.0822161564,
				"element": "H" 
			},
			{
				"x": 2.7303066219,
				"y": -1.9756595923,
				"z": -4.0987535499,
				"element": "H" 
			},
			{
				"x": 0.8566807089,
				"y": -0.55137779,
				"z": -4.911284399,
				"element": "H" 
			},
			{
				"x": 0.4581922829,
				"y": -2.2731273681,
				"z": -4.9363344533,
				"element": "H" 
			},
			{
				"x": -0.2091569048,
				"y": -1.2359720757,
				"z": -3.6735258735,
				"element": "H" 
			},
			{
				"x": 2.5378225375,
				"y": -3.2861407026,
				"z": -1.9796096247,
				"element": "H" 
			},
			{
				"x": 0.8031371074,
				"y": -2.9501123172,
				"z": -1.9335313603,
				"element": "H" 
			},
			{
				"x": 1.4828855098,
				"y": -3.8759009543,
				"z": -3.2739125572,
				"element": "H" 
			},
			{
				"x": 0.171509619,
				"y": -1.1254816432,
				"z": -0.4689851764,
				"element": "H" 
			},
			{
				"x": 0.3935681874,
				"y": -2.3519837979,
				"z": 1.7501523609,
				"element": "H" 
			},
			{
				"x": 1.8482305931,
				"y": -4.3953584714,
				"z": 2.0414159624,
				"element": "H" 
			},
			{
				"x": 2.1178026013,
				"y": -3.9209796592,
				"z": 0.3681286992,
				"element": "H" 
			},
			{
				"x": 4.1025985961,
				"y": -3.8657821038,
				"z": 2.5586448957,
				"element": "H" 
			},
			{
				"x": 4.3865006067,
				"y": -3.3276734543,
				"z": 0.9103126905,
				"element": "H" 
			},
			{
				"x": 4.7129515614,
				"y": -0.2345918543,
				"z": 3.3818365539,
				"element": "H" 
			},
			{
				"x": 5.0524393616,
				"y": -1.900327591,
				"z": 3.8896441674,
				"element": "H" 
			},
			{
				"x": 5.7274556676,
				"y": -1.2639744695,
				"z": 2.3762067327,
				"element": "H" 
			},
			{
				"x": 2.4338719322,
				"y": -3.6184661107,
				"z": 4.0350030757,
				"element": "H" 
			},
			{
				"x": 1.0320275175,
				"y": -2.6508620726,
				"z": 4.498826707,
				"element": "H" 
			},
			{
				"x": 2.6481767554,
				"y": -2.1703269775,
				"z": 5.0181663947,
				"element": "H" 
			},
			{
				"x": 0.7198330443,
				"y": -0.3211435705,
				"z": 3.7127814221,
				"element": "H" 
			},
			{
				"x": 1.7380175841,
				"y": 0.4009541583,
				"z": 2.4751993592,
				"element": "H" 
			},
			{
				"x": 2.3812737132,
				"y": 0.1307955052,
				"z": 4.1092177471,
				"element": "H" 
			},
			{
				"x": 0.6258569074,
				"y": 1.1651586686,
				"z": -3.1915900909,
				"element": "H" 
			},
			{
				"x": -1.4029997179,
				"y": 2.4948786508,
				"z": -3.4204638912,
				"element": "H" 
			},
			{
				"x": -2.6953763719,
				"y": 0.1460179192,
				"z": -3.0535977262,
				"element": "H" 
			},
			{
				"x": -3.7281449519,
				"y": 1.5307205158,
				"z": -3.3910845499,
				"element": "H" 
			},
			{
				"x": -4.6428858732,
				"y": 1.3915664481,
				"z": -1.2045837378,
				"element": "H" 
			},
			{
				"x": -3.5954367931,
				"y": 0.0334498834,
				"z": -0.8243171025,
				"element": "H" 
			},
			{
				"x": -3.3943845923,
				"y": 1.5433520414,
				"z": 1.5922004232,
				"element": "H" 
			},
			{
				"x": -2.6127114282,
				"y": 3.1154456533,
				"z": 1.472636883,
				"element": "H" 
			},
			{
				"x": -4.2540469259,
				"y": 2.8977130427,
				"z": 0.8330205992,
				"element": "H" 
			},
			{
				"x": -0.3541947931,
				"y": 3.5845650149,
				"z": -0.5731887362,
				"element": "H" 
			},
			{
				"x": -0.9210287163,
				"y": 4.7462737357,
				"z": -1.7751460367,
				"element": "H" 
			},
			{
				"x": -1.6334011197,
				"y": 4.7340585153,
				"z": -0.1600475359,
				"element": "H" 
			},
			{
				"x": -4.3651434706,
				"y": 3.3499447052,
				"z": -2.2900831529,
				"element": "H" 
			},
			{
				"x": -3.8845070829,
				"y": 4.6091351893,
				"z": -1.1527551706,
				"element": "H" 
			},
			{
				"x": -3.2082288719,
				"y": 4.5884875862,
				"z": -2.7822463603,
				"element": "H" 
			}
		],
		 "valence_orbital": [ 
			{
				"type": "occ",
				"energy": -0.27084,
				"method": "rhf"
			},
			{
				"type": "occ",
				"energy": -0.25707,
				"method": "rhf"
			},
			{
				"type": "occ",
				"energy": -0.23828,
				"method": "rhf"
			},
			{
				"type": "occ",
				"energy": -0.22783,
				"method": "rhf"
			},
			{
				"type": "occ",
				"energy": -0.22608,
				"method": "rhf"
			},
			{
				"type": "unocc",
				"energy": -0.05711,
				"method": "rhf"
			},
			{
				"type": "unocc",
				"energy": -0.04268,
				"method": "rhf"
			},
			{
				"type": "unocc",
				"energy": 0.03125,
				"method": "rhf"
			},
			{
				"type": "unocc",
				"energy": 0.06522,
				"method": "rhf"
			},
			{
				"type": "unocc",
				"energy": 0.07151,
				"method": "rhf"
			}
		],
		"cosmo_sigma_profile": { 
			"-0.025": 0.0,
			"-0.024": 0.0,
			"-0.023": 0.0,
			"-0.022": 0.0,
			"-0.021": 0.0,
			"-0.02": 0.0,
			"-0.019": 0.0,
			"-0.018": 0.0,
			"-0.017": 0.0,
			"-0.016": 0.0,
			"-0.015": 0.0,
			"-0.014": 0.0,
			"-0.013": 0.0,
			"-0.012": 0.0,
			"-0.011": 0.0,
			"-0.01": 0.0,
			"-0.009": 0.0,
			"-0.008": 0.0,
			"-0.007": 0.0,
			"-0.006": 0.790214031443,
			"-0.005": 7.95390099422,
			"-0.004": 27.6332652224,
			"-0.003": 64.9896053557,
			"-0.002": 101.330504205,
			"-0.001": 95.6377224074,
			"0.0": 84.3981695854,
			"0.001": 64.2889035382,
			"0.002": 20.7580612844,
			"0.003": 7.29431746985,
			"0.004": 7.35262733454,
			"0.005": 4.91906971347,
			"0.006": 5.1273872063,
			"0.007": 6.68203951654,
			"0.008": 7.51202567519,
			"0.009": 6.13620950176,
			"0.01": 6.15709280519,
			"0.011": 7.04614042881,
			"0.012": 9.00093865208,
			"0.013": 1.69760223168,
			"0.014": 0.0854829589254,
			"0.015": 0.0,
			"0.016": 0.0,
			"0.017": 0.0,
			"0.018": 0.0,
			"0.019": 0.0,
			"0.02": 0.0,
			"0.021": 0.0,
			"0.022": 0.0,
			"0.023": 0.0,
			"0.024": 0.0,
			"0.025": 0.0
		}
	}
}
