{
	 "smiles": "CCCC(=O)OC1=CNC2=C1C=CC(Cl)=C2", 
	 "Tm": 373.15, 
	 "num_atms": 28, 
	 "gaussian": { 
		 "optdone": 1, 
		 "sigma_profile": "yes", 
		 "theory": "DFT", 
		 "functional": "B3LYP", 
		 "basiset": "6-31G**", 
		 "properties": { 
			 "R2extent": 6358.5247, 
			 "electric_dipole_moment_norm": 4.08943762148, 
			 "electric_quadrupole_moment_norm": 21.401997229, 
			 "total_energy": -1129.91575469, 
			 "HOMO_LUMO_gap": 0.18438, 
			 "cosmo_polarized_energy": -13.97, 
			 "cosmo_cavitation_energy": 34.02, 
			 "cosmo_dispersion_energy": -24.74, 
			 "cosmo_repulsion_energy": 1.97, 
			 "cosmo_total_nonelectrostatic_energy": 11.25, 
			 "SMD_solvation_energy": 6.19 
		},
		"coords": [
			{
				"x": 5.0508995892,
				"y": -0.1502338605,
				"z": -3.142017977,
				"element": "C" 
			},
			{
				"x": 4.5943423639,
				"y": 0.9337821967,
				"z": -2.1600254908,
				"element": "C" 
			},
			{
				"x": 4.1441674917,
				"y": 0.3796117771,
				"z": -0.8040950457,
				"element": "C" 
			},
			{
				"x": 2.8416647484,
				"y": -0.3924309356,
				"z": -0.8730774031,
				"element": "C" 
			},
			{
				"x": 2.0625798239,
				"y": -0.4012455774,
				"z": -1.7949573008,
				"element": "O" 
			},
			{
				"x": 2.6435193631,
				"y": -1.0732948745,
				"z": 0.3007109226,
				"element": "O" 
			},
			{
				"x": 1.4893199927,
				"y": -1.8240010613,
				"z": 0.464849656,
				"element": "C" 
			},
			{
				"x": 1.5159941704,
				"y": -3.1302114966,
				"z": 0.8735928382,
				"element": "C" 
			},
			{
				"x": 0.214890437,
				"y": -3.5607953926,
				"z": 1.0612557651,
				"element": "N" 
			},
			{
				"x": -0.6541677958,
				"y": -2.5305363601,
				"z": 0.7741924632,
				"element": "C" 
			},
			{
				"x": 0.1192559396,
				"y": -1.4000007097,
				"z": 0.3887419482,
				"element": "C" 
			},
			{
				"x": -0.5429021007,
				"y": -0.2085135655,
				"z": 0.0471521935,
				"element": "C" 
			},
			{
				"x": -1.9279191489,
				"y": -0.1614305111,
				"z": 0.1009921393,
				"element": "C" 
			},
			{
				"x": -2.6607574426,
				"y": -1.3009747248,
				"z": 0.4883817235,
				"element": "C" 
			},
			{
				"x": -4.4188418344,
				"y": -1.1968486816,
				"z": 0.539031146,
				"element": "Cl" 
			},
			{
				"x": -2.0524313533,
				"y": -2.499919552,
				"z": 0.8274773323,
				"element": "C" 
			},
			{
				"x": 4.235690876,
				"y": -0.8446606462,
				"z": -3.3639607909,
				"element": "H" 
			},
			{
				"x": 5.3794251706,
				"y": 0.2921517611,
				"z": -4.0877433415,
				"element": "H" 
			},
			{
				"x": 5.8906569236,
				"y": -0.7261556235,
				"z": -2.735409802,
				"element": "H" 
			},
			{
				"x": 5.4120652178,
				"y": 1.6428443539,
				"z": -1.9852714245,
				"element": "H" 
			},
			{
				"x": 3.7682074875,
				"y": 1.5029958166,
				"z": -2.5992690547,
				"element": "H" 
			},
			{
				"x": 3.9895678043,
				"y": 1.1924537785,
				"z": -0.0818702892,
				"element": "H" 
			},
			{
				"x": 4.9070477647,
				"y": -0.2694029852,
				"z": -0.3583238561,
				"element": "H" 
			},
			{
				"x": 2.3613234383,
				"y": -3.7763549004,
				"z": 1.0543044161,
				"element": "H" 
			},
			{
				"x": -0.0519308814,
				"y": -4.4848043979,
				"z": 1.3578004334,
				"element": "H" 
			},
			{
				"x": 0.0182165646,
				"y": 0.6619190171,
				"z": -0.2725925063,
				"element": "H" 
			},
			{
				"x": -2.459326552,
				"y": 0.7462821407,
				"z": -0.1605820316,
				"element": "H" 
			},
			{
				"x": -2.6381580581,
				"y": -3.3645249852,
				"z": 1.1194133368,
				"element": "H" 
			}
		],
		 "valence_orbital": [ 
			{
				"type": "occ",
				"energy": -0.3055,
				"method": "rhf"
			},
			{
				"type": "occ",
				"energy": -0.27779,
				"method": "rhf"
			},
			{
				"type": "occ",
				"energy": -0.27142,
				"method": "rhf"
			},
			{
				"type": "occ",
				"energy": -0.2297,
				"method": "rhf"
			},
			{
				"type": "occ",
				"energy": -0.20657,
				"method": "rhf"
			},
			{
				"type": "unocc",
				"energy": -0.02219,
				"method": "rhf"
			},
			{
				"type": "unocc",
				"energy": 0.00436,
				"method": "rhf"
			},
			{
				"type": "unocc",
				"energy": 0.0169,
				"method": "rhf"
			},
			{
				"type": "unocc",
				"energy": 0.03601,
				"method": "rhf"
			},
			{
				"type": "unocc",
				"energy": 0.06733,
				"method": "rhf"
			}
		],
		"cosmo_sigma_profile": { 
			"-0.025": 0.0,
			"-0.024": 0.0,
			"-0.023": 0.0,
			"-0.022": 0.0,
			"-0.021": 0.0,
			"-0.02": 0.0,
			"-0.019": 0.0,
			"-0.018": 0.0,
			"-0.017": 0.202223632973,
			"-0.016": 1.59975962773,
			"-0.015": 1.32184384728,
			"-0.014": 1.59945572839,
			"-0.013": 1.32850685721,
			"-0.012": 0.742886483907,
			"-0.011": 1.82424826704,
			"-0.01": 1.9151161945,
			"-0.009": 3.15663576756,
			"-0.008": 3.66586844255,
			"-0.007": 4.6114504599,
			"-0.006": 10.4187783374,
			"-0.005": 10.1068744679,
			"-0.004": 14.2077071001,
			"-0.003": 18.9664814186,
			"-0.002": 23.2861118477,
			"-0.001": 21.4564191459,
			"0.0": 21.7356117757,
			"0.001": 20.9445066169,
			"0.002": 18.503176145,
			"0.003": 25.9078285102,
			"0.004": 24.2216391398,
			"0.005": 17.557083957,
			"0.006": 6.30661509722,
			"0.007": 3.26647389785,
			"0.008": 2.96984728122,
			"0.009": 2.03425313614,
			"0.01": 2.35510204295,
			"0.011": 3.52304998434,
			"0.012": 2.85028647731,
			"0.013": 0.0472553266212,
			"0.014": 0.0,
			"0.015": 0.0,
			"0.016": 0.0,
			"0.017": 0.0,
			"0.018": 0.0,
			"0.019": 0.0,
			"0.02": 0.0,
			"0.021": 0.0,
			"0.022": 0.0,
			"0.023": 0.0,
			"0.024": 0.0,
			"0.025": 0.0
		}
	}
}
