{
	 "smiles": "CCOC(=O)C1=CC(C)=NN1", 
	 "Tm": 357.65, 
	 "num_atms": 21, 
	 "gaussian": { 
		 "optdone": 1, 
		 "sigma_profile": "yes", 
		 "theory": "DFT", 
		 "functional": "B3LYP", 
		 "basiset": "6-31G**", 
		 "properties": { 
			 "R2extent": 2465.8563, 
			 "electric_dipole_moment_norm": 1.83954205986, 
			 "electric_quadrupole_moment_norm": 12.0076963103, 
			 "total_energy": -532.724900423, 
			 "HOMO_LUMO_gap": 0.21032, 
			 "cosmo_polarized_energy": -10.12, 
			 "cosmo_cavitation_energy": 25.5, 
			 "cosmo_dispersion_energy": -18.67, 
			 "cosmo_repulsion_energy": 1.54, 
			 "cosmo_total_nonelectrostatic_energy": 8.37, 
			 "SMD_solvation_energy": 4.76 
		},
		"coords": [
			{
				"x": -1.2666885717,
				"y": -3.2448341229,
				"z": 1.2893943732,
				"element": "C" 
			},
			{
				"x": -0.8927861356,
				"y": -1.9601157274,
				"z": 2.012889856,
				"element": "C" 
			},
			{
				"x": -0.3499939937,
				"y": -0.9779615337,
				"z": 1.0962487876,
				"element": "O" 
			},
			{
				"x": -1.2517412938,
				"y": -0.1948777398,
				"z": 0.4471026282,
				"element": "C" 
			},
			{
				"x": -2.4550408831,
				"y": -0.2635907929,
				"z": 0.5932369842,
				"element": "O" 
			},
			{
				"x": -0.5729430363,
				"y": 0.7467404776,
				"z": -0.4499594455,
				"element": "C" 
			},
			{
				"x": -1.0898559495,
				"y": 1.7182781608,
				"z": -1.2948558977,
				"element": "C" 
			},
			{
				"x": 0.0349532198,
				"y": 2.3113800653,
				"z": -1.9064790956,
				"element": "C" 
			},
			{
				"x": 0.0716421092,
				"y": 3.4222087285,
				"z": -2.9138308994,
				"element": "C" 
			},
			{
				"x": 1.1726043739,
				"y": 1.7447163183,
				"z": -1.4707093178,
				"element": "N" 
			},
			{
				"x": 0.7805847111,
				"y": 0.8088376077,
				"z": -0.5963743438,
				"element": "N" 
			},
			{
				"x": -0.4076999111,
				"y": -3.6542646784,
				"z": 0.7496282413,
				"element": "H" 
			},
			{
				"x": -2.0777664596,
				"y": -3.0633760008,
				"z": 0.5801045756,
				"element": "H" 
			},
			{
				"x": -1.6053782468,
				"y": -3.9927057691,
				"z": 2.0140842658,
				"element": "H" 
			},
			{
				"x": -0.0930611956,
				"y": -2.1246245609,
				"z": 2.7389323954,
				"element": "H" 
			},
			{
				"x": -1.7582163623,
				"y": -1.524975626,
				"z": 2.5177890641,
				"element": "H" 
			},
			{
				"x": -2.1341875086,
				"y": 1.9515982877,
				"z": -1.4360816198,
				"element": "H" 
			},
			{
				"x": -0.9399498456,
				"y": 3.7602008551,
				"z": -3.1513334468,
				"element": "H" 
			},
			{
				"x": 0.6383796605,
				"y": 4.2793921101,
				"z": -2.536354202,
				"element": "H" 
			},
			{
				"x": 0.5502256756,
				"y": 3.0971891515,
				"z": -3.8432242827,
				"element": "H" 
			},
			{
				"x": 1.4602196431,
				"y": 0.2342847893,
				"z": -0.1215086201,
				"element": "H" 
			}
		],
		 "valence_orbital": [ 
			{
				"type": "occ",
				"energy": -0.30566,
				"method": "rhf"
			},
			{
				"type": "occ",
				"energy": -0.29907,
				"method": "rhf"
			},
			{
				"type": "occ",
				"energy": -0.2759,
				"method": "rhf"
			},
			{
				"type": "occ",
				"energy": -0.256,
				"method": "rhf"
			},
			{
				"type": "occ",
				"energy": -0.24963,
				"method": "rhf"
			},
			{
				"type": "unocc",
				"energy": -0.03931,
				"method": "rhf"
			},
			{
				"type": "unocc",
				"energy": 0.04576,
				"method": "rhf"
			},
			{
				"type": "unocc",
				"energy": 0.08608,
				"method": "rhf"
			},
			{
				"type": "unocc",
				"energy": 0.10371,
				"method": "rhf"
			},
			{
				"type": "unocc",
				"energy": 0.11378,
				"method": "rhf"
			}
		],
		"cosmo_sigma_profile": { 
			"-0.025": 0.0,
			"-0.024": 0.0,
			"-0.023": 0.0,
			"-0.022": 0.0,
			"-0.021": 0.0,
			"-0.02": 0.0,
			"-0.019": 0.0,
			"-0.018": 0.0,
			"-0.017": 0.0964768952583,
			"-0.016": 0.708789128136,
			"-0.015": 1.11601594991,
			"-0.014": 0.623478611046,
			"-0.013": 0.625977340395,
			"-0.012": 0.708097048066,
			"-0.011": 0.888516620567,
			"-0.01": 0.784548898392,
			"-0.009": 0.614015786327,
			"-0.008": 1.014964063,
			"-0.007": 1.99020878538,
			"-0.006": 4.3562965155,
			"-0.005": 11.3279440813,
			"-0.004": 18.8335300224,
			"-0.003": 21.225742798,
			"-0.002": 21.1388169621,
			"-0.001": 21.5109179739,
			"0.0": 20.2319649696,
			"0.001": 12.7595903771,
			"0.002": 10.4049986479,
			"0.003": 12.5317775337,
			"0.004": 7.37537752548,
			"0.005": 3.99081584226,
			"0.006": 3.12228892986,
			"0.007": 3.31282646504,
			"0.008": 2.62875044208,
			"0.009": 2.55880148827,
			"0.01": 3.63784865264,
			"0.011": 4.11314802889,
			"0.012": 4.07320328042,
			"0.013": 1.25871604012,
			"0.014": 1.19023983095,
			"0.015": 0.767200271213,
			"0.016": 0.249166407743,
			"0.017": 0.0,
			"0.018": 0.0,
			"0.019": 0.0,
			"0.02": 0.0,
			"0.021": 0.0,
			"0.022": 0.0,
			"0.023": 0.0,
			"0.024": 0.0,
			"0.025": 0.0
		}
	}
}
