{
	 "smiles": "CCCC(NCCC(=O)NC1=NOC(C)=C1)C(O)=O", 
	 "Tm": 501.15, 
	 "num_atms": 38, 
	 "gaussian": { 
		 "optdone": 1, 
		 "sigma_profile": "yes", 
		 "theory": "DFT", 
		 "functional": "B3LYP", 
		 "basiset": "6-31G**", 
		 "properties": { 
			 "R2extent": 8019.2647, 
			 "electric_dipole_moment_norm": 6.17255144977, 
			 "electric_quadrupole_moment_norm": 20.9828004468, 
			 "total_energy": -933.861015591, 
			 "HOMO_LUMO_gap": 0.2138, 
			 "cosmo_polarized_energy": -24.87, 
			 "cosmo_cavitation_energy": 40.54, 
			 "cosmo_dispersion_energy": -27.99, 
			 "cosmo_repulsion_energy": 2.19, 
			 "cosmo_total_nonelectrostatic_energy": 14.75, 
			 "SMD_solvation_energy": 7.57 
		},
		"coords": [
			{
				"x": -2.8143992448,
				"y": 3.8288203152,
				"z": -0.4490864138,
				"element": "C" 
			},
			{
				"x": -1.4858550665,
				"y": 4.3011533704,
				"z": 0.1544565205,
				"element": "C" 
			},
			{
				"x": -0.242001641,
				"y": 3.484069475,
				"z": -0.2426012635,
				"element": "C" 
			},
			{
				"x": -0.1680335121,
				"y": 2.0165942013,
				"z": 0.2362321181,
				"element": "C" 
			},
			{
				"x": -0.3815069313,
				"y": 1.8432307937,
				"z": 1.6787627505,
				"element": "N" 
			},
			{
				"x": 0.6464708956,
				"y": 1.0990601171,
				"z": 2.4149524947,
				"element": "C" 
			},
			{
				"x": 0.5951915251,
				"y": -0.411790881,
				"z": 2.1567019633,
				"element": "C" 
			},
			{
				"x": -0.6010735266,
				"y": -1.0759663997,
				"z": 2.8275607804,
				"element": "C" 
			},
			{
				"x": -1.4053260872,
				"y": -0.4474173264,
				"z": 3.5009452203,
				"element": "O" 
			},
			{
				"x": -0.769820312,
				"y": -2.4397632722,
				"z": 2.6791948101,
				"element": "N" 
			},
			{
				"x": -0.0416190491,
				"y": -3.4282914748,
				"z": 2.0250305532,
				"element": "C" 
			},
			{
				"x": -0.4658059284,
				"y": -4.6692630222,
				"z": 2.1843060898,
				"element": "N" 
			},
			{
				"x": 0.4096921314,
				"y": -5.4552439481,
				"z": 1.4299410523,
				"element": "O" 
			},
			{
				"x": 1.331663696,
				"y": -4.6685286102,
				"z": 0.8446551252,
				"element": "C" 
			},
			{
				"x": 2.3508397456,
				"y": -5.339345397,
				"z": -0.0089832608,
				"element": "C" 
			},
			{
				"x": 1.1088763496,
				"y": -3.3651353673,
				"z": 1.1798058026,
				"element": "C" 
			},
			{
				"x": -1.1490793325,
				"y": 1.1126424717,
				"z": -0.547882435,
				"element": "C" 
			},
			{
				"x": -2.0290917788,
				"y": 0.466067997,
				"z": 0.2321911445,
				"element": "O" 
			},
			{
				"x": -1.1065943026,
				"y": 0.9917576747,
				"z": -1.7509923272,
				"element": "O" 
			},
			{
				"x": -3.6157015741,
				"y": 4.53471675,
				"z": -0.2081342018,
				"element": "H" 
			},
			{
				"x": -3.1159633317,
				"y": 2.8492613525,
				"z": -0.0688830954,
				"element": "H" 
			},
			{
				"x": -2.7481710926,
				"y": 3.7523816296,
				"z": -1.5391153962,
				"element": "H" 
			},
			{
				"x": -1.2981726993,
				"y": 5.3355125164,
				"z": -0.1595808269,
				"element": "H" 
			},
			{
				"x": -1.5793616099,
				"y": 4.3506044802,
				"z": 1.2491055923,
				"element": "H" 
			},
			{
				"x": -0.1560913903,
				"y": 3.45996788,
				"z": -1.3342006536,
				"element": "H" 
			},
			{
				"x": 0.6507588528,
				"y": 3.9989677424,
				"z": 0.134887182,
				"element": "H" 
			},
			{
				"x": 0.8321346145,
				"y": 1.6539488356,
				"z": -0.0420794547,
				"element": "H" 
			},
			{
				"x": -0.5636667876,
				"y": 2.7293421528,
				"z": 2.1349698137,
				"element": "H" 
			},
			{
				"x": 1.6600388156,
				"y": 1.4557131338,
				"z": 2.1679186804,
				"element": "H" 
			},
			{
				"x": 0.4782534733,
				"y": 1.2738965358,
				"z": 3.4801612214,
				"element": "H" 
			},
			{
				"x": 0.5689299594,
				"y": -0.6218897029,
				"z": 1.081806274,
				"element": "H" 
			},
			{
				"x": 1.5143723462,
				"y": -0.8736854866,
				"z": 2.5377424856,
				"element": "H" 
			},
			{
				"x": -1.5860367382,
				"y": -2.7872228719,
				"z": 3.1716036978,
				"element": "H" 
			},
			{
				"x": 3.0410304675,
				"y": -4.6023735288,
				"z": -0.4237222973,
				"element": "H" 
			},
			{
				"x": 1.8723977842,
				"y": -5.8740491789,
				"z": -0.8359141704,
				"element": "H" 
			},
			{
				"x": 2.9242164697,
				"y": -6.0700773805,
				"z": 0.5707069097,
				"element": "H" 
			},
			{
				"x": 1.6773951722,
				"y": -2.5114757869,
				"z": 0.8557890101,
				"element": "H" 
			},
			{
				"x": -1.8243903618,
				"y": 0.7807102104,
				"z": 1.1505485039,
				"element": "H" 
			}
		],
		 "valence_orbital": [ 
			{
				"type": "occ",
				"energy": -0.2829,
				"method": "rhf"
			},
			{
				"type": "occ",
				"energy": -0.27087,
				"method": "rhf"
			},
			{
				"type": "occ",
				"energy": -0.26951,
				"method": "rhf"
			},
			{
				"type": "occ",
				"energy": -0.24719,
				"method": "rhf"
			},
			{
				"type": "occ",
				"energy": -0.23919,
				"method": "rhf"
			},
			{
				"type": "unocc",
				"energy": -0.02539,
				"method": "rhf"
			},
			{
				"type": "unocc",
				"energy": 0.00687,
				"method": "rhf"
			},
			{
				"type": "unocc",
				"energy": 0.01945,
				"method": "rhf"
			},
			{
				"type": "unocc",
				"energy": 0.05653,
				"method": "rhf"
			},
			{
				"type": "unocc",
				"energy": 0.06899,
				"method": "rhf"
			}
		],
		"cosmo_sigma_profile": { 
			"-0.025": 0.0,
			"-0.024": 0.0,
			"-0.023": 0.0,
			"-0.022": 0.0,
			"-0.021": 0.0,
			"-0.02": 0.0,
			"-0.019": 0.0,
			"-0.018": 0.0,
			"-0.017": 0.0,
			"-0.016": 0.0,
			"-0.015": 0.112289488162,
			"-0.014": 1.14935053333,
			"-0.013": 0.461337848236,
			"-0.012": 1.09594301771,
			"-0.011": 1.74487370359,
			"-0.01": 1.65928256214,
			"-0.009": 4.04668499973,
			"-0.008": 6.69704907995,
			"-0.007": 11.7057212424,
			"-0.006": 19.6895403535,
			"-0.005": 19.540777962,
			"-0.004": 26.4362124919,
			"-0.003": 27.9347017841,
			"-0.002": 31.2677138743,
			"-0.001": 27.6602839664,
			"0.0": 25.1583738504,
			"0.001": 20.6066329692,
			"0.002": 10.5601493338,
			"0.003": 7.09697095324,
			"0.004": 5.20687703083,
			"0.005": 5.89093785805,
			"0.006": 5.15460708654,
			"0.007": 6.55888509977,
			"0.008": 8.0239968481,
			"0.009": 6.23188520078,
			"0.01": 7.27802733113,
			"0.011": 8.04847263698,
			"0.012": 9.78618533451,
			"0.013": 8.82922969906,
			"0.014": 2.18007048873,
			"0.015": 0.0756229903824,
			"0.016": 0.0,
			"0.017": 0.0,
			"0.018": 0.0,
			"0.019": 0.0,
			"0.02": 0.0,
			"0.021": 0.0,
			"0.022": 0.0,
			"0.023": 0.0,
			"0.024": 0.0,
			"0.025": 0.0
		}
	}
}
