{
	 "smiles": "CSC1=CC=C(O)C=C1", 
	 "Tm": 359.15, 
	 "num_atms": 17, 
	 "gaussian": { 
		 "optdone": 1, 
		 "sigma_profile": "yes", 
		 "theory": "DFT", 
		 "functional": "B3LYP", 
		 "basiset": "6-31G**", 
		 "properties": { 
			 "R2extent": 2258.1948, 
			 "electric_dipole_moment_norm": 2.3681561984, 
			 "electric_quadrupole_moment_norm": 13.3964909514, 
			 "total_energy": -744.972142893, 
			 "HOMO_LUMO_gap": 0.21359, 
			 "cosmo_polarized_energy": -9.65, 
			 "cosmo_cavitation_energy": 22.54, 
			 "cosmo_dispersion_energy": -16.97, 
			 "cosmo_repulsion_energy": 1.35, 
			 "cosmo_total_nonelectrostatic_energy": 6.92, 
			 "SMD_solvation_energy": 4.34 
		},
		"coords": [
			{
				"x": 1.9393977275,
				"y": 0.2176274257,
				"z": 1.4567708582,
				"element": "C" 
			},
			{
				"x": 2.6270804893,
				"y": 0.0176640972,
				"z": -0.2331389175,
				"element": "S" 
			},
			{
				"x": 1.135096457,
				"y": -0.3104486673,
				"z": -1.1726763993,
				"element": "C" 
			},
			{
				"x": 0.7222191662,
				"y": -1.626409735,
				"z": -1.4147927483,
				"element": "C" 
			},
			{
				"x": -0.4208993437,
				"y": -1.8875220129,
				"z": -2.1694081895,
				"element": "C" 
			},
			{
				"x": -1.1666891507,
				"y": -0.8268743421,
				"z": -2.695744198,
				"element": "C" 
			},
			{
				"x": -2.293261038,
				"y": -1.0160977965,
				"z": -3.4417474769,
				"element": "O" 
			},
			{
				"x": -0.7605585471,
				"y": 0.4935105966,
				"z": -2.4666597221,
				"element": "C" 
			},
			{
				"x": 0.3829051232,
				"y": 0.7434080732,
				"z": -1.7150057838,
				"element": "C" 
			},
			{
				"x": 2.7858015128,
				"y": 0.4296971393,
				"z": 2.1147943069,
				"element": "H" 
			},
			{
				"x": 1.2368142556,
				"y": 1.0528519434,
				"z": 1.497213344,
				"element": "H" 
			},
			{
				"x": 1.4468975331,
				"y": -0.6985019399,
				"z": 1.7899725494,
				"element": "H" 
			},
			{
				"x": 1.3025356364,
				"y": -2.4510670746,
				"z": -1.0128938517,
				"element": "H" 
			},
			{
				"x": -0.7307564162,
				"y": -2.9146833818,
				"z": -2.3516127422,
				"element": "H" 
			},
			{
				"x": -2.4598122319,
				"y": -1.9633814375,
				"z": -3.532185212,
				"element": "H" 
			},
			{
				"x": -1.3465190163,
				"y": 1.3031656931,
				"z": -2.8890116925,
				"element": "H" 
			},
			{
				"x": 0.7037478428,
				"y": 1.766961419,
				"z": -1.5475741246,
				"element": "H" 
			}
		],
		 "valence_orbital": [ 
			{
				"type": "occ",
				"energy": -0.33827,
				"method": "rhf"
			},
			{
				"type": "occ",
				"energy": -0.30936,
				"method": "rhf"
			},
			{
				"type": "occ",
				"energy": -0.25794,
				"method": "rhf"
			},
			{
				"type": "occ",
				"energy": -0.22593,
				"method": "rhf"
			},
			{
				"type": "occ",
				"energy": -0.22127,
				"method": "rhf"
			},
			{
				"type": "unocc",
				"energy": -0.00768,
				"method": "rhf"
			},
			{
				"type": "unocc",
				"energy": -0.00565,
				"method": "rhf"
			},
			{
				"type": "unocc",
				"energy": 0.05486,
				"method": "rhf"
			},
			{
				"type": "unocc",
				"energy": 0.06732,
				"method": "rhf"
			},
			{
				"type": "unocc",
				"energy": 0.0777,
				"method": "rhf"
			}
		],
		"cosmo_sigma_profile": { 
			"-0.025": 0.0,
			"-0.024": 0.0,
			"-0.023": 0.0,
			"-0.022": 0.0,
			"-0.021": 0.0,
			"-0.02": 0.0,
			"-0.019": 0.0,
			"-0.018": 0.536384067101,
			"-0.017": 0.972327513821,
			"-0.016": 1.33097006818,
			"-0.015": 1.09570574849,
			"-0.014": 1.31367364269,
			"-0.013": 1.10523838161,
			"-0.012": 0.407197635115,
			"-0.011": 0.936883245629,
			"-0.01": 1.04803501787,
			"-0.009": 1.32740571876,
			"-0.008": 1.14625684269,
			"-0.007": 1.79626929467,
			"-0.006": 7.99121119576,
			"-0.005": 11.4504751597,
			"-0.004": 12.5925997683,
			"-0.003": 11.9181691992,
			"-0.002": 12.8437009063,
			"-0.001": 15.0146714974,
			"0.0": 9.46830806919,
			"0.001": 9.90344667604,
			"0.002": 13.0835093342,
			"0.003": 13.4473368945,
			"0.004": 15.3075064607,
			"0.005": 12.8665304071,
			"0.006": 4.20989966095,
			"0.007": 4.54008020692,
			"0.008": 3.85254724707,
			"0.009": 3.28714454477,
			"0.01": 3.48977888913,
			"0.011": 2.59645060706,
			"0.012": 0.222355459108,
			"0.013": 0.0,
			"0.014": 0.0,
			"0.015": 0.0,
			"0.016": 0.0,
			"0.017": 0.0,
			"0.018": 0.0,
			"0.019": 0.0,
			"0.02": 0.0,
			"0.021": 0.0,
			"0.022": 0.0,
			"0.023": 0.0,
			"0.024": 0.0,
			"0.025": 0.0
		}
	}
}
