{
	 "smiles": "[O-][N+](=O)C1=CC=C(C=C1)C1=CC=C(O1)C=O", 
	 "Tm": 479.15, 
	 "num_atms": 23, 
	 "gaussian": { 
		 "optdone": 1, 
		 "sigma_profile": "yes", 
		 "theory": "DFT", 
		 "functional": "B3LYP", 
		 "basiset": "6-31G**", 
		 "properties": { 
			 "R2extent": 5141.9379, 
			 "electric_dipole_moment_norm": 5.88044335488, 
			 "electric_quadrupole_moment_norm": 25.0767168904, 
			 "total_energy": -778.908529835, 
			 "HOMO_LUMO_gap": 0.13766, 
			 "cosmo_polarized_energy": -15.58, 
			 "cosmo_cavitation_energy": 29.91, 
			 "cosmo_dispersion_energy": -21.55, 
			 "cosmo_repulsion_energy": 1.65, 
			 "cosmo_total_nonelectrostatic_energy": 10.01, 
			 "SMD_solvation_energy": 8.95 
		},
		"coords": [
			{
				"x": 2.4009501501,
				"y": -3.6429797665,
				"z": 0.7037023244,
				"element": "O" 
			},
			{
				"x": 1.1712405208,
				"y": -3.5999310799,
				"z": 0.7272445888,
				"element": "N" 
			},
			{
				"x": 0.4415158771,
				"y": -4.5345680765,
				"z": 1.0588646703,
				"element": "O" 
			},
			{
				"x": 0.5261416234,
				"y": -2.3406009891,
				"z": 0.3315623351,
				"element": "C" 
			},
			{
				"x": -0.8664604146,
				"y": -2.2602195678,
				"z": 0.3478846997,
				"element": "C" 
			},
			{
				"x": -1.4723885893,
				"y": -1.0692386956,
				"z": -0.0264058737,
				"element": "C" 
			},
			{
				"x": -0.6969768321,
				"y": 0.0403206127,
				"z": -0.4163166037,
				"element": "C" 
			},
			{
				"x": 0.7070570076,
				"y": -0.0719352823,
				"z": -0.4224643007,
				"element": "C" 
			},
			{
				"x": 1.3212394728,
				"y": -1.2606439401,
				"z": -0.0492138247,
				"element": "C" 
			},
			{
				"x": -1.3389486163,
				"y": 1.2865640046,
				"z": -0.8076985714,
				"element": "C" 
			},
			{
				"x": -2.6591729652,
				"y": 1.6818380342,
				"z": -0.8982348435,
				"element": "C" 
			},
			{
				"x": -2.6461529735,
				"y": 3.0264575968,
				"z": -1.3416830143,
				"element": "C" 
			},
			{
				"x": -1.3237682458,
				"y": 3.3764855303,
				"z": -1.4969264178,
				"element": "C" 
			},
			{
				"x": -0.5278172665,
				"y": 2.315758578,
				"z": -1.1713192301,
				"element": "O" 
			},
			{
				"x": -0.7024904104,
				"y": 4.621954059,
				"z": -1.9260582577,
				"element": "C" 
			},
			{
				"x": 0.4970586412,
				"y": 4.8056337909,
				"z": -2.0225469343,
				"element": "O" 
			},
			{
				"x": -1.445342382,
				"y": -3.1235463925,
				"z": 0.6505703567,
				"element": "H" 
			},
			{
				"x": -2.5549578796,
				"y": -0.9996952447,
				"z": -0.0160032042,
				"element": "H" 
			},
			{
				"x": 1.3084490517,
				"y": 0.7786508667,
				"z": -0.7215758939,
				"element": "H" 
			},
			{
				"x": 2.3987783951,
				"y": -1.3665009909,
				"z": -0.0474350681,
				"element": "H" 
			},
			{
				"x": -3.5277566211,
				"y": 1.0806402311,
				"z": -0.6740312876,
				"element": "H" 
			},
			{
				"x": -3.498575818,
				"y": 3.6651027492,
				"z": -1.5264574182,
				"element": "H" 
			},
			{
				"x": -1.4428217253,
				"y": 5.4151539725,
				"z": -2.165058231,
				"element": "H" 
			}
		],
		 "valence_orbital": [ 
			{
				"type": "occ",
				"energy": -0.31074,
				"method": "rhf"
			},
			{
				"type": "occ",
				"energy": -0.29429,
				"method": "rhf"
			},
			{
				"type": "occ",
				"energy": -0.28776,
				"method": "rhf"
			},
			{
				"type": "occ",
				"energy": -0.2674,
				"method": "rhf"
			},
			{
				"type": "occ",
				"energy": -0.24393,
				"method": "rhf"
			},
			{
				"type": "unocc",
				"energy": -0.10627,
				"method": "rhf"
			},
			{
				"type": "unocc",
				"energy": -0.06871,
				"method": "rhf"
			},
			{
				"type": "unocc",
				"energy": -0.03617,
				"method": "rhf"
			},
			{
				"type": "unocc",
				"energy": -0.02058,
				"method": "rhf"
			},
			{
				"type": "unocc",
				"energy": 0.04982,
				"method": "rhf"
			}
		],
		"cosmo_sigma_profile": { 
			"-0.025": 0.0,
			"-0.024": 0.0,
			"-0.023": 0.0,
			"-0.022": 0.0,
			"-0.021": 0.0,
			"-0.02": 0.0,
			"-0.019": 0.0,
			"-0.018": 0.0,
			"-0.017": 0.0,
			"-0.016": 0.0,
			"-0.015": 0.0,
			"-0.014": 0.0,
			"-0.013": 0.0,
			"-0.012": 0.0,
			"-0.011": 0.0877407603735,
			"-0.01": 1.58704315253,
			"-0.009": 6.27681400664,
			"-0.008": 8.17171549426,
			"-0.007": 13.4470950449,
			"-0.006": 12.7176638125,
			"-0.005": 12.3297332547,
			"-0.004": 11.6223472699,
			"-0.003": 12.7811732575,
			"-0.002": 18.2302712073,
			"-0.001": 25.484746211,
			"0.0": 25.0500282486,
			"0.001": 21.936823842,
			"0.002": 9.62843056252,
			"0.003": 5.36398669415,
			"0.004": 4.6736731364,
			"0.005": 4.90786095229,
			"0.006": 5.08061114104,
			"0.007": 10.5571685441,
			"0.008": 9.49372231483,
			"0.009": 6.56121375761,
			"0.01": 5.99901722756,
			"0.011": 4.48088220485,
			"0.012": 4.24663997064,
			"0.013": 1.23275464796,
			"0.014": 0.0,
			"0.015": 0.0,
			"0.016": 0.0,
			"0.017": 0.0,
			"0.018": 0.0,
			"0.019": 0.0,
			"0.02": 0.0,
			"0.021": 0.0,
			"0.022": 0.0,
			"0.023": 0.0,
			"0.024": 0.0,
			"0.025": 0.0
		}
	}
}
