{
	 "smiles": "CC1=CC=CC2=NC(CCl)=CC(=O)N12", 
	 "Tm": 394.15, 
	 "num_atms": 23, 
	 "gaussian": { 
		 "optdone": 1, 
		 "sigma_profile": "yes", 
		 "theory": "DFT", 
		 "functional": "B3LYP", 
		 "basiset": "6-31G**", 
		 "properties": { 
			 "R2extent": 3517.6575, 
			 "electric_dipole_moment_norm": 4.04525254712, 
			 "electric_quadrupole_moment_norm": 15.4556820205, 
			 "total_energy": -1031.41495456, 
			 "HOMO_LUMO_gap": 0.15047, 
			 "cosmo_polarized_energy": -12.29, 
			 "cosmo_cavitation_energy": 28.57, 
			 "cosmo_dispersion_energy": -21.27, 
			 "cosmo_repulsion_energy": 1.66, 
			 "cosmo_total_nonelectrostatic_energy": 8.96, 
			 "SMD_solvation_energy": 3.79 
		},
		"coords": [
			{
				"x": 2.9984529959,
				"y": -0.4675461718,
				"z": 1.0474984355,
				"element": "C" 
			},
			{
				"x": 1.5599268182,
				"y": -0.6934815671,
				"z": 1.4421683614,
				"element": "C" 
			},
			{
				"x": 1.2849627839,
				"y": -1.1126996222,
				"z": 2.7193497563,
				"element": "C" 
			},
			{
				"x": -0.0400499061,
				"y": -1.3152081605,
				"z": 3.1729218587,
				"element": "C" 
			},
			{
				"x": -1.0768775618,
				"y": -1.0695276769,
				"z": 2.324197952,
				"element": "C" 
			},
			{
				"x": -0.8425239404,
				"y": -0.6254519378,
				"z": 0.9900016229,
				"element": "C" 
			},
			{
				"x": -1.8995255759,
				"y": -0.3898183295,
				"z": 0.2261907722,
				"element": "N" 
			},
			{
				"x": -1.6961738927,
				"y": 0.0353281947,
				"z": -1.0376623007,
				"element": "C" 
			},
			{
				"x": -2.9386032558,
				"y": 0.3165577789,
				"z": -1.8377124114,
				"element": "C" 
			},
			{
				"x": -3.5883379044,
				"y": 1.9854344144,
				"z": -1.4885532025,
				"element": "Cl" 
			},
			{
				"x": -0.4478928813,
				"y": 0.1942482987,
				"z": -1.585123866,
				"element": "C" 
			},
			{
				"x": 0.7423999188,
				"y": -0.0793845526,
				"z": -0.8420809776,
				"element": "C" 
			},
			{
				"x": 1.8811413735,
				"y": -0.0149559624,
				"z": -1.2815772231,
				"element": "O" 
			},
			{
				"x": 0.4927140808,
				"y": -0.4665662981,
				"z": 0.5582472503,
				"element": "N" 
			},
			{
				"x": 3.1704971819,
				"y": 0.5484432341,
				"z": 0.6894856356,
				"element": "H" 
			},
			{
				"x": 3.6172307283,
				"y": -0.6441425924,
				"z": 1.9309556622,
				"element": "H" 
			},
			{
				"x": 3.3167303218,
				"y": -1.1331476486,
				"z": 0.2448099958,
				"element": "H" 
			},
			{
				"x": 2.1194378656,
				"y": -1.2810290913,
				"z": 3.3895020744,
				"element": "H" 
			},
			{
				"x": -0.2203455032,
				"y": -1.6516763357,
				"z": 4.1890826794,
				"element": "H" 
			},
			{
				"x": -2.1164943601,
				"y": -1.185721756,
				"z": 2.6034395441,
				"element": "H" 
			},
			{
				"x": -2.7501243846,
				"y": 0.2801234192,
				"z": -2.9100780787,
				"element": "H" 
			},
			{
				"x": -3.7306961139,
				"y": -0.3787984731,
				"z": -1.5623808507,
				"element": "H" 
			},
			{
				"x": -0.2992487885,
				"y": 0.5182208359,
				"z": -2.6078826901,
				"element": "H" 
			}
		],
		 "valence_orbital": [ 
			{
				"type": "occ",
				"energy": -0.29337,
				"method": "rhf"
			},
			{
				"type": "occ",
				"energy": -0.27947,
				"method": "rhf"
			},
			{
				"type": "occ",
				"energy": -0.27625,
				"method": "rhf"
			},
			{
				"type": "occ",
				"energy": -0.26275,
				"method": "rhf"
			},
			{
				"type": "occ",
				"energy": -0.21642,
				"method": "rhf"
			},
			{
				"type": "unocc",
				"energy": -0.06595,
				"method": "rhf"
			},
			{
				"type": "unocc",
				"energy": -0.05465,
				"method": "rhf"
			},
			{
				"type": "unocc",
				"energy": 0.00248,
				"method": "rhf"
			},
			{
				"type": "unocc",
				"energy": 0.03773,
				"method": "rhf"
			},
			{
				"type": "unocc",
				"energy": 0.07754,
				"method": "rhf"
			}
		],
		"cosmo_sigma_profile": { 
			"-0.025": 0.0,
			"-0.024": 0.0,
			"-0.023": 0.0,
			"-0.022": 0.0,
			"-0.021": 0.0,
			"-0.02": 0.0,
			"-0.019": 0.0,
			"-0.018": 0.0,
			"-0.017": 0.0,
			"-0.016": 0.0,
			"-0.015": 0.0,
			"-0.014": 0.0,
			"-0.013": 0.0,
			"-0.012": 0.0,
			"-0.011": 0.0,
			"-0.01": 0.0,
			"-0.009": 0.484957660413,
			"-0.008": 8.42816868769,
			"-0.007": 12.5600500234,
			"-0.006": 11.852021654,
			"-0.005": 12.711953204,
			"-0.004": 17.8783704485,
			"-0.003": 18.1997451542,
			"-0.002": 16.5245637233,
			"-0.001": 19.0637887467,
			"0.0": 18.4474033911,
			"0.001": 17.8144720623,
			"0.002": 13.8674512481,
			"0.003": 9.13048791189,
			"0.004": 7.28593513627,
			"0.005": 8.43832862321,
			"0.006": 13.7938159164,
			"0.007": 6.2030021032,
			"0.008": 2.6583997853,
			"0.009": 2.03572642355,
			"0.01": 2.82141149569,
			"0.011": 2.62792416881,
			"0.012": 2.92057883507,
			"0.013": 3.63233468661,
			"0.014": 1.57733762282,
			"0.015": 0.00425338963733,
			"0.016": 0.0,
			"0.017": 0.0,
			"0.018": 0.0,
			"0.019": 0.0,
			"0.02": 0.0,
			"0.021": 0.0,
			"0.022": 0.0,
			"0.023": 0.0,
			"0.024": 0.0,
			"0.025": 0.0
		}
	}
}
