{
	 "smiles": "FC1=C(C=CC=C1)N1CCC(Br)C1=O", 
	 "Tm": 350.15, 
	 "num_atms": 23, 
	 "gaussian": { 
		 "optdone": 1, 
		 "sigma_profile": "yes", 
		 "theory": "DFT", 
		 "functional": "B3LYP", 
		 "basiset": "6-31G**", 
		 "properties": { 
			 "R2extent": 4906.66, 
			 "electric_dipole_moment_norm": 5.29493086735, 
			 "electric_quadrupole_moment_norm": 13.6035948264, 
			 "total_energy": -3187.71077737, 
			 "HOMO_LUMO_gap": 0.21628, 
			 "cosmo_polarized_energy": -14.97, 
			 "cosmo_cavitation_energy": 29.45, 
			 "cosmo_dispersion_energy": -21.32, 
			 "cosmo_repulsion_energy": 1.68, 
			 "cosmo_total_nonelectrostatic_energy": 9.81, 
			 "SMD_solvation_energy": 4.48 
		},
		"coords": [
			{
				"x": -1.2282059042,
				"y": 1.8103434252,
				"z": -1.542979884,
				"element": "F" 
			},
			{
				"x": -1.0591113102,
				"y": 0.4935335347,
				"z": -1.7577663849,
				"element": "C" 
			},
			{
				"x": -0.392165778,
				"y": -0.2688545092,
				"z": -0.7919992899,
				"element": "C" 
			},
			{
				"x": -0.2524590999,
				"y": -1.6427313523,
				"z": -1.012495119,
				"element": "C" 
			},
			{
				"x": -0.7675498405,
				"y": -2.2334757167,
				"z": -2.1661045152,
				"element": "C" 
			},
			{
				"x": -1.4159558743,
				"y": -1.4478474197,
				"z": -3.12168351,
				"element": "C" 
			},
			{
				"x": -1.5617451276,
				"y": -0.0746662013,
				"z": -2.9211610302,
				"element": "C" 
			},
			{
				"x": 0.1108147473,
				"y": 0.3422837306,
				"z": 0.3868081724,
				"element": "N" 
			},
			{
				"x": -0.5047845808,
				"y": 0.1351955073,
				"z": 1.7023102073,
				"element": "C" 
			},
			{
				"x": 0.4836770996,
				"y": 0.8305110374,
				"z": 2.659569591,
				"element": "C" 
			},
			{
				"x": 1.0880094907,
				"y": 1.9319803678,
				"z": 1.7898638449,
				"element": "C" 
			},
			{
				"x": 2.9087421754,
				"y": 2.4448864043,
				"z": 2.3077422829,
				"element": "Br" 
			},
			{
				"x": 1.0214254036,
				"y": 1.384676025,
				"z": 0.3537608662,
				"element": "C" 
			},
			{
				"x": 1.6118750754,
				"y": 1.7914108186,
				"z": -0.6227525746,
				"element": "O" 
			},
			{
				"x": 0.2761428212,
				"y": -2.2380998471,
				"z": -0.2741330157,
				"element": "H" 
			},
			{
				"x": -0.6502656672,
				"y": -3.3006871332,
				"z": -2.324429643,
				"element": "H" 
			},
			{
				"x": -1.8091974477,
				"y": -1.9013119251,
				"z": -4.026255443,
				"element": "H" 
			},
			{
				"x": -2.0630679653,
				"y": 0.5613068536,
				"z": -3.6425896177,
				"element": "H" 
			},
			{
				"x": -0.6165257385,
				"y": -0.9311519585,
				"z": 1.9185342418,
				"element": "H" 
			},
			{
				"x": -1.50290042,
				"y": 0.5938305527,
				"z": 1.737870798,
				"element": "H" 
			},
			{
				"x": 0.0016606343,
				"y": 1.2090346252,
				"z": 3.5629138572,
				"element": "H" 
			},
			{
				"x": 1.2681340577,
				"y": 0.1292788214,
				"z": 2.9557730068,
				"element": "H" 
			},
			{
				"x": 0.513653249,
				"y": 2.8604543595,
				"z": 1.8285031589,
				"element": "H" 
			}
		],
		 "valence_orbital": [ 
			{
				"type": "occ",
				"energy": -0.27801,
				"method": "rhf"
			},
			{
				"type": "occ",
				"energy": -0.27382,
				"method": "rhf"
			},
			{
				"type": "occ",
				"energy": -0.25818,
				"method": "rhf"
			},
			{
				"type": "occ",
				"energy": -0.25397,
				"method": "rhf"
			},
			{
				"type": "occ",
				"energy": -0.24322,
				"method": "rhf"
			},
			{
				"type": "unocc",
				"energy": -0.02694,
				"method": "rhf"
			},
			{
				"type": "unocc",
				"energy": -0.0136,
				"method": "rhf"
			},
			{
				"type": "unocc",
				"energy": -0.00837,
				"method": "rhf"
			},
			{
				"type": "unocc",
				"energy": 0.03542,
				"method": "rhf"
			},
			{
				"type": "unocc",
				"energy": 0.07515,
				"method": "rhf"
			}
		],
		"cosmo_sigma_profile": { 
			"-0.025": 0.0,
			"-0.024": 0.0,
			"-0.023": 0.0,
			"-0.022": 0.0,
			"-0.021": 0.0,
			"-0.02": 0.0,
			"-0.019": 0.0,
			"-0.018": 0.0,
			"-0.017": 0.0,
			"-0.016": 0.0,
			"-0.015": 0.0,
			"-0.014": 0.0,
			"-0.013": 0.0,
			"-0.012": 0.0,
			"-0.011": 0.0,
			"-0.01": 0.0435014030653,
			"-0.009": 2.72898156451,
			"-0.008": 3.36132254746,
			"-0.007": 8.03188776562,
			"-0.006": 20.5339898572,
			"-0.005": 23.7396782798,
			"-0.004": 19.6735360526,
			"-0.003": 15.8419815716,
			"-0.002": 13.4482466596,
			"-0.001": 11.0554584395,
			"0.0": 12.5710655255,
			"0.001": 13.3662375362,
			"0.002": 14.5596003677,
			"0.003": 17.6958653615,
			"0.004": 20.2899165038,
			"0.005": 12.1729111936,
			"0.006": 5.66557852977,
			"0.007": 3.15132470264,
			"0.008": 2.55016435902,
			"0.009": 2.66004304653,
			"0.01": 2.61571664209,
			"0.011": 2.93616299433,
			"0.012": 4.21237430072,
			"0.013": 4.45303830402,
			"0.014": 0.701152778534,
			"0.015": 0.0,
			"0.016": 0.0,
			"0.017": 0.0,
			"0.018": 0.0,
			"0.019": 0.0,
			"0.02": 0.0,
			"0.021": 0.0,
			"0.022": 0.0,
			"0.023": 0.0,
			"0.024": 0.0,
			"0.025": 0.0
		}
	}
}
