{
	 "smiles": "CCOC(=O)C=C1SC(N2CCCCC2)C(=O)N1CC", 
	 "Tm": 359.15, 
	 "num_atms": 42, 
	 "gaussian": { 
		 "optdone": 1, 
		 "sigma_profile": "yes", 
		 "theory": "DFT", 
		 "functional": "B3LYP", 
		 "basiset": "6-31G**", 
		 "properties": { 
			 "R2extent": 8793.1739, 
			 "electric_dipole_moment_norm": 0.983687567269, 
			 "electric_quadrupole_moment_norm": 14.7898535125, 
			 "total_energy": -1280.12201925, 
			 "HOMO_LUMO_gap": 0.17084, 
			 "cosmo_polarized_energy": -13.36, 
			 "cosmo_cavitation_energy": 43.64, 
			 "cosmo_dispersion_energy": -31.56, 
			 "cosmo_repulsion_energy": 2.42, 
			 "cosmo_total_nonelectrostatic_energy": 14.51, 
			 "SMD_solvation_energy": 5.39 
		},
		"coords": [
			{
				"x": 5.2182450025,
				"y": -2.1284071914,
				"z": -3.0797926976,
				"element": "C" 
			},
			{
				"x": 4.9402718137,
				"y": -0.6385352527,
				"z": -3.2212765965,
				"element": "C" 
			},
			{
				"x": 3.540347437,
				"y": -0.3828005683,
				"z": -3.4678904575,
				"element": "O" 
			},
			{
				"x": 2.7401893232,
				"y": -0.3059698158,
				"z": -2.3727135353,
				"element": "C" 
			},
			{
				"x": 3.1531749436,
				"y": -0.4336956879,
				"z": -1.2267612388,
				"element": "O" 
			},
			{
				"x": 1.3570985459,
				"y": -0.0582141585,
				"z": -2.7477981717,
				"element": "C" 
			},
			{
				"x": 0.3855970971,
				"y": 0.0926062248,
				"z": -1.8098684266,
				"element": "C" 
			},
			{
				"x": 0.6597339356,
				"y": -0.0071181523,
				"z": -0.0645395688,
				"element": "S" 
			},
			{
				"x": -1.0917064317,
				"y": 0.4414684924,
				"z": 0.3215877204,
				"element": "C" 
			},
			{
				"x": -1.2137013028,
				"y": 1.7725480177,
				"z": 0.9206281457,
				"element": "N" 
			},
			{
				"x": -2.6333845484,
				"y": 2.1409134789,
				"z": 1.1636003799,
				"element": "C" 
			},
			{
				"x": -2.7409394978,
				"y": 3.2470612811,
				"z": 2.2148564252,
				"element": "C" 
			},
			{
				"x": -2.2653676686,
				"y": 2.7543712733,
				"z": 3.59860468,
				"element": "C" 
			},
			{
				"x": -1.1175218847,
				"y": 1.7292707046,
				"z": 3.4427206143,
				"element": "C" 
			},
			{
				"x": -0.3692855848,
				"y": 1.9729204938,
				"z": 2.1254186292,
				"element": "C" 
			},
			{
				"x": -1.829631448,
				"y": 0.3891768961,
				"z": -1.0266247921,
				"element": "C" 
			},
			{
				"x": -3.0395451631,
				"y": 0.427229771,
				"z": -1.1588793785,
				"element": "O" 
			},
			{
				"x": -0.9536987502,
				"y": 0.3126711192,
				"z": -2.0994164443,
				"element": "N" 
			},
			{
				"x": -1.4919406504,
				"y": 0.3386905372,
				"z": -3.4662512234,
				"element": "C" 
			},
			{
				"x": -1.7275272666,
				"y": -1.0591062089,
				"z": -4.0417925075,
				"element": "C" 
			},
			{
				"x": 6.2948212051,
				"y": -2.2983561263,
				"z": -2.9711059006,
				"element": "H" 
			},
			{
				"x": 4.8714885774,
				"y": -2.6749560495,
				"z": -3.9619692152,
				"element": "H" 
			},
			{
				"x": 4.7166886467,
				"y": -2.5280629968,
				"z": -2.1951725792,
				"element": "H" 
			},
			{
				"x": 5.2480579501,
				"y": -0.0964210241,
				"z": -2.323759869,
				"element": "H" 
			},
			{
				"x": 5.4513672063,
				"y": -0.2183636961,
				"z": -4.0913361984,
				"element": "H" 
			},
			{
				"x": 1.1252137357,
				"y": -0.0082109701,
				"z": -3.8029706951,
				"element": "H" 
			},
			{
				"x": -1.5095872142,
				"y": -0.3601204289,
				"z": 0.9562293464,
				"element": "H" 
			},
			{
				"x": -3.0848079839,
				"y": 2.4622169636,
				"z": 0.2228239371,
				"element": "H" 
			},
			{
				"x": -3.2197613393,
				"y": 1.2670880036,
				"z": 1.499732299,
				"element": "H" 
			},
			{
				"x": -2.1446990971,
				"y": 4.1066856927,
				"z": 1.8869615091,
				"element": "H" 
			},
			{
				"x": -3.7793501482,
				"y": 3.5916028693,
				"z": 2.2616899794,
				"element": "H" 
			},
			{
				"x": -3.1004132063,
				"y": 2.2981607855,
				"z": 4.1424927039,
				"element": "H" 
			},
			{
				"x": -1.9336245678,
				"y": 3.608817782,
				"z": 4.1993820005,
				"element": "H" 
			},
			{
				"x": -0.4183501495,
				"y": 1.7890988238,
				"z": 4.2843004223,
				"element": "H" 
			},
			{
				"x": -1.5159561154,
				"y": 0.7068301458,
				"z": 3.44678532,
				"element": "H" 
			},
			{
				"x": 0.5122987938,
				"y": 1.3331127225,
				"z": 2.0538418963,
				"element": "H" 
			},
			{
				"x": 0.0119625649,
				"y": 3.0018490573,
				"z": 2.109461479,
				"element": "H" 
			},
			{
				"x": -2.4350871627,
				"y": 0.8838149305,
				"z": -3.4013855111,
				"element": "H" 
			},
			{
				"x": -0.8048675004,
				"y": 0.9203698017,
				"z": -4.0865878769,
				"element": "H" 
			},
			{
				"x": -0.8036283153,
				"y": -1.6428750016,
				"z": -4.0741473583,
				"element": "H" 
			},
			{
				"x": -2.1183954747,
				"y": -0.9792629135,
				"z": -5.0610081458,
				"element": "H" 
			},
			{
				"x": -2.4603783068,
				"y": -1.5992996258,
				"z": -3.4365690996,
				"element": "H" 
			}
		],
		 "valence_orbital": [ 
			{
				"type": "occ",
				"energy": -0.2781,
				"method": "rhf"
			},
			{
				"type": "occ",
				"energy": -0.26025,
				"method": "rhf"
			},
			{
				"type": "occ",
				"energy": -0.25626,
				"method": "rhf"
			},
			{
				"type": "occ",
				"energy": -0.2258,
				"method": "rhf"
			},
			{
				"type": "occ",
				"energy": -0.21307,
				"method": "rhf"
			},
			{
				"type": "unocc",
				"energy": -0.04223,
				"method": "rhf"
			},
			{
				"type": "unocc",
				"energy": 0.00835,
				"method": "rhf"
			},
			{
				"type": "unocc",
				"energy": 0.03159,
				"method": "rhf"
			},
			{
				"type": "unocc",
				"energy": 0.06289,
				"method": "rhf"
			},
			{
				"type": "unocc",
				"energy": 0.07904,
				"method": "rhf"
			}
		],
		"cosmo_sigma_profile": { 
			"-0.025": 0.0,
			"-0.024": 0.0,
			"-0.023": 0.0,
			"-0.022": 0.0,
			"-0.021": 0.0,
			"-0.02": 0.0,
			"-0.019": 0.0,
			"-0.018": 0.0,
			"-0.017": 0.0,
			"-0.016": 0.0,
			"-0.015": 0.0,
			"-0.014": 0.0,
			"-0.013": 0.0,
			"-0.012": 0.0,
			"-0.011": 0.0,
			"-0.01": 0.0,
			"-0.009": 0.0708344846838,
			"-0.008": 1.84734618715,
			"-0.007": 3.47467878106,
			"-0.006": 9.06088439577,
			"-0.005": 15.3756171928,
			"-0.004": 26.6724357488,
			"-0.003": 43.261497167,
			"-0.002": 47.557655446,
			"-0.001": 48.9087446137,
			"0.0": 37.985321847,
			"0.001": 25.7570350592,
			"0.002": 13.1205730009,
			"0.003": 9.25677327729,
			"0.004": 8.46499131442,
			"0.005": 7.11050188987,
			"0.006": 7.95711814642,
			"0.007": 6.44216116012,
			"0.008": 5.85391911856,
			"0.009": 5.51503518435,
			"0.01": 4.57330036707,
			"0.011": 6.25977795206,
			"0.012": 5.68224761419,
			"0.013": 1.94648207256,
			"0.014": 0.352297511067,
			"0.015": 0.0,
			"0.016": 0.0,
			"0.017": 0.0,
			"0.018": 0.0,
			"0.019": 0.0,
			"0.02": 0.0,
			"0.021": 0.0,
			"0.022": 0.0,
			"0.023": 0.0,
			"0.024": 0.0,
			"0.025": 0.0
		}
	}
}
