{
	 "smiles": "CC1=CC(C(O)=O)=C(O1)C1=CC=CC=C1", 
	 "Tm": 419.15, 
	 "num_atms": 25, 
	 "gaussian": { 
		 "optdone": 1, 
		 "sigma_profile": "yes", 
		 "theory": "DFT", 
		 "functional": "B3LYP", 
		 "basiset": "6-31G**", 
		 "properties": { 
			 "R2extent": 4425.774, 
			 "electric_dipole_moment_norm": 4.74466606412, 
			 "electric_quadrupole_moment_norm": 12.9210829043, 
			 "total_energy": -688.976382915, 
			 "HOMO_LUMO_gap": 0.16454, 
			 "cosmo_polarized_energy": -13.74, 
			 "cosmo_cavitation_energy": 29.47, 
			 "cosmo_dispersion_energy": -21.69, 
			 "cosmo_repulsion_energy": 1.69, 
			 "cosmo_total_nonelectrostatic_energy": 9.47, 
			 "SMD_solvation_energy": 6.55 
		},
		"coords": [
			{
				"x": -1.616068211,
				"y": -3.2261098656,
				"z": 0.3467994734,
				"element": "C" 
			},
			{
				"x": -0.6702936672,
				"y": -2.1017944308,
				"z": 0.5765127279,
				"element": "C" 
			},
			{
				"x": -0.620222501,
				"y": -1.0732734794,
				"z": 1.4622928536,
				"element": "C" 
			},
			{
				"x": 0.5891158179,
				"y": -0.3348591242,
				"z": 1.1908955785,
				"element": "C" 
			},
			{
				"x": 0.992227026,
				"y": 0.887576438,
				"z": 1.9210698817,
				"element": "C" 
			},
			{
				"x": -0.0446631349,
				"y": 1.5902259178,
				"z": 2.4614247001,
				"element": "O" 
			},
			{
				"x": 2.1229212154,
				"y": 1.2863810307,
				"z": 2.0948764809,
				"element": "O" 
			},
			{
				"x": 1.2087634305,
				"y": -0.9797342778,
				"z": 0.1295634788,
				"element": "C" 
			},
			{
				"x": 0.4264263747,
				"y": -2.0428052772,
				"z": -0.237850299,
				"element": "O" 
			},
			{
				"x": 2.3982220679,
				"y": -0.7814557326,
				"z": -0.7004848913,
				"element": "C" 
			},
			{
				"x": 2.4618261925,
				"y": -1.4078669104,
				"z": -1.962379111,
				"element": "C" 
			},
			{
				"x": 3.5795685186,
				"y": -1.2501959884,
				"z": -2.7753182979,
				"element": "C" 
			},
			{
				"x": 4.6550935461,
				"y": -0.4666605168,
				"z": -2.3492691494,
				"element": "C" 
			},
			{
				"x": 4.6017252509,
				"y": 0.1531431368,
				"z": -1.1000525908,
				"element": "C" 
			},
			{
				"x": 3.4890529004,
				"y": -0.0010023945,
				"z": -0.2748019045,
				"element": "C" 
			},
			{
				"x": -1.1237684122,
				"y": -4.1956260383,
				"z": 0.4830884275,
				"element": "H" 
			},
			{
				"x": -2.0219932027,
				"y": -3.2032117267,
				"z": -0.6708724592,
				"element": "H" 
			},
			{
				"x": -2.4487478759,
				"y": -3.1618083895,
				"z": 1.0505528694,
				"element": "H" 
			},
			{
				"x": -1.3277880795,
				"y": -0.8937187803,
				"z": 2.2605299342,
				"element": "H" 
			},
			{
				"x": -0.8830198582,
				"y": 1.2561215056,
				"z": 2.1133545761,
				"element": "H" 
			},
			{
				"x": 1.6281986833,
				"y": -2.0128004276,
				"z": -2.3002941344,
				"element": "H" 
			},
			{
				"x": 3.6094800123,
				"y": -1.7373711172,
				"z": -3.7457425789,
				"element": "H" 
			},
			{
				"x": 5.5269238126,
				"y": -0.3433380373,
				"z": -2.9853892774,
				"element": "H" 
			},
			{
				"x": 5.4359983963,
				"y": 0.7580770235,
				"z": -0.7568115844,
				"element": "H" 
			},
			{
				"x": 3.4559216971,
				"y": 0.4728074622,
				"z": 0.6979052958,
				"element": "H" 
			}
		],
		 "valence_orbital": [ 
			{
				"type": "occ",
				"energy": -0.29453,
				"method": "rhf"
			},
			{
				"type": "occ",
				"energy": -0.27927,
				"method": "rhf"
			},
			{
				"type": "occ",
				"energy": -0.27102,
				"method": "rhf"
			},
			{
				"type": "occ",
				"energy": -0.25013,
				"method": "rhf"
			},
			{
				"type": "occ",
				"energy": -0.21576,
				"method": "rhf"
			},
			{
				"type": "unocc",
				"energy": -0.05122,
				"method": "rhf"
			},
			{
				"type": "unocc",
				"energy": -3e-05,
				"method": "rhf"
			},
			{
				"type": "unocc",
				"energy": 0.00524,
				"method": "rhf"
			},
			{
				"type": "unocc",
				"energy": 0.02526,
				"method": "rhf"
			},
			{
				"type": "unocc",
				"energy": 0.07569,
				"method": "rhf"
			}
		],
		"cosmo_sigma_profile": { 
			"-0.025": 0.0,
			"-0.024": 0.0,
			"-0.023": 0.0,
			"-0.022": 0.0,
			"-0.021": 0.0,
			"-0.02": 0.0,
			"-0.019": 0.0,
			"-0.018": 0.335813109202,
			"-0.017": 0.609975251014,
			"-0.016": 1.05298031083,
			"-0.015": 0.698464787523,
			"-0.014": 1.61262061596,
			"-0.013": 0.77130578296,
			"-0.012": 0.962776266118,
			"-0.011": 1.35584910756,
			"-0.01": 1.11890036359,
			"-0.009": 1.88239757036,
			"-0.008": 1.67974896369,
			"-0.007": 2.29593188822,
			"-0.006": 10.2731269159,
			"-0.005": 16.8326292083,
			"-0.004": 17.1828365526,
			"-0.003": 16.3025499932,
			"-0.002": 18.9013960287,
			"-0.001": 16.4124778864,
			"0.0": 17.1735276184,
			"0.001": 18.8341383724,
			"0.002": 18.3828986456,
			"0.003": 17.5672506128,
			"0.004": 15.0320150933,
			"0.005": 13.3353317917,
			"0.006": 3.99923859366,
			"0.007": 2.50817212235,
			"0.008": 2.48487805526,
			"0.009": 3.53580593288,
			"0.01": 4.72255876589,
			"0.011": 4.40651987653,
			"0.012": 2.774719065,
			"0.013": 1.40521069123,
			"0.014": 0.0488695209351,
			"0.015": 0.0,
			"0.016": 0.0,
			"0.017": 0.0,
			"0.018": 0.0,
			"0.019": 0.0,
			"0.02": 0.0,
			"0.021": 0.0,
			"0.022": 0.0,
			"0.023": 0.0,
			"0.024": 0.0,
			"0.025": 0.0
		}
	}
}
