{
	 "smiles": "OC(=O)C1=CC2=CC=CC=C2N1", 
	 "Tm": 479.15, 
	 "num_atms": 19, 
	 "gaussian": { 
		 "optdone": 1, 
		 "sigma_profile": "yes", 
		 "theory": "DFT", 
		 "functional": "B3LYP", 
		 "basiset": "6-31G**", 
		 "properties": { 
			 "R2extent": 2619.7028, 
			 "electric_dipole_moment_norm": 3.32417594901, 
			 "electric_quadrupole_moment_norm": 17.4217354664, 
			 "total_energy": -552.392801874, 
			 "HOMO_LUMO_gap": 0.16869, 
			 "cosmo_polarized_energy": -14.68, 
			 "cosmo_cavitation_energy": 23.64, 
			 "cosmo_dispersion_energy": -17.84, 
			 "cosmo_repulsion_energy": 1.41, 
			 "cosmo_total_nonelectrostatic_energy": 7.2, 
			 "SMD_solvation_energy": 4.87 
		},
		"coords": [
			{
				"x": 2.6173358743,
				"y": 3.0584289026,
				"z": -0.7660875529,
				"element": "O" 
			},
			{
				"x": 1.8759874988,
				"y": 2.604800404,
				"z": 0.2735731585,
				"element": "C" 
			},
			{
				"x": 2.1840084538,
				"y": 2.8703955808,
				"z": 1.4168483965,
				"element": "O" 
			},
			{
				"x": 0.6954119991,
				"y": 1.7859990558,
				"z": -0.0493234508,
				"element": "C" 
			},
			{
				"x": 0.1343046968,
				"y": 1.3466013447,
				"z": -1.2334522563,
				"element": "C" 
			},
			{
				"x": -1.0208556816,
				"y": 0.5777838038,
				"z": -0.8905855347,
				"element": "C" 
			},
			{
				"x": -1.9925124403,
				"y": -0.1192246372,
				"z": -1.6363097736,
				"element": "C" 
			},
			{
				"x": -3.0080592414,
				"y": -0.7767511911,
				"z": -0.9619004237,
				"element": "C" 
			},
			{
				"x": -3.0805450919,
				"y": -0.757153512,
				"z": 0.4506327374,
				"element": "C" 
			},
			{
				"x": -2.1418608692,
				"y": -0.0816495368,
				"z": 1.2159888708,
				"element": "C" 
			},
			{
				"x": -1.1133227347,
				"y": 0.584414825,
				"z": 0.5340603313,
				"element": "C" 
			},
			{
				"x": -0.0607078762,
				"y": 1.3234185287,
				"z": 1.009111321,
				"element": "N" 
			},
			{
				"x": 2.2397099912,
				"y": 2.7604799287,
				"z": -1.605595572,
				"element": "H" 
			},
			{
				"x": 0.4921241448,
				"y": 1.541012403,
				"z": -2.2364403471,
				"element": "H" 
			},
			{
				"x": -1.9431537968,
				"y": -0.1385848325,
				"z": -2.7212913717,
				"element": "H" 
			},
			{
				"x": -3.7642936481,
				"y": -1.3182174214,
				"z": -1.5220922429,
				"element": "H" 
			},
			{
				"x": -3.8906217473,
				"y": -1.2837358194,
				"z": 0.9463876191,
				"element": "H" 
			},
			{
				"x": -2.2004493392,
				"y": -0.0686192494,
				"z": 2.3001212976,
				"element": "H" 
			},
			{
				"x": 0.1788998081,
				"y": 1.5332014228,
				"z": 1.9670547934,
				"element": "H" 
			}
		],
		 "valence_orbital": [ 
			{
				"type": "occ",
				"energy": -0.31845,
				"method": "rhf"
			},
			{
				"type": "occ",
				"energy": -0.29429,
				"method": "rhf"
			},
			{
				"type": "occ",
				"energy": -0.2822,
				"method": "rhf"
			},
			{
				"type": "occ",
				"energy": -0.23567,
				"method": "rhf"
			},
			{
				"type": "occ",
				"energy": -0.22305,
				"method": "rhf"
			},
			{
				"type": "unocc",
				"energy": -0.05436,
				"method": "rhf"
			},
			{
				"type": "unocc",
				"energy": 0.00938,
				"method": "rhf"
			},
			{
				"type": "unocc",
				"energy": 0.02111,
				"method": "rhf"
			},
			{
				"type": "unocc",
				"energy": 0.0512,
				"method": "rhf"
			},
			{
				"type": "unocc",
				"energy": 0.09214,
				"method": "rhf"
			}
		],
		"cosmo_sigma_profile": { 
			"-0.025": 0.0,
			"-0.024": 0.0,
			"-0.023": 0.0,
			"-0.022": 0.0,
			"-0.021": 0.0,
			"-0.02": 0.0,
			"-0.019": 0.26701789537,
			"-0.018": 0.923846747906,
			"-0.017": 1.17060208998,
			"-0.016": 1.02009428163,
			"-0.015": 1.92633203443,
			"-0.014": 1.08568654907,
			"-0.013": 2.15574169633,
			"-0.012": 3.05342119277,
			"-0.011": 1.87189524885,
			"-0.01": 1.6892210299,
			"-0.009": 1.95818799293,
			"-0.008": 3.01061506805,
			"-0.007": 3.67474909828,
			"-0.006": 7.33714206037,
			"-0.005": 10.8774502896,
			"-0.004": 12.7447699126,
			"-0.003": 11.4651800438,
			"-0.002": 9.85089699242,
			"-0.001": 9.32196140476,
			"0.0": 9.74620065726,
			"0.001": 10.5618999954,
			"0.002": 11.5165947344,
			"0.003": 14.1505129893,
			"0.004": 14.6401715055,
			"0.005": 12.526366582,
			"0.006": 7.52352104754,
			"0.007": 2.75529848472,
			"0.008": 2.73333746306,
			"0.009": 2.73507320641,
			"0.01": 5.54273213355,
			"0.011": 4.5195467453,
			"0.012": 3.62965100707,
			"0.013": 1.75457895523,
			"0.014": 0.107522856091,
			"0.015": 0.0,
			"0.016": 0.0,
			"0.017": 0.0,
			"0.018": 0.0,
			"0.019": 0.0,
			"0.02": 0.0,
			"0.021": 0.0,
			"0.022": 0.0,
			"0.023": 0.0,
			"0.024": 0.0,
			"0.025": 0.0
		}
	}
}
