{
	 "smiles": "CC1=CC=C(NC(=O)CC(N)=NO)C=C1", 
	 "Tm": 442.15, 
	 "num_atms": 28, 
	 "gaussian": { 
		 "optdone": 1, 
		 "sigma_profile": "yes", 
		 "theory": "DFT", 
		 "functional": "B3LYP", 
		 "basiset": "6-31G**", 
		 "properties": { 
			 "R2extent": 4341.4251, 
			 "electric_dipole_moment_norm": 3.12154390166, 
			 "electric_quadrupole_moment_norm": 7.29690097918, 
			 "total_energy": -703.578244312, 
			 "HOMO_LUMO_gap": 0.18915, 
			 "cosmo_polarized_energy": -15.0, 
			 "cosmo_cavitation_energy": 31.83, 
			 "cosmo_dispersion_energy": -23.07, 
			 "cosmo_repulsion_energy": 1.84, 
			 "cosmo_total_nonelectrostatic_energy": 10.6, 
			 "SMD_solvation_energy": 6.03 
		},
		"coords": [
			{
				"x": 2.6136182554,
				"y": 3.6532673303,
				"z": -0.120505653,
				"element": "C" 
			},
			{
				"x": 1.9385496557,
				"y": 2.3218655912,
				"z": 0.1099527725,
				"element": "C" 
			},
			{
				"x": 0.9595699639,
				"y": 1.839075236,
				"z": -0.7653405224,
				"element": "C" 
			},
			{
				"x": 0.3536540608,
				"y": 0.5953334506,
				"z": -0.5798746085,
				"element": "C" 
			},
			{
				"x": 0.6988479374,
				"y": -0.1843074075,
				"z": 0.5305453791,
				"element": "C" 
			},
			{
				"x": 0.1391880537,
				"y": -1.4686556781,
				"z": 0.7681215923,
				"element": "N" 
			},
			{
				"x": -1.1385680066,
				"y": -1.9483471977,
				"z": 0.6389025555,
				"element": "C" 
			},
			{
				"x": -1.3682766246,
				"y": -3.1446308587,
				"z": 0.8149634804,
				"element": "O" 
			},
			{
				"x": -2.2760250579,
				"y": -0.9874316321,
				"z": 0.3044178396,
				"element": "C" 
			},
			{
				"x": -2.8783740334,
				"y": -1.3247187881,
				"z": -1.0401072466,
				"element": "C" 
			},
			{
				"x": -3.4510240279,
				"y": -2.5613309293,
				"z": -1.1703102839,
				"element": "N" 
			},
			{
				"x": -2.8350050858,
				"y": -0.4055128523,
				"z": -1.9475814887,
				"element": "N" 
			},
			{
				"x": -3.4344586558,
				"y": -0.9060579329,
				"z": -3.1457554565,
				"element": "O" 
			},
			{
				"x": 1.6776938189,
				"y": 0.2855333914,
				"z": 1.4178900911,
				"element": "C" 
			},
			{
				"x": 2.2903119766,
				"y": 1.515883631,
				"z": 1.2026070228,
				"element": "C" 
			},
			{
				"x": 3.6403989729,
				"y": 3.52227559,
				"z": -0.4837850632,
				"element": "H" 
			},
			{
				"x": 2.076101015,
				"y": 4.2500264067,
				"z": -0.8625337929,
				"element": "H" 
			},
			{
				"x": 2.6720192708,
				"y": 4.2380632204,
				"z": 0.8037021575,
				"element": "H" 
			},
			{
				"x": 0.6709198084,
				"y": 2.4371860251,
				"z": -1.6258154542,
				"element": "H" 
			},
			{
				"x": -0.3817023861,
				"y": 0.2427667079,
				"z": -1.2962075606,
				"element": "H" 
			},
			{
				"x": 0.7756918423,
				"y": -2.1879738564,
				"z": 1.0921636174,
				"element": "H" 
			},
			{
				"x": -1.9805955709,
				"y": 0.0594386487,
				"z": 0.3147159438,
				"element": "H" 
			},
			{
				"x": -3.0343794072,
				"y": -1.1492423961,
				"z": 1.0792409503,
				"element": "H" 
			},
			{
				"x": -3.0698305287,
				"y": -3.2672740866,
				"z": -0.5500537469,
				"element": "H" 
			},
			{
				"x": -3.6379947028,
				"y": -2.843752744,
				"z": -2.1222770505,
				"element": "H" 
			},
			{
				"x": -3.3588557192,
				"y": -0.14728853,
				"z": -3.7361420396,
				"element": "H" 
			},
			{
				"x": 1.9472747078,
				"y": -0.3147195422,
				"z": 2.2829133141,
				"element": "H" 
			},
			{
				"x": 3.046550467,
				"y": 1.8614292026,
				"z": 1.903253251,
				"element": "H" 
			}
		],
		 "valence_orbital": [ 
			{
				"type": "occ",
				"energy": -0.27075,
				"method": "rhf"
			},
			{
				"type": "occ",
				"energy": -0.264,
				"method": "rhf"
			},
			{
				"type": "occ",
				"energy": -0.25762,
				"method": "rhf"
			},
			{
				"type": "occ",
				"energy": -0.22739,
				"method": "rhf"
			},
			{
				"type": "occ",
				"energy": -0.20712,
				"method": "rhf"
			},
			{
				"type": "unocc",
				"energy": -0.01797,
				"method": "rhf"
			},
			{
				"type": "unocc",
				"energy": -0.01034,
				"method": "rhf"
			},
			{
				"type": "unocc",
				"energy": 0.02015,
				"method": "rhf"
			},
			{
				"type": "unocc",
				"energy": 0.04975,
				"method": "rhf"
			},
			{
				"type": "unocc",
				"energy": 0.07986,
				"method": "rhf"
			}
		],
		"cosmo_sigma_profile": { 
			"-0.025": 0.0,
			"-0.024": 0.0,
			"-0.023": 0.0,
			"-0.022": 0.0,
			"-0.021": 0.0,
			"-0.02": 0.0,
			"-0.019": 0.0,
			"-0.018": 0.0,
			"-0.017": 0.0708640366993,
			"-0.016": 1.22005594044,
			"-0.015": 0.672824172196,
			"-0.014": 1.88311598281,
			"-0.013": 2.2460156519,
			"-0.012": 1.93311288519,
			"-0.011": 1.9685937173,
			"-0.01": 2.59721014456,
			"-0.009": 4.16114936016,
			"-0.008": 3.16072547391,
			"-0.007": 5.41268197474,
			"-0.006": 8.68190804306,
			"-0.005": 13.7412181205,
			"-0.004": 18.9831115842,
			"-0.003": 19.946928279,
			"-0.002": 17.6335009049,
			"-0.001": 20.2241316555,
			"0.0": 19.8022056225,
			"0.001": 15.1734896773,
			"0.002": 13.584427029,
			"0.003": 12.42355757,
			"0.004": 11.7773920892,
			"0.005": 13.2947981571,
			"0.006": 6.68592596721,
			"0.007": 5.88857115325,
			"0.008": 6.96827197113,
			"0.009": 4.6583444057,
			"0.01": 4.84156863001,
			"0.011": 3.31407593196,
			"0.012": 4.45529428426,
			"0.013": 3.19246940374,
			"0.014": 1.15222226271,
			"0.015": 0.00838041683863,
			"0.016": 0.0,
			"0.017": 0.0,
			"0.018": 0.0,
			"0.019": 0.0,
			"0.02": 0.0,
			"0.021": 0.0,
			"0.022": 0.0,
			"0.023": 0.0,
			"0.024": 0.0,
			"0.025": 0.0
		}
	}
}
