{
	 "smiles": "O=C(NNC1=CC=CC=C1)NC1=CC=CC=C1", 
	 "Tm": 452.15, 
	 "num_atms": 30, 
	 "gaussian": { 
		 "optdone": 1, 
		 "sigma_profile": "yes", 
		 "theory": "DFT", 
		 "functional": "B3LYP", 
		 "basiset": "6-31G**", 
		 "properties": { 
			 "R2extent": 5791.494, 
			 "electric_dipole_moment_norm": 3.51333679997, 
			 "electric_quadrupole_moment_norm": 12.9245091017, 
			 "total_energy": -742.689026495, 
			 "HOMO_LUMO_gap": 0.18718, 
			 "cosmo_polarized_energy": -14.96, 
			 "cosmo_cavitation_energy": 34.61, 
			 "cosmo_dispersion_energy": -24.77, 
			 "cosmo_repulsion_energy": 1.91, 
			 "cosmo_total_nonelectrostatic_energy": 11.75, 
			 "SMD_solvation_energy": 6.74 
		},
		"coords": [
			{
				"x": -2.2371581646,
				"y": -0.5271514663,
				"z": 0.1672211071,
				"element": "O" 
			},
			{
				"x": -1.1627016443,
				"y": -0.739114962,
				"z": 0.713804631,
				"element": "C" 
			},
			{
				"x": 0.0557024207,
				"y": -0.4909620446,
				"z": 0.085341635,
				"element": "N" 
			},
			{
				"x": -0.0070470431,
				"y": -0.1918341089,
				"z": -1.2843240571,
				"element": "N" 
			},
			{
				"x": 0.1752516422,
				"y": 1.1666371552,
				"z": -1.6456260942,
				"element": "C" 
			},
			{
				"x": 0.8976556314,
				"y": 2.0649741645,
				"z": -0.8513946408,
				"element": "C" 
			},
			{
				"x": 1.1138174724,
				"y": 3.36982238,
				"z": -1.2959028629,
				"element": "C" 
			},
			{
				"x": 0.622118287,
				"y": 3.7971142881,
				"z": -2.5296420646,
				"element": "C" 
			},
			{
				"x": -0.0969128651,
				"y": 2.8978245812,
				"z": -3.3211796189,
				"element": "C" 
			},
			{
				"x": -0.3204861332,
				"y": 1.594076862,
				"z": -2.886942226,
				"element": "C" 
			},
			{
				"x": -1.1003286515,
				"y": -1.2681130721,
				"z": 1.9926984803,
				"element": "N" 
			},
			{
				"x": -0.002230038,
				"y": -1.5732542642,
				"z": 2.8263108834,
				"element": "C" 
			},
			{
				"x": -0.0996361934,
				"y": -2.6910034256,
				"z": 3.670710713,
				"element": "C" 
			},
			{
				"x": 0.9400506768,
				"y": -3.0102244158,
				"z": 4.5403182044,
				"element": "C" 
			},
			{
				"x": 2.100104044,
				"y": -2.2328413359,
				"z": 4.5718004129,
				"element": "C" 
			},
			{
				"x": 2.197035698,
				"y": -1.1196276373,
				"z": 3.7367161603,
				"element": "C" 
			},
			{
				"x": 1.1525373137,
				"y": -0.7767087234,
				"z": 2.877134554,
				"element": "C" 
			},
			{
				"x": 0.8214047626,
				"y": -1.1105057529,
				"z": 0.3251357238,
				"element": "H" 
			},
			{
				"x": -0.8757241108,
				"y": -0.5620648155,
				"z": -1.6635793568,
				"element": "H" 
			},
			{
				"x": 1.2789355535,
				"y": 1.7410613564,
				"z": 0.1102678699,
				"element": "H" 
			},
			{
				"x": 1.6720477502,
				"y": 4.0574325172,
				"z": -0.6661740843,
				"element": "H" 
			},
			{
				"x": 0.7935900217,
				"y": 4.8138978055,
				"z": -2.8691200626,
				"element": "H" 
			},
			{
				"x": -0.4929879733,
				"y": 3.2132539467,
				"z": -4.2824986383,
				"element": "H" 
			},
			{
				"x": -0.8812448152,
				"y": 0.8997164179,
				"z": -3.5080929998,
				"element": "H" 
			},
			{
				"x": -2.0140813123,
				"y": -1.5640126018,
				"z": 2.3071191525,
				"element": "H" 
			},
			{
				"x": -0.9925356928,
				"y": -3.309658395,
				"z": 3.6345938645,
				"element": "H" 
			},
			{
				"x": 0.8460441851,
				"y": -3.8771688532,
				"z": 5.1878298213,
				"element": "H" 
			},
			{
				"x": 2.9138686271,
				"y": -2.4883226705,
				"z": 5.2431310961,
				"element": "H" 
			},
			{
				"x": 3.0854485372,
				"y": -0.4952021624,
				"z": 3.7632716274,
				"element": "H" 
			},
			{
				"x": 1.2182620141,
				"y": 0.1173592327,
				"z": 2.2682707694,
				"element": "H" 
			}
		],
		 "valence_orbital": [ 
			{
				"type": "occ",
				"energy": -0.26797,
				"method": "rhf"
			},
			{
				"type": "occ",
				"energy": -0.26494,
				"method": "rhf"
			},
			{
				"type": "occ",
				"energy": -0.24152,
				"method": "rhf"
			},
			{
				"type": "occ",
				"energy": -0.23029,
				"method": "rhf"
			},
			{
				"type": "occ",
				"energy": -0.20489,
				"method": "rhf"
			},
			{
				"type": "unocc",
				"energy": -0.01771,
				"method": "rhf"
			},
			{
				"type": "unocc",
				"energy": -0.01622,
				"method": "rhf"
			},
			{
				"type": "unocc",
				"energy": 0.00741,
				"method": "rhf"
			},
			{
				"type": "unocc",
				"energy": 0.01892,
				"method": "rhf"
			},
			{
				"type": "unocc",
				"energy": 0.05056,
				"method": "rhf"
			}
		],
		"cosmo_sigma_profile": { 
			"-0.025": 0.0,
			"-0.024": 0.0,
			"-0.023": 0.0,
			"-0.022": 0.0,
			"-0.021": 0.0,
			"-0.02": 0.0,
			"-0.019": 0.0,
			"-0.018": 0.0,
			"-0.017": 0.0,
			"-0.016": 0.0,
			"-0.015": 0.254314865403,
			"-0.014": 1.366437317,
			"-0.013": 1.38934582715,
			"-0.012": 1.68520260644,
			"-0.011": 2.8377924589,
			"-0.01": 2.90829556209,
			"-0.009": 3.4361262094,
			"-0.008": 4.10705603942,
			"-0.007": 4.30393281856,
			"-0.006": 12.007506222,
			"-0.005": 22.1249025528,
			"-0.004": 24.7986356994,
			"-0.003": 20.5107613944,
			"-0.002": 17.8870946241,
			"-0.001": 15.5635071335,
			"0.0": 14.7298190265,
			"0.001": 15.8456020435,
			"0.002": 15.7676154842,
			"0.003": 17.6126155576,
			"0.004": 18.225845084,
			"0.005": 21.0102694907,
			"0.006": 14.4703421031,
			"0.007": 6.71528031484,
			"0.008": 1.97008766208,
			"0.009": 2.1587851639,
			"0.01": 1.57411586461,
			"0.011": 1.95975122675,
			"0.012": 2.74442660222,
			"0.013": 4.90155870501,
			"0.014": 1.66739491349,
			"0.015": 0.0,
			"0.016": 0.0,
			"0.017": 0.0,
			"0.018": 0.0,
			"0.019": 0.0,
			"0.02": 0.0,
			"0.021": 0.0,
			"0.022": 0.0,
			"0.023": 0.0,
			"0.024": 0.0,
			"0.025": 0.0
		}
	}
}
