{
	 "smiles": "CC(O)CCC1=CC=C2CCC(C)N(C(=O)C3=CC=CC=C3)C2=C1", 
	 "Tm": 350.15, 
	 "num_atms": 49, 
	 "gaussian": { 
		 "optdone": 1, 
		 "sigma_profile": "yes", 
		 "theory": "DFT", 
		 "functional": "B3LYP", 
		 "basiset": "6-31G**", 
		 "properties": { 
			 "R2extent": 9599.2902, 
			 "electric_dipole_moment_norm": 2.93841953608, 
			 "electric_quadrupole_moment_norm": 19.8024427311, 
			 "total_energy": -1020.5236531, 
			 "HOMO_LUMO_gap": 0.16334, 
			 "cosmo_polarized_energy": -14.24, 
			 "cosmo_cavitation_energy": 49.15, 
			 "cosmo_dispersion_energy": -32.19, 
			 "cosmo_repulsion_energy": 2.5, 
			 "cosmo_total_nonelectrostatic_energy": 19.46, 
			 "SMD_solvation_energy": 7.68 
		},
		"coords": [
			{
				"x": 3.966446018,
				"y": 1.4296650133,
				"z": -0.8963771093,
				"element": "C" 
			},
			{
				"x": 3.9682075216,
				"y": 2.8096247823,
				"z": -0.2374107307,
				"element": "C" 
			},
			{
				"x": 4.1653612609,
				"y": 3.8310701773,
				"z": -1.2207729841,
				"element": "O" 
			},
			{
				"x": 2.7169583422,
				"y": 3.1302957255,
				"z": 0.5997760941,
				"element": "C" 
			},
			{
				"x": 2.5718828667,
				"y": 2.3837507341,
				"z": 1.9454856364,
				"element": "C" 
			},
			{
				"x": 2.1408193914,
				"y": 0.9304658214,
				"z": 1.8795980884,
				"element": "C" 
			},
			{
				"x": 2.9601861174,
				"y": -0.0950921422,
				"z": 2.3677663346,
				"element": "C" 
			},
			{
				"x": 2.5464208698,
				"y": -1.4208382649,
				"z": 2.2745723996,
				"element": "C" 
			},
			{
				"x": 1.3061274249,
				"y": -1.7747300559,
				"z": 1.7353710256,
				"element": "C" 
			},
			{
				"x": 0.9399906053,
				"y": -3.2345198247,
				"z": 1.5770319819,
				"element": "C" 
			},
			{
				"x": -0.5124034216,
				"y": -3.4353830325,
				"z": 1.1441338514,
				"element": "C" 
			},
			{
				"x": -0.9578263066,
				"y": -2.3946645362,
				"z": 0.100403708,
				"element": "C" 
			},
			{
				"x": -2.3664491765,
				"y": -2.7353123549,
				"z": -0.3911101268,
				"element": "C" 
			},
			{
				"x": -0.829235143,
				"y": -1.0590509168,
				"z": 0.7490306803,
				"element": "N" 
			},
			{
				"x": -1.8170091162,
				"y": -0.0718917554,
				"z": 0.5976242473,
				"element": "C" 
			},
			{
				"x": -2.477885656,
				"y": 0.041622111,
				"z": -0.4277740737,
				"element": "O" 
			},
			{
				"x": -2.123029953,
				"y": 0.8057846326,
				"z": 1.7813614965,
				"element": "C" 
			},
			{
				"x": -1.8920847216,
				"y": 0.4072908798,
				"z": 3.1057579958,
				"element": "C" 
			},
			{
				"x": -2.2892806804,
				"y": 1.2238068341,
				"z": 4.1635868032,
				"element": "C" 
			},
			{
				"x": -2.9132415033,
				"y": 2.4475976612,
				"z": 3.9095970864,
				"element": "C" 
			},
			{
				"x": -3.152942512,
				"y": 2.8469824039,
				"z": 2.5922437477,
				"element": "C" 
			},
			{
				"x": -2.7691165315,
				"y": 2.0256895401,
				"z": 1.5344531173,
				"element": "C" 
			},
			{
				"x": 0.4496836871,
				"y": -0.7452398463,
				"z": 1.2922698247,
				"element": "C" 
			},
			{
				"x": 0.9020196353,
				"y": 0.5853698809,
				"z": 1.3348800536,
				"element": "C" 
			},
			{
				"x": 3.0868324893,
				"y": 1.312753404,
				"z": -1.5428657525,
				"element": "H" 
			},
			{
				"x": 4.8621713721,
				"y": 1.3160309072,
				"z": -1.5141584149,
				"element": "H" 
			},
			{
				"x": 3.9408056543,
				"y": 0.6225712994,
				"z": -0.1601339261,
				"element": "H" 
			},
			{
				"x": 4.8478911186,
				"y": 2.8932615057,
				"z": 0.4145330036,
				"element": "H" 
			},
			{
				"x": 3.4442987433,
				"y": 3.7554097827,
				"z": -1.8609731507,
				"element": "H" 
			},
			{
				"x": 2.7583693686,
				"y": 4.2050226607,
				"z": 0.8098918198,
				"element": "H" 
			},
			{
				"x": 1.8200988693,
				"y": 2.9687595353,
				"z": -0.0155913401,
				"element": "H" 
			},
			{
				"x": 3.5198764673,
				"y": 2.4521297924,
				"z": 2.4934530335,
				"element": "H" 
			},
			{
				"x": 1.8370371298,
				"y": 2.9331262006,
				"z": 2.5479277738,
				"element": "H" 
			},
			{
				"x": 3.9272756532,
				"y": 0.1437157812,
				"z": 2.8022122518,
				"element": "H" 
			},
			{
				"x": 3.2029927089,
				"y": -2.2135179914,
				"z": 2.626946287,
				"element": "H" 
			},
			{
				"x": 1.1398155072,
				"y": -3.7785921588,
				"z": 2.5081680324,
				"element": "H" 
			},
			{
				"x": 1.6059613152,
				"y": -3.6783222345,
				"z": 0.8236324003,
				"element": "H" 
			},
			{
				"x": -1.1870238168,
				"y": -3.3525359155,
				"z": 2.0053444707,
				"element": "H" 
			},
			{
				"x": -0.6438968049,
				"y": -4.4407575298,
				"z": 0.7301508128,
				"element": "H" 
			},
			{
				"x": -0.267233557,
				"y": -2.4272921518,
				"z": -0.7555549226,
				"element": "H" 
			},
			{
				"x": -2.6965758787,
				"y": -2.0818565564,
				"z": -1.1950234933,
				"element": "H" 
			},
			{
				"x": -3.0951493852,
				"y": -2.6693781963,
				"z": 0.4238597393,
				"element": "H" 
			},
			{
				"x": -2.3570572515,
				"y": -3.7702190688,
				"z": -0.7478678928,
				"element": "H" 
			},
			{
				"x": -1.4096655083,
				"y": -0.5432894019,
				"z": 3.3053204193,
				"element": "H" 
			},
			{
				"x": -2.1139066669,
				"y": 0.9041295422,
				"z": 5.1867233059,
				"element": "H" 
			},
			{
				"x": -3.217068797,
				"y": 3.0845827845,
				"z": 4.7355159782,
				"element": "H" 
			},
			{
				"x": -3.6449015356,
				"y": 3.7942797574,
				"z": 2.3911873616,
				"element": "H" 
			},
			{
				"x": -2.9692252414,
				"y": 2.3062132557,
				"z": 0.5057562576,
				"element": "H" 
			},
			{
				"x": 0.2712790274,
				"y": 1.3712815284,
				"z": 0.9349467973,
				"element": "H" 
			}
		],
		 "valence_orbital": [ 
			{
				"type": "occ",
				"energy": -0.25951,
				"method": "rhf"
			},
			{
				"type": "occ",
				"energy": -0.2568,
				"method": "rhf"
			},
			{
				"type": "occ",
				"energy": -0.24744,
				"method": "rhf"
			},
			{
				"type": "occ",
				"energy": -0.23407,
				"method": "rhf"
			},
			{
				"type": "occ",
				"energy": -0.2089,
				"method": "rhf"
			},
			{
				"type": "unocc",
				"energy": -0.04556,
				"method": "rhf"
			},
			{
				"type": "unocc",
				"energy": -0.01084,
				"method": "rhf"
			},
			{
				"type": "unocc",
				"energy": -0.00424,
				"method": "rhf"
			},
			{
				"type": "unocc",
				"energy": 0.00732,
				"method": "rhf"
			},
			{
				"type": "unocc",
				"energy": 0.04903,
				"method": "rhf"
			}
		],
		"cosmo_sigma_profile": { 
			"-0.025": 0.0,
			"-0.024": 0.0,
			"-0.023": 0.0,
			"-0.022": 0.0,
			"-0.021": 0.0,
			"-0.02": 0.0,
			"-0.019": 0.0,
			"-0.018": 0.0,
			"-0.017": 0.0,
			"-0.016": 0.0,
			"-0.015": 0.0307740485462,
			"-0.014": 1.12376058285,
			"-0.013": 0.530865433095,
			"-0.012": 0.893155812294,
			"-0.011": 1.36635032198,
			"-0.01": 1.00424907258,
			"-0.009": 0.899263424427,
			"-0.008": 0.763357578046,
			"-0.007": 0.945827637472,
			"-0.006": 8.07071077708,
			"-0.005": 14.9326062434,
			"-0.004": 35.7869030999,
			"-0.003": 51.5213253856,
			"-0.002": 45.92847162,
			"-0.001": 40.6376769631,
			"0.0": 38.4069976346,
			"0.001": 30.2889036631,
			"0.002": 19.9586567625,
			"0.003": 19.989143321,
			"0.004": 21.7521426639,
			"0.005": 16.4900990805,
			"0.006": 6.06429492693,
			"0.007": 3.33371242802,
			"0.008": 3.79626949518,
			"0.009": 2.39339940347,
			"0.01": 2.67298253919,
			"0.011": 3.43198639535,
			"0.012": 5.11993874742,
			"0.013": 2.97619113334,
			"0.014": 2.32370066879,
			"0.015": 1.89660489166,
			"0.016": 0.0149179455792,
			"0.017": 0.0,
			"0.018": 0.0,
			"0.019": 0.0,
			"0.02": 0.0,
			"0.021": 0.0,
			"0.022": 0.0,
			"0.023": 0.0,
			"0.024": 0.0,
			"0.025": 0.0
		}
	}
}
