{
	 "smiles": "CCOC(=O)C=CC1=CC=C(N)C=C1", 
	 "Tm": 346.15, 
	 "num_atms": 27, 
	 "gaussian": { 
		 "optdone": 1, 
		 "sigma_profile": "yes", 
		 "theory": "DFT", 
		 "functional": "B3LYP", 
		 "basiset": "6-31G**", 
		 "properties": { 
			 "R2extent": 5601.5422, 
			 "electric_dipole_moment_norm": 4.43354033026, 
			 "electric_quadrupole_moment_norm": 24.3439959818, 
			 "total_energy": -632.216574858, 
			 "HOMO_LUMO_gap": 0.15122, 
			 "cosmo_polarized_energy": -14.46, 
			 "cosmo_cavitation_energy": 31.67, 
			 "cosmo_dispersion_energy": -23.06, 
			 "cosmo_repulsion_energy": 1.83, 
			 "cosmo_total_nonelectrostatic_energy": 10.45, 
			 "SMD_solvation_energy": 6.54 
		},
		"coords": [
			{
				"x": 1.4538519752,
				"y": 1.9241952676,
				"z": 4.3838536057,
				"element": "C" 
			},
			{
				"x": 0.3228196804,
				"y": 0.9051992852,
				"z": 4.3949984193,
				"element": "C" 
			},
			{
				"x": 0.4903275076,
				"y": -0.0805654579,
				"z": 3.3545076236,
				"element": "O" 
			},
			{
				"x": 0.0125915701,
				"y": 0.2539910678,
				"z": 2.125014591,
				"element": "C" 
			},
			{
				"x": -0.5359953563,
				"y": 1.3163815885,
				"z": 1.8845612172,
				"element": "O" 
			},
			{
				"x": 0.250482769,
				"y": -0.8350714524,
				"z": 1.1638186982,
				"element": "C" 
			},
			{
				"x": -0.1506291661,
				"y": -0.7053970943,
				"z": -0.1175312709,
				"element": "C" 
			},
			{
				"x": -0.0086327197,
				"y": -1.6603512645,
				"z": -1.2068334367,
				"element": "C" 
			},
			{
				"x": -0.5018333545,
				"y": -1.3257874468,
				"z": -2.4828199453,
				"element": "C" 
			},
			{
				"x": -0.3931446273,
				"y": -2.1921926572,
				"z": -3.5614117142,
				"element": "C" 
			},
			{
				"x": 0.2215276529,
				"y": -3.4479934966,
				"z": -3.4060681479,
				"element": "C" 
			},
			{
				"x": 0.2910912007,
				"y": -4.3443605902,
				"z": -4.4618629932,
				"element": "N" 
			},
			{
				"x": 0.7191418074,
				"y": -3.7963510569,
				"z": -2.1328671586,
				"element": "C" 
			},
			{
				"x": 0.6047792157,
				"y": -2.9224742041,
				"z": -1.0646030287,
				"element": "C" 
			},
			{
				"x": 1.4325629847,
				"y": 2.5064514874,
				"z": 3.4595559355,
				"element": "H" 
			},
			{
				"x": 1.3445922131,
				"y": 2.6136801689,
				"z": 5.2279577704,
				"element": "H" 
			},
			{
				"x": 2.4255652207,
				"y": 1.4283174962,
				"z": 4.4684353942,
				"element": "H" 
			},
			{
				"x": 0.3167019251,
				"y": 0.3272049414,
				"z": 5.3229362672,
				"element": "H" 
			},
			{
				"x": -0.6452655762,
				"y": 1.3960039509,
				"z": 4.2668892388,
				"element": "H" 
			},
			{
				"x": 0.7527055624,
				"y": -1.7184996657,
				"z": 1.5437667961,
				"element": "H" 
			},
			{
				"x": -0.6439260906,
				"y": 0.233202828,
				"z": -0.3678353156,
				"element": "H" 
			},
			{
				"x": -0.9787074068,
				"y": -0.3594360457,
				"z": -2.6257604638,
				"element": "H" 
			},
			{
				"x": -0.7871052857,
				"y": -1.9043217283,
				"z": -4.5328512123,
				"element": "H" 
			},
			{
				"x": 0.9939662049,
				"y": -5.0659919431,
				"z": -4.3941080955,
				"element": "H" 
			},
			{
				"x": 0.2107846128,
				"y": -3.9537653386,
				"z": -5.3894402927,
				"element": "H" 
			},
			{
				"x": 1.1934726743,
				"y": -4.7646521992,
				"z": -1.9930334891,
				"element": "H" 
			},
			{
				"x": 1.0011748064,
				"y": -3.2229164404,
				"z": -0.0994689926,
				"element": "H" 
			}
		],
		 "valence_orbital": [ 
			{
				"type": "occ",
				"energy": -0.28147,
				"method": "rhf"
			},
			{
				"type": "occ",
				"energy": -0.26845,
				"method": "rhf"
			},
			{
				"type": "occ",
				"energy": -0.25679,
				"method": "rhf"
			},
			{
				"type": "occ",
				"energy": -0.25616,
				"method": "rhf"
			},
			{
				"type": "occ",
				"energy": -0.20021,
				"method": "rhf"
			},
			{
				"type": "unocc",
				"energy": -0.04899,
				"method": "rhf"
			},
			{
				"type": "unocc",
				"energy": -0.00445,
				"method": "rhf"
			},
			{
				"type": "unocc",
				"energy": 0.03724,
				"method": "rhf"
			},
			{
				"type": "unocc",
				"energy": 0.07177,
				"method": "rhf"
			},
			{
				"type": "unocc",
				"energy": 0.09972,
				"method": "rhf"
			}
		],
		"cosmo_sigma_profile": { 
			"-0.025": 0.0,
			"-0.024": 0.0,
			"-0.023": 0.0,
			"-0.022": 0.0,
			"-0.021": 0.0,
			"-0.02": 0.0,
			"-0.019": 0.0,
			"-0.018": 0.0,
			"-0.017": 0.0,
			"-0.016": 0.0,
			"-0.015": 0.0,
			"-0.014": 0.0589174621461,
			"-0.013": 1.9821546156,
			"-0.012": 2.7295643565,
			"-0.011": 3.58841600891,
			"-0.01": 3.00676823333,
			"-0.009": 2.50283167506,
			"-0.008": 3.69154573321,
			"-0.007": 5.67364792417,
			"-0.006": 11.3856161623,
			"-0.005": 12.6172061045,
			"-0.004": 17.7701597303,
			"-0.003": 19.5823944889,
			"-0.002": 17.6585029949,
			"-0.001": 17.3151847145,
			"0.0": 19.021728432,
			"0.001": 15.1181171987,
			"0.002": 15.616052386,
			"0.003": 15.6867392499,
			"0.004": 17.4662059648,
			"0.005": 18.5138578071,
			"0.006": 6.60035058885,
			"0.007": 3.58984589479,
			"0.008": 3.12064554133,
			"0.009": 3.50512843399,
			"0.01": 3.45604751128,
			"0.011": 1.44931306538,
			"0.012": 4.00365229707,
			"0.013": 4.04974509857,
			"0.014": 0.146131279023,
			"0.015": 0.0,
			"0.016": 0.0,
			"0.017": 0.0,
			"0.018": 0.0,
			"0.019": 0.0,
			"0.02": 0.0,
			"0.021": 0.0,
			"0.022": 0.0,
			"0.023": 0.0,
			"0.024": 0.0,
			"0.025": 0.0
		}
	}
}
