{
	 "smiles": "CC1=NC=C(C=O)N1C1=CC=CC=C1", 
	 "Tm": 338.15, 
	 "num_atms": 24, 
	 "gaussian": { 
		 "optdone": 1, 
		 "sigma_profile": "yes", 
		 "theory": "DFT", 
		 "functional": "B3LYP", 
		 "basiset": "6-31G**", 
		 "properties": { 
			 "R2extent": 3477.3985, 
			 "electric_dipole_moment_norm": 2.59042550559, 
			 "electric_quadrupole_moment_norm": 9.26318562375, 
			 "total_energy": -609.917262202, 
			 "HOMO_LUMO_gap": 0.18791, 
			 "cosmo_polarized_energy": -12.74, 
			 "cosmo_cavitation_energy": 28.7, 
			 "cosmo_dispersion_energy": -19.77, 
			 "cosmo_repulsion_energy": 1.56, 
			 "cosmo_total_nonelectrostatic_energy": 10.49, 
			 "SMD_solvation_energy": 4.54 
		},
		"coords": [
			{
				"x": -0.04239277,
				"y": 1.8165863592,
				"z": -2.7236144323,
				"element": "C" 
			},
			{
				"x": -0.3441707493,
				"y": 0.3993288712,
				"z": -3.0845200921,
				"element": "C" 
			},
			{
				"x": -0.4114986622,
				"y": -0.0636615147,
				"z": -4.3291377486,
				"element": "N" 
			},
			{
				"x": -0.6880003539,
				"y": -1.3900440557,
				"z": -4.2084777712,
				"element": "C" 
			},
			{
				"x": -0.7922746251,
				"y": -1.7650319803,
				"z": -2.8790697878,
				"element": "C" 
			},
			{
				"x": -1.0892420569,
				"y": -3.072713893,
				"z": -2.3283749475,
				"element": "C" 
			},
			{
				"x": -1.1803555749,
				"y": -3.3572483713,
				"z": -1.1439467178,
				"element": "O" 
			},
			{
				"x": -0.5686604006,
				"y": -0.5871908695,
				"z": -2.1598033288,
				"element": "N" 
			},
			{
				"x": -0.5552939567,
				"y": -0.4172632775,
				"z": -0.7330876092,
				"element": "C" 
			},
			{
				"x": 0.5545917099,
				"y": -0.8327800554,
				"z": 0.0052892588,
				"element": "C" 
			},
			{
				"x": 0.574385932,
				"y": -0.6330900199,
				"z": 1.3845948899,
				"element": "C" 
			},
			{
				"x": -0.5052733299,
				"y": -0.0163131601,
				"z": 2.0212354623,
				"element": "C" 
			},
			{
				"x": -1.6104709976,
				"y": 0.3978476014,
				"z": 1.276369403,
				"element": "C" 
			},
			{
				"x": -1.6395528307,
				"y": 0.1970643964,
				"z": -0.1042508609,
				"element": "C" 
			},
			{
				"x": 0.1992897636,
				"y": 2.3570078256,
				"z": -3.6392728672,
				"element": "H" 
			},
			{
				"x": 0.8039403504,
				"y": 1.8839636128,
				"z": -2.0322019658,
				"element": "H" 
			},
			{
				"x": -0.8954261056,
				"y": 2.3061044599,
				"z": -2.2417999329,
				"element": "H" 
			},
			{
				"x": -0.8035528756,
				"y": -2.0289461941,
				"z": -5.0749581327,
				"element": "H" 
			},
			{
				"x": -1.2365337477,
				"y": -3.8411625759,
				"z": -3.1187441476,
				"element": "H" 
			},
			{
				"x": 1.3843838533,
				"y": -1.3144826246,
				"z": -0.5012340814,
				"element": "H" 
			},
			{
				"x": 1.4334619275,
				"y": -0.960535274,
				"z": 1.9621647752,
				"element": "H" 
			},
			{
				"x": -0.4859801223,
				"y": 0.1377070225,
				"z": 3.0959586934,
				"element": "H" 
			},
			{
				"x": -2.4541730113,
				"y": 0.872349218,
				"z": 1.7682729832,
				"element": "H" 
			},
			{
				"x": -2.4990013667,
				"y": 0.5007044993,
				"z": -0.6936910419,
				"element": "H" 
			}
		],
		 "valence_orbital": [ 
			{
				"type": "occ",
				"energy": -0.28396,
				"method": "rhf"
			},
			{
				"type": "occ",
				"energy": -0.26511,
				"method": "rhf"
			},
			{
				"type": "occ",
				"energy": -0.25994,
				"method": "rhf"
			},
			{
				"type": "occ",
				"energy": -0.24321,
				"method": "rhf"
			},
			{
				"type": "occ",
				"energy": -0.23687,
				"method": "rhf"
			},
			{
				"type": "unocc",
				"energy": -0.04896,
				"method": "rhf"
			},
			{
				"type": "unocc",
				"energy": -0.0186,
				"method": "rhf"
			},
			{
				"type": "unocc",
				"energy": -0.01593,
				"method": "rhf"
			},
			{
				"type": "unocc",
				"energy": 0.03949,
				"method": "rhf"
			},
			{
				"type": "unocc",
				"energy": 0.0793,
				"method": "rhf"
			}
		],
		"cosmo_sigma_profile": { 
			"-0.025": 0.0,
			"-0.024": 0.0,
			"-0.023": 0.0,
			"-0.022": 0.0,
			"-0.021": 0.0,
			"-0.02": 0.0,
			"-0.019": 0.0,
			"-0.018": 0.0,
			"-0.017": 0.0,
			"-0.016": 0.0,
			"-0.015": 0.0,
			"-0.014": 0.0,
			"-0.013": 0.0,
			"-0.012": 0.0,
			"-0.011": 0.0,
			"-0.01": 0.0,
			"-0.009": 0.00632165986836,
			"-0.008": 2.14746614184,
			"-0.007": 8.82759145687,
			"-0.006": 17.5691678701,
			"-0.005": 22.7301572651,
			"-0.004": 20.7278521851,
			"-0.003": 18.7713419011,
			"-0.002": 20.5757734084,
			"-0.001": 17.3010676427,
			"0.0": 14.6953333636,
			"0.001": 11.5866707132,
			"0.002": 12.1867605715,
			"0.003": 10.8319837919,
			"0.004": 10.9474984396,
			"0.005": 6.58547743091,
			"0.006": 3.72921504867,
			"0.007": 3.47295757275,
			"0.008": 3.98515344703,
			"0.009": 2.98930795963,
			"0.01": 3.56557263444,
			"0.011": 4.65719701777,
			"0.012": 5.44182938112,
			"0.013": 2.90738856311,
			"0.014": 1.22363116913,
			"0.015": 0.873841050188,
			"0.016": 0.979708560601,
			"0.017": 0.573339423971,
			"0.018": 0.00689919480665,
			"0.019": 0.0,
			"0.02": 0.0,
			"0.021": 0.0,
			"0.022": 0.0,
			"0.023": 0.0,
			"0.024": 0.0,
			"0.025": 0.0
		}
	}
}
