{
	 "smiles": "OCC1OC(OCC2OC(O)(CO)C(O)C2O)C(O)C(O)C1O", 
	 "Tm": 399.15, 
	 "num_atms": 45, 
	 "gaussian": { 
		 "optdone": 1, 
		 "sigma_profile": "yes", 
		 "theory": "DFT", 
		 "functional": "B3LYP", 
		 "basiset": "6-31G**", 
		 "properties": { 
			 "R2extent": 7242.1529, 
			 "electric_dipole_moment_norm": 2.19901086173, 
			 "electric_quadrupole_moment_norm": 10.4016972187, 
			 "total_energy": -1297.94104983, 
			 "HOMO_LUMO_gap": 0.30018, 
			 "cosmo_polarized_energy": -23.15, 
			 "cosmo_cavitation_energy": 40.35, 
			 "cosmo_dispersion_energy": -29.89, 
			 "cosmo_repulsion_energy": 2.23, 
			 "cosmo_total_nonelectrostatic_energy": 12.68, 
			 "SMD_solvation_energy": 5.44 
		},
		"coords": [
			{
				"x": 0.1926925098,
				"y": 1.4847586189,
				"z": -2.7252093404,
				"element": "O" 
			},
			{
				"x": 0.3785561929,
				"y": 0.06976725,
				"z": -2.6700234478,
				"element": "C" 
			},
			{
				"x": -0.3647763088,
				"y": -0.6161658195,
				"z": -1.5203257868,
				"element": "C" 
			},
			{
				"x": 0.3190053178,
				"y": -0.2838243921,
				"z": -0.2859396278,
				"element": "O" 
			},
			{
				"x": -0.3096600251,
				"y": -0.7874769264,
				"z": 0.8922655945,
				"element": "C" 
			},
			{
				"x": -1.6163946144,
				"y": -0.285586275,
				"z": 1.0313060309,
				"element": "O" 
			},
			{
				"x": -1.9106134368,
				"y": 0.4342899298,
				"z": 2.2309251389,
				"element": "C" 
			},
			{
				"x": -1.6264750556,
				"y": 1.9377019872,
				"z": 2.1888903133,
				"element": "C" 
			},
			{
				"x": -0.2660197964,
				"y": 2.1943964276,
				"z": 1.8329047724,
				"element": "O" 
			},
			{
				"x": -0.1476199158,
				"y": 2.9975136942,
				"z": 0.6562337671,
				"element": "C" 
			},
			{
				"x": 0.8337568761,
				"y": 2.3904379826,
				"z": -0.1606550905,
				"element": "O" 
			},
			{
				"x": 0.4079867933,
				"y": 4.3867828038,
				"z": 1.0001095118,
				"element": "C" 
			},
			{
				"x": 1.6667552832,
				"y": 4.3091615232,
				"z": 1.6229968974,
				"element": "O" 
			},
			{
				"x": -1.5661426927,
				"y": 3.0712258682,
				"z": 0.021874818,
				"element": "C" 
			},
			{
				"x": -1.8401687352,
				"y": 2.0730846877,
				"z": -0.9334362463,
				"element": "O" 
			},
			{
				"x": -2.5030625855,
				"y": 2.784085101,
				"z": 1.2168764074,
				"element": "C" 
			},
			{
				"x": -3.7154158156,
				"y": 2.1818641561,
				"z": 0.8438837826,
				"element": "O" 
			},
			{
				"x": -0.3506022696,
				"y": -2.3209608682,
				"z": 0.8302729619,
				"element": "C" 
			},
			{
				"x": 0.9604197871,
				"y": -2.873468765,
				"z": 0.9176097998,
				"element": "O" 
			},
			{
				"x": -1.0366380627,
				"y": -2.8192449823,
				"z": -0.4539248403,
				"element": "C" 
			},
			{
				"x": -0.8608287453,
				"y": -4.2269680479,
				"z": -0.5762987818,
				"element": "O" 
			},
			{
				"x": -0.4299810102,
				"y": -2.1321646175,
				"z": -1.6962218849,
				"element": "C" 
			},
			{
				"x": 0.8935813329,
				"y": -2.6280938623,
				"z": -1.9192328285,
				"element": "O" 
			},
			{
				"x": 0.7516426406,
				"y": 1.9081313244,
				"z": -2.0499685234,
				"element": "H" 
			},
			{
				"x": -0.0141176134,
				"y": -0.3265079069,
				"z": -3.6113933198,
				"element": "H" 
			},
			{
				"x": 1.4417406644,
				"y": -0.1881014931,
				"z": -2.6173582792,
				"element": "H" 
			},
			{
				"x": -1.3855452497,
				"y": -0.2256030822,
				"z": -1.4620551367,
				"element": "H" 
			},
			{
				"x": 0.3362958712,
				"y": -0.4648875478,
				"z": 1.7132494584,
				"element": "H" 
			},
			{
				"x": -1.3559629532,
				"y": -0.0042638834,
				"z": 3.0707840451,
				"element": "H" 
			},
			{
				"x": -2.9793354723,
				"y": 0.2968029239,
				"z": 2.4160712317,
				"element": "H" 
			},
			{
				"x": -1.7831712199,
				"y": 2.291879208,
				"z": 3.2186006439,
				"element": "H" 
			},
			{
				"x": 0.7067313998,
				"y": 1.4178573142,
				"z": -0.0723255158,
				"element": "H" 
			},
			{
				"x": 0.4438064818,
				"y": 4.9771966671,
				"z": 0.0683109489,
				"element": "H" 
			},
			{
				"x": -0.2743360882,
				"y": 4.8942649297,
				"z": 1.6907212965,
				"element": "H" 
			},
			{
				"x": 2.1670226999,
				"y": 3.6529583009,
				"z": 1.1155164688,
				"element": "H" 
			},
			{
				"x": -1.7431225003,
				"y": 4.07051632,
				"z": -0.4009868379,
				"element": "H" 
			},
			{
				"x": -1.1985587274,
				"y": 2.072260205,
				"z": -1.6722272803,
				"element": "H" 
			},
			{
				"x": -2.7503087406,
				"y": 3.7281082428,
				"z": 1.7148222435,
				"element": "H" 
			},
			{
				"x": -3.505000518,
				"y": 1.6613861528,
				"z": 0.0500924584,
				"element": "H" 
			},
			{
				"x": -0.8939921042,
				"y": -2.6881592694,
				"z": 1.7069393251,
				"element": "H" 
			},
			{
				"x": 1.4242020118,
				"y": -2.5924381859,
				"z": 0.1080852062,
				"element": "H" 
			},
			{
				"x": -2.1084726817,
				"y": -2.5977806271,
				"z": -0.4061249404,
				"element": "H" 
			},
			{
				"x": -0.117821299,
				"y": -4.4406770219,
				"z": 0.013433204,
				"element": "H" 
			},
			{
				"x": -1.062601565,
				"y": -2.3510119804,
				"z": -2.5700473307,
				"element": "H" 
			},
			{
				"x": 0.7903499402,
				"y": -3.5922460649,
				"z": -1.9576212871,
				"element": "H" 
			}
		],
		 "valence_orbital": [ 
			{
				"type": "occ",
				"energy": -0.27873,
				"method": "rhf"
			},
			{
				"type": "occ",
				"energy": -0.27435,
				"method": "rhf"
			},
			{
				"type": "occ",
				"energy": -0.2664,
				"method": "rhf"
			},
			{
				"type": "occ",
				"energy": -0.26325,
				"method": "rhf"
			},
			{
				"type": "occ",
				"energy": -0.24912,
				"method": "rhf"
			},
			{
				"type": "unocc",
				"energy": 0.05106,
				"method": "rhf"
			},
			{
				"type": "unocc",
				"energy": 0.05721,
				"method": "rhf"
			},
			{
				"type": "unocc",
				"energy": 0.07481,
				"method": "rhf"
			},
			{
				"type": "unocc",
				"energy": 0.07861,
				"method": "rhf"
			},
			{
				"type": "unocc",
				"energy": 0.08127,
				"method": "rhf"
			}
		],
		"cosmo_sigma_profile": { 
			"-0.025": -0.231099214852,
			"-0.024": -0.00590609428427,
			"-0.023": 0.00121825886178,
			"-0.022": 0.00135954513822,
			"-0.021": 0.00273254729881,
			"-0.02": 0.00327070289048,
			"-0.019": 0.000532614810709,
			"-0.018": 0.0,
			"-0.017": 0.0,
			"-0.016": 0.0,
			"-0.015": 0.0,
			"-0.014": 0.239354853013,
			"-0.013": 0.89315519476,
			"-0.012": 1.43328888721,
			"-0.011": 2.72168307812,
			"-0.01": 3.36930970281,
			"-0.009": 3.07342655379,
			"-0.008": 5.64631514652,
			"-0.007": 12.7053115126,
			"-0.006": 30.9768982192,
			"-0.005": 34.6148912482,
			"-0.004": 23.2664871095,
			"-0.003": 20.4939745138,
			"-0.002": 18.0896675215,
			"-0.001": 15.4534585511,
			"0.0": 13.5703692065,
			"0.001": 12.0570236058,
			"0.002": 12.3551238681,
			"0.003": 11.6107895172,
			"0.004": 12.0824046208,
			"0.005": 10.0097814236,
			"0.006": 8.73274595731,
			"0.007": 8.68467333573,
			"0.008": 7.89463594055,
			"0.009": 6.38809751927,
			"0.01": 7.10440424787,
			"0.011": 6.79364807003,
			"0.012": 7.27918262748,
			"0.013": 8.25663304452,
			"0.014": 5.34149836257,
			"0.015": 0.404349030676,
			"0.016": 0.0,
			"0.017": 0.0,
			"0.018": 0.0,
			"0.019": 0.0,
			"0.02": 0.0,
			"0.021": 0.0,
			"0.022": 0.0,
			"0.023": 0.0,
			"0.024": 0.0,
			"0.025": 0.0098782991358
		}
	}
}
