{
	 "smiles": "OCC(=O)N1CCCC2=C1C=CC=C2", 
	 "Tm": 354.15, 
	 "num_atms": 27, 
	 "gaussian": { 
		 "optdone": 1, 
		 "sigma_profile": "yes", 
		 "theory": "DFT", 
		 "functional": "B3LYP", 
		 "basiset": "6-31G**", 
		 "properties": { 
			 "R2extent": 2677.9191, 
			 "electric_dipole_moment_norm": 2.48648014872, 
			 "electric_quadrupole_moment_norm": 9.22684155332, 
			 "total_energy": -632.204573268, 
			 "HOMO_LUMO_gap": 0.20328, 
			 "cosmo_polarized_energy": -13.51, 
			 "cosmo_cavitation_energy": 28.84, 
			 "cosmo_dispersion_energy": -20.86, 
			 "cosmo_repulsion_energy": 1.65, 
			 "cosmo_total_nonelectrostatic_energy": 9.63, 
			 "SMD_solvation_energy": 4.94 
		},
		"coords": [
			{
				"x": -2.5540964935,
				"y": -0.7059036746,
				"z": 1.3840033545,
				"element": "O" 
			},
			{
				"x": -1.5847243148,
				"y": -1.6937403808,
				"z": 1.671173531,
				"element": "C" 
			},
			{
				"x": -0.1341970988,
				"y": -1.2059354275,
				"z": 1.8384285582,
				"element": "C" 
			},
			{
				"x": 0.5638275868,
				"y": -1.7312898388,
				"z": 2.7013086906,
				"element": "O" 
			},
			{
				"x": 0.3438654607,
				"y": -0.1466329386,
				"z": 1.0914925527,
				"element": "N" 
			},
			{
				"x": 1.6285107805,
				"y": 0.4227228924,
				"z": 1.5746805032,
				"element": "C" 
			},
			{
				"x": 1.8874917681,
				"y": 1.8331474475,
				"z": 1.0253753494,
				"element": "C" 
			},
			{
				"x": 0.5608399682,
				"y": 2.5693804488,
				"z": 0.7657890951,
				"element": "C" 
			},
			{
				"x": -0.190826261,
				"y": 1.7772963089,
				"z": -0.2721323852,
				"element": "C" 
			},
			{
				"x": -0.2389592661,
				"y": 0.3815346083,
				"z": -0.0958650572,
				"element": "C" 
			},
			{
				"x": -0.7863144833,
				"y": -0.4303549273,
				"z": -1.0948928561,
				"element": "C" 
			},
			{
				"x": -1.3508063321,
				"y": 0.1461098197,
				"z": -2.2310708735,
				"element": "C" 
			},
			{
				"x": -1.3353649536,
				"y": 1.5315360264,
				"z": -2.3993787523,
				"element": "C" 
			},
			{
				"x": -0.7381541702,
				"y": 2.3362319422,
				"z": -1.4280649447,
				"element": "C" 
			},
			{
				"x": -2.5726152561,
				"y": -0.0829367663,
				"z": 2.1215179312,
				"element": "H" 
			},
			{
				"x": -1.7929261113,
				"y": -2.2322867953,
				"z": 2.6043915238,
				"element": "H" 
			},
			{
				"x": -1.6396376329,
				"y": -2.4274108263,
				"z": 0.8608000381,
				"element": "H" 
			},
			{
				"x": 1.5685400298,
				"y": 0.4345943052,
				"z": 2.665609823,
				"element": "H" 
			},
			{
				"x": 2.4483453409,
				"y": -0.257718146,
				"z": 1.3184149532,
				"element": "H" 
			},
			{
				"x": 2.4440344509,
				"y": 1.7819936213,
				"z": 0.0832021603,
				"element": "H" 
			},
			{
				"x": 2.5153182325,
				"y": 2.3764642136,
				"z": 1.7396745179,
				"element": "H" 
			},
			{
				"x": 0.7357130272,
				"y": 3.5937174722,
				"z": 0.4229210451,
				"element": "H" 
			},
			{
				"x": -0.0104254532,
				"y": 2.6339115828,
				"z": 1.7031960257,
				"element": "H" 
			},
			{
				"x": -0.7665275552,
				"y": -1.5091130726,
				"z": -0.988255052,
				"element": "H" 
			},
			{
				"x": -1.7877556438,
				"y": -0.4923222074,
				"z": -2.993193898,
				"element": "H" 
			},
			{
				"x": -1.7667245439,
				"y": 1.9803002253,
				"z": -3.2890953366,
				"element": "H" 
			},
			{
				"x": -0.6912310757,
				"y": 3.4137040871,
				"z": -1.5662304973,
				"element": "H" 
			}
		],
		 "valence_orbital": [ 
			{
				"type": "occ",
				"energy": -0.29132,
				"method": "rhf"
			},
			{
				"type": "occ",
				"energy": -0.28227,
				"method": "rhf"
			},
			{
				"type": "occ",
				"energy": -0.24598,
				"method": "rhf"
			},
			{
				"type": "occ",
				"energy": -0.24231,
				"method": "rhf"
			},
			{
				"type": "occ",
				"energy": -0.21738,
				"method": "rhf"
			},
			{
				"type": "unocc",
				"energy": -0.0141,
				"method": "rhf"
			},
			{
				"type": "unocc",
				"energy": -0.00085,
				"method": "rhf"
			},
			{
				"type": "unocc",
				"energy": 0.0275,
				"method": "rhf"
			},
			{
				"type": "unocc",
				"energy": 0.07623,
				"method": "rhf"
			},
			{
				"type": "unocc",
				"energy": 0.0899,
				"method": "rhf"
			}
		],
		"cosmo_sigma_profile": { 
			"-0.025": 0.0,
			"-0.024": 0.0,
			"-0.023": 0.0,
			"-0.022": 0.0,
			"-0.021": 0.0,
			"-0.02": 0.0,
			"-0.019": 0.0,
			"-0.018": 0.0,
			"-0.017": 0.102112372212,
			"-0.016": 0.883356041535,
			"-0.015": 1.01101387926,
			"-0.014": 1.14110854633,
			"-0.013": 1.14727889807,
			"-0.012": 0.517456178645,
			"-0.011": 1.03925640801,
			"-0.01": 0.847749200154,
			"-0.009": 0.750945638973,
			"-0.008": 2.76029329547,
			"-0.007": 4.16924777104,
			"-0.006": 6.18311071279,
			"-0.005": 12.7339062979,
			"-0.004": 25.0011683292,
			"-0.003": 29.1582070681,
			"-0.002": 24.6757499995,
			"-0.001": 20.2002280014,
			"0.0": 13.3094081524,
			"0.001": 9.3438701955,
			"0.002": 8.9919510811,
			"0.003": 7.18994291918,
			"0.004": 9.06736461247,
			"0.005": 8.82692080926,
			"0.006": 6.94613629339,
			"0.007": 4.48641973695,
			"0.008": 3.52047452531,
			"0.009": 2.20305841731,
			"0.01": 2.73730447517,
			"0.011": 3.48073594156,
			"0.012": 3.49044523956,
			"0.013": 6.48212912577,
			"0.014": 4.12354454666,
			"0.015": 0.304048712875,
			"0.016": 0.0,
			"0.017": 0.0,
			"0.018": 0.0,
			"0.019": 0.0,
			"0.02": 0.0,
			"0.021": 0.0,
			"0.022": 0.0,
			"0.023": 0.0,
			"0.024": 0.0,
			"0.025": 0.0
		}
	}
}
