{
	 "smiles": "NS(=O)(=O)CC#N", 
	 "Tm": 374.15, 
	 "num_atms": 11, 
	 "gaussian": { 
		 "optdone": 1, 
		 "sigma_profile": "yes", 
		 "theory": "DFT", 
		 "functional": "B3LYP", 
		 "basiset": "6-31G**", 
		 "properties": { 
			 "R2extent": 1752.6322, 
			 "electric_dipole_moment_norm": 2.83854828389, 
			 "electric_quadrupole_moment_norm": 15.0494262379, 
			 "total_energy": -736.665990293, 
			 "HOMO_LUMO_gap": 0.29731, 
			 "cosmo_polarized_energy": -18.55, 
			 "cosmo_cavitation_energy": 17.75, 
			 "cosmo_dispersion_energy": -13.2, 
			 "cosmo_repulsion_energy": 1.09, 
			 "cosmo_total_nonelectrostatic_energy": 5.63, 
			 "SMD_solvation_energy": 4.27 
		},
		"coords": [
			{
				"x": -1.8524673165,
				"y": -0.7313699817,
				"z": 0.1573171526,
				"element": "N" 
			},
			{
				"x": -1.3153719165,
				"y": -1.6992976808,
				"z": 1.4231119241,
				"element": "S" 
			},
			{
				"x": -1.8061983429,
				"y": -1.1073640144,
				"z": 2.6662301629,
				"element": "O" 
			},
			{
				"x": -1.5093370913,
				"y": -3.1067806007,
				"z": 1.0864721065,
				"element": "O" 
			},
			{
				"x": 0.4907884249,
				"y": -1.3694093285,
				"z": 1.395930882,
				"element": "C" 
			},
			{
				"x": 1.1074239988,
				"y": -1.7139778958,
				"z": 0.1252796723,
				"element": "C" 
			},
			{
				"x": 1.5818851327,
				"y": -1.9835795579,
				"z": -0.8985027757,
				"element": "N" 
			},
			{
				"x": -2.6018350115,
				"y": -0.1264540449,
				"z": 0.4817573212,
				"element": "H" 
			},
			{
				"x": -2.1263302199,
				"y": -1.2932459234,
				"z": -0.644132143,
				"element": "H" 
			},
			{
				"x": 0.9061036146,
				"y": -1.9689256636,
				"z": 2.2115420639,
				"element": "H" 
			},
			{
				"x": 0.6210387276,
				"y": -0.3088953083,
				"z": 1.6242936332,
				"element": "H" 
			}
		],
		 "valence_orbital": [ 
			{
				"type": "occ",
				"energy": -0.34906,
				"method": "rhf"
			},
			{
				"type": "occ",
				"energy": -0.34511,
				"method": "rhf"
			},
			{
				"type": "occ",
				"energy": -0.33224,
				"method": "rhf"
			},
			{
				"type": "occ",
				"energy": -0.32866,
				"method": "rhf"
			},
			{
				"type": "occ",
				"energy": -0.31571,
				"method": "rhf"
			},
			{
				"type": "unocc",
				"energy": -0.0184,
				"method": "rhf"
			},
			{
				"type": "unocc",
				"energy": 0.01383,
				"method": "rhf"
			},
			{
				"type": "unocc",
				"energy": 0.03449,
				"method": "rhf"
			},
			{
				"type": "unocc",
				"energy": 0.06018,
				"method": "rhf"
			},
			{
				"type": "unocc",
				"energy": 0.0666,
				"method": "rhf"
			}
		],
		"cosmo_sigma_profile": { 
			"-0.025": 0.0,
			"-0.024": 0.0,
			"-0.023": 0.0,
			"-0.022": 0.0,
			"-0.021": 0.0,
			"-0.02": 0.0,
			"-0.019": 0.0,
			"-0.018": 0.0,
			"-0.017": 0.0,
			"-0.016": 1.29303611092,
			"-0.015": 2.58901013478,
			"-0.014": 2.19508707493,
			"-0.013": 3.6591051592,
			"-0.012": 6.95091030393,
			"-0.011": 6.17133583178,
			"-0.01": 4.70252139572,
			"-0.009": 4.98165557646,
			"-0.008": 5.64887441553,
			"-0.007": 4.20136476266,
			"-0.006": 3.58658410557,
			"-0.005": 3.26949388201,
			"-0.004": 4.33044522105,
			"-0.003": 2.84145705756,
			"-0.002": 2.68270637825,
			"-0.001": 4.68115710396,
			"0.0": 3.56208847017,
			"0.001": 3.77440052682,
			"0.002": 3.9918501705,
			"0.003": 4.68672690255,
			"0.004": 6.28927597409,
			"0.005": 4.98552903324,
			"0.006": 6.07604669809,
			"0.007": 6.51994343228,
			"0.008": 7.32653806742,
			"0.009": 9.01774272,
			"0.01": 15.09336504,
			"0.011": 5.58018053695,
			"0.012": 1.29910810426,
			"0.013": 0.0262158792764,
			"0.014": 0.0,
			"0.015": 0.0,
			"0.016": 0.0,
			"0.017": 0.0,
			"0.018": 0.0,
			"0.019": 0.0,
			"0.02": 0.0,
			"0.021": 0.0,
			"0.022": 0.0,
			"0.023": 0.0,
			"0.024": 0.0,
			"0.025": 0.0
		}
	}
}
