{
	 "smiles": "COC1=CC2=C(C=CNC2=O)C=C1", 
	 "Tm": 475.15, 
	 "num_atms": 22, 
	 "gaussian": { 
		 "optdone": 1, 
		 "sigma_profile": "yes", 
		 "theory": "DFT", 
		 "functional": "B3LYP", 
		 "basiset": "6-31G**", 
		 "properties": { 
			 "R2extent": 2709.8798, 
			 "electric_dipole_moment_norm": 2.09404107887, 
			 "electric_quadrupole_moment_norm": 17.7229858582, 
			 "total_energy": -591.700696893, 
			 "HOMO_LUMO_gap": 0.16534, 
			 "cosmo_polarized_energy": -13.49, 
			 "cosmo_cavitation_energy": 25.92, 
			 "cosmo_dispersion_energy": -19.46, 
			 "cosmo_repulsion_energy": 1.52, 
			 "cosmo_total_nonelectrostatic_energy": 7.97, 
			 "SMD_solvation_energy": 5.94 
		},
		"coords": [
			{
				"x": -0.3934002468,
				"y": -3.6641540088,
				"z": -0.2119047849,
				"element": "C" 
			},
			{
				"x": 0.49473797,
				"y": -3.0086721035,
				"z": -1.1063106229,
				"element": "O" 
			},
			{
				"x": 0.8262446752,
				"y": -1.7141788059,
				"z": -0.8406505026,
				"element": "C" 
			},
			{
				"x": 0.3620426655,
				"y": -0.9780659343,
				"z": 0.2427843473,
				"element": "C" 
			},
			{
				"x": 0.7779496263,
				"y": 0.353590074,
				"z": 0.4088018037,
				"element": "C" 
			},
			{
				"x": 1.6652004942,
				"y": 0.9669859503,
				"z": -0.5084312702,
				"element": "C" 
			},
			{
				"x": 2.066205393,
				"y": 2.3353060295,
				"z": -0.3001630908,
				"element": "C" 
			},
			{
				"x": 1.5888664987,
				"y": 3.0141604191,
				"z": 0.7692955175,
				"element": "C" 
			},
			{
				"x": 0.7242434612,
				"y": 2.4100622361,
				"z": 1.6594412447,
				"element": "N" 
			},
			{
				"x": 0.2612571551,
				"y": 1.0983886033,
				"z": 1.5718356957,
				"element": "C" 
			},
			{
				"x": -0.5094933499,
				"y": 0.6496139677,
				"z": 2.417612681,
				"element": "O" 
			},
			{
				"x": 2.1202415364,
				"y": 0.1924026802,
				"z": -1.600639304,
				"element": "C" 
			},
			{
				"x": 1.7122226356,
				"y": -1.1156907258,
				"z": -1.7645786713,
				"element": "C" 
			},
			{
				"x": -0.5233014413,
				"y": -4.6741306539,
				"z": -0.6031116273,
				"element": "H" 
			},
			{
				"x": -1.3679021898,
				"y": -3.1615218009,
				"z": -0.1712524179,
				"element": "H" 
			},
			{
				"x": 0.0225200782,
				"y": -3.7173688073,
				"z": 0.802057486,
				"element": "H" 
			},
			{
				"x": -0.3173451742,
				"y": -1.3829454448,
				"z": 0.9822340963,
				"element": "H" 
			},
			{
				"x": 2.7447804183,
				"y": 2.818195937,
				"z": -0.993806091,
				"element": "H" 
			},
			{
				"x": 1.8469089955,
				"y": 4.0435591772,
				"z": 0.9884548234,
				"element": "H" 
			},
			{
				"x": 0.3715224384,
				"y": 2.9232362446,
				"z": 2.4564982039,
				"element": "H" 
			},
			{
				"x": 2.8019664785,
				"y": 0.6387689892,
				"z": -2.3196818354,
				"element": "H" 
			},
			{
				"x": 2.0593318817,
				"y": -1.713142023,
				"z": -2.6015856813,
				"element": "H" 
			}
		],
		 "valence_orbital": [ 
			{
				"type": "occ",
				"energy": -0.32439,
				"method": "rhf"
			},
			{
				"type": "occ",
				"energy": -0.2554,
				"method": "rhf"
			},
			{
				"type": "occ",
				"energy": -0.25275,
				"method": "rhf"
			},
			{
				"type": "occ",
				"energy": -0.24973,
				"method": "rhf"
			},
			{
				"type": "occ",
				"energy": -0.19823,
				"method": "rhf"
			},
			{
				"type": "unocc",
				"energy": -0.03289,
				"method": "rhf"
			},
			{
				"type": "unocc",
				"energy": -0.01902,
				"method": "rhf"
			},
			{
				"type": "unocc",
				"energy": 0.04428,
				"method": "rhf"
			},
			{
				"type": "unocc",
				"energy": 0.07489,
				"method": "rhf"
			},
			{
				"type": "unocc",
				"energy": 0.09048,
				"method": "rhf"
			}
		],
		"cosmo_sigma_profile": { 
			"-0.025": 0.0,
			"-0.024": 0.0,
			"-0.023": 0.0,
			"-0.022": 0.0,
			"-0.021": 0.0,
			"-0.02": 0.0,
			"-0.019": 0.0,
			"-0.018": 0.0,
			"-0.017": 0.0,
			"-0.016": 0.354726623655,
			"-0.015": 1.46820383871,
			"-0.014": 1.07384178531,
			"-0.013": 1.22058054078,
			"-0.012": 1.05026610869,
			"-0.011": 1.06626325977,
			"-0.01": 1.4776695147,
			"-0.009": 2.09513385872,
			"-0.008": 2.77279904501,
			"-0.007": 4.7463921937,
			"-0.006": 13.4223756905,
			"-0.005": 17.7776443124,
			"-0.004": 15.6857964496,
			"-0.003": 14.8983901105,
			"-0.002": 9.96968066219,
			"-0.001": 8.70031806793,
			"0.0": 12.7840007863,
			"0.001": 12.8460097692,
			"0.002": 15.3643554363,
			"0.003": 21.3396516815,
			"0.004": 15.388229821,
			"0.005": 5.55027313447,
			"0.006": 2.98970704828,
			"0.007": 2.33007174498,
			"0.008": 2.49919906705,
			"0.009": 2.33718377993,
			"0.01": 2.68104203357,
			"0.011": 1.51113804182,
			"0.012": 2.00737382293,
			"0.013": 2.71768036362,
			"0.014": 5.99115591996,
			"0.015": 1.05302135295,
			"0.016": 0.0,
			"0.017": 0.0,
			"0.018": 0.0,
			"0.019": 0.0,
			"0.02": 0.0,
			"0.021": 0.0,
			"0.022": 0.0,
			"0.023": 0.0,
			"0.024": 0.0,
			"0.025": 0.0
		}
	}
}
