{
	 "smiles": "FC1=NC=CC=C1I", 
	 "Tm": 318.65, 
	 "num_atms": 11, 
	 "gaussian": { 
		 "optdone": 1, 
		 "sigma_profile": "no", 
		 "theory": "DFT", 
		 "functional": "B3LYP", 
		 "basiset": "6-31G**", 
		 "properties": { 
			 "R2extent": 1684.2989, 
			 "electric_dipole_moment_norm": 3.12822958876, 
			 "electric_quadrupole_moment_norm": 9.07315552606, 
			 "total_energy": -358.30549169, 
			 "HOMO_LUMO_gap": 0.2041, 
			 "cosmo_polarized_energy": -97037.75, 
			 "cosmo_cavitation_energy": 19.02, 
			 "cosmo_dispersion_energy": -15.63, 
			 "cosmo_repulsion_energy": 1.23, 
			 "cosmo_total_nonelectrostatic_energy": 4.62, 
			 "SMD_solvation_energy": 1.53 
		},
		"coords": [
			{
				"x": -2.4283316218,
				"y": 1.5202244809,
				"z": 0.0303008592,
				"element": "F" 
			},
			{
				"x": -1.8999314542,
				"y": 0.5414723687,
				"z": -0.709326857,
				"element": "C" 
			},
			{
				"x": -2.1400711804,
				"y": -0.6864523846,
				"z": -0.3052277379,
				"element": "N" 
			},
			{
				"x": -1.6254944793,
				"y": -1.6936956697,
				"z": -1.0234067107,
				"element": "C" 
			},
			{
				"x": -0.8558957239,
				"y": -1.4949613088,
				"z": -2.1668023739,
				"element": "C" 
			},
			{
				"x": -0.610798172,
				"y": -0.1837681389,
				"z": -2.5816466371,
				"element": "C" 
			},
			{
				"x": -1.1424802312,
				"y": 0.8693785763,
				"z": -1.8400486819,
				"element": "C" 
			},
			{
				"x": -0.8216222777,
				"y": 2.8759438676,
				"z": -2.3943887545,
				"element": "I" 
			},
			{
				"x": -1.8424294697,
				"y": -2.6962073922,
				"z": -0.6625803358,
				"element": "H" 
			},
			{
				"x": -0.4569705984,
				"y": -2.3376401563,
				"z": -2.721005439,
				"element": "H" 
			},
			{
				"x": -0.0168747913,
				"y": 0.019105757,
				"z": -3.4660673314,
				"element": "H" 
			}
		],
		 "valence_orbital": [ 
			{
				"type": "occ",
				"energy": -0.32898,
				"method": "rhf"
			},
			{
				"type": "occ",
				"energy": -0.2921,
				"method": "rhf"
			},
			{
				"type": "occ",
				"energy": -0.29033,
				"method": "rhf"
			},
			{
				"type": "occ",
				"energy": -0.27512,
				"method": "rhf"
			},
			{
				"type": "occ",
				"energy": -0.25363,
				"method": "rhf"
			},
			{
				"type": "unocc",
				"energy": -0.04953,
				"method": "rhf"
			},
			{
				"type": "unocc",
				"energy": -0.04786,
				"method": "rhf"
			},
			{
				"type": "unocc",
				"energy": -0.02515,
				"method": "rhf"
			},
			{
				"type": "unocc",
				"energy": 0.04154,
				"method": "rhf"
			},
			{
				"type": "unocc",
				"energy": 0.04616,
				"method": "rhf"
			}
		],
		"cosmo_sigma_profile": { 
			"0.0": 0.0,
			"0.0": 0.0,
			"0.0": 0.0,
			"0.0": 0.0,
			"0.0": 0.0,
			"0.0": 0.0,
			"0.0": 0.0,
			"0.0": 0.0,
			"0.0": 0.0,
			"0.0": 0.0,
			"0.0": 0.0,
			"0.0": 0.0,
			"0.0": 0.0,
			"0.0": 0.0,
			"0.0": 0.0,
			"0.0": 0.0,
			"0.0": 0.0,
			"0.0": 0.0,
			"0.0": 0.0,
			"0.0": 0.0,
			"0.0": 0.0,
			"0.0": 0.0,
			"0.0": 0.0,
			"0.0": 0.0,
			"0.0": 0.0,
			"0.0": 0.0,
			"0.0": 0.0,
			"0.0": 0.0,
			"0.0": 0.0,
			"0.0": 0.0,
			"0.0": 0.0,
			"0.0": 0.0,
			"0.0": 0.0,
			"0.0": 0.0,
			"0.0": 0.0,
			"0.0": 0.0,
			"0.0": 0.0,
			"0.0": 0.0,
			"0.0": 0.0,
			"0.0": 0.0,
			"0.0": 0.0,
			"0.0": 0.0,
			"0.0": 0.0,
			"0.0": 0.0,
			"0.0": 0.0,
			"0.0": 0.0,
			"0.0": 0.0,
			"0.0": 0.0,
			"0.0": 0.0,
			"0.0": 0.0,
			"0.0": 0.0
		}
	}
}
