{
	 "smiles": "O=CC1=CC(=CS1)N1C=CN=C1", 
	 "Tm": 397.15, 
	 "num_atms": 18, 
	 "gaussian": { 
		 "optdone": 1, 
		 "sigma_profile": "yes", 
		 "theory": "DFT", 
		 "functional": "B3LYP", 
		 "basiset": "6-31G**", 
		 "properties": { 
			 "R2extent": 4585.0403, 
			 "electric_dipole_moment_norm": 1.07560231498, 
			 "electric_quadrupole_moment_norm": 24.5896737595, 
			 "total_energy": -891.338730376, 
			 "HOMO_LUMO_gap": 0.15, 
			 "cosmo_polarized_energy": -15.62, 
			 "cosmo_cavitation_energy": 24.88, 
			 "cosmo_dispersion_energy": -18.74, 
			 "cosmo_repulsion_energy": 1.4, 
			 "cosmo_total_nonelectrostatic_energy": 7.54, 
			 "SMD_solvation_energy": 4.51 
		},
		"coords": [
			{
				"x": -3.4872876606,
				"y": 4.6193551671,
				"z": 1.3559863623,
				"element": "O" 
			},
			{
				"x": -3.0845347207,
				"y": 3.4724136281,
				"z": 1.4250390218,
				"element": "C" 
			},
			{
				"x": -2.5975463374,
				"y": 2.6984235742,
				"z": 0.2855205948,
				"element": "C" 
			},
			{
				"x": -2.130180574,
				"y": 1.4029990629,
				"z": 0.2944638381,
				"element": "C" 
			},
			{
				"x": -1.733010374,
				"y": 0.9534051064,
				"z": -0.9968799358,
				"element": "C" 
			},
			{
				"x": -1.9106789297,
				"y": 1.9265329055,
				"z": -1.9590098751,
				"element": "C" 
			},
			{
				"x": -2.5570971475,
				"y": 3.3872268413,
				"z": -1.311690633,
				"element": "S" 
			},
			{
				"x": -1.2203842675,
				"y": -0.3358336265,
				"z": -1.249670388,
				"element": "N" 
			},
			{
				"x": -1.0199250211,
				"y": -1.3539100558,
				"z": -0.3238995085,
				"element": "C" 
			},
			{
				"x": -0.5100346314,
				"y": -2.4062791184,
				"z": -1.0340236889,
				"element": "C" 
			},
			{
				"x": -0.3849307116,
				"y": -2.0819293213,
				"z": -2.368840724,
				"element": "N" 
			},
			{
				"x": -0.8144874793,
				"y": -0.8476396439,
				"z": -2.4644559798,
				"element": "C" 
			},
			{
				"x": -3.0598309863,
				"y": 2.9207174065,
				"z": 2.3892241142,
				"element": "H" 
			},
			{
				"x": -2.0788708609,
				"y": 0.8082116888,
				"z": 1.1982716924,
				"element": "H" 
			},
			{
				"x": -1.6950544227,
				"y": 1.8604576625,
				"z": -3.0154302253,
				"element": "H" 
			},
			{
				"x": -1.252198604,
				"y": -1.2367837609,
				"z": 0.7216332098,
				"element": "H" 
			},
			{
				"x": -0.2253079429,
				"y": -3.380037096,
				"z": -0.6608032393,
				"element": "H" 
			},
			{
				"x": -0.8586393284,
				"y": -0.2686304205,
				"z": -3.3754346356,
				"element": "H" 
			}
		],
		 "valence_orbital": [ 
			{
				"type": "occ",
				"energy": -0.27896,
				"method": "rhf"
			},
			{
				"type": "occ",
				"energy": -0.27818,
				"method": "rhf"
			},
			{
				"type": "occ",
				"energy": -0.2721,
				"method": "rhf"
			},
			{
				"type": "occ",
				"energy": -0.25316,
				"method": "rhf"
			},
			{
				"type": "occ",
				"energy": -0.23555,
				"method": "rhf"
			},
			{
				"type": "unocc",
				"energy": -0.08555,
				"method": "rhf"
			},
			{
				"type": "unocc",
				"energy": -0.02234,
				"method": "rhf"
			},
			{
				"type": "unocc",
				"energy": 0.00781,
				"method": "rhf"
			},
			{
				"type": "unocc",
				"energy": 0.03801,
				"method": "rhf"
			},
			{
				"type": "unocc",
				"energy": 0.05976,
				"method": "rhf"
			}
		],
		"cosmo_sigma_profile": { 
			"-0.025": 0.0,
			"-0.024": 0.0,
			"-0.023": 0.0,
			"-0.022": 0.0,
			"-0.021": 0.0,
			"-0.02": 0.0,
			"-0.019": 0.0,
			"-0.018": 0.0,
			"-0.017": 0.0,
			"-0.016": 0.0,
			"-0.015": 0.0,
			"-0.014": 0.0,
			"-0.013": 0.00437250078185,
			"-0.012": 1.40087011743,
			"-0.011": 4.36637734981,
			"-0.01": 5.22153409428,
			"-0.009": 7.09337856708,
			"-0.008": 7.05342674951,
			"-0.007": 8.68611728436,
			"-0.006": 7.71945534536,
			"-0.005": 7.96976757746,
			"-0.004": 9.40629698287,
			"-0.003": 9.5891823762,
			"-0.002": 9.98255253649,
			"-0.001": 14.2440558542,
			"0.0": 18.3870385031,
			"0.001": 23.3965838254,
			"0.002": 13.9271064016,
			"0.003": 7.88645061627,
			"0.004": 6.65447966621,
			"0.005": 7.05993372693,
			"0.006": 3.67418550299,
			"0.007": 3.15777678214,
			"0.008": 3.32496812818,
			"0.009": 3.97153407363,
			"0.01": 4.39015169822,
			"0.011": 5.29777619099,
			"0.012": 3.7510114244,
			"0.013": 1.45991515614,
			"0.014": 0.924671020883,
			"0.015": 1.22883805013,
			"0.016": 1.13511672603,
			"0.017": 0.947546369557,
			"0.018": 0.315692318336,
			"0.019": 0.0,
			"0.02": 0.0,
			"0.021": 0.0,
			"0.022": 0.0,
			"0.023": 0.0,
			"0.024": 0.0,
			"0.025": 0.0
		}
	}
}
