{
	 "smiles": "CC(N)C(=O)NC1=CC=C(C=C1)N1C=NC=N1", 
	 "Tm": 443.15, 
	 "num_atms": 30, 
	 "gaussian": { 
		 "optdone": 1, 
		 "sigma_profile": "yes", 
		 "theory": "DFT", 
		 "functional": "B3LYP", 
		 "basiset": "6-31G**", 
		 "properties": { 
			 "R2extent": 7264.9633, 
			 "electric_dipole_moment_norm": 3.3454655416, 
			 "electric_quadrupole_moment_norm": 17.3859869895, 
			 "total_energy": -775.988171722, 
			 "HOMO_LUMO_gap": 0.1853, 
			 "cosmo_polarized_energy": -20.47, 
			 "cosmo_cavitation_energy": 34.63, 
			 "cosmo_dispersion_energy": -25.09, 
			 "cosmo_repulsion_energy": 1.92, 
			 "cosmo_total_nonelectrostatic_energy": 11.46, 
			 "SMD_solvation_energy": 3.43 
		},
		"coords": [
			{
				"x": -2.3714168763,
				"y": 0.3446622506,
				"z": 4.3992762946,
				"element": "C" 
			},
			{
				"x": -0.9533643071,
				"y": -0.2391192761,
				"z": 4.5190425135,
				"element": "C" 
			},
			{
				"x": -0.4425232244,
				"y": -0.0082547686,
				"z": 5.8652252656,
				"element": "N" 
			},
			{
				"x": -0.0532498771,
				"y": 0.3952091935,
				"z": 3.4350987654,
				"element": "C" 
			},
			{
				"x": 0.5867866391,
				"y": 1.4146122181,
				"z": 3.6617297102,
				"element": "O" 
			},
			{
				"x": -0.0664112627,
				"y": -0.2570106946,
				"z": 2.2226286683,
				"element": "N" 
			},
			{
				"x": 0.5786603466,
				"y": 0.0905743491,
				"z": 1.0183392604,
				"element": "C" 
			},
			{
				"x": 0.377886033,
				"y": -0.7435323421,
				"z": -0.0935418609,
				"element": "C" 
			},
			{
				"x": 0.9748978165,
				"y": -0.463652715,
				"z": -1.3154724967,
				"element": "C" 
			},
			{
				"x": 1.7962678182,
				"y": 0.6604624311,
				"z": -1.4404969707,
				"element": "C" 
			},
			{
				"x": 2.0171947999,
				"y": 1.4857735138,
				"z": -0.3350057441,
				"element": "C" 
			},
			{
				"x": 1.4083507621,
				"y": 1.2149645921,
				"z": 0.88788629,
				"element": "C" 
			},
			{
				"x": 2.3978166582,
				"y": 0.9525061891,
				"z": -2.6934985732,
				"element": "N" 
			},
			{
				"x": 2.8415186898,
				"y": 2.1395378601,
				"z": -3.1875396707,
				"element": "C" 
			},
			{
				"x": 3.3207983288,
				"y": 1.9855254409,
				"z": -4.4079928268,
				"element": "N" 
			},
			{
				"x": 3.1392881794,
				"y": 0.6523995734,
				"z": -4.6286827696,
				"element": "C" 
			},
			{
				"x": 2.5851852688,
				"y": -0.0189412181,
				"z": -3.6317688526,
				"element": "N" 
			},
			{
				"x": -2.8116024469,
				"y": 0.1462793049,
				"z": 3.4167661378,
				"element": "H" 
			},
			{
				"x": -3.0099607661,
				"y": -0.089457132,
				"z": 5.1720794498,
				"element": "H" 
			},
			{
				"x": -2.3425540176,
				"y": 1.4297354193,
				"z": 4.543496481,
				"element": "H" 
			},
			{
				"x": -1.0032485535,
				"y": -1.3249947413,
				"z": 4.3583209,
				"element": "H" 
			},
			{
				"x": -0.2175382858,
				"y": 0.9837455423,
				"z": 5.9401871194,
				"element": "H" 
			},
			{
				"x": 0.4482425289,
				"y": -0.4889524438,
				"z": 5.9765630562,
				"element": "H" 
			},
			{
				"x": -0.6265187286,
				"y": -1.0971525236,
				"z": 2.1795813044,
				"element": "H" 
			},
			{
				"x": -0.259360163,
				"y": -1.6201931931,
				"z": -0.0033993404,
				"element": "H" 
			},
			{
				"x": 0.8191297012,
				"y": -1.1049361496,
				"z": -2.1742011409,
				"element": "H" 
			},
			{
				"x": 2.6834329864,
				"y": 2.3386878714,
				"z": -0.411201584,
				"element": "H" 
			},
			{
				"x": 1.5777290043,
				"y": 1.8519155568,
				"z": 1.7440220734,
				"element": "H" 
			},
			{
				"x": 2.7758290061,
				"y": 3.0689536475,
				"z": -2.6412682878,
				"element": "H" 
			},
			{
				"x": 3.4247339419,
				"y": 0.161252244,
				"z": -5.5487731716,
				"element": "H" 
			}
		],
		 "valence_orbital": [ 
			{
				"type": "occ",
				"energy": -0.27491,
				"method": "rhf"
			},
			{
				"type": "occ",
				"energy": -0.27294,
				"method": "rhf"
			},
			{
				"type": "occ",
				"energy": -0.26913,
				"method": "rhf"
			},
			{
				"type": "occ",
				"energy": -0.24612,
				"method": "rhf"
			},
			{
				"type": "occ",
				"energy": -0.22461,
				"method": "rhf"
			},
			{
				"type": "unocc",
				"energy": -0.03931,
				"method": "rhf"
			},
			{
				"type": "unocc",
				"energy": -0.02051,
				"method": "rhf"
			},
			{
				"type": "unocc",
				"energy": 0.00632,
				"method": "rhf"
			},
			{
				"type": "unocc",
				"energy": 0.04207,
				"method": "rhf"
			},
			{
				"type": "unocc",
				"energy": 0.05161,
				"method": "rhf"
			}
		],
		"cosmo_sigma_profile": { 
			"-0.025": 0.0,
			"-0.024": 0.0,
			"-0.023": 0.0,
			"-0.022": 0.0,
			"-0.021": 0.0,
			"-0.02": 0.0,
			"-0.019": 0.0,
			"-0.018": 0.0,
			"-0.017": 0.0,
			"-0.016": 0.221423786439,
			"-0.015": 1.02085708695,
			"-0.014": 1.6520856691,
			"-0.013": 1.36843985822,
			"-0.012": 1.49470759506,
			"-0.011": 2.96897083365,
			"-0.01": 6.12668800939,
			"-0.009": 6.49636964756,
			"-0.008": 9.03781166673,
			"-0.007": 10.3376068593,
			"-0.006": 12.255991254,
			"-0.005": 12.6307822599,
			"-0.004": 14.2341381002,
			"-0.003": 16.2864499082,
			"-0.002": 15.9087314942,
			"-0.001": 19.8799921239,
			"0.0": 20.7774306744,
			"0.001": 19.9643007146,
			"0.002": 17.270801231,
			"0.003": 21.3894046956,
			"0.004": 13.8063323428,
			"0.005": 5.62699713451,
			"0.006": 5.3255033768,
			"0.007": 5.23480811794,
			"0.008": 4.90999054942,
			"0.009": 4.16964256539,
			"0.01": 5.5312274978,
			"0.011": 3.97527766604,
			"0.012": 4.95910764511,
			"0.013": 4.77265263789,
			"0.014": 1.19899576007,
			"0.015": 1.43918984927,
			"0.016": 2.20751508398,
			"0.017": 0.392267239153,
			"0.018": 0.542558091311,
			"0.019": 0.370444188288,
			"0.02": 0.00110047187001,
			"0.021": 0.0,
			"0.022": 0.0,
			"0.023": 0.0,
			"0.024": 0.0,
			"0.025": 0.0
		}
	}
}
