{
	 "smiles": "CC1=NC2=C(C=NN2C(C)=C1CCC(O)=O)C(N)=O", 
	 "Tm": 556.15, 
	 "num_atms": 33, 
	 "gaussian": { 
		 "optdone": 1, 
		 "sigma_profile": "yes", 
		 "theory": "DFT", 
		 "functional": "B3LYP", 
		 "basiset": "6-31G**", 
		 "properties": { 
			 "R2extent": 7668.4821, 
			 "electric_dipole_moment_norm": 4.38953861926, 
			 "electric_quadrupole_moment_norm": 40.826638821, 
			 "total_energy": -910.419643379, 
			 "HOMO_LUMO_gap": 0.16679, 
			 "cosmo_polarized_energy": -29.56, 
			 "cosmo_cavitation_energy": 37.29, 
			 "cosmo_dispersion_energy": -26.33, 
			 "cosmo_repulsion_energy": 2.03, 
			 "cosmo_total_nonelectrostatic_energy": 13.0, 
			 "SMD_solvation_energy": 6.64 
		},
		"coords": [
			{
				"x": -0.1886142728,
				"y": -2.259664343,
				"z": 3.1392514233,
				"element": "C" 
			},
			{
				"x": 0.0040131135,
				"y": -2.0041466374,
				"z": 1.6647741044,
				"element": "C" 
			},
			{
				"x": -0.4539234864,
				"y": -2.9423386838,
				"z": 0.8508098812,
				"element": "N" 
			},
			{
				"x": -0.2891370279,
				"y": -2.7646443616,
				"z": -0.4739911784,
				"element": "C" 
			},
			{
				"x": -0.6420780725,
				"y": -3.5338297922,
				"z": -1.58934454,
				"element": "C" 
			},
			{
				"x": -0.1803530743,
				"y": -2.7816412683,
				"z": -2.6850248851,
				"element": "C" 
			},
			{
				"x": 0.4153699159,
				"y": -1.6349459866,
				"z": -2.3398480926,
				"element": "N" 
			},
			{
				"x": 0.3454059547,
				"y": -1.6312714915,
				"z": -0.9813888779,
				"element": "N" 
			},
			{
				"x": 0.8277214539,
				"y": -0.6413377253,
				"z": -0.1693809276,
				"element": "C" 
			},
			{
				"x": 1.4782461721,
				"y": 0.5082313377,
				"z": -0.8746325054,
				"element": "C" 
			},
			{
				"x": 0.6636246082,
				"y": -0.8119276295,
				"z": 1.1957753712,
				"element": "C" 
			},
			{
				"x": 1.1452294825,
				"y": 0.2353337176,
				"z": 2.1794185613,
				"element": "C" 
			},
			{
				"x": 0.1060705421,
				"y": 1.3379477554,
				"z": 2.4454925267,
				"element": "C" 
			},
			{
				"x": 0.5892480119,
				"y": 2.3469848054,
				"z": 3.4819082425,
				"element": "C" 
			},
			{
				"x": -0.2652391919,
				"y": 3.3710020891,
				"z": 3.744134076,
				"element": "O" 
			},
			{
				"x": 1.6471834971,
				"y": 2.2780899567,
				"z": 4.0548572803,
				"element": "O" 
			},
			{
				"x": -1.3369116607,
				"y": -4.838570319,
				"z": -1.6610993671,
				"element": "C" 
			},
			{
				"x": -1.689394,
				"y": -5.3693227399,
				"z": -0.4533203854,
				"element": "N" 
			},
			{
				"x": -1.5730631193,
				"y": -5.387296974,
				"z": -2.7342593949,
				"element": "O" 
			},
			{
				"x": 0.7724567993,
				"y": -2.3770421681,
				"z": 3.6532696955,
				"element": "H" 
			},
			{
				"x": -0.7636508089,
				"y": -3.1769836148,
				"z": 3.2685209418,
				"element": "H" 
			},
			{
				"x": -0.7194029999,
				"y": -1.4395839681,
				"z": 3.634759858,
				"element": "H" 
			},
			{
				"x": -0.268935355,
				"y": -3.0510162255,
				"z": -3.7284613614,
				"element": "H" 
			},
			{
				"x": 2.3103702475,
				"y": 0.1466136776,
				"z": -1.4870413188,
				"element": "H" 
			},
			{
				"x": 0.7693072613,
				"y": 0.9688562025,
				"z": -1.5700660524,
				"element": "H" 
			},
			{
				"x": 1.8440237637,
				"y": 1.2612885269,
				"z": -0.1789265662,
				"element": "H" 
			},
			{
				"x": 2.0693186024,
				"y": 0.7028837971,
				"z": 1.8317557945,
				"element": "H" 
			},
			{
				"x": 1.405419379,
				"y": -0.2292822474,
				"z": 3.1323062053,
				"element": "H" 
			},
			{
				"x": -0.1365952632,
				"y": 1.8724820182,
				"z": 1.5170710052,
				"element": "H" 
			},
			{
				"x": -0.8400105128,
				"y": 0.903480041,
				"z": 2.7963967056,
				"element": "H" 
			},
			{
				"x": -1.0673986211,
				"y": 3.2904598474,
				"z": 3.2084162096,
				"element": "H" 
			},
			{
				"x": -2.1513407183,
				"y": -6.2647750229,
				"z": -0.4505177625,
				"element": "H" 
			},
			{
				"x": -1.4649606201,
				"y": -4.8977325736,
				"z": 0.4130853331,
				"element": "H" 
			}
		],
		 "valence_orbital": [ 
			{
				"type": "occ",
				"energy": -0.28143,
				"method": "rhf"
			},
			{
				"type": "occ",
				"energy": -0.2647,
				"method": "rhf"
			},
			{
				"type": "occ",
				"energy": -0.24952,
				"method": "rhf"
			},
			{
				"type": "occ",
				"energy": -0.23864,
				"method": "rhf"
			},
			{
				"type": "occ",
				"energy": -0.22916,
				"method": "rhf"
			},
			{
				"type": "unocc",
				"energy": -0.06237,
				"method": "rhf"
			},
			{
				"type": "unocc",
				"energy": -0.02714,
				"method": "rhf"
			},
			{
				"type": "unocc",
				"energy": -0.00618,
				"method": "rhf"
			},
			{
				"type": "unocc",
				"energy": 0.0153,
				"method": "rhf"
			},
			{
				"type": "unocc",
				"energy": 0.03812,
				"method": "rhf"
			}
		],
		"cosmo_sigma_profile": { 
			"-0.025": 0.0,
			"-0.024": 0.0,
			"-0.023": 0.0,
			"-0.022": 0.0,
			"-0.021": 0.0,
			"-0.02": 0.0126491504309,
			"-0.019": 0.629144008166,
			"-0.018": 1.08481902113,
			"-0.017": 1.28957541652,
			"-0.016": 0.868604735765,
			"-0.015": 1.40123357836,
			"-0.014": 1.13665649914,
			"-0.013": 2.0765340485,
			"-0.012": 2.61640416714,
			"-0.011": 2.04117678338,
			"-0.01": 2.23124160148,
			"-0.009": 3.77662988456,
			"-0.008": 5.7791395987,
			"-0.007": 12.2217242249,
			"-0.006": 17.4118112966,
			"-0.005": 19.8132851161,
			"-0.004": 20.4659262619,
			"-0.003": 22.3081118639,
			"-0.002": 21.7017250784,
			"-0.001": 20.5540127948,
			"0.0": 13.1718578639,
			"0.001": 15.4184614944,
			"0.002": 16.7749777078,
			"0.003": 11.9538435535,
			"0.004": 9.92184668257,
			"0.005": 8.26811346575,
			"0.006": 6.51834443415,
			"0.007": 6.17581201909,
			"0.008": 5.35287072864,
			"0.009": 6.29061249935,
			"0.01": 6.76900451216,
			"0.011": 7.96018026086,
			"0.012": 6.96876039136,
			"0.013": 5.15219338265,
			"0.014": 6.22891230087,
			"0.015": 3.00751799021,
			"0.016": 0.217064563985,
			"0.017": 0.0,
			"0.018": 0.0,
			"0.019": 0.0,
			"0.02": 0.0,
			"0.021": 0.0,
			"0.022": 0.0,
			"0.023": 0.0,
			"0.024": 0.0,
			"0.025": 0.0
		}
	}
}
