{
	 "smiles": "COC1=C(CN2C(=O)C=CC2=O)C=CC=C1", 
	 "Tm": 367.15, 
	 "num_atms": 27, 
	 "gaussian": { 
		 "optdone": 1, 
		 "sigma_profile": "yes", 
		 "theory": "DFT", 
		 "functional": "B3LYP", 
		 "basiset": "6-31G**", 
		 "properties": { 
			 "R2extent": 3488.5891, 
			 "electric_dipole_moment_norm": 1.96333453848, 
			 "electric_quadrupole_moment_norm": 10.4167714072, 
			 "total_energy": -744.31907331, 
			 "HOMO_LUMO_gap": 0.12897, 
			 "cosmo_polarized_energy": -13.01, 
			 "cosmo_cavitation_energy": 31.62, 
			 "cosmo_dispersion_energy": -21.91, 
			 "cosmo_repulsion_energy": 1.69, 
			 "cosmo_total_nonelectrostatic_energy": 11.41, 
			 "SMD_solvation_energy": 7.45 
		},
		"coords": [
			{
				"x": -0.3529921421,
				"y": -0.0810410475,
				"z": -3.520266132,
				"element": "C" 
			},
			{
				"x": 0.199927605,
				"y": -0.2465092986,
				"z": -2.2249406255,
				"element": "O" 
			},
			{
				"x": 0.3846712116,
				"y": 0.8527685004,
				"z": -1.4389832932,
				"element": "C" 
			},
			{
				"x": 0.9593944853,
				"y": 0.6006353537,
				"z": -0.1750306378,
				"element": "C" 
			},
			{
				"x": 1.345657209,
				"y": -0.8103815675,
				"z": 0.2187524211,
				"element": "C" 
			},
			{
				"x": 0.2151751823,
				"y": -1.6351242897,
				"z": 0.6518274859,
				"element": "N" 
			},
			{
				"x": -0.2987667024,
				"y": -2.7334757511,
				"z": -0.0484577748,
				"element": "C" 
			},
			{
				"x": 0.1222341408,
				"y": -3.1815113677,
				"z": -1.0945707005,
				"element": "O" 
			},
			{
				"x": -1.4422860722,
				"y": -3.2518767636,
				"z": 0.7809968331,
				"element": "C" 
			},
			{
				"x": -1.5379136963,
				"y": -2.5137335123,
				"z": 1.8904627274,
				"element": "C" 
			},
			{
				"x": -0.4650512052,
				"y": -1.4604282273,
				"z": 1.8591019943,
				"element": "C" 
			},
			{
				"x": -0.2055918063,
				"y": -0.6310378082,
				"z": 2.7083545125,
				"element": "O" 
			},
			{
				"x": 1.170295098,
				"y": 1.6733072224,
				"z": 0.6905493346,
				"element": "C" 
			},
			{
				"x": 0.833577743,
				"y": 2.9795400359,
				"z": 0.3249067014,
				"element": "C" 
			},
			{
				"x": 0.2738328644,
				"y": 3.2132034127,
				"z": -0.9282581948,
				"element": "C" 
			},
			{
				"x": 0.0462757798,
				"y": 2.1567633883,
				"z": -1.815171297,
				"element": "C" 
			},
			{
				"x": -0.4019447845,
				"y": -1.0816046612,
				"z": -3.9514972935,
				"element": "H" 
			},
			{
				"x": -1.3633550122,
				"y": 0.3457169985,
				"z": -3.4768933839,
				"element": "H" 
			},
			{
				"x": 0.278594839,
				"y": 0.5577007766,
				"z": -4.151014177,
				"element": "H" 
			},
			{
				"x": 1.7893473804,
				"y": -1.3432574562,
				"z": -0.6249054747,
				"element": "H" 
			},
			{
				"x": 2.0695629939,
				"y": -0.7748179734,
				"z": 1.0376702212,
				"element": "H" 
			},
			{
				"x": -2.0337007752,
				"y": -4.1015169832,
				"z": 0.4658514205,
				"element": "H" 
			},
			{
				"x": -2.2283247547,
				"y": -2.6010713283,
				"z": 2.7190871413,
				"element": "H" 
			},
			{
				"x": 1.5923491082,
				"y": 1.473790485,
				"z": 1.6710758156,
				"element": "H" 
			},
			{
				"x": 1.0050729798,
				"y": 3.8004081511,
				"z": 1.0139425384,
				"element": "H" 
			},
			{
				"x": 0.0071180175,
				"y": 4.2227065558,
				"z": -1.2285040281,
				"element": "H" 
			},
			{
				"x": -0.3897596866,
				"y": 2.3562471556,
				"z": -2.7868861346,
				"element": "H" 
			}
		],
		 "valence_orbital": [ 
			{
				"type": "occ",
				"energy": -0.2922,
				"method": "rhf"
			},
			{
				"type": "occ",
				"energy": -0.26997,
				"method": "rhf"
			},
			{
				"type": "occ",
				"energy": -0.2636,
				"method": "rhf"
			},
			{
				"type": "occ",
				"energy": -0.24652,
				"method": "rhf"
			},
			{
				"type": "occ",
				"energy": -0.21837,
				"method": "rhf"
			},
			{
				"type": "unocc",
				"energy": -0.0894,
				"method": "rhf"
			},
			{
				"type": "unocc",
				"energy": -0.00435,
				"method": "rhf"
			},
			{
				"type": "unocc",
				"energy": 0.01299,
				"method": "rhf"
			},
			{
				"type": "unocc",
				"energy": 0.06138,
				"method": "rhf"
			},
			{
				"type": "unocc",
				"energy": 0.07167,
				"method": "rhf"
			}
		],
		"cosmo_sigma_profile": { 
			"-0.025": 0.0,
			"-0.024": 0.0,
			"-0.023": 0.0,
			"-0.022": 0.0,
			"-0.021": 0.0,
			"-0.02": 0.0,
			"-0.019": 0.0,
			"-0.018": 0.0,
			"-0.017": 0.0,
			"-0.016": 0.0,
			"-0.015": 0.0,
			"-0.014": 0.0,
			"-0.013": 0.0,
			"-0.012": 0.0,
			"-0.011": 0.0,
			"-0.01": 0.831046147016,
			"-0.009": 4.01123603601,
			"-0.008": 2.95580321036,
			"-0.007": 3.98921937691,
			"-0.006": 12.4868688012,
			"-0.005": 25.1318123507,
			"-0.004": 25.6815133967,
			"-0.003": 30.3561207929,
			"-0.002": 18.9843588147,
			"-0.001": 14.4859147544,
			"0.0": 12.2547542559,
			"0.001": 12.954697945,
			"0.002": 11.5551220351,
			"0.003": 11.0251144919,
			"0.004": 11.3457883291,
			"0.005": 12.9399444181,
			"0.006": 10.3122260635,
			"0.007": 4.70515509899,
			"0.008": 4.53048367462,
			"0.009": 5.16441536361,
			"0.01": 5.26525283537,
			"0.011": 8.32862557084,
			"0.012": 3.59358723123,
			"0.013": 0.0539633348391,
			"0.014": 0.0,
			"0.015": 0.0,
			"0.016": 0.0,
			"0.017": 0.0,
			"0.018": 0.0,
			"0.019": 0.0,
			"0.02": 0.0,
			"0.021": 0.0,
			"0.022": 0.0,
			"0.023": 0.0,
			"0.024": 0.0,
			"0.025": 0.0
		}
	}
}
