{
	 "smiles": "ClCC1=CC(OCC2=CC=CC=C2)=C(OCC2=CC=CC=C2)C=C1", 
	 "Tm": 315.65, 
	 "num_atms": 43, 
	 "gaussian": { 
		 "optdone": 1, 
		 "sigma_profile": "yes", 
		 "theory": "DFT", 
		 "functional": "B3LYP", 
		 "basiset": "6-31G**", 
		 "properties": { 
			 "R2extent": 10406.1395, 
			 "electric_dipole_moment_norm": 2.50667727081, 
			 "electric_quadrupole_moment_norm": 16.0032214354, 
			 "total_energy": -1422.30890581, 
			 "HOMO_LUMO_gap": 0.20557, 
			 "cosmo_polarized_energy": -12.42, 
			 "cosmo_cavitation_energy": 49.36, 
			 "cosmo_dispersion_energy": -32.03, 
			 "cosmo_repulsion_energy": 2.52, 
			 "cosmo_total_nonelectrostatic_energy": 19.84, 
			 "SMD_solvation_energy": 7.79 
		},
		"coords": [
			{
				"x": 2.3854980541,
				"y": -0.4429251062,
				"z": -3.9844356167,
				"element": "Cl" 
			},
			{
				"x": 1.8940496027,
				"y": -1.6467485882,
				"z": -2.6775835927,
				"element": "C" 
			},
			{
				"x": 0.9365979096,
				"y": -1.0629328587,
				"z": -1.6855921403,
				"element": "C" 
			},
			{
				"x": 1.4140944288,
				"y": -0.3981188412,
				"z": -0.5488539366,
				"element": "C" 
			},
			{
				"x": 0.5354887055,
				"y": 0.1434220689,
				"z": 0.3866089658,
				"element": "C" 
			},
			{
				"x": 1.0406495248,
				"y": 0.8229744139,
				"z": 1.474809234,
				"element": "O" 
			},
			{
				"x": 0.8799512711,
				"y": 0.1607071517,
				"z": 2.7522835018,
				"element": "C" 
			},
			{
				"x": 1.8300750046,
				"y": -1.0010131424,
				"z": 2.9297140119,
				"element": "C" 
			},
			{
				"x": 3.2160590588,
				"y": -0.7929482301,
				"z": 2.8772326011,
				"element": "C" 
			},
			{
				"x": 4.0994662009,
				"y": -1.8576643588,
				"z": 3.0439989967,
				"element": "C" 
			},
			{
				"x": 3.6079446052,
				"y": -3.1471298674,
				"z": 3.2702568576,
				"element": "C" 
			},
			{
				"x": 2.2312481608,
				"y": -3.3641898378,
				"z": 3.3234310099,
				"element": "C" 
			},
			{
				"x": 1.3482328146,
				"y": -2.2954089717,
				"z": 3.1491188591,
				"element": "C" 
			},
			{
				"x": -0.8550296385,
				"y": 0.0355937216,
				"z": 0.1821648539,
				"element": "C" 
			},
			{
				"x": -1.7487276171,
				"y": 0.5311237627,
				"z": 1.1046692319,
				"element": "O" 
			},
			{
				"x": -1.8393092873,
				"y": 1.9775614132,
				"z": 1.1748619992,
				"element": "C" 
			},
			{
				"x": -2.5838562483,
				"y": 2.5676472635,
				"z": 0.0011573901,
				"element": "C" 
			},
			{
				"x": -1.9263081908,
				"y": 3.3725316612,
				"z": -0.9350985099,
				"element": "C" 
			},
			{
				"x": -2.6190093963,
				"y": 3.9110980968,
				"z": -2.0221719242,
				"element": "C" 
			},
			{
				"x": -3.9778917787,
				"y": 3.6423197464,
				"z": -2.1855215763,
				"element": "C" 
			},
			{
				"x": -4.6430098704,
				"y": 2.8339758042,
				"z": -1.2585382267,
				"element": "C" 
			},
			{
				"x": -3.9498504759,
				"y": 2.3020393712,
				"z": -0.1729714092,
				"element": "C" 
			},
			{
				"x": -1.3325438022,
				"y": -0.6364757186,
				"z": -0.9438624521,
				"element": "C" 
			},
			{
				"x": -0.4459290519,
				"y": -1.184996952,
				"z": -1.8685527677,
				"element": "C" 
			},
			{
				"x": 2.8303407186,
				"y": -1.955720462,
				"z": -2.2130644922,
				"element": "H" 
			},
			{
				"x": 1.4611058026,
				"y": -2.4889025539,
				"z": -3.2172161292,
				"element": "H" 
			},
			{
				"x": 2.479643884,
				"y": -0.2960498209,
				"z": -0.3689043662,
				"element": "H" 
			},
			{
				"x": -0.1594020337,
				"y": -0.1585633598,
				"z": 2.8766150737,
				"element": "H" 
			},
			{
				"x": 1.0893676577,
				"y": 0.9469635835,
				"z": 3.4841586457,
				"element": "H" 
			},
			{
				"x": 3.5970693915,
				"y": 0.2092998194,
				"z": 2.699119189,
				"element": "H" 
			},
			{
				"x": 5.1711245338,
				"y": -1.6838385341,
				"z": 3.0027820423,
				"element": "H" 
			},
			{
				"x": 4.296558367,
				"y": -3.9765721586,
				"z": 3.4041061226,
				"element": "H" 
			},
			{
				"x": 1.842861005,
				"y": -4.3640546142,
				"z": 3.4953143218,
				"element": "H" 
			},
			{
				"x": 0.27535874,
				"y": -2.4679073005,
				"z": 3.1841617374,
				"element": "H" 
			},
			{
				"x": -2.3781275538,
				"y": 2.1608716671,
				"z": 2.109073321,
				"element": "H" 
			},
			{
				"x": -0.8360339836,
				"y": 2.4050975517,
				"z": 1.2619410024,
				"element": "H" 
			},
			{
				"x": -0.8658715254,
				"y": 3.5780557109,
				"z": -0.8129309836,
				"element": "H" 
			},
			{
				"x": -2.0958862165,
				"y": 4.5350043906,
				"z": -2.7411467356,
				"element": "H" 
			},
			{
				"x": -4.5184393066,
				"y": 4.0596969783,
				"z": -3.0303145106,
				"element": "H" 
			},
			{
				"x": -5.7017782376,
				"y": 2.6235599072,
				"z": -1.3814313652,
				"element": "H" 
			},
			{
				"x": -4.4661107786,
				"y": 1.6721365911,
				"z": 0.5471708656,
				"element": "H" 
			},
			{
				"x": -2.4061526067,
				"y": -0.7112849965,
				"z": -1.0793598482,
				"element": "H" 
			},
			{
				"x": -0.8314178417,
				"y": -1.6985344015,
				"z": -2.7449992511,
				"element": "H" 
			}
		],
		 "valence_orbital": [ 
			{
				"type": "occ",
				"energy": -0.25134,
				"method": "rhf"
			},
			{
				"type": "occ",
				"energy": -0.25064,
				"method": "rhf"
			},
			{
				"type": "occ",
				"energy": -0.24801,
				"method": "rhf"
			},
			{
				"type": "occ",
				"energy": -0.24523,
				"method": "rhf"
			},
			{
				"type": "occ",
				"energy": -0.22887,
				"method": "rhf"
			},
			{
				"type": "unocc",
				"energy": -0.0233,
				"method": "rhf"
			},
			{
				"type": "unocc",
				"energy": -0.01295,
				"method": "rhf"
			},
			{
				"type": "unocc",
				"energy": -0.00976,
				"method": "rhf"
			},
			{
				"type": "unocc",
				"energy": -0.00628,
				"method": "rhf"
			},
			{
				"type": "unocc",
				"energy": -0.00157,
				"method": "rhf"
			}
		],
		"cosmo_sigma_profile": { 
			"-0.025": 0.0,
			"-0.024": 0.0,
			"-0.023": 0.0,
			"-0.022": 0.0,
			"-0.021": 0.0,
			"-0.02": 0.0,
			"-0.019": 0.0,
			"-0.018": 0.0,
			"-0.017": 0.0,
			"-0.016": 0.0,
			"-0.015": 0.0,
			"-0.014": 0.0,
			"-0.013": 0.0,
			"-0.012": 0.0,
			"-0.011": 0.0,
			"-0.01": 0.0,
			"-0.009": 0.0,
			"-0.008": 1.47523015517,
			"-0.007": 7.90970084409,
			"-0.006": 21.8079744495,
			"-0.005": 36.523477498,
			"-0.004": 38.5646408948,
			"-0.003": 34.8954760172,
			"-0.002": 24.7017607992,
			"-0.001": 23.3228469677,
			"0.0": 25.3730841258,
			"0.001": 25.5358365708,
			"0.002": 25.100450185,
			"0.003": 29.5164894104,
			"0.004": 33.0224300898,
			"0.005": 29.6338196551,
			"0.006": 20.5211380419,
			"0.007": 10.9469302947,
			"0.008": 1.61489893506,
			"0.009": 1.66322118128,
			"0.01": 1.79913849833,
			"0.011": 1.40239959671,
			"0.012": 0.420262727231,
			"0.013": 0.0,
			"0.014": 0.0,
			"0.015": 0.0,
			"0.016": 0.0,
			"0.017": 0.0,
			"0.018": 0.0,
			"0.019": 0.0,
			"0.02": 0.0,
			"0.021": 0.0,
			"0.022": 0.0,
			"0.023": 0.0,
			"0.024": 0.0,
			"0.025": 0.0
		}
	}
}
