{
	 "smiles": "FC1=C(F)C=C2N=C(CCl)NC2=C1", 
	 "Tm": 424.15, 
	 "num_atms": 18, 
	 "gaussian": { 
		 "optdone": 1, 
		 "sigma_profile": "yes", 
		 "theory": "DFT", 
		 "functional": "B3LYP", 
		 "basiset": "6-31G**", 
		 "properties": { 
			 "R2extent": 3635.5023, 
			 "electric_dipole_moment_norm": 3.13709022025, 
			 "electric_quadrupole_moment_norm": 11.4043246836, 
			 "total_energy": -1077.23469898, 
			 "HOMO_LUMO_gap": 0.18935, 
			 "cosmo_polarized_energy": -12.14, 
			 "cosmo_cavitation_energy": 25.66, 
			 "cosmo_dispersion_energy": -19.02, 
			 "cosmo_repulsion_energy": 1.47, 
			 "cosmo_total_nonelectrostatic_energy": 8.1, 
			 "SMD_solvation_energy": 2.76 
		},
		"coords": [
			{
				"x": 0.6653858514,
				"y": -4.5969248279,
				"z": 0.0322416157,
				"element": "F" 
			},
			{
				"x": 0.6861164292,
				"y": -3.2614600128,
				"z": -0.122599954,
				"element": "C" 
			},
			{
				"x": 1.8051190965,
				"y": -2.68656082,
				"z": -0.7585833356,
				"element": "C" 
			},
			{
				"x": 2.7832470986,
				"y": -3.5143838012,
				"z": -1.1711057338,
				"element": "F" 
			},
			{
				"x": 1.9093190453,
				"y": -1.3232150796,
				"z": -0.9583381056,
				"element": "C" 
			},
			{
				"x": 0.8510639895,
				"y": -0.523846137,
				"z": -0.501322067,
				"element": "C" 
			},
			{
				"x": 0.6996307014,
				"y": 0.8529057014,
				"z": -0.5535752333,
				"element": "N" 
			},
			{
				"x": -0.4617305576,
				"y": 1.0859913801,
				"z": 0.0092887344,
				"element": "C" 
			},
			{
				"x": -1.0712676534,
				"y": 2.4397487312,
				"z": 0.1191668437,
				"element": "C" 
			},
			{
				"x": -1.6945899039,
				"y": 2.784104508,
				"z": 1.8001220251,
				"element": "Cl" 
			},
			{
				"x": -1.1027839774,
				"y": -0.0593907737,
				"z": 0.4315649313,
				"element": "N" 
			},
			{
				"x": -0.268057977,
				"y": -1.1192207389,
				"z": 0.1305848444,
				"element": "C" 
			},
			{
				"x": -0.3738986075,
				"y": -2.4972590238,
				"z": 0.3364168696,
				"element": "C" 
			},
			{
				"x": 2.7791361256,
				"y": -0.9007542852,
				"z": -1.4472016481,
				"element": "H" 
			},
			{
				"x": -0.3168234912,
				"y": 3.1868765837,
				"z": -0.1190490029,
				"element": "H" 
			},
			{
				"x": -1.933452692,
				"y": 2.5599818484,
				"z": -0.5402029815,
				"element": "H" 
			},
			{
				"x": -1.9505509108,
				"y": -0.0879997173,
				"z": 0.9777620696,
				"element": "H" 
			},
			{
				"x": -1.2185625667,
				"y": -2.9748935352,
				"z": 0.8194301282,
				"element": "H" 
			}
		],
		 "valence_orbital": [ 
			{
				"type": "occ",
				"energy": -0.31949,
				"method": "rhf"
			},
			{
				"type": "occ",
				"energy": -0.31543,
				"method": "rhf"
			},
			{
				"type": "occ",
				"energy": -0.29114,
				"method": "rhf"
			},
			{
				"type": "occ",
				"energy": -0.2436,
				"method": "rhf"
			},
			{
				"type": "occ",
				"energy": -0.23248,
				"method": "rhf"
			},
			{
				"type": "unocc",
				"energy": -0.04313,
				"method": "rhf"
			},
			{
				"type": "unocc",
				"energy": -0.00189,
				"method": "rhf"
			},
			{
				"type": "unocc",
				"energy": 0.01742,
				"method": "rhf"
			},
			{
				"type": "unocc",
				"energy": 0.04564,
				"method": "rhf"
			},
			{
				"type": "unocc",
				"energy": 0.06846,
				"method": "rhf"
			}
		],
		"cosmo_sigma_profile": { 
			"-0.025": 0.0,
			"-0.024": 0.0,
			"-0.023": 0.0,
			"-0.022": 0.0,
			"-0.021": 0.0,
			"-0.02": 0.0,
			"-0.019": 0.0,
			"-0.018": 0.0,
			"-0.017": 0.582565186868,
			"-0.016": 1.10132067555,
			"-0.015": 0.924086065487,
			"-0.014": 1.10893695842,
			"-0.013": 1.14100126242,
			"-0.012": 1.44159576923,
			"-0.011": 0.986744848141,
			"-0.01": 1.63477823566,
			"-0.009": 6.2973025046,
			"-0.008": 8.70754689898,
			"-0.007": 7.26221651225,
			"-0.006": 7.13090519605,
			"-0.005": 7.1051973765,
			"-0.004": 4.89452611225,
			"-0.003": 5.46314755218,
			"-0.002": 6.47552793462,
			"-0.001": 10.9532410166,
			"0.0": 20.8114469372,
			"0.001": 23.0387951273,
			"0.002": 18.9761720811,
			"0.003": 19.338986745,
			"0.004": 26.010624237,
			"0.005": 12.0554831432,
			"0.006": 5.3401858943,
			"0.007": 1.03434588591,
			"0.008": 1.32432414899,
			"0.009": 1.40706781544,
			"0.01": 0.993790306717,
			"0.011": 1.14445090367,
			"0.012": 0.993702895707,
			"0.013": 0.783224240118,
			"0.014": 0.750329504657,
			"0.015": 0.85384628623,
			"0.016": 0.868850397163,
			"0.017": 0.0562088586143,
			"0.018": 0.0,
			"0.019": 0.0,
			"0.02": 0.0,
			"0.021": 0.0,
			"0.022": 0.0,
			"0.023": 0.0,
			"0.024": 0.0,
			"0.025": 0.0
		}
	}
}
