{
	 "smiles": "CC(C)NC(=O)C1=CC(N)=C(Cl)C=C1", 
	 "Tm": 405.15, 
	 "num_atms": 27, 
	 "gaussian": { 
		 "optdone": 1, 
		 "sigma_profile": "yes", 
		 "theory": "DFT", 
		 "functional": "B3LYP", 
		 "basiset": "6-31G**", 
		 "properties": { 
			 "R2extent": 4939.1081, 
			 "electric_dipole_moment_norm": 1.58320159803, 
			 "electric_quadrupole_moment_norm": 22.3541645136, 
			 "total_energy": -1033.85550843, 
			 "HOMO_LUMO_gap": 0.18123, 
			 "cosmo_polarized_energy": -14.78, 
			 "cosmo_cavitation_energy": 32.15, 
			 "cosmo_dispersion_energy": -23.34, 
			 "cosmo_repulsion_energy": 1.86, 
			 "cosmo_total_nonelectrostatic_energy": 10.66, 
			 "SMD_solvation_energy": 5.32 
		},
		"coords": [
			{
				"x": 1.9264449086,
				"y": 4.0424258264,
				"z": 2.6142390483,
				"element": "C" 
			},
			{
				"x": 2.4132885108,
				"y": 3.644000997,
				"z": 1.2144677978,
				"element": "C" 
			},
			{
				"x": 2.5353472259,
				"y": 4.8447801511,
				"z": 0.274222041,
				"element": "C" 
			},
			{
				"x": 1.5251231166,
				"y": 2.6444918122,
				"z": 0.6125114634,
				"element": "N" 
			},
			{
				"x": 1.6503972487,
				"y": 1.3115728173,
				"z": 0.8810900914,
				"element": "C" 
			},
			{
				"x": 2.509586126,
				"y": 0.8751380325,
				"z": 1.6461014065,
				"element": "O" 
			},
			{
				"x": 0.6857796274,
				"y": 0.3962222865,
				"z": 0.1733702211,
				"element": "C" 
			},
			{
				"x": 1.065768702,
				"y": -0.9394893399,
				"z": 0.0538976113,
				"element": "C" 
			},
			{
				"x": 0.2527655596,
				"y": -1.888269486,
				"z": -0.5879009833,
				"element": "C" 
			},
			{
				"x": 0.6770960488,
				"y": -3.1943046279,
				"z": -0.755110094,
				"element": "N" 
			},
			{
				"x": -0.9821528099,
				"y": -1.4330661334,
				"z": -1.0938582182,
				"element": "C" 
			},
			{
				"x": -2.0560671603,
				"y": -2.5808419552,
				"z": -1.8922604656,
				"element": "Cl" 
			},
			{
				"x": -1.3841218478,
				"y": -0.1073180977,
				"z": -0.9638570942,
				"element": "C" 
			},
			{
				"x": -0.553762415,
				"y": 0.8156096718,
				"z": -0.3325035498,
				"element": "C" 
			},
			{
				"x": 1.8551165958,
				"y": 3.1575262716,
				"z": 3.2512925902,
				"element": "H" 
			},
			{
				"x": 0.9410155231,
				"y": 4.5193870194,
				"z": 2.5653305137,
				"element": "H" 
			},
			{
				"x": 2.6255794595,
				"y": 4.7457503038,
				"z": 3.079458356,
				"element": "H" 
			},
			{
				"x": 3.3901789949,
				"y": 3.1593916573,
				"z": 1.318429156,
				"element": "H" 
			},
			{
				"x": 2.9184906001,
				"y": 4.5451965526,
				"z": -0.7064837031,
				"element": "H" 
			},
			{
				"x": 3.2186286033,
				"y": 5.5887129821,
				"z": 0.6935747697,
				"element": "H" 
			},
			{
				"x": 1.5639956672,
				"y": 5.3350100549,
				"z": 0.130968613,
				"element": "H" 
			},
			{
				"x": 0.8957637767,
				"y": 2.9398494931,
				"z": -0.1180207454,
				"element": "H" 
			},
			{
				"x": 2.0203391268,
				"y": -1.2383084926,
				"z": 0.4761737347,
				"element": "H" 
			},
			{
				"x": 1.3908116707,
				"y": -3.5081238582,
				"z": -0.1141145311,
				"element": "H" 
			},
			{
				"x": -0.04301335,
				"y": -3.8790440227,
				"z": -0.9350290851,
				"element": "H" 
			},
			{
				"x": -2.3533210005,
				"y": 0.1909203185,
				"z": -1.3486102182,
				"element": "H" 
			},
			{
				"x": -0.9016785091,
				"y": 1.8349797656,
				"z": -0.2005787263,
				"element": "H" 
			}
		],
		 "valence_orbital": [ 
			{
				"type": "occ",
				"energy": -0.31732,
				"method": "rhf"
			},
			{
				"type": "occ",
				"energy": -0.25413,
				"method": "rhf"
			},
			{
				"type": "occ",
				"energy": -0.24936,
				"method": "rhf"
			},
			{
				"type": "occ",
				"energy": -0.24266,
				"method": "rhf"
			},
			{
				"type": "occ",
				"energy": -0.21374,
				"method": "rhf"
			},
			{
				"type": "unocc",
				"energy": -0.03251,
				"method": "rhf"
			},
			{
				"type": "unocc",
				"energy": -0.00216,
				"method": "rhf"
			},
			{
				"type": "unocc",
				"energy": 0.02786,
				"method": "rhf"
			},
			{
				"type": "unocc",
				"energy": 0.06478,
				"method": "rhf"
			},
			{
				"type": "unocc",
				"energy": 0.07812,
				"method": "rhf"
			}
		],
		"cosmo_sigma_profile": { 
			"-0.025": 0.0,
			"-0.024": 0.0,
			"-0.023": 0.0,
			"-0.022": 0.0,
			"-0.021": 0.0,
			"-0.02": 0.0,
			"-0.019": 0.0,
			"-0.018": 0.0,
			"-0.017": 0.0,
			"-0.016": 0.0,
			"-0.015": 0.0,
			"-0.014": 0.283503650332,
			"-0.013": 2.42323685423,
			"-0.012": 2.98863096442,
			"-0.011": 2.88178851719,
			"-0.01": 4.51386623866,
			"-0.009": 4.21522505267,
			"-0.008": 4.04914703927,
			"-0.007": 5.5535991794,
			"-0.006": 6.35797882794,
			"-0.005": 6.79434691653,
			"-0.004": 12.5788053556,
			"-0.003": 20.5679042212,
			"-0.002": 21.8726510569,
			"-0.001": 19.7509617148,
			"0.0": 24.7637839818,
			"0.001": 25.9230804052,
			"0.002": 18.243406061,
			"0.003": 18.4487806979,
			"0.004": 19.7564355545,
			"0.005": 8.26116356296,
			"0.006": 3.1837549191,
			"0.007": 3.14322614331,
			"0.008": 2.48247618467,
			"0.009": 2.67740771627,
			"0.01": 1.34486998661,
			"0.011": 2.05454177714,
			"0.012": 2.89681924826,
			"0.013": 2.5869549413,
			"0.014": 4.6727775195,
			"0.015": 0.607007884233,
			"0.016": 0.0,
			"0.017": 0.0,
			"0.018": 0.0,
			"0.019": 0.0,
			"0.02": 0.0,
			"0.021": 0.0,
			"0.022": 0.0,
			"0.023": 0.0,
			"0.024": 0.0,
			"0.025": 0.0
		}
	}
}
