{
	 "smiles": "OC(=O)C1(O)CCSCC1", 
	 "Tm": 392.15, 
	 "num_atms": 20, 
	 "gaussian": { 
		 "optdone": 1, 
		 "sigma_profile": "yes", 
		 "theory": "DFT", 
		 "functional": "B3LYP", 
		 "basiset": "6-31G**", 
		 "properties": { 
			 "R2extent": 2234.333, 
			 "electric_dipole_moment_norm": 3.6244007684, 
			 "electric_quadrupole_moment_norm": 7.83889339958, 
			 "total_energy": -858.533536132, 
			 "HOMO_LUMO_gap": 0.25437, 
			 "cosmo_polarized_energy": -11.77, 
			 "cosmo_cavitation_energy": 22.51, 
			 "cosmo_dispersion_energy": -17.79, 
			 "cosmo_repulsion_energy": 1.37, 
			 "cosmo_total_nonelectrostatic_energy": 6.09, 
			 "SMD_solvation_energy": 4.0 
		},
		"coords": [
			{
				"x": -0.8693987925,
				"y": 0.114072888,
				"z": -1.221019928,
				"element": "O" 
			},
			{
				"x": -0.0154992475,
				"y": -0.1597330773,
				"z": -0.231412224,
				"element": "C" 
			},
			{
				"x": 1.0820450461,
				"y": -0.6282746729,
				"z": -0.4599359715,
				"element": "O" 
			},
			{
				"x": -0.4500770304,
				"y": 0.1071932103,
				"z": 1.2341242593,
				"element": "C" 
			},
			{
				"x": 0.710863338,
				"y": -0.0129015221,
				"z": 2.0300086867,
				"element": "O" 
			},
			{
				"x": -1.0198362142,
				"y": 1.546075484,
				"z": 1.4323434511,
				"element": "C" 
			},
			{
				"x": -2.534823642,
				"y": 1.6265788335,
				"z": 1.6606662473,
				"element": "C" 
			},
			{
				"x": -3.4760111322,
				"y": 0.5978785386,
				"z": 0.4642585762,
				"element": "S" 
			},
			{
				"x": -2.7969888065,
				"y": -1.0615793807,
				"z": 0.9430377366,
				"element": "C" 
			},
			{
				"x": -1.4592819994,
				"y": -0.9801473105,
				"z": 1.6962795445,
				"element": "C" 
			},
			{
				"x": -1.7254864303,
				"y": 0.4654851419,
				"z": -0.8760406284,
				"element": "H" 
			},
			{
				"x": 1.3752202339,
				"y": -0.4258630337,
				"z": 1.4468131147,
				"element": "H" 
			},
			{
				"x": -0.5054239229,
				"y": 1.9492693553,
				"z": 2.3101047187,
				"element": "H" 
			},
			{
				"x": -0.7450568837,
				"y": 2.1818008574,
				"z": 0.5838260427,
				"element": "H" 
			},
			{
				"x": -2.8128345577,
				"y": 1.3200991097,
				"z": 2.6726670893,
				"element": "H" 
			},
			{
				"x": -2.8964794424,
				"y": 2.6484365154,
				"z": 1.5219745684,
				"element": "H" 
			},
			{
				"x": -2.69047851,
				"y": -1.6115598188,
				"z": 0.0046329403,
				"element": "H" 
			},
			{
				"x": -3.5412664116,
				"y": -1.5799769906,
				"z": 1.552002204,
				"element": "H" 
			},
			{
				"x": -1.6342062656,
				"y": -0.7972750746,
				"z": 2.7611600506,
				"element": "H" 
			},
			{
				"x": -0.9570793292,
				"y": -1.9510790528,
				"z": 1.6300095218,
				"element": "H" 
			}
		],
		 "valence_orbital": [ 
			{
				"type": "occ",
				"energy": -0.32775,
				"method": "rhf"
			},
			{
				"type": "occ",
				"energy": -0.31963,
				"method": "rhf"
			},
			{
				"type": "occ",
				"energy": -0.2846,
				"method": "rhf"
			},
			{
				"type": "occ",
				"energy": -0.27215,
				"method": "rhf"
			},
			{
				"type": "occ",
				"energy": -0.25361,
				"method": "rhf"
			},
			{
				"type": "unocc",
				"energy": 0.00076,
				"method": "rhf"
			},
			{
				"type": "unocc",
				"energy": 0.01211,
				"method": "rhf"
			},
			{
				"type": "unocc",
				"energy": 0.04388,
				"method": "rhf"
			},
			{
				"type": "unocc",
				"energy": 0.06773,
				"method": "rhf"
			},
			{
				"type": "unocc",
				"energy": 0.08867,
				"method": "rhf"
			}
		],
		"cosmo_sigma_profile": { 
			"-0.025": 0.0,
			"-0.024": 0.0,
			"-0.023": 0.0,
			"-0.022": 0.0,
			"-0.021": 0.0,
			"-0.02": 0.0,
			"-0.019": 0.0,
			"-0.018": 0.0,
			"-0.017": 0.0,
			"-0.016": 0.0,
			"-0.015": 0.0,
			"-0.014": 0.0,
			"-0.013": 0.0,
			"-0.012": 0.0,
			"-0.011": 0.034979841128,
			"-0.01": 0.200196230983,
			"-0.009": 0.783352975523,
			"-0.008": 0.912503660606,
			"-0.007": 4.87218583658,
			"-0.006": 19.5533667741,
			"-0.005": 21.6233429729,
			"-0.004": 19.086099898,
			"-0.003": 18.13677649,
			"-0.002": 11.6384973149,
			"-0.001": 7.84262355535,
			"0.0": 7.37268070264,
			"0.001": 5.01464128373,
			"0.002": 4.64979021004,
			"0.003": 5.73901512299,
			"0.004": 6.58512462843,
			"0.005": 5.97138774226,
			"0.006": 5.06288542074,
			"0.007": 4.14657397799,
			"0.008": 5.47898056502,
			"0.009": 5.98776824439,
			"0.01": 6.44353904815,
			"0.011": 4.59135140587,
			"0.012": 3.7186942205,
			"0.013": 1.79542999341,
			"0.014": 0.540038820801,
			"0.015": 0.0,
			"0.016": 0.0,
			"0.017": 0.0,
			"0.018": 0.0,
			"0.019": 0.0,
			"0.02": 0.0,
			"0.021": 0.0,
			"0.022": 0.0,
			"0.023": 0.0,
			"0.024": 0.0,
			"0.025": 0.0
		}
	}
}
