{
	 "smiles": "CC1=CC(=CC(Br)=C1)N(=O)=O", 
	 "Tm": 356.15, 
	 "num_atms": 17, 
	 "gaussian": { 
		 "optdone": 1, 
		 "sigma_profile": "yes", 
		 "theory": "DFT", 
		 "functional": "B3LYP", 
		 "basiset": "6-31G**", 
		 "properties": { 
			 "R2extent": 3156.2168, 
			 "electric_dipole_moment_norm": 4.30667231862, 
			 "electric_quadrupole_moment_norm": 9.09455857258, 
			 "total_energy": -3046.86955726, 
			 "HOMO_LUMO_gap": 0.16752, 
			 "cosmo_polarized_energy": -7.5, 
			 "cosmo_cavitation_energy": 24.4, 
			 "cosmo_dispersion_energy": -18.25, 
			 "cosmo_repulsion_energy": 1.47, 
			 "cosmo_total_nonelectrostatic_energy": 7.62, 
			 "SMD_solvation_energy": 5.43 
		},
		"coords": [
			{
				"x": -3.2619445869,
				"y": 0.4780238918,
				"z": 1.2706589468,
				"element": "C" 
			},
			{
				"x": -1.9196601335,
				"y": 0.4217708835,
				"z": 0.5809498863,
				"element": "C" 
			},
			{
				"x": -1.0428418652,
				"y": -0.6443508605,
				"z": 0.8076381331,
				"element": "C" 
			},
			{
				"x": 0.1983747452,
				"y": -0.6525368402,
				"z": 0.1786897887,
				"element": "C" 
			},
			{
				"x": 0.6175668214,
				"y": 0.3603957295,
				"z": -0.6801182189,
				"element": "C" 
			},
			{
				"x": -0.2660346769,
				"y": 1.4117159058,
				"z": -0.8980479138,
				"element": "C" 
			},
			{
				"x": 0.2428548765,
				"y": 2.8298440507,
				"z": -2.0681156996,
				"element": "Br" 
			},
			{
				"x": -1.5178893667,
				"y": 1.4501478012,
				"z": -0.283170572,
				"element": "C" 
			},
			{
				"x": 1.1127665739,
				"y": -1.7840383039,
				"z": 0.4252585434,
				"element": "N" 
			},
			{
				"x": 0.7261173799,
				"y": -2.6721821579,
				"z": 1.1830880945,
				"element": "O" 
			},
			{
				"x": 2.2039424068,
				"y": -1.7675761572,
				"z": -0.1411220726,
				"element": "O" 
			},
			{
				"x": -3.998182245,
				"y": 1.0171736822,
				"z": 0.668310358,
				"element": "H" 
			},
			{
				"x": -3.1836971676,
				"y": 0.9953418796,
				"z": 2.2344873738,
				"element": "H" 
			},
			{
				"x": -3.6489219128,
				"y": -0.5252212297,
				"z": 1.4681293816,
				"element": "H" 
			},
			{
				"x": -1.3073434927,
				"y": -1.466571142,
				"z": 1.4612630262,
				"element": "H" 
			},
			{
				"x": 1.5900060993,
				"y": 0.3113961255,
				"z": -1.150225169,
				"element": "H" 
			},
			{
				"x": -2.1835134555,
				"y": 2.2839667416,
				"z": -0.4794738867,
				"element": "H" 
			}
		],
		 "valence_orbital": [ 
			{
				"type": "occ",
				"energy": -0.31418,
				"method": "rhf"
			},
			{
				"type": "occ",
				"energy": -0.30198,
				"method": "rhf"
			},
			{
				"type": "occ",
				"energy": -0.29665,
				"method": "rhf"
			},
			{
				"type": "occ",
				"energy": -0.28349,
				"method": "rhf"
			},
			{
				"type": "occ",
				"energy": -0.26332,
				"method": "rhf"
			},
			{
				"type": "unocc",
				"energy": -0.0958,
				"method": "rhf"
			},
			{
				"type": "unocc",
				"energy": -0.03671,
				"method": "rhf"
			},
			{
				"type": "unocc",
				"energy": -0.01021,
				"method": "rhf"
			},
			{
				"type": "unocc",
				"energy": -0.00848,
				"method": "rhf"
			},
			{
				"type": "unocc",
				"energy": 0.08789,
				"method": "rhf"
			}
		],
		"cosmo_sigma_profile": { 
			"-0.025": 0.0,
			"-0.024": 0.0,
			"-0.023": 0.0,
			"-0.022": 0.0,
			"-0.021": 0.0,
			"-0.02": 0.0,
			"-0.019": 0.0,
			"-0.018": 0.0,
			"-0.017": 0.0,
			"-0.016": 0.0,
			"-0.015": 0.0,
			"-0.014": 0.0,
			"-0.013": 0.0,
			"-0.012": 0.0,
			"-0.011": 0.0,
			"-0.01": 0.0,
			"-0.009": 0.0,
			"-0.008": 1.87872400809,
			"-0.007": 5.626254991,
			"-0.006": 8.70126415249,
			"-0.005": 12.9501499957,
			"-0.004": 13.0883397733,
			"-0.003": 15.9254119678,
			"-0.002": 17.9201666113,
			"-0.001": 21.5392397347,
			"0.0": 23.9559413841,
			"0.001": 17.4344446458,
			"0.002": 7.82975701039,
			"0.003": 9.96530422424,
			"0.004": 13.0797015322,
			"0.005": 3.68425834753,
			"0.006": 4.05489229056,
			"0.007": 8.81715767277,
			"0.008": 6.47345075476,
			"0.009": 4.11448591622,
			"0.01": 1.77891518807,
			"0.011": 0.0,
			"0.012": 0.0,
			"0.013": 0.0,
			"0.014": 0.0,
			"0.015": 0.0,
			"0.016": 0.0,
			"0.017": 0.0,
			"0.018": 0.0,
			"0.019": 0.0,
			"0.02": 0.0,
			"0.021": 0.0,
			"0.022": 0.0,
			"0.023": 0.0,
			"0.024": 0.0,
			"0.025": 0.0
		}
	}
}
