{
	 "smiles": "COC1=C(OC)C(=CC=C1)C1NC(=O)NC(C)=C1C(=O)OC(C)C", 
	 "Tm": 440.15, 
	 "num_atms": 46, 
	 "gaussian": { 
		 "optdone": 1, 
		 "sigma_profile": "yes", 
		 "theory": "DFT", 
		 "functional": "B3LYP", 
		 "basiset": "6-31G**", 
		 "properties": { 
			 "R2extent": 8242.2721, 
			 "electric_dipole_moment_norm": 2.5272446874, 
			 "electric_quadrupole_moment_norm": 13.6410406198, 
			 "total_energy": -1146.70588441, 
			 "HOMO_LUMO_gap": 0.18857, 
			 "cosmo_polarized_energy": -17.42, 
			 "cosmo_cavitation_energy": 47.85, 
			 "cosmo_dispersion_energy": -31.35, 
			 "cosmo_repulsion_energy": 2.45, 
			 "cosmo_total_nonelectrostatic_energy": 18.95, 
			 "SMD_solvation_energy": 10.35 
		},
		"coords": [
			{
				"x": -0.270976974,
				"y": 3.8309187842,
				"z": -2.7436252961,
				"element": "C" 
			},
			{
				"x": 0.6409716724,
				"y": 3.6825643886,
				"z": -1.6480937925,
				"element": "O" 
			},
			{
				"x": 0.2431759414,
				"y": 2.7749434005,
				"z": -0.6895825084,
				"element": "C" 
			},
			{
				"x": 0.2798819383,
				"y": 1.3925596114,
				"z": -0.9374392323,
				"element": "C" 
			},
			{
				"x": 0.6564909126,
				"y": 0.9026233283,
				"z": -2.1770064715,
				"element": "O" 
			},
			{
				"x": 2.0410727713,
				"y": 1.0897160674,
				"z": -2.510100378,
				"element": "C" 
			},
			{
				"x": -0.1234775703,
				"y": 0.4761909721,
				"z": 0.047526643,
				"element": "C" 
			},
			{
				"x": -0.5457323528,
				"y": 0.966670608,
				"z": 1.2863756622,
				"element": "C" 
			},
			{
				"x": -0.5535718296,
				"y": 2.3378701489,
				"z": 1.5477594529,
				"element": "C" 
			},
			{
				"x": -0.1644177522,
				"y": 3.2419521566,
				"z": 0.5611147273,
				"element": "C" 
			},
			{
				"x": -0.093266021,
				"y": -1.0193527786,
				"z": -0.3073682187,
				"element": "C" 
			},
			{
				"x": -1.0570203688,
				"y": -1.3266206756,
				"z": -1.376607074,
				"element": "N" 
			},
			{
				"x": -2.3565807937,
				"y": -1.6613804559,
				"z": -1.1407430784,
				"element": "C" 
			},
			{
				"x": -3.2655525382,
				"y": -1.6098532087,
				"z": -1.9557498141,
				"element": "O" 
			},
			{
				"x": -2.5734878965,
				"y": -2.1577664648,
				"z": 0.1556608744,
				"element": "N" 
			},
			{
				"x": -1.5782394029,
				"y": -2.4595371466,
				"z": 1.0674427737,
				"element": "C" 
			},
			{
				"x": -2.0399602533,
				"y": -3.3499144251,
				"z": 2.1879427368,
				"element": "C" 
			},
			{
				"x": -0.325529877,
				"y": -1.9531331708,
				"z": 0.8698722925,
				"element": "C" 
			},
			{
				"x": 0.8053712519,
				"y": -2.2436743323,
				"z": 1.7712615947,
				"element": "C" 
			},
			{
				"x": 0.7806308161,
				"y": -2.9362921854,
				"z": 2.7798929462,
				"element": "O" 
			},
			{
				"x": 1.9287801383,
				"y": -1.618886398,
				"z": 1.3327478575,
				"element": "O" 
			},
			{
				"x": 3.1753800482,
				"y": -1.7257741898,
				"z": 2.0843680443,
				"element": "C" 
			},
			{
				"x": 3.0591419051,
				"y": -1.0831068181,
				"z": 3.4651991706,
				"element": "C" 
			},
			{
				"x": 3.7087332469,
				"y": -3.1571138213,
				"z": 2.1019284974,
				"element": "C" 
			},
			{
				"x": -1.2465322111,
				"y": 4.1877523928,
				"z": -2.3909564738,
				"element": "H" 
			},
			{
				"x": 0.1678224592,
				"y": 4.5780382067,
				"z": -3.4081201199,
				"element": "H" 
			},
			{
				"x": -0.4030571266,
				"y": 2.8880711686,
				"z": -3.2838752268,
				"element": "H" 
			},
			{
				"x": 2.6847450077,
				"y": 0.5720520019,
				"z": -1.7887483564,
				"element": "H" 
			},
			{
				"x": 2.1789206987,
				"y": 0.6505828117,
				"z": -3.5001197251,
				"element": "H" 
			},
			{
				"x": 2.2970786616,
				"y": 2.1521773976,
				"z": -2.5338323104,
				"element": "H" 
			},
			{
				"x": -0.8574730259,
				"y": 0.2664630325,
				"z": 2.0541560478,
				"element": "H" 
			},
			{
				"x": -0.8752900823,
				"y": 2.7026836069,
				"z": 2.5186669717,
				"element": "H" 
			},
			{
				"x": -0.1721942299,
				"y": 4.3135921563,
				"z": 0.7331387954,
				"element": "H" 
			},
			{
				"x": 0.8938524789,
				"y": -1.2300838871,
				"z": -0.7213982425,
				"element": "H" 
			},
			{
				"x": -0.8978797925,
				"y": -0.8526671993,
				"z": -2.2559920413,
				"element": "H" 
			},
			{
				"x": -3.5016377807,
				"y": -2.5324790338,
				"z": 0.291559185,
				"element": "H" 
			},
			{
				"x": -1.2732105088,
				"y": -3.4543351871,
				"z": 2.9496388045,
				"element": "H" 
			},
			{
				"x": -2.2875065919,
				"y": -4.3427978602,
				"z": 1.792696045,
				"element": "H" 
			},
			{
				"x": -2.9540691865,
				"y": -2.9371233191,
				"z": 2.6315012153,
				"element": "H" 
			},
			{
				"x": 3.8439917301,
				"y": -1.1122789917,
				"z": 1.4711838316,
				"element": "H" 
			},
			{
				"x": 4.0559609438,
				"y": -0.9996666821,
				"z": 3.9111412952,
				"element": "H" 
			},
			{
				"x": 2.4260381173,
				"y": -1.6772096327,
				"z": 4.1253187486,
				"element": "H" 
			},
			{
				"x": 2.6396476295,
				"y": -0.0760811024,
				"z": 3.380859533,
				"element": "H" 
			},
			{
				"x": 3.7399423009,
				"y": -3.5656477338,
				"z": 1.0872067558,
				"element": "H" 
			},
			{
				"x": 3.0871428449,
				"y": -3.8022865166,
				"z": 2.7236880379,
				"element": "H" 
			},
			{
				"x": 4.7296906515,
				"y": -3.1582590244,
				"z": 2.4985098202,
				"element": "H" 
			}
		],
		 "valence_orbital": [ 
			{
				"type": "occ",
				"energy": -0.25908,
				"method": "rhf"
			},
			{
				"type": "occ",
				"energy": -0.25031,
				"method": "rhf"
			},
			{
				"type": "occ",
				"energy": -0.23902,
				"method": "rhf"
			},
			{
				"type": "occ",
				"energy": -0.23341,
				"method": "rhf"
			},
			{
				"type": "occ",
				"energy": -0.22379,
				"method": "rhf"
			},
			{
				"type": "unocc",
				"energy": -0.03522,
				"method": "rhf"
			},
			{
				"type": "unocc",
				"energy": -0.0056,
				"method": "rhf"
			},
			{
				"type": "unocc",
				"energy": -0.00062,
				"method": "rhf"
			},
			{
				"type": "unocc",
				"energy": 0.0608,
				"method": "rhf"
			},
			{
				"type": "unocc",
				"energy": 0.06888,
				"method": "rhf"
			}
		],
		"cosmo_sigma_profile": { 
			"-0.025": 0.0,
			"-0.024": 0.0,
			"-0.023": 0.0,
			"-0.022": 0.0,
			"-0.021": 0.0,
			"-0.02": 0.0,
			"-0.019": 0.0,
			"-0.018": 0.0,
			"-0.017": 0.0,
			"-0.016": 0.0351440576771,
			"-0.015": 0.7278908477,
			"-0.014": 0.887311376323,
			"-0.013": 1.08508497796,
			"-0.012": 0.761377543179,
			"-0.011": 1.34996455449,
			"-0.01": 1.10275196318,
			"-0.009": 2.18526795591,
			"-0.008": 2.04606385816,
			"-0.007": 2.74045881127,
			"-0.006": 10.1506163607,
			"-0.005": 18.7506401683,
			"-0.004": 34.6754760833,
			"-0.003": 42.991415913,
			"-0.002": 40.6261138725,
			"-0.001": 37.9975425509,
			"0.0": 41.5199769012,
			"0.001": 28.7503677973,
			"0.002": 19.7233909505,
			"0.003": 17.4738541363,
			"0.004": 15.4522625767,
			"0.005": 13.1243529866,
			"0.006": 7.31092707062,
			"0.007": 5.56868164632,
			"0.008": 4.28928615454,
			"0.009": 3.70336676198,
			"0.01": 3.24081357266,
			"0.011": 4.49508360474,
			"0.012": 4.14519669701,
			"0.013": 4.96126917211,
			"0.014": 4.9687172153,
			"0.015": 0.376763382429,
			"0.016": 0.0,
			"0.017": 0.0,
			"0.018": 0.0,
			"0.019": 0.0,
			"0.02": 0.0,
			"0.021": 0.0,
			"0.022": 0.0,
			"0.023": 0.0,
			"0.024": 0.0,
			"0.025": 0.0
		}
	}
}
