{
	 "smiles": "OC(=O)C1=CC(=CC=C1)N1C=NN=N1", 
	 "Tm": 442.15, 
	 "num_atms": 20, 
	 "gaussian": { 
		 "optdone": 1, 
		 "sigma_profile": "yes", 
		 "theory": "DFT", 
		 "functional": "B3LYP", 
		 "basiset": "6-31G**", 
		 "properties": { 
			 "R2extent": 3427.2553, 
			 "electric_dipole_moment_norm": 1.69303579702, 
			 "electric_quadrupole_moment_norm": 31.9404097843, 
			 "total_energy": -677.86258056, 
			 "HOMO_LUMO_gap": 0.20099, 
			 "cosmo_polarized_energy": -24.41, 
			 "cosmo_cavitation_energy": 26.11, 
			 "cosmo_dispersion_energy": -19.06, 
			 "cosmo_repulsion_energy": 1.47, 
			 "cosmo_total_nonelectrostatic_energy": 8.52, 
			 "SMD_solvation_energy": 4.39 
		},
		"coords": [
			{
				"x": -3.3181032276,
				"y": -0.8346884086,
				"z": 0.9001485164,
				"element": "O" 
			},
			{
				"x": -2.1200977751,
				"y": -1.1715503108,
				"z": 1.4468331946,
				"element": "C" 
			},
			{
				"x": -2.033049807,
				"y": -2.1197043004,
				"z": 2.1882016072,
				"element": "O" 
			},
			{
				"x": -0.941618232,
				"y": -0.317696711,
				"z": 1.0728938373,
				"element": "C" 
			},
			{
				"x": -0.8934398865,
				"y": 0.4110987728,
				"z": -0.1216195492,
				"element": "C" 
			},
			{
				"x": 0.2445779508,
				"y": 1.1609825273,
				"z": -0.4246864713,
				"element": "C" 
			},
			{
				"x": 1.3232906191,
				"y": 1.2177519969,
				"z": 0.4620292833,
				"element": "C" 
			},
			{
				"x": 1.2636107725,
				"y": 0.4928231467,
				"z": 1.6516274079,
				"element": "C" 
			},
			{
				"x": 0.1487093665,
				"y": -0.2871567194,
				"z": 1.9510362149,
				"element": "C" 
			},
			{
				"x": 0.3149478766,
				"y": 1.8751388787,
				"z": -1.6521623817,
				"element": "N" 
			},
			{
				"x": -0.2173712229,
				"y": 1.6057033785,
				"z": -2.8685566427,
				"element": "C" 
			},
			{
				"x": 0.1288653859,
				"y": 2.5549734457,
				"z": -3.7092027289,
				"element": "N" 
			},
			{
				"x": 0.8928240017,
				"y": 3.4243739808,
				"z": -2.9882483238,
				"element": "N" 
			},
			{
				"x": 1.0169000907,
				"y": 3.0373390288,
				"z": -1.7642876602,
				"element": "N" 
			},
			{
				"x": -3.2764808525,
				"y": 0.048301663,
				"z": 0.5074121214,
				"element": "H" 
			},
			{
				"x": -1.7191527435,
				"y": 0.3826242649,
				"z": -0.8263137066,
				"element": "H" 
			},
			{
				"x": 2.1885468879,
				"y": 1.8184521411,
				"z": 0.2079487072,
				"element": "H" 
			},
			{
				"x": 2.1012754406,
				"y": 0.5292044098,
				"z": 2.3405880603,
				"element": "H" 
			},
			{
				"x": 0.0981192784,
				"y": -0.8759199902,
				"z": 2.8601036458,
				"element": "H" 
			},
			{
				"x": -0.8053539236,
				"y": 0.7310488053,
				"z": -3.0992451319,
				"element": "H" 
			}
		],
		 "valence_orbital": [ 
			{
				"type": "occ",
				"energy": -0.31326,
				"method": "rhf"
			},
			{
				"type": "occ",
				"energy": -0.30318,
				"method": "rhf"
			},
			{
				"type": "occ",
				"energy": -0.3006,
				"method": "rhf"
			},
			{
				"type": "occ",
				"energy": -0.29244,
				"method": "rhf"
			},
			{
				"type": "occ",
				"energy": -0.27778,
				"method": "rhf"
			},
			{
				"type": "unocc",
				"energy": -0.07679,
				"method": "rhf"
			},
			{
				"type": "unocc",
				"energy": -0.06625,
				"method": "rhf"
			},
			{
				"type": "unocc",
				"energy": -0.01665,
				"method": "rhf"
			},
			{
				"type": "unocc",
				"energy": 0.00572,
				"method": "rhf"
			},
			{
				"type": "unocc",
				"energy": 0.02541,
				"method": "rhf"
			}
		],
		"cosmo_sigma_profile": { 
			"-0.025": 0.0,
			"-0.024": 0.0,
			"-0.023": 0.0,
			"-0.022": 0.0,
			"-0.021": 0.0,
			"-0.02": 0.0,
			"-0.019": 0.913721028225,
			"-0.018": 1.27458603414,
			"-0.017": 1.12892620894,
			"-0.016": 0.978711129538,
			"-0.015": 0.725269229056,
			"-0.014": 1.08960973775,
			"-0.013": 3.80588421701,
			"-0.012": 4.92927144342,
			"-0.011": 3.41913788231,
			"-0.01": 2.75979257458,
			"-0.009": 2.8391471424,
			"-0.008": 4.99164433107,
			"-0.007": 9.30012605183,
			"-0.006": 10.4445276477,
			"-0.005": 11.4457862638,
			"-0.004": 11.2607105911,
			"-0.003": 10.9000494188,
			"-0.002": 10.2403172515,
			"-0.001": 9.77324358713,
			"0.0": 14.3888503362,
			"0.001": 14.1597637075,
			"0.002": 8.67225067658,
			"0.003": 4.51448439909,
			"0.004": 4.80069177293,
			"0.005": 5.41399162403,
			"0.006": 6.16448902423,
			"0.007": 6.51068771027,
			"0.008": 7.96632030079,
			"0.009": 7.36405171908,
			"0.01": 11.0153307382,
			"0.011": 8.22938565851,
			"0.012": 5.36972235827,
			"0.013": 3.27391339893,
			"0.014": 1.06942822482,
			"0.015": 0.183452887277,
			"0.016": 0.0,
			"0.017": 0.0,
			"0.018": 0.0,
			"0.019": 0.0,
			"0.02": 0.0,
			"0.021": 0.0,
			"0.022": 0.0,
			"0.023": 0.0,
			"0.024": 0.0,
			"0.025": 0.0
		}
	}
}
