{
	 "smiles": "COC1=CC=C(OC(C)=O)C=C1", 
	 "Tm": 305.15, 
	 "num_atms": 22, 
	 "gaussian": { 
		 "optdone": 1, 
		 "sigma_profile": "yes", 
		 "theory": "DFT", 
		 "functional": "B3LYP", 
		 "basiset": "6-31G**", 
		 "properties": { 
			 "R2extent": 3299.0323, 
			 "electric_dipole_moment_norm": 5.14909613233, 
			 "electric_quadrupole_moment_norm": 22.1114715155, 
			 "total_energy": -574.644821206, 
			 "HOMO_LUMO_gap": 0.20671, 
			 "cosmo_polarized_energy": -12.0, 
			 "cosmo_cavitation_energy": 26.4, 
			 "cosmo_dispersion_energy": -19.01, 
			 "cosmo_repulsion_energy": 1.53, 
			 "cosmo_total_nonelectrostatic_energy": 8.92, 
			 "SMD_solvation_energy": 6.72 
		},
		"coords": [
			{
				"x": -1.2814630675,
				"y": -4.2861526028,
				"z": 2.0028572464,
				"element": "C" 
			},
			{
				"x": -1.670926462,
				"y": -2.9797374171,
				"z": 1.6088413371,
				"element": "O" 
			},
			{
				"x": -0.9628164539,
				"y": -2.365548916,
				"z": 0.6180365755,
				"element": "C" 
			},
			{
				"x": -1.4067887792,
				"y": -1.0825415328,
				"z": 0.2599311392,
				"element": "C" 
			},
			{
				"x": -0.7558589808,
				"y": -0.367768684,
				"z": -0.7375488977,
				"element": "C" 
			},
			{
				"x": 0.3513912244,
				"y": -0.9268443335,
				"z": -1.3821133047,
				"element": "C" 
			},
			{
				"x": 0.9614551308,
				"y": -0.2397194361,
				"z": -2.4299467373,
				"element": "O" 
			},
			{
				"x": 2.0082731916,
				"y": 0.6310239985,
				"z": -2.2188336538,
				"element": "C" 
			},
			{
				"x": 2.4851602045,
				"y": 0.81381396,
				"z": -0.7938527215,
				"element": "C" 
			},
			{
				"x": 2.481479276,
				"y": 1.1919168792,
				"z": -3.1726728794,
				"element": "O" 
			},
			{
				"x": 0.7901236802,
				"y": -2.2024456346,
				"z": -1.0434185444,
				"element": "C" 
			},
			{
				"x": 0.1382905621,
				"y": -2.9265899917,
				"z": -0.0406532087,
				"element": "C" 
			},
			{
				"x": -0.2576395553,
				"y": -4.3018322494,
				"z": 2.3986393433,
				"element": "H" 
			},
			{
				"x": -1.974617411,
				"y": -4.5821183295,
				"z": 2.7915397509,
				"element": "H" 
			},
			{
				"x": -1.3556524173,
				"y": -4.9989768158,
				"z": 1.1714843681,
				"element": "H" 
			},
			{
				"x": -2.2685643153,
				"y": -0.6706899335,
				"z": 0.7743564619,
				"element": "H" 
			},
			{
				"x": -1.1034985363,
				"y": 0.6175591844,
				"z": -1.0315979392,
				"element": "H" 
			},
			{
				"x": 1.6811373978,
				"y": 1.1917359197,
				"z": -0.1559344049,
				"element": "H" 
			},
			{
				"x": 3.3128618094,
				"y": 1.5216625092,
				"z": -0.8039320928,
				"element": "H" 
			},
			{
				"x": 2.8134483743,
				"y": -0.1369215516,
				"z": -0.3644359964,
				"element": "H" 
			},
			{
				"x": 1.6348075107,
				"y": -2.6331484757,
				"z": -1.5718551222,
				"element": "H" 
			},
			{
				"x": 0.4932976167,
				"y": -3.9189765469,
				"z": 0.2095092806,
				"element": "H" 
			}
		],
		 "valence_orbital": [ 
			{
				"type": "occ",
				"energy": -0.32311,
				"method": "rhf"
			},
			{
				"type": "occ",
				"energy": -0.30107,
				"method": "rhf"
			},
			{
				"type": "occ",
				"energy": -0.27174,
				"method": "rhf"
			},
			{
				"type": "occ",
				"energy": -0.2663,
				"method": "rhf"
			},
			{
				"type": "occ",
				"energy": -0.22476,
				"method": "rhf"
			},
			{
				"type": "unocc",
				"energy": -0.01805,
				"method": "rhf"
			},
			{
				"type": "unocc",
				"energy": 0.00095,
				"method": "rhf"
			},
			{
				"type": "unocc",
				"energy": 0.01157,
				"method": "rhf"
			},
			{
				"type": "unocc",
				"energy": 0.07967,
				"method": "rhf"
			},
			{
				"type": "unocc",
				"energy": 0.0972,
				"method": "rhf"
			}
		],
		"cosmo_sigma_profile": { 
			"-0.025": 0.0,
			"-0.024": 0.0,
			"-0.023": 0.0,
			"-0.022": 0.0,
			"-0.021": 0.0,
			"-0.02": 0.0,
			"-0.019": 0.0,
			"-0.018": 0.0,
			"-0.017": 0.0,
			"-0.016": 0.0,
			"-0.015": 0.0,
			"-0.014": 0.0,
			"-0.013": 0.0,
			"-0.012": 0.0,
			"-0.011": 0.0,
			"-0.01": 0.0,
			"-0.009": 0.0,
			"-0.008": 0.0984423015001,
			"-0.007": 6.30854850659,
			"-0.006": 19.9678284743,
			"-0.005": 23.7935235637,
			"-0.004": 19.562727445,
			"-0.003": 20.0395957911,
			"-0.002": 16.6959835686,
			"-0.001": 11.403401178,
			"0.0": 6.88126632067,
			"0.001": 8.70190110993,
			"0.002": 10.0809563919,
			"0.003": 15.8850395667,
			"0.004": 12.3673429356,
			"0.005": 5.30483941892,
			"0.006": 3.79310660511,
			"0.007": 3.12349384146,
			"0.008": 3.69939610812,
			"0.009": 4.92541685361,
			"0.01": 5.45763054876,
			"0.011": 5.56319005395,
			"0.012": 4.92063649537,
			"0.013": 1.46149886825,
			"0.014": 0.0,
			"0.015": 0.0,
			"0.016": 0.0,
			"0.017": 0.0,
			"0.018": 0.0,
			"0.019": 0.0,
			"0.02": 0.0,
			"0.021": 0.0,
			"0.022": 0.0,
			"0.023": 0.0,
			"0.024": 0.0,
			"0.025": 0.0
		}
	}
}
