{
	 "smiles": "CCOC(=O)C1=CN2C=CSC2=N1", 
	 "Tm": 362.15, 
	 "num_atms": 21, 
	 "gaussian": { 
		 "optdone": 1, 
		 "sigma_profile": "yes", 
		 "theory": "DFT", 
		 "functional": "B3LYP", 
		 "basiset": "6-31G**", 
		 "properties": { 
			 "R2extent": 5511.939, 
			 "electric_dipole_moment_norm": 6.03194890562, 
			 "electric_quadrupole_moment_norm": 23.649725984, 
			 "total_energy": -967.793916806, 
			 "HOMO_LUMO_gap": 0.19268, 
			 "cosmo_polarized_energy": -17.3, 
			 "cosmo_cavitation_energy": 27.83, 
			 "cosmo_dispersion_energy": -21.04, 
			 "cosmo_repulsion_energy": 1.63, 
			 "cosmo_total_nonelectrostatic_energy": 8.41, 
			 "SMD_solvation_energy": 4.76 
		},
		"coords": [
			{
				"x": 2.2064413425,
				"y": 1.4861783087,
				"z": 0.3654476293,
				"element": "C" 
			},
			{
				"x": 1.1506719519,
				"y": 0.8336404312,
				"z": 1.2380892039,
				"element": "C" 
			},
			{
				"x": 0.1232137292,
				"y": 0.317780009,
				"z": 0.3656813418,
				"element": "O" 
			},
			{
				"x": -0.9123852103,
				"y": -0.3058666317,
				"z": 0.9889085189,
				"element": "C" 
			},
			{
				"x": -0.9959425445,
				"y": -0.4356637472,
				"z": 2.1902067152,
				"element": "O" 
			},
			{
				"x": -1.8961506841,
				"y": -0.7891704873,
				"z": -0.0019007835,
				"element": "C" 
			},
			{
				"x": -1.82122399,
				"y": -0.6522755944,
				"z": -1.3781472854,
				"element": "C" 
			},
			{
				"x": -2.9622714935,
				"y": -1.2592026782,
				"z": -1.8531756378,
				"element": "N" 
			},
			{
				"x": -3.5879146596,
				"y": -1.5261301502,
				"z": -3.0676424476,
				"element": "C" 
			},
			{
				"x": -4.7522690823,
				"y": -2.1903882369,
				"z": -2.9020346322,
				"element": "C" 
			},
			{
				"x": -5.134160433,
				"y": -2.5212700562,
				"z": -1.2121496105,
				"element": "S" 
			},
			{
				"x": -3.6467897356,
				"y": -1.7201537665,
				"z": -0.7360021995,
				"element": "C" 
			},
			{
				"x": -3.0414055059,
				"y": -1.4585750308,
				"z": 0.390977657,
				"element": "N" 
			},
			{
				"x": 3.0074002861,
				"y": 1.8921914674,
				"z": 0.9911637191,
				"element": "H" 
			},
			{
				"x": 2.6455293746,
				"y": 0.7612918364,
				"z": -0.3263692446,
				"element": "H" 
			},
			{
				"x": 1.7790784881,
				"y": 2.3059545212,
				"z": -0.2195311396,
				"element": "H" 
			},
			{
				"x": 0.6992531081,
				"y": 1.5449658454,
				"z": 1.9373722583,
				"element": "H" 
			},
			{
				"x": 1.5603944696,
				"y": 0.0094720089,
				"z": 1.8310766936,
				"element": "H" 
			},
			{
				"x": -1.0836791679,
				"y": -0.1947283469,
				"z": -2.0161690615,
				"element": "H" 
			},
			{
				"x": -3.1369773632,
				"y": -1.2091008228,
				"z": -3.9971356031,
				"element": "H" 
			},
			{
				"x": -5.4265128801,
				"y": -2.514648879,
				"z": -3.6807660921,
				"element": "H" 
			}
		],
		 "valence_orbital": [ 
			{
				"type": "occ",
				"energy": -0.29067,
				"method": "rhf"
			},
			{
				"type": "occ",
				"energy": -0.28584,
				"method": "rhf"
			},
			{
				"type": "occ",
				"energy": -0.26279,
				"method": "rhf"
			},
			{
				"type": "occ",
				"energy": -0.24516,
				"method": "rhf"
			},
			{
				"type": "occ",
				"energy": -0.22863,
				"method": "rhf"
			},
			{
				"type": "unocc",
				"energy": -0.03595,
				"method": "rhf"
			},
			{
				"type": "unocc",
				"energy": 0.00112,
				"method": "rhf"
			},
			{
				"type": "unocc",
				"energy": 0.00163,
				"method": "rhf"
			},
			{
				"type": "unocc",
				"energy": 0.03668,
				"method": "rhf"
			},
			{
				"type": "unocc",
				"energy": 0.07106,
				"method": "rhf"
			}
		],
		"cosmo_sigma_profile": { 
			"-0.025": 0.0,
			"-0.024": 0.0,
			"-0.023": 0.0,
			"-0.022": 0.0,
			"-0.021": 0.0,
			"-0.02": 0.0,
			"-0.019": 0.0,
			"-0.018": 0.0,
			"-0.017": 0.0,
			"-0.016": 0.0,
			"-0.015": 0.0,
			"-0.014": 0.0,
			"-0.013": 0.0,
			"-0.012": 0.0,
			"-0.011": 1.61394600084,
			"-0.01": 7.31910179231,
			"-0.009": 5.43662878565,
			"-0.008": 5.12051298702,
			"-0.007": 4.55484634909,
			"-0.006": 4.75165421274,
			"-0.005": 8.81956304807,
			"-0.004": 15.8874053849,
			"-0.003": 17.7584135343,
			"-0.002": 22.3706352316,
			"-0.001": 21.2351512647,
			"0.0": 22.5514491022,
			"0.001": 19.5596846739,
			"0.002": 16.0977679524,
			"0.003": 10.0898125796,
			"0.004": 6.45445382682,
			"0.005": 4.15423528936,
			"0.006": 3.82965923151,
			"0.007": 2.34428149822,
			"0.008": 2.09252957316,
			"0.009": 2.28417612219,
			"0.01": 2.98408473153,
			"0.011": 3.3977961646,
			"0.012": 5.63999393255,
			"0.013": 2.78969051243,
			"0.014": 2.60009551679,
			"0.015": 1.66500056389,
			"0.016": 1.68454220092,
			"0.017": 0.260816279642,
			"0.018": 0.0,
			"0.019": 0.0,
			"0.02": 0.0,
			"0.021": 0.0,
			"0.022": 0.0,
			"0.023": 0.0,
			"0.024": 0.0,
			"0.025": 0.0
		}
	}
}
