{
	 "smiles": "OCC1=CC=CC=C1C1=CC=CC=C1", 
	 "Tm": 322.65, 
	 "num_atms": 26, 
	 "gaussian": { 
		 "optdone": 1, 
		 "sigma_profile": "yes", 
		 "theory": "DFT", 
		 "functional": "B3LYP", 
		 "basiset": "6-31G**", 
		 "properties": { 
			 "R2extent": 2997.7835, 
			 "electric_dipole_moment_norm": 1.56306848858, 
			 "electric_quadrupole_moment_norm": 6.64213307831, 
			 "total_energy": -577.834496078, 
			 "HOMO_LUMO_gap": 0.20525, 
			 "cosmo_polarized_energy": -8.47, 
			 "cosmo_cavitation_energy": 29.12, 
			 "cosmo_dispersion_energy": -21.12, 
			 "cosmo_repulsion_energy": 1.66, 
			 "cosmo_total_nonelectrostatic_energy": 9.67, 
			 "SMD_solvation_energy": 4.74 
		},
		"coords": [
			{
				"x": 2.8438269126,
				"y": -1.7308059107,
				"z": 1.1262700706,
				"element": "O" 
			},
			{
				"x": 1.5358955706,
				"y": -1.3716643565,
				"z": 0.6984877042,
				"element": "C" 
			},
			{
				"x": 1.1519583599,
				"y": 0.0562368932,
				"z": 1.0652269427,
				"element": "C" 
			},
			{
				"x": 1.7910259729,
				"y": 0.6577725006,
				"z": 2.1569194428,
				"element": "C" 
			},
			{
				"x": 1.5194968396,
				"y": 1.9749399058,
				"z": 2.5233848114,
				"element": "C" 
			},
			{
				"x": 0.5970807974,
				"y": 2.7190520485,
				"z": 1.7881244559,
				"element": "C" 
			},
			{
				"x": -0.0490804715,
				"y": 2.1323326805,
				"z": 0.7022549302,
				"element": "C" 
			},
			{
				"x": 0.2046162956,
				"y": 0.8020903402,
				"z": 0.3267223355,
				"element": "C" 
			},
			{
				"x": -0.5331195094,
				"y": 0.2407519447,
				"z": -0.8418039591,
				"element": "C" 
			},
			{
				"x": -0.5460124539,
				"y": 0.9302008624,
				"z": -2.0663925621,
				"element": "C" 
			},
			{
				"x": -1.2562440352,
				"y": 0.4364825626,
				"z": -3.1604129641,
				"element": "C" 
			},
			{
				"x": -1.9728398319,
				"y": -0.7568404912,
				"z": -3.0518199264,
				"element": "C" 
			},
			{
				"x": -1.9745780806,
				"y": -1.4502883662,
				"z": -1.8403092809,
				"element": "C" 
			},
			{
				"x": -1.2626501139,
				"y": -0.9560911575,
				"z": -0.7471501448,
				"element": "C" 
			},
			{
				"x": 3.4634079013,
				"y": -1.1232515402,
				"z": 0.7001799781,
				"element": "H" 
			},
			{
				"x": 0.8727167239,
				"y": -2.0889082348,
				"z": 1.1961912009,
				"element": "H" 
			},
			{
				"x": 1.4118722788,
				"y": -1.5277621546,
				"z": -0.38182941,
				"element": "H" 
			},
			{
				"x": 2.5207935379,
				"y": 0.0735319285,
				"z": 2.7083769409,
				"element": "H" 
			},
			{
				"x": 2.0274993862,
				"y": 2.4166617523,
				"z": 3.3760764243,
				"element": "H" 
			},
			{
				"x": 0.37568021,
				"y": 3.7471546453,
				"z": 2.0600973746,
				"element": "H" 
			},
			{
				"x": -0.7810350719,
				"y": 2.7023658169,
				"z": 0.1370250393,
				"element": "H" 
			},
			{
				"x": 0.0200118754,
				"y": 1.8527279333,
				"z": -2.1597363803,
				"element": "H" 
			},
			{
				"x": -1.2461501699,
				"y": 0.9824133223,
				"z": -4.0996943303,
				"element": "H" 
			},
			{
				"x": -2.5262009273,
				"y": -1.1422011775,
				"z": -3.9033036842,
				"element": "H" 
			},
			{
				"x": -2.5371110532,
				"y": -2.374512005,
				"z": -1.7422000631,
				"element": "H" 
			},
			{
				"x": -1.2926609436,
				"y": -1.489789743,
				"z": 0.1982150539,
				"element": "H" 
			}
		],
		 "valence_orbital": [ 
			{
				"type": "occ",
				"energy": -0.2772,
				"method": "rhf"
			},
			{
				"type": "occ",
				"energy": -0.26455,
				"method": "rhf"
			},
			{
				"type": "occ",
				"energy": -0.25273,
				"method": "rhf"
			},
			{
				"type": "occ",
				"energy": -0.24149,
				"method": "rhf"
			},
			{
				"type": "occ",
				"energy": -0.22921,
				"method": "rhf"
			},
			{
				"type": "unocc",
				"energy": -0.02396,
				"method": "rhf"
			},
			{
				"type": "unocc",
				"energy": -0.00683,
				"method": "rhf"
			},
			{
				"type": "unocc",
				"energy": 0.00152,
				"method": "rhf"
			},
			{
				"type": "unocc",
				"energy": 0.0203,
				"method": "rhf"
			},
			{
				"type": "unocc",
				"energy": 0.08763,
				"method": "rhf"
			}
		],
		"cosmo_sigma_profile": { 
			"-0.025": 0.0,
			"-0.024": 0.0,
			"-0.023": 0.0,
			"-0.022": 0.0,
			"-0.021": 0.0,
			"-0.02": 0.0,
			"-0.019": 0.0,
			"-0.018": 0.0,
			"-0.017": 0.0,
			"-0.016": 0.0791143816673,
			"-0.015": 0.995273704462,
			"-0.014": 0.771370489717,
			"-0.013": 0.68637359771,
			"-0.012": 1.01697219776,
			"-0.011": 0.910087260126,
			"-0.01": 0.626984138779,
			"-0.009": 0.270935041775,
			"-0.008": 1.11072182476,
			"-0.007": 1.29001842466,
			"-0.006": 8.43645473681,
			"-0.005": 19.6216059679,
			"-0.004": 21.9247397813,
			"-0.003": 22.2273677471,
			"-0.002": 18.0143758415,
			"-0.001": 14.8325762347,
			"0.0": 15.2558583289,
			"0.001": 14.5595381679,
			"0.002": 16.9079537119,
			"0.003": 16.0791504137,
			"0.004": 16.295446265,
			"0.005": 16.8175090628,
			"0.006": 12.1746197197,
			"0.007": 1.42927010844,
			"0.008": 1.28972077786,
			"0.009": 1.03250491206,
			"0.01": 1.21430495396,
			"0.011": 1.01133905485,
			"0.012": 1.13364007826,
			"0.013": 1.93351996092,
			"0.014": 1.76870837412,
			"0.015": 0.159773472887,
			"0.016": 0.0,
			"0.017": 0.0,
			"0.018": 0.0,
			"0.019": 0.0,
			"0.02": 0.0,
			"0.021": 0.0,
			"0.022": 0.0,
			"0.023": 0.0,
			"0.024": 0.0,
			"0.025": 0.0
		}
	}
}
