{
	 "smiles": "CC1=C(C)N=C(Cl)C(Cl)=N1", 
	 "Tm": 351.15, 
	 "num_atms": 16, 
	 "gaussian": { 
		 "optdone": 1, 
		 "sigma_profile": "yes", 
		 "theory": "DFT", 
		 "functional": "B3LYP", 
		 "basiset": "6-31G**", 
		 "properties": { 
			 "R2extent": 3110.3372, 
			 "electric_dipole_moment_norm": 3.69442818038, 
			 "electric_quadrupole_moment_norm": 5.35175730205, 
			 "total_energy": -1262.14414041, 
			 "HOMO_LUMO_gap": 0.19593, 
			 "cosmo_polarized_energy": -6.84, 
			 "cosmo_cavitation_energy": 23.75, 
			 "cosmo_dispersion_energy": -17.86, 
			 "cosmo_repulsion_energy": 1.47, 
			 "cosmo_total_nonelectrostatic_energy": 7.35, 
			 "SMD_solvation_energy": 1.11 
		},
		"coords": [
			{
				"x": 1.5617093263,
				"y": -1.9808197064,
				"z": 0.3689097113,
				"element": "C" 
			},
			{
				"x": 1.2886453549,
				"y": -0.5015750941,
				"z": 0.3696017949,
				"element": "C" 
			},
			{
				"x": 0.0991465599,
				"y": 0.0477118701,
				"z": 0.896335473,
				"element": "C" 
			},
			{
				"x": -0.985082825,
				"y": -0.8047338942,
				"z": 1.4967908911,
				"element": "C" 
			},
			{
				"x": -0.0964715769,
				"y": 1.3722222006,
				"z": 0.8731654534,
				"element": "N" 
			},
			{
				"x": 0.8344166168,
				"y": 2.1507585923,
				"z": 0.3534470901,
				"element": "C" 
			},
			{
				"x": 0.5285213959,
				"y": 3.8712927579,
				"z": 0.3484719026,
				"element": "Cl" 
			},
			{
				"x": 2.0175101624,
				"y": 1.6044373781,
				"z": -0.1704180483,
				"element": "C" 
			},
			{
				"x": 3.2701340589,
				"y": 2.6053057612,
				"z": -0.865422036,
				"element": "Cl" 
			},
			{
				"x": 2.2240607991,
				"y": 0.3006534604,
				"z": -0.1543880018,
				"element": "N" 
			},
			{
				"x": 0.7955960708,
				"y": -2.5267991944,
				"z": -0.1938505282,
				"element": "H" 
			},
			{
				"x": 1.5602915129,
				"y": -2.3864195969,
				"z": 1.3873458818,
				"element": "H" 
			},
			{
				"x": 2.534793598,
				"y": -2.1717390542,
				"z": -0.0847697452,
				"element": "H" 
			},
			{
				"x": -0.6104337533,
				"y": -1.3833626692,
				"z": 2.3491701362,
				"element": "H" 
			},
			{
				"x": -1.3748846289,
				"y": -1.524843803,
				"z": 0.7679538597,
				"element": "H" 
			},
			{
				"x": -1.8034526719,
				"y": -0.1685890081,
				"z": 1.8355561654,
				"element": "H" 
			}
		],
		 "valence_orbital": [ 
			{
				"type": "occ",
				"energy": -0.33281,
				"method": "rhf"
			},
			{
				"type": "occ",
				"energy": -0.31432,
				"method": "rhf"
			},
			{
				"type": "occ",
				"energy": -0.30092,
				"method": "rhf"
			},
			{
				"type": "occ",
				"energy": -0.27495,
				"method": "rhf"
			},
			{
				"type": "occ",
				"energy": -0.25715,
				"method": "rhf"
			},
			{
				"type": "unocc",
				"energy": -0.06122,
				"method": "rhf"
			},
			{
				"type": "unocc",
				"energy": -0.04054,
				"method": "rhf"
			},
			{
				"type": "unocc",
				"energy": 0.0133,
				"method": "rhf"
			},
			{
				"type": "unocc",
				"energy": 0.0487,
				"method": "rhf"
			},
			{
				"type": "unocc",
				"energy": 0.07943,
				"method": "rhf"
			}
		],
		"cosmo_sigma_profile": { 
			"-0.025": 0.0,
			"-0.024": 0.0,
			"-0.023": 0.0,
			"-0.022": 0.0,
			"-0.021": 0.0,
			"-0.02": 0.0,
			"-0.019": 0.0,
			"-0.018": 0.0,
			"-0.017": 0.0,
			"-0.016": 0.0,
			"-0.015": 0.0,
			"-0.014": 0.0,
			"-0.013": 0.0,
			"-0.012": 0.0,
			"-0.011": 0.0,
			"-0.01": 0.0,
			"-0.009": 0.0,
			"-0.008": 0.0,
			"-0.007": 0.909039815132,
			"-0.006": 8.82015633493,
			"-0.005": 13.1182461213,
			"-0.004": 13.7918476124,
			"-0.003": 22.7366408824,
			"-0.002": 21.5769268696,
			"-0.001": 21.8974680533,
			"0.0": 11.9117977696,
			"0.001": 11.9274057483,
			"0.002": 10.4647094314,
			"0.003": 19.1376123367,
			"0.004": 16.8620588244,
			"0.005": 6.63890176859,
			"0.006": 2.65959107581,
			"0.007": 3.03884434143,
			"0.008": 2.1378595952,
			"0.009": 1.93874529705,
			"0.01": 2.06985393151,
			"0.011": 1.43277011478,
			"0.012": 1.14531239657,
			"0.013": 0.0312398055579,
			"0.014": 0.0,
			"0.015": 0.0,
			"0.016": 0.0,
			"0.017": 0.0,
			"0.018": 0.0,
			"0.019": 0.0,
			"0.02": 0.0,
			"0.021": 0.0,
			"0.022": 0.0,
			"0.023": 0.0,
			"0.024": 0.0,
			"0.025": 0.0
		}
	}
}
