{
	 "smiles": "CN1C2=C(N(CC(O)CO)C=N2)C(=O)N(C)C1=O", 
	 "Tm": 435.15, 
	 "num_atms": 32, 
	 "gaussian": { 
		 "optdone": 1, 
		 "sigma_profile": "yes", 
		 "theory": "DFT", 
		 "functional": "B3LYP", 
		 "basiset": "6-31G**", 
		 "properties": { 
			 "R2extent": 4814.1316, 
			 "electric_dipole_moment_norm": 3.36944203986, 
			 "electric_quadrupole_moment_norm": 6.95684342357, 
			 "total_energy": -909.439218424, 
			 "HOMO_LUMO_gap": 0.18371, 
			 "cosmo_polarized_energy": -17.37, 
			 "cosmo_cavitation_energy": 34.13, 
			 "cosmo_dispersion_energy": -24.93, 
			 "cosmo_repulsion_energy": 1.89, 
			 "cosmo_total_nonelectrostatic_energy": 11.09, 
			 "SMD_solvation_energy": 5.47 
		},
		"coords": [
			{
				"x": 0.8747642031,
				"y": 2.2875427518,
				"z": 3.3234308551,
				"element": "C" 
			},
			{
				"x": 0.1118669429,
				"y": 1.9568021737,
				"z": 2.1201009119,
				"element": "N" 
			},
			{
				"x": 0.7223725079,
				"y": 1.3392087597,
				"z": 1.0552077989,
				"element": "C" 
			},
			{
				"x": 0.0253909922,
				"y": 1.0121005417,
				"z": -0.0939212355,
				"element": "C" 
			},
			{
				"x": 0.9685016812,
				"y": 0.4398581074,
				"z": -0.9360879519,
				"element": "N" 
			},
			{
				"x": 0.7517866032,
				"y": -0.0626241137,
				"z": -2.2935758846,
				"element": "C" 
			},
			{
				"x": 0.1678740932,
				"y": -1.4851557434,
				"z": -2.3421245768,
				"element": "C" 
			},
			{
				"x": -1.0608596217,
				"y": -1.6111876798,
				"z": -1.6660560817,
				"element": "O" 
			},
			{
				"x": 1.1078126297,
				"y": -2.5133460181,
				"z": -1.7130922768,
				"element": "C" 
			},
			{
				"x": 2.3931539557,
				"y": -2.3633591403,
				"z": -2.3107768696,
				"element": "O" 
			},
			{
				"x": 2.1338689662,
				"y": 0.4493035587,
				"z": -0.2409444797,
				"element": "C" 
			},
			{
				"x": 2.0317012736,
				"y": 0.9877662671,
				"z": 0.9729822457,
				"element": "N" 
			},
			{
				"x": -1.3688258428,
				"y": 1.2709775264,
				"z": -0.261362091,
				"element": "C" 
			},
			{
				"x": -2.0576114334,
				"y": 0.9779410663,
				"z": -1.2496474842,
				"element": "O" 
			},
			{
				"x": -1.9179037455,
				"y": 1.9204160179,
				"z": 0.8608583095,
				"element": "N" 
			},
			{
				"x": -3.3464843296,
				"y": 2.2578414818,
				"z": 0.8387848703,
				"element": "C" 
			},
			{
				"x": -1.2427638054,
				"y": 2.276407931,
				"z": 2.0489974973,
				"element": "C" 
			},
			{
				"x": -1.8373629086,
				"y": 2.8338195924,
				"z": 2.9599756276,
				"element": "O" 
			},
			{
				"x": 1.7117154046,
				"y": 2.9410196133,
				"z": 3.0655031854,
				"element": "H" 
			},
			{
				"x": 1.270081501,
				"y": 1.3756777771,
				"z": 3.7783195389,
				"element": "H" 
			},
			{
				"x": 0.198055847,
				"y": 2.7899651623,
				"z": 4.0110254518,
				"element": "H" 
			},
			{
				"x": 1.7136544658,
				"y": -0.0562853359,
				"z": -2.8089149783,
				"element": "H" 
			},
			{
				"x": 0.0746095224,
				"y": 0.630578311,
				"z": -2.7977518473,
				"element": "H" 
			},
			{
				"x": 0.0706102261,
				"y": -1.7215276046,
				"z": -3.4165411245,
				"element": "H" 
			},
			{
				"x": -1.5668802118,
				"y": -0.7806750119,
				"z": -1.7493196223,
				"element": "H" 
			},
			{
				"x": 1.1388375685,
				"y": -2.3401728303,
				"z": -0.6276472805,
				"element": "H" 
			},
			{
				"x": 0.6885409466,
				"y": -3.5144583624,
				"z": -1.880841146,
				"element": "H" 
			},
			{
				"x": 2.9559259348,
				"y": -3.0831117227,
				"z": -2.0020619875,
				"element": "H" 
			},
			{
				"x": 3.0404803888,
				"y": 0.0413155428,
				"z": -0.6664160646,
				"element": "H" 
			},
			{
				"x": -3.4748828507,
				"y": 3.3365727857,
				"z": 0.947930649,
				"element": "H" 
			},
			{
				"x": -3.7469874572,
				"y": 1.9181748271,
				"z": -0.1133294118,
				"element": "H" 
			},
			{
				"x": -3.8566434482,
				"y": 1.7656137679,
				"z": 1.6689954534,
				"element": "H" 
			}
		],
		 "valence_orbital": [ 
			{
				"type": "occ",
				"energy": -0.28175,
				"method": "rhf"
			},
			{
				"type": "occ",
				"energy": -0.27346,
				"method": "rhf"
			},
			{
				"type": "occ",
				"energy": -0.26836,
				"method": "rhf"
			},
			{
				"type": "occ",
				"energy": -0.26537,
				"method": "rhf"
			},
			{
				"type": "occ",
				"energy": -0.22297,
				"method": "rhf"
			},
			{
				"type": "unocc",
				"energy": -0.03926,
				"method": "rhf"
			},
			{
				"type": "unocc",
				"energy": 0.01844,
				"method": "rhf"
			},
			{
				"type": "unocc",
				"energy": 0.03171,
				"method": "rhf"
			},
			{
				"type": "unocc",
				"energy": 0.06025,
				"method": "rhf"
			},
			{
				"type": "unocc",
				"energy": 0.10041,
				"method": "rhf"
			}
		],
		"cosmo_sigma_profile": { 
			"-0.025": 0.0,
			"-0.024": 0.0,
			"-0.023": 0.0,
			"-0.022": 0.0,
			"-0.021": 0.0,
			"-0.02": 0.0,
			"-0.019": 0.0,
			"-0.018": 0.0,
			"-0.017": 0.00668999852632,
			"-0.016": 0.937465267438,
			"-0.015": 1.16241791993,
			"-0.014": 1.07586159254,
			"-0.013": 0.376667526174,
			"-0.012": 1.09849519055,
			"-0.011": 0.911171441439,
			"-0.01": 1.30916550167,
			"-0.009": 2.34162444937,
			"-0.008": 2.49190809693,
			"-0.007": 4.27190123812,
			"-0.006": 11.2941839128,
			"-0.005": 21.1907673823,
			"-0.004": 28.30214524,
			"-0.003": 35.1797970761,
			"-0.002": 29.8174757363,
			"-0.001": 19.5863769197,
			"0.0": 12.8935258814,
			"0.001": 10.5292795204,
			"0.002": 10.048066239,
			"0.003": 8.82885408498,
			"0.004": 7.36614400274,
			"0.005": 5.68133335928,
			"0.006": 6.06728471809,
			"0.007": 6.04647232657,
			"0.008": 6.41232269778,
			"0.009": 5.5209588672,
			"0.01": 6.13615318546,
			"0.011": 6.5457954591,
			"0.012": 7.58199433828,
			"0.013": 5.165306375,
			"0.014": 2.49903696916,
			"0.015": 0.819474529642,
			"0.016": 0.0,
			"0.017": 0.0,
			"0.018": 0.0,
			"0.019": 0.0,
			"0.02": 0.0,
			"0.021": 0.0,
			"0.022": 0.0,
			"0.023": 0.0,
			"0.024": 0.0,
			"0.025": 0.0
		}
	}
}
