{
	 "smiles": "OC(=O)C1=C(I)C=C2C=CC=CC2=C1", 
	 "Tm": 489.15, 
	 "num_atms": 21, 
	 "gaussian": { 
		 "optdone": 1, 
		 "sigma_profile": "yes", 
		 "theory": "DFT", 
		 "functional": "B3LYP", 
		 "basiset": "6-31G**", 
		 "properties": { 
			 "R2extent": 3500.2165, 
			 "electric_dipole_moment_norm": 2.30725022483, 
			 "electric_quadrupole_moment_norm": 10.3700375713, 
			 "total_energy": -585.241584022, 
			 "HOMO_LUMO_gap": 0.16176, 
			 "cosmo_polarized_energy": -10.54, 
			 "cosmo_cavitation_energy": 28.62, 
			 "cosmo_dispersion_energy": -22.5, 
			 "cosmo_repulsion_energy": 1.71, 
			 "cosmo_total_nonelectrostatic_energy": 7.83, 
			 "SMD_solvation_energy": 5.01 
		},
		"coords": [
			{
				"x": -2.4533934171,
				"y": -3.8123468253,
				"z": 0.2363384787,
				"element": "O" 
			},
			{
				"x": -1.2488254089,
				"y": -3.4779990929,
				"z": -0.2671719331,
				"element": "C" 
			},
			{
				"x": -0.368497825,
				"y": -4.2997145894,
				"z": -0.4341379707,
				"element": "O" 
			},
			{
				"x": -1.0736291078,
				"y": -2.0156732104,
				"z": -0.5344201275,
				"element": "C" 
			},
			{
				"x": -2.0936706102,
				"y": -1.0503918137,
				"z": -0.8106495235,
				"element": "C" 
			},
			{
				"x": -4.1507037546,
				"y": -1.517025442,
				"z": -1.0972556613,
				"element": "I" 
			},
			{
				"x": -1.762473398,
				"y": 0.2746218023,
				"z": -0.9974736278,
				"element": "C" 
			},
			{
				"x": -0.4181685949,
				"y": 0.7236706645,
				"z": -0.9184077519,
				"element": "C" 
			},
			{
				"x": -0.0640780815,
				"y": 2.0878152082,
				"z": -1.0960603178,
				"element": "C" 
			},
			{
				"x": 1.254039521,
				"y": 2.4799157013,
				"z": -1.0264073189,
				"element": "C" 
			},
			{
				"x": 2.2774429575,
				"y": 1.5304137074,
				"z": -0.7779183106,
				"element": "C" 
			},
			{
				"x": 1.9642576575,
				"y": 0.2019599549,
				"z": -0.6019259578,
				"element": "C" 
			},
			{
				"x": 0.6128508978,
				"y": -0.2337191205,
				"z": -0.6669644898,
				"element": "C" 
			},
			{
				"x": 0.2439978283,
				"y": -1.5858461317,
				"z": -0.490247081,
				"element": "C" 
			},
			{
				"x": -2.4303363427,
				"y": -4.7759512753,
				"z": 0.3631194725,
				"element": "H" 
			},
			{
				"x": -2.5362767082,
				"y": 1.0008409654,
				"z": -1.2216767275,
				"element": "H" 
			},
			{
				"x": -0.8480040668,
				"y": 2.8153198501,
				"z": -1.2878846123,
				"element": "H" 
			},
			{
				"x": 1.5164608894,
				"y": 3.524942857,
				"z": -1.1628143975,
				"element": "H" 
			},
			{
				"x": 3.3113855416,
				"y": 1.85814071,
				"z": -0.7273755032,
				"element": "H" 
			},
			{
				"x": 2.7431453787,
				"y": -0.5311356982,
				"z": -0.4110974336,
				"element": "H" 
			},
			{
				"x": 1.009176644,
				"y": -2.3326382216,
				"z": -0.3036692056,
				"element": "H" 
			}
		],
		 "valence_orbital": [ 
			{
				"type": "occ",
				"energy": -0.28485,
				"method": "rhf"
			},
			{
				"type": "occ",
				"energy": -0.28056,
				"method": "rhf"
			},
			{
				"type": "occ",
				"energy": -0.25964,
				"method": "rhf"
			},
			{
				"type": "occ",
				"energy": -0.25066,
				"method": "rhf"
			},
			{
				"type": "occ",
				"energy": -0.22751,
				"method": "rhf"
			},
			{
				"type": "unocc",
				"energy": -0.06575,
				"method": "rhf"
			},
			{
				"type": "unocc",
				"energy": -0.04481,
				"method": "rhf"
			},
			{
				"type": "unocc",
				"energy": -0.04039,
				"method": "rhf"
			},
			{
				"type": "unocc",
				"energy": 0.01099,
				"method": "rhf"
			},
			{
				"type": "unocc",
				"energy": 0.02786,
				"method": "rhf"
			}
		],
		"cosmo_sigma_profile": { 
			"-0.025": 0.0,
			"-0.024": 0.0,
			"-0.023": 0.0,
			"-0.022": 0.0,
			"-0.021": 0.0,
			"-0.02": 0.0,
			"-0.019": 0.270368566136,
			"-0.018": 0.677977068211,
			"-0.017": 0.913950180831,
			"-0.016": 0.940062342286,
			"-0.015": 0.876162946033,
			"-0.014": 0.496206197372,
			"-0.013": 0.304646690391,
			"-0.012": 0.784227414567,
			"-0.011": 0.884917717233,
			"-0.01": 1.05356878246,
			"-0.009": 0.408762371093,
			"-0.008": 1.57688615875,
			"-0.007": 9.72973236384,
			"-0.006": 13.1887412655,
			"-0.005": 12.5385468398,
			"-0.004": 13.53043242,
			"-0.003": 12.5538098485,
			"-0.002": 13.2420196002,
			"-0.001": 13.9442595544,
			"0.0": 13.9527751027,
			"0.001": 22.4284104899,
			"0.002": 31.065048375,
			"0.003": 20.5961219639,
			"0.004": 19.6447804546,
			"0.005": 7.46752836277,
			"0.006": 3.23192180338,
			"0.007": 3.48166332964,
			"0.008": 3.1240643088,
			"0.009": 2.72638746919,
			"0.01": 2.09392107024,
			"0.011": 3.89507416488,
			"0.012": 3.34244266939,
			"0.013": 0.0157574099616,
			"0.014": 0.0,
			"0.015": 0.0,
			"0.016": 0.0,
			"0.017": 0.0,
			"0.018": 0.0,
			"0.019": 0.0,
			"0.02": 0.0,
			"0.021": 0.0,
			"0.022": 0.0,
			"0.023": 0.0,
			"0.024": 0.0,
			"0.025": 0.0
		}
	}
}
