{
	 "smiles": "CC1=NN(C(C(F)F)=C1C(O)=O)C1=CC(F)=CC=C1", 
	 "Tm": 461.15, 
	 "num_atms": 28, 
	 "gaussian": { 
		 "optdone": 1, 
		 "sigma_profile": "yes", 
		 "theory": "DFT", 
		 "functional": "B3LYP", 
		 "basiset": "6-31G**", 
		 "properties": { 
			 "R2extent": 6492.3676, 
			 "electric_dipole_moment_norm": 3.43844364793, 
			 "electric_quadrupole_moment_norm": 14.349548311, 
			 "total_energy": -1022.15754576, 
			 "HOMO_LUMO_gap": 0.19355, 
			 "cosmo_polarized_energy": -13.88, 
			 "cosmo_cavitation_energy": 34.18, 
			 "cosmo_dispersion_energy": -23.99, 
			 "cosmo_repulsion_energy": 1.79, 
			 "cosmo_total_nonelectrostatic_energy": 11.98, 
			 "SMD_solvation_energy": 7.4 
		},
		"coords": [
			{
				"x": 2.022077506,
				"y": 2.9967600027,
				"z": 3.2903333951,
				"element": "C" 
			},
			{
				"x": 1.9023698194,
				"y": 2.025281988,
				"z": 2.1576297815,
				"element": "C" 
			},
			{
				"x": 0.7696231733,
				"y": 1.3538282316,
				"z": 1.9880130283,
				"element": "N" 
			},
			{
				"x": 0.9614525837,
				"y": 0.5705986633,
				"z": 0.8896896945,
				"element": "N" 
			},
			{
				"x": 2.2085286688,
				"y": 0.728213719,
				"z": 0.358286008,
				"element": "C" 
			},
			{
				"x": 2.6955457326,
				"y": -0.1225440955,
				"z": -0.7798012406,
				"element": "C" 
			},
			{
				"x": 4.0023582553,
				"y": -0.4431991216,
				"z": -0.6201041013,
				"element": "F" 
			},
			{
				"x": 2.5573924069,
				"y": 0.5459414262,
				"z": -1.9709443393,
				"element": "F" 
			},
			{
				"x": 2.8500131995,
				"y": 1.6822608532,
				"z": 1.1461061407,
				"element": "C" 
			},
			{
				"x": 4.1888940954,
				"y": 2.2432491368,
				"z": 0.9120906997,
				"element": "C" 
			},
			{
				"x": 4.6329566599,
				"y": 2.9648052295,
				"z": 1.9776376351,
				"element": "O" 
			},
			{
				"x": 4.8454979538,
				"y": 2.1231322627,
				"z": -0.1009029594,
				"element": "O" 
			},
			{
				"x": -0.1190163292,
				"y": -0.24323394,
				"z": 0.4412448009,
				"element": "C" 
			},
			{
				"x": -0.3932352596,
				"y": -0.3565037013,
				"z": -0.9259680839,
				"element": "C" 
			},
			{
				"x": -1.462659959,
				"y": -1.1576501375,
				"z": -1.3116956678,
				"element": "C" 
			},
			{
				"x": -1.729773952,
				"y": -1.2767500049,
				"z": -2.6258516005,
				"element": "F" 
			},
			{
				"x": -2.27060062,
				"y": -1.8186112236,
				"z": -0.3946842853,
				"element": "C" 
			},
			{
				"x": -1.9884789258,
				"y": -1.668601315,
				"z": 0.9648232899,
				"element": "C" 
			},
			{
				"x": -0.916344356,
				"y": -0.888629091,
				"z": 1.3926736102,
				"element": "C" 
			},
			{
				"x": 1.0778418452,
				"y": 3.0286501502,
				"z": 3.837318865,
				"element": "H" 
			},
			{
				"x": 2.8257609974,
				"y": 2.7076488612,
				"z": 3.9731773823,
				"element": "H" 
			},
			{
				"x": 2.2609274096,
				"y": 4.0002485183,
				"z": 2.9270227828,
				"element": "H" 
			},
			{
				"x": 2.124170781,
				"y": -1.0538510526,
				"z": -0.8539258849,
				"element": "H" 
			},
			{
				"x": 5.4998987061,
				"y": 3.3119125095,
				"z": 1.7091634641,
				"element": "H" 
			},
			{
				"x": 0.1844553971,
				"y": 0.1718843462,
				"z": -1.6746434225,
				"element": "H" 
			},
			{
				"x": -3.0973581832,
				"y": -2.4250322283,
				"z": -0.7468887275,
				"element": "H" 
			},
			{
				"x": -2.6096450319,
				"y": -2.1722132389,
				"z": 1.6986805729,
				"element": "H" 
			},
			{
				"x": -0.6915525744,
				"y": -0.7625967483,
				"z": 2.4443191623,
				"element": "H" 
			}
		],
		 "valence_orbital": [ 
			{
				"type": "occ",
				"energy": -0.2973,
				"method": "rhf"
			},
			{
				"type": "occ",
				"energy": -0.27602,
				"method": "rhf"
			},
			{
				"type": "occ",
				"energy": -0.26924,
				"method": "rhf"
			},
			{
				"type": "occ",
				"energy": -0.26799,
				"method": "rhf"
			},
			{
				"type": "occ",
				"energy": -0.24884,
				"method": "rhf"
			},
			{
				"type": "unocc",
				"energy": -0.05529,
				"method": "rhf"
			},
			{
				"type": "unocc",
				"energy": -0.02555,
				"method": "rhf"
			},
			{
				"type": "unocc",
				"energy": -0.01559,
				"method": "rhf"
			},
			{
				"type": "unocc",
				"energy": 0.01182,
				"method": "rhf"
			},
			{
				"type": "unocc",
				"energy": 0.07417,
				"method": "rhf"
			}
		],
		"cosmo_sigma_profile": { 
			"-0.025": 0.0,
			"-0.024": 0.0,
			"-0.023": 0.0,
			"-0.022": 0.0,
			"-0.021": 0.0,
			"-0.02": 0.0,
			"-0.019": 0.0748665599564,
			"-0.018": 0.7079596098,
			"-0.017": 0.832285668314,
			"-0.016": 0.705226041438,
			"-0.015": 1.17972804523,
			"-0.014": 0.826009299944,
			"-0.013": 0.456337342316,
			"-0.012": 0.164785279899,
			"-0.011": 1.00750633345,
			"-0.01": 2.32658344044,
			"-0.009": 2.6695266257,
			"-0.008": 3.43357189062,
			"-0.007": 9.60810258005,
			"-0.006": 10.6216659738,
			"-0.005": 14.4849875577,
			"-0.004": 13.1158705833,
			"-0.003": 16.5480883382,
			"-0.002": 19.1733083588,
			"-0.001": 24.6222187101,
			"0.0": 26.2844018593,
			"0.001": 20.0879961619,
			"0.002": 19.9858786992,
			"0.003": 22.5766935642,
			"0.004": 24.9902995138,
			"0.005": 8.04238275773,
			"0.006": 6.25131955339,
			"0.007": 3.45595182465,
			"0.008": 3.45571447357,
			"0.009": 3.63872007822,
			"0.01": 3.46766768556,
			"0.011": 5.3976441125,
			"0.012": 3.4204897912,
			"0.013": 0.629331234554,
			"0.014": 0.0071291541161,
			"0.015": 0.0,
			"0.016": 0.0,
			"0.017": 0.0,
			"0.018": 0.0,
			"0.019": 0.0,
			"0.02": 0.0,
			"0.021": 0.0,
			"0.022": 0.0,
			"0.023": 0.0,
			"0.024": 0.0,
			"0.025": 0.0
		}
	}
}
