{
	 "smiles": "COC1=CC(C=C(/C(O)=O)C(=CC2=CC(OC)=CC=C2)C(O)=O)=CC=C1", 
	 "Tm": 455.15, 
	 "num_atms": 44, 
	 "gaussian": { 
		 "optdone": 1, 
		 "sigma_profile": "yes", 
		 "theory": "DFT", 
		 "functional": "B3LYP", 
		 "basiset": "6-31G**", 
		 "properties": { 
			 "R2extent": 14062.1883, 
			 "electric_dipole_moment_norm": 2.90783154258, 
			 "electric_quadrupole_moment_norm": 17.2925291308, 
			 "total_energy": -1224.28691474, 
			 "HOMO_LUMO_gap": 0.13883, 
			 "cosmo_polarized_energy": -22.69, 
			 "cosmo_cavitation_energy": 49.5, 
			 "cosmo_dispersion_energy": -33.88, 
			 "cosmo_repulsion_energy": 2.6, 
			 "cosmo_total_nonelectrostatic_energy": 18.22, 
			 "SMD_solvation_energy": 11.8 
		},
		"coords": [
			{
				"x": -6.7393626133,
				"y": 1.0903612292,
				"z": -0.1737293479,
				"element": "C" 
			},
			{
				"x": -6.6793336478,
				"y": -0.3166098515,
				"z": -0.3477221286,
				"element": "O" 
			},
			{
				"x": -5.5002976356,
				"y": -0.9521626944,
				"z": -0.0845148158,
				"element": "C" 
			},
			{
				"x": -4.3327252149,
				"y": -0.3094774413,
				"z": 0.3299899714,
				"element": "C" 
			},
			{
				"x": -3.1615159212,
				"y": -1.0531990312,
				"z": 0.5721528573,
				"element": "C" 
			},
			{
				"x": -1.897471714,
				"y": -0.4181094434,
				"z": 0.971996198,
				"element": "C" 
			},
			{
				"x": -1.6605411466,
				"y": 0.6684589205,
				"z": 1.7474528262,
				"element": "C" 
			},
			{
				"x": -2.7004314937,
				"y": 1.3835550247,
				"z": 2.5552323566,
				"element": "C" 
			},
			{
				"x": -3.6180267603,
				"y": 0.5684134273,
				"z": 3.1203622382,
				"element": "O" 
			},
			{
				"x": -2.7074636995,
				"y": 2.5865837734,
				"z": 2.7295820492,
				"element": "O" 
			},
			{
				"x": -0.2992755391,
				"y": 1.2759422518,
				"z": 1.8191560414,
				"element": "C" 
			},
			{
				"x": 0.3857293473,
				"y": 1.4581711411,
				"z": 0.652717649,
				"element": "C" 
			},
			{
				"x": 1.726744607,
				"y": 1.8884816053,
				"z": 0.2440444995,
				"element": "C" 
			},
			{
				"x": 2.0189131909,
				"y": 1.6797244838,
				"z": -1.1278474321,
				"element": "C" 
			},
			{
				"x": 3.2595315896,
				"y": 2.0242768352,
				"z": -1.6612277111,
				"element": "C" 
			},
			{
				"x": 3.6207780135,
				"y": 1.8494290543,
				"z": -2.9668171975,
				"element": "O" 
			},
			{
				"x": 2.67274861,
				"y": 1.285900202,
				"z": -3.8581984652,
				"element": "C" 
			},
			{
				"x": 4.234886317,
				"y": 2.5971816365,
				"z": -0.8315066174,
				"element": "C" 
			},
			{
				"x": 3.9492362967,
				"y": 2.8166443156,
				"z": 0.5110285743,
				"element": "C" 
			},
			{
				"x": 2.7125102473,
				"y": 2.472897435,
				"z": 1.059403503,
				"element": "C" 
			},
			{
				"x": 0.1954593125,
				"y": 1.6035293838,
				"z": 3.1852035092,
				"element": "C" 
			},
			{
				"x": -0.4806401285,
				"y": 0.9004205182,
				"z": 4.1329056927,
				"element": "O" 
			},
			{
				"x": 1.077703108,
				"y": 2.378688698,
				"z": 3.5005557992,
				"element": "O" 
			},
			{
				"x": -3.1736988964,
				"y": -2.4393557706,
				"z": 0.3536905943,
				"element": "C" 
			},
			{
				"x": -4.3480477365,
				"y": -3.0758174911,
				"z": -0.0516924746,
				"element": "C" 
			},
			{
				"x": -5.509142743,
				"y": -2.3440673742,
				"z": -0.2705472776,
				"element": "C" 
			},
			{
				"x": -6.0487962726,
				"y": 1.6131809932,
				"z": -0.8479491824,
				"element": "H" 
			},
			{
				"x": -7.7631241247,
				"y": 1.3804181948,
				"z": -0.4147888593,
				"element": "H" 
			},
			{
				"x": -6.5156136301,
				"y": 1.3807939767,
				"z": 0.8608658371,
				"element": "H" 
			},
			{
				"x": -4.3076172259,
				"y": 0.7662945845,
				"z": 0.4444837714,
				"element": "H" 
			},
			{
				"x": -1.0127370863,
				"y": -0.893892321,
				"z": 0.5513322092,
				"element": "H" 
			},
			{
				"x": -4.2153040099,
				"y": 1.1523990889,
				"z": 3.6171947446,
				"element": "H" 
			},
			{
				"x": -0.2092060588,
				"y": 1.1759255567,
				"z": -0.2135389128,
				"element": "H" 
			},
			{
				"x": 1.2582118184,
				"y": 1.2359429321,
				"z": -1.7597754766,
				"element": "H" 
			},
			{
				"x": 3.1626550906,
				"y": 1.2434084953,
				"z": -4.8321971077,
				"element": "H" 
			},
			{
				"x": 1.7699491885,
				"y": 1.9057277648,
				"z": -3.9361424671,
				"element": "H" 
			},
			{
				"x": 2.3844624494,
				"y": 0.2704089056,
				"z": -3.5561898172,
				"element": "H" 
			},
			{
				"x": 5.1938542678,
				"y": 2.8643371204,
				"z": -1.2634663667,
				"element": "H" 
			},
			{
				"x": 4.7032489351,
				"y": 3.2713388878,
				"z": 1.1471131457,
				"element": "H" 
			},
			{
				"x": 2.4985805023,
				"y": 2.6721392343,
				"z": 2.0983688148,
				"element": "H" 
			},
			{
				"x": -0.1331391312,
				"y": 1.2104360542,
				"z": 4.9854912404,
				"element": "H" 
			},
			{
				"x": -2.2682919184,
				"y": -3.0160602527,
				"z": 0.5185739326,
				"element": "H" 
			},
			{
				"x": -4.3555375049,
				"y": -4.1509556535,
				"z": -0.2053729801,
				"element": "H" 
			},
			{
				"x": -6.428661039,
				"y": -2.8177044001,
				"z": -0.5980734181,
				"element": "H" 
			}
		],
		 "valence_orbital": [ 
			{
				"type": "occ",
				"energy": -0.27147,
				"method": "rhf"
			},
			{
				"type": "occ",
				"energy": -0.24932,
				"method": "rhf"
			},
			{
				"type": "occ",
				"energy": -0.234,
				"method": "rhf"
			},
			{
				"type": "occ",
				"energy": -0.22319,
				"method": "rhf"
			},
			{
				"type": "occ",
				"energy": -0.21283,
				"method": "rhf"
			},
			{
				"type": "unocc",
				"energy": -0.074,
				"method": "rhf"
			},
			{
				"type": "unocc",
				"energy": -0.04809,
				"method": "rhf"
			},
			{
				"type": "unocc",
				"energy": 0.00331,
				"method": "rhf"
			},
			{
				"type": "unocc",
				"energy": 0.00647,
				"method": "rhf"
			},
			{
				"type": "unocc",
				"energy": 0.0137,
				"method": "rhf"
			}
		],
		"cosmo_sigma_profile": { 
			"-0.025": 0.0,
			"-0.024": 0.0,
			"-0.023": 0.0,
			"-0.022": 0.0,
			"-0.021": 0.0,
			"-0.02": 0.0,
			"-0.019": 0.0773788117403,
			"-0.018": 1.44331929591,
			"-0.017": 1.54087320675,
			"-0.016": 2.26256769744,
			"-0.015": 1.25111477403,
			"-0.014": 1.301536188,
			"-0.013": 1.19855750659,
			"-0.012": 1.36239408298,
			"-0.011": 1.70734586318,
			"-0.01": 1.91821074623,
			"-0.009": 0.434456273511,
			"-0.008": 2.67380060695,
			"-0.007": 7.37997064882,
			"-0.006": 27.7384140824,
			"-0.005": 33.9777062897,
			"-0.004": 31.6768541622,
			"-0.003": 31.293997349,
			"-0.002": 22.0862223762,
			"-0.001": 18.5962081842,
			"0.0": 19.523951651,
			"0.001": 20.6161572069,
			"0.002": 23.3976411116,
			"0.003": 29.8687446927,
			"0.004": 31.5579422852,
			"0.005": 21.5411708127,
			"0.006": 10.7285076498,
			"0.007": 9.15003097873,
			"0.008": 10.1773563296,
			"0.009": 9.20108277875,
			"0.01": 8.13288621888,
			"0.011": 6.219631251,
			"0.012": 4.54479735025,
			"0.013": 0.198517489823,
			"0.014": 0.0,
			"0.015": 0.0,
			"0.016": 0.0,
			"0.017": 0.0,
			"0.018": 0.0,
			"0.019": 0.0,
			"0.02": 0.0,
			"0.021": 0.0,
			"0.022": 0.0,
			"0.023": 0.0,
			"0.024": 0.0,
			"0.025": 0.0
		}
	}
}
