{
	 "smiles": "CCOC(=O)CCOC1=CC=C(C=C1)C(C)=O", 
	 "Tm": 329.15, 
	 "num_atms": 33, 
	 "gaussian": { 
		 "optdone": 1, 
		 "sigma_profile": "yes", 
		 "theory": "DFT", 
		 "functional": "B3LYP", 
		 "basiset": "6-31G**", 
		 "properties": { 
			 "R2extent": 6935.1799, 
			 "electric_dipole_moment_norm": 5.66509641048, 
			 "electric_quadrupole_moment_norm": 16.7117453547, 
			 "total_energy": -805.935529182, 
			 "HOMO_LUMO_gap": 0.18502, 
			 "cosmo_polarized_energy": -13.56, 
			 "cosmo_cavitation_energy": 37.06, 
			 "cosmo_dispersion_energy": -26.38, 
			 "cosmo_repulsion_energy": 2.09, 
			 "cosmo_total_nonelectrostatic_energy": 12.77, 
			 "SMD_solvation_energy": 8.19 
		},
		"coords": [
			{
				"x": 3.906913349,
				"y": 4.2154046517,
				"z": -0.1561309118,
				"element": "C" 
			},
			{
				"x": 3.8366426963,
				"y": 2.9131676243,
				"z": -0.9385143786,
				"element": "C" 
			},
			{
				"x": 3.9682416319,
				"y": 1.7640114631,
				"z": -0.0618975366,
				"element": "O" 
			},
			{
				"x": 2.8440362617,
				"y": 1.3190481809,
				"z": 0.5270476528,
				"element": "C" 
			},
			{
				"x": 1.7444367375,
				"y": 1.8097552085,
				"z": 0.3616158774,
				"element": "O" 
			},
			{
				"x": 3.1354812465,
				"y": 0.1537721808,
				"z": 1.4559533924,
				"element": "C" 
			},
			{
				"x": 1.948091917,
				"y": -0.7859000425,
				"z": 1.6096401817,
				"element": "C" 
			},
			{
				"x": 1.8151278526,
				"y": -1.5820387145,
				"z": 0.426181211,
				"element": "O" 
			},
			{
				"x": 0.5983927496,
				"y": -1.7230215814,
				"z": -0.1836663235,
				"element": "C" 
			},
			{
				"x": 0.3502402204,
				"y": -2.9687188204,
				"z": -0.7812697162,
				"element": "C" 
			},
			{
				"x": -0.8391845563,
				"y": -3.1870973103,
				"z": -1.4585724656,
				"element": "C" 
			},
			{
				"x": -1.812414664,
				"y": -2.1766433649,
				"z": -1.5532289007,
				"element": "C" 
			},
			{
				"x": -1.5441732808,
				"y": -0.9342050701,
				"z": -0.9591203254,
				"element": "C" 
			},
			{
				"x": -0.3502470775,
				"y": -0.696050819,
				"z": -0.2815133379,
				"element": "C" 
			},
			{
				"x": -3.0771816231,
				"y": -2.4752452994,
				"z": -2.287469191,
				"element": "C" 
			},
			{
				"x": -4.1380224002,
				"y": -1.3897366488,
				"z": -2.394860203,
				"element": "C" 
			},
			{
				"x": -3.2648064755,
				"y": -3.5722453815,
				"z": -2.7965064422,
				"element": "O" 
			},
			{
				"x": 3.0542217512,
				"y": 4.3046845249,
				"z": 0.5215267524,
				"element": "H" 
			},
			{
				"x": 3.8843882832,
				"y": 5.0641691573,
				"z": -0.8475705753,
				"element": "H" 
			},
			{
				"x": 4.8315095392,
				"y": 4.2720353137,
				"z": 0.4258177646,
				"element": "H" 
			},
			{
				"x": 4.6727728915,
				"y": 2.8164290629,
				"z": -1.6345537716,
				"element": "H" 
			},
			{
				"x": 2.8952872742,
				"y": 2.8292446356,
				"z": -1.4861227366,
				"element": "H" 
			},
			{
				"x": 3.3877314057,
				"y": 0.5773640696,
				"z": 2.4373861687,
				"element": "H" 
			},
			{
				"x": 4.0168771559,
				"y": -0.3894006579,
				"z": 1.1062723947,
				"element": "H" 
			},
			{
				"x": 2.1238180277,
				"y": -1.4709568844,
				"z": 2.448071775,
				"element": "H" 
			},
			{
				"x": 1.037931733,
				"y": -0.2173943025,
				"z": 1.811815296,
				"element": "H" 
			},
			{
				"x": 1.1042901889,
				"y": -3.7442839753,
				"z": -0.6948278294,
				"element": "H" 
			},
			{
				"x": -1.0505952505,
				"y": -4.1450166774,
				"z": -1.9220133184,
				"element": "H" 
			},
			{
				"x": -2.2657250548,
				"y": -0.1265543999,
				"z": -1.0321299502,
				"element": "H" 
			},
			{
				"x": -0.1364220962,
				"y": 0.2870590729,
				"z": 0.1221836662,
				"element": "H" 
			},
			{
				"x": -3.7450562351,
				"y": -0.5037718642,
				"z": -2.9058772452,
				"element": "H" 
			},
			{
				"x": -4.4780693289,
				"y": -1.0703714554,
				"z": -1.403560227,
				"element": "H" 
			},
			{
				"x": -4.9841348701,
				"y": -1.7853918766,
				"z": -2.9574067466,
				"element": "H" 
			}
		],
		 "valence_orbital": [ 
			{
				"type": "occ",
				"energy": -0.30269,
				"method": "rhf"
			},
			{
				"type": "occ",
				"energy": -0.2842,
				"method": "rhf"
			},
			{
				"type": "occ",
				"energy": -0.25349,
				"method": "rhf"
			},
			{
				"type": "occ",
				"energy": -0.23671,
				"method": "rhf"
			},
			{
				"type": "occ",
				"energy": -0.22575,
				"method": "rhf"
			},
			{
				"type": "unocc",
				"energy": -0.04073,
				"method": "rhf"
			},
			{
				"type": "unocc",
				"energy": -0.00312,
				"method": "rhf"
			},
			{
				"type": "unocc",
				"energy": 0.00033,
				"method": "rhf"
			},
			{
				"type": "unocc",
				"energy": 0.05361,
				"method": "rhf"
			},
			{
				"type": "unocc",
				"energy": 0.09374,
				"method": "rhf"
			}
		],
		"cosmo_sigma_profile": { 
			"-0.025": 0.0,
			"-0.024": 0.0,
			"-0.023": 0.0,
			"-0.022": 0.0,
			"-0.021": 0.0,
			"-0.02": 0.0,
			"-0.019": 0.0,
			"-0.018": 0.0,
			"-0.017": 0.0,
			"-0.016": 0.0,
			"-0.015": 0.0,
			"-0.014": 0.0,
			"-0.013": 0.0,
			"-0.012": 0.0,
			"-0.011": 0.0,
			"-0.01": 0.0,
			"-0.009": 0.0,
			"-0.008": 1.26742897462,
			"-0.007": 4.27981154265,
			"-0.006": 17.4672555243,
			"-0.005": 25.9351135697,
			"-0.004": 30.470020353,
			"-0.003": 29.0998730005,
			"-0.002": 25.4936291677,
			"-0.001": 23.285669468,
			"0.0": 22.3607011517,
			"0.001": 16.0533067508,
			"0.002": 16.443829246,
			"0.003": 17.7932375714,
			"0.004": 19.4977917053,
			"0.005": 6.81946789129,
			"0.006": 4.79821150621,
			"0.007": 5.48769700651,
			"0.008": 5.63092915423,
			"0.009": 4.25617875767,
			"0.01": 3.72389548805,
			"0.011": 4.50763183911,
			"0.012": 5.17632423605,
			"0.013": 2.69830382173,
			"0.014": 0.639320596448,
			"0.015": 0.0,
			"0.016": 0.0,
			"0.017": 0.0,
			"0.018": 0.0,
			"0.019": 0.0,
			"0.02": 0.0,
			"0.021": 0.0,
			"0.022": 0.0,
			"0.023": 0.0,
			"0.024": 0.0,
			"0.025": 0.0
		}
	}
}
