{
	 "smiles": "NC(=S)C1=CN=C2C=CC=CN12", 
	 "Tm": 488.15, 
	 "num_atms": 19, 
	 "gaussian": { 
		 "optdone": 1, 
		 "sigma_profile": "yes", 
		 "theory": "DFT", 
		 "functional": "B3LYP", 
		 "basiset": "6-31G**", 
		 "properties": { 
			 "R2extent": 3329.9716, 
			 "electric_dipole_moment_norm": 2.10410931988, 
			 "electric_quadrupole_moment_norm": 23.3382663791, 
			 "total_energy": -871.516826567, 
			 "HOMO_LUMO_gap": 0.15099, 
			 "cosmo_polarized_energy": -15.8, 
			 "cosmo_cavitation_energy": 24.64, 
			 "cosmo_dispersion_energy": -19.06, 
			 "cosmo_repulsion_energy": 1.44, 
			 "cosmo_total_nonelectrostatic_energy": 7.02, 
			 "SMD_solvation_energy": 1.85 
		},
		"coords": [
			{
				"x": -1.043512301,
				"y": -0.9656827102,
				"z": 4.0148229093,
				"element": "N" 
			},
			{
				"x": -1.6487636192,
				"y": -0.2268430699,
				"z": 3.046353108,
				"element": "C" 
			},
			{
				"x": -3.261329966,
				"y": 0.2173889518,
				"z": 3.2244001627,
				"element": "S" 
			},
			{
				"x": -0.7749997268,
				"y": 0.1463487176,
				"z": 1.9530743362,
				"element": "C" 
			},
			{
				"x": 0.6260937673,
				"y": 0.1209149871,
				"z": 1.9039704085,
				"element": "C" 
			},
			{
				"x": 1.1237671011,
				"y": 0.5536164195,
				"z": 0.7347092742,
				"element": "N" 
			},
			{
				"x": 0.0482190886,
				"y": 0.8681660683,
				"z": -0.0043910951,
				"element": "C" 
			},
			{
				"x": -0.0124535779,
				"y": 1.3596859988,
				"z": -1.3228885144,
				"element": "C" 
			},
			{
				"x": -1.239325545,
				"y": 1.6117893798,
				"z": -1.8924435517,
				"element": "C" 
			},
			{
				"x": -2.4256165288,
				"y": 1.37594924,
				"z": -1.1522428023,
				"element": "C" 
			},
			{
				"x": -2.3705994919,
				"y": 0.9001362763,
				"z": 0.1311456748,
				"element": "C" 
			},
			{
				"x": -1.1452222837,
				"y": 0.6484372811,
				"z": 0.6999089171,
				"element": "N" 
			},
			{
				"x": -1.614693397,
				"y": -1.2616058997,
				"z": 4.7922531109,
				"element": "H" 
			},
			{
				"x": -0.1809014061,
				"y": -1.4584531216,
				"z": 3.839982234,
				"element": "H" 
			},
			{
				"x": 1.2863115164,
				"y": -0.1661481426,
				"z": 2.7135792143,
				"element": "H" 
			},
			{
				"x": 0.9226937853,
				"y": 1.5218199324,
				"z": -1.8455006882,
				"element": "H" 
			},
			{
				"x": -1.3035187093,
				"y": 1.9919064144,
				"z": -2.9067528153,
				"element": "H" 
			},
			{
				"x": -3.3980313663,
				"y": 1.5734239465,
				"z": -1.5883764655,
				"element": "H" 
			},
			{
				"x": -3.2282173397,
				"y": 0.7147493304,
				"z": 0.7628965823,
				"element": "H" 
			}
		],
		 "valence_orbital": [ 
			{
				"type": "occ",
				"energy": -0.28527,
				"method": "rhf"
			},
			{
				"type": "occ",
				"energy": -0.2605,
				"method": "rhf"
			},
			{
				"type": "occ",
				"energy": -0.24072,
				"method": "rhf"
			},
			{
				"type": "occ",
				"energy": -0.21902,
				"method": "rhf"
			},
			{
				"type": "occ",
				"energy": -0.2132,
				"method": "rhf"
			},
			{
				"type": "unocc",
				"energy": -0.06221,
				"method": "rhf"
			},
			{
				"type": "unocc",
				"energy": -0.04067,
				"method": "rhf"
			},
			{
				"type": "unocc",
				"energy": 0.00878,
				"method": "rhf"
			},
			{
				"type": "unocc",
				"energy": 0.0684,
				"method": "rhf"
			},
			{
				"type": "unocc",
				"energy": 0.07655,
				"method": "rhf"
			}
		],
		"cosmo_sigma_profile": { 
			"-0.025": 0.0,
			"-0.024": 0.0,
			"-0.023": 0.0,
			"-0.022": 0.0,
			"-0.021": 0.0,
			"-0.02": 0.0,
			"-0.019": 0.0,
			"-0.018": 0.0,
			"-0.017": 0.0,
			"-0.016": 0.152384775604,
			"-0.015": 1.27597107807,
			"-0.014": 2.57347991871,
			"-0.013": 2.87288286421,
			"-0.012": 2.88409398658,
			"-0.011": 2.1430632142,
			"-0.01": 2.55940231501,
			"-0.009": 2.58817712931,
			"-0.008": 4.24393505505,
			"-0.007": 9.87739404589,
			"-0.006": 10.4899308727,
			"-0.005": 9.59584156154,
			"-0.004": 5.68807985467,
			"-0.003": 7.84233254935,
			"-0.002": 12.1298387883,
			"-0.001": 14.5106109238,
			"0.0": 14.888301454,
			"0.001": 16.5430643858,
			"0.002": 16.3029218437,
			"0.003": 9.81454297895,
			"0.004": 7.0075786558,
			"0.005": 6.83574557838,
			"0.006": 5.12419889519,
			"0.007": 5.30578956927,
			"0.008": 5.65902202743,
			"0.009": 6.74871343159,
			"0.01": 5.97188112284,
			"0.011": 3.45999221106,
			"0.012": 1.74627121625,
			"0.013": 0.906233392924,
			"0.014": 1.31328903949,
			"0.015": 0.824092901141,
			"0.016": 1.08148035124,
			"0.017": 0.230861494004,
			"0.018": 0.0,
			"0.019": 0.0,
			"0.02": 0.0,
			"0.021": 0.0,
			"0.022": 0.0,
			"0.023": 0.0,
			"0.024": 0.0,
			"0.025": 0.0
		}
	}
}
