{
	 "smiles": "CC(=O)NC1=CC(NC(C)=O)=C(C=C1)C1=CC=C(NC(C)=O)C=C1NC(C)=O", 
	 "Tm": 556.15, 
	 "num_atms": 50, 
	 "gaussian": { 
		 "optdone": 1, 
		 "sigma_profile": "yes", 
		 "theory": "DFT", 
		 "functional": "B3LYP", 
		 "basiset": "6-31G**", 
		 "properties": { 
			 "R2extent": 14093.6523, 
			 "electric_dipole_moment_norm": 3.84997550771, 
			 "electric_quadrupole_moment_norm": 31.9234755512, 
			 "total_energy": -1295.35997222, 
			 "HOMO_LUMO_gap": 0.17751, 
			 "cosmo_polarized_energy": -35.35, 
			 "cosmo_cavitation_energy": 54.59, 
			 "cosmo_dispersion_energy": -35.26, 
			 "cosmo_repulsion_energy": 2.69, 
			 "cosmo_total_nonelectrostatic_energy": 22.03, 
			 "SMD_solvation_energy": 12.44 
		},
		"coords": [
			{
				"x": -6.2145036459,
				"y": 0.6980991348,
				"z": 2.2322104578,
				"element": "C" 
			},
			{
				"x": -6.2014964819,
				"y": -0.6824028122,
				"z": 1.6068124149,
				"element": "C" 
			},
			{
				"x": -7.1336055211,
				"y": -1.4608415371,
				"z": 1.7343266046,
				"element": "O" 
			},
			{
				"x": -5.085597565,
				"y": -1.086799035,
				"z": 0.8819550683,
				"element": "N" 
			},
			{
				"x": -3.8688540957,
				"y": -0.450320223,
				"z": 0.5726040835,
				"element": "C" 
			},
			{
				"x": -2.7092708598,
				"y": -1.2385539002,
				"z": 0.532424093,
				"element": "C" 
			},
			{
				"x": -1.4685090719,
				"y": -0.698504892,
				"z": 0.1805949816,
				"element": "C" 
			},
			{
				"x": -0.3191383684,
				"y": -1.5107974322,
				"z": 0.1243744588,
				"element": "N" 
			},
			{
				"x": -0.0966732104,
				"y": -2.7634763846,
				"z": -0.4287964892,
				"element": "C" 
			},
			{
				"x": -1.2392975894,
				"y": -3.4713096654,
				"z": -1.1316885041,
				"element": "C" 
			},
			{
				"x": 1.0193583991,
				"y": -3.2552035948,
				"z": -0.3522207673,
				"element": "O" 
			},
			{
				"x": -1.3541946989,
				"y": 0.6914015502,
				"z": -0.0814824389,
				"element": "C" 
			},
			{
				"x": -2.5229673849,
				"y": 1.4621577764,
				"z": -0.0199951805,
				"element": "C" 
			},
			{
				"x": -3.7693199274,
				"y": 0.9151016381,
				"z": 0.2747972432,
				"element": "C" 
			},
			{
				"x": -0.0744873323,
				"y": 1.3346704649,
				"z": -0.5030210082,
				"element": "C" 
			},
			{
				"x": 0.0160408323,
				"y": 1.9181837806,
				"z": -1.7741787463,
				"element": "C" 
			},
			{
				"x": 1.1784305476,
				"y": 2.5327855748,
				"z": -2.2226035088,
				"element": "C" 
			},
			{
				"x": 2.2959758582,
				"y": 2.6154247729,
				"z": -1.3791140152,
				"element": "C" 
			},
			{
				"x": 3.433875422,
				"y": 3.303869016,
				"z": -1.8428221103,
				"element": "N" 
			},
			{
				"x": 4.7966488385,
				"y": 3.0783378401,
				"z": -1.6893610772,
				"element": "C" 
			},
			{
				"x": 5.2560441829,
				"y": 1.886784701,
				"z": -0.8732250697,
				"element": "C" 
			},
			{
				"x": 5.585669887,
				"y": 3.8359020841,
				"z": -2.2321411542,
				"element": "O" 
			},
			{
				"x": 2.2096761058,
				"y": 2.0938421569,
				"z": -0.0819493294,
				"element": "C" 
			},
			{
				"x": 1.0513459678,
				"y": 1.4333462997,
				"z": 0.3488473236,
				"element": "C" 
			},
			{
				"x": 0.9307088849,
				"y": 0.9353698419,
				"z": 1.6652982011,
				"element": "N" 
			},
			{
				"x": 1.8524209705,
				"y": 0.4207683199,
				"z": 2.5747349492,
				"element": "C" 
			},
			{
				"x": 3.2395317827,
				"y": 0.0514660911,
				"z": 2.0869506427,
				"element": "C" 
			},
			{
				"x": 1.4997253371,
				"y": 0.2339865698,
				"z": 3.7277250628,
				"element": "O" 
			},
			{
				"x": -6.5870615527,
				"y": 1.4370507046,
				"z": 1.5147266738,
				"element": "H" 
			},
			{
				"x": -5.2294389371,
				"y": 1.0213355366,
				"z": 2.5756410364,
				"element": "H" 
			},
			{
				"x": -6.9121072913,
				"y": 0.6646135305,
				"z": 3.0695573742,
				"element": "H" 
			},
			{
				"x": -5.1559074935,
				"y": -2.0665625654,
				"z": 0.6341565605,
				"element": "H" 
			},
			{
				"x": -2.7727528454,
				"y": -2.2844768666,
				"z": 0.8105505766,
				"element": "H" 
			},
			{
				"x": 0.5397444388,
				"y": -1.0972038797,
				"z": 0.4642036475,
				"element": "H" 
			},
			{
				"x": -1.7904569782,
				"y": -4.095816559,
				"z": -0.4204554136,
				"element": "H" 
			},
			{
				"x": -1.9454802353,
				"y": -2.7856947666,
				"z": -1.6045688692,
				"element": "H" 
			},
			{
				"x": -0.7983296882,
				"y": -4.1319806515,
				"z": -1.8790283135,
				"element": "H" 
			},
			{
				"x": -2.452269343,
				"y": 2.5237678399,
				"z": -0.2381527258,
				"element": "H" 
			},
			{
				"x": -4.6502667553,
				"y": 1.5433335548,
				"z": 0.252883263,
				"element": "H" 
			},
			{
				"x": -0.8420914646,
				"y": 1.853088678,
				"z": -2.4361500006,
				"element": "H" 
			},
			{
				"x": 1.2300739262,
				"y": 2.9409153938,
				"z": -3.2275617257,
				"element": "H" 
			},
			{
				"x": 3.2651671941,
				"y": 4.0447465172,
				"z": -2.5129590446,
				"element": "H" 
			},
			{
				"x": 6.2583722831,
				"y": 1.6286082351,
				"z": -1.2160855255,
				"element": "H" 
			},
			{
				"x": 4.5930774691,
				"y": 1.0241264964,
				"z": -0.9683629948,
				"element": "H" 
			},
			{
				"x": 5.3237727422,
				"y": 2.1540989362,
				"z": 0.1866605527,
				"element": "H" 
			},
			{
				"x": 3.0169810538,
				"y": 2.2613254785,
				"z": 0.6165192478,
				"element": "H" 
			},
			{
				"x": 0.0117627149,
				"y": 1.0218724736,
				"z": 2.0867676096,
				"element": "H" 
			},
			{
				"x": 3.5787099216,
				"y": -0.7897037168,
				"z": 2.6929311382,
				"element": "H" 
			},
			{
				"x": 3.2705306656,
				"y": -0.2162692429,
				"z": 1.0288553286,
				"element": "H" 
			},
			{
				"x": 3.9335329118,
				"y": 0.8813367363,
				"z": 2.2571154183,
				"element": "H" 
			}
		],
		 "valence_orbital": [ 
			{
				"type": "occ",
				"energy": -0.26131,
				"method": "rhf"
			},
			{
				"type": "occ",
				"energy": -0.25487,
				"method": "rhf"
			},
			{
				"type": "occ",
				"energy": -0.25229,
				"method": "rhf"
			},
			{
				"type": "occ",
				"energy": -0.24208,
				"method": "rhf"
			},
			{
				"type": "occ",
				"energy": -0.22672,
				"method": "rhf"
			},
			{
				"type": "unocc",
				"energy": -0.04921,
				"method": "rhf"
			},
			{
				"type": "unocc",
				"energy": -0.03757,
				"method": "rhf"
			},
			{
				"type": "unocc",
				"energy": -0.03018,
				"method": "rhf"
			},
			{
				"type": "unocc",
				"energy": -0.02392,
				"method": "rhf"
			},
			{
				"type": "unocc",
				"energy": 0.00783,
				"method": "rhf"
			}
		],
		"cosmo_sigma_profile": { 
			"-0.025": 0.0,
			"-0.024": 0.0,
			"-0.023": 0.0,
			"-0.022": 0.0,
			"-0.021": 0.0,
			"-0.02": 0.0,
			"-0.019": 0.0,
			"-0.018": 0.0,
			"-0.017": 0.0,
			"-0.016": 0.0,
			"-0.015": 0.230904433605,
			"-0.014": 1.40055630688,
			"-0.013": 2.26501306027,
			"-0.012": 2.60460641682,
			"-0.011": 3.47805145547,
			"-0.01": 3.12800374448,
			"-0.009": 5.95684257813,
			"-0.008": 12.7579228856,
			"-0.007": 16.4250965593,
			"-0.006": 21.7875058071,
			"-0.005": 31.9736655655,
			"-0.004": 33.6132267894,
			"-0.003": 39.7457836222,
			"-0.002": 40.8260170221,
			"-0.001": 31.5061399164,
			"0.0": 24.7774653265,
			"0.001": 23.2529676113,
			"0.002": 21.3209453125,
			"0.003": 20.5196565186,
			"0.004": 12.9837845863,
			"0.005": 5.79832134521,
			"0.006": 4.44560543165,
			"0.007": 5.40850147637,
			"0.008": 4.98779823615,
			"0.009": 4.5952106505,
			"0.01": 5.67904977932,
			"0.011": 6.74762480401,
			"0.012": 9.55255473917,
			"0.013": 22.4006892615,
			"0.014": 11.7192880347,
			"0.015": 1.0645400459,
			"0.016": 0.0,
			"0.017": 0.0,
			"0.018": 0.0,
			"0.019": 0.0,
			"0.02": 0.0,
			"0.021": 0.0,
			"0.022": 0.0,
			"0.023": 0.0,
			"0.024": 0.0,
			"0.025": 0.0
		}
	}
}
