{
	 "smiles": "CCOC1=C(CCC(O)=O)C=CC=C1", 
	 "Tm": 344.15, 
	 "num_atms": 28, 
	 "gaussian": { 
		 "optdone": 1, 
		 "sigma_profile": "yes", 
		 "theory": "DFT", 
		 "functional": "B3LYP", 
		 "basiset": "6-31G**", 
		 "properties": { 
			 "R2extent": 2833.5649, 
			 "electric_dipole_moment_norm": 1.40466024718, 
			 "electric_quadrupole_moment_norm": 14.7060774899, 
			 "total_energy": -653.296204635, 
			 "HOMO_LUMO_gap": 0.21308, 
			 "cosmo_polarized_energy": -11.87, 
			 "cosmo_cavitation_energy": 30.63, 
			 "cosmo_dispersion_energy": -21.26, 
			 "cosmo_repulsion_energy": 1.67, 
			 "cosmo_total_nonelectrostatic_energy": 11.04, 
			 "SMD_solvation_energy": 6.26 
		},
		"coords": [
			{
				"x": 1.5327131647,
				"y": 0.6288535773,
				"z": 2.5241962644,
				"element": "C" 
			},
			{
				"x": 0.0168291438,
				"y": 0.4668810392,
				"z": 2.4641200288,
				"element": "C" 
			},
			{
				"x": -0.4320587955,
				"y": -0.1448092113,
				"z": 1.250525275,
				"element": "O" 
			},
			{
				"x": -0.473104572,
				"y": 0.5740073481,
				"z": 0.0870598322,
				"element": "C" 
			},
			{
				"x": -0.8092002554,
				"y": -0.1684173866,
				"z": -1.0656229666,
				"element": "C" 
			},
			{
				"x": -1.0779188213,
				"y": -1.6560950352,
				"z": -0.9896036457,
				"element": "C" 
			},
			{
				"x": 0.1927557383,
				"y": -2.5500002562,
				"z": -1.0302734402,
				"element": "C" 
			},
			{
				"x": 0.9520777733,
				"y": -2.6113498066,
				"z": 0.2757520822,
				"element": "C" 
			},
			{
				"x": 0.255396674,
				"y": -3.2875059916,
				"z": 1.2239241095,
				"element": "O" 
			},
			{
				"x": 2.0553800399,
				"y": -2.1542286193,
				"z": 0.4856305352,
				"element": "O" 
			},
			{
				"x": -0.8957949356,
				"y": 0.5088744981,
				"z": -2.2839544218,
				"element": "C" 
			},
			{
				"x": -0.6560181278,
				"y": 1.8813280967,
				"z": -2.3846828988,
				"element": "C" 
			},
			{
				"x": -0.327368528,
				"y": 2.5967441126,
				"z": -1.2367014539,
				"element": "C" 
			},
			{
				"x": -0.2361708364,
				"y": 1.9505785796,
				"z": -0.0014576948,
				"element": "C" 
			},
			{
				"x": 1.826220504,
				"y": 0.9961389455,
				"z": 3.5136483462,
				"element": "H" 
			},
			{
				"x": 1.894792646,
				"y": 1.3383931501,
				"z": 1.775908888,
				"element": "H" 
			},
			{
				"x": 2.0241313902,
				"y": -0.3293757694,
				"z": 2.3383718951,
				"element": "H" 
			},
			{
				"x": -0.3239363586,
				"y": -0.2177808618,
				"z": 3.2463035228,
				"element": "H" 
			},
			{
				"x": -0.5021689498,
				"y": 1.4214171256,
				"z": 2.6208513431,
				"element": "H" 
			},
			{
				"x": -1.6474255177,
				"y": -1.897473371,
				"z": -0.0876582051,
				"element": "H" 
			},
			{
				"x": -1.6979834733,
				"y": -1.9356843414,
				"z": -1.8475901123,
				"element": "H" 
			},
			{
				"x": 0.8835962162,
				"y": -2.1992159621,
				"z": -1.7995038817,
				"element": "H" 
			},
			{
				"x": -0.1137756567,
				"y": -3.5732336929,
				"z": -1.2755154081,
				"element": "H" 
			},
			{
				"x": 0.8046095699,
				"y": -3.2656813243,
				"z": 2.0246752722,
				"element": "H" 
			},
			{
				"x": -1.1625171116,
				"y": -0.0567431074,
				"z": -3.1740292834,
				"element": "H" 
			},
			{
				"x": -0.7290398269,
				"y": 2.3808669565,
				"z": -3.3456780462,
				"element": "H" 
			},
			{
				"x": -0.1382650114,
				"y": 3.6651421994,
				"z": -1.2910201869,
				"element": "H" 
			},
			{
				"x": 0.0212439177,
				"y": 2.5250691083,
				"z": 0.8801242506,
				"element": "H" 
			}
		],
		 "valence_orbital": [ 
			{
				"type": "occ",
				"energy": -0.31387,
				"method": "rhf"
			},
			{
				"type": "occ",
				"energy": -0.30756,
				"method": "rhf"
			},
			{
				"type": "occ",
				"energy": -0.26571,
				"method": "rhf"
			},
			{
				"type": "occ",
				"energy": -0.24207,
				"method": "rhf"
			},
			{
				"type": "occ",
				"energy": -0.21294,
				"method": "rhf"
			},
			{
				"type": "unocc",
				"energy": 0.00014,
				"method": "rhf"
			},
			{
				"type": "unocc",
				"energy": 0.01139,
				"method": "rhf"
			},
			{
				"type": "unocc",
				"energy": 0.0184,
				"method": "rhf"
			},
			{
				"type": "unocc",
				"energy": 0.07118,
				"method": "rhf"
			},
			{
				"type": "unocc",
				"energy": 0.09279,
				"method": "rhf"
			}
		],
		"cosmo_sigma_profile": { 
			"-0.025": 0.0,
			"-0.024": 0.0,
			"-0.023": 0.0,
			"-0.022": 0.0,
			"-0.021": 0.0,
			"-0.02": 0.0,
			"-0.019": 0.0,
			"-0.018": 0.310473625659,
			"-0.017": 0.838423117492,
			"-0.016": 0.864410872613,
			"-0.015": 0.467963708113,
			"-0.014": 0.792558282173,
			"-0.013": 0.468746306361,
			"-0.012": 0.864190772749,
			"-0.011": 0.664394946738,
			"-0.01": 0.570596847147,
			"-0.009": 0.56169206928,
			"-0.008": 0.520128294709,
			"-0.007": 1.35571200629,
			"-0.006": 6.7709871218,
			"-0.005": 18.9484397177,
			"-0.004": 24.4029651478,
			"-0.003": 28.3589513636,
			"-0.002": 22.3912916983,
			"-0.001": 18.2730056994,
			"0.0": 17.1021421421,
			"0.001": 14.0047691931,
			"0.002": 10.3197506629,
			"0.003": 10.5968232389,
			"0.004": 12.5994507413,
			"0.005": 11.9573049244,
			"0.006": 11.849798827,
			"0.007": 7.60364875615,
			"0.008": 4.18343726248,
			"0.009": 3.90768609446,
			"0.01": 2.42058705403,
			"0.011": 2.34158157457,
			"0.012": 3.31617091324,
			"0.013": 1.43367621904,
			"0.014": 0.115069662512,
			"0.015": 0.0,
			"0.016": 0.0,
			"0.017": 0.0,
			"0.018": 0.0,
			"0.019": 0.0,
			"0.02": 0.0,
			"0.021": 0.0,
			"0.022": 0.0,
			"0.023": 0.0,
			"0.024": 0.0,
			"0.025": 0.0
		}
	}
}
