{
	 "smiles": "ClC1=CC=C(C=NC2NC3=CC=CC=C3N2)C=C1", 
	 "Tm": 428.15, 
	 "num_atms": 30, 
	 "gaussian": { 
		 "optdone": 1, 
		 "sigma_profile": "yes", 
		 "theory": "DFT", 
		 "functional": "B3LYP", 
		 "basiset": "6-31G**", 
		 "properties": { 
			 "R2extent": 9151.3336, 
			 "electric_dipole_moment_norm": 2.4429094887, 
			 "electric_quadrupole_moment_norm": 15.5292255035, 
			 "total_energy": -1165.14993435, 
			 "HOMO_LUMO_gap": 0.12033, 
			 "cosmo_polarized_energy": -14.43, 
			 "cosmo_cavitation_energy": 36.6, 
			 "cosmo_dispersion_energy": -26.94, 
			 "cosmo_repulsion_energy": 2.08, 
			 "cosmo_total_nonelectrostatic_energy": 11.74, 
			 "SMD_solvation_energy": 0.95 
		},
		"coords": [
			{
				"x": -7.1657162894,
				"y": 1.0371770593,
				"z": -0.4110335488,
				"element": "Cl" 
			},
			{
				"x": -5.539977433,
				"y": 0.3872764917,
				"z": -0.284842278,
				"element": "C" 
			},
			{
				"x": -5.358479525,
				"y": -0.9938977713,
				"z": -0.2259104578,
				"element": "C" 
			},
			{
				"x": -4.0630339817,
				"y": -1.4981024047,
				"z": -0.1255006499,
				"element": "C" 
			},
			{
				"x": -2.9559452969,
				"y": -0.6391407683,
				"z": -0.0849060554,
				"element": "C" 
			},
			{
				"x": -1.5998844951,
				"y": -1.1995513401,
				"z": 0.0191203127,
				"element": "C" 
			},
			{
				"x": -0.5495420287,
				"y": -0.4757971408,
				"z": 0.0372949392,
				"element": "N" 
			},
			{
				"x": 0.7345784482,
				"y": -1.1736839853,
				"z": 0.1379619353,
				"element": "C" 
			},
			{
				"x": 1.5982731755,
				"y": -0.7929756815,
				"z": -0.9874386546,
				"element": "N" 
			},
			{
				"x": 2.6055700601,
				"y": 0.0603537113,
				"z": -0.4904597551,
				"element": "C" 
			},
			{
				"x": 3.5693233551,
				"y": 0.7933045592,
				"z": -1.1665872226,
				"element": "C" 
			},
			{
				"x": 4.5226424755,
				"y": 1.4931068596,
				"z": -0.4059285456,
				"element": "C" 
			},
			{
				"x": 4.5039522088,
				"y": 1.4442079915,
				"z": 0.9864203708,
				"element": "C" 
			},
			{
				"x": 3.5158378522,
				"y": 0.710839886,
				"z": 1.6672790643,
				"element": "C" 
			},
			{
				"x": 2.5740824277,
				"y": 0.0292543083,
				"z": 0.9133165113,
				"element": "C" 
			},
			{
				"x": 1.4627850144,
				"y": -0.7370015056,
				"z": 1.3266567386,
				"element": "N" 
			},
			{
				"x": -3.1666889538,
				"y": 0.7488958942,
				"z": -0.1444902109,
				"element": "C" 
			},
			{
				"x": -4.4525974579,
				"y": 1.2658760304,
				"z": -0.2442895669,
				"element": "C" 
			},
			{
				"x": -6.2150653504,
				"y": -1.657705585,
				"z": -0.2579753812,
				"element": "H" 
			},
			{
				"x": -3.9112936276,
				"y": -2.573631559,
				"z": -0.0786421454,
				"element": "H" 
			},
			{
				"x": -1.5470711988,
				"y": -2.3004258578,
				"z": 0.083522835,
				"element": "H" 
			},
			{
				"x": 0.5728108698,
				"y": -2.2662253531,
				"z": 0.1593191558,
				"element": "H" 
			},
			{
				"x": 1.0794349887,
				"y": -0.4552073224,
				"z": -1.7894394576,
				"element": "H" 
			},
			{
				"x": 3.5977130472,
				"y": 0.8139669202,
				"z": -2.2520698183,
				"element": "H" 
			},
			{
				"x": 5.2852435515,
				"y": 2.0741583055,
				"z": -0.9159338882,
				"element": "H" 
			},
			{
				"x": 5.2524685811,
				"y": 1.9855826401,
				"z": 1.5570827371,
				"element": "H" 
			},
			{
				"x": 3.4831006753,
				"y": 0.6902014134,
				"z": 2.7525570537,
				"element": "H" 
			},
			{
				"x": 1.626135871,
				"y": -1.4517691128,
				"z": 2.0221772669,
				"element": "H" 
			},
			{
				"x": -2.3049083528,
				"y": 1.4069150752,
				"z": -0.1082242503,
				"element": "H" 
			},
			{
				"x": -4.620048611,
				"y": 2.3362982422,
				"z": -0.2893370338,
				"element": "H" 
			}
		],
		 "valence_orbital": [ 
			{
				"type": "occ",
				"energy": -0.27279,
				"method": "rhf"
			},
			{
				"type": "occ",
				"energy": -0.26757,
				"method": "rhf"
			},
			{
				"type": "occ",
				"energy": -0.24822,
				"method": "rhf"
			},
			{
				"type": "occ",
				"energy": -0.22188,
				"method": "rhf"
			},
			{
				"type": "occ",
				"energy": -0.18097,
				"method": "rhf"
			},
			{
				"type": "unocc",
				"energy": -0.06064,
				"method": "rhf"
			},
			{
				"type": "unocc",
				"energy": -0.0213,
				"method": "rhf"
			},
			{
				"type": "unocc",
				"energy": 0.01425,
				"method": "rhf"
			},
			{
				"type": "unocc",
				"energy": 0.02412,
				"method": "rhf"
			},
			{
				"type": "unocc",
				"energy": 0.0244,
				"method": "rhf"
			}
		],
		"cosmo_sigma_profile": { 
			"-0.025": 0.0,
			"-0.024": 0.0,
			"-0.023": 0.0,
			"-0.022": 0.0,
			"-0.021": 0.0,
			"-0.02": 0.0,
			"-0.019": 0.0,
			"-0.018": 0.0,
			"-0.017": 0.0,
			"-0.016": 0.0,
			"-0.015": 0.0,
			"-0.014": 0.0736626167413,
			"-0.013": 1.4430552402,
			"-0.012": 2.63941827694,
			"-0.011": 2.30923891307,
			"-0.01": 1.64100374143,
			"-0.009": 2.54773907765,
			"-0.008": 5.01139769457,
			"-0.007": 11.3162852721,
			"-0.006": 16.9252010974,
			"-0.005": 19.6731890011,
			"-0.004": 16.9632574024,
			"-0.003": 18.6056354287,
			"-0.002": 17.7908088382,
			"-0.001": 15.7783574307,
			"0.0": 18.812549316,
			"0.001": 21.3319839483,
			"0.002": 26.8852816045,
			"0.003": 24.1368307916,
			"0.004": 19.1087441887,
			"0.005": 13.364353739,
			"0.006": 11.7177041761,
			"0.007": 9.99697091155,
			"0.008": 5.3918183554,
			"0.009": 2.67231128499,
			"0.01": 1.99711318212,
			"0.011": 1.81619302369,
			"0.012": 2.02491927935,
			"0.013": 1.49877293097,
			"0.014": 1.73802706144,
			"0.015": 0.0872138223207,
			"0.016": 0.0,
			"0.017": 0.0,
			"0.018": 0.0,
			"0.019": 0.0,
			"0.02": 0.0,
			"0.021": 0.0,
			"0.022": 0.0,
			"0.023": 0.0,
			"0.024": 0.0,
			"0.025": 0.0
		}
	}
}
