{
	 "smiles": "CC(C)CCC[C@@H](C)CCC[C@@H](C)CCCC(C)=CCC1=C(C)C(=O)C2=CC=CC=C2C1=O", 
	 "Tm": 253.15, 
	 "num_atms": 79, 
	 "gaussian": { 
		 "optdone": 1, 
		 "sigma_profile": "yes", 
		 "theory": "DFT", 
		 "functional": "B3LYP", 
		 "basiset": "6-31G**", 
		 "properties": { 
			 "R2extent": 28080.6267, 
			 "electric_dipole_moment_norm": 0.327940680612, 
			 "electric_quadrupole_moment_norm": 22.1700821713, 
			 "total_energy": -1359.50803509, 
			 "HOMO_LUMO_gap": 0.12338, 
			 "cosmo_polarized_energy": -10.12, 
			 "cosmo_cavitation_energy": 76.25, 
			 "cosmo_dispersion_energy": -47.89, 
			 "cosmo_repulsion_energy": 3.68, 
			 "cosmo_total_nonelectrostatic_energy": 32.04, 
			 "SMD_solvation_energy": 12.06 
		},
		"coords": [
			{
				"x": -3.0207770664,
				"y": -4.7543550201,
				"z": 2.2613362762,
				"element": "C" 
			},
			{
				"x": -2.7031400765,
				"y": -4.7332481682,
				"z": 0.7584314018,
				"element": "C" 
			},
			{
				"x": -3.0885306357,
				"y": -3.378211448,
				"z": 0.14715599,
				"element": "C" 
			},
			{
				"x": -1.2284161447,
				"y": -5.1200225165,
				"z": 0.5174420669,
				"element": "C" 
			},
			{
				"x": -0.7915086824,
				"y": -5.2582490213,
				"z": -0.9600798707,
				"element": "C" 
			},
			{
				"x": -0.1002411166,
				"y": -4.0146889431,
				"z": -1.5455343765,
				"element": "C" 
			},
			{
				"x": 0.4257546219,
				"y": -4.180075323,
				"z": -2.9866938664,
				"element": "C" 
			},
			{
				"x": -0.7140208151,
				"y": -4.4103167762,
				"z": -3.9925805686,
				"element": "C" 
			},
			{
				"x": 1.280913093,
				"y": -2.972913857,
				"z": -3.4315681884,
				"element": "C" 
			},
			{
				"x": 2.5866686085,
				"y": -2.7768669175,
				"z": -2.6427896439,
				"element": "C" 
			},
			{
				"x": 3.6315983263,
				"y": -1.8326738258,
				"z": -3.2733658295,
				"element": "C" 
			},
			{
				"x": 3.3726078021,
				"y": -0.3040621772,
				"z": -3.2724952803,
				"element": "C" 
			},
			{
				"x": 2.3144375091,
				"y": 0.1491593281,
				"z": -4.2939136339,
				"element": "C" 
			},
			{
				"x": 3.0858872452,
				"y": 0.2301242498,
				"z": -1.8536325793,
				"element": "C" 
			},
			{
				"x": 3.1554613477,
				"y": 1.7581530264,
				"z": -1.7246870493,
				"element": "C" 
			},
			{
				"x": 3.0257712511,
				"y": 2.2959693137,
				"z": -0.2816224762,
				"element": "C" 
			},
			{
				"x": 1.6959621604,
				"y": 1.9916927833,
				"z": 0.399615352,
				"element": "C" 
			},
			{
				"x": 1.7010577633,
				"y": 0.8233051422,
				"z": 1.3561735451,
				"element": "C" 
			},
			{
				"x": 0.6227061967,
				"y": 2.7464160036,
				"z": 0.1141376154,
				"element": "C" 
			},
			{
				"x": -0.7943779514,
				"y": 2.6053846724,
				"z": 0.6278813937,
				"element": "C" 
			},
			{
				"x": -1.3206914773,
				"y": 3.9130144425,
				"z": 1.1855324719,
				"element": "C" 
			},
			{
				"x": -1.1280204896,
				"y": 4.3011608156,
				"z": 2.4732795972,
				"element": "C" 
			},
			{
				"x": -0.3737355001,
				"y": 3.4673515241,
				"z": 3.4740178547,
				"element": "C" 
			},
			{
				"x": -1.6717940117,
				"y": 5.602714531,
				"z": 2.9750180687,
				"element": "C" 
			},
			{
				"x": -1.5115527103,
				"y": 5.9401014397,
				"z": 4.1446431645,
				"element": "O" 
			},
			{
				"x": -2.4130317011,
				"y": 6.4788349225,
				"z": 2.0251686448,
				"element": "C" 
			},
			{
				"x": -2.9333987632,
				"y": 7.6992050657,
				"z": 2.4681146187,
				"element": "C" 
			},
			{
				"x": -3.6231604903,
				"y": 8.5232645989,
				"z": 1.5807464939,
				"element": "C" 
			},
			{
				"x": -3.7951822989,
				"y": 8.1334876253,
				"z": 0.2474707906,
				"element": "C" 
			},
			{
				"x": -3.2781367232,
				"y": 6.9188538487,
				"z": -0.1991510827,
				"element": "C" 
			},
			{
				"x": -2.586638514,
				"y": 6.0876583814,
				"z": 0.6880077365,
				"element": "C" 
			},
			{
				"x": -2.0373390997,
				"y": 4.7887051603,
				"z": 0.210651878,
				"element": "C" 
			},
			{
				"x": -2.1650163812,
				"y": 4.4422911309,
				"z": -0.9613375348,
				"element": "O" 
			},
			{
				"x": -2.4312187607,
				"y": -3.9995252445,
				"z": 2.7965176842,
				"element": "H" 
			},
			{
				"x": -2.7924316735,
				"y": -5.7292710606,
				"z": 2.7061305062,
				"element": "H" 
			},
			{
				"x": -4.0788270036,
				"y": -4.5401694148,
				"z": 2.4479531101,
				"element": "H" 
			},
			{
				"x": -3.3232436996,
				"y": -5.50385288,
				"z": 0.2751080943,
				"element": "H" 
			},
			{
				"x": -2.474024569,
				"y": -2.5700154616,
				"z": 0.5630733265,
				"element": "H" 
			},
			{
				"x": -2.9640863598,
				"y": -3.3678987718,
				"z": -0.9396546978,
				"element": "H" 
			},
			{
				"x": -4.1366014492,
				"y": -3.1391838515,
				"z": 0.3596724974,
				"element": "H" 
			},
			{
				"x": -0.5798315402,
				"y": -4.3914042611,
				"z": 1.0262512367,
				"element": "H" 
			},
			{
				"x": -1.0555665221,
				"y": -6.0759035882,
				"z": 1.0283671964,
				"element": "H" 
			},
			{
				"x": -1.6632292378,
				"y": -5.5347004051,
				"z": -1.5667507876,
				"element": "H" 
			},
			{
				"x": -0.0919023763,
				"y": -6.1002663118,
				"z": -1.0470241317,
				"element": "H" 
			},
			{
				"x": -0.7785923965,
				"y": -3.1511857033,
				"z": -1.5155653659,
				"element": "H" 
			},
			{
				"x": 0.7385626317,
				"y": -3.7610105175,
				"z": -0.8852675945,
				"element": "H" 
			},
			{
				"x": 1.0759366742,
				"y": -5.069646866,
				"z": -3.0048133047,
				"element": "H" 
			},
			{
				"x": -0.3222217262,
				"y": -4.5275877517,
				"z": -5.0089072016,
				"element": "H" 
			},
			{
				"x": -1.4049733519,
				"y": -3.5579240169,
				"z": -4.0014704999,
				"element": "H" 
			},
			{
				"x": -1.2959384029,
				"y": -5.3069932404,
				"z": -3.7600428938,
				"element": "H" 
			},
			{
				"x": 1.5317693471,
				"y": -3.1032975732,
				"z": -4.4935029077,
				"element": "H" 
			},
			{
				"x": 0.6607565617,
				"y": -2.0689315431,
				"z": -3.3783956393,
				"element": "H" 
			},
			{
				"x": 2.3677463112,
				"y": -2.4469439393,
				"z": -1.6205126782,
				"element": "H" 
			},
			{
				"x": 3.0664412907,
				"y": -3.760352656,
				"z": -2.5370203537,
				"element": "H" 
			},
			{
				"x": 4.5766292757,
				"y": -1.9959840777,
				"z": -2.7373065766,
				"element": "H" 
			},
			{
				"x": 3.8175773481,
				"y": -2.1527281118,
				"z": -4.3083894287,
				"element": "H" 
			},
			{
				"x": 4.325845456,
				"y": 0.1442302144,
				"z": -3.5935144612,
				"element": "H" 
			},
			{
				"x": 2.4918337588,
				"y": -0.3098354986,
				"z": -5.2726056598,
				"element": "H" 
			},
			{
				"x": 1.2999977621,
				"y": -0.1166132237,
				"z": -3.9808643847,
				"element": "H" 
			},
			{
				"x": 2.337601693,
				"y": 1.2344685942,
				"z": -4.433756082,
				"element": "H" 
			},
			{
				"x": 3.8119180093,
				"y": -0.2160119997,
				"z": -1.1579247901,
				"element": "H" 
			},
			{
				"x": 2.095192814,
				"y": -0.1140438725,
				"z": -1.5295483589,
				"element": "H" 
			},
			{
				"x": 2.3702558188,
				"y": 2.2196635354,
				"z": -2.3349113005,
				"element": "H" 
			},
			{
				"x": 4.1134283776,
				"y": 2.108271037,
				"z": -2.1344730282,
				"element": "H" 
			},
			{
				"x": 3.1723824223,
				"y": 3.3821875934,
				"z": -0.3132468855,
				"element": "H" 
			},
			{
				"x": 3.8473432449,
				"y": 1.8919114231,
				"z": 0.324742621,
				"element": "H" 
			},
			{
				"x": 2.0327168044,
				"y": -0.0925712679,
				"z": 0.8527924503,
				"element": "H" 
			},
			{
				"x": 0.7247768921,
				"y": 0.6212775278,
				"z": 1.8014124408,
				"element": "H" 
			},
			{
				"x": 2.4135746418,
				"y": 0.9997286771,
				"z": 2.1726402558,
				"element": "H" 
			},
			{
				"x": 0.7546283648,
				"y": 3.5653406893,
				"z": -0.5935803986,
				"element": "H" 
			},
			{
				"x": -1.442734955,
				"y": 2.320057689,
				"z": -0.2079262211,
				"element": "H" 
			},
			{
				"x": -0.8647943182,
				"y": 1.8245188055,
				"z": 1.3881706513,
				"element": "H" 
			},
			{
				"x": -0.9170071912,
				"y": 2.5430279337,
				"z": 3.7053873447,
				"element": "H" 
			},
			{
				"x": 0.6048978371,
				"y": 3.1795303897,
				"z": 3.0785150197,
				"element": "H" 
			},
			{
				"x": -0.2428271191,
				"y": 4.0253255034,
				"z": 4.4011996594,
				"element": "H" 
			},
			{
				"x": -2.7851274818,
				"y": 7.9784332711,
				"z": 3.5057554806,
				"element": "H" 
			},
			{
				"x": -4.0275816737,
				"y": 9.470579992,
				"z": 1.925164432,
				"element": "H" 
			},
			{
				"x": -4.3327768818,
				"y": 8.77880285,
				"z": -0.4411130249,
				"element": "H" 
			},
			{
				"x": -3.396889923,
				"y": 6.5931333721,
				"z": -1.2270383306,
				"element": "H" 
			}
		],
		 "valence_orbital": [ 
			{
				"type": "occ",
				"energy": -0.26932,
				"method": "rhf"
			},
			{
				"type": "occ",
				"energy": -0.26632,
				"method": "rhf"
			},
			{
				"type": "occ",
				"energy": -0.2624,
				"method": "rhf"
			},
			{
				"type": "occ",
				"energy": -0.2561,
				"method": "rhf"
			},
			{
				"type": "occ",
				"energy": -0.23052,
				"method": "rhf"
			},
			{
				"type": "unocc",
				"energy": -0.10714,
				"method": "rhf"
			},
			{
				"type": "unocc",
				"energy": -0.03851,
				"method": "rhf"
			},
			{
				"type": "unocc",
				"energy": -0.01703,
				"method": "rhf"
			},
			{
				"type": "unocc",
				"energy": 0.02416,
				"method": "rhf"
			},
			{
				"type": "unocc",
				"energy": 0.04781,
				"method": "rhf"
			}
		],
		"cosmo_sigma_profile": { 
			"-0.025": 0.0,
			"-0.024": 0.0,
			"-0.023": 0.0,
			"-0.022": 0.0,
			"-0.021": 0.0,
			"-0.02": 0.0,
			"-0.019": 0.0,
			"-0.018": 0.0,
			"-0.017": 0.0,
			"-0.016": 0.0,
			"-0.015": 0.0,
			"-0.014": 0.0,
			"-0.013": 0.0,
			"-0.012": 0.0,
			"-0.011": 0.0,
			"-0.01": 0.0,
			"-0.009": 0.0,
			"-0.008": 0.0725513981186,
			"-0.007": 3.95038287557,
			"-0.006": 8.85041759442,
			"-0.005": 14.887421823,
			"-0.004": 15.6925065247,
			"-0.003": 28.2758711808,
			"-0.002": 72.474346503,
			"-0.001": 125.289791323,
			"0.0": 112.346781798,
			"0.001": 90.5423189108,
			"0.002": 61.3548355878,
			"0.003": 15.9437900674,
			"0.004": 8.26981801819,
			"0.005": 6.02810589783,
			"0.006": 3.26945547164,
			"0.007": 3.76206329758,
			"0.008": 3.05026121319,
			"0.009": 3.65545521326,
			"0.01": 4.71950584542,
			"0.011": 7.05857155114,
			"0.012": 2.00575412827,
			"0.013": 0.0,
			"0.014": 0.0,
			"0.015": 0.0,
			"0.016": 0.0,
			"0.017": 0.0,
			"0.018": 0.0,
			"0.019": 0.0,
			"0.02": 0.0,
			"0.021": 0.0,
			"0.022": 0.0,
			"0.023": 0.0,
			"0.024": 0.0,
			"0.025": 0.0
		}
	}
}
