{
	 "smiles": "COC1=C(C=CC=C1)N1N=CC2=C1N=CNC2=O", 
	 "Tm": 543.15, 
	 "num_atms": 28, 
	 "gaussian": { 
		 "optdone": 1, 
		 "sigma_profile": "yes", 
		 "theory": "DFT", 
		 "functional": "B3LYP", 
		 "basiset": "6-31G**", 
		 "properties": { 
			 "R2extent": 5226.7105, 
			 "electric_dipole_moment_norm": 3.13458464394, 
			 "electric_quadrupole_moment_norm": 26.7354523236, 
			 "total_energy": -832.736688327, 
			 "HOMO_LUMO_gap": 0.19221, 
			 "cosmo_polarized_energy": -18.14, 
			 "cosmo_cavitation_energy": 32.94, 
			 "cosmo_dispersion_energy": -23.75, 
			 "cosmo_repulsion_energy": 1.82, 
			 "cosmo_total_nonelectrostatic_energy": 11.0, 
			 "SMD_solvation_energy": 5.97 
		},
		"coords": [
			{
				"x": -2.5682465016,
				"y": 0.3630512815,
				"z": 0.5100805734,
				"element": "C" 
			},
			{
				"x": -1.2258700408,
				"y": 0.4919168795,
				"z": 0.9909504963,
				"element": "O" 
			},
			{
				"x": -0.4890504401,
				"y": -0.6604286302,
				"z": 1.0137013982,
				"element": "C" 
			},
			{
				"x": 0.543729523,
				"y": -0.8586477026,
				"z": 0.0790133882,
				"element": "C" 
			},
			{
				"x": 1.3683218457,
				"y": -1.983623384,
				"z": 0.1692416878,
				"element": "C" 
			},
			{
				"x": 1.1617259455,
				"y": -2.9247316433,
				"z": 1.1752682626,
				"element": "C" 
			},
			{
				"x": 0.1226553082,
				"y": -2.7461413876,
				"z": 2.0908606875,
				"element": "C" 
			},
			{
				"x": -0.6956773725,
				"y": -1.6208587997,
				"z": 2.0090213339,
				"element": "C" 
			},
			{
				"x": 0.7580147725,
				"y": 0.0922699775,
				"z": -0.9580921543,
				"element": "N" 
			},
			{
				"x": -0.2713898257,
				"y": 0.4749039119,
				"z": -1.7807703364,
				"element": "N" 
			},
			{
				"x": 0.2420512375,
				"y": 1.3528454203,
				"z": -2.6280831516,
				"element": "C" 
			},
			{
				"x": 1.6192305084,
				"y": 1.5615985883,
				"z": -2.3787193531,
				"element": "C" 
			},
			{
				"x": 1.9168678701,
				"y": 0.7286215423,
				"z": -1.2919347064,
				"element": "C" 
			},
			{
				"x": 3.1245633138,
				"y": 0.5771170546,
				"z": -0.6708120285,
				"element": "N" 
			},
			{
				"x": 4.0565125591,
				"y": 1.3170843566,
				"z": -1.1954482715,
				"element": "C" 
			},
			{
				"x": 3.8845659264,
				"y": 2.1631751159,
				"z": -2.2555108746,
				"element": "N" 
			},
			{
				"x": 2.6585298976,
				"y": 2.3764198012,
				"z": -2.9578304101,
				"element": "C" 
			},
			{
				"x": 2.6121057775,
				"y": 3.1568797793,
				"z": -3.8945730066,
				"element": "O" 
			},
			{
				"x": -2.5661679669,
				"y": 0.0990335369,
				"z": -0.5519184314,
				"element": "H" 
			},
			{
				"x": -3.0344516362,
				"y": 1.3407317586,
				"z": 0.6459232114,
				"element": "H" 
			},
			{
				"x": -3.1286620389,
				"y": -0.3862884311,
				"z": 1.083285696,
				"element": "H" 
			},
			{
				"x": 2.1656365019,
				"y": -2.1104259666,
				"z": -0.554245794,
				"element": "H" 
			},
			{
				"x": 1.8061397311,
				"y": -3.7957694918,
				"z": 1.2384726453,
				"element": "H" 
			},
			{
				"x": -0.0444859305,
				"y": -3.4770390709,
				"z": 2.8765091155,
				"element": "H" 
			},
			{
				"x": -1.4865411847,
				"y": -1.4519095748,
				"z": 2.7332501966,
				"element": "H" 
			},
			{
				"x": -0.3806974914,
				"y": 1.8028710948,
				"z": -3.3886213041,
				"element": "H" 
			},
			{
				"x": 5.0607622658,
				"y": 1.281000782,
				"z": -0.7797770793,
				"element": "H" 
			},
			{
				"x": 4.6695274451,
				"y": 2.7033432014,
				"z": -2.5992417912,
				"element": "H" 
			}
		],
		 "valence_orbital": [ 
			{
				"type": "occ",
				"energy": -0.27727,
				"method": "rhf"
			},
			{
				"type": "occ",
				"energy": -0.26614,
				"method": "rhf"
			},
			{
				"type": "occ",
				"energy": -0.2492,
				"method": "rhf"
			},
			{
				"type": "occ",
				"energy": -0.23873,
				"method": "rhf"
			},
			{
				"type": "occ",
				"energy": -0.23313,
				"method": "rhf"
			},
			{
				"type": "unocc",
				"energy": -0.04092,
				"method": "rhf"
			},
			{
				"type": "unocc",
				"energy": -0.01568,
				"method": "rhf"
			},
			{
				"type": "unocc",
				"energy": -0.00879,
				"method": "rhf"
			},
			{
				"type": "unocc",
				"energy": -0.00417,
				"method": "rhf"
			},
			{
				"type": "unocc",
				"energy": 0.04266,
				"method": "rhf"
			}
		],
		"cosmo_sigma_profile": { 
			"-0.025": 0.0,
			"-0.024": 0.0,
			"-0.023": 0.0,
			"-0.022": 0.0,
			"-0.021": 0.0,
			"-0.02": 0.0,
			"-0.019": 0.0,
			"-0.018": 0.00770804845294,
			"-0.017": 1.05082202487,
			"-0.016": 1.56525142137,
			"-0.015": 1.374970478,
			"-0.014": 1.04340712857,
			"-0.013": 1.3360765845,
			"-0.012": 1.66666599523,
			"-0.011": 1.67977229629,
			"-0.01": 2.78574813736,
			"-0.009": 3.5341294318,
			"-0.008": 3.57652768434,
			"-0.007": 5.92503665158,
			"-0.006": 12.4385750841,
			"-0.005": 17.2529772079,
			"-0.004": 18.5532942652,
			"-0.003": 21.0325687604,
			"-0.002": 21.8777529115,
			"-0.001": 16.010282092,
			"0.0": 15.435687292,
			"0.001": 15.933012746,
			"0.002": 16.0688448084,
			"0.003": 17.0512536241,
			"0.004": 14.1739277054,
			"0.005": 8.58068476,
			"0.006": 7.13988559354,
			"0.007": 5.90472433284,
			"0.008": 4.48702300893,
			"0.009": 5.34039271934,
			"0.01": 4.75731160932,
			"0.011": 5.42343400903,
			"0.012": 5.37767502692,
			"0.013": 5.75172670633,
			"0.014": 0.679312595349,
			"0.015": 0.0,
			"0.016": 0.0,
			"0.017": 0.0,
			"0.018": 0.0,
			"0.019": 0.0,
			"0.02": 0.0,
			"0.021": 0.0,
			"0.022": 0.0,
			"0.023": 0.0,
			"0.024": 0.0,
			"0.025": 0.0
		}
	}
}
