{
	 "smiles": "OC1=C(Cl)C=C(C=C1Cl)S(Cl)(=O)=O", 
	 "Tm": 392.15, 
	 "num_atms": 16, 
	 "gaussian": { 
		 "optdone": 1, 
		 "sigma_profile": "yes", 
		 "theory": "DFT", 
		 "functional": "B3LYP", 
		 "basiset": "6-31G**", 
		 "properties": { 
			 "R2extent": 4870.3151, 
			 "electric_dipole_moment_norm": 4.43032259548, 
			 "electric_quadrupole_moment_norm": 5.18044500888, 
			 "total_energy": -2234.80406202, 
			 "HOMO_LUMO_gap": 0.17415, 
			 "cosmo_polarized_energy": -11.03, 
			 "cosmo_cavitation_energy": 28.09, 
			 "cosmo_dispersion_energy": -21.46, 
			 "cosmo_repulsion_energy": 1.67, 
			 "cosmo_total_nonelectrostatic_energy": 8.31, 
			 "SMD_solvation_energy": 3.4 
		},
		"coords": [
			{
				"x": 1.3533410293,
				"y": 3.2175103019,
				"z": -0.9912528461,
				"element": "O" 
			},
			{
				"x": 1.2627715786,
				"y": 1.9195126853,
				"z": -0.6716581401,
				"element": "C" 
			},
			{
				"x": 2.4491367013,
				"y": 1.1668486391,
				"z": -0.5479119347,
				"element": "C" 
			},
			{
				"x": 3.9771881365,
				"y": 1.9533459345,
				"z": -0.8207993229,
				"element": "Cl" 
			},
			{
				"x": 2.4103156951,
				"y": -0.1819503483,
				"z": -0.2195661442,
				"element": "C" 
			},
			{
				"x": 1.169445061,
				"y": -0.7865123702,
				"z": -0.0140140467,
				"element": "C" 
			},
			{
				"x": -0.0298233228,
				"y": -0.085132368,
				"z": -0.1262273331,
				"element": "C" 
			},
			{
				"x": 0.0355993446,
				"y": 1.2610852266,
				"z": -0.4553160513,
				"element": "C" 
			},
			{
				"x": -1.4380142428,
				"y": 2.1997395827,
				"z": -0.6221208063,
				"element": "Cl" 
			},
			{
				"x": 1.1118446574,
				"y": -2.5191629106,
				"z": 0.3969582381,
				"element": "S" 
			},
			{
				"x": 1.2158289753,
				"y": -2.4571887687,
				"z": 2.5244529742,
				"element": "Cl" 
			},
			{
				"x": -0.208992891,
				"y": -3.0411756421,
				"z": 0.0713852925,
				"element": "O" 
			},
			{
				"x": 2.3427089963,
				"y": -3.1570810173,
				"z": -0.0502818712,
				"element": "O" 
			},
			{
				"x": 0.4621550039,
				"y": 3.5994447116,
				"z": -1.042310124,
				"element": "H" 
			},
			{
				"x": 3.3271337459,
				"y": -0.7529752304,
				"z": -0.1364811272,
				"element": "H" 
			},
			{
				"x": -0.9827384685,
				"y": -0.576708426,
				"z": 0.0274432431,
				"element": "H" 
			}
		],
		 "valence_orbital": [ 
			{
				"type": "occ",
				"energy": -0.33704,
				"method": "rhf"
			},
			{
				"type": "occ",
				"energy": -0.33407,
				"method": "rhf"
			},
			{
				"type": "occ",
				"energy": -0.3207,
				"method": "rhf"
			},
			{
				"type": "occ",
				"energy": -0.28755,
				"method": "rhf"
			},
			{
				"type": "occ",
				"energy": -0.27212,
				"method": "rhf"
			},
			{
				"type": "unocc",
				"energy": -0.09797,
				"method": "rhf"
			},
			{
				"type": "unocc",
				"energy": -0.05921,
				"method": "rhf"
			},
			{
				"type": "unocc",
				"energy": -0.05247,
				"method": "rhf"
			},
			{
				"type": "unocc",
				"energy": -0.02375,
				"method": "rhf"
			},
			{
				"type": "unocc",
				"energy": 0.01956,
				"method": "rhf"
			}
		],
		"cosmo_sigma_profile": { 
			"-0.025": 0.0,
			"-0.024": 0.0,
			"-0.023": 0.0,
			"-0.022": 0.0,
			"-0.021": 0.0,
			"-0.02": 0.0,
			"-0.019": 0.0,
			"-0.018": 0.104591730205,
			"-0.017": 0.374761564231,
			"-0.016": 1.02989421693,
			"-0.015": 0.65264481931,
			"-0.014": 0.559259300072,
			"-0.013": 0.705949669495,
			"-0.012": 1.22389387287,
			"-0.011": 1.07488880981,
			"-0.01": 1.82862763153,
			"-0.009": 3.69415126349,
			"-0.008": 3.45427876793,
			"-0.007": 5.74579880704,
			"-0.006": 6.17314294133,
			"-0.005": 6.3317580703,
			"-0.004": 9.57244026677,
			"-0.003": 18.6955508245,
			"-0.002": 24.6522933452,
			"-0.001": 22.3043608352,
			"0.0": 15.1835687873,
			"0.001": 17.0946256914,
			"0.002": 20.6608078219,
			"0.003": 26.6752379239,
			"0.004": 11.3987430437,
			"0.005": 5.34639525943,
			"0.006": 5.60207587996,
			"0.007": 8.60767969352,
			"0.008": 11.5645162489,
			"0.009": 3.46734926764,
			"0.01": 0.0,
			"0.011": 0.0,
			"0.012": 0.0,
			"0.013": 0.0,
			"0.014": 0.0,
			"0.015": 0.0,
			"0.016": 0.0,
			"0.017": 0.0,
			"0.018": 0.0,
			"0.019": 0.0,
			"0.02": 0.0,
			"0.021": 0.0,
			"0.022": 0.0,
			"0.023": 0.0,
			"0.024": 0.0,
			"0.025": 0.0
		}
	}
}
