{
	 "smiles": "NC(=O)C1CCNCC1", 
	 "Tm": 421.65, 
	 "num_atms": 21, 
	 "gaussian": { 
		 "optdone": 1, 
		 "sigma_profile": "yes", 
		 "theory": "DFT", 
		 "functional": "B3LYP", 
		 "basiset": "6-31G**", 
		 "properties": { 
			 "R2extent": 2338.1743, 
			 "electric_dipole_moment_norm": 2.95974325576, 
			 "electric_quadrupole_moment_norm": 17.0913844477, 
			 "total_energy": -420.606644447, 
			 "HOMO_LUMO_gap": 0.24815, 
			 "cosmo_polarized_energy": -13.7, 
			 "cosmo_cavitation_energy": 22.53, 
			 "cosmo_dispersion_energy": -16.93, 
			 "cosmo_repulsion_energy": 1.42, 
			 "cosmo_total_nonelectrostatic_energy": 7.02, 
			 "SMD_solvation_energy": 2.11 
		},
		"coords": [
			{
				"x": -2.4319325793,
				"y": 3.6600837947,
				"z": 1.0294013446,
				"element": "N" 
			},
			{
				"x": -1.9718139218,
				"y": 2.4504807883,
				"z": 1.4720061594,
				"element": "C" 
			},
			{
				"x": -2.6833717993,
				"y": 1.6763612726,
				"z": 2.0993521221,
				"element": "O" 
			},
			{
				"x": -0.5310848262,
				"y": 2.1145909624,
				"z": 1.083188214,
				"element": "C" 
			},
			{
				"x": 0.2485753309,
				"y": 1.556472612,
				"z": 2.2976610481,
				"element": "C" 
			},
			{
				"x": 1.4030678383,
				"y": 0.6365898237,
				"z": 1.8446966059,
				"element": "C" 
			},
			{
				"x": 1.8703217003,
				"y": 1.0744195783,
				"z": 0.5281225772,
				"element": "N" 
			},
			{
				"x": 0.9008531785,
				"y": 0.7598290762,
				"z": -0.5286989082,
				"element": "C" 
			},
			{
				"x": -0.5367376828,
				"y": 1.0640085641,
				"z": -0.0473606216,
				"element": "C" 
			},
			{
				"x": -3.377935219,
				"y": 3.9235728396,
				"z": 1.2608263714,
				"element": "H" 
			},
			{
				"x": -1.8350174632,
				"y": 4.3298850778,
				"z": 0.5733979935,
				"element": "H" 
			},
			{
				"x": -0.0255454292,
				"y": 3.0145146034,
				"z": 0.7134249953,
				"element": "H" 
			},
			{
				"x": -0.4488678634,
				"y": 1.0020017587,
				"z": 2.9327919176,
				"element": "H" 
			},
			{
				"x": 0.6404992414,
				"y": 2.3927867657,
				"z": 2.8866813324,
				"element": "H" 
			},
			{
				"x": 1.0674364349,
				"y": -0.4177415954,
				"z": 1.8477344005,
				"element": "H" 
			},
			{
				"x": 2.236300559,
				"y": 0.7003414393,
				"z": 2.5517600983,
				"element": "H" 
			},
			{
				"x": 2.7688019032,
				"y": 0.6559096004,
				"z": 0.3084167499,
				"element": "H" 
			},
			{
				"x": 1.1437199373,
				"y": 1.3731624348,
				"z": -1.4056836724,
				"element": "H" 
			},
			{
				"x": 0.9447275572,
				"y": -0.2958172189,
				"z": -0.853418626,
				"element": "H" 
			},
			{
				"x": -1.148855257,
				"y": 1.4006906751,
				"z": -0.8910457522,
				"element": "H" 
			},
			{
				"x": -1.0160416397,
				"y": 0.1597571472,
				"z": 0.3426456501,
				"element": "H" 
			}
		],
		 "valence_orbital": [ 
			{
				"type": "occ",
				"energy": -0.32045,
				"method": "rhf"
			},
			{
				"type": "occ",
				"energy": -0.30976,
				"method": "rhf"
			},
			{
				"type": "occ",
				"energy": -0.26153,
				"method": "rhf"
			},
			{
				"type": "occ",
				"energy": -0.24023,
				"method": "rhf"
			},
			{
				"type": "occ",
				"energy": -0.21322,
				"method": "rhf"
			},
			{
				"type": "unocc",
				"energy": 0.03493,
				"method": "rhf"
			},
			{
				"type": "unocc",
				"energy": 0.06976,
				"method": "rhf"
			},
			{
				"type": "unocc",
				"energy": 0.08644,
				"method": "rhf"
			},
			{
				"type": "unocc",
				"energy": 0.11534,
				"method": "rhf"
			},
			{
				"type": "unocc",
				"energy": 0.12917,
				"method": "rhf"
			}
		],
		"cosmo_sigma_profile": { 
			"-0.025": 0.0,
			"-0.024": 0.0,
			"-0.023": 0.0,
			"-0.022": 0.0,
			"-0.021": 0.0,
			"-0.02": 0.0,
			"-0.019": 0.0,
			"-0.018": 0.0,
			"-0.017": 0.0,
			"-0.016": 0.0,
			"-0.015": 0.0,
			"-0.014": 1.11118607895,
			"-0.013": 2.40859321726,
			"-0.012": 2.83172959788,
			"-0.011": 1.84592244136,
			"-0.01": 3.38228435311,
			"-0.009": 3.94754230451,
			"-0.008": 3.54900845125,
			"-0.007": 2.73015670733,
			"-0.006": 3.07027196397,
			"-0.005": 3.53698012567,
			"-0.004": 5.49616893063,
			"-0.003": 13.4604265892,
			"-0.002": 24.9844033943,
			"-0.001": 26.5243559281,
			"0.0": 19.9596263037,
			"0.001": 9.11540901099,
			"0.002": 4.73755478383,
			"0.003": 3.47985745978,
			"0.004": 5.36737854548,
			"0.005": 3.08531033639,
			"0.006": 2.92863886645,
			"0.007": 2.57733123792,
			"0.008": 2.90104052278,
			"0.009": 1.76527247548,
			"0.01": 1.81085213915,
			"0.011": 1.19769021887,
			"0.012": 2.8704781135,
			"0.013": 2.98244016334,
			"0.014": 5.56884890964,
			"0.015": 3.22049015147,
			"0.016": 0.40741741129,
			"0.017": 0.702525357452,
			"0.018": 0.129605818958,
			"0.019": 0.0,
			"0.02": 0.0,
			"0.021": 0.0,
			"0.022": 0.0,
			"0.023": 0.0,
			"0.024": 0.0,
			"0.025": 0.0
		}
	}
}
