{
	 "smiles": "NC1=CC=C(C=C1)N1C(=O)CCC1=O", 
	 "Tm": 513.15, 
	 "num_atms": 24, 
	 "gaussian": { 
		 "optdone": 1, 
		 "sigma_profile": "yes", 
		 "theory": "DFT", 
		 "functional": "B3LYP", 
		 "basiset": "6-31G**", 
		 "properties": { 
			 "R2extent": 3403.2302, 
			 "electric_dipole_moment_norm": 1.07714345841, 
			 "electric_quadrupole_moment_norm": 22.1219620016, 
			 "total_energy": -647.075583752, 
			 "HOMO_LUMO_gap": 0.18431, 
			 "cosmo_polarized_energy": -17.73, 
			 "cosmo_cavitation_energy": 27.99, 
			 "cosmo_dispersion_energy": -20.71, 
			 "cosmo_repulsion_energy": 1.64, 
			 "cosmo_total_nonelectrostatic_energy": 8.92, 
			 "SMD_solvation_energy": 5.93 
		},
		"coords": [
			{
				"x": 3.7580546034,
				"y": 1.5467960673,
				"z": -2.4979918323,
				"element": "N" 
			},
			{
				"x": 2.8729313228,
				"y": 1.0934777436,
				"z": -1.521085651,
				"element": "C" 
			},
			{
				"x": 2.338554923,
				"y": -0.2052993549,
				"z": -1.5796546146,
				"element": "C" 
			},
			{
				"x": 1.4179928506,
				"y": -0.642037678,
				"z": -0.6340753498,
				"element": "C" 
			},
			{
				"x": 1.000030381,
				"y": 0.2140826459,
				"z": 0.3900652696,
				"element": "C" 
			},
			{
				"x": 1.5192609625,
				"y": 1.5112039512,
				"z": 0.455894183,
				"element": "C" 
			},
			{
				"x": 2.4477038434,
				"y": 1.942260024,
				"z": -0.4844924781,
				"element": "C" 
			},
			{
				"x": 0.0501169054,
				"y": -0.2339561613,
				"z": 1.3643053719,
				"element": "N" 
			},
			{
				"x": -1.100104068,
				"y": -0.9798089459,
				"z": 1.0458477577,
				"element": "C" 
			},
			{
				"x": -1.4184883546,
				"y": -1.3370588106,
				"z": -0.0672538353,
				"element": "O" 
			},
			{
				"x": -1.8580505157,
				"y": -1.2605690887,
				"z": 2.3387527339,
				"element": "C" 
			},
			{
				"x": -1.0268132704,
				"y": -0.609674141,
				"z": 3.4483020664,
				"element": "C" 
			},
			{
				"x": 0.1671679273,
				"y": 0.0237581974,
				"z": 2.7425845083,
				"element": "C" 
			},
			{
				"x": 1.0641853646,
				"y": 0.6482880171,
				"z": 3.2658510002,
				"element": "O" 
			},
			{
				"x": 4.2734524301,
				"y": 0.8260494427,
				"z": -2.9837502294,
				"element": "H" 
			},
			{
				"x": 4.3507861687,
				"y": 2.3171068362,
				"z": -2.2216809207,
				"element": "H" 
			},
			{
				"x": 2.6474129959,
				"y": -0.8773423981,
				"z": -2.3761949023,
				"element": "H" 
			},
			{
				"x": 1.0126361735,
				"y": -1.6439293413,
				"z": -0.700421648,
				"element": "H" 
			},
			{
				"x": 1.2129863785,
				"y": 2.1763650732,
				"z": 1.2535467307,
				"element": "H" 
			},
			{
				"x": 2.8451907808,
				"y": 2.9518997406,
				"z": -0.4203543581,
				"element": "H" 
			},
			{
				"x": -1.9683717024,
				"y": -2.3430636406,
				"z": 2.4498583127,
				"element": "H" 
			},
			{
				"x": -2.8660069415,
				"y": -0.8463558565,
				"z": 2.2448932371,
				"element": "H" 
			},
			{
				"x": -0.652183245,
				"y": -1.3202551226,
				"z": 4.1906487069,
				"element": "H" 
			},
			{
				"x": -1.5612459139,
				"y": 0.1710628004,
				"z": 3.9971059415,
				"element": "H" 
			}
		],
		 "valence_orbital": [ 
			{
				"type": "occ",
				"energy": -0.28076,
				"method": "rhf"
			},
			{
				"type": "occ",
				"energy": -0.27737,
				"method": "rhf"
			},
			{
				"type": "occ",
				"energy": -0.25447,
				"method": "rhf"
			},
			{
				"type": "occ",
				"energy": -0.24733,
				"method": "rhf"
			},
			{
				"type": "occ",
				"energy": -0.20004,
				"method": "rhf"
			},
			{
				"type": "unocc",
				"energy": -0.01573,
				"method": "rhf"
			},
			{
				"type": "unocc",
				"energy": -0.00232,
				"method": "rhf"
			},
			{
				"type": "unocc",
				"energy": 0.00231,
				"method": "rhf"
			},
			{
				"type": "unocc",
				"energy": 0.04403,
				"method": "rhf"
			},
			{
				"type": "unocc",
				"energy": 0.07912,
				"method": "rhf"
			}
		],
		"cosmo_sigma_profile": { 
			"-0.025": 0.0,
			"-0.024": 0.0,
			"-0.023": 0.0,
			"-0.022": 0.0,
			"-0.021": 0.0,
			"-0.02": 0.0,
			"-0.019": 0.0,
			"-0.018": 0.0,
			"-0.017": 0.0,
			"-0.016": 0.0,
			"-0.015": 0.0,
			"-0.014": 0.0,
			"-0.013": 0.568483228765,
			"-0.012": 3.08341469641,
			"-0.011": 2.52530050589,
			"-0.01": 2.93586147622,
			"-0.009": 3.43399058023,
			"-0.008": 3.85812496523,
			"-0.007": 15.6691686964,
			"-0.006": 20.4096801693,
			"-0.005": 15.1998443635,
			"-0.004": 18.2172925139,
			"-0.003": 14.0549126481,
			"-0.002": 10.7592186193,
			"-0.001": 8.4609936961,
			"0.0": 8.3247353061,
			"0.001": 7.55024016056,
			"0.002": 6.99275211784,
			"0.003": 8.34856012546,
			"0.004": 8.55869959889,
			"0.005": 13.5671550906,
			"0.006": 10.4388443311,
			"0.007": 5.12752820857,
			"0.008": 4.58322668016,
			"0.009": 4.19011005603,
			"0.01": 5.05555339832,
			"0.011": 7.9172980617,
			"0.012": 9.4509298382,
			"0.013": 2.6916633688,
			"0.014": 0.509391543736,
			"0.015": 0.0194345495907,
			"0.016": 0.0,
			"0.017": 0.0,
			"0.018": 0.0,
			"0.019": 0.0,
			"0.02": 0.0,
			"0.021": 0.0,
			"0.022": 0.0,
			"0.023": 0.0,
			"0.024": 0.0,
			"0.025": 0.0
		}
	}
}
