{
	 "smiles": "[O-][N+](=N/C1=CC=C(C=C1)N=NC1=CC=CC=C1)C1=CC=C(C=C1)N=NC1=CC=C(C=C1)N=NC1=CC=CC=C1", 
	 "Tm": 526.15, 
	 "num_atms": 61, 
	 "gaussian": { 
		 "optdone": 1, 
		 "sigma_profile": "yes", 
		 "theory": "DFT", 
		 "functional": "B3LYP", 
		 "basiset": "6-31G**", 
		 "properties": { 
			 "R2extent": 38241.6719, 
			 "electric_dipole_moment_norm": 4.91156899778, 
			 "electric_quadrupole_moment_norm": 26.7488712265, 
			 "total_energy": -1669.43479228, 
			 "HOMO_LUMO_gap": 0.10082, 
			 "cosmo_polarized_energy": -19.88, 
			 "cosmo_cavitation_energy": 69.53, 
			 "cosmo_dispersion_energy": -48.17, 
			 "cosmo_repulsion_energy": 3.55, 
			 "cosmo_total_nonelectrostatic_energy": 24.91, 
			 "SMD_solvation_energy": 6.52 
		},
		"coords": [
			{
				"x": -0.1109527052,
				"y": 1.8947135825,
				"z": 2.2633410833,
				"element": "O" 
			},
			{
				"x": 1.0669488892,
				"y": 1.4608397685,
				"z": 2.3673884047,
				"element": "N" 
			},
			{
				"x": 1.55113443,
				"y": 0.7101371291,
				"z": 3.2887777425,
				"element": "N" 
			},
			{
				"x": 0.7680902933,
				"y": 0.2707229198,
				"z": 4.3553343131,
				"element": "C" 
			},
			{
				"x": 1.4843324249,
				"y": -0.5590358059,
				"z": 5.2502433795,
				"element": "C" 
			},
			{
				"x": 0.8858171887,
				"y": -1.0781726004,
				"z": 6.383961752,
				"element": "C" 
			},
			{
				"x": -0.47456674,
				"y": -0.8309767343,
				"z": 6.6338451768,
				"element": "C" 
			},
			{
				"x": -1.1918738087,
				"y": 0.0082708063,
				"z": 5.7673105446,
				"element": "C" 
			},
			{
				"x": -0.5866693047,
				"y": 0.5623023796,
				"z": 4.6451455868,
				"element": "C" 
			},
			{
				"x": -0.9924539309,
				"y": -1.2855856523,
				"z": 7.8845746192,
				"element": "N" 
			},
			{
				"x": -2.1136064502,
				"y": -1.8161037678,
				"z": 8.0378615905,
				"element": "N" 
			},
			{
				"x": -2.9468796497,
				"y": -2.2495536393,
				"z": 6.9550832211,
				"element": "C" 
			},
			{
				"x": -4.3225946548,
				"y": -2.0244822434,
				"z": 7.1034882114,
				"element": "C" 
			},
			{
				"x": -5.2136197698,
				"y": -2.5039310152,
				"z": 6.146094984,
				"element": "C" 
			},
			{
				"x": -4.7447183113,
				"y": -3.2612202202,
				"z": 5.0693063595,
				"element": "C" 
			},
			{
				"x": -3.3784830204,
				"y": -3.5311486597,
				"z": 4.9518015419,
				"element": "C" 
			},
			{
				"x": -2.4753668543,
				"y": -3.0227514386,
				"z": 5.882996532,
				"element": "C" 
			},
			{
				"x": 2.0093314592,
				"y": 1.8434210143,
				"z": 1.31979824,
				"element": "C" 
			},
			{
				"x": 3.3459584836,
				"y": 1.4345581365,
				"z": 1.3629715267,
				"element": "C" 
			},
			{
				"x": 4.2073755257,
				"y": 1.8424155185,
				"z": 0.3531009056,
				"element": "C" 
			},
			{
				"x": 3.7301494136,
				"y": 2.6055020943,
				"z": -0.7244835686,
				"element": "C" 
			},
			{
				"x": 2.3899570892,
				"y": 3.0221908348,
				"z": -0.7435753786,
				"element": "C" 
			},
			{
				"x": 1.5312147992,
				"y": 2.646849659,
				"z": 0.283176505,
				"element": "C" 
			},
			{
				"x": 4.7054599843,
				"y": 3.0922082052,
				"z": -1.6499478638,
				"element": "N" 
			},
			{
				"x": 4.551822337,
				"y": 3.1059551622,
				"z": -2.889834733,
				"element": "N" 
			},
			{
				"x": 3.4933417124,
				"y": 2.43543565,
				"z": -3.5757309453,
				"element": "C" 
			},
			{
				"x": 2.9341967,
				"y": 3.1114934981,
				"z": -4.6696589507,
				"element": "C" 
			},
			{
				"x": 1.9695760777,
				"y": 2.4858901405,
				"z": -5.4496102886,
				"element": "C" 
			},
			{
				"x": 1.5979530903,
				"y": 1.1583934745,
				"z": -5.1894866551,
				"element": "C" 
			},
			{
				"x": 2.2031594781,
				"y": 0.4624141842,
				"z": -4.1258465872,
				"element": "C" 
			},
			{
				"x": 3.1357435128,
				"y": 1.0964904493,
				"z": -3.3208006599,
				"element": "C" 
			},
			{
				"x": 0.6236991176,
				"y": 0.6146714275,
				"z": -6.0594313039,
				"element": "N" 
			},
			{
				"x": 0.3275181276,
				"y": -0.5906490364,
				"z": -5.830976312,
				"element": "N" 
			},
			{
				"x": -0.6514461277,
				"y": -1.1389588398,
				"z": -6.6942781667,
				"element": "C" 
			},
			{
				"x": -1.2799018354,
				"y": -0.4395129219,
				"z": -7.7403384974,
				"element": "C" 
			},
			{
				"x": -2.2287331193,
				"y": -1.0850955694,
				"z": -8.5237166919,
				"element": "C" 
			},
			{
				"x": -2.5606680816,
				"y": -2.4240958509,
				"z": -8.2769133535,
				"element": "C" 
			},
			{
				"x": -1.9377333384,
				"y": -3.1196416503,
				"z": -7.2389929257,
				"element": "C" 
			},
			{
				"x": -0.9850995573,
				"y": -2.4784780273,
				"z": -6.4492486445,
				"element": "C" 
			},
			{
				"x": 2.5273678765,
				"y": -0.7612489412,
				"z": 5.0309002088,
				"element": "H" 
			},
			{
				"x": 1.4485418187,
				"y": -1.6838613692,
				"z": 7.0870820316,
				"element": "H" 
			},
			{
				"x": -2.2299406365,
				"y": 0.2388971993,
				"z": 5.9807552607,
				"element": "H" 
			},
			{
				"x": -1.1479313192,
				"y": 1.2109307,
				"z": 3.9920681953,
				"element": "H" 
			},
			{
				"x": -4.6698291052,
				"y": -1.4680076957,
				"z": 7.9684823147,
				"element": "H" 
			},
			{
				"x": -6.2760648108,
				"y": -2.3048764007,
				"z": 6.2511847084,
				"element": "H" 
			},
			{
				"x": -5.4415027386,
				"y": -3.6535113922,
				"z": 4.3346633066,
				"element": "H" 
			},
			{
				"x": -3.0132921157,
				"y": -4.1389492127,
				"z": 4.1290590167,
				"element": "H" 
			},
			{
				"x": -1.4158326559,
				"y": -3.2352794095,
				"z": 5.7925071133,
				"element": "H" 
			},
			{
				"x": 3.6925848705,
				"y": 0.8264647001,
				"z": 2.1876409807,
				"element": "H" 
			},
			{
				"x": 5.2581576197,
				"y": 1.5729235227,
				"z": 0.3801955296,
				"element": "H" 
			},
			{
				"x": 2.0270632663,
				"y": 3.6473738146,
				"z": -1.5515306184,
				"element": "H" 
			},
			{
				"x": 0.4950710839,
				"y": 2.958909644,
				"z": 0.297317953,
				"element": "H" 
			},
			{
				"x": 3.2612505994,
				"y": 4.1239978614,
				"z": -4.8830182376,
				"element": "H" 
			},
			{
				"x": 1.5007324736,
				"y": 2.9968890066,
				"z": -6.284192956,
				"element": "H" 
			},
			{
				"x": 1.9215149218,
				"y": -0.5696555142,
				"z": -3.9521668639,
				"element": "H" 
			},
			{
				"x": 3.6057037721,
				"y": 0.559121791,
				"z": -2.5043591933,
				"element": "H" 
			},
			{
				"x": -1.0085044088,
				"y": 0.5952762527,
				"z": -7.914321885,
				"element": "H" 
			},
			{
				"x": -2.7161165873,
				"y": -0.5481416706,
				"z": -9.3325649995,
				"element": "H" 
			},
			{
				"x": -3.3036435262,
				"y": -2.9202756957,
				"z": -8.8946698405,
				"element": "H" 
			},
			{
				"x": -2.1934259936,
				"y": -4.157220898,
				"z": -7.046219621,
				"element": "H" 
			},
			{
				"x": -0.4830172798,
				"y": -2.9913386545,
				"z": -5.6350430981,
				"element": "H" 
			}
		],
		 "valence_orbital": [ 
			{
				"type": "occ",
				"energy": -0.24652,
				"method": "rhf"
			},
			{
				"type": "occ",
				"energy": -0.24042,
				"method": "rhf"
			},
			{
				"type": "occ",
				"energy": -0.23443,
				"method": "rhf"
			},
			{
				"type": "occ",
				"energy": -0.22068,
				"method": "rhf"
			},
			{
				"type": "occ",
				"energy": -0.20758,
				"method": "rhf"
			},
			{
				"type": "unocc",
				"energy": -0.10676,
				"method": "rhf"
			},
			{
				"type": "unocc",
				"energy": -0.09154,
				"method": "rhf"
			},
			{
				"type": "unocc",
				"energy": -0.07143,
				"method": "rhf"
			},
			{
				"type": "unocc",
				"energy": -0.05708,
				"method": "rhf"
			},
			{
				"type": "unocc",
				"energy": -0.02816,
				"method": "rhf"
			}
		],
		"cosmo_sigma_profile": { 
			"-0.025": 0.0,
			"-0.024": 0.0,
			"-0.023": 0.0,
			"-0.022": 0.0,
			"-0.021": 0.0,
			"-0.02": 0.0,
			"-0.019": 0.0,
			"-0.018": 0.0,
			"-0.017": 0.0,
			"-0.016": 0.0,
			"-0.015": 0.0,
			"-0.014": 0.0,
			"-0.013": 0.0,
			"-0.012": 0.0,
			"-0.011": 0.0,
			"-0.01": 0.0,
			"-0.009": 0.0,
			"-0.008": 1.18545255962,
			"-0.007": 17.9776613236,
			"-0.006": 41.1328694546,
			"-0.005": 44.3068734895,
			"-0.004": 42.0356445648,
			"-0.003": 34.5795445629,
			"-0.002": 31.1289133498,
			"-0.001": 35.2238680008,
			"0.0": 39.7668258627,
			"0.001": 61.0716723539,
			"0.002": 69.9201427051,
			"0.003": 47.3293972971,
			"0.004": 33.9784299157,
			"0.005": 12.9276459565,
			"0.006": 9.35347931843,
			"0.007": 7.14915946786,
			"0.008": 7.74123777549,
			"0.009": 6.11779666128,
			"0.01": 5.86947746749,
			"0.011": 5.09955130783,
			"0.012": 4.50124315083,
			"0.013": 2.67236422119,
			"0.014": 0.472578228909,
			"0.015": 0.0,
			"0.016": 0.0,
			"0.017": 0.0,
			"0.018": 0.0,
			"0.019": 0.0,
			"0.02": 0.0,
			"0.021": 0.0,
			"0.022": 0.0,
			"0.023": 0.0,
			"0.024": 0.0,
			"0.025": 0.0
		}
	}
}
