{
	 "smiles": "NC(=O)C1=C(NC(=O)CCCl)SC=C1", 
	 "Tm": 445.15, 
	 "num_atms": 23, 
	 "gaussian": { 
		 "optdone": 1, 
		 "sigma_profile": "yes", 
		 "theory": "DFT", 
		 "functional": "B3LYP", 
		 "basiset": "6-31G**", 
		 "properties": { 
			 "R2extent": 4236.3345, 
			 "electric_dipole_moment_norm": 3.2700214617, 
			 "electric_quadrupole_moment_norm": 16.8675846949, 
			 "total_energy": -1428.62574975, 
			 "HOMO_LUMO_gap": 0.19848, 
			 "cosmo_polarized_energy": -19.17, 
			 "cosmo_cavitation_energy": 31.13, 
			 "cosmo_dispersion_energy": -22.34, 
			 "cosmo_repulsion_energy": 1.77, 
			 "cosmo_total_nonelectrostatic_energy": 10.56, 
			 "SMD_solvation_energy": 6.52 
		},
		"coords": [
			{
				"x": 2.4441859849,
				"y": 1.229909111,
				"z": -1.3742322706,
				"element": "N" 
			},
			{
				"x": 3.0561688837,
				"y": 0.1136739954,
				"z": -0.8764490664,
				"element": "C" 
			},
			{
				"x": 3.9318605456,
				"y": -0.4842111225,
				"z": -1.490385387,
				"element": "O" 
			},
			{
				"x": 2.5938257642,
				"y": -0.3834617718,
				"z": 0.4634822548,
				"element": "C" 
			},
			{
				"x": 1.6047202542,
				"y": 0.1213952932,
				"z": 1.2835690559,
				"element": "C" 
			},
			{
				"x": 0.7587548933,
				"y": 1.2323514573,
				"z": 1.0733623384,
				"element": "N" 
			},
			{
				"x": -0.5115282876,
				"y": 1.2054223608,
				"z": 0.4873526589,
				"element": "C" 
			},
			{
				"x": -1.2426457275,
				"y": 2.1763026756,
				"z": 0.5809651915,
				"element": "O" 
			},
			{
				"x": -0.8784703562,
				"y": -0.049120742,
				"z": -0.2886193047,
				"element": "C" 
			},
			{
				"x": -2.2887126622,
				"y": 0.0694236261,
				"z": -0.8515745709,
				"element": "C" 
			},
			{
				"x": -2.7304474551,
				"y": -1.4259629756,
				"z": -1.7784952986,
				"element": "Cl" 
			},
			{
				"x": 1.4654877659,
				"y": -0.8163229231,
				"z": 2.760516312,
				"element": "S" 
			},
			{
				"x": 2.7449276426,
				"y": -1.8732266051,
				"z": 2.2582558585,
				"element": "C" 
			},
			{
				"x": 3.2338910987,
				"y": -1.5304735792,
				"z": 1.0334463256,
				"element": "C" 
			},
			{
				"x": 1.8687902905,
				"y": 1.8126200746,
				"z": -0.7850685246,
				"element": "H" 
			},
			{
				"x": 2.8382230842,
				"y": 1.6165052283,
				"z": -2.2191719752,
				"element": "H" 
			},
			{
				"x": 0.8772148775,
				"y": 2.0397844502,
				"z": 1.6784130748,
				"element": "H" 
			},
			{
				"x": -0.7941887761,
				"y": -0.9262972838,
				"z": 0.3620582597,
				"element": "H" 
			},
			{
				"x": -0.1510278543,
				"y": -0.1952696686,
				"z": -1.0947650741,
				"element": "H" 
			},
			{
				"x": -3.0296574096,
				"y": 0.1852245718,
				"z": -0.061560136,
				"element": "H" 
			},
			{
				"x": -2.3780651646,
				"y": 0.9097462012,
				"z": -1.5385013462,
				"element": "H" 
			},
			{
				"x": 3.0606972742,
				"y": -2.6818752427,
				"z": 2.9029258964,
				"element": "H" 
			},
			{
				"x": 4.0328953336,
				"y": -2.047037131,
				"z": 0.5178757276,
				"element": "H" 
			}
		],
		 "valence_orbital": [ 
			{
				"type": "occ",
				"energy": -0.28474,
				"method": "rhf"
			},
			{
				"type": "occ",
				"energy": -0.28019,
				"method": "rhf"
			},
			{
				"type": "occ",
				"energy": -0.2722,
				"method": "rhf"
			},
			{
				"type": "occ",
				"energy": -0.26294,
				"method": "rhf"
			},
			{
				"type": "occ",
				"energy": -0.25548,
				"method": "rhf"
			},
			{
				"type": "unocc",
				"energy": -0.057,
				"method": "rhf"
			},
			{
				"type": "unocc",
				"energy": -0.01403,
				"method": "rhf"
			},
			{
				"type": "unocc",
				"energy": 0.00164,
				"method": "rhf"
			},
			{
				"type": "unocc",
				"energy": 0.00547,
				"method": "rhf"
			},
			{
				"type": "unocc",
				"energy": 0.02361,
				"method": "rhf"
			}
		],
		"cosmo_sigma_profile": { 
			"-0.025": 0.0,
			"-0.024": 0.0,
			"-0.023": 0.0,
			"-0.022": 0.0,
			"-0.021": 0.0,
			"-0.02": 0.0,
			"-0.019": 0.0,
			"-0.018": 0.0,
			"-0.017": 0.0,
			"-0.016": 0.0833622324209,
			"-0.015": 0.979299943124,
			"-0.014": 2.29536799143,
			"-0.013": 2.05804763916,
			"-0.012": 2.15946466002,
			"-0.011": 2.86129906031,
			"-0.01": 3.43756059934,
			"-0.009": 6.18135827883,
			"-0.008": 6.18877157435,
			"-0.007": 8.8298770614,
			"-0.006": 14.267029374,
			"-0.005": 15.8855109623,
			"-0.004": 14.3005142256,
			"-0.003": 13.7857464034,
			"-0.002": 13.4500062554,
			"-0.001": 11.8272828191,
			"0.0": 14.5571981239,
			"0.001": 18.7234762859,
			"0.002": 17.7954431334,
			"0.003": 14.8978425496,
			"0.004": 11.1326371374,
			"0.005": 9.7263180577,
			"0.006": 12.0629480879,
			"0.007": 5.10140325957,
			"0.008": 2.40754867923,
			"0.009": 3.34637783845,
			"0.01": 3.27959842276,
			"0.011": 3.98381959145,
			"0.012": 7.29555319443,
			"0.013": 5.86641761551,
			"0.014": 3.02113811454,
			"0.015": 0.128739374027,
			"0.016": 0.0,
			"0.017": 0.0,
			"0.018": 0.0,
			"0.019": 0.0,
			"0.02": 0.0,
			"0.021": 0.0,
			"0.022": 0.0,
			"0.023": 0.0,
			"0.024": 0.0,
			"0.025": 0.0
		}
	}
}
