{
	 "smiles": "CC1=NC(=CS1)C1=CC=C(O)C=C1", 
	 "Tm": 484.15, 
	 "num_atms": 22, 
	 "gaussian": { 
		 "optdone": 1, 
		 "sigma_profile": "yes", 
		 "theory": "DFT", 
		 "functional": "B3LYP", 
		 "basiset": "6-31G**", 
		 "properties": { 
			 "R2extent": 3920.3521, 
			 "electric_dipole_moment_norm": 1.07435280518, 
			 "electric_quadrupole_moment_norm": 12.1134549997, 
			 "total_energy": -914.651918761, 
			 "HOMO_LUMO_gap": 0.16996, 
			 "cosmo_polarized_energy": -11.33, 
			 "cosmo_cavitation_energy": 27.88, 
			 "cosmo_dispersion_energy": -21.3, 
			 "cosmo_repulsion_energy": 1.63, 
			 "cosmo_total_nonelectrostatic_energy": 8.21, 
			 "SMD_solvation_energy": 3.82 
		},
		"coords": [
			{
				"x": -2.6338224191,
				"y": -0.0923005005,
				"z": 2.8292491688,
				"element": "C" 
			},
			{
				"x": -1.3148437759,
				"y": -0.4767472583,
				"z": 2.2308543856,
				"element": "C" 
			},
			{
				"x": -1.076151296,
				"y": -0.5312800388,
				"z": 0.9562779492,
				"element": "N" 
			},
			{
				"x": 0.2279221637,
				"y": -0.9151421707,
				"z": 0.6747211165,
				"element": "C" 
			},
			{
				"x": 0.9942955033,
				"y": -1.1572990714,
				"z": 1.7876864076,
				"element": "C" 
			},
			{
				"x": 0.0735429786,
				"y": -0.9022176305,
				"z": 3.2323336859,
				"element": "S" 
			},
			{
				"x": 0.6501949344,
				"y": -1.0223826371,
				"z": -0.7337730597,
				"element": "C" 
			},
			{
				"x": 1.9548455681,
				"y": -1.4016544998,
				"z": -1.0980347799,
				"element": "C" 
			},
			{
				"x": 2.3363731847,
				"y": -1.498049389,
				"z": -2.4297935646,
				"element": "C" 
			},
			{
				"x": 1.411589073,
				"y": -1.2139961191,
				"z": -3.442335967,
				"element": "C" 
			},
			{
				"x": 1.8381406882,
				"y": -1.3239964227,
				"z": -4.7352366202,
				"element": "O" 
			},
			{
				"x": 0.1096793346,
				"y": -0.8350810454,
				"z": -3.1009268264,
				"element": "C" 
			},
			{
				"x": -0.2624026397,
				"y": -0.7416158053,
				"z": -1.7623763207,
				"element": "C" 
			},
			{
				"x": -3.0471155018,
				"y": -0.8992602455,
				"z": 3.4435807683,
				"element": "H" 
			},
			{
				"x": -3.3317791344,
				"y": 0.1247550144,
				"z": 2.0186331004,
				"element": "H" 
			},
			{
				"x": -2.5437910235,
				"y": 0.7956455197,
				"z": 3.4639616612,
				"element": "H" 
			},
			{
				"x": 2.0275267989,
				"y": -1.465565082,
				"z": 1.8455463892,
				"element": "H" 
			},
			{
				"x": 2.690120544,
				"y": -1.6266492807,
				"z": -0.3312443546,
				"element": "H" 
			},
			{
				"x": 3.3437497185,
				"y": -1.7909112853,
				"z": -2.7065013732,
				"element": "H" 
			},
			{
				"x": 1.1080959623,
				"y": -1.1022078943,
				"z": -5.3277544339,
				"element": "H" 
			},
			{
				"x": -0.614701232,
				"y": -0.6126570524,
				"z": -3.8822327016,
				"element": "H" 
			},
			{
				"x": -1.2713694297,
				"y": -0.4479871052,
				"z": -1.4964346309,
				"element": "H" 
			}
		],
		 "valence_orbital": [ 
			{
				"type": "occ",
				"energy": -0.28075,
				"method": "rhf"
			},
			{
				"type": "occ",
				"energy": -0.26879,
				"method": "rhf"
			},
			{
				"type": "occ",
				"energy": -0.25679,
				"method": "rhf"
			},
			{
				"type": "occ",
				"energy": -0.2496,
				"method": "rhf"
			},
			{
				"type": "occ",
				"energy": -0.19956,
				"method": "rhf"
			},
			{
				"type": "unocc",
				"energy": -0.0296,
				"method": "rhf"
			},
			{
				"type": "unocc",
				"energy": -0.00092,
				"method": "rhf"
			},
			{
				"type": "unocc",
				"energy": 0.00717,
				"method": "rhf"
			},
			{
				"type": "unocc",
				"energy": 0.0207,
				"method": "rhf"
			},
			{
				"type": "unocc",
				"energy": 0.07117,
				"method": "rhf"
			}
		],
		"cosmo_sigma_profile": { 
			"-0.025": 0.0,
			"-0.024": 0.0,
			"-0.023": 0.0,
			"-0.022": 0.0,
			"-0.021": 0.0,
			"-0.02": 0.0,
			"-0.019": 0.0,
			"-0.018": 0.285783558509,
			"-0.017": 1.19743764099,
			"-0.016": 1.36916988337,
			"-0.015": 0.626431717753,
			"-0.014": 0.999261128871,
			"-0.013": 1.40229952637,
			"-0.012": 0.953867177465,
			"-0.011": 0.819027471089,
			"-0.01": 1.00407613299,
			"-0.009": 2.60899797193,
			"-0.008": 3.8670989773,
			"-0.007": 4.12406848845,
			"-0.006": 8.85271407487,
			"-0.005": 13.2884989655,
			"-0.004": 16.1203126146,
			"-0.003": 14.1664622212,
			"-0.002": 13.8966934967,
			"-0.001": 15.4377232361,
			"0.0": 10.3100826079,
			"0.001": 13.9956285602,
			"0.002": 16.3815784256,
			"0.003": 22.6523787695,
			"0.004": 22.589229845,
			"0.005": 16.2194189728,
			"0.006": 6.74682455169,
			"0.007": 2.997451536,
			"0.008": 2.32982224015,
			"0.009": 3.45985473092,
			"0.01": 2.71733496108,
			"0.011": 3.17309932981,
			"0.012": 0.774347829506,
			"0.013": 0.0,
			"0.014": 0.0,
			"0.015": 0.0,
			"0.016": 0.0,
			"0.017": 0.0,
			"0.018": 0.0,
			"0.019": 0.0,
			"0.02": 0.0,
			"0.021": 0.0,
			"0.022": 0.0,
			"0.023": 0.0,
			"0.024": 0.0,
			"0.025": 0.0
		}
	}
}
