{
	 "smiles": "CSCCC(NC(=O)OC(C)(C)C)C(O)=O", 
	 "Tm": 321.65, 
	 "num_atms": 35, 
	 "gaussian": { 
		 "optdone": 1, 
		 "sigma_profile": "yes", 
		 "theory": "DFT", 
		 "functional": "B3LYP", 
		 "basiset": "6-31G**", 
		 "properties": { 
			 "R2extent": 6143.7835, 
			 "electric_dipole_moment_norm": 2.70378072151, 
			 "electric_quadrupole_moment_norm": 13.4449195539, 
			 "total_energy": -1146.40252262, 
			 "HOMO_LUMO_gap": 0.21534, 
			 "cosmo_polarized_energy": -18.38, 
			 "cosmo_cavitation_energy": 39.04, 
			 "cosmo_dispersion_energy": -26.53, 
			 "cosmo_repulsion_energy": 2.08, 
			 "cosmo_total_nonelectrostatic_energy": 14.6, 
			 "SMD_solvation_energy": 8.26 
		},
		"coords": [
			{
				"x": 3.2294416387,
				"y": -2.7625107194,
				"z": 0.5110295868,
				"element": "C" 
			},
			{
				"x": 2.1506214585,
				"y": -3.7893868638,
				"z": -0.5474693762,
				"element": "S" 
			},
			{
				"x": 0.8162797211,
				"y": -2.5950845736,
				"z": -0.94228991,
				"element": "C" 
			},
			{
				"x": 1.2246089641,
				"y": -1.5096764159,
				"z": -1.9412009939,
				"element": "C" 
			},
			{
				"x": 0.1175036895,
				"y": -0.4562973414,
				"z": -2.2116292987,
				"element": "C" 
			},
			{
				"x": -0.2081814093,
				"y": 0.3214369135,
				"z": -1.0353067685,
				"element": "N" 
			},
			{
				"x": 0.5761965944,
				"y": 1.3832867361,
				"z": -0.6738839625,
				"element": "C" 
			},
			{
				"x": 1.6650841996,
				"y": 1.6208988594,
				"z": -1.1792926343,
				"element": "O" 
			},
			{
				"x": -0.0296203854,
				"y": 2.0817157964,
				"z": 0.3101837457,
				"element": "O" 
			},
			{
				"x": 0.6151996379,
				"y": 3.2610792959,
				"z": 0.9129161746,
				"element": "C" 
			},
			{
				"x": 0.8144766481,
				"y": 4.3479618881,
				"z": -0.1486313611,
				"element": "C" 
			},
			{
				"x": 1.9320432001,
				"y": 2.8530222423,
				"z": 1.5816718543,
				"element": "C" 
			},
			{
				"x": -0.4128199774,
				"y": 3.7020669843,
				"z": 1.9576950255,
				"element": "C" 
			},
			{
				"x": -1.1821840345,
				"y": -1.0887478343,
				"z": -2.7204113855,
				"element": "C" 
			},
			{
				"x": -1.0744238334,
				"y": -1.8270061827,
				"z": -3.8472164546,
				"element": "O" 
			},
			{
				"x": -2.2491335263,
				"y": -0.9616320431,
				"z": -2.1694344174,
				"element": "O" 
			},
			{
				"x": 4.0488108663,
				"y": -3.40737167,
				"z": 0.8362025207,
				"element": "H" 
			},
			{
				"x": 2.6890502912,
				"y": -2.4081874364,
				"z": 1.3929205392,
				"element": "H" 
			},
			{
				"x": 3.6494394557,
				"y": -1.9129357676,
				"z": -0.0323957733,
				"element": "H" 
			},
			{
				"x": 0.4515986805,
				"y": -2.1459638552,
				"z": -0.0134108588,
				"element": "H" 
			},
			{
				"x": 0.0055820521,
				"y": -3.2115798154,
				"z": -1.3451835985,
				"element": "H" 
			},
			{
				"x": 2.0888707762,
				"y": -0.9480415402,
				"z": -1.5774983614,
				"element": "H" 
			},
			{
				"x": 1.5401393559,
				"y": -1.9771052413,
				"z": -2.8832850995,
				"element": "H" 
			},
			{
				"x": 0.4975687104,
				"y": 0.2162196382,
				"z": -2.9953634723,
				"element": "H" 
			},
			{
				"x": -1.1726901672,
				"y": 0.289353912,
				"z": -0.7282454129,
				"element": "H" 
			},
			{
				"x": 1.1866121343,
				"y": 5.2613206729,
				"z": 0.3266819199,
				"element": "H" 
			},
			{
				"x": -0.1376253199,
				"y": 4.5826867563,
				"z": -0.6350027655,
				"element": "H" 
			},
			{
				"x": 1.5304924288,
				"y": 4.0285475688,
				"z": -0.9062944416,
				"element": "H" 
			},
			{
				"x": 2.6592226413,
				"y": 2.5179955913,
				"z": 0.8415144285,
				"element": "H" 
			},
			{
				"x": 2.348524376,
				"y": 3.7080094639,
				"z": 2.1239561962,
				"element": "H" 
			},
			{
				"x": 1.7585379602,
				"y": 2.0469676394,
				"z": 2.3017272772,
				"element": "H" 
			},
			{
				"x": -1.3664408095,
				"y": 3.9474402738,
				"z": 1.4815134073,
				"element": "H" 
			},
			{
				"x": -0.0519374064,
				"y": 4.5879800303,
				"z": 2.4884962802,
				"element": "H" 
			},
			{
				"x": -0.5871196012,
				"y": 2.9068210694,
				"z": 2.6882002877,
				"element": "H" 
			},
			{
				"x": -0.1610290105,
				"y": -1.8293840319,
				"z": -4.1687628972,
				"element": "H" 
			}
		],
		 "valence_orbital": [ 
			{
				"type": "occ",
				"energy": -0.29463,
				"method": "rhf"
			},
			{
				"type": "occ",
				"energy": -0.29199,
				"method": "rhf"
			},
			{
				"type": "occ",
				"energy": -0.27136,
				"method": "rhf"
			},
			{
				"type": "occ",
				"energy": -0.26648,
				"method": "rhf"
			},
			{
				"type": "occ",
				"energy": -0.22379,
				"method": "rhf"
			},
			{
				"type": "unocc",
				"energy": -0.00845,
				"method": "rhf"
			},
			{
				"type": "unocc",
				"energy": 0.02818,
				"method": "rhf"
			},
			{
				"type": "unocc",
				"energy": 0.04328,
				"method": "rhf"
			},
			{
				"type": "unocc",
				"energy": 0.04771,
				"method": "rhf"
			},
			{
				"type": "unocc",
				"energy": 0.07496,
				"method": "rhf"
			}
		],
		"cosmo_sigma_profile": { 
			"-0.025": 0.0,
			"-0.024": 0.0,
			"-0.023": 0.0,
			"-0.022": 0.0,
			"-0.021": 0.0,
			"-0.02": 0.0246029976546,
			"-0.019": 1.04333199627,
			"-0.018": 1.29338519808,
			"-0.017": 1.28354514195,
			"-0.016": 0.834981591264,
			"-0.015": 1.20835187335,
			"-0.014": 1.04475174343,
			"-0.013": 0.814255961207,
			"-0.012": 1.55354124124,
			"-0.011": 1.14499204447,
			"-0.01": 1.59882692814,
			"-0.009": 2.27437140532,
			"-0.008": 3.15753481724,
			"-0.007": 2.55687720282,
			"-0.006": 8.01999117618,
			"-0.005": 13.7930258112,
			"-0.004": 25.5127186064,
			"-0.003": 30.5674415689,
			"-0.002": 30.7818317226,
			"-0.001": 29.2165314283,
			"0.0": 34.4576420676,
			"0.001": 22.6228799374,
			"0.002": 10.6346238799,
			"0.003": 9.31936292925,
			"0.004": 8.09532748786,
			"0.005": 8.7688610662,
			"0.006": 9.62188840843,
			"0.007": 8.03496360983,
			"0.008": 7.84898581531,
			"0.009": 8.11356445726,
			"0.01": 8.31948471766,
			"0.011": 6.38372478283,
			"0.012": 3.86640155887,
			"0.013": 2.30603680895,
			"0.014": 0.209477874542,
			"0.015": 0.0,
			"0.016": 0.0,
			"0.017": 0.0,
			"0.018": 0.0,
			"0.019": 0.0,
			"0.02": 0.0,
			"0.021": 0.0,
			"0.022": 0.0,
			"0.023": 0.0,
			"0.024": 0.0,
			"0.025": 0.0
		}
	}
}
