{
	 "smiles": "NC1=NC(=CS1)C(F)(F)F", 
	 "Tm": 340.15, 
	 "num_atms": 13, 
	 "gaussian": { 
		 "optdone": 1, 
		 "sigma_profile": "yes", 
		 "theory": "DFT", 
		 "functional": "B3LYP", 
		 "basiset": "6-31G**", 
		 "properties": { 
			 "R2extent": 2260.0849, 
			 "electric_dipole_moment_norm": 4.03507284321, 
			 "electric_quadrupole_moment_norm": 9.95658207519, 
			 "total_energy": -961.439943733, 
			 "HOMO_LUMO_gap": 0.20548, 
			 "cosmo_polarized_energy": -10.39, 
			 "cosmo_cavitation_energy": 20.87, 
			 "cosmo_dispersion_energy": -15.71, 
			 "cosmo_repulsion_energy": 1.19, 
			 "cosmo_total_nonelectrostatic_energy": 6.35, 
			 "SMD_solvation_energy": 3.31 
		},
		"coords": [
			{
				"x": 2.5856647045,
				"y": -1.6423372947,
				"z": -1.398752732,
				"element": "N" 
			},
			{
				"x": 1.2215017998,
				"y": -1.5370039723,
				"z": -1.2955739132,
				"element": "C" 
			},
			{
				"x": 0.5971851748,
				"y": -0.4389543986,
				"z": -0.9801535053,
				"element": "N" 
			},
			{
				"x": -0.7643928913,
				"y": -0.6345980662,
				"z": -1.0360502835,
				"element": "C" 
			},
			{
				"x": -1.2054022266,
				"y": -1.8733145169,
				"z": -1.3819789383,
				"element": "C" 
			},
			{
				"x": 0.1645227101,
				"y": -2.90688057,
				"z": -1.6912495601,
				"element": "S" 
			},
			{
				"x": -1.6654385027,
				"y": 0.5158869827,
				"z": -0.6993864416,
				"element": "C" 
			},
			{
				"x": -1.4572247619,
				"y": 0.9604309054,
				"z": 0.5568822718,
				"element": "F" 
			},
			{
				"x": -1.4701330367,
				"y": 1.5610277928,
				"z": -1.5281374016,
				"element": "F" 
			},
			{
				"x": -2.9645551612,
				"y": 0.1534409276,
				"z": -0.7953007517,
				"element": "F" 
			},
			{
				"x": 3.0803238036,
				"y": -0.8615575821,
				"z": -0.9877844135,
				"element": "H" 
			},
			{
				"x": 3.0003417547,
				"y": -2.5441246206,
				"z": -1.215012722,
				"element": "H" 
			},
			{
				"x": -2.2193933671,
				"y": -2.2318155872,
				"z": -1.466701609,
				"element": "H" 
			}
		],
		 "valence_orbital": [ 
			{
				"type": "occ",
				"energy": -0.36312,
				"method": "rhf"
			},
			{
				"type": "occ",
				"energy": -0.33726,
				"method": "rhf"
			},
			{
				"type": "occ",
				"energy": -0.29133,
				"method": "rhf"
			},
			{
				"type": "occ",
				"energy": -0.29046,
				"method": "rhf"
			},
			{
				"type": "occ",
				"energy": -0.22892,
				"method": "rhf"
			},
			{
				"type": "unocc",
				"energy": -0.02344,
				"method": "rhf"
			},
			{
				"type": "unocc",
				"energy": -0.00326,
				"method": "rhf"
			},
			{
				"type": "unocc",
				"energy": 0.0355,
				"method": "rhf"
			},
			{
				"type": "unocc",
				"energy": 0.05974,
				"method": "rhf"
			},
			{
				"type": "unocc",
				"energy": 0.0963,
				"method": "rhf"
			}
		],
		"cosmo_sigma_profile": { 
			"-0.025": 0.0,
			"-0.024": 0.0,
			"-0.023": 0.0,
			"-0.022": 0.0,
			"-0.021": 0.0,
			"-0.02": 0.0,
			"-0.019": 0.0,
			"-0.018": 0.0,
			"-0.017": 0.0,
			"-0.016": 0.0181574562594,
			"-0.015": 1.20938043884,
			"-0.014": 2.71041030533,
			"-0.013": 2.63934678657,
			"-0.012": 2.81539885691,
			"-0.011": 3.17809603387,
			"-0.01": 2.2394317847,
			"-0.009": 3.33344677222,
			"-0.008": 3.62848768601,
			"-0.007": 2.84405222236,
			"-0.006": 3.996630893,
			"-0.005": 2.64637091372,
			"-0.004": 4.10047244975,
			"-0.003": 4.85048428705,
			"-0.002": 4.78332075132,
			"-0.001": 9.19369381099,
			"0.0": 12.6370817307,
			"0.001": 17.0581478233,
			"0.002": 25.5382240323,
			"0.003": 35.3495072665,
			"0.004": 6.69585553909,
			"0.005": 4.51554115804,
			"0.006": 3.04720026405,
			"0.007": 2.21838425138,
			"0.008": 1.89409069273,
			"0.009": 1.73667730256,
			"0.01": 1.70237106619,
			"0.011": 1.35659158042,
			"0.012": 0.964070720876,
			"0.013": 0.584086688565,
			"0.014": 0.271092227413,
			"0.015": 0.0,
			"0.016": 0.0,
			"0.017": 0.0,
			"0.018": 0.0,
			"0.019": 0.0,
			"0.02": 0.0,
			"0.021": 0.0,
			"0.022": 0.0,
			"0.023": 0.0,
			"0.024": 0.0,
			"0.025": 0.0
		}
	}
}
