{
	 "smiles": "CC(=O)C1=CC=C(C=C1)N1CCC(O)CC1", 
	 "Tm": 401.15, 
	 "num_atms": 33, 
	 "gaussian": { 
		 "optdone": 1, 
		 "sigma_profile": "yes", 
		 "theory": "DFT", 
		 "functional": "B3LYP", 
		 "basiset": "6-31G**", 
		 "properties": { 
			 "R2extent": 6799.2387, 
			 "electric_dipole_moment_norm": 6.43013760506, 
			 "electric_quadrupole_moment_norm": 21.3857917728, 
			 "total_energy": -710.824969527, 
			 "HOMO_LUMO_gap": 0.16299, 
			 "cosmo_polarized_energy": -15.92, 
			 "cosmo_cavitation_energy": 34.34, 
			 "cosmo_dispersion_energy": -25.22, 
			 "cosmo_repulsion_energy": 1.95, 
			 "cosmo_total_nonelectrostatic_energy": 11.07, 
			 "SMD_solvation_energy": 5.12 
		},
		"coords": [
			{
				"x": 0.1167674788,
				"y": 4.5178433662,
				"z": 4.4826315102,
				"element": "C" 
			},
			{
				"x": 1.1180556147,
				"y": 3.370609876,
				"z": 4.4395504179,
				"element": "C" 
			},
			{
				"x": 1.9166082111,
				"y": 3.2197693627,
				"z": 5.3572673828,
				"element": "O" 
			},
			{
				"x": 1.1025986048,
				"y": 2.4509041361,
				"z": 3.2733733083,
				"element": "C" 
			},
			{
				"x": 0.2155033509,
				"y": 2.5784375325,
				"z": 2.1925543159,
				"element": "C" 
			},
			{
				"x": 0.2400187455,
				"y": 1.6937970758,
				"z": 1.1230410682,
				"element": "C" 
			},
			{
				"x": 1.1643614068,
				"y": 0.620292872,
				"z": 1.0863317944,
				"element": "C" 
			},
			{
				"x": 2.0567571627,
				"y": 0.4914235313,
				"z": 2.1825475184,
				"element": "C" 
			},
			{
				"x": 2.0206313675,
				"y": 1.386340411,
				"z": 3.2371379001,
				"element": "C" 
			},
			{
				"x": 1.1935802104,
				"y": -0.2654221283,
				"z": 0.0286607371,
				"element": "N" 
			},
			{
				"x": 2.3300903479,
				"y": -1.1679304765,
				"z": -0.1853191556,
				"element": "C" 
			},
			{
				"x": 2.5115285759,
				"y": -1.4507521023,
				"z": -1.6788204173,
				"element": "C" 
			},
			{
				"x": 1.2865642048,
				"y": -2.1338857834,
				"z": -2.3041954283,
				"element": "C" 
			},
			{
				"x": 1.5087359356,
				"y": -3.5419926595,
				"z": -2.2354888748,
				"element": "O" 
			},
			{
				"x": 0.0036834473,
				"y": -1.7340242276,
				"z": -1.5460605878,
				"element": "C" 
			},
			{
				"x": 0.0902600489,
				"y": -0.3340553509,
				"z": -0.9298754943,
				"element": "C" 
			},
			{
				"x": 0.2436457766,
				"y": 5.1858124996,
				"z": 3.6233099197,
				"element": "H" 
			},
			{
				"x": -0.9133836516,
				"y": 4.1454778333,
				"z": 4.4570962835,
				"element": "H" 
			},
			{
				"x": 0.2740956615,
				"y": 5.0810727192,
				"z": 5.4030217793,
				"element": "H" 
			},
			{
				"x": -0.5051259032,
				"y": 3.3905030492,
				"z": 2.1709740386,
				"element": "H" 
			},
			{
				"x": -0.4405031978,
				"y": 1.8557274187,
				"z": 0.2956694469,
				"element": "H" 
			},
			{
				"x": 2.7574509754,
				"y": -0.3342857209,
				"z": 2.2189011831,
				"element": "H" 
			},
			{
				"x": 2.7007004171,
				"y": 1.2748990621,
				"z": 4.0755989106,
				"element": "H" 
			},
			{
				"x": 3.2340603251,
				"y": -0.6871706332,
				"z": 0.1977850641,
				"element": "H" 
			},
			{
				"x": 2.2069242668,
				"y": -2.1139534456,
				"z": 0.3636800712,
				"element": "H" 
			},
			{
				"x": 3.3831690541,
				"y": -2.0930126248,
				"z": -1.8353158932,
				"element": "H" 
			},
			{
				"x": 2.704964003,
				"y": -0.5032526763,
				"z": -2.19399865,
				"element": "H" 
			},
			{
				"x": 1.2074312232,
				"y": -1.8197304347,
				"z": -3.356974557,
				"element": "H" 
			},
			{
				"x": 0.7254148201,
				"y": -3.9876559478,
				"z": -2.5840826353,
				"element": "H" 
			},
			{
				"x": -0.1410304348,
				"y": -2.4613284156,
				"z": -0.7386250978,
				"element": "H" 
			},
			{
				"x": -0.8747106285,
				"y": -1.7907341911,
				"z": -2.1992720568,
				"element": "H" 
			},
			{
				"x": 0.1909809399,
				"y": 0.4260423158,
				"z": -1.7231179441,
				"element": "H" 
			},
			{
				"x": -0.8455283603,
				"y": -0.1195662428,
				"z": -0.4048858582,
				"element": "H" 
			}
		],
		 "valence_orbital": [ 
			{
				"type": "occ",
				"energy": -0.28171,
				"method": "rhf"
			},
			{
				"type": "occ",
				"energy": -0.27501,
				"method": "rhf"
			},
			{
				"type": "occ",
				"energy": -0.24895,
				"method": "rhf"
			},
			{
				"type": "occ",
				"energy": -0.2288,
				"method": "rhf"
			},
			{
				"type": "occ",
				"energy": -0.19461,
				"method": "rhf"
			},
			{
				"type": "unocc",
				"energy": -0.03162,
				"method": "rhf"
			},
			{
				"type": "unocc",
				"energy": 0.00197,
				"method": "rhf"
			},
			{
				"type": "unocc",
				"energy": 0.06047,
				"method": "rhf"
			},
			{
				"type": "unocc",
				"energy": 0.06422,
				"method": "rhf"
			},
			{
				"type": "unocc",
				"energy": 0.07822,
				"method": "rhf"
			}
		],
		"cosmo_sigma_profile": { 
			"-0.025": 0.0,
			"-0.024": 0.0,
			"-0.023": 0.0,
			"-0.022": 0.0,
			"-0.021": 0.0,
			"-0.02": 0.0,
			"-0.019": 0.0,
			"-0.018": 0.0,
			"-0.017": 0.0,
			"-0.016": 0.0,
			"-0.015": 0.833086338369,
			"-0.014": 0.894292689719,
			"-0.013": 1.30222791249,
			"-0.012": 0.87512875364,
			"-0.011": 0.441802291076,
			"-0.01": 0.984934940858,
			"-0.009": 1.07349536937,
			"-0.008": 0.915555285557,
			"-0.007": 1.00632506854,
			"-0.006": 5.8767131588,
			"-0.005": 20.0601455843,
			"-0.004": 32.9095114798,
			"-0.003": 39.320479111,
			"-0.002": 28.130744978,
			"-0.001": 21.7153000278,
			"0.0": 17.2563637832,
			"0.001": 9.81021025154,
			"0.002": 10.27274658,
			"0.003": 12.3816993689,
			"0.004": 11.7184430745,
			"0.005": 13.7662035058,
			"0.006": 8.17497485825,
			"0.007": 3.34000995274,
			"0.008": 3.21200534549,
			"0.009": 2.4061739384,
			"0.01": 2.43754852641,
			"0.011": 3.33229771296,
			"0.012": 4.221478828,
			"0.013": 6.33854960652,
			"0.014": 3.61642637703,
			"0.015": 0.354247821099,
			"0.016": 0.0,
			"0.017": 0.0,
			"0.018": 0.0,
			"0.019": 0.0,
			"0.02": 0.0,
			"0.021": 0.0,
			"0.022": 0.0,
			"0.023": 0.0,
			"0.024": 0.0,
			"0.025": 0.0
		}
	}
}
