{
	 "smiles": "NC1=CC(=NN1C1=CC=CC=C1)C1=CC(Cl)=CC=C1", 
	 "Tm": 392.15, 
	 "num_atms": 31, 
	 "gaussian": { 
		 "optdone": 1, 
		 "sigma_profile": "yes", 
		 "theory": "DFT", 
		 "functional": "B3LYP", 
		 "basiset": "6-31G**", 
		 "properties": { 
			 "R2extent": 10035.0809, 
			 "electric_dipole_moment_norm": 4.43844063383, 
			 "electric_quadrupole_moment_norm": 17.6566344718, 
			 "total_energy": -1203.26577126, 
			 "HOMO_LUMO_gap": 0.17337, 
			 "cosmo_polarized_energy": -13.53, 
			 "cosmo_cavitation_energy": 37.22, 
			 "cosmo_dispersion_energy": -27.31, 
			 "cosmo_repulsion_energy": 2.08, 
			 "cosmo_total_nonelectrostatic_energy": 11.99, 
			 "SMD_solvation_energy": 5.25 
		},
		"coords": [
			{
				"x": -1.0150737232,
				"y": 2.0302174012,
				"z": -1.8859797347,
				"element": "N" 
			},
			{
				"x": -0.1035791132,
				"y": 1.8003281883,
				"z": -0.8585647549,
				"element": "C" 
			},
			{
				"x": 1.2486785687,
				"y": 2.0724705319,
				"z": -0.7864610818,
				"element": "C" 
			},
			{
				"x": 1.6410130574,
				"y": 1.648778571,
				"z": 0.5119650679,
				"element": "C" 
			},
			{
				"x": 0.6112775481,
				"y": 1.1494205613,
				"z": 1.1931207587,
				"element": "N" 
			},
			{
				"x": -0.4640605714,
				"y": 1.2614569492,
				"z": 0.3544235748,
				"element": "N" 
			},
			{
				"x": -1.7280742948,
				"y": 0.7700601926,
				"z": 0.7745455004,
				"element": "C" 
			},
			{
				"x": -1.7740969934,
				"y": -0.3597531874,
				"z": 1.6017414246,
				"element": "C" 
			},
			{
				"x": -3.0051585281,
				"y": -0.8476839875,
				"z": 2.0320552205,
				"element": "C" 
			},
			{
				"x": -4.1935280263,
				"y": -0.2266668949,
				"z": 1.637462639,
				"element": "C" 
			},
			{
				"x": -4.1405051306,
				"y": 0.9023676057,
				"z": 0.8201203101,
				"element": "C" 
			},
			{
				"x": -2.9132621471,
				"y": 1.413087168,
				"z": 0.393323548,
				"element": "C" 
			},
			{
				"x": 2.9773432956,
				"y": 1.705880064,
				"z": 1.1270131154,
				"element": "C" 
			},
			{
				"x": 4.0705804848,
				"y": 2.22265125,
				"z": 0.4153326492,
				"element": "C" 
			},
			{
				"x": 5.3267209514,
				"y": 2.2658476521,
				"z": 1.0140708153,
				"element": "C" 
			},
			{
				"x": 6.6856322077,
				"y": 2.9182101386,
				"z": 0.1006952996,
				"element": "Cl" 
			},
			{
				"x": 5.5352296367,
				"y": 1.8076634502,
				"z": 2.3129551534,
				"element": "C" 
			},
			{
				"x": 4.4429568936,
				"y": 1.2950357876,
				"z": 3.0179793947,
				"element": "C" 
			},
			{
				"x": 3.1792780469,
				"y": 1.2423750663,
				"z": 2.4382533267,
				"element": "C" 
			},
			{
				"x": -0.5534586657,
				"y": 2.1792907185,
				"z": -2.7741872421,
				"element": "H" 
			},
			{
				"x": -1.7312294798,
				"y": 1.3171342451,
				"z": -1.9690004529,
				"element": "H" 
			},
			{
				"x": 1.8546403319,
				"y": 2.5035372518,
				"z": -1.568753309,
				"element": "H" 
			},
			{
				"x": -0.8437338362,
				"y": -0.8274276549,
				"z": 1.9003720017,
				"element": "H" 
			},
			{
				"x": -3.0359411012,
				"y": -1.7230544146,
				"z": 2.6742637111,
				"element": "H" 
			},
			{
				"x": -5.1507442271,
				"y": -0.6158036237,
				"z": 1.9708967065,
				"element": "H" 
			},
			{
				"x": -5.0565644375,
				"y": 1.4048872156,
				"z": 0.5235056871,
				"element": "H" 
			},
			{
				"x": -2.8725060511,
				"y": 2.3147106621,
				"z": -0.2072452984,
				"element": "H" 
			},
			{
				"x": 3.9512721792,
				"y": 2.5904543516,
				"z": -0.5969830813,
				"element": "H" 
			},
			{
				"x": 6.5228594191,
				"y": 1.8524003857,
				"z": 2.7577805373,
				"element": "H" 
			},
			{
				"x": 4.5865762739,
				"y": 0.9346792306,
				"z": 4.032531212,
				"element": "H" 
			},
			{
				"x": 2.3324574318,
				"y": 0.846945124,
				"z": 2.987367301,
				"element": "H" 
			}
		],
		 "valence_orbital": [ 
			{
				"type": "occ",
				"energy": -0.26067,
				"method": "rhf"
			},
			{
				"type": "occ",
				"energy": -0.25647,
				"method": "rhf"
			},
			{
				"type": "occ",
				"energy": -0.24092,
				"method": "rhf"
			},
			{
				"type": "occ",
				"energy": -0.22155,
				"method": "rhf"
			},
			{
				"type": "occ",
				"energy": -0.20672,
				"method": "rhf"
			},
			{
				"type": "unocc",
				"energy": -0.03335,
				"method": "rhf"
			},
			{
				"type": "unocc",
				"energy": -0.0124,
				"method": "rhf"
			},
			{
				"type": "unocc",
				"energy": -0.00827,
				"method": "rhf"
			},
			{
				"type": "unocc",
				"energy": -0.0031,
				"method": "rhf"
			},
			{
				"type": "unocc",
				"energy": 0.03637,
				"method": "rhf"
			}
		],
		"cosmo_sigma_profile": { 
			"-0.025": 0.0,
			"-0.024": 0.0,
			"-0.023": 0.0,
			"-0.022": 0.0,
			"-0.021": 0.0,
			"-0.02": 0.0,
			"-0.019": 0.0,
			"-0.018": 0.0,
			"-0.017": 0.0,
			"-0.016": 0.0,
			"-0.015": 0.0,
			"-0.014": 0.401719545434,
			"-0.013": 1.74375611,
			"-0.012": 2.9906097546,
			"-0.011": 3.05825794908,
			"-0.01": 1.95191461893,
			"-0.009": 2.71504204946,
			"-0.008": 4.91927797085,
			"-0.007": 7.35601815781,
			"-0.006": 14.7753692296,
			"-0.005": 18.3098731676,
			"-0.004": 19.8395949682,
			"-0.003": 16.7456306029,
			"-0.002": 14.456012813,
			"-0.001": 17.0402765486,
			"0.0": 14.9693278016,
			"0.001": 21.3773886036,
			"0.002": 26.7541682837,
			"0.003": 33.0271589137,
			"0.004": 37.5355350534,
			"0.005": 24.0142475184,
			"0.006": 4.33670470268,
			"0.007": 3.65793410418,
			"0.008": 3.41299440604,
			"0.009": 1.65922959146,
			"0.01": 1.65001628683,
			"0.011": 1.06326236423,
			"0.012": 1.49884947095,
			"0.013": 0.159823313182,
			"0.014": 0.0,
			"0.015": 0.0,
			"0.016": 0.0,
			"0.017": 0.0,
			"0.018": 0.0,
			"0.019": 0.0,
			"0.02": 0.0,
			"0.021": 0.0,
			"0.022": 0.0,
			"0.023": 0.0,
			"0.024": 0.0,
			"0.025": 0.0
		}
	}
}
