{
	 "smiles": "CCOC(=O)C1=C(N)SC=C1C1=CC=CS1", 
	 "Tm": 359.15, 
	 "num_atms": 27, 
	 "gaussian": { 
		 "optdone": 1, 
		 "sigma_profile": "yes", 
		 "theory": "DFT", 
		 "functional": "B3LYP", 
		 "basiset": "6-31G**", 
		 "properties": { 
			 "R2extent": 5336.4475, 
			 "electric_dipole_moment_norm": 0.285351782893, 
			 "electric_quadrupole_moment_norm": 10.3657815142, 
			 "total_energy": -1427.36916246, 
			 "HOMO_LUMO_gap": 0.18072, 
			 "cosmo_polarized_energy": -11.24, 
			 "cosmo_cavitation_energy": 34.28, 
			 "cosmo_dispersion_energy": -24.75, 
			 "cosmo_repulsion_energy": 1.87, 
			 "cosmo_total_nonelectrostatic_energy": 11.4, 
			 "SMD_solvation_energy": 6.47 
		},
		"coords": [
			{
				"x": 1.5321231235,
				"y": -2.0341769879,
				"z": 2.1590594494,
				"element": "C" 
			},
			{
				"x": 0.7931968806,
				"y": -2.8693776674,
				"z": 1.13039279,
				"element": "C" 
			},
			{
				"x": -0.0815440793,
				"y": -1.9809138699,
				"z": 0.4008682112,
				"element": "O" 
			},
			{
				"x": -0.8906620853,
				"y": -2.5569027163,
				"z": -0.5083801651,
				"element": "C" 
			},
			{
				"x": -0.8983012505,
				"y": -3.7753766194,
				"z": -0.6934738847,
				"element": "O" 
			},
			{
				"x": -1.7568432662,
				"y": -1.6170191382,
				"z": -1.2177630721,
				"element": "C" 
			},
			{
				"x": -2.772290964,
				"y": -2.1230452732,
				"z": -2.0346258813,
				"element": "C" 
			},
			{
				"x": -3.0654912156,
				"y": -3.4276948316,
				"z": -2.2624692134,
				"element": "N" 
			},
			{
				"x": -3.7659761683,
				"y": -0.844551494,
				"z": -2.6966970293,
				"element": "S" 
			},
			{
				"x": -2.7961614108,
				"y": 0.3730943746,
				"z": -1.8966864897,
				"element": "C" 
			},
			{
				"x": -1.7817638428,
				"y": -0.1617269679,
				"z": -1.157766408,
				"element": "C" 
			},
			{
				"x": -0.8485222418,
				"y": 0.7324930475,
				"z": -0.4489147111,
				"element": "C" 
			},
			{
				"x": -1.1573526209,
				"y": 1.6497979097,
				"z": 0.5252548832,
				"element": "C" 
			},
			{
				"x": -0.0435869357,
				"y": 2.4406544235,
				"z": 0.9397048202,
				"element": "C" 
			},
			{
				"x": 1.1047964929,
				"y": 2.127178532,
				"z": 0.2670661159,
				"element": "C" 
			},
			{
				"x": 0.8436719319,
				"y": 0.857760685,
				"z": -0.8847915256,
				"element": "S" 
			},
			{
				"x": 2.2119971394,
				"y": -2.6713656137,
				"z": 2.733651503,
				"element": "H" 
			},
			{
				"x": 2.1175577892,
				"y": -1.2470712913,
				"z": 1.6762886187,
				"element": "H" 
			},
			{
				"x": 0.8312697874,
				"y": -1.5620663893,
				"z": 2.8533008665,
				"element": "H" 
			},
			{
				"x": 1.4774069806,
				"y": -3.3514764987,
				"z": 0.4242945195,
				"element": "H" 
			},
			{
				"x": 0.1919642137,
				"y": -3.6574327369,
				"z": 1.5939084743,
				"element": "H" 
			},
			{
				"x": -2.3623181031,
				"y": -4.0776441395,
				"z": -1.9205697775,
				"element": "H" 
			},
			{
				"x": -3.6483014103,
				"y": -3.684138529,
				"z": -3.0425769258,
				"element": "H" 
			},
			{
				"x": -3.0035845815,
				"y": 1.4190086474,
				"z": -2.0669107216,
				"element": "H" 
			},
			{
				"x": -2.1549692786,
				"y": 1.7388817402,
				"z": 0.9400058433,
				"element": "H" 
			},
			{
				"x": -0.0975822207,
				"y": 3.2047319575,
				"z": 1.7070371281,
				"element": "H" 
			},
			{
				"x": 2.0886673359,
				"y": 2.5617794468,
				"z": 0.3793925816,
				"element": "H" 
			}
		],
		 "valence_orbital": [ 
			{
				"type": "occ",
				"energy": -0.27007,
				"method": "rhf"
			},
			{
				"type": "occ",
				"energy": -0.25794,
				"method": "rhf"
			},
			{
				"type": "occ",
				"energy": -0.24239,
				"method": "rhf"
			},
			{
				"type": "occ",
				"energy": -0.22323,
				"method": "rhf"
			},
			{
				"type": "occ",
				"energy": -0.19833,
				"method": "rhf"
			},
			{
				"type": "unocc",
				"energy": -0.01761,
				"method": "rhf"
			},
			{
				"type": "unocc",
				"energy": -0.01673,
				"method": "rhf"
			},
			{
				"type": "unocc",
				"energy": 0.00468,
				"method": "rhf"
			},
			{
				"type": "unocc",
				"energy": 0.02377,
				"method": "rhf"
			},
			{
				"type": "unocc",
				"energy": 0.03976,
				"method": "rhf"
			}
		],
		"cosmo_sigma_profile": { 
			"-0.025": 0.0,
			"-0.024": 0.0,
			"-0.023": 0.0,
			"-0.022": 0.0,
			"-0.021": 0.0,
			"-0.02": 0.0,
			"-0.019": 0.0,
			"-0.018": 0.0,
			"-0.017": 0.0,
			"-0.016": 0.0,
			"-0.015": 0.804447587024,
			"-0.014": 1.49764008431,
			"-0.013": 1.26464819206,
			"-0.012": 1.36966179156,
			"-0.011": 0.97037602801,
			"-0.01": 2.04899121982,
			"-0.009": 2.39653179131,
			"-0.008": 5.14128290511,
			"-0.007": 5.72960799919,
			"-0.006": 8.4279555546,
			"-0.005": 12.6508563366,
			"-0.004": 18.0161158114,
			"-0.003": 20.8403331181,
			"-0.002": 18.5316557551,
			"-0.001": 21.9513218095,
			"0.0": 22.225382686,
			"0.001": 22.8567058158,
			"0.002": 24.4689600219,
			"0.003": 26.406953486,
			"0.004": 22.1361069041,
			"0.005": 14.354832952,
			"0.006": 7.71378824282,
			"0.007": 3.69292690182,
			"0.008": 3.08916429132,
			"0.009": 3.16480166498,
			"0.01": 1.40469179419,
			"0.011": 2.00097530023,
			"0.012": 1.80188471692,
			"0.013": 0.820271345244,
			"0.014": 0.0,
			"0.015": 0.0,
			"0.016": 0.0,
			"0.017": 0.0,
			"0.018": 0.0,
			"0.019": 0.0,
			"0.02": 0.0,
			"0.021": 0.0,
			"0.022": 0.0,
			"0.023": 0.0,
			"0.024": 0.0,
			"0.025": 0.0
		}
	}
}
