{
	 "smiles": "COC(=O)NC1=NC2=C(N1)C=CC(=C2)C(=O)C1=CC=C(F)C=C1", 
	 "Tm": 533.15, 
	 "num_atms": 35, 
	 "gaussian": { 
		 "optdone": 1, 
		 "sigma_profile": "yes", 
		 "theory": "DFT", 
		 "functional": "B3LYP", 
		 "basiset": "6-31G**", 
		 "properties": { 
			 "R2extent": 12991.186, 
			 "electric_dipole_moment_norm": 6.64449161486, 
			 "electric_quadrupole_moment_norm": 18.5460371088, 
			 "total_energy": -1106.73351095, 
			 "HOMO_LUMO_gap": 0.16647, 
			 "cosmo_polarized_energy": -21.71, 
			 "cosmo_cavitation_energy": 41.55, 
			 "cosmo_dispersion_energy": -30.11, 
			 "cosmo_repulsion_energy": 2.24, 
			 "cosmo_total_nonelectrostatic_energy": 13.67, 
			 "SMD_solvation_energy": 7.36 
		},
		"coords": [
			{
				"x": 4.4120619889,
				"y": -4.9264700084,
				"z": 1.6908494927,
				"element": "C" 
			},
			{
				"x": 3.4628008668,
				"y": -3.8443194991,
				"z": 1.7706043352,
				"element": "O" 
			},
			{
				"x": 3.0823865377,
				"y": -3.526246614,
				"z": 3.0357170716,
				"element": "C" 
			},
			{
				"x": 3.4863894041,
				"y": -4.0816306511,
				"z": 4.0340517552,
				"element": "O" 
			},
			{
				"x": 2.1751549964,
				"y": -2.4890493988,
				"z": 3.0603118985,
				"element": "N" 
			},
			{
				"x": 1.6017003428,
				"y": -1.7411634668,
				"z": 2.042399545,
				"element": "C" 
			},
			{
				"x": 0.743322487,
				"y": -0.7844000598,
				"z": 2.2915460636,
				"element": "N" 
			},
			{
				"x": 0.4095603776,
				"y": -0.289508338,
				"z": 1.035920988,
				"element": "C" 
			},
			{
				"x": 1.1108650613,
				"y": -0.9949994742,
				"z": 0.0235618872,
				"element": "C" 
			},
			{
				"x": 1.8737619124,
				"y": -1.9274549954,
				"z": 0.7074154179,
				"element": "N" 
			},
			{
				"x": 0.9603578933,
				"y": -0.7092914524,
				"z": -1.3315573683,
				"element": "C" 
			},
			{
				"x": 0.0940402578,
				"y": 0.3301503754,
				"z": -1.6634775334,
				"element": "C" 
			},
			{
				"x": -0.6134765078,
				"y": 1.0540770307,
				"z": -0.6746670086,
				"element": "C" 
			},
			{
				"x": -0.4699489676,
				"y": 0.7306789322,
				"z": 0.6826575811,
				"element": "C" 
			},
			{
				"x": -1.6041550756,
				"y": 2.1229494418,
				"z": -1.0202708013,
				"element": "C" 
			},
			{
				"x": -2.552001507,
				"y": 2.3484439459,
				"z": -0.273811265,
				"element": "O" 
			},
			{
				"x": -1.4503251428,
				"y": 2.9340996397,
				"z": -2.2747728375,
				"element": "C" 
			},
			{
				"x": -2.6107685885,
				"y": 3.4989765619,
				"z": -2.8307086077,
				"element": "C" 
			},
			{
				"x": -2.543802762,
				"y": 4.306301834,
				"z": -3.9603578592,
				"element": "C" 
			},
			{
				"x": -1.2942370016,
				"y": 4.5686979822,
				"z": -4.5170300103,
				"element": "C" 
			},
			{
				"x": -1.2193784141,
				"y": 5.3552122548,
				"z": -5.6082605095,
				"element": "F" 
			},
			{
				"x": -0.1213245329,
				"y": 4.0514059682,
				"z": -3.9790540589,
				"element": "C" 
			},
			{
				"x": -0.2070051165,
				"y": 3.2280613565,
				"z": -2.8568793859,
				"element": "C" 
			},
			{
				"x": 3.9876946845,
				"y": -5.8368558302,
				"z": 2.1184167126,
				"element": "H" 
			},
			{
				"x": 5.3273513708,
				"y": -4.669807092,
				"z": 2.2275872806,
				"element": "H" 
			},
			{
				"x": 4.6132036851,
				"y": -5.0580335547,
				"z": 0.628010786,
				"element": "H" 
			},
			{
				"x": 1.8666477779,
				"y": -2.2245219835,
				"z": 3.9862941768,
				"element": "H" 
			},
			{
				"x": 2.5090387199,
				"y": -2.6221660518,
				"z": 0.3467686806,
				"element": "H" 
			},
			{
				"x": 1.483803786,
				"y": -1.2696864052,
				"z": -2.0999142532,
				"element": "H" 
			},
			{
				"x": -0.0642777603,
				"y": 0.5653999258,
				"z": -2.7098011941,
				"element": "H" 
			},
			{
				"x": -1.0401483962,
				"y": 1.2710386179,
				"z": 1.4293737529,
				"element": "H" 
			},
			{
				"x": -3.5625873961,
				"y": 3.2929271084,
				"z": -2.3531111186,
				"element": "H" 
			},
			{
				"x": -3.4314847727,
				"y": 4.7382773438,
				"z": -4.4096828974,
				"element": "H" 
			},
			{
				"x": 0.8316963184,
				"y": 4.2999058893,
				"z": -4.4332073169,
				"element": "H" 
			},
			{
				"x": 0.7029834729,
				"y": 2.8333006668,
				"z": -2.4185233997,
				"element": "H" 
			}
		],
		 "valence_orbital": [ 
			{
				"type": "occ",
				"energy": -0.26637,
				"method": "rhf"
			},
			{
				"type": "occ",
				"energy": -0.2541,
				"method": "rhf"
			},
			{
				"type": "occ",
				"energy": -0.24402,
				"method": "rhf"
			},
			{
				"type": "occ",
				"energy": -0.23378,
				"method": "rhf"
			},
			{
				"type": "occ",
				"energy": -0.22286,
				"method": "rhf"
			},
			{
				"type": "unocc",
				"energy": -0.05639,
				"method": "rhf"
			},
			{
				"type": "unocc",
				"energy": -0.02449,
				"method": "rhf"
			},
			{
				"type": "unocc",
				"energy": -0.01518,
				"method": "rhf"
			},
			{
				"type": "unocc",
				"energy": -0.00057,
				"method": "rhf"
			},
			{
				"type": "unocc",
				"energy": 0.01939,
				"method": "rhf"
			}
		],
		"cosmo_sigma_profile": { 
			"-0.025": 0.0,
			"-0.024": 0.0,
			"-0.023": 0.0,
			"-0.022": 0.0,
			"-0.021": 0.0,
			"-0.02": 0.0,
			"-0.019": 0.0,
			"-0.018": 0.0,
			"-0.017": 0.160386538491,
			"-0.016": 0.842110964175,
			"-0.015": 1.20064271821,
			"-0.014": 1.35239463713,
			"-0.013": 1.40648593596,
			"-0.012": 1.93272132938,
			"-0.011": 1.71044538987,
			"-0.01": 1.91045206152,
			"-0.009": 1.6085179468,
			"-0.008": 3.83502586432,
			"-0.007": 10.8967227374,
			"-0.006": 18.3193071468,
			"-0.005": 22.8997661357,
			"-0.004": 25.9274827638,
			"-0.003": 24.4397027306,
			"-0.002": 21.7356934553,
			"-0.001": 22.4455558715,
			"0.0": 25.4691166278,
			"0.001": 22.3920158849,
			"0.002": 24.6027887748,
			"0.003": 26.0829637154,
			"0.004": 22.6242274958,
			"0.005": 5.92356407106,
			"0.006": 4.49456270389,
			"0.007": 4.37705006236,
			"0.008": 4.60908831713,
			"0.009": 4.0552109467,
			"0.01": 4.5851171367,
			"0.011": 7.31537779586,
			"0.012": 9.47465165407,
			"0.013": 3.27860567155,
			"0.014": 0.614893422776,
			"0.015": 0.940345397503,
			"0.016": 0.78461138433,
			"0.017": 0.0186623174382,
			"0.018": 0.0,
			"0.019": 0.0,
			"0.02": 0.0,
			"0.021": 0.0,
			"0.022": 0.0,
			"0.023": 0.0,
			"0.024": 0.0,
			"0.025": 0.0
		}
	}
}
