{
	 "smiles": "CC1=C(SC2=C1C(=O)NC=N2)C(N)=O", 
	 "Tm": 557.15, 
	 "num_atms": 21, 
	 "gaussian": { 
		 "optdone": 1, 
		 "sigma_profile": "yes", 
		 "theory": "DFT", 
		 "functional": "B3LYP", 
		 "basiset": "6-31G**", 
		 "properties": { 
			 "R2extent": 3164.9671, 
			 "electric_dipole_moment_norm": 3.66615356061, 
			 "electric_quadrupole_moment_norm": 21.9801145074, 
			 "total_energy": -1021.99476658, 
			 "HOMO_LUMO_gap": 0.16552, 
			 "cosmo_polarized_energy": -22.03, 
			 "cosmo_cavitation_energy": 26.77, 
			 "cosmo_dispersion_energy": -20.8, 
			 "cosmo_repulsion_energy": 1.57, 
			 "cosmo_total_nonelectrostatic_energy": 7.53, 
			 "SMD_solvation_energy": 4.26 
		},
		"coords": [
			{
				"x": -2.7262361338,
				"y": -0.4211845911,
				"z": 0.6407900314,
				"element": "C" 
			},
			{
				"x": -1.281345805,
				"y": -0.305836841,
				"z": 0.2206744567,
				"element": "C" 
			},
			{
				"x": -0.6236609859,
				"y": 0.8550225124,
				"z": -0.1391296272,
				"element": "C" 
			},
			{
				"x": 1.0499386692,
				"y": 0.5924198692,
				"z": -0.6017100484,
				"element": "S" 
			},
			{
				"x": 0.8888054406,
				"y": -1.1037327455,
				"z": -0.2934843654,
				"element": "C" 
			},
			{
				"x": -0.4028598374,
				"y": -1.4379618322,
				"z": 0.1325064511,
				"element": "C" 
			},
			{
				"x": -0.6953044541,
				"y": -2.8350431545,
				"z": 0.413785881,
				"element": "C" 
			},
			{
				"x": -1.7457263829,
				"y": -3.3458659792,
				"z": 0.7845437327,
				"element": "O" 
			},
			{
				"x": 0.4432097664,
				"y": -3.6514417036,
				"z": 0.2051190481,
				"element": "N" 
			},
			{
				"x": 1.6637254752,
				"y": -3.2046956922,
				"z": -0.2114933571,
				"element": "C" 
			},
			{
				"x": 1.9367174828,
				"y": -1.962259145,
				"z": -0.4713949088,
				"element": "N" 
			},
			{
				"x": -1.048916444,
				"y": 2.2753064994,
				"z": -0.234947962,
				"element": "C" 
			},
			{
				"x": -2.2986422048,
				"y": 2.6035695936,
				"z": 0.2249667012,
				"element": "N" 
			},
			{
				"x": -0.3022100756,
				"y": 3.1145810656,
				"z": -0.7312406934,
				"element": "O" 
			},
			{
				"x": -3.3840783334,
				"y": 0.1273825001,
				"z": -0.0400527054,
				"element": "H" 
			},
			{
				"x": -2.8781248566,
				"y": -0.0287830428,
				"z": 1.655731325,
				"element": "H" 
			},
			{
				"x": -3.025206323,
				"y": -1.4687485165,
				"z": 0.6597102591,
				"element": "H" 
			},
			{
				"x": 0.2955360111,
				"y": -4.6372315997,
				"z": 0.3873808153,
				"element": "H" 
			},
			{
				"x": 2.4365255476,
				"y": -3.9611872807,
				"z": -0.3242319676,
				"element": "H" 
			},
			{
				"x": -2.7986731292,
				"y": 2.0090493917,
				"z": 0.8649409887,
				"element": "H" 
			},
			{
				"x": -2.4961734271,
				"y": 3.5935406921,
				"z": 0.253035945,
				"element": "H" 
			}
		],
		 "valence_orbital": [ 
			{
				"type": "occ",
				"energy": -0.27818,
				"method": "rhf"
			},
			{
				"type": "occ",
				"energy": -0.27411,
				"method": "rhf"
			},
			{
				"type": "occ",
				"energy": -0.26367,
				"method": "rhf"
			},
			{
				"type": "occ",
				"energy": -0.25803,
				"method": "rhf"
			},
			{
				"type": "occ",
				"energy": -0.23139,
				"method": "rhf"
			},
			{
				"type": "unocc",
				"energy": -0.06587,
				"method": "rhf"
			},
			{
				"type": "unocc",
				"energy": -0.02794,
				"method": "rhf"
			},
			{
				"type": "unocc",
				"energy": -0.00254,
				"method": "rhf"
			},
			{
				"type": "unocc",
				"energy": 0.02384,
				"method": "rhf"
			},
			{
				"type": "unocc",
				"energy": 0.0641,
				"method": "rhf"
			}
		],
		"cosmo_sigma_profile": { 
			"-0.025": 0.0,
			"-0.024": 0.0,
			"-0.023": 0.0,
			"-0.022": 0.0,
			"-0.021": 0.0,
			"-0.02": 0.0,
			"-0.019": 0.0,
			"-0.018": 0.119937563274,
			"-0.017": 1.35562970663,
			"-0.016": 1.67832516777,
			"-0.015": 1.29460981098,
			"-0.014": 1.87976144266,
			"-0.013": 3.98401731025,
			"-0.012": 3.41994500572,
			"-0.011": 5.40488227447,
			"-0.01": 5.75830156156,
			"-0.009": 3.84602363369,
			"-0.008": 4.53365403249,
			"-0.007": 4.68659853231,
			"-0.006": 5.06103524545,
			"-0.005": 6.44402187338,
			"-0.004": 9.27657807146,
			"-0.003": 11.5008279366,
			"-0.002": 12.5633740249,
			"-0.001": 17.6272751975,
			"0.0": 19.5225598976,
			"0.001": 16.1336705601,
			"0.002": 12.1624253199,
			"0.003": 10.9490235907,
			"0.004": 7.91769964367,
			"0.005": 5.02188474269,
			"0.006": 4.52764984672,
			"0.007": 5.15361599328,
			"0.008": 3.31594582051,
			"0.009": 4.30740630074,
			"0.01": 4.10609031229,
			"0.011": 5.32563475293,
			"0.012": 6.65251298277,
			"0.013": 8.4617919009,
			"0.014": 2.64935959966,
			"0.015": 0.00872356144157,
			"0.016": 0.0,
			"0.017": 0.0,
			"0.018": 0.0,
			"0.019": 0.0,
			"0.02": 0.0,
			"0.021": 0.0,
			"0.022": 0.0,
			"0.023": 0.0,
			"0.024": 0.0,
			"0.025": 0.0
		}
	}
}
