{
	 "smiles": "CCOC(=O)C1=CNC2=C(C1=O)C(OC)=CC(OC)=C2", 
	 "Tm": 531.15, 
	 "num_atms": 35, 
	 "gaussian": { 
		 "optdone": 1, 
		 "sigma_profile": "yes", 
		 "theory": "DFT", 
		 "functional": "B3LYP", 
		 "basiset": "6-31G**", 
		 "properties": { 
			 "R2extent": 8761.3648, 
			 "electric_dipole_moment_norm": 8.19316924578, 
			 "electric_quadrupole_moment_norm": 26.0773118431, 
			 "total_energy": -973.391707055, 
			 "HOMO_LUMO_gap": 0.17197, 
			 "cosmo_polarized_energy": -33.38, 
			 "cosmo_cavitation_energy": 39.36, 
			 "cosmo_dispersion_energy": -28.65, 
			 "cosmo_repulsion_energy": 2.2, 
			 "cosmo_total_nonelectrostatic_energy": 12.91, 
			 "SMD_solvation_energy": 9.81 
		},
		"coords": [
			{
				"x": 1.0176012392,
				"y": -4.829181294,
				"z": -3.685353514,
				"element": "C" 
			},
			{
				"x": 1.684290776,
				"y": -3.4828909744,
				"z": -3.9014601377,
				"element": "C" 
			},
			{
				"x": 1.3391866744,
				"y": -2.6426862076,
				"z": -2.7829791791,
				"element": "O" 
			},
			{
				"x": 1.8651984103,
				"y": -1.3763423713,
				"z": -2.8198796064,
				"element": "C" 
			},
			{
				"x": 2.593430214,
				"y": -1.0074435555,
				"z": -3.7133303816,
				"element": "O" 
			},
			{
				"x": 1.4015770582,
				"y": -0.5692839779,
				"z": -1.6630298878,
				"element": "C" 
			},
			{
				"x": 0.3437374351,
				"y": -1.018891761,
				"z": -0.9294063635,
				"element": "C" 
			},
			{
				"x": -0.1670475285,
				"y": -0.3189650716,
				"z": 0.1144093342,
				"element": "N" 
			},
			{
				"x": 0.3259485851,
				"y": 0.9198103251,
				"z": 0.5060092792,
				"element": "C" 
			},
			{
				"x": 1.427292558,
				"y": 1.4601998939,
				"z": -0.1881482554,
				"element": "C" 
			},
			{
				"x": 2.0751387264,
				"y": 0.7084965478,
				"z": -1.3080379097,
				"element": "C" 
			},
			{
				"x": 3.0882028189,
				"y": 1.0953753554,
				"z": -1.8759690189,
				"element": "O" 
			},
			{
				"x": 1.8834185063,
				"y": 2.7450019264,
				"z": 0.2524723305,
				"element": "C" 
			},
			{
				"x": 2.9261881457,
				"y": 3.2822044923,
				"z": -0.4112445987,
				"element": "O" 
			},
			{
				"x": 3.4094500547,
				"y": 4.5585252212,
				"z": -0.021718435,
				"element": "C" 
			},
			{
				"x": 1.2626546318,
				"y": 3.3974161406,
				"z": 1.3143171506,
				"element": "C" 
			},
			{
				"x": 0.1724633803,
				"y": 2.8095372963,
				"z": 1.9768927057,
				"element": "C" 
			},
			{
				"x": -0.3437331029,
				"y": 3.5456397741,
				"z": 2.9972926721,
				"element": "O" 
			},
			{
				"x": -1.4491927775,
				"y": 3.0211000948,
				"z": 3.7175303893,
				"element": "C" 
			},
			{
				"x": -0.3081602133,
				"y": 1.5681679365,
				"z": 1.5810391848,
				"element": "C" 
			},
			{
				"x": 1.3631504986,
				"y": -5.2923739923,
				"z": -2.7563163882,
				"element": "H" 
			},
			{
				"x": 1.2582474301,
				"y": -5.5021619509,
				"z": -4.5143849275,
				"element": "H" 
			},
			{
				"x": -0.0706500384,
				"y": -4.7252366668,
				"z": -3.6343049029,
				"element": "H" 
			},
			{
				"x": 1.3497879043,
				"y": -3.004409635,
				"z": -4.8280751403,
				"element": "H" 
			},
			{
				"x": 2.7739258482,
				"y": -3.5707588765,
				"z": -3.9581875162,
				"element": "H" 
			},
			{
				"x": -0.1418099509,
				"y": -1.9610192652,
				"z": -1.151887746,
				"element": "H" 
			},
			{
				"x": -0.956330436,
				"y": -0.6956633295,
				"z": 0.6166690939,
				"element": "H" 
			},
			{
				"x": 3.775176694,
				"y": 4.5542543561,
				"z": 1.0128672343,
				"element": "H" 
			},
			{
				"x": 4.237751461,
				"y": 4.7747132801,
				"z": -0.697106865,
				"element": "H" 
			},
			{
				"x": 2.6397038466,
				"y": 5.3332586469,
				"z": -0.1291115357,
				"element": "H" 
			},
			{
				"x": 1.5931514611,
				"y": 4.3664953934,
				"z": 1.6612666076,
				"element": "H" 
			},
			{
				"x": -1.1971485639,
				"y": 2.0722438843,
				"z": 4.2078402885,
				"element": "H" 
			},
			{
				"x": -1.6930003993,
				"y": 3.7643260692,
				"z": 4.4777611221,
				"element": "H" 
			},
			{
				"x": -2.3199332825,
				"y": 2.8714280698,
				"z": 3.0666005415,
				"element": "H" 
			},
			{
				"x": -1.149768065,
				"y": 1.0943142253,
				"z": 2.071964375,
				"element": "H" 
			}
		],
		 "valence_orbital": [ 
			{
				"type": "occ",
				"energy": -0.25554,
				"method": "rhf"
			},
			{
				"type": "occ",
				"energy": -0.25016,
				"method": "rhf"
			},
			{
				"type": "occ",
				"energy": -0.22396,
				"method": "rhf"
			},
			{
				"type": "occ",
				"energy": -0.21163,
				"method": "rhf"
			},
			{
				"type": "occ",
				"energy": -0.20659,
				"method": "rhf"
			},
			{
				"type": "unocc",
				"energy": -0.03462,
				"method": "rhf"
			},
			{
				"type": "unocc",
				"energy": -0.02181,
				"method": "rhf"
			},
			{
				"type": "unocc",
				"energy": 0.01949,
				"method": "rhf"
			},
			{
				"type": "unocc",
				"energy": 0.0475,
				"method": "rhf"
			},
			{
				"type": "unocc",
				"energy": 0.05073,
				"method": "rhf"
			}
		],
		"cosmo_sigma_profile": { 
			"-0.025": 0.0,
			"-0.024": 0.0,
			"-0.023": 0.0,
			"-0.022": 0.0,
			"-0.021": 0.0,
			"-0.02": 0.0,
			"-0.019": 0.0,
			"-0.018": 0.0321625466071,
			"-0.017": 1.832828406,
			"-0.016": 1.77575797506,
			"-0.015": 1.76332579308,
			"-0.014": 1.32063988835,
			"-0.013": 1.68811916852,
			"-0.012": 1.55665876415,
			"-0.011": 1.72542479745,
			"-0.01": 1.83652623074,
			"-0.009": 1.96335491992,
			"-0.008": 2.47767966109,
			"-0.007": 4.42877943793,
			"-0.006": 16.8153508206,
			"-0.005": 22.5568886312,
			"-0.004": 29.1867348866,
			"-0.003": 29.8269978362,
			"-0.002": 23.5428325191,
			"-0.001": 23.5574985241,
			"0.0": 24.0327759591,
			"0.001": 19.6627699158,
			"0.002": 19.5257723061,
			"0.003": 17.7938540036,
			"0.004": 9.17866631676,
			"0.005": 5.20734270697,
			"0.006": 4.14556711944,
			"0.007": 4.43253699589,
			"0.008": 4.26393659193,
			"0.009": 4.32293401091,
			"0.01": 2.87423421478,
			"0.011": 2.80970247121,
			"0.012": 5.17966699259,
			"0.013": 4.4092059674,
			"0.014": 3.70448591612,
			"0.015": 4.53778493743,
			"0.016": 4.1468612741,
			"0.017": 2.54477908198,
			"0.018": 1.31193511904,
			"0.019": 0.509825934395,
			"0.02": 5.94908028677e-05,
			"0.021": 0.0,
			"0.022": 0.0,
			"0.023": 0.0,
			"0.024": 0.0,
			"0.025": 0.0
		}
	}
}
