{
	 "smiles": "FC1=C(F)C=C2C(=O)NC=NC2=C1", 
	 "Tm": 538.15, 
	 "num_atms": 17, 
	 "gaussian": { 
		 "optdone": 1, 
		 "sigma_profile": "yes", 
		 "theory": "DFT", 
		 "functional": "B3LYP", 
		 "basiset": "6-31G**", 
		 "properties": { 
			 "R2extent": 2747.8568, 
			 "electric_dipole_moment_norm": 3.18850619883, 
			 "electric_quadrupole_moment_norm": 10.7747573026, 
			 "total_energy": -691.674037205, 
			 "HOMO_LUMO_gap": 0.18806, 
			 "cosmo_polarized_energy": -12.65, 
			 "cosmo_cavitation_energy": 23.13, 
			 "cosmo_dispersion_energy": -17.17, 
			 "cosmo_repulsion_energy": 1.28, 
			 "cosmo_total_nonelectrostatic_energy": 7.25, 
			 "SMD_solvation_energy": 4.42 
		},
		"coords": [
			{
				"x": 0.9395820247,
				"y": -0.7994774757,
				"z": -3.5226923154,
				"element": "F" 
			},
			{
				"x": 1.0341688723,
				"y": -0.322701899,
				"z": -2.2742301554,
				"element": "C" 
			},
			{
				"x": 2.2928394141,
				"y": 0.1149151157,
				"z": -1.8227647036,
				"element": "C" 
			},
			{
				"x": 3.3357780837,
				"y": 0.0338428913,
				"z": -2.662578108,
				"element": "F" 
			},
			{
				"x": 2.440519942,
				"y": 0.6131718641,
				"z": -0.5471515415,
				"element": "C" 
			},
			{
				"x": 1.3196276323,
				"y": 0.6786900107,
				"z": 0.2963238753,
				"element": "C" 
			},
			{
				"x": 1.4674401554,
				"y": 1.2080154429,
				"z": 1.6567904832,
				"element": "C" 
			},
			{
				"x": 2.4958956689,
				"y": 1.6190538688,
				"z": 2.1729327191,
				"element": "O" 
			},
			{
				"x": 0.253803112,
				"y": 1.2028290866,
				"z": 2.362544602,
				"element": "N" 
			},
			{
				"x": -0.934707512,
				"y": 0.7552189716,
				"z": 1.842347652,
				"element": "C" 
			},
			{
				"x": -1.0873781571,
				"y": 0.286601214,
				"z": 0.6503777277,
				"element": "N" 
			},
			{
				"x": 0.0485049649,
				"y": 0.2400346019,
				"z": -0.1504229527,
				"element": "C" 
			},
			{
				"x": -0.0771667071,
				"y": -0.2655836378,
				"z": -1.459369202,
				"element": "C" 
			},
			{
				"x": 3.4062409559,
				"y": 0.952772497,
				"z": -0.1904736125,
				"element": "H" 
			},
			{
				"x": 0.2975928696,
				"y": 1.5584341109,
				"z": 3.3100050453,
				"element": "H" 
			},
			{
				"x": -1.7897381436,
				"y": 0.8148518157,
				"z": 2.5126396051,
				"element": "H" 
			},
			{
				"x": -1.0413031759,
				"y": -0.6055684789,
				"z": -1.8181791186,
				"element": "H" 
			}
		],
		 "valence_orbital": [ 
			{
				"type": "occ",
				"energy": -0.30083,
				"method": "rhf"
			},
			{
				"type": "occ",
				"energy": -0.29237,
				"method": "rhf"
			},
			{
				"type": "occ",
				"energy": -0.27578,
				"method": "rhf"
			},
			{
				"type": "occ",
				"energy": -0.27169,
				"method": "rhf"
			},
			{
				"type": "occ",
				"energy": -0.24121,
				"method": "rhf"
			},
			{
				"type": "unocc",
				"energy": -0.05315,
				"method": "rhf"
			},
			{
				"type": "unocc",
				"energy": -0.04819,
				"method": "rhf"
			},
			{
				"type": "unocc",
				"energy": 0.01261,
				"method": "rhf"
			},
			{
				"type": "unocc",
				"energy": 0.05903,
				"method": "rhf"
			},
			{
				"type": "unocc",
				"energy": 0.06942,
				"method": "rhf"
			}
		],
		"cosmo_sigma_profile": { 
			"-0.025": 0.0,
			"-0.024": 0.0,
			"-0.023": 0.0,
			"-0.022": 0.0,
			"-0.021": 0.0,
			"-0.02": 0.0,
			"-0.019": 0.0,
			"-0.018": 0.00755472613316,
			"-0.017": 1.2550126381,
			"-0.016": 1.53087202202,
			"-0.015": 1.58167330575,
			"-0.014": 0.98846023576,
			"-0.013": 0.83504017648,
			"-0.012": 1.52980634596,
			"-0.011": 1.87024904468,
			"-0.01": 2.73252770516,
			"-0.009": 2.86284947159,
			"-0.008": 4.39165509608,
			"-0.007": 4.46009074526,
			"-0.006": 4.31959187253,
			"-0.005": 5.09459522,
			"-0.004": 6.63846016453,
			"-0.003": 11.4924792524,
			"-0.002": 15.6069701391,
			"-0.001": 19.8980485532,
			"0.0": 18.173700522,
			"0.001": 11.9370571872,
			"0.002": 10.1060074114,
			"0.003": 22.9278464493,
			"0.004": 8.80988280319,
			"0.005": 2.26325985822,
			"0.006": 2.83056025767,
			"0.007": 2.39780666908,
			"0.008": 1.84125268627,
			"0.009": 2.15940165944,
			"0.01": 3.33007244407,
			"0.011": 2.41569894313,
			"0.012": 6.22972067808,
			"0.013": 3.68255118726,
			"0.014": 0.799964893758,
			"0.015": 0.392351490267,
			"0.016": 0.0,
			"0.017": 0.0,
			"0.018": 0.0,
			"0.019": 0.0,
			"0.02": 0.0,
			"0.021": 0.0,
			"0.022": 0.0,
			"0.023": 0.0,
			"0.024": 0.0,
			"0.025": 0.0
		}
	}
}
