{
	 "smiles": "CCC1CN2CCC3(C2CC1C(=COC)C(=O)OC)C(=O)NC1=CC=CC=C31", 
	 "Tm": 489.15, 
	 "num_atms": 56, 
	 "gaussian": { 
		 "optdone": 1, 
		 "sigma_profile": "yes", 
		 "theory": "DFT", 
		 "functional": "B3LYP", 
		 "basiset": "6-31G**", 
		 "properties": { 
			 "R2extent": 12542.0956, 
			 "electric_dipole_moment_norm": 3.47323932518, 
			 "electric_quadrupole_moment_norm": 16.4278072429, 
			 "total_energy": -1265.60155168, 
			 "HOMO_LUMO_gap": 0.16925, 
			 "cosmo_polarized_energy": -20.22, 
			 "cosmo_cavitation_energy": 54.49, 
			 "cosmo_dispersion_energy": -36.16, 
			 "cosmo_repulsion_energy": 2.76, 
			 "cosmo_total_nonelectrostatic_energy": 21.09, 
			 "SMD_solvation_energy": 8.79 
		},
		"coords": [
			{
				"x": -2.1325716678,
				"y": 0.6103930101,
				"z": -2.9765047882,
				"element": "C" 
			},
			{
				"x": -0.8822262256,
				"y": -0.2782170674,
				"z": -2.8832414704,
				"element": "C" 
			},
			{
				"x": -0.3208791876,
				"y": -0.5944061326,
				"z": -1.4767999895,
				"element": "C" 
			},
			{
				"x": -1.4014500702,
				"y": -1.021966705,
				"z": -0.4727521501,
				"element": "C" 
			},
			{
				"x": -0.773147542,
				"y": -1.7256265611,
				"z": 0.6380640644,
				"element": "N" 
			},
			{
				"x": -1.6547813487,
				"y": -2.112859367,
				"z": 1.7338934614,
				"element": "C" 
			},
			{
				"x": -0.6795676281,
				"y": -2.4354016996,
				"z": 2.8642464931,
				"element": "C" 
			},
			{
				"x": 0.3944739582,
				"y": -1.3162992581,
				"z": 2.7298299547,
				"element": "C" 
			},
			{
				"x": 0.4610375373,
				"y": -1.1059152618,
				"z": 1.1731171171,
				"element": "C" 
			},
			{
				"x": 0.6308232605,
				"y": 0.3471923897,
				"z": 0.712049082,
				"element": "C" 
			},
			{
				"x": 0.6513195946,
				"y": 0.4696175847,
				"z": -0.8332340786,
				"element": "C" 
			},
			{
				"x": 0.4863271674,
				"y": 1.9179842251,
				"z": -1.3010221363,
				"element": "C" 
			},
			{
				"x": -0.3985078655,
				"y": 2.7478877416,
				"z": -0.7018188892,
				"element": "C" 
			},
			{
				"x": -0.6511941445,
				"y": 4.02397474,
				"z": -1.0485245949,
				"element": "O" 
			},
			{
				"x": -1.5656446978,
				"y": 4.716562274,
				"z": -0.1994381156,
				"element": "C" 
			},
			{
				"x": 1.3609956334,
				"y": 2.3076335163,
				"z": -2.4336061601,
				"element": "C" 
			},
			{
				"x": 2.1196533381,
				"y": 1.5334259312,
				"z": -2.9990671487,
				"element": "O" 
			},
			{
				"x": 1.2620295095,
				"y": 3.6064573376,
				"z": -2.7971639182,
				"element": "O" 
			},
			{
				"x": 2.1038734599,
				"y": 3.9945520987,
				"z": -3.8900920749,
				"element": "C" 
			},
			{
				"x": -0.0838020916,
				"y": -0.0645955757,
				"z": 3.5062625129,
				"element": "C" 
			},
			{
				"x": -1.1242721514,
				"y": 0.5580462872,
				"z": 3.3632488374,
				"element": "O" 
			},
			{
				"x": 0.8867523014,
				"y": 0.2282831405,
				"z": 4.4459180869,
				"element": "N" 
			},
			{
				"x": 1.9638953977,
				"y": -0.6667558106,
				"z": 4.4004054425,
				"element": "C" 
			},
			{
				"x": 3.1126941013,
				"y": -0.6924799532,
				"z": 5.1818140082,
				"element": "C" 
			},
			{
				"x": 4.0464965189,
				"y": -1.7057866308,
				"z": 4.9282415129,
				"element": "C" 
			},
			{
				"x": 3.8278447256,
				"y": -2.6529773756,
				"z": 3.9264208869,
				"element": "C" 
			},
			{
				"x": 2.6602621531,
				"y": -2.6077804536,
				"z": 3.1499799404,
				"element": "C" 
			},
			{
				"x": 1.7243394303,
				"y": -1.6109053135,
				"z": 3.3883155319,
				"element": "C" 
			},
			{
				"x": -2.4554514612,
				"y": 0.6903641251,
				"z": -4.0203995083,
				"element": "H" 
			},
			{
				"x": -2.9719080588,
				"y": 0.1906347864,
				"z": -2.4113303188,
				"element": "H" 
			},
			{
				"x": -1.954922756,
				"y": 1.6236604365,
				"z": -2.6104496921,
				"element": "H" 
			},
			{
				"x": -0.0771133171,
				"y": 0.1480580155,
				"z": -3.4909121849,
				"element": "H" 
			},
			{
				"x": -1.1275595726,
				"y": -1.2419721678,
				"z": -3.3494523799,
				"element": "H" 
			},
			{
				"x": 0.2982495254,
				"y": -1.4906171019,
				"z": -1.610715981,
				"element": "H" 
			},
			{
				"x": -2.1094416362,
				"y": -1.7085836836,
				"z": -0.9566696012,
				"element": "H" 
			},
			{
				"x": -1.9977641596,
				"y": -0.1494328356,
				"z": -0.1390935313,
				"element": "H" 
			},
			{
				"x": -2.3339558794,
				"y": -1.2993686472,
				"z": 2.0400472527,
				"element": "H" 
			},
			{
				"x": -2.2672199918,
				"y": -2.9798752973,
				"z": 1.4537846473,
				"element": "H" 
			},
			{
				"x": -0.2025759509,
				"y": -3.4060904388,
				"z": 2.6948709858,
				"element": "H" 
			},
			{
				"x": -1.1484267149,
				"y": -2.451709041,
				"z": 3.851834734,
				"element": "H" 
			},
			{
				"x": 1.3313347993,
				"y": -1.6800772466,
				"z": 0.8203377699,
				"element": "H" 
			},
			{
				"x": 1.5580098881,
				"y": 0.7658078679,
				"z": 1.1216402162,
				"element": "H" 
			},
			{
				"x": -0.1907726475,
				"y": 0.9233249885,
				"z": 1.1415371372,
				"element": "H" 
			},
			{
				"x": 1.6512382113,
				"y": 0.1890463912,
				"z": -1.1737465476,
				"element": "H" 
			},
			{
				"x": -1.0017815044,
				"y": 2.3782735269,
				"z": 0.1263068492,
				"element": "H" 
			},
			{
				"x": -1.1531750613,
				"y": 4.8414394727,
				"z": 0.8088442019,
				"element": "H" 
			},
			{
				"x": -1.7202540056,
				"y": 5.6973259719,
				"z": -0.6506635292,
				"element": "H" 
			},
			{
				"x": -2.5262962415,
				"y": 4.1910510846,
				"z": -0.1354918753,
				"element": "H" 
			},
			{
				"x": 1.8694883026,
				"y": 3.4154948002,
				"z": -4.7874434304,
				"element": "H" 
			},
			{
				"x": 1.8996914536,
				"y": 5.0530340162,
				"z": -4.0543998007,
				"element": "H" 
			},
			{
				"x": 3.1582550058,
				"y": 3.8416246942,
				"z": -3.6443514604,
				"element": "H" 
			},
			{
				"x": 0.7872157923,
				"y": 0.9994512121,
				"z": 5.0896279058,
				"element": "H" 
			},
			{
				"x": 3.2840937104,
				"y": 0.0442898292,
				"z": 5.9609161404,
				"element": "H" 
			},
			{
				"x": 4.9540552723,
				"y": -1.7504017836,
				"z": 5.5231368713,
				"element": "H" 
			},
			{
				"x": 4.5651916974,
				"y": -3.4290471426,
				"z": 3.7463306763,
				"element": "H" 
			},
			{
				"x": 2.4930218339,
				"y": -3.3470429439,
				"z": 2.371063035,
				"element": "H" 
			}
		],
		 "valence_orbital": [ 
			{
				"type": "occ",
				"energy": -0.25328,
				"method": "rhf"
			},
			{
				"type": "occ",
				"energy": -0.25133,
				"method": "rhf"
			},
			{
				"type": "occ",
				"energy": -0.22155,
				"method": "rhf"
			},
			{
				"type": "occ",
				"energy": -0.21806,
				"method": "rhf"
			},
			{
				"type": "occ",
				"energy": -0.1923,
				"method": "rhf"
			},
			{
				"type": "unocc",
				"energy": -0.02305,
				"method": "rhf"
			},
			{
				"type": "unocc",
				"energy": -0.01598,
				"method": "rhf"
			},
			{
				"type": "unocc",
				"energy": -0.00604,
				"method": "rhf"
			},
			{
				"type": "unocc",
				"energy": 0.03481,
				"method": "rhf"
			},
			{
				"type": "unocc",
				"energy": 0.0805,
				"method": "rhf"
			}
		],
		"cosmo_sigma_profile": { 
			"-0.025": 0.0,
			"-0.024": 0.0,
			"-0.023": 0.0,
			"-0.022": 0.0,
			"-0.021": 0.0,
			"-0.02": 0.0,
			"-0.019": 0.0,
			"-0.018": 0.0,
			"-0.017": 0.0,
			"-0.016": 0.201777029121,
			"-0.015": 1.34595440178,
			"-0.014": 1.19976198304,
			"-0.013": 1.50239108042,
			"-0.012": 1.00483637643,
			"-0.011": 0.932154744538,
			"-0.01": 0.755337476666,
			"-0.009": 1.40803934948,
			"-0.008": 1.58010117884,
			"-0.007": 5.11722767904,
			"-0.006": 18.4838223508,
			"-0.005": 28.2324580267,
			"-0.004": 32.9834275384,
			"-0.003": 37.5099245208,
			"-0.002": 46.5241454865,
			"-0.001": 47.9345247826,
			"0.0": 44.1443182009,
			"0.001": 32.3413881931,
			"0.002": 22.8757190265,
			"0.003": 17.6853542386,
			"0.004": 13.2927453464,
			"0.005": 14.4971027166,
			"0.006": 11.8187926479,
			"0.007": 5.34434965611,
			"0.008": 4.46706380469,
			"0.009": 4.45225042866,
			"0.01": 6.02974940094,
			"0.011": 4.32065264429,
			"0.012": 6.02768258809,
			"0.013": 10.063186934,
			"0.014": 1.9867485538,
			"0.015": 0.498635688893,
			"0.016": 0.057258702363,
			"0.017": 0.0,
			"0.018": 0.0,
			"0.019": 0.0,
			"0.02": 0.0,
			"0.021": 0.0,
			"0.022": 0.0,
			"0.023": 0.0,
			"0.024": 0.0,
			"0.025": 0.0
		}
	}
}
