{
	 "smiles": "NC1=CC=C(C=C1)C1=CC(=CC=C1)C(F)(F)F", 
	 "Tm": 339.15, 
	 "num_atms": 27, 
	 "gaussian": { 
		 "optdone": 1, 
		 "sigma_profile": "yes", 
		 "theory": "DFT", 
		 "functional": "B3LYP", 
		 "basiset": "6-31G**", 
		 "properties": { 
			 "R2extent": 5792.112, 
			 "electric_dipole_moment_norm": 4.10358154056, 
			 "electric_quadrupole_moment_norm": 21.4079830033, 
			 "total_energy": -855.703388434, 
			 "HOMO_LUMO_gap": 0.17168, 
			 "cosmo_polarized_energy": -10.02, 
			 "cosmo_cavitation_energy": 32.66, 
			 "cosmo_dispersion_energy": -23.28, 
			 "cosmo_repulsion_energy": 1.73, 
			 "cosmo_total_nonelectrostatic_energy": 11.11, 
			 "SMD_solvation_energy": 6.41 
		},
		"coords": [
			{
				"x": -1.2815753833,
				"y": 3.8287435464,
				"z": -2.9083480507,
				"element": "N" 
			},
			{
				"x": -0.9309163451,
				"y": 2.7295105,
				"z": -2.1280110125,
				"element": "C" 
			},
			{
				"x": -0.0950589137,
				"y": 1.7194588927,
				"z": -2.6360340133,
				"element": "C" 
			},
			{
				"x": 0.2057610741,
				"y": 0.5973983892,
				"z": -1.8731695214,
				"element": "C" 
			},
			{
				"x": -0.3059305668,
				"y": 0.4292784447,
				"z": -0.5749676105,
				"element": "C" 
			},
			{
				"x": -1.1398126022,
				"y": 1.4449537331,
				"z": -0.0762122261,
				"element": "C" 
			},
			{
				"x": -1.4490509344,
				"y": 2.5703144996,
				"z": -0.8305519298,
				"element": "C" 
			},
			{
				"x": 0.0222003686,
				"y": -0.7682392106,
				"z": 0.2343729208,
				"element": "C" 
			},
			{
				"x": 0.1984913331,
				"y": -0.6746704306,
				"z": 1.6246739547,
				"element": "C" 
			},
			{
				"x": 0.4984985191,
				"y": -1.8038819295,
				"z": 2.3866579643,
				"element": "C" 
			},
			{
				"x": 0.6394350627,
				"y": -3.0549472496,
				"z": 1.7803313977,
				"element": "C" 
			},
			{
				"x": 0.4711395508,
				"y": -3.1604020422,
				"z": 0.4006004871,
				"element": "C" 
			},
			{
				"x": 0.1639111378,
				"y": -2.0344996139,
				"z": -0.3613629454,
				"element": "C" 
			},
			{
				"x": 0.7454578816,
				"y": -1.6602033179,
				"z": 3.8639674386,
				"element": "C" 
			},
			{
				"x": 2.0524064643,
				"y": -1.42794873,
				"z": 4.1335319353,
				"element": "F" 
			},
			{
				"x": 0.0492776346,
				"y": -0.6310127463,
				"z": 4.3978549879,
				"element": "F" 
			},
			{
				"x": 0.4009141475,
				"y": -2.7774708968,
				"z": 4.5436790969,
				"element": "F" 
			},
			{
				"x": -0.6430799731,
				"y": 4.052298261,
				"z": -3.6588260075,
				"element": "H" 
			},
			{
				"x": -1.5747646741,
				"y": 4.6501205338,
				"z": -2.3981554511,
				"element": "H" 
			},
			{
				"x": 0.3247787429,
				"y": 1.8230283413,
				"z": -3.6337020834,
				"element": "H" 
			},
			{
				"x": 0.8780197048,
				"y": -0.1503036453,
				"z": -2.284219368,
				"element": "H" 
			},
			{
				"x": -1.576117035,
				"y": 1.3418449989,
				"z": 0.9131682231,
				"element": "H" 
			},
			{
				"x": -2.1100670568,
				"y": 3.3303045587,
				"z": -0.4210820885,
				"element": "H" 
			},
			{
				"x": 0.1154863522,
				"y": 0.2889673213,
				"z": 2.1149794299,
				"element": "H" 
			},
			{
				"x": 0.8668299309,
				"y": -3.9283378376,
				"z": 2.381506731,
				"element": "H" 
			},
			{
				"x": 0.5647300773,
				"y": -4.1286933353,
				"z": -0.0822056968,
				"element": "H" 
			},
			{
				"x": 0.0035355021,
				"y": -2.1397110351,
				"z": -1.4300765623,
				"element": "H" 
			}
		],
		 "valence_orbital": [ 
			{
				"type": "occ",
				"energy": -0.31739,
				"method": "rhf"
			},
			{
				"type": "occ",
				"energy": -0.26162,
				"method": "rhf"
			},
			{
				"type": "occ",
				"energy": -0.26025,
				"method": "rhf"
			},
			{
				"type": "occ",
				"energy": -0.25267,
				"method": "rhf"
			},
			{
				"type": "occ",
				"energy": -0.20012,
				"method": "rhf"
			},
			{
				"type": "unocc",
				"energy": -0.02844,
				"method": "rhf"
			},
			{
				"type": "unocc",
				"energy": -0.01785,
				"method": "rhf"
			},
			{
				"type": "unocc",
				"energy": -0.00328,
				"method": "rhf"
			},
			{
				"type": "unocc",
				"energy": 0.03153,
				"method": "rhf"
			},
			{
				"type": "unocc",
				"energy": 0.07591,
				"method": "rhf"
			}
		],
		"cosmo_sigma_profile": { 
			"-0.025": 0.0,
			"-0.024": 0.0,
			"-0.023": 0.0,
			"-0.022": 0.0,
			"-0.021": 0.0,
			"-0.02": 0.0,
			"-0.019": 0.0,
			"-0.018": 0.0,
			"-0.017": 0.0,
			"-0.016": 0.0,
			"-0.015": 0.0,
			"-0.014": 0.0,
			"-0.013": 0.540496288586,
			"-0.012": 2.96687785775,
			"-0.011": 2.36006766269,
			"-0.01": 2.41994560801,
			"-0.009": 4.11202313554,
			"-0.008": 2.9815206547,
			"-0.007": 3.91866842507,
			"-0.006": 12.6644466862,
			"-0.005": 17.4598888468,
			"-0.004": 15.8071050518,
			"-0.003": 14.6702277396,
			"-0.002": 11.9513900743,
			"-0.001": 13.0998015643,
			"0.0": 14.7301356891,
			"0.001": 17.4877084798,
			"0.002": 26.7736052461,
			"0.003": 48.6478683335,
			"0.004": 20.8746096239,
			"0.005": 9.78184875279,
			"0.006": 10.9294471566,
			"0.007": 2.42190735636,
			"0.008": 0.813578330924,
			"0.009": 0.752322728076,
			"0.01": 0.476916618181,
			"0.011": 1.14204547051,
			"0.012": 0.578348604001,
			"0.013": 0.52019129852,
			"0.014": 0.451336269253,
			"0.015": 0.0683824870982,
			"0.016": 0.0,
			"0.017": 0.0,
			"0.018": 0.0,
			"0.019": 0.0,
			"0.02": 0.0,
			"0.021": 0.0,
			"0.022": 0.0,
			"0.023": 0.0,
			"0.024": 0.0,
			"0.025": 0.0
		}
	}
}
