{
	 "smiles": "CC1=C(N=NN1C1=CC(C)=CC=C1)C(O)=O", 
	 "Tm": 431.15, 
	 "num_atms": 27, 
	 "gaussian": { 
		 "optdone": 1, 
		 "sigma_profile": "yes", 
		 "theory": "DFT", 
		 "functional": "B3LYP", 
		 "basiset": "6-31G**", 
		 "properties": { 
			 "R2extent": 4569.4634, 
			 "electric_dipole_moment_norm": 6.78009192489, 
			 "electric_quadrupole_moment_norm": 18.2134845587, 
			 "total_energy": -740.489276238, 
			 "HOMO_LUMO_gap": 0.20944, 
			 "cosmo_polarized_energy": -18.77, 
			 "cosmo_cavitation_energy": 31.8, 
			 "cosmo_dispersion_energy": -22.91, 
			 "cosmo_repulsion_energy": 1.79, 
			 "cosmo_total_nonelectrostatic_energy": 10.67, 
			 "SMD_solvation_energy": 5.42 
		},
		"coords": [
			{
				"x": 0.8171743727,
				"y": 2.294371574,
				"z": -0.834256725,
				"element": "C" 
			},
			{
				"x": 1.2145670375,
				"y": 0.85527727,
				"z": -0.7778598992,
				"element": "C" 
			},
			{
				"x": 2.3096990852,
				"y": 0.1660517289,
				"z": -1.2919801699,
				"element": "C" 
			},
			{
				"x": 2.2347759758,
				"y": -1.1457643278,
				"z": -0.9063188639,
				"element": "N" 
			},
			{
				"x": 1.1742638561,
				"y": -1.3226708039,
				"z": -0.196548789,
				"element": "N" 
			},
			{
				"x": 0.5263985257,
				"y": -0.1099338168,
				"z": -0.1062711246,
				"element": "N" 
			},
			{
				"x": -0.6775415578,
				"y": -0.0243766797,
				"z": 0.6547667278,
				"element": "C" 
			},
			{
				"x": -0.7256639766,
				"y": -0.6626807896,
				"z": 1.8975097301,
				"element": "C" 
			},
			{
				"x": -1.8923735835,
				"y": -0.6265797764,
				"z": 2.6664568574,
				"element": "C" 
			},
			{
				"x": -1.9437492674,
				"y": -1.295794357,
				"z": 4.0196873958,
				"element": "C" 
			},
			{
				"x": -3.0031882624,
				"y": 0.0684538997,
				"z": 2.1650353792,
				"element": "C" 
			},
			{
				"x": -2.9522763437,
				"y": 0.7004391854,
				"z": 0.9239034699,
				"element": "C" 
			},
			{
				"x": -1.7910179639,
				"y": 0.6518524578,
				"z": 0.1521472915,
				"element": "C" 
			},
			{
				"x": 3.4366191415,
				"y": 0.6343754534,
				"z": -2.114402161,
				"element": "C" 
			},
			{
				"x": 3.3244435547,
				"y": 1.957198522,
				"z": -2.4330235564,
				"element": "O" 
			},
			{
				"x": 4.3691723336,
				"y": -0.0412795371,
				"z": -2.486728997,
				"element": "O" 
			},
			{
				"x": 1.7069327088,
				"y": 2.9157072686,
				"z": -0.9307508613,
				"element": "H" 
			},
			{
				"x": 0.1830845719,
				"y": 2.4995787913,
				"z": -1.7043418292,
				"element": "H" 
			},
			{
				"x": 0.262455257,
				"y": 2.583743642,
				"z": 0.0615498588,
				"element": "H" 
			},
			{
				"x": 0.1526894342,
				"y": -1.194054976,
				"z": 2.2473564546,
				"element": "H" 
			},
			{
				"x": -1.7697411272,
				"y": -0.570996023,
				"z": 4.8244868922,
				"element": "H" 
			},
			{
				"x": -2.921645077,
				"y": -1.7522591101,
				"z": 4.2006717597,
				"element": "H" 
			},
			{
				"x": -1.1826957384,
				"y": -2.0754338255,
				"z": 4.109265514,
				"element": "H" 
			},
			{
				"x": -3.9179160203,
				"y": 0.1065651058,
				"z": 2.7507562376,
				"element": "H" 
			},
			{
				"x": -3.8263524061,
				"y": 1.2201579926,
				"z": 0.5432905998,
				"element": "H" 
			},
			{
				"x": -1.7607438705,
				"y": 1.1061045963,
				"z": -0.8316506567,
				"element": "H" 
			},
			{
				"x": 4.11282934,
				"y": 2.1594465351,
				"z": -2.9637505355,
				"element": "H" 
			}
		],
		 "valence_orbital": [ 
			{
				"type": "occ",
				"energy": -0.27646,
				"method": "rhf"
			},
			{
				"type": "occ",
				"energy": -0.26919,
				"method": "rhf"
			},
			{
				"type": "occ",
				"energy": -0.26612,
				"method": "rhf"
			},
			{
				"type": "occ",
				"energy": -0.2628,
				"method": "rhf"
			},
			{
				"type": "occ",
				"energy": -0.25142,
				"method": "rhf"
			},
			{
				"type": "unocc",
				"energy": -0.04198,
				"method": "rhf"
			},
			{
				"type": "unocc",
				"energy": -0.0212,
				"method": "rhf"
			},
			{
				"type": "unocc",
				"energy": -0.0193,
				"method": "rhf"
			},
			{
				"type": "unocc",
				"energy": 0.00738,
				"method": "rhf"
			},
			{
				"type": "unocc",
				"energy": 0.07418,
				"method": "rhf"
			}
		],
		"cosmo_sigma_profile": { 
			"-0.025": 0.0,
			"-0.024": 0.0,
			"-0.023": 0.0,
			"-0.022": 0.0,
			"-0.021": 0.0,
			"-0.02": 0.0,
			"-0.019": 0.0537742690166,
			"-0.018": 0.924914929722,
			"-0.017": 0.86532373988,
			"-0.016": 0.655623114528,
			"-0.015": 1.03047963017,
			"-0.014": 0.75779893179,
			"-0.013": 0.464358282426,
			"-0.012": 0.386892839741,
			"-0.011": 0.858201499016,
			"-0.01": 0.822075034514,
			"-0.009": 0.404138943439,
			"-0.008": 2.65550392183,
			"-0.007": 6.33689514168,
			"-0.006": 11.3237180345,
			"-0.005": 18.5395100357,
			"-0.004": 20.7580694195,
			"-0.003": 25.3202739888,
			"-0.002": 27.6955697676,
			"-0.001": 21.3067441998,
			"0.0": 16.0223487367,
			"0.001": 12.2841030998,
			"0.002": 11.5675114644,
			"0.003": 14.708117676,
			"0.004": 13.202665421,
			"0.005": 4.24699786887,
			"0.006": 4.26782553746,
			"0.007": 3.61159625929,
			"0.008": 3.65098989159,
			"0.009": 4.58000527339,
			"0.01": 5.04862215133,
			"0.011": 7.6103825012,
			"0.012": 5.45023672037,
			"0.013": 3.03212384915,
			"0.014": 2.08025797035,
			"0.015": 1.22397805061,
			"0.016": 0.0422757318166,
			"0.017": 0.0,
			"0.018": 0.0,
			"0.019": 0.0,
			"0.02": 0.0,
			"0.021": 0.0,
			"0.022": 0.0,
			"0.023": 0.0,
			"0.024": 0.0,
			"0.025": 0.0
		}
	}
}
