{
	 "smiles": "CCNC(=O)C1=CC(N)=C(C)C=C1", 
	 "Tm": 348.15, 
	 "num_atms": 27, 
	 "gaussian": { 
		 "optdone": 1, 
		 "sigma_profile": "yes", 
		 "theory": "DFT", 
		 "functional": "B3LYP", 
		 "basiset": "6-31G**", 
		 "properties": { 
			 "R2extent": 3224.7075, 
			 "electric_dipole_moment_norm": 5.2875754822, 
			 "electric_quadrupole_moment_norm": 15.2574047649, 
			 "total_energy": -574.25664022, 
			 "HOMO_LUMO_gap": 0.1833, 
			 "cosmo_polarized_energy": -16.35, 
			 "cosmo_cavitation_energy": 30.04, 
			 "cosmo_dispersion_energy": -21.39, 
			 "cosmo_repulsion_energy": 1.74, 
			 "cosmo_total_nonelectrostatic_energy": 10.39, 
			 "SMD_solvation_energy": 5.12 
		},
		"coords": [
			{
				"x": 1.6620805971,
				"y": 0.1535401569,
				"z": 3.1874653608,
				"element": "C" 
			},
			{
				"x": 0.4709656996,
				"y": 0.5909758355,
				"z": 2.3282569111,
				"element": "C" 
			},
			{
				"x": -0.6822036672,
				"y": -0.3011696104,
				"z": 2.4529618188,
				"element": "N" 
			},
			{
				"x": -0.9744548529,
				"y": -1.400279615,
				"z": 1.6663220709,
				"element": "C" 
			},
			{
				"x": -1.5570248033,
				"y": -2.3703793374,
				"z": 2.1414736484,
				"element": "O" 
			},
			{
				"x": -0.6203811485,
				"y": -1.3505928472,
				"z": 0.2073659645,
				"element": "C" 
			},
			{
				"x": -0.7855343529,
				"y": -0.1954318871,
				"z": -0.5648903495,
				"element": "C" 
			},
			{
				"x": -0.5232042593,
				"y": -0.2020676777,
				"z": -1.9429187149,
				"element": "C" 
			},
			{
				"x": -0.7731974467,
				"y": 0.9384310887,
				"z": -2.7129167728,
				"element": "N" 
			},
			{
				"x": -0.0680644035,
				"y": -1.390716171,
				"z": -2.5595806944,
				"element": "C" 
			},
			{
				"x": 0.2122665869,
				"y": -1.416910659,
				"z": -4.040862969,
				"element": "C" 
			},
			{
				"x": 0.0870556784,
				"y": -2.5336329118,
				"z": -1.7699311876,
				"element": "C" 
			},
			{
				"x": -0.1950949444,
				"y": -2.5336877477,
				"z": -0.4060790518,
				"element": "C" 
			},
			{
				"x": 2.4889287391,
				"y": 0.8654068482,
				"z": 3.0897576017,
				"element": "H" 
			},
			{
				"x": 2.0203001568,
				"y": -0.8346289837,
				"z": 2.8827604471,
				"element": "H" 
			},
			{
				"x": 1.3891654148,
				"y": 0.1022033329,
				"z": 4.2474428269,
				"element": "H" 
			},
			{
				"x": 0.7627613817,
				"y": 0.6261711202,
				"z": 1.2780163144,
				"element": "H" 
			},
			{
				"x": 0.1604891844,
				"y": 1.6056298698,
				"z": 2.6085236302,
				"element": "H" 
			},
			{
				"x": -0.9893466153,
				"y": -0.4692672273,
				"z": 3.4055242902,
				"element": "H" 
			},
			{
				"x": -1.1605553399,
				"y": 0.713932986,
				"z": -0.1019711341,
				"element": "H" 
			},
			{
				"x": -0.200033022,
				"y": 1.042785055,
				"z": -3.5383440423,
				"element": "H" 
			},
			{
				"x": -0.8341564396,
				"y": 1.8000307711,
				"z": -2.1880881088,
				"element": "H" 
			},
			{
				"x": 1.0294875316,
				"y": -0.7356824244,
				"z": -4.319274195,
				"element": "H" 
			},
			{
				"x": -0.66875637,
				"y": -1.1134845031,
				"z": -4.6202584036,
				"element": "H" 
			},
			{
				"x": 0.5021909006,
				"y": -2.418254617,
				"z": -4.3682845931,
				"element": "H" 
			},
			{
				"x": 0.4282964267,
				"y": -3.4500813678,
				"z": -2.2453948411,
				"element": "H" 
			},
			{
				"x": -0.1014806322,
				"y": -3.4356394766,
				"z": 0.1881241731,
				"element": "H" 
			}
		],
		 "valence_orbital": [ 
			{
				"type": "occ",
				"energy": -0.30631,
				"method": "rhf"
			},
			{
				"type": "occ",
				"energy": -0.25206,
				"method": "rhf"
			},
			{
				"type": "occ",
				"energy": -0.24269,
				"method": "rhf"
			},
			{
				"type": "occ",
				"energy": -0.23206,
				"method": "rhf"
			},
			{
				"type": "occ",
				"energy": -0.20262,
				"method": "rhf"
			},
			{
				"type": "unocc",
				"energy": -0.01932,
				"method": "rhf"
			},
			{
				"type": "unocc",
				"energy": 0.01284,
				"method": "rhf"
			},
			{
				"type": "unocc",
				"energy": 0.0599,
				"method": "rhf"
			},
			{
				"type": "unocc",
				"energy": 0.07373,
				"method": "rhf"
			},
			{
				"type": "unocc",
				"energy": 0.08939,
				"method": "rhf"
			}
		],
		"cosmo_sigma_profile": { 
			"-0.025": 0.0,
			"-0.024": 0.0,
			"-0.023": 0.0,
			"-0.022": 0.0,
			"-0.021": 0.0,
			"-0.02": 0.0,
			"-0.019": 0.0,
			"-0.018": 0.0,
			"-0.017": 0.0,
			"-0.016": 0.0,
			"-0.015": 0.0,
			"-0.014": 0.0,
			"-0.013": 0.373380441722,
			"-0.012": 2.4781957208,
			"-0.011": 3.20761810269,
			"-0.01": 4.93062484769,
			"-0.009": 3.82755625006,
			"-0.008": 3.60420005864,
			"-0.007": 4.02236907011,
			"-0.006": 5.68510206355,
			"-0.005": 9.01463221614,
			"-0.004": 19.0583836188,
			"-0.003": 23.4570622105,
			"-0.002": 25.3769007105,
			"-0.001": 20.9720275804,
			"0.0": 23.1534109259,
			"0.001": 13.7575073424,
			"0.002": 8.91556117072,
			"0.003": 8.52313416764,
			"0.004": 8.36190878707,
			"0.005": 10.9744873041,
			"0.006": 8.91203990616,
			"0.007": 4.01982210422,
			"0.008": 2.54206195582,
			"0.009": 2.31626032862,
			"0.01": 1.94724763954,
			"0.011": 2.54977158387,
			"0.012": 1.97247872269,
			"0.013": 4.27915844723,
			"0.014": 6.11282564299,
			"0.015": 1.58752323952,
			"0.016": 0.0256458900336,
			"0.017": 0.0,
			"0.018": 0.0,
			"0.019": 0.0,
			"0.02": 0.0,
			"0.021": 0.0,
			"0.022": 0.0,
			"0.023": 0.0,
			"0.024": 0.0,
			"0.025": 0.0
		}
	}
}
