{
	 "smiles": "NC1=C2C=NC=CC2=CC=C1", 
	 "Tm": 443.15, 
	 "num_atms": 19, 
	 "gaussian": { 
		 "optdone": 1, 
		 "sigma_profile": "yes", 
		 "theory": "DFT", 
		 "functional": "B3LYP", 
		 "basiset": "6-31G**", 
		 "properties": { 
			 "R2extent": 1770.7108, 
			 "electric_dipole_moment_norm": 2.92888008973, 
			 "electric_quadrupole_moment_norm": 13.429341106, 
			 "total_energy": -457.287954536, 
			 "HOMO_LUMO_gap": 0.15938, 
			 "cosmo_polarized_energy": -11.18, 
			 "cosmo_cavitation_energy": 22.39, 
			 "cosmo_dispersion_energy": -17.1, 
			 "cosmo_repulsion_energy": 1.34, 
			 "cosmo_total_nonelectrostatic_energy": 6.63, 
			 "SMD_solvation_energy": 2.13 
		},
		"coords": [
			{
				"x": 1.8058312386,
				"y": 2.586558638,
				"z": 1.036573563,
				"element": "N" 
			},
			{
				"x": 0.7799799059,
				"y": 1.6520506336,
				"z": 0.9210500929,
				"element": "C" 
			},
			{
				"x": 1.0786886481,
				"y": 0.285353399,
				"z": 0.5940228512,
				"element": "C" 
			},
			{
				"x": 2.3984032193,
				"y": -0.1907880844,
				"z": 0.3734107187,
				"element": "C" 
			},
			{
				"x": 2.7141577538,
				"y": -1.4411839194,
				"z": 0.0942911168,
				"element": "N" 
			},
			{
				"x": 1.6913658096,
				"y": -2.3335703818,
				"z": 0.0057041248,
				"element": "C" 
			},
			{
				"x": 0.367823329,
				"y": -1.9982085483,
				"z": 0.1684190622,
				"element": "C" 
			},
			{
				"x": 0.0094312003,
				"y": -0.6572894477,
				"z": 0.464952274,
				"element": "C" 
			},
			{
				"x": -1.3333801756,
				"y": -0.2316428295,
				"z": 0.626102606,
				"element": "C" 
			},
			{
				"x": -1.5922913522,
				"y": 1.0917512089,
				"z": 0.9083060563,
				"element": "C" 
			},
			{
				"x": -0.5491063329,
				"y": 2.0281173538,
				"z": 1.0629380358,
				"element": "C" 
			},
			{
				"x": 2.6774987079,
				"y": 2.2453070806,
				"z": 1.4157400647,
				"element": "H" 
			},
			{
				"x": 1.5307392403,
				"y": 3.4616874827,
				"z": 1.4607094223,
				"element": "H" 
			},
			{
				"x": 3.236161497,
				"y": 0.5053072486,
				"z": 0.4057778682,
				"element": "H" 
			},
			{
				"x": 1.9799860519,
				"y": -3.3584078275,
				"z": -0.2175451598,
				"element": "H" 
			},
			{
				"x": -0.4079871534,
				"y": -2.7521298725,
				"z": 0.0680612196,
				"element": "H" 
			},
			{
				"x": -2.1390057245,
				"y": -0.951896961,
				"z": 0.5220640258,
				"element": "H" 
			},
			{
				"x": -2.6178042696,
				"y": 1.4292441004,
				"z": 1.0309924247,
				"element": "H" 
			},
			{
				"x": -0.7873915935,
				"y": 3.0608407267,
				"z": 1.3053296328,
				"element": "H" 
			}
		],
		 "valence_orbital": [ 
			{
				"type": "occ",
				"energy": -0.3214,
				"method": "rhf"
			},
			{
				"type": "occ",
				"energy": -0.26582,
				"method": "rhf"
			},
			{
				"type": "occ",
				"energy": -0.25491,
				"method": "rhf"
			},
			{
				"type": "occ",
				"energy": -0.24801,
				"method": "rhf"
			},
			{
				"type": "occ",
				"energy": -0.20077,
				"method": "rhf"
			},
			{
				"type": "unocc",
				"energy": -0.04139,
				"method": "rhf"
			},
			{
				"type": "unocc",
				"energy": -0.0163,
				"method": "rhf"
			},
			{
				"type": "unocc",
				"energy": 0.03892,
				"method": "rhf"
			},
			{
				"type": "unocc",
				"energy": 0.07037,
				"method": "rhf"
			},
			{
				"type": "unocc",
				"energy": 0.0957,
				"method": "rhf"
			}
		],
		"cosmo_sigma_profile": { 
			"-0.025": 0.0,
			"-0.024": 0.0,
			"-0.023": 0.0,
			"-0.022": 0.0,
			"-0.021": 0.0,
			"-0.02": 0.0,
			"-0.019": 0.0,
			"-0.018": 0.0,
			"-0.017": 0.0,
			"-0.016": 0.0,
			"-0.015": 0.0,
			"-0.014": 0.0412398473874,
			"-0.013": 1.60077756982,
			"-0.012": 3.02048101979,
			"-0.011": 3.13965161888,
			"-0.01": 3.23340544543,
			"-0.009": 2.64825494805,
			"-0.008": 3.21236371542,
			"-0.007": 4.01939092919,
			"-0.006": 9.25411841119,
			"-0.005": 12.2663414163,
			"-0.004": 11.7349310817,
			"-0.003": 10.2424408077,
			"-0.002": 8.36136215442,
			"-0.001": 8.70428729999,
			"0.0": 7.49463444426,
			"0.001": 9.11176513032,
			"0.002": 15.0646655248,
			"0.003": 18.6217076152,
			"0.004": 15.936211463,
			"0.005": 10.778925829,
			"0.006": 4.78714784461,
			"0.007": 1.85670888993,
			"0.008": 2.64664873925,
			"0.009": 2.08312615203,
			"0.01": 1.10939939982,
			"0.011": 1.65311229834,
			"0.012": 1.66812193742,
			"0.013": 1.58798368731,
			"0.014": 1.08375441365,
			"0.015": 0.789986165861,
			"0.016": 1.0114923117,
			"0.017": 0.605011009964,
			"0.018": 0.0299503832655,
			"0.019": 0.0,
			"0.02": 0.0,
			"0.021": 0.0,
			"0.022": 0.0,
			"0.023": 0.0,
			"0.024": 0.0,
			"0.025": 0.0
		}
	}
}
