{
	 "smiles": "O=C1CCCC1C1CCCC1", 
	 "Tm": 260.15, 
	 "num_atms": 27, 
	 "gaussian": { 
		 "optdone": 1, 
		 "sigma_profile": "yes", 
		 "theory": "DFT", 
		 "functional": "B3LYP", 
		 "basiset": "6-31G**", 
		 "properties": { 
			 "R2extent": 2321.4949, 
			 "electric_dipole_moment_norm": 2.59006920564, 
			 "electric_quadrupole_moment_norm": 10.0737331764, 
			 "total_energy": -465.940656166, 
			 "HOMO_LUMO_gap": 0.2147, 
			 "cosmo_polarized_energy": -5.98, 
			 "cosmo_cavitation_energy": 26.51, 
			 "cosmo_dispersion_energy": -19.65, 
			 "cosmo_repulsion_energy": 1.59, 
			 "cosmo_total_nonelectrostatic_energy": 8.45, 
			 "SMD_solvation_energy": 3.91 
		},
		"coords": [
			{
				"x": -1.2337657033,
				"y": -0.2198032917,
				"z": 3.1965370226,
				"element": "O" 
			},
			{
				"x": -0.59036643,
				"y": 0.5795260326,
				"z": 2.5471752848,
				"element": "C" 
			},
			{
				"x": -1.0058254531,
				"y": 2.0291561698,
				"z": 2.2817065551,
				"element": "C" 
			},
			{
				"x": -0.1081993433,
				"y": 2.4913632377,
				"z": 1.1255886631,
				"element": "C" 
			},
			{
				"x": 1.1985905609,
				"y": 1.684756733,
				"z": 1.3194844312,
				"element": "C" 
			},
			{
				"x": 0.7682250937,
				"y": 0.3043496182,
				"z": 1.87253746,
				"element": "C" 
			},
			{
				"x": 0.7007570493,
				"y": -0.8225057491,
				"z": 0.8091953239,
				"element": "C" 
			},
			{
				"x": -0.38830455,
				"y": -0.7087072697,
				"z": -0.2772578968,
				"element": "C" 
			},
			{
				"x": -0.356495739,
				"y": -2.0941282931,
				"z": -0.9443803383,
				"element": "C" 
			},
			{
				"x": -0.1123772202,
				"y": -3.0874074156,
				"z": 0.2229236194,
				"element": "C" 
			},
			{
				"x": 0.474581139,
				"y": -2.2404201306,
				"z": 1.3888632088,
				"element": "C" 
			},
			{
				"x": -2.0823029318,
				"y": 2.1009103695,
				"z": 2.1044707727,
				"element": "H" 
			},
			{
				"x": -0.7925093605,
				"y": 2.5973640877,
				"z": 3.1985541281,
				"element": "H" 
			},
			{
				"x": -0.5733121007,
				"y": 2.2336510224,
				"z": 0.1678232423,
				"element": "H" 
			},
			{
				"x": 0.0647052251,
				"y": 3.571256893,
				"z": 1.1202433597,
				"element": "H" 
			},
			{
				"x": 1.8343504406,
				"y": 2.1953690467,
				"z": 2.0526762889,
				"element": "H" 
			},
			{
				"x": 1.7798027352,
				"y": 1.6026813672,
				"z": 0.3956481056,
				"element": "H" 
			},
			{
				"x": 1.4572612237,
				"y": -0.0392922515,
				"z": 2.6544267541,
				"element": "H" 
			},
			{
				"x": 1.6735626384,
				"y": -0.812381303,
				"z": 0.2950401987,
				"element": "H" 
			},
			{
				"x": -1.3684130197,
				"y": -0.5430865736,
				"z": 0.1897569665,
				"element": "H" 
			},
			{
				"x": -0.2145934535,
				"y": 0.1083144634,
				"z": -0.9858167523,
				"element": "H" 
			},
			{
				"x": -1.2674106712,
				"y": -2.3162447123,
				"z": -1.5089489216,
				"element": "H" 
			},
			{
				"x": 0.4776248181,
				"y": -2.135030535,
				"z": -1.6557020372,
				"element": "H" 
			},
			{
				"x": -1.0501446373,
				"y": -3.5605130483,
				"z": 0.5312921928,
				"element": "H" 
			},
			{
				"x": 0.5607601836,
				"y": -3.8959356072,
				"z": -0.0788444096,
				"element": "H" 
			},
			{
				"x": -0.2354639239,
				"y": -2.1811636879,
				"z": 2.2175939735,
				"element": "H" 
			},
			{
				"x": 1.4039634298,
				"y": -2.6601791725,
				"z": 1.7888128043,
				"element": "H" 
			}
		],
		 "valence_orbital": [ 
			{
				"type": "occ",
				"energy": -0.32188,
				"method": "rhf"
			},
			{
				"type": "occ",
				"energy": -0.31164,
				"method": "rhf"
			},
			{
				"type": "occ",
				"energy": -0.30873,
				"method": "rhf"
			},
			{
				"type": "occ",
				"energy": -0.30602,
				"method": "rhf"
			},
			{
				"type": "occ",
				"energy": -0.23195,
				"method": "rhf"
			},
			{
				"type": "unocc",
				"energy": -0.01725,
				"method": "rhf"
			},
			{
				"type": "unocc",
				"energy": 0.07479,
				"method": "rhf"
			},
			{
				"type": "unocc",
				"energy": 0.09366,
				"method": "rhf"
			},
			{
				"type": "unocc",
				"energy": 0.105,
				"method": "rhf"
			},
			{
				"type": "unocc",
				"energy": 0.10957,
				"method": "rhf"
			}
		],
		"cosmo_sigma_profile": { 
			"-0.025": 0.0,
			"-0.024": 0.0,
			"-0.023": 0.0,
			"-0.022": 0.0,
			"-0.021": 0.0,
			"-0.02": 0.0,
			"-0.019": 0.0,
			"-0.018": 0.0,
			"-0.017": 0.0,
			"-0.016": 0.0,
			"-0.015": 0.0,
			"-0.014": 0.0,
			"-0.013": 0.0,
			"-0.012": 0.0,
			"-0.011": 0.0,
			"-0.01": 0.0,
			"-0.009": 0.0,
			"-0.008": 0.0,
			"-0.007": 0.0,
			"-0.006": 1.48790521274,
			"-0.005": 5.17356724115,
			"-0.004": 9.23260244766,
			"-0.003": 21.9616672956,
			"-0.002": 38.0573062563,
			"-0.001": 36.7898956834,
			"0.0": 34.0694447279,
			"0.001": 20.9438769757,
			"0.002": 12.3669447789,
			"0.003": 2.58685071995,
			"0.004": 1.8449578525,
			"0.005": 1.78267075681,
			"0.006": 1.62266746877,
			"0.007": 2.426687897,
			"0.008": 1.41543475097,
			"0.009": 1.56657024073,
			"0.01": 2.08322407002,
			"0.011": 2.56534713646,
			"0.012": 4.41871377217,
			"0.013": 1.84308033577,
			"0.014": 0.289322549414,
			"0.015": 0.0,
			"0.016": 0.0,
			"0.017": 0.0,
			"0.018": 0.0,
			"0.019": 0.0,
			"0.02": 0.0,
			"0.021": 0.0,
			"0.022": 0.0,
			"0.023": 0.0,
			"0.024": 0.0,
			"0.025": 0.0
		}
	}
}
