{
	 "smiles": "OC(=O)C1=C(C=CC(=C1)S(=O)(=O)N1CCCCC1)N1CCCC1", 
	 "Tm": 394.15, 
	 "num_atms": 45, 
	 "gaussian": { 
		 "optdone": 1, 
		 "sigma_profile": "yes", 
		 "theory": "DFT", 
		 "functional": "B3LYP", 
		 "basiset": "6-31G**", 
		 "properties": { 
			 "R2extent": 10392.2736, 
			 "electric_dipole_moment_norm": 5.96201658334, 
			 "electric_quadrupole_moment_norm": 41.3104883142, 
			 "total_energy": -1431.48977404, 
			 "HOMO_LUMO_gap": 0.18555, 
			 "cosmo_polarized_energy": -22.39, 
			 "cosmo_cavitation_energy": 46.45, 
			 "cosmo_dispersion_energy": -32.45, 
			 "cosmo_repulsion_energy": 2.43, 
			 "cosmo_total_nonelectrostatic_energy": 16.43, 
			 "SMD_solvation_energy": 7.28 
		},
		"coords": [
			{
				"x": -2.9196145968,
				"y": -2.7184705814,
				"z": -0.281980002,
				"element": "O" 
			},
			{
				"x": -2.5323048479,
				"y": -1.6547952409,
				"z": 0.4237180398,
				"element": "C" 
			},
			{
				"x": -3.155599882,
				"y": -1.2460530238,
				"z": 1.3816099608,
				"element": "O" 
			},
			{
				"x": -1.2535065678,
				"y": -0.9698067841,
				"z": -0.0289683745,
				"element": "C" 
			},
			{
				"x": -0.4494124449,
				"y": -1.3927725316,
				"z": -1.1078379571,
				"element": "C" 
			},
			{
				"x": 0.7241777485,
				"y": -0.6934712553,
				"z": -1.4167291438,
				"element": "C" 
			},
			{
				"x": 1.1075778866,
				"y": 0.4202465626,
				"z": -0.6749562886,
				"element": "C" 
			},
			{
				"x": 0.3012107676,
				"y": 0.8389340775,
				"z": 0.3858226074,
				"element": "C" 
			},
			{
				"x": -0.8667629785,
				"y": 0.1564309584,
				"z": 0.7062477402,
				"element": "C" 
			},
			{
				"x": 0.7572999092,
				"y": 2.3385138914,
				"z": 1.2755254048,
				"element": "S" 
			},
			{
				"x": 2.1955100946,
				"y": 2.5294728525,
				"z": 1.0300347285,
				"element": "O" 
			},
			{
				"x": -0.1949640811,
				"y": 3.4001611346,
				"z": 0.9356778132,
				"element": "O" 
			},
			{
				"x": 0.4565638553,
				"y": 1.9252520795,
				"z": 2.8672529168,
				"element": "N" 
			},
			{
				"x": 1.4567015932,
				"y": 1.0755088852,
				"z": 3.5575696221,
				"element": "C" 
			},
			{
				"x": 1.9228422934,
				"y": 1.7335059415,
				"z": 4.8592171113,
				"element": "C" 
			},
			{
				"x": 0.7434326541,
				"y": 1.9793380533,
				"z": 5.8259028142,
				"element": "C" 
			},
			{
				"x": -0.5697486948,
				"y": 2.2631815864,
				"z": 5.0580462505,
				"element": "C" 
			},
			{
				"x": -0.3055920742,
				"y": 2.8960862757,
				"z": 3.6907756854,
				"element": "C" 
			},
			{
				"x": -0.8512036131,
				"y": -2.5499696476,
				"z": -1.8803065327,
				"element": "N" 
			},
			{
				"x": -1.1364623235,
				"y": -2.3043903254,
				"z": -3.3144027421,
				"element": "C" 
			},
			{
				"x": -1.3090086252,
				"y": -3.7218822667,
				"z": -3.8885890218,
				"element": "C" 
			},
			{
				"x": -0.4978900158,
				"y": -4.6456595095,
				"z": -2.9320900073,
				"element": "C" 
			},
			{
				"x": 0.0812773272,
				"y": -3.702033739,
				"z": -1.8621785165,
				"element": "C" 
			},
			{
				"x": -2.2380863462,
				"y": -2.858355898,
				"z": -1.0097926553,
				"element": "H" 
			},
			{
				"x": 1.3463366811,
				"y": -1.0234529409,
				"z": -2.2430265053,
				"element": "H" 
			},
			{
				"x": 2.0208465377,
				"y": 0.9596987257,
				"z": -0.9003459141,
				"element": "H" 
			},
			{
				"x": -1.4945680549,
				"y": 0.4634330992,
				"z": 1.5347533137,
				"element": "H" 
			},
			{
				"x": 1.0099783573,
				"y": 0.0936250568,
				"z": 3.7636207662,
				"element": "H" 
			},
			{
				"x": 2.3071534245,
				"y": 0.9222028845,
				"z": 2.8894145216,
				"element": "H" 
			},
			{
				"x": 2.6854613203,
				"y": 1.1029016111,
				"z": 5.3288839939,
				"element": "H" 
			},
			{
				"x": 2.4124895212,
				"y": 2.6806654384,
				"z": 4.6062155778,
				"element": "H" 
			},
			{
				"x": 0.6010730067,
				"y": 1.1093741774,
				"z": 6.4765931256,
				"element": "H" 
			},
			{
				"x": 0.986986328,
				"y": 2.8207718026,
				"z": 6.4839724803,
				"element": "H" 
			},
			{
				"x": -1.1298849002,
				"y": 1.3336738143,
				"z": 4.9041759209,
				"element": "H" 
			},
			{
				"x": -1.2203958214,
				"y": 2.9282963369,
				"z": 5.635120593,
				"element": "H" 
			},
			{
				"x": 0.2432626685,
				"y": 3.84076461,
				"z": 3.8101148153,
				"element": "H" 
			},
			{
				"x": -1.2381298975,
				"y": 3.1252128332,
				"z": 3.1739815273,
				"element": "H" 
			},
			{
				"x": -2.0256725352,
				"y": -1.6760887607,
				"z": -3.4138525129,
				"element": "H" 
			},
			{
				"x": -0.2974136548,
				"y": -1.7826513611,
				"z": -3.7990225415,
				"element": "H" 
			},
			{
				"x": -2.3641854388,
				"y": -4.0072822651,
				"z": -3.891264334,
				"element": "H" 
			},
			{
				"x": -0.9547437267,
				"y": -3.7734790351,
				"z": -4.92114369,
				"element": "H" 
			},
			{
				"x": -1.1534774851,
				"y": -5.3896368255,
				"z": -2.4721856951,
				"element": "H" 
			},
			{
				"x": 0.2978666549,
				"y": -5.1878475468,
				"z": -3.4490083369,
				"element": "H" 
			},
			{
				"x": 1.1020339145,
				"y": -3.3869760446,
				"z": -2.1266056259,
				"element": "H" 
			},
			{
				"x": 0.1128460624,
				"y": -4.1381771058,
				"z": -0.8599609335,
				"element": "H" 
			}
		],
		 "valence_orbital": [ 
			{
				"type": "occ",
				"energy": -0.27517,
				"method": "rhf"
			},
			{
				"type": "occ",
				"energy": -0.2741,
				"method": "rhf"
			},
			{
				"type": "occ",
				"energy": -0.26564,
				"method": "rhf"
			},
			{
				"type": "occ",
				"energy": -0.26135,
				"method": "rhf"
			},
			{
				"type": "occ",
				"energy": -0.24226,
				"method": "rhf"
			},
			{
				"type": "unocc",
				"energy": -0.05671,
				"method": "rhf"
			},
			{
				"type": "unocc",
				"energy": -0.04235,
				"method": "rhf"
			},
			{
				"type": "unocc",
				"energy": 0.04315,
				"method": "rhf"
			},
			{
				"type": "unocc",
				"energy": 0.05366,
				"method": "rhf"
			},
			{
				"type": "unocc",
				"energy": 0.06182,
				"method": "rhf"
			}
		],
		"cosmo_sigma_profile": { 
			"-0.025": 0.0,
			"-0.024": 0.0,
			"-0.023": 0.0,
			"-0.022": 0.0,
			"-0.021": 0.0,
			"-0.02": 0.0,
			"-0.019": 0.0,
			"-0.018": 0.0,
			"-0.017": 0.0,
			"-0.016": 0.0,
			"-0.015": 0.0,
			"-0.014": 0.0,
			"-0.013": 0.0,
			"-0.012": 0.0,
			"-0.011": 0.0,
			"-0.01": 0.0,
			"-0.009": 0.139470072196,
			"-0.008": 3.04418085564,
			"-0.007": 6.21577964792,
			"-0.006": 7.45479603442,
			"-0.005": 17.6626802396,
			"-0.004": 41.3006485655,
			"-0.003": 62.7784744047,
			"-0.002": 55.5649940179,
			"-0.001": 34.8000686993,
			"0.0": 35.1067271083,
			"0.001": 17.8921567873,
			"0.002": 7.12233555421,
			"0.003": 5.2703935248,
			"0.004": 5.01554856036,
			"0.005": 5.2011973636,
			"0.006": 3.63235111067,
			"0.007": 5.40342552927,
			"0.008": 5.23328525669,
			"0.009": 6.77728719662,
			"0.01": 8.39086755629,
			"0.011": 13.9669229812,
			"0.012": 12.1808503485,
			"0.013": 3.35126579479,
			"0.014": 1.15921993406,
			"0.015": 0.0174632483616,
			"0.016": 0.0,
			"0.017": 0.0,
			"0.018": 0.0,
			"0.019": 0.0,
			"0.02": 0.0,
			"0.021": 0.0,
			"0.022": 0.0,
			"0.023": 0.0,
			"0.024": 0.0,
			"0.025": 0.0
		}
	}
}
