{
	 "smiles": "CSC1=NC2=C(S1)C(=O)N=CN2", 
	 "Tm": 543.15, 
	 "num_atms": 17, 
	 "gaussian": { 
		 "optdone": 1, 
		 "sigma_profile": "yes", 
		 "theory": "DFT", 
		 "functional": "B3LYP", 
		 "basiset": "6-31G**", 
		 "properties": { 
			 "R2extent": 3266.2916, 
			 "electric_dipole_moment_norm": 7.88438914501, 
			 "electric_quadrupole_moment_norm": 14.8813153414, 
			 "total_energy": -1267.50255424, 
			 "HOMO_LUMO_gap": 0.17054, 
			 "cosmo_polarized_energy": -22.48, 
			 "cosmo_cavitation_energy": 25.26, 
			 "cosmo_dispersion_energy": -19.96, 
			 "cosmo_repulsion_energy": 1.49, 
			 "cosmo_total_nonelectrostatic_energy": 6.79, 
			 "SMD_solvation_energy": 2.17 
		},
		"coords": [
			{
				"x": -3.8007769271,
				"y": -1.0860858175,
				"z": -1.5022145371,
				"element": "C" 
			},
			{
				"x": -3.2799977593,
				"y": 0.6188395654,
				"z": -1.8982257418,
				"element": "S" 
			},
			{
				"x": -1.8650550289,
				"y": 0.7559613787,
				"z": -0.869143473,
				"element": "C" 
			},
			{
				"x": -1.42604827,
				"y": -0.1995896008,
				"z": -0.0829129647,
				"element": "N" 
			},
			{
				"x": -0.3128428706,
				"y": 0.2473559795,
				"z": 0.5682043784,
				"element": "C" 
			},
			{
				"x": 0.1290593958,
				"y": 1.5249579256,
				"z": 0.312102822,
				"element": "C" 
			},
			{
				"x": -0.9392788037,
				"y": 2.2587216136,
				"z": -0.8569421496,
				"element": "S" 
			},
			{
				"x": 1.3065242833,
				"y": 2.0996070889,
				"z": 0.9535636807,
				"element": "C" 
			},
			{
				"x": 1.7198649003,
				"y": 3.2290082858,
				"z": 0.7439944511,
				"element": "O" 
			},
			{
				"x": 1.9503462369,
				"y": 1.2171616348,
				"z": 1.8634179481,
				"element": "N" 
			},
			{
				"x": 1.493291714,
				"y": 0.0281291478,
				"z": 2.0663271162,
				"element": "C" 
			},
			{
				"x": 0.3861289558,
				"y": -0.5234415126,
				"z": 1.4688481969,
				"element": "N" 
			},
			{
				"x": -4.6921962816,
				"y": -1.2675636947,
				"z": -2.1055484885,
				"element": "H" 
			},
			{
				"x": -3.0158714112,
				"y": -1.7944378519,
				"z": -1.7676378995,
				"element": "H" 
			},
			{
				"x": -4.0392952365,
				"y": -1.1738787637,
				"z": -0.4421736649,
				"element": "H" 
			},
			{
				"x": 2.0029335761,
				"y": -0.6311897864,
				"z": 2.7684054715,
				"element": "H" 
			},
			{
				"x": 0.0804135268,
				"y": -1.4645555925,
				"z": 1.672734854,
				"element": "H" 
			}
		],
		 "valence_orbital": [ 
			{
				"type": "occ",
				"energy": -0.29999,
				"method": "rhf"
			},
			{
				"type": "occ",
				"energy": -0.28192,
				"method": "rhf"
			},
			{
				"type": "occ",
				"energy": -0.2685,
				"method": "rhf"
			},
			{
				"type": "occ",
				"energy": -0.24315,
				"method": "rhf"
			},
			{
				"type": "occ",
				"energy": -0.22685,
				"method": "rhf"
			},
			{
				"type": "unocc",
				"energy": -0.05631,
				"method": "rhf"
			},
			{
				"type": "unocc",
				"energy": -0.02774,
				"method": "rhf"
			},
			{
				"type": "unocc",
				"energy": -0.01276,
				"method": "rhf"
			},
			{
				"type": "unocc",
				"energy": 0.01731,
				"method": "rhf"
			},
			{
				"type": "unocc",
				"energy": 0.01799,
				"method": "rhf"
			}
		],
		"cosmo_sigma_profile": { 
			"-0.025": 0.0,
			"-0.024": 0.0,
			"-0.023": 0.0,
			"-0.022": 0.0,
			"-0.021": 0.0,
			"-0.02": 0.0,
			"-0.019": 0.076472698546,
			"-0.018": 1.3748341454,
			"-0.017": 2.1604231314,
			"-0.016": 0.951488123044,
			"-0.015": 0.811314279956,
			"-0.014": 1.4350843025,
			"-0.013": 1.50595099791,
			"-0.012": 1.11294108332,
			"-0.011": 2.00566965553,
			"-0.01": 2.822781461,
			"-0.009": 1.91350295494,
			"-0.008": 4.80434978783,
			"-0.007": 5.2016991665,
			"-0.006": 7.6879463623,
			"-0.005": 8.64938340422,
			"-0.004": 11.151154642,
			"-0.003": 17.6348340821,
			"-0.002": 18.8530939076,
			"-0.001": 16.2933840687,
			"0.0": 17.76546168,
			"0.001": 14.04817349,
			"0.002": 11.9463530252,
			"0.003": 8.76491866753,
			"0.004": 5.96201026882,
			"0.005": 5.90981086985,
			"0.006": 4.30413997704,
			"0.007": 3.82247376231,
			"0.008": 2.50610892214,
			"0.009": 2.43065298122,
			"0.01": 1.92018169192,
			"0.011": 2.54125847394,
			"0.012": 3.10666174074,
			"0.013": 5.98589254088,
			"0.014": 4.63080272818,
			"0.015": 3.4272269401,
			"0.016": 2.06093716042,
			"0.017": 0.0119307849762,
			"0.018": 0.0,
			"0.019": 0.0,
			"0.02": 0.0,
			"0.021": 0.0,
			"0.022": 0.0,
			"0.023": 0.0,
			"0.024": 0.0,
			"0.025": 0.0
		}
	}
}
