{
	 "smiles": "CC(OC1=CC=C(Br)C=C1)C(O)=O", 
	 "Tm": 392.15, 
	 "num_atms": 22, 
	 "gaussian": { 
		 "optdone": 1, 
		 "sigma_profile": "yes", 
		 "theory": "DFT", 
		 "functional": "B3LYP", 
		 "basiset": "6-31G**", 
		 "properties": { 
			 "R2extent": 6450.8051, 
			 "electric_dipole_moment_norm": 3.68638622773, 
			 "electric_quadrupole_moment_norm": 10.8859758162, 
			 "total_energy": -3145.45739754, 
			 "HOMO_LUMO_gap": 0.2154, 
			 "cosmo_polarized_energy": -11.1, 
			 "cosmo_cavitation_energy": 28.63, 
			 "cosmo_dispersion_energy": -21.03, 
			 "cosmo_repulsion_energy": 1.68, 
			 "cosmo_total_nonelectrostatic_energy": 9.28, 
			 "SMD_solvation_energy": 5.06 
		},
		"coords": [
			{
				"x": 0.2225086818,
				"y": 0.1320901969,
				"z": 1.2989971097,
				"element": "C" 
			},
			{
				"x": 0.2720346972,
				"y": -1.3930906824,
				"z": 1.1448776874,
				"element": "C" 
			},
			{
				"x": 0.7572129386,
				"y": -1.8513471682,
				"z": -0.1127963854,
				"element": "O" 
			},
			{
				"x": 0.4764666772,
				"y": -1.1698501321,
				"z": -1.2816594288,
				"element": "C" 
			},
			{
				"x": 1.5712320413,
				"y": -0.7098832344,
				"z": -2.0198602796,
				"element": "C" 
			},
			{
				"x": 1.3782250085,
				"y": -0.0751066095,
				"z": -3.2459008298,
				"element": "C" 
			},
			{
				"x": 0.0803745638,
				"y": 0.1049825911,
				"z": -3.7211873416,
				"element": "C" 
			},
			{
				"x": -0.1957260321,
				"y": 0.987715053,
				"z": -5.3960095201,
				"element": "Br" 
			},
			{
				"x": -1.0181425634,
				"y": -0.3542362266,
				"z": -2.9967670184,
				"element": "C" 
			},
			{
				"x": -0.8213826328,
				"y": -1.0016340123,
				"z": -1.7761073481,
				"element": "C" 
			},
			{
				"x": -1.074217909,
				"y": -2.0308816492,
				"z": 1.5029924764,
				"element": "C" 
			},
			{
				"x": -1.2911825376,
				"y": -1.9341032966,
				"z": 2.8365081626,
				"element": "O" 
			},
			{
				"x": -1.8607257771,
				"y": -2.5525799745,
				"z": 0.7471473483,
				"element": "O" 
			},
			{
				"x": -0.0387873036,
				"y": 0.3859804204,
				"z": 2.3288250664,
				"element": "H" 
			},
			{
				"x": -0.513896302,
				"y": 0.5819844754,
				"z": 0.6290166879,
				"element": "H" 
			},
			{
				"x": 1.2031994354,
				"y": 0.5562086238,
				"z": 1.0688992257,
				"element": "H" 
			},
			{
				"x": 0.990301251,
				"y": -1.7898861156,
				"z": 1.8710705585,
				"element": "H" 
			},
			{
				"x": 2.5706012286,
				"y": -0.8624401109,
				"z": -1.6255767697,
				"element": "H" 
			},
			{
				"x": 2.2258464034,
				"y": 0.2802780227,
				"z": -3.8207008374,
				"element": "H" 
			},
			{
				"x": -2.0210904586,
				"y": -0.22067403,
				"z": -3.3863295427,
				"element": "H" 
			},
			{
				"x": -1.6602033293,
				"y": -1.4010311162,
				"z": -1.2192692236,
				"element": "H" 
			},
			{
				"x": -2.1594480812,
				"y": -2.3379950248,
				"z": 3.0042302024,
				"element": "H" 
			}
		],
		 "valence_orbital": [ 
			{
				"type": "occ",
				"energy": -0.29557,
				"method": "rhf"
			},
			{
				"type": "occ",
				"energy": -0.28428,
				"method": "rhf"
			},
			{
				"type": "occ",
				"energy": -0.27893,
				"method": "rhf"
			},
			{
				"type": "occ",
				"energy": -0.26173,
				"method": "rhf"
			},
			{
				"type": "occ",
				"energy": -0.22863,
				"method": "rhf"
			},
			{
				"type": "unocc",
				"energy": -0.01323,
				"method": "rhf"
			},
			{
				"type": "unocc",
				"energy": -0.00844,
				"method": "rhf"
			},
			{
				"type": "unocc",
				"energy": -0.00621,
				"method": "rhf"
			},
			{
				"type": "unocc",
				"energy": 0.01121,
				"method": "rhf"
			},
			{
				"type": "unocc",
				"energy": 0.06378,
				"method": "rhf"
			}
		],
		"cosmo_sigma_profile": { 
			"-0.025": 0.0,
			"-0.024": 0.0,
			"-0.023": 0.0,
			"-0.022": 0.0,
			"-0.021": 0.0,
			"-0.02": 0.0,
			"-0.019": 0.132356393323,
			"-0.018": 1.44698043578,
			"-0.017": 0.242048639699,
			"-0.016": 1.14977181169,
			"-0.015": 0.894275091029,
			"-0.014": 0.550307835009,
			"-0.013": 0.373205308035,
			"-0.012": 1.08415977344,
			"-0.011": 0.7758141825,
			"-0.01": 0.673181963598,
			"-0.009": 0.440680893091,
			"-0.008": 1.53619306798,
			"-0.007": 8.12095543814,
			"-0.006": 7.80503736735,
			"-0.005": 13.5212099711,
			"-0.004": 16.2491279957,
			"-0.003": 16.7665113888,
			"-0.002": 17.8042957488,
			"-0.001": 18.182690768,
			"0.0": 14.1354619388,
			"0.001": 13.3912614726,
			"0.002": 18.2091808645,
			"0.003": 24.3118318906,
			"0.004": 17.4139108589,
			"0.005": 11.5190003873,
			"0.006": 2.86590536195,
			"0.007": 4.50736375359,
			"0.008": 4.18080222784,
			"0.009": 4.80007321263,
			"0.01": 4.4382649957,
			"0.011": 3.26873263467,
			"0.012": 0.413671738901,
			"0.013": 0.0,
			"0.014": 0.0,
			"0.015": 0.0,
			"0.016": 0.0,
			"0.017": 0.0,
			"0.018": 0.0,
			"0.019": 0.0,
			"0.02": 0.0,
			"0.021": 0.0,
			"0.022": 0.0,
			"0.023": 0.0,
			"0.024": 0.0,
			"0.025": 0.0
		}
	}
}
