{
	 "smiles": "OC(=O)CSC1=NN=CS1", 
	 "Tm": 431.15, 
	 "num_atms": 14, 
	 "gaussian": { 
		 "optdone": 1, 
		 "sigma_profile": "yes", 
		 "theory": "DFT", 
		 "functional": "B3LYP", 
		 "basiset": "6-31G**", 
		 "properties": { 
			 "R2extent": 2735.4586, 
			 "electric_dipole_moment_norm": 5.58058305556, 
			 "electric_quadrupole_moment_norm": 11.2885145484, 
			 "total_energy": -1211.11981374, 
			 "HOMO_LUMO_gap": 0.2015, 
			 "cosmo_polarized_energy": -17.89, 
			 "cosmo_cavitation_energy": 22.51, 
			 "cosmo_dispersion_energy": -17.51, 
			 "cosmo_repulsion_energy": 1.34, 
			 "cosmo_total_nonelectrostatic_energy": 6.34, 
			 "SMD_solvation_energy": 3.46 
		},
		"coords": [
			{
				"x": -0.1154081584,
				"y": 0.8685015578,
				"z": -0.9863148027,
				"element": "O" 
			},
			{
				"x": -0.2285509461,
				"y": -0.3593846266,
				"z": -1.521562517,
				"element": "C" 
			},
			{
				"x": -1.1186390258,
				"y": -0.6503957424,
				"z": -2.2778716817,
				"element": "O" 
			},
			{
				"x": 0.8611935088,
				"y": -1.3914863906,
				"z": -1.1911053039,
				"element": "C" 
			},
			{
				"x": 2.0307701644,
				"y": -0.9849512622,
				"z": 0.164447881,
				"element": "S" 
			},
			{
				"x": 1.0242274117,
				"y": -1.390842245,
				"z": 1.5597857593,
				"element": "C" 
			},
			{
				"x": -0.2057781989,
				"y": -1.8132843843,
				"z": 1.4820437631,
				"element": "N" 
			},
			{
				"x": -0.7605032131,
				"y": -2.0636143432,
				"z": 2.7111797852,
				"element": "N" 
			},
			{
				"x": 0.0567993398,
				"y": -1.8219940752,
				"z": 3.6885245159,
				"element": "C" 
			},
			{
				"x": 1.6371295064,
				"y": -1.2519718622,
				"z": 3.198724093,
				"element": "S" 
			},
			{
				"x": 0.6619675084,
				"y": 0.9022818638,
				"z": -0.4019747102,
				"element": "H" 
			},
			{
				"x": 1.4915723205,
				"y": -1.5172946558,
				"z": -2.0763875437,
				"element": "H" 
			},
			{
				"x": 0.3724045763,
				"y": -2.3407124061,
				"z": -0.972886334,
				"element": "H" 
			},
			{
				"x": -0.2019847941,
				"y": -1.957851428,
				"z": 4.7310970955,
				"element": "H" 
			}
		],
		 "valence_orbital": [ 
			{
				"type": "occ",
				"energy": -0.31958,
				"method": "rhf"
			},
			{
				"type": "occ",
				"energy": -0.31914,
				"method": "rhf"
			},
			{
				"type": "occ",
				"energy": -0.29129,
				"method": "rhf"
			},
			{
				"type": "occ",
				"energy": -0.2838,
				"method": "rhf"
			},
			{
				"type": "occ",
				"energy": -0.26051,
				"method": "rhf"
			},
			{
				"type": "unocc",
				"energy": -0.05901,
				"method": "rhf"
			},
			{
				"type": "unocc",
				"energy": -0.02851,
				"method": "rhf"
			},
			{
				"type": "unocc",
				"energy": -0.00504,
				"method": "rhf"
			},
			{
				"type": "unocc",
				"energy": 0.00131,
				"method": "rhf"
			},
			{
				"type": "unocc",
				"energy": 0.00676,
				"method": "rhf"
			}
		],
		"cosmo_sigma_profile": { 
			"-0.025": 0.0,
			"-0.024": 0.0,
			"-0.023": 0.0,
			"-0.022": 0.0,
			"-0.021": 0.0,
			"-0.02": 0.0,
			"-0.019": 0.0,
			"-0.018": 0.0,
			"-0.017": 0.0,
			"-0.016": 0.0,
			"-0.015": 0.369539495722,
			"-0.014": 0.713782846802,
			"-0.013": 0.405707359222,
			"-0.012": 2.4741882998,
			"-0.011": 5.90847486675,
			"-0.01": 6.59639216769,
			"-0.009": 6.05528631741,
			"-0.008": 5.13874026081,
			"-0.007": 5.54588696636,
			"-0.006": 7.56064244612,
			"-0.005": 8.48809233445,
			"-0.004": 9.36837781362,
			"-0.003": 9.7375513468,
			"-0.002": 14.0068617222,
			"-0.001": 13.0053685839,
			"0.0": 11.4439370834,
			"0.001": 11.1816300948,
			"0.002": 6.30496251858,
			"0.003": 5.58822097918,
			"0.004": 6.87375201802,
			"0.005": 4.48672613237,
			"0.006": 4.03416679033,
			"0.007": 5.20942022267,
			"0.008": 5.81364412218,
			"0.009": 6.29054290235,
			"0.01": 7.60924003286,
			"0.011": 7.7725413698,
			"0.012": 5.00899062134,
			"0.013": 1.76656619597,
			"0.014": 0.622400186577,
			"0.015": 0.0,
			"0.016": 0.0,
			"0.017": 0.0,
			"0.018": 0.0,
			"0.019": 0.0,
			"0.02": 0.0,
			"0.021": 0.0,
			"0.022": 0.0,
			"0.023": 0.0,
			"0.024": 0.0,
			"0.025": 0.0
		}
	}
}
