{
	 "smiles": "COC1=CC(CN2C=CC3=C2C=C(N)C=C3)=CC=C1", 
	 "Tm": 333.15, 
	 "num_atms": 35, 
	 "gaussian": { 
		 "optdone": 1, 
		 "sigma_profile": "yes", 
		 "theory": "DFT", 
		 "functional": "B3LYP", 
		 "basiset": "6-31G**", 
		 "properties": { 
			 "R2extent": 6038.0887, 
			 "electric_dipole_moment_norm": 1.24856290991, 
			 "electric_quadrupole_moment_norm": 11.8916313835, 
			 "total_energy": -804.065489235, 
			 "HOMO_LUMO_gap": 0.17272, 
			 "cosmo_polarized_energy": -14.3, 
			 "cosmo_cavitation_energy": 38.36, 
			 "cosmo_dispersion_energy": -26.36, 
			 "cosmo_repulsion_energy": 2.05, 
			 "cosmo_total_nonelectrostatic_energy": 14.04, 
			 "SMD_solvation_energy": 7.06 
		},
		"coords": [
			{
				"x": -1.5790072404,
				"y": -2.5318883698,
				"z": -2.1330723212,
				"element": "C" 
			},
			{
				"x": -0.2487598871,
				"y": -2.6890635275,
				"z": -2.6040280282,
				"element": "O" 
			},
			{
				"x": 0.5272004384,
				"y": -1.5745610012,
				"z": -2.7337351679,
				"element": "C" 
			},
			{
				"x": 0.0883113379,
				"y": -0.2727187674,
				"z": -2.4681730397,
				"element": "C" 
			},
			{
				"x": 0.9676888679,
				"y": 0.8059929866,
				"z": -2.6226167093,
				"element": "C" 
			},
			{
				"x": 0.4935277868,
				"y": 2.2349562838,
				"z": -2.386102725,
				"element": "C" 
			},
			{
				"x": -0.6169107668,
				"y": 2.3737657492,
				"z": -1.464240007,
				"element": "N" 
			},
			{
				"x": -1.9275557279,
				"y": 2.6865101054,
				"z": -1.8146725101,
				"element": "C" 
			},
			{
				"x": -2.7126299434,
				"y": 2.7374752354,
				"z": -0.6956261911,
				"element": "C" 
			},
			{
				"x": -1.8630172644,
				"y": 2.4430722077,
				"z": 0.426175964,
				"element": "C" 
			},
			{
				"x": -0.5579949967,
				"y": 2.2156918549,
				"z": -0.0907128697,
				"element": "C" 
			},
			{
				"x": 0.5354046296,
				"y": 1.9002938562,
				"z": 0.7245107573,
				"element": "C" 
			},
			{
				"x": 0.3204612004,
				"y": 1.8133964691,
				"z": 2.1024847851,
				"element": "C" 
			},
			{
				"x": 1.3608191795,
				"y": 1.4367209478,
				"z": 2.9667314821,
				"element": "N" 
			},
			{
				"x": -0.9755437873,
				"y": 2.0421543845,
				"z": 2.6335420748,
				"element": "C" 
			},
			{
				"x": -2.050838891,
				"y": 2.3506631535,
				"z": 1.8153568623,
				"element": "C" 
			},
			{
				"x": 2.2808604827,
				"y": 0.5807101296,
				"z": -3.0408346496,
				"element": "C" 
			},
			{
				"x": 2.7094379208,
				"y": -0.7219203111,
				"z": -3.3149353594,
				"element": "C" 
			},
			{
				"x": 1.8440092561,
				"y": -1.7982690905,
				"z": -3.1639535361,
				"element": "C" 
			},
			{
				"x": -2.00129907,
				"y": -3.5368572665,
				"z": -2.0852473503,
				"element": "H" 
			},
			{
				"x": -1.6039061245,
				"y": -2.0800812265,
				"z": -1.1336415621,
				"element": "H" 
			},
			{
				"x": -2.1816993271,
				"y": -1.9202630725,
				"z": -2.816826903,
				"element": "H" 
			},
			{
				"x": -0.9221512949,
				"y": -0.0814801527,
				"z": -2.1285231409,
				"element": "H" 
			},
			{
				"x": 0.1758143777,
				"y": 2.6795800026,
				"z": -3.3365560861,
				"element": "H" 
			},
			{
				"x": 1.3347771623,
				"y": 2.8419357875,
				"z": -2.0289055332,
				"element": "H" 
			},
			{
				"x": -2.1784170271,
				"y": 2.8542282575,
				"z": -2.8529382946,
				"element": "H" 
			},
			{
				"x": -3.7687984844,
				"y": 2.9663127509,
				"z": -0.6703695044,
				"element": "H" 
			},
			{
				"x": 1.5179332524,
				"y": 1.703999858,
				"z": 0.3051658637,
				"element": "H" 
			},
			{
				"x": 2.2881843375,
				"y": 1.6241095653,
				"z": 2.6090283381,
				"element": "H" 
			},
			{
				"x": 1.2607832268,
				"y": 1.7847442971,
				"z": 3.9111632601,
				"element": "H" 
			},
			{
				"x": -1.1199393142,
				"y": 1.9603226205,
				"z": 3.7080914594,
				"element": "H" 
			},
			{
				"x": -3.0318236532,
				"y": 2.5209664525,
				"z": 2.2509672205,
				"element": "H" 
			},
			{
				"x": 2.9674533537,
				"y": 1.4159780243,
				"z": -3.1534269295,
				"element": "H" 
			},
			{
				"x": 3.7309858779,
				"y": -0.898219699,
				"z": -3.6399999409,
				"element": "H" 
			},
			{
				"x": 2.160440112,
				"y": -2.8169584953,
				"z": -3.3619797082,
				"element": "H" 
			}
		],
		 "valence_orbital": [ 
			{
				"type": "occ",
				"energy": -0.25339,
				"method": "rhf"
			},
			{
				"type": "occ",
				"energy": -0.24123,
				"method": "rhf"
			},
			{
				"type": "occ",
				"energy": -0.21603,
				"method": "rhf"
			},
			{
				"type": "occ",
				"energy": -0.20363,
				"method": "rhf"
			},
			{
				"type": "occ",
				"energy": -0.1739,
				"method": "rhf"
			},
			{
				"type": "unocc",
				"energy": -0.00118,
				"method": "rhf"
			},
			{
				"type": "unocc",
				"energy": 0.00492,
				"method": "rhf"
			},
			{
				"type": "unocc",
				"energy": 0.01204,
				"method": "rhf"
			},
			{
				"type": "unocc",
				"energy": 0.03954,
				"method": "rhf"
			},
			{
				"type": "unocc",
				"energy": 0.07987,
				"method": "rhf"
			}
		],
		"cosmo_sigma_profile": { 
			"-0.025": 0.0,
			"-0.024": 0.0,
			"-0.023": 0.0,
			"-0.022": 0.0,
			"-0.021": 0.0,
			"-0.02": 0.0,
			"-0.019": 0.0,
			"-0.018": 0.0,
			"-0.017": 0.0,
			"-0.016": 0.0,
			"-0.015": 0.0,
			"-0.014": 0.0,
			"-0.013": 0.0,
			"-0.012": 0.980999560508,
			"-0.011": 2.7298476531,
			"-0.01": 2.75859725388,
			"-0.009": 2.62830418188,
			"-0.008": 5.76859941237,
			"-0.007": 6.58628800454,
			"-0.006": 12.8759859429,
			"-0.005": 29.17998473,
			"-0.004": 27.1977038653,
			"-0.003": 28.381934377,
			"-0.002": 20.1304963375,
			"-0.001": 17.3994345484,
			"0.0": 15.1985165862,
			"0.001": 13.7195058114,
			"0.002": 13.3011936091,
			"0.003": 14.9960270496,
			"0.004": 19.0610674529,
			"0.005": 19.755631105,
			"0.006": 18.4278508708,
			"0.007": 15.9673818881,
			"0.008": 8.71501013672,
			"0.009": 2.08957401105,
			"0.01": 2.41449951706,
			"0.011": 1.68420939019,
			"0.012": 0.624451256783,
			"0.013": 0.677552541282,
			"0.014": 0.702594298146,
			"0.015": 0.760331919816,
			"0.016": 0.206791099417,
			"0.017": 0.0,
			"0.018": 0.0,
			"0.019": 0.0,
			"0.02": 0.0,
			"0.021": 0.0,
			"0.022": 0.0,
			"0.023": 0.0,
			"0.024": 0.0,
			"0.025": 0.0
		}
	}
}
