{
	 "smiles": "OC(=O)C1=CC=C(OC2=C(F)C=C(F)C=C2)C=C1", 
	 "Tm": 446.15, 
	 "num_atms": 26, 
	 "gaussian": { 
		 "optdone": 1, 
		 "sigma_profile": "yes", 
		 "theory": "DFT", 
		 "functional": "B3LYP", 
		 "basiset": "6-31G**", 
		 "properties": { 
			 "R2extent": 6246.4726, 
			 "electric_dipole_moment_norm": 5.50114963349, 
			 "electric_quadrupole_moment_norm": 25.0800591291, 
			 "total_energy": -925.537166712, 
			 "HOMO_LUMO_gap": 0.19628, 
			 "cosmo_polarized_energy": -16.2, 
			 "cosmo_cavitation_energy": 32.77, 
			 "cosmo_dispersion_energy": -23.29, 
			 "cosmo_repulsion_energy": 1.74, 
			 "cosmo_total_nonelectrostatic_energy": 11.23, 
			 "SMD_solvation_energy": 7.93 
		},
		"coords": [
			{
				"x": 2.5492339353,
				"y": 3.3733036976,
				"z": 2.808188131,
				"element": "O" 
			},
			{
				"x": 2.3909383595,
				"y": 3.6035676567,
				"z": 1.4748296322,
				"element": "C" 
			},
			{
				"x": 3.0256509446,
				"y": 4.4820369399,
				"z": 0.9386183853,
				"element": "O" 
			},
			{
				"x": 1.4161071991,
				"y": 2.7324977981,
				"z": 0.7489685574,
				"element": "C" 
			},
			{
				"x": 0.9494892768,
				"y": 3.1738363309,
				"z": -0.4999411339,
				"element": "C" 
			},
			{
				"x": 0.0499415255,
				"y": 2.4131840181,
				"z": -1.2309999256,
				"element": "C" 
			},
			{
				"x": -0.3856693584,
				"y": 1.1813064169,
				"z": -0.7269965581,
				"element": "C" 
			},
			{
				"x": -1.3017265675,
				"y": 0.5122032274,
				"z": -1.5055022203,
				"element": "O" 
			},
			{
				"x": -1.6200609719,
				"y": -0.8033244413,
				"z": -1.2351855873,
				"element": "C" 
			},
			{
				"x": -0.6828866827,
				"y": -1.8253206266,
				"z": -1.4273868717,
				"element": "C" 
			},
			{
				"x": 0.5693082903,
				"y": -1.4964681394,
				"z": -1.7839909153,
				"element": "F" 
			},
			{
				"x": -1.0166480643,
				"y": -3.1606907192,
				"z": -1.248809865,
				"element": "C" 
			},
			{
				"x": -2.3265594797,
				"y": -3.4608513831,
				"z": -0.8849184261,
				"element": "C" 
			},
			{
				"x": -2.6654060511,
				"y": -4.7520068262,
				"z": -0.7140522476,
				"element": "F" 
			},
			{
				"x": -3.2883075744,
				"y": -2.4751583632,
				"z": -0.6944527377,
				"element": "C" 
			},
			{
				"x": -2.9222236035,
				"y": -1.139668083,
				"z": -0.8703035861,
				"element": "C" 
			},
			{
				"x": 0.0786252426,
				"y": 0.7133339654,
				"z": 0.5046443655,
				"element": "C" 
			},
			{
				"x": 0.9771689364,
				"y": 1.4924653205,
				"z": 1.231087466,
				"element": "C" 
			},
			{
				"x": 1.8611776048,
				"y": 2.7737046221,
				"z": 3.127194754,
				"element": "H" 
			},
			{
				"x": 1.3110292295,
				"y": 4.1235989903,
				"z": -0.8786316218,
				"element": "H" 
			},
			{
				"x": -0.3239968489,
				"y": 2.7458978012,
				"z": -2.1932794557,
				"element": "H" 
			},
			{
				"x": -0.2803246586,
				"y": -3.9407586453,
				"z": -1.3994357901,
				"element": "H" 
			},
			{
				"x": -4.2972982008,
				"y": -2.7544283061,
				"z": -0.4145763101,
				"element": "H" 
			},
			{
				"x": -3.6438916173,
				"y": -0.341015124,
				"z": -0.73699094,
				"element": "H" 
			},
			{
				"x": -0.2526234389,
				"y": -0.2435590851,
				"z": 0.8907810216,
				"element": "H" 
			},
			{
				"x": 1.3572525735,
				"y": 1.0925129574,
				"z": 2.1682418796,
				"element": "H" 
			}
		],
		 "valence_orbital": [ 
			{
				"type": "occ",
				"energy": -0.27943,
				"method": "rhf"
			},
			{
				"type": "occ",
				"energy": -0.27581,
				"method": "rhf"
			},
			{
				"type": "occ",
				"energy": -0.27098,
				"method": "rhf"
			},
			{
				"type": "occ",
				"energy": -0.26225,
				"method": "rhf"
			},
			{
				"type": "occ",
				"energy": -0.2429,
				"method": "rhf"
			},
			{
				"type": "unocc",
				"energy": -0.04662,
				"method": "rhf"
			},
			{
				"type": "unocc",
				"energy": -0.032,
				"method": "rhf"
			},
			{
				"type": "unocc",
				"energy": -0.02467,
				"method": "rhf"
			},
			{
				"type": "unocc",
				"energy": -0.01657,
				"method": "rhf"
			},
			{
				"type": "unocc",
				"energy": 0.05116,
				"method": "rhf"
			}
		],
		"cosmo_sigma_profile": { 
			"-0.025": 0.0,
			"-0.024": 0.0,
			"-0.023": 0.0,
			"-0.022": 0.0,
			"-0.021": 0.0,
			"-0.02": 0.0,
			"-0.019": 0.435032528602,
			"-0.018": 0.646206203341,
			"-0.017": 1.0230900718,
			"-0.016": 0.959462968738,
			"-0.015": 1.2053693212,
			"-0.014": 0.695971494087,
			"-0.013": 0.999641582406,
			"-0.012": 1.06770454358,
			"-0.011": 1.01947326351,
			"-0.01": 1.53581365792,
			"-0.009": 2.61346518717,
			"-0.008": 7.1223689872,
			"-0.007": 10.7746298503,
			"-0.006": 11.6625002848,
			"-0.005": 12.5867609584,
			"-0.004": 9.5091207066,
			"-0.003": 13.5179758602,
			"-0.002": 14.6374211628,
			"-0.001": 17.2627897291,
			"0.0": 24.7825482752,
			"0.001": 24.1220485477,
			"0.002": 25.8880178959,
			"0.003": 29.2272129821,
			"0.004": 16.542276187,
			"0.005": 4.02555629755,
			"0.006": 3.89505086835,
			"0.007": 2.91969252563,
			"0.008": 2.93808732789,
			"0.009": 3.83591534407,
			"0.01": 4.45304108118,
			"0.011": 5.03766266058,
			"0.012": 5.40423062087,
			"0.013": 1.90708535407,
			"0.014": 0.154724518262,
			"0.015": 0.0,
			"0.016": 0.0,
			"0.017": 0.0,
			"0.018": 0.0,
			"0.019": 0.0,
			"0.02": 0.0,
			"0.021": 0.0,
			"0.022": 0.0,
			"0.023": 0.0,
			"0.024": 0.0,
			"0.025": 0.0
		}
	}
}
