{
	 "smiles": "CN(C)C1=NC(Cl)=C(C)C(Cl)=N1", 
	 "Tm": 328.15, 
	 "num_atms": 21, 
	 "gaussian": { 
		 "optdone": 1, 
		 "sigma_profile": "yes", 
		 "theory": "DFT", 
		 "functional": "B3LYP", 
		 "basiset": "6-31G**", 
		 "properties": { 
			 "R2extent": 3171.1108, 
			 "electric_dipole_moment_norm": 1.79568907665, 
			 "electric_quadrupole_moment_norm": 12.8200418962, 
			 "total_energy": -1356.82362958, 
			 "HOMO_LUMO_gap": 0.17795, 
			 "cosmo_polarized_energy": -5.38, 
			 "cosmo_cavitation_energy": 27.75, 
			 "cosmo_dispersion_energy": -20.82, 
			 "cosmo_repulsion_energy": 1.68, 
			 "cosmo_total_nonelectrostatic_energy": 8.61, 
			 "SMD_solvation_energy": 2.72 
		},
		"coords": [
			{
				"x": 0.5845885345,
				"y": 3.8704845886,
				"z": -1.1425782952,
				"element": "C" 
			},
			{
				"x": 1.286498265,
				"y": 2.596836643,
				"z": -1.1380750201,
				"element": "N" 
			},
			{
				"x": 2.5238287972,
				"y": 2.544565588,
				"z": -1.9004516271,
				"element": "C" 
			},
			{
				"x": 0.8054471516,
				"y": 1.5113946522,
				"z": -0.4701174605,
				"element": "C" 
			},
			{
				"x": 1.5163417135,
				"y": 0.3640624485,
				"z": -0.5257805354,
				"element": "N" 
			},
			{
				"x": 1.031528438,
				"y": -0.6607847545,
				"z": 0.1388598915,
				"element": "C" 
			},
			{
				"x": 1.9855192421,
				"y": -2.1414311135,
				"z": 0.0226829262,
				"element": "Cl" 
			},
			{
				"x": -0.1493579372,
				"y": -0.6694691135,
				"z": 0.9018219683,
				"element": "C" 
			},
			{
				"x": -0.6714516662,
				"y": -1.8627091464,
				"z": 1.6518878394,
				"element": "C" 
			},
			{
				"x": -0.7867522048,
				"y": 0.5826087966,
				"z": 0.8500534588,
				"element": "C" 
			},
			{
				"x": -2.3156737802,
				"y": 0.8003024549,
				"z": 1.7050757059,
				"element": "Cl" 
			},
			{
				"x": -0.3560781266,
				"y": 1.6445129102,
				"z": 0.2065864082,
				"element": "N" 
			},
			{
				"x": -0.3169780242,
				"y": 3.7945957784,
				"z": -0.5394512266,
				"element": "H" 
			},
			{
				"x": 0.3120127062,
				"y": 4.1501915193,
				"z": -2.1684345424,
				"element": "H" 
			},
			{
				"x": 1.2297271784,
				"y": 4.6588665392,
				"z": -0.7343380943,
				"element": "H" 
			},
			{
				"x": 3.2343920488,
				"y": 3.2887629245,
				"z": -1.5187931377,
				"element": "H" 
			},
			{
				"x": 2.3288229186,
				"y": 2.7698375587,
				"z": -2.9569349471,
				"element": "H" 
			},
			{
				"x": 2.962727014,
				"y": 1.5530013822,
				"z": -1.819811745,
				"element": "H" 
			},
			{
				"x": 0.1487539883,
				"y": -2.5004559393,
				"z": 1.9853939706,
				"element": "H" 
			},
			{
				"x": -1.2475928535,
				"y": -1.5506815204,
				"z": 2.5243928907,
				"element": "H" 
			},
			{
				"x": -1.3300034035,
				"y": -2.4741921967,
				"z": 1.0229115719,
				"element": "H" 
			}
		],
		 "valence_orbital": [ 
			{
				"type": "occ",
				"energy": -0.31465,
				"method": "rhf"
			},
			{
				"type": "occ",
				"energy": -0.29378,
				"method": "rhf"
			},
			{
				"type": "occ",
				"energy": -0.29019,
				"method": "rhf"
			},
			{
				"type": "occ",
				"energy": -0.26458,
				"method": "rhf"
			},
			{
				"type": "occ",
				"energy": -0.22021,
				"method": "rhf"
			},
			{
				"type": "unocc",
				"energy": -0.04226,
				"method": "rhf"
			},
			{
				"type": "unocc",
				"energy": -0.01223,
				"method": "rhf"
			},
			{
				"type": "unocc",
				"energy": 0.01085,
				"method": "rhf"
			},
			{
				"type": "unocc",
				"energy": 0.05271,
				"method": "rhf"
			},
			{
				"type": "unocc",
				"energy": 0.09125,
				"method": "rhf"
			}
		],
		"cosmo_sigma_profile": { 
			"-0.025": 0.0,
			"-0.024": 0.0,
			"-0.023": 0.0,
			"-0.022": 0.0,
			"-0.021": 0.0,
			"-0.02": 0.0,
			"-0.019": 0.0,
			"-0.018": 0.0,
			"-0.017": 0.0,
			"-0.016": 0.0,
			"-0.015": 0.0,
			"-0.014": 0.0,
			"-0.013": 0.0,
			"-0.012": 0.0,
			"-0.011": 0.0,
			"-0.01": 0.0,
			"-0.009": 0.0,
			"-0.008": 0.0,
			"-0.007": 0.0,
			"-0.006": 0.119942970837,
			"-0.005": 11.8241446753,
			"-0.004": 17.4933709732,
			"-0.003": 24.1405556405,
			"-0.002": 34.8051831504,
			"-0.001": 29.6007698696,
			"0.0": 22.8979414617,
			"0.001": 16.2250299201,
			"0.002": 14.6873217616,
			"0.003": 15.1014926958,
			"0.004": 15.7814403697,
			"0.005": 7.35914376178,
			"0.006": 4.79627325162,
			"0.007": 4.01430207465,
			"0.008": 4.05614275109,
			"0.009": 2.53429341055,
			"0.01": 0.072020785737,
			"0.011": 0.0,
			"0.012": 0.0,
			"0.013": 0.0,
			"0.014": 0.0,
			"0.015": 0.0,
			"0.016": 0.0,
			"0.017": 0.0,
			"0.018": 0.0,
			"0.019": 0.0,
			"0.02": 0.0,
			"0.021": 0.0,
			"0.022": 0.0,
			"0.023": 0.0,
			"0.024": 0.0,
			"0.025": 0.0
		}
	}
}
