{
	 "smiles": "NC1=C(C=C(C=C1N(=O)=O)N(=O)=O)N(=O)=O", 
	 "Tm": 467.15, 
	 "num_atms": 20, 
	 "gaussian": { 
		 "optdone": 1, 
		 "sigma_profile": "yes", 
		 "theory": "DFT", 
		 "functional": "B3LYP", 
		 "basiset": "6-31G**", 
		 "properties": { 
			 "R2extent": 3999.0776, 
			 "electric_dipole_moment_norm": 3.06217545056, 
			 "electric_quadrupole_moment_norm": 17.2316858496, 
			 "total_energy": -901.099591354, 
			 "HOMO_LUMO_gap": 0.14334, 
			 "cosmo_polarized_energy": -15.58, 
			 "cosmo_cavitation_energy": 26.74, 
			 "cosmo_dispersion_energy": -20.1, 
			 "cosmo_repulsion_energy": 1.54, 
			 "cosmo_total_nonelectrostatic_energy": 8.18, 
			 "SMD_solvation_energy": 10.86 
		},
		"coords": [
			{
				"x": -2.7721331111,
				"y": 1.2714529637,
				"z": 0.8459719922,
				"element": "N" 
			},
			{
				"x": -1.473931638,
				"y": 1.0455339713,
				"z": 0.6485130569,
				"element": "C" 
			},
			{
				"x": -0.907663366,
				"y": -0.2807485799,
				"z": 0.6354660036,
				"element": "C" 
			},
			{
				"x": 0.4435425163,
				"y": -0.5098874935,
				"z": 0.4293962586,
				"element": "C" 
			},
			{
				"x": 1.3012095239,
				"y": 0.5626138141,
				"z": 0.2260733647,
				"element": "C" 
			},
			{
				"x": 0.8261684727,
				"y": 1.8670422856,
				"z": 0.2257110336,
				"element": "C" 
			},
			{
				"x": -0.5231683842,
				"y": 2.1078354752,
				"z": 0.4307579699,
				"element": "C" 
			},
			{
				"x": -0.9299926032,
				"y": 3.514421758,
				"z": 0.4132876804,
				"element": "N" 
			},
			{
				"x": -2.1272640359,
				"y": 3.7932211031,
				"z": 0.5910162068,
				"element": "O" 
			},
			{
				"x": -0.0645915085,
				"y": 4.3613076825,
				"z": 0.2225951385,
				"element": "O" 
			},
			{
				"x": 2.7276063401,
				"y": 0.3143937934,
				"z": 0.0090626078,
				"element": "N" 
			},
			{
				"x": 3.4501622185,
				"y": 1.2940059672,
				"z": -0.1666494767,
				"element": "O" 
			},
			{
				"x": 3.1039744281,
				"y": -0.8564516522,
				"z": 0.0176057264,
				"element": "O" 
			},
			{
				"x": -1.7327948861,
				"y": -1.4729447263,
				"z": 0.8407127646,
				"element": "N" 
			},
			{
				"x": -2.9520031259,
				"y": -1.331238317,
				"z": 1.0309989632,
				"element": "O" 
			},
			{
				"x": -1.1798666493,
				"y": -2.5666260194,
				"z": 0.8155570971,
				"element": "O" 
			},
			{
				"x": -3.3704424939,
				"y": 0.4673134289,
				"z": 0.9912059414,
				"element": "H" 
			},
			{
				"x": -3.0859506111,
				"y": 2.2343580954,
				"z": 0.8395715012,
				"element": "H" 
			},
			{
				"x": 0.8210301001,
				"y": -1.5237315266,
				"z": 0.4284115124,
				"element": "H" 
			},
			{
				"x": 1.5006088134,
				"y": 2.6978279768,
				"z": 0.0666346575,
				"element": "H" 
			}
		],
		 "valence_orbital": [ 
			{
				"type": "occ",
				"energy": -0.32655,
				"method": "rhf"
			},
			{
				"type": "occ",
				"energy": -0.32579,
				"method": "rhf"
			},
			{
				"type": "occ",
				"energy": -0.32078,
				"method": "rhf"
			},
			{
				"type": "occ",
				"energy": -0.31167,
				"method": "rhf"
			},
			{
				"type": "occ",
				"energy": -0.27719,
				"method": "rhf"
			},
			{
				"type": "unocc",
				"energy": -0.13385,
				"method": "rhf"
			},
			{
				"type": "unocc",
				"energy": -0.10809,
				"method": "rhf"
			},
			{
				"type": "unocc",
				"energy": -0.10708,
				"method": "rhf"
			},
			{
				"type": "unocc",
				"energy": -0.02695,
				"method": "rhf"
			},
			{
				"type": "unocc",
				"energy": -0.01473,
				"method": "rhf"
			}
		],
		"cosmo_sigma_profile": { 
			"-0.025": 0.0,
			"-0.024": 0.0,
			"-0.023": 0.0,
			"-0.022": 0.0,
			"-0.021": 0.0,
			"-0.02": 0.0,
			"-0.019": 0.0,
			"-0.018": 0.0,
			"-0.017": 0.0,
			"-0.016": 0.0,
			"-0.015": 0.0,
			"-0.014": 0.0,
			"-0.013": 0.738482846261,
			"-0.012": 1.69675192197,
			"-0.011": 1.67034055058,
			"-0.01": 1.21152286729,
			"-0.009": 2.57340127412,
			"-0.008": 6.58501183304,
			"-0.007": 10.0279450325,
			"-0.006": 14.8893506714,
			"-0.005": 23.6629769683,
			"-0.004": 22.0970888092,
			"-0.003": 12.4339918077,
			"-0.002": 6.99565561926,
			"-0.001": 8.12316441243,
			"0.0": 7.41806412117,
			"0.001": 6.70822312927,
			"0.002": 5.70641363232,
			"0.003": 6.68219979623,
			"0.004": 8.21382436604,
			"0.005": 8.88999052266,
			"0.006": 15.2686072507,
			"0.007": 19.6450802893,
			"0.008": 13.6693440782,
			"0.009": 9.74731091116,
			"0.01": 1.61012569496,
			"0.011": 0.0,
			"0.012": 0.0,
			"0.013": 0.0,
			"0.014": 0.0,
			"0.015": 0.0,
			"0.016": 0.0,
			"0.017": 0.0,
			"0.018": 0.0,
			"0.019": 0.0,
			"0.02": 0.0,
			"0.021": 0.0,
			"0.022": 0.0,
			"0.023": 0.0,
			"0.024": 0.0,
			"0.025": 0.0
		}
	}
}
