{
	 "smiles": "COC1=C(OC)C=C(C=C1)C1=NOC(=O)N1", 
	 "Tm": 485.15, 
	 "num_atms": 26, 
	 "gaussian": { 
		 "optdone": 1, 
		 "sigma_profile": "yes", 
		 "theory": "DFT", 
		 "functional": "B3LYP", 
		 "basiset": "6-31G**", 
		 "properties": { 
			 "R2extent": 5341.7647, 
			 "electric_dipole_moment_norm": 6.9357361145, 
			 "electric_quadrupole_moment_norm": 28.1454430278, 
			 "total_energy": -797.429046651, 
			 "HOMO_LUMO_gap": 0.18394, 
			 "cosmo_polarized_energy": -18.43, 
			 "cosmo_cavitation_energy": 31.1, 
			 "cosmo_dispersion_energy": -22.65, 
			 "cosmo_repulsion_energy": 1.76, 
			 "cosmo_total_nonelectrostatic_energy": 10.21, 
			 "SMD_solvation_energy": 7.81 
		},
		"coords": [
			{
				"x": 1.2253069931,
				"y": -1.8983890764,
				"z": 2.9385453396,
				"element": "C" 
			},
			{
				"x": 1.7444997991,
				"y": -1.1211316317,
				"z": 1.8477566897,
				"element": "O" 
			},
			{
				"x": 0.8710737426,
				"y": -0.8873941984,
				"z": 0.8180594123,
				"element": "C" 
			},
			{
				"x": -0.2840223425,
				"y": -0.0910047086,
				"z": 0.9836928782,
				"element": "C" 
			},
			{
				"x": -0.6133965471,
				"y": 0.4446013156,
				"z": 2.2054470977,
				"element": "O" 
			},
			{
				"x": 0.2403728073,
				"y": 1.5119156939,
				"z": 2.6440873721,
				"element": "C" 
			},
			{
				"x": -1.1355453837,
				"y": 0.123792549,
				"z": -0.0940561476,
				"element": "C" 
			},
			{
				"x": -0.8462253413,
				"y": -0.4224185642,
				"z": -1.3547623533,
				"element": "C" 
			},
			{
				"x": 0.320766181,
				"y": -1.179753293,
				"z": -1.5242143451,
				"element": "C" 
			},
			{
				"x": 1.1652658298,
				"y": -1.4128663575,
				"z": -0.4412909138,
				"element": "C" 
			},
			{
				"x": -1.7602452417,
				"y": -0.168079867,
				"z": -2.4714874168,
				"element": "C" 
			},
			{
				"x": -2.6885174263,
				"y": 0.7441498062,
				"z": -2.4569614191,
				"element": "N" 
			},
			{
				"x": -3.3407143367,
				"y": 0.643680347,
				"z": -3.7128887013,
				"element": "O" 
			},
			{
				"x": -2.7697280397,
				"y": -0.3505918336,
				"z": -4.470340474,
				"element": "C" 
			},
			{
				"x": -3.1112624134,
				"y": -0.6804333099,
				"z": -5.5766186154,
				"element": "O" 
			},
			{
				"x": -1.7513923834,
				"y": -0.848588417,
				"z": -3.668217697,
				"element": "N" 
			},
			{
				"x": 0.953195494,
				"y": -2.9040021771,
				"z": 2.5959922894,
				"element": "H" 
			},
			{
				"x": 0.3547814932,
				"y": -1.4177926509,
				"z": 3.3928269886,
				"element": "H" 
			},
			{
				"x": 2.0342082171,
				"y": -1.9716188781,
				"z": 3.6673284429,
				"element": "H" 
			},
			{
				"x": -0.1394786642,
				"y": 1.8229521542,
				"z": 3.6187688471,
				"element": "H" 
			},
			{
				"x": 1.2783561116,
				"y": 1.1782418401,
				"z": 2.7393382851,
				"element": "H" 
			},
			{
				"x": 0.1889373584,
				"y": 2.3571749747,
				"z": 1.9474810158,
				"element": "H" 
			},
			{
				"x": -2.0278656145,
				"y": 0.7220469619,
				"z": 0.0524279138,
				"element": "H" 
			},
			{
				"x": 0.5869150219,
				"y": -1.5842501011,
				"z": -2.4961786851,
				"element": "H" 
			},
			{
				"x": 2.0678064986,
				"y": -2.0048388682,
				"z": -0.5511412843,
				"element": "H" 
			},
			{
				"x": -1.1993918132,
				"y": -1.65180171,
				"z": -3.9206945195,
				"element": "H" 
			}
		],
		 "valence_orbital": [ 
			{
				"type": "occ",
				"energy": -0.28468,
				"method": "rhf"
			},
			{
				"type": "occ",
				"energy": -0.28274,
				"method": "rhf"
			},
			{
				"type": "occ",
				"energy": -0.27307,
				"method": "rhf"
			},
			{
				"type": "occ",
				"energy": -0.25967,
				"method": "rhf"
			},
			{
				"type": "occ",
				"energy": -0.23873,
				"method": "rhf"
			},
			{
				"type": "unocc",
				"energy": -0.05479,
				"method": "rhf"
			},
			{
				"type": "unocc",
				"energy": -0.02347,
				"method": "rhf"
			},
			{
				"type": "unocc",
				"energy": 0.03106,
				"method": "rhf"
			},
			{
				"type": "unocc",
				"energy": 0.0473,
				"method": "rhf"
			},
			{
				"type": "unocc",
				"energy": 0.05539,
				"method": "rhf"
			}
		],
		"cosmo_sigma_profile": { 
			"-0.025": 0.0,
			"-0.024": 0.0,
			"-0.023": 0.0,
			"-0.022": 0.0,
			"-0.021": 0.0,
			"-0.02": 0.0,
			"-0.019": 0.157944688856,
			"-0.018": 1.45154411227,
			"-0.017": 0.926485050584,
			"-0.016": 1.34439963377,
			"-0.015": 1.04962445268,
			"-0.014": 1.57944531517,
			"-0.013": 1.37858097977,
			"-0.012": 1.31495097037,
			"-0.011": 0.849150896589,
			"-0.01": 1.32811715045,
			"-0.009": 1.37394538654,
			"-0.008": 2.0949492391,
			"-0.007": 3.33376777278,
			"-0.006": 9.35526077245,
			"-0.005": 15.2282358993,
			"-0.004": 22.8883521222,
			"-0.003": 26.3317381113,
			"-0.002": 21.433227704,
			"-0.001": 18.2314915875,
			"0.0": 12.6142705989,
			"0.001": 15.6555433487,
			"0.002": 17.8268624988,
			"0.003": 10.0056135722,
			"0.004": 6.26327155329,
			"0.005": 6.18573039034,
			"0.006": 6.70566510851,
			"0.007": 8.020370232,
			"0.008": 8.07039629272,
			"0.009": 4.62369128723,
			"0.01": 6.6319759616,
			"0.011": 8.23503196509,
			"0.012": 6.01561787412,
			"0.013": 0.319103158838,
			"0.014": 0.0,
			"0.015": 0.0,
			"0.016": 0.0,
			"0.017": 0.0,
			"0.018": 0.0,
			"0.019": 0.0,
			"0.02": 0.0,
			"0.021": 0.0,
			"0.022": 0.0,
			"0.023": 0.0,
			"0.024": 0.0,
			"0.025": 0.0
		}
	}
}
