{
	 "smiles": "CC(=O)C1=CC=C2C=CC=CC2=C1", 
	 "Tm": 327.65, 
	 "num_atms": 23, 
	 "gaussian": { 
		 "optdone": 1, 
		 "sigma_profile": "yes", 
		 "theory": "DFT", 
		 "functional": "B3LYP", 
		 "basiset": "6-31G**", 
		 "properties": { 
			 "R2extent": 2927.3656, 
			 "electric_dipole_moment_norm": 3.00662905261, 
			 "electric_quadrupole_moment_norm": 12.2541899235, 
			 "total_energy": -538.54412124, 
			 "HOMO_LUMO_gap": 0.16038, 
			 "cosmo_polarized_energy": -8.89, 
			 "cosmo_cavitation_energy": 26.82, 
			 "cosmo_dispersion_energy": -19.75, 
			 "cosmo_repulsion_energy": 1.52, 
			 "cosmo_total_nonelectrostatic_energy": 8.6, 
			 "SMD_solvation_energy": 4.99 
		},
		"coords": [
			{
				"x": 2.9127164014,
				"y": 1.1175498984,
				"z": -0.8768574034,
				"element": "C" 
			},
			{
				"x": 1.4133218462,
				"y": 1.3023273293,
				"z": -0.7115028206,
				"element": "C" 
			},
			{
				"x": 0.8757878721,
				"y": 2.3440238321,
				"z": -1.0579585211,
				"element": "O" 
			},
			{
				"x": 0.6100685286,
				"y": 0.1841183581,
				"z": -0.1165986929,
				"element": "C" 
			},
			{
				"x": 1.1942841219,
				"y": -1.0455675738,
				"z": 0.3000812628,
				"element": "C" 
			},
			{
				"x": 0.4174431983,
				"y": -2.0431047684,
				"z": 0.8404751336,
				"element": "C" 
			},
			{
				"x": -0.9851642416,
				"y": -1.8755440527,
				"z": 0.9977917939,
				"element": "C" 
			},
			{
				"x": -1.8161503771,
				"y": -2.8851032965,
				"z": 1.551966122,
				"element": "C" 
			},
			{
				"x": -3.1717339295,
				"y": -2.6837024578,
				"z": 1.6876214623,
				"element": "C" 
			},
			{
				"x": -3.7623311418,
				"y": -1.462518851,
				"z": 1.2755269743,
				"element": "C" 
			},
			{
				"x": -2.9849383774,
				"y": -0.4643125315,
				"z": 0.7347559853,
				"element": "C" 
			},
			{
				"x": -1.5815352306,
				"y": -0.6393891275,
				"z": 0.5804292831,
				"element": "C" 
			},
			{
				"x": -0.7548058281,
				"y": 0.3672604989,
				"z": 0.0281403549,
				"element": "C" 
			},
			{
				"x": 3.3291232606,
				"y": 2.0220819108,
				"z": -1.3207969321,
				"element": "H" 
			},
			{
				"x": 3.1347159223,
				"y": 0.2600433797,
				"z": -1.5219612515,
				"element": "H" 
			},
			{
				"x": 3.3949956896,
				"y": 0.9310446629,
				"z": 0.0892615597,
				"element": "H" 
			},
			{
				"x": 2.2624760763,
				"y": -1.20209677,
				"z": 0.1922980945,
				"element": "H" 
			},
			{
				"x": 0.8707983436,
				"y": -2.9791744822,
				"z": 1.1562575343,
				"element": "H" 
			},
			{
				"x": -1.3640172917,
				"y": -3.8216200635,
				"z": 1.8681582806,
				"element": "H" 
			},
			{
				"x": -3.7967283672,
				"y": -3.4636313294,
				"z": 2.1130094385,
				"element": "H" 
			},
			{
				"x": -4.8328233183,
				"y": -1.3193642011,
				"z": 1.3892330351,
				"element": "H" 
			},
			{
				"x": -3.4313769362,
				"y": 0.4741041016,
				"z": 0.4168749163,
				"element": "H" 
			},
			{
				"x": -1.1847262214,
				"y": 1.3108755338,
				"z": -0.2946056096,
				"element": "H" 
			}
		],
		 "valence_orbital": [ 
			{
				"type": "occ",
				"energy": -0.32676,
				"method": "rhf"
			},
			{
				"type": "occ",
				"energy": -0.2904,
				"method": "rhf"
			},
			{
				"type": "occ",
				"energy": -0.25145,
				"method": "rhf"
			},
			{
				"type": "occ",
				"energy": -0.24578,
				"method": "rhf"
			},
			{
				"type": "occ",
				"energy": -0.22278,
				"method": "rhf"
			},
			{
				"type": "unocc",
				"energy": -0.0624,
				"method": "rhf"
			},
			{
				"type": "unocc",
				"energy": -0.03332,
				"method": "rhf"
			},
			{
				"type": "unocc",
				"energy": 0.01502,
				"method": "rhf"
			},
			{
				"type": "unocc",
				"energy": 0.03315,
				"method": "rhf"
			},
			{
				"type": "unocc",
				"energy": 0.08981,
				"method": "rhf"
			}
		],
		"cosmo_sigma_profile": { 
			"-0.025": 0.0,
			"-0.024": 0.0,
			"-0.023": 0.0,
			"-0.022": 0.0,
			"-0.021": 0.0,
			"-0.02": 0.0,
			"-0.019": 0.0,
			"-0.018": 0.0,
			"-0.017": 0.0,
			"-0.016": 0.0,
			"-0.015": 0.0,
			"-0.014": 0.0,
			"-0.013": 0.0,
			"-0.012": 0.0,
			"-0.011": 0.0,
			"-0.01": 0.0,
			"-0.009": 0.0,
			"-0.008": 0.0,
			"-0.007": 1.87989271399,
			"-0.006": 20.8216955566,
			"-0.005": 19.3550899225,
			"-0.004": 19.7841331843,
			"-0.003": 15.099200636,
			"-0.002": 14.2169164298,
			"-0.001": 15.6939584053,
			"0.0": 12.41491725,
			"0.001": 11.5244563163,
			"0.002": 15.4620225078,
			"0.003": 26.889143556,
			"0.004": 17.7725378709,
			"0.005": 5.94545493649,
			"0.006": 1.59644652788,
			"0.007": 1.79611528713,
			"0.008": 1.56769711468,
			"0.009": 1.95815638285,
			"0.01": 2.11657222515,
			"0.011": 2.48769857559,
			"0.012": 4.35616959243,
			"0.013": 1.73208579735,
			"0.014": 0.239103307038,
			"0.015": 0.0,
			"0.016": 0.0,
			"0.017": 0.0,
			"0.018": 0.0,
			"0.019": 0.0,
			"0.02": 0.0,
			"0.021": 0.0,
			"0.022": 0.0,
			"0.023": 0.0,
			"0.024": 0.0,
			"0.025": 0.0
		}
	}
}
