{
	 "smiles": "CN(CC(N)=O)C(=O)COC(=O)C1=CC=CC=C1", 
	 "Tm": 375.15, 
	 "num_atms": 32, 
	 "gaussian": { 
		 "optdone": 1, 
		 "sigma_profile": "yes", 
		 "theory": "DFT", 
		 "functional": "B3LYP", 
		 "basiset": "6-31G**", 
		 "properties": { 
			 "R2extent": 6505.2324, 
			 "electric_dipole_moment_norm": 2.2596957605, 
			 "electric_quadrupole_moment_norm": 19.2241776987, 
			 "total_energy": -876.14995562, 
			 "HOMO_LUMO_gap": 0.18234, 
			 "cosmo_polarized_energy": -17.93, 
			 "cosmo_cavitation_energy": 36.92, 
			 "cosmo_dispersion_energy": -25.39, 
			 "cosmo_repulsion_energy": 1.98, 
			 "cosmo_total_nonelectrostatic_energy": 13.52, 
			 "SMD_solvation_energy": 8.25 
		},
		"coords": [
			{
				"x": 1.8027997621,
				"y": 0.4152102368,
				"z": 0.2050365441,
				"element": "C" 
			},
			{
				"x": 1.8545601866,
				"y": -0.816625277,
				"z": 0.9894725442,
				"element": "N" 
			},
			{
				"x": 3.1255627762,
				"y": -1.5491872694,
				"z": 0.9571483775,
				"element": "C" 
			},
			{
				"x": 3.1673458511,
				"y": -2.5358430421,
				"z": -0.2236469325,
				"element": "C" 
			},
			{
				"x": 2.5314570795,
				"y": -3.713307028,
				"z": 0.02582206,
				"element": "N" 
			},
			{
				"x": 3.7143664021,
				"y": -2.2533623317,
				"z": -1.2815639406,
				"element": "O" 
			},
			{
				"x": 0.8064351563,
				"y": -1.3981390214,
				"z": 1.6360280139,
				"element": "C" 
			},
			{
				"x": 0.897700748,
				"y": -2.5124489833,
				"z": 2.1617944083,
				"element": "O" 
			},
			{
				"x": -0.5046896985,
				"y": -0.6210047255,
				"z": 1.7501824872,
				"element": "C" 
			},
			{
				"x": -1.1187926967,
				"y": -0.5829549516,
				"z": 0.4474846072,
				"element": "O" 
			},
			{
				"x": -2.3255751953,
				"y": 0.0483919321,
				"z": 0.3991414654,
				"element": "C" 
			},
			{
				"x": -2.8288547246,
				"y": 0.5658452765,
				"z": 1.3753712529,
				"element": "O" 
			},
			{
				"x": -2.9235792556,
				"y": 0.0282100318,
				"z": -0.9625966581,
				"element": "C" 
			},
			{
				"x": -4.1537227307,
				"y": 0.6769854432,
				"z": -1.1414911682,
				"element": "C" 
			},
			{
				"x": -4.7586394866,
				"y": 0.689620067,
				"z": -2.3954049675,
				"element": "C" 
			},
			{
				"x": -4.139454318,
				"y": 0.0544531418,
				"z": -3.4756063637,
				"element": "C" 
			},
			{
				"x": -2.9145619942,
				"y": -0.5943366176,
				"z": -3.3001598953,
				"element": "C" 
			},
			{
				"x": -2.3044006202,
				"y": -0.6098830746,
				"z": -2.0471560728,
				"element": "C" 
			},
			{
				"x": 2.187086325,
				"y": 0.2173887648,
				"z": -0.8006962665,
				"element": "H" 
			},
			{
				"x": 0.7807850524,
				"y": 0.7743613616,
				"z": 0.1123907389,
				"element": "H" 
			},
			{
				"x": 2.4233471957,
				"y": 1.1926814324,
				"z": 0.6667101141,
				"element": "H" 
			},
			{
				"x": 3.2461957472,
				"y": -2.0703387247,
				"z": 1.9090636102,
				"element": "H" 
			},
			{
				"x": 3.9358548308,
				"y": -0.8316717544,
				"z": 0.8191523513,
				"element": "H" 
			},
			{
				"x": 2.4014636378,
				"y": -4.3470697858,
				"z": -0.7493589013,
				"element": "H" 
			},
			{
				"x": 1.932223373,
				"y": -3.7838795074,
				"z": 0.8413789173,
				"element": "H" 
			},
			{
				"x": -0.3607100719,
				"y": 0.39811765,
				"z": 2.1230516063,
				"element": "H" 
			},
			{
				"x": -1.143265526,
				"y": -1.1620978915,
				"z": 2.4489490721,
				"element": "H" 
			},
			{
				"x": -4.6145042412,
				"y": 1.1616144469,
				"z": -0.2874192885,
				"element": "H" 
			},
			{
				"x": -5.7111218284,
				"y": 1.1927532576,
				"z": -2.5322889684,
				"element": "H" 
			},
			{
				"x": -4.6118226296,
				"y": 0.0642977889,
				"z": -4.4537657747,
				"element": "H" 
			},
			{
				"x": -2.4352603273,
				"y": -1.0887789216,
				"z": -4.1397428117,
				"element": "H" 
			},
			{
				"x": -1.3558287792,
				"y": -1.1142019237,
				"z": -1.903480161,
				"element": "H" 
			}
		],
		 "valence_orbital": [ 
			{
				"type": "occ",
				"energy": -0.26931,
				"method": "rhf"
			},
			{
				"type": "occ",
				"energy": -0.26693,
				"method": "rhf"
			},
			{
				"type": "occ",
				"energy": -0.26587,
				"method": "rhf"
			},
			{
				"type": "occ",
				"energy": -0.26456,
				"method": "rhf"
			},
			{
				"type": "occ",
				"energy": -0.23768,
				"method": "rhf"
			},
			{
				"type": "unocc",
				"energy": -0.05534,
				"method": "rhf"
			},
			{
				"type": "unocc",
				"energy": -0.01522,
				"method": "rhf"
			},
			{
				"type": "unocc",
				"energy": -0.00903,
				"method": "rhf"
			},
			{
				"type": "unocc",
				"energy": 0.02164,
				"method": "rhf"
			},
			{
				"type": "unocc",
				"energy": 0.04794,
				"method": "rhf"
			}
		],
		"cosmo_sigma_profile": { 
			"-0.025": 0.0,
			"-0.024": 0.0,
			"-0.023": 0.0,
			"-0.022": 0.0,
			"-0.021": 0.0,
			"-0.02": 0.0,
			"-0.019": 0.0,
			"-0.018": 0.0,
			"-0.017": 0.0,
			"-0.016": 0.0,
			"-0.015": 0.0,
			"-0.014": 0.301972988709,
			"-0.013": 1.55880530635,
			"-0.012": 0.821646291448,
			"-0.011": 1.1816391947,
			"-0.01": 1.08935449179,
			"-0.009": 1.75193473786,
			"-0.008": 4.14320432093,
			"-0.007": 9.68183995754,
			"-0.006": 21.4418745911,
			"-0.005": 26.1731495801,
			"-0.004": 25.7256037952,
			"-0.003": 25.0748068686,
			"-0.002": 18.5235539276,
			"-0.001": 16.2971844367,
			"0.0": 19.8636762379,
			"0.001": 19.4140680644,
			"0.002": 17.2615209928,
			"0.003": 17.1083254123,
			"0.004": 15.7284025853,
			"0.005": 4.66351166833,
			"0.006": 4.44520942045,
			"0.007": 3.6479676627,
			"0.008": 4.19113590678,
			"0.009": 4.26805760978,
			"0.01": 4.21843192092,
			"0.011": 7.60832732497,
			"0.012": 5.27358003735,
			"0.013": 6.09118753303,
			"0.014": 5.15036329423,
			"0.015": 0.669802893062,
			"0.016": 0.0,
			"0.017": 0.0,
			"0.018": 0.0,
			"0.019": 0.0,
			"0.02": 0.0,
			"0.021": 0.0,
			"0.022": 0.0,
			"0.023": 0.0,
			"0.024": 0.0,
			"0.025": 0.0
		}
	}
}
