{
	 "smiles": "[O-][N+](=O)C1=CC(=CC=C1N1CCOCC1)C(F)(F)F", 
	 "Tm": 308.15, 
	 "num_atms": 30, 
	 "gaussian": { 
		 "optdone": 1, 
		 "sigma_profile": "yes", 
		 "theory": "DFT", 
		 "functional": "B3LYP", 
		 "basiset": "6-31G**", 
		 "properties": { 
			 "R2extent": 6462.3361, 
			 "electric_dipole_moment_norm": 4.63960604147, 
			 "electric_quadrupole_moment_norm": 9.06229763691, 
			 "total_energy": -1060.36705619, 
			 "HOMO_LUMO_gap": 0.14286, 
			 "cosmo_polarized_energy": -13.27, 
			 "cosmo_cavitation_energy": 34.37, 
			 "cosmo_dispersion_energy": -24.52, 
			 "cosmo_repulsion_energy": 1.81, 
			 "cosmo_total_nonelectrostatic_energy": 11.65, 
			 "SMD_solvation_energy": 8.27 
		},
		"coords": [
			{
				"x": 0.6863941065,
				"y": -0.7064180961,
				"z": -2.3914424823,
				"element": "O" 
			},
			{
				"x": -0.494039638,
				"y": -0.9603435023,
				"z": -2.134887087,
				"element": "N" 
			},
			{
				"x": -1.3195897094,
				"y": -1.3385601347,
				"z": -2.9685410988,
				"element": "O" 
			},
			{
				"x": -0.92012452,
				"y": -0.8841723282,
				"z": -0.735813162,
				"element": "C" 
			},
			{
				"x": -1.8359178281,
				"y": -1.8657578909,
				"z": -0.3485335081,
				"element": "C" 
			},
			{
				"x": -2.1364726775,
				"y": -2.0598756129,
				"z": 0.9900647841,
				"element": "C" 
			},
			{
				"x": -1.4991815968,
				"y": -1.2572614972,
				"z": 1.9480901556,
				"element": "C" 
			},
			{
				"x": -0.6303004106,
				"y": -0.2517294089,
				"z": 1.5673701876,
				"element": "C" 
			},
			{
				"x": -0.3345518537,
				"y": 0.015153946,
				"z": 0.2024285008,
				"element": "C" 
			},
			{
				"x": 0.4305341594,
				"y": 1.102608113,
				"z": -0.1377385109,
				"element": "N" 
			},
			{
				"x": 0.2702475621,
				"y": 1.8331845261,
				"z": -1.402757999,
				"element": "C" 
			},
			{
				"x": 0.3346833382,
				"y": 3.3375073176,
				"z": -1.1436666742,
				"element": "C" 
			},
			{
				"x": 1.5685021396,
				"y": 3.750048926,
				"z": -0.5622298649,
				"element": "O" 
			},
			{
				"x": 2.2113685102,
				"y": 2.7402734432,
				"z": 0.2048217544,
				"element": "C" 
			},
			{
				"x": 1.2211092285,
				"y": 1.7982773552,
				"z": 0.8834457514,
				"element": "C" 
			},
			{
				"x": -3.1348267503,
				"y": -3.0945408485,
				"z": 1.4192239613,
				"element": "C" 
			},
			{
				"x": -3.3612071933,
				"y": -4.0123584317,
				"z": 0.4562888804,
				"element": "F" 
			},
			{
				"x": -4.3310794968,
				"y": -2.5399429558,
				"z": 1.7293476516,
				"element": "F" 
			},
			{
				"x": -2.7194077761,
				"y": -3.7531552619,
				"z": 2.5264007371,
				"element": "F" 
			},
			{
				"x": -2.2636766465,
				"y": -2.4971596452,
				"z": -1.1165698105,
				"element": "H" 
			},
			{
				"x": -1.7023440943,
				"y": -1.4137606986,
				"z": 3.0026185162,
				"element": "H" 
			},
			{
				"x": -0.1989426905,
				"y": 0.3764537572,
				"z": 2.3354407205,
				"element": "H" 
			},
			{
				"x": 1.0288496583,
				"y": 1.533121692,
				"z": -2.1328556258,
				"element": "H" 
			},
			{
				"x": -0.7075367397,
				"y": 1.5960240782,
				"z": -1.833753447,
				"element": "H" 
			},
			{
				"x": 0.2306259071,
				"y": 3.8719059825,
				"z": -2.0936548415,
				"element": "H" 
			},
			{
				"x": -0.5045692782,
				"y": 3.6367408792,
				"z": -0.4968636288,
				"element": "H" 
			},
			{
				"x": 2.8955257843,
				"y": 2.1523140399,
				"z": -0.425407114,
				"element": "H" 
			},
			{
				"x": 2.8104852079,
				"y": 3.2500104585,
				"z": 0.9657813284,
				"element": "H" 
			},
			{
				"x": 1.7761895071,
				"y": 1.0643629672,
				"z": 1.477665704,
				"element": "H" 
			},
			{
				"x": 0.5830537907,
				"y": 2.3743488313,
				"z": 1.5715262216,
				"element": "H" 
			}
		],
		 "valence_orbital": [ 
			{
				"type": "occ",
				"energy": -0.30581,
				"method": "rhf"
			},
			{
				"type": "occ",
				"energy": -0.2995,
				"method": "rhf"
			},
			{
				"type": "occ",
				"energy": -0.27825,
				"method": "rhf"
			},
			{
				"type": "occ",
				"energy": -0.26713,
				"method": "rhf"
			},
			{
				"type": "occ",
				"energy": -0.22874,
				"method": "rhf"
			},
			{
				"type": "unocc",
				"energy": -0.08588,
				"method": "rhf"
			},
			{
				"type": "unocc",
				"energy": -0.03116,
				"method": "rhf"
			},
			{
				"type": "unocc",
				"energy": -0.01871,
				"method": "rhf"
			},
			{
				"type": "unocc",
				"energy": 0.06437,
				"method": "rhf"
			},
			{
				"type": "unocc",
				"energy": 0.07364,
				"method": "rhf"
			}
		],
		"cosmo_sigma_profile": { 
			"-0.025": 0.0,
			"-0.024": 0.0,
			"-0.023": 0.0,
			"-0.022": 0.0,
			"-0.021": 0.0,
			"-0.02": 0.0,
			"-0.019": 0.0,
			"-0.018": 0.0,
			"-0.017": 0.0,
			"-0.016": 0.0,
			"-0.015": 0.0,
			"-0.014": 0.0,
			"-0.013": 0.0,
			"-0.012": 0.0,
			"-0.011": 0.0,
			"-0.01": 0.0,
			"-0.009": 0.0522712043162,
			"-0.008": 4.32129734684,
			"-0.007": 9.8072589571,
			"-0.006": 18.8354991908,
			"-0.005": 26.8699234897,
			"-0.004": 24.8724223511,
			"-0.003": 16.8645006906,
			"-0.002": 14.1703173805,
			"-0.001": 13.1000549929,
			"0.0": 18.6099590087,
			"0.001": 20.9118891286,
			"0.002": 23.8832576181,
			"0.003": 31.4716526699,
			"0.004": 6.89696841001,
			"0.005": 4.46950882825,
			"0.006": 5.00243787407,
			"0.007": 5.08125725601,
			"0.008": 10.5464468334,
			"0.009": 7.4099978569,
			"0.01": 4.60863421339,
			"0.011": 1.67030731381,
			"0.012": 1.58269056294,
			"0.013": 1.87385514989,
			"0.014": 0.0167004331906,
			"0.015": 0.0,
			"0.016": 0.0,
			"0.017": 0.0,
			"0.018": 0.0,
			"0.019": 0.0,
			"0.02": 0.0,
			"0.021": 0.0,
			"0.022": 0.0,
			"0.023": 0.0,
			"0.024": 0.0,
			"0.025": 0.0
		}
	}
}
