{
	 "smiles": "FC(F)(F)C(C(=O)NCC=C)C(F)(F)F", 
	 "Tm": 390.15, 
	 "num_atms": 22, 
	 "gaussian": { 
		 "optdone": 1, 
		 "sigma_profile": "yes", 
		 "theory": "DFT", 
		 "functional": "B3LYP", 
		 "basiset": "6-31G**", 
		 "properties": { 
			 "R2extent": 4536.4839, 
			 "electric_dipole_moment_norm": 2.28339469212, 
			 "electric_quadrupole_moment_norm": 4.1127385329, 
			 "total_energy": -999.978842249, 
			 "HOMO_LUMO_gap": 0.26331, 
			 "cosmo_polarized_energy": -9.96, 
			 "cosmo_cavitation_energy": 29.16, 
			 "cosmo_dispersion_energy": -19.02, 
			 "cosmo_repulsion_energy": 1.41, 
			 "cosmo_total_nonelectrostatic_energy": 11.55, 
			 "SMD_solvation_energy": 7.99 
		},
		"coords": [
			{
				"x": 0.2956784781,
				"y": -1.2355986728,
				"z": -3.2268171388,
				"element": "F" 
			},
			{
				"x": 1.2345957534,
				"y": -1.881281681,
				"z": -2.513216129,
				"element": "C" 
			},
			{
				"x": 2.3629319703,
				"y": -1.1314375994,
				"z": -2.5515697033,
				"element": "F" 
			},
			{
				"x": 1.504444219,
				"y": -3.041301385,
				"z": -3.1352844415,
				"element": "F" 
			},
			{
				"x": 0.739945847,
				"y": -2.1076202068,
				"z": -1.0849521752,
				"element": "C" 
			},
			{
				"x": 0.2090597454,
				"y": -0.8038016845,
				"z": -0.4303260828,
				"element": "C" 
			},
			{
				"x": -0.9668000446,
				"y": -0.7153581811,
				"z": -0.1171215375,
				"element": "O" 
			},
			{
				"x": 1.1370849941,
				"y": 0.1674374672,
				"z": -0.2311930053,
				"element": "N" 
			},
			{
				"x": 0.7695207702,
				"y": 1.4767060108,
				"z": 0.3143323368,
				"element": "C" 
			},
			{
				"x": 0.4627258831,
				"y": 2.4951267447,
				"z": -0.7560304317,
				"element": "C" 
			},
			{
				"x": -0.724890982,
				"y": 3.0791234452,
				"z": -0.9060908559,
				"element": "C" 
			},
			{
				"x": 1.7666775455,
				"y": -2.8249181459,
				"z": -0.2086803037,
				"element": "C" 
			},
			{
				"x": 1.2837598341,
				"y": -2.969824123,
				"z": 1.0381761915,
				"element": "F" 
			},
			{
				"x": 2.9314706604,
				"y": -2.140948086,
				"z": -0.1189938415,
				"element": "F" 
			},
			{
				"x": 2.0558806599,
				"y": -4.0479576851,
				"z": -0.6854920513,
				"element": "F" 
			},
			{
				"x": -0.129125836,
				"y": -2.764485197,
				"z": -1.1534489853,
				"element": "H" 
			},
			{
				"x": 2.0769245143,
				"y": 0.0189821178,
				"z": -0.5674333894,
				"element": "H" 
			},
			{
				"x": 1.6014684489,
				"y": 1.8156637118,
				"z": 0.9432029149,
				"element": "H" 
			},
			{
				"x": -0.1020105497,
				"y": 1.3238483823,
				"z": 0.9537718586,
				"element": "H" 
			},
			{
				"x": 1.2811493306,
				"y": 2.7436302629,
				"z": -1.4319620381,
				"element": "H" 
			},
			{
				"x": -1.5614432912,
				"y": 2.8404622452,
				"z": -0.2543043269,
				"element": "H" 
			},
			{
				"x": -0.9053479508,
				"y": 3.8125522596,
				"z": -1.6863668648,
				"element": "H" 
			}
		],
		 "valence_orbital": [ 
			{
				"type": "occ",
				"energy": -0.3805,
				"method": "rhf"
			},
			{
				"type": "occ",
				"energy": -0.36063,
				"method": "rhf"
			},
			{
				"type": "occ",
				"energy": -0.28111,
				"method": "rhf"
			},
			{
				"type": "occ",
				"energy": -0.26919,
				"method": "rhf"
			},
			{
				"type": "occ",
				"energy": -0.26691,
				"method": "rhf"
			},
			{
				"type": "unocc",
				"energy": -0.0036,
				"method": "rhf"
			},
			{
				"type": "unocc",
				"energy": 0.01009,
				"method": "rhf"
			},
			{
				"type": "unocc",
				"energy": 0.07522,
				"method": "rhf"
			},
			{
				"type": "unocc",
				"energy": 0.09199,
				"method": "rhf"
			},
			{
				"type": "unocc",
				"energy": 0.09845,
				"method": "rhf"
			}
		],
		"cosmo_sigma_profile": { 
			"-0.025": 0.0,
			"-0.024": 0.0,
			"-0.023": 0.0,
			"-0.022": 0.0,
			"-0.021": 0.0,
			"-0.02": 0.0,
			"-0.019": 0.0,
			"-0.018": 0.0,
			"-0.017": 0.0,
			"-0.016": 0.0,
			"-0.015": 0.0943259774729,
			"-0.014": 0.54690082202,
			"-0.013": 0.698083678812,
			"-0.012": 1.02410396554,
			"-0.011": 3.25652015611,
			"-0.01": 2.84566779751,
			"-0.009": 2.22654598205,
			"-0.008": 2.85955964982,
			"-0.007": 3.44291990548,
			"-0.006": 7.38090394852,
			"-0.005": 11.8507570067,
			"-0.004": 10.5086395361,
			"-0.003": 13.2019091394,
			"-0.002": 13.0329873192,
			"-0.001": 16.2282276516,
			"0.0": 19.8669322786,
			"0.001": 34.6500160363,
			"0.002": 53.1214739524,
			"0.003": 6.51944069244,
			"0.004": 4.52405696217,
			"0.005": 4.76256811354,
			"0.006": 4.52137864424,
			"0.007": 1.85918279717,
			"0.008": 1.26356655458,
			"0.009": 1.47298805863,
			"0.01": 1.71770230244,
			"0.011": 1.8435564074,
			"0.012": 4.77012754821,
			"0.013": 2.13222118244,
			"0.014": 0.0152051190563,
			"0.015": 0.0,
			"0.016": 0.0,
			"0.017": 0.0,
			"0.018": 0.0,
			"0.019": 0.0,
			"0.02": 0.0,
			"0.021": 0.0,
			"0.022": 0.0,
			"0.023": 0.0,
			"0.024": 0.0,
			"0.025": 0.0
		}
	}
}
