{
	 "smiles": "ClC(Cl)(Cl)C(=O)OCCOC(=O)C(Cl)(Cl)Cl", 
	 "Tm": 313.15, 
	 "num_atms": 20, 
	 "gaussian": { 
		 "optdone": 1, 
		 "sigma_profile": "yes", 
		 "theory": "DFT", 
		 "functional": "B3LYP", 
		 "basiset": "6-31G**", 
		 "properties": { 
			 "R2extent": 10332.4965, 
			 "electric_dipole_moment_norm": 2.67184478217, 
			 "electric_quadrupole_moment_norm": 11.1957227703, 
			 "total_energy": -3293.05131324, 
			 "HOMO_LUMO_gap": 0.24496, 
			 "cosmo_polarized_energy": -11.05, 
			 "cosmo_cavitation_energy": 37.33, 
			 "cosmo_dispersion_energy": -25.36, 
			 "cosmo_repulsion_energy": 2.03, 
			 "cosmo_total_nonelectrostatic_energy": 14.0, 
			 "SMD_solvation_energy": 6.35 
		},
		"coords": [
			{
				"x": -3.8933679866,
				"y": -0.7323761464,
				"z": 1.2446516931,
				"element": "Cl" 
			},
			{
				"x": -3.7643270526,
				"y": -0.8166443807,
				"z": -0.5468447001,
				"element": "C" 
			},
			{
				"x": -4.923681879,
				"y": 0.3074143489,
				"z": -1.2908365421,
				"element": "Cl" 
			},
			{
				"x": -4.0984537746,
				"y": -2.4971224118,
				"z": -1.1084011307,
				"element": "Cl" 
			},
			{
				"x": -2.3118345547,
				"y": -0.436026083,
				"z": -0.9707901546,
				"element": "C" 
			},
			{
				"x": -2.0464375002,
				"y": 0.4720730313,
				"z": -1.7136239343,
				"element": "O" 
			},
			{
				"x": -1.4345173099,
				"y": -1.2641422785,
				"z": -0.399760441,
				"element": "O" 
			},
			{
				"x": -0.0482583765,
				"y": -1.0201762254,
				"z": -0.7282394843,
				"element": "C" 
			},
			{
				"x": 0.7832907639,
				"y": -2.0663117604,
				"z": -0.0189739063,
				"element": "C" 
			},
			{
				"x": 0.7414390746,
				"y": -1.9106137359,
				"z": 1.418174985,
				"element": "O" 
			},
			{
				"x": 1.5910258825,
				"y": -1.0200764992,
				"z": 1.9368183763,
				"element": "C" 
			},
			{
				"x": 2.3652012413,
				"y": -0.333530695,
				"z": 1.3213926827,
				"element": "O" 
			},
			{
				"x": 1.4471285741,
				"y": -0.9844099668,
				"z": 3.4898330941,
				"element": "C" 
			},
			{
				"x": -0.2358324422,
				"y": -0.4948532956,
				"z": 3.8959528051,
				"element": "Cl" 
			},
			{
				"x": 2.5991430982,
				"y": 0.1844378254,
				"z": 4.1752540996,
				"element": "Cl" 
			},
			{
				"x": 1.7855864696,
				"y": -2.6278572038,
				"z": 4.1416195888,
				"element": "Cl" 
			},
			{
				"x": 0.2282735616,
				"y": -0.0069213953,
				"z": -0.4278499507,
				"element": "H" 
			},
			{
				"x": 0.0876350099,
				"y": -1.106332021,
				"z": -1.8111952766,
				"element": "H" 
			},
			{
				"x": 0.3897508619,
				"y": -3.0672677364,
				"z": -0.2003675354,
				"element": "H" 
			},
			{
				"x": 1.8183363386,
				"y": -1.9977633703,
				"z": -0.3621142685,
				"element": "H" 
			}
		],
		 "valence_orbital": [ 
			{
				"type": "occ",
				"energy": -0.33164,
				"method": "rhf"
			},
			{
				"type": "occ",
				"energy": -0.31825,
				"method": "rhf"
			},
			{
				"type": "occ",
				"energy": -0.31734,
				"method": "rhf"
			},
			{
				"type": "occ",
				"energy": -0.31033,
				"method": "rhf"
			},
			{
				"type": "occ",
				"energy": -0.30767,
				"method": "rhf"
			},
			{
				"type": "unocc",
				"energy": -0.06271,
				"method": "rhf"
			},
			{
				"type": "unocc",
				"energy": -0.05992,
				"method": "rhf"
			},
			{
				"type": "unocc",
				"energy": -0.05405,
				"method": "rhf"
			},
			{
				"type": "unocc",
				"energy": -0.05108,
				"method": "rhf"
			},
			{
				"type": "unocc",
				"energy": -0.01043,
				"method": "rhf"
			}
		],
		"cosmo_sigma_profile": { 
			"-0.025": 0.0,
			"-0.024": 0.0,
			"-0.023": 0.0,
			"-0.022": 0.0,
			"-0.021": 0.0,
			"-0.02": 0.0,
			"-0.019": 0.0,
			"-0.018": 0.0,
			"-0.017": 0.0,
			"-0.016": 0.0,
			"-0.015": 0.0,
			"-0.014": 0.0,
			"-0.013": 0.0,
			"-0.012": 0.0,
			"-0.011": 0.0,
			"-0.01": 0.375515641828,
			"-0.009": 5.71193580785,
			"-0.008": 10.4069915533,
			"-0.007": 8.84839796304,
			"-0.006": 12.0365338585,
			"-0.005": 13.9215222219,
			"-0.004": 16.8330669509,
			"-0.003": 15.48160031,
			"-0.002": 18.3402704697,
			"-0.001": 21.6178307205,
			"0.0": 23.3167299387,
			"0.001": 34.4832517549,
			"0.002": 61.4969975604,
			"0.003": 24.7716004479,
			"0.004": 11.3779128523,
			"0.005": 7.82922569764,
			"0.006": 3.5668552286,
			"0.007": 4.71549323533,
			"0.008": 5.26915827044,
			"0.009": 8.13891050265,
			"0.01": 3.15777499569,
			"0.011": 0.0163771690126,
			"0.012": 0.0,
			"0.013": 0.0,
			"0.014": 0.0,
			"0.015": 0.0,
			"0.016": 0.0,
			"0.017": 0.0,
			"0.018": 0.0,
			"0.019": 0.0,
			"0.02": 0.0,
			"0.021": 0.0,
			"0.022": 0.0,
			"0.023": 0.0,
			"0.024": 0.0,
			"0.025": 0.0
		}
	}
}
