{
	 "smiles": "CC(=O)NC1=NC(CCl)=CS1", 
	 "Tm": 433.15, 
	 "num_atms": 18, 
	 "gaussian": { 
		 "optdone": 1, 
		 "sigma_profile": "yes", 
		 "theory": "DFT", 
		 "functional": "B3LYP", 
		 "basiset": "6-31G**", 
		 "properties": { 
			 "R2extent": 4128.9925, 
			 "electric_dipole_moment_norm": 2.96242411042, 
			 "electric_quadrupole_moment_norm": 17.4786535402, 
			 "total_energy": -1275.98107883, 
			 "HOMO_LUMO_gap": 0.1944, 
			 "cosmo_polarized_energy": -15.07, 
			 "cosmo_cavitation_energy": 26.09, 
			 "cosmo_dispersion_energy": -19.92, 
			 "cosmo_repulsion_energy": 1.59, 
			 "cosmo_total_nonelectrostatic_energy": 7.76, 
			 "SMD_solvation_energy": 3.46 
		},
		"coords": [
			{
				"x": 0.6766355453,
				"y": -3.93370395,
				"z": -1.2357860803,
				"element": "C" 
			},
			{
				"x": 1.0439660407,
				"y": -3.1062497713,
				"z": -0.0209277676,
				"element": "C" 
			},
			{
				"x": 2.0304378892,
				"y": -3.3276887947,
				"z": 0.6662511189,
				"element": "O" 
			},
			{
				"x": 0.1685550787,
				"y": -2.0835395803,
				"z": 0.2848923334,
				"element": "N" 
			},
			{
				"x": 0.2908171476,
				"y": -1.217546508,
				"z": 1.3615546528,
				"element": "C" 
			},
			{
				"x": -0.5934107727,
				"y": -0.2854023231,
				"z": 1.5727142117,
				"element": "N" 
			},
			{
				"x": -0.2591862308,
				"y": 0.4466985073,
				"z": 2.6952682324,
				"element": "C" 
			},
			{
				"x": -1.1425628733,
				"y": 1.5678877864,
				"z": 3.1207735578,
				"element": "C" 
			},
			{
				"x": -0.8957159987,
				"y": 3.0815180767,
				"z": 2.1112645974,
				"element": "Cl" 
			},
			{
				"x": 0.883173078,
				"y": 0.0535658745,
				"z": 3.3324782024,
				"element": "C" 
			},
			{
				"x": 1.6129092996,
				"y": -1.2990370971,
				"z": 2.5158591835,
				"element": "S" 
			},
			{
				"x": 1.5868634351,
				"y": -4.1466883634,
				"z": -1.7993973007,
				"element": "H" 
			},
			{
				"x": 0.2616952722,
				"y": -4.8906124354,
				"z": -0.9026620824,
				"element": "H" 
			},
			{
				"x": -0.0509420979,
				"y": -3.4460124281,
				"z": -1.8897677552,
				"element": "H" 
			},
			{
				"x": -0.6389777385,
				"y": -1.9037692793,
				"z": -0.2968968258,
				"element": "H" 
			},
			{
				"x": -2.1934290608,
				"y": 1.30795389,
				"z": 2.995602375,
				"element": "H" 
			},
			{
				"x": -0.9499464064,
				"y": 1.8627253076,
				"z": 4.151443436,
				"element": "H" 
			},
			{
				"x": 1.3368183924,
				"y": 0.4792010881,
				"z": 4.2165359107,
				"element": "H" 
			}
		],
		 "valence_orbital": [ 
			{
				"type": "occ",
				"energy": -0.29208,
				"method": "rhf"
			},
			{
				"type": "occ",
				"energy": -0.28945,
				"method": "rhf"
			},
			{
				"type": "occ",
				"energy": -0.27947,
				"method": "rhf"
			},
			{
				"type": "occ",
				"energy": -0.27517,
				"method": "rhf"
			},
			{
				"type": "occ",
				"energy": -0.23106,
				"method": "rhf"
			},
			{
				"type": "unocc",
				"energy": -0.03666,
				"method": "rhf"
			},
			{
				"type": "unocc",
				"energy": -0.00833,
				"method": "rhf"
			},
			{
				"type": "unocc",
				"energy": 0.02328,
				"method": "rhf"
			},
			{
				"type": "unocc",
				"energy": 0.03579,
				"method": "rhf"
			},
			{
				"type": "unocc",
				"energy": 0.05531,
				"method": "rhf"
			}
		],
		"cosmo_sigma_profile": { 
			"-0.025": 0.0,
			"-0.024": 0.0,
			"-0.023": 0.0,
			"-0.022": 0.0,
			"-0.021": 0.0,
			"-0.02": 0.0,
			"-0.019": 0.0,
			"-0.018": 0.0,
			"-0.017": 0.0472011152342,
			"-0.016": 0.853592772094,
			"-0.015": 1.10649606641,
			"-0.014": 1.40590147298,
			"-0.013": 1.29525723827,
			"-0.012": 0.794661759929,
			"-0.011": 1.30229531709,
			"-0.01": 1.24957950725,
			"-0.009": 4.08980420101,
			"-0.008": 6.93626364087,
			"-0.007": 8.65006377906,
			"-0.006": 11.7277361943,
			"-0.005": 12.1649844663,
			"-0.004": 12.9893505981,
			"-0.003": 12.5953351376,
			"-0.002": 13.7397084936,
			"-0.001": 11.0725265571,
			"0.0": 12.7604882277,
			"0.001": 10.1455117511,
			"0.002": 14.6254447305,
			"0.003": 11.1759544809,
			"0.004": 10.0531902583,
			"0.005": 8.55351485429,
			"0.006": 12.1225558611,
			"0.007": 11.7130117972,
			"0.008": 3.61573477577,
			"0.009": 2.90160888259,
			"0.01": 2.32871040525,
			"0.011": 3.39663068464,
			"0.012": 4.24357420517,
			"0.013": 2.21690984369,
			"0.014": 0.491852395401,
			"0.015": 0.0,
			"0.016": 0.0,
			"0.017": 0.0,
			"0.018": 0.0,
			"0.019": 0.0,
			"0.02": 0.0,
			"0.021": 0.0,
			"0.022": 0.0,
			"0.023": 0.0,
			"0.024": 0.0,
			"0.025": 0.0
		}
	}
}
