{
	 "smiles": "OC(=O)CN1C=C(N=N1)C1CC1", 
	 "Tm": 457.15, 
	 "num_atms": 21, 
	 "gaussian": { 
		 "optdone": 1, 
		 "sigma_profile": "yes", 
		 "theory": "DFT", 
		 "functional": "B3LYP", 
		 "basiset": "6-31G**", 
		 "properties": { 
			 "R2extent": 2988.7363, 
			 "electric_dipole_moment_norm": 5.55179560233, 
			 "electric_quadrupole_moment_norm": 23.3323661681, 
			 "total_energy": -586.810937332, 
			 "HOMO_LUMO_gap": 0.22145, 
			 "cosmo_polarized_energy": -16.42, 
			 "cosmo_cavitation_energy": 25.43, 
			 "cosmo_dispersion_energy": -18.9, 
			 "cosmo_repulsion_energy": 1.52, 
			 "cosmo_total_nonelectrostatic_energy": 8.05, 
			 "SMD_solvation_energy": 4.21 
		},
		"coords": [
			{
				"x": -3.4937393123,
				"y": 0.1050597411,
				"z": -1.7195187293,
				"element": "O" 
			},
			{
				"x": -3.7760053127,
				"y": 1.0442284649,
				"z": -0.8184027635,
				"element": "C" 
			},
			{
				"x": -4.8963441598,
				"y": 1.4332627095,
				"z": -0.5921457062,
				"element": "O" 
			},
			{
				"x": -2.5903364188,
				"y": 1.7209682942,
				"z": -0.0929322536,
				"element": "C" 
			},
			{
				"x": -1.3903977109,
				"y": 0.9044014855,
				"z": 0.0652610878,
				"element": "N" 
			},
			{
				"x": -0.5622335075,
				"y": 0.7785064254,
				"z": 1.1331895261,
				"element": "C" 
			},
			{
				"x": 0.4336388858,
				"y": -0.0840153411,
				"z": 0.7076590205,
				"element": "C" 
			},
			{
				"x": 0.1607141507,
				"y": -0.4362621599,
				"z": -0.5816446203,
				"element": "N" 
			},
			{
				"x": -0.9300273829,
				"y": 0.1689466808,
				"z": -0.966490249,
				"element": "N" 
			},
			{
				"x": 1.6106960924,
				"y": -0.5945678938,
				"z": 1.4376724401,
				"element": "C" 
			},
			{
				"x": 2.1011217037,
				"y": -2.0085308902,
				"z": 1.18274614,
				"element": "C" 
			},
			{
				"x": 2.9097964689,
				"y": -0.8442241015,
				"z": 0.6926637008,
				"element": "C" 
			},
			{
				"x": -2.5191288377,
				"y": -0.0636984024,
				"z": -1.7500309906,
				"element": "H" 
			},
			{
				"x": -2.9410018706,
				"y": 2.016953316,
				"z": 0.8949293849,
				"element": "H" 
			},
			{
				"x": -2.3402250465,
				"y": 2.6297916952,
				"z": -0.6528864158,
				"element": "H" 
			},
			{
				"x": -0.7363513772,
				"y": 1.2892792926,
				"z": 2.0671057121,
				"element": "H" 
			},
			{
				"x": 1.6948018021,
				"y": -0.2248659629,
				"z": 2.4555723739,
				"element": "H" 
			},
			{
				"x": 2.4628560482,
				"y": -2.5755171509,
				"z": 2.0350319851,
				"element": "H" 
			},
			{
				"x": 1.5529120798,
				"y": -2.5859238243,
				"z": 0.4453959029,
				"element": "H" 
			},
			{
				"x": 2.9035976496,
				"y": -0.6411335583,
				"z": -0.3733433216,
				"element": "H" 
			},
			{
				"x": 3.8361560557,
				"y": -0.5984588198,
				"z": 1.2027677757,
				"element": "H" 
			}
		],
		 "valence_orbital": [ 
			{
				"type": "occ",
				"energy": -0.31365,
				"method": "rhf"
			},
			{
				"type": "occ",
				"energy": -0.31165,
				"method": "rhf"
			},
			{
				"type": "occ",
				"energy": -0.29003,
				"method": "rhf"
			},
			{
				"type": "occ",
				"energy": -0.2761,
				"method": "rhf"
			},
			{
				"type": "occ",
				"energy": -0.25298,
				"method": "rhf"
			},
			{
				"type": "unocc",
				"energy": -0.03153,
				"method": "rhf"
			},
			{
				"type": "unocc",
				"energy": 0.00441,
				"method": "rhf"
			},
			{
				"type": "unocc",
				"energy": 0.02731,
				"method": "rhf"
			},
			{
				"type": "unocc",
				"energy": 0.07428,
				"method": "rhf"
			},
			{
				"type": "unocc",
				"energy": 0.0834,
				"method": "rhf"
			}
		],
		"cosmo_sigma_profile": { 
			"-0.025": 0.0,
			"-0.024": 0.0,
			"-0.023": 0.0,
			"-0.022": 0.0,
			"-0.021": 0.0,
			"-0.02": 0.0,
			"-0.019": 0.0,
			"-0.018": 0.0,
			"-0.017": 0.0,
			"-0.016": 0.0,
			"-0.015": 0.0,
			"-0.014": 0.0,
			"-0.013": 0.0,
			"-0.012": 0.604029250252,
			"-0.011": 3.11167990659,
			"-0.01": 6.74726417345,
			"-0.009": 6.16567359482,
			"-0.008": 7.02128078937,
			"-0.007": 8.01231748918,
			"-0.006": 8.88315954518,
			"-0.005": 11.4655512942,
			"-0.004": 14.719669819,
			"-0.003": 11.0475782485,
			"-0.002": 11.4926652692,
			"-0.001": 11.4216410284,
			"0.0": 13.2373254834,
			"0.001": 11.4795369684,
			"0.002": 12.4776894119,
			"0.003": 10.7478311048,
			"0.004": 9.25397297693,
			"0.005": 4.16216624492,
			"0.006": 4.40449740994,
			"0.007": 5.18862938334,
			"0.008": 4.89104886602,
			"0.009": 4.84625798453,
			"0.01": 6.7285041344,
			"0.011": 5.88978082339,
			"0.012": 5.78301454155,
			"0.013": 1.99755657513,
			"0.014": 0.648042677312,
			"0.015": 0.208157143039,
			"0.016": 0.0,
			"0.017": 0.0,
			"0.018": 0.0,
			"0.019": 0.0,
			"0.02": 0.0,
			"0.021": 0.0,
			"0.022": 0.0,
			"0.023": 0.0,
			"0.024": 0.0,
			"0.025": 0.0
		}
	}
}
