{
	 "smiles": "ClC1=CC(=CC=C1)N1C=C(C=N1)C#N", 
	 "Tm": 413.15, 
	 "num_atms": 20, 
	 "gaussian": { 
		 "optdone": 1, 
		 "sigma_profile": "yes", 
		 "theory": "DFT", 
		 "functional": "B3LYP", 
		 "basiset": "6-31G**", 
		 "properties": { 
			 "R2extent": 4289.2593, 
			 "electric_dipole_moment_norm": 4.00043071181, 
			 "electric_quadrupole_moment_norm": 24.3509514315, 
			 "total_energy": -1009.0857941, 
			 "HOMO_LUMO_gap": 0.19076, 
			 "cosmo_polarized_energy": -12.71, 
			 "cosmo_cavitation_energy": 28.15, 
			 "cosmo_dispersion_energy": -20.36, 
			 "cosmo_repulsion_energy": 1.58, 
			 "cosmo_total_nonelectrostatic_energy": 9.37, 
			 "SMD_solvation_energy": 5.86 
		},
		"coords": [
			{
				"x": -2.3933381606,
				"y": -0.1442194923,
				"z": 4.0168685934,
				"element": "Cl" 
			},
			{
				"x": -0.9746574421,
				"y": -0.0734715173,
				"z": 2.987013412,
				"element": "C" 
			},
			{
				"x": -1.1116785436,
				"y": -0.3767480402,
				"z": 1.6358644124,
				"element": "C" 
			},
			{
				"x": 0.0213886043,
				"y": -0.3192109944,
				"z": 0.8178060052,
				"element": "C" 
			},
			{
				"x": 1.2663066205,
				"y": 0.0359839859,
				"z": 1.3479332906,
				"element": "C" 
			},
			{
				"x": 1.3696731757,
				"y": 0.3338491258,
				"z": 2.7054373465,
				"element": "C" 
			},
			{
				"x": 0.2547126669,
				"y": 0.2835002245,
				"z": 3.5410514751,
				"element": "C" 
			},
			{
				"x": -0.1206302789,
				"y": -0.6299165757,
				"z": -0.5651219876,
				"element": "N" 
			},
			{
				"x": 0.8353784302,
				"y": -0.6373224243,
				"z": -1.5310788026,
				"element": "C" 
			},
			{
				"x": 0.2077695175,
				"y": -1.0033045528,
				"z": -2.7124420575,
				"element": "C" 
			},
			{
				"x": -1.1537077011,
				"y": -1.1987635165,
				"z": -2.3450268471,
				"element": "C" 
			},
			{
				"x": -1.3435478474,
				"y": -0.9734895726,
				"z": -1.0577596471,
				"element": "N" 
			},
			{
				"x": 0.8022203585,
				"y": -1.1466397127,
				"z": -3.9924150931,
				"element": "C" 
			},
			{
				"x": 1.2809786734,
				"y": -1.2667825998,
				"z": -5.0462971117,
				"element": "N" 
			},
			{
				"x": -2.0679019954,
				"y": -0.6527371592,
				"z": 1.2130819689,
				"element": "H" 
			},
			{
				"x": 2.1506565333,
				"y": 0.0838716816,
				"z": 0.7239915245,
				"element": "H" 
			},
			{
				"x": 2.3354641573,
				"y": 0.6094799948,
				"z": 3.11714173,
				"element": "H" 
			},
			{
				"x": 0.3331031635,
				"y": 0.5147823656,
				"z": 4.5968386344,
				"element": "H" 
			},
			{
				"x": 1.8683733334,
				"y": -0.3939737351,
				"z": -1.3445661508,
				"element": "H" 
			},
			{
				"x": -1.9781632654,
				"y": -1.4921874852,
				"z": -2.9796206953,
				"element": "H" 
			}
		],
		 "valence_orbital": [ 
			{
				"type": "occ",
				"energy": -0.31638,
				"method": "rhf"
			},
			{
				"type": "occ",
				"energy": -0.31272,
				"method": "rhf"
			},
			{
				"type": "occ",
				"energy": -0.28284,
				"method": "rhf"
			},
			{
				"type": "occ",
				"energy": -0.26769,
				"method": "rhf"
			},
			{
				"type": "occ",
				"energy": -0.25154,
				"method": "rhf"
			},
			{
				"type": "unocc",
				"energy": -0.06078,
				"method": "rhf"
			},
			{
				"type": "unocc",
				"energy": -0.03505,
				"method": "rhf"
			},
			{
				"type": "unocc",
				"energy": -0.01136,
				"method": "rhf"
			},
			{
				"type": "unocc",
				"energy": 0.01196,
				"method": "rhf"
			},
			{
				"type": "unocc",
				"energy": 0.01529,
				"method": "rhf"
			}
		],
		"cosmo_sigma_profile": { 
			"-0.025": 0.0,
			"-0.024": 0.0,
			"-0.023": 0.0,
			"-0.022": 0.0,
			"-0.021": 0.0,
			"-0.02": 0.0,
			"-0.019": 0.0,
			"-0.018": 0.0,
			"-0.017": 0.0,
			"-0.016": 0.0,
			"-0.015": 0.0,
			"-0.014": 0.0,
			"-0.013": 0.875827834226,
			"-0.012": 2.20628853071,
			"-0.011": 2.24976570788,
			"-0.01": 2.99444187096,
			"-0.009": 4.3299820101,
			"-0.008": 5.37574290691,
			"-0.007": 8.99628467591,
			"-0.006": 9.76327795967,
			"-0.005": 9.03931602956,
			"-0.004": 9.66681515867,
			"-0.003": 11.5136749405,
			"-0.002": 14.9118092965,
			"-0.001": 18.4884827058,
			"0.0": 22.5011821541,
			"0.001": 22.1222167577,
			"0.002": 20.4836342431,
			"0.003": 16.3905658371,
			"0.004": 14.1293321226,
			"0.005": 6.82129547662,
			"0.006": 3.99597684941,
			"0.007": 4.37675369874,
			"0.008": 4.77301325069,
			"0.009": 4.96601781481,
			"0.01": 3.83836930994,
			"0.011": 2.91615800205,
			"0.012": 2.34387402314,
			"0.013": 1.48164952078,
			"0.014": 0.0276704539061,
			"0.015": 0.0,
			"0.016": 0.0,
			"0.017": 0.0,
			"0.018": 0.0,
			"0.019": 0.0,
			"0.02": 0.0,
			"0.021": 0.0,
			"0.022": 0.0,
			"0.023": 0.0,
			"0.024": 0.0,
			"0.025": 0.0
		}
	}
}
