{
	 "smiles": "CCOC(=O)C1=C(N)SC(C(=O)OC)=C1CC(=O)OC", 
	 "Tm": 442.15, 
	 "num_atms": 35, 
	 "gaussian": { 
		 "optdone": 1, 
		 "sigma_profile": "yes", 
		 "theory": "DFT", 
		 "functional": "B3LYP", 
		 "basiset": "6-31G**", 
		 "properties": { 
			 "R2extent": 7304.5059, 
			 "electric_dipole_moment_norm": 3.17002030593, 
			 "electric_quadrupole_moment_norm": 14.8717051568, 
			 "total_energy": -1370.63466424, 
			 "HOMO_LUMO_gap": 0.1686, 
			 "cosmo_polarized_energy": -18.31, 
			 "cosmo_cavitation_energy": 41.15, 
			 "cosmo_dispersion_energy": -28.15, 
			 "cosmo_repulsion_energy": 2.16, 
			 "cosmo_total_nonelectrostatic_energy": 15.16, 
			 "SMD_solvation_energy": 10.4 
		},
		"coords": [
			{
				"x": -2.0405341917,
				"y": 0.8453741602,
				"z": 2.9235250873,
				"element": "C" 
			},
			{
				"x": -2.5524475744,
				"y": -0.0916097958,
				"z": 1.8454318882,
				"element": "C" 
			},
			{
				"x": -1.4002416403,
				"y": -0.5983513598,
				"z": 1.1325781846,
				"element": "O" 
			},
			{
				"x": -1.6292661211,
				"y": -1.6009880283,
				"z": 0.2558493018,
				"element": "C" 
			},
			{
				"x": -2.754766454,
				"y": -2.0761569767,
				"z": 0.1027741205,
				"element": "O" 
			},
			{
				"x": -0.4418712409,
				"y": -2.0605153717,
				"z": -0.4624884883,
				"element": "C" 
			},
			{
				"x": -0.5678186072,
				"y": -3.1397521513,
				"z": -1.3582945326,
				"element": "C" 
			},
			{
				"x": -1.6875539522,
				"y": -3.8465223107,
				"z": -1.6039391467,
				"element": "N" 
			},
			{
				"x": 0.9382803146,
				"y": -3.5242786363,
				"z": -2.1340571777,
				"element": "S" 
			},
			{
				"x": 1.7532343271,
				"y": -2.2151219265,
				"z": -1.2679526219,
				"element": "C" 
			},
			{
				"x": 3.1668229547,
				"y": -2.0850066138,
				"z": -1.6192855245,
				"element": "C" 
			},
			{
				"x": 3.7244285931,
				"y": -2.8303816829,
				"z": -2.4092039192,
				"element": "O" 
			},
			{
				"x": 3.8117591755,
				"y": -1.06505089,
				"z": -0.9985046149,
				"element": "O" 
			},
			{
				"x": 5.2002729528,
				"y": -0.9300890985,
				"z": -1.3432308625,
				"element": "C" 
			},
			{
				"x": 0.8991609589,
				"y": -1.5358156976,
				"z": -0.4258540826,
				"element": "C" 
			},
			{
				"x": 1.3225817245,
				"y": -0.3739613709,
				"z": 0.4347952091,
				"element": "C" 
			},
			{
				"x": 0.8161292762,
				"y": 0.9616175429,
				"z": -0.0876849371,
				"element": "C" 
			},
			{
				"x": 0.3350155903,
				"y": 1.1723751589,
				"z": -1.1771768825,
				"element": "O" 
			},
			{
				"x": 1.0170947254,
				"y": 1.929627484,
				"z": 0.8395210114,
				"element": "O" 
			},
			{
				"x": 0.6526030705,
				"y": 3.2551485333,
				"z": 0.4219652727,
				"element": "C" 
			},
			{
				"x": -1.4296665126,
				"y": 0.3053674444,
				"z": 3.6529426764,
				"element": "H" 
			},
			{
				"x": -2.8847479287,
				"y": 1.2992253726,
				"z": 3.4518598654,
				"element": "H" 
			},
			{
				"x": -1.4296017588,
				"y": 1.6424981362,
				"z": 2.4913764112,
				"element": "H" 
			},
			{
				"x": -3.1129540272,
				"y": -0.9336987518,
				"z": 2.2599735161,
				"element": "H" 
			},
			{
				"x": -3.2050294614,
				"y": 0.4213493422,
				"z": 1.131169855,
				"element": "H" 
			},
			{
				"x": -1.7262543551,
				"y": -4.5150532928,
				"z": -2.3553633866,
				"element": "H" 
			},
			{
				"x": -2.5344819248,
				"y": -3.4897250231,
				"z": -1.1693365068,
				"element": "H" 
			},
			{
				"x": 5.5610410033,
				"y": -0.0765860618,
				"z": -0.769114461,
				"element": "H" 
			},
			{
				"x": 5.3145202372,
				"y": -0.7486257574,
				"z": -2.4145219911,
				"element": "H" 
			},
			{
				"x": 5.7541494392,
				"y": -1.833944306,
				"z": -1.0779583813,
				"element": "H" 
			},
			{
				"x": 0.960437015,
				"y": -0.4947992936,
				"z": 1.4570649235,
				"element": "H" 
			},
			{
				"x": 2.4109009717,
				"y": -0.3116841159,
				"z": 0.4725435871,
				"element": "H" 
			},
			{
				"x": -0.4125717763,
				"y": 3.3064779655,
				"z": 0.1823278632,
				"element": "H" 
			},
			{
				"x": 0.8871280886,
				"y": 3.9052194716,
				"z": 1.2651373603,
				"element": "H" 
			},
			{
				"x": 1.2237471083,
				"y": 3.5524379014,
				"z": -0.4612686166,
				"element": "H" 
			}
		],
		 "valence_orbital": [ 
			{
				"type": "occ",
				"energy": -0.28221,
				"method": "rhf"
			},
			{
				"type": "occ",
				"energy": -0.27004,
				"method": "rhf"
			},
			{
				"type": "occ",
				"energy": -0.26888,
				"method": "rhf"
			},
			{
				"type": "occ",
				"energy": -0.25552,
				"method": "rhf"
			},
			{
				"type": "occ",
				"energy": -0.20747,
				"method": "rhf"
			},
			{
				"type": "unocc",
				"energy": -0.03887,
				"method": "rhf"
			},
			{
				"type": "unocc",
				"energy": -0.0208,
				"method": "rhf"
			},
			{
				"type": "unocc",
				"energy": 0.0131,
				"method": "rhf"
			},
			{
				"type": "unocc",
				"energy": 0.0194,
				"method": "rhf"
			},
			{
				"type": "unocc",
				"energy": 0.08128,
				"method": "rhf"
			}
		],
		"cosmo_sigma_profile": { 
			"-0.025": 0.0,
			"-0.024": 0.0,
			"-0.023": 0.0,
			"-0.022": 0.0,
			"-0.021": 0.0,
			"-0.02": 0.0,
			"-0.019": 0.0,
			"-0.018": 0.0,
			"-0.017": 0.0,
			"-0.016": 0.476381450567,
			"-0.015": 1.48581153106,
			"-0.014": 1.67446396951,
			"-0.013": 1.22104797678,
			"-0.012": 1.59406194138,
			"-0.011": 1.32457786025,
			"-0.01": 2.42858959475,
			"-0.009": 1.50778966859,
			"-0.008": 1.50672281609,
			"-0.007": 3.03860295536,
			"-0.006": 10.3178231329,
			"-0.005": 21.3656564851,
			"-0.004": 29.8488532549,
			"-0.003": 35.2539426509,
			"-0.002": 27.844974568,
			"-0.001": 26.1447246465,
			"0.0": 28.3158057161,
			"0.001": 27.8667106978,
			"0.002": 22.0322068519,
			"0.003": 15.5641105551,
			"0.004": 11.82362253,
			"0.005": 8.38470198385,
			"0.006": 6.45684383408,
			"0.007": 4.57479861713,
			"0.008": 6.13558071282,
			"0.009": 6.62632781215,
			"0.01": 4.59832436721,
			"0.011": 7.72926286266,
			"0.012": 10.1499970649,
			"0.013": 0.816463388704,
			"0.014": 0.0,
			"0.015": 0.0,
			"0.016": 0.0,
			"0.017": 0.0,
			"0.018": 0.0,
			"0.019": 0.0,
			"0.02": 0.0,
			"0.021": 0.0,
			"0.022": 0.0,
			"0.023": 0.0,
			"0.024": 0.0,
			"0.025": 0.0
		}
	}
}
