{
	 "smiles": "NC1=C(Br)C=C(Br)C(Cl)=C1C(O)=O", 
	 "Tm": 487.15, 
	 "num_atms": 17, 
	 "gaussian": { 
		 "optdone": 1, 
		 "sigma_profile": "yes", 
		 "theory": "DFT", 
		 "functional": "B3LYP", 
		 "basiset": "6-31G**", 
		 "properties": { 
			 "R2extent": 5955.5365, 
			 "electric_dipole_moment_norm": 4.69709810841, 
			 "electric_quadrupole_moment_norm": 9.73474609582, 
			 "total_energy": -6077.35265884, 
			 "HOMO_LUMO_gap": 0.1757, 
			 "cosmo_polarized_energy": -15.06, 
			 "cosmo_cavitation_energy": 27.64, 
			 "cosmo_dispersion_energy": -21.56, 
			 "cosmo_repulsion_energy": 1.7, 
			 "cosmo_total_nonelectrostatic_energy": 7.78, 
			 "SMD_solvation_energy": 3.38 
		},
		"coords": [
			{
				"x": -1.3104509691,
				"y": -1.2235781497,
				"z": -0.0841344099,
				"element": "N" 
			},
			{
				"x": -0.3037991013,
				"y": -0.2808995366,
				"z": -0.3042043082,
				"element": "C" 
			},
			{
				"x": -0.4250329867,
				"y": 0.6915777727,
				"z": -1.3124793272,
				"element": "C" 
			},
			{
				"x": -1.9410508145,
				"y": 0.677802866,
				"z": -2.478678748,
				"element": "Br" 
			},
			{
				"x": 0.5328242604,
				"y": 1.6771452664,
				"z": -1.4904504396,
				"element": "C" 
			},
			{
				"x": 1.655852021,
				"y": 1.7204417451,
				"z": -0.6677718198,
				"element": "C" 
			},
			{
				"x": 2.9218414974,
				"y": 3.1034113897,
				"z": -0.9708866274,
				"element": "Br" 
			},
			{
				"x": 1.816042254,
				"y": 0.762537223,
				"z": 0.3425572009,
				"element": "C" 
			},
			{
				"x": 3.1974815992,
				"y": 0.8543443743,
				"z": 1.3932074727,
				"element": "Cl" 
			},
			{
				"x": 0.8390166386,
				"y": -0.2338567319,
				"z": 0.5339752345,
				"element": "C" 
			},
			{
				"x": 1.0086720129,
				"y": -1.2823140671,
				"z": 1.6139818132,
				"element": "C" 
			},
			{
				"x": -0.09675269,
				"y": -1.5469426784,
				"z": 2.3557434821,
				"element": "O" 
			},
			{
				"x": 2.0343316025,
				"y": -1.8776073608,
				"z": 1.8206296967,
				"element": "O" 
			},
			{
				"x": -0.9968275931,
				"y": -2.1572284796,
				"z": 0.1509577695,
				"element": "H" 
			},
			{
				"x": -2.0190157163,
				"y": -1.2328380861,
				"z": -0.8079939423,
				"element": "H" 
			},
			{
				"x": 0.4136188895,
				"y": 2.4134437449,
				"z": -2.2747405111,
				"element": "H" 
			},
			{
				"x": -0.8595509045,
				"y": -1.0380392919,
				"z": 2.0316874641,
				"element": "H" 
			}
		],
		 "valence_orbital": [ 
			{
				"type": "occ",
				"energy": -0.30289,
				"method": "rhf"
			},
			{
				"type": "occ",
				"energy": -0.29501,
				"method": "rhf"
			},
			{
				"type": "occ",
				"energy": -0.28357,
				"method": "rhf"
			},
			{
				"type": "occ",
				"energy": -0.26844,
				"method": "rhf"
			},
			{
				"type": "occ",
				"energy": -0.24094,
				"method": "rhf"
			},
			{
				"type": "unocc",
				"energy": -0.06524,
				"method": "rhf"
			},
			{
				"type": "unocc",
				"energy": -0.03713,
				"method": "rhf"
			},
			{
				"type": "unocc",
				"energy": -0.03608,
				"method": "rhf"
			},
			{
				"type": "unocc",
				"energy": -0.00548,
				"method": "rhf"
			},
			{
				"type": "unocc",
				"energy": 0.01587,
				"method": "rhf"
			}
		],
		"cosmo_sigma_profile": { 
			"-0.025": 0.0,
			"-0.024": 0.0,
			"-0.023": 0.0,
			"-0.022": 0.0,
			"-0.021": 0.0,
			"-0.02": 0.0,
			"-0.019": 0.0,
			"-0.018": 0.0,
			"-0.017": 0.0,
			"-0.016": 0.101097545674,
			"-0.015": 1.2083463269,
			"-0.014": 2.33464532399,
			"-0.013": 2.45704960399,
			"-0.012": 2.93832926237,
			"-0.011": 3.08337078358,
			"-0.01": 3.14878659199,
			"-0.009": 3.25824731753,
			"-0.008": 4.26644785198,
			"-0.007": 4.64441745838,
			"-0.006": 5.91560773807,
			"-0.005": 8.02113842367,
			"-0.004": 9.00466289635,
			"-0.003": 10.3642183392,
			"-0.002": 13.2250820329,
			"-0.001": 23.6278701372,
			"0.0": 26.2556549792,
			"0.001": 16.2692802373,
			"0.002": 17.2411587709,
			"0.003": 23.6037715248,
			"0.004": 16.3859655716,
			"0.005": 5.99280833969,
			"0.006": 2.97859877432,
			"0.007": 3.14891597805,
			"0.008": 2.42090941654,
			"0.009": 4.84619832682,
			"0.01": 5.67438770423,
			"0.011": 5.45132043127,
			"0.012": 2.73984235255,
			"0.013": 0.069919988841,
			"0.014": 0.0,
			"0.015": 0.0,
			"0.016": 0.0,
			"0.017": 0.0,
			"0.018": 0.0,
			"0.019": 0.0,
			"0.02": 0.0,
			"0.021": 0.0,
			"0.022": 0.0,
			"0.023": 0.0,
			"0.024": 0.0,
			"0.025": 0.0
		}
	}
}
