{
	 "smiles": "CCC1=C(C)NC2=C1C(=O)C(CN1CCOCC1)CC2", 
	 "Tm": 453.15, 
	 "num_atms": 44, 
	 "gaussian": { 
		 "optdone": 1, 
		 "sigma_profile": "yes", 
		 "theory": "DFT", 
		 "functional": "B3LYP", 
		 "basiset": "6-31G**", 
		 "properties": { 
			 "R2extent": 6775.2678, 
			 "electric_dipole_moment_norm": 6.08846625843, 
			 "electric_quadrupole_moment_norm": 9.91980527783, 
			 "total_energy": -884.114238445, 
			 "HOMO_LUMO_gap": 0.17383, 
			 "cosmo_polarized_energy": -19.3, 
			 "cosmo_cavitation_energy": 42.47, 
			 "cosmo_dispersion_energy": -29.81, 
			 "cosmo_repulsion_energy": 2.33, 
			 "cosmo_total_nonelectrostatic_energy": 14.99, 
			 "SMD_solvation_energy": 4.71 
		},
		"coords": [
			{
				"x": -0.6047359262,
				"y": 3.9686859683,
				"z": -1.6022659882,
				"element": "C" 
			},
			{
				"x": 0.6302213527,
				"y": 3.2246387241,
				"z": -1.0642421587,
				"element": "C" 
			},
			{
				"x": 0.9098728584,
				"y": 1.9318190517,
				"z": -1.7808975097,
				"element": "C" 
			},
			{
				"x": 1.8690506777,
				"y": 1.7001472296,
				"z": -2.7435609269,
				"element": "C" 
			},
			{
				"x": 2.8984825878,
				"y": 2.5930290345,
				"z": -3.3588029638,
				"element": "C" 
			},
			{
				"x": 1.7642971017,
				"y": 0.3650226841,
				"z": -3.1379337908,
				"element": "N" 
			},
			{
				"x": 0.7662028379,
				"y": -0.2572434155,
				"z": -2.4509836915,
				"element": "C" 
			},
			{
				"x": 0.2100226859,
				"y": 0.6827325516,
				"z": -1.5913435545,
				"element": "C" 
			},
			{
				"x": -0.8909540168,
				"y": 0.3377927307,
				"z": -0.7004037148,
				"element": "C" 
			},
			{
				"x": -1.5351724289,
				"y": 1.1575936425,
				"z": -0.0507793776,
				"element": "O" 
			},
			{
				"x": -1.2229741221,
				"y": -1.1640686579,
				"z": -0.6159298837,
				"element": "C" 
			},
			{
				"x": -0.379701556,
				"y": -1.8771464889,
				"z": 0.4703871868,
				"element": "C" 
			},
			{
				"x": -0.2822647123,
				"y": -1.1502859052,
				"z": 1.7341285161,
				"element": "N" 
			},
			{
				"x": -1.5425741024,
				"y": -0.9199037869,
				"z": 2.4558831615,
				"element": "C" 
			},
			{
				"x": -2.0272638434,
				"y": -2.1623192435,
				"z": 3.2083864602,
				"element": "C" 
			},
			{
				"x": -1.0236720632,
				"y": -2.6389103774,
				"z": 4.1039596933,
				"element": "O" 
			},
			{
				"x": 0.1870289703,
				"y": -2.940736442,
				"z": 3.4192007282,
				"element": "C" 
			},
			{
				"x": 0.7066047849,
				"y": -1.7123792398,
				"z": 2.6605822718,
				"element": "C" 
			},
			{
				"x": -1.0558241579,
				"y": -1.866602536,
				"z": -1.9836107442,
				"element": "C" 
			},
			{
				"x": 0.3481229388,
				"y": -1.6845916201,
				"z": -2.5996474771,
				"element": "C" 
			},
			{
				"x": -0.755883047,
				"y": 4.9096047044,
				"z": -1.0617909573,
				"element": "H" 
			},
			{
				"x": -0.495370856,
				"y": 4.201406682,
				"z": -2.6671678843,
				"element": "H" 
			},
			{
				"x": -1.4975036814,
				"y": 3.3532351757,
				"z": -1.4685856824,
				"element": "H" 
			},
			{
				"x": 0.4709282944,
				"y": 3.0122977666,
				"z": -0.0019633481,
				"element": "H" 
			},
			{
				"x": 1.509317264,
				"y": 3.8775657603,
				"z": -1.1292277585,
				"element": "H" 
			},
			{
				"x": 2.8710972312,
				"y": 3.5789849718,
				"z": -2.8905544696,
				"element": "H" 
			},
			{
				"x": 2.7319301247,
				"y": 2.7373586785,
				"z": -4.4344003381,
				"element": "H" 
			},
			{
				"x": 3.9148343777,
				"y": 2.1973093866,
				"z": -3.2343420029,
				"element": "H" 
			},
			{
				"x": 2.3327235053,
				"y": -0.0652535823,
				"z": -3.8516274353,
				"element": "H" 
			},
			{
				"x": -2.2799134045,
				"y": -1.2172355756,
				"z": -0.3343950842,
				"element": "H" 
			},
			{
				"x": -0.7809262001,
				"y": -2.9050454706,
				"z": 0.5638189502,
				"element": "H" 
			},
			{
				"x": 0.6484446172,
				"y": -1.9851205464,
				"z": 0.1047657007,
				"element": "H" 
			},
			{
				"x": -1.3558739585,
				"y": -0.1250530814,
				"z": 3.1894160409,
				"element": "H" 
			},
			{
				"x": -2.2993657305,
				"y": -0.5391864714,
				"z": 1.7667701902,
				"element": "H" 
			},
			{
				"x": -2.9030967221,
				"y": -1.9311928322,
				"z": 3.8232941152,
				"element": "H" 
			},
			{
				"x": -2.3114720003,
				"y": -2.9633166043,
				"z": 2.5037368535,
				"element": "H" 
			},
			{
				"x": 0.903568448,
				"y": -3.2616495189,
				"z": 4.1827697385,
				"element": "H" 
			},
			{
				"x": 0.0295343998,
				"y": -3.786083451,
				"z": 2.7268184247,
				"element": "H" 
			},
			{
				"x": 1.6233299949,
				"y": -1.9594535255,
				"z": 2.1114696012,
				"element": "H" 
			},
			{
				"x": 0.9580092733,
				"y": -0.9359679551,
				"z": 3.3954604313,
				"element": "H" 
			},
			{
				"x": -1.2801860218,
				"y": -2.9352312455,
				"z": -1.8834552638,
				"element": "H" 
			},
			{
				"x": -1.7963265153,
				"y": -1.4523569499,
				"z": -2.6772920311,
				"element": "H" 
			},
			{
				"x": 1.0717969903,
				"y": -2.3508951681,
				"z": -2.1078421937,
				"element": "H" 
			},
			{
				"x": 0.3324337497,
				"y": -1.9847950519,
				"z": -3.6556018338,
				"element": "H" 
			}
		],
		 "valence_orbital": [ 
			{
				"type": "occ",
				"energy": -0.26027,
				"method": "rhf"
			},
			{
				"type": "occ",
				"energy": -0.23618,
				"method": "rhf"
			},
			{
				"type": "occ",
				"energy": -0.22246,
				"method": "rhf"
			},
			{
				"type": "occ",
				"energy": -0.20264,
				"method": "rhf"
			},
			{
				"type": "occ",
				"energy": -0.1903,
				"method": "rhf"
			},
			{
				"type": "unocc",
				"energy": -0.01647,
				"method": "rhf"
			},
			{
				"type": "unocc",
				"energy": 0.0374,
				"method": "rhf"
			},
			{
				"type": "unocc",
				"energy": 0.07127,
				"method": "rhf"
			},
			{
				"type": "unocc",
				"energy": 0.07736,
				"method": "rhf"
			},
			{
				"type": "unocc",
				"energy": 0.09467,
				"method": "rhf"
			}
		],
		"cosmo_sigma_profile": { 
			"-0.025": 0.0,
			"-0.024": 0.0,
			"-0.023": 0.0,
			"-0.022": 0.0,
			"-0.021": 0.0,
			"-0.02": 0.0,
			"-0.019": 0.0,
			"-0.018": 0.0,
			"-0.017": 0.0,
			"-0.016": 0.161253686287,
			"-0.015": 1.24241525917,
			"-0.014": 1.1987931963,
			"-0.013": 1.45814397411,
			"-0.012": 0.569911102915,
			"-0.011": 1.23804390914,
			"-0.01": 1.91776779746,
			"-0.009": 1.14154258807,
			"-0.008": 1.37719714206,
			"-0.007": 1.50636295049,
			"-0.006": 1.42400824061,
			"-0.005": 10.650298698,
			"-0.004": 31.9325414512,
			"-0.003": 51.5965201238,
			"-0.002": 47.9087148311,
			"-0.001": 34.1444466921,
			"0.0": 29.5706318315,
			"0.001": 21.1120734661,
			"0.002": 15.2277030263,
			"0.003": 9.47449476287,
			"0.004": 10.1020919557,
			"0.005": 10.2151177473,
			"0.006": 8.92933427594,
			"0.007": 5.95772049457,
			"0.008": 3.89654535826,
			"0.009": 3.04866715732,
			"0.01": 3.92444906666,
			"0.011": 4.53443316887,
			"0.012": 3.9009359343,
			"0.013": 5.60173831379,
			"0.014": 4.12905996108,
			"0.015": 0.608345293532,
			"0.016": 0.0,
			"0.017": 0.0,
			"0.018": 0.0,
			"0.019": 0.0,
			"0.02": 0.0,
			"0.021": 0.0,
			"0.022": 0.0,
			"0.023": 0.0,
			"0.024": 0.0,
			"0.025": 0.0
		}
	}
}
