{
	 "smiles": "OC(=O)C1=C(Cl)C=CC(=C1)S(=O)(=O)NCCOC1=CC=CC=C1", 
	 "Tm": 443.15, 
	 "num_atms": 37, 
	 "gaussian": { 
		 "optdone": 1, 
		 "sigma_profile": "yes", 
		 "theory": "DFT", 
		 "functional": "B3LYP", 
		 "basiset": "6-31G**", 
		 "properties": { 
			 "R2extent": 12356.5008, 
			 "electric_dipole_moment_norm": 4.45649925165, 
			 "electric_quadrupole_moment_norm": 23.6579850788, 
			 "total_energy": -1869.21411113, 
			 "HOMO_LUMO_gap": 0.15515, 
			 "cosmo_polarized_energy": -23.25, 
			 "cosmo_cavitation_energy": 45.63, 
			 "cosmo_dispersion_energy": -32.55, 
			 "cosmo_repulsion_energy": 2.47, 
			 "cosmo_total_nonelectrostatic_energy": 15.56, 
			 "SMD_solvation_energy": 7.27 
		},
		"coords": [
			{
				"x": -0.4725169767,
				"y": 0.4931530563,
				"z": 4.2607284785,
				"element": "O" 
			},
			{
				"x": 0.2236734287,
				"y": -0.6442046954,
				"z": 4.5183758608,
				"element": "C" 
			},
			{
				"x": 0.7648082357,
				"y": -0.8365998381,
				"z": 5.5839416544,
				"element": "O" 
			},
			{
				"x": 0.2093589967,
				"y": -1.575110953,
				"z": 3.3468556245,
				"element": "C" 
			},
			{
				"x": 1.0147083355,
				"y": -2.7314841715,
				"z": 3.2663046853,
				"element": "C" 
			},
			{
				"x": 2.1645332491,
				"y": -3.1778083897,
				"z": 4.4985014134,
				"element": "Cl" 
			},
			{
				"x": 0.9286615691,
				"y": -3.5830566311,
				"z": 2.1600950976,
				"element": "C" 
			},
			{
				"x": 0.0521075824,
				"y": -3.3026224496,
				"z": 1.1173615269,
				"element": "C" 
			},
			{
				"x": -0.7370038588,
				"y": -2.1524982761,
				"z": 1.1823839869,
				"element": "C" 
			},
			{
				"x": -0.6649256998,
				"y": -1.3038068228,
				"z": 2.28176889,
				"element": "C" 
			},
			{
				"x": -1.8542685108,
				"y": -1.752259107,
				"z": -0.1734256631,
				"element": "S" 
			},
			{
				"x": -2.0811491541,
				"y": -2.9962556349,
				"z": -0.9102295404,
				"element": "O" 
			},
			{
				"x": -2.9357299567,
				"y": -0.9423479272,
				"z": 0.3838108598,
				"element": "O" 
			},
			{
				"x": -1.0203324351,
				"y": -0.7385020203,
				"z": -1.2101054926,
				"element": "N" 
			},
			{
				"x": 0.131247271,
				"y": -1.2457514088,
				"z": -1.9588450032,
				"element": "C" 
			},
			{
				"x": 0.5614089396,
				"y": -0.1971726716,
				"z": -2.9712046648,
				"element": "C" 
			},
			{
				"x": 0.9411955859,
				"y": 0.9568891683,
				"z": -2.2276996395,
				"element": "O" 
			},
			{
				"x": 1.3439704301,
				"y": 2.0796748406,
				"z": -2.9068190233,
				"element": "C" 
			},
			{
				"x": 1.435892247,
				"y": 2.1671322257,
				"z": -4.2995746136,
				"element": "C" 
			},
			{
				"x": 1.8635515264,
				"y": 3.3644219853,
				"z": -4.8832620031,
				"element": "C" 
			},
			{
				"x": 2.1981410328,
				"y": 4.4646029249,
				"z": -4.0973734218,
				"element": "C" 
			},
			{
				"x": 2.1034824135,
				"y": 4.364888654,
				"z": -2.7050426312,
				"element": "C" 
			},
			{
				"x": 1.6797196281,
				"y": 3.1819728877,
				"z": -2.1091075889,
				"element": "C" 
			},
			{
				"x": -0.4345825196,
				"y": 1.0145818404,
				"z": 5.0792338241,
				"element": "H" 
			},
			{
				"x": 1.5511242128,
				"y": -4.4700056529,
				"z": 2.1308426644,
				"element": "H" 
			},
			{
				"x": -0.0395254647,
				"y": -3.9767330679,
				"z": 0.2728262761,
				"element": "H" 
			},
			{
				"x": -1.3078151623,
				"y": -0.4341273416,
				"z": 2.3347306482,
				"element": "H" 
			},
			{
				"x": -0.8776291725,
				"y": 0.1850322041,
				"z": -0.8094821977,
				"element": "H" 
			},
			{
				"x": 0.9831280503,
				"y": -1.4891444151,
				"z": -1.3066393904,
				"element": "H" 
			},
			{
				"x": -0.1771330451,
				"y": -2.1532415595,
				"z": -2.4834023203,
				"element": "H" 
			},
			{
				"x": 1.4077365481,
				"y": -0.5749455541,
				"z": -3.5608311736,
				"element": "H" 
			},
			{
				"x": -0.2687320748,
				"y": 0.0380397477,
				"z": -3.649357842,
				"element": "H" 
			},
			{
				"x": 1.1810827512,
				"y": 1.3251821133,
				"z": -4.9322685375,
				"element": "H" 
			},
			{
				"x": 1.9320786371,
				"y": 3.4272565061,
				"z": -5.9655743423,
				"element": "H" 
			},
			{
				"x": 2.5285917141,
				"y": 5.3892039465,
				"z": -4.5599978758,
				"element": "H" 
			},
			{
				"x": 2.3612004987,
				"y": 5.2142519342,
				"z": -2.0789030565,
				"element": "H" 
			},
			{
				"x": 1.6014411473,
				"y": 3.0871945531,
				"z": -1.0308154694,
				"element": "H" 
			}
		],
		 "valence_orbital": [ 
			{
				"type": "occ",
				"energy": -0.29365,
				"method": "rhf"
			},
			{
				"type": "occ",
				"energy": -0.28184,
				"method": "rhf"
			},
			{
				"type": "occ",
				"energy": -0.26808,
				"method": "rhf"
			},
			{
				"type": "occ",
				"energy": -0.25877,
				"method": "rhf"
			},
			{
				"type": "occ",
				"energy": -0.23097,
				"method": "rhf"
			},
			{
				"type": "unocc",
				"energy": -0.07582,
				"method": "rhf"
			},
			{
				"type": "unocc",
				"energy": -0.05278,
				"method": "rhf"
			},
			{
				"type": "unocc",
				"energy": -0.00953,
				"method": "rhf"
			},
			{
				"type": "unocc",
				"energy": 0.00383,
				"method": "rhf"
			},
			{
				"type": "unocc",
				"energy": 0.01608,
				"method": "rhf"
			}
		],
		"cosmo_sigma_profile": { 
			"-0.025": 0.0,
			"-0.024": 0.0,
			"-0.023": 0.0,
			"-0.022": 0.0,
			"-0.021": 0.0,
			"-0.02": 0.0,
			"-0.019": 0.247997026958,
			"-0.018": 1.19765649276,
			"-0.017": 0.660048496728,
			"-0.016": 1.0094637206,
			"-0.015": 0.750396331166,
			"-0.014": 0.392867755629,
			"-0.013": 1.99742501934,
			"-0.012": 1.71820334004,
			"-0.011": 1.72204096927,
			"-0.01": 1.78671566935,
			"-0.009": 3.04168400423,
			"-0.008": 5.36012200532,
			"-0.007": 8.80087683595,
			"-0.006": 23.0648722907,
			"-0.005": 26.4104421809,
			"-0.004": 27.767076263,
			"-0.003": 25.5621447641,
			"-0.002": 23.1218730268,
			"-0.001": 30.7744068439,
			"0.0": 25.6417884641,
			"0.001": 16.2283531469,
			"0.002": 18.0893316233,
			"0.003": 23.1945040368,
			"0.004": 18.5206006758,
			"0.005": 16.709105187,
			"0.006": 16.0745489916,
			"0.007": 7.72705813858,
			"0.008": 5.98026222783,
			"0.009": 6.6132102814,
			"0.01": 10.5566340734,
			"0.011": 13.690517739,
			"0.012": 2.33523845752,
			"0.013": 0.0,
			"0.014": 0.0,
			"0.015": 0.0,
			"0.016": 0.0,
			"0.017": 0.0,
			"0.018": 0.0,
			"0.019": 0.0,
			"0.02": 0.0,
			"0.021": 0.0,
			"0.022": 0.0,
			"0.023": 0.0,
			"0.024": 0.0,
			"0.025": 0.0
		}
	}
}
