{
	 "smiles": "CCCC(C)S(N)(=O)=O", 
	 "Tm": 322.15, 
	 "num_atms": 22, 
	 "gaussian": { 
		 "optdone": 1, 
		 "sigma_profile": "yes", 
		 "theory": "DFT", 
		 "functional": "B3LYP", 
		 "basiset": "6-31G**", 
		 "properties": { 
			 "R2extent": 2584.3819, 
			 "electric_dipole_moment_norm": 3.14871348331, 
			 "electric_quadrupole_moment_norm": 13.1034060526, 
			 "total_energy": -801.708401636, 
			 "HOMO_LUMO_gap": 0.33961, 
			 "cosmo_polarized_energy": -13.5, 
			 "cosmo_cavitation_energy": 24.98, 
			 "cosmo_dispersion_energy": -18.57, 
			 "cosmo_repulsion_energy": 1.49, 
			 "cosmo_total_nonelectrostatic_energy": 7.91, 
			 "SMD_solvation_energy": 3.89 
		},
		"coords": [
			{
				"x": -0.202106531,
				"y": 1.3741873945,
				"z": 2.0547324061,
				"element": "C" 
			},
			{
				"x": -0.8559585039,
				"y": 0.6857779862,
				"z": 0.8519982815,
				"element": "C" 
			},
			{
				"x": 0.0302230472,
				"y": -0.4346509659,
				"z": 0.2870030327,
				"element": "C" 
			},
			{
				"x": -0.5257446698,
				"y": -1.2185586632,
				"z": -0.9186035681,
				"element": "C" 
			},
			{
				"x": -0.9475380724,
				"y": -0.3640074453,
				"z": -2.114063503,
				"element": "C" 
			},
			{
				"x": -1.9080460522,
				"y": -2.2950080252,
				"z": -0.3836094825,
				"element": "S" 
			},
			{
				"x": -2.1024605774,
				"y": -3.3163777466,
				"z": -1.7331884596,
				"element": "N" 
			},
			{
				"x": -1.4287687259,
				"y": -3.123240448,
				"z": 0.7312418418,
				"element": "O" 
			},
			{
				"x": -3.1383136692,
				"y": -1.4982762047,
				"z": -0.2711018455,
				"element": "O" 
			},
			{
				"x": -0.0238803777,
				"y": 0.6633374805,
				"z": 2.8693083815,
				"element": "H" 
			},
			{
				"x": 0.7636500243,
				"y": 1.8179884528,
				"z": 1.7854661018,
				"element": "H" 
			},
			{
				"x": -0.8379938841,
				"y": 2.1746750485,
				"z": 2.4455885582,
				"element": "H" 
			},
			{
				"x": -1.8304219058,
				"y": 0.2790735622,
				"z": 1.1418170049,
				"element": "H" 
			},
			{
				"x": -1.0554280072,
				"y": 1.431363768,
				"z": 0.0726830708,
				"element": "H" 
			},
			{
				"x": 0.987527103,
				"y": -0.0070847766,
				"z": -0.0412696867,
				"element": "H" 
			},
			{
				"x": 0.2685712884,
				"y": -1.1506845325,
				"z": 1.0812032068,
				"element": "H" 
			},
			{
				"x": 0.2279009672,
				"y": -1.9495076769,
				"z": -1.2322076791,
				"element": "H" 
			},
			{
				"x": -1.7964481078,
				"y": 0.2765031627,
				"z": -1.8663634175,
				"element": "H" 
			},
			{
				"x": -1.2216482266,
				"y": -0.9913939699,
				"z": -2.9656717558,
				"element": "H" 
			},
			{
				"x": -0.1087379661,
				"y": 0.2722180003,
				"z": -2.414683031,
				"element": "H" 
			},
			{
				"x": -3.0609754151,
				"y": -3.2368033641,
				"z": -2.0635406331,
				"element": "H" 
			},
			{
				"x": -1.8971017378,
				"y": -4.2721310369,
				"z": -1.4521388245,
				"element": "H" 
			}
		],
		 "valence_orbital": [ 
			{
				"type": "occ",
				"energy": -0.32877,
				"method": "rhf"
			},
			{
				"type": "occ",
				"energy": -0.31142,
				"method": "rhf"
			},
			{
				"type": "occ",
				"energy": -0.30342,
				"method": "rhf"
			},
			{
				"type": "occ",
				"energy": -0.2982,
				"method": "rhf"
			},
			{
				"type": "occ",
				"energy": -0.2851,
				"method": "rhf"
			},
			{
				"type": "unocc",
				"energy": 0.05451,
				"method": "rhf"
			},
			{
				"type": "unocc",
				"energy": 0.06312,
				"method": "rhf"
			},
			{
				"type": "unocc",
				"energy": 0.08334,
				"method": "rhf"
			},
			{
				"type": "unocc",
				"energy": 0.09152,
				"method": "rhf"
			},
			{
				"type": "unocc",
				"energy": 0.10388,
				"method": "rhf"
			}
		],
		"cosmo_sigma_profile": { 
			"-0.025": 0.0,
			"-0.024": 0.0,
			"-0.023": 0.0,
			"-0.022": 0.0,
			"-0.021": 0.0,
			"-0.02": 0.0,
			"-0.019": 0.0,
			"-0.018": 0.0,
			"-0.017": 0.0,
			"-0.016": 0.0,
			"-0.015": 0.401923800903,
			"-0.014": 2.41840140277,
			"-0.013": 1.90428050733,
			"-0.012": 2.40782935808,
			"-0.011": 2.72480758749,
			"-0.01": 2.07065683242,
			"-0.009": 1.35802863007,
			"-0.008": 2.12789629597,
			"-0.007": 3.50490281394,
			"-0.006": 3.06640917197,
			"-0.005": 7.42472785754,
			"-0.004": 11.1429814539,
			"-0.003": 17.3263377467,
			"-0.002": 23.587283769,
			"-0.001": 23.5276192978,
			"0.0": 20.5733374246,
			"0.001": 13.5481431103,
			"0.002": 7.09231451546,
			"0.003": 3.89535927033,
			"0.004": 3.97171215206,
			"0.005": 4.00521259248,
			"0.006": 3.22945050637,
			"0.007": 2.80774574884,
			"0.008": 3.63501844096,
			"0.009": 3.54854953587,
			"0.01": 5.01401218695,
			"0.011": 10.3192943913,
			"0.012": 6.18584587798,
			"0.013": 0.715083764585,
			"0.014": 0.0,
			"0.015": 0.0,
			"0.016": 0.0,
			"0.017": 0.0,
			"0.018": 0.0,
			"0.019": 0.0,
			"0.02": 0.0,
			"0.021": 0.0,
			"0.022": 0.0,
			"0.023": 0.0,
			"0.024": 0.0,
			"0.025": 0.0
		}
	}
}
