{
	 "smiles": "FC1=C(C=CC=C1)C(Cl)(Cl)Cl", 
	 "Tm": 253.15, 
	 "num_atms": 15, 
	 "gaussian": { 
		 "optdone": 1, 
		 "sigma_profile": "yes", 
		 "theory": "DFT", 
		 "functional": "B3LYP", 
		 "basiset": "6-31G**", 
		 "properties": { 
			 "R2extent": 2781.02, 
			 "electric_dipole_moment_norm": 3.41974218619, 
			 "electric_quadrupole_moment_norm": 4.77084134299, 
			 "total_energy": -1749.54476285, 
			 "HOMO_LUMO_gap": 0.21186, 
			 "cosmo_polarized_energy": -4.61, 
			 "cosmo_cavitation_energy": 24.31, 
			 "cosmo_dispersion_energy": -18.16, 
			 "cosmo_repulsion_energy": 1.43, 
			 "cosmo_total_nonelectrostatic_energy": 7.58, 
			 "SMD_solvation_energy": 3.63 
		},
		"coords": [
			{
				"x": -0.0820560101,
				"y": -1.092524628,
				"z": -0.8115482482,
				"element": "F" 
			},
			{
				"x": 0.3790410379,
				"y": -0.4560063512,
				"z": 0.2782861651,
				"element": "C" 
			},
			{
				"x": 0.4074611962,
				"y": 0.9484126896,
				"z": 0.3042834454,
				"element": "C" 
			},
			{
				"x": 0.8984323693,
				"y": 1.5554128051,
				"z": 1.4676542269,
				"element": "C" 
			},
			{
				"x": 1.3386310787,
				"y": 0.7936027904,
				"z": 2.5498154604,
				"element": "C" 
			},
			{
				"x": 1.2970268192,
				"y": -0.5985141748,
				"z": 2.4913227566,
				"element": "C" 
			},
			{
				"x": 0.8131074649,
				"y": -1.2288305746,
				"z": 1.3458731963,
				"element": "C" 
			},
			{
				"x": -0.0823795426,
				"y": 1.7342144106,
				"z": -0.8984289921,
				"element": "C" 
			},
			{
				"x": 0.0387952499,
				"y": 3.5223359328,
				"z": -0.660018579,
				"element": "Cl" 
			},
			{
				"x": -1.8232790582,
				"y": 1.3576619643,
				"z": -1.2359040732,
				"element": "Cl" 
			},
			{
				"x": 0.8988483519,
				"y": 1.3239572822,
				"z": -2.3665431952,
				"element": "Cl" 
			},
			{
				"x": 0.9357573394,
				"y": 2.635442058,
				"z": 1.5251737538,
				"element": "H" 
			},
			{
				"x": 1.7132516449,
				"y": 1.2945742423,
				"z": 3.4363686255,
				"element": "H" 
			},
			{
				"x": 1.6385591882,
				"y": -1.1956834891,
				"z": 3.3310507587,
				"element": "H" 
			},
			{
				"x": 0.7630028705,
				"y": -2.3084549578,
				"z": 1.2578146987,
				"element": "H" 
			}
		],
		 "valence_orbital": [ 
			{
				"type": "occ",
				"energy": -0.32056,
				"method": "rhf"
			},
			{
				"type": "occ",
				"energy": -0.31483,
				"method": "rhf"
			},
			{
				"type": "occ",
				"energy": -0.30359,
				"method": "rhf"
			},
			{
				"type": "occ",
				"energy": -0.27717,
				"method": "rhf"
			},
			{
				"type": "occ",
				"energy": -0.2622,
				"method": "rhf"
			},
			{
				"type": "unocc",
				"energy": -0.05034,
				"method": "rhf"
			},
			{
				"type": "unocc",
				"energy": -0.04312,
				"method": "rhf"
			},
			{
				"type": "unocc",
				"energy": -0.02002,
				"method": "rhf"
			},
			{
				"type": "unocc",
				"energy": -0.00749,
				"method": "rhf"
			},
			{
				"type": "unocc",
				"energy": 0.02695,
				"method": "rhf"
			}
		],
		"cosmo_sigma_profile": { 
			"-0.025": 0.0,
			"-0.024": 0.0,
			"-0.023": 0.0,
			"-0.022": 0.0,
			"-0.021": 0.0,
			"-0.02": 0.0,
			"-0.019": 0.0,
			"-0.018": 0.0,
			"-0.017": 0.0,
			"-0.016": 0.0,
			"-0.015": 0.0,
			"-0.014": 0.0,
			"-0.013": 0.0,
			"-0.012": 0.0,
			"-0.011": 0.0,
			"-0.01": 0.0,
			"-0.009": 0.0733884424698,
			"-0.008": 1.92295823667,
			"-0.007": 6.36269379518,
			"-0.006": 8.91643380291,
			"-0.005": 8.35875309466,
			"-0.004": 9.22188443479,
			"-0.003": 11.388432046,
			"-0.002": 12.7879451164,
			"-0.001": 16.7016242573,
			"0.0": 19.3806032509,
			"0.001": 23.2143317319,
			"0.002": 26.0782965831,
			"0.003": 38.4063031908,
			"0.004": 17.0840427997,
			"0.005": 2.14499795921,
			"0.006": 0.0,
			"0.007": 0.0,
			"0.008": 0.0,
			"0.009": 0.0,
			"0.01": 0.0,
			"0.011": 0.0,
			"0.012": 0.0,
			"0.013": 0.0,
			"0.014": 0.0,
			"0.015": 0.0,
			"0.016": 0.0,
			"0.017": 0.0,
			"0.018": 0.0,
			"0.019": 0.0,
			"0.02": 0.0,
			"0.021": 0.0,
			"0.022": 0.0,
			"0.023": 0.0,
			"0.024": 0.0,
			"0.025": 0.0
		}
	}
}
