{
	 "smiles": "CC1=CC=C(NC(=O)C=CC2=CC=C(C=CC(=O)NC3=CC=C(C)C=C3)C=C2)C=C1", 
	 "Tm": 588.15, 
	 "num_atms": 54, 
	 "gaussian": { 
		 "optdone": 1, 
		 "sigma_profile": "yes", 
		 "theory": "DFT", 
		 "functional": "B3LYP", 
		 "basiset": "6-31G**", 
		 "properties": { 
			 "R2extent": 28894.6528, 
			 "electric_dipole_moment_norm": 6.51264012594, 
			 "electric_quadrupole_moment_norm": 43.8090108488, 
			 "total_energy": -1265.20105082, 
			 "HOMO_LUMO_gap": 0.13673, 
			 "cosmo_polarized_energy": -21.48, 
			 "cosmo_cavitation_energy": 59.56, 
			 "cosmo_dispersion_energy": -41.77, 
			 "cosmo_repulsion_energy": 3.13, 
			 "cosmo_total_nonelectrostatic_energy": 20.91, 
			 "SMD_solvation_energy": 11.14 
		},
		"coords": [
			{
				"x": -7.1349877819,
				"y": -2.2879776161,
				"z": -6.2229696355,
				"element": "C" 
			},
			{
				"x": -6.7682531271,
				"y": -1.7086442907,
				"z": -4.8771406791,
				"element": "C" 
			},
			{
				"x": -5.4475331957,
				"y": -1.3628262326,
				"z": -4.5682165292,
				"element": "C" 
			},
			{
				"x": -5.1077293073,
				"y": -0.790632155,
				"z": -3.3425847613,
				"element": "C" 
			},
			{
				"x": -6.0923421888,
				"y": -0.5816603432,
				"z": -2.367381235,
				"element": "C" 
			},
			{
				"x": -5.8081602661,
				"y": 0.0108676654,
				"z": -1.1152871848,
				"element": "N" 
			},
			{
				"x": -4.7144550092,
				"y": -0.0987154811,
				"z": -0.2680067522,
				"element": "C" 
			},
			{
				"x": -4.6377384434,
				"y": 0.6786308915,
				"z": 0.6839261743,
				"element": "O" 
			},
			{
				"x": -3.7844131609,
				"y": -1.2163279876,
				"z": -0.5472143701,
				"element": "C" 
			},
			{
				"x": -2.5079822054,
				"y": -1.4252695628,
				"z": -0.1421187334,
				"element": "C" 
			},
			{
				"x": -1.5159715019,
				"y": -0.6723247869,
				"z": 0.6288262656,
				"element": "C" 
			},
			{
				"x": -0.1986305725,
				"y": -1.1884236719,
				"z": 0.6283744081,
				"element": "C" 
			},
			{
				"x": 0.8320934084,
				"y": -0.5610208902,
				"z": 1.3081851118,
				"element": "C" 
			},
			{
				"x": 0.5943754584,
				"y": 0.6213230134,
				"z": 2.0372067523,
				"element": "C" 
			},
			{
				"x": 1.6321774473,
				"y": 1.3346313821,
				"z": 2.7783090706,
				"element": "C" 
			},
			{
				"x": 2.940304011,
				"y": 1.0260518486,
				"z": 2.8634841279,
				"element": "C" 
			},
			{
				"x": 3.8326691257,
				"y": 1.8609928797,
				"z": 3.7052469551,
				"element": "C" 
			},
			{
				"x": 3.4155634338,
				"y": 2.7311339623,
				"z": 4.4657422739,
				"element": "O" 
			},
			{
				"x": 5.1934108529,
				"y": 1.5927925721,
				"z": 3.6621135446,
				"element": "N" 
			},
			{
				"x": 5.958077209,
				"y": 0.8078622322,
				"z": 2.7687856284,
				"element": "C" 
			},
			{
				"x": 5.7181351548,
				"y": 0.7962858578,
				"z": 1.3881330826,
				"element": "C" 
			},
			{
				"x": 6.5100993765,
				"y": 0.015833335,
				"z": 0.5455072649,
				"element": "C" 
			},
			{
				"x": 7.5804571336,
				"y": -0.7402806456,
				"z": 1.0365633579,
				"element": "C" 
			},
			{
				"x": 8.4597393423,
				"y": -1.5517018017,
				"z": 0.1145237237,
				"element": "C" 
			},
			{
				"x": 7.8276709845,
				"y": -0.6978543298,
				"z": 2.4166684913,
				"element": "C" 
			},
			{
				"x": 7.0289987588,
				"y": 0.0539030317,
				"z": 3.2726834063,
				"element": "C" 
			},
			{
				"x": -0.7193826662,
				"y": 1.1273987424,
				"z": 2.0497283928,
				"element": "C" 
			},
			{
				"x": -1.7568964222,
				"y": 0.5035866302,
				"z": 1.3674063496,
				"element": "C" 
			},
			{
				"x": -7.4200567263,
				"y": -0.9242878263,
				"z": -2.664981103,
				"element": "C" 
			},
			{
				"x": -7.7476413935,
				"y": -1.4705550784,
				"z": -3.9020364826,
				"element": "C" 
			},
			{
				"x": -6.2639049587,
				"y": -2.7215082735,
				"z": -6.7225111036,
				"element": "H" 
			},
			{
				"x": -7.8941133533,
				"y": -3.0712240848,
				"z": -6.1285856356,
				"element": "H" 
			},
			{
				"x": -7.5458120836,
				"y": -1.5193657934,
				"z": -6.889647406,
				"element": "H" 
			},
			{
				"x": -4.6668627276,
				"y": -1.5232935976,
				"z": -5.3076468056,
				"element": "H" 
			},
			{
				"x": -4.0828034893,
				"y": -0.4957258653,
				"z": -3.1459703184,
				"element": "H" 
			},
			{
				"x": -6.4808874553,
				"y": 0.6812259292,
				"z": -0.7635524204,
				"element": "H" 
			},
			{
				"x": -4.2087866764,
				"y": -1.9996420039,
				"z": -1.1683703037,
				"element": "H" 
			},
			{
				"x": -2.0980395019,
				"y": -2.3680508964,
				"z": -0.5057957345,
				"element": "H" 
			},
			{
				"x": 0.0103025474,
				"y": -2.1002421111,
				"z": 0.0742295755,
				"element": "H" 
			},
			{
				"x": 1.8276197805,
				"y": -0.9928264786,
				"z": 1.2786671196,
				"element": "H" 
			},
			{
				"x": 1.3112147849,
				"y": 2.2186632913,
				"z": 3.3268441037,
				"element": "H" 
			},
			{
				"x": 3.3629182577,
				"y": 0.1657426774,
				"z": 2.356865098,
				"element": "H" 
			},
			{
				"x": 5.6973990359,
				"y": 2.0979265795,
				"z": 4.3805144363,
				"element": "H" 
			},
			{
				"x": 4.9245636626,
				"y": 1.4093000239,
				"z": 0.9741651871,
				"element": "H" 
			},
			{
				"x": 6.3015727643,
				"y": 0.015832157,
				"z": -0.5215096991,
				"element": "H" 
			},
			{
				"x": 8.6763568341,
				"y": -2.5398318546,
				"z": 0.5340753036,
				"element": "H" 
			},
			{
				"x": 7.9885484391,
				"y": -1.6968661973,
				"z": -0.8616845151,
				"element": "H" 
			},
			{
				"x": 9.423686766,
				"y": -1.0564573916,
				"z": -0.0564735924,
				"element": "H" 
			},
			{
				"x": 8.6514228073,
				"y": -1.2742969901,
				"z": 2.8308950241,
				"element": "H" 
			},
			{
				"x": 7.2216205647,
				"y": 0.0528323965,
				"z": 4.3421309775,
				"element": "H" 
			},
			{
				"x": -0.9268333091,
				"y": 2.0315762472,
				"z": 2.6162028241,
				"element": "H" 
			},
			{
				"x": -2.7627782116,
				"y": 0.9012015401,
				"z": 1.4075005921,
				"element": "H" 
			},
			{
				"x": -8.1907201774,
				"y": -0.7702454985,
				"z": -1.9144396086,
				"element": "H" 
			},
			{
				"x": -8.7832820289,
				"y": -1.7291151496,
				"z": -4.1089800139,
				"element": "H" 
			}
		],
		 "valence_orbital": [ 
			{
				"type": "occ",
				"energy": -0.25298,
				"method": "rhf"
			},
			{
				"type": "occ",
				"energy": -0.24764,
				"method": "rhf"
			},
			{
				"type": "occ",
				"energy": -0.22631,
				"method": "rhf"
			},
			{
				"type": "occ",
				"energy": -0.22041,
				"method": "rhf"
			},
			{
				"type": "occ",
				"energy": -0.21412,
				"method": "rhf"
			},
			{
				"type": "unocc",
				"energy": -0.07739,
				"method": "rhf"
			},
			{
				"type": "unocc",
				"energy": -0.03274,
				"method": "rhf"
			},
			{
				"type": "unocc",
				"energy": -0.01146,
				"method": "rhf"
			},
			{
				"type": "unocc",
				"energy": -0.00964,
				"method": "rhf"
			},
			{
				"type": "unocc",
				"energy": -0.00725,
				"method": "rhf"
			}
		],
		"cosmo_sigma_profile": { 
			"-0.025": 0.0,
			"-0.024": 0.0,
			"-0.023": 0.0,
			"-0.022": 0.0,
			"-0.021": 0.0,
			"-0.02": 0.0,
			"-0.019": 0.0,
			"-0.018": 0.0,
			"-0.017": 0.0,
			"-0.016": 0.0,
			"-0.015": 0.0,
			"-0.014": 1.21284620912,
			"-0.013": 2.07346158892,
			"-0.012": 1.99620870226,
			"-0.011": 1.63746368897,
			"-0.01": 2.03870931169,
			"-0.009": 2.81600340722,
			"-0.008": 3.75089319607,
			"-0.007": 9.47701709197,
			"-0.006": 20.7192507819,
			"-0.005": 28.9692075263,
			"-0.004": 41.0852460889,
			"-0.003": 37.6355146019,
			"-0.002": 35.8246572804,
			"-0.001": 37.2584117939,
			"0.0": 41.098974464,
			"0.001": 35.9610795318,
			"0.002": 38.696145741,
			"0.003": 37.778296853,
			"0.004": 32.489660343,
			"0.005": 21.896777285,
			"0.006": 9.36834863627,
			"0.007": 2.19610737715,
			"0.008": 3.54951558354,
			"0.009": 3.17586644165,
			"0.01": 2.54484515265,
			"0.011": 3.78765388068,
			"0.012": 3.88005661698,
			"0.013": 6.53801032067,
			"0.014": 5.73444222933,
			"0.015": 0.255968062625,
			"0.016": 0.0,
			"0.017": 0.0,
			"0.018": 0.0,
			"0.019": 0.0,
			"0.02": 0.0,
			"0.021": 0.0,
			"0.022": 0.0,
			"0.023": 0.0,
			"0.024": 0.0,
			"0.025": 0.0
		}
	}
}
