{
	 "smiles": "CCOC1=CC=CC=C1C=CC(O)=O", 
	 "Tm": 408.15, 
	 "num_atms": 26, 
	 "gaussian": { 
		 "optdone": 1, 
		 "sigma_profile": "yes", 
		 "theory": "DFT", 
		 "functional": "B3LYP", 
		 "basiset": "6-31G**", 
		 "properties": { 
			 "R2extent": 4196.3616, 
			 "electric_dipole_moment_norm": 7.31471202167, 
			 "electric_quadrupole_moment_norm": 25.5508734647, 
			 "total_energy": -652.063855097, 
			 "HOMO_LUMO_gap": 0.1598, 
			 "cosmo_polarized_energy": -16.2, 
			 "cosmo_cavitation_energy": 30.51, 
			 "cosmo_dispersion_energy": -21.85, 
			 "cosmo_repulsion_energy": 1.74, 
			 "cosmo_total_nonelectrostatic_energy": 10.4, 
			 "SMD_solvation_energy": 6.9 
		},
		"coords": [
			{
				"x": -1.0851252248,
				"y": 0.2841095111,
				"z": -3.3994822413,
				"element": "C" 
			},
			{
				"x": -0.4764954262,
				"y": 1.1350267115,
				"z": -2.299228394,
				"element": "C" 
			},
			{
				"x": -0.7096430782,
				"y": 0.4645845803,
				"z": -1.0577091975,
				"element": "O" 
			},
			{
				"x": -0.2673028148,
				"y": 1.0271799056,
				"z": 0.1020632196,
				"element": "C" 
			},
			{
				"x": 0.427994916,
				"y": 2.2409413984,
				"z": 0.1563182116,
				"element": "C" 
			},
			{
				"x": 0.8470500454,
				"y": 2.749514921,
				"z": 1.3857813788,
				"element": "C" 
			},
			{
				"x": 0.5810923378,
				"y": 2.0567663986,
				"z": 2.567733339,
				"element": "C" 
			},
			{
				"x": -0.1092997568,
				"y": 0.8507163225,
				"z": 2.5111769293,
				"element": "C" 
			},
			{
				"x": -0.5518379871,
				"y": 0.3076813374,
				"z": 1.2936555684,
				"element": "C" 
			},
			{
				"x": -1.2776800012,
				"y": -0.9595532842,
				"z": 1.2065267761,
				"element": "C" 
			},
			{
				"x": -1.7149776025,
				"y": -1.7207427452,
				"z": 2.2291242045,
				"element": "C" 
			},
			{
				"x": -2.4869904841,
				"y": -2.9783274483,
				"z": 2.0782884413,
				"element": "C" 
			},
			{
				"x": -2.4213019492,
				"y": -3.6210774433,
				"z": 0.8763321826,
				"element": "O" 
			},
			{
				"x": -3.1654675975,
				"y": -3.4363339945,
				"z": 2.9700515126,
				"element": "O" 
			},
			{
				"x": -0.6202819412,
				"y": -0.7054443909,
				"z": -3.4258552158,
				"element": "H" 
			},
			{
				"x": -2.1597751331,
				"y": 0.1584969909,
				"z": -3.2413882729,
				"element": "H" 
			},
			{
				"x": -0.9315395252,
				"y": 0.7637430481,
				"z": -4.3707958729,
				"element": "H" 
			},
			{
				"x": -0.9373403251,
				"y": 2.1316986033,
				"z": -2.2729864445,
				"element": "H" 
			},
			{
				"x": 0.6034344651,
				"y": 1.2641597746,
				"z": -2.4537656163,
				"element": "H" 
			},
			{
				"x": 0.6444685313,
				"y": 2.7920735287,
				"z": -0.750299368,
				"element": "H" 
			},
			{
				"x": 1.3855900907,
				"y": 3.6922830578,
				"z": 1.4138286649,
				"element": "H" 
			},
			{
				"x": 0.9109484981,
				"y": 2.4514649981,
				"z": 3.5232215035,
				"element": "H" 
			},
			{
				"x": -0.3083241379,
				"y": 0.3099156838,
				"z": 3.4307816947,
				"element": "H" 
			},
			{
				"x": -1.4928128592,
				"y": -1.2731881917,
				"z": 0.1876333167,
				"element": "H" 
			},
			{
				"x": -1.6021823824,
				"y": -1.4165875702,
				"z": 3.2645731146,
				"element": "H" 
			},
			{
				"x": -1.7196006577,
				"y": -3.2327017031,
				"z": 0.3359205651,
				"element": "H" 
			}
		],
		 "valence_orbital": [ 
			{
				"type": "occ",
				"energy": -0.31756,
				"method": "rhf"
			},
			{
				"type": "occ",
				"energy": -0.30146,
				"method": "rhf"
			},
			{
				"type": "occ",
				"energy": -0.26138,
				"method": "rhf"
			},
			{
				"type": "occ",
				"energy": -0.25142,
				"method": "rhf"
			},
			{
				"type": "occ",
				"energy": -0.22692,
				"method": "rhf"
			},
			{
				"type": "unocc",
				"energy": -0.06712,
				"method": "rhf"
			},
			{
				"type": "unocc",
				"energy": -0.00338,
				"method": "rhf"
			},
			{
				"type": "unocc",
				"energy": 0.01664,
				"method": "rhf"
			},
			{
				"type": "unocc",
				"energy": 0.06833,
				"method": "rhf"
			},
			{
				"type": "unocc",
				"energy": 0.08074,
				"method": "rhf"
			}
		],
		"cosmo_sigma_profile": { 
			"-0.025": 0.0,
			"-0.024": 0.0,
			"-0.023": 0.0,
			"-0.022": 0.0,
			"-0.021": 0.0,
			"-0.02": 0.0,
			"-0.019": 0.0,
			"-0.018": 0.489735049949,
			"-0.017": 1.05359252294,
			"-0.016": 0.705436566914,
			"-0.015": 0.765498814244,
			"-0.014": 1.21868660495,
			"-0.013": 0.546199780591,
			"-0.012": 1.03415793381,
			"-0.011": 1.46312311884,
			"-0.01": 0.551972296076,
			"-0.009": 0.856770514398,
			"-0.008": 2.98440306235,
			"-0.007": 5.20804792338,
			"-0.006": 11.8189381937,
			"-0.005": 15.9794379846,
			"-0.004": 22.630858217,
			"-0.003": 18.366259365,
			"-0.002": 18.2742143299,
			"-0.001": 17.2608344867,
			"0.0": 17.0604042181,
			"0.001": 16.0509250853,
			"0.002": 17.4148642811,
			"0.003": 15.759427401,
			"0.004": 14.5456224151,
			"0.005": 9.58621116399,
			"0.006": 3.06604150916,
			"0.007": 2.70724709641,
			"0.008": 2.1454410323,
			"0.009": 2.91868680585,
			"0.01": 3.7157849657,
			"0.011": 5.16701209755,
			"0.012": 5.94734482205,
			"0.013": 4.49681003985,
			"0.014": 0.994507107049,
			"0.015": 0.0,
			"0.016": 0.0,
			"0.017": 0.0,
			"0.018": 0.0,
			"0.019": 0.0,
			"0.02": 0.0,
			"0.021": 0.0,
			"0.022": 0.0,
			"0.023": 0.0,
			"0.024": 0.0,
			"0.025": 0.0
		}
	}
}
