{
	 "smiles": "CCN(C)C(=O)COC(=O)C1=CC=CC=C1", 
	 "Tm": 293.15, 
	 "num_atms": 31, 
	 "gaussian": { 
		 "optdone": 1, 
		 "sigma_profile": "yes", 
		 "theory": "DFT", 
		 "functional": "B3LYP", 
		 "basiset": "6-31G**", 
		 "properties": { 
			 "R2extent": 5850.7918, 
			 "electric_dipole_moment_norm": 3.42792943043, 
			 "electric_quadrupole_moment_norm": 17.0232174738, 
			 "total_energy": -746.764454677, 
			 "HOMO_LUMO_gap": 0.20143, 
			 "cosmo_polarized_energy": -16.15, 
			 "cosmo_cavitation_energy": 34.85, 
			 "cosmo_dispersion_energy": -24.69, 
			 "cosmo_repulsion_energy": 1.93, 
			 "cosmo_total_nonelectrostatic_energy": 12.09, 
			 "SMD_solvation_energy": 7.41 
		},
		"coords": [
			{
				"x": 0.7558280777,
				"y": 3.9882960945,
				"z": 1.7756593538,
				"element": "C" 
			},
			{
				"x": 1.042982981,
				"y": 2.4908784469,
				"z": 1.9466079901,
				"element": "C" 
			},
			{
				"x": -0.1531196439,
				"y": 1.6503455304,
				"z": 1.9219501469,
				"element": "N" 
			},
			{
				"x": -0.9382662674,
				"y": 1.5800742876,
				"z": 3.1490773922,
				"element": "C" 
			},
			{
				"x": -0.6179490419,
				"y": 0.9954217522,
				"z": 0.8086601019,
				"element": "C" 
			},
			{
				"x": -1.6514214425,
				"y": 0.3418622671,
				"z": 0.7957400103,
				"element": "O" 
			},
			{
				"x": 0.2476007881,
				"y": 1.1075279463,
				"z": -0.4627473339,
				"element": "C" 
			},
			{
				"x": -0.4085075539,
				"y": 0.4695481697,
				"z": -1.5488960897,
				"element": "O" 
			},
			{
				"x": -0.2412398533,
				"y": -0.8794053578,
				"z": -1.6241510282,
				"element": "C" 
			},
			{
				"x": 0.5275872344,
				"y": -1.4918252435,
				"z": -0.9109441107,
				"element": "O" 
			},
			{
				"x": -1.0675426128,
				"y": -1.4898238951,
				"z": -2.7001969711,
				"element": "C" 
			},
			{
				"x": -1.9937809201,
				"y": -0.7485609507,
				"z": -3.4468140018,
				"element": "C" 
			},
			{
				"x": -2.7415709298,
				"y": -1.3749682935,
				"z": -4.4424895186,
				"element": "C" 
			},
			{
				"x": -2.5694601686,
				"y": -2.7379742798,
				"z": -4.6963685833,
				"element": "C" 
			},
			{
				"x": -1.6485812594,
				"y": -3.4792529441,
				"z": -3.9507253676,
				"element": "C" 
			},
			{
				"x": -0.9003429646,
				"y": -2.858073935,
				"z": -2.9541797285,
				"element": "C" 
			},
			{
				"x": 0.0862641975,
				"y": 4.3575476388,
				"z": 2.5580642594,
				"element": "H" 
			},
			{
				"x": 1.6865387431,
				"y": 4.5622589025,
				"z": 1.8325920993,
				"element": "H" 
			},
			{
				"x": 0.2868447317,
				"y": 4.19348335,
				"z": 0.8081097299,
				"element": "H" 
			},
			{
				"x": 1.5466308041,
				"y": 2.3183604351,
				"z": 2.9056960834,
				"element": "H" 
			},
			{
				"x": 1.7413166822,
				"y": 2.1539265456,
				"z": 1.1771892829,
				"element": "H" 
			},
			{
				"x": -1.7574130605,
				"y": 0.8813405611,
				"z": 2.9873181782,
				"element": "H" 
			},
			{
				"x": -1.3526725048,
				"y": 2.5593410858,
				"z": 3.417541121,
				"element": "H" 
			},
			{
				"x": -0.312211144,
				"y": 1.2282690083,
				"z": 3.9775109702,
				"element": "H" 
			},
			{
				"x": 1.2256164427,
				"y": 0.6460276674,
				"z": -0.2966983228,
				"element": "H" 
			},
			{
				"x": 0.3796028359,
				"y": 2.1495044959,
				"z": -0.7648029759,
				"element": "H" 
			},
			{
				"x": -2.1255927151,
				"y": 0.3064162313,
				"z": -3.2373258339,
				"element": "H" 
			},
			{
				"x": -3.4611200809,
				"y": -0.8009722353,
				"z": -5.0189783699,
				"element": "H" 
			},
			{
				"x": -3.1544536973,
				"y": -3.2228242978,
				"z": -5.4729735702,
				"element": "H" 
			},
			{
				"x": -1.5168610493,
				"y": -4.5393964509,
				"z": -4.1462591608,
				"element": "H" 
			},
			{
				"x": -0.1820066083,
				"y": -3.411652533,
				"z": -2.3590657527,
				"element": "H" 
			}
		],
		 "valence_orbital": [ 
			{
				"type": "occ",
				"energy": -0.27048,
				"method": "rhf"
			},
			{
				"type": "occ",
				"energy": -0.25443,
				"method": "rhf"
			},
			{
				"type": "occ",
				"energy": -0.25208,
				"method": "rhf"
			},
			{
				"type": "occ",
				"energy": -0.24839,
				"method": "rhf"
			},
			{
				"type": "occ",
				"energy": -0.24059,
				"method": "rhf"
			},
			{
				"type": "unocc",
				"energy": -0.03916,
				"method": "rhf"
			},
			{
				"type": "unocc",
				"energy": -0.0014,
				"method": "rhf"
			},
			{
				"type": "unocc",
				"energy": 0.02818,
				"method": "rhf"
			},
			{
				"type": "unocc",
				"energy": 0.06459,
				"method": "rhf"
			},
			{
				"type": "unocc",
				"energy": 0.07226,
				"method": "rhf"
			}
		],
		"cosmo_sigma_profile": { 
			"-0.025": 0.0,
			"-0.024": 0.0,
			"-0.023": 0.0,
			"-0.022": 0.0,
			"-0.021": 0.0,
			"-0.02": 0.0,
			"-0.019": 0.0,
			"-0.018": 0.0,
			"-0.017": 0.0,
			"-0.016": 0.0,
			"-0.015": 0.0,
			"-0.014": 0.0,
			"-0.013": 0.0,
			"-0.012": 0.0,
			"-0.011": 0.0,
			"-0.01": 0.0,
			"-0.009": 0.399131316651,
			"-0.008": 2.92442152134,
			"-0.007": 8.31603342464,
			"-0.006": 13.8744689695,
			"-0.005": 23.440626234,
			"-0.004": 26.4001027157,
			"-0.003": 27.2325766279,
			"-0.002": 24.1553977953,
			"-0.001": 23.0363280917,
			"0.0": 18.8862077274,
			"0.001": 18.2046435559,
			"0.002": 16.7085080038,
			"0.003": 15.7281024383,
			"0.004": 15.7604596953,
			"0.005": 5.25884142951,
			"0.006": 4.06599523298,
			"0.007": 3.13338941447,
			"0.008": 3.70346638003,
			"0.009": 4.23638494938,
			"0.01": 3.80459513732,
			"0.011": 5.98628008818,
			"0.012": 4.81366379209,
			"0.013": 4.30191153352,
			"0.014": 1.71557581106,
			"0.015": 0.0,
			"0.016": 0.0,
			"0.017": 0.0,
			"0.018": 0.0,
			"0.019": 0.0,
			"0.02": 0.0,
			"0.021": 0.0,
			"0.022": 0.0,
			"0.023": 0.0,
			"0.024": 0.0,
			"0.025": 0.0
		}
	}
}
