{
	 "smiles": "O=C1CCC2=CC=CC=C2CC1", 
	 "Tm": 303.15, 
	 "num_atms": 24, 
	 "gaussian": { 
		 "optdone": 1, 
		 "sigma_profile": "yes", 
		 "theory": "DFT", 
		 "functional": "B3LYP", 
		 "basiset": "6-31G**", 
		 "properties": { 
			 "R2extent": 2248.3622, 
			 "electric_dipole_moment_norm": 2.70495326762, 
			 "electric_quadrupole_moment_norm": 13.6444287642, 
			 "total_energy": -501.631110837, 
			 "HOMO_LUMO_gap": 0.22677, 
			 "cosmo_polarized_energy": -8.73, 
			 "cosmo_cavitation_energy": 25.83, 
			 "cosmo_dispersion_energy": -19.25, 
			 "cosmo_repulsion_energy": 1.52, 
			 "cosmo_total_nonelectrostatic_energy": 8.09, 
			 "SMD_solvation_energy": 4.24 
		},
		"coords": [
			{
				"x": -3.7982617792,
				"y": -0.5171777553,
				"z": -0.5667360923,
				"element": "O" 
			},
			{
				"x": -2.6437143977,
				"y": -0.2942329648,
				"z": -0.2540488226,
				"element": "C" 
			},
			{
				"x": -1.6199270063,
				"y": 0.1846118286,
				"z": -1.273296938,
				"element": "C" 
			},
			{
				"x": -0.6740956026,
				"y": 1.2801730046,
				"z": -0.7464193794,
				"element": "C" 
			},
			{
				"x": 0.4946218867,
				"y": 0.8384846372,
				"z": 0.1249738348,
				"element": "C" 
			},
			{
				"x": 1.6878035875,
				"y": 1.5690748152,
				"z": 0.0005821573,
				"element": "C" 
			},
			{
				"x": 2.8177711905,
				"y": 1.2808903744,
				"z": 0.7606366584,
				"element": "C" 
			},
			{
				"x": 2.7724062429,
				"y": 0.2310375252,
				"z": 1.6766885578,
				"element": "C" 
			},
			{
				"x": 1.5970903617,
				"y": -0.5022769257,
				"z": 1.812423182,
				"element": "C" 
			},
			{
				"x": 0.4482318622,
				"y": -0.2239093025,
				"z": 1.0537685339,
				"element": "C" 
			},
			{
				"x": -0.7590267601,
				"y": -1.1244336819,
				"z": 1.2818921557,
				"element": "C" 
			},
			{
				"x": -2.1544071882,
				"y": -0.4811005656,
				"z": 1.1749199697,
				"element": "C" 
			},
			{
				"x": -1.0309624478,
				"y": -0.6819939144,
				"z": -1.605140366,
				"element": "H" 
			},
			{
				"x": -2.1787775745,
				"y": 0.5391736128,
				"z": -2.1436084539,
				"element": "H" 
			},
			{
				"x": -0.2589076132,
				"y": 1.8070011374,
				"z": -1.6116646574,
				"element": "H" 
			},
			{
				"x": -1.2682399523,
				"y": 2.0348897336,
				"z": -0.2107574788,
				"element": "H" 
			},
			{
				"x": 1.7244028255,
				"y": 2.3858133624,
				"z": -0.7167132344,
				"element": "H" 
			},
			{
				"x": 3.7229109913,
				"y": 1.8680526445,
				"z": 0.6353075904,
				"element": "H" 
			},
			{
				"x": 3.6402588101,
				"y": -0.0137609697,
				"z": 2.2822063131,
				"element": "H" 
			},
			{
				"x": 1.5605815893,
				"y": -1.3189821802,
				"z": 2.529760903,
				"element": "H" 
			},
			{
				"x": -0.6651657295,
				"y": -1.5529049167,
				"z": 2.2849752289,
				"element": "H" 
			},
			{
				"x": -0.7111725203,
				"y": -1.9847188771,
				"z": 0.5983948695,
				"element": "H" 
			},
			{
				"x": -2.1460412979,
				"y": 0.50080373,
				"z": 1.6686957957,
				"element": "H" 
			},
			{
				"x": -2.9029794779,
				"y": -1.0883143517,
				"z": 1.6910596725,
				"element": "H" 
			}
		],
		 "valence_orbital": [ 
			{
				"type": "occ",
				"energy": -0.33457,
				"method": "rhf"
			},
			{
				"type": "occ",
				"energy": -0.32747,
				"method": "rhf"
			},
			{
				"type": "occ",
				"energy": -0.24713,
				"method": "rhf"
			},
			{
				"type": "occ",
				"energy": -0.24101,
				"method": "rhf"
			},
			{
				"type": "occ",
				"energy": -0.23847,
				"method": "rhf"
			},
			{
				"type": "unocc",
				"energy": -0.0117,
				"method": "rhf"
			},
			{
				"type": "unocc",
				"energy": -0.00498,
				"method": "rhf"
			},
			{
				"type": "unocc",
				"energy": -0.00403,
				"method": "rhf"
			},
			{
				"type": "unocc",
				"energy": 0.08513,
				"method": "rhf"
			},
			{
				"type": "unocc",
				"energy": 0.09249,
				"method": "rhf"
			}
		],
		"cosmo_sigma_profile": { 
			"-0.025": 0.0,
			"-0.024": 0.0,
			"-0.023": 0.0,
			"-0.022": 0.0,
			"-0.021": 0.0,
			"-0.02": 0.0,
			"-0.019": 0.0,
			"-0.018": 0.0,
			"-0.017": 0.0,
			"-0.016": 0.0,
			"-0.015": 0.0,
			"-0.014": 0.0,
			"-0.013": 0.0,
			"-0.012": 0.0,
			"-0.011": 0.0,
			"-0.01": 0.0,
			"-0.009": 0.0,
			"-0.008": 0.0,
			"-0.007": 0.624255762724,
			"-0.006": 7.07765119325,
			"-0.005": 20.9374550649,
			"-0.004": 25.2183248812,
			"-0.003": 26.6156019732,
			"-0.002": 23.1028977621,
			"-0.001": 18.8569406568,
			"0.0": 9.8492902404,
			"0.001": 8.00477612371,
			"0.002": 7.7624913582,
			"0.003": 7.92900418819,
			"0.004": 8.64344697441,
			"0.005": 7.8751394905,
			"0.006": 9.39374252847,
			"0.007": 4.9467194686,
			"0.008": 1.57594106031,
			"0.009": 1.76421213981,
			"0.01": 2.1173418491,
			"0.011": 2.69036165914,
			"0.012": 4.38994596036,
			"0.013": 3.43079518143,
			"0.014": 0.497327394217,
			"0.015": 0.0,
			"0.016": 0.0,
			"0.017": 0.0,
			"0.018": 0.0,
			"0.019": 0.0,
			"0.02": 0.0,
			"0.021": 0.0,
			"0.022": 0.0,
			"0.023": 0.0,
			"0.024": 0.0,
			"0.025": 0.0
		}
	}
}
