{
	 "smiles": "NN1C(S)=NN=C1C1=C(Br)C=CC=C1", 
	 "Tm": 462.15, 
	 "num_atms": 21, 
	 "gaussian": { 
		 "optdone": 1, 
		 "sigma_profile": "yes", 
		 "theory": "DFT", 
		 "functional": "B3LYP", 
		 "basiset": "6-31G**", 
		 "properties": { 
			 "R2extent": 4912.1268, 
			 "electric_dipole_moment_norm": 6.99876878386, 
			 "electric_quadrupole_moment_norm": 16.503283247, 
			 "total_energy": -3497.60341131, 
			 "HOMO_LUMO_gap": 0.17948, 
			 "cosmo_polarized_energy": -19.32, 
			 "cosmo_cavitation_energy": 29.34, 
			 "cosmo_dispersion_energy": -22.11, 
			 "cosmo_repulsion_energy": 1.69, 
			 "cosmo_total_nonelectrostatic_energy": 8.93, 
			 "SMD_solvation_energy": 1.72 
		},
		"coords": [
			{
				"x": -2.5519498944,
				"y": -0.7091573229,
				"z": -0.5372338172,
				"element": "N" 
			},
			{
				"x": -1.4098123138,
				"y": -1.492548751,
				"z": -0.3498323169,
				"element": "N" 
			},
			{
				"x": -1.268402305,
				"y": -2.7799344529,
				"z": -0.8149746329,
				"element": "C" 
			},
			{
				"x": -2.5449828461,
				"y": -3.6853760202,
				"z": -1.6175635964,
				"element": "S" 
			},
			{
				"x": -0.0586092571,
				"y": -3.2244579033,
				"z": -0.5750236726,
				"element": "N" 
			},
			{
				"x": 0.6338168486,
				"y": -2.207585239,
				"z": 0.0588635621,
				"element": "N" 
			},
			{
				"x": -0.1739151998,
				"y": -1.182750597,
				"z": 0.2000852654,
				"element": "C" 
			},
			{
				"x": 0.2221342933,
				"y": 0.12398054,
				"z": 0.7525979186,
				"element": "C" 
			},
			{
				"x": -0.4218491565,
				"y": 0.7833865368,
				"z": 1.8129439166,
				"element": "C" 
			},
			{
				"x": -1.9079905372,
				"y": -0.0200343543,
				"z": 2.72590838,
				"element": "Br" 
			},
			{
				"x": 0.0234317184,
				"y": 2.0157035222,
				"z": 2.2879205247,
				"element": "C" 
			},
			{
				"x": 1.1488978838,
				"y": 2.6082986138,
				"z": 1.7163490496,
				"element": "C" 
			},
			{
				"x": 1.8279621772,
				"y": 1.9622288704,
				"z": 0.6825244501,
				"element": "C" 
			},
			{
				"x": 1.3655034522,
				"y": 0.738029553,
				"z": 0.2089772891,
				"element": "C" 
			},
			{
				"x": -2.9059567541,
				"y": -0.4279076223,
				"z": 0.3759569687,
				"element": "H" 
			},
			{
				"x": -2.3026541851,
				"y": 0.1227832889,
				"z": -1.0674632514,
				"element": "H" 
			},
			{
				"x": -3.4120531292,
				"y": -2.6507104995,
				"z": -1.5634436561,
				"element": "H" 
			},
			{
				"x": -0.4976291088,
				"y": 2.4943376475,
				"z": 3.1089806219,
				"element": "H" 
			},
			{
				"x": 1.4959111647,
				"y": 3.5667139689,
				"z": 2.0902134784,
				"element": "H" 
			},
			{
				"x": 2.7130517149,
				"y": 2.4112733328,
				"z": 0.243184744,
				"element": "H" 
			},
			{
				"x": 1.8840954342,
				"y": 0.222126888,
				"z": -0.5918712257,
				"element": "H" 
			}
		],
		 "valence_orbital": [ 
			{
				"type": "occ",
				"energy": -0.29679,
				"method": "rhf"
			},
			{
				"type": "occ",
				"energy": -0.27919,
				"method": "rhf"
			},
			{
				"type": "occ",
				"energy": -0.26607,
				"method": "rhf"
			},
			{
				"type": "occ",
				"energy": -0.24955,
				"method": "rhf"
			},
			{
				"type": "occ",
				"energy": -0.2257,
				"method": "rhf"
			},
			{
				"type": "unocc",
				"energy": -0.04622,
				"method": "rhf"
			},
			{
				"type": "unocc",
				"energy": -0.03175,
				"method": "rhf"
			},
			{
				"type": "unocc",
				"energy": -0.01612,
				"method": "rhf"
			},
			{
				"type": "unocc",
				"energy": 0.01968,
				"method": "rhf"
			},
			{
				"type": "unocc",
				"energy": 0.02222,
				"method": "rhf"
			}
		],
		"cosmo_sigma_profile": { 
			"-0.025": 0.0,
			"-0.024": 0.0,
			"-0.023": 0.0,
			"-0.022": 0.0,
			"-0.021": 0.0,
			"-0.02": 0.0,
			"-0.019": 0.0,
			"-0.018": 0.0,
			"-0.017": 0.0,
			"-0.016": 0.0,
			"-0.015": 0.105193480092,
			"-0.014": 1.33587692737,
			"-0.013": 1.72522777251,
			"-0.012": 1.94051760026,
			"-0.011": 2.59186269518,
			"-0.01": 2.943305271,
			"-0.009": 3.14515475796,
			"-0.008": 5.05970717818,
			"-0.007": 10.2592783609,
			"-0.006": 12.3304425424,
			"-0.005": 13.99875041,
			"-0.004": 13.201942515,
			"-0.003": 14.6053741921,
			"-0.002": 12.3517459462,
			"-0.001": 13.6308272915,
			"0.0": 17.3284585712,
			"0.001": 19.4724851631,
			"0.002": 24.9033979076,
			"0.003": 22.2987345965,
			"0.004": 11.3702028484,
			"0.005": 5.84822425826,
			"0.006": 5.27463496801,
			"0.007": 3.71073727117,
			"0.008": 1.84680897132,
			"0.009": 1.97621675152,
			"0.01": 2.06050631554,
			"0.011": 2.42193614506,
			"0.012": 2.53519556123,
			"0.013": 3.71945887686,
			"0.014": 2.99742763871,
			"0.015": 2.72639745317,
			"0.016": 1.63375500868,
			"0.017": 0.300314934039,
			"0.018": 0.0,
			"0.019": 0.0,
			"0.02": 0.0,
			"0.021": 0.0,
			"0.022": 0.0,
			"0.023": 0.0,
			"0.024": 0.0,
			"0.025": 0.0
		}
	}
}
