{
	 "smiles": "CC(=O)C1=CC=C(O)C=C1O", 
	 "Tm": 418.15, 
	 "num_atms": 19, 
	 "gaussian": { 
		 "optdone": 1, 
		 "sigma_profile": "yes", 
		 "theory": "DFT", 
		 "functional": "B3LYP", 
		 "basiset": "6-31G**", 
		 "properties": { 
			 "R2extent": 2081.4653, 
			 "electric_dipole_moment_norm": 1.02145274487, 
			 "electric_quadrupole_moment_norm": 23.0980493332, 
			 "total_energy": -535.337312423, 
			 "HOMO_LUMO_gap": 0.18364, 
			 "cosmo_polarized_energy": -15.44, 
			 "cosmo_cavitation_energy": 22.93, 
			 "cosmo_dispersion_energy": -17.28, 
			 "cosmo_repulsion_energy": 1.37, 
			 "cosmo_total_nonelectrostatic_energy": 7.01, 
			 "SMD_solvation_energy": 5.18 
		},
		"coords": [
			{
				"x": -1.8630838338,
				"y": 1.2133710944,
				"z": -1.2770320217,
				"element": "C" 
			},
			{
				"x": -0.4068877236,
				"y": 0.8557264205,
				"z": -1.5645843457,
				"element": "C" 
			},
			{
				"x": -0.023212679,
				"y": 0.8911262863,
				"z": -2.7273666809,
				"element": "O" 
			},
			{
				"x": 0.5253555142,
				"y": 0.473481377,
				"z": -0.4663384813,
				"element": "C" 
			},
			{
				"x": 1.8441094933,
				"y": 0.1647655694,
				"z": -0.8643546402,
				"element": "C" 
			},
			{
				"x": 2.8287215908,
				"y": -0.207512896,
				"z": 0.0294788011,
				"element": "C" 
			},
			{
				"x": 2.5103159564,
				"y": -0.2842493501,
				"z": 1.3972594337,
				"element": "C" 
			},
			{
				"x": 3.4228335155,
				"y": -0.6427077353,
				"z": 2.3385514273,
				"element": "O" 
			},
			{
				"x": 1.2228517631,
				"y": 0.0114866415,
				"z": 1.8342009292,
				"element": "C" 
			},
			{
				"x": 0.2336185276,
				"y": 0.3872910079,
				"z": 0.9209951483,
				"element": "C" 
			},
			{
				"x": -0.9765559228,
				"y": 0.646767927,
				"z": 1.488121622,
				"element": "O" 
			},
			{
				"x": -1.9421314185,
				"y": 2.0908290183,
				"z": -0.6213393052,
				"element": "H" 
			},
			{
				"x": -2.4044974981,
				"y": 0.3718349106,
				"z": -0.8245636799,
				"element": "H" 
			},
			{
				"x": -2.3463450752,
				"y": 1.455487361,
				"z": -2.2242342103,
				"element": "H" 
			},
			{
				"x": 2.058230637,
				"y": 0.2331530653,
				"z": -1.9253033363,
				"element": "H" 
			},
			{
				"x": 3.8337076502,
				"y": -0.4379555254,
				"z": -0.3156344767,
				"element": "H" 
			},
			{
				"x": 4.2699832664,
				"y": -0.8201976312,
				"z": 1.9089354252,
				"element": "H" 
			},
			{
				"x": 0.9767100913,
				"y": -0.0472774963,
				"z": 2.887761254,
				"element": "H" 
			},
			{
				"x": -1.6230238546,
				"y": 0.9014799549,
				"z": 0.8215471374,
				"element": "H" 
			}
		],
		 "valence_orbital": [ 
			{
				"type": "occ",
				"energy": -0.34682,
				"method": "rhf"
			},
			{
				"type": "occ",
				"energy": -0.31646,
				"method": "rhf"
			},
			{
				"type": "occ",
				"energy": -0.24983,
				"method": "rhf"
			},
			{
				"type": "occ",
				"energy": -0.24025,
				"method": "rhf"
			},
			{
				"type": "occ",
				"energy": -0.22962,
				"method": "rhf"
			},
			{
				"type": "unocc",
				"energy": -0.04598,
				"method": "rhf"
			},
			{
				"type": "unocc",
				"energy": 0.00104,
				"method": "rhf"
			},
			{
				"type": "unocc",
				"energy": 0.04586,
				"method": "rhf"
			},
			{
				"type": "unocc",
				"energy": 0.06198,
				"method": "rhf"
			},
			{
				"type": "unocc",
				"energy": 0.07489,
				"method": "rhf"
			}
		],
		"cosmo_sigma_profile": { 
			"-0.025": 0.0,
			"-0.024": 0.0,
			"-0.023": 0.0,
			"-0.022": 0.0,
			"-0.021": 0.0,
			"-0.02": 0.0,
			"-0.019": 0.138232938112,
			"-0.018": 0.986307095101,
			"-0.017": 1.21099664494,
			"-0.016": 0.829457833183,
			"-0.015": 1.63519354988,
			"-0.014": 1.77121965575,
			"-0.013": 1.68255815679,
			"-0.012": 2.11653797772,
			"-0.011": 2.75903954907,
			"-0.01": 3.39046302185,
			"-0.009": 3.71186821732,
			"-0.008": 4.04003199126,
			"-0.007": 5.53852710514,
			"-0.006": 7.24749422652,
			"-0.005": 7.56278302197,
			"-0.004": 9.69432527269,
			"-0.003": 8.76632078392,
			"-0.002": 10.5152375487,
			"-0.001": 9.44408063479,
			"0.0": 6.63757573497,
			"0.001": 8.40217160857,
			"0.002": 11.5163104061,
			"0.003": 19.6584352998,
			"0.004": 13.4837871713,
			"0.005": 5.02086105627,
			"0.006": 4.99092850408,
			"0.007": 4.75681370641,
			"0.008": 4.54623371876,
			"0.009": 3.80604514666,
			"0.01": 5.76393922609,
			"0.011": 4.04135021618,
			"0.012": 4.11382995179,
			"0.013": 2.36876386658,
			"0.014": 0.445392190752,
			"0.015": 0.0,
			"0.016": 0.0,
			"0.017": 0.0,
			"0.018": 0.0,
			"0.019": 0.0,
			"0.02": 0.0,
			"0.021": 0.0,
			"0.022": 0.0,
			"0.023": 0.0,
			"0.024": 0.0,
			"0.025": 0.0
		}
	}
}
