{
	 "smiles": "CC1(C)C=C(C(O)=O)C(C)(C)N1O", 
	 "Tm": 475.15, 
	 "num_atms": 28, 
	 "gaussian": { 
		 "optdone": 1, 
		 "sigma_profile": "yes", 
		 "theory": "DFT", 
		 "functional": "B3LYP", 
		 "basiset": "6-31G**", 
		 "properties": { 
			 "R2extent": 2587.5813, 
			 "electric_dipole_moment_norm": 1.43849850539, 
			 "electric_quadrupole_moment_norm": 10.8064047685, 
			 "total_energy": -632.370306464, 
			 "HOMO_LUMO_gap": 0.17319, 
			 "cosmo_polarized_energy": -11.41, 
			 "cosmo_cavitation_energy": 29.42, 
			 "cosmo_dispersion_energy": -20.44, 
			 "cosmo_repulsion_energy": 1.62, 
			 "cosmo_total_nonelectrostatic_energy": 10.61, 
			 "SMD_solvation_energy": 6.58 
		},
		"coords": [
			{
				"x": -0.4018949371,
				"y": 2.8244609175,
				"z": -1.2172694107,
				"element": "C" 
			},
			{
				"x": -0.5819871308,
				"y": 1.3258862186,
				"z": -0.9149755753,
				"element": "C" 
			},
			{
				"x": -2.0883334028,
				"y": 0.9865353821,
				"z": -0.8459908173,
				"element": "C" 
			},
			{
				"x": 0.1205186669,
				"y": 0.4417925769,
				"z": -1.9092761549,
				"element": "C" 
			},
			{
				"x": 0.8828272357,
				"y": -0.4856193872,
				"z": -1.3144742556,
				"element": "C" 
			},
			{
				"x": 1.6176208146,
				"y": -1.4948153253,
				"z": -2.107655245,
				"element": "C" 
			},
			{
				"x": 2.2263529951,
				"y": -2.4399491968,
				"z": -1.3433461999,
				"element": "O" 
			},
			{
				"x": 1.6816390659,
				"y": -1.5156300815,
				"z": -3.3215798377,
				"element": "O" 
			},
			{
				"x": 0.8137640285,
				"y": -0.3715597346,
				"z": 0.2049005966,
				"element": "C" 
			},
			{
				"x": 2.1871214327,
				"y": -0.3088494815,
				"z": 0.8956409242,
				"element": "C" 
			},
			{
				"x": -0.0302894358,
				"y": -1.5075543883,
				"z": 0.8195469609,
				"element": "C" 
			},
			{
				"x": 0.1928476465,
				"y": 0.9896539115,
				"z": 0.3146205639,
				"element": "N" 
			},
			{
				"x": -0.6107620047,
				"y": 1.1098282896,
				"z": 1.4920637656,
				"element": "O" 
			},
			{
				"x": -0.9022454136,
				"y": 3.1051484121,
				"z": -2.1501699007,
				"element": "H" 
			},
			{
				"x": 0.6591975945,
				"y": 3.0747812453,
				"z": -1.2945144591,
				"element": "H" 
			},
			{
				"x": -0.8384815054,
				"y": 3.4184405074,
				"z": -0.4074051529,
				"element": "H" 
			},
			{
				"x": -2.5590046478,
				"y": 1.547116331,
				"z": -0.0352876726,
				"element": "H" 
			},
			{
				"x": -2.5749144752,
				"y": 1.2574857876,
				"z": -1.7884353245,
				"element": "H" 
			},
			{
				"x": -2.2577236152,
				"y": -0.0777006803,
				"z": -0.6694446442,
				"element": "H" 
			},
			{
				"x": -0.0031870162,
				"y": 0.5328794636,
				"z": -2.9832174722,
				"element": "H" 
			},
			{
				"x": 2.662223008,
				"y": -3.0419657937,
				"z": -1.9696404617,
				"element": "H" 
			},
			{
				"x": 2.0452289408,
				"y": -0.0605378768,
				"z": 1.9530064833,
				"element": "H" 
			},
			{
				"x": 2.8071537336,
				"y": 0.4697419325,
				"z": 0.4428931413,
				"element": "H" 
			},
			{
				"x": 2.7109327595,
				"y": -1.2649819106,
				"z": 0.8326329107,
				"element": "H" 
			},
			{
				"x": -1.0135287856,
				"y": -1.5831189544,
				"z": 0.349113557,
				"element": "H" 
			},
			{
				"x": 0.4874460093,
				"y": -2.4609298591,
				"z": 0.6857924561,
				"element": "H" 
			},
			{
				"x": -0.1769604246,
				"y": -1.330247252,
				"z": 1.8871883934,
				"element": "H" 
			},
			{
				"x": -0.1494611368,
				"y": 1.7954089466,
				"z": 1.9929828313,
				"element": "H" 
			}
		],
		 "valence_orbital": [ 
			{
				"type": "occ",
				"energy": -0.31924,
				"method": "rhf"
			},
			{
				"type": "occ",
				"energy": -0.28553,
				"method": "rhf"
			},
			{
				"type": "occ",
				"energy": -0.27477,
				"method": "rhf"
			},
			{
				"type": "occ",
				"energy": -0.26303,
				"method": "rhf"
			},
			{
				"type": "occ",
				"energy": -0.2169,
				"method": "rhf"
			},
			{
				"type": "unocc",
				"energy": -0.04371,
				"method": "rhf"
			},
			{
				"type": "unocc",
				"energy": 0.06332,
				"method": "rhf"
			},
			{
				"type": "unocc",
				"energy": 0.07818,
				"method": "rhf"
			},
			{
				"type": "unocc",
				"energy": 0.08301,
				"method": "rhf"
			},
			{
				"type": "unocc",
				"energy": 0.09853,
				"method": "rhf"
			}
		],
		"cosmo_sigma_profile": { 
			"-0.025": 0.0,
			"-0.024": 0.0,
			"-0.023": 0.0,
			"-0.022": 0.0,
			"-0.021": 0.0,
			"-0.02": 0.0,
			"-0.019": 0.0,
			"-0.018": 0.726642996571,
			"-0.017": 0.970373670567,
			"-0.016": 1.20910385366,
			"-0.015": 1.44849278993,
			"-0.014": 1.59343974712,
			"-0.013": 1.42762353085,
			"-0.012": 0.567173902753,
			"-0.011": 1.8031386374,
			"-0.01": 1.8586753958,
			"-0.009": 1.00477774937,
			"-0.008": 1.66259041305,
			"-0.007": 3.05049593063,
			"-0.006": 2.65729148013,
			"-0.005": 3.62160716073,
			"-0.004": 10.0844234054,
			"-0.003": 18.1297131398,
			"-0.002": 23.6848874679,
			"-0.001": 29.1292418824,
			"0.0": 30.8337645914,
			"0.001": 28.1892883008,
			"0.002": 14.5681987962,
			"0.003": 8.28167973196,
			"0.004": 6.25508355432,
			"0.005": 7.14595006712,
			"0.006": 4.80741381213,
			"0.007": 2.49428226677,
			"0.008": 3.30080260513,
			"0.009": 4.03383429066,
			"0.01": 3.15922584758,
			"0.011": 4.07721402486,
			"0.012": 6.10436232201,
			"0.013": 0.660492795933,
			"0.014": 0.0,
			"0.015": 0.0,
			"0.016": 0.0,
			"0.017": 0.0,
			"0.018": 0.0,
			"0.019": 0.0,
			"0.02": 0.0,
			"0.021": 0.0,
			"0.022": 0.0,
			"0.023": 0.0,
			"0.024": 0.0,
			"0.025": 0.0
		}
	}
}
