{
	 "smiles": "CCCCC[C@H](O)C=C[C@H]1[C@H](O)CC(=O)[C@@H]1CCCCCCC(O)=O", 
	 "Tm": 389.15, 
	 "num_atms": 59, 
	 "gaussian": { 
		 "optdone": 1, 
		 "sigma_profile": "yes", 
		 "theory": "DFT", 
		 "functional": "B3LYP", 
		 "basiset": "6-31G**", 
		 "properties": { 
			 "R2extent": 11392.4811, 
			 "electric_dipole_moment_norm": 3.10756558257, 
			 "electric_quadrupole_moment_norm": 32.1554556006, 
			 "total_energy": -1158.74805751, 
			 "HOMO_LUMO_gap": 0.22014, 
			 "cosmo_polarized_energy": -22.53, 
			 "cosmo_cavitation_energy": 57.86, 
			 "cosmo_dispersion_energy": -35.35, 
			 "cosmo_repulsion_energy": 2.74, 
			 "cosmo_total_nonelectrostatic_energy": 25.26, 
			 "SMD_solvation_energy": 9.43 
		},
		"coords": [
			{
				"x": 1.1718057308,
				"y": -2.6891292603,
				"z": -5.1790239644,
				"element": "C" 
			},
			{
				"x": -0.0366955211,
				"y": -2.6964657104,
				"z": -4.2353799621,
				"element": "C" 
			},
			{
				"x": -0.2061324281,
				"y": -1.4164046198,
				"z": -3.3999127841,
				"element": "C" 
			},
			{
				"x": 0.9650582943,
				"y": -1.0657525786,
				"z": -2.4616710959,
				"element": "C" 
			},
			{
				"x": 1.3697484849,
				"y": -2.1257903317,
				"z": -1.4211394301,
				"element": "C" 
			},
			{
				"x": 0.3817535388,
				"y": -2.3859437983,
				"z": -0.2692267676,
				"element": "C" 
			},
			{
				"x": -0.800298103,
				"y": -2.9678419279,
				"z": -0.8151462761,
				"element": "O" 
			},
			{
				"x": 0.1114283597,
				"y": -1.1529742164,
				"z": 0.567970075,
				"element": "C" 
			},
			{
				"x": -1.072921198,
				"y": -0.5399990049,
				"z": 0.6472337168,
				"element": "C" 
			},
			{
				"x": -1.4775833551,
				"y": 0.6412434552,
				"z": 1.5006825216,
				"element": "C" 
			},
			{
				"x": -2.5943827783,
				"y": 0.1814274677,
				"z": 2.500694243,
				"element": "C" 
			},
			{
				"x": -3.3904196331,
				"y": 1.2704631394,
				"z": 2.9643189868,
				"element": "O" 
			},
			{
				"x": -1.8189130687,
				"y": -0.3377786241,
				"z": 3.708395335,
				"element": "C" 
			},
			{
				"x": -0.5549631315,
				"y": 0.5225930187,
				"z": 3.7547399472,
				"element": "C" 
			},
			{
				"x": 0.1922834995,
				"y": 0.6304806884,
				"z": 4.7021355046,
				"element": "O" 
			},
			{
				"x": -0.3840478752,
				"y": 1.2517929879,
				"z": 2.4087626173,
				"element": "C" 
			},
			{
				"x": -0.5213036674,
				"y": 2.7770886978,
				"z": 2.6422891011,
				"element": "C" 
			},
			{
				"x": -0.109217683,
				"y": 3.6892921332,
				"z": 1.472807434,
				"element": "C" 
			},
			{
				"x": 1.4113794999,
				"y": 3.778222055,
				"z": 1.2006913231,
				"element": "C" 
			},
			{
				"x": 1.9342349602,
				"y": 2.9095204536,
				"z": 0.0466757648,
				"element": "C" 
			},
			{
				"x": 3.4498309592,
				"y": 3.0609981946,
				"z": -0.144807922,
				"element": "C" 
			},
			{
				"x": 4.0168301218,
				"y": 2.3086381337,
				"z": -1.3517036921,
				"element": "C" 
			},
			{
				"x": 4.0324770839,
				"y": 0.8043284048,
				"z": -1.1906099221,
				"element": "C" 
			},
			{
				"x": 4.4591281619,
				"y": 0.1914524359,
				"z": -2.3218424469,
				"element": "O" 
			},
			{
				"x": 3.7267935284,
				"y": 0.1836291553,
				"z": -0.1931600083,
				"element": "O" 
			},
			{
				"x": 1.199986428,
				"y": -3.5954403626,
				"z": -5.7933922909,
				"element": "H" 
			},
			{
				"x": 2.1194813419,
				"y": -2.6376164543,
				"z": -4.6318227603,
				"element": "H" 
			},
			{
				"x": 1.1392978851,
				"y": -1.8289954832,
				"z": -5.8586047884,
				"element": "H" 
			},
			{
				"x": 0.0177901285,
				"y": -3.5628932481,
				"z": -3.5656217886,
				"element": "H" 
			},
			{
				"x": -0.9491067401,
				"y": -2.8387381125,
				"z": -4.8291367842,
				"element": "H" 
			},
			{
				"x": -0.3545638236,
				"y": -0.5670404475,
				"z": -4.0824953821,
				"element": "H" 
			},
			{
				"x": -1.1210202293,
				"y": -1.5105894185,
				"z": -2.808049752,
				"element": "H" 
			},
			{
				"x": 0.7197873816,
				"y": -0.1345439676,
				"z": -1.9359749943,
				"element": "H" 
			},
			{
				"x": 1.8536727173,
				"y": -0.8380969132,
				"z": -3.0648746605,
				"element": "H" 
			},
			{
				"x": 2.3098104353,
				"y": -1.8102372183,
				"z": -0.9531149852,
				"element": "H" 
			},
			{
				"x": 1.5638699077,
				"y": -3.088804351,
				"z": -1.9079239072,
				"element": "H" 
			},
			{
				"x": 0.8738773598,
				"y": -3.1188138484,
				"z": 0.3956790997,
				"element": "H" 
			},
			{
				"x": -1.3802102244,
				"y": -3.1967162058,
				"z": -0.0766017372,
				"element": "H" 
			},
			{
				"x": 0.9741001342,
				"y": -0.7936473433,
				"z": 1.1270049905,
				"element": "H" 
			},
			{
				"x": -1.8835830061,
				"y": -0.9495797248,
				"z": 0.0428957157,
				"element": "H" 
			},
			{
				"x": -1.9069956132,
				"y": 1.4025779958,
				"z": 0.8327375705,
				"element": "H" 
			},
			{
				"x": -3.2330901611,
				"y": -0.5907953626,
				"z": 2.0478796005,
				"element": "H" 
			},
			{
				"x": -3.8278718957,
				"y": 1.6679793206,
				"z": 2.1998071434,
				"element": "H" 
			},
			{
				"x": -2.3846124428,
				"y": -0.2801703795,
				"z": 4.640709164,
				"element": "H" 
			},
			{
				"x": -1.5153696763,
				"y": -1.3801940043,
				"z": 3.5545052274,
				"element": "H" 
			},
			{
				"x": 0.6271668441,
				"y": 1.0471337725,
				"z": 2.0445776053,
				"element": "H" 
			},
			{
				"x": -1.5612717188,
				"y": 2.982417124,
				"z": 2.9165173091,
				"element": "H" 
			},
			{
				"x": 0.0890360118,
				"y": 3.0305861862,
				"z": 3.5174554705,
				"element": "H" 
			},
			{
				"x": -0.6346216352,
				"y": 3.3956429685,
				"z": 0.5531395828,
				"element": "H" 
			},
			{
				"x": -0.4804915745,
				"y": 4.6933188466,
				"z": 1.7119500405,
				"element": "H" 
			},
			{
				"x": 1.671683371,
				"y": 4.8214797413,
				"z": 0.9778362573,
				"element": "H" 
			},
			{
				"x": 1.9589274601,
				"y": 3.5281223814,
				"z": 2.1198767199,
				"element": "H" 
			},
			{
				"x": 1.6959830463,
				"y": 1.8544368871,
				"z": 0.2175807121,
				"element": "H" 
			},
			{
				"x": 1.4189695031,
				"y": 3.1994938834,
				"z": -0.8808241118,
				"element": "H" 
			},
			{
				"x": 3.966300029,
				"y": 2.7215463773,
				"z": 0.7605577294,
				"element": "H" 
			},
			{
				"x": 3.692002538,
				"y": 4.1247785296,
				"z": -0.2641468858,
				"element": "H" 
			},
			{
				"x": 5.0520054243,
				"y": 2.6130784296,
				"z": -1.5531789981,
				"element": "H" 
			},
			{
				"x": 3.461750197,
				"y": 2.5400103561,
				"z": -2.2694129355,
				"element": "H" 
			},
			{
				"x": 4.4577368163,
				"y": -0.7622803031,
				"z": -2.1355054748,
				"element": "H" 
			}
		],
		 "valence_orbital": [ 
			{
				"type": "occ",
				"energy": -0.28095,
				"method": "rhf"
			},
			{
				"type": "occ",
				"energy": -0.27625,
				"method": "rhf"
			},
			{
				"type": "occ",
				"energy": -0.27464,
				"method": "rhf"
			},
			{
				"type": "occ",
				"energy": -0.24687,
				"method": "rhf"
			},
			{
				"type": "occ",
				"energy": -0.23303,
				"method": "rhf"
			},
			{
				"type": "unocc",
				"energy": -0.01289,
				"method": "rhf"
			},
			{
				"type": "unocc",
				"energy": 0.00177,
				"method": "rhf"
			},
			{
				"type": "unocc",
				"energy": 0.01326,
				"method": "rhf"
			},
			{
				"type": "unocc",
				"energy": 0.0543,
				"method": "rhf"
			},
			{
				"type": "unocc",
				"energy": 0.06535,
				"method": "rhf"
			}
		],
		"cosmo_sigma_profile": { 
			"-0.025": 0.0,
			"-0.024": 0.0,
			"-0.023": 0.0,
			"-0.022": 0.0,
			"-0.021": 0.0,
			"-0.02": 0.0,
			"-0.019": 0.0,
			"-0.018": 0.0,
			"-0.017": 0.509167260545,
			"-0.016": 0.640778024236,
			"-0.015": 1.98879956018,
			"-0.014": 2.4847243598,
			"-0.013": 2.55933521143,
			"-0.012": 2.94353637509,
			"-0.011": 2.23090084984,
			"-0.01": 2.22434351517,
			"-0.009": 2.54069431752,
			"-0.008": 2.60167634372,
			"-0.007": 3.99614815086,
			"-0.006": 10.8093696952,
			"-0.005": 16.0364278595,
			"-0.004": 24.2391018523,
			"-0.003": 32.3936549301,
			"-0.002": 53.836806565,
			"-0.001": 60.0415741972,
			"0.0": 53.6290166572,
			"0.001": 50.7766067671,
			"0.002": 27.3616930785,
			"0.003": 14.0782030136,
			"0.004": 10.9129367659,
			"0.005": 10.2975983589,
			"0.006": 7.92321021377,
			"0.007": 7.24647917055,
			"0.008": 6.25537183906,
			"0.009": 6.53540175102,
			"0.01": 8.25305873491,
			"0.011": 7.55871899221,
			"0.012": 8.70677133575,
			"0.013": 3.62501728858,
			"0.014": 0.773481731178,
			"0.015": 0.0,
			"0.016": 0.0,
			"0.017": 0.0,
			"0.018": 0.0,
			"0.019": 0.0,
			"0.02": 0.0,
			"0.021": 0.0,
			"0.022": 0.0,
			"0.023": 0.0,
			"0.024": 0.0,
			"0.025": 0.0
		}
	}
}
