{
	 "smiles": "NC1CCCCC1CO", 
	 "Tm": 407.15, 
	 "num_atms": 24, 
	 "gaussian": { 
		 "optdone": 1, 
		 "sigma_profile": "yes", 
		 "theory": "DFT", 
		 "functional": "B3LYP", 
		 "basiset": "6-31G**", 
		 "properties": { 
			 "R2extent": 1545.0599, 
			 "electric_dipole_moment_norm": 2.59281794193, 
			 "electric_quadrupole_moment_norm": 8.45462239133, 
			 "total_energy": -405.761896516, 
			 "HOMO_LUMO_gap": 0.30773, 
			 "cosmo_polarized_energy": -9.96, 
			 "cosmo_cavitation_energy": 23.8, 
			 "cosmo_dispersion_energy": -17.9, 
			 "cosmo_repulsion_energy": 1.47, 
			 "cosmo_total_nonelectrostatic_energy": 7.37, 
			 "SMD_solvation_energy": 2.25 
		},
		"coords": [
			{
				"x": -1.6063484952,
				"y": -1.0772483912,
				"z": 0.4066179833,
				"element": "N" 
			},
			{
				"x": -0.2969730068,
				"y": -0.4121992264,
				"z": 0.3286662955,
				"element": "C" 
			},
			{
				"x": 0.3963057312,
				"y": -0.8426152138,
				"z": -0.9730149165,
				"element": "C" 
			},
			{
				"x": 1.7462374612,
				"y": -0.143084897,
				"z": -1.1751357203,
				"element": "C" 
			},
			{
				"x": 1.5906839357,
				"y": 1.3824171744,
				"z": -1.1187066505,
				"element": "C" 
			},
			{
				"x": 0.8924248162,
				"y": 1.8211617527,
				"z": 0.1758476655,
				"element": "C" 
			},
			{
				"x": -0.4663823346,
				"y": 1.1231761194,
				"z": 0.3751102274,
				"element": "C" 
			},
			{
				"x": -1.1483998731,
				"y": 1.5752192648,
				"z": 1.6767475312,
				"element": "C" 
			},
			{
				"x": -1.3521770959,
				"y": 2.9805353258,
				"z": 1.7608427061,
				"element": "O" 
			},
			{
				"x": -1.4913932937,
				"y": -2.07066708,
				"z": 0.2170242713,
				"element": "H" 
			},
			{
				"x": -1.9833053809,
				"y": -1.0175216884,
				"z": 1.3488175314,
				"element": "H" 
			},
			{
				"x": 0.3704903393,
				"y": -0.6946456627,
				"z": 1.1679823041,
				"element": "H" 
			},
			{
				"x": 0.5327186726,
				"y": -1.932820229,
				"z": -0.9680814852,
				"element": "H" 
			},
			{
				"x": -0.2768210663,
				"y": -0.613498592,
				"z": -1.8098564121,
				"element": "H" 
			},
			{
				"x": 2.188581611,
				"y": -0.448192925,
				"z": -2.1307542928,
				"element": "H" 
			},
			{
				"x": 2.4463428558,
				"y": -0.4656109263,
				"z": -0.3913759703,
				"element": "H" 
			},
			{
				"x": 0.9953919607,
				"y": 1.7178364287,
				"z": -1.9790835511,
				"element": "H" 
			},
			{
				"x": 2.5687853352,
				"y": 1.8706069966,
				"z": -1.205690548,
				"element": "H" 
			},
			{
				"x": 1.5458471182,
				"y": 1.5975593994,
				"z": 1.0339717338,
				"element": "H" 
			},
			{
				"x": 0.7463859704,
				"y": 2.9080578362,
				"z": 0.162545721,
				"element": "H" 
			},
			{
				"x": -1.1298877946,
				"y": 1.4027102378,
				"z": -0.455088702,
				"element": "H" 
			},
			{
				"x": -2.1497216805,
				"y": 1.1392627467,
				"z": 1.7381258441,
				"element": "H" 
			},
			{
				"x": -0.5704981241,
				"y": 1.2069751076,
				"z": 2.5434235364,
				"element": "H" 
			},
			{
				"x": -0.4889876617,
				"y": 3.3994864415,
				"z": 1.8621648976,
				"element": "H" 
			}
		],
		 "valence_orbital": [ 
			{
				"type": "occ",
				"energy": -0.3195,
				"method": "rhf"
			},
			{
				"type": "occ",
				"energy": -0.30299,
				"method": "rhf"
			},
			{
				"type": "occ",
				"energy": -0.30087,
				"method": "rhf"
			},
			{
				"type": "occ",
				"energy": -0.25793,
				"method": "rhf"
			},
			{
				"type": "occ",
				"energy": -0.23364,
				"method": "rhf"
			},
			{
				"type": "unocc",
				"energy": 0.07409,
				"method": "rhf"
			},
			{
				"type": "unocc",
				"energy": 0.08,
				"method": "rhf"
			},
			{
				"type": "unocc",
				"energy": 0.09577,
				"method": "rhf"
			},
			{
				"type": "unocc",
				"energy": 0.10794,
				"method": "rhf"
			},
			{
				"type": "unocc",
				"energy": 0.12763,
				"method": "rhf"
			}
		],
		"cosmo_sigma_profile": { 
			"-0.025": 0.0,
			"-0.024": 0.0,
			"-0.023": 0.0,
			"-0.022": 0.0,
			"-0.021": 0.0,
			"-0.02": 0.0,
			"-0.019": 0.0,
			"-0.018": 0.0,
			"-0.017": 0.0,
			"-0.016": 0.0,
			"-0.015": 0.0493870859489,
			"-0.014": 0.52523584256,
			"-0.013": 1.34863986401,
			"-0.012": 0.61626082249,
			"-0.011": 0.682229715035,
			"-0.01": 1.48721706587,
			"-0.009": 3.18417850228,
			"-0.008": 3.24377627079,
			"-0.007": 4.13888246196,
			"-0.006": 5.11735054439,
			"-0.005": 4.73946928104,
			"-0.004": 5.55474933245,
			"-0.003": 11.3150721976,
			"-0.002": 23.7196724246,
			"-0.001": 32.0242450573,
			"0.0": 28.0759840807,
			"0.001": 18.0949343418,
			"0.002": 6.19681591973,
			"0.003": 2.84203395641,
			"0.004": 2.4781616754,
			"0.005": 2.32751752214,
			"0.006": 2.61967689622,
			"0.007": 1.91242727258,
			"0.008": 2.14203880896,
			"0.009": 1.15112246087,
			"0.01": 2.7815167677,
			"0.011": 1.80688334645,
			"0.012": 1.85057591799,
			"0.013": 2.36466415152,
			"0.014": 2.93121672851,
			"0.015": 1.7680777643,
			"0.016": 0.575590447192,
			"0.017": 0.40731445204,
			"0.018": 0.472664135194,
			"0.019": 0.55864021734,
			"0.02": 0.33613315866,
			"0.021": 0.0,
			"0.022": 0.0,
			"0.023": 0.0,
			"0.024": 0.0,
			"0.025": 0.0
		}
	}
}
