{
	 "smiles": "FC(F)(F)OC1=CC=C(C=C1)C1=CC=C(O1)C=O", 
	 "Tm": 360.65, 
	 "num_atms": 25, 
	 "gaussian": { 
		 "optdone": 1, 
		 "sigma_profile": "yes", 
		 "theory": "DFT", 
		 "functional": "B3LYP", 
		 "basiset": "6-31G**", 
		 "properties": { 
			 "R2extent": 7562.0109, 
			 "electric_dipole_moment_norm": 2.8685245772, 
			 "electric_quadrupole_moment_norm": 28.5649822034, 
			 "total_energy": -986.664153871, 
			 "HOMO_LUMO_gap": 0.14915, 
			 "cosmo_polarized_energy": -9.58, 
			 "cosmo_cavitation_energy": 32.72, 
			 "cosmo_dispersion_energy": -23.31, 
			 "cosmo_repulsion_energy": 1.71, 
			 "cosmo_total_nonelectrostatic_energy": 11.12, 
			 "SMD_solvation_energy": 8.62 
		},
		"coords": [
			{
				"x": 3.1556736143,
				"y": 1.7416667921,
				"z": -2.6761067052,
				"element": "F" 
			},
			{
				"x": 2.5387095046,
				"y": 1.1780304309,
				"z": -3.7329654622,
				"element": "C" 
			},
			{
				"x": 3.3972798052,
				"y": 1.1271441979,
				"z": -4.7486195964,
				"element": "F" 
			},
			{
				"x": 1.5147169479,
				"y": 1.9839458229,
				"z": -4.0754058251,
				"element": "F" 
			},
			{
				"x": 2.1357642039,
				"y": -0.0933303747,
				"z": -3.4805468057,
				"element": "O" 
			},
			{
				"x": 1.2263286783,
				"y": -0.3781615973,
				"z": -2.4642552767,
				"element": "C" 
			},
			{
				"x": 0.9180918446,
				"y": -1.7340650293,
				"z": -2.3374270383,
				"element": "C" 
			},
			{
				"x": 0.0233958054,
				"y": -2.1474721701,
				"z": -1.3608467923,
				"element": "C" 
			},
			{
				"x": -0.5786005841,
				"y": -1.2159691747,
				"z": -0.4947958582,
				"element": "C" 
			},
			{
				"x": -0.2509935581,
				"y": 0.1415510054,
				"z": -0.6438817686,
				"element": "C" 
			},
			{
				"x": 0.6455927795,
				"y": 0.5691431604,
				"z": -1.620184149,
				"element": "C" 
			},
			{
				"x": -1.5174490957,
				"y": -1.652594991,
				"z": 0.5292512901,
				"element": "C" 
			},
			{
				"x": -2.0106605825,
				"y": -2.8914672767,
				"z": 0.8923705607,
				"element": "C" 
			},
			{
				"x": -2.90036316,
				"y": -2.6767982218,
				"z": 1.9716033031,
				"element": "C" 
			},
			{
				"x": -2.9062446059,
				"y": -1.3233556117,
				"z": 2.2128755498,
				"element": "C" 
			},
			{
				"x": -2.0601271228,
				"y": -0.6967440728,
				"z": 1.3303715885,
				"element": "O" 
			},
			{
				"x": -3.6079942973,
				"y": -0.4944040244,
				"z": 3.1782010494,
				"element": "C" 
			},
			{
				"x": -4.3836980806,
				"y": -0.937812423,
				"z": 4.0093674001,
				"element": "O" 
			},
			{
				"x": 1.3868027486,
				"y": -2.4446606611,
				"z": -3.0092519682,
				"element": "H" 
			},
			{
				"x": -0.2085384753,
				"y": -3.2037353936,
				"z": -1.2716357675,
				"element": "H" 
			},
			{
				"x": -0.7049133385,
				"y": 0.8736549971,
				"z": 0.0143283805,
				"element": "H" 
			},
			{
				"x": 0.8779179585,
				"y": 1.6216325033,
				"z": -1.7104043726,
				"element": "H" 
			},
			{
				"x": -1.761491726,
				"y": -3.8383579779,
				"z": 0.4365180942,
				"element": "H" 
			},
			{
				"x": -3.4754281207,
				"y": -3.4097357516,
				"z": 2.5182044166,
				"element": "H" 
			},
			{
				"x": -3.3807711431,
				"y": 0.5895958414,
				"z": 3.0993357528,
				"element": "H" 
			}
		],
		 "valence_orbital": [ 
			{
				"type": "occ",
				"energy": -0.30435,
				"method": "rhf"
			},
			{
				"type": "occ",
				"energy": -0.28631,
				"method": "rhf"
			},
			{
				"type": "occ",
				"energy": -0.27895,
				"method": "rhf"
			},
			{
				"type": "occ",
				"energy": -0.25811,
				"method": "rhf"
			},
			{
				"type": "occ",
				"energy": -0.2244,
				"method": "rhf"
			},
			{
				"type": "unocc",
				"energy": -0.07525,
				"method": "rhf"
			},
			{
				"type": "unocc",
				"energy": -0.02981,
				"method": "rhf"
			},
			{
				"type": "unocc",
				"energy": -0.02388,
				"method": "rhf"
			},
			{
				"type": "unocc",
				"energy": 0.0513,
				"method": "rhf"
			},
			{
				"type": "unocc",
				"energy": 0.0703,
				"method": "rhf"
			}
		],
		"cosmo_sigma_profile": { 
			"-0.025": 0.0,
			"-0.024": 0.0,
			"-0.023": 0.0,
			"-0.022": 0.0,
			"-0.021": 0.0,
			"-0.02": 0.0,
			"-0.019": 0.0,
			"-0.018": 0.0,
			"-0.017": 0.0,
			"-0.016": 0.0,
			"-0.015": 0.0,
			"-0.014": 0.0,
			"-0.013": 0.0,
			"-0.012": 0.0,
			"-0.011": 0.0,
			"-0.01": 0.183802172893,
			"-0.009": 2.98501190544,
			"-0.008": 5.61401018593,
			"-0.007": 9.73257080965,
			"-0.006": 12.6132609096,
			"-0.005": 12.6224155024,
			"-0.004": 10.6311843653,
			"-0.003": 12.1609828593,
			"-0.002": 12.6548085661,
			"-0.001": 21.3669760184,
			"0.0": 32.8551073596,
			"0.001": 44.2604661039,
			"0.002": 44.5322024147,
			"0.003": 16.7216488391,
			"0.004": 3.77944124743,
			"0.005": 3.15265353758,
			"0.006": 1.62113936532,
			"0.007": 1.01072701457,
			"0.008": 2.20345312895,
			"0.009": 1.76177850058,
			"0.01": 2.26358111036,
			"0.011": 3.72303099462,
			"0.012": 4.27173199715,
			"0.013": 1.66894381539,
			"0.014": 0.137681707948,
			"0.015": 0.0,
			"0.016": 0.0,
			"0.017": 0.0,
			"0.018": 0.0,
			"0.019": 0.0,
			"0.02": 0.0,
			"0.021": 0.0,
			"0.022": 0.0,
			"0.023": 0.0,
			"0.024": 0.0,
			"0.025": 0.0
		}
	}
}
