{
	 "smiles": "OC1=C(Cl)C(=O)C(O)=C(Cl)C1=O", 
	 "Tm": 556.15, 
	 "num_atms": 14, 
	 "gaussian": { 
		 "optdone": 1, 
		 "sigma_profile": "yes", 
		 "theory": "DFT", 
		 "functional": "B3LYP", 
		 "basiset": "6-31G**", 
		 "properties": { 
			 "R2extent": 2689.9935, 
			 "electric_dipole_moment_norm": 0.00238537208838, 
			 "electric_quadrupole_moment_norm": 9.81777048112, 
			 "total_energy": -1451.08873938, 
			 "HOMO_LUMO_gap": 0.1135, 
			 "cosmo_polarized_energy": -11.15, 
			 "cosmo_cavitation_energy": 23.24, 
			 "cosmo_dispersion_energy": -17.83, 
			 "cosmo_repulsion_energy": 1.42, 
			 "cosmo_total_nonelectrostatic_energy": 6.83, 
			 "SMD_solvation_energy": 5.66 
		},
		"coords": [
			{
				"x": -1.3681290638,
				"y": -1.9102720309,
				"z": -1.4096952084,
				"element": "O" 
			},
			{
				"x": -0.8825528561,
				"y": -0.8474001282,
				"z": -0.7922434018,
				"element": "C" 
			},
			{
				"x": -0.1640822271,
				"y": 0.1307046732,
				"z": -1.4024843726,
				"element": "C" 
			},
			{
				"x": 0.2040986586,
				"y": 0.0940273996,
				"z": -3.0931018666,
				"element": "Cl" 
			},
			{
				"x": 0.3119962327,
				"y": 1.2472735105,
				"z": -0.6067219959,
				"element": "C" 
			},
			{
				"x": 0.9698756535,
				"y": 2.1969164508,
				"z": -1.022915334,
				"element": "O" 
			},
			{
				"x": -0.0123640342,
				"y": 1.2772033814,
				"z": 0.8798203403,
				"element": "C" 
			},
			{
				"x": 0.4734616122,
				"y": 2.3399285229,
				"z": 1.4973283377,
				"element": "O" 
			},
			{
				"x": -0.7308141231,
				"y": 0.2990871802,
				"z": 1.4900667688,
				"element": "C" 
			},
			{
				"x": -1.098523078,
				"y": 0.3354875284,
				"z": 3.1807930492,
				"element": "Cl" 
			},
			{
				"x": -1.2073336385,
				"y": -0.81722201,
				"z": 0.6942025257,
				"element": "C" 
			},
			{
				"x": -1.8642756681,
				"y": -1.7674192429,
				"z": 1.110610762,
				"element": "O" 
			},
			{
				"x": -1.8325560461,
				"y": -2.42195019,
				"z": -0.7066904958,
				"element": "H" 
			},
			{
				"x": 0.937498578,
				"y": 2.851834955,
				"z": 0.7942308913,
				"element": "H" 
			}
		],
		 "valence_orbital": [ 
			{
				"type": "occ",
				"energy": -0.33432,
				"method": "rhf"
			},
			{
				"type": "occ",
				"energy": -0.31915,
				"method": "rhf"
			},
			{
				"type": "occ",
				"energy": -0.31443,
				"method": "rhf"
			},
			{
				"type": "occ",
				"energy": -0.28781,
				"method": "rhf"
			},
			{
				"type": "occ",
				"energy": -0.25791,
				"method": "rhf"
			},
			{
				"type": "unocc",
				"energy": -0.14441,
				"method": "rhf"
			},
			{
				"type": "unocc",
				"energy": -0.02253,
				"method": "rhf"
			},
			{
				"type": "unocc",
				"energy": -0.01214,
				"method": "rhf"
			},
			{
				"type": "unocc",
				"energy": 0.00808,
				"method": "rhf"
			},
			{
				"type": "unocc",
				"energy": 0.01282,
				"method": "rhf"
			}
		],
		"cosmo_sigma_profile": { 
			"-0.025": 0.0,
			"-0.024": 0.0,
			"-0.023": 0.0,
			"-0.022": 0.0,
			"-0.021": 0.0,
			"-0.02": 0.0,
			"-0.019": 0.0,
			"-0.018": 0.0,
			"-0.017": 0.0235995983867,
			"-0.016": 0.806889937507,
			"-0.015": 1.27969921357,
			"-0.014": 0.868771066151,
			"-0.013": 1.51425857505,
			"-0.012": 2.13910634724,
			"-0.011": 0.916022279383,
			"-0.01": 2.46366866893,
			"-0.009": 5.41203391321,
			"-0.008": 8.77161390836,
			"-0.007": 6.11122135031,
			"-0.006": 5.35626356751,
			"-0.005": 5.95899126849,
			"-0.004": 8.5134749925,
			"-0.003": 10.122595456,
			"-0.002": 11.3755368759,
			"-0.001": 9.68950799475,
			"0.0": 9.9305249928,
			"0.001": 13.2144569379,
			"0.002": 12.590828305,
			"0.003": 20.2230204018,
			"0.004": 13.9062899263,
			"0.005": 9.17482491131,
			"0.006": 7.75674909149,
			"0.007": 8.87837242138,
			"0.008": 7.55312685531,
			"0.009": 4.30935360611,
			"0.01": 3.27167652747,
			"0.011": 0.308576329854,
			"0.012": 0.0,
			"0.013": 0.0,
			"0.014": 0.0,
			"0.015": 0.0,
			"0.016": 0.0,
			"0.017": 0.0,
			"0.018": 0.0,
			"0.019": 0.0,
			"0.02": 0.0,
			"0.021": 0.0,
			"0.022": 0.0,
			"0.023": 0.0,
			"0.024": 0.0,
			"0.025": 0.0
		}
	}
}
