{
	 "smiles": "CCCCC1C(=O)N(N(C1=O)C1=CC=C(O)C=C1)C1=CC=CC=C1", 
	 "Tm": 397.15, 
	 "num_atms": 44, 
	 "gaussian": { 
		 "optdone": 1, 
		 "sigma_profile": "yes", 
		 "theory": "DFT", 
		 "functional": "B3LYP", 
		 "basiset": "6-31G**", 
		 "properties": { 
			 "R2extent": 9508.871, 
			 "electric_dipole_moment_norm": 2.99735680392, 
			 "electric_quadrupole_moment_norm": 18.5319032366, 
			 "total_energy": -1071.24205477, 
			 "HOMO_LUMO_gap": 0.18124, 
			 "cosmo_polarized_energy": -17.88, 
			 "cosmo_cavitation_energy": 46.83, 
			 "cosmo_dispersion_energy": -32.05, 
			 "cosmo_repulsion_energy": 2.47, 
			 "cosmo_total_nonelectrostatic_energy": 17.25, 
			 "SMD_solvation_energy": 9.05 
		},
		"coords": [
			{
				"x": 1.1355063671,
				"y": 4.4009790625,
				"z": -4.6914779542,
				"element": "C" 
			},
			{
				"x": 0.6171039963,
				"y": 3.6222796394,
				"z": -3.4780898889,
				"element": "C" 
			},
			{
				"x": -0.1743098346,
				"y": 2.3716105498,
				"z": -3.8810593549,
				"element": "C" 
			},
			{
				"x": -0.7501621361,
				"y": 1.5343920067,
				"z": -2.7280030216,
				"element": "C" 
			},
			{
				"x": 0.2953262023,
				"y": 0.7893362097,
				"z": -1.864508626,
				"element": "C" 
			},
			{
				"x": 0.7244455558,
				"y": 1.4839909997,
				"z": -0.5813859964,
				"element": "C" 
			},
			{
				"x": 1.0115409431,
				"y": 2.6536010282,
				"z": -0.4212217939,
				"element": "O" 
			},
			{
				"x": 0.6913589397,
				"y": 0.5328313225,
				"z": 0.4489598837,
				"element": "N" 
			},
			{
				"x": 0.123476265,
				"y": -0.6863281285,
				"z": -0.0306125878,
				"element": "N" 
			},
			{
				"x": -0.1516360638,
				"y": -0.5890023943,
				"z": -1.3960100275,
				"element": "C" 
			},
			{
				"x": -0.6167059014,
				"y": -1.4813551594,
				"z": -2.0769728979,
				"element": "O" 
			},
			{
				"x": 0.5017110028,
				"y": -1.9164070364,
				"z": 0.5971261648,
				"element": "C" 
			},
			{
				"x": -0.3316124105,
				"y": -3.034563411,
				"z": 0.4581149794,
				"element": "C" 
			},
			{
				"x": 0.0283489637,
				"y": -4.2470178939,
				"z": 1.0356997145,
				"element": "C" 
			},
			{
				"x": 1.2098754868,
				"y": -4.3515652218,
				"z": 1.7780435401,
				"element": "C" 
			},
			{
				"x": 1.5000165911,
				"y": -5.5644246471,
				"z": 2.3349670327,
				"element": "O" 
			},
			{
				"x": 2.0332347962,
				"y": -3.2312302379,
				"z": 1.9264373327,
				"element": "C" 
			},
			{
				"x": 1.6853818447,
				"y": -2.0190702033,
				"z": 1.3328026113,
				"element": "C" 
			},
			{
				"x": 0.4406370958,
				"y": 0.9074833593,
				"z": 1.8089222291,
				"element": "C" 
			},
			{
				"x": 1.2960058895,
				"y": 1.8352114134,
				"z": 2.4149580362,
				"element": "C" 
			},
			{
				"x": 1.0577545315,
				"y": 2.2293680161,
				"z": 3.7309152822,
				"element": "C" 
			},
			{
				"x": -0.0099792099,
				"y": 1.6917264261,
				"z": 4.451775612,
				"element": "C" 
			},
			{
				"x": -0.8499999929,
				"y": 0.7583898185,
				"z": 3.8426080831,
				"element": "C" 
			},
			{
				"x": -0.6349058528,
				"y": 0.3658182858,
				"z": 2.5218480339,
				"element": "C" 
			},
			{
				"x": 1.6897917321,
				"y": 5.2936349501,
				"z": -4.3841074898,
				"element": "H" 
			},
			{
				"x": 1.8084877727,
				"y": 3.7868086729,
				"z": -5.3015569875,
				"element": "H" 
			},
			{
				"x": 0.3127993892,
				"y": 4.7272095361,
				"z": -5.3386632945,
				"element": "H" 
			},
			{
				"x": 1.4525111033,
				"y": 3.3464111007,
				"z": -2.8257862756,
				"element": "H" 
			},
			{
				"x": -0.0230478606,
				"y": 4.271072441,
				"z": -2.8667839809,
				"element": "H" 
			},
			{
				"x": 0.4566824453,
				"y": 1.7227301348,
				"z": -4.5062389325,
				"element": "H" 
			},
			{
				"x": -1.0133889647,
				"y": 2.6756483994,
				"z": -4.5215271173,
				"element": "H" 
			},
			{
				"x": -1.3723429467,
				"y": 2.1628563941,
				"z": -2.0800023184,
				"element": "H" 
			},
			{
				"x": -1.4011323346,
				"y": 0.7615130843,
				"z": -3.1510756521,
				"element": "H" 
			},
			{
				"x": 1.1942531855,
				"y": 0.6067065388,
				"z": -2.4720325804,
				"element": "H" 
			},
			{
				"x": -1.2429593904,
				"y": -2.9540145316,
				"z": -0.1200350774,
				"element": "H" 
			},
			{
				"x": -0.6029656664,
				"y": -5.122376501,
				"z": 0.9276553387,
				"element": "H" 
			},
			{
				"x": 2.3373509124,
				"y": -5.5032693668,
				"z": 2.8125107295,
				"element": "H" 
			},
			{
				"x": 2.95271604,
				"y": -3.3014617876,
				"z": 2.5034439118,
				"element": "H" 
			},
			{
				"x": 2.3326899989,
				"y": -1.1575994663,
				"z": 1.4475041995,
				"element": "H" 
			},
			{
				"x": 2.1217535887,
				"y": 2.2508334096,
				"z": 1.8519732796,
				"element": "H" 
			},
			{
				"x": 1.7182548172,
				"y": 2.9560697219,
				"z": 4.1946122974,
				"element": "H" 
			},
			{
				"x": -0.1841031187,
				"y": 1.9948516732,
				"z": 5.4797346466,
				"element": "H" 
			},
			{
				"x": -1.683997668,
				"y": 0.3331185473,
				"z": 4.3931355983,
				"element": "H" 
			},
			{
				"x": -1.2928661045,
				"y": -0.3536967549,
				"z": 2.0494033187,
				"element": "H" 
			}
		],
		 "valence_orbital": [ 
			{
				"type": "occ",
				"energy": -0.26242,
				"method": "rhf"
			},
			{
				"type": "occ",
				"energy": -0.25944,
				"method": "rhf"
			},
			{
				"type": "occ",
				"energy": -0.25365,
				"method": "rhf"
			},
			{
				"type": "occ",
				"energy": -0.23415,
				"method": "rhf"
			},
			{
				"type": "occ",
				"energy": -0.20853,
				"method": "rhf"
			},
			{
				"type": "unocc",
				"energy": -0.02729,
				"method": "rhf"
			},
			{
				"type": "unocc",
				"energy": -0.01365,
				"method": "rhf"
			},
			{
				"type": "unocc",
				"energy": -0.00832,
				"method": "rhf"
			},
			{
				"type": "unocc",
				"energy": -0.00681,
				"method": "rhf"
			},
			{
				"type": "unocc",
				"energy": 0.00534,
				"method": "rhf"
			}
		],
		"cosmo_sigma_profile": { 
			"-0.025": 0.0,
			"-0.024": 0.0,
			"-0.023": 0.0,
			"-0.022": 0.0,
			"-0.021": 0.0,
			"-0.02": 0.0,
			"-0.019": 0.0,
			"-0.018": 0.700013009781,
			"-0.017": 0.955612972332,
			"-0.016": 0.973938943932,
			"-0.015": 1.18616720378,
			"-0.014": 1.39070051277,
			"-0.013": 0.534364768454,
			"-0.012": 0.492293083197,
			"-0.011": 0.900703786112,
			"-0.01": 2.55355328388,
			"-0.009": 4.08815216518,
			"-0.008": 3.92718126754,
			"-0.007": 5.78411854725,
			"-0.006": 16.2232951699,
			"-0.005": 21.1945685583,
			"-0.004": 23.3054495827,
			"-0.003": 25.0643322153,
			"-0.002": 37.9424604411,
			"-0.001": 34.1577792462,
			"0.0": 31.8351521623,
			"0.001": 28.3968379212,
			"0.002": 21.9504647327,
			"0.003": 20.4266294389,
			"0.004": 25.595544329,
			"0.005": 18.6996962034,
			"0.006": 6.69832125685,
			"0.007": 4.17922001969,
			"0.008": 4.79240382193,
			"0.009": 5.79228467088,
			"0.01": 6.29648824383,
			"0.011": 7.88804353701,
			"0.012": 6.19056279201,
			"0.013": 0.53681603266,
			"0.014": 0.0,
			"0.015": 0.0,
			"0.016": 0.0,
			"0.017": 0.0,
			"0.018": 0.0,
			"0.019": 0.0,
			"0.02": 0.0,
			"0.021": 0.0,
			"0.022": 0.0,
			"0.023": 0.0,
			"0.024": 0.0,
			"0.025": 0.0
		}
	}
}
