{
	 "smiles": "OC(=O)CCN1C(=O)OC2=CC=CC=C12", 
	 "Tm": 400.15, 
	 "num_atms": 24, 
	 "gaussian": { 
		 "optdone": 1, 
		 "sigma_profile": "yes", 
		 "theory": "DFT", 
		 "functional": "B3LYP", 
		 "basiset": "6-31G**", 
		 "properties": { 
			 "R2extent": 3254.8404, 
			 "electric_dipole_moment_norm": 4.76997975048, 
			 "electric_quadrupole_moment_norm": 16.2301004248, 
			 "total_energy": -742.171344461, 
			 "HOMO_LUMO_gap": 0.2076, 
			 "cosmo_polarized_energy": -16.43, 
			 "cosmo_cavitation_energy": 28.91, 
			 "cosmo_dispersion_energy": -20.46, 
			 "cosmo_repulsion_energy": 1.6, 
			 "cosmo_total_nonelectrostatic_energy": 10.04, 
			 "SMD_solvation_energy": 7.12 
		},
		"coords": [
			{
				"x": 2.9838736109,
				"y": -1.0005756305,
				"z": -0.2860326568,
				"element": "O" 
			},
			{
				"x": 2.3921614415,
				"y": -2.1518151202,
				"z": 0.1357127433,
				"element": "C" 
			},
			{
				"x": 2.3077302277,
				"y": -3.1307686473,
				"z": -0.5674272236,
				"element": "O" 
			},
			{
				"x": 1.9115108639,
				"y": -2.0479363931,
				"z": 1.5679179605,
				"element": "C" 
			},
			{
				"x": 1.1159658742,
				"y": -0.7754128138,
				"z": 1.9001834773,
				"element": "C" 
			},
			{
				"x": -0.173336791,
				"y": -0.7061862403,
				"z": 1.2271734681,
				"element": "N" 
			},
			{
				"x": -1.2847663593,
				"y": -1.3641657547,
				"z": 1.7320480922,
				"element": "C" 
			},
			{
				"x": -1.3526102228,
				"y": -2.0665269932,
				"z": 2.7110656126,
				"element": "O" 
			},
			{
				"x": -2.3560281541,
				"y": -1.0691989915,
				"z": 0.9018339045,
				"element": "O" 
			},
			{
				"x": -1.9006671444,
				"y": -0.2345007083,
				"z": -0.0960638924,
				"element": "C" 
			},
			{
				"x": -2.6287901871,
				"y": 0.3151906484,
				"z": -1.1328547284,
				"element": "C" 
			},
			{
				"x": -1.9281414372,
				"y": 1.1458885254,
				"z": -2.0203561888,
				"element": "C" 
			},
			{
				"x": -0.5620204504,
				"y": 1.3936158651,
				"z": -1.8534918906,
				"element": "C" 
			},
			{
				"x": 0.165370614,
				"y": 0.8258038286,
				"z": -0.797579617,
				"element": "C" 
			},
			{
				"x": -0.5337370384,
				"y": 0.0066423454,
				"z": 0.0807945399,
				"element": "C" 
			},
			{
				"x": 3.2693561126,
				"y": -1.1664436436,
				"z": -1.2005012023,
				"element": "H" 
			},
			{
				"x": 1.3168130689,
				"y": -2.9357482796,
				"z": 1.7891069365,
				"element": "H" 
			},
			{
				"x": 2.799832778,
				"y": -2.0702828791,
				"z": 2.212292511,
				"element": "H" 
			},
			{
				"x": 0.9183697847,
				"y": -0.7595795028,
				"z": 2.9751565863,
				"element": "H" 
			},
			{
				"x": 1.6852470741,
				"y": 0.1192043207,
				"z": 1.6403975518,
				"element": "H" 
			},
			{
				"x": -3.68738103,
				"y": 0.1106495078,
				"z": -1.2456926009,
				"element": "H" 
			},
			{
				"x": -2.458421711,
				"y": 1.6007234044,
				"z": -2.8507857843,
				"element": "H" 
			},
			{
				"x": -0.0474391547,
				"y": 2.0386495655,
				"z": -2.5589735615,
				"element": "H" 
			},
			{
				"x": 1.2283082299,
				"y": 1.0032735869,
				"z": -0.6819240374,
				"element": "H" 
			}
		],
		 "valence_orbital": [ 
			{
				"type": "occ",
				"energy": -0.31665,
				"method": "rhf"
			},
			{
				"type": "occ",
				"energy": -0.29191,
				"method": "rhf"
			},
			{
				"type": "occ",
				"energy": -0.28582,
				"method": "rhf"
			},
			{
				"type": "occ",
				"energy": -0.25526,
				"method": "rhf"
			},
			{
				"type": "occ",
				"energy": -0.22397,
				"method": "rhf"
			},
			{
				"type": "unocc",
				"energy": -0.01637,
				"method": "rhf"
			},
			{
				"type": "unocc",
				"energy": -0.00769,
				"method": "rhf"
			},
			{
				"type": "unocc",
				"energy": 0.00122,
				"method": "rhf"
			},
			{
				"type": "unocc",
				"energy": 0.04108,
				"method": "rhf"
			},
			{
				"type": "unocc",
				"energy": 0.0604,
				"method": "rhf"
			}
		],
		"cosmo_sigma_profile": { 
			"-0.025": 0.0,
			"-0.024": 0.0,
			"-0.023": 0.0,
			"-0.022": 0.0,
			"-0.021": 0.0,
			"-0.02": 0.0,
			"-0.019": 0.0784229287784,
			"-0.018": 0.713913658982,
			"-0.017": 0.840008553301,
			"-0.016": 0.758637171167,
			"-0.015": 0.974828536333,
			"-0.014": 0.485776733479,
			"-0.013": 0.386166903137,
			"-0.012": 0.853280952893,
			"-0.011": 0.743963598249,
			"-0.01": 0.932084150553,
			"-0.009": 0.428870883456,
			"-0.008": 3.40585567432,
			"-0.007": 10.3033573521,
			"-0.006": 16.4227695689,
			"-0.005": 18.8392991697,
			"-0.004": 20.2751754263,
			"-0.003": 15.9712401276,
			"-0.002": 14.0457444758,
			"-0.001": 13.0501045335,
			"0.0": 12.5911357889,
			"0.001": 12.9224218987,
			"0.002": 11.3855063848,
			"0.003": 11.8485178496,
			"0.004": 12.3603745507,
			"0.005": 8.13504346778,
			"0.006": 4.48273043515,
			"0.007": 5.62587509686,
			"0.008": 5.5718233079,
			"0.009": 4.29200108141,
			"0.01": 4.18134215263,
			"0.011": 7.75952192278,
			"0.012": 8.89187964328,
			"0.013": 1.23182798475,
			"0.014": 0.0,
			"0.015": 0.0,
			"0.016": 0.0,
			"0.017": 0.0,
			"0.018": 0.0,
			"0.019": 0.0,
			"0.02": 0.0,
			"0.021": 0.0,
			"0.022": 0.0,
			"0.023": 0.0,
			"0.024": 0.0,
			"0.025": 0.0
		}
	}
}
