{
	 "smiles": "BrCC1=CC=CC=C1", 
	 "Tm": 270.15, 
	 "num_atms": 15, 
	 "gaussian": { 
		 "optdone": 1, 
		 "sigma_profile": "yes", 
		 "theory": "DFT", 
		 "functional": "B3LYP", 
		 "basiset": "6-31G**", 
		 "properties": { 
			 "R2extent": 2441.5796, 
			 "electric_dipole_moment_norm": 2.37708299813, 
			 "electric_quadrupole_moment_norm": 8.57587721227, 
			 "total_energy": -2842.37358319, 
			 "HOMO_LUMO_gap": 0.21162, 
			 "cosmo_polarized_energy": -5.99, 
			 "cosmo_cavitation_energy": 20.98, 
			 "cosmo_dispersion_energy": -15.77, 
			 "cosmo_repulsion_energy": 1.32, 
			 "cosmo_total_nonelectrostatic_energy": 6.53, 
			 "SMD_solvation_energy": 2.37 
		},
		"coords": [
			{
				"x": 2.2675329238,
				"y": -1.6910305814,
				"z": 1.9054353799,
				"element": "Br" 
			},
			{
				"x": 1.2311186661,
				"y": -0.1820513437,
				"z": 1.0751714456,
				"element": "C" 
			},
			{
				"x": 0.3805368905,
				"y": -0.6355592689,
				"z": -0.0655770929,
				"element": "C" 
			},
			{
				"x": -0.9399741617,
				"y": -1.0526372176,
				"z": 0.1526803307,
				"element": "C" 
			},
			{
				"x": -1.7403263168,
				"y": -1.4591716468,
				"z": -0.9139102041,
				"element": "C" 
			},
			{
				"x": -1.2289444931,
				"y": -1.4553557454,
				"z": -2.2135704535,
				"element": "C" 
			},
			{
				"x": 0.0859625831,
				"y": -1.0431668302,
				"z": -2.4410951038,
				"element": "C" 
			},
			{
				"x": 0.8851486372,
				"y": -0.6369373634,
				"z": -1.373507598,
				"element": "C" 
			},
			{
				"x": 0.6493342502,
				"y": 0.2231006801,
				"z": 1.9010166247,
				"element": "H" 
			},
			{
				"x": 1.9978493714,
				"y": 0.5292604476,
				"z": 0.7738296543,
				"element": "H" 
			},
			{
				"x": -1.3381925859,
				"y": -1.0601958333,
				"z": 1.1640733321,
				"element": "H" 
			},
			{
				"x": -2.7627399786,
				"y": -1.7771272584,
				"z": -0.7315876262,
				"element": "H" 
			},
			{
				"x": -1.8525000935,
				"y": -1.7705809122,
				"z": -3.0451331085,
				"element": "H" 
			},
			{
				"x": 0.4880686513,
				"y": -1.0365614295,
				"z": -3.4500224398,
				"element": "H" 
			},
			{
				"x": 1.9096256559,
				"y": -0.3203856969,
				"z": -1.5518031406,
				"element": "H" 
			}
		],
		 "valence_orbital": [ 
			{
				"type": "occ",
				"energy": -0.34878,
				"method": "rhf"
			},
			{
				"type": "occ",
				"energy": -0.27197,
				"method": "rhf"
			},
			{
				"type": "occ",
				"energy": -0.26885,
				"method": "rhf"
			},
			{
				"type": "occ",
				"energy": -0.25698,
				"method": "rhf"
			},
			{
				"type": "occ",
				"energy": -0.24896,
				"method": "rhf"
			},
			{
				"type": "unocc",
				"energy": -0.03734,
				"method": "rhf"
			},
			{
				"type": "unocc",
				"energy": -0.00873,
				"method": "rhf"
			},
			{
				"type": "unocc",
				"energy": 0.02983,
				"method": "rhf"
			},
			{
				"type": "unocc",
				"energy": 0.08457,
				"method": "rhf"
			},
			{
				"type": "unocc",
				"energy": 0.11284,
				"method": "rhf"
			}
		],
		"cosmo_sigma_profile": { 
			"-0.025": 0.0,
			"-0.024": 0.0,
			"-0.023": 0.0,
			"-0.022": 0.0,
			"-0.021": 0.0,
			"-0.02": 0.0,
			"-0.019": 0.0,
			"-0.018": 0.0,
			"-0.017": 0.0,
			"-0.016": 0.0,
			"-0.015": 0.0,
			"-0.014": 0.0,
			"-0.013": 0.0,
			"-0.012": 0.0,
			"-0.011": 0.0,
			"-0.01": 0.0,
			"-0.009": 0.0,
			"-0.008": 1.20579408576,
			"-0.007": 6.78648959812,
			"-0.006": 13.3516328666,
			"-0.005": 14.0302049727,
			"-0.004": 14.6417415622,
			"-0.003": 11.8599907618,
			"-0.002": 9.14923072775,
			"-0.001": 9.27051332665,
			"0.0": 8.92248716263,
			"0.001": 10.2044711606,
			"0.002": 9.36088977758,
			"0.003": 12.0033677154,
			"0.004": 12.8733122019,
			"0.005": 17.9253032614,
			"0.006": 12.6342139981,
			"0.007": 6.54745044695,
			"0.008": 0.0,
			"0.009": 0.0,
			"0.01": 0.0,
			"0.011": 0.0,
			"0.012": 0.0,
			"0.013": 0.0,
			"0.014": 0.0,
			"0.015": 0.0,
			"0.016": 0.0,
			"0.017": 0.0,
			"0.018": 0.0,
			"0.019": 0.0,
			"0.02": 0.0,
			"0.021": 0.0,
			"0.022": 0.0,
			"0.023": 0.0,
			"0.024": 0.0,
			"0.025": 0.0
		}
	}
}
