{
	 "smiles": "NC1=NC(=O)C=CN1", 
	 "Tm": 543.15, 
	 "num_atms": 13, 
	 "gaussian": { 
		 "optdone": 1, 
		 "sigma_profile": "yes", 
		 "theory": "DFT", 
		 "functional": "B3LYP", 
		 "basiset": "6-31G**", 
		 "properties": { 
			 "R2extent": 1331.1525, 
			 "electric_dipole_moment_norm": 7.86086672829, 
			 "electric_quadrupole_moment_norm": 18.044138026, 
			 "total_energy": -394.916999553, 
			 "HOMO_LUMO_gap": 0.20645, 
			 "cosmo_polarized_energy": -28.71, 
			 "cosmo_cavitation_energy": 17.51, 
			 "cosmo_dispersion_energy": -13.45, 
			 "cosmo_repulsion_energy": 1.14, 
			 "cosmo_total_nonelectrostatic_energy": 5.2, 
			 "SMD_solvation_energy": 2.66 
		},
		"coords": [
			{
				"x": 1.2116304402,
				"y": 0.693900755,
				"z": -0.4599113029,
				"element": "N" 
			},
			{
				"x": 0.5820182224,
				"y": -0.5143516433,
				"z": -0.2196468998,
				"element": "C" 
			},
			{
				"x": 0.3510451263,
				"y": -1.3376225939,
				"z": -1.1919269382,
				"element": "N" 
			},
			{
				"x": -0.3698933538,
				"y": -2.5248691122,
				"z": -0.9534309811,
				"element": "C" 
			},
			{
				"x": -0.6320482587,
				"y": -3.3014428565,
				"z": -1.8608311158,
				"element": "O" 
			},
			{
				"x": -0.7728164966,
				"y": -2.7824314333,
				"z": 0.4438190531,
				"element": "C" 
			},
			{
				"x": -0.4939613647,
				"y": -1.8840753461,
				"z": 1.406384441,
				"element": "C" 
			},
			{
				"x": 0.2010493538,
				"y": -0.7280524439,
				"z": 1.0901515832,
				"element": "N" 
			},
			{
				"x": 1.5717126743,
				"y": 0.7373279072,
				"z": -1.4045606524,
				"element": "H" 
			},
			{
				"x": 1.8752202485,
				"y": 1.0079753512,
				"z": 0.2364876645,
				"element": "H" 
			},
			{
				"x": -1.3029680212,
				"y": -3.7001221428,
				"z": 0.6651263188,
				"element": "H" 
			},
			{
				"x": -0.7708002825,
				"y": -1.9958639097,
				"z": 2.4488686996,
				"element": "H" 
			},
			{
				"x": 0.266311712,
				"y": 0.0224274685,
				"z": 1.76137013,
				"element": "H" 
			}
		],
		 "valence_orbital": [ 
			{
				"type": "occ",
				"energy": -0.34782,
				"method": "rhf"
			},
			{
				"type": "occ",
				"energy": -0.27032,
				"method": "rhf"
			},
			{
				"type": "occ",
				"energy": -0.26107,
				"method": "rhf"
			},
			{
				"type": "occ",
				"energy": -0.23252,
				"method": "rhf"
			},
			{
				"type": "occ",
				"energy": -0.22383,
				"method": "rhf"
			},
			{
				"type": "unocc",
				"energy": -0.01738,
				"method": "rhf"
			},
			{
				"type": "unocc",
				"energy": 0.00212,
				"method": "rhf"
			},
			{
				"type": "unocc",
				"energy": 0.04117,
				"method": "rhf"
			},
			{
				"type": "unocc",
				"energy": 0.08057,
				"method": "rhf"
			},
			{
				"type": "unocc",
				"energy": 0.11981,
				"method": "rhf"
			}
		],
		"cosmo_sigma_profile": { 
			"-0.025": 0.0,
			"-0.024": 0.0,
			"-0.023": 0.0,
			"-0.022": 0.0,
			"-0.021": 0.0,
			"-0.02": 0.0,
			"-0.019": 0.0,
			"-0.018": 0.231292550753,
			"-0.017": 2.84909882813,
			"-0.016": 2.14402691202,
			"-0.015": 2.69639607987,
			"-0.014": 3.19240650945,
			"-0.013": 3.11560001811,
			"-0.012": 3.79144911075,
			"-0.011": 3.13000800861,
			"-0.01": 3.95583485897,
			"-0.009": 4.79587513173,
			"-0.008": 3.65441250075,
			"-0.007": 4.15817116391,
			"-0.006": 4.81080050474,
			"-0.005": 5.2753594583,
			"-0.004": 4.06831871165,
			"-0.003": 3.72399728907,
			"-0.002": 6.4665812995,
			"-0.001": 6.59102852501,
			"0.0": 6.63309301626,
			"0.001": 6.53635469428,
			"0.002": 6.3292524056,
			"0.003": 7.22187738099,
			"0.004": 3.6192775942,
			"0.005": 2.32501326228,
			"0.006": 2.80592374691,
			"0.007": 2.62206758257,
			"0.008": 2.35019412491,
			"0.009": 2.67458182254,
			"0.01": 3.0106798763,
			"0.011": 1.04626965811,
			"0.012": 2.75385781558,
			"0.013": 3.26833867123,
			"0.014": 4.8517723661,
			"0.015": 6.15771905692,
			"0.016": 3.50543467215,
			"0.017": 2.51663580222,
			"0.018": 0.644337709533,
			"0.019": 0.0,
			"0.02": 0.0,
			"0.021": 0.0,
			"0.022": 0.0,
			"0.023": 0.0,
			"0.024": 0.0,
			"0.025": 0.0
		}
	}
}
