{
	 "smiles": "CC(=O)NC1=C(C=CC2=C(C=C(C(C=CC3=CC=CC=C3)=C2)[N+]([O-])=O)[N+]([O-])=O)C=CC=C1", 
	 "Tm": 538.15, 
	 "num_atms": 51, 
	 "gaussian": { 
		 "optdone": 1, 
		 "sigma_profile": "yes", 
		 "theory": "DFT", 
		 "functional": "B3LYP", 
		 "basiset": "6-31G**", 
		 "properties": { 
			 "R2extent": 17810.7226, 
			 "electric_dipole_moment_norm": 10.222424304, 
			 "electric_quadrupole_moment_norm": 21.2047085057, 
			 "total_energy": -1466.17172904, 
			 "HOMO_LUMO_gap": 0.12216, 
			 "cosmo_polarized_energy": -25.15, 
			 "cosmo_cavitation_energy": 57.75, 
			 "cosmo_dispersion_energy": -37.99, 
			 "cosmo_repulsion_energy": 2.76, 
			 "cosmo_total_nonelectrostatic_energy": 22.52, 
			 "SMD_solvation_energy": 14.13 
		},
		"coords": [
			{
				"x": -1.3460781883,
				"y": -0.5883015558,
				"z": 3.3155475725,
				"element": "C" 
			},
			{
				"x": -0.9407329924,
				"y": -1.6095050721,
				"z": 2.262031294,
				"element": "C" 
			},
			{
				"x": 0.21186097,
				"y": -1.7306892441,
				"z": 1.8773887615,
				"element": "O" 
			},
			{
				"x": -1.9903163061,
				"y": -2.3814416719,
				"z": 1.7928493695,
				"element": "N" 
			},
			{
				"x": -1.8992992289,
				"y": -3.5828845837,
				"z": 1.0308917202,
				"element": "C" 
			},
			{
				"x": -1.1972118455,
				"y": -3.6618536597,
				"z": -0.1946630829,
				"element": "C" 
			},
			{
				"x": -0.5239916589,
				"y": -2.4901580903,
				"z": -0.7589660355,
				"element": "C" 
			},
			{
				"x": 0.4674666334,
				"y": -2.5222743669,
				"z": -1.6711218803,
				"element": "C" 
			},
			{
				"x": 1.140991741,
				"y": -1.3117185691,
				"z": -2.1524593721,
				"element": "C" 
			},
			{
				"x": 1.6778935385,
				"y": -1.1436095679,
				"z": -3.4536923326,
				"element": "C" 
			},
			{
				"x": 2.3620352749,
				"y": 0.0106323022,
				"z": -3.81058254,
				"element": "C" 
			},
			{
				"x": 2.5076379218,
				"y": 1.0478789197,
				"z": -2.8994964413,
				"element": "C" 
			},
			{
				"x": 2.0011616335,
				"y": 0.9526389013,
				"z": -1.5767799612,
				"element": "C" 
			},
			{
				"x": 2.1785760254,
				"y": 1.9774950842,
				"z": -0.5448289821,
				"element": "C" 
			},
			{
				"x": 1.3280675476,
				"y": 2.1472528728,
				"z": 0.4902161324,
				"element": "C" 
			},
			{
				"x": 1.4548078841,
				"y": 3.1208123306,
				"z": 1.5761570349,
				"element": "C" 
			},
			{
				"x": 2.6166369063,
				"y": 3.8870228765,
				"z": 1.7953875411,
				"element": "C" 
			},
			{
				"x": 2.6790680225,
				"y": 4.7997960541,
				"z": 2.8430454338,
				"element": "C" 
			},
			{
				"x": 1.587175917,
				"y": 4.9702110454,
				"z": 3.7005882649,
				"element": "C" 
			},
			{
				"x": 0.429755153,
				"y": 4.2164606274,
				"z": 3.5009925357,
				"element": "C" 
			},
			{
				"x": 0.3673648877,
				"y": 3.3019255069,
				"z": 2.451627322,
				"element": "C" 
			},
			{
				"x": 1.3613321221,
				"y": -0.2563867997,
				"z": -1.2512904659,
				"element": "C" 
			},
			{
				"x": 3.188621644,
				"y": 2.2489201324,
				"z": -3.4082980106,
				"element": "N" 
			},
			{
				"x": 3.0513453806,
				"y": 3.3069505648,
				"z": -2.7903291636,
				"element": "O" 
			},
			{
				"x": 3.8475369831,
				"y": 2.1340079617,
				"z": -4.4414496723,
				"element": "O" 
			},
			{
				"x": 1.5177991124,
				"y": -2.1509053259,
				"z": -4.5128302481,
				"element": "N" 
			},
			{
				"x": 0.7351222904,
				"y": -3.0843088099,
				"z": -4.3205308674,
				"element": "O" 
			},
			{
				"x": 2.1679265603,
				"y": -1.9998169204,
				"z": -5.5470130889,
				"element": "O" 
			},
			{
				"x": -1.2072205985,
				"y": -4.8964008827,
				"z": -0.8736646317,
				"element": "C" 
			},
			{
				"x": -1.8841152916,
				"y": -6.0037810616,
				"z": -0.3778091311,
				"element": "C" 
			},
			{
				"x": -2.5839230049,
				"y": -5.9053395424,
				"z": 0.8271979,
				"element": "C" 
			},
			{
				"x": -2.5827655217,
				"y": -4.701484685,
				"z": 1.5242138164,
				"element": "C" 
			},
			{
				"x": -2.3718638699,
				"y": -0.2286796378,
				"z": 3.1898874739,
				"element": "H" 
			},
			{
				"x": -1.2600022273,
				"y": -1.0404194848,
				"z": 4.3100295016,
				"element": "H" 
			},
			{
				"x": -0.6539803751,
				"y": 0.2536282508,
				"z": 3.2717382241,
				"element": "H" 
			},
			{
				"x": -2.8623704674,
				"y": -2.2735490226,
				"z": 2.2927832656,
				"element": "H" 
			},
			{
				"x": -0.8806519402,
				"y": -1.5275155832,
				"z": -0.4091921306,
				"element": "H" 
			},
			{
				"x": 0.8138273488,
				"y": -3.4670053415,
				"z": -2.0690713137,
				"element": "H" 
			},
			{
				"x": 2.7631121172,
				"y": 0.1109334071,
				"z": -4.8090584562,
				"element": "H" 
			},
			{
				"x": 3.0214335065,
				"y": 2.6451430364,
				"z": -0.6622272803,
				"element": "H" 
			},
			{
				"x": 0.4292124817,
				"y": 1.5348243788,
				"z": 0.5319524822,
				"element": "H" 
			},
			{
				"x": 3.4787660948,
				"y": 3.7600693348,
				"z": 1.1485429865,
				"element": "H" 
			},
			{
				"x": 3.5846269645,
				"y": 5.3796142894,
				"z": 2.996058064,
				"element": "H" 
			},
			{
				"x": 1.6415929068,
				"y": 5.6831044341,
				"z": 4.5179901115,
				"element": "H" 
			},
			{
				"x": -0.4238730045,
				"y": 4.3417529808,
				"z": 4.1608681204,
				"element": "H" 
			},
			{
				"x": -0.5396177431,
				"y": 2.7235393556,
				"z": 2.2928141167,
				"element": "H" 
			},
			{
				"x": 1.0819775543,
				"y": -0.4242429939,
				"z": -0.2176970194,
				"element": "H" 
			},
			{
				"x": -0.7065791872,
				"y": -4.9660038405,
				"z": -1.8336674395,
				"element": "H" 
			},
			{
				"x": -1.8809181919,
				"y": -6.9345233386,
				"z": -0.9364501257,
				"element": "H" 
			},
			{
				"x": -3.124016914,
				"y": -6.7594329723,
				"z": 1.2240300014,
				"element": "H" 
			},
			{
				"x": -3.1069045671,
				"y": -4.6223820235,
				"z": 2.4734406264,
				"element": "H" 
			}
		],
		 "valence_orbital": [ 
			{
				"type": "occ",
				"energy": -0.26858,
				"method": "rhf"
			},
			{
				"type": "occ",
				"energy": -0.26309,
				"method": "rhf"
			},
			{
				"type": "occ",
				"energy": -0.25014,
				"method": "rhf"
			},
			{
				"type": "occ",
				"energy": -0.22935,
				"method": "rhf"
			},
			{
				"type": "occ",
				"energy": -0.22669,
				"method": "rhf"
			},
			{
				"type": "unocc",
				"energy": -0.10453,
				"method": "rhf"
			},
			{
				"type": "unocc",
				"energy": -0.08798,
				"method": "rhf"
			},
			{
				"type": "unocc",
				"energy": -0.05635,
				"method": "rhf"
			},
			{
				"type": "unocc",
				"energy": -0.0404,
				"method": "rhf"
			},
			{
				"type": "unocc",
				"energy": -0.0242,
				"method": "rhf"
			}
		],
		"cosmo_sigma_profile": { 
			"-0.025": 0.0,
			"-0.024": 0.0,
			"-0.023": 0.0,
			"-0.022": 0.0,
			"-0.021": 0.0,
			"-0.02": 0.0,
			"-0.019": 0.0,
			"-0.018": 0.0,
			"-0.017": 0.0,
			"-0.016": 0.0322303476477,
			"-0.015": 0.737377883291,
			"-0.014": 1.18902003019,
			"-0.013": 1.17255781833,
			"-0.012": 1.66875897788,
			"-0.011": 1.40734443887,
			"-0.01": 1.69996160448,
			"-0.009": 2.00801291307,
			"-0.008": 4.20924345287,
			"-0.007": 10.8787247939,
			"-0.006": 29.901988778,
			"-0.005": 35.1638241884,
			"-0.004": 36.6270976238,
			"-0.003": 34.3120267679,
			"-0.002": 40.5291127962,
			"-0.001": 33.290392517,
			"0.0": 30.9803311533,
			"0.001": 25.6683905219,
			"0.002": 27.4561404165,
			"0.003": 28.0312012689,
			"0.004": 30.6869661643,
			"0.005": 21.5864253364,
			"0.006": 10.1433797485,
			"0.007": 16.686025591,
			"0.008": 13.4666599509,
			"0.009": 10.1327213501,
			"0.01": 6.01946895065,
			"0.011": 2.37939441423,
			"0.012": 2.12198491803,
			"0.013": 3.01819672275,
			"0.014": 0.79502171871,
			"0.015": 0.0,
			"0.016": 0.0,
			"0.017": 0.0,
			"0.018": 0.0,
			"0.019": 0.0,
			"0.02": 0.0,
			"0.021": 0.0,
			"0.022": 0.0,
			"0.023": 0.0,
			"0.024": 0.0,
			"0.025": 0.0
		}
	}
}
