{
	 "smiles": "C(N1CCCNCCN(CC2=CC=CC=C2)CCCNCC1)C1=CC=CC=C1", 
	 "Tm": 341.15, 
	 "num_atms": 64, 
	 "gaussian": { 
		 "optdone": 1, 
		 "sigma_profile": "yes", 
		 "theory": "DFT", 
		 "functional": "B3LYP", 
		 "basiset": "6-31G**", 
		 "properties": { 
			 "R2extent": 13743.395, 
			 "electric_dipole_moment_norm": 1.13142495553, 
			 "electric_quadrupole_moment_norm": 9.25304549756, 
			 "total_energy": -1155.21677575, 
			 "HOMO_LUMO_gap": 0.19931, 
			 "cosmo_polarized_energy": -12.45, 
			 "cosmo_cavitation_energy": 59.08, 
			 "cosmo_dispersion_energy": -38.18, 
			 "cosmo_repulsion_energy": 2.87, 
			 "cosmo_total_nonelectrostatic_energy": 23.77, 
			 "SMD_solvation_energy": 5.64 
		},
		"coords": [
			{
				"x": 2.1274898936,
				"y": 2.2340605007,
				"z": 1.1970841032,
				"element": "C" 
			},
			{
				"x": 1.0514451418,
				"y": 2.0641475185,
				"z": 0.2200594986,
				"element": "N" 
			},
			{
				"x": 1.5179489053,
				"y": 1.6012889647,
				"z": -1.0966495088,
				"element": "C" 
			},
			{
				"x": 2.2032038776,
				"y": 0.2182103621,
				"z": -1.1503858904,
				"element": "C" 
			},
			{
				"x": 2.2516032791,
				"y": -0.3654473574,
				"z": -2.5741472011,
				"element": "C" 
			},
			{
				"x": 0.9223452591,
				"y": -0.452105791,
				"z": -3.1874737768,
				"element": "N" 
			},
			{
				"x": 0.0377077874,
				"y": -1.4668653408,
				"z": -2.6083252968,
				"element": "C" 
			},
			{
				"x": -1.4305121124,
				"y": -1.2030888361,
				"z": -3.0093118639,
				"element": "C" 
			},
			{
				"x": -2.3686913523,
				"y": -1.3324067706,
				"z": -1.8895299855,
				"element": "N" 
			},
			{
				"x": -2.6065807438,
				"y": -2.729375482,
				"z": -1.5040814081,
				"element": "C" 
			},
			{
				"x": -1.6008881744,
				"y": -3.3060316582,
				"z": -0.5210309834,
				"element": "C" 
			},
			{
				"x": -1.0226770174,
				"y": -4.5599668242,
				"z": -0.7425713151,
				"element": "C" 
			},
			{
				"x": -0.1431390593,
				"y": -5.1180391823,
				"z": 0.1896371228,
				"element": "C" 
			},
			{
				"x": 0.1681273422,
				"y": -4.4220717767,
				"z": 1.3572299217,
				"element": "C" 
			},
			{
				"x": -0.4059319969,
				"y": -3.1675233272,
				"z": 1.5864850853,
				"element": "C" 
			},
			{
				"x": -1.2849026359,
				"y": -2.6113191897,
				"z": 0.6570018181,
				"element": "C" 
			},
			{
				"x": -3.619788717,
				"y": -0.5910074566,
				"z": -2.092949743,
				"element": "C" 
			},
			{
				"x": -4.3242559744,
				"y": -0.1861287557,
				"z": -0.7864824501,
				"element": "C" 
			},
			{
				"x": -3.7939161859,
				"y": 1.05407079,
				"z": -0.0419239379,
				"element": "C" 
			},
			{
				"x": -2.5051505803,
				"y": 0.902062354,
				"z": 0.6501633788,
				"element": "N" 
			},
			{
				"x": -1.3490671813,
				"y": 1.4164776736,
				"z": -0.0900901213,
				"element": "C" 
			},
			{
				"x": -0.0823954338,
				"y": 1.3160347812,
				"z": 0.7693565868,
				"element": "C" 
			},
			{
				"x": 3.1194027389,
				"y": 3.3192118886,
				"z": 0.815808623,
				"element": "C" 
			},
			{
				"x": 2.6703419303,
				"y": 4.5532297896,
				"z": 0.3245554937,
				"element": "C" 
			},
			{
				"x": 3.5754979343,
				"y": 5.5696386036,
				"z": 0.0224819594,
				"element": "C" 
			},
			{
				"x": 4.9463222974,
				"y": 5.3703878227,
				"z": 0.2102906047,
				"element": "C" 
			},
			{
				"x": 5.403429864,
				"y": 4.1455308659,
				"z": 0.6968098564,
				"element": "C" 
			},
			{
				"x": 4.4938319367,
				"y": 3.1271559993,
				"z": 0.9930501285,
				"element": "C" 
			},
			{
				"x": 2.6799514637,
				"y": 1.2985988935,
				"z": 1.4036106407,
				"element": "H" 
			},
			{
				"x": 1.6552794685,
				"y": 2.5162770258,
				"z": 2.1481210101,
				"element": "H" 
			},
			{
				"x": 2.2080294842,
				"y": 2.3581042222,
				"z": -1.4863391134,
				"element": "H" 
			},
			{
				"x": 0.6636342095,
				"y": 1.5875930978,
				"z": -1.7759317361,
				"element": "H" 
			},
			{
				"x": 1.6874189332,
				"y": -0.4849372177,
				"z": -0.4864628339,
				"element": "H" 
			},
			{
				"x": 3.2327193148,
				"y": 0.2809025328,
				"z": -0.7776452292,
				"element": "H" 
			},
			{
				"x": 2.8558476159,
				"y": 0.2929919774,
				"z": -3.2111182955,
				"element": "H" 
			},
			{
				"x": 2.7756863568,
				"y": -1.3389273329,
				"z": -2.5386977272,
				"element": "H" 
			},
			{
				"x": 1.0230077385,
				"y": -0.6074450697,
				"z": -4.1867836368,
				"element": "H" 
			},
			{
				"x": 0.3444896792,
				"y": -2.4986339427,
				"z": -2.853691692,
				"element": "H" 
			},
			{
				"x": 0.0948717459,
				"y": -1.3800193092,
				"z": -1.523452353,
				"element": "H" 
			},
			{
				"x": -1.7244947539,
				"y": -1.8447922755,
				"z": -3.8638681251,
				"element": "H" 
			},
			{
				"x": -1.4712747344,
				"y": -0.166794215,
				"z": -3.3567696687,
				"element": "H" 
			},
			{
				"x": -3.5955469823,
				"y": -2.7834135603,
				"z": -1.0354150328,
				"element": "H" 
			},
			{
				"x": -2.66137748,
				"y": -3.380702627,
				"z": -2.3964707778,
				"element": "H" 
			},
			{
				"x": -1.2611181766,
				"y": -5.1056336765,
				"z": -1.6530801562,
				"element": "H" 
			},
			{
				"x": 0.2995544948,
				"y": -6.0921186928,
				"z": -0.0002627149,
				"element": "H" 
			},
			{
				"x": 0.8529366996,
				"y": -4.8512924516,
				"z": 2.0834224525,
				"element": "H" 
			},
			{
				"x": -0.1688834731,
				"y": -2.6214094536,
				"z": 2.4959445356,
				"element": "H" 
			},
			{
				"x": -1.7235614425,
				"y": -1.6305237754,
				"z": 0.8288627722,
				"element": "H" 
			},
			{
				"x": -3.3847954884,
				"y": 0.3182536328,
				"z": -2.6579618407,
				"element": "H" 
			},
			{
				"x": -4.3310558435,
				"y": -1.1624345359,
				"z": -2.7204274223,
				"element": "H" 
			},
			{
				"x": -4.3459377024,
				"y": -1.0307351372,
				"z": -0.0880244772,
				"element": "H" 
			},
			{
				"x": -5.3721873817,
				"y": 0.0282345209,
				"z": -1.0391918863,
				"element": "H" 
			},
			{
				"x": -3.7750331093,
				"y": 1.9102568177,
				"z": -0.7411010786,
				"element": "H" 
			},
			{
				"x": -4.5440292227,
				"y": 1.3027362892,
				"z": 0.7187069707,
				"element": "H" 
			},
			{
				"x": -2.5612458795,
				"y": 1.4061854837,
				"z": 1.5312782324,
				"element": "H" 
			},
			{
				"x": -1.4762172169,
				"y": 2.4699155844,
				"z": -0.4013283901,
				"element": "H" 
			},
			{
				"x": -1.2449891924,
				"y": 0.8136676162,
				"z": -0.9945010189,
				"element": "H" 
			},
			{
				"x": 0.1404348431,
				"y": 0.2502062123,
				"z": 0.9559492544,
				"element": "H" 
			},
			{
				"x": -0.3027172196,
				"y": 1.7553619447,
				"z": 1.7525765887,
				"element": "H" 
			},
			{
				"x": 1.6046371306,
				"y": 4.6942114716,
				"z": 0.1703232852,
				"element": "H" 
			},
			{
				"x": 3.2123764264,
				"y": 6.5201020383,
				"z": -0.359479359,
				"element": "H" 
			},
			{
				"x": 5.6512862345,
				"y": 6.1629722994,
				"z": -0.0246605045,
				"element": "H" 
			},
			{
				"x": 6.4674741254,
				"y": 3.9784264303,
				"z": 0.8406127808,
				"element": "H" 
			},
			{
				"x": 4.8554283118,
				"y": 2.172185016,
				"z": 1.3679958483,
				"element": "H" 
			}
		],
		 "valence_orbital": [ 
			{
				"type": "occ",
				"energy": -0.23369,
				"method": "rhf"
			},
			{
				"type": "occ",
				"energy": -0.22053,
				"method": "rhf"
			},
			{
				"type": "occ",
				"energy": -0.2155,
				"method": "rhf"
			},
			{
				"type": "occ",
				"energy": -0.20365,
				"method": "rhf"
			},
			{
				"type": "occ",
				"energy": -0.19521,
				"method": "rhf"
			},
			{
				"type": "unocc",
				"energy": 0.0041,
				"method": "rhf"
			},
			{
				"type": "unocc",
				"energy": 0.00498,
				"method": "rhf"
			},
			{
				"type": "unocc",
				"energy": 0.00796,
				"method": "rhf"
			},
			{
				"type": "unocc",
				"energy": 0.00887,
				"method": "rhf"
			},
			{
				"type": "unocc",
				"energy": 0.07997,
				"method": "rhf"
			}
		],
		"cosmo_sigma_profile": { 
			"-0.025": 0.0,
			"-0.024": 0.0,
			"-0.023": 0.0,
			"-0.022": 0.0,
			"-0.021": 0.0,
			"-0.02": 0.0,
			"-0.019": 0.0,
			"-0.018": 0.0,
			"-0.017": 0.0,
			"-0.016": 0.0,
			"-0.015": 0.0,
			"-0.014": 0.0,
			"-0.013": 0.0,
			"-0.012": 0.0,
			"-0.011": 0.0,
			"-0.01": 0.833859659189,
			"-0.009": 2.5361446305,
			"-0.008": 2.95686634823,
			"-0.007": 2.81198841263,
			"-0.006": 4.83842855537,
			"-0.005": 19.0089579107,
			"-0.004": 30.8313089314,
			"-0.003": 42.5128460736,
			"-0.002": 55.5954185706,
			"-0.001": 75.4279338957,
			"0.0": 61.1179235988,
			"0.001": 36.0777449825,
			"0.002": 22.8462157653,
			"0.003": 22.8518441065,
			"0.004": 19.1964242811,
			"0.005": 18.9356449143,
			"0.006": 19.4290664254,
			"0.007": 9.99709234308,
			"0.008": 3.2702229746,
			"0.009": 2.5915815777,
			"0.01": 1.96699459285,
			"0.011": 1.69485075891,
			"0.012": 0.879520780648,
			"0.013": 0.757049940097,
			"0.014": 0.162990501567,
			"0.015": 0.130245754897,
			"0.016": 0.0841160921627,
			"0.017": 0.202386625858,
			"0.018": 0.184784425389,
			"0.019": 0.0399872593032,
			"0.02": 0.0,
			"0.021": 0.0,
			"0.022": 0.0,
			"0.023": 0.0,
			"0.024": 0.0,
			"0.025": 0.0
		}
	}
}
