{
	 "smiles": "BrCC1=CC=C(C=C1)C(=O)NC1=CC=CC=C1", 
	 "Tm": 453.15, 
	 "num_atms": 29, 
	 "gaussian": { 
		 "optdone": 1, 
		 "sigma_profile": "yes", 
		 "theory": "DFT", 
		 "functional": "B3LYP", 
		 "basiset": "6-31G**", 
		 "properties": { 
			 "R2extent": 8520.4312, 
			 "electric_dipole_moment_norm": 4.43496515657, 
			 "electric_quadrupole_moment_norm": 15.6377227524, 
			 "total_energy": -3242.12153619, 
			 "HOMO_LUMO_gap": 0.17252, 
			 "cosmo_polarized_energy": -14.3, 
			 "cosmo_cavitation_energy": 35.87, 
			 "cosmo_dispersion_energy": -25.43, 
			 "cosmo_repulsion_energy": 2.0, 
			 "cosmo_total_nonelectrostatic_energy": 12.44, 
			 "SMD_solvation_energy": 5.34 
		},
		"coords": [
			{
				"x": -1.3011999995,
				"y": -5.56720754,
				"z": 1.4387313162,
				"element": "Br" 
			},
			{
				"x": -0.6112322703,
				"y": -3.8175704821,
				"z": 2.1357903478,
				"element": "C" 
			},
			{
				"x": -0.1477326265,
				"y": -2.9166231085,
				"z": 1.0376138823,
				"element": "C" 
			},
			{
				"x": 1.1878262729,
				"y": -2.9399604609,
				"z": 0.6106090802,
				"element": "C" 
			},
			{
				"x": 1.6207725632,
				"y": -2.0937273503,
				"z": -0.404500377,
				"element": "C" 
			},
			{
				"x": 0.7336370652,
				"y": -1.1852832865,
				"z": -0.9982807966,
				"element": "C" 
			},
			{
				"x": -0.6058556548,
				"y": -1.1672167665,
				"z": -0.583699285,
				"element": "C" 
			},
			{
				"x": -1.0396052635,
				"y": -2.0289411768,
				"z": 0.4197444422,
				"element": "C" 
			},
			{
				"x": 1.254454021,
				"y": -0.360224257,
				"z": -2.1383661388,
				"element": "C" 
			},
			{
				"x": 2.1307808377,
				"y": -0.7938133843,
				"z": -2.8781029738,
				"element": "O" 
			},
			{
				"x": 0.6834952757,
				"y": 0.8742233654,
				"z": -2.402437514,
				"element": "N" 
			},
			{
				"x": 0.0356200842,
				"y": 1.8014644641,
				"z": -1.5460656247,
				"element": "C" 
			},
			{
				"x": 0.3738483385,
				"y": 1.9313385127,
				"z": -0.1915196855,
				"element": "C" 
			},
			{
				"x": -0.2769491889,
				"y": 2.8769525683,
				"z": 0.5998878334,
				"element": "C" 
			},
			{
				"x": -1.2439534574,
				"y": 3.7214144293,
				"z": 0.0507773587,
				"element": "C" 
			},
			{
				"x": -1.5629914036,
				"y": 3.6087947947,
				"z": -1.3037302703,
				"element": "C" 
			},
			{
				"x": -0.9354072089,
				"y": 2.6496196209,
				"z": -2.0971763773,
				"element": "C" 
			},
			{
				"x": 0.1908392736,
				"y": -4.0976054919,
				"z": 2.8161702442,
				"element": "H" 
			},
			{
				"x": -1.4487214588,
				"y": -3.404083377,
				"z": 2.6946962679,
				"element": "H" 
			},
			{
				"x": 1.8859993521,
				"y": -3.6344268402,
				"z": 1.0702142343,
				"element": "H" 
			},
			{
				"x": 2.6454199556,
				"y": -2.1261413238,
				"z": -0.7588637177,
				"element": "H" 
			},
			{
				"x": -1.3120091109,
				"y": -0.4899918508,
				"z": -1.0509122894,
				"element": "H" 
			},
			{
				"x": -2.082541348,
				"y": -2.0180532567,
				"z": 0.7247286176,
				"element": "H" 
			},
			{
				"x": 1.011711389,
				"y": 1.2411275018,
				"z": -3.2883372778,
				"element": "H" 
			},
			{
				"x": 1.1460714271,
				"y": 1.3008115028,
				"z": 0.2346256129,
				"element": "H" 
			},
			{
				"x": -0.009514319,
				"y": 2.9656545844,
				"z": 1.6489011318,
				"element": "H" 
			},
			{
				"x": -1.7385403631,
				"y": 4.4632088285,
				"z": 0.6702359941,
				"element": "H" 
			},
			{
				"x": -2.3103078115,
				"y": 4.2617853754,
				"z": -1.745086532,
				"element": "H" 
			},
			{
				"x": -1.196814371,
				"y": 2.5465744048,
				"z": -3.1467475032,
				"element": "H" 
			}
		],
		 "valence_orbital": [ 
			{
				"type": "occ",
				"energy": -0.26699,
				"method": "rhf"
			},
			{
				"type": "occ",
				"energy": -0.2653,
				"method": "rhf"
			},
			{
				"type": "occ",
				"energy": -0.25884,
				"method": "rhf"
			},
			{
				"type": "occ",
				"energy": -0.24931,
				"method": "rhf"
			},
			{
				"type": "occ",
				"energy": -0.23143,
				"method": "rhf"
			},
			{
				"type": "unocc",
				"energy": -0.05891,
				"method": "rhf"
			},
			{
				"type": "unocc",
				"energy": -0.02054,
				"method": "rhf"
			},
			{
				"type": "unocc",
				"energy": -0.0161,
				"method": "rhf"
			},
			{
				"type": "unocc",
				"energy": -0.00744,
				"method": "rhf"
			},
			{
				"type": "unocc",
				"energy": 0.00932,
				"method": "rhf"
			}
		],
		"cosmo_sigma_profile": { 
			"-0.025": 0.0,
			"-0.024": 0.0,
			"-0.023": 0.0,
			"-0.022": 0.0,
			"-0.021": 0.0,
			"-0.02": 0.0,
			"-0.019": 0.0,
			"-0.018": 0.0,
			"-0.017": 0.0,
			"-0.016": 0.0,
			"-0.015": 0.0517510689827,
			"-0.014": 0.73897903217,
			"-0.013": 0.939549634534,
			"-0.012": 1.2133959992,
			"-0.011": 0.638898665361,
			"-0.01": 1.14857981358,
			"-0.009": 1.26508488579,
			"-0.008": 5.1956176997,
			"-0.007": 10.6439698548,
			"-0.006": 18.4598988901,
			"-0.005": 22.1492376529,
			"-0.004": 23.1136559069,
			"-0.003": 17.9024158986,
			"-0.002": 16.1490843662,
			"-0.001": 18.3468751884,
			"0.0": 17.7099153671,
			"0.001": 16.9241513848,
			"0.002": 20.3380697835,
			"0.003": 24.4065643837,
			"0.004": 20.8734718804,
			"0.005": 16.8019056918,
			"0.006": 14.9111777273,
			"0.007": 4.26015259342,
			"0.008": 1.16174096464,
			"0.009": 1.97733163266,
			"0.01": 1.76107023973,
			"0.011": 1.3223542543,
			"0.012": 3.16711892906,
			"0.013": 5.2821175391,
			"0.014": 1.16159890932,
			"0.015": 0.0,
			"0.016": 0.0,
			"0.017": 0.0,
			"0.018": 0.0,
			"0.019": 0.0,
			"0.02": 0.0,
			"0.021": 0.0,
			"0.022": 0.0,
			"0.023": 0.0,
			"0.024": 0.0,
			"0.025": 0.0
		}
	}
}
