{
	 "smiles": "COC1=CC=C(OC)C2=C1C(=O)C2=O", 
	 "Tm": 464.15, 
	 "num_atms": 22, 
	 "gaussian": { 
		 "optdone": 1, 
		 "sigma_profile": "yes", 
		 "theory": "DFT", 
		 "functional": "B3LYP", 
		 "basiset": "6-31G**", 
		 "properties": { 
			 "R2extent": 3310.6445, 
			 "electric_dipole_moment_norm": 3.51244564798, 
			 "electric_quadrupole_moment_norm": 14.0804688636, 
			 "total_energy": -686.707343349, 
			 "HOMO_LUMO_gap": 0.14495, 
			 "cosmo_polarized_energy": -10.29, 
			 "cosmo_cavitation_energy": 26.88, 
			 "cosmo_dispersion_energy": -19.63, 
			 "cosmo_repulsion_energy": 1.52, 
			 "cosmo_total_nonelectrostatic_energy": 8.77, 
			 "SMD_solvation_energy": 7.41 
		},
		"coords": [
			{
				"x": 2.7384220967,
				"y": -1.7517951265,
				"z": 2.2049767031,
				"element": "C" 
			},
			{
				"x": 1.4329386787,
				"y": -1.1819502867,
				"z": 2.34440352,
				"element": "O" 
			},
			{
				"x": 0.7293021024,
				"y": -0.9487143385,
				"z": 1.2170403268,
				"element": "C" 
			},
			{
				"x": -0.5560487021,
				"y": -0.3869037667,
				"z": 1.3739360699,
				"element": "C" 
			},
			{
				"x": -1.3815611114,
				"y": -0.0985700507,
				"z": 0.2928475242,
				"element": "C" 
			},
			{
				"x": -0.9957931068,
				"y": -0.346142921,
				"z": -1.0421662001,
				"element": "C" 
			},
			{
				"x": -1.8863995223,
				"y": -0.0225232341,
				"z": -2.0026513268,
				"element": "O" 
			},
			{
				"x": -1.5128490012,
				"y": -0.2669731299,
				"z": -3.3624845309,
				"element": "C" 
			},
			{
				"x": 0.2740794746,
				"y": -0.9018698803,
				"z": -1.2099268941,
				"element": "C" 
			},
			{
				"x": 1.1220141927,
				"y": -1.1980860044,
				"z": -0.0994547712,
				"element": "C" 
			},
			{
				"x": 2.2205809195,
				"y": -1.724000262,
				"z": -0.9803964792,
				"element": "C" 
			},
			{
				"x": 3.3230330585,
				"y": -2.1895430777,
				"z": -0.8476926503,
				"element": "O" 
			},
			{
				"x": 1.2820406962,
				"y": -1.3959996967,
				"z": -2.2095975415,
				"element": "C" 
			},
			{
				"x": 1.3702964786,
				"y": -1.5069312535,
				"z": -3.4052752047,
				"element": "O" 
			},
			{
				"x": 3.1252701649,
				"y": -1.8557461887,
				"z": 3.2189228861,
				"element": "H" 
			},
			{
				"x": 2.6922687352,
				"y": -2.7307028329,
				"z": 1.7190734815,
				"element": "H" 
			},
			{
				"x": 3.3931819045,
				"y": -1.1005314188,
				"z": 1.6187797389,
				"element": "H" 
			},
			{
				"x": -0.8971605341,
				"y": -0.1784901521,
				"z": 2.3832916192,
				"element": "H" 
			},
			{
				"x": -2.3627372653,
				"y": 0.3334033019,
				"z": 0.4639702657,
				"element": "H" 
			},
			{
				"x": -1.3190092602,
				"y": -1.3297695918,
				"z": -3.5339149143,
				"element": "H" 
			},
			{
				"x": -2.3603830741,
				"y": 0.0602494743,
				"z": -3.9651084615,
				"element": "H" 
			},
			{
				"x": -0.6180869247,
				"y": 0.3003904368,
				"z": -3.634473161,
				"element": "H" 
			}
		],
		 "valence_orbital": [ 
			{
				"type": "occ",
				"energy": -0.31643,
				"method": "rhf"
			},
			{
				"type": "occ",
				"energy": -0.30918,
				"method": "rhf"
			},
			{
				"type": "occ",
				"energy": -0.28377,
				"method": "rhf"
			},
			{
				"type": "occ",
				"energy": -0.24021,
				"method": "rhf"
			},
			{
				"type": "occ",
				"energy": -0.22757,
				"method": "rhf"
			},
			{
				"type": "unocc",
				"energy": -0.08262,
				"method": "rhf"
			},
			{
				"type": "unocc",
				"energy": -0.06068,
				"method": "rhf"
			},
			{
				"type": "unocc",
				"energy": 0.02867,
				"method": "rhf"
			},
			{
				"type": "unocc",
				"energy": 0.06125,
				"method": "rhf"
			},
			{
				"type": "unocc",
				"energy": 0.08559,
				"method": "rhf"
			}
		],
		"cosmo_sigma_profile": { 
			"-0.025": 0.0,
			"-0.024": 0.0,
			"-0.023": 0.0,
			"-0.022": 0.0,
			"-0.021": 0.0,
			"-0.02": 0.0,
			"-0.019": 0.0,
			"-0.018": 0.0,
			"-0.017": 0.0,
			"-0.016": 0.0,
			"-0.015": 0.0,
			"-0.014": 0.0,
			"-0.013": 0.0,
			"-0.012": 0.0,
			"-0.011": 0.0,
			"-0.01": 0.0,
			"-0.009": 0.0554237360857,
			"-0.008": 2.78120497917,
			"-0.007": 5.78583957311,
			"-0.006": 12.9282642132,
			"-0.005": 19.8617907925,
			"-0.004": 21.9993514874,
			"-0.003": 21.9407168556,
			"-0.002": 15.87801913,
			"-0.001": 14.3458438247,
			"0.0": 17.8484200163,
			"0.001": 15.1709315086,
			"0.002": 9.06010197786,
			"0.003": 7.01638677391,
			"0.004": 5.98219020402,
			"0.005": 6.49116901683,
			"0.006": 5.59910375527,
			"0.007": 5.50932618143,
			"0.008": 7.60817326626,
			"0.009": 7.74058358052,
			"0.01": 7.7313891406,
			"0.011": 4.0451187173,
			"0.012": 0.367022923257,
			"0.013": 0.0,
			"0.014": 0.0,
			"0.015": 0.0,
			"0.016": 0.0,
			"0.017": 0.0,
			"0.018": 0.0,
			"0.019": 0.0,
			"0.02": 0.0,
			"0.021": 0.0,
			"0.022": 0.0,
			"0.023": 0.0,
			"0.024": 0.0,
			"0.025": 0.0
		}
	}
}
