{
	 "smiles": "CC(C)OC1=CC=C(C=C1)C1=CSC(N)=N1", 
	 "Tm": 465.15, 
	 "num_atms": 30, 
	 "gaussian": { 
		 "optdone": 1, 
		 "sigma_profile": "yes", 
		 "theory": "DFT", 
		 "functional": "B3LYP", 
		 "basiset": "6-31G**", 
		 "properties": { 
			 "R2extent": 6471.8599, 
			 "electric_dipole_moment_norm": 2.77311675376, 
			 "electric_quadrupole_moment_norm": 16.4808297789, 
			 "total_energy": -1048.62738429, 
			 "HOMO_LUMO_gap": 0.17051, 
			 "cosmo_polarized_energy": -13.31, 
			 "cosmo_cavitation_energy": 34.85, 
			 "cosmo_dispersion_energy": -25.82, 
			 "cosmo_repulsion_energy": 1.97, 
			 "cosmo_total_nonelectrostatic_energy": 11.0, 
			 "SMD_solvation_energy": 4.57 
		},
		"coords": [
			{
				"x": -2.6199345877,
				"y": 3.0506564208,
				"z": 1.6853215442,
				"element": "C" 
			},
			{
				"x": -3.6156628767,
				"y": 1.8906497237,
				"z": 1.6878513747,
				"element": "C" 
			},
			{
				"x": -4.3701728683,
				"y": 1.7632409341,
				"z": 0.3644305137,
				"element": "C" 
			},
			{
				"x": -3.001025702,
				"y": 0.6406326207,
				"z": 2.0923713816,
				"element": "O" 
			},
			{
				"x": -2.0051988399,
				"y": 0.0964644612,
				"z": 1.3098553669,
				"element": "C" 
			},
			{
				"x": -0.6605786985,
				"y": 0.3830030154,
				"z": 1.5805594609,
				"element": "C" 
			},
			{
				"x": 0.3493400216,
				"y": -0.2293336021,
				"z": 0.8456199456,
				"element": "C" 
			},
			{
				"x": 0.050100254,
				"y": -1.1463096263,
				"z": -0.176610973,
				"element": "C" 
			},
			{
				"x": -1.3008662474,
				"y": -1.4390184604,
				"z": -0.4259038309,
				"element": "C" 
			},
			{
				"x": -2.3155347532,
				"y": -0.8295643735,
				"z": 0.3080582159,
				"element": "C" 
			},
			{
				"x": 1.1036127672,
				"y": -1.8050880405,
				"z": -0.9717830475,
				"element": "C" 
			},
			{
				"x": 2.4527457488,
				"y": -1.5976568651,
				"z": -0.8658482681,
				"element": "C" 
			},
			{
				"x": 3.3213253594,
				"y": -2.59787479,
				"z": -2.001753541,
				"element": "S" 
			},
			{
				"x": 1.7596453629,
				"y": -3.2167610229,
				"z": -2.559020408,
				"element": "C" 
			},
			{
				"x": 1.6889345599,
				"y": -4.202515738,
				"z": -3.5186013811,
				"element": "N" 
			},
			{
				"x": 0.7277463995,
				"y": -2.7244069074,
				"z": -1.9445841923,
				"element": "N" 
			},
			{
				"x": -3.145751605,
				"y": 3.9936304058,
				"z": 1.5023983715,
				"element": "H" 
			},
			{
				"x": -1.8651314318,
				"y": 2.928197505,
				"z": 0.9024712271,
				"element": "H" 
			},
			{
				"x": -2.1103252653,
				"y": 3.1252099203,
				"z": 2.6503472112,
				"element": "H" 
			},
			{
				"x": -4.3427416016,
				"y": 2.0557939093,
				"z": 2.4903298162,
				"element": "H" 
			},
			{
				"x": -3.6855021365,
				"y": 1.5902263724,
				"z": -0.4714840061,
				"element": "H" 
			},
			{
				"x": -4.9251003498,
				"y": 2.685122807,
				"z": 0.1609786015,
				"element": "H" 
			},
			{
				"x": -5.0846321544,
				"y": 0.9359909459,
				"z": 0.4048283045,
				"element": "H" 
			},
			{
				"x": -0.4196224593,
				"y": 1.0735057585,
				"z": 2.3819026151,
				"element": "H" 
			},
			{
				"x": 1.3829397178,
				"y": 0.0061314307,
				"z": 1.0811956705,
				"element": "H" 
			},
			{
				"x": -1.5408323627,
				"y": -2.1575080374,
				"z": -1.2012604262,
				"element": "H" 
			},
			{
				"x": -3.3554178629,
				"y": -1.0778699021,
				"z": 0.1229654558,
				"element": "H" 
			},
			{
				"x": 2.993015679,
				"y": -0.9290311044,
				"z": -0.2134191317,
				"element": "H" 
			},
			{
				"x": 0.7517002737,
				"y": -4.3320841299,
				"z": -3.8772240773,
				"element": "H" 
			},
			{
				"x": 2.4013256594,
				"y": -4.1923336308,
				"z": -4.2345917937,
				"element": "H" 
			}
		],
		 "valence_orbital": [ 
			{
				"type": "occ",
				"energy": -0.27219,
				"method": "rhf"
			},
			{
				"type": "occ",
				"energy": -0.26019,
				"method": "rhf"
			},
			{
				"type": "occ",
				"energy": -0.24553,
				"method": "rhf"
			},
			{
				"type": "occ",
				"energy": -0.23775,
				"method": "rhf"
			},
			{
				"type": "occ",
				"energy": -0.19536,
				"method": "rhf"
			},
			{
				"type": "unocc",
				"energy": -0.02485,
				"method": "rhf"
			},
			{
				"type": "unocc",
				"energy": 0.00355,
				"method": "rhf"
			},
			{
				"type": "unocc",
				"energy": 0.01104,
				"method": "rhf"
			},
			{
				"type": "unocc",
				"energy": 0.0205,
				"method": "rhf"
			},
			{
				"type": "unocc",
				"energy": 0.07078,
				"method": "rhf"
			}
		],
		"cosmo_sigma_profile": { 
			"-0.025": 0.0,
			"-0.024": 0.0,
			"-0.023": 0.0,
			"-0.022": 0.0,
			"-0.021": 0.0,
			"-0.02": 0.0,
			"-0.019": 0.0,
			"-0.018": 0.0,
			"-0.017": 0.0,
			"-0.016": 0.0,
			"-0.015": 0.313529073025,
			"-0.014": 1.62541823713,
			"-0.013": 2.69104333048,
			"-0.012": 3.17851200936,
			"-0.011": 2.2805113989,
			"-0.01": 2.44786024338,
			"-0.009": 3.19001575644,
			"-0.008": 4.59789466869,
			"-0.007": 3.90517055535,
			"-0.006": 6.09595952774,
			"-0.005": 8.29177233657,
			"-0.004": 17.2341039272,
			"-0.003": 24.9883653992,
			"-0.002": 24.9273502562,
			"-0.001": 19.7985889484,
			"0.0": 25.9443257085,
			"0.001": 21.0547565743,
			"0.002": 15.5850570083,
			"0.003": 19.3351017889,
			"0.004": 26.4052434396,
			"0.005": 18.5601061953,
			"0.006": 5.85938818687,
			"0.007": 3.89775448956,
			"0.008": 2.66183311609,
			"0.009": 3.84079461156,
			"0.01": 4.04246501584,
			"0.011": 2.94798107189,
			"0.012": 2.21729261617,
			"0.013": 0.304880554261,
			"0.014": 0.0,
			"0.015": 0.0,
			"0.016": 0.0,
			"0.017": 0.0,
			"0.018": 0.0,
			"0.019": 0.0,
			"0.02": 0.0,
			"0.021": 0.0,
			"0.022": 0.0,
			"0.023": 0.0,
			"0.024": 0.0,
			"0.025": 0.0
		}
	}
}
