{
	 "smiles": "CC1=NC(=CC(=O)N1)C1=CC=C(NC(=O)OCC(F)(F)F)C=C1", 
	 "Tm": 520.15, 
	 "num_atms": 35, 
	 "gaussian": { 
		 "optdone": 1, 
		 "sigma_profile": "yes", 
		 "theory": "DFT", 
		 "functional": "B3LYP", 
		 "basiset": "6-31G**", 
		 "properties": { 
			 "R2extent": 13257.0825, 
			 "electric_dipole_moment_norm": 4.19028077818, 
			 "electric_quadrupole_moment_norm": 27.0361012202, 
			 "total_energy": -1230.22302595, 
			 "HOMO_LUMO_gap": 0.15902, 
			 "cosmo_polarized_energy": -22.22, 
			 "cosmo_cavitation_energy": 42.34, 
			 "cosmo_dispersion_energy": -29.68, 
			 "cosmo_repulsion_energy": 2.18, 
			 "cosmo_total_nonelectrostatic_energy": 14.85, 
			 "SMD_solvation_energy": 9.22 
		},
		"coords": [
			{
				"x": -2.2069326601,
				"y": 0.7840671336,
				"z": -5.1169936896,
				"element": "C" 
			},
			{
				"x": -1.431497485,
				"y": -0.1820523032,
				"z": -4.2651827983,
				"element": "C" 
			},
			{
				"x": -1.0548113791,
				"y": 0.1562201305,
				"z": -3.0660976578,
				"element": "N" 
			},
			{
				"x": -0.3422103465,
				"y": -0.771742407,
				"z": -2.3209651124,
				"element": "C" 
			},
			{
				"x": -0.0513733044,
				"y": -2.0252967107,
				"z": -2.8002596501,
				"element": "C" 
			},
			{
				"x": -0.4467645292,
				"y": -2.4287697657,
				"z": -4.1292960147,
				"element": "C" 
			},
			{
				"x": -0.2469423433,
				"y": -3.5023832476,
				"z": -4.6826575334,
				"element": "O" 
			},
			{
				"x": -1.1494751389,
				"y": -1.4011407185,
				"z": -4.8071969976,
				"element": "N" 
			},
			{
				"x": 0.0625944421,
				"y": -0.3103860122,
				"z": -0.9723610826,
				"element": "C" 
			},
			{
				"x": -0.4987288685,
				"y": 0.8583322427,
				"z": -0.4322105701,
				"element": "C" 
			},
			{
				"x": -0.1504134617,
				"y": 1.2971089035,
				"z": 0.8376138418,
				"element": "C" 
			},
			{
				"x": 0.7845218836,
				"y": 0.5917903538,
				"z": 1.6115864713,
				"element": "C" 
			},
			{
				"x": 1.1062816851,
				"y": 1.1366390683,
				"z": 2.8737459635,
				"element": "N" 
			},
			{
				"x": 1.692654651,
				"y": 0.609121842,
				"z": 3.994831305,
				"element": "C" 
			},
			{
				"x": 1.9273744317,
				"y": 1.2604044768,
				"z": 4.9926940491,
				"element": "O" 
			},
			{
				"x": 1.943009045,
				"y": -0.7256822989,
				"z": 3.8636160889,
				"element": "O" 
			},
			{
				"x": 2.7038048931,
				"y": -1.3283537096,
				"z": 4.9038106307,
				"element": "C" 
			},
			{
				"x": 4.1106800658,
				"y": -1.5864788465,
				"z": 4.3929870676,
				"element": "C" 
			},
			{
				"x": 4.0998584517,
				"y": -2.3648101782,
				"z": 3.2900538678,
				"element": "F" 
			},
			{
				"x": 4.7382781291,
				"y": -0.440072892,
				"z": 4.0751841548,
				"element": "F" 
			},
			{
				"x": 4.830044165,
				"y": -2.2179251726,
				"z": 5.3416833246,
				"element": "F" 
			},
			{
				"x": 1.3759910511,
				"y": -0.5627250232,
				"z": 1.0743252992,
				"element": "C" 
			},
			{
				"x": 1.0085289314,
				"y": -0.9976151767,
				"z": -0.1940024436,
				"element": "C" 
			},
			{
				"x": -2.3595199698,
				"y": 1.7067419288,
				"z": -4.5583596493,
				"element": "H" 
			},
			{
				"x": -1.6657380106,
				"y": 1.0114281782,
				"z": -6.0423190832,
				"element": "H" 
			},
			{
				"x": -3.1813306929,
				"y": 0.3667168003,
				"z": -5.3947297934,
				"element": "H" 
			},
			{
				"x": 0.4699142578,
				"y": -2.7692409553,
				"z": -2.2126191907,
				"element": "H" 
			},
			{
				"x": -1.4529169589,
				"y": -1.6357658247,
				"z": -5.7452666015,
				"element": "H" 
			},
			{
				"x": -1.2177538715,
				"y": 1.4117342606,
				"z": -1.0239505551,
				"element": "H" 
			},
			{
				"x": -0.6110913493,
				"y": 2.1955599736,
				"z": 1.2413956202,
				"element": "H" 
			},
			{
				"x": 0.8299080705,
				"y": 2.0966105559,
				"z": 3.0265935129,
				"element": "H" 
			},
			{
				"x": 2.7457269476,
				"y": -0.6785746582,
				"z": 5.7793046863,
				"element": "H" 
			},
			{
				"x": 2.2360870675,
				"y": -2.2828182303,
				"z": 5.15262003,
				"element": "H" 
			},
			{
				"x": 2.1209744347,
				"y": -1.1093921747,
				"z": 1.6343880567,
				"element": "H" 
			},
			{
				"x": 1.4994677657,
				"y": -1.8808495426,
				"z": -0.5887655468,
				"element": "H" 
			}
		],
		 "valence_orbital": [ 
			{
				"type": "occ",
				"energy": -0.28064,
				"method": "rhf"
			},
			{
				"type": "occ",
				"energy": -0.26316,
				"method": "rhf"
			},
			{
				"type": "occ",
				"energy": -0.25504,
				"method": "rhf"
			},
			{
				"type": "occ",
				"energy": -0.24581,
				"method": "rhf"
			},
			{
				"type": "occ",
				"energy": -0.22075,
				"method": "rhf"
			},
			{
				"type": "unocc",
				"energy": -0.06173,
				"method": "rhf"
			},
			{
				"type": "unocc",
				"energy": -0.01765,
				"method": "rhf"
			},
			{
				"type": "unocc",
				"energy": -0.00613,
				"method": "rhf"
			},
			{
				"type": "unocc",
				"energy": 0.01482,
				"method": "rhf"
			},
			{
				"type": "unocc",
				"energy": 0.05177,
				"method": "rhf"
			}
		],
		"cosmo_sigma_profile": { 
			"-0.025": 0.0,
			"-0.024": 0.0,
			"-0.023": 0.0,
			"-0.022": 0.0,
			"-0.021": 0.0,
			"-0.02": 0.0,
			"-0.019": 0.0,
			"-0.018": 0.0,
			"-0.017": 0.000979875273722,
			"-0.016": 1.21753288573,
			"-0.015": 1.93839279347,
			"-0.014": 3.00175575389,
			"-0.013": 1.91948339444,
			"-0.012": 2.34268043069,
			"-0.011": 2.23919373006,
			"-0.01": 2.76653496238,
			"-0.009": 5.81320329044,
			"-0.008": 8.41625834448,
			"-0.007": 11.5864862818,
			"-0.006": 14.8279279308,
			"-0.005": 14.8282707259,
			"-0.004": 15.2147513486,
			"-0.003": 19.2486641308,
			"-0.002": 24.4760325825,
			"-0.001": 22.5720625242,
			"0.0": 21.0422804363,
			"0.001": 25.1239385792,
			"0.002": 43.3330289168,
			"0.003": 30.8114621144,
			"0.004": 18.0773911447,
			"0.005": 6.39038088114,
			"0.006": 4.69639621618,
			"0.007": 2.73922826732,
			"0.008": 4.45360426455,
			"0.009": 4.32645804465,
			"0.01": 3.92434239259,
			"0.011": 4.77066703846,
			"0.012": 5.59646129597,
			"0.013": 4.68806568545,
			"0.014": 5.52181500552,
			"0.015": 1.19300789222,
			"0.016": 0.00860197513098,
			"0.017": 0.0,
			"0.018": 0.0,
			"0.019": 0.0,
			"0.02": 0.0,
			"0.021": 0.0,
			"0.022": 0.0,
			"0.023": 0.0,
			"0.024": 0.0,
			"0.025": 0.0
		}
	}
}
