{
	 "smiles": "CN(C)CC1=CC=C(C=C1)C(O)=O", 
	 "Tm": 513.15, 
	 "num_atms": 26, 
	 "gaussian": { 
		 "optdone": 1, 
		 "sigma_profile": "yes", 
		 "theory": "DFT", 
		 "functional": "B3LYP", 
		 "basiset": "6-31G**", 
		 "properties": { 
			 "R2extent": 3281.3263, 
			 "electric_dipole_moment_norm": 1.72566643938, 
			 "electric_quadrupole_moment_norm": 8.82595965037, 
			 "total_energy": -594.107873012, 
			 "HOMO_LUMO_gap": 0.16271, 
			 "cosmo_polarized_energy": -10.26, 
			 "cosmo_cavitation_energy": 29.17, 
			 "cosmo_dispersion_energy": -20.8, 
			 "cosmo_repulsion_energy": 1.64, 
			 "cosmo_total_nonelectrostatic_energy": 10.01, 
			 "SMD_solvation_energy": 3.76 
		},
		"coords": [
			{
				"x": 1.8973246763,
				"y": 3.5716257085,
				"z": -0.0880278865,
				"element": "C" 
			},
			{
				"x": 1.8132757174,
				"y": 3.0622126883,
				"z": -1.4490308933,
				"element": "N" 
			},
			{
				"x": 0.5832217689,
				"y": 3.462923325,
				"z": -2.1166317653,
				"element": "C" 
			},
			{
				"x": 2.1311285219,
				"y": 1.6348484551,
				"z": -1.5783362127,
				"element": "C" 
			},
			{
				"x": 1.1717905204,
				"y": 0.6609921343,
				"z": -0.9047131041,
				"element": "C" 
			},
			{
				"x": 1.3644646331,
				"y": 0.2673487464,
				"z": 0.4282023912,
				"element": "C" 
			},
			{
				"x": 0.4689454977,
				"y": -0.5893198123,
				"z": 1.063625824,
				"element": "C" 
			},
			{
				"x": -0.6467949231,
				"y": -1.0743939265,
				"z": 0.3676169573,
				"element": "C" 
			},
			{
				"x": -0.8468280292,
				"y": -0.6955180488,
				"z": -0.9666348249,
				"element": "C" 
			},
			{
				"x": 0.0542527846,
				"y": 0.1605585674,
				"z": -1.5912882822,
				"element": "C" 
			},
			{
				"x": -1.634732622,
				"y": -1.9928949123,
				"z": 0.9891105387,
				"element": "C" 
			},
			{
				"x": -1.3423324201,
				"y": -2.2966499462,
				"z": 2.279945516,
				"element": "O" 
			},
			{
				"x": -2.6151004144,
				"y": -2.4445874421,
				"z": 0.4296668785,
				"element": "O" 
			},
			{
				"x": 1.1140845291,
				"y": 3.1885997996,
				"z": 0.590453944,
				"element": "H" 
			},
			{
				"x": 1.8157703122,
				"y": 4.6637324781,
				"z": -0.1086022305,
				"element": "H" 
			},
			{
				"x": 2.8720126924,
				"y": 3.3160400435,
				"z": 0.3420409678,
				"element": "H" 
			},
			{
				"x": 0.6036618142,
				"y": 3.1282749383,
				"z": -3.1596116717,
				"element": "H" 
			},
			{
				"x": 0.5153096032,
				"y": 4.5561494369,
				"z": -2.1163866738,
				"element": "H" 
			},
			{
				"x": -0.3370865252,
				"y": 3.0685595096,
				"z": -1.649875345,
				"element": "H" 
			},
			{
				"x": 2.1792519974,
				"y": 1.4076322138,
				"z": -2.6501241803,
				"element": "H" 
			},
			{
				"x": 3.1382839513,
				"y": 1.4871048319,
				"z": -1.1702693936,
				"element": "H" 
			},
			{
				"x": 2.2344120915,
				"y": 0.62862917,
				"z": 0.9706738204,
				"element": "H" 
			},
			{
				"x": 0.6311170191,
				"y": -0.8897389863,
				"z": 2.0926942277,
				"element": "H" 
			},
			{
				"x": -1.7097699057,
				"y": -1.0882468968,
				"z": -1.4940491639,
				"element": "H" 
			},
			{
				"x": -0.102328285,
				"y": 0.4378981261,
				"z": -2.6305802815,
				"element": "H" 
			},
			{
				"x": -2.0488350061,
				"y": -2.8947802015,
				"z": 2.5736308438,
				"element": "H" 
			}
		],
		 "valence_orbital": [ 
			{
				"type": "occ",
				"energy": -0.31687,
				"method": "rhf"
			},
			{
				"type": "occ",
				"energy": -0.27508,
				"method": "rhf"
			},
			{
				"type": "occ",
				"energy": -0.25995,
				"method": "rhf"
			},
			{
				"type": "occ",
				"energy": -0.2568,
				"method": "rhf"
			},
			{
				"type": "occ",
				"energy": -0.2108,
				"method": "rhf"
			},
			{
				"type": "unocc",
				"energy": -0.04809,
				"method": "rhf"
			},
			{
				"type": "unocc",
				"energy": -0.01032,
				"method": "rhf"
			},
			{
				"type": "unocc",
				"energy": 0.05357,
				"method": "rhf"
			},
			{
				"type": "unocc",
				"energy": 0.0766,
				"method": "rhf"
			},
			{
				"type": "unocc",
				"energy": 0.08407,
				"method": "rhf"
			}
		],
		"cosmo_sigma_profile": { 
			"-0.025": 0.0,
			"-0.024": 0.0,
			"-0.023": 0.0,
			"-0.022": 0.0,
			"-0.021": 0.0,
			"-0.02": 0.0,
			"-0.019": 0.0355458092463,
			"-0.018": 0.690047219899,
			"-0.017": 0.995951697024,
			"-0.016": 0.743348143004,
			"-0.015": 0.831844937168,
			"-0.014": 0.847306435085,
			"-0.013": 0.619704562653,
			"-0.012": 0.14556525692,
			"-0.011": 0.703587632151,
			"-0.01": 1.04959094444,
			"-0.009": 0.542511853454,
			"-0.008": 0.660606929994,
			"-0.007": 0.802949282679,
			"-0.006": 4.87102244119,
			"-0.005": 13.3955233915,
			"-0.004": 21.0721183344,
			"-0.003": 19.0843277564,
			"-0.002": 20.5802919479,
			"-0.001": 25.0660094202,
			"0.0": 28.5836285255,
			"0.001": 17.1981564467,
			"0.002": 12.8499834255,
			"0.003": 14.0100108332,
			"0.004": 13.3595554074,
			"0.005": 3.75120901588,
			"0.006": 3.67483222022,
			"0.007": 3.73564369021,
			"0.008": 3.76955218222,
			"0.009": 2.46460386224,
			"0.01": 2.16402264123,
			"0.011": 3.65438274455,
			"0.012": 5.35235303759,
			"0.013": 1.14932083399,
			"0.014": 0.363681685673,
			"0.015": 0.461208592038,
			"0.016": 0.224781129464,
			"0.017": 0.0,
			"0.018": 0.0,
			"0.019": 0.0,
			"0.02": 0.0,
			"0.021": 0.0,
			"0.022": 0.0,
			"0.023": 0.0,
			"0.024": 0.0,
			"0.025": 0.0
		}
	}
}
