{
	 "smiles": "NC1=C(C=C(F)C=C1)[N+]([O-])=O", 
	 "Tm": 371.15, 
	 "num_atms": 16, 
	 "gaussian": { 
		 "optdone": 1, 
		 "sigma_profile": "yes", 
		 "theory": "DFT", 
		 "functional": "B3LYP", 
		 "basiset": "6-31G**", 
		 "properties": { 
			 "R2extent": 1993.2806, 
			 "electric_dipole_moment_norm": 4.8542862019, 
			 "electric_quadrupole_moment_norm": 7.18706107947, 
			 "total_energy": -591.340289577, 
			 "HOMO_LUMO_gap": 0.13504, 
			 "cosmo_polarized_energy": -11.2, 
			 "cosmo_cavitation_energy": 21.2, 
			 "cosmo_dispersion_energy": -15.99, 
			 "cosmo_repulsion_energy": 1.25, 
			 "cosmo_total_nonelectrostatic_energy": 6.46, 
			 "SMD_solvation_energy": 6.21 
		},
		"coords": [
			{
				"x": -0.4137299992,
				"y": 0.6970382921,
				"z": 1.5699950022,
				"element": "N" 
			},
			{
				"x": -0.5118358437,
				"y": 0.0239222421,
				"z": 0.393816788,
				"element": "C" 
			},
			{
				"x": -0.4820885848,
				"y": 0.6446790129,
				"z": -0.8862488486,
				"element": "C" 
			},
			{
				"x": -0.6137204128,
				"y": -0.1011919998,
				"z": -2.0712980226,
				"element": "C" 
			},
			{
				"x": -0.7720070451,
				"y": -1.4639162301,
				"z": -1.9951027721,
				"element": "C" 
			},
			{
				"x": -0.8987506382,
				"y": -2.1917526042,
				"z": -3.1244745784,
				"element": "F" 
			},
			{
				"x": -0.8026174147,
				"y": -2.1199971419,
				"z": -0.7583708236,
				"element": "C" 
			},
			{
				"x": -0.6752891537,
				"y": -1.3867508335,
				"z": 0.4044898226,
				"element": "C" 
			},
			{
				"x": -0.3053171535,
				"y": 2.07493103,
				"z": -1.039677451,
				"element": "N" 
			},
			{
				"x": -0.2947364619,
				"y": 2.5464248857,
				"z": -2.1769708199,
				"element": "O" 
			},
			{
				"x": -0.1681580937,
				"y": 2.7756815797,
				"z": -0.0186372618,
				"element": "O" 
			},
			{
				"x": -0.2214372253,
				"y": 1.6875064942,
				"z": 1.5371681594,
				"element": "H" 
			},
			{
				"x": -0.3365740571,
				"y": 0.1808834083,
				"z": 2.4300421551,
				"element": "H" 
			},
			{
				"x": -0.5860360938,
				"y": 0.4113682304,
				"z": -3.0232475563,
				"element": "H" 
			},
			{
				"x": -0.9269038218,
				"y": -3.197302734,
				"z": -0.7289438899,
				"element": "H" 
			},
			{
				"x": -0.7025980007,
				"y": -1.892423632,
				"z": 1.3653600967,
				"element": "H" 
			}
		],
		 "valence_orbital": [ 
			{
				"type": "occ",
				"energy": -0.30793,
				"method": "rhf"
			},
			{
				"type": "occ",
				"energy": -0.30572,
				"method": "rhf"
			},
			{
				"type": "occ",
				"energy": -0.28895,
				"method": "rhf"
			},
			{
				"type": "occ",
				"energy": -0.28537,
				"method": "rhf"
			},
			{
				"type": "occ",
				"energy": -0.22275,
				"method": "rhf"
			},
			{
				"type": "unocc",
				"energy": -0.08771,
				"method": "rhf"
			},
			{
				"type": "unocc",
				"energy": -0.01227,
				"method": "rhf"
			},
			{
				"type": "unocc",
				"energy": 0.00938,
				"method": "rhf"
			},
			{
				"type": "unocc",
				"energy": 0.06959,
				"method": "rhf"
			},
			{
				"type": "unocc",
				"energy": 0.08137,
				"method": "rhf"
			}
		],
		"cosmo_sigma_profile": { 
			"-0.025": 0.0,
			"-0.024": 0.0,
			"-0.023": 0.0,
			"-0.022": 0.0,
			"-0.021": 0.0,
			"-0.02": 0.0,
			"-0.019": 0.0,
			"-0.018": 0.0,
			"-0.017": 0.0,
			"-0.016": 0.0,
			"-0.015": 0.62212020344,
			"-0.014": 1.51582831695,
			"-0.013": 1.59107939042,
			"-0.012": 1.58504401481,
			"-0.011": 1.69896801274,
			"-0.01": 2.22161284624,
			"-0.009": 3.30663079532,
			"-0.008": 5.41560031219,
			"-0.007": 5.14774791531,
			"-0.006": 6.24020061707,
			"-0.005": 5.39823021182,
			"-0.004": 7.02402767934,
			"-0.003": 7.08060965563,
			"-0.002": 8.59517442754,
			"-0.001": 10.9239416201,
			"0.0": 17.7425906689,
			"0.001": 21.3943610017,
			"0.002": 11.4212907399,
			"0.003": 7.14699474013,
			"0.004": 13.5315687084,
			"0.005": 5.44525985275,
			"0.006": 3.6263727263,
			"0.007": 3.64097070307,
			"0.008": 6.56740848064,
			"0.009": 4.82683217723,
			"0.01": 4.02521096687,
			"0.011": 2.51364385011,
			"0.012": 0.0788673900955,
			"0.013": 0.0,
			"0.014": 0.0,
			"0.015": 0.0,
			"0.016": 0.0,
			"0.017": 0.0,
			"0.018": 0.0,
			"0.019": 0.0,
			"0.02": 0.0,
			"0.021": 0.0,
			"0.022": 0.0,
			"0.023": 0.0,
			"0.024": 0.0,
			"0.025": 0.0
		}
	}
}
