{
	 "smiles": "NC(=O)C(Cl)C1=CC=C(Br)C=C1", 
	 "Tm": 438.15, 
	 "num_atms": 19, 
	 "gaussian": { 
		 "optdone": 1, 
		 "sigma_profile": "yes", 
		 "theory": "DFT", 
		 "functional": "B3LYP", 
		 "basiset": "6-31G**", 
		 "properties": { 
			 "R2extent": 5916.9338, 
			 "electric_dipole_moment_norm": 2.10656539656, 
			 "electric_quadrupole_moment_norm": 15.2833002061, 
			 "total_energy": -3470.65974139, 
			 "HOMO_LUMO_gap": 0.20263, 
			 "cosmo_polarized_energy": -13.11, 
			 "cosmo_cavitation_energy": 27.66, 
			 "cosmo_dispersion_energy": -20.36, 
			 "cosmo_repulsion_energy": 1.66, 
			 "cosmo_total_nonelectrostatic_energy": 8.96, 
			 "SMD_solvation_energy": 4.03 
		},
		"coords": [
			{
				"x": -0.5768853122,
				"y": 1.7202215934,
				"z": 1.6306372389,
				"element": "N" 
			},
			{
				"x": -1.3381732245,
				"y": 1.0431594386,
				"z": 0.731823765,
				"element": "C" 
			},
			{
				"x": -2.4987132314,
				"y": 0.7170452241,
				"z": 0.9201436798,
				"element": "O" 
			},
			{
				"x": -0.6670239246,
				"y": 0.5901388148,
				"z": -0.5791023766,
				"element": "C" 
			},
			{
				"x": 0.8029907252,
				"y": 1.6279137834,
				"z": -1.0348761625,
				"element": "Cl" 
			},
			{
				"x": -0.2938114788,
				"y": -0.8705905793,
				"z": -0.5629921783,
				"element": "C" 
			},
			{
				"x": 0.4120172816,
				"y": -1.430609246,
				"z": 0.5104537973,
				"element": "C" 
			},
			{
				"x": 0.754863187,
				"y": -2.7800449769,
				"z": 0.5103318427,
				"element": "C" 
			},
			{
				"x": 0.3874866809,
				"y": -3.5758398018,
				"z": -0.5752761105,
				"element": "C" 
			},
			{
				"x": 0.8544047736,
				"y": -5.4269549456,
				"z": -0.5809944092,
				"element": "Br" 
			},
			{
				"x": -0.3156359437,
				"y": -3.0427256435,
				"z": -1.6532820491,
				"element": "C" 
			},
			{
				"x": -0.6514882608,
				"y": -1.6893283453,
				"z": -1.6396110167,
				"element": "C" 
			},
			{
				"x": 0.3062100499,
				"y": 2.1246300017,
				"z": 1.3588440269,
				"element": "H" 
			},
			{
				"x": -1.0420265266,
				"y": 2.0640493841,
				"z": 2.4578326622,
				"element": "H" 
			},
			{
				"x": -1.3888096911,
				"y": 0.7859972069,
				"z": -1.3706407114,
				"element": "H" 
			},
			{
				"x": 0.6937718449,
				"y": -0.8099157074,
				"z": 1.3555339059,
				"element": "H" 
			},
			{
				"x": 1.298385579,
				"y": -3.2112261527,
				"z": 1.3430436623,
				"element": "H" 
			},
			{
				"x": -0.5975674316,
				"y": -3.673277842,
				"z": -2.4884832581,
				"element": "H" 
			},
			{
				"x": -1.1999950967,
				"y": -1.2696422065,
				"z": -2.4781863087,
				"element": "H" 
			}
		],
		 "valence_orbital": [ 
			{
				"type": "occ",
				"energy": -0.29295,
				"method": "rhf"
			},
			{
				"type": "occ",
				"energy": -0.28394,
				"method": "rhf"
			},
			{
				"type": "occ",
				"energy": -0.2731,
				"method": "rhf"
			},
			{
				"type": "occ",
				"energy": -0.26483,
				"method": "rhf"
			},
			{
				"type": "occ",
				"energy": -0.2489,
				"method": "rhf"
			},
			{
				"type": "unocc",
				"energy": -0.04627,
				"method": "rhf"
			},
			{
				"type": "unocc",
				"energy": -0.02445,
				"method": "rhf"
			},
			{
				"type": "unocc",
				"energy": -0.00015,
				"method": "rhf"
			},
			{
				"type": "unocc",
				"energy": 0.01188,
				"method": "rhf"
			},
			{
				"type": "unocc",
				"energy": 0.02552,
				"method": "rhf"
			}
		],
		"cosmo_sigma_profile": { 
			"-0.025": 0.0,
			"-0.024": 0.0,
			"-0.023": 0.0,
			"-0.022": 0.0,
			"-0.021": 0.0,
			"-0.02": 0.0,
			"-0.019": 0.0,
			"-0.018": 0.0,
			"-0.017": 0.0,
			"-0.016": 0.0,
			"-0.015": 0.678600891703,
			"-0.014": 1.36911865196,
			"-0.013": 1.4638355899,
			"-0.012": 2.17150215291,
			"-0.011": 2.32878112721,
			"-0.01": 2.3848666477,
			"-0.009": 3.93218175999,
			"-0.008": 5.74918885641,
			"-0.007": 9.23461910858,
			"-0.006": 11.2250206626,
			"-0.005": 10.1708616673,
			"-0.004": 10.5041560201,
			"-0.003": 9.67764602288,
			"-0.002": 10.1151815499,
			"-0.001": 13.2137607186,
			"0.0": 14.5438350319,
			"0.001": 18.2124567122,
			"0.002": 23.7536577255,
			"0.003": 23.4949926945,
			"0.004": 18.9100498479,
			"0.005": 10.9253528751,
			"0.006": 5.35343971949,
			"0.007": 1.50553906236,
			"0.008": 0.692336522254,
			"0.009": 1.36335408331,
			"0.01": 1.59380451088,
			"0.011": 1.59849955169,
			"0.012": 3.57517399182,
			"0.013": 5.6590273183,
			"0.014": 0.945529100008,
			"0.015": 0.0,
			"0.016": 0.0,
			"0.017": 0.0,
			"0.018": 0.0,
			"0.019": 0.0,
			"0.02": 0.0,
			"0.021": 0.0,
			"0.022": 0.0,
			"0.023": 0.0,
			"0.024": 0.0,
			"0.025": 0.0
		}
	}
}
