{
	 "smiles": "ClCC1=NN=C(O1)C1=C(Cl)C=C(Cl)C=C1", 
	 "Tm": 361.15, 
	 "num_atms": 20, 
	 "gaussian": { 
		 "optdone": 1, 
		 "sigma_profile": "yes", 
		 "theory": "DFT", 
		 "functional": "B3LYP", 
		 "basiset": "6-31G**", 
		 "properties": { 
			 "R2extent": 7500.5292, 
			 "electric_dipole_moment_norm": 1.77681793665, 
			 "electric_quadrupole_moment_norm": 12.1474208139, 
			 "total_energy": -1911.24210541, 
			 "HOMO_LUMO_gap": 0.17773, 
			 "cosmo_polarized_energy": -10.68, 
			 "cosmo_cavitation_energy": 31.18, 
			 "cosmo_dispersion_energy": -22.97, 
			 "cosmo_repulsion_energy": 1.81, 
			 "cosmo_total_nonelectrostatic_energy": 10.02, 
			 "SMD_solvation_energy": 2.91 
		},
		"coords": [
			{
				"x": -3.2883814604,
				"y": 4.3506751218,
				"z": 0.2246625455,
				"element": "Cl" 
			},
			{
				"x": -4.0965981847,
				"y": 2.7338475792,
				"z": 0.005990863,
				"element": "C" 
			},
			{
				"x": -3.1273648224,
				"y": 1.6173244115,
				"z": 0.0246163244,
				"element": "C" 
			},
			{
				"x": -2.9608028855,
				"y": 0.722548676,
				"z": 0.949371926,
				"element": "N" 
			},
			{
				"x": -1.9502910726,
				"y": -0.1125047958,
				"z": 0.5058748126,
				"element": "N" 
			},
			{
				"x": -1.5703737097,
				"y": 0.3408269817,
				"z": -0.6597228247,
				"element": "C" 
			},
			{
				"x": -2.2831768995,
				"y": 1.4399767709,
				"z": -1.028254459,
				"element": "O" 
			},
			{
				"x": -0.5046229773,
				"y": -0.223300532,
				"z": -1.4867462157,
				"element": "C" 
			},
			{
				"x": -0.1797505788,
				"y": 0.151839364,
				"z": -2.804952555,
				"element": "C" 
			},
			{
				"x": -1.0513597043,
				"y": 1.3905663417,
				"z": -3.6832592036,
				"element": "Cl" 
			},
			{
				"x": 0.8663708831,
				"y": -0.4692876097,
				"z": -3.4906161646,
				"element": "C" 
			},
			{
				"x": 1.59619473,
				"y": -1.4751262557,
				"z": -2.8652353001,
				"element": "C" 
			},
			{
				"x": 2.9054019311,
				"y": -2.2452194304,
				"z": -3.7329718035,
				"element": "Cl" 
			},
			{
				"x": 1.2978294702,
				"y": -1.8760081485,
				"z": -1.5614345898,
				"element": "C" 
			},
			{
				"x": 0.2587684258,
				"y": -1.2492856446,
				"z": -0.8917751195,
				"element": "C" 
			},
			{
				"x": -4.6303404289,
				"y": 2.7837545638,
				"z": -0.9434533788,
				"element": "H" 
			},
			{
				"x": -4.7956686151,
				"y": 2.6033569559,
				"z": 0.8300423951,
				"element": "H" 
			},
			{
				"x": 1.099926778,
				"y": -0.1660017136,
				"z": -4.5034066102,
				"element": "H" 
			},
			{
				"x": 1.8720918027,
				"y": -2.660673195,
				"z": -1.0831855723,
				"element": "H" 
			},
			{
				"x": 0.0082473183,
				"y": -1.5407094413,
				"z": 0.1219549302,
				"element": "H" 
			}
		],
		 "valence_orbital": [ 
			{
				"type": "occ",
				"energy": -0.31319,
				"method": "rhf"
			},
			{
				"type": "occ",
				"energy": -0.30791,
				"method": "rhf"
			},
			{
				"type": "occ",
				"energy": -0.29349,
				"method": "rhf"
			},
			{
				"type": "occ",
				"energy": -0.27701,
				"method": "rhf"
			},
			{
				"type": "occ",
				"energy": -0.25487,
				"method": "rhf"
			},
			{
				"type": "unocc",
				"energy": -0.07714,
				"method": "rhf"
			},
			{
				"type": "unocc",
				"energy": -0.04093,
				"method": "rhf"
			},
			{
				"type": "unocc",
				"energy": -0.033,
				"method": "rhf"
			},
			{
				"type": "unocc",
				"energy": -0.00535,
				"method": "rhf"
			},
			{
				"type": "unocc",
				"energy": 0.02807,
				"method": "rhf"
			}
		],
		"cosmo_sigma_profile": { 
			"-0.025": 0.0,
			"-0.024": 0.0,
			"-0.023": 0.0,
			"-0.022": 0.0,
			"-0.021": 0.0,
			"-0.02": 0.0,
			"-0.019": 0.0,
			"-0.018": 0.0,
			"-0.017": 0.0,
			"-0.016": 0.0,
			"-0.015": 0.0,
			"-0.014": 0.0,
			"-0.013": 0.0,
			"-0.012": 0.0,
			"-0.011": 0.17934849369,
			"-0.01": 3.85310973146,
			"-0.009": 5.65689041987,
			"-0.008": 8.10381533992,
			"-0.007": 9.5260890586,
			"-0.006": 9.59063639627,
			"-0.005": 10.0578673331,
			"-0.004": 9.82349617189,
			"-0.003": 13.4531575726,
			"-0.002": 16.392986331,
			"-0.001": 24.9060000597,
			"0.0": 30.8547555129,
			"0.001": 20.9818835143,
			"0.002": 18.3308004837,
			"0.003": 23.3664244696,
			"0.004": 20.3428597444,
			"0.005": 12.6225416877,
			"0.006": 3.56500801329,
			"0.007": 2.2310857331,
			"0.008": 2.34744362486,
			"0.009": 1.97092896358,
			"0.01": 3.23626297005,
			"0.011": 2.89846258825,
			"0.012": 2.42082626721,
			"0.013": 1.45278796153,
			"0.014": 0.579962382996,
			"0.015": 0.00401688338097,
			"0.016": 0.0,
			"0.017": 0.0,
			"0.018": 0.0,
			"0.019": 0.0,
			"0.02": 0.0,
			"0.021": 0.0,
			"0.022": 0.0,
			"0.023": 0.0,
			"0.024": 0.0,
			"0.025": 0.0
		}
	}
}
