{
	 "smiles": "O=C1OC(=NC1=CC1=CC=C(O1)C1=CC=CC=C1)C1=CC=CC=C1", 
	 "Tm": 415.15, 
	 "num_atms": 37, 
	 "gaussian": { 
		 "optdone": 1, 
		 "sigma_profile": "yes", 
		 "theory": "DFT", 
		 "functional": "B3LYP", 
		 "basiset": "6-31G**", 
		 "properties": { 
			 "R2extent": 12945.1849, 
			 "electric_dipole_moment_norm": 1.95801689727, 
			 "electric_quadrupole_moment_norm": 22.4099680163, 
			 "total_energy": -1050.38003166, 
			 "HOMO_LUMO_gap": 0.10573, 
			 "cosmo_polarized_energy": -13.73, 
			 "cosmo_cavitation_energy": 43.3, 
			 "cosmo_dispersion_energy": -31.38, 
			 "cosmo_repulsion_energy": 2.3, 
			 "cosmo_total_nonelectrostatic_energy": 14.22, 
			 "SMD_solvation_energy": 6.97 
		},
		"coords": [
			{
				"x": -1.4708824172,
				"y": -0.741095259,
				"z": -1.5038128304,
				"element": "O" 
			},
			{
				"x": -1.6805615726,
				"y": 0.1400442351,
				"z": -0.7108909263,
				"element": "C" 
			},
			{
				"x": -2.7924150216,
				"y": 0.9927058919,
				"z": -0.8519273988,
				"element": "O" 
			},
			{
				"x": -2.7407842788,
				"y": 1.8743314172,
				"z": 0.202504776,
				"element": "C" 
			},
			{
				"x": -1.7458632171,
				"y": 1.7140547296,
				"z": 1.0143416469,
				"element": "N" 
			},
			{
				"x": -1.0128416899,
				"y": 0.6340553435,
				"z": 0.5183142487,
				"element": "C" 
			},
			{
				"x": 0.1187508233,
				"y": 0.1993073042,
				"z": 1.155155039,
				"element": "C" 
			},
			{
				"x": 1.0223813637,
				"y": -0.8518563954,
				"z": 0.8628509989,
				"element": "C" 
			},
			{
				"x": 2.1632489483,
				"y": -1.2586511998,
				"z": 1.5409300422,
				"element": "C" 
			},
			{
				"x": 2.6969359275,
				"y": -2.3530205432,
				"z": 0.8292479936,
				"element": "C" 
			},
			{
				"x": 1.8599864616,
				"y": -2.5680068305,
				"z": -0.252472486,
				"element": "C" 
			},
			{
				"x": 0.8506097754,
				"y": -1.6590318011,
				"z": -0.227457509,
				"element": "O" 
			},
			{
				"x": 1.8533597901,
				"y": -3.5242834749,
				"z": -1.3474864995,
				"element": "C" 
			},
			{
				"x": 2.8608475698,
				"y": -4.501325914,
				"z": -1.4517701509,
				"element": "C" 
			},
			{
				"x": 2.8493079694,
				"y": -5.4136522764,
				"z": -2.5019728485,
				"element": "C" 
			},
			{
				"x": 1.8352991263,
				"y": -5.3667532085,
				"z": -3.4631830238,
				"element": "C" 
			},
			{
				"x": 0.8320986166,
				"y": -4.399417072,
				"z": -3.365521042,
				"element": "C" 
			},
			{
				"x": 0.8338285411,
				"y": -3.4812614786,
				"z": -2.3184453194,
				"element": "C" 
			},
			{
				"x": -3.7940739394,
				"y": 2.8780731266,
				"z": 0.2917118811,
				"element": "C" 
			},
			{
				"x": -4.8189864838,
				"y": 2.9355710556,
				"z": -0.6668113437,
				"element": "C" 
			},
			{
				"x": -5.8152843741,
				"y": 3.9039038092,
				"z": -0.5607737269,
				"element": "C" 
			},
			{
				"x": -5.7980151998,
				"y": 4.8174110276,
				"z": 0.4954545511,
				"element": "C" 
			},
			{
				"x": -4.7779428094,
				"y": 4.7620236514,
				"z": 1.4514905247,
				"element": "C" 
			},
			{
				"x": -3.7794988187,
				"y": 3.7992313993,
				"z": 1.3539140657,
				"element": "C" 
			},
			{
				"x": 0.3723664289,
				"y": 0.7625609072,
				"z": 2.0496488159,
				"element": "H" 
			},
			{
				"x": 2.5531069272,
				"y": -0.8087427722,
				"z": 2.443197469,
				"element": "H" 
			},
			{
				"x": 3.5843681232,
				"y": -2.9172730059,
				"z": 1.0745622247,
				"element": "H" 
			},
			{
				"x": 3.6525205855,
				"y": -4.545413008,
				"z": -0.7097749134,
				"element": "H" 
			},
			{
				"x": 3.6323110242,
				"y": -6.1631104187,
				"z": -2.5717462531,
				"element": "H" 
			},
			{
				"x": 1.8284470186,
				"y": -6.0800080356,
				"z": -4.2821971124,
				"element": "H" 
			},
			{
				"x": 0.0419501938,
				"y": -4.3585405294,
				"z": -4.1095212324,
				"element": "H" 
			},
			{
				"x": 0.0557633951,
				"y": -2.7288453339,
				"z": -2.2401269809,
				"element": "H" 
			},
			{
				"x": -4.8255984719,
				"y": 2.2228506438,
				"z": -1.483991406,
				"element": "H" 
			},
			{
				"x": -6.6062511744,
				"y": 3.9454522656,
				"z": -1.3036735514,
				"element": "H" 
			},
			{
				"x": -6.5763398596,
				"y": 5.5708739061,
				"z": 0.5748669558,
				"element": "H" 
			},
			{
				"x": -4.763828754,
				"y": 5.4720568799,
				"z": 2.2731262438,
				"element": "H" 
			},
			{
				"x": -2.9808205272,
				"y": 3.7409809632,
				"z": 2.0855390778,
				"element": "H" 
			}
		],
		 "valence_orbital": [ 
			{
				"type": "occ",
				"energy": -0.26471,
				"method": "rhf"
			},
			{
				"type": "occ",
				"energy": -0.25913,
				"method": "rhf"
			},
			{
				"type": "occ",
				"energy": -0.25458,
				"method": "rhf"
			},
			{
				"type": "occ",
				"energy": -0.24551,
				"method": "rhf"
			},
			{
				"type": "occ",
				"energy": -0.19591,
				"method": "rhf"
			},
			{
				"type": "unocc",
				"energy": -0.09018,
				"method": "rhf"
			},
			{
				"type": "unocc",
				"energy": -0.03487,
				"method": "rhf"
			},
			{
				"type": "unocc",
				"energy": -0.02042,
				"method": "rhf"
			},
			{
				"type": "unocc",
				"energy": -0.00767,
				"method": "rhf"
			},
			{
				"type": "unocc",
				"energy": -0.00364,
				"method": "rhf"
			}
		],
		"cosmo_sigma_profile": { 
			"-0.025": 0.0,
			"-0.024": 0.0,
			"-0.023": 0.0,
			"-0.022": 0.0,
			"-0.021": 0.0,
			"-0.02": 0.0,
			"-0.019": 0.0,
			"-0.018": 0.0,
			"-0.017": 0.0,
			"-0.016": 0.0,
			"-0.015": 0.0,
			"-0.014": 0.0,
			"-0.013": 0.0,
			"-0.012": 0.0,
			"-0.011": 0.0,
			"-0.01": 0.0,
			"-0.009": 2.93154982208,
			"-0.008": 7.45708297072,
			"-0.007": 7.39522465149,
			"-0.006": 21.1903879431,
			"-0.005": 24.5706499998,
			"-0.004": 25.9381675583,
			"-0.003": 20.5755888718,
			"-0.002": 18.626219694,
			"-0.001": 21.1904907322,
			"0.0": 32.6000642463,
			"0.001": 36.0408720747,
			"0.002": 32.3252166605,
			"0.003": 30.369736733,
			"0.004": 27.7218336292,
			"0.005": 13.1827411834,
			"0.006": 4.79895922657,
			"0.007": 4.85421584123,
			"0.008": 5.95481482785,
			"0.009": 5.25787403268,
			"0.01": 2.82957538522,
			"0.011": 2.42231020979,
			"0.012": 2.43028174691,
			"0.013": 0.00333673221397,
			"0.014": 0.0,
			"0.015": 0.0,
			"0.016": 0.0,
			"0.017": 0.0,
			"0.018": 0.0,
			"0.019": 0.0,
			"0.02": 0.0,
			"0.021": 0.0,
			"0.022": 0.0,
			"0.023": 0.0,
			"0.024": 0.0,
			"0.025": 0.0
		}
	}
}
