{
	 "smiles": "CN1C2=C(NC(=O)N2)C(=O)N(C)C1=O", 
	 "Tm": 687.15, 
	 "num_atms": 22, 
	 "gaussian": { 
		 "optdone": 1, 
		 "sigma_profile": "yes", 
		 "theory": "DFT", 
		 "functional": "B3LYP", 
		 "basiset": "6-31G**", 
		 "properties": { 
			 "R2extent": 4010.3756, 
			 "electric_dipole_moment_norm": 3.34864021507, 
			 "electric_quadrupole_moment_norm": 19.5540532215, 
			 "total_energy": -716.298383046, 
			 "HOMO_LUMO_gap": 0.18153, 
			 "cosmo_polarized_energy": -22.24, 
			 "cosmo_cavitation_energy": 26.34, 
			 "cosmo_dispersion_energy": -19.78, 
			 "cosmo_repulsion_energy": 1.53, 
			 "cosmo_total_nonelectrostatic_energy": 8.1, 
			 "SMD_solvation_energy": 6.74 
		},
		"coords": [
			{
				"x": -0.8490956587,
				"y": -1.5853398211,
				"z": 2.7752168379,
				"element": "C" 
			},
			{
				"x": -0.3960446695,
				"y": -0.4034887492,
				"z": 2.0478757203,
				"element": "N" 
			},
			{
				"x": -0.9703011794,
				"y": 0.8222867551,
				"z": 2.2359502137,
				"element": "C" 
			},
			{
				"x": -0.5757814244,
				"y": 1.9501482656,
				"z": 1.5756430347,
				"element": "C" 
			},
			{
				"x": -1.3881041148,
				"y": 2.9955906302,
				"z": 2.0272980342,
				"element": "N" 
			},
			{
				"x": -2.2942329703,
				"y": 2.5455645434,
				"z": 2.9669111476,
				"element": "C" 
			},
			{
				"x": -3.1528426642,
				"y": 3.1497177376,
				"z": 3.5793148971,
				"element": "O" 
			},
			{
				"x": -2.0016356199,
				"y": 1.1562395918,
				"z": 3.0771166839,
				"element": "N" 
			},
			{
				"x": 0.4839133841,
				"y": 1.945827164,
				"z": 0.6198749077,
				"element": "C" 
			},
			{
				"x": 0.8936943532,
				"y": 2.9131761681,
				"z": -0.0113880643,
				"element": "O" 
			},
			{
				"x": 1.0466329364,
				"y": 0.6397144317,
				"z": 0.4636409035,
				"element": "N" 
			},
			{
				"x": 2.1502001917,
				"y": 0.4836472834,
				"z": -0.4915011223,
				"element": "C" 
			},
			{
				"x": 0.6631660512,
				"y": -0.5250750326,
				"z": 1.1245797056,
				"element": "C" 
			},
			{
				"x": 1.207038721,
				"y": -1.6009949933,
				"z": 0.9220026019,
				"element": "O" 
			},
			{
				"x": -1.8996630143,
				"y": -1.7975258119,
				"z": 2.5504438092,
				"element": "H" 
			},
			{
				"x": -0.7238542039,
				"y": -1.4458177876,
				"z": 3.8541394438,
				"element": "H" 
			},
			{
				"x": -0.2327505929,
				"y": -2.4191148738,
				"z": 2.4442757249,
				"element": "H" 
			},
			{
				"x": -1.3332158875,
				"y": 3.9531469919,
				"z": 1.7194716111,
				"element": "H" 
			},
			{
				"x": -2.5152814331,
				"y": 0.5564121046,
				"z": 3.7026432833,
				"element": "H" 
			},
			{
				"x": 1.8747133261,
				"y": -0.2344048794,
				"z": -1.2667201446,
				"element": "H" 
			},
			{
				"x": 3.0396022257,
				"y": 0.1131675659,
				"z": 0.0224646771,
				"element": "H" 
			},
			{
				"x": 2.3385422436,
				"y": 1.4630227158,
				"z": -0.9257539063,
				"element": "H" 
			}
		],
		 "valence_orbital": [ 
			{
				"type": "occ",
				"energy": -0.29896,
				"method": "rhf"
			},
			{
				"type": "occ",
				"energy": -0.28201,
				"method": "rhf"
			},
			{
				"type": "occ",
				"energy": -0.27559,
				"method": "rhf"
			},
			{
				"type": "occ",
				"energy": -0.26904,
				"method": "rhf"
			},
			{
				"type": "occ",
				"energy": -0.20953,
				"method": "rhf"
			},
			{
				"type": "unocc",
				"energy": -0.028,
				"method": "rhf"
			},
			{
				"type": "unocc",
				"energy": 0.00869,
				"method": "rhf"
			},
			{
				"type": "unocc",
				"energy": 0.0482,
				"method": "rhf"
			},
			{
				"type": "unocc",
				"energy": 0.05015,
				"method": "rhf"
			},
			{
				"type": "unocc",
				"energy": 0.0895,
				"method": "rhf"
			}
		],
		"cosmo_sigma_profile": { 
			"-0.025": 0.0,
			"-0.024": 0.0,
			"-0.023": 0.0,
			"-0.022": 0.0,
			"-0.021": 0.0,
			"-0.02": 0.0,
			"-0.019": 0.0,
			"-0.018": 0.0450228440124,
			"-0.017": 1.28160726891,
			"-0.016": 2.23895947044,
			"-0.015": 1.93816144053,
			"-0.014": 2.05748853585,
			"-0.013": 1.94979087055,
			"-0.012": 1.96723202877,
			"-0.011": 2.51916819708,
			"-0.01": 2.35062176904,
			"-0.009": 2.89780293453,
			"-0.008": 3.66487962241,
			"-0.007": 6.31023928567,
			"-0.006": 7.15883986556,
			"-0.005": 12.5739540002,
			"-0.004": 18.4347580155,
			"-0.003": 21.9968077515,
			"-0.002": 19.9659515853,
			"-0.001": 14.8891702034,
			"0.0": 10.4840209776,
			"0.001": 6.59657546909,
			"0.002": 4.7694064231,
			"0.003": 4.22216899932,
			"0.004": 5.01679319495,
			"0.005": 3.44725359837,
			"0.006": 3.43853119023,
			"0.007": 4.1417287764,
			"0.008": 3.78081451567,
			"0.009": 4.25360135977,
			"0.01": 4.08520642541,
			"0.011": 5.62750243189,
			"0.012": 9.81128200357,
			"0.013": 13.6775199759,
			"0.014": 2.38957185458,
			"0.015": 0.0,
			"0.016": 0.0,
			"0.017": 0.0,
			"0.018": 0.0,
			"0.019": 0.0,
			"0.02": 0.0,
			"0.021": 0.0,
			"0.022": 0.0,
			"0.023": 0.0,
			"0.024": 0.0,
			"0.025": 0.0
		}
	}
}
