{
	 "smiles": "CC(C)CO", 
	 "Tm": 165.15, 
	 "num_atms": 15, 
	 "gaussian": { 
		 "optdone": 1, 
		 "sigma_profile": "yes", 
		 "theory": "DFT", 
		 "functional": "B3LYP", 
		 "basiset": "6-31G**", 
		 "properties": { 
			 "R2extent": 890.167, 
			 "electric_dipole_moment_norm": 1.59515595789, 
			 "electric_quadrupole_moment_norm": 4.03549083756, 
			 "total_energy": -233.676395332, 
			 "HOMO_LUMO_gap": 0.32845, 
			 "cosmo_polarized_energy": -5.46, 
			 "cosmo_cavitation_energy": 16.8, 
			 "cosmo_dispersion_energy": -12.47, 
			 "cosmo_repulsion_energy": 1.11, 
			 "cosmo_total_nonelectrostatic_energy": 5.44, 
			 "SMD_solvation_energy": 3.12 
		},
		"coords": [
			{
				"x": -1.5091411681,
				"y": -0.1362025699,
				"z": 0.1717587642,
				"element": "C" 
			},
			{
				"x": -1.6308027184,
				"y": 0.1465267063,
				"z": -1.331693364,
				"element": "C" 
			},
			{
				"x": -1.2063179904,
				"y": 1.5842649359,
				"z": -1.6686114382,
				"element": "C" 
			},
			{
				"x": -0.8361298352,
				"y": -0.8816208738,
				"z": -2.1556853374,
				"element": "C" 
			},
			{
				"x": 0.5591294758,
				"y": -0.8892030223,
				"z": -1.8714778385,
				"element": "O" 
			},
			{
				"x": -2.061592618,
				"y": 0.6022855497,
				"z": 0.7622605413,
				"element": "H" 
			},
			{
				"x": -0.4593575894,
				"y": -0.1080981839,
				"z": 0.4795577427,
				"element": "H" 
			},
			{
				"x": -1.9013787606,
				"y": -1.1282589783,
				"z": 0.4212610845,
				"element": "H" 
			},
			{
				"x": -2.6836503383,
				"y": 0.0270415045,
				"z": -1.6281976273,
				"element": "H" 
			},
			{
				"x": -1.3012141829,
				"y": 1.7930106758,
				"z": -2.7408151174,
				"element": "H" 
			},
			{
				"x": -1.8207662971,
				"y": 2.3139985633,
				"z": -1.1319083242,
				"element": "H" 
			},
			{
				"x": -0.1648808042,
				"y": 1.7680602953,
				"z": -1.3765321741,
				"element": "H" 
			},
			{
				"x": -1.1865550262,
				"y": -1.892602173,
				"z": -1.9204372218,
				"element": "H" 
			},
			{
				"x": -1.0183404165,
				"y": -0.7145818941,
				"z": -3.2300511785,
				"element": "H" 
			},
			{
				"x": 0.9317982693,
				"y": -0.0613205355,
				"z": -2.1992285114,
				"element": "H" 
			}
		],
		 "valence_orbital": [ 
			{
				"type": "occ",
				"energy": -0.35702,
				"method": "rhf"
			},
			{
				"type": "occ",
				"energy": -0.33992,
				"method": "rhf"
			},
			{
				"type": "occ",
				"energy": -0.32934,
				"method": "rhf"
			},
			{
				"type": "occ",
				"energy": -0.3119,
				"method": "rhf"
			},
			{
				"type": "occ",
				"energy": -0.2616,
				"method": "rhf"
			},
			{
				"type": "unocc",
				"energy": 0.06685,
				"method": "rhf"
			},
			{
				"type": "unocc",
				"energy": 0.10476,
				"method": "rhf"
			},
			{
				"type": "unocc",
				"energy": 0.14175,
				"method": "rhf"
			},
			{
				"type": "unocc",
				"energy": 0.14733,
				"method": "rhf"
			},
			{
				"type": "unocc",
				"energy": 0.15802,
				"method": "rhf"
			}
		],
		"cosmo_sigma_profile": { 
			"-0.025": 0.0,
			"-0.024": 0.0,
			"-0.023": 0.0,
			"-0.022": 0.0,
			"-0.021": 0.0,
			"-0.02": 0.0,
			"-0.019": 0.0,
			"-0.018": 0.0,
			"-0.017": 0.0,
			"-0.016": 0.0,
			"-0.015": 0.0923619939514,
			"-0.014": 0.651027694128,
			"-0.013": 0.832534817778,
			"-0.012": 1.09000566812,
			"-0.011": 0.881738578332,
			"-0.01": 0.42756874443,
			"-0.009": 1.08831769908,
			"-0.008": 0.957822665918,
			"-0.007": 1.49310451635,
			"-0.006": 1.22592695559,
			"-0.005": 1.22310396797,
			"-0.004": 2.51458885885,
			"-0.003": 13.0094098722,
			"-0.002": 21.8776355431,
			"-0.001": 20.0311646268,
			"0.0": 16.3734840769,
			"0.001": 16.2073965303,
			"0.002": 10.0700191542,
			"0.003": 1.84461183434,
			"0.004": 2.02841102763,
			"0.005": 1.29157842958,
			"0.006": 1.49487650025,
			"0.007": 1.14016798903,
			"0.008": 1.38527760405,
			"0.009": 1.63168114647,
			"0.01": 1.00653412034,
			"0.011": 1.13335129349,
			"0.012": 1.29132028871,
			"0.013": 1.58016145382,
			"0.014": 1.69339598967,
			"0.015": 1.42750026353,
			"0.016": 0.0,
			"0.017": 0.0,
			"0.018": 0.0,
			"0.019": 0.0,
			"0.02": 0.0,
			"0.021": 0.0,
			"0.022": 0.0,
			"0.023": 0.0,
			"0.024": 0.0,
			"0.025": 0.0
		}
	}
}
