{
	 "smiles": "O=C1N(CN2CCCCC2)C(=S)SC1=CC1=CC=CO1", 
	 "Tm": 393.15, 
	 "num_atms": 36, 
	 "gaussian": { 
		 "optdone": 1, 
		 "sigma_profile": "yes", 
		 "theory": "DFT", 
		 "functional": "B3LYP", 
		 "basiset": "6-31G**", 
		 "properties": { 
			 "R2extent": 8305.3533, 
			 "electric_dipole_moment_norm": 3.6732599663, 
			 "electric_quadrupole_moment_norm": 23.696305895, 
			 "total_energy": -1599.43564619, 
			 "HOMO_LUMO_gap": 0.11479, 
			 "cosmo_polarized_energy": -10.45, 
			 "cosmo_cavitation_energy": 41.22, 
			 "cosmo_dispersion_energy": -30.0, 
			 "cosmo_repulsion_energy": 2.19, 
			 "cosmo_total_nonelectrostatic_energy": 13.42, 
			 "SMD_solvation_energy": 4.82 
		},
		"coords": [
			{
				"x": -1.6522889145,
				"y": -1.0639705446,
				"z": 1.4315874893,
				"element": "O" 
			},
			{
				"x": -0.7982214608,
				"y": -0.2119366027,
				"z": 1.24237451,
				"element": "C" 
			},
			{
				"x": -1.0252256692,
				"y": 0.9641760712,
				"z": 0.5021465974,
				"element": "N" 
			},
			{
				"x": -2.4092172791,
				"y": 1.2221577838,
				"z": -0.0958480183,
				"element": "C" 
			},
			{
				"x": -2.6948984238,
				"y": 0.6220569358,
				"z": -1.3433612551,
				"element": "N" 
			},
			{
				"x": -1.9289658015,
				"y": 1.1047342215,
				"z": -2.4974586115,
				"element": "C" 
			},
			{
				"x": -2.3893924015,
				"y": 0.3864316324,
				"z": -3.7673438117,
				"element": "C" 
			},
			{
				"x": -2.1040364121,
				"y": -1.1318335751,
				"z": -3.6915121018,
				"element": "C" 
			},
			{
				"x": -2.1771586609,
				"y": -1.6492309561,
				"z": -2.2348651962,
				"element": "C" 
			},
			{
				"x": -3.1239766055,
				"y": -0.7890871919,
				"z": -1.3889549179,
				"element": "C" 
			},
			{
				"x": 0.0070087952,
				"y": 1.8638301536,
				"z": 0.437230803,
				"element": "C" 
			},
			{
				"x": 0.0268437945,
				"y": 3.3587295526,
				"z": -0.2629847136,
				"element": "S" 
			},
			{
				"x": 1.4458258564,
				"y": 1.2141816726,
				"z": 1.2742332667,
				"element": "S" 
			},
			{
				"x": 0.5909867303,
				"y": -0.2488670047,
				"z": 1.7489323883,
				"element": "C" 
			},
			{
				"x": 1.0403882222,
				"y": -1.3038769994,
				"z": 2.4729928877,
				"element": "C" 
			},
			{
				"x": 2.3366879679,
				"y": -1.5006971569,
				"z": 3.0358568509,
				"element": "C" 
			},
			{
				"x": 3.516999693,
				"y": -0.7837134682,
				"z": 3.0741900079,
				"element": "C" 
			},
			{
				"x": 4.4472560323,
				"y": -1.562279545,
				"z": 3.8156208672,
				"element": "C" 
			},
			{
				"x": 3.7828976972,
				"y": -2.6996608424,
				"z": 4.1825115328,
				"element": "C" 
			},
			{
				"x": 2.5108643284,
				"y": -2.6824977276,
				"z": 3.7231021485,
				"element": "O" 
			},
			{
				"x": -3.1017976506,
				"y": 0.861135593,
				"z": 0.6653812507,
				"element": "H" 
			},
			{
				"x": -2.4570851737,
				"y": 2.3102164656,
				"z": -0.1712441001,
				"element": "H" 
			},
			{
				"x": -2.0741529843,
				"y": 2.1877368969,
				"z": -2.5851652975,
				"element": "H" 
			},
			{
				"x": -0.843548986,
				"y": 0.9479758207,
				"z": -2.3674426827,
				"element": "H" 
			},
			{
				"x": -1.8940351263,
				"y": 0.8300160545,
				"z": -4.6372904096,
				"element": "H" 
			},
			{
				"x": -3.4640526166,
				"y": 0.5639706152,
				"z": -3.8934663897,
				"element": "H" 
			},
			{
				"x": -1.113127011,
				"y": -1.3484319872,
				"z": -4.1069280242,
				"element": "H" 
			},
			{
				"x": -2.8251210861,
				"y": -1.6668977661,
				"z": -4.3199588227,
				"element": "H" 
			},
			{
				"x": -1.1821517096,
				"y": -1.6282622371,
				"z": -1.7747179116,
				"element": "H" 
			},
			{
				"x": -2.5069682215,
				"y": -2.6937510659,
				"z": -2.209816203,
				"element": "H" 
			},
			{
				"x": -4.1380112349,
				"y": -0.8479425578,
				"z": -1.8135731158,
				"element": "H" 
			},
			{
				"x": -3.1728921317,
				"y": -1.1734545816,
				"z": -0.3692509601,
				"element": "H" 
			},
			{
				"x": 0.3163901967,
				"y": -2.0972505438,
				"z": 2.6440460508,
				"element": "H" 
			},
			{
				"x": 3.6957671634,
				"y": 0.1829189435,
				"z": 2.6272456906,
				"element": "H" 
			},
			{
				"x": 5.4724114426,
				"y": -1.3126606727,
				"z": 4.0468894108,
				"element": "H" 
			},
			{
				"x": 4.0696976413,
				"y": -3.5736653859,
				"z": 4.7470407907,
				"element": "H" 
			}
		],
		 "valence_orbital": [ 
			{
				"type": "occ",
				"energy": -0.28024,
				"method": "rhf"
			},
			{
				"type": "occ",
				"energy": -0.25685,
				"method": "rhf"
			},
			{
				"type": "occ",
				"energy": -0.23072,
				"method": "rhf"
			},
			{
				"type": "occ",
				"energy": -0.21807,
				"method": "rhf"
			},
			{
				"type": "occ",
				"energy": -0.20836,
				"method": "rhf"
			},
			{
				"type": "unocc",
				"energy": -0.09357,
				"method": "rhf"
			},
			{
				"type": "unocc",
				"energy": -0.03647,
				"method": "rhf"
			},
			{
				"type": "unocc",
				"energy": -0.00012,
				"method": "rhf"
			},
			{
				"type": "unocc",
				"energy": 0.01665,
				"method": "rhf"
			},
			{
				"type": "unocc",
				"energy": 0.0485,
				"method": "rhf"
			}
		],
		"cosmo_sigma_profile": { 
			"-0.025": 0.0,
			"-0.024": 0.0,
			"-0.023": 0.0,
			"-0.022": 0.0,
			"-0.021": 0.0,
			"-0.02": 0.0,
			"-0.019": 0.0,
			"-0.018": 0.0,
			"-0.017": 0.0,
			"-0.016": 0.0,
			"-0.015": 0.0,
			"-0.014": 0.0,
			"-0.013": 0.0,
			"-0.012": 0.0,
			"-0.011": 0.053173363094,
			"-0.01": 1.58735100096,
			"-0.009": 2.25944407512,
			"-0.008": 4.5245061601,
			"-0.007": 6.7146233542,
			"-0.006": 9.74962832936,
			"-0.005": 10.4529579437,
			"-0.004": 14.5146780703,
			"-0.003": 25.3030951983,
			"-0.002": 40.0301050273,
			"-0.001": 45.0278517879,
			"0.0": 40.731446929,
			"0.001": 36.0331880206,
			"0.002": 20.9820108562,
			"0.003": 18.1553822869,
			"0.004": 12.6624874954,
			"0.005": 10.1098552294,
			"0.006": 10.2444551014,
			"0.007": 7.90086450503,
			"0.008": 4.74409151954,
			"0.009": 3.819621348,
			"0.01": 2.38629800276,
			"0.011": 2.94163707728,
			"0.012": 0.708790181215,
			"0.013": 0.0,
			"0.014": 0.0,
			"0.015": 0.0,
			"0.016": 0.0,
			"0.017": 0.0,
			"0.018": 0.0,
			"0.019": 0.0,
			"0.02": 0.0,
			"0.021": 0.0,
			"0.022": 0.0,
			"0.023": 0.0,
			"0.024": 0.0,
			"0.025": 0.0
		}
	}
}
