{
	 "smiles": "OC1(CCC1)C1=CC=CC=C1", 
	 "Tm": 313.15, 
	 "num_atms": 23, 
	 "gaussian": { 
		 "optdone": 1, 
		 "sigma_profile": "yes", 
		 "theory": "DFT", 
		 "functional": "B3LYP", 
		 "basiset": "6-31G**", 
		 "properties": { 
			 "R2extent": 2101.9082, 
			 "electric_dipole_moment_norm": 1.24145288271, 
			 "electric_quadrupole_moment_norm": 6.09304985044, 
			 "total_energy": -463.490537884, 
			 "HOMO_LUMO_gap": 0.23473, 
			 "cosmo_polarized_energy": -6.98, 
			 "cosmo_cavitation_energy": 25.06, 
			 "cosmo_dispersion_energy": -18.45, 
			 "cosmo_repulsion_energy": 1.48, 
			 "cosmo_total_nonelectrostatic_energy": 8.08, 
			 "SMD_solvation_energy": 3.98 
		},
		"coords": [
			{
				"x": -1.6864617175,
				"y": -0.5684306013,
				"z": 2.0361426629,
				"element": "O" 
			},
			{
				"x": -1.0714264977,
				"y": 0.3355087685,
				"z": 1.1179445344,
				"element": "C" 
			},
			{
				"x": 0.1580177294,
				"y": 1.0286318637,
				"z": 1.7915040913,
				"element": "C" 
			},
			{
				"x": -0.791357579,
				"y": 2.1414805259,
				"z": 2.3108948799,
				"element": "C" 
			},
			{
				"x": -1.8369728834,
				"y": 1.6849447095,
				"z": 1.2607832008,
				"element": "C" 
			},
			{
				"x": -0.9318442596,
				"y": -0.2766023941,
				"z": -0.266258227,
				"element": "C" 
			},
			{
				"x": -0.1229363619,
				"y": 0.3111539351,
				"z": -1.251061203,
				"element": "C" 
			},
			{
				"x": -0.0255336306,
				"y": -0.2459018735,
				"z": -2.5259400253,
				"element": "C" 
			},
			{
				"x": -0.7378791505,
				"y": -1.404128777,
				"z": -2.8441440652,
				"element": "C" 
			},
			{
				"x": -1.5525893267,
				"y": -1.9932191698,
				"z": -1.877226667,
				"element": "C" 
			},
			{
				"x": -1.6500552636,
				"y": -1.4327110228,
				"z": -0.6023900671,
				"element": "C" 
			},
			{
				"x": -1.0860828929,
				"y": -1.3193019217,
				"z": 2.1469400471,
				"element": "H" 
			},
			{
				"x": 0.6888346921,
				"y": 0.4194702473,
				"z": 2.5304718178,
				"element": "H" 
			},
			{
				"x": 0.8830027857,
				"y": 1.4083351389,
				"z": 1.0670131404,
				"element": "H" 
			},
			{
				"x": -1.128525291,
				"y": 1.9493784347,
				"z": 3.3316747851,
				"element": "H" 
			},
			{
				"x": -0.4312662376,
				"y": 3.1713160392,
				"z": 2.2428969737,
				"element": "H" 
			},
			{
				"x": -2.8797728949,
				"y": 1.5861654809,
				"z": 1.5726286682,
				"element": "H" 
			},
			{
				"x": -1.7856355524,
				"y": 2.2700730316,
				"z": 0.3386003901,
				"element": "H" 
			},
			{
				"x": 0.4369183406,
				"y": 1.2148622469,
				"z": -1.0278321864,
				"element": "H" 
			},
			{
				"x": 0.6097922168,
				"y": 0.2248204162,
				"z": -3.2712385525,
				"element": "H" 
			},
			{
				"x": -0.6600275526,
				"y": -1.8395732014,
				"z": -3.8362695478,
				"element": "H" 
			},
			{
				"x": -2.11793221,
				"y": -2.8904824217,
				"z": -2.1143174968,
				"element": "H" 
			},
			{
				"x": -2.2947664627,
				"y": -1.8825894552,
				"z": 0.1447828466,
				"element": "H" 
			}
		],
		 "valence_orbital": [ 
			{
				"type": "occ",
				"energy": -0.3207,
				"method": "rhf"
			},
			{
				"type": "occ",
				"energy": -0.2994,
				"method": "rhf"
			},
			{
				"type": "occ",
				"energy": -0.26553,
				"method": "rhf"
			},
			{
				"type": "occ",
				"energy": -0.24667,
				"method": "rhf"
			},
			{
				"type": "occ",
				"energy": -0.23693,
				"method": "rhf"
			},
			{
				"type": "unocc",
				"energy": -0.0022,
				"method": "rhf"
			},
			{
				"type": "unocc",
				"energy": 0.00208,
				"method": "rhf"
			},
			{
				"type": "unocc",
				"energy": 0.0805,
				"method": "rhf"
			},
			{
				"type": "unocc",
				"energy": 0.10127,
				"method": "rhf"
			},
			{
				"type": "unocc",
				"energy": 0.10509,
				"method": "rhf"
			}
		],
		"cosmo_sigma_profile": { 
			"-0.025": 0.0,
			"-0.024": 0.0,
			"-0.023": 0.0,
			"-0.022": 0.0,
			"-0.021": 0.0,
			"-0.02": 0.0,
			"-0.019": 0.0,
			"-0.018": 0.0,
			"-0.017": 0.0,
			"-0.016": 0.00696995933404,
			"-0.015": 0.544996308021,
			"-0.014": 1.08130850062,
			"-0.013": 0.731392578036,
			"-0.012": 0.795863644265,
			"-0.011": 0.188319959426,
			"-0.01": 1.00303718707,
			"-0.009": 1.10660846054,
			"-0.008": 1.07845620024,
			"-0.007": 0.900978141827,
			"-0.006": 4.48145801041,
			"-0.005": 10.8203719921,
			"-0.004": 14.3739634833,
			"-0.003": 20.5264767279,
			"-0.002": 18.6917872687,
			"-0.001": 17.9297150551,
			"0.0": 19.764483265,
			"0.001": 19.3547125026,
			"0.002": 13.3610940831,
			"0.003": 9.96819236203,
			"0.004": 9.71036931141,
			"0.005": 9.35120117704,
			"0.006": 9.79072639014,
			"0.007": 3.57705981659,
			"0.008": 1.50936911083,
			"0.009": 1.04481307016,
			"0.01": 1.05920628395,
			"0.011": 0.976882268635,
			"0.012": 1.48870806708,
			"0.013": 1.1435428733,
			"0.014": 1.00943556826,
			"0.015": 0.0170436140363,
			"0.016": 0.0,
			"0.017": 0.0,
			"0.018": 0.0,
			"0.019": 0.0,
			"0.02": 0.0,
			"0.021": 0.0,
			"0.022": 0.0,
			"0.023": 0.0,
			"0.024": 0.0,
			"0.025": 0.0
		}
	}
}
