{
	 "smiles": "CN1C(=O)C(C2=NNC(=O)C2=N/NC2=CC=CC=C2Br)=C(O)C2=CC=CC=C12", 
	 "Tm": 543.15, 
	 "num_atms": 42, 
	 "gaussian": { 
		 "optdone": 1, 
		 "sigma_profile": "yes", 
		 "theory": "DFT", 
		 "functional": "B3LYP", 
		 "basiset": "6-31G**", 
		 "properties": { 
			 "R2extent": 16626.5389, 
			 "electric_dipole_moment_norm": 4.29601868362, 
			 "electric_quadrupole_moment_norm": 16.7295654125, 
			 "total_energy": -3803.27145963, 
			 "HOMO_LUMO_gap": 0.10328, 
			 "cosmo_polarized_energy": -21.67, 
			 "cosmo_cavitation_energy": 48.45, 
			 "cosmo_dispersion_energy": -35.34, 
			 "cosmo_repulsion_energy": 2.57, 
			 "cosmo_total_nonelectrostatic_energy": 15.68, 
			 "SMD_solvation_energy": 6.86 
		},
		"coords": [
			{
				"x": 4.2626514994,
				"y": -0.4900530795,
				"z": -3.9137253108,
				"element": "C" 
			},
			{
				"x": 3.2967631833,
				"y": -0.2030035207,
				"z": -2.8539192409,
				"element": "N" 
			},
			{
				"x": 2.7220384598,
				"y": -1.3190989519,
				"z": -2.2012110352,
				"element": "C" 
			},
			{
				"x": 3.0172277537,
				"y": -2.4509571549,
				"z": -2.5673366585,
				"element": "O" 
			},
			{
				"x": 1.7706190854,
				"y": -1.032206781,
				"z": -1.1064641866,
				"element": "C" 
			},
			{
				"x": 1.2969685856,
				"y": -2.1890570399,
				"z": -0.3229640882,
				"element": "C" 
			},
			{
				"x": 2.0546208119,
				"y": -3.2464816566,
				"z": -0.1406467177,
				"element": "N" 
			},
			{
				"x": 1.329262093,
				"y": -4.1737860727,
				"z": 0.5874672254,
				"element": "N" 
			},
			{
				"x": 0.0582159257,
				"y": -3.7831931558,
				"z": 0.8897749864,
				"element": "C" 
			},
			{
				"x": -0.8252873398,
				"y": -4.3840627268,
				"z": 1.5107094891,
				"element": "O" 
			},
			{
				"x": -0.0010649228,
				"y": -2.4188834734,
				"z": 0.3146028787,
				"element": "C" 
			},
			{
				"x": -1.0030103652,
				"y": -1.5887781648,
				"z": 0.4261862945,
				"element": "N" 
			},
			{
				"x": -2.1025693289,
				"y": -1.9847454577,
				"z": 1.0423448376,
				"element": "N" 
			},
			{
				"x": -3.2007545108,
				"y": -1.1307151703,
				"z": 1.1817028437,
				"element": "C" 
			},
			{
				"x": -3.2053613925,
				"y": 0.1604394438,
				"z": 0.6271812567,
				"element": "C" 
			},
			{
				"x": -4.3117568007,
				"y": 0.9876883326,
				"z": 0.7808308142,
				"element": "C" 
			},
			{
				"x": -5.4363873977,
				"y": 0.5482581834,
				"z": 1.4832341914,
				"element": "C" 
			},
			{
				"x": -5.4463397896,
				"y": -0.7318638911,
				"z": 2.0341722928,
				"element": "C" 
			},
			{
				"x": -4.3396535643,
				"y": -1.5634990679,
				"z": 1.885021492,
				"element": "C" 
			},
			{
				"x": -4.3922302702,
				"y": -3.3110592816,
				"z": 2.6551570371,
				"element": "Br" 
			},
			{
				"x": 1.3771496806,
				"y": 0.2704912534,
				"z": -0.868450889,
				"element": "C" 
			},
			{
				"x": 0.460346361,
				"y": 0.6511212636,
				"z": 0.0405245614,
				"element": "O" 
			},
			{
				"x": 1.9848836812,
				"y": 1.377383969,
				"z": -1.5766155524,
				"element": "C" 
			},
			{
				"x": 1.6270917852,
				"y": 2.7089532987,
				"z": -1.2935188283,
				"element": "C" 
			},
			{
				"x": 2.2313688507,
				"y": 3.7654510823,
				"z": -1.9558404405,
				"element": "C" 
			},
			{
				"x": 3.2093378063,
				"y": 3.4978868692,
				"z": -2.9230798145,
				"element": "C" 
			},
			{
				"x": 3.5758050254,
				"y": 2.1933368767,
				"z": -3.2257853405,
				"element": "C" 
			},
			{
				"x": 2.9680481286,
				"y": 1.1093249472,
				"z": -2.5591790869,
				"element": "C" 
			},
			{
				"x": 4.3405398259,
				"y": -1.5717485606,
				"z": -3.9906470558,
				"element": "H" 
			},
			{
				"x": 3.9222295684,
				"y": -0.0769584196,
				"z": -4.8685803896,
				"element": "H" 
			},
			{
				"x": 5.2418845323,
				"y": -0.0664128796,
				"z": -3.6686145366,
				"element": "H" 
			},
			{
				"x": 1.7472270447,
				"y": -5.0706082039,
				"z": 0.7822757349,
				"element": "H" 
			},
			{
				"x": -2.1212872902,
				"y": -2.9417398361,
				"z": 1.4189922676,
				"element": "H" 
			},
			{
				"x": -2.3366632832,
				"y": 0.502939863,
				"z": 0.0784026831,
				"element": "H" 
			},
			{
				"x": -4.2938545478,
				"y": 1.9816367454,
				"z": 0.345084939,
				"element": "H" 
			},
			{
				"x": -6.3009564261,
				"y": 1.1929600689,
				"z": 1.6026930725,
				"element": "H" 
			},
			{
				"x": -6.308641521,
				"y": -1.0939877623,
				"z": 2.5821406789,
				"element": "H" 
			},
			{
				"x": -0.1363812967,
				"y": -0.0930031994,
				"z": 0.2833617666,
				"element": "H" 
			},
			{
				"x": 0.8693449173,
				"y": 2.8856455168,
				"z": -0.5399202295,
				"element": "H" 
			},
			{
				"x": 1.949618815,
				"y": 4.7882827012,
				"z": -1.7275091088,
				"element": "H" 
			},
			{
				"x": 3.6912155662,
				"y": 4.3167915172,
				"z": -3.4495837291,
				"element": "H" 
			},
			{
				"x": 4.3319410608,
				"y": 2.0153115753,
				"z": -3.979069104,
				"element": "H" 
			}
		],
		 "valence_orbital": [ 
			{
				"type": "occ",
				"energy": -0.26126,
				"method": "rhf"
			},
			{
				"type": "occ",
				"energy": -0.24254,
				"method": "rhf"
			},
			{
				"type": "occ",
				"energy": -0.23205,
				"method": "rhf"
			},
			{
				"type": "occ",
				"energy": -0.22115,
				"method": "rhf"
			},
			{
				"type": "occ",
				"energy": -0.20646,
				"method": "rhf"
			},
			{
				"type": "unocc",
				"energy": -0.10318,
				"method": "rhf"
			},
			{
				"type": "unocc",
				"energy": -0.04885,
				"method": "rhf"
			},
			{
				"type": "unocc",
				"energy": -0.02789,
				"method": "rhf"
			},
			{
				"type": "unocc",
				"energy": -0.00798,
				"method": "rhf"
			},
			{
				"type": "unocc",
				"energy": -0.00766,
				"method": "rhf"
			}
		],
		"cosmo_sigma_profile": { 
			"-0.025": 0.0,
			"-0.024": 0.0,
			"-0.023": 0.0,
			"-0.022": 0.0,
			"-0.021": 0.0,
			"-0.02": 0.0,
			"-0.019": 0.0,
			"-0.018": 0.0,
			"-0.017": 0.489695261896,
			"-0.016": 1.54449522425,
			"-0.015": 1.03814287716,
			"-0.014": 1.53552868762,
			"-0.013": 0.72071955169,
			"-0.012": 0.320051597516,
			"-0.011": 1.05415938932,
			"-0.01": 1.09733475003,
			"-0.009": 0.520966280147,
			"-0.008": 1.79172208148,
			"-0.007": 9.74123884239,
			"-0.006": 22.0300973899,
			"-0.005": 28.8967884923,
			"-0.004": 32.0119280833,
			"-0.003": 28.4969179559,
			"-0.002": 30.7187121511,
			"-0.001": 30.13236572,
			"0.0": 31.7716747603,
			"0.001": 33.2067860389,
			"0.002": 31.5256096581,
			"0.003": 33.2990908998,
			"0.004": 22.1450382113,
			"0.005": 9.05249249702,
			"0.006": 3.83104593188,
			"0.007": 4.12569539719,
			"0.008": 4.4947885055,
			"0.009": 3.56654394971,
			"0.01": 3.83989282966,
			"0.011": 3.76496909411,
			"0.012": 4.13942803224,
			"0.013": 4.14842671563,
			"0.014": 3.19003123135,
			"0.015": 2.43318710603,
			"0.016": 1.82691623175,
			"0.017": 1.09517450446,
			"0.018": 0.690353590853,
			"0.019": 0.0704024940652,
			"0.02": 0.0,
			"0.021": 0.0,
			"0.022": 0.0,
			"0.023": 0.0,
			"0.024": 0.0,
			"0.025": 0.0
		}
	}
}
