{
	 "smiles": "ClC1=C2C=C(SC2=NC(=N1)C1=NC=CC=C1)C1=CC=CC=C1", 
	 "Tm": 460.15, 
	 "num_atms": 32, 
	 "gaussian": { 
		 "optdone": 1, 
		 "sigma_profile": "yes", 
		 "theory": "DFT", 
		 "functional": "B3LYP", 
		 "basiset": "6-31G**", 
		 "properties": { 
			 "R2extent": 10936.6961, 
			 "electric_dipole_moment_norm": 1.66404334379, 
			 "electric_quadrupole_moment_norm": 28.8376389226, 
			 "total_energy": -1676.47715817, 
			 "HOMO_LUMO_gap": 0.14559, 
			 "cosmo_polarized_energy": -12.89, 
			 "cosmo_cavitation_energy": 40.93, 
			 "cosmo_dispersion_energy": -30.61, 
			 "cosmo_repulsion_energy": 2.25, 
			 "cosmo_total_nonelectrostatic_energy": 12.58, 
			 "SMD_solvation_energy": 2.23 
		},
		"coords": [
			{
				"x": 0.2159162603,
				"y": 1.1398996756,
				"z": 3.8966967613,
				"element": "Cl" 
			},
			{
				"x": 0.4341806724,
				"y": 0.1589350257,
				"z": 2.4512521008,
				"element": "C" 
			},
			{
				"x": 0.1904930234,
				"y": 0.7259108001,
				"z": 1.1899810076,
				"element": "C" 
			},
			{
				"x": -0.234781996,
				"y": 2.0129717014,
				"z": 0.7459393361,
				"element": "C" 
			},
			{
				"x": -0.3449563878,
				"y": 2.0992818324,
				"z": -0.6177243816,
				"element": "C" 
			},
			{
				"x": 0.0829107605,
				"y": 0.577691695,
				"z": -1.4208825887,
				"element": "S" 
			},
			{
				"x": 0.4035511493,
				"y": -0.1871793369,
				"z": 0.1256162794,
				"element": "C" 
			},
			{
				"x": 0.7952248638,
				"y": -1.4461686498,
				"z": 0.2546911309,
				"element": "N" 
			},
			{
				"x": 0.9953144916,
				"y": -1.8530152463,
				"z": 1.5126349276,
				"element": "C" 
			},
			{
				"x": 0.8230489074,
				"y": -1.0809722049,
				"z": 2.6155360315,
				"element": "N" 
			},
			{
				"x": 1.4400931726,
				"y": -3.2553858159,
				"z": 1.7503567479,
				"element": "C" 
			},
			{
				"x": 1.6168309789,
				"y": -4.0332057656,
				"z": 0.6694923778,
				"element": "N" 
			},
			{
				"x": 2.0147727401,
				"y": -5.2905959027,
				"z": 0.8668593802,
				"element": "C" 
			},
			{
				"x": 2.2568872881,
				"y": -5.8412821753,
				"z": 2.1286649482,
				"element": "C" 
			},
			{
				"x": 2.0715850702,
				"y": -5.0288033815,
				"z": 3.2459190389,
				"element": "C" 
			},
			{
				"x": 1.6563541772,
				"y": -3.7130792072,
				"z": 3.0594263644,
				"element": "C" 
			},
			{
				"x": -0.751841518,
				"y": 3.2665824628,
				"z": -1.4103305781,
				"element": "C" 
			},
			{
				"x": -1.35804047,
				"y": 3.12209029,
				"z": -2.6710617136,
				"element": "C" 
			},
			{
				"x": -1.7494536469,
				"y": 4.240068434,
				"z": -3.4046254882,
				"element": "C" 
			},
			{
				"x": -1.5466901587,
				"y": 5.5233085178,
				"z": -2.8938583313,
				"element": "C" 
			},
			{
				"x": -0.9428217616,
				"y": 5.6806532997,
				"z": -1.6438968764,
				"element": "C" 
			},
			{
				"x": -0.5439285387,
				"y": 4.5661166824,
				"z": -0.9111210246,
				"element": "C" 
			},
			{
				"x": -0.477631539,
				"y": 2.8257902117,
				"z": 1.4182346019,
				"element": "H" 
			},
			{
				"x": 2.1486048183,
				"y": -5.894086724,
				"z": -0.0297103771,
				"element": "H" 
			},
			{
				"x": 2.5797212302,
				"y": -6.8731445121,
				"z": 2.2254661287,
				"element": "H" 
			},
			{
				"x": 2.2470301286,
				"y": -5.4115104236,
				"z": 4.2471948482,
				"element": "H" 
			},
			{
				"x": 1.4978133367,
				"y": -3.0407120046,
				"z": 3.8934341648,
				"element": "H" 
			},
			{
				"x": -1.5427025588,
				"y": 2.1286963025,
				"z": -3.0695666001,
				"element": "H" 
			},
			{
				"x": -2.2197455029,
				"y": 4.1069608753,
				"z": -4.3743735181,
				"element": "H" 
			},
			{
				"x": -1.8522519245,
				"y": 6.3939492194,
				"z": -3.4663621299,
				"element": "H" 
			},
			{
				"x": -0.7706449558,
				"y": 6.675318203,
				"z": -1.2432474155,
				"element": "H" 
			},
			{
				"x": -0.0465421108,
				"y": 4.6995161214,
				"z": 0.0443648473,
				"element": "H" 
			}
		],
		 "valence_orbital": [ 
			{
				"type": "occ",
				"energy": -0.2661,
				"method": "rhf"
			},
			{
				"type": "occ",
				"energy": -0.26306,
				"method": "rhf"
			},
			{
				"type": "occ",
				"energy": -0.26197,
				"method": "rhf"
			},
			{
				"type": "occ",
				"energy": -0.24791,
				"method": "rhf"
			},
			{
				"type": "occ",
				"energy": -0.22298,
				"method": "rhf"
			},
			{
				"type": "unocc",
				"energy": -0.07739,
				"method": "rhf"
			},
			{
				"type": "unocc",
				"energy": -0.04457,
				"method": "rhf"
			},
			{
				"type": "unocc",
				"energy": -0.03251,
				"method": "rhf"
			},
			{
				"type": "unocc",
				"energy": -0.01756,
				"method": "rhf"
			},
			{
				"type": "unocc",
				"energy": -0.01568,
				"method": "rhf"
			}
		],
		"cosmo_sigma_profile": { 
			"-0.025": 0.0,
			"-0.024": 0.0,
			"-0.023": 0.0,
			"-0.022": 0.0,
			"-0.021": 0.0,
			"-0.02": 0.0,
			"-0.019": 0.0,
			"-0.018": 0.0,
			"-0.017": 0.0,
			"-0.016": 0.0,
			"-0.015": 0.0,
			"-0.014": 0.0,
			"-0.013": 0.0,
			"-0.012": 0.0,
			"-0.011": 0.0,
			"-0.01": 0.0,
			"-0.009": 0.249859654411,
			"-0.008": 2.50845600555,
			"-0.007": 8.83860141018,
			"-0.006": 20.0043774379,
			"-0.005": 21.6876608847,
			"-0.004": 21.0346946587,
			"-0.003": 20.8102091549,
			"-0.002": 28.5595138235,
			"-0.001": 29.1610543686,
			"0.0": 30.5403194041,
			"0.001": 39.3185705759,
			"0.002": 36.7503968309,
			"0.003": 25.4011101821,
			"0.004": 19.8989478682,
			"0.005": 10.2847970108,
			"0.006": 3.30170722904,
			"0.007": 3.47821889322,
			"0.008": 2.73593268645,
			"0.009": 1.23728327237,
			"0.01": 1.08482721853,
			"0.011": 1.76598306087,
			"0.012": 1.08742755906,
			"0.013": 1.18691725662,
			"0.014": 0.911534003706,
			"0.015": 0.54450176819,
			"0.016": 0.819061657218,
			"0.017": 1.40375899284,
			"0.018": 0.75570516767,
			"0.019": 0.562923397935,
			"0.02": 0.337146495793,
			"0.021": 0.0,
			"0.022": 0.0,
			"0.023": 0.0,
			"0.024": 0.0,
			"0.025": 0.0
		}
	}
}
