{
	 "smiles": "COC1=C(OCC2=C(C)ON=C2C)C=CC(=C1)C(O)=O", 
	 "Tm": 490.15, 
	 "num_atms": 35, 
	 "gaussian": { 
		 "optdone": 1, 
		 "sigma_profile": "yes", 
		 "theory": "DFT", 
		 "functional": "B3LYP", 
		 "basiset": "6-31G**", 
		 "properties": { 
			 "R2extent": 8353.5837, 
			 "electric_dipole_moment_norm": 3.81730736515, 
			 "electric_quadrupole_moment_norm": 45.1035014518, 
			 "total_energy": -973.341568, 
			 "HOMO_LUMO_gap": 0.19787, 
			 "cosmo_polarized_energy": -21.47, 
			 "cosmo_cavitation_energy": 40.28, 
			 "cosmo_dispersion_energy": -27.14, 
			 "cosmo_repulsion_energy": 2.08, 
			 "cosmo_total_nonelectrostatic_energy": 15.22, 
			 "SMD_solvation_energy": 8.83 
		},
		"coords": [
			{
				"x": -0.5761679435,
				"y": 0.8357806838,
				"z": 2.3806578734,
				"element": "C" 
			},
			{
				"x": -0.2961085938,
				"y": 1.9897906188,
				"z": 1.5714541615,
				"element": "O" 
			},
			{
				"x": -1.1005084083,
				"y": 2.1247246828,
				"z": 0.4635191093,
				"element": "C" 
			},
			{
				"x": -0.9932323846,
				"y": 1.2476486931,
				"z": -0.6349032647,
				"element": "C" 
			},
			{
				"x": -0.1039130635,
				"y": 0.2017543553,
				"z": -0.6204144781,
				"element": "O" 
			},
			{
				"x": 1.2946704639,
				"y": 0.5892022348,
				"z": -0.710951975,
				"element": "C" 
			},
			{
				"x": 2.1412969852,
				"y": -0.6217170477,
				"z": -0.5408058099,
				"element": "C" 
			},
			{
				"x": 3.0011849857,
				"y": -0.9276962246,
				"z": 0.4772200558,
				"element": "C" 
			},
			{
				"x": 3.416488935,
				"y": -0.2234525722,
				"z": 1.7229644921,
				"element": "C" 
			},
			{
				"x": 3.5746228005,
				"y": -2.1235950782,
				"z": 0.2407597604,
				"element": "O" 
			},
			{
				"x": 3.0794190607,
				"y": -2.6484249461,
				"z": -0.9661114069,
				"element": "N" 
			},
			{
				"x": 2.2365375143,
				"y": -1.7518723108,
				"z": -1.4201206485,
				"element": "C" 
			},
			{
				"x": 1.5057068093,
				"y": -1.9809163495,
				"z": -2.7057104637,
				"element": "C" 
			},
			{
				"x": -1.8415611407,
				"y": 1.4123899274,
				"z": -1.7331763324,
				"element": "C" 
			},
			{
				"x": -2.7713427982,
				"y": 2.4471091456,
				"z": -1.7603257521,
				"element": "C" 
			},
			{
				"x": -2.8480671369,
				"y": 3.3537218985,
				"z": -0.6954447389,
				"element": "C" 
			},
			{
				"x": -2.0178837297,
				"y": 3.1724894382,
				"z": 0.4204813432,
				"element": "C" 
			},
			{
				"x": -3.85960694,
				"y": 4.4549658122,
				"z": -0.7859900176,
				"element": "C" 
			},
			{
				"x": -3.6679651487,
				"y": 5.5308395888,
				"z": 0.0250539726,
				"element": "O" 
			},
			{
				"x": -4.8097725867,
				"y": 4.4239720321,
				"z": -1.5323813826,
				"element": "O" 
			},
			{
				"x": 0.1200534948,
				"y": 0.8779189166,
				"z": 3.2203923199,
				"element": "H" 
			},
			{
				"x": -1.6039642798,
				"y": 0.8726814189,
				"z": 2.7608086737,
				"element": "H" 
			},
			{
				"x": -0.4255219336,
				"y": -0.0895020273,
				"z": 1.8171248594,
				"element": "H" 
			},
			{
				"x": 1.5189650914,
				"y": 1.3362524065,
				"z": 0.055928248,
				"element": "H" 
			},
			{
				"x": 1.4532293045,
				"y": 1.0501922341,
				"z": -1.6953447076,
				"element": "H" 
			},
			{
				"x": 2.8222731656,
				"y": 0.6807294863,
				"z": 1.8709706324,
				"element": "H" 
			},
			{
				"x": 3.28620612,
				"y": -0.8744828051,
				"z": 2.5932260615,
				"element": "H" 
			},
			{
				"x": 4.4737466801,
				"y": 0.0596503339,
				"z": 1.6791336285,
				"element": "H" 
			},
			{
				"x": 1.7644415388,
				"y": -1.2136889609,
				"z": -3.4443506909,
				"element": "H" 
			},
			{
				"x": 0.4248650218,
				"y": -1.9318871032,
				"z": -2.5440219874,
				"element": "H" 
			},
			{
				"x": 1.7648613485,
				"y": -2.958632381,
				"z": -3.1161328551,
				"element": "H" 
			},
			{
				"x": -1.7541599476,
				"y": 0.7134755401,
				"z": -2.5588553441,
				"element": "H" 
			},
			{
				"x": -3.4391930897,
				"y": 2.5800251059,
				"z": -2.6040282173,
				"element": "H" 
			},
			{
				"x": -2.0854584259,
				"y": 3.8042082334,
				"z": 1.3022067866,
				"element": "H" 
			},
			{
				"x": -2.7919417693,
				"y": 5.4896450193,
				"z": 0.4326680943,
				"element": "H" 
			}
		],
		 "valence_orbital": [ 
			{
				"type": "occ",
				"energy": -0.28634,
				"method": "rhf"
			},
			{
				"type": "occ",
				"energy": -0.27541,
				"method": "rhf"
			},
			{
				"type": "occ",
				"energy": -0.2679,
				"method": "rhf"
			},
			{
				"type": "occ",
				"energy": -0.25905,
				"method": "rhf"
			},
			{
				"type": "occ",
				"energy": -0.25043,
				"method": "rhf"
			},
			{
				"type": "unocc",
				"energy": -0.05256,
				"method": "rhf"
			},
			{
				"type": "unocc",
				"energy": -0.0242,
				"method": "rhf"
			},
			{
				"type": "unocc",
				"energy": -0.01206,
				"method": "rhf"
			},
			{
				"type": "unocc",
				"energy": 0.03154,
				"method": "rhf"
			},
			{
				"type": "unocc",
				"energy": 0.0471,
				"method": "rhf"
			}
		],
		"cosmo_sigma_profile": { 
			"-0.025": 0.0,
			"-0.024": 0.0,
			"-0.023": 0.0,
			"-0.022": 0.0,
			"-0.021": 0.0,
			"-0.02": 0.0,
			"-0.019": 0.11830632734,
			"-0.018": 1.08594794079,
			"-0.017": 1.06263765498,
			"-0.016": 0.517435099337,
			"-0.015": 1.19842966877,
			"-0.014": 1.06286039881,
			"-0.013": 0.753240504749,
			"-0.012": 1.43122274878,
			"-0.011": 1.23831986974,
			"-0.01": 0.950627937192,
			"-0.009": 1.08825925084,
			"-0.008": 1.73432334228,
			"-0.007": 3.50289053754,
			"-0.006": 14.8163456452,
			"-0.005": 24.501187761,
			"-0.004": 28.7845761343,
			"-0.003": 34.5180890394,
			"-0.002": 34.3881996779,
			"-0.001": 24.8266361648,
			"0.0": 17.9726301486,
			"0.001": 20.3411291944,
			"0.002": 19.5536960469,
			"0.003": 13.3167021657,
			"0.004": 7.00818448374,
			"0.005": 7.732218992,
			"0.006": 6.4584107731,
			"0.007": 7.26206195024,
			"0.008": 7.99820215652,
			"0.009": 8.76957291934,
			"0.01": 7.50898060914,
			"0.011": 7.20666635279,
			"0.012": 6.76684226257,
			"0.013": 3.02838887425,
			"0.014": 1.18458055243,
			"0.015": 0.667876012434,
			"0.016": 0.0,
			"0.017": 0.0,
			"0.018": 0.0,
			"0.019": 0.0,
			"0.02": 0.0,
			"0.021": 0.0,
			"0.022": 0.0,
			"0.023": 0.0,
			"0.024": 0.0,
			"0.025": 0.0
		}
	}
}
