{
	 "smiles": "NC1=C2C=CC=NC2=CC=C1", 
	 "Tm": 382.15, 
	 "num_atms": 19, 
	 "gaussian": { 
		 "optdone": 1, 
		 "sigma_profile": "yes", 
		 "theory": "DFT", 
		 "functional": "B3LYP", 
		 "basiset": "6-31G**", 
		 "properties": { 
			 "R2extent": 1845.9486, 
			 "electric_dipole_moment_norm": 3.43393062539, 
			 "electric_quadrupole_moment_norm": 9.47096205356, 
			 "total_energy": -457.288681701, 
			 "HOMO_LUMO_gap": 0.15572, 
			 "cosmo_polarized_energy": -11.78, 
			 "cosmo_cavitation_energy": 22.43, 
			 "cosmo_dispersion_energy": -17.15, 
			 "cosmo_repulsion_energy": 1.35, 
			 "cosmo_total_nonelectrostatic_energy": 6.63, 
			 "SMD_solvation_energy": 2.18 
		},
		"coords": [
			{
				"x": 1.3665992314,
				"y": 1.0139563483,
				"z": 2.0887516669,
				"element": "N" 
			},
			{
				"x": 0.3875585876,
				"y": 0.4528355199,
				"z": 1.2605898443,
				"element": "C" 
			},
			{
				"x": -0.1985370905,
				"y": 1.2440543158,
				"z": 0.2161036049,
				"element": "C" 
			},
			{
				"x": 0.1544246095,
				"y": 2.5938291574,
				"z": -0.0302135483,
				"element": "C" 
			},
			{
				"x": -0.4406234975,
				"y": 3.2754137578,
				"z": -1.0673816358,
				"element": "C" 
			},
			{
				"x": -1.400152966,
				"y": 2.5989879198,
				"z": -1.8576745446,
				"element": "C" 
			},
			{
				"x": -1.7821687179,
				"y": 1.3545747807,
				"z": -1.6525066657,
				"element": "N" 
			},
			{
				"x": -1.2072023349,
				"y": 0.6639810825,
				"z": -0.6228822614,
				"element": "C" 
			},
			{
				"x": -1.6441184025,
				"y": -0.6645564227,
				"z": -0.384070788,
				"element": "C" 
			},
			{
				"x": -1.0913658615,
				"y": -1.3856140426,
				"z": 0.6495643334,
				"element": "C" 
			},
			{
				"x": -0.0743992682,
				"y": -0.8384276511,
				"z": 1.462439878,
				"element": "C" 
			},
			{
				"x": 2.040833554,
				"y": 1.6006692286,
				"z": 1.615091324,
				"element": "H" 
			},
			{
				"x": 1.8342968012,
				"y": 0.3384585663,
				"z": 2.6788557626,
				"element": "H" 
			},
			{
				"x": 0.8694043709,
				"y": 3.0985100556,
				"z": 0.6128618469,
				"element": "H" 
			},
			{
				"x": -0.1951534453,
				"y": 4.3117363621,
				"z": -1.2767249537,
				"element": "H" 
			},
			{
				"x": -1.8762247909,
				"y": 3.1196350104,
				"z": -2.6885664295,
				"element": "H" 
			},
			{
				"x": -2.4129476482,
				"y": -1.0716530354,
				"z": -1.0309749758,
				"element": "H" 
			},
			{
				"x": -1.4229109746,
				"y": -2.4022453757,
				"z": 0.8415005303,
				"element": "H" 
			},
			{
				"x": 0.3617878436,
				"y": -1.4423455775,
				"z": 2.2545370112,
				"element": "H" 
			}
		],
		 "valence_orbital": [ 
			{
				"type": "occ",
				"energy": -0.31115,
				"method": "rhf"
			},
			{
				"type": "occ",
				"energy": -0.27837,
				"method": "rhf"
			},
			{
				"type": "occ",
				"energy": -0.24731,
				"method": "rhf"
			},
			{
				"type": "occ",
				"energy": -0.24554,
				"method": "rhf"
			},
			{
				"type": "occ",
				"energy": -0.1995,
				"method": "rhf"
			},
			{
				"type": "unocc",
				"energy": -0.04378,
				"method": "rhf"
			},
			{
				"type": "unocc",
				"energy": -0.01036,
				"method": "rhf"
			},
			{
				"type": "unocc",
				"energy": 0.03731,
				"method": "rhf"
			},
			{
				"type": "unocc",
				"energy": 0.07047,
				"method": "rhf"
			},
			{
				"type": "unocc",
				"energy": 0.09775,
				"method": "rhf"
			}
		],
		"cosmo_sigma_profile": { 
			"-0.025": 0.0,
			"-0.024": 0.0,
			"-0.023": 0.0,
			"-0.022": 0.0,
			"-0.021": 0.0,
			"-0.02": 0.0,
			"-0.019": 0.0,
			"-0.018": 0.0,
			"-0.017": 0.0,
			"-0.016": 0.0,
			"-0.015": 0.0,
			"-0.014": 0.0,
			"-0.013": 0.846767061848,
			"-0.012": 3.01758316069,
			"-0.011": 3.30465796096,
			"-0.01": 3.26501496973,
			"-0.009": 3.20257214011,
			"-0.008": 2.90988023433,
			"-0.007": 4.44993117173,
			"-0.006": 9.82968029377,
			"-0.005": 12.2569652837,
			"-0.004": 11.5938863617,
			"-0.003": 10.2192526212,
			"-0.002": 8.36515401307,
			"-0.001": 7.51725218356,
			"0.0": 9.03148755338,
			"0.001": 9.29772626524,
			"0.002": 15.1327134753,
			"0.003": 17.4924800774,
			"0.004": 13.1499363588,
			"0.005": 12.0229324779,
			"0.006": 6.53489129848,
			"0.007": 2.43164525245,
			"0.008": 2.09229479588,
			"0.009": 2.23009656955,
			"0.01": 1.63090883346,
			"0.011": 1.73306784568,
			"0.012": 1.21167950382,
			"0.013": 1.81014889199,
			"0.014": 1.08297415324,
			"0.015": 0.741098410893,
			"0.016": 0.995281223785,
			"0.017": 0.307971287122,
			"0.018": 0.0,
			"0.019": 0.0,
			"0.02": 0.0,
			"0.021": 0.0,
			"0.022": 0.0,
			"0.023": 0.0,
			"0.024": 0.0,
			"0.025": 0.0
		}
	}
}
