{
	 "smiles": "CCOC(=O)C1=CC=C(C=C1)S(=O)(=O)N1CCC(CC1)C(O)=O", 
	 "Tm": 493.15, 
	 "num_atms": 42, 
	 "gaussian": { 
		 "optdone": 1, 
		 "sigma_profile": "yes", 
		 "theory": "DFT", 
		 "functional": "B3LYP", 
		 "basiset": "6-31G**", 
		 "properties": { 
			 "R2extent": 12611.4589, 
			 "electric_dipole_moment_norm": 5.46688234554, 
			 "electric_quadrupole_moment_norm": 25.2082438141, 
			 "total_energy": -1487.300254, 
			 "HOMO_LUMO_gap": 0.18165, 
			 "cosmo_polarized_energy": -21.16, 
			 "cosmo_cavitation_energy": 46.17, 
			 "cosmo_dispersion_energy": -32.55, 
			 "cosmo_repulsion_energy": 2.46, 
			 "cosmo_total_nonelectrostatic_energy": 16.07, 
			 "SMD_solvation_energy": 7.95 
		},
		"coords": [
			{
				"x": 1.0972644855,
				"y": 6.705554077,
				"z": -0.4731535681,
				"element": "C" 
			},
			{
				"x": 1.2081681691,
				"y": 5.7668274127,
				"z": 0.7184501178,
				"element": "C" 
			},
			{
				"x": 1.275576567,
				"y": 4.3826443658,
				"z": 0.2937329852,
				"element": "O" 
			},
			{
				"x": 0.0982477954,
				"y": 3.7608272393,
				"z": 0.0738558444,
				"element": "C" 
			},
			{
				"x": -0.9874722195,
				"y": 4.2880290356,
				"z": 0.2220305368,
				"element": "O" 
			},
			{
				"x": 0.279907245,
				"y": 2.3436938158,
				"z": -0.3676115583,
				"element": "C" 
			},
			{
				"x": 1.5451682644,
				"y": 1.7655903183,
				"z": -0.5253988202,
				"element": "C" 
			},
			{
				"x": 1.6586274757,
				"y": 0.4377421587,
				"z": -0.9381445883,
				"element": "C" 
			},
			{
				"x": 0.4995783431,
				"y": -0.2976490667,
				"z": -1.1851041896,
				"element": "C" 
			},
			{
				"x": -0.7709309516,
				"y": 0.2687390834,
				"z": -1.0422515979,
				"element": "C" 
			},
			{
				"x": -0.875462573,
				"y": 1.5917598605,
				"z": -0.6297940263,
				"element": "C" 
			},
			{
				"x": 0.6448526114,
				"y": -1.9945414635,
				"z": -1.7680004259,
				"element": "S" 
			},
			{
				"x": -0.2652804873,
				"y": -2.17908144,
				"z": -2.9024199264,
				"element": "O" 
			},
			{
				"x": 2.079283739,
				"y": -2.287050705,
				"z": -1.9046618982,
				"element": "O" 
			},
			{
				"x": -0.039497801,
				"y": -2.8448491254,
				"z": -0.4644457431,
				"element": "N" 
			},
			{
				"x": 0.8466292427,
				"y": -2.9663494211,
				"z": 0.7097573559,
				"element": "C" 
			},
			{
				"x": 0.0221597311,
				"y": -3.412117724,
				"z": 1.9208364357,
				"element": "C" 
			},
			{
				"x": -0.7439124704,
				"y": -4.7234454944,
				"z": 1.6421184238,
				"element": "C" 
			},
			{
				"x": -1.5538698153,
				"y": -4.6029395691,
				"z": 0.3405600581,
				"element": "C" 
			},
			{
				"x": -0.6918666683,
				"y": -4.1245761186,
				"z": -0.831862534,
				"element": "C" 
			},
			{
				"x": 0.163949802,
				"y": -5.9486831506,
				"z": 1.6172975924,
				"element": "C" 
			},
			{
				"x": 1.0082637589,
				"y": -5.9783886822,
				"z": 2.6778996154,
				"element": "O" 
			},
			{
				"x": 0.1410371411,
				"y": -6.8329070356,
				"z": 0.7887444875,
				"element": "O" 
			},
			{
				"x": 1.1253732738,
				"y": 7.7445759783,
				"z": -0.1285774048,
				"element": "H" 
			},
			{
				"x": 1.9266691386,
				"y": 6.5521498187,
				"z": -1.1696573347,
				"element": "H" 
			},
			{
				"x": 0.1548054969,
				"y": 6.5458644963,
				"z": -1.0023377945,
				"element": "H" 
			},
			{
				"x": 0.3587559873,
				"y": 5.8842139434,
				"z": 1.3951796478,
				"element": "H" 
			},
			{
				"x": 2.1382055586,
				"y": 5.9244653263,
				"z": 1.2694404121,
				"element": "H" 
			},
			{
				"x": 2.4325527632,
				"y": 2.3551727049,
				"z": -0.3280820824,
				"element": "H" 
			},
			{
				"x": 2.6270028041,
				"y": -0.0296706192,
				"z": -1.0777723569,
				"element": "H" 
			},
			{
				"x": -1.6557474325,
				"y": -0.320524405,
				"z": -1.2558470803,
				"element": "H" 
			},
			{
				"x": -1.8425988522,
				"y": 2.066549207,
				"z": -0.5062783887,
				"element": "H" 
			},
			{
				"x": 1.2988051041,
				"y": -1.991600457,
				"z": 0.9127225961,
				"element": "H" 
			},
			{
				"x": 1.6665349075,
				"y": -3.6728274029,
				"z": 0.5100328514,
				"element": "H" 
			},
			{
				"x": -0.7076112051,
				"y": -2.629620205,
				"z": 2.1556232924,
				"element": "H" 
			},
			{
				"x": 0.6791302365,
				"y": -3.5278138708,
				"z": 2.7865674436,
				"element": "H" 
			},
			{
				"x": -1.4291079668,
				"y": -4.8993706379,
				"z": 2.4830241562,
				"element": "H" 
			},
			{
				"x": -1.9941399514,
				"y": -5.569206596,
				"z": 0.0805480534,
				"element": "H" 
			},
			{
				"x": -2.3689869713,
				"y": -3.8887096976,
				"z": 0.5002842818,
				"element": "H" 
			},
			{
				"x": -1.3064797814,
				"y": -3.9493354246,
				"z": -1.7150899931,
				"element": "H" 
			},
			{
				"x": 0.0558766131,
				"y": -4.8903726622,
				"z": -1.0811492202,
				"element": "H" 
			},
			{
				"x": 1.519438892,
				"y": -6.8008678677,
				"z": 2.5915343439,
				"element": "H" 
			}
		],
		 "valence_orbital": [ 
			{
				"type": "occ",
				"energy": -0.28476,
				"method": "rhf"
			},
			{
				"type": "occ",
				"energy": -0.28397,
				"method": "rhf"
			},
			{
				"type": "occ",
				"energy": -0.2804,
				"method": "rhf"
			},
			{
				"type": "occ",
				"energy": -0.27645,
				"method": "rhf"
			},
			{
				"type": "occ",
				"energy": -0.2513,
				"method": "rhf"
			},
			{
				"type": "unocc",
				"energy": -0.06965,
				"method": "rhf"
			},
			{
				"type": "unocc",
				"energy": -0.02561,
				"method": "rhf"
			},
			{
				"type": "unocc",
				"energy": -0.00399,
				"method": "rhf"
			},
			{
				"type": "unocc",
				"energy": 0.0283,
				"method": "rhf"
			},
			{
				"type": "unocc",
				"energy": 0.05657,
				"method": "rhf"
			}
		],
		"cosmo_sigma_profile": { 
			"-0.025": 0.0,
			"-0.024": 0.0,
			"-0.023": 0.0,
			"-0.022": 0.0,
			"-0.021": 0.0,
			"-0.02": 0.0,
			"-0.019": 0.0,
			"-0.018": 0.67896178109,
			"-0.017": 0.995122345451,
			"-0.016": 0.744813074234,
			"-0.015": 0.983322359501,
			"-0.014": 0.5667796744,
			"-0.013": 0.208641767324,
			"-0.012": 0.872857934804,
			"-0.011": 1.12101105721,
			"-0.01": 0.807818595069,
			"-0.009": 0.655875975772,
			"-0.008": 2.10434355287,
			"-0.007": 7.98997021532,
			"-0.006": 12.7715012575,
			"-0.005": 22.387154973,
			"-0.004": 39.9248590565,
			"-0.003": 41.5871789604,
			"-0.002": 34.5406946835,
			"-0.001": 31.6346766246,
			"0.0": 29.2881059894,
			"0.001": 27.2751724921,
			"0.002": 15.2091181851,
			"0.003": 10.4551014653,
			"0.004": 10.7446814876,
			"0.005": 9.33941263488,
			"0.006": 5.66783885473,
			"0.007": 7.04122633466,
			"0.008": 8.58409996423,
			"0.009": 7.39776878083,
			"0.01": 9.78056850527,
			"0.011": 15.3266443659,
			"0.012": 7.4082891812,
			"0.013": 0.0562032372581,
			"0.014": 0.0,
			"0.015": 0.0,
			"0.016": 0.0,
			"0.017": 0.0,
			"0.018": 0.0,
			"0.019": 0.0,
			"0.02": 0.0,
			"0.021": 0.0,
			"0.022": 0.0,
			"0.023": 0.0,
			"0.024": 0.0,
			"0.025": 0.0
		}
	}
}
