{
	 "smiles": "NCCNS(=O)(=O)CC1=NOC=C1", 
	 "Tm": 363.15, 
	 "num_atms": 24, 
	 "gaussian": { 
		 "optdone": 1, 
		 "sigma_profile": "yes", 
		 "theory": "DFT", 
		 "functional": "B3LYP", 
		 "basiset": "6-31G**", 
		 "properties": { 
			 "R2extent": 4477.5005, 
			 "electric_dipole_moment_norm": 6.04061713238, 
			 "electric_quadrupole_moment_norm": 18.7028188383, 
			 "total_energy": -1023.24696417, 
			 "HOMO_LUMO_gap": 0.21129, 
			 "cosmo_polarized_energy": -22.19, 
			 "cosmo_cavitation_energy": 29.46, 
			 "cosmo_dispersion_energy": -21.06, 
			 "cosmo_repulsion_energy": 1.64, 
			 "cosmo_total_nonelectrostatic_energy": 10.04, 
			 "SMD_solvation_energy": 3.11 
		},
		"coords": [
			{
				"x": 2.8953829748,
				"y": -0.2611275251,
				"z": 2.9352638225,
				"element": "N" 
			},
			{
				"x": 1.6985351387,
				"y": -0.9963160198,
				"z": 2.541750839,
				"element": "C" 
			},
			{
				"x": 1.2207888663,
				"y": -0.8057303323,
				"z": 1.087847772,
				"element": "C" 
			},
			{
				"x": 1.0588924301,
				"y": 0.6003078993,
				"z": 0.6650610052,
				"element": "N" 
			},
			{
				"x": -0.2505701382,
				"y": 1.4794333382,
				"z": 1.2946223709,
				"element": "S" 
			},
			{
				"x": 0.2967559966,
				"y": 2.6345995797,
				"z": 2.0132059846,
				"element": "O" 
			},
			{
				"x": -1.1807402642,
				"y": 0.5390001755,
				"z": 1.9276006627,
				"element": "O" 
			},
			{
				"x": -1.091616305,
				"y": 2.0758805118,
				"z": -0.2143214451,
				"element": "C" 
			},
			{
				"x": -0.2736797378,
				"y": 2.9914421599,
				"z": -1.0621735631,
				"element": "C" 
			},
			{
				"x": -0.5990361406,
				"y": 4.2663494459,
				"z": -1.1193670509,
				"element": "N" 
			},
			{
				"x": 0.3183217898,
				"y": 4.8480354013,
				"z": -1.9864614372,
				"element": "O" 
			},
			{
				"x": 1.1700179957,
				"y": 3.9022023557,
				"z": -2.4250256138,
				"element": "C" 
			},
			{
				"x": 0.8564550053,
				"y": 2.6963073587,
				"z": -1.8837840343,
				"element": "C" 
			},
			{
				"x": 2.7185666054,
				"y": 0.7363213978,
				"z": 3.0070414734,
				"element": "H" 
			},
			{
				"x": 3.6688855118,
				"y": -0.4098215559,
				"z": 2.2929269793,
				"element": "H" 
			},
			{
				"x": 1.8771348066,
				"y": -2.0686398324,
				"z": 2.694645343,
				"element": "H" 
			},
			{
				"x": 0.8890387025,
				"y": -0.7117807292,
				"z": 3.2206318217,
				"element": "H" 
			},
			{
				"x": 1.9472026098,
				"y": -1.2419130556,
				"z": 0.3903816395,
				"element": "H" 
			},
			{
				"x": 0.2684120797,
				"y": -1.3184838956,
				"z": 0.9324086612,
				"element": "H" 
			},
			{
				"x": 1.8974435137,
				"y": 1.1467051447,
				"z": 0.8526013459,
				"element": "H" 
			},
			{
				"x": -1.9790554488,
				"y": 2.5951171274,
				"z": 0.1554016353,
				"element": "H" 
			},
			{
				"x": -1.3967289972,
				"y": 1.1731037996,
				"z": -0.7484261659,
				"element": "H" 
			},
			{
				"x": 1.9344368906,
				"y": 4.2363074754,
				"z": -3.1114779339,
				"element": "H" 
			},
			{
				"x": 1.3384561146,
				"y": 1.742999775,
				"z": -2.0284541121,
				"element": "H" 
			}
		],
		 "valence_orbital": [ 
			{
				"type": "occ",
				"energy": -0.31072,
				"method": "rhf"
			},
			{
				"type": "occ",
				"energy": -0.29809,
				"method": "rhf"
			},
			{
				"type": "occ",
				"energy": -0.28512,
				"method": "rhf"
			},
			{
				"type": "occ",
				"energy": -0.2787,
				"method": "rhf"
			},
			{
				"type": "occ",
				"energy": -0.24146,
				"method": "rhf"
			},
			{
				"type": "unocc",
				"energy": -0.03017,
				"method": "rhf"
			},
			{
				"type": "unocc",
				"energy": 0.01964,
				"method": "rhf"
			},
			{
				"type": "unocc",
				"energy": 0.04944,
				"method": "rhf"
			},
			{
				"type": "unocc",
				"energy": 0.06196,
				"method": "rhf"
			},
			{
				"type": "unocc",
				"energy": 0.07565,
				"method": "rhf"
			}
		],
		"cosmo_sigma_profile": { 
			"-0.025": 0.0,
			"-0.024": 0.0,
			"-0.023": 0.0,
			"-0.022": 0.0,
			"-0.021": 0.0,
			"-0.02": 0.0,
			"-0.019": 0.0,
			"-0.018": 0.0,
			"-0.017": 0.0,
			"-0.016": 0.0,
			"-0.015": 0.0,
			"-0.014": 0.0339481868637,
			"-0.013": 0.470352700426,
			"-0.012": 0.97857792774,
			"-0.011": 3.17122712245,
			"-0.01": 6.26832092672,
			"-0.009": 10.6819832387,
			"-0.008": 9.63567676226,
			"-0.007": 10.4344962068,
			"-0.006": 11.5384071377,
			"-0.005": 13.9864000665,
			"-0.004": 16.2973913534,
			"-0.003": 15.849486526,
			"-0.002": 13.5712873084,
			"-0.001": 11.4229960155,
			"0.0": 13.0459489053,
			"0.001": 10.8038957223,
			"0.002": 8.11535641356,
			"0.003": 6.20574658442,
			"0.004": 5.88184902624,
			"0.005": 6.35632356868,
			"0.006": 6.4029609225,
			"0.007": 8.76927759543,
			"0.008": 7.12416773439,
			"0.009": 5.87925215702,
			"0.01": 10.4310564546,
			"0.011": 9.72660135082,
			"0.012": 3.21529587889,
			"0.013": 2.09725932328,
			"0.014": 1.07878570279,
			"0.015": 0.698840460286,
			"0.016": 0.70464655881,
			"0.017": 0.1166666427,
			"0.018": 0.985787578968,
			"0.019": 0.409128341666,
			"0.02": 0.0,
			"0.021": 0.0,
			"0.022": 0.0,
			"0.023": 0.0,
			"0.024": 0.0,
			"0.025": 0.0
		}
	}
}
