{
	 "smiles": "CC(C)(C)NC(N)=O", 
	 "Tm": 453.15, 
	 "num_atms": 20, 
	 "gaussian": { 
		 "optdone": 1, 
		 "sigma_profile": "yes", 
		 "theory": "DFT", 
		 "functional": "B3LYP", 
		 "basiset": "6-31G**", 
		 "properties": { 
			 "R2extent": 1210.4192, 
			 "electric_dipole_moment_norm": 3.75424672072, 
			 "electric_quadrupole_moment_norm": 10.7404231756, 
			 "total_energy": -382.526799741, 
			 "HOMO_LUMO_gap": 0.28743, 
			 "cosmo_polarized_energy": -12.53, 
			 "cosmo_cavitation_energy": 21.77, 
			 "cosmo_dispersion_energy": -15.83, 
			 "cosmo_repulsion_energy": 1.32, 
			 "cosmo_total_nonelectrostatic_energy": 7.26, 
			 "SMD_solvation_energy": 4.48 
		},
		"coords": [
			{
				"x": -0.6100227771,
				"y": 0.7284644307,
				"z": -0.9116664857,
				"element": "C" 
			},
			{
				"x": -1.0339174367,
				"y": -0.189484567,
				"z": 0.2517734932,
				"element": "C" 
			},
			{
				"x": -1.814034356,
				"y": -1.3985622703,
				"z": -0.2951469601,
				"element": "C" 
			},
			{
				"x": -1.9474949723,
				"y": 0.5724093498,
				"z": 1.2335969398,
				"element": "C" 
			},
			{
				"x": 0.146148699,
				"y": -0.766331376,
				"z": 0.9454480794,
				"element": "N" 
			},
			{
				"x": 1.2865770636,
				"y": -0.1279776312,
				"z": 1.4103702697,
				"element": "C" 
			},
			{
				"x": 1.1392327693,
				"y": 1.1894431745,
				"z": 1.8316638199,
				"element": "N" 
			},
			{
				"x": 2.3686203912,
				"y": -0.7017349691,
				"z": 1.449890143,
				"element": "O" 
			},
			{
				"x": -0.0202453508,
				"y": 0.1704689232,
				"z": -1.6460102775,
				"element": "H" 
			},
			{
				"x": -1.4893865316,
				"y": 1.1384083223,
				"z": -1.4203933339,
				"element": "H" 
			},
			{
				"x": -0.0023842371,
				"y": 1.5610620871,
				"z": -0.5481493905,
				"element": "H" 
			},
			{
				"x": -1.2007810247,
				"y": -1.9744869435,
				"z": -0.9975805128,
				"element": "H" 
			},
			{
				"x": -2.708575054,
				"y": -1.0663413078,
				"z": -0.8291500247,
				"element": "H" 
			},
			{
				"x": -2.1246373616,
				"y": -2.0631932775,
				"z": 0.5175342983,
				"element": "H" 
			},
			{
				"x": -2.9083352126,
				"y": 0.7899721116,
				"z": 0.7564055174,
				"element": "H" 
			},
			{
				"x": -2.1361738542,
				"y": -0.0258153863,
				"z": 2.1298944472,
				"element": "H" 
			},
			{
				"x": -1.5270427486,
				"y": 1.5375036435,
				"z": 1.5325751547,
				"element": "H" 
			},
			{
				"x": 0.4175138223,
				"y": -1.6779766341,
				"z": 0.5994391177,
				"element": "H" 
			},
			{
				"x": 0.2682218555,
				"y": 1.4393950814,
				"z": 2.2764383898,
				"element": "H" 
			},
			{
				"x": 1.9610163163,
				"y": 1.5073772385,
				"z": 2.327267315,
				"element": "H" 
			}
		],
		 "valence_orbital": [ 
			{
				"type": "occ",
				"energy": -0.347,
				"method": "rhf"
			},
			{
				"type": "occ",
				"energy": -0.33939,
				"method": "rhf"
			},
			{
				"type": "occ",
				"energy": -0.26726,
				"method": "rhf"
			},
			{
				"type": "occ",
				"energy": -0.25198,
				"method": "rhf"
			},
			{
				"type": "occ",
				"energy": -0.23625,
				"method": "rhf"
			},
			{
				"type": "unocc",
				"energy": 0.05118,
				"method": "rhf"
			},
			{
				"type": "unocc",
				"energy": 0.06854,
				"method": "rhf"
			},
			{
				"type": "unocc",
				"energy": 0.10273,
				"method": "rhf"
			},
			{
				"type": "unocc",
				"energy": 0.11229,
				"method": "rhf"
			},
			{
				"type": "unocc",
				"energy": 0.12256,
				"method": "rhf"
			}
		],
		"cosmo_sigma_profile": { 
			"-0.025": 0.0,
			"-0.024": 0.0,
			"-0.023": 0.0,
			"-0.022": 0.0,
			"-0.021": 0.0,
			"-0.02": 0.0,
			"-0.019": 0.0,
			"-0.018": 0.0,
			"-0.017": 0.0,
			"-0.016": 0.0,
			"-0.015": 0.0,
			"-0.014": 0.0,
			"-0.013": 0.584970177508,
			"-0.012": 2.43702454979,
			"-0.011": 2.57500978839,
			"-0.01": 3.14891669269,
			"-0.009": 3.66606316632,
			"-0.008": 3.02096074673,
			"-0.007": 2.67104620959,
			"-0.006": 4.00827437582,
			"-0.005": 2.5047290689,
			"-0.004": 10.5303856532,
			"-0.003": 19.8849430649,
			"-0.002": 17.0131614424,
			"-0.001": 17.6531761807,
			"0.0": 21.7689222185,
			"0.001": 15.8364209086,
			"0.002": 4.44979859667,
			"0.003": 3.41526181565,
			"0.004": 3.14671763125,
			"0.005": 3.91089687592,
			"0.006": 2.47194451569,
			"0.007": 2.71621094362,
			"0.008": 2.35592265057,
			"0.009": 2.2141198155,
			"0.01": 0.973413799845,
			"0.011": 1.43199321531,
			"0.012": 1.70736538239,
			"0.013": 1.59791703651,
			"0.014": 5.08490313565,
			"0.015": 5.11251692285,
			"0.016": 0.448544446532,
			"0.017": 0.0,
			"0.018": 0.0,
			"0.019": 0.0,
			"0.02": 0.0,
			"0.021": 0.0,
			"0.022": 0.0,
			"0.023": 0.0,
			"0.024": 0.0,
			"0.025": 0.0
		}
	}
}
