{
	 "smiles": "CC1=C(C=NN1C1=CC=C(Cl)C=C1)C(O)=O", 
	 "Tm": 475.15, 
	 "num_atms": 25, 
	 "gaussian": { 
		 "optdone": 1, 
		 "sigma_profile": "yes", 
		 "theory": "DFT", 
		 "functional": "B3LYP", 
		 "basiset": "6-31G**", 
		 "properties": { 
			 "R2extent": 5916.0121, 
			 "electric_dipole_moment_norm": 0.560838265456, 
			 "electric_quadrupole_moment_norm": 8.7270462208, 
			 "total_energy": -1144.74403148, 
			 "HOMO_LUMO_gap": 0.19767, 
			 "cosmo_polarized_energy": -12.45, 
			 "cosmo_cavitation_energy": 31.71, 
			 "cosmo_dispersion_energy": -23.21, 
			 "cosmo_repulsion_energy": 1.79, 
			 "cosmo_total_nonelectrostatic_energy": 10.3, 
			 "SMD_solvation_energy": 5.72 
		},
		"coords": [
			{
				"x": -2.4557232206,
				"y": 0.1891565528,
				"z": 1.4271285546,
				"element": "C" 
			},
			{
				"x": -1.4542783837,
				"y": -0.6397645373,
				"z": 0.6894048478,
				"element": "C" 
			},
			{
				"x": -1.4021403554,
				"y": -2.0242870018,
				"z": 0.5199594361,
				"element": "C" 
			},
			{
				"x": -0.2834999055,
				"y": -2.2554418329,
				"z": -0.3214934737,
				"element": "C" 
			},
			{
				"x": 0.3209366793,
				"y": -1.1309056271,
				"z": -0.655256641,
				"element": "N" 
			},
			{
				"x": -0.3964979939,
				"y": -0.1460449806,
				"z": -0.0225670832,
				"element": "N" 
			},
			{
				"x": 0.0002184817,
				"y": 1.2052767194,
				"z": -0.2286899138,
				"element": "C" 
			},
			{
				"x": 0.439490836,
				"y": 1.5902007535,
				"z": -1.5005277815,
				"element": "C" 
			},
			{
				"x": 0.8464921289,
				"y": 2.9009821604,
				"z": -1.7299606786,
				"element": "C" 
			},
			{
				"x": 0.805929906,
				"y": 3.8255818438,
				"z": -0.6850117364,
				"element": "C" 
			},
			{
				"x": 1.3071528643,
				"y": 5.4823757918,
				"z": -0.9754354739,
				"element": "Cl" 
			},
			{
				"x": 0.3806012749,
				"y": 3.4499334677,
				"z": 0.5878074603,
				"element": "C" 
			},
			{
				"x": -0.0132573796,
				"y": 2.1320810715,
				"z": 0.8177288549,
				"element": "C" 
			},
			{
				"x": -2.3336733235,
				"y": -3.0033980314,
				"z": 1.0751949439,
				"element": "C" 
			},
			{
				"x": -2.0109947491,
				"y": -4.2734735577,
				"z": 0.7149195722,
				"element": "O" 
			},
			{
				"x": -3.2999478775,
				"y": -2.7609891688,
				"z": 1.7785261484,
				"element": "O" 
			},
			{
				"x": -2.1096050359,
				"y": 0.4387100843,
				"z": 2.4370460045,
				"element": "H" 
			},
			{
				"x": -2.6648390241,
				"y": 1.1256735368,
				"z": 0.9029652072,
				"element": "H" 
			},
			{
				"x": -3.372428655,
				"y": -0.3900906544,
				"z": 1.5384549255,
				"element": "H" 
			},
			{
				"x": 0.0888574741,
				"y": -3.2035829086,
				"z": -0.683372213,
				"element": "H" 
			},
			{
				"x": 0.4669338625,
				"y": 0.8536806947,
				"z": -2.2944141332,
				"element": "H" 
			},
			{
				"x": 1.1866919672,
				"y": 3.2060169432,
				"z": -2.7131108936,
				"element": "H" 
			},
			{
				"x": 0.3727753512,
				"y": 4.1730760974,
				"z": 1.3953964047,
				"element": "H" 
			},
			{
				"x": -0.3053910074,
				"y": 1.828642515,
				"z": 1.815706237,
				"element": "H" 
			},
			{
				"x": -2.6835039148,
				"y": -4.8411099314,
				"z": 1.1259014249,
				"element": "H" 
			}
		],
		 "valence_orbital": [ 
			{
				"type": "occ",
				"energy": -0.28933,
				"method": "rhf"
			},
			{
				"type": "occ",
				"energy": -0.27897,
				"method": "rhf"
			},
			{
				"type": "occ",
				"energy": -0.27338,
				"method": "rhf"
			},
			{
				"type": "occ",
				"energy": -0.25647,
				"method": "rhf"
			},
			{
				"type": "occ",
				"energy": -0.24171,
				"method": "rhf"
			},
			{
				"type": "unocc",
				"energy": -0.04404,
				"method": "rhf"
			},
			{
				"type": "unocc",
				"energy": -0.02816,
				"method": "rhf"
			},
			{
				"type": "unocc",
				"energy": -0.01519,
				"method": "rhf"
			},
			{
				"type": "unocc",
				"energy": 0.01573,
				"method": "rhf"
			},
			{
				"type": "unocc",
				"energy": 0.0228,
				"method": "rhf"
			}
		],
		"cosmo_sigma_profile": { 
			"-0.025": 0.0,
			"-0.024": 0.0,
			"-0.023": 0.0,
			"-0.022": 0.0,
			"-0.021": 0.0,
			"-0.02": 0.0,
			"-0.019": 0.0,
			"-0.018": 0.484746445776,
			"-0.017": 1.20643135169,
			"-0.016": 0.725244260689,
			"-0.015": 0.458416100235,
			"-0.014": 0.56486136022,
			"-0.013": 0.902121204222,
			"-0.012": 0.490344914316,
			"-0.011": 1.5235071141,
			"-0.01": 0.622974144864,
			"-0.009": 1.06396583947,
			"-0.008": 6.33952174592,
			"-0.007": 10.2042779072,
			"-0.006": 11.8541243635,
			"-0.005": 12.5096540326,
			"-0.004": 10.9127606668,
			"-0.003": 14.2785619972,
			"-0.002": 18.6611870865,
			"-0.001": 21.3010013077,
			"0.0": 21.4310297261,
			"0.001": 23.6302490475,
			"0.002": 27.2728519539,
			"0.003": 16.4794185127,
			"0.004": 15.1497411889,
			"0.005": 8.02886487603,
			"0.006": 5.32788670013,
			"0.007": 5.06918701781,
			"0.008": 4.12991457635,
			"0.009": 3.32901222119,
			"0.01": 2.95871481707,
			"0.011": 3.20451269925,
			"0.012": 4.67356129364,
			"0.013": 1.57713982911,
			"0.014": 0.336493071328,
			"0.015": 0.0,
			"0.016": 0.0,
			"0.017": 0.0,
			"0.018": 0.0,
			"0.019": 0.0,
			"0.02": 0.0,
			"0.021": 0.0,
			"0.022": 0.0,
			"0.023": 0.0,
			"0.024": 0.0,
			"0.025": 0.0
		}
	}
}
