{
	 "smiles": "CN=C=S", 
	 "Tm": 307.15, 
	 "num_atms": 7, 
	 "gaussian": { 
		 "optdone": 1, 
		 "sigma_profile": "yes", 
		 "theory": "DFT", 
		 "functional": "B3LYP", 
		 "basiset": "6-31G**", 
		 "properties": { 
			 "R2extent": 2261.0219, 
			 "electric_dipole_moment_norm": 3.82235676645, 
			 "electric_quadrupole_moment_norm": 13.3992446507, 
			 "total_energy": -530.947459791, 
			 "HOMO_LUMO_gap": 0.2363, 
			 "cosmo_polarized_energy": -5.76, 
			 "cosmo_cavitation_energy": 13.51, 
			 "cosmo_dispersion_energy": -10.49, 
			 "cosmo_repulsion_energy": 0.93, 
			 "cosmo_total_nonelectrostatic_energy": 3.95, 
			 "SMD_solvation_energy": 2.46 
		},
		"coords": [
			{
				"x": -1.6263288729,
				"y": 1.4381923953,
				"z": 1.162232283,
				"element": "C" 
			},
			{
				"x": -2.0521393421,
				"y": 1.981376075,
				"z": -0.0825886483,
				"element": "N" 
			},
			{
				"x": -2.8443968101,
				"y": 2.2033405859,
				"z": -0.9422507633,
				"element": "C" 
			},
			{
				"x": -3.8273251045,
				"y": 2.5546666141,
				"z": -2.1481489999,
				"element": "S" 
			},
			{
				"x": -2.2133679499,
				"y": 1.8607548621,
				"z": 1.985190429,
				"element": "H" 
			},
			{
				"x": -0.572067588,
				"y": 1.6735172964,
				"z": 1.3299852122,
				"element": "H" 
			},
			{
				"x": -1.7454743325,
				"y": 0.3490521713,
				"z": 1.1654804873,
				"element": "H" 
			}
		],
		 "valence_orbital": [ 
			{
				"type": "occ",
				"energy": -0.43219,
				"method": "rhf"
			},
			{
				"type": "occ",
				"energy": -0.37753,
				"method": "rhf"
			},
			{
				"type": "occ",
				"energy": -0.3775,
				"method": "rhf"
			},
			{
				"type": "occ",
				"energy": -0.24914,
				"method": "rhf"
			},
			{
				"type": "occ",
				"energy": -0.24436,
				"method": "rhf"
			},
			{
				"type": "unocc",
				"energy": -0.00806,
				"method": "rhf"
			},
			{
				"type": "unocc",
				"energy": 0.00787,
				"method": "rhf"
			},
			{
				"type": "unocc",
				"energy": 0.08957,
				"method": "rhf"
			},
			{
				"type": "unocc",
				"energy": 0.09308,
				"method": "rhf"
			},
			{
				"type": "unocc",
				"energy": 0.14217,
				"method": "rhf"
			}
		],
		"cosmo_sigma_profile": { 
			"-0.025": 0.0,
			"-0.024": 0.0,
			"-0.023": 0.0,
			"-0.022": 0.0,
			"-0.021": 0.0,
			"-0.02": 0.0,
			"-0.019": 0.0,
			"-0.018": 0.0,
			"-0.017": 0.0,
			"-0.016": 0.0,
			"-0.015": 0.0,
			"-0.014": 0.0,
			"-0.013": 0.0,
			"-0.012": 0.0,
			"-0.011": 0.0,
			"-0.01": 0.0,
			"-0.009": 0.0,
			"-0.008": 1.67653808841,
			"-0.007": 7.38830724974,
			"-0.006": 8.30572243853,
			"-0.005": 8.94744940462,
			"-0.004": 10.624793389,
			"-0.003": 4.7504621849,
			"-0.002": 3.66319475358,
			"-0.001": 4.07414050035,
			"0.0": 6.04376991255,
			"0.001": 9.51057008808,
			"0.002": 8.47161904442,
			"0.003": 6.89224859759,
			"0.004": 5.51456900777,
			"0.005": 6.77317250603,
			"0.006": 10.8687447835,
			"0.007": 8.35211651379,
			"0.008": 0.0500538241549,
			"0.009": 0.0,
			"0.01": 0.0,
			"0.011": 0.0,
			"0.012": 0.0,
			"0.013": 0.0,
			"0.014": 0.0,
			"0.015": 0.0,
			"0.016": 0.0,
			"0.017": 0.0,
			"0.018": 0.0,
			"0.019": 0.0,
			"0.02": 0.0,
			"0.021": 0.0,
			"0.022": 0.0,
			"0.023": 0.0,
			"0.024": 0.0,
			"0.025": 0.0
		}
	}
}
