{
	 "smiles": "CC(C)C(C)(C)[Si](C)(C)Cl", 
	 "Tm": 288.15, 
	 "num_atms": 29, 
	 "gaussian": { 
		 "optdone": 1, 
		 "sigma_profile": "yes", 
		 "theory": "DFT", 
		 "functional": "B3LYP", 
		 "basiset": "6-31G**", 
		 "properties": { 
			 "R2extent": 2648.1989, 
			 "electric_dipole_moment_norm": 2.57179542149, 
			 "electric_quadrupole_moment_norm": 9.30327617455, 
			 "total_energy": -1066.08854253, 
			 "HOMO_LUMO_gap": 0.31356, 
			 "cosmo_polarized_energy": -4.28, 
			 "cosmo_cavitation_energy": 30.67, 
			 "cosmo_dispersion_energy": -19.49, 
			 "cosmo_repulsion_energy": 1.62, 
			 "cosmo_total_nonelectrostatic_energy": 12.8, 
			 "SMD_solvation_energy": 5.81 
		},
		"coords": [
			{
				"x": -0.0537544056,
				"y": 3.2106956479,
				"z": -0.6617152334,
				"element": "C" 
			},
			{
				"x": -0.1338073555,
				"y": 2.1157513564,
				"z": 0.4167790992,
				"element": "C" 
			},
			{
				"x": -1.604784463,
				"y": 1.9175036757,
				"z": 0.8277113829,
				"element": "C" 
			},
			{
				"x": 0.6484503168,
				"y": 0.7977937051,
				"z": 0.0722856654,
				"element": "C" 
			},
			{
				"x": 2.1666375225,
				"y": 1.1090664155,
				"z": 0.0669272742,
				"element": "C" 
			},
			{
				"x": 0.407084728,
				"y": -0.2504922346,
				"z": 1.192124206,
				"element": "C" 
			},
			{
				"x": 0.2050581813,
				"y": -0.0719523951,
				"z": -1.5922136931,
				"element": "Si" 
			},
			{
				"x": -1.6320496508,
				"y": -0.2230438055,
				"z": -1.9900142057,
				"element": "C" 
			},
			{
				"x": 0.9827437246,
				"y": -1.7895605915,
				"z": -1.6637708846,
				"element": "C" 
			},
			{
				"x": 1.0606461796,
				"y": 0.9885142548,
				"z": -3.2141880545,
				"element": "Cl" 
			},
			{
				"x": 0.9710825986,
				"y": 3.4190189042,
				"z": -0.9775944565,
				"element": "H" 
			},
			{
				"x": -0.6237019287,
				"y": 2.9420310758,
				"z": -1.5573863551,
				"element": "H" 
			},
			{
				"x": -0.4767978472,
				"y": 4.144300069,
				"z": -0.2751252033,
				"element": "H" 
			},
			{
				"x": 0.3814602016,
				"y": 2.5096922473,
				"z": 1.3084367535,
				"element": "H" 
			},
			{
				"x": -2.2136490294,
				"y": 1.5250280257,
				"z": 0.008012812,
				"element": "H" 
			},
			{
				"x": -1.7157974524,
				"y": 1.2447220149,
				"z": 1.6819670276,
				"element": "H" 
			},
			{
				"x": -2.0376888558,
				"y": 2.8812138548,
				"z": 1.1169073951,
				"element": "H" 
			},
			{
				"x": 2.4451773219,
				"y": 1.8434630828,
				"z": -0.6917933907,
				"element": "H" 
			},
			{
				"x": 2.7639502343,
				"y": 0.2094633782,
				"z": -0.1170357909,
				"element": "H" 
			},
			{
				"x": 2.4695980353,
				"y": 1.5032770047,
				"z": 1.0461014836,
				"element": "H" 
			},
			{
				"x": -0.6094506275,
				"y": -0.6572044884,
				"z": 1.1973687517,
				"element": "H" 
			},
			{
				"x": 0.5783750941,
				"y": 0.2065505155,
				"z": 2.1759282809,
				"element": "H" 
			},
			{
				"x": 1.0992904677,
				"y": -1.0932931378,
				"z": 1.1041956878,
				"element": "H" 
			},
			{
				"x": -1.7560713563,
				"y": -0.8239449063,
				"z": -2.8971658367,
				"element": "H" 
			},
			{
				"x": -2.1756153587,
				"y": -0.7222393622,
				"z": -1.1803007399,
				"element": "H" 
			},
			{
				"x": -2.0999498029,
				"y": 0.7487184867,
				"z": -2.1674508957,
				"element": "H" 
			},
			{
				"x": 0.8438045399,
				"y": -2.2149366594,
				"z": -2.662751393,
				"element": "H" 
			},
			{
				"x": 2.0572035261,
				"y": -1.766081619,
				"z": -1.4595344954,
				"element": "H" 
			},
			{
				"x": 0.5136554616,
				"y": -2.4673545152,
				"z": -0.9423051913,
				"element": "H" 
			}
		],
		 "valence_orbital": [ 
			{
				"type": "occ",
				"energy": -0.31506,
				"method": "rhf"
			},
			{
				"type": "occ",
				"energy": -0.31248,
				"method": "rhf"
			},
			{
				"type": "occ",
				"energy": -0.31054,
				"method": "rhf"
			},
			{
				"type": "occ",
				"energy": -0.2872,
				"method": "rhf"
			},
			{
				"type": "occ",
				"energy": -0.2675,
				"method": "rhf"
			},
			{
				"type": "unocc",
				"energy": 0.04606,
				"method": "rhf"
			},
			{
				"type": "unocc",
				"energy": 0.06168,
				"method": "rhf"
			},
			{
				"type": "unocc",
				"energy": 0.07806,
				"method": "rhf"
			},
			{
				"type": "unocc",
				"energy": 0.09497,
				"method": "rhf"
			},
			{
				"type": "unocc",
				"energy": 0.10183,
				"method": "rhf"
			}
		],
		"cosmo_sigma_profile": { 
			"-0.025": 0.0,
			"-0.024": 0.0,
			"-0.023": 0.0,
			"-0.022": 0.0,
			"-0.021": 0.0,
			"-0.02": 0.0,
			"-0.019": 0.0,
			"-0.018": 0.0,
			"-0.017": 0.0,
			"-0.016": 0.0,
			"-0.015": 0.0,
			"-0.014": 0.0,
			"-0.013": 0.0,
			"-0.012": 0.0,
			"-0.011": 0.0,
			"-0.01": 0.0,
			"-0.009": 0.0,
			"-0.008": 0.0,
			"-0.007": 0.0,
			"-0.006": 0.0,
			"-0.005": 1.70203457375,
			"-0.004": 14.8670119323,
			"-0.003": 25.8544721566,
			"-0.002": 36.420141249,
			"-0.001": 33.7521311985,
			"0.0": 34.5053845562,
			"0.001": 32.6616289064,
			"0.002": 19.3621391019,
			"0.003": 5.82449342497,
			"0.004": 6.62283153008,
			"0.005": 6.50421133276,
			"0.006": 8.42071399501,
			"0.007": 7.31429216744,
			"0.008": 0.247944853951,
			"0.009": 0.0,
			"0.01": 0.0,
			"0.011": 0.0,
			"0.012": 0.0,
			"0.013": 0.0,
			"0.014": 0.0,
			"0.015": 0.0,
			"0.016": 0.0,
			"0.017": 0.0,
			"0.018": 0.0,
			"0.019": 0.0,
			"0.02": 0.0,
			"0.021": 0.0,
			"0.022": 0.0,
			"0.023": 0.0,
			"0.024": 0.0,
			"0.025": 0.0
		}
	}
}
