{
	 "smiles": "OC1=CC=C(I)C=C1", 
	 "Tm": 366.15, 
	 "num_atms": 13, 
	 "gaussian": { 
		 "optdone": 1, 
		 "sigma_profile": "no", 
		 "theory": "DFT", 
		 "functional": "B3LYP", 
		 "basiset": "6-31G**", 
		 "properties": { 
			 "R2extent": 2038.8731, 
			 "electric_dipole_moment_norm": 2.46588630922, 
			 "electric_quadrupole_moment_norm": 5.73499363208, 
			 "total_energy": -318.25513879, 
			 "HOMO_LUMO_gap": 0.18667, 
			 "cosmo_polarized_energy": -99102.42, 
			 "cosmo_cavitation_energy": 20.31, 
			 "cosmo_dispersion_energy": -16.73, 
			 "cosmo_repulsion_energy": 1.35, 
			 "cosmo_total_nonelectrostatic_energy": 4.92, 
			 "SMD_solvation_energy": 3.0 
		},
		"coords": [
			{
				"x": 1.8895273969,
				"y": 2.0591317096,
				"z": 1.0088426497,
				"element": "O" 
			},
			{
				"x": 0.856356174,
				"y": 2.0501746315,
				"z": 0.1181418782,
				"element": "C" 
			},
			{
				"x": -0.0895445254,
				"y": 3.0766953774,
				"z": 0.2191515498,
				"element": "C" 
			},
			{
				"x": -1.1673971158,
				"y": 3.1224139531,
				"z": -0.6612449867,
				"element": "C" 
			},
			{
				"x": -1.3025990806,
				"y": 2.1403813352,
				"z": -1.6465507651,
				"element": "C" 
			},
			{
				"x": -2.9444912584,
				"y": 2.2104424245,
				"z": -2.9871513462,
				"element": "I" 
			},
			{
				"x": -0.3641901951,
				"y": 1.1141595605,
				"z": -1.7537284102,
				"element": "C" 
			},
			{
				"x": 0.7151859459,
				"y": 1.0704408248,
				"z": -0.8702298925,
				"element": "C" 
			},
			{
				"x": 2.4682151389,
				"y": 1.3052952075,
				"z": 0.8356108058,
				"element": "H" 
			},
			{
				"x": 0.0315037503,
				"y": 3.8303328452,
				"z": 0.9900732488,
				"element": "H" 
			},
			{
				"x": -1.8957574454,
				"y": 3.9211204977,
				"z": -0.5761001739,
				"element": "H" 
			},
			{
				"x": -0.4645488505,
				"y": 0.3499894867,
				"z": -2.5163083369,
				"element": "H" 
			},
			{
				"x": 1.4465400651,
				"y": 0.2694221462,
				"z": -0.9548062207,
				"element": "H" 
			}
		],
		 "valence_orbital": [ 
			{
				"type": "occ",
				"energy": -0.347,
				"method": "rhf"
			},
			{
				"type": "occ",
				"energy": -0.2782,
				"method": "rhf"
			},
			{
				"type": "occ",
				"energy": -0.26605,
				"method": "rhf"
			},
			{
				"type": "occ",
				"energy": -0.26561,
				"method": "rhf"
			},
			{
				"type": "occ",
				"energy": -0.22232,
				"method": "rhf"
			},
			{
				"type": "unocc",
				"energy": -0.03565,
				"method": "rhf"
			},
			{
				"type": "unocc",
				"energy": -0.01638,
				"method": "rhf"
			},
			{
				"type": "unocc",
				"energy": -0.00444,
				"method": "rhf"
			},
			{
				"type": "unocc",
				"energy": 0.04398,
				"method": "rhf"
			},
			{
				"type": "unocc",
				"energy": 0.05316,
				"method": "rhf"
			}
		],
		"cosmo_sigma_profile": { 
			"0.0": 0.0,
			"0.0": 0.0,
			"0.0": 0.0,
			"0.0": 0.0,
			"0.0": 0.0,
			"0.0": 0.0,
			"0.0": 0.0,
			"0.0": 0.0,
			"0.0": 0.0,
			"0.0": 0.0,
			"0.0": 0.0,
			"0.0": 0.0,
			"0.0": 0.0,
			"0.0": 0.0,
			"0.0": 0.0,
			"0.0": 0.0,
			"0.0": 0.0,
			"0.0": 0.0,
			"0.0": 0.0,
			"0.0": 0.0,
			"0.0": 0.0,
			"0.0": 0.0,
			"0.0": 0.0,
			"0.0": 0.0,
			"0.0": 0.0,
			"0.0": 0.0,
			"0.0": 0.0,
			"0.0": 0.0,
			"0.0": 0.0,
			"0.0": 0.0,
			"0.0": 0.0,
			"0.0": 0.0,
			"0.0": 0.0,
			"0.0": 0.0,
			"0.0": 0.0,
			"0.0": 0.0,
			"0.0": 0.0,
			"0.0": 0.0,
			"0.0": 0.0,
			"0.0": 0.0,
			"0.0": 0.0,
			"0.0": 0.0,
			"0.0": 0.0,
			"0.0": 0.0,
			"0.0": 0.0,
			"0.0": 0.0,
			"0.0": 0.0,
			"0.0": 0.0,
			"0.0": 0.0,
			"0.0": 0.0,
			"0.0": 0.0
		}
	}
}
