{
	 "smiles": "BrCC1=CC=C(C=C1)C1=C(C=CC=C1)C#N", 
	 "Tm": 401.15, 
	 "num_atms": 26, 
	 "gaussian": { 
		 "optdone": 1, 
		 "sigma_profile": "yes", 
		 "theory": "DFT", 
		 "functional": "B3LYP", 
		 "basiset": "6-31G**", 
		 "properties": { 
			 "R2extent": 7061.958, 
			 "electric_dipole_moment_norm": 5.94986359087, 
			 "electric_quadrupole_moment_norm": 14.5284304985, 
			 "total_energy": -3165.66803995, 
			 "HOMO_LUMO_gap": 0.17848, 
			 "cosmo_polarized_energy": -13.46, 
			 "cosmo_cavitation_energy": 33.71, 
			 "cosmo_dispersion_energy": -23.74, 
			 "cosmo_repulsion_energy": 1.86, 
			 "cosmo_total_nonelectrostatic_energy": 11.82, 
			 "SMD_solvation_energy": 5.34 
		},
		"coords": [
			{
				"x": -3.945409429,
				"y": 0.7028449688,
				"z": 2.6017595793,
				"element": "Br" 
			},
			{
				"x": -2.4136574923,
				"y": 1.9060953743,
				"z": 2.1203102062,
				"element": "C" 
			},
			{
				"x": -1.5281697387,
				"y": 1.3065208607,
				"z": 1.0777346601,
				"element": "C" 
			},
			{
				"x": -1.7357600587,
				"y": 1.5778094054,
				"z": -0.280804975,
				"element": "C" 
			},
			{
				"x": -0.9009757203,
				"y": 1.0364023448,
				"z": -1.2542136272,
				"element": "C" 
			},
			{
				"x": 0.1697093858,
				"y": 0.2010095633,
				"z": -0.8963973998,
				"element": "C" 
			},
			{
				"x": 0.3744444203,
				"y": -0.0708347782,
				"z": 0.4677849654,
				"element": "C" 
			},
			{
				"x": -0.4618730689,
				"y": 0.4712766229,
				"z": 1.4378213135,
				"element": "C" 
			},
			{
				"x": 1.0993279358,
				"y": -0.360965716,
				"z": -1.9104033911,
				"element": "C" 
			},
			{
				"x": 0.6574374132,
				"y": -0.9607976518,
				"z": -3.1163247149,
				"element": "C" 
			},
			{
				"x": 1.5831327576,
				"y": -1.4753794581,
				"z": -4.0417875613,
				"element": "C" 
			},
			{
				"x": 2.9482982535,
				"y": -1.4084566782,
				"z": -3.7867506491,
				"element": "C" 
			},
			{
				"x": 3.3971439121,
				"y": -0.8259294886,
				"z": -2.5999467333,
				"element": "C" 
			},
			{
				"x": 2.4836202633,
				"y": -0.3125607469,
				"z": -1.6817619401,
				"element": "C" 
			},
			{
				"x": -0.7360370846,
				"y": -1.1034700698,
				"z": -3.4305458848,
				"element": "C" 
			},
			{
				"x": -1.8501926241,
				"y": -1.2446473534,
				"z": -3.7347699413,
				"element": "N" 
			},
			{
				"x": -1.8993821107,
				"y": 2.0714957697,
				"z": 3.0653427332,
				"element": "H" 
			},
			{
				"x": -2.8896812767,
				"y": 2.8267296289,
				"z": 1.7880381156,
				"element": "H" 
			},
			{
				"x": -2.5571716981,
				"y": 2.2231121167,
				"z": -0.580082344,
				"element": "H" 
			},
			{
				"x": -1.0743757531,
				"y": 1.2787430071,
				"z": -2.2968598158,
				"element": "H" 
			},
			{
				"x": 1.1841191545,
				"y": -0.7300793924,
				"z": 0.7658788035,
				"element": "H" 
			},
			{
				"x": -0.2938815028,
				"y": 0.2363173841,
				"z": 2.4854863926,
				"element": "H" 
			},
			{
				"x": 1.2131289793,
				"y": -1.9339182741,
				"z": -4.9527808767,
				"element": "H" 
			},
			{
				"x": 3.6548472264,
				"y": -1.8078510957,
				"z": -4.5072991149,
				"element": "H" 
			},
			{
				"x": 4.4610731566,
				"y": -0.7629192339,
				"z": -2.3915889306,
				"element": "H" 
			},
			{
				"x": 2.8436846996,
				"y": 0.1603528905,
				"z": -0.7736388697,
				"element": "H" 
			}
		],
		 "valence_orbital": [ 
			{
				"type": "occ",
				"energy": -0.27238,
				"method": "rhf"
			},
			{
				"type": "occ",
				"energy": -0.27173,
				"method": "rhf"
			},
			{
				"type": "occ",
				"energy": -0.26889,
				"method": "rhf"
			},
			{
				"type": "occ",
				"energy": -0.26317,
				"method": "rhf"
			},
			{
				"type": "occ",
				"energy": -0.24243,
				"method": "rhf"
			},
			{
				"type": "unocc",
				"energy": -0.06395,
				"method": "rhf"
			},
			{
				"type": "unocc",
				"energy": -0.04387,
				"method": "rhf"
			},
			{
				"type": "unocc",
				"energy": -0.01816,
				"method": "rhf"
			},
			{
				"type": "unocc",
				"energy": -0.01699,
				"method": "rhf"
			},
			{
				"type": "unocc",
				"energy": 0.02922,
				"method": "rhf"
			}
		],
		"cosmo_sigma_profile": { 
			"-0.025": 0.0,
			"-0.024": 0.0,
			"-0.023": 0.0,
			"-0.022": 0.0,
			"-0.021": 0.0,
			"-0.02": 0.0,
			"-0.019": 0.0,
			"-0.018": 0.0,
			"-0.017": 0.0,
			"-0.016": 0.0,
			"-0.015": 0.0,
			"-0.014": 0.0,
			"-0.013": 0.0,
			"-0.012": 0.0,
			"-0.011": 0.0,
			"-0.01": 0.0,
			"-0.009": 0.0,
			"-0.008": 4.60566688953,
			"-0.007": 15.8339371441,
			"-0.006": 22.4017231825,
			"-0.005": 22.0395873829,
			"-0.004": 17.539231205,
			"-0.003": 13.8865380923,
			"-0.002": 14.1704092448,
			"-0.001": 18.5955793778,
			"0.0": 17.6323041955,
			"0.001": 20.2193117976,
			"0.002": 21.3902630698,
			"0.003": 21.958955405,
			"0.004": 17.298961102,
			"0.005": 9.92602006907,
			"0.006": 14.5427325734,
			"0.007": 6.89504624677,
			"0.008": 2.5430831522,
			"0.009": 3.21401820969,
			"0.01": 2.98759374036,
			"0.011": 2.80728818658,
			"0.012": 2.51250691757,
			"0.013": 1.749104724,
			"0.014": 0.0896356586732,
			"0.015": 0.0,
			"0.016": 0.0,
			"0.017": 0.0,
			"0.018": 0.0,
			"0.019": 0.0,
			"0.02": 0.0,
			"0.021": 0.0,
			"0.022": 0.0,
			"0.023": 0.0,
			"0.024": 0.0,
			"0.025": 0.0
		}
	}
}
