{
	 "smiles": "OC(=O)COC1=C2N=CC=CC2=CC=C1", 
	 "Tm": 399.15, 
	 "num_atms": 24, 
	 "gaussian": { 
		 "optdone": 1, 
		 "sigma_profile": "yes", 
		 "theory": "DFT", 
		 "functional": "B3LYP", 
		 "basiset": "6-31G**", 
		 "properties": { 
			 "R2extent": 3717.8857, 
			 "electric_dipole_moment_norm": 2.78217667484, 
			 "electric_quadrupole_moment_norm": 12.5584538543, 
			 "total_energy": -705.016414237, 
			 "HOMO_LUMO_gap": 0.16002, 
			 "cosmo_polarized_energy": -13.22, 
			 "cosmo_cavitation_energy": 28.48, 
			 "cosmo_dispersion_energy": -20.63, 
			 "cosmo_repulsion_energy": 1.6, 
			 "cosmo_total_nonelectrostatic_energy": 9.45, 
			 "SMD_solvation_energy": 6.12 
		},
		"coords": [
			{
				"x": -2.7945804156,
				"y": -1.0262402878,
				"z": -1.6166600267,
				"element": "O" 
			},
			{
				"x": -2.4988409988,
				"y": -0.3164912163,
				"z": -2.7223202282,
				"element": "C" 
			},
			{
				"x": -3.3268853878,
				"y": 0.2489940422,
				"z": -3.4013431403,
				"element": "O" 
			},
			{
				"x": -1.031178544,
				"y": -0.3896833259,
				"z": -3.110843765,
				"element": "C" 
			},
			{
				"x": -0.1566853344,
				"y": -0.8913134233,
				"z": -2.110530573,
				"element": "O" 
			},
			{
				"x": 0.454559957,
				"y": -0.0868121313,
				"z": -1.1938920012,
				"element": "C" 
			},
			{
				"x": -0.0507062493,
				"y": 1.1723954583,
				"z": -0.7296760271,
				"element": "C" 
			},
			{
				"x": -1.2284093346,
				"y": 1.6486929445,
				"z": -1.2209998685,
				"element": "N" 
			},
			{
				"x": -1.6803887353,
				"y": 2.805369368,
				"z": -0.7833503129,
				"element": "C" 
			},
			{
				"x": -1.0082027702,
				"y": 3.5958090749,
				"z": 0.180501661,
				"element": "C" 
			},
			{
				"x": 0.1774691797,
				"y": 3.1317266565,
				"z": 0.6967260669,
				"element": "C" 
			},
			{
				"x": 0.7042668275,
				"y": 1.8869791102,
				"z": 0.2611082126,
				"element": "C" 
			},
			{
				"x": 1.9074642737,
				"y": 1.3449389404,
				"z": 0.7749178458,
				"element": "C" 
			},
			{
				"x": 2.351588997,
				"y": 0.1227488255,
				"z": 0.3199973798,
				"element": "C" 
			},
			{
				"x": 1.6319165477,
				"y": -0.5864778366,
				"z": -0.6621044896,
				"element": "C" 
			},
			{
				"x": -3.752024324,
				"y": -0.9221479032,
				"z": -1.4868124947,
				"element": "H" 
			},
			{
				"x": -0.9549047918,
				"y": -1.103886861,
				"z": -3.9394358039,
				"element": "H" 
			},
			{
				"x": -0.7355145331,
				"y": 0.5948905708,
				"z": -3.4751256276,
				"element": "H" 
			},
			{
				"x": -2.6252328887,
				"y": 3.1443724524,
				"z": -1.2056974986,
				"element": "H" 
			},
			{
				"x": -1.4327669954,
				"y": 4.543046187,
				"z": 0.4972423586,
				"element": "H" 
			},
			{
				"x": 0.7247670968,
				"y": 3.7021894095,
				"z": 1.4429485984,
				"element": "H" 
			},
			{
				"x": 2.4615915208,
				"y": 1.8993615829,
				"z": 1.5267984182,
				"element": "H" 
			},
			{
				"x": 3.2709890934,
				"y": -0.3042923682,
				"z": 0.7095233061,
				"element": "H" 
			},
			{
				"x": 1.9868078093,
				"y": -1.5445692695,
				"z": -1.02667199,
				"element": "H" 
			}
		],
		 "valence_orbital": [ 
			{
				"type": "occ",
				"energy": -0.29699,
				"method": "rhf"
			},
			{
				"type": "occ",
				"energy": -0.26799,
				"method": "rhf"
			},
			{
				"type": "occ",
				"energy": -0.25642,
				"method": "rhf"
			},
			{
				"type": "occ",
				"energy": -0.2558,
				"method": "rhf"
			},
			{
				"type": "occ",
				"energy": -0.21397,
				"method": "rhf"
			},
			{
				"type": "unocc",
				"energy": -0.05395,
				"method": "rhf"
			},
			{
				"type": "unocc",
				"energy": -0.02011,
				"method": "rhf"
			},
			{
				"type": "unocc",
				"energy": 0.0176,
				"method": "rhf"
			},
			{
				"type": "unocc",
				"energy": 0.02809,
				"method": "rhf"
			},
			{
				"type": "unocc",
				"energy": 0.08136,
				"method": "rhf"
			}
		],
		"cosmo_sigma_profile": { 
			"-0.025": 0.0,
			"-0.024": 0.0,
			"-0.023": 0.0,
			"-0.022": 0.0,
			"-0.021": 0.0,
			"-0.02": 0.0,
			"-0.019": 0.0951821057158,
			"-0.018": 0.65243718472,
			"-0.017": 0.871625665785,
			"-0.016": 0.76484727696,
			"-0.015": 1.2752836106,
			"-0.014": 0.512459539743,
			"-0.013": 0.434261965218,
			"-0.012": 0.554408816422,
			"-0.011": 1.18444774515,
			"-0.01": 0.400805276044,
			"-0.009": 0.339904839769,
			"-0.008": 3.29442538663,
			"-0.007": 10.6444121593,
			"-0.006": 17.1577844111,
			"-0.005": 17.4664098376,
			"-0.004": 15.2396552345,
			"-0.003": 11.9011972576,
			"-0.002": 10.635811357,
			"-0.001": 10.1951792541,
			"0.0": 11.2449702477,
			"0.001": 17.8889327409,
			"0.002": 22.8115304829,
			"0.003": 17.3449281434,
			"0.004": 13.7117210548,
			"0.005": 7.44897254754,
			"0.006": 3.73398523774,
			"0.007": 5.54786797194,
			"0.008": 5.33779043987,
			"0.009": 4.16206195777,
			"0.01": 3.61492587864,
			"0.011": 4.57118271038,
			"0.012": 5.36557389064,
			"0.013": 1.51342463793,
			"0.014": 0.0,
			"0.015": 0.0,
			"0.016": 0.0,
			"0.017": 0.0,
			"0.018": 0.0,
			"0.019": 0.0,
			"0.02": 0.0,
			"0.021": 0.0,
			"0.022": 0.0,
			"0.023": 0.0,
			"0.024": 0.0,
			"0.025": 0.0
		}
	}
}
