{
	 "smiles": "CCOC(=O)C(C#N)=C(N)C1=CC2=C(OC1=O)C(OC)=CC=C2", 
	 "Tm": 525.15, 
	 "num_atms": 37, 
	 "gaussian": { 
		 "optdone": 1, 
		 "sigma_profile": "yes", 
		 "theory": "DFT", 
		 "functional": "B3LYP", 
		 "basiset": "6-31G**", 
		 "properties": { 
			 "R2extent": 8510.5433, 
			 "electric_dipole_moment_norm": 10.6856482391, 
			 "electric_quadrupole_moment_norm": 17.954977098, 
			 "total_energy": -1103.74107718, 
			 "HOMO_LUMO_gap": 0.12896, 
			 "cosmo_polarized_energy": -25.34, 
			 "cosmo_cavitation_energy": 42.84, 
			 "cosmo_dispersion_energy": -29.03, 
			 "cosmo_repulsion_energy": 2.2, 
			 "cosmo_total_nonelectrostatic_energy": 16.01, 
			 "SMD_solvation_energy": 11.0 
		},
		"coords": [
			{
				"x": 1.8903220658,
				"y": -0.4827136942,
				"z": -3.1155181362,
				"element": "C" 
			},
			{
				"x": 0.5968349492,
				"y": 0.2926023055,
				"z": -2.9118548,
				"element": "C" 
			},
			{
				"x": -0.2978346159,
				"y": -0.3831879012,
				"z": -1.9964566271,
				"element": "O" 
			},
			{
				"x": -1.1028344937,
				"y": -1.332250362,
				"z": -2.5440877837,
				"element": "C" 
			},
			{
				"x": -1.076482772,
				"y": -1.6182006121,
				"z": -3.7275761068,
				"element": "O" 
			},
			{
				"x": -2.0707728688,
				"y": -1.9345496514,
				"z": -1.6056086025,
				"element": "C" 
			},
			{
				"x": -3.1380303395,
				"y": -2.630915648,
				"z": -2.2488301611,
				"element": "C" 
			},
			{
				"x": -4.063909258,
				"y": -3.2062465987,
				"z": -2.6631847355,
				"element": "N" 
			},
			{
				"x": -2.1854740994,
				"y": -1.8071094786,
				"z": -0.2172311247,
				"element": "C" 
			},
			{
				"x": -3.3051579573,
				"y": -2.219611671,
				"z": 0.4178727032,
				"element": "N" 
			},
			{
				"x": -1.0919167483,
				"y": -1.3343596582,
				"z": 0.6696964491,
				"element": "C" 
			},
			{
				"x": 0.2075283983,
				"y": -1.6673559787,
				"z": 0.4298181151,
				"element": "C" 
			},
			{
				"x": 1.2782105636,
				"y": -1.2107906488,
				"z": 1.2656142106,
				"element": "C" 
			},
			{
				"x": 0.9334765992,
				"y": -0.3981529239,
				"z": 2.3535765408,
				"element": "C" 
			},
			{
				"x": -0.3665719204,
				"y": -0.1077670242,
				"z": 2.6353658109,
				"element": "O" 
			},
			{
				"x": -1.4259174074,
				"y": -0.597427491,
				"z": 1.8981237634,
				"element": "C" 
			},
			{
				"x": -2.5422227132,
				"y": -0.3918198944,
				"z": 2.3344315051,
				"element": "O" 
			},
			{
				"x": 1.918613723,
				"y": 0.1354975601,
				"z": 3.2136729335,
				"element": "C" 
			},
			{
				"x": 1.4662236569,
				"y": 0.9101821227,
				"z": 4.2268013871,
				"element": "O" 
			},
			{
				"x": 2.4193148326,
				"y": 1.4679636693,
				"z": 5.1229966532,
				"element": "C" 
			},
			{
				"x": 3.2536645171,
				"y": -0.1771443512,
				"z": 2.9547280962,
				"element": "C" 
			},
			{
				"x": 3.6052374146,
				"y": -1.0004437411,
				"z": 1.8699850326,
				"element": "C" 
			},
			{
				"x": 2.6368026501,
				"y": -1.5175010867,
				"z": 1.0297987947,
				"element": "C" 
			},
			{
				"x": 2.5645025782,
				"y": 0.0845136904,
				"z": -3.766070901,
				"element": "H" 
			},
			{
				"x": 2.4013000935,
				"y": -0.6505166568,
				"z": -2.1620105452,
				"element": "H" 
			},
			{
				"x": 1.688081675,
				"y": -1.4456988697,
				"z": -3.5906284676,
				"element": "H" 
			},
			{
				"x": 0.78185766,
				"y": 1.2605591323,
				"z": -2.4394578473,
				"element": "H" 
			},
			{
				"x": 0.0794251868,
				"y": 0.4441589867,
				"z": -3.8614488144,
				"element": "H" 
			},
			{
				"x": -3.4523118145,
				"y": -1.8823717157,
				"z": 1.3615727291,
				"element": "H" 
			},
			{
				"x": -4.1132250868,
				"y": -2.4667954203,
				"z": -0.1384339197,
				"element": "H" 
			},
			{
				"x": 0.4518714703,
				"y": -2.2939083644,
				"z": -0.4203230932,
				"element": "H" 
			},
			{
				"x": 2.9830180183,
				"y": 0.6861471022,
				"z": 5.6469219966,
				"element": "H" 
			},
			{
				"x": 3.1186020021,
				"y": 2.1336180762,
				"z": 4.6020088782,
				"element": "H" 
			},
			{
				"x": 1.8428348577,
				"y": 2.0444256971,
				"z": 5.8467135203,
				"element": "H" 
			},
			{
				"x": 4.0337453807,
				"y": 0.2136574763,
				"z": 3.5967413631,
				"element": "H" 
			},
			{
				"x": 4.6528240105,
				"y": -1.2263627783,
				"z": 1.6992791746,
				"element": "H" 
			},
			{
				"x": 2.9006697921,
				"y": -2.1531235981,
				"z": 0.1906020084,
				"element": "H" 
			}
		],
		 "valence_orbital": [ 
			{
				"type": "occ",
				"energy": -0.29454,
				"method": "rhf"
			},
			{
				"type": "occ",
				"energy": -0.27055,
				"method": "rhf"
			},
			{
				"type": "occ",
				"energy": -0.2606,
				"method": "rhf"
			},
			{
				"type": "occ",
				"energy": -0.24489,
				"method": "rhf"
			},
			{
				"type": "occ",
				"energy": -0.22541,
				"method": "rhf"
			},
			{
				"type": "unocc",
				"energy": -0.09645,
				"method": "rhf"
			},
			{
				"type": "unocc",
				"energy": -0.04198,
				"method": "rhf"
			},
			{
				"type": "unocc",
				"energy": -0.02405,
				"method": "rhf"
			},
			{
				"type": "unocc",
				"energy": -0.00801,
				"method": "rhf"
			},
			{
				"type": "unocc",
				"energy": 0.02889,
				"method": "rhf"
			}
		],
		"cosmo_sigma_profile": { 
			"-0.025": 0.0,
			"-0.024": 0.0,
			"-0.023": 0.0,
			"-0.022": 0.0,
			"-0.021": 0.0,
			"-0.02": 0.0,
			"-0.019": 0.0,
			"-0.018": 0.0,
			"-0.017": 0.0,
			"-0.016": 0.0,
			"-0.015": 0.0364548263669,
			"-0.014": 0.499065188303,
			"-0.013": 1.05666750815,
			"-0.012": 1.63535551749,
			"-0.011": 1.97732034928,
			"-0.01": 1.12044210676,
			"-0.009": 3.95741920506,
			"-0.008": 6.00826024647,
			"-0.007": 12.385188046,
			"-0.006": 21.2080768344,
			"-0.005": 23.4348955358,
			"-0.004": 28.1651865053,
			"-0.003": 30.0539921142,
			"-0.002": 29.0366743238,
			"-0.001": 26.7032124288,
			"0.0": 27.556468791,
			"0.001": 18.9320429252,
			"0.002": 15.2987595814,
			"0.003": 14.1493745519,
			"0.004": 8.33029578894,
			"0.005": 7.64962646138,
			"0.006": 6.46294533007,
			"0.007": 6.86630930436,
			"0.008": 9.06796298084,
			"0.009": 9.35016022743,
			"0.01": 9.79159509506,
			"0.011": 9.09433232902,
			"0.012": 8.86469655191,
			"0.013": 3.73735529882,
			"0.014": 0.847467465329,
			"0.015": 0.0,
			"0.016": 0.0,
			"0.017": 0.0,
			"0.018": 0.0,
			"0.019": 0.0,
			"0.02": 0.0,
			"0.021": 0.0,
			"0.022": 0.0,
			"0.023": 0.0,
			"0.024": 0.0,
			"0.025": 0.0
		}
	}
}
