{
	 "smiles": "OC(CO[N+]([O-])=O)CO[N+]([O-])=O", 
	 "Tm": 299.15, 
	 "num_atms": 18, 
	 "gaussian": { 
		 "optdone": 1, 
		 "sigma_profile": "yes", 
		 "theory": "DFT", 
		 "functional": "B3LYP", 
		 "basiset": "6-31G**", 
		 "properties": { 
			 "R2extent": 2485.645, 
			 "electric_dipole_moment_norm": 5.71734129119, 
			 "electric_quadrupole_moment_norm": 9.75092214767, 
			 "total_energy": -753.697930978, 
			 "HOMO_LUMO_gap": 0.21487, 
			 "cosmo_polarized_energy": -15.63, 
			 "cosmo_cavitation_energy": 23.95, 
			 "cosmo_dispersion_energy": -16.95, 
			 "cosmo_repulsion_energy": 1.39, 
			 "cosmo_total_nonelectrostatic_energy": 8.39, 
			 "SMD_solvation_energy": 9.98 
		},
		"coords": [
			{
				"x": 0.455208241,
				"y": 0.6969754747,
				"z": 0.2203810635,
				"element": "O" 
			},
			{
				"x": -0.1665696613,
				"y": -0.5395239066,
				"z": 0.4881381849,
				"element": "C" 
			},
			{
				"x": -1.6865019411,
				"y": -0.5165325987,
				"z": 0.26963447,
				"element": "C" 
			},
			{
				"x": -2.0842613453,
				"y": -0.0929593097,
				"z": -1.0506324661,
				"element": "O" 
			},
			{
				"x": -2.2543371153,
				"y": 1.3034835681,
				"z": -1.2053134149,
				"element": "N" 
			},
			{
				"x": -2.6059071066,
				"y": 1.6056417147,
				"z": -2.313085539,
				"element": "O" 
			},
			{
				"x": -2.0539885109,
				"y": 2.0207717707,
				"z": -0.2369752935,
				"element": "O" 
			},
			{
				"x": 0.5785064628,
				"y": -1.5962401909,
				"z": -0.3294522431,
				"element": "C" 
			},
			{
				"x": 0.4731306289,
				"y": -1.3517874142,
				"z": -1.7387873376,
				"element": "O" 
			},
			{
				"x": 1.5962905757,
				"y": -0.6735842465,
				"z": -2.3231687259,
				"element": "N" 
			},
			{
				"x": 2.6043863379,
				"y": -0.5592857708,
				"z": -1.6643525842,
				"element": "O" 
			},
			{
				"x": 1.3657148292,
				"y": -0.3309380776,
				"z": -3.453702112,
				"element": "O" 
			},
			{
				"x": -0.1333469139,
				"y": 1.4154836902,
				"z": 0.4900380522,
				"element": "H" 
			},
			{
				"x": -0.0403067152,
				"y": -0.8412710636,
				"z": 1.5462982917,
				"element": "H" 
			},
			{
				"x": -2.1723618504,
				"y": 0.121433155,
				"z": 1.0114970048,
				"element": "H" 
			},
			{
				"x": -2.1015793426,
				"y": -1.5253372936,
				"z": 0.3488848427,
				"element": "H" 
			},
			{
				"x": 0.1444312316,
				"y": -2.5889465409,
				"z": -0.1756629371,
				"element": "H" 
			},
			{
				"x": 1.6297921954,
				"y": -1.6117829606,
				"z": -0.0385392564,
				"element": "H" 
			}
		],
		 "valence_orbital": [ 
			{
				"type": "occ",
				"energy": -0.33514,
				"method": "rhf"
			},
			{
				"type": "occ",
				"energy": -0.33189,
				"method": "rhf"
			},
			{
				"type": "occ",
				"energy": -0.31722,
				"method": "rhf"
			},
			{
				"type": "occ",
				"energy": -0.31363,
				"method": "rhf"
			},
			{
				"type": "occ",
				"energy": -0.297,
				"method": "rhf"
			},
			{
				"type": "unocc",
				"energy": -0.08213,
				"method": "rhf"
			},
			{
				"type": "unocc",
				"energy": -0.06254,
				"method": "rhf"
			},
			{
				"type": "unocc",
				"energy": 0.02489,
				"method": "rhf"
			},
			{
				"type": "unocc",
				"energy": 0.04413,
				"method": "rhf"
			},
			{
				"type": "unocc",
				"energy": 0.06147,
				"method": "rhf"
			}
		],
		"cosmo_sigma_profile": { 
			"-0.025": 0.0,
			"-0.024": 0.0,
			"-0.023": 0.0,
			"-0.022": 0.0,
			"-0.021": 0.0,
			"-0.02": 0.0,
			"-0.019": 0.0,
			"-0.018": 0.0,
			"-0.017": 0.0,
			"-0.016": 0.0,
			"-0.015": 0.0,
			"-0.014": 0.0,
			"-0.013": 0.0316539278645,
			"-0.012": 0.917272348781,
			"-0.011": 1.56094637412,
			"-0.01": 3.33553345585,
			"-0.009": 7.03765389319,
			"-0.008": 11.836838958,
			"-0.007": 14.2996292148,
			"-0.006": 11.2167401339,
			"-0.005": 9.18942444118,
			"-0.004": 7.74074918364,
			"-0.003": 5.69090191391,
			"-0.002": 6.53829276403,
			"-0.001": 6.51408456822,
			"0.0": 6.94693169877,
			"0.001": 6.79527020335,
			"0.002": 6.99947403539,
			"0.003": 8.57919855129,
			"0.004": 10.9445282802,
			"0.005": 17.7203554067,
			"0.006": 22.0177836262,
			"0.007": 13.8413012054,
			"0.008": 5.41167128569,
			"0.009": 1.49550613157,
			"0.01": 0.714182485182,
			"0.011": 1.30333582299,
			"0.012": 0.644888425397,
			"0.013": 0.296478725409,
			"0.014": 0.0,
			"0.015": 0.0,
			"0.016": 0.0,
			"0.017": 0.0,
			"0.018": 0.0,
			"0.019": 0.0,
			"0.02": 0.0,
			"0.021": 0.0,
			"0.022": 0.0,
			"0.023": 0.0,
			"0.024": 0.0,
			"0.025": 0.0
		}
	}
}
