{
	 "smiles": "OC(=O)CC1COCCN1", 
	 "Tm": 527.15, 
	 "num_atms": 21, 
	 "gaussian": { 
		 "optdone": 1, 
		 "sigma_profile": "yes", 
		 "theory": "DFT", 
		 "functional": "B3LYP", 
		 "basiset": "6-31G**", 
		 "properties": { 
			 "R2extent": 2744.8758, 
			 "electric_dipole_moment_norm": 4.30826921164, 
			 "electric_quadrupole_moment_norm": 13.7366726073, 
			 "total_energy": -515.667532028, 
			 "HOMO_LUMO_gap": 0.23251, 
			 "cosmo_polarized_energy": -17.44, 
			 "cosmo_cavitation_energy": 23.31, 
			 "cosmo_dispersion_energy": -17.31, 
			 "cosmo_repulsion_energy": 1.41, 
			 "cosmo_total_nonelectrostatic_energy": 7.41, 
			 "SMD_solvation_energy": 2.43 
		},
		"coords": [
			{
				"x": 3.0182461185,
				"y": -0.8536558208,
				"z": -1.1966346156,
				"element": "O" 
			},
			{
				"x": 3.1223811686,
				"y": -0.2979321604,
				"z": 0.0420262573,
				"element": "C" 
			},
			{
				"x": 3.6990478853,
				"y": 0.7520425884,
				"z": 0.1843218415,
				"element": "O" 
			},
			{
				"x": 2.4188787179,
				"y": -1.0475298391,
				"z": 1.1622763181,
				"element": "C" 
			},
			{
				"x": 0.9193023757,
				"y": -0.6899850834,
				"z": 1.2312704335,
				"element": "C" 
			},
			{
				"x": 0.6857192671,
				"y": 0.7774106374,
				"z": 1.7093084277,
				"element": "C" 
			},
			{
				"x": 0.3875501706,
				"y": 0.78414559,
				"z": 3.0970451617,
				"element": "O" 
			},
			{
				"x": -0.8798668658,
				"y": 0.1880195739,
				"z": 3.3567905545,
				"element": "C" 
			},
			{
				"x": -1.0457618468,
				"y": -1.1323982149,
				"z": 2.5551112186,
				"element": "C" 
			},
			{
				"x": 0.2487811256,
				"y": -1.6595572755,
				"z": 2.1130174137,
				"element": "N" 
			},
			{
				"x": 2.5453275255,
				"y": -1.6963542203,
				"z": -1.147412906,
				"element": "H" 
			},
			{
				"x": 2.5145418479,
				"y": -2.1322770525,
				"z": 1.031078868,
				"element": "H" 
			},
			{
				"x": 2.9030910367,
				"y": -0.7701818884,
				"z": 2.1031143888,
				"element": "H" 
			},
			{
				"x": 0.4845375083,
				"y": -0.8056073329,
				"z": 0.2267885601,
				"element": "H" 
			},
			{
				"x": 1.5824327019,
				"y": 1.3871067127,
				"z": 1.5727089091,
				"element": "H" 
			},
			{
				"x": -0.1323373333,
				"y": 1.2444157223,
				"z": 1.1376699771,
				"element": "H" 
			},
			{
				"x": -0.8985181197,
				"y": 0.0002013744,
				"z": 4.4350655106,
				"element": "H" 
			},
			{
				"x": -1.6928583169,
				"y": 0.8949285646,
				"z": 3.1210002981,
				"element": "H" 
			},
			{
				"x": -1.5574703067,
				"y": -1.8890581569,
				"z": 3.1584290303,
				"element": "H" 
			},
			{
				"x": -1.6612679218,
				"y": -0.971814098,
				"z": 1.6617686185,
				"element": "H" 
			},
			{
				"x": 0.8320432613,
				"y": -1.7802196207,
				"z": 2.9404557346,
				"element": "H" 
			}
		],
		 "valence_orbital": [ 
			{
				"type": "occ",
				"energy": -0.3234,
				"method": "rhf"
			},
			{
				"type": "occ",
				"energy": -0.31821,
				"method": "rhf"
			},
			{
				"type": "occ",
				"energy": -0.27277,
				"method": "rhf"
			},
			{
				"type": "occ",
				"energy": -0.27113,
				"method": "rhf"
			},
			{
				"type": "occ",
				"energy": -0.23027,
				"method": "rhf"
			},
			{
				"type": "unocc",
				"energy": 0.00224,
				"method": "rhf"
			},
			{
				"type": "unocc",
				"energy": 0.04766,
				"method": "rhf"
			},
			{
				"type": "unocc",
				"energy": 0.06838,
				"method": "rhf"
			},
			{
				"type": "unocc",
				"energy": 0.09552,
				"method": "rhf"
			},
			{
				"type": "unocc",
				"energy": 0.11556,
				"method": "rhf"
			}
		],
		"cosmo_sigma_profile": { 
			"-0.025": 0.0,
			"-0.024": 0.0,
			"-0.023": 0.0,
			"-0.022": 0.0,
			"-0.021": 0.0,
			"-0.02": 0.0,
			"-0.019": 0.578831530373,
			"-0.018": 0.892707627005,
			"-0.017": 1.22278883527,
			"-0.016": 1.19044467294,
			"-0.015": 0.973223878869,
			"-0.014": 0.831532602716,
			"-0.013": 0.845134338766,
			"-0.012": 0.95753315926,
			"-0.011": 2.00736607824,
			"-0.01": 1.73595035592,
			"-0.009": 2.28444177228,
			"-0.008": 2.69440638597,
			"-0.007": 3.14392055391,
			"-0.006": 5.0020406921,
			"-0.005": 13.0953624121,
			"-0.004": 25.7950353185,
			"-0.003": 19.4410732045,
			"-0.002": 15.8746960624,
			"-0.001": 9.55935783611,
			"0.0": 5.93281954322,
			"0.001": 5.2173093089,
			"0.002": 5.4033063753,
			"0.003": 4.57464845769,
			"0.004": 3.57317646882,
			"0.005": 3.80606462026,
			"0.006": 4.28131127604,
			"0.007": 3.73745620711,
			"0.008": 4.51469822462,
			"0.009": 5.31889600321,
			"0.01": 5.68301961226,
			"0.011": 7.04017587329,
			"0.012": 6.6020302624,
			"0.013": 4.38405153475,
			"0.014": 1.12947364728,
			"0.015": 0.542414536208,
			"0.016": 0.526252336662,
			"0.017": 0.473101993175,
			"0.018": 0.203788072503,
			"0.019": 0.0,
			"0.02": 0.0,
			"0.021": 0.0,
			"0.022": 0.0,
			"0.023": 0.0,
			"0.024": 0.0,
			"0.025": 0.0
		}
	}
}
