{
	 "smiles": "NC(=O)CN1C=NC(=N1)C#N", 
	 "Tm": 468.15, 
	 "num_atms": 16, 
	 "gaussian": { 
		 "optdone": 1, 
		 "sigma_profile": "yes", 
		 "theory": "DFT", 
		 "functional": "B3LYP", 
		 "basiset": "6-31G**", 
		 "properties": { 
			 "R2extent": 2604.7403, 
			 "electric_dipole_moment_norm": 8.88130588652, 
			 "electric_quadrupole_moment_norm": 27.6923045274, 
			 "total_energy": -542.495649056, 
			 "HOMO_LUMO_gap": 0.238, 
			 "cosmo_polarized_energy": -22.24, 
			 "cosmo_cavitation_energy": 22.81, 
			 "cosmo_dispersion_energy": -16.25, 
			 "cosmo_repulsion_energy": 1.33, 
			 "cosmo_total_nonelectrostatic_energy": 7.9, 
			 "SMD_solvation_energy": 3.62 
		},
		"coords": [
			{
				"x": -3.4760174845,
				"y": -0.017117593,
				"z": -2.6203055832,
				"element": "N" 
			},
			{
				"x": -2.383272362,
				"y": 0.2886872932,
				"z": -1.8711423266,
				"element": "C" 
			},
			{
				"x": -1.8222634235,
				"y": 1.3716985298,
				"z": -1.9004619749,
				"element": "O" 
			},
			{
				"x": -1.9527039322,
				"y": -0.8185354699,
				"z": -0.8944398802,
				"element": "C" 
			},
			{
				"x": -0.5130056039,
				"y": -0.8440251471,
				"z": -0.7023618322,
				"element": "N" 
			},
			{
				"x": 0.3437748291,
				"y": 0.1477944987,
				"z": -0.3430772655,
				"element": "C" 
			},
			{
				"x": 1.574193726,
				"y": -0.3214322612,
				"z": -0.2572544585,
				"element": "N" 
			},
			{
				"x": 1.410998936,
				"y": -1.6373944507,
				"z": -0.5822561616,
				"element": "C" 
			},
			{
				"x": 0.1607526455,
				"y": -2.0053071079,
				"z": -0.8603844908,
				"element": "N" 
			},
			{
				"x": 2.4908333053,
				"y": -2.5746075383,
				"z": -0.6275590261,
				"element": "C" 
			},
			{
				"x": 3.3691653399,
				"y": -3.3337484929,
				"z": -0.6635651623,
				"element": "N" 
			},
			{
				"x": -3.8432519087,
				"y": -0.9525422929,
				"z": -2.6903409684,
				"element": "H" 
			},
			{
				"x": -3.812213944,
				"y": 0.6819668269,
				"z": -3.2667992376,
				"element": "H" 
			},
			{
				"x": -2.2313609028,
				"y": -1.8177591157,
				"z": -1.231911655,
				"element": "H" 
			},
			{
				"x": -2.4536059464,
				"y": -0.6302917777,
				"z": 0.062781255,
				"element": "H" 
			},
			{
				"x": 0.0236767263,
				"y": 1.1666140987,
				"z": -0.1910212322,
				"element": "H" 
			}
		],
		 "valence_orbital": [ 
			{
				"type": "occ",
				"energy": -0.31735,
				"method": "rhf"
			},
			{
				"type": "occ",
				"energy": -0.30718,
				"method": "rhf"
			},
			{
				"type": "occ",
				"energy": -0.30099,
				"method": "rhf"
			},
			{
				"type": "occ",
				"energy": -0.28779,
				"method": "rhf"
			},
			{
				"type": "occ",
				"energy": -0.27675,
				"method": "rhf"
			},
			{
				"type": "unocc",
				"energy": -0.03875,
				"method": "rhf"
			},
			{
				"type": "unocc",
				"energy": -0.0145,
				"method": "rhf"
			},
			{
				"type": "unocc",
				"energy": 0.00373,
				"method": "rhf"
			},
			{
				"type": "unocc",
				"energy": 0.0265,
				"method": "rhf"
			},
			{
				"type": "unocc",
				"energy": 0.04072,
				"method": "rhf"
			}
		],
		"cosmo_sigma_profile": { 
			"-0.025": 0.0,
			"-0.024": 0.0,
			"-0.023": 0.0,
			"-0.022": 0.0,
			"-0.021": 0.0,
			"-0.02": 0.0,
			"-0.019": 0.0,
			"-0.018": 0.0,
			"-0.017": 0.0,
			"-0.016": 0.649471534031,
			"-0.015": 2.79748283532,
			"-0.014": 3.41911220506,
			"-0.013": 2.61027457558,
			"-0.012": 2.55404220827,
			"-0.011": 2.88514060286,
			"-0.01": 6.20450312843,
			"-0.009": 7.60537135686,
			"-0.008": 5.9223259054,
			"-0.007": 7.13444162718,
			"-0.006": 5.70408064761,
			"-0.005": 4.88841912467,
			"-0.004": 6.05040882273,
			"-0.003": 9.45202761634,
			"-0.002": 9.33144669302,
			"-0.001": 8.57649723021,
			"0.0": 9.15401201172,
			"0.001": 10.9662494233,
			"0.002": 9.3059176195,
			"0.003": 6.8770079323,
			"0.004": 7.30044313805,
			"0.005": 7.05966920892,
			"0.006": 6.75866754384,
			"0.007": 6.59017998743,
			"0.008": 5.65811720391,
			"0.009": 6.33324133092,
			"0.01": 5.9669578045,
			"0.011": 6.06418806109,
			"0.012": 5.4288463291,
			"0.013": 3.63304493027,
			"0.014": 0.982682325955,
			"0.015": 0.19410487662,
			"0.016": 0.0,
			"0.017": 0.0,
			"0.018": 0.0,
			"0.019": 0.0,
			"0.02": 0.0,
			"0.021": 0.0,
			"0.022": 0.0,
			"0.023": 0.0,
			"0.024": 0.0,
			"0.025": 0.0
		}
	}
}
