{
	 "smiles": "CCCC1=NC2=C(CCN(CC3=CC=CC=C3)C2)C(=O)N1", 
	 "Tm": 445.15, 
	 "num_atms": 42, 
	 "gaussian": { 
		 "optdone": 1, 
		 "sigma_profile": "yes", 
		 "theory": "DFT", 
		 "functional": "B3LYP", 
		 "basiset": "6-31G**", 
		 "properties": { 
			 "R2extent": 9527.3373, 
			 "electric_dipole_moment_norm": 2.99847321816, 
			 "electric_quadrupole_moment_norm": 27.437162533, 
			 "total_energy": -899.977364309, 
			 "HOMO_LUMO_gap": 0.18345, 
			 "cosmo_polarized_energy": -15.99, 
			 "cosmo_cavitation_energy": 43.81, 
			 "cosmo_dispersion_energy": -30.63, 
			 "cosmo_repulsion_energy": 2.37, 
			 "cosmo_total_nonelectrostatic_energy": 15.55, 
			 "SMD_solvation_energy": 4.36 
		},
		"coords": [
			{
				"x": -1.7710608625,
				"y": 3.8471903418,
				"z": -4.6766575175,
				"element": "C" 
			},
			{
				"x": -1.6847319043,
				"y": 2.5532089351,
				"z": -5.4909860549,
				"element": "C" 
			},
			{
				"x": -0.5977503091,
				"y": 1.5764197928,
				"z": -4.9889118421,
				"element": "C" 
			},
			{
				"x": -0.8352863236,
				"y": 1.0628348421,
				"z": -3.5912212389,
				"element": "C" 
			},
			{
				"x": -0.0675912718,
				"y": 1.4358110799,
				"z": -2.6060252122,
				"element": "N" 
			},
			{
				"x": -0.355997297,
				"y": 0.9299319863,
				"z": -1.3542713416,
				"element": "C" 
			},
			{
				"x": -1.3978707537,
				"y": 0.0868361674,
				"z": -1.0796387574,
				"element": "C" 
			},
			{
				"x": -1.6796956583,
				"y": -0.4025680202,
				"z": 0.3140972979,
				"element": "C" 
			},
			{
				"x": -0.9483073644,
				"y": 0.4512277733,
				"z": 1.3507874655,
				"element": "C" 
			},
			{
				"x": 0.4540246802,
				"y": 0.6199610453,
				"z": 0.9605629183,
				"element": "N" 
			},
			{
				"x": 1.2833017709,
				"y": 1.1746704867,
				"z": 2.0285640615,
				"element": "C" 
			},
			{
				"x": 1.489313828,
				"y": 0.2178448534,
				"z": 3.1885403018,
				"element": "C" 
			},
			{
				"x": 1.7813095436,
				"y": -1.13306824,
				"z": 2.953643883,
				"element": "C" 
			},
			{
				"x": 2.0189076807,
				"y": -2.0026305679,
				"z": 4.0174346622,
				"element": "C" 
			},
			{
				"x": 1.9724027397,
				"y": -1.5343358271,
				"z": 5.3334047603,
				"element": "C" 
			},
			{
				"x": 1.6806891493,
				"y": -0.1920069879,
				"z": 5.5770403011,
				"element": "C" 
			},
			{
				"x": 1.4370272398,
				"y": 0.6755805578,
				"z": 4.5096986376,
				"element": "C" 
			},
			{
				"x": 0.5746409666,
				"y": 1.4019866203,
				"z": -0.2643539054,
				"element": "C" 
			},
			{
				"x": -2.2621250289,
				"y": -0.3444826969,
				"z": -2.1630554568,
				"element": "C" 
			},
			{
				"x": -3.2264730697,
				"y": -1.0981944407,
				"z": -2.086957015,
				"element": "O" 
			},
			{
				"x": -1.886689052,
				"y": 0.2090780775,
				"z": -3.406613187,
				"element": "N" 
			},
			{
				"x": -2.5394305726,
				"y": 4.512386728,
				"z": -5.0826714018,
				"element": "H" 
			},
			{
				"x": -2.0187499803,
				"y": 3.6486790623,
				"z": -3.6292359336,
				"element": "H" 
			},
			{
				"x": -0.8171277569,
				"y": 4.3850894403,
				"z": -4.6915195854,
				"element": "H" 
			},
			{
				"x": -2.6614625668,
				"y": 2.0511100883,
				"z": -5.4937566416,
				"element": "H" 
			},
			{
				"x": -1.4646600434,
				"y": 2.7887999357,
				"z": -6.5388458433,
				"element": "H" 
			},
			{
				"x": -0.5304104495,
				"y": 0.7231368523,
				"z": -5.6768639081,
				"element": "H" 
			},
			{
				"x": 0.3765664228,
				"y": 2.0712187313,
				"z": -4.9805813576,
				"element": "H" 
			},
			{
				"x": -1.3665508926,
				"y": -1.4505226824,
				"z": 0.4074711334,
				"element": "H" 
			},
			{
				"x": -2.7607888685,
				"y": -0.3907068154,
				"z": 0.4920131073,
				"element": "H" 
			},
			{
				"x": -1.4553613082,
				"y": 1.4310779205,
				"z": 1.45833937,
				"element": "H" 
			},
			{
				"x": -0.9790665922,
				"y": -0.0370083101,
				"z": 2.3281336094,
				"element": "H" 
			},
			{
				"x": 0.8807534833,
				"y": 2.1337421885,
				"z": 2.4101556937,
				"element": "H" 
			},
			{
				"x": 2.2608306211,
				"y": 1.4114695134,
				"z": 1.586557797,
				"element": "H" 
			},
			{
				"x": 1.8051014929,
				"y": -1.4919991541,
				"z": 1.9291481145,
				"element": "H" 
			},
			{
				"x": 2.2416991094,
				"y": -3.0477769224,
				"z": 3.8203569028,
				"element": "H" 
			},
			{
				"x": 2.1579940064,
				"y": -2.2123852514,
				"z": 6.1616323093,
				"element": "H" 
			},
			{
				"x": 1.635140294,
				"y": 0.1801168851,
				"z": 6.5968272411,
				"element": "H" 
			},
			{
				"x": 1.2029738026,
				"y": 1.7196679262,
				"z": 4.7049686496,
				"element": "H" 
			},
			{
				"x": 0.3748889612,
				"y": 2.4825236737,
				"z": -0.1006378074,
				"element": "H" 
			},
			{
				"x": 1.6028043847,
				"y": 1.3383158086,
				"z": -0.640002647,
				"element": "H" 
			},
			{
				"x": -2.4654822509,
				"y": -0.0734313975,
				"z": -4.1893715626,
				"element": "H" 
			}
		],
		 "valence_orbital": [ 
			{
				"type": "occ",
				"energy": -0.25253,
				"method": "rhf"
			},
			{
				"type": "occ",
				"energy": -0.24572,
				"method": "rhf"
			},
			{
				"type": "occ",
				"energy": -0.24013,
				"method": "rhf"
			},
			{
				"type": "occ",
				"energy": -0.22676,
				"method": "rhf"
			},
			{
				"type": "occ",
				"energy": -0.21705,
				"method": "rhf"
			},
			{
				"type": "unocc",
				"energy": -0.0336,
				"method": "rhf"
			},
			{
				"type": "unocc",
				"energy": 0.00024,
				"method": "rhf"
			},
			{
				"type": "unocc",
				"energy": 0.00292,
				"method": "rhf"
			},
			{
				"type": "unocc",
				"energy": 0.00466,
				"method": "rhf"
			},
			{
				"type": "unocc",
				"energy": 0.06533,
				"method": "rhf"
			}
		],
		"cosmo_sigma_profile": { 
			"-0.025": 0.0,
			"-0.024": 0.0,
			"-0.023": 0.0,
			"-0.022": 0.0,
			"-0.021": 0.0,
			"-0.02": 0.0,
			"-0.019": 0.0,
			"-0.018": 0.0,
			"-0.017": 0.0,
			"-0.016": 0.162483350062,
			"-0.015": 0.951957684733,
			"-0.014": 1.06631588414,
			"-0.013": 1.03785309039,
			"-0.012": 1.04822904051,
			"-0.011": 1.56848599797,
			"-0.01": 1.15365680197,
			"-0.009": 1.36383017751,
			"-0.008": 1.27320654001,
			"-0.007": 2.26105567327,
			"-0.006": 3.95882219872,
			"-0.005": 16.703300272,
			"-0.004": 24.5190507928,
			"-0.003": 45.3730303635,
			"-0.002": 49.4338605302,
			"-0.001": 42.1760778769,
			"0.0": 31.2493275198,
			"0.001": 22.14742162,
			"0.002": 16.9941875506,
			"0.003": 13.3194228256,
			"0.004": 12.1792206408,
			"0.005": 11.5246024188,
			"0.006": 11.4355588612,
			"0.007": 5.57241679745,
			"0.008": 3.54170184247,
			"0.009": 2.16971423408,
			"0.01": 2.89955326894,
			"0.011": 3.04533528727,
			"0.012": 2.37769383029,
			"0.013": 4.39396561517,
			"0.014": 6.14469243629,
			"0.015": 0.978787591687,
			"0.016": 0.0862903589514,
			"0.017": 0.0,
			"0.018": 0.0,
			"0.019": 0.0,
			"0.02": 0.0,
			"0.021": 0.0,
			"0.022": 0.0,
			"0.023": 0.0,
			"0.024": 0.0,
			"0.025": 0.0
		}
	}
}
