{
	 "smiles": "CC1=CC=CC2=C1CC2=NNC1=CC=C(C=C1[N+]([O-])=O)[N+]([O-])=O", 
	 "Tm": 500.15, 
	 "num_atms": 35, 
	 "gaussian": { 
		 "optdone": 1, 
		 "sigma_profile": "yes", 
		 "theory": "DFT", 
		 "functional": "B3LYP", 
		 "basiset": "6-31G**", 
		 "properties": { 
			 "R2extent": 8209.8335, 
			 "electric_dipole_moment_norm": 6.29541572337, 
			 "electric_quadrupole_moment_norm": 23.8700765512, 
			 "total_energy": -1098.44280186, 
			 "HOMO_LUMO_gap": 0.13122, 
			 "cosmo_polarized_energy": -20.12, 
			 "cosmo_cavitation_energy": 40.71, 
			 "cosmo_dispersion_energy": -27.7, 
			 "cosmo_repulsion_energy": 2.1, 
			 "cosmo_total_nonelectrostatic_energy": 15.11, 
			 "SMD_solvation_energy": 10.1 
		},
		"coords": [
			{
				"x": 0.6020898214,
				"y": 4.2795251477,
				"z": 1.921997792,
				"element": "C" 
			},
			{
				"x": 0.7737249195,
				"y": 2.8023856941,
				"z": 1.6744720095,
				"element": "C" 
			},
			{
				"x": 0.4668345778,
				"y": 1.8316309477,
				"z": 2.6471354101,
				"element": "C" 
			},
			{
				"x": 0.6258516648,
				"y": 0.4532028017,
				"z": 2.4302340193,
				"element": "C" 
			},
			{
				"x": 1.0967034085,
				"y": -0.0546849763,
				"z": 1.2153527472,
				"element": "C" 
			},
			{
				"x": 1.3915887285,
				"y": 0.902517841,
				"z": 0.2438873974,
				"element": "C" 
			},
			{
				"x": 1.2430257958,
				"y": 2.2792769359,
				"z": 0.4750262797,
				"element": "C" 
			},
			{
				"x": 1.7659549455,
				"y": 2.6820357279,
				"z": -0.9036581679,
				"element": "C" 
			},
			{
				"x": 1.9309323903,
				"y": 1.1635567073,
				"z": -1.1105128675,
				"element": "C" 
			},
			{
				"x": 2.4286568296,
				"y": 0.576216094,
				"z": -2.1326118476,
				"element": "N" 
			},
			{
				"x": 2.4894066242,
				"y": -0.8049480422,
				"z": -2.1469440034,
				"element": "N" 
			},
			{
				"x": 1.6091678314,
				"y": -1.8015973532,
				"z": -1.8051630451,
				"element": "C" 
			},
			{
				"x": 2.1869372327,
				"y": -3.0989928084,
				"z": -1.6784914461,
				"element": "C" 
			},
			{
				"x": 1.4622700118,
				"y": -4.1978088962,
				"z": -1.2791126053,
				"element": "C" 
			},
			{
				"x": 0.1024023344,
				"y": -4.0428561686,
				"z": -0.9686057126,
				"element": "C" 
			},
			{
				"x": -0.5188781986,
				"y": -2.8153239467,
				"z": -1.1088647422,
				"element": "C" 
			},
			{
				"x": 0.2093804616,
				"y": -1.7117565843,
				"z": -1.5561208416,
				"element": "C" 
			},
			{
				"x": -0.5902854201,
				"y": -0.5296943873,
				"z": -1.8792827217,
				"element": "N" 
			},
			{
				"x": -0.1760992603,
				"y": 0.2018015434,
				"z": -2.7795610097,
				"element": "O" 
			},
			{
				"x": -1.6503107581,
				"y": -0.367324824,
				"z": -1.2729007698,
				"element": "O" 
			},
			{
				"x": -0.6706521922,
				"y": -5.1926880302,
				"z": -0.5132634978,
				"element": "N" 
			},
			{
				"x": -1.8589150307,
				"y": -5.0164366823,
				"z": -0.2413509267,
				"element": "O" 
			},
			{
				"x": -0.0813326513,
				"y": -6.2727116478,
				"z": -0.4267327363,
				"element": "O" 
			},
			{
				"x": -0.1556562192,
				"y": 4.7066227124,
				"z": 1.2551107866,
				"element": "H" 
			},
			{
				"x": 0.2916086447,
				"y": 4.4774142662,
				"z": 2.9513153459,
				"element": "H" 
			},
			{
				"x": 1.5346951688,
				"y": 4.8248909244,
				"z": 1.7392511955,
				"element": "H" 
			},
			{
				"x": 0.0944500386,
				"y": 2.1637097507,
				"z": 3.6133825512,
				"element": "H" 
			},
			{
				"x": 0.3733189262,
				"y": -0.2334180346,
				"z": 3.2329165024,
				"element": "H" 
			},
			{
				"x": 1.2175172881,
				"y": -1.1209233287,
				"z": 1.0638867324,
				"element": "H" 
			},
			{
				"x": 2.700888692,
				"y": 3.252606854,
				"z": -0.9265080206,
				"element": "H" 
			},
			{
				"x": 1.0421131377,
				"y": 3.1495008872,
				"z": -1.5792522714,
				"element": "H" 
			},
			{
				"x": 3.2962137229,
				"y": -1.1157554804,
				"z": -2.6693839829,
				"element": "H" 
			},
			{
				"x": 3.2512739717,
				"y": -3.2019801105,
				"z": -1.8701580534,
				"element": "H" 
			},
			{
				"x": 1.9239809646,
				"y": -5.1716878751,
				"z": -1.1749937157,
				"element": "H" 
			},
			{
				"x": -1.5758584027,
				"y": -2.705305659,
				"z": -0.9068957839,
				"element": "H" 
			}
		],
		 "valence_orbital": [ 
			{
				"type": "occ",
				"energy": -0.29041,
				"method": "rhf"
			},
			{
				"type": "occ",
				"energy": -0.28559,
				"method": "rhf"
			},
			{
				"type": "occ",
				"energy": -0.26617,
				"method": "rhf"
			},
			{
				"type": "occ",
				"energy": -0.25827,
				"method": "rhf"
			},
			{
				"type": "occ",
				"energy": -0.22496,
				"method": "rhf"
			},
			{
				"type": "unocc",
				"energy": -0.09374,
				"method": "rhf"
			},
			{
				"type": "unocc",
				"energy": -0.08766,
				"method": "rhf"
			},
			{
				"type": "unocc",
				"energy": -0.05513,
				"method": "rhf"
			},
			{
				"type": "unocc",
				"energy": -0.02784,
				"method": "rhf"
			},
			{
				"type": "unocc",
				"energy": -0.01861,
				"method": "rhf"
			}
		],
		"cosmo_sigma_profile": { 
			"-0.025": 0.0,
			"-0.024": 0.0,
			"-0.023": 0.0,
			"-0.022": 0.0,
			"-0.021": 0.0,
			"-0.02": 0.0,
			"-0.019": 0.0,
			"-0.018": 0.0,
			"-0.017": 0.572111958258,
			"-0.016": 1.43151873709,
			"-0.015": 1.39746619069,
			"-0.014": 1.38726543097,
			"-0.013": 0.892002613582,
			"-0.012": 1.30874691904,
			"-0.011": 1.28984538476,
			"-0.01": 1.56775373154,
			"-0.009": 2.23607057322,
			"-0.008": 3.91893991869,
			"-0.007": 4.75855777831,
			"-0.006": 15.061609396,
			"-0.005": 22.1762353434,
			"-0.004": 25.6038321864,
			"-0.003": 25.2780865032,
			"-0.002": 34.0120451763,
			"-0.001": 29.7034027075,
			"0.0": 24.693989369,
			"0.001": 17.5209652443,
			"0.002": 13.5036983915,
			"0.003": 13.5442957216,
			"0.004": 14.6163575521,
			"0.005": 8.02065206446,
			"0.006": 7.72456458165,
			"0.007": 12.7366456978,
			"0.008": 18.2232745721,
			"0.009": 10.3714938351,
			"0.01": 7.88605747683,
			"0.011": 2.40082173898,
			"0.012": 1.1455979997,
			"0.013": 0.670539457429,
			"0.014": 0.354477807554,
			"0.015": 0.0,
			"0.016": 0.0,
			"0.017": 0.0,
			"0.018": 0.0,
			"0.019": 0.0,
			"0.02": 0.0,
			"0.021": 0.0,
			"0.022": 0.0,
			"0.023": 0.0,
			"0.024": 0.0,
			"0.025": 0.0
		}
	}
}
