{
	 "smiles": "O=C(OC1CC2CC3C[C@H](C1)N2CC3=O)C1=CNC2=CC=CC=C12", 
	 "Tm": 551.15, 
	 "num_atms": 44, 
	 "gaussian": { 
		 "optdone": 1, 
		 "sigma_profile": "yes", 
		 "theory": "DFT", 
		 "functional": "B3LYP", 
		 "basiset": "6-31G**", 
		 "properties": { 
			 "R2extent": 11291.2983, 
			 "electric_dipole_moment_norm": 5.00429705153, 
			 "electric_quadrupole_moment_norm": 11.5959479957, 
			 "total_energy": -1071.19196286, 
			 "HOMO_LUMO_gap": 0.17836, 
			 "cosmo_polarized_energy": -20.86, 
			 "cosmo_cavitation_energy": 44.42, 
			 "cosmo_dispersion_energy": -31.94, 
			 "cosmo_repulsion_energy": 2.39, 
			 "cosmo_total_nonelectrostatic_energy": 14.87, 
			 "SMD_solvation_energy": 5.97 
		},
		"coords": [
			{
				"x": -2.2742610206,
				"y": 1.0451728177,
				"z": -2.1562191483,
				"element": "O" 
			},
			{
				"x": -1.9774891989,
				"y": -0.1064295693,
				"z": -1.8854837711,
				"element": "C" 
			},
			{
				"x": -1.2542778639,
				"y": -0.4519753472,
				"z": -0.7869373773,
				"element": "O" 
			},
			{
				"x": -0.8613654658,
				"y": 0.6321075307,
				"z": 0.0903572359,
				"element": "C" 
			},
			{
				"x": -0.6610427506,
				"y": -0.0437578366,
				"z": 1.4992835229,
				"element": "C" 
			},
			{
				"x": 0.0100351197,
				"y": 0.9234198167,
				"z": 2.5527171456,
				"element": "C" 
			},
			{
				"x": 1.4387122066,
				"y": 0.5138547913,
				"z": 3.1399731957,
				"element": "C" 
			},
			{
				"x": 2.5222274541,
				"y": 1.621833412,
				"z": 2.7752029892,
				"element": "C" 
			},
			{
				"x": 2.6366299939,
				"y": 1.9248977272,
				"z": 1.2154309587,
				"element": "C" 
			},
			{
				"x": 1.2222800608,
				"y": 1.5627753745,
				"z": 0.7754231892,
				"element": "C" 
			},
			{
				"x": 0.3977352135,
				"y": 1.3994543878,
				"z": -0.490591404,
				"element": "C" 
			},
			{
				"x": 0.242219202,
				"y": 2.1349112652,
				"z": 1.7708101921,
				"element": "N" 
			},
			{
				"x": 0.6982128243,
				"y": 3.261314676,
				"z": 2.5815578365,
				"element": "C" 
			},
			{
				"x": 1.9772248702,
				"y": 2.9141901457,
				"z": 3.3497406654,
				"element": "C" 
			},
			{
				"x": 2.4554150169,
				"y": 3.5718491617,
				"z": 4.2505095488,
				"element": "O" 
			},
			{
				"x": -2.3488991906,
				"y": -1.2693236053,
				"z": -2.6942522762,
				"element": "C" 
			},
			{
				"x": -3.0786976321,
				"y": -1.1392566801,
				"z": -3.8582254022,
				"element": "C" 
			},
			{
				"x": -3.2859087624,
				"y": -2.3717467286,
				"z": -4.4113086679,
				"element": "N" 
			},
			{
				"x": -2.6930636784,
				"y": -3.3444809759,
				"z": -3.6181878454,
				"element": "C" 
			},
			{
				"x": -2.6464289225,
				"y": -4.7311221453,
				"z": -3.7857623635,
				"element": "C" 
			},
			{
				"x": -1.9721733005,
				"y": -5.467613549,
				"z": -2.8185009575,
				"element": "C" 
			},
			{
				"x": -1.3631954154,
				"y": -4.8340203142,
				"z": -1.7168243968,
				"element": "C" 
			},
			{
				"x": -1.4130421613,
				"y": -3.4545484042,
				"z": -1.5558654624,
				"element": "C" 
			},
			{
				"x": -2.0873553592,
				"y": -2.6822059008,
				"z": -2.5169200479,
				"element": "C" 
			},
			{
				"x": -1.6911207394,
				"y": 1.3349222743,
				"z": 0.1463131717,
				"element": "H" 
			},
			{
				"x": -0.0781334922,
				"y": -0.9642899896,
				"z": 1.3772158943,
				"element": "H" 
			},
			{
				"x": -1.6506574921,
				"y": -0.3553921029,
				"z": 1.8464339753,
				"element": "H" 
			},
			{
				"x": -0.6881605515,
				"y": 1.1243937617,
				"z": 3.3751885925,
				"element": "H" 
			},
			{
				"x": 1.3966059836,
				"y": 0.4455836702,
				"z": 4.2320844519,
				"element": "H" 
			},
			{
				"x": 1.7678109766,
				"y": -0.4704498378,
				"z": 2.7870599627,
				"element": "H" 
			},
			{
				"x": 3.4874074236,
				"y": 1.3773912842,
				"z": 3.2244188517,
				"element": "H" 
			},
			{
				"x": 3.3791273056,
				"y": 1.2776689001,
				"z": 0.7373825479,
				"element": "H" 
			},
			{
				"x": 2.9553536419,
				"y": 2.9619437849,
				"z": 1.0545890322,
				"element": "H" 
			},
			{
				"x": 1.3221639268,
				"y": 0.5034719555,
				"z": 1.0071594579,
				"element": "H" 
			},
			{
				"x": 0.0759394612,
				"y": 2.3266202372,
				"z": -0.9698853405,
				"element": "H" 
			},
			{
				"x": 0.9014426647,
				"y": 0.7695156259,
				"z": -1.2329464938,
				"element": "H" 
			},
			{
				"x": 0.8785641565,
				"y": 4.1369843379,
				"z": 1.9464779823,
				"element": "H" 
			},
			{
				"x": -0.0950226335,
				"y": 3.5455670445,
				"z": 3.2823526553,
				"element": "H" 
			},
			{
				"x": -3.4564471284,
				"y": -0.2358073131,
				"z": -4.3135591906,
				"element": "H" 
			},
			{
				"x": -3.7926107626,
				"y": -2.5459485841,
				"z": -5.2645457812,
				"element": "H" 
			},
			{
				"x": -3.1177114063,
				"y": -5.2146414135,
				"z": -4.6368109736,
				"element": "H" 
			},
			{
				"x": -1.9145281987,
				"y": -6.5477907359,
				"z": -2.9139873688,
				"element": "H" 
			},
			{
				"x": -0.8446816779,
				"y": -5.4394677251,
				"z": -0.9790328542,
				"element": "H" 
			},
			{
				"x": -0.944132698,
				"y": -2.9709752244,
				"z": -0.7072359324,
				"element": "H" 
			}
		],
		 "valence_orbital": [ 
			{
				"type": "occ",
				"energy": -0.26183,
				"method": "rhf"
			},
			{
				"type": "occ",
				"energy": -0.25586,
				"method": "rhf"
			},
			{
				"type": "occ",
				"energy": -0.23077,
				"method": "rhf"
			},
			{
				"type": "occ",
				"energy": -0.21405,
				"method": "rhf"
			},
			{
				"type": "occ",
				"energy": -0.2057,
				"method": "rhf"
			},
			{
				"type": "unocc",
				"energy": -0.02734,
				"method": "rhf"
			},
			{
				"type": "unocc",
				"energy": -0.01173,
				"method": "rhf"
			},
			{
				"type": "unocc",
				"energy": 0.00363,
				"method": "rhf"
			},
			{
				"type": "unocc",
				"energy": 0.02216,
				"method": "rhf"
			},
			{
				"type": "unocc",
				"energy": 0.06721,
				"method": "rhf"
			}
		],
		"cosmo_sigma_profile": { 
			"-0.025": 0.0,
			"-0.024": 0.0,
			"-0.023": 0.0,
			"-0.022": 0.0,
			"-0.021": 0.0,
			"-0.02": 0.0,
			"-0.019": 0.0,
			"-0.018": 0.0,
			"-0.017": 0.329207972837,
			"-0.016": 1.80087254777,
			"-0.015": 1.63718088385,
			"-0.014": 1.12238707214,
			"-0.013": 1.04142705651,
			"-0.012": 1.45936636512,
			"-0.011": 1.53209249703,
			"-0.01": 1.59117871038,
			"-0.009": 2.69681550427,
			"-0.008": 2.92936471745,
			"-0.007": 4.73000647341,
			"-0.006": 12.9883421806,
			"-0.005": 20.9357928519,
			"-0.004": 33.3467507145,
			"-0.003": 38.3833915934,
			"-0.002": 31.6506259417,
			"-0.001": 28.7248352744,
			"0.0": 22.2563786674,
			"0.001": 16.9512711604,
			"0.002": 18.5667697905,
			"0.003": 19.38135361,
			"0.004": 19.1405338853,
			"0.005": 15.5104622002,
			"0.006": 14.0222973318,
			"0.007": 5.02160857907,
			"0.008": 2.6476609348,
			"0.009": 4.87720345545,
			"0.01": 4.39604487927,
			"0.011": 5.36819915438,
			"0.012": 8.17558629434,
			"0.013": 6.67833145966,
			"0.014": 0.32266949127,
			"0.015": 0.0,
			"0.016": 0.0,
			"0.017": 0.0,
			"0.018": 0.0,
			"0.019": 0.0,
			"0.02": 0.0,
			"0.021": 0.0,
			"0.022": 0.0,
			"0.023": 0.0,
			"0.024": 0.0,
			"0.025": 0.0
		}
	}
}
