{
	 "smiles": "NC1=CC2=C(SCC(=O)N2)C=C1", 
	 "Tm": 493.15, 
	 "num_atms": 20, 
	 "gaussian": { 
		 "optdone": 1, 
		 "sigma_profile": "yes", 
		 "theory": "DFT", 
		 "functional": "B3LYP", 
		 "basiset": "6-31G**", 
		 "properties": { 
			 "R2extent": 2820.4112, 
			 "electric_dipole_moment_norm": 4.8646946564, 
			 "electric_quadrupole_moment_norm": 10.1960621796, 
			 "total_energy": -892.607909684, 
			 "HOMO_LUMO_gap": 0.17436, 
			 "cosmo_polarized_energy": -16.14, 
			 "cosmo_cavitation_energy": 25.22, 
			 "cosmo_dispersion_energy": -19.57, 
			 "cosmo_repulsion_energy": 1.5, 
			 "cosmo_total_nonelectrostatic_energy": 7.16, 
			 "SMD_solvation_energy": 4.29 
		},
		"coords": [
			{
				"x": 2.154458753,
				"y": 2.8825369,
				"z": -0.9432230795,
				"element": "N" 
			},
			{
				"x": 1.0523381058,
				"y": 2.2461971808,
				"z": -0.3736223052,
				"element": "C" 
			},
			{
				"x": 1.185058676,
				"y": 0.9798905799,
				"z": 0.213772917,
				"element": "C" 
			},
			{
				"x": 0.0722526806,
				"y": 0.3025128269,
				"z": 0.7215840853,
				"element": "C" 
			},
			{
				"x": -1.2007161317,
				"y": 0.9009901326,
				"z": 0.67935144,
				"element": "C" 
			},
			{
				"x": -2.6288448083,
				"y": 0.0101998097,
				"z": 1.2562191426,
				"element": "S" 
			},
			{
				"x": -1.8007543836,
				"y": -0.8890595228,
				"z": 2.6179402419,
				"element": "C" 
			},
			{
				"x": -0.5753811189,
				"y": -1.6558065339,
				"z": 2.1423318251,
				"element": "C" 
			},
			{
				"x": -0.2997704868,
				"y": -2.7749538361,
				"z": 2.5430276241,
				"element": "O" 
			},
			{
				"x": 0.2425989828,
				"y": -0.9862053146,
				"z": 1.2569244607,
				"element": "N" 
			},
			{
				"x": -1.3210993377,
				"y": 2.1752078058,
				"z": 0.1170144885,
				"element": "C" 
			},
			{
				"x": -0.22206318,
				"y": 2.8397077308,
				"z": -0.4151599187,
				"element": "C" 
			},
			{
				"x": 2.0769594131,
				"y": 3.8866575303,
				"z": -1.025320865,
				"element": "H" 
			},
			{
				"x": 3.0553969498,
				"y": 2.6007360964,
				"z": -0.5827905027,
				"element": "H" 
			},
			{
				"x": 2.1644071214,
				"y": 0.5099295411,
				"z": 0.2702332312,
				"element": "H" 
			},
			{
				"x": -2.5089681947,
				"y": -1.6097826669,
				"z": 3.0265121071,
				"element": "H" 
			},
			{
				"x": -1.5117494606,
				"y": -0.1876169749,
				"z": 3.4090651214,
				"element": "H" 
			},
			{
				"x": 1.0935454156,
				"y": -1.4861966865,
				"z": 1.0330974881,
				"element": "H" 
			},
			{
				"x": -2.2975510714,
				"y": 2.6498315221,
				"z": 0.092085783,
				"element": "H" 
			},
			{
				"x": -0.3454179243,
				"y": 3.8235238795,
				"z": -0.8591432851,
				"element": "H" 
			}
		],
		 "valence_orbital": [ 
			{
				"type": "occ",
				"energy": -0.3009,
				"method": "rhf"
			},
			{
				"type": "occ",
				"energy": -0.26874,
				"method": "rhf"
			},
			{
				"type": "occ",
				"energy": -0.24647,
				"method": "rhf"
			},
			{
				"type": "occ",
				"energy": -0.23183,
				"method": "rhf"
			},
			{
				"type": "occ",
				"energy": -0.19582,
				"method": "rhf"
			},
			{
				"type": "unocc",
				"energy": -0.02146,
				"method": "rhf"
			},
			{
				"type": "unocc",
				"energy": -0.00443,
				"method": "rhf"
			},
			{
				"type": "unocc",
				"energy": 0.03347,
				"method": "rhf"
			},
			{
				"type": "unocc",
				"energy": 0.0408,
				"method": "rhf"
			},
			{
				"type": "unocc",
				"energy": 0.06862,
				"method": "rhf"
			}
		],
		"cosmo_sigma_profile": { 
			"-0.025": 0.0,
			"-0.024": 0.0,
			"-0.023": 0.0,
			"-0.022": 0.0,
			"-0.021": 0.0,
			"-0.02": 0.0,
			"-0.019": 0.0,
			"-0.018": 0.0,
			"-0.017": 0.0,
			"-0.016": 0.0,
			"-0.015": 0.657696420835,
			"-0.014": 1.20102474076,
			"-0.013": 1.35531546407,
			"-0.012": 4.52586231777,
			"-0.011": 2.91127833746,
			"-0.01": 5.27066821468,
			"-0.009": 4.97244885134,
			"-0.008": 5.84434641257,
			"-0.007": 10.2195200676,
			"-0.006": 10.6348450447,
			"-0.005": 9.48062763115,
			"-0.004": 10.6810147388,
			"-0.003": 9.08941039306,
			"-0.002": 9.79770589082,
			"-0.001": 8.50517187867,
			"0.0": 7.7573555317,
			"0.001": 10.142280763,
			"0.002": 11.0273975048,
			"0.003": 11.343146535,
			"0.004": 14.2463555248,
			"0.005": 15.5964205978,
			"0.006": 9.36402104785,
			"0.007": 4.50212343439,
			"0.008": 3.00602735169,
			"0.009": 3.12919145325,
			"0.01": 2.30818277029,
			"0.011": 3.01747195907,
			"0.012": 4.30573583164,
			"0.013": 5.71411688068,
			"0.014": 1.8797929371,
			"0.015": 0.00917780364911,
			"0.016": 0.0,
			"0.017": 0.0,
			"0.018": 0.0,
			"0.019": 0.0,
			"0.02": 0.0,
			"0.021": 0.0,
			"0.022": 0.0,
			"0.023": 0.0,
			"0.024": 0.0,
			"0.025": 0.0
		}
	}
}
