{
	 "smiles": "CC(=O)N1C(CC2=C(NC3=C2C=CC=C3)C1(C)C)C(O)=O", 
	 "Tm": 433.15, 
	 "num_atms": 39, 
	 "gaussian": { 
		 "optdone": 1, 
		 "sigma_profile": "yes", 
		 "theory": "DFT", 
		 "functional": "B3LYP", 
		 "basiset": "6-31G**", 
		 "properties": { 
			 "R2extent": 6246.7251, 
			 "electric_dipole_moment_norm": 6.39533924276, 
			 "electric_quadrupole_moment_norm": 26.2903489066, 
			 "total_energy": -955.759820914, 
			 "HOMO_LUMO_gap": 0.18606, 
			 "cosmo_polarized_energy": -22.27, 
			 "cosmo_cavitation_energy": 38.92, 
			 "cosmo_dispersion_energy": -27.47, 
			 "cosmo_repulsion_energy": 2.04, 
			 "cosmo_total_nonelectrostatic_energy": 13.49, 
			 "SMD_solvation_energy": 7.15 
		},
		"coords": [
			{
				"x": 1.7195124466,
				"y": 3.4972402596,
				"z": 2.2760751457,
				"element": "C" 
			},
			{
				"x": 1.9588721738,
				"y": 1.9986420007,
				"z": 2.2415818298,
				"element": "C" 
			},
			{
				"x": 2.6977099984,
				"y": 1.52322188,
				"z": 3.1212699217,
				"element": "O" 
			},
			{
				"x": 1.3460456778,
				"y": 1.1719817833,
				"z": 1.3245512316,
				"element": "N" 
			},
			{
				"x": 1.5157394557,
				"y": -0.2885711797,
				"z": 1.613977229,
				"element": "C" 
			},
			{
				"x": 0.3101798375,
				"y": -1.125042344,
				"z": 1.183415864,
				"element": "C" 
			},
			{
				"x": -0.0831767892,
				"y": -0.7673425788,
				"z": -0.2077067189,
				"element": "C" 
			},
			{
				"x": 0.233804076,
				"y": 0.4506719131,
				"z": -0.7346090461,
				"element": "C" 
			},
			{
				"x": -0.224702149,
				"y": 0.5218840882,
				"z": -2.0454937589,
				"element": "N" 
			},
			{
				"x": -0.8261857117,
				"y": -0.6796468484,
				"z": -2.3759692381,
				"element": "C" 
			},
			{
				"x": -0.7636727269,
				"y": -1.5178034806,
				"z": -1.2294784037,
				"element": "C" 
			},
			{
				"x": -1.3172247093,
				"y": -2.8067453595,
				"z": -1.2967247553,
				"element": "C" 
			},
			{
				"x": -1.9071978083,
				"y": -3.2243824354,
				"z": -2.483771903,
				"element": "C" 
			},
			{
				"x": -1.9547447204,
				"y": -2.3780956245,
				"z": -3.6097719871,
				"element": "C" 
			},
			{
				"x": -1.4151760821,
				"y": -1.0962034554,
				"z": -3.573069534,
				"element": "C" 
			},
			{
				"x": 0.8900593834,
				"y": 1.6256227719,
				"z": -0.0449842149,
				"element": "C" 
			},
			{
				"x": -0.186721389,
				"y": 2.7401575306,
				"z": 0.0380813994,
				"element": "C" 
			},
			{
				"x": 2.1143848781,
				"y": 2.0905409904,
				"z": -0.8713275976,
				"element": "C" 
			},
			{
				"x": 2.8460245613,
				"y": -0.8393830885,
				"z": 1.0383091009,
				"element": "C" 
			},
			{
				"x": 3.9453514796,
				"y": -0.2728881129,
				"z": 1.5617339229,
				"element": "O" 
			},
			{
				"x": 2.9094897152,
				"y": -1.7128190906,
				"z": 0.2057598818,
				"element": "O" 
			},
			{
				"x": 0.6646448791,
				"y": 3.7306903239,
				"z": 2.4355725068,
				"element": "H" 
			},
			{
				"x": 2.0461883862,
				"y": 4.0022865846,
				"z": 1.3648061168,
				"element": "H" 
			},
			{
				"x": 2.3026535989,
				"y": 3.8789230752,
				"z": 3.1134227666,
				"element": "H" 
			},
			{
				"x": 1.6121977559,
				"y": -0.3396848559,
				"z": 2.7008563165,
				"element": "H" 
			},
			{
				"x": 0.5974164829,
				"y": -2.1787154778,
				"z": 1.2488328468,
				"element": "H" 
			},
			{
				"x": -0.5114379453,
				"y": -0.9657176518,
				"z": 1.8947786869,
				"element": "H" 
			},
			{
				"x": -0.0353778321,
				"y": 1.2656655234,
				"z": -2.696531056,
				"element": "H" 
			},
			{
				"x": -1.2806318207,
				"y": -3.4685329198,
				"z": -0.4360177211,
				"element": "H" 
			},
			{
				"x": -2.3368697233,
				"y": -4.2195703156,
				"z": -2.5494910339,
				"element": "H" 
			},
			{
				"x": -2.4204919244,
				"y": -2.73297286,
				"z": -4.5244571893,
				"element": "H" 
			},
			{
				"x": -1.4519605371,
				"y": -0.4459552273,
				"z": -4.4427612372,
				"element": "H" 
			},
			{
				"x": -0.9469229364,
				"y": 2.4777526097,
				"z": 0.7782717864,
				"element": "H" 
			},
			{
				"x": -0.6861493048,
				"y": 2.8227347609,
				"z": -0.9303817632,
				"element": "H" 
			},
			{
				"x": 0.2226028956,
				"y": 3.7213772143,
				"z": 0.273675281,
				"element": "H" 
			},
			{
				"x": 1.8043214525,
				"y": 2.4231274042,
				"z": -1.8674212952,
				"element": "H" 
			},
			{
				"x": 2.8279100977,
				"y": 1.2725252329,
				"z": -0.9940328256,
				"element": "H" 
			},
			{
				"x": 2.6263633805,
				"y": 2.9312839884,
				"z": -0.3968331522,
				"element": "H" 
			},
			{
				"x": 3.6750714974,
				"y": 0.3570429712,
				"z": 2.2731625968,
				"element": "H" 
			}
		],
		 "valence_orbital": [ 
			{
				"type": "occ",
				"energy": -0.27495,
				"method": "rhf"
			},
			{
				"type": "occ",
				"energy": -0.26982,
				"method": "rhf"
			},
			{
				"type": "occ",
				"energy": -0.24672,
				"method": "rhf"
			},
			{
				"type": "occ",
				"energy": -0.21939,
				"method": "rhf"
			},
			{
				"type": "occ",
				"energy": -0.20185,
				"method": "rhf"
			},
			{
				"type": "unocc",
				"energy": -0.01579,
				"method": "rhf"
			},
			{
				"type": "unocc",
				"energy": -0.00941,
				"method": "rhf"
			},
			{
				"type": "unocc",
				"energy": 0.01627,
				"method": "rhf"
			},
			{
				"type": "unocc",
				"energy": 0.02606,
				"method": "rhf"
			},
			{
				"type": "unocc",
				"energy": 0.05053,
				"method": "rhf"
			}
		],
		"cosmo_sigma_profile": { 
			"-0.025": 0.0,
			"-0.024": 0.0,
			"-0.023": 0.0,
			"-0.022": 0.0,
			"-0.021": 0.0,
			"-0.02": 0.0,
			"-0.019": 0.0,
			"-0.018": 0.0,
			"-0.017": 0.0,
			"-0.016": 0.0,
			"-0.015": 0.939664778649,
			"-0.014": 0.966023724357,
			"-0.013": 2.20652426344,
			"-0.012": 1.68026505962,
			"-0.011": 1.49101791925,
			"-0.01": 1.66477968433,
			"-0.009": 1.49740886179,
			"-0.008": 4.35531519368,
			"-0.007": 7.30931559214,
			"-0.006": 12.5995086248,
			"-0.005": 21.1679873804,
			"-0.004": 31.0910836406,
			"-0.003": 30.542616287,
			"-0.002": 29.4846659129,
			"-0.001": 28.371692497,
			"0.0": 18.1678394369,
			"0.001": 10.153958353,
			"0.002": 9.57659294369,
			"0.003": 10.7806751983,
			"0.004": 11.5075347354,
			"0.005": 13.464318636,
			"0.006": 13.6047080728,
			"0.007": 11.3048562565,
			"0.008": 4.54034640569,
			"0.009": 4.25820910952,
			"0.01": 5.27408024723,
			"0.011": 8.05251486959,
			"0.012": 7.82045966327,
			"0.013": 3.25338217113,
			"0.014": 0.285512493203,
			"0.015": 0.0,
			"0.016": 0.0,
			"0.017": 0.0,
			"0.018": 0.0,
			"0.019": 0.0,
			"0.02": 0.0,
			"0.021": 0.0,
			"0.022": 0.0,
			"0.023": 0.0,
			"0.024": 0.0,
			"0.025": 0.0
		}
	}
}
