{
	 "smiles": "COC(=O)C1CCCC2=C1C=NN2", 
	 "Tm": 358.15, 
	 "num_atms": 25, 
	 "gaussian": { 
		 "optdone": 1, 
		 "sigma_profile": "yes", 
		 "theory": "DFT", 
		 "functional": "B3LYP", 
		 "basiset": "6-31G**", 
		 "properties": { 
			 "R2extent": 2743.3892, 
			 "electric_dipole_moment_norm": 3.85566012766, 
			 "electric_quadrupole_moment_norm": 13.2259766551, 
			 "total_energy": -610.135130989, 
			 "HOMO_LUMO_gap": 0.23602, 
			 "cosmo_polarized_energy": -14.14, 
			 "cosmo_cavitation_energy": 27.6, 
			 "cosmo_dispersion_energy": -19.93, 
			 "cosmo_repulsion_energy": 1.62, 
			 "cosmo_total_nonelectrostatic_energy": 9.28, 
			 "SMD_solvation_energy": 4.86 
		},
		"coords": [
			{
				"x": 2.2793627253,
				"y": -0.2963935568,
				"z": -0.4137299803,
				"element": "C" 
			},
			{
				"x": 0.9023276198,
				"y": 0.0494927652,
				"z": -0.1912906555,
				"element": "O" 
			},
			{
				"x": 0.5184806894,
				"y": 1.2424256159,
				"z": -0.7010986818,
				"element": "C" 
			},
			{
				"x": 1.2687085046,
				"y": 1.9724201185,
				"z": -1.3133054364,
				"element": "O" 
			},
			{
				"x": -0.9601467382,
				"y": 1.54161211,
				"z": -0.4510372604,
				"element": "C" 
			},
			{
				"x": -1.8705874198,
				"y": 0.6829476682,
				"z": -1.380010434,
				"element": "C" 
			},
			{
				"x": -2.1443276161,
				"y": -0.7307619131,
				"z": -0.8377650948,
				"element": "C" 
			},
			{
				"x": -2.8780855676,
				"y": -0.6947524872,
				"z": 0.5194509521,
				"element": "C" 
			},
			{
				"x": -2.23405694,
				"y": 0.3383623261,
				"z": 1.390085056,
				"element": "C" 
			},
			{
				"x": -1.3822801519,
				"y": 1.3485550624,
				"z": 0.9801941819,
				"element": "C" 
			},
			{
				"x": -1.0758365364,
				"y": 2.0623298315,
				"z": 2.1654311702,
				"element": "C" 
			},
			{
				"x": -1.685065505,
				"y": 1.545066074,
				"z": 3.2299979167,
				"element": "N" 
			},
			{
				"x": -2.3853276212,
				"y": 0.4967295868,
				"z": 2.7316977427,
				"element": "N" 
			},
			{
				"x": 2.9392909885,
				"y": 0.4480945147,
				"z": 0.0381345344,
				"element": "H" 
			},
			{
				"x": 2.4191909855,
				"y": -1.2683884584,
				"z": 0.0592591575,
				"element": "H" 
			},
			{
				"x": 2.4962608513,
				"y": -0.3538947401,
				"z": -1.483520281,
				"element": "H" 
			},
			{
				"x": -1.0667440033,
				"y": 2.5902975747,
				"z": -0.7461475392,
				"element": "H" 
			},
			{
				"x": -2.8229270233,
				"y": 1.2165401701,
				"z": -1.4912593136,
				"element": "H" 
			},
			{
				"x": -1.4260918081,
				"y": 0.6262965073,
				"z": -2.3796272695,
				"element": "H" 
			},
			{
				"x": -1.194860946,
				"y": -1.2617951772,
				"z": -0.7191520391,
				"element": "H" 
			},
			{
				"x": -2.7429356814,
				"y": -1.2920214458,
				"z": -1.5633894617,
				"element": "H" 
			},
			{
				"x": -3.9390571596,
				"y": -0.4498232044,
				"z": 0.3645837922,
				"element": "H" 
			},
			{
				"x": -2.8543174913,
				"y": -1.6849652764,
				"z": 0.9915657682,
				"element": "H" 
			},
			{
				"x": -0.4384226878,
				"y": 2.9292644888,
				"z": 2.2848665614,
				"element": "H" 
			},
			{
				"x": -2.9387514672,
				"y": -0.0616381547,
				"z": 3.362766614,
				"element": "H" 
			}
		],
		 "valence_orbital": [ 
			{
				"type": "occ",
				"energy": -0.29933,
				"method": "rhf"
			},
			{
				"type": "occ",
				"energy": -0.27922,
				"method": "rhf"
			},
			{
				"type": "occ",
				"energy": -0.27184,
				"method": "rhf"
			},
			{
				"type": "occ",
				"energy": -0.24719,
				"method": "rhf"
			},
			{
				"type": "occ",
				"energy": -0.22721,
				"method": "rhf"
			},
			{
				"type": "unocc",
				"energy": 0.00881,
				"method": "rhf"
			},
			{
				"type": "unocc",
				"energy": 0.02761,
				"method": "rhf"
			},
			{
				"type": "unocc",
				"energy": 0.06852,
				"method": "rhf"
			},
			{
				"type": "unocc",
				"energy": 0.08408,
				"method": "rhf"
			},
			{
				"type": "unocc",
				"energy": 0.08784,
				"method": "rhf"
			}
		],
		"cosmo_sigma_profile": { 
			"-0.025": 0.0,
			"-0.024": 0.0,
			"-0.023": 0.0,
			"-0.022": 0.0,
			"-0.021": 0.0,
			"-0.02": 0.0,
			"-0.019": 0.0,
			"-0.018": 0.0,
			"-0.017": 0.0,
			"-0.016": 0.770864022661,
			"-0.015": 1.71965170973,
			"-0.014": 1.21896665988,
			"-0.013": 1.27311546724,
			"-0.012": 0.491220094061,
			"-0.011": 0.893421364023,
			"-0.01": 1.07169370421,
			"-0.009": 1.33334635941,
			"-0.008": 0.836739692497,
			"-0.007": 1.71160240882,
			"-0.006": 7.52276019007,
			"-0.005": 13.8592886478,
			"-0.004": 24.5228476009,
			"-0.003": 28.9428115001,
			"-0.002": 24.1520423299,
			"-0.001": 18.9724135361,
			"0.0": 12.5581778178,
			"0.001": 7.69754876955,
			"0.002": 7.40583836854,
			"0.003": 6.97974644099,
			"0.004": 5.75101277712,
			"0.005": 7.71090888985,
			"0.006": 5.27770101472,
			"0.007": 5.07577509951,
			"0.008": 4.52126956547,
			"0.009": 4.71691302892,
			"0.01": 3.3118084419,
			"0.011": 3.66008003618,
			"0.012": 5.99797183033,
			"0.013": 2.93067089025,
			"0.014": 1.53540161265,
			"0.015": 1.02841459866,
			"0.016": 1.16627752854,
			"0.017": 0.378674969632,
			"0.018": 0.0,
			"0.019": 0.0,
			"0.02": 0.0,
			"0.021": 0.0,
			"0.022": 0.0,
			"0.023": 0.0,
			"0.024": 0.0,
			"0.025": 0.0
		}
	}
}
