{
	 "smiles": "CCOC1=CC=C(OCCCC(O)=O)C=C1", 
	 "Tm": 378.15, 
	 "num_atms": 32, 
	 "gaussian": { 
		 "optdone": 1, 
		 "sigma_profile": "yes", 
		 "theory": "DFT", 
		 "functional": "B3LYP", 
		 "basiset": "6-31G**", 
		 "properties": { 
			 "R2extent": 7354.3198, 
			 "electric_dipole_moment_norm": 1.29927443598, 
			 "electric_quadrupole_moment_norm": 20.655441126, 
			 "total_energy": -767.819625559, 
			 "HOMO_LUMO_gap": 0.19317, 
			 "cosmo_polarized_energy": -14.24, 
			 "cosmo_cavitation_energy": 35.8, 
			 "cosmo_dispersion_energy": -25.95, 
			 "cosmo_repulsion_energy": 2.08, 
			 "cosmo_total_nonelectrostatic_energy": 11.93, 
			 "SMD_solvation_energy": 7.53 
		},
		"coords": [
			{
				"x": 5.0511069396,
				"y": 1.7907467693,
				"z": 0.7870027835,
				"element": "C" 
			},
			{
				"x": 4.978210524,
				"y": 0.2783845881,
				"z": 0.9792820578,
				"element": "C" 
			},
			{
				"x": 3.9684249672,
				"y": -0.3324949835,
				"z": 0.1781390667,
				"element": "O" 
			},
			{
				"x": 2.6571775315,
				"y": -0.2769814805,
				"z": 0.5778635908,
				"element": "C" 
			},
			{
				"x": 2.1968152325,
				"y": 0.2709104216,
				"z": 1.7835963725,
				"element": "C" 
			},
			{
				"x": 0.8368646283,
				"y": 0.2451053596,
				"z": 2.0875786181,
				"element": "C" 
			},
			{
				"x": -0.0876868159,
				"y": -0.3203448455,
				"z": 1.2038930947,
				"element": "C" 
			},
			{
				"x": -1.3981382958,
				"y": -0.2921537549,
				"z": 1.6037080308,
				"element": "O" 
			},
			{
				"x": -2.3818056981,
				"y": -0.8514098164,
				"z": 0.7412415289,
				"element": "C" 
			},
			{
				"x": -3.7336896576,
				"y": -0.6571744307,
				"z": 1.4196626529,
				"element": "C" 
			},
			{
				"x": -4.8902442006,
				"y": -1.3185079843,
				"z": 0.6661405126,
				"element": "C" 
			},
			{
				"x": -5.2328132128,
				"y": -0.6479761248,
				"z": -0.6484478907,
				"element": "C" 
			},
			{
				"x": -6.2303360404,
				"y": -1.3028593715,
				"z": -1.290254716,
				"element": "O" 
			},
			{
				"x": -4.7150365648,
				"y": 0.3505182698,
				"z": -1.1000839296,
				"element": "O" 
			},
			{
				"x": 0.3703661707,
				"y": -0.8659452429,
				"z": -0.0023720928,
				"element": "C" 
			},
			{
				"x": 1.7308620874,
				"y": -0.8398890032,
				"z": -0.3058060979,
				"element": "C" 
			},
			{
				"x": 4.128918151,
				"y": 2.2842482241,
				"z": 1.1052889003,
				"element": "H" 
			},
			{
				"x": 5.8804098312,
				"y": 2.2051156289,
				"z": 1.3704924523,
				"element": "H" 
			},
			{
				"x": 5.2178785589,
				"y": 2.0294328551,
				"z": -0.267319621,
				"element": "H" 
			},
			{
				"x": 5.9102078968,
				"y": -0.1883484868,
				"z": 0.6467019217,
				"element": "H" 
			},
			{
				"x": 4.8423942728,
				"y": 0.0141584011,
				"z": 2.0365156234,
				"element": "H" 
			},
			{
				"x": 2.8807427914,
				"y": 0.7215637381,
				"z": 2.4930522264,
				"element": "H" 
			},
			{
				"x": 0.4719731643,
				"y": 0.6686377004,
				"z": 3.0178158616,
				"element": "H" 
			},
			{
				"x": -2.3686267746,
				"y": -0.3513309978,
				"z": -0.234791423,
				"element": "H" 
			},
			{
				"x": -2.1805935042,
				"y": -1.9231665222,
				"z": 0.583516036,
				"element": "H" 
			},
			{
				"x": -3.6774261429,
				"y": -1.0796316513,
				"z": 2.4284760045,
				"element": "H" 
			},
			{
				"x": -3.924629298,
				"y": 0.4151083049,
				"z": 1.5251908638,
				"element": "H" 
			},
			{
				"x": -4.6893148019,
				"y": -2.3778277923,
				"z": 0.4614663944,
				"element": "H" 
			},
			{
				"x": -5.8017428802,
				"y": -1.3100909435,
				"z": 1.2758981696,
				"element": "H" 
			},
			{
				"x": -6.3951130337,
				"y": -0.8077870012,
				"z": -2.1104485283,
				"element": "H" 
			},
			{
				"x": -0.3178279209,
				"y": -1.3097974289,
				"z": -0.7119235992,
				"element": "H" 
			},
			{
				"x": 2.0960720948,
				"y": -1.2614123987,
				"z": -1.236774865,
				"element": "H" 
			}
		],
		 "valence_orbital": [ 
			{
				"type": "occ",
				"energy": -0.3091,
				"method": "rhf"
			},
			{
				"type": "occ",
				"energy": -0.28238,
				"method": "rhf"
			},
			{
				"type": "occ",
				"energy": -0.27699,
				"method": "rhf"
			},
			{
				"type": "occ",
				"energy": -0.24424,
				"method": "rhf"
			},
			{
				"type": "occ",
				"energy": -0.1901,
				"method": "rhf"
			},
			{
				"type": "unocc",
				"energy": 0.00307,
				"method": "rhf"
			},
			{
				"type": "unocc",
				"energy": 0.00407,
				"method": "rhf"
			},
			{
				"type": "unocc",
				"energy": 0.0332,
				"method": "rhf"
			},
			{
				"type": "unocc",
				"energy": 0.07397,
				"method": "rhf"
			},
			{
				"type": "unocc",
				"energy": 0.08925,
				"method": "rhf"
			}
		],
		"cosmo_sigma_profile": { 
			"-0.025": 0.0,
			"-0.024": 0.0,
			"-0.023": 0.0,
			"-0.022": 0.0,
			"-0.021": 0.0,
			"-0.02": 0.0,
			"-0.019": 0.0,
			"-0.018": 0.747372638653,
			"-0.017": 1.02127661429,
			"-0.016": 0.462786552816,
			"-0.015": 0.939369739718,
			"-0.014": 0.586831161093,
			"-0.013": 0.860168812429,
			"-0.012": 0.354832229353,
			"-0.011": 0.783567742795,
			"-0.01": 1.21961351582,
			"-0.009": 0.482466706464,
			"-0.008": 0.511239239846,
			"-0.007": 2.65373597076,
			"-0.006": 14.6867223065,
			"-0.005": 21.0485368118,
			"-0.004": 27.7973484405,
			"-0.003": 32.6811926093,
			"-0.002": 23.505014172,
			"-0.001": 18.430158526,
			"0.0": 18.8350119319,
			"0.001": 12.7700202764,
			"0.002": 12.5622088388,
			"0.003": 10.8810653538,
			"0.004": 16.1105394768,
			"0.005": 17.1689959118,
			"0.006": 13.6703797106,
			"0.007": 5.88001360723,
			"0.008": 5.43568917682,
			"0.009": 4.97422943998,
			"0.01": 6.36596823949,
			"0.011": 4.49032761568,
			"0.012": 3.58115949536,
			"0.013": 0.0940621671407,
			"0.014": 0.0,
			"0.015": 0.0,
			"0.016": 0.0,
			"0.017": 0.0,
			"0.018": 0.0,
			"0.019": 0.0,
			"0.02": 0.0,
			"0.021": 0.0,
			"0.022": 0.0,
			"0.023": 0.0,
			"0.024": 0.0,
			"0.0": 0.0
		}
	}
}
