{
	 "smiles": "CC(C)=CC(C)=O", 
	 "Tm": 220.15, 
	 "num_atms": 17, 
	 "gaussian": { 
		 "optdone": 1, 
		 "sigma_profile": "yes", 
		 "theory": "DFT", 
		 "functional": "B3LYP", 
		 "basiset": "6-31G**", 
		 "properties": { 
			 "R2extent": 1315.0998, 
			 "electric_dipole_moment_norm": 3.93803372637, 
			 "electric_quadrupole_moment_norm": 10.4498503109, 
			 "total_energy": -309.8772128, 
			 "HOMO_LUMO_gap": 0.19387, 
			 "cosmo_polarized_energy": -8.57, 
			 "cosmo_cavitation_energy": 20.05, 
			 "cosmo_dispersion_energy": -14.48, 
			 "cosmo_repulsion_energy": 1.23, 
			 "cosmo_total_nonelectrostatic_energy": 6.8, 
			 "SMD_solvation_energy": 4.69 
		},
		"coords": [
			{
				"x": -0.5282560506,
				"y": -2.7580373303,
				"z": -0.7808797942,
				"element": "C" 
			},
			{
				"x": -0.1792219817,
				"y": -1.2962181331,
				"z": -0.9352641501,
				"element": "C" 
			},
			{
				"x": 1.2404796937,
				"y": -0.9804301443,
				"z": -0.5399427261,
				"element": "C" 
			},
			{
				"x": -1.1219424332,
				"y": -0.443291232,
				"z": -1.3914760874,
				"element": "C" 
			},
			{
				"x": -1.1296958913,
				"y": 1.0184838688,
				"z": -1.6593797808,
				"element": "C" 
			},
			{
				"x": 0.0794113843,
				"y": 1.9132656874,
				"z": -1.4347118568,
				"element": "C" 
			},
			{
				"x": -2.1685631451,
				"y": 1.513338599,
				"z": -2.081544778,
				"element": "O" 
			},
			{
				"x": 0.1373134627,
				"y": -3.3818958497,
				"z": -1.3915981684,
				"element": "H" 
			},
			{
				"x": -1.5597816867,
				"y": -2.9688838789,
				"z": -1.0709842563,
				"element": "H" 
			},
			{
				"x": -0.3880089972,
				"y": -3.0821530903,
				"z": 0.2585470367,
				"element": "H" 
			},
			{
				"x": 1.410647561,
				"y": -1.2786420724,
				"z": 0.5026099349,
				"element": "H" 
			},
			{
				"x": 1.5175969969,
				"y": 0.0650463671,
				"z": -0.6414578526,
				"element": "H" 
			},
			{
				"x": 1.9353773912,
				"y": -1.5776162393,
				"z": -1.1443880614,
				"element": "H" 
			},
			{
				"x": -2.0984090763,
				"y": -0.8620063499,
				"z": -1.6272838316,
				"element": "H" 
			},
			{
				"x": 0.9297286877,
				"y": 1.5981725,
				"z": -2.0486278101,
				"element": "H" 
			},
			{
				"x": -0.2010350314,
				"y": 2.9314633393,
				"z": -1.7081455781,
				"element": "H" 
			},
			{
				"x": 0.399159116,
				"y": 1.8979039585,
				"z": -0.3874722395,
				"element": "H" 
			}
		],
		 "valence_orbital": [ 
			{
				"type": "occ",
				"energy": -0.37026,
				"method": "rhf"
			},
			{
				"type": "occ",
				"energy": -0.35349,
				"method": "rhf"
			},
			{
				"type": "occ",
				"energy": -0.3463,
				"method": "rhf"
			},
			{
				"type": "occ",
				"energy": -0.25668,
				"method": "rhf"
			},
			{
				"type": "occ",
				"energy": -0.2382,
				"method": "rhf"
			},
			{
				"type": "unocc",
				"energy": -0.04433,
				"method": "rhf"
			},
			{
				"type": "unocc",
				"energy": 0.07065,
				"method": "rhf"
			},
			{
				"type": "unocc",
				"energy": 0.08303,
				"method": "rhf"
			},
			{
				"type": "unocc",
				"energy": 0.11572,
				"method": "rhf"
			},
			{
				"type": "unocc",
				"energy": 0.12487,
				"method": "rhf"
			}
		],
		"cosmo_sigma_profile": { 
			"-0.025": 0.0,
			"-0.024": 0.0,
			"-0.023": 0.0,
			"-0.022": 0.0,
			"-0.021": 0.0,
			"-0.02": 0.0,
			"-0.019": 0.0,
			"-0.018": 0.0,
			"-0.017": 0.0,
			"-0.016": 0.0,
			"-0.015": 0.0,
			"-0.014": 0.0,
			"-0.013": 0.0,
			"-0.012": 0.0,
			"-0.011": 0.0,
			"-0.01": 0.0,
			"-0.009": 0.0,
			"-0.008": 0.0,
			"-0.007": 0.0,
			"-0.006": 2.24707012227,
			"-0.005": 14.0405493311,
			"-0.004": 21.8898499212,
			"-0.003": 17.9034567454,
			"-0.002": 17.3045091559,
			"-0.001": 24.0931476309,
			"0.0": 15.9198077974,
			"0.001": 6.06781326926,
			"0.002": 5.27340430735,
			"0.003": 5.65701206459,
			"0.004": 4.6352974702,
			"0.005": 1.71886830832,
			"0.006": 1.35299830114,
			"0.007": 2.33504103026,
			"0.008": 1.14972311199,
			"0.009": 1.19514688332,
			"0.01": 1.66760166079,
			"0.011": 2.44142178864,
			"0.012": 3.43185959862,
			"0.013": 4.43996464887,
			"0.014": 2.33933497594,
			"0.015": 0.128156854576,
			"0.016": 0.0,
			"0.017": 0.0,
			"0.018": 0.0,
			"0.019": 0.0,
			"0.02": 0.0,
			"0.021": 0.0,
			"0.022": 0.0,
			"0.023": 0.0,
			"0.024": 0.0,
			"0.025": 0.0
		}
	}
}
