{
	 "smiles": "CC1=CC=C(C)C(Cl)=C1", 
	 "Tm": 274.75, 
	 "num_atms": 18, 
	 "gaussian": { 
		 "optdone": 1, 
		 "sigma_profile": "yes", 
		 "theory": "DFT", 
		 "functional": "B3LYP", 
		 "basiset": "6-31G**", 
		 "properties": { 
			 "R2extent": 1812.3394, 
			 "electric_dipole_moment_norm": 1.84733842595, 
			 "electric_quadrupole_moment_norm": 5.68452320604, 
			 "total_energy": -770.484773351, 
			 "HOMO_LUMO_gap": 0.22724, 
			 "cosmo_polarized_energy": -3.58, 
			 "cosmo_cavitation_energy": 22.81, 
			 "cosmo_dispersion_energy": -16.95, 
			 "cosmo_repulsion_energy": 1.39, 
			 "cosmo_total_nonelectrostatic_energy": 7.25, 
			 "SMD_solvation_energy": 3.77 
		},
		"coords": [
			{
				"x": 2.83339191,
				"y": -0.921829831,
				"z": 2.7694060287,
				"element": "C" 
			},
			{
				"x": 1.912152254,
				"y": -0.6012659137,
				"z": 1.6157486884,
				"element": "C" 
			},
			{
				"x": 2.0079166732,
				"y": 0.6102715076,
				"z": 0.9218128348,
				"element": "C" 
			},
			{
				"x": 1.133234426,
				"y": 0.9078697678,
				"z": -0.1214125765,
				"element": "C" 
			},
			{
				"x": 0.1274817024,
				"y": 0.0196705179,
				"z": -0.5258077388,
				"element": "C" 
			},
			{
				"x": -0.806453301,
				"y": 0.3573984199,
				"z": -1.6590514384,
				"element": "C" 
			},
			{
				"x": 0.0505739326,
				"y": -1.1895222608,
				"z": 0.1798998829,
				"element": "C" 
			},
			{
				"x": -1.1794884238,
				"y": -2.3777871915,
				"z": -0.2602384325,
				"element": "Cl" 
			},
			{
				"x": 0.9162958716,
				"y": -1.5038123462,
				"z": 1.2250765804,
				"element": "C" 
			},
			{
				"x": 3.0060650668,
				"y": -1.9985337468,
				"z": 2.8579539645,
				"element": "H" 
			},
			{
				"x": 2.4091285831,
				"y": -0.5804888861,
				"z": 3.7219171603,
				"element": "H" 
			},
			{
				"x": 3.804263598,
				"y": -0.4315062016,
				"z": 2.6514483407,
				"element": "H" 
			},
			{
				"x": 2.7754229052,
				"y": 1.3284686314,
				"z": 1.198443305,
				"element": "H" 
			},
			{
				"x": 1.2297808384,
				"y": 1.854935695,
				"z": -0.6460693,
				"element": "H" 
			},
			{
				"x": -1.8510919033,
				"y": 0.3587932171,
				"z": -1.3295800632,
				"element": "H" 
			},
			{
				"x": -0.7329165566,
				"y": -0.375102984,
				"z": -2.4701824769,
				"element": "H" 
			},
			{
				"x": -0.5755185012,
				"y": 1.3443684509,
				"z": -2.0678043524,
				"element": "H" 
			},
			{
				"x": 0.8110609248,
				"y": -2.457426846,
				"z": 1.7326395929,
				"element": "H" 
			}
		],
		 "valence_orbital": [ 
			{
				"type": "occ",
				"energy": -0.34646,
				"method": "rhf"
			},
			{
				"type": "occ",
				"energy": -0.32233,
				"method": "rhf"
			},
			{
				"type": "occ",
				"energy": -0.30592,
				"method": "rhf"
			},
			{
				"type": "occ",
				"energy": -0.24709,
				"method": "rhf"
			},
			{
				"type": "occ",
				"energy": -0.2348,
				"method": "rhf"
			},
			{
				"type": "unocc",
				"energy": -0.00756,
				"method": "rhf"
			},
			{
				"type": "unocc",
				"energy": -0.00393,
				"method": "rhf"
			},
			{
				"type": "unocc",
				"energy": 0.0366,
				"method": "rhf"
			},
			{
				"type": "unocc",
				"energy": 0.1045,
				"method": "rhf"
			},
			{
				"type": "unocc",
				"energy": 0.1121,
				"method": "rhf"
			}
		],
		"cosmo_sigma_profile": { 
			"-0.025": 0.0,
			"-0.024": 0.0,
			"-0.023": 0.0,
			"-0.022": 0.0,
			"-0.021": 0.0,
			"-0.02": 0.0,
			"-0.019": 0.0,
			"-0.018": 0.0,
			"-0.017": 0.0,
			"-0.016": 0.0,
			"-0.015": 0.0,
			"-0.014": 0.0,
			"-0.013": 0.0,
			"-0.012": 0.0,
			"-0.011": 0.0,
			"-0.01": 0.0,
			"-0.009": 0.0,
			"-0.008": 0.0,
			"-0.007": 0.155149553583,
			"-0.006": 3.62583738584,
			"-0.005": 10.3892960638,
			"-0.004": 16.8460332043,
			"-0.003": 16.0568817567,
			"-0.002": 16.3190474954,
			"-0.001": 20.2984610445,
			"0.0": 22.6287035687,
			"0.001": 14.496047204,
			"0.002": 12.3500572268,
			"0.003": 15.4876431185,
			"0.004": 16.6223416454,
			"0.005": 15.6135266406,
			"0.006": 2.00596875091,
			"0.007": 0.0,
			"0.008": 0.0,
			"0.009": 0.0,
			"0.01": 0.0,
			"0.011": 0.0,
			"0.012": 0.0,
			"0.013": 0.0,
			"0.014": 0.0,
			"0.015": 0.0,
			"0.016": 0.0,
			"0.017": 0.0,
			"0.018": 0.0,
			"0.019": 0.0,
			"0.02": 0.0,
			"0.021": 0.0,
			"0.022": 0.0,
			"0.023": 0.0,
			"0.024": 0.0,
			"0.025": 0.0
		}
	}
}
