{
	 "smiles": "CN1CCCN(C)C1=O", 
	 "Tm": 253.15, 
	 "num_atms": 21, 
	 "gaussian": { 
		 "optdone": 1, 
		 "sigma_profile": "yes", 
		 "theory": "DFT", 
		 "functional": "B3LYP", 
		 "basiset": "6-31G**", 
		 "properties": { 
			 "R2extent": 1452.1444, 
			 "electric_dipole_moment_norm": 3.55154665463, 
			 "electric_quadrupole_moment_norm": 5.07256336382, 
			 "total_energy": -420.61502905, 
			 "HOMO_LUMO_gap": 0.27966, 
			 "cosmo_polarized_energy": -9.38, 
			 "cosmo_cavitation_energy": 22.33, 
			 "cosmo_dispersion_energy": -16.85, 
			 "cosmo_repulsion_energy": 1.38, 
			 "cosmo_total_nonelectrostatic_energy": 6.86, 
			 "SMD_solvation_energy": 2.7 
		},
		"coords": [
			{
				"x": -1.7443089327,
				"y": -1.9192852096,
				"z": 1.4541883115,
				"element": "C" 
			},
			{
				"x": -0.4059632734,
				"y": -1.4612239632,
				"z": 1.1049525613,
				"element": "N" 
			},
			{
				"x": 0.4228571216,
				"y": -0.9840627964,
				"z": 2.213340189,
				"element": "C" 
			},
			{
				"x": 1.9183663085,
				"y": -0.9986708369,
				"z": 1.8490656456,
				"element": "C" 
			},
			{
				"x": 2.1141727198,
				"y": -0.8953799852,
				"z": 0.325824518,
				"element": "C" 
			},
			{
				"x": 0.9763794166,
				"y": -0.2383539361,
				"z": -0.3197896681,
				"element": "N" 
			},
			{
				"x": 1.2224858682,
				"y": 0.3196015647,
				"z": -1.643071652,
				"element": "C" 
			},
			{
				"x": -0.282302993,
				"y": -0.7978456724,
				"z": -0.1134717308,
				"element": "C" 
			},
			{
				"x": -1.1966074454,
				"y": -0.7141853666,
				"z": -0.9287699463,
				"element": "O" 
			},
			{
				"x": -2.2463822051,
				"y": -2.2606273486,
				"z": 0.5503433438,
				"element": "H" 
			},
			{
				"x": -1.6668766381,
				"y": -2.7447754088,
				"z": 2.1686155875,
				"element": "H" 
			},
			{
				"x": -2.3557958233,
				"y": -1.12210622,
				"z": 1.9031221162,
				"element": "H" 
			},
			{
				"x": 0.1188308744,
				"y": 0.0347028088,
				"z": 2.501269734,
				"element": "H" 
			},
			{
				"x": 0.232508103,
				"y": -1.6276442098,
				"z": 3.0772945335,
				"element": "H" 
			},
			{
				"x": 2.4124957404,
				"y": -0.1652685082,
				"z": 2.3582835086,
				"element": "H" 
			},
			{
				"x": 2.3919712654,
				"y": -1.9198552932,
				"z": 2.2028307821,
				"element": "H" 
			},
			{
				"x": 2.262108755,
				"y": -1.9001978996,
				"z": -0.1003992003,
				"element": "H" 
			},
			{
				"x": 3.0131958369,
				"y": -0.3169853497,
				"z": 0.0933167621,
				"element": "H" 
			},
			{
				"x": 0.3086087599,
				"y": 0.7903347002,
				"z": -2.001915467,
				"element": "H" 
			},
			{
				"x": 1.5191317981,
				"y": -0.4487327934,
				"z": -2.3728839819,
				"element": "H" 
			},
			{
				"x": 2.0210247431,
				"y": 1.065061724,
				"z": -1.5762459468,
				"element": "H" 
			}
		],
		 "valence_orbital": [ 
			{
				"type": "occ",
				"energy": -0.3506,
				"method": "rhf"
			},
			{
				"type": "occ",
				"energy": -0.33776,
				"method": "rhf"
			},
			{
				"type": "occ",
				"energy": -0.25432,
				"method": "rhf"
			},
			{
				"type": "occ",
				"energy": -0.22884,
				"method": "rhf"
			},
			{
				"type": "occ",
				"energy": -0.22835,
				"method": "rhf"
			},
			{
				"type": "unocc",
				"energy": 0.05131,
				"method": "rhf"
			},
			{
				"type": "unocc",
				"energy": 0.07528,
				"method": "rhf"
			},
			{
				"type": "unocc",
				"energy": 0.10767,
				"method": "rhf"
			},
			{
				"type": "unocc",
				"energy": 0.11751,
				"method": "rhf"
			},
			{
				"type": "unocc",
				"energy": 0.12302,
				"method": "rhf"
			}
		],
		"cosmo_sigma_profile": { 
			"-0.025": 0.0,
			"-0.024": 0.0,
			"-0.023": 0.0,
			"-0.022": 0.0,
			"-0.021": 0.0,
			"-0.02": 0.0,
			"-0.019": 0.0,
			"-0.018": 0.0,
			"-0.017": 0.0,
			"-0.016": 0.0,
			"-0.015": 0.0,
			"-0.014": 0.0,
			"-0.013": 0.0,
			"-0.012": 0.0,
			"-0.011": 0.0,
			"-0.01": 0.0,
			"-0.009": 0.0,
			"-0.008": 0.0,
			"-0.007": 0.0,
			"-0.006": 0.126824433701,
			"-0.005": 8.19820656387,
			"-0.004": 20.1534453578,
			"-0.003": 35.9355541332,
			"-0.002": 30.7024652931,
			"-0.001": 23.8853115511,
			"0.0": 9.32203319855,
			"0.001": 4.46765204388,
			"0.002": 4.97963654635,
			"0.003": 4.43186505721,
			"0.004": 3.91495231651,
			"0.005": 3.47059555221,
			"0.006": 3.50145652151,
			"0.007": 2.47019536118,
			"0.008": 2.59380170554,
			"0.009": 1.9635224585,
			"0.01": 1.1416613183,
			"0.011": 0.835080155379,
			"0.012": 1.8006343921,
			"0.013": 2.18933925304,
			"0.014": 3.99973059739,
			"0.015": 3.48435531359,
			"0.016": 0.0,
			"0.017": 0.0,
			"0.018": 0.0,
			"0.019": 0.0,
			"0.02": 0.0,
			"0.021": 0.0,
			"0.022": 0.0,
			"0.023": 0.0,
			"0.024": 0.0,
			"0.025": 0.0
		}
	}
}
