{
	 "smiles": "CO[C@H]1[C@@H](C[C@@H]2CN3CCC4=C(NC5=CC(OC)=CC=C45)[C@H]3C[C@@H]2[C@@H]1C(=O)OC)OC(=O)C1=CC(OC)=C(OC)C(OC)=C1", 
	 "Tm": 538.15, 
	 "num_atms": 84, 
	 "gaussian": { 
		 "optdone": 1, 
		 "sigma_profile": "yes", 
		 "theory": "DFT", 
		 "functional": "B3LYP", 
		 "basiset": "6-31G**", 
		 "properties": { 
			 "R2extent": 39886.3894, 
			 "electric_dipole_moment_norm": 5.11681003067, 
			 "electric_quadrupole_moment_norm": 45.7144616253, 
			 "total_energy": -2068.06514544, 
			 "HOMO_LUMO_gap": 0.14024, 
			 "cosmo_polarized_energy": -31.42, 
			 "cosmo_cavitation_energy": 81.96, 
			 "cosmo_dispersion_energy": -52.95, 
			 "cosmo_repulsion_energy": 3.94, 
			 "cosmo_total_nonelectrostatic_energy": 32.95, 
			 "SMD_solvation_energy": 15.1 
		},
		"coords": [
			{
				"x": 0.1440097493,
				"y": 2.1667551074,
				"z": 1.7659003963,
				"element": "C" 
			},
			{
				"x": 0.0300697779,
				"y": 1.5927812192,
				"z": 0.4755088614,
				"element": "O" 
			},
			{
				"x": -1.2153352276,
				"y": 1.8290879607,
				"z": -0.178632478,
				"element": "C" 
			},
			{
				"x": -1.012359301,
				"y": 1.4048749585,
				"z": -1.6520316181,
				"element": "C" 
			},
			{
				"x": -1.5535138046,
				"y": 0.0039735183,
				"z": -1.9717324414,
				"element": "C" 
			},
			{
				"x": -1.3194024696,
				"y": -0.9410113535,
				"z": -0.785027731,
				"element": "C" 
			},
			{
				"x": -1.6872359327,
				"y": -2.405455504,
				"z": -1.1156502381,
				"element": "C" 
			},
			{
				"x": -1.7669802998,
				"y": -3.2633155798,
				"z": 0.0638763087,
				"element": "N" 
			},
			{
				"x": -0.4768619036,
				"y": -3.4251543286,
				"z": 0.7470968205,
				"element": "C" 
			},
			{
				"x": -0.5502570161,
				"y": -4.4890685815,
				"z": 1.848918997,
				"element": "C" 
			},
			{
				"x": -1.7017071197,
				"y": -4.1565766185,
				"z": 2.7458238909,
				"element": "C" 
			},
			{
				"x": -2.7430470325,
				"y": -3.3936415151,
				"z": 2.2909707795,
				"element": "C" 
			},
			{
				"x": -3.6777994765,
				"y": -3.2353560571,
				"z": 3.309063944,
				"element": "N" 
			},
			{
				"x": -3.2381627401,
				"y": -3.9032119118,
				"z": 4.4350290793,
				"element": "C" 
			},
			{
				"x": -3.8387641378,
				"y": -4.0201217641,
				"z": 5.696202857,
				"element": "C" 
			},
			{
				"x": -3.1524427085,
				"y": -4.7604194754,
				"z": 6.6582967735,
				"element": "C" 
			},
			{
				"x": -3.6062427825,
				"y": -4.9707793369,
				"z": 7.9346367783,
				"element": "O" 
			},
			{
				"x": -4.8524858496,
				"y": -4.4095755169,
				"z": 8.2991351825,
				"element": "C" 
			},
			{
				"x": -1.9038412852,
				"y": -5.3591468958,
				"z": 6.367334387,
				"element": "C" 
			},
			{
				"x": -1.3246879378,
				"y": -5.230835822,
				"z": 5.115877921,
				"element": "C" 
			},
			{
				"x": -1.9869191549,
				"y": -4.4956630514,
				"z": 4.1163039527,
				"element": "C" 
			},
			{
				"x": -2.9330925678,
				"y": -2.8786629536,
				"z": 0.8967619285,
				"element": "C" 
			},
			{
				"x": -3.2903266033,
				"y": -1.3554518346,
				"z": 0.8170716652,
				"element": "C" 
			},
			{
				"x": -2.0688566929,
				"y": -0.4721279768,
				"z": 0.5057651734,
				"element": "C" 
			},
			{
				"x": -2.3797986259,
				"y": 1.0502509674,
				"z": 0.4962459211,
				"element": "C" 
			},
			{
				"x": -3.6939254752,
				"y": 1.4983901963,
				"z": -0.1443980122,
				"element": "C" 
			},
			{
				"x": -4.4188552126,
				"y": 0.8612656062,
				"z": -0.8795677711,
				"element": "O" 
			},
			{
				"x": -3.9612075016,
				"y": 2.7735995848,
				"z": 0.2178690373,
				"element": "O" 
			},
			{
				"x": -5.1042974266,
				"y": 3.3676465574,
				"z": -0.4252564816,
				"element": "C" 
			},
			{
				"x": -1.7001202666,
				"y": 2.3956056468,
				"z": -2.4555796836,
				"element": "O" 
			},
			{
				"x": -1.2977082597,
				"y": 2.7317341336,
				"z": -3.7206090306,
				"element": "C" 
			},
			{
				"x": -2.1378744278,
				"y": 2.965549079,
				"z": -4.5588982694,
				"element": "O" 
			},
			{
				"x": 0.1682004487,
				"y": 2.878331363,
				"z": -3.985933945,
				"element": "C" 
			},
			{
				"x": 1.0523067433,
				"y": 3.3560245786,
				"z": -3.0048855322,
				"element": "C" 
			},
			{
				"x": 2.402301962,
				"y": 3.5346894966,
				"z": -3.3105098295,
				"element": "C" 
			},
			{
				"x": 3.3417603979,
				"y": 3.9769632381,
				"z": -2.4268455932,
				"element": "O" 
			},
			{
				"x": 2.9278388206,
				"y": 4.2394650054,
				"z": -1.0927168229,
				"element": "C" 
			},
			{
				"x": 2.877372251,
				"y": 3.2387682795,
				"z": -4.6076530298,
				"element": "C" 
			},
			{
				"x": 4.1945920245,
				"y": 3.4337550649,
				"z": -4.9315885692,
				"element": "O" 
			},
			{
				"x": 5.0959360428,
				"y": 2.4381248547,
				"z": -4.4328434459,
				"element": "C" 
			},
			{
				"x": 1.9793814654,
				"y": 2.7826913337,
				"z": -5.585827073,
				"element": "C" 
			},
			{
				"x": 2.4143115952,
				"y": 2.4353374161,
				"z": -6.8384983657,
				"element": "O" 
			},
			{
				"x": 2.8904272682,
				"y": 3.510570278,
				"z": -7.6568476447,
				"element": "C" 
			},
			{
				"x": 0.6271926448,
				"y": 2.6166521027,
				"z": -5.2776501291,
				"element": "C" 
			},
			{
				"x": -0.1040077821,
				"y": 3.238840693,
				"z": 1.7542405047,
				"element": "H" 
			},
			{
				"x": -0.4962332016,
				"y": 1.6705416412,
				"z": 2.5080684353,
				"element": "H" 
			},
			{
				"x": 1.1848610415,
				"y": 2.0440716235,
				"z": 2.0744680617,
				"element": "H" 
			},
			{
				"x": -1.444188655,
				"y": 2.902975941,
				"z": -0.1583336028,
				"element": "H" 
			},
			{
				"x": 0.0615777867,
				"y": 1.4423582397,
				"z": -1.8406272496,
				"element": "H" 
			},
			{
				"x": -1.0551859047,
				"y": -0.3769727931,
				"z": -2.8716137888,
				"element": "H" 
			},
			{
				"x": -2.6208693289,
				"y": 0.0741453297,
				"z": -2.1963672296,
				"element": "H" 
			},
			{
				"x": -0.2470275165,
				"y": -0.9125716961,
				"z": -0.5563055254,
				"element": "H" 
			},
			{
				"x": -2.6587692315,
				"y": -2.4400974014,
				"z": -1.626692022,
				"element": "H" 
			},
			{
				"x": -0.9525819959,
				"y": -2.8264951144,
				"z": -1.8126000411,
				"element": "H" 
			},
			{
				"x": -0.0995920244,
				"y": -2.4904364883,
				"z": 1.2002555426,
				"element": "H" 
			},
			{
				"x": 0.2498576852,
				"y": -3.7235417475,
				"z": -0.0177795846,
				"element": "H" 
			},
			{
				"x": -0.6725084986,
				"y": -5.4829217921,
				"z": 1.3969010122,
				"element": "H" 
			},
			{
				"x": 0.3980007973,
				"y": -4.5033988288,
				"z": 2.4009122357,
				"element": "H" 
			},
			{
				"x": -4.5609139491,
				"y": -2.759783051,
				"z": 3.2221353467,
				"element": "H" 
			},
			{
				"x": -4.7950496926,
				"y": -3.5542189936,
				"z": 5.90311861,
				"element": "H" 
			},
			{
				"x": -4.8432124668,
				"y": -3.313250998,
				"z": 8.2261211095,
				"element": "H" 
			},
			{
				"x": -5.6717625256,
				"y": -4.7986081254,
				"z": 7.6790317423,
				"element": "H" 
			},
			{
				"x": -5.0241712929,
				"y": -4.6962982215,
				"z": 9.3382539687,
				"element": "H" 
			},
			{
				"x": -1.4193195014,
				"y": -5.9225812315,
				"z": 7.1577160266,
				"element": "H" 
			},
			{
				"x": -0.3662576451,
				"y": -5.70057008,
				"z": 4.9123737396,
				"element": "H" 
			},
			{
				"x": -3.7984777179,
				"y": -3.4113009404,
				"z": 0.4668211153,
				"element": "H" 
			},
			{
				"x": -3.7428415595,
				"y": -1.0297519024,
				"z": 1.7625747891,
				"element": "H" 
			},
			{
				"x": -4.0464902692,
				"y": -1.2066465826,
				"z": 0.0453468291,
				"element": "H" 
			},
			{
				"x": -1.3656393556,
				"y": -0.6015749431,
				"z": 1.336306707,
				"element": "H" 
			},
			{
				"x": -2.4510533906,
				"y": 1.4016705422,
				"z": 1.5322975104,
				"element": "H" 
			},
			{
				"x": -4.9587758637,
				"y": 3.3852627333,
				"z": -1.5078522447,
				"element": "H" 
			},
			{
				"x": -6.0114875051,
				"y": 2.8044097336,
				"z": -0.1946418689,
				"element": "H" 
			},
			{
				"x": -5.1696987063,
				"y": 4.3805789557,
				"z": -0.0284450589,
				"element": "H" 
			},
			{
				"x": 0.6773874858,
				"y": 3.6018640581,
				"z": -2.0205116732,
				"element": "H" 
			},
			{
				"x": 2.4788556755,
				"y": 3.3531860516,
				"z": -0.6264224151,
				"element": "H" 
			},
			{
				"x": 2.2106505336,
				"y": 5.0692010822,
				"z": -1.051648375,
				"element": "H" 
			},
			{
				"x": 3.8311024901,
				"y": 4.5206158957,
				"z": -0.549458961,
				"element": "H" 
			},
			{
				"x": 5.0929142179,
				"y": 2.4174287588,
				"z": -3.3386311324,
				"element": "H" 
			},
			{
				"x": 4.8373199315,
				"y": 1.4477390949,
				"z": -4.8256354318,
				"element": "H" 
			},
			{
				"x": 6.0884634839,
				"y": 2.7213514052,
				"z": -4.7884857981,
				"element": "H" 
			},
			{
				"x": 3.7594987794,
				"y": 3.9985333956,
				"z": -7.2076991289,
				"element": "H" 
			},
			{
				"x": 3.1710294757,
				"y": 3.0606634832,
				"z": -8.6112746572,
				"element": "H" 
			},
			{
				"x": 2.0969692223,
				"y": 4.2494056087,
				"z": -7.8262268876,
				"element": "H" 
			},
			{
				"x": -0.0565649771,
				"y": 2.2744651947,
				"z": -6.0453975296,
				"element": "H" 
			}
		],
		 "valence_orbital": [ 
			{
				"type": "occ",
				"energy": -0.23575,
				"method": "rhf"
			},
			{
				"type": "occ",
				"energy": -0.2259,
				"method": "rhf"
			},
			{
				"type": "occ",
				"energy": -0.20716,
				"method": "rhf"
			},
			{
				"type": "occ",
				"energy": -0.19816,
				"method": "rhf"
			},
			{
				"type": "occ",
				"energy": -0.17998,
				"method": "rhf"
			},
			{
				"type": "unocc",
				"energy": -0.03974,
				"method": "rhf"
			},
			{
				"type": "unocc",
				"energy": 0.00035,
				"method": "rhf"
			},
			{
				"type": "unocc",
				"energy": 0.00338,
				"method": "rhf"
			},
			{
				"type": "unocc",
				"energy": 0.0042,
				"method": "rhf"
			},
			{
				"type": "unocc",
				"energy": 0.03601,
				"method": "rhf"
			}
		],
		"cosmo_sigma_profile": { 
			"-0.025": 0.0,
			"-0.024": 0.0,
			"-0.023": 0.0,
			"-0.022": 0.0,
			"-0.021": 0.0,
			"-0.02": 0.0,
			"-0.019": 0.0,
			"-0.018": 0.0,
			"-0.017": 0.0,
			"-0.016": 0.0,
			"-0.015": 0.411064727884,
			"-0.014": 1.13937485593,
			"-0.013": 1.25527667293,
			"-0.012": 1.17367317351,
			"-0.011": 1.21503351101,
			"-0.01": 1.92378097513,
			"-0.009": 1.31273472362,
			"-0.008": 1.79123367083,
			"-0.007": 4.75046210696,
			"-0.006": 21.6714901076,
			"-0.005": 45.4779369651,
			"-0.004": 65.8570523164,
			"-0.003": 90.2264628865,
			"-0.002": 73.2715602679,
			"-0.001": 52.3042071047,
			"0.0": 41.3898202437,
			"0.001": 30.7671699074,
			"0.002": 30.6571652534,
			"0.003": 26.8947939766,
			"0.004": 23.3252709799,
			"0.005": 26.6433141554,
			"0.006": 28.2521531907,
			"0.007": 20.598724534,
			"0.008": 8.65062127814,
			"0.009": 9.50021418944,
			"0.01": 10.1108596751,
			"0.011": 12.9963275543,
			"0.012": 6.66583685381,
			"0.013": 2.04350947098,
			"0.014": 0.579166163194,
			"0.015": 0.271393950648,
			"0.016": 0.379924301352,
			"0.017": 0.0,
			"0.018": 0.0,
			"0.019": 0.0,
			"0.02": 0.0,
			"0.021": 0.0,
			"0.022": 0.0,
			"0.023": 0.0,
			"0.024": 0.0,
			"0.025": 0.0
		}
	}
}
