{
	 "smiles": "COC(=O)C1=CC(=CC=C1)C(N)=NO", 
	 "Tm": 376.15, 
	 "num_atms": 24, 
	 "gaussian": { 
		 "optdone": 1, 
		 "sigma_profile": "yes", 
		 "theory": "DFT", 
		 "functional": "B3LYP", 
		 "basiset": "6-31G**", 
		 "properties": { 
			 "R2extent": 3461.8767, 
			 "electric_dipole_moment_norm": 2.25907076914, 
			 "electric_quadrupole_moment_norm": 10.3225166771, 
			 "total_energy": -684.114193329, 
			 "HOMO_LUMO_gap": 0.16522, 
			 "cosmo_polarized_energy": -14.39, 
			 "cosmo_cavitation_energy": 29.03, 
			 "cosmo_dispersion_energy": -21.2, 
			 "cosmo_repulsion_energy": 1.7, 
			 "cosmo_total_nonelectrostatic_energy": 9.53, 
			 "SMD_solvation_energy": 6.7 
		},
		"coords": [
			{
				"x": 2.755786919,
				"y": 3.6270554071,
				"z": -0.1292150185,
				"element": "C" 
			},
			{
				"x": 1.9212471415,
				"y": 2.4596094904,
				"z": -0.0981736678,
				"element": "O" 
			},
			{
				"x": 0.7281150848,
				"y": 2.5880950581,
				"z": -0.72297105,
				"element": "C" 
			},
			{
				"x": 0.3733119671,
				"y": 3.6152251427,
				"z": -1.2685374685,
				"element": "O" 
			},
			{
				"x": -0.0867548329,
				"y": 1.3410609138,
				"z": -0.6622350806,
				"element": "C" 
			},
			{
				"x": 0.3684726661,
				"y": 0.1812592754,
				"z": -0.0250306185,
				"element": "C" 
			},
			{
				"x": -0.4254460445,
				"y": -0.974718348,
				"z": 0.0038320257,
				"element": "C" 
			},
			{
				"x": -1.6887249792,
				"y": -0.9483452652,
				"z": -0.6128701253,
				"element": "C" 
			},
			{
				"x": -2.1429034464,
				"y": 0.2113586355,
				"z": -1.2397632119,
				"element": "C" 
			},
			{
				"x": -1.3484136876,
				"y": 1.3549071254,
				"z": -1.2701251035,
				"element": "C" 
			},
			{
				"x": 0.0722999437,
				"y": -2.1751972537,
				"z": 0.7265025213,
				"element": "C" 
			},
			{
				"x": 0.9249929196,
				"y": -1.9168021,
				"z": 1.8073633298,
				"element": "N" 
			},
			{
				"x": -0.1335652624,
				"y": -3.4223494132,
				"z": 0.4633503019,
				"element": "N" 
			},
			{
				"x": -0.8355132488,
				"y": -3.6291697247,
				"z": -0.7475674825,
				"element": "O" 
			},
			{
				"x": 3.664228344,
				"y": 3.3535662192,
				"z": 0.4074524087,
				"element": "H" 
			},
			{
				"x": 2.9880722348,
				"y": 3.9071085956,
				"z": -1.1597641033,
				"element": "H" 
			},
			{
				"x": 2.2591132711,
				"y": 4.4691423002,
				"z": 0.3594800209,
				"element": "H" 
			},
			{
				"x": 1.3475603129,
				"y": 0.1698268351,
				"z": 0.4374377463,
				"element": "H" 
			},
			{
				"x": -2.303462378,
				"y": -1.838797357,
				"z": -0.6000849905,
				"element": "H" 
			},
			{
				"x": -3.122725255,
				"y": 0.219747418,
				"z": -1.7077300061,
				"element": "H" 
			},
			{
				"x": -1.6816102672,
				"y": 2.2651101094,
				"z": -1.7570417124,
				"element": "H" 
			},
			{
				"x": 1.1830648329,
				"y": -2.7695381179,
				"z": 2.2913952518,
				"element": "H" 
			},
			{
				"x": 0.579759278,
				"y": -1.2077042741,
				"z": 2.4441398659,
				"element": "H" 
			},
			{
				"x": -0.8518055133,
				"y": -4.5933506721,
				"z": -0.7937438329,
				"element": "H" 
			}
		],
		 "valence_orbital": [ 
			{
				"type": "occ",
				"energy": -0.27545,
				"method": "rhf"
			},
			{
				"type": "occ",
				"energy": -0.26757,
				"method": "rhf"
			},
			{
				"type": "occ",
				"energy": -0.26189,
				"method": "rhf"
			},
			{
				"type": "occ",
				"energy": -0.25936,
				"method": "rhf"
			},
			{
				"type": "occ",
				"energy": -0.21275,
				"method": "rhf"
			},
			{
				"type": "unocc",
				"energy": -0.04753,
				"method": "rhf"
			},
			{
				"type": "unocc",
				"energy": -0.02883,
				"method": "rhf"
			},
			{
				"type": "unocc",
				"energy": 0.03708,
				"method": "rhf"
			},
			{
				"type": "unocc",
				"energy": 0.0689,
				"method": "rhf"
			},
			{
				"type": "unocc",
				"energy": 0.0796,
				"method": "rhf"
			}
		],
		"cosmo_sigma_profile": { 
			"-0.025": 0.0,
			"-0.024": 0.0,
			"-0.023": 0.0,
			"-0.022": 0.0,
			"-0.021": 0.0,
			"-0.02": 0.0,
			"-0.019": 0.0,
			"-0.018": 0.0,
			"-0.017": 0.438305511082,
			"-0.016": 0.972952385453,
			"-0.015": 0.758759973153,
			"-0.014": 0.997226622991,
			"-0.013": 1.36419642783,
			"-0.012": 2.86578228618,
			"-0.011": 3.48233958324,
			"-0.01": 2.18786600032,
			"-0.009": 2.93018684119,
			"-0.008": 3.19235490612,
			"-0.007": 4.4524078903,
			"-0.006": 11.6195955613,
			"-0.005": 13.7994734208,
			"-0.004": 16.542795629,
			"-0.003": 15.9939670829,
			"-0.002": 14.467404638,
			"-0.001": 12.5980753371,
			"0.0": 14.4893292951,
			"0.001": 17.3404503669,
			"0.002": 16.1179182755,
			"0.003": 15.9027044777,
			"0.004": 9.40969556816,
			"0.005": 9.19622760724,
			"0.006": 6.97810389634,
			"0.007": 5.23386892975,
			"0.008": 5.0684500924,
			"0.009": 5.64577819823,
			"0.01": 4.65538098925,
			"0.011": 5.22985662133,
			"0.012": 5.35386299055,
			"0.013": 1.20869967841,
			"0.014": 0.225394754144,
			"0.015": 0.0,
			"0.016": 0.0,
			"0.017": 0.0,
			"0.018": 0.0,
			"0.019": 0.0,
			"0.02": 0.0,
			"0.021": 0.0,
			"0.022": 0.0,
			"0.023": 0.0,
			"0.024": 0.0,
			"0.025": 0.0
		}
	}
}
