{
	 "smiles": "OC(=O)C1=CN=C(S)N1C1=CC=CC=C1", 
	 "Tm": 519.15, 
	 "num_atms": 23, 
	 "gaussian": { 
		 "optdone": 1, 
		 "sigma_profile": "yes", 
		 "theory": "DFT", 
		 "functional": "B3LYP", 
		 "basiset": "6-31G**", 
		 "properties": { 
			 "R2extent": 3932.7474, 
			 "electric_dipole_moment_norm": 1.47009417726, 
			 "electric_quadrupole_moment_norm": 4.6894595179, 
			 "total_energy": -1044.02698053, 
			 "HOMO_LUMO_gap": 0.18586, 
			 "cosmo_polarized_energy": -13.87, 
			 "cosmo_cavitation_energy": 30.03, 
			 "cosmo_dispersion_energy": -21.45, 
			 "cosmo_repulsion_energy": 1.65, 
			 "cosmo_total_nonelectrostatic_energy": 10.22, 
			 "SMD_solvation_energy": 4.48 
		},
		"coords": [
			{
				"x": 3.79274839,
				"y": 1.3248837985,
				"z": -2.9203560068,
				"element": "O" 
			},
			{
				"x": 2.7664290352,
				"y": 1.4245699073,
				"z": -2.0329271413,
				"element": "C" 
			},
			{
				"x": 2.6003247255,
				"y": 2.408051471,
				"z": -1.3352010983,
				"element": "O" 
			},
			{
				"x": 1.9407189384,
				"y": 0.2246218181,
				"z": -2.0504282407,
				"element": "C" 
			},
			{
				"x": 2.0636280185,
				"y": -0.9431965993,
				"z": -2.7762144621,
				"element": "C" 
			},
			{
				"x": 1.080324444,
				"y": -1.8327785514,
				"z": -2.456771498,
				"element": "N" 
			},
			{
				"x": 0.3528982809,
				"y": -1.2173671991,
				"z": -1.536974508,
				"element": "C" 
			},
			{
				"x": -1.086230491,
				"y": -1.8919513701,
				"z": -0.7625058358,
				"element": "S" 
			},
			{
				"x": 0.8140039207,
				"y": 0.0333897664,
				"z": -1.2371539284,
				"element": "N" 
			},
			{
				"x": 0.21955019,
				"y": 0.9397670739,
				"z": -0.2928973226,
				"element": "C" 
			},
			{
				"x": -0.5384678495,
				"y": 2.0192934646,
				"z": -0.7508078953,
				"element": "C" 
			},
			{
				"x": -1.1365914786,
				"y": 2.8740515122,
				"z": 0.1725739893,
				"element": "C" 
			},
			{
				"x": -0.9840845997,
				"y": 2.6462674785,
				"z": 1.5425873568,
				"element": "C" 
			},
			{
				"x": -0.2284351191,
				"y": 1.5624239072,
				"z": 1.9914486126,
				"element": "C" 
			},
			{
				"x": 0.3797188894,
				"y": 0.7049270633,
				"z": 1.0737606104,
				"element": "C" 
			},
			{
				"x": 4.2862406901,
				"y": 2.1571442229,
				"z": -2.8387469911,
				"element": "H" 
			},
			{
				"x": 2.8237859362,
				"y": -1.1738162054,
				"z": -3.5090965488,
				"element": "H" 
			},
			{
				"x": -1.0230811597,
				"y": -3.0139897014,
				"z": -1.5038290336,
				"element": "H" 
			},
			{
				"x": -0.6479690927,
				"y": 2.1829790079,
				"z": -1.8175022925,
				"element": "H" 
			},
			{
				"x": -1.723189075,
				"y": 3.7175736104,
				"z": -0.1781715845,
				"element": "H" 
			},
			{
				"x": -1.4535355596,
				"y": 3.3140720579,
				"z": 2.2587264436,
				"element": "H" 
			},
			{
				"x": -0.106102534,
				"y": 1.3842014585,
				"z": 3.0553710883,
				"element": "H" 
			},
			{
				"x": 0.9784154999,
				"y": -0.1364179918,
				"z": 1.4071162867,
				"element": "H" 
			}
		],
		 "valence_orbital": [ 
			{
				"type": "occ",
				"energy": -0.29009,
				"method": "rhf"
			},
			{
				"type": "occ",
				"energy": -0.27226,
				"method": "rhf"
			},
			{
				"type": "occ",
				"energy": -0.26333,
				"method": "rhf"
			},
			{
				"type": "occ",
				"energy": -0.25694,
				"method": "rhf"
			},
			{
				"type": "occ",
				"energy": -0.22313,
				"method": "rhf"
			},
			{
				"type": "unocc",
				"energy": -0.03727,
				"method": "rhf"
			},
			{
				"type": "unocc",
				"energy": -0.01982,
				"method": "rhf"
			},
			{
				"type": "unocc",
				"energy": -0.01474,
				"method": "rhf"
			},
			{
				"type": "unocc",
				"energy": 0.01443,
				"method": "rhf"
			},
			{
				"type": "unocc",
				"energy": 0.0378,
				"method": "rhf"
			}
		],
		"cosmo_sigma_profile": { 
			"-0.025": 0.0,
			"-0.024": 0.0,
			"-0.023": 0.0,
			"-0.022": 0.0,
			"-0.021": 0.0,
			"-0.02": 0.0,
			"-0.019": 0.00514333894016,
			"-0.018": 0.953149886314,
			"-0.017": 0.728128460873,
			"-0.016": 0.755858059154,
			"-0.015": 1.15975335147,
			"-0.014": 0.575607905247,
			"-0.013": 0.0199923918231,
			"-0.012": 1.83267762589,
			"-0.011": 2.41485100851,
			"-0.01": 2.16339248959,
			"-0.009": 1.91412365462,
			"-0.008": 2.99689056127,
			"-0.007": 9.18675684674,
			"-0.006": 13.9737313459,
			"-0.005": 16.3962446005,
			"-0.004": 13.8868167302,
			"-0.003": 12.6484933879,
			"-0.002": 15.9265180538,
			"-0.001": 14.4660748132,
			"0.0": 14.9086533834,
			"0.001": 17.8858822375,
			"0.002": 22.1071617323,
			"0.003": 16.877485973,
			"0.004": 14.4276450002,
			"0.005": 7.76397373974,
			"0.006": 7.54399313385,
			"0.007": 6.41023069221,
			"0.008": 4.20667123359,
			"0.009": 3.24683202887,
			"0.01": 3.52177432519,
			"0.011": 4.88622003974,
			"0.012": 4.35550900797,
			"0.013": 1.64702298363,
			"0.014": 0.572055369987,
			"0.015": 0.8948560006,
			"0.016": 0.159461259316,
			"0.017": 0.0,
			"0.018": 0.0,
			"0.019": 0.0,
			"0.02": 0.0,
			"0.021": 0.0,
			"0.022": 0.0,
			"0.023": 0.0,
			"0.024": 0.0,
			"0.025": 0.0
		}
	}
}
