{
	 "smiles": "NNC1=NC=C(C=C1)S(=O)(=O)N1CCC(CC2=CC=CC=C2)CC1", 
	 "Tm": 459.15, 
	 "num_atms": 46, 
	 "gaussian": { 
		 "optdone": 1, 
		 "sigma_profile": "yes", 
		 "theory": "DFT", 
		 "functional": "B3LYP", 
		 "basiset": "6-31G**", 
		 "properties": { 
			 "R2extent": 13189.7606, 
			 "electric_dipole_moment_norm": 5.42579891813, 
			 "electric_quadrupole_moment_norm": 23.5411775872, 
			 "total_energy": -1428.61631804, 
			 "HOMO_LUMO_gap": 0.18982, 
			 "cosmo_polarized_energy": -21.83, 
			 "cosmo_cavitation_energy": 48.95, 
			 "cosmo_dispersion_energy": -34.5, 
			 "cosmo_repulsion_energy": 2.59, 
			 "cosmo_total_nonelectrostatic_energy": 17.04, 
			 "SMD_solvation_energy": 5.07 
		},
		"coords": [
			{
				"x": -4.6342569743,
				"y": -4.8474662221,
				"z": -1.8220820946,
				"element": "N" 
			},
			{
				"x": -3.4626402745,
				"y": -5.2864097694,
				"z": -1.1785505052,
				"element": "N" 
			},
			{
				"x": -2.3184606391,
				"y": -4.5317230937,
				"z": -1.123485474,
				"element": "C" 
			},
			{
				"x": -2.2856079193,
				"y": -3.4217415511,
				"z": -1.8800875884,
				"element": "N" 
			},
			{
				"x": -1.1705802638,
				"y": -2.6828765115,
				"z": -1.8578202175,
				"element": "C" 
			},
			{
				"x": -0.0539748146,
				"y": -3.0002705108,
				"z": -1.0857583635,
				"element": "C" 
			},
			{
				"x": -0.0900723185,
				"y": -4.1675000014,
				"z": -0.3014998316,
				"element": "C" 
			},
			{
				"x": -1.2290015882,
				"y": -4.9447769885,
				"z": -0.3148353404,
				"element": "C" 
			},
			{
				"x": 1.385454237,
				"y": -1.9428745273,
				"z": -1.0794827076,
				"element": "S" 
			},
			{
				"x": 1.3471463417,
				"y": -1.1576385293,
				"z": -2.3152130283,
				"element": "O" 
			},
			{
				"x": 2.5315551224,
				"y": -2.7826598743,
				"z": -0.7184001318,
				"element": "O" 
			},
			{
				"x": 1.1925278962,
				"y": -0.8391773871,
				"z": 0.1716400188,
				"element": "N" 
			},
			{
				"x": 1.3779262147,
				"y": -1.298031886,
				"z": 1.5548467612,
				"element": "C" 
			},
			{
				"x": 1.9420106235,
				"y": -0.136239591,
				"z": 2.4003001668,
				"element": "C" 
			},
			{
				"x": 1.4556739644,
				"y": 1.2461048957,
				"z": 1.8988114823,
				"element": "C" 
			},
			{
				"x": 1.4710456056,
				"y": 2.286446373,
				"z": 3.0411510584,
				"element": "C" 
			},
			{
				"x": 1.2173876177,
				"y": 3.7110040882,
				"z": 2.5933407443,
				"element": "C" 
			},
			{
				"x": -0.012573818,
				"y": 4.3397201533,
				"z": 2.8283404674,
				"element": "C" 
			},
			{
				"x": -0.2466769143,
				"y": 5.6476094406,
				"z": 2.3973264246,
				"element": "C" 
			},
			{
				"x": 0.7508146143,
				"y": 6.3508155507,
				"z": 1.7215776947,
				"element": "C" 
			},
			{
				"x": 1.9833090881,
				"y": 5.7379717601,
				"z": 1.4825430348,
				"element": "C" 
			},
			{
				"x": 2.2120683504,
				"y": 4.4323383874,
				"z": 1.9157437446,
				"element": "C" 
			},
			{
				"x": 0.0781462813,
				"y": 1.0904014151,
				"z": 1.2397576834,
				"element": "C" 
			},
			{
				"x": 0.1621038886,
				"y": 0.204194798,
				"z": -0.0174900326,
				"element": "C" 
			},
			{
				"x": -4.7309200596,
				"y": -3.8456749287,
				"z": -1.6518209716,
				"element": "H" 
			},
			{
				"x": -4.4828820727,
				"y": -4.9335499327,
				"z": -2.8263886923,
				"element": "H" 
			},
			{
				"x": -3.6218451552,
				"y": -5.9741431369,
				"z": -0.4581564693,
				"element": "H" 
			},
			{
				"x": -1.1543600116,
				"y": -1.8065204608,
				"z": -2.5004874293,
				"element": "H" 
			},
			{
				"x": 0.7793841605,
				"y": -4.4572417992,
				"z": 0.2790968966,
				"element": "H" 
			},
			{
				"x": -1.2902123029,
				"y": -5.8616140928,
				"z": 0.2639053109,
				"element": "H" 
			},
			{
				"x": 0.4244984751,
				"y": -1.6555868598,
				"z": 1.9753418765,
				"element": "H" 
			},
			{
				"x": 2.0739298568,
				"y": -2.1370614267,
				"z": 1.5442898868,
				"element": "H" 
			},
			{
				"x": 3.0365245633,
				"y": -0.1637582337,
				"z": 2.3859100549,
				"element": "H" 
			},
			{
				"x": 1.6320875287,
				"y": -0.2877441344,
				"z": 3.4424904724,
				"element": "H" 
			},
			{
				"x": 2.1525141728,
				"y": 1.5895812958,
				"z": 1.1233465571,
				"element": "H" 
			},
			{
				"x": 0.7259569015,
				"y": 1.9980218667,
				"z": 3.7941378975,
				"element": "H" 
			},
			{
				"x": 2.4485097805,
				"y": 2.2309438516,
				"z": 3.5384404803,
				"element": "H" 
			},
			{
				"x": -0.7930334385,
				"y": 3.8008845273,
				"z": 3.3606131155,
				"element": "H" 
			},
			{
				"x": -1.2071710806,
				"y": 6.116357169,
				"z": 2.5930282544,
				"element": "H" 
			},
			{
				"x": 0.5723792201,
				"y": 7.368725428,
				"z": 1.3871792394,
				"element": "H" 
			},
			{
				"x": 2.7685540417,
				"y": 6.2793252846,
				"z": 0.9621866311,
				"element": "H" 
			},
			{
				"x": 3.1775195771,
				"y": 3.9665500707,
				"z": 1.7311318948,
				"element": "H" 
			},
			{
				"x": -0.6217479814,
				"y": 0.6554947773,
				"z": 1.9660567143,
				"element": "H" 
			},
			{
				"x": -0.3336390263,
				"y": 2.0630388798,
				"z": 0.9540770292,
				"element": "H" 
			},
			{
				"x": -0.8243387674,
				"y": -0.2397484949,
				"z": -0.2259849785,
				"element": "H" 
			},
			{
				"x": 0.4525672967,
				"y": 0.7960999314,
				"z": -0.8878677367,
				"element": "H" 
			}
		],
		 "valence_orbital": [ 
			{
				"type": "occ",
				"energy": -0.26923,
				"method": "rhf"
			},
			{
				"type": "occ",
				"energy": -0.25102,
				"method": "rhf"
			},
			{
				"type": "occ",
				"energy": -0.24917,
				"method": "rhf"
			},
			{
				"type": "occ",
				"energy": -0.24167,
				"method": "rhf"
			},
			{
				"type": "occ",
				"energy": -0.22518,
				"method": "rhf"
			},
			{
				"type": "unocc",
				"energy": -0.03536,
				"method": "rhf"
			},
			{
				"type": "unocc",
				"energy": -0.02557,
				"method": "rhf"
			},
			{
				"type": "unocc",
				"energy": -0.00329,
				"method": "rhf"
			},
			{
				"type": "unocc",
				"energy": -0.0004,
				"method": "rhf"
			},
			{
				"type": "unocc",
				"energy": 0.06409,
				"method": "rhf"
			}
		],
		"cosmo_sigma_profile": { 
			"-0.025": 0.0,
			"-0.024": 0.0,
			"-0.023": 0.0,
			"-0.022": 0.0,
			"-0.021": 0.0,
			"-0.02": 0.0,
			"-0.019": 0.0,
			"-0.018": 0.0,
			"-0.017": 0.0,
			"-0.016": 0.0,
			"-0.015": 0.208859139357,
			"-0.014": 1.38311726321,
			"-0.013": 1.19868386236,
			"-0.012": 2.12133703246,
			"-0.011": 1.69799528381,
			"-0.01": 3.04808932501,
			"-0.009": 3.86554499355,
			"-0.008": 4.59414479024,
			"-0.007": 6.85910533137,
			"-0.006": 8.39163438335,
			"-0.005": 17.5790381375,
			"-0.004": 35.4472441514,
			"-0.003": 53.4491007432,
			"-0.002": 40.0772100958,
			"-0.001": 27.6092875775,
			"0.0": 27.8468912435,
			"0.001": 25.7308603425,
			"0.002": 19.822699982,
			"0.003": 15.2439815316,
			"0.004": 14.36154057,
			"0.005": 14.759753705,
			"0.006": 14.4150863423,
			"0.007": 8.66512846764,
			"0.008": 5.43022551313,
			"0.009": 5.70419249524,
			"0.01": 6.4320857051,
			"0.011": 9.41042647498,
			"0.012": 7.15128702308,
			"0.013": 1.06732755855,
			"0.014": 0.528812289178,
			"0.015": 0.665705383246,
			"0.016": 0.567989328265,
			"0.017": 0.204838862527,
			"0.018": 0.0,
			"0.019": 0.0,
			"0.02": 0.0,
			"0.021": 0.0,
			"0.022": 0.0,
			"0.023": 0.0,
			"0.024": 0.0,
			"0.025": 0.0
		}
	}
}
