{
	 "smiles": "COC1=CN(N=C1C(O)=O)C1=CC=CC=C1", 
	 "Tm": 419.15, 
	 "num_atms": 26, 
	 "gaussian": { 
		 "optdone": 1, 
		 "sigma_profile": "yes", 
		 "theory": "DFT", 
		 "functional": "B3LYP", 
		 "basiset": "6-31G**", 
		 "properties": { 
			 "R2extent": 4562.4649, 
			 "electric_dipole_moment_norm": 7.40399724068, 
			 "electric_quadrupole_moment_norm": 20.7080604739, 
			 "total_energy": -760.341549075, 
			 "HOMO_LUMO_gap": 0.17258, 
			 "cosmo_polarized_energy": -18.44, 
			 "cosmo_cavitation_energy": 31.14, 
			 "cosmo_dispersion_energy": -22.8, 
			 "cosmo_repulsion_energy": 1.76, 
			 "cosmo_total_nonelectrostatic_energy": 10.1, 
			 "SMD_solvation_energy": 7.17 
		},
		"coords": [
			{
				"x": -2.670030663,
				"y": -2.2595432668,
				"z": 0.0077525266,
				"element": "C" 
			},
			{
				"x": -1.6784160848,
				"y": -1.9661946586,
				"z": 0.9838855491,
				"element": "O" 
			},
			{
				"x": -0.9427245723,
				"y": -0.8642854107,
				"z": 0.75730855,
				"element": "C" 
			},
			{
				"x": -0.9924405146,
				"y": 0.0444847557,
				"z": -0.2847890483,
				"element": "C" 
			},
			{
				"x": -0.0195672117,
				"y": 0.9868353226,
				"z": -0.0306890432,
				"element": "N" 
			},
			{
				"x": 0.6372968687,
				"y": 0.7237716937,
				"z": 1.1082236962,
				"element": "N" 
			},
			{
				"x": 0.0973710575,
				"y": -0.3928806736,
				"z": 1.6053304413,
				"element": "C" 
			},
			{
				"x": 0.6118819098,
				"y": -0.9542502263,
				"z": 2.8789882295,
				"element": "C" 
			},
			{
				"x": 1.6220044192,
				"y": -0.2368670229,
				"z": 3.4275760312,
				"element": "O" 
			},
			{
				"x": 0.1825526246,
				"y": -1.9562229307,
				"z": 3.3997257229,
				"element": "O" 
			},
			{
				"x": 0.3203059638,
				"y": 2.1258623757,
				"z": -0.8125247501,
				"element": "C" 
			},
			{
				"x": -0.3633907873,
				"y": 2.4012865101,
				"z": -2.0024467908,
				"element": "C" 
			},
			{
				"x": -0.0155435705,
				"y": 3.5226906091,
				"z": -2.7547627329,
				"element": "C" 
			},
			{
				"x": 1.0070248584,
				"y": 4.3722221862,
				"z": -2.3327621777,
				"element": "C" 
			},
			{
				"x": 1.6838065524,
				"y": 4.0897131948,
				"z": -1.1443243317,
				"element": "C" 
			},
			{
				"x": 1.3480156481,
				"y": 2.9738355877,
				"z": -0.3821725805,
				"element": "C" 
			},
			{
				"x": -3.1668503366,
				"y": -3.1708818118,
				"z": 0.3407231464,
				"element": "H" 
			},
			{
				"x": -3.4060749067,
				"y": -1.4479481084,
				"z": -0.0659119476,
				"element": "H" 
			},
			{
				"x": -2.2176075811,
				"y": -2.4292247442,
				"z": -0.9783482551,
				"element": "H" 
			},
			{
				"x": -1.6243631688,
				"y": 0.0875647794,
				"z": -1.1541353543,
				"element": "H" 
			},
			{
				"x": 1.8040813372,
				"y": 0.523071197,
				"z": 2.8474085987,
				"element": "H" 
			},
			{
				"x": -1.1612794221,
				"y": 1.7560345863,
				"z": -2.3509079755,
				"element": "H" 
			},
			{
				"x": -0.5515409947,
				"y": 3.7282108745,
				"z": -3.6764392217,
				"element": "H" 
			},
			{
				"x": 1.2735294415,
				"y": 5.2436801457,
				"z": -2.9223963293,
				"element": "H" 
			},
			{
				"x": 2.4820677399,
				"y": 4.7421389146,
				"z": -0.8033241419,
				"element": "H" 
			},
			{
				"x": 1.8686913931,
				"y": 2.7495961208,
				"z": 0.5396121887,
				"element": "H" 
			}
		],
		 "valence_orbital": [ 
			{
				"type": "occ",
				"energy": -0.29595,
				"method": "rhf"
			},
			{
				"type": "occ",
				"energy": -0.2713,
				"method": "rhf"
			},
			{
				"type": "occ",
				"energy": -0.26068,
				"method": "rhf"
			},
			{
				"type": "occ",
				"energy": -0.25832,
				"method": "rhf"
			},
			{
				"type": "occ",
				"energy": -0.22612,
				"method": "rhf"
			},
			{
				"type": "unocc",
				"energy": -0.05354,
				"method": "rhf"
			},
			{
				"type": "unocc",
				"energy": -0.02128,
				"method": "rhf"
			},
			{
				"type": "unocc",
				"energy": 0.00012,
				"method": "rhf"
			},
			{
				"type": "unocc",
				"energy": 0.03596,
				"method": "rhf"
			},
			{
				"type": "unocc",
				"energy": 0.06389,
				"method": "rhf"
			}
		],
		"cosmo_sigma_profile": { 
			"-0.025": 0.0,
			"-0.024": 0.0,
			"-0.023": 0.0,
			"-0.022": 0.0,
			"-0.021": 0.0,
			"-0.02": 0.0,
			"-0.019": 0.0,
			"-0.018": 0.0,
			"-0.017": 0.0,
			"-0.016": 0.0,
			"-0.015": 0.0,
			"-0.014": 0.5290865575,
			"-0.013": 0.682669423877,
			"-0.012": 0.581589813102,
			"-0.011": 2.17838629787,
			"-0.01": 2.41627186392,
			"-0.009": 2.50065761686,
			"-0.008": 3.56424322974,
			"-0.007": 6.40089255703,
			"-0.006": 18.7078628725,
			"-0.005": 19.5836423516,
			"-0.004": 20.435010666,
			"-0.003": 16.8176409644,
			"-0.002": 14.113793751,
			"-0.001": 16.6068545713,
			"0.0": 16.2261801952,
			"0.001": 20.0533183212,
			"0.002": 15.4407877276,
			"0.003": 14.1091636424,
			"0.004": 15.3883744359,
			"0.005": 7.48305164304,
			"0.006": 2.85415033322,
			"0.007": 3.00418936086,
			"0.008": 3.73507331633,
			"0.009": 3.80514922867,
			"0.01": 5.83951430834,
			"0.011": 5.63464129507,
			"0.012": 5.90261457377,
			"0.013": 4.2320382318,
			"0.014": 1.08467693797,
			"0.015": 0.00182967477244,
			"0.016": 0.0,
			"0.017": 0.0,
			"0.018": 0.0,
			"0.019": 0.0,
			"0.02": 0.0,
			"0.021": 0.0,
			"0.022": 0.0,
			"0.023": 0.0,
			"0.024": 0.0,
			"0.025": 0.0
		}
	}
}
