{
	 "smiles": "CCOC(=O)CCCC(=O)OCC", 
	 "Tm": 249.05, 
	 "num_atms": 29, 
	 "gaussian": { 
		 "optdone": 1, 
		 "sigma_profile": "yes", 
		 "theory": "DFT", 
		 "functional": "B3LYP", 
		 "basiset": "6-31G**", 
		 "properties": { 
			 "R2extent": 3067.3591, 
			 "electric_dipole_moment_norm": 0.781469212445, 
			 "electric_quadrupole_moment_norm": 9.49607359649, 
			 "total_energy": -653.537564311, 
			 "HOMO_LUMO_gap": 0.27546, 
			 "cosmo_polarized_energy": -10.62, 
			 "cosmo_cavitation_energy": 31.67, 
			 "cosmo_dispersion_energy": -21.72, 
			 "cosmo_repulsion_energy": 1.78, 
			 "cosmo_total_nonelectrostatic_energy": 11.74, 
			 "SMD_solvation_energy": 6.82 
		},
		"coords": [
			{
				"x": 0.2350161056,
				"y": -2.6006271246,
				"z": -2.0184115478,
				"element": "C" 
			},
			{
				"x": 0.5401388344,
				"y": -1.6942418726,
				"z": -0.8411297684,
				"element": "C" 
			},
			{
				"x": 0.4763900503,
				"y": -0.3292557843,
				"z": -1.3169573316,
				"element": "O" 
			},
			{
				"x": 0.7669498868,
				"y": 0.6255743968,
				"z": -0.4148731615,
				"element": "C" 
			},
			{
				"x": 1.1777429503,
				"y": 0.4007005198,
				"z": 0.7073507961,
				"element": "O" 
			},
			{
				"x": 0.4811088379,
				"y": 2.0083181753,
				"z": -0.9656017928,
				"element": "C" 
			},
			{
				"x": -1.0012860119,
				"y": 2.4170274982,
				"z": -0.8052227172,
				"element": "C" 
			},
			{
				"x": -1.4763101482,
				"y": 2.5282080528,
				"z": 0.6492804616,
				"element": "C" 
			},
			{
				"x": -1.7549851526,
				"y": 1.1842704708,
				"z": 1.3015918244,
				"element": "C" 
			},
			{
				"x": -2.0134322867,
				"y": 0.1630746205,
				"z": 0.6954376862,
				"element": "O" 
			},
			{
				"x": -1.7218067561,
				"y": 1.2871114951,
				"z": 2.6438815215,
				"element": "O" 
			},
			{
				"x": -1.9019471151,
				"y": 0.0662611965,
				"z": 3.4044777109,
				"element": "C" 
			},
			{
				"x": -0.5485143407,
				"y": -0.5287861502,
				"z": 3.7630397,
				"element": "C" 
			},
			{
				"x": -0.7599872233,
				"y": -2.3923449486,
				"z": -2.4216926961,
				"element": "H" 
			},
			{
				"x": 0.9680647933,
				"y": -2.4651171404,
				"z": -2.8192178547,
				"element": "H" 
			},
			{
				"x": 0.2646790666,
				"y": -3.6470990406,
				"z": -1.6987291896,
				"element": "H" 
			},
			{
				"x": -0.1928878343,
				"y": -1.8054467216,
				"z": -0.0368744693,
				"element": "H" 
			},
			{
				"x": 1.535095171,
				"y": -1.8789261033,
				"z": -0.4245824342,
				"element": "H" 
			},
			{
				"x": 1.1243960072,
				"y": 2.7133510678,
				"z": -0.4309733423,
				"element": "H" 
			},
			{
				"x": 0.7421909771,
				"y": 2.0305412178,
				"z": -2.0278488164,
				"element": "H" 
			},
			{
				"x": -1.132272337,
				"y": 3.3891070789,
				"z": -1.2925259116,
				"element": "H" 
			},
			{
				"x": -1.6348904672,
				"y": 1.698613293,
				"z": -1.3338657693,
				"element": "H" 
			},
			{
				"x": -2.4181004225,
				"y": 3.0917006418,
				"z": 0.6876834639,
				"element": "H" 
			},
			{
				"x": -0.7640159958,
				"y": 3.0793659904,
				"z": 1.2710112688,
				"element": "H" 
			},
			{
				"x": -2.5045904417,
				"y": -0.6288268057,
				"z": 2.8164208881,
				"element": "H" 
			},
			{
				"x": -2.4601586434,
				"y": 0.3687687734,
				"z": 4.2943693987,
				"element": "H" 
			},
			{
				"x": 0.0198710505,
				"y": -0.7645413882,
				"z": 2.8598226771,
				"element": "H" 
			},
			{
				"x": -0.6871530755,
				"y": -1.4463826984,
				"z": 4.3451337674,
				"element": "H" 
			},
			{
				"x": 0.0384945209,
				"y": 0.173701289,
				"z": 4.3617056379,
				"element": "H" 
			}
		],
		 "valence_orbital": [ 
			{
				"type": "occ",
				"energy": -0.3302,
				"method": "rhf"
			},
			{
				"type": "occ",
				"energy": -0.29258,
				"method": "rhf"
			},
			{
				"type": "occ",
				"energy": -0.29016,
				"method": "rhf"
			},
			{
				"type": "occ",
				"energy": -0.26833,
				"method": "rhf"
			},
			{
				"type": "occ",
				"energy": -0.26024,
				"method": "rhf"
			},
			{
				"type": "unocc",
				"energy": 0.01522,
				"method": "rhf"
			},
			{
				"type": "unocc",
				"energy": 0.01788,
				"method": "rhf"
			},
			{
				"type": "unocc",
				"energy": 0.09306,
				"method": "rhf"
			},
			{
				"type": "unocc",
				"energy": 0.10985,
				"method": "rhf"
			},
			{
				"type": "unocc",
				"energy": 0.11913,
				"method": "rhf"
			}
		],
		"cosmo_sigma_profile": { 
			"-0.025": 0.0,
			"-0.024": 0.0,
			"-0.023": 0.0,
			"-0.022": 0.0,
			"-0.021": 0.0,
			"-0.02": 0.0,
			"-0.019": 0.0,
			"-0.018": 0.0,
			"-0.017": 0.0,
			"-0.016": 0.0,
			"-0.015": 0.0,
			"-0.014": 0.0,
			"-0.013": 0.0,
			"-0.012": 0.0,
			"-0.011": 0.0,
			"-0.01": 0.0,
			"-0.009": 0.0,
			"-0.008": 0.0,
			"-0.007": 1.13097955947,
			"-0.006": 5.03907633858,
			"-0.005": 15.5116755948,
			"-0.004": 32.375455568,
			"-0.003": 36.9182924009,
			"-0.002": 31.3745844134,
			"-0.001": 22.3873410205,
			"0.0": 20.9361058517,
			"0.001": 12.3703859155,
			"0.002": 7.19322129405,
			"0.003": 7.0376129239,
			"0.004": 8.81717055788,
			"0.005": 8.79691498679,
			"0.006": 7.72938391799,
			"0.007": 6.47588574713,
			"0.008": 5.69675469015,
			"0.009": 5.06312935179,
			"0.01": 3.21699408258,
			"0.011": 3.71348637791,
			"0.012": 4.12277943415,
			"0.013": 0.818198086412,
			"0.014": 0.0361558144346,
			"0.015": 0.0,
			"0.016": 0.0,
			"0.017": 0.0,
			"0.018": 0.0,
			"0.019": 0.0,
			"0.02": 0.0,
			"0.021": 0.0,
			"0.022": 0.0,
			"0.023": 0.0,
			"0.024": 0.0,
			"0.025": 0.0
		}
	}
}
