{
	 "smiles": "OC(=O)C1=NN(C(=N1)C1=CC=CS1)C1=CC=C(F)C=C1", 
	 "Tm": 470.15, 
	 "num_atms": 28, 
	 "gaussian": { 
		 "optdone": 1, 
		 "sigma_profile": "yes", 
		 "theory": "DFT", 
		 "functional": "B3LYP", 
		 "basiset": "6-31G**", 
		 "properties": { 
			 "R2extent": 7097.1342, 
			 "electric_dipole_moment_norm": 7.87002867657, 
			 "electric_quadrupole_moment_norm": 20.8771152179, 
			 "total_energy": -1312.90999741, 
			 "HOMO_LUMO_gap": 0.17242, 
			 "cosmo_polarized_energy": -17.69, 
			 "cosmo_cavitation_energy": 36.38, 
			 "cosmo_dispersion_energy": -25.92, 
			 "cosmo_repulsion_energy": 1.92, 
			 "cosmo_total_nonelectrostatic_energy": 12.38, 
			 "SMD_solvation_energy": 6.17 
		},
		"coords": [
			{
				"x": -0.2319349113,
				"y": -3.4596850396,
				"z": -2.3874292042,
				"element": "O" 
			},
			{
				"x": -0.7081357775,
				"y": -3.1251420387,
				"z": -1.1689225436,
				"element": "C" 
			},
			{
				"x": -1.5460934793,
				"y": -3.771257717,
				"z": -0.5921592673,
				"element": "O" 
			},
			{
				"x": -0.0796801311,
				"y": -1.8775677393,
				"z": -0.6340240441,
				"element": "C" 
			},
			{
				"x": -0.3788287197,
				"y": -1.3406172009,
				"z": 0.5378310119,
				"element": "N" 
			},
			{
				"x": 0.4316543061,
				"y": -0.2487703389,
				"z": 0.5737220577,
				"element": "N" 
			},
			{
				"x": 1.1704387909,
				"y": -0.16721537,
				"z": -0.5815011568,
				"element": "C" 
			},
			{
				"x": 0.8575614955,
				"y": -1.2039697636,
				"z": -1.3551421336,
				"element": "N" 
			},
			{
				"x": 2.1192999539,
				"y": 0.8634021999,
				"z": -0.9676552678,
				"element": "C" 
			},
			{
				"x": 2.9466962015,
				"y": 0.7715079892,
				"z": -2.0671578932,
				"element": "C" 
			},
			{
				"x": 3.7308038968,
				"y": 1.9362787073,
				"z": -2.2793331504,
				"element": "C" 
			},
			{
				"x": 3.4895714879,
				"y": 2.909887859,
				"z": -1.3468615725,
				"element": "C" 
			},
			{
				"x": 2.3047112786,
				"y": 2.4191793754,
				"z": -0.1853926172,
				"element": "S" 
			},
			{
				"x": 0.4196470154,
				"y": 0.5911493271,
				"z": 1.7332967947,
				"element": "C" 
			},
			{
				"x": 1.5380854878,
				"y": 0.6397465858,
				"z": 2.5693935174,
				"element": "C" 
			},
			{
				"x": 1.5123969525,
				"y": 1.4401431,
				"z": 3.7093260801,
				"element": "C" 
			},
			{
				"x": 0.3568945786,
				"y": 2.1609369965,
				"z": 3.9942927752,
				"element": "C" 
			},
			{
				"x": 0.327863919,
				"y": 2.931545236,
				"z": 5.0957864831,
				"element": "F" 
			},
			{
				"x": -0.7719710539,
				"y": 2.1075851585,
				"z": 3.1814561859,
				"element": "C" 
			},
			{
				"x": -0.7370866832,
				"y": 1.3132287601,
				"z": 2.0384333795,
				"element": "C" 
			},
			{
				"x": 0.4254967154,
				"y": -2.7876055763,
				"z": -2.6463703113,
				"element": "H" 
			},
			{
				"x": 2.9704557489,
				"y": -0.1116875071,
				"z": -2.6930468364,
				"element": "H" 
			},
			{
				"x": 4.4436007828,
				"y": 2.0456043532,
				"z": -3.0881060067,
				"element": "H" 
			},
			{
				"x": 3.9438958427,
				"y": 3.8875988275,
				"z": -1.2628149791,
				"element": "H" 
			},
			{
				"x": 2.4173860035,
				"y": 0.0511853493,
				"z": 2.330942868,
				"element": "H" 
			},
			{
				"x": 2.3628621287,
				"y": 1.5017657177,
				"z": 4.3786736378,
				"element": "H" 
			},
			{
				"x": -1.6533793721,
				"y": 2.6793734291,
				"z": 3.448662824,
				"element": "H" 
			},
			{
				"x": -1.6008124583,
				"y": 1.24009932,
				"z": 1.3869993689,
				"element": "H" 
			}
		],
		 "valence_orbital": [ 
			{
				"type": "occ",
				"energy": -0.29001,
				"method": "rhf"
			},
			{
				"type": "occ",
				"energy": -0.2742,
				"method": "rhf"
			},
			{
				"type": "occ",
				"energy": -0.2711,
				"method": "rhf"
			},
			{
				"type": "occ",
				"energy": -0.26591,
				"method": "rhf"
			},
			{
				"type": "occ",
				"energy": -0.24041,
				"method": "rhf"
			},
			{
				"type": "unocc",
				"energy": -0.06799,
				"method": "rhf"
			},
			{
				"type": "unocc",
				"energy": -0.03988,
				"method": "rhf"
			},
			{
				"type": "unocc",
				"energy": -0.03772,
				"method": "rhf"
			},
			{
				"type": "unocc",
				"energy": -0.02854,
				"method": "rhf"
			},
			{
				"type": "unocc",
				"energy": 0.01377,
				"method": "rhf"
			}
		],
		"cosmo_sigma_profile": { 
			"-0.025": 0.0,
			"-0.024": 0.0,
			"-0.023": 0.0,
			"-0.022": 0.0,
			"-0.021": 0.0,
			"-0.02": 0.0,
			"-0.019": 0.0,
			"-0.018": 0.0,
			"-0.017": 0.0,
			"-0.016": 0.0,
			"-0.015": 0.0329919646148,
			"-0.014": 0.397144872918,
			"-0.013": 0.767014105913,
			"-0.012": 0.424034017554,
			"-0.011": 0.530609441881,
			"-0.01": 1.34480557155,
			"-0.009": 3.54363964886,
			"-0.008": 11.2495987931,
			"-0.007": 14.8466336393,
			"-0.006": 16.7703213229,
			"-0.005": 17.5944284382,
			"-0.004": 15.8171539951,
			"-0.003": 14.0886932366,
			"-0.002": 16.8372354762,
			"-0.001": 19.1035603145,
			"0.0": 22.4287589138,
			"0.001": 27.2783064558,
			"0.002": 28.2402761463,
			"0.003": 25.0613176495,
			"0.004": 16.4180239256,
			"0.005": 4.61131139919,
			"0.006": 4.36131806144,
			"0.007": 4.04292351076,
			"0.008": 4.46114370886,
			"0.009": 5.08065514823,
			"0.01": 6.31165590257,
			"0.011": 7.69474262374,
			"0.012": 5.39580139025,
			"0.013": 1.39005538586,
			"0.014": 0.0,
			"0.015": 0.0,
			"0.016": 0.0,
			"0.017": 0.0,
			"0.018": 0.0,
			"0.019": 0.0,
			"0.02": 0.0,
			"0.021": 0.0,
			"0.022": 0.0,
			"0.023": 0.0,
			"0.024": 0.0,
			"0.025": 0.0
		}
	}
}
