{
	 "smiles": "CN1C(=O)CSC1=S", 
	 "Tm": 345.65, 
	 "num_atms": 13, 
	 "gaussian": { 
		 "optdone": 1, 
		 "sigma_profile": "yes", 
		 "theory": "DFT", 
		 "functional": "B3LYP", 
		 "basiset": "6-31G**", 
		 "properties": { 
			 "R2extent": 1512.7351, 
			 "electric_dipole_moment_norm": 2.07006368501, 
			 "electric_quadrupole_moment_norm": 10.7688542222, 
			 "total_energy": -1081.80584763, 
			 "HOMO_LUMO_gap": 0.16318, 
			 "cosmo_polarized_energy": -10.35, 
			 "cosmo_cavitation_energy": 20.14, 
			 "cosmo_dispersion_energy": -16.05, 
			 "cosmo_repulsion_energy": 1.23, 
			 "cosmo_total_nonelectrostatic_energy": 5.31, 
			 "SMD_solvation_energy": 3.08 
		},
		"coords": [
			{
				"x": 0.8030597155,
				"y": 1.9793201974,
				"z": 0.8797065633,
				"element": "C" 
			},
			{
				"x": -0.1243625119,
				"y": 1.1652859247,
				"z": 0.095809751,
				"element": "N" 
			},
			{
				"x": -0.1814643055,
				"y": 1.307917181,
				"z": -1.2951175564,
				"element": "C" 
			},
			{
				"x": 0.5014591309,
				"y": 2.0818225897,
				"z": -1.9302793289,
				"element": "O" 
			},
			{
				"x": -1.2113775047,
				"y": 0.366815365,
				"z": -1.9043907227,
				"element": "C" 
			},
			{
				"x": -1.9577854549,
				"y": -0.5764625433,
				"z": -0.5284045897,
				"element": "S" 
			},
			{
				"x": -0.9637725464,
				"y": 0.2416562599,
				"z": 0.6883914558,
				"element": "C" 
			},
			{
				"x": -1.0581019199,
				"y": -0.0834338212,
				"z": 2.2985330805,
				"element": "S" 
			},
			{
				"x": 1.3396380034,
				"y": 2.6159375804,
				"z": 0.1770893406,
				"element": "H" 
			},
			{
				"x": 0.2483052821,
				"y": 2.5818253433,
				"z": 1.6019609048,
				"element": "H" 
			},
			{
				"x": 1.4955497145,
				"y": 1.3330554212,
				"z": 1.4230388904,
				"element": "H" 
			},
			{
				"x": -1.9639634911,
				"y": 0.9522899957,
				"z": -2.4382228523,
				"element": "H" 
			},
			{
				"x": -0.716384112,
				"y": -0.2967294937,
				"z": -2.6177149363,
				"element": "H" 
			}
		],
		 "valence_orbital": [ 
			{
				"type": "occ",
				"energy": -0.37771,
				"method": "rhf"
			},
			{
				"type": "occ",
				"energy": -0.29697,
				"method": "rhf"
			},
			{
				"type": "occ",
				"energy": -0.27999,
				"method": "rhf"
			},
			{
				"type": "occ",
				"energy": -0.25099,
				"method": "rhf"
			},
			{
				"type": "occ",
				"energy": -0.23481,
				"method": "rhf"
			},
			{
				"type": "unocc",
				"energy": -0.07163,
				"method": "rhf"
			},
			{
				"type": "unocc",
				"energy": -0.00562,
				"method": "rhf"
			},
			{
				"type": "unocc",
				"energy": -0.00052,
				"method": "rhf"
			},
			{
				"type": "unocc",
				"energy": 0.04645,
				"method": "rhf"
			},
			{
				"type": "unocc",
				"energy": 0.09197,
				"method": "rhf"
			}
		],
		"cosmo_sigma_profile": { 
			"-0.025": 0.0,
			"-0.024": 0.0,
			"-0.023": 0.0,
			"-0.022": 0.0,
			"-0.021": 0.0,
			"-0.02": 0.0,
			"-0.019": 0.0,
			"-0.018": 0.0,
			"-0.017": 0.0,
			"-0.016": 0.0,
			"-0.015": 0.0,
			"-0.014": 0.0,
			"-0.013": 0.0,
			"-0.012": 0.0,
			"-0.011": 0.0,
			"-0.01": 2.41552793837,
			"-0.009": 7.08051302737,
			"-0.008": 6.11622073112,
			"-0.007": 6.45678143127,
			"-0.006": 11.3908004029,
			"-0.005": 10.6550473818,
			"-0.004": 12.4124472582,
			"-0.003": 11.9496206076,
			"-0.002": 5.43080193854,
			"-0.001": 5.17135064603,
			"0.0": 6.42127233985,
			"0.001": 9.08106590588,
			"0.002": 9.45030256785,
			"0.003": 11.4361557314,
			"0.004": 8.78772890334,
			"0.005": 8.32917328548,
			"0.006": 9.08061686312,
			"0.007": 7.14451079426,
			"0.008": 5.1936345021,
			"0.009": 3.62714716894,
			"0.01": 4.67519043869,
			"0.011": 3.00066919977,
			"0.012": 0.551465016213,
			"0.013": 0.0,
			"0.014": 0.0,
			"0.015": 0.0,
			"0.016": 0.0,
			"0.017": 0.0,
			"0.018": 0.0,
			"0.019": 0.0,
			"0.02": 0.0,
			"0.021": 0.0,
			"0.022": 0.0,
			"0.023": 0.0,
			"0.024": 0.0,
			"0.025": 0.0
		}
	}
}
