{
	 "smiles": "NC1=NN=C2CCNCC2=C1", 
	 "Tm": 493.15, 
	 "num_atms": 21, 
	 "gaussian": { 
		 "optdone": 1, 
		 "sigma_profile": "yes", 
		 "theory": "DFT", 
		 "functional": "B3LYP", 
		 "basiset": "6-31G**", 
		 "properties": { 
			 "R2extent": 2166.2689, 
			 "electric_dipole_moment_norm": 3.26458034975, 
			 "electric_quadrupole_moment_norm": 20.4729527189, 
			 "total_energy": -491.744592713, 
			 "HOMO_LUMO_gap": 0.17944, 
			 "cosmo_polarized_energy": -17.09, 
			 "cosmo_cavitation_energy": 23.55, 
			 "cosmo_dispersion_energy": -18.14, 
			 "cosmo_repulsion_energy": 1.46, 
			 "cosmo_total_nonelectrostatic_energy": 6.87, 
			 "SMD_solvation_energy": -0.97 
		},
		"coords": [
			{
				"x": -2.9554206247,
				"y": -2.3771904569,
				"z": 2.0920265826,
				"element": "N" 
			},
			{
				"x": -2.2904042286,
				"y": -1.7084781246,
				"z": 1.0808997362,
				"element": "C" 
			},
			{
				"x": -3.0721855149,
				"y": -1.1468675728,
				"z": 0.1430826622,
				"element": "N" 
			},
			{
				"x": -2.5221039565,
				"y": -0.4223284291,
				"z": -0.8262815232,
				"element": "N" 
			},
			{
				"x": -1.1990159582,
				"y": -0.2577700396,
				"z": -0.8925814389,
				"element": "C" 
			},
			{
				"x": -0.6721569119,
				"y": 0.6016284166,
				"z": -2.0223443609,
				"element": "C" 
			},
			{
				"x": 0.8315274992,
				"y": 0.3745664213,
				"z": -2.2494406501,
				"element": "C" 
			},
			{
				"x": 1.6091118653,
				"y": 0.3908928277,
				"z": -1.0052851069,
				"element": "N" 
			},
			{
				"x": 1.1856569273,
				"y": -0.6721451025,
				"z": -0.0975109813,
				"element": "C" 
			},
			{
				"x": -0.3200741913,
				"y": -0.8402291764,
				"z": 0.0477404018,
				"element": "C" 
			},
			{
				"x": -0.8883973937,
				"y": -1.5845053422,
				"z": 1.0627341174,
				"element": "C" 
			},
			{
				"x": -2.472214936,
				"y": -3.1510757141,
				"z": 2.5240041178,
				"element": "H" 
			},
			{
				"x": -3.926245928,
				"y": -2.5601407835,
				"z": 1.8739985274,
				"element": "H" 
			},
			{
				"x": -1.2533044134,
				"y": 0.4008358627,
				"z": -2.9288619823,
				"element": "H" 
			},
			{
				"x": -0.845734698,
				"y": 1.6597224494,
				"z": -1.7780524744,
				"element": "H" 
			},
			{
				"x": 1.2360422693,
				"y": 1.1319235223,
				"z": -2.928911661,
				"element": "H" 
			},
			{
				"x": 0.9965595049,
				"y": -0.6003870144,
				"z": -2.7266887657,
				"element": "H" 
			},
			{
				"x": 1.4826147178,
				"y": 1.2918689527,
				"z": -0.5482030313,
				"element": "H" 
			},
			{
				"x": 1.6018787028,
				"y": -1.6220488852,
				"z": -0.4654300394,
				"element": "H" 
			},
			{
				"x": 1.6401776906,
				"y": -0.5029708171,
				"z": 0.8852397401,
				"element": "H" 
			},
			{
				"x": -0.278710422,
				"y": -2.0562009944,
				"z": 1.83086613,
				"element": "H" 
			}
		],
		 "valence_orbital": [ 
			{
				"type": "occ",
				"energy": -0.29952,
				"method": "rhf"
			},
			{
				"type": "occ",
				"energy": -0.27998,
				"method": "rhf"
			},
			{
				"type": "occ",
				"energy": -0.23317,
				"method": "rhf"
			},
			{
				"type": "occ",
				"energy": -0.22038,
				"method": "rhf"
			},
			{
				"type": "occ",
				"energy": -0.2163,
				"method": "rhf"
			},
			{
				"type": "unocc",
				"energy": -0.03686,
				"method": "rhf"
			},
			{
				"type": "unocc",
				"energy": 0.00294,
				"method": "rhf"
			},
			{
				"type": "unocc",
				"energy": 0.08137,
				"method": "rhf"
			},
			{
				"type": "unocc",
				"energy": 0.08401,
				"method": "rhf"
			},
			{
				"type": "unocc",
				"energy": 0.11184,
				"method": "rhf"
			}
		],
		"cosmo_sigma_profile": { 
			"-0.025": 0.0,
			"-0.024": 0.0,
			"-0.023": 0.0,
			"-0.022": 0.0,
			"-0.021": 0.0,
			"-0.02": 0.0,
			"-0.019": 0.0,
			"-0.018": 0.0,
			"-0.017": 0.0,
			"-0.016": 0.0,
			"-0.015": 0.0,
			"-0.014": 0.284996169816,
			"-0.013": 1.66682153969,
			"-0.012": 2.33607493154,
			"-0.011": 2.68821839342,
			"-0.01": 4.05191691029,
			"-0.009": 4.59184631012,
			"-0.008": 4.77928078461,
			"-0.007": 5.93832344148,
			"-0.006": 6.92291148599,
			"-0.005": 10.1539782452,
			"-0.004": 17.6934576558,
			"-0.003": 16.0483751252,
			"-0.002": 15.2646448873,
			"-0.001": 13.0607824095,
			"0.0": 8.6707394069,
			"0.001": 11.3274366063,
			"0.002": 8.83632646096,
			"0.003": 5.2977165877,
			"0.004": 4.75162951902,
			"0.005": 3.25164829458,
			"0.006": 3.88416351356,
			"0.007": 3.40250684395,
			"0.008": 3.35365159843,
			"0.009": 3.33064452216,
			"0.01": 3.31655023743,
			"0.011": 3.34873904223,
			"0.012": 2.51241175184,
			"0.013": 2.84388131099,
			"0.014": 2.73187570565,
			"0.015": 3.33135454487,
			"0.016": 3.0482321424,
			"0.017": 1.86182774734,
			"0.018": 0.400945538736,
			"0.019": 0.0,
			"0.02": 0.0,
			"0.021": 0.0,
			"0.022": 0.0,
			"0.023": 0.0,
			"0.024": 0.0,
			"0.025": 0.0
		}
	}
}
