{
	 "smiles": "CC(C)C1CCNC(=O)CC1", 
	 "Tm": 350.15, 
	 "num_atms": 28, 
	 "gaussian": { 
		 "optdone": 1, 
		 "sigma_profile": "yes", 
		 "theory": "DFT", 
		 "functional": "B3LYP", 
		 "basiset": "6-31G**", 
		 "properties": { 
			 "R2extent": 2520.9061, 
			 "electric_dipole_moment_norm": 3.8748093166, 
			 "electric_quadrupole_moment_norm": 19.3856803644, 
			 "total_energy": -483.205000813, 
			 "HOMO_LUMO_gap": 0.26713, 
			 "cosmo_polarized_energy": -10.8, 
			 "cosmo_cavitation_energy": 27.48, 
			 "cosmo_dispersion_energy": -20.05, 
			 "cosmo_repulsion_energy": 1.61, 
			 "cosmo_total_nonelectrostatic_energy": 9.05, 
			 "SMD_solvation_energy": 4.26 
		},
		"coords": [
			{
				"x": 0.0530168626,
				"y": -1.4903385816,
				"z": 1.5671159228,
				"element": "C" 
			},
			{
				"x": 0.1948417819,
				"y": -1.7507098121,
				"z": 0.0577525568,
				"element": "C" 
			},
			{
				"x": 1.6441619292,
				"y": -2.1302703232,
				"z": -0.2874522452,
				"element": "C" 
			},
			{
				"x": -0.3326320556,
				"y": -0.5913837684,
				"z": -0.836450298,
				"element": "C" 
			},
			{
				"x": -1.8769877949,
				"y": -0.5733516604,
				"z": -0.8652040188,
				"element": "C" 
			},
			{
				"x": -2.4684871707,
				"y": 0.6656675829,
				"z": -1.5619721427,
				"element": "C" 
			},
			{
				"x": -1.8032226597,
				"y": 1.0123814679,
				"z": -2.8101151633,
				"element": "N" 
			},
			{
				"x": -0.5130177036,
				"y": 1.4763130774,
				"z": -2.8907432173,
				"element": "C" 
			},
			{
				"x": 0.0679361495,
				"y": 1.5772225231,
				"z": -3.9639523877,
				"element": "O" 
			},
			{
				"x": 0.1226032626,
				"y": 1.8978334413,
				"z": -1.5643597217,
				"element": "C" 
			},
			{
				"x": 0.2626472245,
				"y": 0.7869813863,
				"z": -0.4718905334,
				"element": "C" 
			},
			{
				"x": 0.3277585545,
				"y": -2.3851606465,
				"z": 2.135609076,
				"element": "H" 
			},
			{
				"x": 0.7114487024,
				"y": -0.6798530798,
				"z": 1.898479333,
				"element": "H" 
			},
			{
				"x": -0.9708263769,
				"y": -1.2253286976,
				"z": 1.8506641257,
				"element": "H" 
			},
			{
				"x": -0.4292487512,
				"y": -2.624382633,
				"z": -0.1825937754,
				"element": "H" 
			},
			{
				"x": 1.9652345288,
				"y": -3.0035128628,
				"z": 0.2906302364,
				"element": "H" 
			},
			{
				"x": 2.343651696,
				"y": -1.3176222867,
				"z": -0.060921904,
				"element": "H" 
			},
			{
				"x": 1.7508317037,
				"y": -2.3743445659,
				"z": -1.3498576137,
				"element": "H" 
			},
			{
				"x": 0.0014800811,
				"y": -0.8260642312,
				"z": -1.8566101495,
				"element": "H" 
			},
			{
				"x": -2.2790598726,
				"y": -0.6065548985,
				"z": 0.1558725825,
				"element": "H" 
			},
			{
				"x": -2.2284172033,
				"y": -1.48313545,
				"z": -1.3684787065,
				"element": "H" 
			},
			{
				"x": -2.4191482637,
				"y": 1.5292072412,
				"z": -0.8886688746,
				"element": "H" 
			},
			{
				"x": -3.5301020324,
				"y": 0.5114637704,
				"z": -1.777010343,
				"element": "H" 
			},
			{
				"x": -2.1717408724,
				"y": 0.6596984178,
				"z": -3.6833615529,
				"element": "H" 
			},
			{
				"x": -0.4604494319,
				"y": 2.7385405999,
				"z": -1.1682758567,
				"element": "H" 
			},
			{
				"x": 1.1024840393,
				"y": 2.2943471055,
				"z": -1.8342803692,
				"element": "H" 
			},
			{
				"x": -0.188049894,
				"y": 1.1394501297,
				"z": 0.4631931745,
				"element": "H" 
			},
			{
				"x": 1.3286935668,
				"y": 0.6608067542,
				"z": -0.2611181342,
				"element": "H" 
			}
		],
		 "valence_orbital": [ 
			{
				"type": "occ",
				"energy": -0.31718,
				"method": "rhf"
			},
			{
				"type": "occ",
				"energy": -0.3097,
				"method": "rhf"
			},
			{
				"type": "occ",
				"energy": -0.30729,
				"method": "rhf"
			},
			{
				"type": "occ",
				"energy": -0.24315,
				"method": "rhf"
			},
			{
				"type": "occ",
				"energy": -0.2336,
				"method": "rhf"
			},
			{
				"type": "unocc",
				"energy": 0.03353,
				"method": "rhf"
			},
			{
				"type": "unocc",
				"energy": 0.06767,
				"method": "rhf"
			},
			{
				"type": "unocc",
				"energy": 0.08611,
				"method": "rhf"
			},
			{
				"type": "unocc",
				"energy": 0.09316,
				"method": "rhf"
			},
			{
				"type": "unocc",
				"energy": 0.10706,
				"method": "rhf"
			}
		],
		"cosmo_sigma_profile": { 
			"-0.025": 0.0,
			"-0.024": 0.0,
			"-0.023": 0.0,
			"-0.022": 0.0,
			"-0.021": 0.0,
			"-0.02": 0.0,
			"-0.019": 0.0,
			"-0.018": 0.0,
			"-0.017": 0.0,
			"-0.016": 0.0,
			"-0.015": 0.0,
			"-0.014": 0.0,
			"-0.013": 0.766441249202,
			"-0.012": 1.12468143575,
			"-0.011": 1.16444003409,
			"-0.01": 0.884496526154,
			"-0.009": 1.02586738441,
			"-0.008": 0.754679496862,
			"-0.007": 1.32797573123,
			"-0.006": 2.16629092584,
			"-0.005": 7.83666190776,
			"-0.004": 9.83725478237,
			"-0.003": 23.0973806068,
			"-0.002": 37.1180591186,
			"-0.001": 34.3294967646,
			"0.0": 28.6176289761,
			"0.001": 20.1800492283,
			"0.002": 11.6417633883,
			"0.003": 2.49691325019,
			"0.004": 1.52766680728,
			"0.005": 3.11289185035,
			"0.006": 2.02340497,
			"0.007": 1.21606519066,
			"0.008": 1.17121937287,
			"0.009": 1.44980523994,
			"0.01": 1.43590785997,
			"0.011": 1.30294220303,
			"0.012": 1.07971479431,
			"0.013": 2.37154981185,
			"0.014": 5.46177208276,
			"0.015": 4.25230699525,
			"0.016": 0.614171487203,
			"0.017": 0.0,
			"0.018": 0.0,
			"0.019": 0.0,
			"0.02": 0.0,
			"0.021": 0.0,
			"0.022": 0.0,
			"0.023": 0.0,
			"0.024": 0.0,
			"0.025": 0.0
		}
	}
}
