{
	 "smiles": "CC(=O)C1=CC=C(NC(N)=S)C=C1", 
	 "Tm": 488.15, 
	 "num_atms": 23, 
	 "gaussian": { 
		 "optdone": 1, 
		 "sigma_profile": "yes", 
		 "theory": "DFT", 
		 "functional": "B3LYP", 
		 "basiset": "6-31G**", 
		 "properties": { 
			 "R2extent": 4544.2143, 
			 "electric_dipole_moment_norm": 3.90244162673, 
			 "electric_quadrupole_moment_norm": 32.560033971, 
			 "total_energy": -931.921767659, 
			 "HOMO_LUMO_gap": 0.14578, 
			 "cosmo_polarized_energy": -21.37, 
			 "cosmo_cavitation_energy": 29.12, 
			 "cosmo_dispersion_energy": -21.76, 
			 "cosmo_repulsion_energy": 1.68, 
			 "cosmo_total_nonelectrostatic_energy": 9.04, 
			 "SMD_solvation_energy": 4.8 
		},
		"coords": [
			{
				"x": 2.3608838117,
				"y": -2.4506035076,
				"z": 1.1592049311,
				"element": "C" 
			},
			{
				"x": 2.0109977535,
				"y": -1.015359943,
				"z": 1.5150404986,
				"element": "C" 
			},
			{
				"x": 2.7011809188,
				"y": -0.3823727447,
				"z": 2.3005515958,
				"element": "O" 
			},
			{
				"x": 0.805734535,
				"y": -0.3878017033,
				"z": 0.8875118878,
				"element": "C" 
			},
			{
				"x": 0.4918669372,
				"y": 0.9392727472,
				"z": 1.2276797628,
				"element": "C" 
			},
			{
				"x": -0.6048183291,
				"y": 1.5772095517,
				"z": 0.6717698485,
				"element": "C" 
			},
			{
				"x": -1.4334592038,
				"y": 0.9019157182,
				"z": -0.2447190863,
				"element": "C" 
			},
			{
				"x": -2.5549413045,
				"y": 1.5894079293,
				"z": -0.7451850729,
				"element": "N" 
			},
			{
				"x": -3.2115849823,
				"y": 1.4969415613,
				"z": -1.9489618344,
				"element": "C" 
			},
			{
				"x": -2.6569889672,
				"y": 0.6944773967,
				"z": -2.897612268,
				"element": "N" 
			},
			{
				"x": -4.6344947824,
				"y": 2.3468093314,
				"z": -2.206176953,
				"element": "S" 
			},
			{
				"x": -1.143692907,
				"y": -0.4337838954,
				"z": -0.5722138151,
				"element": "C" 
			},
			{
				"x": -0.0302367842,
				"y": -1.059001407,
				"z": -0.0150056505,
				"element": "C" 
			},
			{
				"x": 2.5394273477,
				"y": -2.5585714975,
				"z": 0.0835883022,
				"element": "H" 
			},
			{
				"x": 1.545261347,
				"y": -3.1321775903,
				"z": 1.4254316098,
				"element": "H" 
			},
			{
				"x": 3.2608506131,
				"y": -2.7348644552,
				"z": 1.7048811457,
				"element": "H" 
			},
			{
				"x": 1.1390502195,
				"y": 1.4531841767,
				"z": 1.9304554785,
				"element": "H" 
			},
			{
				"x": -0.8277137706,
				"y": 2.6089107445,
				"z": 0.930217682,
				"element": "H" 
			},
			{
				"x": -2.9507178713,
				"y": 2.3050016797,
				"z": -0.1503341112,
				"element": "H" 
			},
			{
				"x": -1.6736947815,
				"y": 0.4624375909,
				"z": -2.856930757,
				"element": "H" 
			},
			{
				"x": -3.0801853891,
				"y": 0.7599138178,
				"z": -3.8108134701,
				"element": "H" 
			},
			{
				"x": -1.8064430902,
				"y": -0.991521545,
				"z": -1.2231324961,
				"element": "H" 
			},
			{
				"x": 0.1679186797,
				"y": -2.0926239566,
				"z": -0.2798472281,
				"element": "H" 
			}
		],
		 "valence_orbital": [ 
			{
				"type": "occ",
				"energy": -0.27943,
				"method": "rhf"
			},
			{
				"type": "occ",
				"energy": -0.25693,
				"method": "rhf"
			},
			{
				"type": "occ",
				"energy": -0.25569,
				"method": "rhf"
			},
			{
				"type": "occ",
				"energy": -0.2209,
				"method": "rhf"
			},
			{
				"type": "occ",
				"energy": -0.21518,
				"method": "rhf"
			},
			{
				"type": "unocc",
				"energy": -0.0694,
				"method": "rhf"
			},
			{
				"type": "unocc",
				"energy": -0.03016,
				"method": "rhf"
			},
			{
				"type": "unocc",
				"energy": -0.01285,
				"method": "rhf"
			},
			{
				"type": "unocc",
				"energy": 0.0355,
				"method": "rhf"
			},
			{
				"type": "unocc",
				"energy": 0.06129,
				"method": "rhf"
			}
		],
		"cosmo_sigma_profile": { 
			"-0.025": 0.0,
			"-0.024": 0.0,
			"-0.023": 0.0,
			"-0.022": 0.0,
			"-0.021": 0.0,
			"-0.02": 0.0,
			"-0.019": 0.0,
			"-0.018": 0.0,
			"-0.017": 0.0,
			"-0.016": 0.0,
			"-0.015": 1.01114219011,
			"-0.014": 3.23773433765,
			"-0.013": 3.52283468719,
			"-0.012": 3.57101134395,
			"-0.011": 2.62536480203,
			"-0.01": 3.59393250027,
			"-0.009": 3.38076029406,
			"-0.008": 3.19899547222,
			"-0.007": 7.82279907928,
			"-0.006": 15.4141094533,
			"-0.005": 15.1792384873,
			"-0.004": 12.2308989589,
			"-0.003": 12.9233864774,
			"-0.002": 13.1244373511,
			"-0.001": 16.4230556004,
			"0.0": 14.7008332319,
			"0.001": 11.0443501566,
			"0.002": 13.4240789259,
			"0.003": 16.7426780144,
			"0.004": 6.06703342483,
			"0.005": 5.3166952539,
			"0.006": 5.19895145986,
			"0.007": 5.27219065563,
			"0.008": 5.05343795648,
			"0.009": 6.07374090605,
			"0.01": 8.6892676703,
			"0.011": 10.5656296702,
			"0.012": 7.35226687542,
			"0.013": 1.78503427457,
			"0.014": 0.212027444695,
			"0.015": 0.0,
			"0.016": 0.0,
			"0.017": 0.0,
			"0.018": 0.0,
			"0.019": 0.0,
			"0.02": 0.0,
			"0.021": 0.0,
			"0.022": 0.0,
			"0.023": 0.0,
			"0.024": 0.0,
			"0.025": 0.0
		}
	}
}
