{
	 "smiles": "COC(=O)CC(=O)C1=CC=C(C=C1)C(=O)OC", 
	 "Tm": 356.65, 
	 "num_atms": 29, 
	 "gaussian": { 
		 "optdone": 1, 
		 "sigma_profile": "yes", 
		 "theory": "DFT", 
		 "functional": "B3LYP", 
		 "basiset": "6-31G**", 
		 "properties": { 
			 "R2extent": 6101.2079, 
			 "electric_dipole_moment_norm": 2.70238328148, 
			 "electric_quadrupole_moment_norm": 17.158673711, 
			 "total_energy": -840.645138895, 
			 "HOMO_LUMO_gap": 0.17785, 
			 "cosmo_polarized_energy": -13.75, 
			 "cosmo_cavitation_energy": 34.73, 
			 "cosmo_dispersion_energy": -24.49, 
			 "cosmo_repulsion_energy": 1.92, 
			 "cosmo_total_nonelectrostatic_energy": 12.16, 
			 "SMD_solvation_energy": 9.6 
		},
		"coords": [
			{
				"x": 0.3012808253,
				"y": -4.4191169612,
				"z": 0.6122750107,
				"element": "C" 
			},
			{
				"x": 0.3001162016,
				"y": -3.6361058667,
				"z": -0.5956245431,
				"element": "O" 
			},
			{
				"x": 1.0619522636,
				"y": -2.5278902689,
				"z": -0.568520675,
				"element": "C" 
			},
			{
				"x": 1.7278701958,
				"y": -2.1864022154,
				"z": 0.3864092211,
				"element": "O" 
			},
			{
				"x": 0.960904802,
				"y": -1.7702183455,
				"z": -1.8838278384,
				"element": "C" 
			},
			{
				"x": -0.3978101449,
				"y": -1.0730506441,
				"z": -2.0810478359,
				"element": "C" 
			},
			{
				"x": -1.1700145564,
				"y": -1.4921992691,
				"z": -2.9254299624,
				"element": "O" 
			},
			{
				"x": -0.732687891,
				"y": 0.1281712705,
				"z": -1.250934991,
				"element": "C" 
			},
			{
				"x": 0.1197765165,
				"y": 0.629749754,
				"z": -0.2540559519,
				"element": "C" 
			},
			{
				"x": -0.2459794583,
				"y": 1.7585676114,
				"z": 0.4767439947,
				"element": "C" 
			},
			{
				"x": -1.4636103698,
				"y": 2.3996343314,
				"z": 0.2169409425,
				"element": "C" 
			},
			{
				"x": -2.3183778373,
				"y": 1.8996387775,
				"z": -0.77729552,
				"element": "C" 
			},
			{
				"x": -1.9558305415,
				"y": 0.7740463403,
				"z": -1.5028015465,
				"element": "C" 
			},
			{
				"x": -1.9038501004,
				"y": 3.6143945418,
				"z": 0.9658793994,
				"element": "C" 
			},
			{
				"x": -2.9536855936,
				"y": 4.1949201369,
				"z": 0.7713152098,
				"element": "O" 
			},
			{
				"x": -1.0018683613,
				"y": 4.0046315143,
				"z": 1.8929826276,
				"element": "O" 
			},
			{
				"x": -1.3672712821,
				"y": 5.1697478496,
				"z": 2.6497533433,
				"element": "C" 
			},
			{
				"x": -0.3700417592,
				"y": -5.2549611837,
				"z": 0.4187398275,
				"element": "H" 
			},
			{
				"x": 1.3092043913,
				"y": -4.777639182,
				"z": 0.8345326444,
				"element": "H" 
			},
			{
				"x": -0.0570364851,
				"y": -3.8231270342,
				"z": 1.4549483043,
				"element": "H" 
			},
			{
				"x": 1.0601763238,
				"y": -2.4734585349,
				"z": -2.7123870382,
				"element": "H" 
			},
			{
				"x": 1.7761734607,
				"y": -1.0440995295,
				"z": -1.9107677856,
				"element": "H" 
			},
			{
				"x": 1.056913831,
				"y": 0.1340773523,
				"z": -0.0258046243,
				"element": "H" 
			},
			{
				"x": 0.4087745003,
				"y": 2.1444815225,
				"z": 1.2491069361,
				"element": "H" 
			},
			{
				"x": -3.2570411745,
				"y": 2.4112031884,
				"z": -0.960476643,
				"element": "H" 
			},
			{
				"x": -2.6008087871,
				"y": 0.3707563588,
				"z": -2.275812937,
				"element": "H" 
			},
			{
				"x": -1.5024994935,
				"y": 6.0297912618,
				"z": 1.9892365615,
				"element": "H" 
			},
			{
				"x": -2.2974550716,
				"y": 4.9963635042,
				"z": 3.19649463,
				"element": "H" 
			},
			{
				"x": -0.5421744041,
				"y": 5.3419937195,
				"z": 3.3405292394,
				"element": "H" 
			}
		],
		 "valence_orbital": [ 
			{
				"type": "occ",
				"energy": -0.289,
				"method": "rhf"
			},
			{
				"type": "occ",
				"energy": -0.28033,
				"method": "rhf"
			},
			{
				"type": "occ",
				"energy": -0.2695,
				"method": "rhf"
			},
			{
				"type": "occ",
				"energy": -0.26748,
				"method": "rhf"
			},
			{
				"type": "occ",
				"energy": -0.25979,
				"method": "rhf"
			},
			{
				"type": "unocc",
				"energy": -0.08194,
				"method": "rhf"
			},
			{
				"type": "unocc",
				"energy": -0.01696,
				"method": "rhf"
			},
			{
				"type": "unocc",
				"energy": -0.01484,
				"method": "rhf"
			},
			{
				"type": "unocc",
				"energy": 0.00602,
				"method": "rhf"
			},
			{
				"type": "unocc",
				"energy": 0.06939,
				"method": "rhf"
			}
		],
		"cosmo_sigma_profile": { 
			"-0.025": 0.0,
			"-0.024": 0.0,
			"-0.023": 0.0,
			"-0.022": 0.0,
			"-0.021": 0.0,
			"-0.02": 0.0,
			"-0.019": 0.0,
			"-0.018": 0.0,
			"-0.017": 0.0,
			"-0.016": 0.0,
			"-0.015": 0.0,
			"-0.014": 0.0,
			"-0.013": 0.0,
			"-0.012": 0.0,
			"-0.011": 0.0,
			"-0.01": 0.0,
			"-0.009": 0.0159589434771,
			"-0.008": 2.39513080918,
			"-0.007": 8.90287021998,
			"-0.006": 20.9147197476,
			"-0.005": 25.6691839981,
			"-0.004": 29.7348985659,
			"-0.003": 25.0700129179,
			"-0.002": 16.7169397636,
			"-0.001": 16.2668033537,
			"0.0": 18.7804544824,
			"0.001": 20.9769972182,
			"0.002": 21.31723145,
			"0.003": 9.5308003229,
			"0.004": 7.48674403612,
			"0.005": 6.93372239336,
			"0.006": 5.59737242415,
			"0.007": 6.94693107474,
			"0.008": 5.71557442938,
			"0.009": 4.66747221237,
			"0.01": 7.44721406483,
			"0.011": 11.734073068,
			"0.012": 4.18299257315,
			"0.013": 0.0,
			"0.014": 0.0,
			"0.015": 0.0,
			"0.016": 0.0,
			"0.017": 0.0,
			"0.018": 0.0,
			"0.019": 0.0,
			"0.02": 0.0,
			"0.021": 0.0,
			"0.022": 0.0,
			"0.023": 0.0,
			"0.024": 0.0,
			"0.025": 0.0
		}
	}
}
