{
	 "smiles": "COCCC1=CC=C(O)C=C1", 
	 "Tm": 317.15, 
	 "num_atms": 23, 
	 "gaussian": { 
		 "optdone": 1, 
		 "sigma_profile": "yes", 
		 "theory": "DFT", 
		 "functional": "B3LYP", 
		 "basiset": "6-31G**", 
		 "properties": { 
			 "R2extent": 2469.8213, 
			 "electric_dipole_moment_norm": 2.17671582206, 
			 "electric_quadrupole_moment_norm": 11.5918212133, 
			 "total_energy": -500.619151172, 
			 "HOMO_LUMO_gap": 0.21351, 
			 "cosmo_polarized_energy": -10.37, 
			 "cosmo_cavitation_energy": 25.99, 
			 "cosmo_dispersion_energy": -19.04, 
			 "cosmo_repulsion_energy": 1.54, 
			 "cosmo_total_nonelectrostatic_energy": 8.49, 
			 "SMD_solvation_energy": 5.22 
		},
		"coords": [
			{
				"x": 1.3050129702,
				"y": 0.9100816198,
				"z": -2.9439478012,
				"element": "C" 
			},
			{
				"x": 1.7263602679,
				"y": 0.4366977592,
				"z": -1.6805393483,
				"element": "O" 
			},
			{
				"x": 1.4260980761,
				"y": -0.9333746111,
				"z": -1.4449596531,
				"element": "C" 
			},
			{
				"x": -0.0317532212,
				"y": -1.2004464314,
				"z": -1.0283308836,
				"element": "C" 
			},
			{
				"x": -0.3998704918,
				"y": -0.7433401806,
				"z": 0.3691920874,
				"element": "C" 
			},
			{
				"x": -0.1915577124,
				"y": 0.5796869156,
				"z": 0.7959313303,
				"element": "C" 
			},
			{
				"x": -0.5415147825,
				"y": 0.9914866154,
				"z": 2.0781181714,
				"element": "C" 
			},
			{
				"x": -1.1179107733,
				"y": 0.0823859908,
				"z": 2.9722257836,
				"element": "C" 
			},
			{
				"x": -1.4465311171,
				"y": 0.5412631472,
				"z": 4.2189511091,
				"element": "O" 
			},
			{
				"x": -1.3326117892,
				"y": -1.2378870359,
				"z": 2.569490197,
				"element": "C" 
			},
			{
				"x": -0.9728680464,
				"y": -1.6369374571,
				"z": 1.2809142511,
				"element": "C" 
			},
			{
				"x": 1.7450481998,
				"y": 0.3197298936,
				"z": -3.7631327158,
				"element": "H" 
			},
			{
				"x": 0.211245067,
				"y": 0.8992660832,
				"z": -3.0621666401,
				"element": "H" 
			},
			{
				"x": 1.6504960547,
				"y": 1.9433308469,
				"z": -3.0297296578,
				"element": "H" 
			},
			{
				"x": 1.6627460775,
				"y": -1.5244649313,
				"z": -2.3449813859,
				"element": "H" 
			},
			{
				"x": 2.1022748507,
				"y": -1.2534473608,
				"z": -0.6455971842,
				"element": "H" 
			},
			{
				"x": -0.2046562775,
				"y": -2.2809078716,
				"z": -1.1074994807,
				"element": "H" 
			},
			{
				"x": -0.6992863424,
				"y": -0.7395103789,
				"z": -1.7695084395,
				"element": "H" 
			},
			{
				"x": 0.2710421789,
				"y": 1.2868103179,
				"z": 0.1158925707,
				"element": "H" 
			},
			{
				"x": -0.3757952304,
				"y": 2.013097544,
				"z": 2.4048134278,
				"element": "H" 
			},
			{
				"x": -1.8309697706,
				"y": -0.1835095782,
				"z": 4.7285998814,
				"element": "H" 
			},
			{
				"x": -1.7766390692,
				"y": -1.953989336,
				"z": 3.2585810509,
				"element": "H" 
			},
			{
				"x": -1.1460591187,
				"y": -2.6686215608,
				"z": 0.9833833295,
				"element": "H" 
			}
		],
		 "valence_orbital": [ 
			{
				"type": "occ",
				"energy": -0.31934,
				"method": "rhf"
			},
			{
				"type": "occ",
				"energy": -0.30636,
				"method": "rhf"
			},
			{
				"type": "occ",
				"energy": -0.25438,
				"method": "rhf"
			},
			{
				"type": "occ",
				"energy": -0.24358,
				"method": "rhf"
			},
			{
				"type": "occ",
				"energy": -0.20902,
				"method": "rhf"
			},
			{
				"type": "unocc",
				"energy": 0.00449,
				"method": "rhf"
			},
			{
				"type": "unocc",
				"energy": 0.01948,
				"method": "rhf"
			},
			{
				"type": "unocc",
				"energy": 0.07549,
				"method": "rhf"
			},
			{
				"type": "unocc",
				"energy": 0.0875,
				"method": "rhf"
			},
			{
				"type": "unocc",
				"energy": 0.10764,
				"method": "rhf"
			}
		],
		"cosmo_sigma_profile": { 
			"-0.025": 0.0,
			"-0.024": 0.0,
			"-0.023": 0.0,
			"-0.022": 0.0,
			"-0.021": 0.0,
			"-0.02": 0.0,
			"-0.019": 0.0,
			"-0.018": 0.14187614972,
			"-0.017": 0.867206823605,
			"-0.016": 1.13763165873,
			"-0.015": 1.2445360701,
			"-0.014": 0.825035375596,
			"-0.013": 1.00520472271,
			"-0.012": 0.751385286681,
			"-0.011": 0.988352609366,
			"-0.01": 1.29561933603,
			"-0.009": 1.06202835264,
			"-0.008": 0.855015567226,
			"-0.007": 1.11309807505,
			"-0.006": 2.67200143524,
			"-0.005": 8.66335605335,
			"-0.004": 20.3639974945,
			"-0.003": 26.1745161308,
			"-0.002": 24.1251967565,
			"-0.001": 15.8889325563,
			"0.0": 13.5900381683,
			"0.001": 8.79651030214,
			"0.002": 9.19470993005,
			"0.003": 8.66387779783,
			"0.004": 11.8403901617,
			"0.005": 11.7446210154,
			"0.006": 11.5765484006,
			"0.007": 5.56824984055,
			"0.008": 2.86075614575,
			"0.009": 2.07789490686,
			"0.01": 2.81251199196,
			"0.011": 2.85405069384,
			"0.012": 2.35620533309,
			"0.013": 1.10427702477,
			"0.014": 0.321935946091,
			"0.015": 0.0,
			"0.016": 0.0,
			"0.017": 0.0,
			"0.018": 0.0,
			"0.019": 0.0,
			"0.02": 0.0,
			"0.021": 0.0,
			"0.022": 0.0,
			"0.023": 0.0,
			"0.024": 0.0,
			"0.025": 0.0
		}
	}
}
