{
	 "smiles": "N#CC1=CC=C(C=C1)N1CCNCC1", 
	 "Tm": 356.15, 
	 "num_atms": 27, 
	 "gaussian": { 
		 "optdone": 1, 
		 "sigma_profile": "yes", 
		 "theory": "DFT", 
		 "functional": "B3LYP", 
		 "basiset": "6-31G**", 
		 "properties": { 
			 "R2extent": 4575.7262, 
			 "electric_dipole_moment_norm": 6.16094619681, 
			 "electric_quadrupole_moment_norm": 47.7055807633, 
			 "total_energy": -591.233118677, 
			 "HOMO_LUMO_gap": 0.17623, 
			 "cosmo_polarized_energy": -14.34, 
			 "cosmo_cavitation_energy": 29.81, 
			 "cosmo_dispersion_energy": -21.69, 
			 "cosmo_repulsion_energy": 1.69, 
			 "cosmo_total_nonelectrostatic_energy": 9.81, 
			 "SMD_solvation_energy": 2.29 
		},
		"coords": [
			{
				"x": 6.8002195571,
				"y": -0.9465527882,
				"z": 1.6096061491,
				"element": "N" 
			},
			{
				"x": 5.6770685495,
				"y": -0.8089729445,
				"z": 1.3348850607,
				"element": "C" 
			},
			{
				"x": 4.2972847643,
				"y": -0.6402793979,
				"z": 0.999002523,
				"element": "C" 
			},
			{
				"x": 3.8857074343,
				"y": 0.4026065295,
				"z": 0.1553443836,
				"element": "C" 
			},
			{
				"x": 2.544698865,
				"y": 0.5705686891,
				"z": -0.1666341322,
				"element": "C" 
			},
			{
				"x": 1.5560479592,
				"y": -0.3058250708,
				"z": 0.3333706584,
				"element": "C" 
			},
			{
				"x": 1.9853910545,
				"y": -1.3549291502,
				"z": 1.1806829341,
				"element": "C" 
			},
			{
				"x": 3.3209782637,
				"y": -1.5174759689,
				"z": 1.5072638431,
				"element": "C" 
			},
			{
				"x": 0.207262689,
				"y": -0.1843689406,
				"z": -0.0174622954,
				"element": "N" 
			},
			{
				"x": -0.81526973,
				"y": -0.3576810908,
				"z": 1.0254290537,
				"element": "C" 
			},
			{
				"x": -2.1788914984,
				"y": -0.6863046709,
				"z": 0.4047082596,
				"element": "C" 
			},
			{
				"x": -2.6082214113,
				"y": 0.2778053235,
				"z": -0.6076419336,
				"element": "N" 
			},
			{
				"x": -1.5602090328,
				"y": 0.4648272847,
				"z": -1.6090016323,
				"element": "C" 
			},
			{
				"x": -0.1780566709,
				"y": 0.8031303912,
				"z": -1.0258175525,
				"element": "C" 
			},
			{
				"x": 4.6231000502,
				"y": 1.0951374608,
				"z": -0.2376062161,
				"element": "H" 
			},
			{
				"x": 2.2685234989,
				"y": 1.407063712,
				"z": -0.7959371482,
				"element": "H" 
			},
			{
				"x": 1.2679472433,
				"y": -2.0729181476,
				"z": 1.5605666187,
				"element": "H" 
			},
			{
				"x": 3.6224845994,
				"y": -2.337468513,
				"z": 2.150904263,
				"element": "H" 
			},
			{
				"x": -0.8996924812,
				"y": 0.5677038366,
				"z": 1.6251510195,
				"element": "H" 
			},
			{
				"x": -0.519247803,
				"y": -1.1551761051,
				"z": 1.7078076287,
				"element": "H" 
			},
			{
				"x": -2.9362529286,
				"y": -0.7406335984,
				"z": 1.194110045,
				"element": "H" 
			},
			{
				"x": -2.1254996971,
				"y": -1.674061102,
				"z": -0.0706705026,
				"element": "H" 
			},
			{
				"x": -2.812862846,
				"y": 1.169668596,
				"z": -0.1594010625,
				"element": "H" 
			},
			{
				"x": -1.8630378861,
				"y": 1.2553215643,
				"z": -2.3039554562,
				"element": "H" 
			},
			{
				"x": -1.4773448024,
				"y": -0.4652692902,
				"z": -2.1853778718,
				"element": "H" 
			},
			{
				"x": -0.192204889,
				"y": 1.8253980849,
				"z": -0.6024501488,
				"element": "H" 
			},
			{
				"x": 0.5574771485,
				"y": 0.7905853064,
				"z": -1.8346764882,
				"element": "H" 
			}
		],
		 "valence_orbital": [ 
			{
				"type": "occ",
				"energy": -0.3171,
				"method": "rhf"
			},
			{
				"type": "occ",
				"energy": -0.28898,
				"method": "rhf"
			},
			{
				"type": "occ",
				"energy": -0.26871,
				"method": "rhf"
			},
			{
				"type": "occ",
				"energy": -0.23772,
				"method": "rhf"
			},
			{
				"type": "occ",
				"energy": -0.21091,
				"method": "rhf"
			},
			{
				"type": "unocc",
				"energy": -0.03468,
				"method": "rhf"
			},
			{
				"type": "unocc",
				"energy": -0.01691,
				"method": "rhf"
			},
			{
				"type": "unocc",
				"energy": 0.0477,
				"method": "rhf"
			},
			{
				"type": "unocc",
				"energy": 0.06707,
				"method": "rhf"
			},
			{
				"type": "unocc",
				"energy": 0.08047,
				"method": "rhf"
			}
		],
		"cosmo_sigma_profile": { 
			"-0.025": 0.0,
			"-0.024": 0.0,
			"-0.023": 0.0,
			"-0.022": 0.0,
			"-0.021": 0.0,
			"-0.02": 0.0,
			"-0.019": 0.0,
			"-0.018": 0.0,
			"-0.017": 0.0,
			"-0.016": 0.0,
			"-0.015": 0.0,
			"-0.014": 0.0,
			"-0.013": 0.0,
			"-0.012": 0.0,
			"-0.011": 0.0,
			"-0.01": 0.697996905106,
			"-0.009": 1.73372459509,
			"-0.008": 3.3151059058,
			"-0.007": 8.61826504315,
			"-0.006": 12.8170700998,
			"-0.005": 15.6647504463,
			"-0.004": 24.0946065231,
			"-0.003": 29.5189991275,
			"-0.002": 21.0396961903,
			"-0.001": 14.4049075503,
			"0.0": 13.3937604706,
			"0.001": 13.3896960561,
			"0.002": 10.9312000182,
			"0.003": 14.288264245,
			"0.004": 13.4135769865,
			"0.005": 4.25933619766,
			"0.006": 3.75741063796,
			"0.007": 4.70209381557,
			"0.008": 3.46735574972,
			"0.009": 4.35101458878,
			"0.01": 3.93937500559,
			"0.011": 3.97446436788,
			"0.012": 3.30662338286,
			"0.013": 3.69445996321,
			"0.014": 1.47162389295,
			"0.015": 0.283984263351,
			"0.016": 0.761640238157,
			"0.017": 0.371316261948,
			"0.018": 0.648135891382,
			"0.019": 0.0505536031616,
			"0.02": 0.0,
			"0.021": 0.0,
			"0.022": 0.0,
			"0.023": 0.0,
			"0.024": 0.0,
			"0.025": 0.0
		}
	}
}
