{
	 "smiles": "OC(=O)CNC(C1=CC=CC=C1)C(F)(F)F", 
	 "Tm": 465.15, 
	 "num_atms": 26, 
	 "gaussian": { 
		 "optdone": 1, 
		 "sigma_profile": "yes", 
		 "theory": "DFT", 
		 "functional": "B3LYP", 
		 "basiset": "6-31G**", 
		 "properties": { 
			 "R2extent": 5015.6804, 
			 "electric_dipole_moment_norm": 5.23617687822, 
			 "electric_quadrupole_moment_norm": 32.053496411, 
			 "total_energy": -891.823870489, 
			 "HOMO_LUMO_gap": 0.22919, 
			 "cosmo_polarized_energy": -16.18, 
			 "cosmo_cavitation_energy": 31.38, 
			 "cosmo_dispersion_energy": -21.57, 
			 "cosmo_repulsion_energy": 1.65, 
			 "cosmo_total_nonelectrostatic_energy": 11.45, 
			 "SMD_solvation_energy": 7.42 
		},
		"coords": [
			{
				"x": 3.9997374582,
				"y": -2.0444165265,
				"z": -0.0740104138,
				"element": "O" 
			},
			{
				"x": 4.5596922553,
				"y": -1.2290439323,
				"z": -0.9819700869,
				"element": "C" 
			},
			{
				"x": 5.7005964825,
				"y": -1.3350698569,
				"z": -1.3605656905,
				"element": "O" 
			},
			{
				"x": 3.5990959472,
				"y": -0.1618394836,
				"z": -1.5334013598,
				"element": "C" 
			},
			{
				"x": 2.4129204071,
				"y": -0.0406186033,
				"z": -0.6749667268,
				"element": "N" 
			},
			{
				"x": 1.1232303956,
				"y": 0.2751021356,
				"z": -1.2974244357,
				"element": "C" 
			},
			{
				"x": -0.0118787629,
				"y": 0.0261280815,
				"z": -0.3141009624,
				"element": "C" 
			},
			{
				"x": -0.7460960515,
				"y": -1.1616200807,
				"z": -0.4173017498,
				"element": "C" 
			},
			{
				"x": -1.7543791146,
				"y": -1.4586369,
				"z": 0.4993958888,
				"element": "C" 
			},
			{
				"x": -2.0406066401,
				"y": -0.5676213982,
				"z": 1.5347609115,
				"element": "C" 
			},
			{
				"x": -1.31472503,
				"y": 0.6191793557,
				"z": 1.6451550052,
				"element": "C" 
			},
			{
				"x": -0.3060614829,
				"y": 0.9164951948,
				"z": 0.7278471918,
				"element": "C" 
			},
			{
				"x": 1.0986374419,
				"y": 1.6878752913,
				"z": -1.9030315214,
				"element": "C" 
			},
			{
				"x": 1.4959223471,
				"y": 2.6248142047,
				"z": -1.0048612802,
				"element": "F" 
			},
			{
				"x": 1.9476576752,
				"y": 1.7739834589,
				"z": -2.9529858566,
				"element": "F" 
			},
			{
				"x": -0.1245155315,
				"y": 2.0273956277,
				"z": -2.3425501145,
				"element": "F" 
			},
			{
				"x": 3.0841684327,
				"y": -1.7044109855,
				"z": 0.0472562181,
				"element": "H" 
			},
			{
				"x": 4.1598415485,
				"y": 0.7674202815,
				"z": -1.6773435329,
				"element": "H" 
			},
			{
				"x": 3.2887123887,
				"y": -0.4963241359,
				"z": -2.528615029,
				"element": "H" 
			},
			{
				"x": 2.584371634,
				"y": 0.6046821438,
				"z": 0.0920828752,
				"element": "H" 
			},
			{
				"x": 0.9960550358,
				"y": -0.4004110229,
				"z": -2.1499829872,
				"element": "H" 
			},
			{
				"x": -0.5264457932,
				"y": -1.8603809092,
				"z": -1.220643458,
				"element": "H" 
			},
			{
				"x": -2.3156601905,
				"y": -2.3832738689,
				"z": 0.4029515641,
				"element": "H" 
			},
			{
				"x": -2.8259757461,
				"y": -0.7953465224,
				"z": 2.2493407314,
				"element": "H" 
			},
			{
				"x": -1.5345728501,
				"y": 1.319765772,
				"z": 2.4453380712,
				"element": "H" 
			},
			{
				"x": 0.2392777435,
				"y": 1.849572679,
				"z": 0.8193267481,
				"element": "H" 
			}
		],
		 "valence_orbital": [ 
			{
				"type": "occ",
				"energy": -0.30438,
				"method": "rhf"
			},
			{
				"type": "occ",
				"energy": -0.2912,
				"method": "rhf"
			},
			{
				"type": "occ",
				"energy": -0.26973,
				"method": "rhf"
			},
			{
				"type": "occ",
				"energy": -0.2672,
				"method": "rhf"
			},
			{
				"type": "occ",
				"energy": -0.25585,
				"method": "rhf"
			},
			{
				"type": "unocc",
				"energy": -0.02666,
				"method": "rhf"
			},
			{
				"type": "unocc",
				"energy": -0.0216,
				"method": "rhf"
			},
			{
				"type": "unocc",
				"energy": 0.01578,
				"method": "rhf"
			},
			{
				"type": "unocc",
				"energy": 0.05872,
				"method": "rhf"
			},
			{
				"type": "unocc",
				"energy": 0.07445,
				"method": "rhf"
			}
		],
		"cosmo_sigma_profile": { 
			"-0.025": 0.0,
			"-0.024": 0.0,
			"-0.023": 0.0,
			"-0.022": 0.0,
			"-0.021": 0.0,
			"-0.02": 0.0,
			"-0.019": 0.0,
			"-0.018": 0.0,
			"-0.017": 0.0,
			"-0.016": 0.0,
			"-0.015": 0.0,
			"-0.014": 0.0,
			"-0.013": 0.57096907851,
			"-0.012": 1.63532853611,
			"-0.011": 1.39206484241,
			"-0.01": 1.82319195563,
			"-0.009": 6.18987189844,
			"-0.008": 9.52668242277,
			"-0.007": 8.72002115999,
			"-0.006": 15.4881726788,
			"-0.005": 15.6665300341,
			"-0.004": 17.172975183,
			"-0.003": 12.5768463651,
			"-0.002": 11.8753426186,
			"-0.001": 11.7833074045,
			"0.0": 11.7751491092,
			"0.001": 15.9258450023,
			"0.002": 26.3454574866,
			"0.003": 26.7739520907,
			"0.004": 11.5938025528,
			"0.005": 11.2849344844,
			"0.006": 3.52015465907,
			"0.007": 2.38632004322,
			"0.008": 2.63279733103,
			"0.009": 3.09405010546,
			"0.01": 4.79550958687,
			"0.011": 5.05591506437,
			"0.012": 5.92433362336,
			"0.013": 3.55473596753,
			"0.014": 0.463385587286,
			"0.015": 0.0,
			"0.016": 0.0,
			"0.017": 0.0,
			"0.018": 0.0,
			"0.019": 0.0,
			"0.02": 0.0,
			"0.021": 0.0,
			"0.022": 0.0,
			"0.023": 0.0,
			"0.024": 0.0,
			"0.025": 0.0
		}
	}
}
