{
	 "smiles": "ClS(=O)(=O)C1=CC(=CC=C1)C1=CC=CS1", 
	 "Tm": 331.15, 
	 "num_atms": 22, 
	 "gaussian": { 
		 "optdone": 1, 
		 "sigma_profile": "yes", 
		 "theory": "DFT", 
		 "functional": "B3LYP", 
		 "basiset": "6-31G**", 
		 "properties": { 
			 "R2extent": 6031.9691, 
			 "electric_dipole_moment_norm": 6.29362701945, 
			 "electric_quadrupole_moment_norm": 17.0484502507, 
			 "total_energy": -1792.21880491, 
			 "HOMO_LUMO_gap": 0.14673, 
			 "cosmo_polarized_energy": -10.44, 
			 "cosmo_cavitation_energy": 31.72, 
			 "cosmo_dispersion_energy": -23.95, 
			 "cosmo_repulsion_energy": 1.78, 
			 "cosmo_total_nonelectrostatic_energy": 9.55, 
			 "SMD_solvation_energy": 3.96 
		},
		"coords": [
			{
				"x": 4.0817171951,
				"y": 2.5766765982,
				"z": -1.1370169574,
				"element": "Cl" 
			},
			{
				"x": 3.3442751712,
				"y": 0.6283588472,
				"z": -1.6087736852,
				"element": "S" 
			},
			{
				"x": 3.8276935787,
				"y": 0.3273019149,
				"z": -2.9504758281,
				"element": "O" 
			},
			{
				"x": 3.6588496264,
				"y": -0.2120633414,
				"z": -0.4602730012,
				"element": "O" 
			},
			{
				"x": 1.5815265896,
				"y": 0.9273184577,
				"z": -1.666487371,
				"element": "C" 
			},
			{
				"x": 0.8432538401,
				"y": 0.7576849427,
				"z": -0.4984693985,
				"element": "C" 
			},
			{
				"x": -0.5448402967,
				"y": 0.9746074982,
				"z": -0.5255854575,
				"element": "C" 
			},
			{
				"x": -1.1319667109,
				"y": 1.3584039932,
				"z": -1.7478374581,
				"element": "C" 
			},
			{
				"x": -0.3725015597,
				"y": 1.5034879615,
				"z": -2.9065785847,
				"element": "C" 
			},
			{
				"x": 1.006137858,
				"y": 1.2924002178,
				"z": -2.8831038881,
				"element": "C" 
			},
			{
				"x": -1.3706071544,
				"y": 0.8003673922,
				"z": 0.6746383712,
				"element": "C" 
			},
			{
				"x": -2.7074411499,
				"y": 0.4755330998,
				"z": 0.7485322848,
				"element": "C" 
			},
			{
				"x": -3.198152512,
				"y": 0.3846006127,
				"z": 2.081636905,
				"element": "C" 
			},
			{
				"x": -2.233842454,
				"y": 0.6418459403,
				"z": 3.0182076241,
				"element": "C" 
			},
			{
				"x": -0.7090190379,
				"y": 1.004145221,
				"z": 2.2841256511,
				"element": "S" 
			},
			{
				"x": 1.340775526,
				"y": 0.4354449256,
				"z": 0.4096483955,
				"element": "H" 
			},
			{
				"x": -2.1975038239,
				"y": 1.5604161829,
				"z": -1.780997858,
				"element": "H" 
			},
			{
				"x": -0.8557979733,
				"y": 1.7940847663,
				"z": -3.8340392845,
				"element": "H" 
			},
			{
				"x": 1.6161638647,
				"y": 1.3997584903,
				"z": -3.7722455907,
				"element": "H" 
			},
			{
				"x": -3.3151242934,
				"y": 0.2759634434,
				"z": -0.1267387451,
				"element": "H" 
			},
			{
				"x": -4.2216644522,
				"y": 0.1310550402,
				"z": 2.3322582617,
				"element": "H" 
			},
			{
				"x": -2.3265318313,
				"y": 0.6443077951,
				"z": 4.095375615,
				"element": "H" 
			}
		],
		 "valence_orbital": [ 
			{
				"type": "occ",
				"energy": -0.31141,
				"method": "rhf"
			},
			{
				"type": "occ",
				"energy": -0.30354,
				"method": "rhf"
			},
			{
				"type": "occ",
				"energy": -0.28987,
				"method": "rhf"
			},
			{
				"type": "occ",
				"energy": -0.26755,
				"method": "rhf"
			},
			{
				"type": "occ",
				"energy": -0.23561,
				"method": "rhf"
			},
			{
				"type": "unocc",
				"energy": -0.08888,
				"method": "rhf"
			},
			{
				"type": "unocc",
				"energy": -0.06331,
				"method": "rhf"
			},
			{
				"type": "unocc",
				"energy": -0.04281,
				"method": "rhf"
			},
			{
				"type": "unocc",
				"energy": -0.00288,
				"method": "rhf"
			},
			{
				"type": "unocc",
				"energy": 0.0174,
				"method": "rhf"
			}
		],
		"cosmo_sigma_profile": { 
			"-0.025": 0.0,
			"-0.024": 0.0,
			"-0.023": 0.0,
			"-0.022": 0.0,
			"-0.021": 0.0,
			"-0.02": 0.0,
			"-0.019": 0.0,
			"-0.018": 0.0,
			"-0.017": 0.0,
			"-0.016": 0.0,
			"-0.015": 0.0,
			"-0.014": 0.0,
			"-0.013": 0.0,
			"-0.012": 0.0,
			"-0.011": 0.0,
			"-0.01": 0.00903541297589,
			"-0.009": 1.62665694288,
			"-0.008": 6.97894690068,
			"-0.007": 12.8865476133,
			"-0.006": 15.0104013143,
			"-0.005": 12.6716319164,
			"-0.004": 14.1862667533,
			"-0.003": 12.2420560875,
			"-0.002": 15.8573564307,
			"-0.001": 18.2022856982,
			"0.0": 21.714860714,
			"0.001": 28.9923263198,
			"0.002": 22.6157665956,
			"0.003": 25.8527362066,
			"0.004": 21.1575525515,
			"0.005": 7.14687749921,
			"0.006": 3.46516843844,
			"0.007": 5.85540633893,
			"0.008": 9.84330547399,
			"0.009": 4.46365185727,
			"0.01": 0.0242718223496,
			"0.011": 0.0,
			"0.012": 0.0,
			"0.013": 0.0,
			"0.014": 0.0,
			"0.015": 0.0,
			"0.016": 0.0,
			"0.017": 0.0,
			"0.018": 0.0,
			"0.019": 0.0,
			"0.02": 0.0,
			"0.021": 0.0,
			"0.022": 0.0,
			"0.023": 0.0,
			"0.024": 0.0,
			"0.025": 0.0
		}
	}
}
