{
	 "smiles": "[O-][N+](=O)C1=C(CC#N)C=CC(=C1)C(F)(F)F", 
	 "Tm": 313.15, 
	 "num_atms": 21, 
	 "gaussian": { 
		 "optdone": 1, 
		 "sigma_profile": "yes", 
		 "theory": "DFT", 
		 "functional": "B3LYP", 
		 "basiset": "6-31G**", 
		 "properties": { 
			 "R2extent": 4405.4624, 
			 "electric_dipole_moment_norm": 1.24408995254, 
			 "electric_quadrupole_moment_norm": 16.3721279448, 
			 "total_energy": -905.324799013, 
			 "HOMO_LUMO_gap": 0.18811, 
			 "cosmo_polarized_energy": -12.4, 
			 "cosmo_cavitation_energy": 28.8, 
			 "cosmo_dispersion_energy": -19.93, 
			 "cosmo_repulsion_energy": 1.47, 
			 "cosmo_total_nonelectrostatic_energy": 10.35, 
			 "SMD_solvation_energy": 9.4 
		},
		"coords": [
			{
				"x": -1.5634104379,
				"y": 0.4367742256,
				"z": -1.881734276,
				"element": "O" 
			},
			{
				"x": -1.189701761,
				"y": -0.685850468,
				"z": -1.5552936582,
				"element": "N" 
			},
			{
				"x": -1.3852578132,
				"y": -1.7020214852,
				"z": -2.2254989163,
				"element": "O" 
			},
			{
				"x": -0.4639514837,
				"y": -0.8241457512,
				"z": -0.2752966592,
				"element": "C" 
			},
			{
				"x": 0.0930735319,
				"y": -2.0488746634,
				"z": 0.1486185589,
				"element": "C" 
			},
			{
				"x": 0.005775368,
				"y": -3.3402813594,
				"z": -0.6583438414,
				"element": "C" 
			},
			{
				"x": 0.7073070759,
				"y": -4.4695761266,
				"z": -0.0418578212,
				"element": "C" 
			},
			{
				"x": 1.2580710532,
				"y": -5.3721001015,
				"z": 0.4360631025,
				"element": "N" 
			},
			{
				"x": 0.760438315,
				"y": -2.0379038944,
				"z": 1.3810939278,
				"element": "C" 
			},
			{
				"x": 0.8668781804,
				"y": -0.8853157398,
				"z": 2.1536452667,
				"element": "C" 
			},
			{
				"x": 0.3022164985,
				"y": 0.3102287272,
				"z": 1.7067366354,
				"element": "C" 
			},
			{
				"x": -0.3620107221,
				"y": 0.3396907535,
				"z": 0.4868922668,
				"element": "C" 
			},
			{
				"x": 0.3685235141,
				"y": 1.5487466995,
				"z": 2.5648516711,
				"element": "C" 
			},
			{
				"x": 0.2684861307,
				"y": 2.6725192623,
				"z": 1.8277774786,
				"element": "F" 
			},
			{
				"x": 1.5274160305,
				"y": 1.6051538072,
				"z": 3.2540788174,
				"element": "F" 
			},
			{
				"x": -0.6338887165,
				"y": 1.5696212907,
				"z": 3.4696203798,
				"element": "F" 
			},
			{
				"x": -1.0412305285,
				"y": -3.6196304927,
				"z": -0.8120657333,
				"element": "H" 
			},
			{
				"x": 0.4050355274,
				"y": -3.1882641988,
				"z": -1.6658805286,
				"element": "H" 
			},
			{
				"x": 1.2101406202,
				"y": -2.9574820077,
				"z": 1.7389601878,
				"element": "H" 
			},
			{
				"x": 1.3972623135,
				"y": -0.9157299921,
				"z": 3.0992641143,
				"element": "H" 
			},
			{
				"x": -0.7997726964,
				"y": 1.2522415148,
				"z": 0.1051690272,
				"element": "H" 
			}
		],
		 "valence_orbital": [ 
			{
				"type": "occ",
				"energy": -0.33296,
				"method": "rhf"
			},
			{
				"type": "occ",
				"energy": -0.33038,
				"method": "rhf"
			},
			{
				"type": "occ",
				"energy": -0.31476,
				"method": "rhf"
			},
			{
				"type": "occ",
				"energy": -0.30881,
				"method": "rhf"
			},
			{
				"type": "occ",
				"energy": -0.30257,
				"method": "rhf"
			},
			{
				"type": "unocc",
				"energy": -0.11446,
				"method": "rhf"
			},
			{
				"type": "unocc",
				"energy": -0.06205,
				"method": "rhf"
			},
			{
				"type": "unocc",
				"energy": -0.03317,
				"method": "rhf"
			},
			{
				"type": "unocc",
				"energy": 0.01212,
				"method": "rhf"
			},
			{
				"type": "unocc",
				"energy": 0.02522,
				"method": "rhf"
			}
		],
		"cosmo_sigma_profile": { 
			"-0.025": 0.0,
			"-0.024": 0.0,
			"-0.023": 0.0,
			"-0.022": 0.0,
			"-0.021": 0.0,
			"-0.02": 0.0,
			"-0.019": 0.0,
			"-0.018": 0.0,
			"-0.017": 0.0,
			"-0.016": 0.0,
			"-0.015": 0.0,
			"-0.014": 0.0,
			"-0.013": 0.0,
			"-0.012": 0.0,
			"-0.011": 0.0,
			"-0.01": 1.81783318348,
			"-0.009": 7.26485244073,
			"-0.008": 8.38218288276,
			"-0.007": 10.8600088927,
			"-0.006": 10.7972078031,
			"-0.005": 10.6565763723,
			"-0.004": 12.0048961349,
			"-0.003": 13.7054052399,
			"-0.002": 19.0379087607,
			"-0.001": 18.7689658351,
			"0.0": 13.3614806342,
			"0.001": 11.9239570568,
			"0.002": 28.4973775681,
			"0.003": 17.4776765634,
			"0.004": 3.99850601866,
			"0.005": 5.83627460971,
			"0.006": 6.22318620206,
			"0.007": 9.2956475891,
			"0.008": 7.62889749748,
			"0.009": 6.67410408774,
			"0.01": 3.30586598979,
			"0.011": 2.59859332031,
			"0.012": 2.21160836566,
			"0.013": 0.741350815382,
			"0.014": 0.0,
			"0.015": 0.0,
			"0.016": 0.0,
			"0.017": 0.0,
			"0.018": 0.0,
			"0.019": 0.0,
			"0.02": 0.0,
			"0.021": 0.0,
			"0.022": 0.0,
			"0.023": 0.0,
			"0.024": 0.0,
			"0.025": 0.0
		}
	}
}
