{
	 "smiles": "OC(=O)C=CC1=CC(OC(F)(F)F)=CC=C1", 
	 "Tm": 367.65, 
	 "num_atms": 23, 
	 "gaussian": { 
		 "optdone": 1, 
		 "sigma_profile": "yes", 
		 "theory": "DFT", 
		 "functional": "B3LYP", 
		 "basiset": "6-31G**", 
		 "properties": { 
			 "R2extent": 6501.4376, 
			 "electric_dipole_moment_norm": 1.39577277162, 
			 "electric_quadrupole_moment_norm": 16.7166004421, 
			 "total_energy": -910.478585544, 
			 "HOMO_LUMO_gap": 0.16854, 
			 "cosmo_polarized_energy": -10.67, 
			 "cosmo_cavitation_energy": 30.4, 
			 "cosmo_dispersion_energy": -21.61, 
			 "cosmo_repulsion_energy": 1.63, 
			 "cosmo_total_nonelectrostatic_energy": 10.42, 
			 "SMD_solvation_energy": 8.15 
		},
		"coords": [
			{
				"x": -4.0369462532,
				"y": 2.3082488153,
				"z": 0.672994159,
				"element": "O" 
			},
			{
				"x": -3.9100407056,
				"y": 1.7074930151,
				"z": -0.5406351215,
				"element": "C" 
			},
			{
				"x": -4.607939323,
				"y": 2.0117431,
				"z": -1.4891069115,
				"element": "O" 
			},
			{
				"x": -2.8629008135,
				"y": 0.6723605728,
				"z": -0.5879921757,
				"element": "C" 
			},
			{
				"x": -2.0923712924,
				"y": 0.3381598194,
				"z": 0.4635768924,
				"element": "C" 
			},
			{
				"x": -1.034171728,
				"y": -0.676076848,
				"z": 0.4967426188,
				"element": "C" 
			},
			{
				"x": -0.3458337627,
				"y": -0.8636913951,
				"z": 1.7101887876,
				"element": "C" 
			},
			{
				"x": 0.6672332118,
				"y": -1.815370407,
				"z": 1.7895015844,
				"element": "C" 
			},
			{
				"x": 1.4151124438,
				"y": -2.0870931018,
				"z": 2.936080001,
				"element": "O" 
			},
			{
				"x": 1.2020568744,
				"y": -1.418380901,
				"z": 4.0963813798,
				"element": "C" 
			},
			{
				"x": 1.4046715362,
				"y": -0.0919109634,
				"z": 3.9723882724,
				"element": "F" 
			},
			{
				"x": -0.0489356279,
				"y": -1.5880792545,
				"z": 4.5677742579,
				"element": "F" 
			},
			{
				"x": 2.0614090101,
				"y": -1.8965384949,
				"z": 4.9930473294,
				"element": "F" 
			},
			{
				"x": 1.0154923485,
				"y": -2.5909101148,
				"z": 0.6848364539,
				"element": "C" 
			},
			{
				"x": 0.33268753,
				"y": -2.4043126552,
				"z": -0.5169477081,
				"element": "C" 
			},
			{
				"x": -0.6827190296,
				"y": -1.4585190079,
				"z": -0.6173454973,
				"element": "C" 
			},
			{
				"x": -4.7497660891,
				"y": 2.9589756572,
				"z": 0.568034228,
				"element": "H" 
			},
			{
				"x": -2.7701117884,
				"y": 0.1999945241,
				"z": -1.559894889,
				"element": "H" 
			},
			{
				"x": -2.2611617133,
				"y": 0.8696743494,
				"z": 1.3972699781,
				"element": "H" 
			},
			{
				"x": -0.6158019597,
				"y": -0.2619192544,
				"z": 2.5681872134,
				"element": "H" 
			},
			{
				"x": 1.809562489,
				"y": -3.3229270871,
				"z": 0.782342913,
				"element": "H" 
			},
			{
				"x": 0.5999599065,
				"y": -3.0057569252,
				"z": -1.3802148656,
				"element": "H" 
			},
			{
				"x": -1.2016852638,
				"y": -1.3286634431,
				"z": -1.5606089003,
				"element": "H" 
			}
		],
		 "valence_orbital": [ 
			{
				"type": "occ",
				"energy": -0.32143,
				"method": "rhf"
			},
			{
				"type": "occ",
				"energy": -0.31238,
				"method": "rhf"
			},
			{
				"type": "occ",
				"energy": -0.27552,
				"method": "rhf"
			},
			{
				"type": "occ",
				"energy": -0.26569,
				"method": "rhf"
			},
			{
				"type": "occ",
				"energy": -0.2457,
				"method": "rhf"
			},
			{
				"type": "unocc",
				"energy": -0.07716,
				"method": "rhf"
			},
			{
				"type": "unocc",
				"energy": -0.02042,
				"method": "rhf"
			},
			{
				"type": "unocc",
				"energy": 0.00998,
				"method": "rhf"
			},
			{
				"type": "unocc",
				"energy": 0.07377,
				"method": "rhf"
			},
			{
				"type": "unocc",
				"energy": 0.08038,
				"method": "rhf"
			}
		],
		"cosmo_sigma_profile": { 
			"-0.025": 0.0,
			"-0.024": 0.0,
			"-0.023": 0.0,
			"-0.022": 0.0,
			"-0.021": 0.0,
			"-0.02": 0.0,
			"-0.019": 0.0,
			"-0.018": 0.498165962509,
			"-0.017": 0.99353130294,
			"-0.016": 0.789902793696,
			"-0.015": 0.905932708733,
			"-0.014": 0.775242914456,
			"-0.013": 0.192295636117,
			"-0.012": 0.462666834175,
			"-0.011": 1.21878087347,
			"-0.01": 1.1501228365,
			"-0.009": 2.66422222028,
			"-0.008": 5.47928853541,
			"-0.007": 8.10445097232,
			"-0.006": 9.85428969388,
			"-0.005": 9.98150854645,
			"-0.004": 7.15167466407,
			"-0.003": 8.57211692137,
			"-0.002": 12.8274892091,
			"-0.001": 18.7152070511,
			"0.0": 25.863319997,
			"0.001": 39.4655809446,
			"0.002": 42.6181946709,
			"0.003": 14.4862976444,
			"0.004": 5.0660490746,
			"0.005": 4.11577627836,
			"0.006": 3.7132057076,
			"0.007": 2.66057169269,
			"0.008": 2.26685675277,
			"0.009": 2.00194778802,
			"0.01": 1.27456492321,
			"0.011": 3.03464276509,
			"0.012": 5.51903066102,
			"0.013": 1.90412609468,
			"0.014": 0.0350140524733,
			"0.015": 0.0,
			"0.016": 0.0,
			"0.017": 0.0,
			"0.018": 0.0,
			"0.019": 0.0,
			"0.02": 0.0,
			"0.021": 0.0,
			"0.022": 0.0,
			"0.023": 0.0,
			"0.024": 0.0,
			"0.025": 0.0
		}
	}
}
