{
	 "smiles": "OC(=O)C1=C(OC(F)F)C=C(F)C=C1", 
	 "Tm": 389.15, 
	 "num_atms": 19, 
	 "gaussian": { 
		 "optdone": 1, 
		 "sigma_profile": "yes", 
		 "theory": "DFT", 
		 "functional": "B3LYP", 
		 "basiset": "6-31G**", 
		 "properties": { 
			 "R2extent": 3182.4119, 
			 "electric_dipole_moment_norm": 3.69900559205, 
			 "electric_quadrupole_moment_norm": 20.8807974864, 
			 "total_energy": -833.051583618, 
			 "HOMO_LUMO_gap": 0.21294, 
			 "cosmo_polarized_energy": -12.95, 
			 "cosmo_cavitation_energy": 25.25, 
			 "cosmo_dispersion_energy": -18.24, 
			 "cosmo_repulsion_energy": 1.36, 
			 "cosmo_total_nonelectrostatic_energy": 8.38, 
			 "SMD_solvation_energy": 7.28 
		},
		"coords": [
			{
				"x": 2.0778959861,
				"y": 2.2071655243,
				"z": -1.7108554607,
				"element": "O" 
			},
			{
				"x": 1.0219489602,
				"y": 1.4045304437,
				"z": -1.9425679497,
				"element": "C" 
			},
			{
				"x": 0.5307610768,
				"y": 1.3423213086,
				"z": -3.0475136572,
				"element": "O" 
			},
			{
				"x": 0.4765553904,
				"y": 0.588226582,
				"z": -0.7939912278,
				"element": "C" 
			},
			{
				"x": 0.9201685163,
				"y": 0.6048217372,
				"z": 0.5414084061,
				"element": "C" 
			},
			{
				"x": 2.0115178999,
				"y": 1.434203357,
				"z": 0.8410365641,
				"element": "O" 
			},
			{
				"x": 2.1370058593,
				"y": 2.0304805033,
				"z": 2.0833543169,
				"element": "C" 
			},
			{
				"x": 0.9773909289,
				"y": 2.600361776,
				"z": 2.469793886,
				"element": "F" 
			},
			{
				"x": 2.4794254821,
				"y": 1.1197289142,
				"z": 3.0302509311,
				"element": "F" 
			},
			{
				"x": 0.3363975077,
				"y": -0.19902381,
				"z": 1.5185633465,
				"element": "C" 
			},
			{
				"x": -0.7211120462,
				"y": -1.0190132662,
				"z": 1.1447065862,
				"element": "C" 
			},
			{
				"x": -1.2876961915,
				"y": -1.7906680933,
				"z": 2.0864178382,
				"element": "F" 
			},
			{
				"x": -1.2003387904,
				"y": -1.0740004867,
				"z": -0.1594138085,
				"element": "C" 
			},
			{
				"x": -0.5894368915,
				"y": -0.2691854088,
				"z": -1.1111649619,
				"element": "C" 
			},
			{
				"x": 2.3495375594,
				"y": 2.1344002092,
				"z": -0.78056233,
				"element": "H" 
			},
			{
				"x": 2.9261380392,
				"y": 2.7812254965,
				"z": 2.0029397643,
				"element": "H" 
			},
			{
				"x": 0.6865149685,
				"y": -0.2046803405,
				"z": 2.5406246663,
				"element": "H" 
			},
			{
				"x": -2.0252491713,
				"y": -1.7319443811,
				"z": -0.4068371813,
				"element": "H" 
			},
			{
				"x": -0.923725084,
				"y": -0.2715500654,
				"z": -2.1423897287,
				"element": "H" 
			}
		],
		 "valence_orbital": [ 
			{
				"type": "occ",
				"energy": -0.35961,
				"method": "rhf"
			},
			{
				"type": "occ",
				"energy": -0.31239,
				"method": "rhf"
			},
			{
				"type": "occ",
				"energy": -0.27914,
				"method": "rhf"
			},
			{
				"type": "occ",
				"energy": -0.27562,
				"method": "rhf"
			},
			{
				"type": "occ",
				"energy": -0.26762,
				"method": "rhf"
			},
			{
				"type": "unocc",
				"energy": -0.05468,
				"method": "rhf"
			},
			{
				"type": "unocc",
				"energy": -0.0332,
				"method": "rhf"
			},
			{
				"type": "unocc",
				"energy": 0.05015,
				"method": "rhf"
			},
			{
				"type": "unocc",
				"energy": 0.06384,
				"method": "rhf"
			},
			{
				"type": "unocc",
				"energy": 0.08172,
				"method": "rhf"
			}
		],
		"cosmo_sigma_profile": { 
			"-0.025": 0.0,
			"-0.024": 0.0,
			"-0.023": 0.0,
			"-0.022": 0.0,
			"-0.021": 0.0,
			"-0.02": 0.0,
			"-0.019": 0.0,
			"-0.018": 0.0,
			"-0.017": 0.0,
			"-0.016": 0.0,
			"-0.015": 0.0,
			"-0.014": 0.146439992941,
			"-0.013": 1.07496016656,
			"-0.012": 3.92272379043,
			"-0.011": 3.955837987,
			"-0.01": 2.49860983429,
			"-0.009": 2.73294084253,
			"-0.008": 5.14626529176,
			"-0.007": 5.67932957689,
			"-0.006": 7.67825830554,
			"-0.005": 7.95951380456,
			"-0.004": 8.22345461662,
			"-0.003": 8.03378518822,
			"-0.002": 11.3883032698,
			"-0.001": 19.1014536333,
			"0.0": 22.2156890551,
			"0.001": 17.2162890863,
			"0.002": 19.2758541631,
			"0.003": 23.2938996551,
			"0.004": 6.06738481914,
			"0.005": 1.7116042585,
			"0.006": 2.07330975767,
			"0.007": 2.26081593866,
			"0.008": 3.46068830966,
			"0.009": 2.22541845494,
			"0.01": 4.42385673003,
			"0.011": 5.90878101125,
			"0.012": 4.30063705033,
			"0.013": 1.80959144773,
			"0.014": 0.103267089064,
			"0.015": 0.0,
			"0.016": 0.0,
			"0.017": 0.0,
			"0.018": 0.0,
			"0.019": 0.0,
			"0.02": 0.0,
			"0.021": 0.0,
			"0.022": 0.0,
			"0.023": 0.0,
			"0.024": 0.0,
			"0.025": 0.0
		}
	}
}
