{
	 "smiles": "OC(=O)C1=CC=C(C=C1)N1C(=O)C=CC1=O", 
	 "Tm": 503.15, 
	 "num_atms": 23, 
	 "gaussian": { 
		 "optdone": 1, 
		 "sigma_profile": "yes", 
		 "theory": "DFT", 
		 "functional": "B3LYP", 
		 "basiset": "6-31G**", 
		 "properties": { 
			 "R2extent": 5529.3369, 
			 "electric_dipole_moment_norm": 6.38668134402, 
			 "electric_quadrupole_moment_norm": 7.68606178221, 
			 "total_energy": -779.040628655, 
			 "HOMO_LUMO_gap": 0.14011, 
			 "cosmo_polarized_energy": -19.95, 
			 "cosmo_cavitation_energy": 29.02, 
			 "cosmo_dispersion_energy": -21.17, 
			 "cosmo_repulsion_energy": 1.61, 
			 "cosmo_total_nonelectrostatic_energy": 9.47, 
			 "SMD_solvation_energy": 7.71 
		},
		"coords": [
			{
				"x": -3.1174099212,
				"y": -3.0977041443,
				"z": -3.0554207485,
				"element": "O" 
			},
			{
				"x": -2.7491581702,
				"y": -2.598610809,
				"z": -1.8442016301,
				"element": "C" 
			},
			{
				"x": -3.4257508921,
				"y": -2.8227084741,
				"z": -0.8681931253,
				"element": "O" 
			},
			{
				"x": -1.4944736028,
				"y": -1.7808128412,
				"z": -1.8049442182,
				"element": "C" 
			},
			{
				"x": -1.3062256445,
				"y": -0.9238560825,
				"z": -0.7130332754,
				"element": "C" 
			},
			{
				"x": -0.1697827288,
				"y": -0.1304423234,
				"z": -0.6159284489,
				"element": "C" 
			},
			{
				"x": 0.8201921034,
				"y": -0.2095826086,
				"z": -1.6070357882,
				"element": "C" 
			},
			{
				"x": 0.6603220099,
				"y": -1.0869151151,
				"z": -2.6878504456,
				"element": "C" 
			},
			{
				"x": -0.4944937831,
				"y": -1.8576067754,
				"z": -2.7835676476,
				"element": "C" 
			},
			{
				"x": 1.9898115537,
				"y": 0.5956799868,
				"z": -1.5145876576,
				"element": "N" 
			},
			{
				"x": 2.6882971568,
				"y": 1.1505963624,
				"z": -2.6138071781,
				"element": "C" 
			},
			{
				"x": 2.4042835281,
				"y": 1.0235554272,
				"z": -3.7848767353,
				"element": "O" 
			},
			{
				"x": 3.8374070593,
				"y": 1.9187868603,
				"z": -2.0372828065,
				"element": "C" 
			},
			{
				"x": 3.808911437,
				"y": 1.811272358,
				"z": -0.7071700425,
				"element": "C" 
			},
			{
				"x": 2.6346831956,
				"y": 0.9703424181,
				"z": -0.3101569973,
				"element": "C" 
			},
			{
				"x": 2.2965641757,
				"y": 0.6654210566,
				"z": 0.8120388933,
				"element": "O" 
			},
			{
				"x": -2.5848834458,
				"y": -2.6990294111,
				"z": -3.7573585738,
				"element": "H" 
			},
			{
				"x": -2.0735175496,
				"y": -0.8853767287,
				"z": 0.0523642589,
				"element": "H" 
			},
			{
				"x": -0.0393880167,
				"y": 0.5331379193,
				"z": 0.2282551646,
				"element": "H" 
			},
			{
				"x": 1.4268532552,
				"y": -1.1584432128,
				"z": -3.4474242079,
				"element": "H" 
			},
			{
				"x": -0.578192164,
				"y": -2.5544960936,
				"z": -3.6139144578,
				"element": "H" 
			},
			{
				"x": 4.5345011816,
				"y": 2.4490697125,
				"z": -2.6723791332,
				"element": "H" 
			},
			{
				"x": 4.4786492624,
				"y": 2.2271225185,
				"z": 0.0337748011,
				"element": "H" 
			}
		],
		 "valence_orbital": [ 
			{
				"type": "occ",
				"energy": -0.31366,
				"method": "rhf"
			},
			{
				"type": "occ",
				"energy": -0.28835,
				"method": "rhf"
			},
			{
				"type": "occ",
				"energy": -0.27566,
				"method": "rhf"
			},
			{
				"type": "occ",
				"energy": -0.27315,
				"method": "rhf"
			},
			{
				"type": "occ",
				"energy": -0.25411,
				"method": "rhf"
			},
			{
				"type": "unocc",
				"energy": -0.114,
				"method": "rhf"
			},
			{
				"type": "unocc",
				"energy": -0.05691,
				"method": "rhf"
			},
			{
				"type": "unocc",
				"energy": -0.02508,
				"method": "rhf"
			},
			{
				"type": "unocc",
				"energy": 0.02543,
				"method": "rhf"
			},
			{
				"type": "unocc",
				"energy": 0.04899,
				"method": "rhf"
			}
		],
		"cosmo_sigma_profile": { 
			"-0.025": 0.0,
			"-0.024": 0.0,
			"-0.023": 0.0,
			"-0.022": 0.0,
			"-0.021": 0.0,
			"-0.02": 0.0,
			"-0.019": 0.429559453846,
			"-0.018": 0.759953323774,
			"-0.017": 0.885467633304,
			"-0.016": 1.08949646633,
			"-0.015": 0.573183038491,
			"-0.014": 0.956754169049,
			"-0.013": 1.30592463968,
			"-0.012": 1.60080786522,
			"-0.011": 1.19737053921,
			"-0.01": 4.31227204192,
			"-0.009": 4.81163211023,
			"-0.008": 5.69841513566,
			"-0.007": 8.51482543487,
			"-0.006": 14.4463847776,
			"-0.005": 16.4274889931,
			"-0.004": 14.4401955846,
			"-0.003": 15.0345137326,
			"-0.002": 13.4661491676,
			"-0.001": 12.5880704243,
			"0.0": 12.0874914175,
			"0.001": 12.6017329744,
			"0.002": 15.630412939,
			"0.003": 9.94011804905,
			"0.004": 6.55773033871,
			"0.005": 4.95837644301,
			"0.006": 6.52142660303,
			"0.007": 5.06492672276,
			"0.008": 6.7774342016,
			"0.009": 8.89348370963,
			"0.01": 12.1641007875,
			"0.011": 8.99686020988,
			"0.012": 4.41611252477,
			"0.013": 1.47930800709,
			"0.014": 0.0170364536155,
			"0.015": 0.0,
			"0.016": 0.0,
			"0.017": 0.0,
			"0.018": 0.0,
			"0.019": 0.0,
			"0.02": 0.0,
			"0.021": 0.0,
			"0.022": 0.0,
			"0.023": 0.0,
			"0.024": 0.0,
			"0.025": 0.0
		}
	}
}
