{
	 "smiles": "CCC(=O)NCC1=C(OC)C=CC(=C1)S(N)(=O)=O", 
	 "Tm": 393.15, 
	 "num_atms": 34, 
	 "gaussian": { 
		 "optdone": 1, 
		 "sigma_profile": "yes", 
		 "theory": "DFT", 
		 "functional": "B3LYP", 
		 "basiset": "6-31G**", 
		 "properties": { 
			 "R2extent": 6544.4487, 
			 "electric_dipole_moment_norm": 3.35951932425, 
			 "electric_quadrupole_moment_norm": 22.4075210077, 
			 "total_energy": -1237.34189058, 
			 "HOMO_LUMO_gap": 0.21196, 
			 "cosmo_polarized_energy": -24.0, 
			 "cosmo_cavitation_energy": 39.0, 
			 "cosmo_dispersion_energy": -27.63, 
			 "cosmo_repulsion_energy": 2.16, 
			 "cosmo_total_nonelectrostatic_energy": 13.53, 
			 "SMD_solvation_energy": 7.01 
		},
		"coords": [
			{
				"x": 2.4934816435,
				"y": -4.712740197,
				"z": -0.8946548957,
				"element": "C" 
			},
			{
				"x": 1.3599933881,
				"y": -3.6982743433,
				"z": -1.0592912538,
				"element": "C" 
			},
			{
				"x": 1.8830831752,
				"y": -2.3008987248,
				"z": -1.3881801594,
				"element": "C" 
			},
			{
				"x": 2.9484947471,
				"y": -1.8785314004,
				"z": -0.9486721627,
				"element": "O" 
			},
			{
				"x": 1.0758739517,
				"y": -1.5470995615,
				"z": -2.1930615067,
				"element": "N" 
			},
			{
				"x": 1.3943133973,
				"y": -0.1593481511,
				"z": -2.5164984632,
				"element": "C" 
			},
			{
				"x": 1.0559274787,
				"y": 0.8213395306,
				"z": -1.4060408724,
				"element": "C" 
			},
			{
				"x": 2.0432475056,
				"y": 1.6586798189,
				"z": -0.8600419087,
				"element": "C" 
			},
			{
				"x": 3.3025893363,
				"y": 1.6349425811,
				"z": -1.3966649809,
				"element": "O" 
			},
			{
				"x": 4.3442717983,
				"y": 1.1533776859,
				"z": -0.5315592127,
				"element": "C" 
			},
			{
				"x": 1.7302036222,
				"y": 2.5547565122,
				"z": 0.1749213406,
				"element": "C" 
			},
			{
				"x": 0.4374910017,
				"y": 2.6286488829,
				"z": 0.6746214927,
				"element": "C" 
			},
			{
				"x": -0.543640677,
				"y": 1.7917500108,
				"z": 0.1330981694,
				"element": "C" 
			},
			{
				"x": -0.2444479243,
				"y": 0.9062179975,
				"z": -0.8980896624,
				"element": "C" 
			},
			{
				"x": -2.2233776879,
				"y": 1.8909878953,
				"z": 0.7339333395,
				"element": "S" 
			},
			{
				"x": -2.0895880438,
				"y": 1.292922814,
				"z": 2.3175797352,
				"element": "N" 
			},
			{
				"x": -2.5949831413,
				"y": 3.3000186243,
				"z": 0.8913423477,
				"element": "O" 
			},
			{
				"x": -3.0346170632,
				"y": 0.9674348996,
				"z": -0.0696267381,
				"element": "O" 
			},
			{
				"x": 3.2272460771,
				"y": -4.3389378866,
				"z": -0.1774546731,
				"element": "H" 
			},
			{
				"x": 3.0120928262,
				"y": -4.8820831232,
				"z": -1.8433758494,
				"element": "H" 
			},
			{
				"x": 2.1076737576,
				"y": -5.673155548,
				"z": -0.5409847119,
				"element": "H" 
			},
			{
				"x": 0.6427250747,
				"y": -4.0290366066,
				"z": -1.8203031211,
				"element": "H" 
			},
			{
				"x": 0.7978578186,
				"y": -3.6138498194,
				"z": -0.1191782978,
				"element": "H" 
			},
			{
				"x": 0.1895657818,
				"y": -1.9269966565,
				"z": -2.4880654405,
				"element": "H" 
			},
			{
				"x": 0.845493493,
				"y": 0.0996757203,
				"z": -3.4278769435,
				"element": "H" 
			},
			{
				"x": 2.4601363054,
				"y": -0.0923988313,
				"z": -2.733742708,
				"element": "H" 
			},
			{
				"x": 4.4094709022,
				"y": 1.7485332644,
				"z": 0.3871726853,
				"element": "H" 
			},
			{
				"x": 4.1723340761,
				"y": 0.1003598672,
				"z": -0.2922074252,
				"element": "H" 
			},
			{
				"x": 5.2738327103,
				"y": 1.2624757556,
				"z": -1.0928978848,
				"element": "H" 
			},
			{
				"x": 2.5068887973,
				"y": 3.2058050749,
				"z": 0.5627776759,
				"element": "H" 
			},
			{
				"x": 0.1856282517,
				"y": 3.3320129185,
				"z": 1.4607366444,
				"element": "H" 
			},
			{
				"x": -1.0355051778,
				"y": 0.2791789828,
				"z": -1.2968366408,
				"element": "H" 
			},
			{
				"x": -2.6851188805,
				"y": 1.8602114911,
				"z": 2.9166240804,
				"element": "H" 
			},
			{
				"x": -2.3707383219,
				"y": 0.315820522,
				"z": 2.3486980016,
				"element": "H" 
			}
		],
		 "valence_orbital": [ 
			{
				"type": "occ",
				"energy": -0.28427,
				"method": "rhf"
			},
			{
				"type": "occ",
				"energy": -0.27126,
				"method": "rhf"
			},
			{
				"type": "occ",
				"energy": -0.25609,
				"method": "rhf"
			},
			{
				"type": "occ",
				"energy": -0.25531,
				"method": "rhf"
			},
			{
				"type": "occ",
				"energy": -0.24247,
				"method": "rhf"
			},
			{
				"type": "unocc",
				"energy": -0.03051,
				"method": "rhf"
			},
			{
				"type": "unocc",
				"energy": -0.02185,
				"method": "rhf"
			},
			{
				"type": "unocc",
				"energy": 0.02209,
				"method": "rhf"
			},
			{
				"type": "unocc",
				"energy": 0.05396,
				"method": "rhf"
			},
			{
				"type": "unocc",
				"energy": 0.06487,
				"method": "rhf"
			}
		],
		"cosmo_sigma_profile": { 
			"-0.025": 0.0,
			"-0.024": 0.0,
			"-0.023": 0.0,
			"-0.022": 0.0,
			"-0.021": 0.0,
			"-0.02": 0.0,
			"-0.019": 0.0,
			"-0.018": 0.0,
			"-0.017": 0.0,
			"-0.016": 0.0,
			"-0.015": 0.981089689557,
			"-0.014": 4.15054402183,
			"-0.013": 3.33077107514,
			"-0.012": 4.59323118148,
			"-0.011": 4.22756919108,
			"-0.01": 3.73396223424,
			"-0.009": 3.64124329805,
			"-0.008": 4.57605891623,
			"-0.007": 9.49307197312,
			"-0.006": 12.9993646653,
			"-0.005": 15.2684015142,
			"-0.004": 17.0252290489,
			"-0.003": 23.1084322083,
			"-0.002": 26.5606895287,
			"-0.001": 22.0569796796,
			"0.0": 19.0263742634,
			"0.001": 19.9023204005,
			"0.002": 21.6038231442,
			"0.003": 13.7440587594,
			"0.004": 7.9677468275,
			"0.005": 8.43495370616,
			"0.006": 6.91661009235,
			"0.007": 7.85614376471,
			"0.008": 7.82029509654,
			"0.009": 6.16681422796,
			"0.01": 9.78206228505,
			"0.011": 13.2874528423,
			"0.012": 6.53561896504,
			"0.013": 2.07997522784,
			"0.014": 0.861140564324,
			"0.015": 0.0,
			"0.016": 0.0,
			"0.017": 0.0,
			"0.018": 0.0,
			"0.019": 0.0,
			"0.02": 0.0,
			"0.021": 0.0,
			"0.022": 0.0,
			"0.023": 0.0,
			"0.024": 0.0,
			"0.025": 0.0
		}
	}
}
