{
	 "smiles": "CC(O)(CC(O)=O)C(O)=O", 
	 "Tm": 382.15, 
	 "num_atms": 18, 
	 "gaussian": { 
		 "optdone": 1, 
		 "sigma_profile": "yes", 
		 "theory": "DFT", 
		 "functional": "B3LYP", 
		 "basiset": "6-31G**", 
		 "properties": { 
			 "R2extent": 1687.4366, 
			 "electric_dipole_moment_norm": 3.19655770322, 
			 "electric_quadrupole_moment_norm": 15.3582344711, 
			 "total_energy": -571.495823311, 
			 "HOMO_LUMO_gap": 0.251, 
			 "cosmo_polarized_energy": -16.61, 
			 "cosmo_cavitation_energy": 21.55, 
			 "cosmo_dispersion_energy": -15.84, 
			 "cosmo_repulsion_energy": 1.29, 
			 "cosmo_total_nonelectrostatic_energy": 7.0, 
			 "SMD_solvation_energy": 5.96 
		},
		"coords": [
			{
				"x": -0.3736070107,
				"y": 0.5490686759,
				"z": 1.8424566113,
				"element": "C" 
			},
			{
				"x": -0.4466576512,
				"y": 1.3693024597,
				"z": 0.5393575578,
				"element": "C" 
			},
			{
				"x": 0.2018269907,
				"y": 2.6076244414,
				"z": 0.7263444417,
				"element": "O" 
			},
			{
				"x": 0.3157449497,
				"y": 0.6782309134,
				"z": -0.6374036143,
				"element": "C" 
			},
			{
				"x": 0.2706988191,
				"y": -0.8297511717,
				"z": -0.7109242927,
				"element": "C" 
			},
			{
				"x": -1.0108976561,
				"y": -1.3088329384,
				"z": -0.8582614527,
				"element": "O" 
			},
			{
				"x": 1.2115743573,
				"y": -1.5807222268,
				"z": -0.6645520934,
				"element": "O" 
			},
			{
				"x": -1.9329968057,
				"y": 1.6874680262,
				"z": 0.2172974627,
				"element": "C" 
			},
			{
				"x": -2.7386406309,
				"y": 0.7030913961,
				"z": -0.1850699561,
				"element": "O" 
			},
			{
				"x": -2.3516467601,
				"y": 2.8154294425,
				"z": 0.3805536018,
				"element": "O" 
			},
			{
				"x": 0.6745855561,
				"y": 0.3722895933,
				"z": 2.0987105503,
				"element": "H" 
			},
			{
				"x": -0.886028239,
				"y": -0.4146441894,
				"z": 1.7633558412,
				"element": "H" 
			},
			{
				"x": -0.8328099936,
				"y": 1.1206245699,
				"z": 2.6529646327,
				"element": "H" 
			},
			{
				"x": -0.5177704474,
				"y": 3.2653930185,
				"z": 0.7700196087,
				"element": "H" 
			},
			{
				"x": 1.3649689807,
				"y": 0.9500049015,
				"z": -0.5193505022,
				"element": "H" 
			},
			{
				"x": -0.0294048862,
				"y": 1.0898036343,
				"z": -1.5930095263,
				"element": "H" 
			},
			{
				"x": -0.9575930424,
				"y": -2.2793868981,
				"z": -0.8827481348,
				"element": "H" 
			},
			{
				"x": -2.2441465304,
				"y": -0.1227936481,
				"z": -0.3560407357,
				"element": "H" 
			}
		],
		 "valence_orbital": [ 
			{
				"type": "occ",
				"energy": -0.34338,
				"method": "rhf"
			},
			{
				"type": "occ",
				"energy": -0.3265,
				"method": "rhf"
			},
			{
				"type": "occ",
				"energy": -0.30869,
				"method": "rhf"
			},
			{
				"type": "occ",
				"energy": -0.2892,
				"method": "rhf"
			},
			{
				"type": "occ",
				"energy": -0.27838,
				"method": "rhf"
			},
			{
				"type": "unocc",
				"energy": -0.02738,
				"method": "rhf"
			},
			{
				"type": "unocc",
				"energy": -0.0026,
				"method": "rhf"
			},
			{
				"type": "unocc",
				"energy": 0.038,
				"method": "rhf"
			},
			{
				"type": "unocc",
				"energy": 0.09138,
				"method": "rhf"
			},
			{
				"type": "unocc",
				"energy": 0.10702,
				"method": "rhf"
			}
		],
		"cosmo_sigma_profile": { 
			"-0.025": 0.0,
			"-0.024": 0.0,
			"-0.023": 0.0,
			"-0.022": 0.0,
			"-0.021": 0.0,
			"-0.02": 0.215988442185,
			"-0.019": 1.20475139217,
			"-0.018": 0.468845953823,
			"-0.017": 1.0682067663,
			"-0.016": 0.944203411102,
			"-0.015": 0.610274547563,
			"-0.014": 0.625606187105,
			"-0.013": 0.77910673031,
			"-0.012": 0.857410038057,
			"-0.011": 0.734697288708,
			"-0.01": 1.49650169605,
			"-0.009": 5.03238768963,
			"-0.008": 6.7920000299,
			"-0.007": 5.48765177289,
			"-0.006": 8.60540466056,
			"-0.005": 13.3133907302,
			"-0.004": 13.2238529896,
			"-0.003": 11.4285906613,
			"-0.002": 10.2700114492,
			"-0.001": 9.61974543244,
			"0.0": 6.99640205533,
			"0.001": 5.34220594139,
			"0.002": 4.23345270601,
			"0.003": 4.61907076858,
			"0.004": 4.20074059146,
			"0.005": 4.56650892783,
			"0.006": 4.78367196548,
			"0.007": 4.82348340865,
			"0.008": 5.2597728634,
			"0.009": 7.50939418641,
			"0.01": 10.4116426703,
			"0.011": 7.98188956961,
			"0.012": 4.06828137847,
			"0.013": 1.3366696788,
			"0.014": 0.239882850217,
			"0.015": 0.0,
			"0.016": 0.0,
			"0.017": 0.0,
			"0.018": 0.0,
			"0.019": 0.0,
			"0.02": 0.0,
			"0.021": 0.0,
			"0.022": 0.0,
			"0.023": 0.0,
			"0.024": 0.0,
			"0.025": 0.0
		}
	}
}
