{
	 "smiles": "CC(=O)NCC1CCNCC1", 
	 "Tm": 371.15, 
	 "num_atms": 27, 
	 "gaussian": { 
		 "optdone": 1, 
		 "sigma_profile": "yes", 
		 "theory": "DFT", 
		 "functional": "B3LYP", 
		 "basiset": "6-31G**", 
		 "properties": { 
			 "R2extent": 2281.5066, 
			 "electric_dipole_moment_norm": 4.38815076883, 
			 "electric_quadrupole_moment_norm": 8.9382446308, 
			 "total_energy": -499.234516373, 
			 "HOMO_LUMO_gap": 0.23089, 
			 "cosmo_polarized_energy": -13.65, 
			 "cosmo_cavitation_energy": 27.1, 
			 "cosmo_dispersion_energy": -19.99, 
			 "cosmo_repulsion_energy": 1.62, 
			 "cosmo_total_nonelectrostatic_energy": 8.73, 
			 "SMD_solvation_energy": 1.85 
		},
		"coords": [
			{
				"x": -1.9888348913,
				"y": 2.2952403245,
				"z": -2.4686715277,
				"element": "C" 
			},
			{
				"x": -0.6828066902,
				"y": 1.7921348285,
				"z": -1.8712323911,
				"element": "C" 
			},
			{
				"x": 0.2043876723,
				"y": 2.5655719442,
				"z": -1.5244699833,
				"element": "O" 
			},
			{
				"x": -0.5722211204,
				"y": 0.433141658,
				"z": -1.7585266164,
				"element": "N" 
			},
			{
				"x": 0.6044210791,
				"y": -0.2227761654,
				"z": -1.2079762969,
				"element": "C" 
			},
			{
				"x": 0.3840105971,
				"y": -0.8605889341,
				"z": 0.1824866288,
				"element": "C" 
			},
			{
				"x": -0.0547711256,
				"y": 0.1616403872,
				"z": 1.2466377331,
				"element": "C" 
			},
			{
				"x": 1.0495101565,
				"y": 1.1993088416,
				"z": 1.563421715,
				"element": "C" 
			},
			{
				"x": 2.4188908265,
				"y": 0.6512172895,
				"z": 1.5129709306,
				"element": "N" 
			},
			{
				"x": 2.4561015615,
				"y": -0.7947103461,
				"z": 1.714284424,
				"element": "C" 
			},
			{
				"x": 1.6716622199,
				"y": -1.6019925005,
				"z": 0.650852023,
				"element": "C" 
			},
			{
				"x": -1.7600188681,
				"y": 2.8961816517,
				"z": -3.3528519966,
				"element": "H" 
			},
			{
				"x": -2.4746797124,
				"y": 2.9554412166,
				"z": -1.7450141421,
				"element": "H" 
			},
			{
				"x": -2.6857294178,
				"y": 1.5003012435,
				"z": -2.7492049786,
				"element": "H" 
			},
			{
				"x": -1.3522653522,
				"y": -0.140046963,
				"z": -2.0427833488,
				"element": "H" 
			},
			{
				"x": 1.3843668033,
				"y": 0.5406040611,
				"z": -1.1707042799,
				"element": "H" 
			},
			{
				"x": 0.9368784958,
				"y": -1.0006002009,
				"z": -1.9076540712,
				"element": "H" 
			},
			{
				"x": -0.421859694,
				"y": -1.5988046425,
				"z": 0.0667357222,
				"element": "H" 
			},
			{
				"x": -0.9669728045,
				"y": 0.6789832293,
				"z": 0.9295217703,
				"element": "H" 
			},
			{
				"x": -0.3195596658,
				"y": -0.3907306299,
				"z": 2.156999709,
				"element": "H" 
			},
			{
				"x": 0.864752853,
				"y": 1.6159359763,
				"z": 2.563868412,
				"element": "H" 
			},
			{
				"x": 0.9882655647,
				"y": 2.0296484168,
				"z": 0.8547727608,
				"element": "H" 
			},
			{
				"x": 2.8478909944,
				"y": 0.8811600551,
				"z": 0.6213936576,
				"element": "H" 
			},
			{
				"x": 2.0462936904,
				"y": -0.9995112548,
				"z": 2.7117253079,
				"element": "H" 
			},
			{
				"x": 3.5009877868,
				"y": -1.123794515,
				"z": 1.7421046765,
				"element": "H" 
			},
			{
				"x": 1.4162450454,
				"y": -2.589071933,
				"z": 1.0559478865,
				"element": "H" 
			},
			{
				"x": 2.3208539956,
				"y": -1.7898830385,
				"z": -0.2152337246,
				"element": "H" 
			}
		],
		 "valence_orbital": [ 
			{
				"type": "occ",
				"energy": -0.30962,
				"method": "rhf"
			},
			{
				"type": "occ",
				"energy": -0.3065,
				"method": "rhf"
			},
			{
				"type": "occ",
				"energy": -0.25034,
				"method": "rhf"
			},
			{
				"type": "occ",
				"energy": -0.24685,
				"method": "rhf"
			},
			{
				"type": "occ",
				"energy": -0.20173,
				"method": "rhf"
			},
			{
				"type": "unocc",
				"energy": 0.02916,
				"method": "rhf"
			},
			{
				"type": "unocc",
				"energy": 0.06694,
				"method": "rhf"
			},
			{
				"type": "unocc",
				"energy": 0.08179,
				"method": "rhf"
			},
			{
				"type": "unocc",
				"energy": 0.09976,
				"method": "rhf"
			},
			{
				"type": "unocc",
				"energy": 0.11948,
				"method": "rhf"
			}
		],
		"cosmo_sigma_profile": { 
			"-0.025": 0.0,
			"-0.024": 0.0,
			"-0.023": 0.0,
			"-0.022": 0.0,
			"-0.021": 0.0,
			"-0.02": 0.0,
			"-0.019": 0.0,
			"-0.018": 0.0,
			"-0.017": 0.0,
			"-0.016": 0.0,
			"-0.015": 0.0,
			"-0.014": 0.390896499357,
			"-0.013": 1.57022508296,
			"-0.012": 1.16449829814,
			"-0.011": 1.08069353107,
			"-0.01": 1.87868595351,
			"-0.009": 1.88622249207,
			"-0.008": 3.71392498844,
			"-0.007": 2.802457763,
			"-0.006": 4.09957220381,
			"-0.005": 7.96278148384,
			"-0.004": 10.7429025434,
			"-0.003": 19.8641656978,
			"-0.002": 31.1646106167,
			"-0.001": 32.6979465066,
			"0.0": 25.1364283339,
			"0.001": 16.829781,
			"0.002": 5.24748628791,
			"0.003": 5.77443169378,
			"0.004": 3.77893085504,
			"0.005": 3.25946931323,
			"0.006": 2.61739911272,
			"0.007": 2.34732454677,
			"0.008": 2.83519797698,
			"0.009": 1.93360899782,
			"0.01": 2.07602724848,
			"0.011": 1.81987987622,
			"0.012": 2.17952166967,
			"0.013": 2.41583650441,
			"0.014": 4.21373292829,
			"0.015": 3.08313978778,
			"0.016": 1.03196793491,
			"0.017": 0.57539528672,
			"0.018": 0.552835843791,
			"0.019": 0.45085509395,
			"0.02": 0.0,
			"0.021": 0.0,
			"0.022": 0.0,
			"0.023": 0.0,
			"0.024": 0.0,
			"0.025": 0.0
		}
	}
}
