{
	 "smiles": "CN(C)[Si](C)(C)N(C)C", 
	 "Tm": 175.15, 
	 "num_atms": 27, 
	 "gaussian": { 
		 "optdone": 1, 
		 "sigma_profile": "yes", 
		 "theory": "DFT", 
		 "functional": "B3LYP", 
		 "basiset": "6-31G**", 
		 "properties": { 
			 "R2extent": 2589.6366, 
			 "electric_dipole_moment_norm": 0.145266169496, 
			 "electric_quadrupole_moment_norm": 1.19343706579, 
			 "total_energy": -638.544006983, 
			 "HOMO_LUMO_gap": 0.27237, 
			 "cosmo_polarized_energy": -1.77, 
			 "cosmo_cavitation_energy": 28.89, 
			 "cosmo_dispersion_energy": -17.83, 
			 "cosmo_repulsion_energy": 1.56, 
			 "cosmo_total_nonelectrostatic_energy": 12.63, 
			 "SMD_solvation_energy": 7.01 
		},
		"coords": [
			{
				"x": 2.2530635387,
				"y": -2.9143602332,
				"z": -0.1303278477,
				"element": "C" 
			},
			{
				"x": 1.5268486788,
				"y": -2.5867963602,
				"z": 1.0887246734,
				"element": "N" 
			},
			{
				"x": 1.9981947417,
				"y": -3.3410893231,
				"z": 2.237978332,
				"element": "C" 
			},
			{
				"x": 0.5879118805,
				"y": -1.1173972109,
				"z": 1.188352621,
				"element": "Si" 
			},
			{
				"x": -0.3047447488,
				"y": -1.1157743313,
				"z": 2.8576568575,
				"element": "C" 
			},
			{
				"x": 1.6318729272,
				"y": 0.4578976397,
				"z": 1.0786913349,
				"element": "C" 
			},
			{
				"x": -0.4936093259,
				"y": -1.1353100742,
				"z": -0.1830879383,
				"element": "N" 
			},
			{
				"x": -1.3581773099,
				"y": -2.2823204202,
				"z": -0.4234161491,
				"element": "C" 
			},
			{
				"x": -0.9263879431,
				"y": 0.0495569188,
				"z": -0.9046507978,
				"element": "C" 
			},
			{
				"x": 2.1703606598,
				"y": -3.9881365537,
				"z": -0.3578011312,
				"element": "H" 
			},
			{
				"x": 1.836386566,
				"y": -2.3625610801,
				"z": -0.9770404079,
				"element": "H" 
			},
			{
				"x": 3.3285897961,
				"y": -2.6783529373,
				"z": -0.0586745527,
				"element": "H" 
			},
			{
				"x": 3.0548639691,
				"y": -3.1320976485,
				"z": 2.4798009046,
				"element": "H" 
			},
			{
				"x": 1.4023412402,
				"y": -3.1169569916,
				"z": 3.1253123727,
				"element": "H" 
			},
			{
				"x": 1.920224182,
				"y": -4.4233626889,
				"z": 2.0517842008,
				"element": "H" 
			},
			{
				"x": -0.9060406126,
				"y": -2.0190318407,
				"z": 3.0066233533,
				"element": "H" 
			},
			{
				"x": 0.3803826135,
				"y": -1.0234909142,
				"z": 3.7077433908,
				"element": "H" 
			},
			{
				"x": -0.9870439996,
				"y": -0.2588183102,
				"z": 2.8982879058,
				"element": "H" 
			},
			{
				"x": 1.0433364959,
				"y": 1.3706662021,
				"z": 1.2237707341,
				"element": "H" 
			},
			{
				"x": 2.3950752456,
				"y": 0.4373801589,
				"z": 1.8652360102,
				"element": "H" 
			},
			{
				"x": 2.1537928272,
				"y": 0.5429665411,
				"z": 0.1195427097,
				"element": "H" 
			},
			{
				"x": -0.9711471556,
				"y": -3.1617172513,
				"z": 0.0979856338,
				"element": "H" 
			},
			{
				"x": -2.3947606136,
				"y": -2.108722335,
				"z": -0.0873554991,
				"element": "H" 
			},
			{
				"x": -1.400312526,
				"y": -2.5216504889,
				"z": -1.4969743153,
				"element": "H" 
			},
			{
				"x": -1.9319498915,
				"y": 0.388926827,
				"z": -0.6007519522,
				"element": "H" 
			},
			{
				"x": -0.9682589855,
				"y": -0.1472733762,
				"z": -1.9870554364,
				"element": "H" 
			},
			{
				"x": -0.2332122503,
				"y": 0.8788260823,
				"z": -0.7483550069,
				"element": "H" 
			}
		],
		 "valence_orbital": [ 
			{
				"type": "occ",
				"energy": -0.33332,
				"method": "rhf"
			},
			{
				"type": "occ",
				"energy": -0.3195,
				"method": "rhf"
			},
			{
				"type": "occ",
				"energy": -0.29605,
				"method": "rhf"
			},
			{
				"type": "occ",
				"energy": -0.20476,
				"method": "rhf"
			},
			{
				"type": "occ",
				"energy": -0.20134,
				"method": "rhf"
			},
			{
				"type": "unocc",
				"energy": 0.07103,
				"method": "rhf"
			},
			{
				"type": "unocc",
				"energy": 0.09672,
				"method": "rhf"
			},
			{
				"type": "unocc",
				"energy": 0.10616,
				"method": "rhf"
			},
			{
				"type": "unocc",
				"energy": 0.10808,
				"method": "rhf"
			},
			{
				"type": "unocc",
				"energy": 0.12461,
				"method": "rhf"
			}
		],
		"cosmo_sigma_profile": { 
			"-0.025": 0.0,
			"-0.024": 0.0,
			"-0.023": 0.0,
			"-0.022": 0.0,
			"-0.021": 0.0,
			"-0.02": 0.0,
			"-0.019": 0.0,
			"-0.018": 0.0,
			"-0.017": 0.0,
			"-0.016": 0.0,
			"-0.015": 0.0,
			"-0.014": 0.0,
			"-0.013": 0.0,
			"-0.012": 0.0,
			"-0.011": 0.0,
			"-0.01": 0.0,
			"-0.009": 0.0,
			"-0.008": 0.0,
			"-0.007": 0.0,
			"-0.006": 0.0,
			"-0.005": 0.0,
			"-0.004": 0.60667357687,
			"-0.003": 13.8979298244,
			"-0.002": 35.2481448913,
			"-0.001": 43.4542314229,
			"0.0": 51.0379552324,
			"0.001": 34.2705028459,
			"0.002": 17.4658463516,
			"0.003": 11.1075383596,
			"0.004": 5.83385665369,
			"0.005": 2.60521349034,
			"0.006": 1.87729590669,
			"0.007": 1.36184148522,
			"0.008": 0.032406362124,
			"0.009": 0.0,
			"0.01": 0.0,
			"0.011": 0.0,
			"0.012": 0.0,
			"0.013": 0.0,
			"0.014": 0.0,
			"0.015": 0.0,
			"0.016": 0.0,
			"0.017": 0.0,
			"0.018": 0.0,
			"0.019": 0.0,
			"0.02": 0.0,
			"0.021": 0.0,
			"0.022": 0.0,
			"0.023": 0.0,
			"0.024": 0.0,
			"0.025": 0.0
		}
	}
}
