{
	 "smiles": "NNC(=O)C1CCCC1", 
	 "Tm": 386.15, 
	 "num_atms": 21, 
	 "gaussian": { 
		 "optdone": 1, 
		 "sigma_profile": "yes", 
		 "theory": "DFT", 
		 "functional": "B3LYP", 
		 "basiset": "6-31G**", 
		 "properties": { 
			 "R2extent": 1888.3117, 
			 "electric_dipole_moment_norm": 2.20803831488, 
			 "electric_quadrupole_moment_norm": 2.48003149577, 
			 "total_energy": -420.588117544, 
			 "HOMO_LUMO_gap": 0.27564, 
			 "cosmo_polarized_energy": -11.25, 
			 "cosmo_cavitation_energy": 23.01, 
			 "cosmo_dispersion_energy": -17.16, 
			 "cosmo_repulsion_energy": 1.45, 
			 "cosmo_total_nonelectrostatic_energy": 7.31, 
			 "SMD_solvation_energy": 4.39 
		},
		"coords": [
			{
				"x": -0.936988219,
				"y": 0.0267060983,
				"z": 3.7794055844,
				"element": "N" 
			},
			{
				"x": -0.0417623612,
				"y": -0.6269684614,
				"z": 2.9081749957,
				"element": "N" 
			},
			{
				"x": 0.0748948982,
				"y": -0.2599815483,
				"z": 1.5942831205,
				"element": "C" 
			},
			{
				"x": -0.4987578894,
				"y": 0.7317829702,
				"z": 1.1536489687,
				"element": "O" 
			},
			{
				"x": 0.9515669319,
				"y": -1.1600091383,
				"z": 0.7358049665,
				"element": "C" 
			},
			{
				"x": 2.0699263714,
				"y": -0.372644872,
				"z": 0.0102365889,
				"element": "C" 
			},
			{
				"x": 2.3939020722,
				"y": -1.1845184011,
				"z": -1.2753166007,
				"element": "C" 
			},
			{
				"x": 1.2823558906,
				"y": -2.2631372063,
				"z": -1.3932128027,
				"element": "C" 
			},
			{
				"x": 0.1732103339,
				"y": -1.80086626,
				"z": -0.4336271163,
				"element": "C" 
			},
			{
				"x": -0.5136142692,
				"y": 0.9182168705,
				"z": 4.0370780768,
				"element": "H" 
			},
			{
				"x": -1.7557760082,
				"y": 0.2758983797,
				"z": 3.2226436851,
				"element": "H" 
			},
			{
				"x": 0.2649746901,
				"y": -1.5369442768,
				"z": 3.2186890154,
				"element": "H" 
			},
			{
				"x": 1.3965641886,
				"y": -1.95421592,
				"z": 1.3516337201,
				"element": "H" 
			},
			{
				"x": 1.6719486425,
				"y": 0.6136440379,
				"z": -0.2461085409,
				"element": "H" 
			},
			{
				"x": 2.9450027275,
				"y": -0.2180107684,
				"z": 0.6488419158,
				"element": "H" 
			},
			{
				"x": 2.4014060662,
				"y": -0.5265628886,
				"z": -2.1498274586,
				"element": "H" 
			},
			{
				"x": 3.3849673359,
				"y": -1.645900554,
				"z": -1.2233037054,
				"element": "H" 
			},
			{
				"x": 0.9217339691,
				"y": -2.3900369037,
				"z": -2.4186262323,
				"element": "H" 
			},
			{
				"x": 1.6670449621,
				"y": -3.2375164024,
				"z": -1.068881277,
				"element": "H" 
			},
			{
				"x": -0.4898495876,
				"y": -2.6120398254,
				"z": -0.1146844198,
				"element": "H" 
			},
			{
				"x": -0.4461507456,
				"y": -1.0238949301,
				"z": -0.895852484,
				"element": "H" 
			}
		],
		 "valence_orbital": [ 
			{
				"type": "occ",
				"energy": -0.32217,
				"method": "rhf"
			},
			{
				"type": "occ",
				"energy": -0.31605,
				"method": "rhf"
			},
			{
				"type": "occ",
				"energy": -0.28335,
				"method": "rhf"
			},
			{
				"type": "occ",
				"energy": -0.25226,
				"method": "rhf"
			},
			{
				"type": "occ",
				"energy": -0.24924,
				"method": "rhf"
			},
			{
				"type": "unocc",
				"energy": 0.0264,
				"method": "rhf"
			},
			{
				"type": "unocc",
				"energy": 0.07083,
				"method": "rhf"
			},
			{
				"type": "unocc",
				"energy": 0.08978,
				"method": "rhf"
			},
			{
				"type": "unocc",
				"energy": 0.09773,
				"method": "rhf"
			},
			{
				"type": "unocc",
				"energy": 0.10919,
				"method": "rhf"
			}
		],
		"cosmo_sigma_profile": { 
			"-0.025": 0.0,
			"-0.024": 0.0,
			"-0.023": 0.0,
			"-0.022": 0.0,
			"-0.021": 0.0,
			"-0.02": 0.0,
			"-0.019": 0.0,
			"-0.018": 0.0,
			"-0.017": 0.0,
			"-0.016": 0.0,
			"-0.015": 0.0211062191797,
			"-0.014": 0.801463650263,
			"-0.013": 1.13394406165,
			"-0.012": 1.09446239812,
			"-0.011": 3.09133866949,
			"-0.01": 3.07843774252,
			"-0.009": 3.09470855176,
			"-0.008": 3.9458033846,
			"-0.007": 3.26816396471,
			"-0.006": 2.85566508683,
			"-0.005": 3.35309621948,
			"-0.004": 4.24873316459,
			"-0.003": 14.0412230228,
			"-0.002": 24.1782401409,
			"-0.001": 27.8624286478,
			"0.0": 21.4716116538,
			"0.001": 18.4424013148,
			"0.002": 6.71759352904,
			"0.003": 3.89375065662,
			"0.004": 3.75159969515,
			"0.005": 2.17525538134,
			"0.006": 1.6607348658,
			"0.007": 2.18526786483,
			"0.008": 2.29469152163,
			"0.009": 2.47139545767,
			"0.01": 2.1088805693,
			"0.011": 1.08647975789,
			"0.012": 2.6085041586,
			"0.013": 2.96997632471,
			"0.014": 5.42002644564,
			"0.015": 1.83402086108,
			"0.016": 0.38614016973,
			"0.017": 0.404144814589,
			"0.018": 0.0,
			"0.019": 0.0,
			"0.02": 0.0,
			"0.021": 0.0,
			"0.022": 0.0,
			"0.023": 0.0,
			"0.024": 0.0,
			"0.025": 0.0
		}
	}
}
